/*--------------------------------*- C++ -*----------------------------------*  =========                 |
  \      /  F ield         | OpenFOAM: The Open Source CFD Toolbox
   \    /   O peration     | Website:  https://openfoam.org
    \  /    A nd           | Version:  11
     \/     M anipulation  |
\*---------------------------------------------------------------------------*/
FoamFile
{
    format      ascii;
    class       volScalarField;
    object      U;
}
// * * * * * * * * * * * * * * * * * * * * * * * * * * * * * * * * * * * * * //

dimensions      [0 1 -1 0 0 0 0];

internalField   nonuniform List<scalar> 
2880
( 
0.0716271609600627
0.14042402353596034
0.21974311770234517
0.2684662656135049
0.33865351486181644
0.4494271964529677
0.10007958450400531
0.16999241825423608
0.2425448688995078
0.2870705199123162
0.34950252524668746
0.41984877740646936
0.11345080579396699
0.1805832997678947
0.24654104080241127
0.28983572779186434
0.35322656627286947
0.4265200944795697
0.12546727247479372
0.1883312728087652
0.24755963299456293
0.2901905555134871
0.3556649619929775
0.43375270886595885
0.13815386086913603
0.19479988122353425
0.24779498001951458
0.29007692193706464
0.35633853331871157
0.43618271388990143
0.15031854456661808
0.19999412992247004
0.24666381816144323
0.2895410618702335
0.3553362819989853
0.4347285236954228
0.161327645311555
0.20356615941130382
0.2454689830325215
0.2887104138109415
0.353040424296367
0.430245370432879
0.17013961932905292
0.2059429137634912
0.24452717512138075
0.287658908103851
0.35058588678341396
0.42470129015620905
0.17748225713019855
0.20761332059478493
0.2434065530605189
0.28642335409137354
0.3478002721848458
0.4189962160204775
0.1832339917349326
0.20883613005248278
0.2421856883011099
0.2856343648924029
0.34595941290760396
0.415094254970504
0.18724034737357614
0.20986851458571337
0.24276818275947804
0.2858416405035476
0.3456832603414983
0.4136140937885757
0.1894581247346084
0.21105855530685522
0.24448016490093258
0.28768947635117614
0.3468013069905008
0.4130307436590571
0.18970023310080794
0.21181084303599745
0.2468793359836476
0.2909788000082286
0.34969068759398053
0.4150378959626982
0.1880946593995748
0.21231357357768985
0.24931777505427977
0.29536863712429
0.35492050583483603
0.4204094976942912
0.1842651305119904
0.21222257380666
0.2516183045994339
0.29986121542558114
0.36068561558082773
0.4265875523058728
0.17876533980328704
0.21155450314148283
0.25384800045365824
0.30380201623355063
0.3662545580284036
0.43314213468187307
0.1718051575475659
0.21031722719604584
0.2560003787799405
0.30654311177559207
0.37117406224971283
0.43966678310771423
0.16275182422629722
0.207971056949066
0.2569497262143045
0.30871562657492746
0.3749752707203492
0.4453226284077303
0.15175683765062392
0.20371462258938583
0.2573928309063761
0.3094771342283325
0.3770275867262052
0.44975606314049904
0.1386446118326086
0.1969276455689396
0.2565670199479768
0.30820391055594354
0.37746813108515576
0.4518081152149201
0.12384034845543941
0.1878555516802033
0.254037776573264
0.30618802985000204
0.3756429414334171
0.4503724579351345
0.10910577745831034
0.17609675007529815
0.24928048996513671
0.30225984663927064
0.3722284877886645
0.4439703759347322
0.09306832604246157
0.1613058637055392
0.24029949790480284
0.29418467924128827
0.3689148542200865
0.4343757785326584
0.063727804343778
0.12835795421693255
0.21379880329963105
0.26838698313656206
0.36101641906118354
0.4352031518186851
0.8226991941127215
0.9053768892558532
0.9471340672265152
0.9717539285169888
0.9879609509314313
0.9993659604151525
1.010900820003007
1.0254680186755416
1.0416263029890775
1.0579621310912264
1.0728554332833644
1.0862347760848672
1.0959756147563893
1.102195595261612
1.105505156201763
1.10608210299431
1.1042743981641943
1.1003016889769952
1.0948196427668575
1.0875683574262167
1.0788960242099346
1.067336033985948
1.0533659641121704
1.037872292790201
0.7226224015186647
0.8688909859836729
0.9290026219315332
0.9599634127329919
0.9812781814973224
0.99654517576215
1.010376137483906
1.0287830118139503
1.0490852370713402
1.0671951402499142
1.0820896792491235
1.0939707815041988
1.1027553844632128
1.1077354569351974
1.1085445964190455
1.1076271345462398
1.1044656895331835
1.0998688585301115
1.0932906488447358
1.0855613920817795
1.0764701425704686
1.064870289277188
1.050437233322665
1.0348867865555775
0.6553246785253031
0.818458873863156
0.894491597851396
0.9385698207633607
0.9666422199142174
0.9885595640434066
1.008281722470104
1.0320165839522963
1.0543448716337143
1.0744901270856972
1.0903461291628183
1.100492445706104
1.1067984053589344
1.109143590487344
1.1094758544582128
1.1073025513639487
1.1032026230770113
1.0978697364444785
1.0904357380573249
1.0824249572991465
1.0723212448504686
1.060341236335903
1.0463404460137478
1.0303440632944905
0.6133102582815766
0.7657462386758531
0.8525153061323869
0.9070294694344018
0.9441973020281834
0.9742255838845403
1.0043063569690756
1.0328938591915
1.0578883176562364
1.0785287288101386
1.0940275150719485
1.1030785127820895
1.1073098279853333
1.1084509335157755
1.1073146614346683
1.1044753678057817
1.0990395825031167
1.0933638428188521
1.0859455248807874
1.0770449868977245
1.0668586570979872
1.0552730264431724
1.0408832872470193
1.0254219961657969
0.5844736361739407
0.7207535024786021
0.8112693579687941
0.8730498707465107
0.9175523938606314
0.9565725240097408
0.9950289016685857
1.0295115976765894
1.057697684769364
1.0782269881286193
1.0924832411574952
1.10054929858668
1.1037097625681704
1.1042306961483523
1.1024287975475136
1.0987873521435727
1.0936915834352854
1.087766813633968
1.0801491789225683
1.0713545752244242
1.061536449874819
1.0503582335044603
1.0359495259559532
1.0205972777422145
0.561757105914263
0.6841550991575687
0.7733712476858993
0.8404029741963587
0.8923633912540886
0.9398985680310635
0.9850492802466748
1.0236299397221869
1.053759840391772
1.0744128243900182
1.0868309866362353
1.0935759537532186
1.0967536819017123
1.0963080601927928
1.0947413325358242
1.0909958419028611
1.0865982701030468
1.0803790507779838
1.073017191439278
1.0644806390118418
1.0553348411099088
1.044442778534626
1.0302966555478146
1.0151972892306902
0.5420554266528325
0.6542006504678878
0.7420578216586328
0.8120390396714996
0.8713902504182548
0.9278293254097348
0.9771444141938682
1.0177560603487168
1.0472369148842462
1.0667406922090072
1.07848382740595
1.0843993733063406
1.0872653138774613
1.0874646485086181
1.0861702116816474
1.0828575256856023
1.0784707055842562
1.0728732181576661
1.0660144692151987
1.058227707579634
1.049483922627896
1.0387905716071253
1.025256677009389
1.0117766804364945
0.5257074355958467
0.6296493691623143
0.716465973585744
0.7899537115127726
0.8558430097115984
0.9183810884520694
0.9711260214413172
1.012142595426735
1.0404349472729129
1.0575324550213876
1.0688980627420033
1.0744428693214367
1.0775331975935822
1.0778014319367548
1.0769273841180584
1.0739988821780144
1.0700446394150926
1.065430796879693
1.0592590663781316
1.0518881812942034
1.0441667036338609
1.0343500121498368
1.0217268068824275
1.0084440827567038
0.5124696462992481
0.6113173341694657
0.6984160504074215
0.7734941506821666
0.8470120327605611
0.9134637926749098
0.9679478420485214
1.0076693813973927
1.0328494771568135
1.0489793729030745
1.058788144060566
1.0643187593731764
1.0674524952888882
1.0682315378985587
1.06730441305739
1.065083939472423
1.062519184853606
1.0580824874549422
1.0526870998469742
1.0466951389360466
1.0392071732422288
1.0307145492437002
1.019079423159858
1.0078681855551512
0.5037935246535136
0.5990379422402363
0.6866518762094086
0.7666244064344236
0.8456229551208372
0.9136842638152061
0.9661655050097309
1.00181306185861
1.0247924186960606
1.0391545428118152
1.048874570029901
1.054063412964012
1.0574170595754706
1.0587944720206186
1.0581529269685572
1.0569028547005592
1.0547087129595878
1.0511085731197078
1.0475111728618547
1.0420839174437482
1.0364784970299836
1.0292428122968678
1.0193988475468743
1.0093931659197681
0.4986698818237822
0.5939888396716864
0.6820460660929182
0.7671769975605565
0.8494503280241269
0.9171879815994718
0.9658022879326573
0.9974361736656184
1.0179507484116659
1.031250827974527
1.0398976715594426
1.045635182137184
1.0488400231044752
1.0502563413692538
1.0505227590531172
1.0497058562464345
1.0480839537865307
1.0457001487923425
1.0427632830958866
1.0396387724227367
1.035279406703992
1.029638160004138
1.021563514675601
1.0126950812368507
0.497070518675283
0.5936901759714419
0.6837697573935281
0.7759668645154082
0.8596624912930068
0.9237245132009938
0.966532253677229
0.9941548734003363
1.0125636331614019
1.0248107596991671
1.0324881547322005
1.0382166167370208
1.0416674462516695
1.0437953978129257
1.0441956835953812
1.043879507921373
1.0429498501407117
1.041824933658294
1.0407391731422366
1.0390593755110624
1.0369079022150145
1.0327619242684496
1.0257168854910983
1.0176904476733777
0.4994076909356035
0.5970578693637358
0.6939569953526814
0.7915965227557822
0.8737957878001493
0.9316302446950023
0.9688812038494055
0.9925733739714423
1.0084197864111273
1.0200925383569492
1.0276575828183394
1.0331634236754963
1.0369919820965032
1.0386460728017275
1.0391305974323046
1.0399742214119974
1.0409639638913948
1.0413578317108534
1.0417202718091405
1.0417202055932098
1.0399906638375487
1.0372012650816005
1.0310391451566292
1.0238029515178486
0.5047088019095713
0.6045261775105893
0.7094303906472726
0.8113059856952713
0.8887576784094069
0.939122941933539
0.9714788394672533
0.9919361629423875
1.0065041577662366
1.017532186979643
1.024257796066858
1.0288779029027342
1.0326523224338542
1.0360259398685514
1.038290765190299
1.040285503577069
1.0415819307422138
1.0429314410723534
1.044471553245145
1.0457506063852775
1.045505685072092
1.0429742911239288
1.0373928395647882
1.0297301528386045
0.513463184571231
0.6175490020297028
0.7317328286562947
0.8338868760556064
0.9036446873115447
0.9471046432299879
0.9742172963485258
0.9932413796195698
1.0065040659015354
1.0154930025858424
1.0227299101280831
1.0280017565661932
1.0322929841280677
1.0346019938722935
1.0373241282642105
1.0408734856611572
1.0445947940421987
1.0477065691118814
1.0497408730360747
1.0509863366625636
1.0504214858678926
1.048274592692803
1.0427000370278765
1.0350412992708322
0.5246185280908693
0.6382036334214828
0.7600381628892922
0.8564142403173709
0.9173821991270581
0.9543192588880145
0.9783589667944824
0.9944519998775455
1.006355404416361
1.0157382308634455
1.0218372688235882
1.0267183836625922
1.0309365943911104
1.035781175254887
1.0405865281371947
1.044875285717348
1.0484622109708477
1.0523351297019798
1.0552282326241649
1.0572055973075416
1.0568997832361418
1.0543218302613764
1.0479379193033478
1.0396883328992381
0.5371446916218837
0.6649952266632647
0.792603433176401
0.8797764628727054
0.9310359880129312
0.9616062575848084
0.9826687512992096
0.9973384342178754
1.007714801861098
1.0155887346852615
1.021858157478314
1.0276806691064622
1.0328428157838199
1.0389946339487117
1.0447810069316905
1.0504233615572554
1.055336337399753
1.058848721181446
1.0614129529264524
1.0630527963980139
1.0621950123724915
1.0588495353885097
1.0519488792930594
1.0429781732718433
0.550980290649501
0.6986613181747333
0.826792034823255
0.9007577069077987
0.9423776796010518
0.9689719473386107
0.9867836425979567
0.9998466182955329
1.0095753556667422
1.0173015721788008
1.02415308686952
1.0303533922325139
1.0377394193530323
1.0444289242331182
1.0505542942992006
1.055950642514795
1.0612683234557234
1.0654362567224278
1.0680412017357996
1.0679626917108083
1.0666786772614023
1.0622867649790149
1.0540101955398973
1.0437576090599017
0.5690170833773172
0.7400166749780983
0.857727429519167
0.9191595731479318
0.953450350360171
0.9756834363531794
0.9909635426886229
1.002311468845518
1.0110352663852231
1.0195447055606024
1.0260727238528604
1.0340085400962569
1.0419288545468524
1.050270862936595
1.0570334813769209
1.0633786306174047
1.0675077164186118
1.071502040508552
1.0733052689616798
1.0731945299533479
1.0697903473141537
1.0643814744215332
1.0552160534471469
1.0436412692586647
0.5929061825754546
0.7849620387159734
0.8856650360499664
0.934751096402217
0.9625065514827922
0.9811015158339618
0.9941553628935226
1.0046627844715483
1.013017693449505
1.021068663841028
1.0303805507144084
1.0405129359331569
1.049133488319903
1.0572144209870213
1.0639618558137065
1.0698946120635122
1.0745014904584533
1.0775894230822038
1.0779762443515812
1.0768097316848395
1.072295317037508
1.0652512720598972
1.0554133765500817
1.0430557349642922
0.6274083780218587
0.8285534554999491
0.9095645621350182
0.9485434724582995
0.9704813247297855
0.9858967985971654
0.9972884684379519
1.0068495147272252
1.0160800034001944
1.0263817255788072
1.0362360058610798
1.0465516505460872
1.0564727592312142
1.0648742181152377
1.0718686122096102
1.077005397212203
1.080759739493381
1.0825542432456836
1.0818281806666983
1.0793258787932294
1.0733586433871178
1.065320047504811
1.054465522156774
1.0410337347231362
0.6806470408877958
0.8656298771758334
0.928129809290251
0.958341671585573
0.9764734561619444
0.9894168984487224
0.9998477693382278
1.0096626699115687
1.0194407034203445
1.03024725923412
1.0427715359854735
1.0547819263918568
1.0643778368633448
1.0723069378095285
1.079254220561265
1.0836450474161474
1.086167332348292
1.0867920532605226
1.0847505514929743
1.0804513009812333
1.074237782570486
1.0648166526184346
1.053538189190942
1.0396647531747634
0.7525907873432449
0.8938938182477709
0.9406472609717917
0.9651067574706224
0.9804321323820844
0.9925331560871855
1.0020253130765657
1.0119710298419984
1.0243537515971546
1.037411421753153
1.0505497462185427
1.0627976370051266
1.073093331779729
1.0811043014334287
1.086469884915828
1.0896823938688662
1.0914260721314828
1.089884332205925
1.0870283498785485
1.081375900288677
1.0744582120413122
1.064734720377714
1.052252703812141
1.03745750657359
0.832751749870319
0.9103458857286522
0.9459354280614772
0.9682520365903201
0.9825865549279682
0.9941759126678738
1.0037684864991934
1.015926360455081
1.030215892317741
1.044977143527592
1.0587752811139888
1.0711145337463923
1.0811499406063267
1.0882444672486862
1.0930395658758283
1.095271485855577
1.0948826960807645
1.092598881978418
1.088316143473659
1.0819678943278126
1.074114021079086
1.063858348751152
1.0505144079731148
1.036335864314426
0.07308805721182937
0.14662897576492348
0.22894819877763978
0.27800906823191535
0.3480721674947599
0.45381316701980945
0.10452712505227474
0.1785816443483841
0.2526714676919498
0.29608409027872684
0.35753366275150283
0.42602291309964535
0.11916444700859295
0.18950866648566966
0.25653378539004446
0.29859722818493833
0.3620989824650772
0.43517448479335574
0.13189782519460422
0.19746071693726158
0.25699136459418886
0.2988979588129961
0.3644658730899771
0.44382126394369176
0.14521122042764337
0.20379100442843992
0.2562694544288389
0.29860439699053576
0.3651717484475767
0.4470033513533255
0.15809499730695514
0.20849326438625368
0.25541453055305346
0.29787906141027626
0.36474262217188125
0.4460783857995756
0.17005196747509055
0.2117095337200999
0.2537253217082935
0.2968165655229292
0.36290659824372123
0.44238860500753624
0.17986725526138142
0.21453534946185487
0.2519113997511911
0.295352774787746
0.3603506678307159
0.4369406341408467
0.18786212897410653
0.21660013439708775
0.25111491834315447
0.29390666772838625
0.3574594283050212
0.4309490321703489
0.19406221606153568
0.2181442547057334
0.25099076655171143
0.2934647824999047
0.35540904265647116
0.4266297421413018
0.19854279265851657
0.21932521934414703
0.2513608858223671
0.29354860877938327
0.3547337352835092
0.42498872377942365
0.20069288671592503
0.22022969866026526
0.25269735293007634
0.2946563247792489
0.35576659546039757
0.4250343229971514
0.2007869410988855
0.22087991110913827
0.2545970672150925
0.29782740549880243
0.3590597882399793
0.4267965372955343
0.19885530370499588
0.22118976963279752
0.2570582232634945
0.3022327499286531
0.3637050104458276
0.43097329444164556
0.1946680927174028
0.2211107025634024
0.25952399612608273
0.3067509116487009
0.3690131307741087
0.4365998951088815
0.1887170064499732
0.2203184216186049
0.2616219304401736
0.31081014047014477
0.3741743214340466
0.4425959983565525
0.1811957211474011
0.2188296721725025
0.26301795806350003
0.3139468904549385
0.37854346159099833
0.44818110609607487
0.17157749064935085
0.21605668268635694
0.26450976791722053
0.3158251440166586
0.3820659000680012
0.4530954805000867
0.1599236794245098
0.21182096254154942
0.264796520392063
0.3159334320920457
0.38389209495553167
0.4568218219233258
0.146131054530738
0.20537358105468764
0.2641667600374103
0.31535349474961233
0.38380689715020655
0.45779236049410305
0.12997942344717728
0.19593404808342177
0.2617908473511373
0.31286219633613
0.38165775507737554
0.4556406025273608
0.11420311354743218
0.1838127291626237
0.25681753850739786
0.30885549328914874
0.3779534172815566
0.4487798125268757
0.09697305898329248
0.1686006034756517
0.24782673036290567
0.3007551648429992
0.374131813042992
0.4389318726947533
0.06457470198796664
0.13369119088629738
0.22002708654955436
0.273800494145373
0.36581666522127065
0.43752309127081124
0.8220991057225245
0.9043517452273413
0.9426665534864187
0.9666874495432127
0.9818346638609519
0.9940097295575466
1.0065782265037237
1.0200731660882787
1.0366810157643391
1.0534849687531578
1.0679964989486945
1.0803051226982694
1.0890011259799415
1.095443581426093
1.0982437813074473
1.0993459222728168
1.0979766337557768
1.094318513457812
1.0890713854769447
1.0819719201966966
1.0731808550744972
1.062828248230126
1.0492882570457436
1.0341082422444516
0.7272148550968711
0.8719181860356091
0.9281098795728415
0.958596821400673
0.9774882060161796
0.9923122432944257
1.0074535656490844
1.0260583311508134
1.0443643830966318
1.0614593032816222
1.077232936105885
1.0882229855264618
1.096638952563202
1.1010950349170512
1.1028491171680115
1.102141312798142
1.099660824765455
1.0946771326379339
1.088580900979653
1.0812871931800785
1.0721677809097767
1.061159514262753
1.0477370166514766
1.0325209097508707
0.6645069793493191
0.8260877207364019
0.8995074581792337
0.940811218956194
0.9670059658131257
0.9864056975044617
1.0078684630611725
1.0302770694768577
1.0511071269571213
1.0696792079222206
1.08451178602581
1.094944792569366
1.1015101958369249
1.1047185309547967
1.1050264189383234
1.103414383574732
1.09975293897887
1.0943904682240517
1.087868889922128
1.0803821929110928
1.0709768221758882
1.0595567751461539
1.045972003696401
1.0304480450248399
0.6251012550354675
0.7792204793217532
0.863358062975144
0.9148931887764274
0.9493397233650529
0.9782939453192725
1.0050748253679966
1.0318668405845592
1.0557217943694124
1.0754593297446047
1.0895839420038538
1.0987343060396035
1.1041549954442935
1.105934794531377
1.1051566829899024
1.1025397081176296
1.0984071908120674
1.092989354811275
1.0861165842163338
1.0777114428297951
1.067958747597491
1.057209216657431
1.0430035542175213
1.0282337975161666
0.5979400456869788
0.7377352391180763
0.8271567860877701
0.8861417636629986
0.9294287189922229
0.9652116987420765
1.0000982166760986
1.0310975276466672
1.057414127303162
1.0771990591594338
1.0911517500772643
1.0991971043640618
1.1030058070455993
1.1039922453912294
1.1028720420401719
1.099519563088986
1.0948777749898693
1.0891931689079555
1.0826744803542114
1.074095979771827
1.0645973288055122
1.0535728517760194
1.0397330187679608
1.0251544204136736
0.576128513717007
0.7023275369346753
0.7935108031658122
0.8591826620194689
0.9090627512166827
0.9535113934580002
0.9942349014541128
1.0289622394266396
1.0568248625011152
1.0762921502249632
1.0889703799313577
1.0958202590849955
1.0985902751169057
1.0993098211307315
1.0976159618322445
1.0944721263659103
1.0900355486237143
1.0847316231345072
1.0781772429403529
1.0701780210908762
1.0609738757028222
1.050859653766452
1.0366487711009007
1.0227203456926668
0.557484830352085
0.6739516389910682
0.7646839438814802
0.8352819064341581
0.8921988350922203
0.9436711544598255
0.9893331217217032
1.0266750028150307
1.054113933598097
1.0724841124060314
1.0836016108943813
1.0899918560202688
1.09272710539683
1.0928236975722299
1.0911884173159279
1.088346686009543
1.0846871430720755
1.0788652391768017
1.0725973221200746
1.0655639551428135
1.056894265880589
1.0464645840882496
1.033096680489497
1.0196753532567784
0.5414597720425327
0.6507790060779196
0.7413668919913738
0.8158450542232601
0.879321157086259
0.937928547664103
0.9866881526244021
1.0246555814168001
1.0516474147779977
1.0680223838649572
1.0770996538014288
1.0828907132973262
1.0854669668097217
1.0855604360642628
1.0842009905354355
1.0815016692938666
1.0779529878978635
1.0733142285994473
1.0674003626198758
1.0608422961017288
1.0530022358624755
1.0435483101095568
1.0308064262105114
1.0171379348566667
0.5281009084043901
0.6323011192980442
0.7238457289243763
0.8015761066454238
0.87239942841708
0.9357642298295777
0.9864126150974979
1.023571034421802
1.0471987891187613
1.0618422440176412
1.070755808055591
1.0757572530916513
1.0780211100614034
1.0780882847709956
1.077830663635602
1.0757424872771995
1.0731027364542403
1.068480821148376
1.0634705121311208
1.0566094754941737
1.0492466049163212
1.040298460535329
1.028586387026979
1.015934100040244
0.5189896432797105
0.620509877879999
0.7126861766677298
0.7938292831843823
0.871375439214984
0.9382145975322406
0.9886617393209518
1.022627542498594
1.0434560507295048
1.0566086598104374
1.0648283860461214
1.0699207189422923
1.0716188926954309
1.0722052208169714
1.0725158186163173
1.0708394377470893
1.0678622212132012
1.0642627387986772
1.0596655965640542
1.0536558823998938
1.0465895047142304
1.0386512625962903
1.0275524806496004
1.015603417315755
0.5145627317209474
0.6155936098247218
0.7076301414586361
0.7945631890035894
0.876965483905178
0.9438850177855603
0.9908813049262368
1.0211704209743913
1.04017001657862
1.0520888576532454
1.0595877009240515
1.064211319051612
1.067003769006351
1.067883599356837
1.067415285601492
1.0665823198152797
1.0646029121167258
1.0611369260083994
1.057312649899908
1.0524460906761641
1.0463083589331266
1.038834222506801
1.0285672657793827
1.0173710274634602
0.51299781095824
0.6146973413892596
0.7099551793819574
0.8039847929376134
0.8876805900060751
0.9512327715785376
0.9934003024129113
1.0204688340931949
1.0375759643143487
1.0486248428662284
1.0559588563789728
1.0607918858048206
1.0633133485272497
1.0646600143976082
1.065245184064193
1.064026041873924
1.062225461000705
1.0597474693257365
1.0563536403198812
1.0524070800665501
1.0471869209376141
1.0404376125886543
1.03078283099602
1.0197027414276332
0.5135280661220158
0.6172284719350636
0.7177577667771462
0.8181950707192083
0.9008952513678044
0.959670571603687
0.9965923378716918
1.0199983566545503
1.0357644120331664
1.0470084204031285
1.0537510712062312
1.0588414443267595
1.0616135945106948
1.0635960113736984
1.0640219621016118
1.0637124370687248
1.0618186900296886
1.059513396882788
1.0575974417312537
1.054538254834994
1.0501509958279214
1.0436996366902258
1.0344140410807423
1.023893147079002
0.5189886263593566
0.6235444725372857
0.7317312361147478
0.8358611059825657
0.9146358538845772
0.9664488160610805
0.9988094632588737
1.020101269923485
1.035191306033461
1.0453971069429497
1.0526909276519127
1.0579433719257425
1.0615841107993784
1.0635282084301907
1.063972710406549
1.0639948133375885
1.0635029434119885
1.0627565641119718
1.061056789953434
1.0581729267710944
1.0541295090028675
1.0484723225022485
1.0391345086878034
1.0280683700837534
0.5271606154885471
0.6351809538115883
0.7513751231876903
0.8548379148115075
0.9267166611300779
0.9715381874989232
1.000813563893426
1.0201566544259073
1.034387854948517
1.0449562258496983
1.0525530182974105
1.0578549865498539
1.061336940101174
1.0645435304801862
1.0659037782707812
1.0667495342778848
1.0677467330556178
1.0671431537640153
1.0659912959896478
1.0636264564391045
1.0598606963325796
1.0535508148848307
1.0441760648655694
1.0330869768286217
0.537051120808374
0.6534819646296713
0.7770445526083762
0.8751081075894165
0.9365109061953296
0.9759739001024056
1.0013498957114846
1.0198956317344245
1.033581370949524
1.0440625589573918
1.052207801645497
1.0586766855025584
1.0634975664546158
1.0665851195155123
1.0689335301726897
1.070797171057649
1.072325664471734
1.073040427577734
1.0718980662640194
1.0694544542914244
1.0649624982637675
1.0587513315311075
1.0493637172795722
1.0377213120047621
0.5480016037507851
0.678587536615368
0.8075328321667878
0.8938589825454248
0.9459681217587383
0.9789264070919702
1.0023265916737447
1.0201474634858905
1.03337001273279
1.0442860708876402
1.0528300393855285
1.059460454974311
1.0647228232769759
1.0691658935497605
1.0736229359589877
1.0763327780556353
1.0780903583820574
1.078803132062197
1.077941309332934
1.0756787713133602
1.071046932861319
1.0638904015580637
1.0540230980422338
1.041632238666613
0.5609859086179295
0.710936377160726
0.8377704232968117
0.9114353532627044
0.9547517999024684
0.9825689449015906
1.002765245437263
1.0200548912571998
1.0332800973841194
1.0442196897696283
1.0536351532189874
1.061162623217736
1.0678693107969706
1.0732660705181172
1.0782426061711723
1.081949186574128
1.0844768930355435
1.0850474344520766
1.0839584401264872
1.0814033912055634
1.0760110418575244
1.0688217191626055
1.0582501585992006
1.0449111531432098
0.577983761521112
0.7498995946003875
0.8660449401270442
0.9272850890515806
0.9622672151914491
0.9867462097941867
1.0044992974919063
1.0199757077981977
1.0334475754225207
1.0444870185417439
1.0544892816250557
1.0632006549867439
1.0716171386835882
1.0784019943880412
1.0832148311957097
1.0865320862695438
1.0899360116935344
1.090431496621298
1.0892339596078018
1.0862259669371916
1.0804755916648046
1.0728568200967725
1.06098512680874
1.0470311799460823
0.6008987984613289
0.7926913016938383
0.8915989868875503
0.9406417656174204
0.9699028468316773
0.9904654850787667
1.0077508787000367
1.0217992079584033
1.0342419251167398
1.0459539688454094
1.0567008442328967
1.066343144907484
1.0746345115053926
1.0828562033841327
1.0882540976049981
1.0921568288622134
1.0940417824132573
1.0951109398023833
1.09322201834313
1.090166988684509
1.0836923218049925
1.075044233713415
1.0628581024820352
1.0489760673874664
0.6342980503769503
0.8342216696827819
0.9132402430702117
0.9513996407585248
0.9767988360191844
0.9951234571109728
1.0109559924517244
1.0246522859462488
1.03677799318663
1.0470014895807784
1.0592342297953554
1.0699376900369773
1.0792500373983152
1.0859749859696919
1.0921018297079894
1.096581573263748
1.0984297780704053
1.0982962824715334
1.0962422692018912
1.0916306368135693
1.0850047952766668
1.0760232876397233
1.0639114716076603
1.0487436539680033
0.6864551342175026
0.8697343090484463
0.9295362847783264
0.9612133824468045
0.982175364530761
1.0000952379895873
1.0142780867088121
1.0278520243621012
1.0402689229819868
1.0522642915115896
1.0632650473364176
1.073465031808846
1.083424360635884
1.090871336715855
1.0960262094572397
1.0995432753865393
1.1009837203927637
1.1002483638229335
1.0974654893127263
1.092266297998119
1.0851938770292497
1.0754900247686086
1.062832768737219
1.0480211080065764
0.7564618239942493
0.8952578927611966
0.9404796916515782
0.9678130410996205
0.9872927318009517
1.0046211937565788
1.018914222408632
1.0313150770774668
1.0438331793697975
1.0567274974432863
1.0686404762621131
1.07854506457018
1.087175301029464
1.0944664840855978
1.0995020985371295
1.10188118970281
1.1021711549733095
1.1012844890454374
1.0973894788673615
1.091380339594344
1.0841299435539058
1.0740380290241247
1.061369537485745
1.0461276262431574
0.8321341372769486
0.907472864261735
0.9453246893024929
0.9714618234397335
0.9918192513148981
1.0077145578926812
1.0227345913631063
1.035486416308096
1.049320118041084
1.0623966362461057
1.074620274737153
1.0846838377151102
1.0920787078772118
1.097592990957818
1.1014662410317384
1.1031827539475738
1.1026000916815537
1.1003953134514537
1.095901484475312
1.0898824521346595
1.081787508136127
1.0716879704922138
1.0584168362593607
1.042648422107486
0.07504442161651255
0.1519869827831063
0.2359598222146907
0.28533564041331677
0.3541692934759857
0.45586150077759846
0.10622681638212622
0.18362208908654973
0.25805924038395944
0.3023345266631954
0.3621788166255845
0.426192818590657
0.12169328760121505
0.19426677157892558
0.26080635791192774
0.303032056105884
0.3631039062772895
0.4314194246731814
0.13541040302234517
0.20172281961303798
0.26083841908598354
0.3011733920603421
0.36346458293645667
0.4373598695705472
0.14918570123765754
0.20799833612028065
0.2596438704726046
0.2995088242515656
0.36230656454093035
0.4388361976428934
0.1624305904773542
0.21275462517926086
0.2574336269553589
0.29746944464885583
0.35985434281933126
0.4364960823210533
0.17410376805444447
0.2158794121068323
0.25543624907401336
0.2951217713011318
0.3562889675694583
0.4310028280298348
0.1837792695140411
0.21783570423110224
0.2535463572453711
0.2928831569257208
0.35239760798178443
0.4242051215831535
0.1918704098833408
0.2190991250498863
0.25153236697403747
0.2905618159752283
0.348498096056546
0.4173851506482165
0.1981713227386604
0.22012295826027672
0.2497343906951085
0.28888992747326603
0.34508630103580556
0.41205106523138796
0.2025404150883754
0.22102582731454723
0.2500308497481575
0.28854076299686054
0.34416661171152513
0.41068336390428
0.2048499569626672
0.22204934601668636
0.2513653057429748
0.28989372052083934
0.34496581076417626
0.41100850625530205
0.20527527316427666
0.22264253474142176
0.25342080754365437
0.2932247772566286
0.34869031293931674
0.4147078296678567
0.20332975672873604
0.22301376030768483
0.25584021379641647
0.29799516897335926
0.35499568533013076
0.4212215681590929
0.19913918016986387
0.2230193841424193
0.2585595799043829
0.30302547987940687
0.3616754248159467
0.4289598174967167
0.19299960243205874
0.2224407135772441
0.261304190056609
0.30758346525173424
0.3682937130237869
0.43709692840326675
0.18511560734924115
0.22127980433729638
0.26383455932232863
0.3114182205039995
0.3743696647062423
0.4446570060639717
0.17528122365570029
0.21912148171969809
0.2655846724305687
0.3145571637925139
0.37907615320244914
0.4513102718920321