/*--------------------------------*- C++ -*----------------------------------*\
  =========                 |
  \\      /  F ield         | OpenFOAM: The Open Source CFD Toolbox
   \\    /   O peration     | Website:  https://openfoam.org
    \\  /    A nd           | Version:  11
     \\/     M anipulation  |
\*---------------------------------------------------------------------------*/
FoamFile
{
    format      ascii;
    class       surfaceScalarField;
    location    "1.86";
    object      meshPhi;
}
// * * * * * * * * * * * * * * * * * * * * * * * * * * * * * * * * * * * * * //

dimensions      [0 3 -1 0 0 0 0];

internalField   nonuniform List<scalar> 
5640
(
1.3698e-16
9.81747e-07
2.42136e-16
1.37445e-06
3.7705e-16
1.76715e-06
-1.33917e-15
2.15984e-06
-3.68153e-15
2.55254e-06
2.94524e-06
5.95145e-15
1.87074e-18
9.81747e-07
-3.88736e-16
1.37445e-06
-2.6041e-15
1.76715e-06
1.94373e-15
2.15984e-06
8.06624e-15
2.55254e-06
2.94524e-06
-9.02978e-15
-1.16435e-16
9.81747e-07
1.86417e-16
1.37445e-06
-1.5623e-15
1.76715e-06
-4.21243e-15
2.15984e-06
-7.49831e-15
2.55254e-06
2.94524e-06
7.72424e-16
8.69622e-17
9.81747e-07
-1.01927e-16
1.37445e-06
2.69321e-15
1.76715e-06
7.44287e-15
2.15984e-06
3.25997e-15
2.55254e-06
2.94524e-06
-2.7979e-15
-4.83356e-17
9.81747e-07
3.95301e-17
1.37445e-06
1.94391e-16
1.76715e-06
-1.806e-15
2.15984e-06
-4.20838e-15
2.55254e-06
2.94524e-06
5.01342e-15
-1.80078e-16
9.81747e-07
4.36514e-18
1.37445e-06
-1.84772e-15
1.76715e-06
-3.88611e-15
2.15984e-06
3.15721e-15
2.55254e-06
2.94524e-06
4.98339e-16
2.53997e-16
9.81747e-07
2.55468e-16
1.37445e-06
2.06616e-15
1.76715e-06
4.50419e-15
2.15984e-06
-2.30994e-15
2.55254e-06
2.94524e-06
5.41066e-16
2.16978e-17
9.81747e-07
-3.2167e-16
1.37445e-06
-1.14878e-15
1.76715e-06
-5.28552e-15
2.15984e-06
-3.76761e-16
2.55254e-06
2.94524e-06
-5.6397e-15
-1.43372e-16
9.81747e-07
1.66415e-16
1.37445e-06
4.19129e-15
1.76715e-06
6.34956e-15
2.15984e-06
-8.05612e-16
2.55254e-06
2.94524e-06
8.39482e-16
-6.87795e-17
9.81747e-07
-9.19785e-17
1.37445e-06
-2.76929e-15
1.76715e-06
-3.68712e-16
2.15984e-06
-1.45067e-15
2.55254e-06
2.94524e-06
-1.7637e-16
1.66342e-16
9.81747e-07
-8.86445e-17
1.37445e-06
5.69743e-16
1.76715e-06
-2.10346e-15
2.15984e-06
9.66018e-15
2.55254e-06
2.94524e-06
5.29055e-15
-1.77743e-16
9.81747e-07
-2.04472e-17
1.37445e-06
-3.45421e-16
1.76715e-06
-4.17266e-15
2.15984e-06
-2.62215e-15
2.55254e-06
2.94524e-06
5.36994e-15
1.77838e-16
9.81747e-07
2.05304e-17
1.37445e-06
3.45493e-16
1.76715e-06
4.1727e-15
2.15984e-06
2.62249e-15
2.55254e-06
2.94524e-06
-5.36923e-15
-1.66294e-16
9.81747e-07
8.87377e-17
1.37445e-06
-5.69622e-16
1.76715e-06
2.1036e-15
2.15984e-06
-9.65989e-15
2.55254e-06
2.94524e-06
-5.28993e-15
6.88648e-17
9.81747e-07
9.21087e-17
1.37445e-06
2.76943e-15
1.76715e-06
3.68894e-16
2.15984e-06
1.45093e-15
2.55254e-06
2.94524e-06
1.77029e-16
1.43422e-16
9.81747e-07
-1.66376e-16
1.37445e-06
-4.19103e-15
1.76715e-06
-6.34936e-15
2.15984e-06
8.05601e-16
2.55254e-06
2.94524e-06
-8.39023e-16
-2.1655e-17
9.81747e-07
3.21737e-16
1.37445e-06
1.149e-15
1.76715e-06
5.28569e-15
2.15984e-06
3.76763e-16
2.55254e-06
2.94524e-06
5.64008e-15
-2.53981e-16
9.81747e-07
-2.55405e-16
1.37445e-06
-2.06588e-15
1.76715e-06
-4.50399e-15
2.15984e-06
2.31027e-15
2.55254e-06
2.94524e-06
-5.40734e-16
1.80129e-16
9.81747e-07
-4.23137e-18
1.37445e-06
1.84789e-15
1.76715e-06
3.88634e-15
2.15984e-06
-3.15685e-15
2.55254e-06
2.94524e-06
-4.97919e-16
4.84026e-17
9.81747e-07
-3.94799e-17
1.37445e-06
-1.94264e-16
1.76715e-06
1.80622e-15
2.15984e-06
4.20878e-15
2.55254e-06
2.94524e-06
-5.01301e-15
-8.69058e-17
9.81747e-07
1.01939e-16
1.37445e-06
-2.69308e-15
1.76715e-06
-7.44278e-15
2.15984e-06
-3.25987e-15
2.55254e-06
2.94524e-06
2.79828e-15
1.16479e-16
9.81747e-07
-1.86351e-16
1.37445e-06
1.56241e-15
1.76715e-06
4.21266e-15
2.15984e-06
7.49853e-15
2.55254e-06
2.94524e-06
-7.72084e-16
-1.80715e-18
9.81747e-07
3.88811e-16
1.37445e-06
2.60422e-15
1.76715e-06
-1.94354e-15
2.15984e-06
-8.06608e-15
2.55254e-06
2.94524e-06
9.02996e-15
-1.36925e-16
-2.42079e-16
-3.76938e-16
1.33939e-15
3.68166e-15
-5.95118e-15
-1.13358e-14
4.53785e-06
-4.53785e-06
-4.80861e-16
5.23599e-06
-5.23599e-06
-5.35667e-15
5.93412e-06
-5.93412e-06
-1.1303e-14
6.63225e-06
-6.63225e-06
4.86926e-15
7.33038e-06
-7.33038e-06
-1.1088e-15
8.02851e-06
-8.02851e-06
-8.15723e-15
8.72664e-06
-8.72664e-06
1.30456e-14
9.42478e-06
-9.42478e-06
5.9506e-15
1.01229e-05
-1.01229e-05
-1.99634e-15
1.0821e-05
-1.0821e-05
2.43872e-14
1.15192e-05
-1.15192e-05
1.61901e-14
1.22173e-05
-1.22173e-05
-3.27849e-14
1.29154e-05
-1.29154e-05
-3.04998e-15
1.36136e-05
-1.36136e-05
-1.44421e-14
1.43117e-05
-1.43117e-05
-2.68996e-14
1.50098e-05
-1.50098e-05
7.74356e-15
1.5708e-05
-1.5708e-05
-4.43598e-15
1.64061e-05
-1.64061e-05
-1.7996e-14
1.71042e-05
-1.71042e-05
2.18253e-14
1.78024e-05
-1.78024e-05
8.2173e-15
1.85005e-05
-1.85005e-05
-6.07887e-15
1.91986e-05
-1.91986e-05
3.89226e-14
1.98967e-05
-1.98967e-05
2.05949e-05
-2.05949e-05
9.39915e-15
4.53785e-06
5.20602e-16
5.23599e-06
7.52881e-15
5.93412e-06
-4.41135e-15
6.63225e-06
3.78362e-15
7.33038e-06
1.33853e-14
8.02851e-06
-2.10814e-15
8.72664e-06
8.52997e-15
9.42478e-06
-1.00269e-14
1.01229e-05
1.86688e-15
1.0821e-05
-2.02005e-14
1.15192e-05
-7.01124e-15
1.22173e-05
7.5126e-15
1.29154e-05
2.361e-14
1.36136e-05
-2.03983e-15
1.43117e-05
1.4834e-14
1.50098e-05
-1.38757e-14
1.5708e-05
2.39394e-15
1.64061e-05
2.04177e-14
1.71042e-05
-7.0119e-15
1.78024e-05
1.20719e-14
1.85005e-05
-2.59377e-14
1.91986e-05
1.84936e-15
1.98967e-05
2.05949e-05
-8.67595e-15
4.53785e-06
1.22925e-14
5.23599e-06
1.88351e-15
5.93412e-06
8.90275e-15
6.63225e-06
-5.10807e-15
7.33038e-06
-2.19904e-14
8.02851e-06
1.22659e-14
8.72664e-06
-5.37275e-15
9.42478e-06
4.45785e-15
1.01229e-05
-1.43041e-14
1.0821e-05
-7.32409e-15
1.15192e-05
7.04119e-15
1.22173e-05
2.39955e-14
1.29154e-05
-7.55329e-15
1.36136e-05
9.80305e-15
1.43117e-05
-1.62339e-14
1.50098e-05
4.02968e-14
1.5708e-05
1.44494e-14
1.64061e-05
-1.3699e-14
1.71042e-05
-7.89148e-15
1.78024e-05
-3.9246e-14
1.85005e-05
4.27545e-14
1.91986e-05
-8.84808e-15
1.98967e-05
2.05949e-05
5.98618e-15
4.53785e-06
2.19325e-16
5.23599e-06
-6.43523e-15
5.93412e-06
6.06416e-15
6.63225e-06
-2.09234e-15
7.33038e-06
1.6177e-14
8.02851e-06
-1.88302e-14
8.72664e-06
-2.34999e-15
9.42478e-06
9.17326e-15
1.01229e-05
-4.70957e-15
1.0821e-05
2.1629e-14
1.15192e-05
-2.96434e-14
1.22173e-05
-9.28785e-15
1.29154e-05
-1.89055e-14
1.36136e-05
4.46744e-15
1.43117e-05
3.01581e-14
1.50098e-05
-2.62153e-14
1.5708e-05
4.39914e-16
1.64061e-05
-2.11685e-14
1.71042e-05
1.87197e-14
1.78024e-05
-3.91737e-15
1.85005e-05
-2.91556e-14
1.91986e-05
1.52388e-14
1.98967e-05
2.05949e-05
6.7151e-15
4.53785e-06
-7.30628e-15
5.23599e-06
1.11014e-14
5.93412e-06
-4.24087e-15
6.63225e-06
1.51032e-14
7.33038e-06
-5.20902e-15
8.02851e-06
1.70147e-14
8.72664e-06
-3.93992e-15
9.42478e-06
-2.93248e-16
1.01229e-05
6.6122e-15
1.0821e-05
1.37073e-14
1.15192e-05
1.0186e-14
1.22173e-05
1.82201e-14
1.29154e-05
1.43716e-14
1.36136e-05
2.3341e-14
1.43117e-05
-2.53399e-14
1.50098e-05
2.90763e-14
1.5708e-05
-7.82218e-15
1.64061e-05
3.54199e-14
1.71042e-05
-4.50902e-15
1.78024e-05
4.2377e-14
1.85005e-05
-5.77561e-16
1.91986e-05
-8.72595e-15
1.98967e-05
2.05949e-05
-4.63013e-15
4.53785e-06
5.79806e-15
5.23599e-06
-1.615e-14
5.93412e-06
-5.97434e-15
6.63225e-06
-8.55412e-15
7.33038e-06
4.22515e-15
8.02851e-06
-8.18608e-15
8.72664e-06
7.00092e-15
9.42478e-06
-2.42287e-14
1.01229e-05
-7.76772e-15
1.0821e-05
-2.27644e-14
1.15192e-05
8.34894e-15
1.22173e-05
-7.40195e-15
1.29154e-05
2.82675e-14
1.36136e-05
-4.57081e-14
1.43117e-05
-8.22012e-15
1.50098e-05
-2.82222e-14
1.5708e-05
-2.33794e-15
1.64061e-05
-6.94472e-15
1.71042e-05
2.21529e-14
1.78024e-05
-3.41064e-14
1.85005e-05
-3.73556e-15
1.91986e-05
-3.23358e-14
1.98967e-05
2.05949e-05
-8.92468e-15
4.53785e-06
-2.2883e-15
5.23599e-06
-2.2238e-15
5.93412e-06
6.61636e-15
6.63225e-06
-3.38724e-15
7.33038e-06
-3.9058e-15
8.02851e-06
-6.41764e-15
8.72664e-06
-7.15708e-15
9.42478e-06
6.81104e-15
1.01229e-05
6.98362e-15
1.0821e-05
-9.06336e-15
1.15192e-05
6.75954e-15
1.22173e-05
-2.88864e-14
1.29154e-05
-1.22313e-14
1.36136e-05
4.80628e-15
1.43117e-05
2.50273e-14
1.50098e-05
3.86554e-15
1.5708e-05
3.60975e-15
1.64061e-05
-2.04784e-14
1.71042e-05
-2.17567e-14
1.78024e-05
3.47032e-15
1.85005e-05
2.90449e-14
1.91986e-05
-1.65647e-15
1.98967e-05
2.05949e-05
6.21585e-15
4.53785e-06
-3.87873e-15
5.23599e-06
1.54223e-14
5.93412e-06
-7.0646e-15
6.63225e-06
-2.21058e-15
7.33038e-06
1.43001e-15
8.02851e-06
-5.49194e-15
8.72664e-06
1.32261e-14
9.42478e-06
6.0464e-15
1.01229e-05
-1.74499e-14
1.0821e-05
2.0889e-14
1.15192e-05
-2.14438e-14
1.22173e-05
1.91356e-14
1.29154e-05
-7.31332e-15
1.36136e-05
3.84868e-14
1.43117e-05
-1.29208e-14
1.50098e-05
-1.87826e-15
1.5708e-05
5.72004e-15
1.64061e-05
-7.58113e-15
1.71042e-05
2.76596e-14
1.78024e-05
1.41024e-14
1.85005e-05
-5.3138e-14
1.91986e-05
3.90876e-14
1.98967e-05
2.05949e-05
-1.49837e-15
4.53785e-06
1.08975e-14
5.23599e-06
-6.59926e-15
5.93412e-06
7.26612e-15
6.63225e-06
6.17549e-15
7.33038e-06
2.48975e-15
8.02851e-06
-9.63909e-16
8.72664e-06
-4.36522e-15
9.42478e-06
-8.89916e-15
1.01229e-05
1.38643e-14
1.0821e-05
1.06922e-14
1.15192e-05
6.25273e-15
1.22173e-05
-1.23699e-16
1.29154e-05
-3.43789e-15
1.36136e-05
-1.10413e-14
1.43117e-05
-1.77627e-14
1.50098e-05
1.76831e-14
1.5708e-05
9.959e-15
1.64061e-05
3.33281e-15
1.71042e-05
-3.29648e-14
1.78024e-05
-1.0417e-14
1.85005e-05
3.00655e-14
1.91986e-05
-5.99888e-14
1.98967e-05
2.05949e-05
5.17031e-15
4.53785e-06
-7.45515e-15
5.23599e-06
-7.56138e-16
5.93412e-06
6.84012e-15
6.63225e-06
-9.97334e-15
7.33038e-06
-1.66315e-15
8.02851e-06
9.22067e-15
8.72664e-06
-1.34584e-14
9.42478e-06
2.32211e-14
1.01229e-05
1.04734e-14
1.0821e-05
-1.72714e-14
1.15192e-05
-3.02455e-15
1.22173e-05
1.13991e-14
1.29154e-05
-1.98154e-14
1.36136e-05
-4.6777e-15
1.43117e-05
5.03104e-14
1.50098e-05
-2.40442e-14
1.5708e-05
-6.65262e-15
1.64061e-05
1.4263e-14
1.71042e-05
1.6538e-15
1.78024e-05
-6.80661e-15
1.85005e-05
1.44463e-14
1.91986e-05
5.07634e-14
1.98967e-05
2.05949e-05
-6.19723e-15
4.53785e-06
2.87674e-17
5.23599e-06
1.15121e-14
5.93412e-06
-2.06259e-14
6.63225e-06
5.36687e-15
7.33038e-06
1.22279e-15
8.02851e-06
-4.57867e-17
8.72664e-06
1.2395e-14
9.42478e-06
-1.32253e-14
1.01229e-05
-1.88914e-14
1.0821e-05
-4.96213e-15
1.15192e-05
-7.15233e-15
1.22173e-05
-1.48843e-14
1.29154e-05
3.53396e-14
1.36136e-05
1.40067e-18
1.43117e-05
-4.31341e-14
1.50098e-05
1.35645e-14
1.5708e-05
-2.8257e-14
1.64061e-05
2.45706e-15
1.71042e-05
-1.02358e-14
1.78024e-05
2.38074e-14
1.85005e-05
1.38787e-14
1.91986e-05
-4.55577e-14
1.98967e-05
2.05949e-05
-1.9065e-15
4.53785e-06
1.13064e-15
5.23599e-06
-2.16615e-14
5.93412e-06
9.62482e-15
6.63225e-06
1.51372e-14
7.33038e-06
-1.40645e-14
8.02851e-06
8.09509e-15
8.72664e-06
-2.69584e-14
9.42478e-06
-1.96477e-15
1.01229e-05
2.97169e-14
1.0821e-05
-1.17437e-14
1.15192e-05
1.98697e-14
1.22173e-05
-2.74453e-14
1.29154e-05
-2.06143e-14
1.36136e-05
1.60438e-14
1.43117e-05
-4.61136e-15
1.50098e-05
4.69364e-15
1.5708e-05
4.79669e-14
1.64061e-05
-1.37394e-14
1.71042e-05
3.23804e-14
1.78024e-05
-3.51876e-14
1.85005e-05
-2.49027e-14
1.91986e-05
7.19208e-14
1.98967e-05
2.05949e-05
1.90667e-15
4.53785e-06
-1.13043e-15
5.23599e-06
2.16623e-14
5.93412e-06
-9.62401e-15
6.63225e-06
-1.51368e-14
7.33038e-06
1.40652e-14
8.02851e-06
-8.09123e-15
8.72664e-06
2.69601e-14
9.42478e-06
1.96633e-15
1.01229e-05
-2.97152e-14
1.0821e-05
1.17475e-14
1.15192e-05
-1.98648e-14
1.22173e-05
2.74474e-14
1.29154e-05
2.06145e-14
1.36136e-05
-1.60415e-14
1.43117e-05
4.61734e-15
1.50098e-05
-4.68842e-15
1.5708e-05
-4.79653e-14
1.64061e-05
1.37425e-14
1.71042e-05
-3.23649e-14
1.78024e-05
3.51849e-14
1.85005e-05
2.49067e-14
1.91986e-05
-7.19136e-14
1.98967e-05
2.05949e-05
6.19727e-15
4.53785e-06
-2.84098e-17
5.23599e-06
-1.15111e-14
5.93412e-06
2.06257e-14
6.63225e-06
-5.36566e-15
7.33038e-06
-1.22095e-15
8.02851e-06
4.7528e-17
8.72664e-06
-1.23931e-14
9.42478e-06
1.32277e-14
1.01229e-05
1.88965e-14
1.0821e-05
4.96582e-15
1.15192e-05
7.15563e-15
1.22173e-05
1.48889e-14
1.29154e-05
-3.53392e-14
1.36136e-05
1.15321e-18
1.43117e-05
4.31388e-14
1.50098e-05
-1.35616e-14
1.5708e-05
2.82572e-14
1.64061e-05
-2.45163e-15
1.71042e-05
1.02455e-14
1.78024e-05
-2.37961e-14
1.85005e-05
-1.38725e-14
1.91986e-05
4.55702e-14
1.98967e-05
2.05949e-05
-5.16989e-15
4.53785e-06
7.45602e-15
5.23599e-06
7.57218e-16
5.93412e-06
-6.83951e-15
6.63225e-06
9.97471e-15
7.33038e-06
1.66503e-15
8.02851e-06
-9.21799e-15
8.72664e-06
1.34604e-14
9.42478e-06
-2.322e-14
1.01229e-05
-1.04718e-14
1.0821e-05
1.72737e-14
1.15192e-05
3.02887e-15
1.22173e-05
-1.13984e-14
1.29154e-05
1.9818e-14
1.36136e-05
4.68003e-15
1.43117e-05
-5.0305e-14
1.50098e-05
2.40462e-14
1.5708e-05
6.66011e-15
1.64061e-05
-1.42588e-14
1.71042e-05
-1.64573e-15
1.78024e-05
6.81427e-15
1.85005e-05
-1.4441e-14
1.91986e-05
-5.07552e-14
1.98967e-05
2.05949e-05
1.49872e-15
4.53785e-06
-1.08968e-14
5.23599e-06
6.59955e-15
5.93412e-06
-7.26505e-15
6.63225e-06
-6.17472e-15
7.33038e-06
-2.48837e-15
8.02851e-06
9.65984e-16
8.72664e-06
4.36626e-15
9.42478e-06
8.90215e-15
1.01229e-05
-1.38638e-14
1.0821e-05
-1.06903e-14
1.15192e-05
-6.24861e-15
1.22173e-05
1.26921e-16
1.29154e-05
3.44091e-15
1.36136e-05
1.10443e-14
1.43117e-05
1.77659e-14
1.50098e-05
-1.76788e-14
1.5708e-05
-9.95349e-15
1.64061e-05
-3.32634e-15
1.71042e-05
3.29726e-14
1.78024e-05
1.04224e-14
1.85005e-05
-3.00664e-14
1.91986e-05
5.9997e-14
1.98967e-05
2.05949e-05
-6.21558e-15
4.53785e-06
3.87952e-15
5.23599e-06
-1.54218e-14
5.93412e-06
7.06492e-15
6.63225e-06
2.21068e-15
7.33038e-06
-1.42909e-15
8.02851e-06
5.49393e-15
8.72664e-06
-1.32244e-14
9.42478e-06
-6.04495e-15
1.01229e-05
1.74523e-14
1.0821e-05
-2.08859e-14
1.15192e-05
2.14455e-14
1.22173e-05
-1.91333e-14
1.29154e-05
7.31774e-15
1.36136e-05
-3.84841e-14
1.43117e-05
1.29249e-14
1.50098e-05
1.88454e-15
1.5708e-05
-5.71635e-15
1.64061e-05
7.58483e-15
1.71042e-05
-2.76578e-14
1.78024e-05
-1.40976e-14
1.85005e-05
5.31491e-14
1.91986e-05
-3.90839e-14
1.98967e-05
2.05949e-05
8.92552e-15
4.53785e-06
2.28927e-15
5.23599e-06
2.22401e-15
5.93412e-06
-6.61589e-15
6.63225e-06
3.38895e-15
7.33038e-06
3.90758e-15
8.02851e-06
6.419e-15
8.72664e-06
7.15981e-15
9.42478e-06
-6.8094e-15
1.01229e-05
-6.98137e-15
1.0821e-05
9.06699e-15
1.15192e-05
-6.75745e-15
1.22173e-05
2.88881e-14
1.29154e-05
1.22367e-14
1.36136e-05
-4.80216e-15
1.43117e-05
-2.50231e-14
1.50098e-05
-3.85884e-15
1.5708e-05
-3.6054e-15
1.64061e-05
2.04839e-14
1.71042e-05
2.17644e-14
1.78024e-05
-3.46629e-15
1.85005e-05
-2.90377e-14
1.91986e-05
1.6633e-15
1.98967e-05
2.05949e-05
4.63081e-15
4.53785e-06
-5.79727e-15
5.23599e-06
1.6151e-14
5.93412e-06
5.97482e-15
6.63225e-06
8.55621e-15
7.33038e-06
-4.22322e-15
8.02851e-06
8.18758e-15
8.72664e-06
-6.99699e-15
9.42478e-06
2.42307e-14
1.01229e-05
7.76994e-15
1.0821e-05
2.27664e-14
1.15192e-05
-8.34668e-15
1.22173e-05
7.40352e-15
1.29154e-05
-2.82634e-14
1.36136e-05
4.57107e-14
1.43117e-05
8.22312e-15
1.50098e-05
2.82273e-14
1.5708e-05
2.34298e-15
1.64061e-05
6.94652e-15
1.71042e-05
-2.21466e-14
1.78024e-05
3.41144e-14
1.85005e-05
3.74584e-15
1.91986e-05
3.23465e-14
1.98967e-05
2.05949e-05
-6.7148e-15
4.53785e-06
7.30691e-15
5.23599e-06
-1.11004e-14
5.93412e-06
4.24144e-15
6.63225e-06
-1.51021e-14
7.33038e-06
5.20937e-15
8.02851e-06
-1.70129e-14
8.72664e-06
3.94165e-15
9.42478e-06
2.96137e-16
1.01229e-05
-6.60909e-15
1.0821e-05
-1.37042e-14
1.15192e-05
-1.01818e-14
1.22173e-05
-1.82168e-14
1.29154e-05
-1.43684e-14
1.36136e-05
-2.33421e-14
1.43117e-05
2.53429e-14
1.50098e-05
-2.90718e-14
1.5708e-05
7.82743e-15
1.64061e-05
-3.5415e-14
1.71042e-05
4.51853e-15
1.78024e-05
-4.23704e-14
1.85005e-05
5.9079e-16
1.91986e-05
8.73604e-15
1.98967e-05
2.05949e-05
-5.98564e-15
4.53785e-06
-2.1854e-16
5.23599e-06
6.43595e-15
5.93412e-06
-6.06317e-15
6.63225e-06
2.09313e-15
7.33038e-06
-1.61762e-14
8.02851e-06
1.88314e-14
8.72664e-06
2.35164e-15
9.42478e-06
-9.17191e-15
1.01229e-05
4.71235e-15
1.0821e-05
-2.16259e-14
1.15192e-05
2.96466e-14
1.22173e-05
9.29113e-15
1.29154e-05
1.8909e-14
1.36136e-05
-4.46571e-15
1.43117e-05
-3.01539e-14
1.50098e-05
2.62208e-14
1.5708e-05
-4.35332e-16
1.64061e-05
2.11728e-14
1.71042e-05
-1.871e-14
1.78024e-05
3.92463e-15
1.85005e-05
2.91614e-14
1.91986e-05
-1.52281e-14
1.98967e-05
2.05949e-05
8.67635e-15
4.53785e-06
-1.2292e-14
5.23599e-06
-1.88326e-15
5.93412e-06
-8.90156e-15
6.63225e-06
5.109e-15
7.33038e-06
2.19911e-14
8.02851e-06
-1.22631e-14
8.72664e-06
5.37598e-15
9.42478e-06
-4.45527e-15
1.01229e-05
1.43064e-14
1.0821e-05
7.32664e-15
1.15192e-05
-7.0394e-15
1.22173e-05
-2.39941e-14
1.29154e-05
7.55787e-15
1.36136e-05
-9.7974e-15
1.43117e-05
1.62384e-14
1.50098e-05
-4.02916e-14
1.5708e-05
-1.44424e-14
1.64061e-05
1.37071e-14
1.71042e-05
7.89961e-15
1.78024e-05
3.9256e-14
1.85005e-05
-4.27478e-14
1.91986e-05
8.85429e-15
1.98967e-05
2.05949e-05
-9.39873e-15
4.53785e-06
-5.20054e-16
5.23599e-06
-7.52816e-15
5.93412e-06
4.41252e-15
6.63225e-06
-3.7825e-15
7.33038e-06
-1.33842e-14
8.02851e-06
2.11133e-15
8.72664e-06
-8.52753e-15
9.42478e-06
1.00284e-14
1.01229e-05
-1.86558e-15
1.0821e-05
2.02048e-14
1.15192e-05
7.01356e-15
1.22173e-05
-7.50982e-15
1.29154e-05
-2.36062e-14
1.36136e-05
2.04323e-15
1.43117e-05
-1.48299e-14
1.50098e-05
1.38833e-14
1.5708e-05
-2.38788e-15
1.64061e-05
-2.04086e-14
1.71042e-05
7.0206e-15
1.78024e-05
-1.20654e-14
1.85005e-05
2.5948e-14
1.91986e-05
-1.84452e-15
1.98967e-05
2.05949e-05
1.13363e-14
4.53785e-06
4.81307e-16
5.23599e-06
5.35755e-15
5.93412e-06
1.1304e-14
6.63225e-06
-4.86859e-15
7.33038e-06
1.11015e-15
8.02851e-06
8.15956e-15
8.72664e-06
-1.30442e-14
9.42478e-06
-5.94981e-15
1.01229e-05
1.99639e-15
1.0821e-05
-2.43854e-14
1.15192e-05
-1.61879e-14
1.22173e-05
3.2787e-14
1.29154e-05
3.05301e-15
1.36136e-05
1.44426e-14
1.43117e-05
2.69031e-14
1.50098e-05
-7.73747e-15
1.5708e-05
4.44061e-15
1.64061e-05
1.80042e-14
1.71042e-05
-2.18162e-14
1.78024e-05
-8.21094e-15
1.85005e-05
6.08493e-15
1.91986e-05
-3.89193e-14
1.98967e-05
2.05949e-05
1.3698e-16
9.81747e-07
2.42129e-16
1.37445e-06
3.7705e-16
1.76715e-06
-1.33917e-15
2.15984e-06
-3.68153e-15
2.55254e-06
2.94524e-06
5.95146e-15
1.87074e-18
9.81747e-07
-3.88736e-16
1.37445e-06
-2.6041e-15
1.76715e-06
1.94373e-15
2.15984e-06
8.06624e-15
2.55254e-06
2.94524e-06
-9.02978e-15
-1.16435e-16
9.81747e-07
1.86417e-16
1.37445e-06
-1.5623e-15
1.76715e-06
-4.21243e-15
2.15984e-06
-7.49831e-15
2.55254e-06
2.94524e-06
7.72424e-16
8.69622e-17
9.81747e-07
-1.01927e-16
1.37445e-06
2.69321e-15
1.76715e-06
7.44287e-15
2.15984e-06
3.25997e-15
2.55254e-06
2.94524e-06
-2.7979e-15
-4.83356e-17
9.81747e-07
3.95301e-17
1.37445e-06
1.94391e-16
1.76715e-06
-1.806e-15
2.15984e-06
-4.20838e-15
2.55254e-06
2.94524e-06
5.01342e-15
-1.80078e-16
9.81747e-07
4.36514e-18
1.37445e-06
-1.84772e-15
1.76715e-06
-3.88611e-15
2.15984e-06
3.15721e-15
2.55254e-06
2.94524e-06
4.98339e-16
2.53997e-16
9.81747e-07
2.55468e-16
1.37445e-06
2.06616e-15
1.76715e-06
4.50419e-15
2.15984e-06
-2.30994e-15
2.55254e-06
2.94524e-06
5.41066e-16
2.16978e-17
9.81747e-07
-3.2167e-16
1.37445e-06
-1.14878e-15
1.76715e-06
-5.28552e-15
2.15984e-06
-3.76761e-16
2.55254e-06
2.94524e-06
-5.6397e-15
-1.43372e-16
9.81747e-07
1.66415e-16
1.37445e-06
4.19129e-15
1.76715e-06
6.34956e-15
2.15984e-06
-8.05612e-16
2.55254e-06
2.94524e-06
8.39482e-16
-6.87795e-17
9.81747e-07
-9.19785e-17
1.37445e-06
-2.76929e-15
1.76715e-06
-3.68712e-16
2.15984e-06
-1.45067e-15
2.55254e-06
2.94524e-06
-1.7637e-16
1.66342e-16
9.81747e-07
-8.86445e-17
1.37445e-06
5.69743e-16
1.76715e-06
-2.10346e-15
2.15984e-06
9.66018e-15
2.55254e-06
2.94524e-06
5.29055e-15
-1.77743e-16
9.81747e-07
-2.04472e-17
1.37445e-06
-3.45421e-16
1.76715e-06
-4.17266e-15
2.15984e-06
-2.62215e-15
2.55254e-06
2.94524e-06
5.36994e-15
1.77838e-16
9.81747e-07
2.05304e-17
1.37445e-06
3.45493e-16
1.76715e-06
4.1727e-15
2.15984e-06
2.62249e-15
2.55254e-06
2.94524e-06
-5.36923e-15
-1.66294e-16
9.81747e-07
8.87377e-17
1.37445e-06
-5.69622e-16
1.76715e-06
2.1036e-15
2.15984e-06
-9.65989e-15
2.55254e-06
2.94524e-06
-5.28993e-15
6.88648e-17
9.81747e-07
9.21087e-17
1.37445e-06
2.76943e-15
1.76715e-06
3.68894e-16
2.15984e-06
1.45093e-15
2.55254e-06
2.94524e-06
1.77029e-16
1.43422e-16
9.81747e-07
-1.66376e-16
1.37445e-06
-4.19103e-15
1.76715e-06
-6.34936e-15
2.15984e-06
8.05601e-16
2.55254e-06
2.94524e-06
-8.39023e-16
-2.1655e-17
9.81747e-07
3.21737e-16
1.37445e-06
1.149e-15
1.76715e-06
5.28569e-15
2.15984e-06
3.76763e-16
2.55254e-06
2.94524e-06
5.64008e-15
-2.53981e-16
9.81747e-07
-2.55405e-16
1.37445e-06
-2.06588e-15
1.76715e-06
-4.50399e-15
2.15984e-06
2.31027e-15
2.55254e-06
2.94524e-06
-5.40734e-16
1.80129e-16
9.81747e-07
-4.23137e-18
1.37445e-06
1.84789e-15
1.76715e-06
3.88634e-15
2.15984e-06
-3.15685e-15
2.55254e-06
2.94524e-06
-4.97919e-16
4.84026e-17
9.81747e-07
-3.94799e-17
1.37445e-06
-1.94264e-16
1.76715e-06
1.80622e-15
2.15984e-06
4.20878e-15
2.55254e-06
2.94524e-06
-5.01301e-15
-8.69058e-17
9.81747e-07
1.01939e-16
1.37445e-06
-2.69308e-15
1.76715e-06
-7.44278e-15
2.15984e-06
-3.25987e-15
2.55254e-06
2.94524e-06
2.79828e-15
1.16479e-16
9.81747e-07
-1.86351e-16
1.37445e-06
1.56241e-15
1.76715e-06
4.21266e-15
2.15984e-06
7.49853e-15
2.55254e-06
2.94524e-06
-7.72084e-16
-1.80715e-18
9.81747e-07
3.88811e-16
1.37445e-06
2.60422e-15
1.76715e-06
-1.94354e-15
2.15984e-06
-8.06608e-15
2.55254e-06
2.94524e-06
9.02996e-15
-1.36904e-16
-2.42068e-16
-3.76938e-16
1.33943e-15
3.6817e-15
-5.95113e-15
-1.13358e-14
4.53785e-06
-4.80861e-16
5.23599e-06
-5.35667e-15
5.93412e-06
-1.1303e-14
6.63225e-06
4.86955e-15
7.33038e-06
-1.10859e-15
8.02851e-06
-8.15749e-15
8.72664e-06
1.30455e-14
9.42478e-06
5.9506e-15
1.01229e-05
-1.99634e-15
1.0821e-05
2.43872e-14
1.15192e-05
1.61901e-14
1.22173e-05
-3.27849e-14
1.29154e-05
-3.04998e-15
1.36136e-05
-1.44421e-14
1.43117e-05
-2.68996e-14
1.50098e-05
7.74277e-15
1.5708e-05
-4.43435e-15
1.64061e-05
-1.79939e-14
1.71042e-05
2.18253e-14
1.78024e-05
8.21727e-15
1.85005e-05
-6.08042e-15
1.91986e-05
3.89205e-14
1.98967e-05
2.05949e-05
9.39915e-15
4.53785e-06
5.20602e-16
5.23599e-06
7.52881e-15
5.93412e-06
-4.41135e-15
6.63225e-06
3.78362e-15
7.33038e-06
1.33853e-14
8.02851e-06
-2.10814e-15
8.72664e-06
8.52997e-15
9.42478e-06
-1.00269e-14
1.01229e-05
1.86688e-15
1.0821e-05
-2.02005e-14
1.15192e-05
-7.01124e-15
1.22173e-05
7.5126e-15
1.29154e-05
2.361e-14
1.36136e-05
-2.03983e-15
1.43117e-05
1.4834e-14
1.50098e-05
-1.38757e-14
1.5708e-05
2.39394e-15
1.64061e-05
2.04177e-14
1.71042e-05
-7.0119e-15
1.78024e-05
1.20719e-14
1.85005e-05
-2.59377e-14
1.91986e-05
1.84936e-15
1.98967e-05
2.05949e-05
-8.67595e-15
4.53785e-06
1.22925e-14
5.23599e-06
1.88351e-15
5.93412e-06
8.90275e-15
6.63225e-06
-5.10807e-15
7.33038e-06
-2.19904e-14
8.02851e-06
1.22659e-14
8.72664e-06
-5.37275e-15
9.42478e-06
4.45785e-15
1.01229e-05
-1.43041e-14
1.0821e-05
-7.32409e-15
1.15192e-05
7.04119e-15
1.22173e-05
2.39955e-14
1.29154e-05
-7.55329e-15
1.36136e-05
9.80305e-15
1.43117e-05
-1.62339e-14
1.50098e-05
4.02968e-14
1.5708e-05
1.44494e-14
1.64061e-05
-1.3699e-14
1.71042e-05
-7.89148e-15
1.78024e-05
-3.9246e-14
1.85005e-05
4.27545e-14
1.91986e-05
-8.84808e-15
1.98967e-05
2.05949e-05
5.98618e-15
4.53785e-06
2.19325e-16
5.23599e-06
-6.43523e-15
5.93412e-06
6.06416e-15
6.63225e-06
-2.09234e-15
7.33038e-06
1.6177e-14
8.02851e-06
-1.88302e-14
8.72664e-06
-2.34999e-15
9.42478e-06
9.17326e-15
1.01229e-05
-4.70957e-15
1.0821e-05
2.1629e-14
1.15192e-05
-2.96434e-14
1.22173e-05
-9.28785e-15
1.29154e-05
-1.89055e-14
1.36136e-05
4.46744e-15
1.43117e-05
3.01581e-14
1.50098e-05
-2.62153e-14
1.5708e-05
4.39914e-16
1.64061e-05
-2.11685e-14
1.71042e-05
1.87197e-14
1.78024e-05
-3.91737e-15
1.85005e-05
-2.91556e-14
1.91986e-05
1.52388e-14
1.98967e-05
2.05949e-05
6.7151e-15
4.53785e-06
-7.30628e-15
5.23599e-06
1.11014e-14
5.93412e-06
-4.24087e-15
6.63225e-06
1.51032e-14
7.33038e-06
-5.20902e-15
8.02851e-06
1.70147e-14
8.72664e-06
-3.93992e-15
9.42478e-06
-2.93248e-16
1.01229e-05
6.6122e-15
1.0821e-05
1.37073e-14
1.15192e-05
1.0186e-14
1.22173e-05
1.82201e-14
1.29154e-05
1.43716e-14
1.36136e-05
2.3341e-14
1.43117e-05
-2.53399e-14
1.50098e-05
2.90763e-14
1.5708e-05
-7.82218e-15
1.64061e-05
3.54199e-14
1.71042e-05
-4.50902e-15
1.78024e-05
4.2377e-14
1.85005e-05
-5.77561e-16
1.91986e-05
-8.72595e-15
1.98967e-05
2.05949e-05
-4.63013e-15
4.53785e-06
5.79806e-15
5.23599e-06
-1.615e-14
5.93412e-06
-5.97434e-15
6.63225e-06
-8.55412e-15
7.33038e-06
4.22515e-15
8.02851e-06
-8.18608e-15
8.72664e-06
7.00092e-15
9.42478e-06
-2.42287e-14
1.01229e-05
-7.76772e-15
1.0821e-05
-2.27644e-14
1.15192e-05
8.34894e-15
1.22173e-05
-7.40195e-15
1.29154e-05
2.82675e-14
1.36136e-05
-4.57081e-14
1.43117e-05
-8.22012e-15
1.50098e-05
-2.82222e-14
1.5708e-05
-2.33794e-15
1.64061e-05
-6.94472e-15
1.71042e-05
2.21529e-14
1.78024e-05
-3.41064e-14
1.85005e-05
-3.73556e-15
1.91986e-05
-3.23358e-14
1.98967e-05
2.05949e-05
-8.92468e-15
4.53785e-06
-2.2883e-15
5.23599e-06
-2.2238e-15
5.93412e-06
6.61636e-15
6.63225e-06
-3.38724e-15
7.33038e-06
-3.9058e-15
8.02851e-06
-6.41764e-15
8.72664e-06
-7.15708e-15
9.42478e-06
6.81104e-15
1.01229e-05
6.98362e-15
1.0821e-05
-9.06336e-15
1.15192e-05
6.75954e-15
1.22173e-05
-2.88864e-14
1.29154e-05
-1.22313e-14
1.36136e-05
4.80628e-15
1.43117e-05
2.50273e-14
1.50098e-05
3.86554e-15
1.5708e-05
3.60975e-15
1.64061e-05
-2.04784e-14
1.71042e-05
-2.17567e-14
1.78024e-05
3.47032e-15
1.85005e-05
2.90449e-14
1.91986e-05
-1.65647e-15
1.98967e-05
2.05949e-05
6.21585e-15
4.53785e-06
-3.87873e-15
5.23599e-06
1.54223e-14
5.93412e-06
-7.0646e-15
6.63225e-06
-2.21058e-15
7.33038e-06
1.43001e-15
8.02851e-06
-5.49194e-15
8.72664e-06
1.32261e-14
9.42478e-06
6.0464e-15
1.01229e-05
-1.74499e-14
1.0821e-05
2.0889e-14
1.15192e-05
-2.14438e-14
1.22173e-05
1.91356e-14
1.29154e-05
-7.31332e-15
1.36136e-05
3.84868e-14
1.43117e-05
-1.29208e-14
1.50098e-05
-1.87826e-15
1.5708e-05
5.72004e-15
1.64061e-05
-7.58113e-15
1.71042e-05
2.76596e-14
1.78024e-05
1.41024e-14
1.85005e-05
-5.3138e-14
1.91986e-05
3.90876e-14
1.98967e-05
2.05949e-05
-1.49837e-15
4.53785e-06
1.08975e-14
5.23599e-06
-6.59926e-15
5.93412e-06
7.26612e-15
6.63225e-06
6.17549e-15
7.33038e-06
2.48975e-15
8.02851e-06
-9.63909e-16
8.72664e-06
-4.36522e-15
9.42478e-06
-8.89916e-15
1.01229e-05
1.38643e-14
1.0821e-05
1.06922e-14
1.15192e-05
6.25273e-15
1.22173e-05
-1.23699e-16
1.29154e-05
-3.43789e-15
1.36136e-05
-1.10413e-14
1.43117e-05
-1.77627e-14
1.50098e-05
1.76831e-14
1.5708e-05
9.959e-15
1.64061e-05
3.33281e-15
1.71042e-05
-3.29648e-14
1.78024e-05
-1.0417e-14
1.85005e-05
3.00655e-14
1.91986e-05
-5.99888e-14
1.98967e-05
2.05949e-05
5.17031e-15
4.53785e-06
-7.45515e-15
5.23599e-06
-7.56138e-16
5.93412e-06
6.84012e-15
6.63225e-06
-9.97334e-15
7.33038e-06
-1.66315e-15
8.02851e-06
9.22067e-15
8.72664e-06
-1.34584e-14
9.42478e-06
2.32211e-14
1.01229e-05
1.04734e-14
1.0821e-05
-1.72714e-14
1.15192e-05
-3.02455e-15
1.22173e-05
1.13991e-14
1.29154e-05
-1.98154e-14
1.36136e-05
-4.6777e-15
1.43117e-05
5.03104e-14
1.50098e-05
-2.40442e-14
1.5708e-05
-6.65262e-15
1.64061e-05
1.4263e-14
1.71042e-05
1.6538e-15
1.78024e-05
-6.80661e-15
1.85005e-05
1.44463e-14
1.91986e-05
5.07634e-14
1.98967e-05
2.05949e-05
-6.19723e-15
4.53785e-06
2.87674e-17
5.23599e-06
1.15121e-14
5.93412e-06
-2.06259e-14
6.63225e-06
5.36687e-15
7.33038e-06
1.22279e-15
8.02851e-06
-4.57867e-17
8.72664e-06
1.2395e-14
9.42478e-06
-1.32253e-14
1.01229e-05
-1.88914e-14
1.0821e-05
-4.96213e-15
1.15192e-05
-7.15233e-15
1.22173e-05
-1.48843e-14
1.29154e-05
3.53396e-14
1.36136e-05
1.40067e-18
1.43117e-05
-4.31341e-14
1.50098e-05
1.35645e-14
1.5708e-05
-2.8257e-14
1.64061e-05
2.45706e-15
1.71042e-05
-1.02358e-14
1.78024e-05
2.38074e-14
1.85005e-05
1.38787e-14
1.91986e-05
-4.55577e-14
1.98967e-05
2.05949e-05
-1.9065e-15
4.53785e-06
1.13064e-15
5.23599e-06
-2.16615e-14
5.93412e-06
9.62482e-15
6.63225e-06
1.51372e-14
7.33038e-06
-1.40645e-14
8.02851e-06
8.09509e-15
8.72664e-06
-2.69584e-14
9.42478e-06
-1.96477e-15
1.01229e-05
2.97169e-14
1.0821e-05
-1.17437e-14
1.15192e-05
1.98697e-14
1.22173e-05
-2.74453e-14
1.29154e-05
-2.06143e-14
1.36136e-05
1.60438e-14
1.43117e-05
-4.61136e-15
1.50098e-05
4.69364e-15
1.5708e-05
4.79669e-14
1.64061e-05
-1.37394e-14
1.71042e-05
3.23804e-14
1.78024e-05
-3.51876e-14
1.85005e-05
-2.49027e-14
1.91986e-05
7.19208e-14
1.98967e-05
2.05949e-05
1.90667e-15
4.53785e-06
-1.13043e-15
5.23599e-06
2.16623e-14
5.93412e-06
-9.62401e-15
6.63225e-06
-1.51368e-14
7.33038e-06
1.40652e-14
8.02851e-06
-8.09123e-15
8.72664e-06
2.69601e-14
9.42478e-06
1.96633e-15
1.01229e-05
-2.97152e-14
1.0821e-05
1.17475e-14
1.15192e-05
-1.98648e-14
1.22173e-05
2.74474e-14
1.29154e-05
2.06145e-14
1.36136e-05
-1.60415e-14
1.43117e-05
4.61734e-15
1.50098e-05
-4.68842e-15
1.5708e-05
-4.79653e-14
1.64061e-05
1.37425e-14
1.71042e-05
-3.23649e-14
1.78024e-05
3.51849e-14
1.85005e-05
2.49067e-14
1.91986e-05
-7.19136e-14
1.98967e-05
2.05949e-05
6.19727e-15
4.53785e-06
-2.84098e-17
5.23599e-06
-1.15111e-14
5.93412e-06
2.06257e-14
6.63225e-06
-5.36566e-15
7.33038e-06
-1.22095e-15
8.02851e-06
4.7528e-17
8.72664e-06
-1.23931e-14
9.42478e-06
1.32277e-14
1.01229e-05
1.88965e-14
1.0821e-05
4.96582e-15
1.15192e-05
7.15563e-15
1.22173e-05
1.48889e-14
1.29154e-05
-3.53392e-14
1.36136e-05
1.15321e-18
1.43117e-05
4.31388e-14
1.50098e-05
-1.35616e-14
1.5708e-05
2.82572e-14
1.64061e-05
-2.45163e-15
1.71042e-05
1.02455e-14
1.78024e-05
-2.37961e-14
1.85005e-05
-1.38725e-14
1.91986e-05
4.55702e-14
1.98967e-05
2.05949e-05
-5.16989e-15
4.53785e-06
7.45602e-15
5.23599e-06
7.57218e-16
5.93412e-06
-6.83951e-15
6.63225e-06
9.97471e-15
7.33038e-06
1.66503e-15
8.02851e-06
-9.21799e-15
8.72664e-06
1.34604e-14
9.42478e-06
-2.322e-14
1.01229e-05
-1.04718e-14
1.0821e-05
1.72737e-14
1.15192e-05
3.02887e-15
1.22173e-05
-1.13984e-14
1.29154e-05
1.9818e-14
1.36136e-05
4.68003e-15
1.43117e-05
-5.0305e-14
1.50098e-05
2.40462e-14
1.5708e-05
6.66011e-15
1.64061e-05