/*--------------------------------*- C++ -*----------------------------------*\
  =========                 |
  \\      /  F ield         | OpenFOAM: The Open Source CFD Toolbox
   \\    /   O peration     | Website:  https://openfoam.org
    \\  /    A nd           | Version:  11
     \\/     M anipulation  |
\*---------------------------------------------------------------------------*/
FoamFile
{
    format      ascii;
    class       volScalarField;
    location    "1.86";
    object      nut;
}
// * * * * * * * * * * * * * * * * * * * * * * * * * * * * * * * * * * * * * //

dimensions      [0 2 -1 0 0 0 0];

internalField   nonuniform List<scalar> 
2880
(
1.2063e-06
1.36987e-05
4.82796e-05
0.000116004
4.49078e-05
6.06732e-05
3.68752e-05
0.000115526
0.000222738
0.000362093
0.000410639
0.000535941
5.2365e-05
0.000239685
0.000425808
0.000634445
0.000817874
0.00102059
5.85139e-05
0.000347776
0.000610705
0.000876549
0.00113112
0.00139742
6.3396e-05
0.000435045
0.000767947
0.00107831
0.0013724
0.00165777
6.72534e-05
0.000504073
0.000896679
0.00124104
0.00155534
0.00183783
7.0265e-05
0.000558002
0.000999274
0.00136876
0.00169236
0.00196226
7.25649e-05
0.000599693
0.00107865
0.00146584
0.00179248
0.00204647
7.42544e-05
0.000631312
0.0011375
0.00153618
0.00186268
0.00210101
7.54101e-05
0.000654291
0.00117809
0.00158309
0.00190778
0.00213283
7.60889e-05
0.000669459
0.00120198
0.00160923
0.00193109
0.00214641
7.63305e-05
0.000677108
0.00121021
0.00161622
0.00193498
0.00214452
7.61627e-05
0.000677132
0.0012033
0.00160463
0.0019205
0.00212759
7.55994e-05
0.000669137
0.0011812
0.00157522
0.00188956
0.00209739
7.46396e-05
0.000652566
0.00114374
0.00152748
0.00184108
0.00205253
7.32333e-05
0.000627008
0.00109026
0.00146045
0.00177324
0.00199128
7.13237e-05
0.000591664
0.00101973
0.00137295
0.00168292
0.00191047
6.88378e-05
0.000545356
0.000930956
0.00126316
0.00156659
0.0018056
6.56767e-05
0.000486449
0.000822551
0.00112827
0.00142012
0.00166832
6.17044e-05
0.000413368
0.000693286
0.000965616
0.00123854
0.00148587
5.6731e-05
0.00032431
0.000542599
0.00077382
0.00101791
0.0012383
5.04838e-05
0.00021869
0.000371887
0.000553865
0.000757862
0.0009013
3.37022e-05
0.000101033
0.000189389
0.000315067
0.000470005
0.000478057
9.82576e-07
1.04116e-05
3.84045e-05
0.00010013
0.000199754
5.70932e-05
0.000624253
0.00142872
0.00181361
0.00197152
0.00205258
0.00215599
0.00234185
0.00262505
0.00298126
0.00336919
0.00372814
0.00404689
0.00432115
0.0045435
0.00470343
0.00479002
0.00479622
0.00472272
0.00457991
0.00438613
0.00416281
0.00392994
0.00370503
0.0035004
0.00120309
0.00174801
0.0019713
0.00206969
0.00212857
0.00223186
0.00243178
0.00273282
0.0031012
0.00349068
0.00383794
0.00413912
0.00439159
0.0045884
0.00471898
0.00477277
0.00474433
0.00463807
0.00446975
0.00426317
0.00404308
0.00382947
0.0036369
0.0034732
0.001584
0.00195219
0.00208817
0.00215079
0.00219765
0.00230664
0.00252316
0.00284138
0.00321923
0.00360512
0.0039385
0.0042209
0.00445083
0.00462133
0.00472156
0.00474138
0.00467768
0.00453962
0.00434925
0.00413565
0.00392524
0.00373557
0.00357609
0.00344925
0.00183415
0.00208945
0.00217391
0.00221706
0.00226042
0.00238012
0.00261496
0.00294925
0.00333397
0.0037117
0.00403001
0.00429317
0.00450034
0.00464419
0.00471348
0.00469885
0.00460037
0.00443309
0.00422584
0.00401184
0.00381676
0.00365343
0.00352515
0.00342942
0.00200486
0.00218683
0.00223798
0.00227174
0.00231787
0.00245197
0.00270591
0.00305475
0.00344394
0.00381084
0.00411324
0.00435713
0.0045417
0.00465895
0.00469723
0.00464846
0.00451693
0.00432452
0.00410653
0.00389837
0.00372241
0.00358533
0.0034845
0.00341373
0.00212249
0.00225511
0.00228629
0.00231725
0.00237064
0.00252158
0.00279463
0.00315638
0.00354806
0.00390255
0.0041889
0.00441398
0.00457651
0.0046676
0.00467538
0.00459369
0.00443201
0.00421957
0.00399706
0.0037996
0.00364423
0.00353124
0.0034533
0.00340179
0.00220257
0.00230193
0.002323
0.00235535
0.00241903
0.00258816
0.00287972
0.00325279
0.00364552
0.00398697
0.00425777
0.00446492
0.00460633
0.00467212
0.00465049
0.00453796
0.00435
0.00412304
0.00390142
0.00371759
0.00358215
0.00348977
0.00343006
0.00339299
0.00225549
0.00233286
0.00235096
0.00238721
0.00246297
0.00265072
0.00295984
0.00334283
0.00373571
0.00406435
0.00432066
0.00451116
0.00463268
0.00467445
0.00462513
0.00448457
0.00427473
0.00403849
0.00382179
0.00365256
0.00353494
0.00345916
0.0034132
0.00338662
0.00228809
0.00235176
0.00237194
0.00241339
0.00250205
0.00270817
0.00303373
0.00342555
0.00381818
0.00413503
0.00437838
0.00455385
0.00465707
0.00467651
0.00460176
0.00443659
0.00420939
0.00396827
0.00375882
0.00360356
0.00350092
0.00343751
0.00340126
0.00338224
0.00230507
0.00236117
0.00238691
0.00243398
0.00253558
0.00275938
0.00310031
0.00350022
0.00389236
0.00419929
0.00443173
0.00459411
0.00468091
0.00468013
0.00458271
0.00439665
0.00415633
0.00391357
0.00371208
0.00356886
0.00347769
0.00342292
0.00339408
0.00337957
0.00230946
0.00236266
0.00239618
0.00244869
0.00256268
0.00280319
0.00315869
0.00356664
0.00395687
0.00425736
0.00448144
0.00463293
0.00470549
0.00468694
0.00456998
0.00436685
0.00411707
0.00387463
0.00368047
0.00354675
0.00346318
0.00341505
0.00339023
0.00337817
0.00230308
0.00235703
0.00239965
0.00245695
0.00258235
0.00283847
0.00320784
0.00362397
0.00401312
0.00430996
0.00452821
0.00467118
0.00473187
0.00469832
0.00456517
0.0043487
0.00409241
0.00385113
0.00366261
0.00353516
0.00345642
0.00341177
0.0033888
0.00337763
0.00228681
0.00234453
0.00239688
0.00245797
0.00259352
0.00286412
0.00324689
0.00367173
0.00406198
0.00435774
0.00457266
0.00470952
0.00476091
0.00471531
0.0045694
0.00434309
0.00408251
0.00384257
0.00365755
0.00353359
0.00345785
0.00341343
0.00338987
0.00337791
0.00226078
0.00232503
0.00238716
0.00245084
0.00259513
0.00287915
0.00327515
0.00370963
0.0041037
0.00440102
0.00461513
0.00474839
0.00479326
0.00473867
0.00458305
0.00434938
0.00408659
0.00384671
0.00366369
0.00354044
0.00346407
0.00341896
0.00339308
0.00337877
0.00222514
0.0022982
0.00236956
0.00243452
0.00258611
0.00288268
0.00329202
0.00373739
0.00413829
0.00443988
0.00465577
0.00478785
0.00482754
0.00476578
0.00460466
0.00436936
0.00410481
0.00386496
0.00368078
0.00355533
0.00347588
0.00342727
0.00339794
0.00338034
0.00217839
0.00226347
0.00234297
0.00240828
0.00256549
0.00287395
0.00329704
0.00375477
0.00416559
0.00447414
0.00469373
0.00482604
0.00486444
0.00480136
0.00463993
0.00440176
0.00413668
0.00389542
0.00370802
0.00357788
0.00349308
0.00343906
0.0034046
0.00338243
0.00211941
0.00222045
0.0023047
0.00237054
0.00253342
0.00285286
0.00328988
0.00376155
0.00418539
0.00450336
0.0047295
0.00486619
0.00490744
0.00484589
0.00468317
0.00444587
0.00418102
0.00393753
0.00374501
0.00360796
0.0035157
0.00345442
0.00341328
0.00338524
0.00204555
0.00216806
0.00225338
0.00232045
0.00248838
0.0028195
0.00327116
0.00375792
0.00419765
0.00452819
0.0047639
0.00490768
0.00495367
0.00489439
0.00473459
0.00450054
0.00423691
0.00399071
0.00379156
0.00364563
0.00354394
0.00347361
0.00342424
0.00338894
0.00195298
0.00210389
0.00218946
0.00225804
0.00243041
0.00277319
0.00324047
0.00374396
0.00420226
0.0045478
0.00479536
0.00494794
0.00500034
0.00494694
0.00479336
0.00456471
0.0043034
0.00405441
0.00384756
0.0036911
0.00357816
0.00349703
0.00343782
0.00339375
0.00183639
0.00202521
0.00211223
0.00218332
0.00236002
0.00271454
0.00319833
0.0037201
0.00419911
0.00456179
0.00482331
0.00498698
0.00504842
0.00500348
0.00485839
0.00463709
0.00437937
0.00412796
0.00391288
0.00374464
0.0036188
0.00352511
0.00345436
0.00339986
0.0016872
0.00192798
0.00202011
0.00209619
0.0022778
0.00264467
0.00314594
0.00368717
0.00418831
0.00456986
0.00484721
0.00502402
0.00509682
0.00506265
0.00492821
0.00471618
0.00446352
0.00421055
0.00398728
0.00380645
0.00366629
0.00355834
0.00347428
0.00340749
0.0014854
0.00180505
0.00191044
0.00199636
0.00218476
0.00256575
0.00308524
0.00364663
0.00417013
0.0045718
0.0048665
0.00505825
0.00514439
0.00512305
0.00500125
0.00480033
0.00455437
0.00430112
0.00407027
0.00387658
0.00372101
0.00359719
0.00349792
0.00341682
0.00119097
0.00164291
0.00177896
0.00188362
0.00208418
0.0024827
0.00302019
0.00360073
0.0041449
0.00456752
0.00488067
0.00508879
0.00518997
0.00518326
0.0050759
0.00488782
0.0046503
0.00439841
0.00416113
0.00395487
0.00378325
0.00364213
0.00352555
0.00342795
0.000688427
0.00142227
0.00162581
0.00176562
0.00198761
0.00240294
0.00295566
0.00355197
0.00411482
0.00455739
0.00488937
0.00511486
0.00523246
0.00524193
0.00515059
0.00497699
0.00474967
0.004501
0.00425891
0.00404092
0.00385305
0.00369342
0.00355742
0.00344085
1.3073e-06
3.67026e-06
9.92694e-06
2.06019e-05
4.60101e-05
4.58799e-05
3.54125e-05
5.67933e-05
0.000101479
0.000123748
0.000153476
0.000208387
0.000194942
0.00011168
0.000179969
0.000197861
0.00022727
0.000335264
4.95511e-05
0.000134503
0.000229094
0.000249503
0.000285817
0.000404271
5.38695e-05
0.000164842
0.000267305
0.000290339
0.000341502
0.000453086
5.64995e-05
0.000197353
0.000299971
0.000323597
0.000389079
0.000490142
5.84926e-05
0.000229621
0.000328716
0.000355975
0.000428842
0.000517265
6.01065e-05
0.000260287
0.000354823
0.000389344
0.00045846
0.000543112
6.14212e-05
0.000288329
0.000379247
0.000421071
0.000482524
0.000567987
6.24766e-05
0.000312834
0.000402265
0.000449906
0.000501913
0.000591155
6.33044e-05
0.000333552
0.000424129
0.000475689
0.000520632
0.000611607
6.3912e-05
0.000350338
0.000444645
0.000498644
0.000539331
0.000628958
6.42024e-05
0.000363769
0.000463131
0.00051975
0.000558046
0.00064367
6.41691e-05
0.00037341
0.000478961
0.000539471
0.000577336
0.000656654
6.38086e-05
0.000378445
0.000491392
0.000557748
0.000597378
0.000669918
6.31111e-05
0.000378503
0.000499275
0.000573896
0.000617477
0.000678998
6.20474e-05
0.000372
0.000500862
0.000586582
0.000638153
0.000691489
6.0567e-05
0.000356942
0.000493584
0.000592947
0.000657588
0.000702488
5.85835e-05
0.000330685
0.000473907
0.000588009
0.000669371
0.000709345
5.59507e-05
0.000290833
0.000437405
0.000564586
0.000660591
0.000704753
5.24083e-05
0.000234859
0.000377976
0.00051177
0.000618756
0.00067123
4.74567e-05
0.000161809
0.00028836
0.000417698
0.000532551
0.000568851
2.98707e-05
7.56674e-05
0.000165256
0.000269993
0.000378397
0.000354311
1.06663e-06
9.86496e-06
3.66921e-05
8.64359e-05
0.000159491
0.000203737
0.000653582
0.00134652
0.00153598
0.00168132
0.00191266
0.00233639
0.00289694
0.00350369
0.00408125
0.00454173
0.0048923
0.0051358
0.00527089
0.00529783
0.0052239
0.00506626
0.00485089
0.00460744
0.00436244
0.00413401
0.00393011
0.00375101
0.00359366
0.0034555
0.000665064
0.00128937
0.00149277
0.00162935
0.00185892
0.00228223
0.00284443
0.00345622
0.00404426
0.00452052
0.00488918
0.00515102
0.00530439
0.00534984
0.00529446
0.00515412
0.00495234
0.00471611
0.0044703
0.00423306
0.00401378
0.00381465
0.00363428
0.00347185
0.000685132
0.00123282
0.00144561
0.00158775
0.00181907
0.00223751
0.00279551
0.00340932
0.00400271
0.00449355
0.00487973
0.00515994
0.00533211
0.00539685
0.00536097
0.00523904
0.00505232
0.00482522
0.00458076
0.00433659
0.00410298
0.00388369
0.00367901
0.00348969
0.000713586
0.00120294
0.00138506
0.00153749
0.00178084
0.00219711
0.00274983
0.00336161
0.00395735
0.00446092
0.00486366
0.00516201
0.00535318
0.00543771
0.00542199
0.00531937
0.00514896
0.00493273
0.0046917
0.00444262
0.00419606
0.00395697
0.00372732
0.00350875
0.000745499
0.001179
0.00135148
0.00148193
0.00173833
0.00215466
0.00270374
0.0033115
0.00390815
0.00442241
0.00484055
0.00515651
0.00536662
0.00547114
0.005476
0.00539331
0.00524024
0.00503639
0.00480073
0.00454881
0.004291
0.00403295
0.00377791
0.00352808
0.000777986
0.00115673
0.00131939
0.00144082
0.00168702
0.00210702
0.00265291
0.00325771
0.0038543
0.00437751
0.00480979
0.00514259
0.00537128
0.00549573
0.0055213
0.00545895
0.00532397
0.00513377
0.00490524
0.00465246
0.00438521
0.00410928
0.00382866
0.0035461
0.000806399
0.00113473
0.00128895
0.00141245
0.00164419
0.00205439
0.00259644
0.00319935
0.00379484
0.00432546
0.00477058
0.00511928
0.00536594
0.00550997
0.00555616
0.00551431
0.00539795
0.00522239
0.00500247
0.00475065
0.00447568
0.00418299
0.00387681
0.00356058
0.000828458
0.00111252
0.00125877
0.00138353
0.00160844
0.00200412
0.00253523
0.00313434
0.00372872
0.00426541
0.00472201
0.00508549
0.00534929
0.00551236
0.00557886
0.00555747
0.00546005
0.00529989
0.00508981
0.00484047
0.0045593
0.00425085
0.00391904
0.00356852
0.000843444
0.00108984
0.00122797
0.00135362
0.00157573
0.00195531
0.00247077
0.00306343
0.00365555
0.00419661
0.00466313
0.00504009
0.00532003
0.00550143
0.00558782
0.00558678
0.00550855
0.00536444
0.00516521
0.00491964
0.00463352
0.00431
0.00395201
0.00356616
0.000851305
0.00106642
0.00119601
0.00132184
0.0015425
0.00190548
0.00240399
0.00298597
0.00357389
0.00411803
0.00459288
0.0049819
0.00527687
0.00547585
0.00558177
0.00560112
0.00554254
0.00541538
0.00522824
0.00498778
0.0046978
0.00435947
0.00397368
0.00354949
0.000852584
0.00104194
0.00116251
0.0012872
0.00150536
0.00185189
0.00233565
0.00290426
0.00348349
0.00402881
0.00451013
0.00490961
0.00521844
0.00543435
0.00555972
0.00560004
0.00556242
0.00545419
0.00528165
0.00504897
0.00475726
0.00440454
0.00398742
0.00351589
0.000848276
0.00101613
0.00112744
0.00124979
0.00145642
0.00179283
0.00226003
0.00281404
0.00338378
0.00392779
0.00441342
0.00482159
0.00514305
0.0053754
0.00552067
0.00558356
0.00556985
0.0054851
0.00533342
0.00511627
0.0048311
0.00446979
0.00401728
0.00347116
0.000839702
0.000988869
0.00109107
0.00120922
0.00140318
0.00172612
0.00217601
0.00271153
0.00327211
0.00381301
0.00430075
0.0047156
0.00504833
0.0052967
0.00546278
0.00555092
0.00556619
0.00551335
0.0053958
0.00521445
0.0049649
0.00463019
0.00416169
0.00346526
0.000828458
0.00096039
0.00105434
0.00116048
0.00134603
0.0016507
0.00208312
0.00259801
0.00314717
0.00368245
0.00416961
0.00458873
0.00493092
0.00519458
0.00538225
0.00549851
0.00554864
0.00553806
0.00547257
0.0053592
0.0052073
0.00502942
0.00484598
0.00470602
0.000815231
0.000930861
0.00101395
0.00111218
0.00128292
0.00157085
0.00197688
0.0024723
0.00300732
0.00353385
0.00401716
0.00443746
0.00478664
0.00506408
0.00527318
0.00541913
0.00550756
0.00554421
0.00553532
0.00548876
0.00541518
0.00532907
0.00525748
0.00522638
0.000806211
0.000902969
0.000974818
0.0010618
0.00121678
0.00147995
0.00186087
0.00233368
0.002851
0.0033649
0.00384042
0.00425816
0.00461105
0.00489973
0.00512872
0.00530392
0.00543111
0.00551544
0.00556165
0.0055755
0.00556607
0.00554305
0.00552233
0.00552538
0.000793802
0.000873473
0.000934607
0.00100983
0.00114609
0.00138345
0.00173571
0.00218177
0.0026769
0.0031736
0.00363681
0.00404766
0.00440023
0.00469652
0.00494229
0.00514406
0.00530743
0.00543624
0.00553086
0.00559951
0.00564845
0.00567149
0.00568804
0.00570977
0.00078831
0.000847753
0.000895765
0.000957509
0.00107359
0.00128271
0.00160232
0.00201672
0.00248433
0.00295862
0.0034046
0.00380385
0.00415151
0.00445091
0.00470901
0.00493302
0.00512826
0.00529179
0.00542915
0.00555701
0.00564803
0.0057113
0.00575722
0.00579255
0.00078685
0.00082607
0.000859392
0.000906364
0.00100103
0.00117962
0.00146242
0.00183948
0.00227356
0.00271979
0.00314341
0.00352626
0.00386417
0.00416156
0.00442658
0.00466741
0.0048833
0.00507712
0.00526115
0.00543248
0.00556301
0.00566268
0.0057344
0.00578136
0.000780059
0.000805967
0.000825855
0.000857612
0.000929907
0.00107596
0.00131805
0.001652
0.00204621
0.00245851
0.00285473
0.00321658
0.00353998
0.00382997
0.00409592
0.00434396
0.00457319
0.00479395
0.00501236
0.00522286
0.00539211
0.00552598
0.0056223
0.00568047
0.000751162
0.000779356
0.000792597
0.000812156
0.000863597
0.000976785
0.00117479
0.00145945
0.00180662
0.00217864
0.00254243
0.00287906
0.00318365
0.00346095
0.00372112
0.00396541
0.0042029
0.00444082
0.00467973
0.00492377
0.00513138
0.00529844
0.00541978
0.0054898
0.000662909
0.000730035
0.000750124
0.000763373
0.00079638
0.000877756
0.0010312
0.00126362
0.00155885
0.00188544
0.00221252
0.00252053
0.00280285
0.00306292
0.00331036
0.00354396
0.00377945
0.00402327
0.00426777
0.00453271
0.0047769
0.0049759
0.00512397
0.00520762
0.000494229
0.000636508
0.000691789
0.000716175
0.000740797
0.000794583
0.000902716
0.0010782
0.00131478
0.0015895
0.00187503
0.0021511
0.00240847
0.00264797
0.00287686
0.00309466
0.00331684
0.00355222
0.00379649
0.00405558
0.00432501
0.00455729
0.00473402
0.004834
0.00025541
0.000411723
0.000551002
0.000614928
0.000656147
0.000702657
0.000780365
0.000907212
0.00108645
0.00130581
0.00154482
0.00178482
0.00201445
0.00223067
0.00243842
0.00263645
0.00283718
0.00305149
0.00328185
0.00352425
0.00378545
0.00404483
0.00425321
0.00437325
8.34882e-07
3.76115e-06
1.22582e-05
2.78598e-05
5.03287e-05
8.2853e-05
2.92926e-05
6.51662e-05
0.000120373
0.000177879
0.000236187
0.000276259
0.00016679
0.000147354
0.000249306
0.000345915
0.000430802
0.000473277
0.000182564
0.000211122
0.00035748
0.000486768
0.000591762
0.000647441
0.000193199
0.000255218
0.000444064
0.000600083
0.000721932
0.000794133
4.74178e-05
0.000281837
0.000513534
0.000692217
0.000828539
0.00091648
4.94502e-05
0.000309862
0.000569302
0.00076651
0.000915392
0.00101774
5.10949e-05
0.00033681
0.000614828
0.000826144
0.00098613
0.00110149
5.2388e-05
0.000361423
0.000651656
0.000873097
0.00104305
0.00117002
5.33633e-05
0.000382691
0.00068009
0.000908633
0.00108753
0.00122483
5.40534e-05
0.000399546
0.000699917
0.00093341
0.00112028
0.00126688
5.4492e-05
0.000410793
0.000710715
0.00094761
0.00114157
0.00129672
5.46658e-05
0.000415753
0.000712117
0.000950883
0.00115124
0.00131456
5.45515e-05
0.000414355
0.000703525
0.000942626
0.00114874
0.00132019
5.411e-05
0.000406608
0.000684614
0.000921992
0.00113307
0.00131296
5.33279e-05
0.000392078
0.000654579
0.000887892
0.00110298
0.00129173
5.21893e-05
0.000370226
0.000612711
0.000838984
0.00105646
0.00125449
5.06643e-05
0.000340382
0.00055834
0.00077375
0.000990987
0.00119834
4.8521e-05
0.000301742
0.000490952
0.000690863
0.000903503
0.00111885
4.72326e-05
0.000253328
0.000410529
0.000589051
0.000790405
0.00101027
0.00018805
0.000195373
0.000317545
0.000467779
0.000648343
0.000865407
0.000170681
0.000127165
0.000213379
0.000328379
0.000476564
0.000676641
2.95664e-05
5.39389e-05
0.000102707
0.000177323
0.000282119
0.000442123
8.15072e-07
4.00041e-06
1.64985e-05
4.59828e-05
9.87418e-05
0.000192418
0.000185778
0.000307232
0.000427401
0.000511115
0.00056061
0.000605557
0.000662707
0.000748913
0.000874376
0.00103823
0.00122925
0.00143196
0.00163329
0.00182634
0.00201164
0.00218995
0.00236614
0.00255102
0.00275256
0.00297313
0.00320546
0.00345095
0.00368679
0.0038424
0.000258927
0.000317656
0.000360771
0.000432998
0.000473016
0.000513769
0.000562169
0.000626448
0.000715464
0.00083224
0.000973405
0.00113046
0.00129403
0.0014573
0.00161687
0.00177397
0.00192697
0.00208274
0.00224924
0.0024328
0.00263592
0.0028475
0.00306309
0.00326153
0.000433641
0.000411182
0.000425496
0.000444618
0.00046835
0.000478996
0.000500577
0.00053904
0.000588818
0.000658387
0.000747962
0.000855698
0.000979152
0.00111589
0.00125876
0.00140124
0.00153995
0.00167249
0.00180628
0.00195006
0.00211068
0.00228984
0.00247087
0.00266824
0.00063321
0.000579468
0.000567236
0.000580279
0.000583091
0.000580171
0.000572681
0.00056749
0.000576496
0.000607825
0.000650388
0.000707326
0.00078046
0.000866583
0.000962386
0.00106507
0.0011735
0.00128869
0.00141031
0.00153948
0.00166898
0.00180545
0.00196876
0.00212283
0.000810223
0.000772286
0.000756562
0.000760555
0.000773791
0.000776652
0.000775126
0.000768771
0.000762064
0.00075397
0.000753584
0.000762146
0.000781954
0.000811621
0.000850948
0.000900947
0.000962469
0.00103449
0.00111417
0.00120184
0.00129862
0.00140615
0.00154419
0.0016748
0.000960206
0.000954959
0.000952553
0.000964604
0.000984335
0.00100744
0.001027
0.00103582
0.00104479
0.00105136
0.00104997
0.00104721
0.00104059
0.0010324
0.00102491
0.00102067
0.00102222
0.00103129
0.00104885
0.00107731
0.00111864
0.00117294
0.00123936
0.00135328
0.00108551
0.00111308
0.00113224
0.00115904
0.00119359
0.00123127
0.0012711
0.00130552
0.00133795
0.00135989
0.00137431
0.00139071
0.00139368
0.00138838
0.00137553
0.00135556
0.00133011
0.00130156
0.0012728
0.00124598
0.00122392
0.00121169
0.00120472
0.00124791
0.0011899
0.00124467
0.00128532
0.00132831
0.00137742
0.00143032
0.00148484
0.00153742
0.00158664
0.00162879
0.0016653
0.00169159
0.00170607
0.00171864
0.00171804
0.00170422
0.00168058
0.00164786
0.00160755
0.00156198
0.00151273
0.00146313
0.00141397
0.00140423
0.00127556
0.00135147
0.00140981
0.0014662
0.00152569
0.00158878
0.00165292
0.00171519
0.00177316
0.00182441
0.00186797
0.00190215
0.0019277
0.00194183
0.00195315
0.00195519
0.00194485
0.00192598
0.0018981
0.0018606
0.00181512
0.00176254
0.00170677
0.0016785
0.00134437
0.00143631
0.00150756
0.00157288
0.0016391
0.00170698
0.00177499
0.00184084
0.00190228
0.00195743
0.00200495
0.00204372
0.00207307
0.00209172
0.00210082
0.00210315
0.00209336
0.00207571
0.00205181
0.0020241
0.00199528
0.00197166
0.00195422
0.00194786
0.00139807
0.00150198
0.0015815
0.00165163
0.00171926
0.0017863
0.00185205
0.00191486
0.00197304
0.00202523
0.00207053
0.00210835
0.00213785
0.00215931
0.00217348
0.00218175
0.00218218
0.0021761
0.00216412
0.00214725
0.00212713
0.0021063
0.00209102
0.00208608
0.00143802
0.00155079
0.00163546
0.00170626
0.00177092
0.00183225
0.0018904
0.00194449
0.00199355
0.00203693
0.00207493
0.00210707
0.00213225
0.00215256
0.00216973
0.00218453
0.00219535
0.00220191
0.00220465
0.00220449
0.00220244
0.00219939
0.00219498
0.00218746
0.00146523
0.00158528
0.00167253
0.00174119
0.00179961
0.00185144
0.00189763
0.0019381
0.00197269
0.00200228
0.0020262
0.00204503
0.00205972
0.00207111
0.00207913
0.0020836
0.00208672
0.00208965
0.00209454
0.00210153
0.00210995
0.00211855
0.00212659
0.00213554
0.00148025
0.00160704
0.00169578
0.0017608
0.00181104
0.00185085
0.00188169
0.00190454
0.00192035
0.00192805
0.0019271
0.00191605
0.00189707
0.00187712
0.00186248
0.00185781
0.00186285
0.00187458
0.00189483
0.00192181
0.0019543
0.00198837
0.00201792
0.00203669
0.00148334
0.00161748
0.00170785
0.00176906
0.00181062
0.00183742
0.00185099
0.00185185
0.00184073
0.00181625
0.00178152
0.00174304
0.00170821
0.00167935
0.00165754
0.00164463
0.00164887
0.00166009
0.00167911
0.00170733
0.00173981
0.00177699
0.00181775
0.0018642
0.00147424
0.00161735
0.00171061
0.00176901
0.00180272
0.00181614
0.00181174
0.00179249
0.00176029
0.00171876
0.00167196
0.00162485
0.00158081
0.00154248
0.00151025
0.00148229
0.00145823
0.00145027
0.00145479
0.00146276
0.00147632
0.00149757
0.00153479
0.0015657
0.00145194
0.0016067
0.00170474
0.00176198
0.00178935
0.0017924
0.00177517
0.00174116
0.00169344
0.0016372
0.00157865
0.00152323
0.00147406
0.00143187
0.00139567
0.00136279
0.00133028
0.00131044
0.00129383
0.00128488
0.00128518
0.00129669
0.00133208
0.00140658
0.00141474
0.00158477
0.00168969
0.00174764
0.0017711
0.00176734
0.00174179
0.00169947
0.00164587
0.00158751
0.00153043
0.00147856
0.00143291
0.0013919
0.00135789
0.00131604
0.00128212
0.00124742
0.00122218
0.00121011
0.00121604
0.00124614
0.0013477
0.00148952
0.00136025
0.00155001
0.00166345
0.00172314
0.0017448
0.0017382
0.00171062
0.0016687
0.001619
0.00156752
0.00151842
0.00147344
0.0014316
0.00139171
0.00134139
0.00129839
0.00125515
0.00121869
0.00119509
0.00119208
0.00121785
0.00128337
0.00143663
0.0016033
0.00128624
0.00150041
0.0016232
0.00168505
0.00170676
0.00170112
0.00167708
0.00164179
0.00160095
0.00155851
0.00151615
0.00147536
0.00142308
0.00136894
0.00132568
0.00127459
0.00122852
0.00119478
0.00118268
0.00120237
0.00126411
0.00138261
0.00158796
0.00178092
0.00119235
0.00143733
0.00156925
0.00163274
0.00165578
0.00165387
0.00163641
0.00160948
0.00157685
0.00154025
0.00149804
0.00144756
0.00139401
0.00134914
0.0012917
0.00123906
0.00119956
0.00118372
0.00120282
0.00126774
0.00139112
0.00159107
0.00183247
0.00207091
0.00108221
0.00136541
0.00150554
0.00156992
0.00159511
0.00159801
0.0015869
0.00156587
0.00153704
0.00149025
0.0014517
0.00140501
0.00135451
0.00129595
0.00124153
0.00120179
0.00118861
0.00121345
0.00128566
0.00141477
0.00161881
0.00187781
0.00216902
0.0024579
0.00096652
0.00129412
0.00144034
0.00150432
0.00153149
0.00153813
0.00153029
0.00150945
0.00146577
0.00144289
0.00140205
0.0013441
0.00128592
0.0012345
0.00120056
0.00119622
0.00123159
0.00131265
0.00144421
0.00163921
0.00190909
0.00221379
0.0025681
0.00286825
0.000867557
0.00123668
0.00138285
0.00144399
0.00147141
0.0014789
0.001467
0.00143476
0.00142089
0.00138259
0.00132562
0.00127023
0.00122471
0.00120042
0.00120863
0.00125624
0.00134438
0.00147411
0.00165543
0.00191341
0.00223021
0.00260037
0.00300697
0.00331024
7.82282e-07
3.663e-06
1.64632e-05
4.97825e-05
0.000110716
0.000202484
2.88282e-05
4.88353e-05
9.90333e-05
0.000179562
0.000282509
0.000388788
0.000168797
0.000116233
0.000203658
0.000321473
0.000460344
0.000633365
0.000187184
0.000178066
0.000295415
0.000439717
0.000602452
0.000784712
4.69797e-05
0.00023071
0.00037089
0.000529934
0.000697375
0.000864026
4.8213e-05
0.00027425
0.0004305
0.000594279
0.000753799
0.000896345
4.98318e-05
0.000307431
0.000475561
0.000636767
0.000781806
0.000900008
5.10416e-05
0.000331554
0.000507728
0.000661619
0.000789564
0.000886063
5.19182e-05
0.000347669
0.000528739
0.000672642
0.000783169
0.000861146
5.24688e-05
0.000356642
0.000540261
0.000673224
0.000767191
0.000829757
5.26948e-05
0.000359471
0.000543771
0.000665634
0.000744983
0.000795694
5.2641e-05
0.000356825
0.000540542
0.000652037
0.00071889
0.000761217
5.2275e-05
0.000348834
0.0005316
0.000633925
0.000690507
0.000728141
5.16913e-05
0.000335158
0.000517732
0.000612316
0.000660729
0.000696868
5.0906e-05
0.00031662
0.000499262
0.000587649
0.000629916
0.000667268
4.98951e-05
0.000294885
0.000476495
0.000559767
0.000597598
0.000638182
4.86782e-05
0.000272177
0.000449908
0.000528141
0.00056294
0.00060896
0.00020123
0.000253981
0.000419809
0.000491852
0.00052504
0.000578756
0.000195487
0.000242162
0.000385623
0.000449504
0.000482947
0.000544965
0.000188148
0.000222599
0.000342957
0.000400025
0.000434772
0.000504506
0.00017666
0.000188937
0.000285663
0.000337841
0.000376162
0.000453615
0.000161003
0.000136054
0.000207115
0.000252425
0.000298902
0.00038567
2.82511e-05
6.14246e-05
0.000103599
0.000136036
0.000186182
0.000283248
8.20198e-07
3.3766e-06
9.43899e-06
1.85962e-05
3.76343e-05
0.000151013
0.000843052
0.00120453
0.00133766
0.00139273
0.00141733
0.00141564
0.00139566
0.00138695
0.00135151
0.00130077
0.00125217
0.00121616
0.00120442
0.00122604
0.00128343
0.00137353
0.00149604
0.00166162
0.00189334
0.00221775
0.00259589
0.00303483
0.00346931
0.00377292
0.000929357
0.00119605
0.0013018
0.00134849
0.00136097
0.00135348
0.00134913
0.0013186
0.00127467
0.00123488
0.00121024
0.00121144
0.00124408
0.00130637
0.00139359
0.00150665
0.00165701
0.00186687
0.0021646
0.00255617
0.00299884
0.00349236
0.00393514
0.00423629
0.00100227
0.00118819
0.00126958
0.00130278
0.00130756
0.00130824
0.00128497
0.00124923
0.00121923
0.00120603
0.00121825
0.00125779
0.00132052
0.00140282
0.0015075
0.00164543
0.00183558
0.00210379
0.00247545
0.00292852
0.0034306
0.00395381
0.00439099
0.00468298
0.00103726
0.00117192
0.00123518
0.00125503
0.00126314
0.00124889
0.00122303
0.00120325
0.0012005
0.0012211
0.0012643
0.00132577
0.00140386
0.00150244
0.00163062
0.00180333
0.00204241
0.0023735
0.00281447
0.0033179
0.00386269
0.00439307
0.00481589
0.00509333
0.00104408
0.00114561
0.00118829
0.00121543
0.00120618
0.00119284
0.00118371
0.00119047
0.00121773
0.00126354
0.00132433
0.00139977
0.00149369
0.00161344
0.00177054
0.00198256
0.00227291
0.00266406
0.00316262
0.00370079
0.00426741
0.004787
0.00519814
0.00544586
0.0010312
0.0011116
0.00115173
0.00115634
0.00115621
0.00115787
0.00117343
0.00120704
0.00125629
0.00131795
0.00139194
0.00148165
0.00159339
0.00173665
0.00192532
0.00217869
0.00251898
0.00296184
0.00350081
0.00405665
0.00462476
0.00512099
0.00551324
0.00572839
0.00100452
0.0010675
0.00110111
0.00110656
0.00112243
0.00114666
0.00118787
0.00124258
0.00130697
0.00138054
0.00146637
0.00157049
0.0017016
0.00187113
0.00209395
0.00238827
0.00277195
0.00325212
0.00380918
0.00436646
0.00491613
0.00537888
0.00574367
0.00592959
0.000968832
0.00102477
0.00104672
0.0010722
0.00110747
0.0011584
0.00122108
0.00129049
0.0013652
0.00144807
0.00154534
0.00166567
0.00181934
0.00201806
0.00227523
0.00260539
0.00302003
0.00351798
0.00407417
0.00461297
0.00512588
0.00555102
0.00587712
0.00604148
0.000927273
0.00098411
0.00100401
0.00105334
0.00111503
0.00118853
0.00126633
0.00134503
0.00142692
0.00151862
0.00162926
0.00176906
0.00194832
0.00217716
0.00246551
0.00282243
0.00325228
0.00374739
0.00428116
0.00478657
0.00524849
0.0056293
0.00591082
0.00605384
0.000882403
0.000942497
0.000974766
0.00105275
0.00114027
0.0012311
0.00131817
0.00140241
0.00149062
0.00159279
0.00171989
0.00188234
0.00208896
0.00234664
0.0026603
0.00303247
0.00346077
0.00393303
0.00442315
0.0048823
0.00528005
0.00560483
0.00584132
0.00596208
0.000837558
0.000903099
0.000962868
0.00106836
0.00117831
0.00128036
0.00137243
0.00146087
0.00155659
0.00167205
0.00181892
0.00200652
0.00224079
0.00252411
0.0028555
0.00323079
0.00364163
0.00407318
0.00450222
0.004899
0.00522266
0.0054777
0.00566456
0.00575975
0.000796693
0.000868734
0.000967937
0.00110108
0.00122552
0.00133314
0.00142775
0.00152064
0.00162608
0.00175802
0.00192764
0.00214183
0.00240254
0.00270695
0.00304816
0.00341583
0.00379663
0.00417422
0.00452913
0.00484016
0.00508851
0.00525694
0.00537365
0.00543529
0.000761892
0.000844784
0.000990359
0.00114344
0.00127654
0.00138669
0.00148339
0.00158232
0.00170038
0.00185201
0.00204664
0.00228764
0.00257234
0.00289283
0.00323692
0.0035892
0.00393235
0.00424863
0.00452138
0.00473632
0.00488276
0.00495531
0.00496061
0.00494441
0.000731725
0.000835579
0.0010211
0.00119046
0.00132903
0.0014405
0.00153995
0.00164709
0.00178075
0.00195477
0.00217569
0.00244257
0.00274807
0.00307986
0.00342172
0.00375465
0.00405845