/*--------------------------------*- C++ -*----------------------------------*\
  =========                 |
  \\      /  F ield         | OpenFOAM: The Open Source CFD Toolbox
   \\    /   O peration     | Website:  https://openfoam.org
    \\  /    A nd           | Version:  11
     \\/     M anipulation  |
\*---------------------------------------------------------------------------*/
FoamFile
{
    format      ascii;
    class       surfaceScalarField;
    location    "1.86";
    object      phi;
}
// * * * * * * * * * * * * * * * * * * * * * * * * * * * * * * * * * * * * * //

dimensions      [0 3 -1 0 0 0 0];

internalField   nonuniform List<scalar> 
5640
(
-1.79762e-07
1.79762e-07
-1.43868e-07
-3.5894e-08
1.61005e-07
-3.04873e-07
8.54648e-07
-6.93643e-07
3.32218e-06
-2.46753e-06
-5.39631e-06
8.71849e-06
-1.19388e-07
2.9915e-07
1.577e-08
-1.71052e-07
3.93981e-07
-6.83084e-07
1.23731e-06
-1.53697e-06
2.7415e-06
-3.97172e-06
-8.08636e-06
5.43155e-06
-5.20214e-08
3.51171e-07
1.26857e-07
-3.4993e-07
5.20461e-07
-1.07669e-06
1.28401e-06
-2.30052e-06
2.35717e-06
-5.04488e-06
-9.34687e-06
3.61768e-06
8.47469e-09
3.42696e-07
1.95307e-07
-5.36763e-07
5.5828e-07
-1.43966e-06
1.17176e-06
-2.914e-06
1.86707e-06
-5.7402e-06
-9.81229e-06
2.3325e-06
5.36972e-08
2.88999e-07
2.29907e-07
-7.12973e-07
5.31199e-07
-1.74095e-06
9.63876e-07
-3.34668e-06
1.31397e-06
-6.09029e-06
-9.75952e-06
1.2612e-06
8.44631e-08
2.04536e-07
2.36303e-07
-8.64813e-07
4.5785e-07
-1.9625e-06
7.02904e-07
-3.59173e-06
7.49299e-07
-6.13669e-06
-9.32875e-06
3.18532e-07
9.98565e-08
1.0468e-07
2.20118e-07
-9.85075e-07
3.54079e-07
-2.09646e-06
4.19752e-07
-3.6574e-06
2.07964e-07
-5.9249e-06
-8.62605e-06
-4.9474e-07
1.01892e-07
2.78741e-09
1.87244e-07
-1.07043e-06
2.33749e-07
-2.14296e-06
1.373e-07
-3.56095e-06
-2.90088e-07
-5.49751e-06
-7.71348e-06
-1.20265e-06
9.35609e-08
-9.07735e-08
1.43622e-07
-1.12049e-06
1.08763e-07
-2.1081e-06
-1.27178e-07
-3.32501e-06
-7.29133e-07
-4.89556e-06
-6.63885e-06
-1.80376e-06
7.8074e-08
-1.68848e-07
9.48285e-08
-1.13724e-06
-1.07048e-08
-2.00257e-06
-3.60703e-07
-2.97501e-06
-1.0989e-06
-4.15736e-06
-5.44209e-06
-2.29567e-06
5.84258e-08
-2.27273e-07
4.57174e-08
-1.12453e-06
-1.17461e-07
-1.83939e-06
-5.53789e-07
-2.53869e-06
-1.39241e-06
-3.31873e-06
-4.15646e-06
-2.67804e-06
3.7156e-08
-2.64429e-07
3.37497e-11
-1.08741e-06
-2.04867e-07
-1.63449e-06
-6.99687e-07
-2.04387e-06
-1.60493e-06
-2.41349e-06
-2.81105e-06
-2.95035e-06
1.62962e-08
-2.80726e-07
-3.87994e-08
-1.03232e-06
-2.69356e-07
-1.40394e-06
-7.94241e-07
-1.51898e-06
-1.73342e-06
-1.47431e-06
-1.43275e-06
-3.11172e-06
-2.71647e-09
-2.78009e-07
-6.97302e-08
-9.65302e-07
-3.09169e-07
-1.1645e-06
-8.35617e-07
-9.92534e-07
-1.77628e-06
-5.3364e-07
-4.83024e-08
-3.16073e-06
-1.9146e-08
-2.58863e-07
-9.20211e-08
-8.92427e-07
-3.2449e-07
-9.32027e-07
-8.24163e-07
-4.92861e-07
-1.7333e-06
3.755e-07
1.31375e-06
-3.09536e-06
-3.21429e-08
-2.2672e-07
-1.06189e-07
-8.18381e-07
-3.17468e-07
-7.20749e-07
-7.62572e-07
-4.77566e-08
-1.60591e-06
1.21884e-06
2.62053e-06
-2.9127e-06
-4.15604e-08
-1.8516e-07
-1.13687e-07
-7.46255e-07
-2.92215e-07
-5.4222e-07
-6.56184e-07
3.16213e-07
-1.39763e-06
1.96029e-06
3.83149e-06
-2.60859e-06
-4.72269e-08
-1.37933e-07
-1.16706e-07
-6.76776e-07
-2.5478e-07
-4.04147e-07
-5.13546e-07
5.74979e-07
-1.11513e-06
2.56187e-06
4.89358e-06
-2.17721e-06
-4.88692e-08
-8.90638e-08
-1.17925e-07
-6.0772e-07
-2.13042e-07
-3.09029e-07
-3.46961e-07
7.08898e-07
-7.70386e-07
2.98529e-06
5.73384e-06
-1.61065e-06
-4.59283e-08
-4.31355e-08
-1.20164e-07
-5.33484e-07
-1.76565e-07
-2.52628e-07
-1.73773e-07
7.06106e-07
-3.79644e-07
3.19116e-06
6.25877e-06
-9.04573e-07
-3.75227e-08
-5.61275e-09
-1.25979e-07
-4.45027e-07
-1.56208e-07
-2.224e-07
-3.01252e-08
5.80022e-07
7.51617e-08
3.08588e-06
6.46474e-06
-1.30802e-07
-2.30529e-08
1.74401e-08
-1.37218e-07
-3.30862e-07
-1.63093e-07
-1.96525e-07
6.29311e-08
3.53998e-07
4.58023e-07
2.69079e-06
5.87184e-06
1.05092e-06
-3.23164e-09
2.06718e-08
-1.53519e-07
-1.80575e-07
-2.11586e-07
-1.38458e-07
2.1486e-08
1.20927e-07
8.7432e-07
1.83795e-06
4.01991e-06
2.72625e-06
2.06718e-08
-1.59904e-07
-2.98361e-07
-1.77434e-07
1.66052e-06
5.68043e-06
3.70994e-06
-2.91578e-05
3.41663e-05
4.41459e-07
-3.51225e-05
3.8391e-05
-2.30691e-06
-3.778e-05
4.05284e-05
-4.83907e-06
-3.87397e-05
4.12718e-05
-7.24674e-06
-3.90959e-05
4.15036e-05
-9.54962e-06
-3.92734e-05
4.15763e-05
-1.1758e-05
-3.94624e-05
4.16708e-05
-1.38854e-05
-3.97322e-05
4.18595e-05
-1.59472e-05
-4.00826e-05
4.21444e-05
-1.79571e-05
-4.04873e-05
4.24973e-05
-1.99259e-05
-4.09173e-05
4.2886e-05
-2.18599e-05
-4.13513e-05
4.32853e-05
-2.37628e-05
-4.17778e-05
4.36807e-05
-2.56362e-05
-4.21902e-05
4.40636e-05
-2.74807e-05
-4.2584e-05
4.44285e-05
-2.92962e-05
-4.29556e-05
4.47711e-05
-3.10819e-05
-4.33021e-05
4.50878e-05
-3.28364e-05
-4.36214e-05
4.5376e-05
-3.45576e-05
-4.3913e-05
4.56342e-05
-3.62421e-05
-4.41781e-05
4.58627e-05
-3.78859e-05
-4.44192e-05
4.60629e-05
-3.94836e-05
-4.46391e-05
4.62369e-05
-4.10295e-05
-4.48466e-05
4.63924e-05
-4.51558e-05
4.66487e-05
2.51614e-06
-2.62424e-05
-3.7521e-07
-3.22312e-05
-3.2027e-06
-3.49525e-05
-5.88842e-06
-3.6054e-05
-8.4419e-06
-3.65424e-05
-1.08762e-05
-3.68391e-05
-1.32067e-05
-3.71319e-05
-1.54519e-05
-3.7487e-05
-1.76299e-05
-3.79046e-05
-1.97554e-05
-3.83619e-05
-2.18389e-05
-3.88338e-05
-2.38865e-05
-3.93037e-05
-2.59013e-05
-3.97629e-05
-2.78849e-05
-4.02066e-05
-2.98376e-05
-4.06313e-05
-3.17592e-05
-4.10341e-05
-3.36489e-05
-4.14124e-05
-3.55055e-05
-4.17648e-05
-3.73267e-05
-4.20918e-05
-3.91092e-05
-4.23956e-05
-4.08491e-05
-4.26793e-05
-4.25417e-05
-4.29465e-05
-4.41826e-05
-4.32057e-05
-4.35642e-05
1.43846e-06
-2.40631e-05
-1.33277e-06
-2.94599e-05
-4.19193e-06
-3.20934e-05
-6.96469e-06
-3.32812e-05
-9.61765e-06
-3.38895e-05
-1.21525e-05
-3.43042e-05
-1.45839e-05
-3.47005e-05
-1.69314e-05
-3.51395e-05
-1.92133e-05
-3.56227e-05
-2.14437e-05
-3.61315e-05
-2.36322e-05
-3.66454e-05
-2.57841e-05
-3.71518e-05
-2.79021e-05
-3.76449e-05
-2.99873e-05
-3.81214e-05
-3.20401e-05
-3.85786e-05
-3.40601e-05
-3.9014e-05
-3.60466e-05
-3.94259e-05
-3.7998e-05
-3.98134e-05
-3.99121e-05
-4.01777e-05
-4.17858e-05
-4.0522e-05
-4.36151e-05
-4.08499e-05
-4.53965e-05
-4.11651e-05
-4.71267e-05
-4.14756e-05
-4.18797e-05
3.45899e-07
-2.20765e-05
-2.35616e-06
-2.67579e-05
-5.21799e-06
-2.92315e-05
-8.0371e-06
-3.04621e-05
-1.07564e-05
-3.11702e-05
-1.33676e-05
-3.16931e-05
-1.58819e-05
-3.21861e-05
-1.83176e-05
-3.27039e-05
-2.06914e-05
-3.32489e-05
-2.3016e-05
-3.38069e-05
-2.52995e-05
-3.43619e-05
-2.75462e-05
-3.49051e-05
-2.97582e-05
-3.54329e-05
-3.19364e-05
-3.59432e-05
-3.40809e-05
-3.64341e-05
-3.61912e-05
-3.69037e-05
-3.82665e-05
-3.73506e-05
-4.03052e-05
-3.77748e-05
-4.23047e-05
-3.81782e-05
-4.42621e-05
-3.85646e-05
-4.61739e-05
-3.89381e-05
-4.80375e-05
-3.93015e-05
-4.98509e-05
-3.96622e-05
-4.01086e-05
-7.33422e-07
-2.00819e-05
-3.37749e-06
-2.41138e-05
-6.23064e-06
-2.63784e-05
-9.07473e-06
-2.7618e-05
-1.18392e-05
-2.84057e-05
-1.45089e-05
-2.90233e-05
-1.70918e-05
-2.96033e-05
-1.96032e-05
-3.01924e-05
-2.20578e-05
-3.07943e-05
-2.4466e-05
-3.13987e-05
-2.68344e-05
-3.19935e-05
-2.91661e-05
-3.25733e-05
-3.14629e-05
-3.31362e-05
-3.3725e-05
-3.36811e-05
-3.59525e-05
-3.42066e-05
-3.81448e-05
-3.47114e-05
-4.03007e-05
-3.51947e-05
-4.24185e-05
-3.5657e-05
-4.44955e-05
-3.61011e-05
-4.6529e-05
-3.65312e-05
-4.8516e-05
-3.69511e-05
-5.04547e-05
-3.73628e-05
-5.23446e-05
-3.77723e-05
-3.82571e-05
-1.718e-06
-1.80454e-05
-4.3473e-06
-2.14845e-05
-7.19404e-06
-2.35316e-05
-1.00527e-05
-2.47593e-05
-1.28493e-05
-2.56092e-05
-1.5565e-05
-2.63076e-05
-1.82047e-05
-2.69636e-05
-2.0781e-05
-2.76162e-05
-2.33058e-05
-2.82695e-05
-2.57874e-05
-2.89171e-05
-2.82305e-05
-2.95503e-05
-3.06376e-05
-3.01663e-05
-3.30094e-05
-3.07643e-05
-3.53463e-05
-3.13442e-05
-3.76479e-05
-3.1905e-05
-3.99133e-05
-3.2446e-05
-4.21413e-05
-3.29667e-05
-4.43298e-05
-3.34685e-05
-4.64763e-05
-3.39546e-05
-4.85781e-05
-3.44294e-05
-5.06329e-05
-3.48963e-05
-5.2639e-05
-3.53567e-05
-5.45964e-05
-3.58149e-05
-3.63297e-05
-2.60199e-06
-1.59381e-05
-5.23838e-06
-1.88481e-05
-8.0835e-06
-2.06865e-05
-1.09522e-05
-2.18906e-05
-1.37728e-05
-2.27886e-05
-1.65255e-05
-2.35549e-05
-1.92126e-05
-2.42764e-05
-2.1844e-05
-2.49847e-05
-2.4429e-05
-2.56845e-05
-2.69739e-05
-2.63722e-05
-2.94819e-05
-2.70423e-05
-3.19544e-05
-2.76938e-05
-3.43918e-05
-2.8327e-05
-3.67939e-05
-2.89421e-05
-3.91602e-05
-2.95387e-05
-4.14896e-05
-3.01166e-05
-4.37807e-05
-3.06757e-05
-4.60312e-05
-3.1218e-05
-4.82388e-05
-3.17469e-05
-5.04013e-05
-3.22669e-05
-5.2517e-05
-3.27806e-05
-5.45847e-05
-3.3289e-05
-5.66033e-05
-3.37963e-05
-3.4338e-05
-3.38192e-06
-1.37589e-05
-6.03467e-06
-1.61954e-05
-8.88233e-06
-1.78389e-05
-1.17594e-05
-1.90136e-05
-1.4599e-05
-1.99489e-05
-1.73816e-05
-2.07723e-05
-2.01081e-05
-2.155e-05
-2.27858e-05
-2.23071e-05
-2.54215e-05
-2.30488e-05
-2.80199e-05
-2.37738e-05
-3.05829e-05
-2.44794e-05
-3.3111e-05
-2.51657e-05
-3.56041e-05
-2.58338e-05
-3.80619e-05
-2.64843e-05
-4.04834e-05
-2.71172e-05
-4.28674e-05
-2.77326e-05
-4.52121e-05
-2.8331e-05
-4.75155e-05
-2.89146e-05
-4.97755e-05
-2.9487e-05
-5.19906e-05
-3.00519e-05
-5.41597e-05
-3.06114e-05
-5.62824e-05
-3.11664e-05
-5.83578e-05
-3.17209e-05
-3.22917e-05
-4.05163e-06
-1.1511e-05
-6.72579e-06
-1.35212e-05
-9.57944e-06
-1.49852e-05
-1.24644e-05
-1.61285e-05
-1.53197e-05
-1.70937e-05
-1.81266e-05
-1.79654e-05
-2.08852e-05
-1.87914e-05
-2.36007e-05
-1.95915e-05
-2.62781e-05
-2.03714e-05
-2.89205e-05
-2.11314e-05
-3.15287e-05
-2.18712e-05
-3.41026e-05
-2.25918e-05
-3.66418e-05
-2.32946e-05
-3.91455e-05
-2.39806e-05
-4.16126e-05
-2.46501e-05
-4.40417e-05
-2.53035e-05
-4.64307e-05
-2.59419e-05
-4.87779e-05
-2.65674e-05
-5.10816e-05
-2.71833e-05
-5.3341e-05
-2.77925e-05
-5.55559e-05
-2.83965e-05
-5.77265e-05
-2.89958e-05
-5.9853e-05
-2.95944e-05
-3.02005e-05
-4.60692e-06
-9.19977e-06
-7.30523e-06
-1.08229e-05
-1.01677e-05
-1.21228e-05
-1.30607e-05
-1.32355e-05
-1.59287e-05
-1.42256e-05
-1.8755e-05
-1.51391e-05
-2.15389e-05
-1.60075e-05
-2.42842e-05
-1.68462e-05
-2.69944e-05
-1.76612e-05
-2.96714e-05
-1.84544e-05
-3.23151e-05
-1.92274e-05
-3.49252e-05
-1.99818e-05
-3.75007e-05
-2.07191e-05
-4.00407e-05
-2.14405e-05
-4.2544e-05
-2.21469e-05
-4.50087e-05
-2.28388e-05
-4.7433e-05
-2.35176e-05
-4.98151e-05
-2.41852e-05
-5.21541e-05
-2.48443e-05
-5.44496e-05
-2.5497e-05
-5.6702e-05
-2.61441e-05
-5.89116e-05
-2.67862e-05
-6.10797e-05
-2.74263e-05
-2.80705e-05
-5.04559e-06
-6.83221e-06
-7.76924e-06
-8.09925e-06
-1.06427e-05
-9.2493e-06
-1.35439e-05
-1.03344e-05
-1.64224e-05
-1.13471e-05
-1.92632e-05
-1.22983e-05
-2.20657e-05
-1.3205e-05
-2.48329e-05
-1.4079e-05
-2.75671e-05
-1.4927e-05
-3.02693e-05
-1.57522e-05
-3.29391e-05
-1.65577e-05
-3.55755e-05
-1.73453e-05
-3.81777e-05
-1.81169e-05
-4.07445e-05
-1.88738e-05
-4.32744e-05
-1.9617e-05
-4.57655e-05
-2.03476e-05
-4.82161e-05
-2.1067e-05
-5.06247e-05
-2.17767e-05
-5.29906e-05
-2.24785e-05
-5.53139e-05
-2.31737e-05
-5.7595e-05
-2.38629e-05
-5.98347e-05
-2.45465e-05
-6.20338e-05
-2.52272e-05
-2.59094e-05
-5.36666e-06
-4.4159e-06
-8.11615e-06
-5.34976e-06
-1.10026e-05
-6.36289e-06
-1.39118e-05
-7.42512e-06
-1.67983e-05
-8.46069e-06
-1.96488e-05
-9.44775e-06
-2.24633e-05
-1.03905e-05
-2.52444e-05
-1.1298e-05
-2.79938e-05
-1.21775e-05
-3.0712e-05
-1.30341e-05
-3.33981e-05
-1.38715e-05
-3.60512e-05
-1.46922e-05
-3.86704e-05
-1.54978e-05
-4.12542e-05
-1.62899e-05
-4.38013e-05
-1.70699e-05
-4.63097e-05
-1.78392e-05
-4.87776e-05
-1.85991e-05
-5.12039e-05
-1.93504e-05
-5.35881e-05
-2.00942e-05
-5.59307e-05
-2.08311e-05
-5.82319e-05
-2.15617e-05
-6.04918e-05
-2.22865e-05
-6.27123e-05
-2.30068e-05
-2.37256e-05
-5.56982e-06
-1.9578e-06
-8.34568e-06
-2.5739e-06
-1.12468e-05
-3.46178e-06
-1.41641e-05
-4.50778e-06
-1.70559e-05
-5.56892e-06
-1.99112e-05
-6.59245e-06
-2.27308e-05
-7.57087e-06
-2.55176e-05
-8.51116e-06
-2.82733e-05
-9.42181e-06
-3.0998e-05
-1.03094e-05
-3.36907e-05
-1.11788e-05
-3.63508e-05
-1.20322e-05
-3.89771e-05
-1.28715e-05
-4.15683e-05
-1.36986e-05
-4.4123e-05
-1.45153e-05
-4.66392e-05
-1.53231e-05
-4.91152e-05
-1.6123e-05
-5.15501e-05
-1.69155e-05
-5.39436e-05
-1.77006e-05
-5.62963e-05
-1.84784e-05
-5.86086e-05
-1.92493e-05
-6.08812e-05
-2.0014e-05
-6.31145e-05
-2.07735e-05
-2.15293e-05
-5.6551e-06
5.36572e-07
-8.45863e-06
2.29629e-07
-1.13765e-05
-5.43949e-07
-1.43017e-05
-1.58255e-06
-1.7196e-05
-2.67465e-06
-2.00508e-05
-3.73766e-06
-2.28684e-05
-4.75321e-06
-2.56526e-05
-5.72702e-06
-2.84053e-05
-6.66907e-06
-3.11268e-05
-7.58793e-06
-3.38165e-05
-8.48909e-06
-3.64736e-05
-9.37506e-06
-3.90972e-05
-1.02479e-05
-4.1686e-05
-1.11097e-05
-4.42387e-05
-1.19627e-05
-4.67533e-05
-1.28085e-05
-4.92283e-05
-1.3648e-05
-5.16629e-05
-1.44809e-05
-5.4057e-05
-1.53065e-05
-5.64111e-05
-1.61243e-05
-5.87256e-05
-1.69348e-05
-6.10008e-05
-1.77388e-05
-6.32373e-05
-1.8537e-05
-1.9329e-05
-5.6228e-06
3.06402e-06
-8.45675e-06
3.06357e-06
-1.1394e-05
2.39332e-06
-1.43271e-05
1.35052e-06
-1.72208e-05
2.19041e-07
-2.00694e-05
-8.89036e-07
-2.28776e-05
-1.94502e-06
-2.56504e-05
-2.95425e-06
-2.83907e-05
-3.92875e-06
-3.10992e-05
-4.87937e-06
-3.37758e-05
-5.8125e-06
-3.642e-05
-6.73092e-06
-3.90309e-05
-7.63692e-06
-4.16077e-05
-8.533e-06
-4.41487e-05
-9.42169e-06
-4.66522e-05
-1.03049e-05
-4.91169e-05
-1.11832e-05
-5.15421e-05
-1.20557e-05
-5.39277e-05
-1.29209e-05
-5.62741e-05
-1.37779e-05
-5.85817e-05
-1.46273e-05
-6.08505e-05
-1.547e-05
-6.30812e-05
-1.63062e-05
-1.71339e-05
-5.47354e-06
5.62486e-06
-8.34278e-06
5.93282e-06
-1.13034e-05
5.35392e-06
-1.42444e-05
4.29149e-06
-1.7134e-05
3.10866e-06
-1.99703e-05
1.94724e-06
-2.2761e-05
8.45694e-07
-2.55132e-05
-2.01993e-07
-2.82313e-05
-1.21064e-06
-3.09169e-05
-2.19379e-06
-3.35703e-05
-3.1591e-06
-3.61915e-05
-4.10978e-06
-3.87798e-05
-5.04856e-06
-4.13344e-05
-5.97842e-06
-4.38538e-05
-6.90225e-06
-4.63367e-05
-7.82203e-06
-4.87818e-05
-8.73813e-06
-5.11885e-05
-9.64913e-06
-5.35565e-05
-1.05529e-05
-5.58861e-05
-1.14483e-05
-5.81775e-05
-1.23358e-05
-6.04309e-05
-1.32166e-05
-6.26469e-05
-1.40903e-05
-1.49533e-05
-5.20837e-06
8.22464e-06
-8.12078e-06
8.84522e-06
-1.11104e-05
8.34355e-06
-1.40595e-05
7.24059e-06
-1.69408e-05
5.98999e-06
-1.97578e-05
4.76418e-06
-2.25224e-05
3.6103e-06
-2.52445e-05
2.52013e-06
-2.79303e-05
1.47514e-06
-3.05826e-05
4.58498e-07
-3.32025e-05
-5.39206e-07
-3.57903e-05
-1.52198e-06
-3.83457e-05
-2.49314e-06
-4.0868e-05
-3.45613e-06
-4.33561e-05
-4.41414e-06
-4.58088e-05
-5.36933e-06
-4.82249e-05
-6.32198e-06
-5.06038e-05
-7.27029e-06
-5.29451e-05
-8.21166e-06
-5.52488e-05
-9.14456e-06
-5.75152e-05
-1.00694e-05
-5.97441e-05
-1.09877e-05
-6.19362e-05
-1.18983e-05
-1.27963e-05
-4.8294e-06
1.08768e-05
-7.79714e-06
1.1813e-05
-1.08231e-05
1.13695e-05
-1.37804e-05
1.01979e-05
-1.66483e-05
8.85791e-06
-1.94378e-05
7.55367e-06
-2.21667e-05
6.33921e-06
-2.48484e-05
5.20183e-06
-2.74912e-05
4.11798e-06
-3.00995e-05
3.0668e-06
-3.26752e-05
2.03649e-06
-3.52191e-05
1.02191e-06
-3.77313e-05
1.90294e-08
-4.02113e-05
-9.76112e-07
-4.26583e-05
-1.96712e-06
-4.50712e-05
-2.95641e-06
-4.7449e-05
-3.9442e-06
-4.97908e-05
-4.92846e-06
-5.20962e-05
-5.90626e-06
-5.43651e-05
-6.87573e-06
-5.65973e-05
-7.83722e-06
-5.87928e-05
-8.79219e-06
-6.09519e-05
-9.73919e-06
-1.0672e-05
-4.34105e-06
1.36072e-05
-7.38193e-06
1.48538e-05
-1.04526e-05
1.44401e-05
-1.3417e-05
1.31623e-05
-1.62648e-05
1.17058e-05
-1.90173e-05
1.03062e-05
-2.16998e-05
9.02166e-06
-2.43299e-05
7.83192e-06
-2.69185e-05
6.70663e-06
-2.94717e-05
5.61998e-06
-3.19923e-05
4.5571e-06
-3.44817e-05
3.51133e-06
-3.69404e-05
2.4777e-06
-3.93681e-05
1.45161e-06
-4.17642e-05
4.28974e-07
-4.41278e-05
-5.92854e-07
-4.64578e-05
-1.61418e-06
-4.87533e-05
-2.6329e-06
-5.10138e-05
-3.64585e-06
-5.32386e-05
-4.65087e-06
-5.54277e-05
-5.64815e-06
-5.75808e-05
-6.6391e-06
-5.96981e-05
-7.62189e-06
-8.5892e-06
-3.7523e-06
1.6455e-05
-6.89039e-06
1.79919e-05
-1.00145e-05
1.75642e-05
-1.29824e-05
1.61302e-05
-1.58008e-05
1.45241e-05
-1.85046e-05
1.301e-05
-2.11283e-05
1.16453e-05
-2.36945e-05
1.03981e-05
-2.6217e-05
9.22916e-06
-2.87036e-05
8.10654e-06
-3.1158e-05
7.01155e-06
-3.35823e-05
5.9356e-06
-3.59772e-05
4.87255e-06
-3.83426e-05
3.81702e-06
-4.0678e-05
2.76443e-06
-4.29827e-05
1.71184e-06
-4.52557e-05
6.58781e-07
-4.74959e-05
-3.92727e-07
-4.97023e-05
-1.43943e-06
-5.18742e-05
-2.47893e-06
-5.40112e-05
-3.51114e-06
-5.6113e-05
-4.53734e-06
-5.81796e-05
-5.55526e-06
-6.55667e-06
-3.07668e-06
1.94008e-05
-6.34667e-06
2.12619e-05
-9.53151e-06
2.07491e-05
-1.24939e-05
1.90926e-05
-1.52686e-05
1.72989e-05
-1.79088e-05
1.56502e-05
-2.04592e-05
1.41957e-05
-2.2948e-05
1.28869e-05
-2.53918e-05
1.16729e-05
-2.77998e-05
1.05146e-05
-3.01769e-05
9.38862e-06
-3.25253e-05
8.28404e-06
-3.48461e-05
7.19332e-06
-3.71393e-05
6.11023e-06
-3.94045e-05
5.02968e-06
-4.16411e-05
3.94839e-06
-4.38479e-05
2.86561e-06
-4.60238e-05
1.78317e-06
-4.81675e-05
7.04242e-07
-5.02778e-05
-3.68573e-07
-5.23541e-05
-1.43492e-06
-5.43955e-05
-2.49586e-06
-5.64024e-05
-3.54845e-06
-4.58258e-06
-2.32307e-06
2.27748e-05
-5.79513e-06
2.4734e-05
-9.03772e-06
2.39917e-05
-1.19738e-05
2.20287e-05
-1.46828e-05
2.00078e-05
-1.72394e-05
1.82068e-05
-1.96993e-05
1.66557e-05
-2.20957e-05
1.52834e-05
-2.44474e-05
1.40246e-05
-2.67649e-05
1.2832e-05
-2.90533e-05
1.1677e-05
-3.13152e-05
1.0546e-05
-3.35518e-05
9.42988e-06
-3.57631e-05
8.32155e-06
-3.79488e-05
7.21537e-06
-4.01081e-05
6.10772e-06
-4.224e-05
4.9975e-06
-4.4343e-05
3.88619e-06
-4.64155e-05
2.77676e-06
-4.8456e-05
1.67187e-06
-5.0463e-05
5.72124e-07
-5.24355e-05
-5.23413e-07
-5.4372e-05
-1.61193e-06
-2.67366e-06
-1.56982e-06
2.70709e-05
-5.32133e-06
2.84855e-05
-8.58503e-06
2.72554e-05
-1.14504e-05
2.48941e-05
-1.40579e-05
2.26153e-05
-1.65044e-05
2.06533e-05
-1.88538e-05
1.9005e-05
-2.11419e-05
1.75714e-05
-2.33879e-05
1.62707e-05
-2.56027e-05
1.50467e-05
-2.77913e-05
1.38657e-05
-2.99565e-05
1.27111e-05
-3.20989e-05
1.15724e-05
-3.42189e-05
1.04415e-05
-3.63159e-05
9.31236e-06
-3.83891e-05
8.18095e-06
-4.04374e-05
7.04578e-06
-4.24591e-05
5.90787e-06
-4.44522e-05
4.76984e-06
-4.64145e-05
3.63423e-06
-4.83442e-05
2.50179e-06
-5.02392e-05
1.37155e-06
-5.20968e-05
2.45753e-07
-8.35597e-07
-8.90345e-07
3.36417e-05
-5.09194e-06
3.26871e-05
-8.24346e-06
3.04069e-05
-1.09505e-05
2.76011e-05
-1.34036e-05
2.50685e-05
-1.57078e-05
2.29575e-05
-1.7925e-05
2.12223e-05
-2.00886e-05
1.9735e-05
-2.22159e-05
1.8398e-05
-2.43164e-05
1.71472e-05
-2.63948e-05
1.59441e-05
-2.84532e-05
1.47695e-05
-3.04922e-05
1.36114e-05
-3.25117e-05
1.2461e-05
-3.45111e-05
1.13118e-05
-3.64896e-05
1.01594e-05
-3.84457e-05
9.00194e-06
-4.03777e-05
7.83989e-06
-4.22833e-05
6.67539e-06
-4.41598e-05
5.51075e-06
-4.60048e-05
4.34676e-06
-4.78157e-05
3.18243e-06
-4.95896e-05
2.01971e-06
9.2257e-07
1.03662e-06
-1.03662e-06
2.21106e-06
-1.17445e-06
3.19639e-06
-9.85332e-07
4.07734e-06
-8.80944e-07
3.89828e-06
1.79054e-07
4.78432e-06
-8.86031e-07
1.22244e-06
-2.25905e-06
2.27845e-06
-2.23046e-06
3.05747e-06
-1.76435e-06
3.37839e-06
-1.20186e-06
1.93757e-06
1.61987e-06
9.40371e-06
-2.68182e-06
1.17865e-06
-3.4377e-06
2.03926e-06
-3.09107e-06
2.54342e-06
-2.26851e-06
2.25813e-06
-9.16575e-07
-1.93285e-08
3.89733e-06
1.32017e-05
-3.81736e-06
1.09703e-06
-4.53473e-06
1.73832e-06
-3.73236e-06
1.93561e-06
-2.4658e-06
1.13036e-06
-1.11331e-07
-1.185e-06
6.21269e-06
1.64115e-05
-4.39476e-06
9.2243e-07
-5.45716e-06
1.37765e-06
-4.18758e-06
1.29219e-06
-2.38034e-06
1.57406e-07
1.02345e-06
-2.1071e-06
8.47719e-06
1.89041e-05
-4.59975e-06
7.41902e-07
-6.19906e-06
1.01298e-06
-4.45866e-06
6.86475e-07
-2.05383e-06
-6.19737e-07
2.32966e-06
-2.66548e-06
1.05229e-05
2.07697e-05
-4.53098e-06
5.67484e-07
-6.76655e-06
6.68429e-07
-4.5596e-06
1.63894e-07
-1.5493e-06
-1.1543e-06
3.64786e-06
-2.91228e-06
1.22809e-05
2.2113e-05
-4.25561e-06
4.02377e-07
-7.16892e-06
3.60247e-07
-4.51747e-06
-2.38468e-07
-9.50582e-07
-1.48108e-06
4.89047e-06
-2.91861e-06
1.37184e-05
2.30174e-05
-3.82301e-06
2.48535e-07
-7.41746e-06
9.59781e-08
-4.36491e-06
-5.37316e-07
-3.17289e-07
-1.63511e-06
5.98827e-06
-2.74183e-06
1.48252e-05
2.35497e-05
-3.27416e-06
1.06958e-07
-7.52442e-06
-1.21709e-07
-4.13625e-06
-7.3905e-07
3.00052e-07
-1.64996e-06
6.89917e-06
-2.42738e-06
1.56026e-05
2.37615e-05
-2.63918e-06
-2.17094e-08
-7.50271e-06
-2.94683e-07
-3.86327e-06
-8.55641e-07
8.61011e-07
-1.55589e-06
7.59943e-06
-2.01349e-06
1.60602e-05
2.36905e-05
-1.94245e-06
-1.28662e-07
-7.37405e-06
-4.27452e-07
-3.56448e-06
-9.02537e-07
1.3361e-06
-1.38049e-06
8.07738e-06
-1.53236e-06
1.6212e-05
2.33623e-05
-1.20414e-06
-2.26662e-07
-7.14738e-06
-5.2701e-07
-3.26413e-06
-8.958e-07
1.70488e-06
-1.14805e-06
8.32963e-06
-1.01005e-06
1.60741e-05
2.27934e-05
-4.41186e-07
-3.14872e-07
-6.83251e-06
-6.0103e-07
-2.97798e-06
-8.51166e-07
1.95502e-06
-8.80298e-07
8.35876e-06
-4.67993e-07
1.56617e-05
2.19941e-05
3.31276e-07
-3.95465e-07
-6.43705e-06
-6.576e-07
-2.71584e-06
-7.83694e-07
2.08111e-06
-5.97098e-07
8.17216e-06
7.39254e-08
1.49907e-05
2.09697e-05
1.09833e-06
-4.70947e-07
-5.9661e-06
-7.04976e-07
-2.48181e-06
-7.07705e-07
2.08384e-06
-3.16198e-07
7.78065e-06
5.95893e-07
1.40786e-05
1.97192e-05
1.84644e-06
-5.43606e-07
-5.42249e-06
-7.51247e-07
-2.27417e-06
-6.36996e-07
1.96959e-06
-4.93994e-08
7.19306e-06
1.08611e-06
1.29431e-05
1.82439e-05
2.56142e-06
-6.15076e-07
-4.80742e-06
-8.03875e-07
-2.08537e-06
-5.85527e-07
1.75124e-06
1.7241e-07
6.43512e-06
1.52578e-06
1.15898e-05
1.65399e-05
3.2298e-06
-6.85938e-07
-4.12148e-06
-8.69489e-07
-1.90182e-06
-5.66477e-07
1.44823e-06
3.43471e-07
5.52517e-06
1.8986e-06
1.00346e-05
1.45999e-05
3.83857e-06
-7.55265e-07
-3.36621e-06
-9.53621e-07
-1.70346e-06
-5.93201e-07
1.08781e-06
4.40617e-07
4.49136e-06
2.18523e-06
8.29001e-06
1.24121e-05
4.373e-06
-8.19949e-07
-2.54627e-06
-1.06077e-06
-1.46264e-06
-6.78596e-07
7.05638e-07
4.43602e-07
3.36916e-06
2.35596e-06
6.37765e-06
9.95197e-06
4.8161e-06
-8.73407e-07
-1.67286e-06
-1.19407e-06
-1.14198e-06
-8.35878e-07
3.47448e-07
3.28636e-07
2.20464e-06
2.36552e-06
4.34078e-06
7.14953e-06
5.16796e-06
-8.95186e-07
-7.77673e-07
-1.34989e-06
-6.87283e-07
-1.08047e-06
7.80314e-08
7.54713e-08
1.0487e-06
2.19919e-06
2.21706e-06
3.86667e-06
5.48205e-06
-7.77673e-07
-1.46496e-06
-1.38692e-06
-3.38221e-07
1.87884e-06
5.74551e-06
-1.95367e-06
3.47093e-05
-5.31881e-06
3.60522e-05
-8.03496e-06
3.3123e-05
-1.04683e-05
3.00344e-05
-1.27127e-05
2.73129e-05
-1.48448e-05
2.50895e-05
-1.69107e-05
2.32882e-05
-1.89357e-05
2.17599e-05
-2.09326e-05
2.03949e-05
-2.29086e-05
1.91232e-05
-2.48672e-05
1.79027e-05
-2.68097e-05
1.6712e-05
-2.87363e-05
1.5538e-05
-3.06468e-05
1.43714e-05
-3.25402e-05
1.32052e-05
-3.44156e-05
1.20348e-05
-3.62715e-05
1.08578e-05
-3.81059e-05
9.6743e-06
-3.99163e-05
8.4858e-06
-4.16998e-05
7.29429e-06
-4.34536e-05
6.10056e-06
-4.51748e-05
4.90361e-06
-4.68602e-05
3.70511e-06
2.5922e-06
-3.80625e-06
3.58337e-05
-5.74412e-06
3.79901e-05
-7.86827e-06
3.52472e-05
-9.96177e-06
3.21279e-05
-1.19646e-05
2.93158e-05
-1.39051e-05
2.703e-05
-1.58063e-05
2.51894e-05
-1.76818e-05
2.36354e-05
-1.95388e-05
2.22519e-05
-2.13814e-05
2.09658e-05
-2.32117e-05
1.9733e-05
-2.50302e-05
1.85305e-05
-2.68365e-05
1.73444e-05
-2.863e-05
1.61649e-05
-3.04097e-05
1.49849e-05
-3.21743e-05
1.37994e-05
-3.39223e-05
1.26059e-05
-3.56517e-05
1.14037e-05
-3.73599e-05
1.0194e-05
-3.90438e-05
8.97822e-06
-4.07004e-05
7.75711e-06
-4.23265e-05
6.52971e-06
-4.39186e-05
5.29725e-06
4.16574e-06
-4.72204e-06
3.67384e-05
-5.98521e-06
3.92533e-05
-7.63001e-06
3.6892e-05
-9.38375e-06
3.38816e-05
-1.11372e-05
3.10693e-05
-1.28783e-05
2.87711e-05
-1.4607e-05
2.69181e-05
-1.63254e-05
2.53539e-05
-1.80351e-05
2.39617e-05
-1.97372e-05
2.26679e-05
-2.1432e-05
2.14278e-05
-2.31194e-05
2.02178e-05
-2.47983e-05
1.90233e-05
-2.64678e-05
1.78344e-05
-2.81267e-05
1.66438e-05
-2.97737e-05
1.54463e-05
-3.1407e-05
1.42392e-05
-3.30247e-05
1.30214e-05
-3.4624e-05
1.17933e-05
-3.62021e-05
1.05563e-05
-3.77556e-05
9.31059e-06
-3.92813e-05
8.05542e-06
-4.07764e-05
6.7924e-06
5.63541e-06
-5.11764e-06
3.74613e-05
-5.97521e-06
4.01108e-05
-7.25311e-06
3.81699e-05
-8.70204e-06
3.53306e-05
-1.02154e-05
3.25826e-05
-1.17568e-05
3.03125e-05
-1.33095e-05
2.84708e-05
-1.4866e-05
2.69104e-05
-1.6423e-05
2.55187e-05
-1.79787e-05
2.42236e-05
-1.95322e-05
2.29813e-05
-2.10823e-05
2.17679e-05
-2.26278e-05
2.05688e-05
-2.41673e-05
1.93739e-05
-2.56993e-05
1.81758e-05
-2.72225e-05
1.69695e-05
-2.87352e-05
1.57519e-05
-3.02353e-05
1.45214e-05
-3.17202e-05
1.32782e-05
-3.31868e-05
1.20229e-05
-3.4632e-05
1.07557e-05
-3.60523e-05
9.47572e-06
-3.74442e-05
8.18431e-06
6.9933e-06
-5.16971e-06
3.80313e-05
-5.74172e-06
4.06828e-05
-6.72098e-06
3.91491e-05
-7.90299e-06
3.65126e-05
-9.19152e-06
3.38712e-05
-1.05374e-05
3.16584e-05
-1.1913e-05
2.98464e-05
-1.33046e-05
2.8302e-05
-1.47048e-05
2.69188e-05
-1.61096e-05
2.56284e-05
-1.75168e-05
2.43886e-05
-1.89248e-05
2.31758e-05
-2.03316e-05
2.19756e-05
-2.17357e-05
2.0778e-05
-2.31356e-05
1.95758e-05
-2.45298e-05
1.83637e-05
-2.59166e-05
1.71386e-05
-2.72939e-05
1.58987e-05
-2.86591e-05
1.46435e-05
-3.00092e-05
1.3373e-05
-3.13405e-05
1.20871e-05
-3.26492e-05
1.07844e-05
-3.39304e-05
9.4655e-06
8.23773e-06
-4.95509e-06
3.84554e-05
-5.31539e-06
4.10431e-05
-6.03893e-06
3.98727e-05
-6.98461e-06
3.74582e-05
-8.06373e-06
3.49503e-05
-9.21957e-06
3.28142e-05
-1.04187e-05
3.10455e-05
-1.16434e-05
2.95266e-05
-1.28837e-05
2.81592e-05
-1.41341e-05
2.68788e-05
-1.53913e-05
2.56457e-05
-1.66528e-05
2.44374e-05
-1.79166e-05
2.32395e-05
-1.9181e-05
2.20424e-05
-2.04442e-05
2.0839e-05
-2.17047e-05
1.96243e-05
-2.29609e-05
1.83948e-05
-2.42107e-05
1.71485e-05
-2.54515e-05
1.58843e-05
-2.66802e-05
1.46017e-05
-2.78928e-05
1.32998e-05
-2.90851e-05
1.19767e-05
-3.02511e-05
1.06315e-05
9.36479e-06
-4.52821e-06
3.8728e-05
-4.72021e-06
4.12351e-05
-5.2188e-06
4.03713e-05
-5.95055e-06
3.819e-05
-6.8327e-06
3.58324e-05
-7.80438e-06
3.37859e-05
-8.82859e-06
3.20698e-05
-9.88556e-06
3.05836e-05
-1.09641e-05
2.92377e-05
-1.20574e-05
2.7972e-05
-1.31614e-05
2.67497e-05
-1.42732e-05
2.55492e-05
-1.53905e-05
2.43568e-05
-1.65113e-05
2.31632e-05
-1.76339e-05
2.19616e-05
-1.87567e-05
2.07471e-05
-1.98781e-05
1.95162e-05
-2.09961e-05
1.82665e-05
-2.21081e-05
1.69963e-05
-2.3211e-05
1.57046e-05
-2.43009e-05
1.43896e-05
-2.53729e-05
1.30487e-05
-2.64199e-05
1.16785e-05
1.03706e-05
-3.92946e-06
3.88344e-05
-3.97819e-06
4.12838e-05
-4.27777e-06
4.06709e-05
-4.80845e-06
3.87207e-05
-5.50197e-06
3.6526e-05
-6.29433e-06
3.45783e-05
-7.14574e-06
3.29212e-05
-8.03522e-06
3.14731e-05
-8.95085e-06
3.01533e-05
-9.88526e-06
2.89065e-05
-1.08339e-05
2.76983e-05
-1.17934e-05
2.65087e-05
-1.27613e-05
2.53247e-05
-1.37355e-05
2.41373e-05
-1.47142e-05
2.29403e-05
-1.56958e-05
2.17287e-05
-1.66787e-05
2.04991e-05
-1.7661e-05
1.92488e-05
-1.86403e-05
1.79757e-05
-1.96136e-05
1.66779e-05
-2.05769e-05
1.5353e-05
-2.15252e-05
1.39969e-05
-2.24504e-05
1.26037e-05
1.12514e-05
-3.20316e-06
3.87634e-05
-3.10872e-06
4.11894e-05
-3.2246e-06
4.07867e-05
-3.56656e-06
3.90626e-05
-4.07769e-06
3.70371e-05
-4.69412e-06
3.51947e-05
-5.37469e-06
3.36017e-05
-6.09735e-06
3.21958e-05
-6.84972e-06
3.09057e-05
-7.62423e-06
2.9681e-05
-8.41602e-06
2.84901e-05
-9.22156e-06
2.73143e-05
-1.00381e-05
2.61412e-05
-1.08634e-05
2.49627e-05
-1.16957e-05
2.37725e-05
-1.25332e-05
2.25663e-05
-1.33744e-05
2.13403e-05
-1.42176e-05
2.00919e-05
-1.50604e-05
1.88185e-05
-1.59003e-05
1.75177e-05
-1.67335e-05
1.61862e-05
-1.75552e-05
1.48186e-05
-1.83558e-05
1.34044e-05
1.20038e-05
-2.38012e-06
3.85044e-05
-2.13218e-06
4.09415e-05
-2.07354e-06
4.07281e-05
-2.23436e-06
3.92235e-05
-2.56756e-06
3.73703e-05
-3.01044e-06
3.56376e-05
-3.5216e-06
3.41129e-05
-4.07817e-06
3.27523e-05
-4.66739e-06
3.14949e-05
-5.28161e-06
3.02952e-05
-5.91586e-06
2.91244e-05
-6.56646e-06
2.79649e-05
-7.23052e-06
2.68053e-05
-7.90569e-06
2.56378e-05
-8.58998e-06
2.44568e-05
-9.28162e-06
2.32579e-05
-9.97889e-06
2.20376e-05
-1.068e-05
2.0793e-05
-1.1383e-05
1.95215e-05
-1.20854e-05
1.82201e-05
-1.27846e-05
1.68854e-05
-1.34765e-05
1.55105e-05
-1.41505e-05
1.40784e-05
1.26235e-05
-1.48357e-06
3.80455e-05
-1.06911e-06
4.0527e-05
-8.38608e-07
4.04976e-05
-8.22299e-07
3.92071e-05
-9.80351e-07
3.75283e-05
-1.2513e-06
3.59085e-05
-1.59398e-06
3.44556e-05
-1.98497e-06
3.31433e-05
-2.41134e-06
3.19213e-05
-2.86536e-06
3.07492e-05
-3.34202e-06
2.9601e-05
-3.8376e-06
2.84604e-05
-4.34913e-06
2.73168e-05
-4.87415e-06
2.61629e-05
-5.41048e-06
2.49931e-05
-5.95608e-06
2.38035e-05
-6.50892e-06
2.25904e-05
-7.06687e-06
2.1351e-05
-7.6276e-06
2.00822e-05
-8.18864e-06
1.87811e-05
-8.7483e-06
1.74451e-05
-9.30584e-06
1.6068e-05
-9.85203e-06
1.46245e-05
1.31039e-05
-5.3276e-07
3.73741e-05
6.21402e-08
3.99321e-05
4.66464e-07
4.00932e-05
6.58425e-07
3.90152e-05
6.74134e-07
3.75126e-05
5.7429e-07
3.60084e-05
3.99654e-07
3.46302e-05
1.7395e-07
3.3369e-05
-8.97728e-08
3.2185e-05
-3.83907e-07
3.10434e-05
-7.03432e-07
2.99206e-05
-1.04469e-06
2.88017e-05
-1.40477e-06
2.76769e-05
-1.78121e-06
2.65393e-05
-2.1717e-06
2.53836e-05
-2.57395e-06
2.42057e-05
-2.98543e-06
2.30019e-05
-3.40326e-06
2.17688e-05
-3.82399e-06
2.05029e-05
-4.243e-06
1.92001e-05
-4.65625e-06
1.78583e-05
-5.06705e-06
1.64788e-05
-5.49155e-06
1.50491e-05
1.34334e-05
4.55541e-07
3.64774e-05
1.24112e-06
3.91465e-05
1.82517e-06
3.95092e-05
2.19666e-06
3.86437e-05
2.38578e-06
3.73235e-05
2.45711e-06
3.59371e-05
2.45062e-06
3.46367e-05
2.39014e-06
3.34295e-05
2.28879e-06
3.22864e-05
2.15416e-06
3.1178e-05
1.99109e-06
3.00836e-05
1.80298e-06
2.89898e-05
1.59242e-06
2.78875e-05
1.36164e-06
2.67701e-05
1.11267e-06
2.56326e-05
8.47683e-07
2.44707e-05
5.69289e-07
2.32803e-05
2.80907e-07
2.20572e-05
-1.28022e-08
2.07966e-05
-3.0577e-07
1.94931e-05
-5.84859e-07
1.81374e-05
-8.21752e-07
1.67157e-05
-9.94561e-07
1.52219e-05
1.37493e-05
1.46595e-06
3.53427e-05
2.45404e-06
3.81585e-05
3.22463e-06
3.87386e-05
3.77812e-06