/*--------------------------------*- C++ -*----------------------------------*\
  =========                 |
  \\      /  F ield         | OpenFOAM: The Open Source CFD Toolbox
   \\    /   O peration     | Website:  https://openfoam.org
    \\  /    A nd           | Version:  11
     \\/     M anipulation  |
\*---------------------------------------------------------------------------*/
FoamFile
{
    format      ascii;
    class       surfaceVectorField;
    location    "1.86";
    object      Uf;
}
// * * * * * * * * * * * * * * * * * * * * * * * * * * * * * * * * * * * * * //

dimensions      [0 1 -1 0 0 0 0];

internalField   nonuniform List<vector> 
5640
(
(-0.0122528 -0.0597165 3.39357e-20)
(-0.0116984 -0.0552894 1.30325e-18)
(-0.0289025 -0.0548916 -6.13751e-20)
(-0.0220008 -0.0546922 7.78956e-19)
(-0.0614919 -0.0280848 -1.02277e-18)
(-0.0456123 -0.0368894 -6.57553e-19)
(-0.0923767 0.0345532 -1.35803e-18)
(-0.0930527 0.0131363 -5.02769e-19)
(-0.176394 0.231272 -8.29762e-19)
(-0.0931566 0.0937288 -6.9885e-19)
(-0.274181 0.433271 -4.28613e-19)
(-0.161086 0.74672 -6.83294e-20)
(-0.0181411 -0.0528219 2.08157e-18)
(-0.0158447 -0.0552187 1.29767e-18)
(-0.0372095 -0.0340813 2.51193e-19)
(-0.0288661 -0.0388865 9.26372e-20)
(-0.066215 0.00164791 -1.52844e-19)
(-0.0502117 -0.0125348 -6.8366e-19)
(-0.0951245 0.0830968 1.23873e-19)
(-0.0852476 0.0452055 5.35417e-19)
(-0.103953 0.235124 -4.49381e-19)
(-0.0804099 0.152215 2.34708e-19)
(-0.105011 0.378309 8.30966e-20)
(-0.0247059 0.564336 -3.85001e-19)
(-0.024069 -0.0438122 -6.20306e-19)
(-0.0222123 -0.0506681 -1.04546e-18)
(-0.040827 -0.0173906 -8.08087e-19)
(-0.0327424 -0.0261879 -8.05316e-19)
(-0.0624187 0.0251951 -3.65844e-20)
(-0.0498362 0.00495932 6.03118e-20)
(-0.0753129 0.112728 6.66008e-19)
(-0.071812 0.0657201 -5.23759e-20)
(-0.0519406 0.25389 7.51153e-19)
(-0.0564596 0.17452 6.80127e-19)
(-0.0227137 0.348687 8.30966e-20)
(0.0518134 0.480674 5.43039e-19)
(-0.0291365 -0.0354306 -1.2428e-18)
(-0.028173 -0.0449717 -1.08354e-18)
(-0.0412266 -0.00488654 2.61642e-20)
(-0.0345401 -0.0165605 -1.21132e-19)
(-0.0548082 0.0406814 5.12852e-20)
(-0.0464787 0.0169603 5.91515e-19)
(-0.0545909 0.125381 -5.96616e-20)
(-0.0562628 0.0769918 -4.91016e-21)
(-0.0140221 0.250778 -6.1285e-21)
(-0.0303273 0.177977 -3.70294e-19)
(0.0282085 0.316934 0)
(0.0935941 0.41724 -2.2899e-19)
(-0.0321263 -0.0286816 -1.64281e-20)
(-0.0323098 -0.0397947 -1.07618e-18)
(-0.039562 0.00389796 4.14144e-19)
(-0.0346739 -0.00970852 -5.82196e-20)
(-0.0451801 0.0493868 5.58427e-19)
(-0.0412281 0.0241825 5.73932e-20)
(-0.0335909 0.127094 -3.0664e-19)
(-0.0401913 0.0805418 9.19072e-20)
(0.0176522 0.234394 -3.73895e-19)
(-0.00518861 0.169432 -7.05961e-19)
(0.0649109 0.280182 1.96835e-19)
(0.122921 0.360018 -3.15398e-19)
(-0.0333036 -0.0235548 -1.17613e-18)
(-0.0339519 -0.0357156 -1.11063e-18)
(-0.0363556 0.00917233 -4.19965e-19)
(-0.0333332 -0.00541746 0)
(-0.034594 0.0522489 -4.10509e-19)
(-0.0346794 0.0272037 -4.3863e-19)
(-0.0135022 0.120602 -2.86036e-19)
(-0.0244033 0.0777292 2.162e-21)
(0.0444623 0.209474 -1.56874e-19)
(0.0178298 0.152781 -1.21328e-20)
(0.0933531 0.239495 -1.14245e-19)
(0.146128 0.304423 4.62139e-19)
(-0.0324941 -0.0201773 1.45854e-21)
(-0.0331418 -0.0327656 -1.43572e-20)
(-0.0319068 0.0113185 0)
(-0.0306559 -0.00332357 -5.42701e-19)
(-0.0236391 0.0502433 -4.08511e-20)
(-0.0272585 0.0266579 4.23302e-19)
(0.00513779 0.107985 2.76695e-19)
(-0.00934987 0.0698402 -3.92933e-19)
(0.0673304 0.179284 3.31221e-20)
(0.0384408 0.130597 4.77996e-20)
(0.116464 0.196809 -3.11231e-19)
(0.164441 0.250625 -5.79363e-20)
(-0.0299291 -0.0182948 -5.28044e-19)
(-0.0302934 -0.0307506 1.09288e-18)
(-0.0264716 0.0108633 -1.60505e-19)
(-0.0268435 -0.0029915 -1.21439e-20)
(-0.0127136 0.0443516 9.91161e-20)
(-0.0193314 0.0232279 1.06e-20)
(0.0221118 0.0908831 -6.33806e-19)
(0.00468332 0.0580528 -7.62498e-21)
(0.0870966 0.145799 -2.87947e-19)
(0.0566257 0.104622 -4.78113e-21)
(0.135612 0.153058 1.2135e-19)
(0.180358 0.19788 -2.61657e-19)
(-0.0259924 -0.0175694 1.67249e-18)
(-0.0259596 -0.029435 1.65109e-18)
(-0.0203389 0.00838091 1.57933e-19)
(-0.0221647 -0.00397423 5.30517e-19)
(-0.00212986 0.0354938 -9.53647e-20)
(-0.011237 0.0175958 -4.12722e-19)
(0.037318 0.0705903 6.21536e-19)
(0.017487 0.0434166 3.43112e-19)
(0.104114 0.110315 4.01628e-19)
(0.0724533 0.0761538 2.76558e-19)
(0.151647 0.108858 7.81968e-22)
(0.194365 0.146267 1.41516e-19)
(-0.0211148 -0.0176793 5.73761e-19)
(-0.0206891 -0.0286195 7.60601e-22)
(-0.0138189 0.00442855 0)
(-0.0169238 -0.00585776 0)
(0.00781782 0.02451 0)
(-0.00328189 0.0104125 -1.86887e-19)
(0.0507016 0.0481431 0)
(0.0288911 0.0268341 1.55397e-19)
(0.118677 0.073693 -1.17717e-19)
(0.0859962 0.0461589 -1.67229e-19)
(0.165121 0.0646419 -9.00872e-20)
(0.206664 0.0957691 -1.40651e-19)
(-0.0157045 -0.0183548 -5.72999e-19)
(-0.0149527 -0.0281595 -5.41744e-19)
(-0.00721415 -0.000494961 -1.78935e-19)
(-0.0114238 -0.00828532 0)
(0.0169897 0.0121117 -4.30536e-20)
(0.00426696 0.00223987 1.03722e-19)
(0.0622286 0.0243757 -2.78631e-21)
(0.0387673 0.00910476 -2.85145e-20)
(0.130996 0.0365415 -1.41692e-19)
(0.0973135 0.0153684 5.05471e-20)
(0.176365 0.0206663 -2.91383e-20)
(0.217483 0.0462532 3.55933e-20)
(-0.010107 -0.0193862 0)
(-0.00912014 -0.0279585 6.6298e-20)
(-0.000765957 -0.00595927 2.78234e-19)
(-0.00593282 -0.0109717 0)
(0.0251165 -0.00103692 1.22755e-19)
(0.0112145 -0.00638988 1.97518e-19)
(0.071857 -2.90853e-05 2.2727e-20)
(0.0470179 -0.0091043 -1.64609e-19)
(0.141195 -0.000705451 1.64778e-19)
(0.106442 -0.0156487 1.34146e-19)
(0.185545 -0.022931 7.50079e-21)
(0.226946 -0.00245443 -6.95739e-20)
(-0.00459619 -0.020608 7.01229e-20)
(-0.00346014 -0.0279528 -2.0805e-21)
(0.00522689 -0.0115829 -8.91221e-20)
(-0.000657588 -0.0136719 0)
(0.0321058 -0.0143864 -7.75709e-20)
(0.0174364 -0.0150367 -9.3083e-20)
(0.0795589 -0.0245063 -6.14448e-20)
(0.0535901 -0.0271888 4.29286e-22)
(0.149331 -0.037737 -2.00988e-20)
(0.113402 -0.046414 -6.73779e-20)
(0.192699 -0.0660758 6.71566e-20)
(0.235096 -0.0505695 6.55879e-20)
(0.000639481 -0.0218953 -7.23345e-20)
(0.00184239 -0.0281009 -7.05299e-20)
(0.010723 -0.0170666 0)
(0.00426116 -0.0162205 0)
(0.0379048 -0.0274333 -1.82415e-20)
(0.0228957 -0.0232826 -8.8876e-20)
(0.0853217 -0.0485432 -3.60729e-21)
(0.0584697 -0.0445798 -2.38514e-20)
(0.155404 -0.0742877 1.66521e-20)
(0.118203 -0.0764761 7.96508e-21)
(0.197745 -0.108704 7.64091e-21)
(0.241893 -0.0983366 0)
(0.00551947 -0.0231546 -2.26444e-21)
(0.00665916 -0.0283845 -2.14092e-21)
(0.0156348 -0.0221412 -8.50941e-20)
(0.00875286 -0.0184849 2.60897e-19)
(0.0425239 -0.0396967 -9.66512e-20)
(0.0276421 -0.0307474 -1.85559e-19)
(0.0891436 -0.0716321 -1.3176e-20)
(0.0616806 -0.0607087 1.35825e-19)
(0.159372 -0.110076 -1.16379e-21)
(0.120862 -0.105352 9.12014e-21)
(0.200475 -0.150711 7.64091e-21)
(0.247227 -0.146014 7.4867e-20)
(0.00990895 -0.0243252 2.45845e-19)
(0.0108869 -0.0287886 5.24764e-19)
(0.0199814 -0.0265783 1.79434e-19)
(0.0128097 -0.0203919 1.65665e-21)
(0.0460442 -0.0506998 3.60961e-20)
(0.031815 -0.0370692 1.0291e-19)
(0.0910474 -0.0932334 1.61942e-19)
(0.0632912 -0.0749785 -3.95236e-21)
(0.161153 -0.14475 1.78349e-20)
(0.121429 -0.13246 -3.45315e-20)
(0.200519 -0.191878 3.11547e-20)
(0.250891 -0.19388 -8.25139e-20)
(0.0137916 -0.0253733 3.10718e-19)
(0.0144148 -0.0293276 -3.74793e-20)
(0.023855 -0.030185 -7.91874e-20)
(0.0164769 -0.0219154 -2.5926e-19)
(0.0486221 -0.0599484 6.65108e-20)
(0.0356425 -0.0418994 1.99599e-19)
(0.0910972 -0.112727 -1.99646e-19)
(0.0634234 -0.0867418 -1.4472e-19)
(0.160628 -0.177796 -2.40514e-20)
(0.12003 -0.157042 -5.19488e-20)
(0.197274 -0.231782 3.11547e-20)
(0.252551 -0.242212 -9.17762e-20)
(0.0171333 -0.02631 -5.94759e-19)
(0.0170946 -0.0300547 -5.62317e-19)
(0.0274121 -0.032807 0)
(0.0198416 -0.0230935 0)
(0.0504934 -0.0669193 0)
(0.0394408 -0.044908 4.36712e-19)
(0.0894324 -0.129374 0)
(0.0622554 -0.0953003 0)
(0.157641 -0.208413 0)
(0.116962 -0.178056 0)
(0.189795 -0.269666 2.55527e-19)
(0.251677 -0.291259 1.29638e-19)
(0.0198866 -0.0272137 0)
(0.0187256 -0.0310776 0)
(0.0308669 -0.034349 4.18128e-19)
(0.0230187 -0.0240511 -3.81961e-20)
(0.0519783 -0.0710699 4.51465e-19)
(0.0436184 -0.045799 -4.65483e-19)
(0.086297 -0.142271 0)
(0.0600176 -0.0999321 -3.82658e-19)
(0.152057 -0.235339 2.49402e-19)
(0.112872 -0.194047 0)
(0.176563 -0.304244 -2.80745e-19)
(0.247467 -0.34123 1.47053e-19)
(0.0219797 -0.0282553 -3.59925e-20)
(0.0190925 -0.0325511 -3.54773e-20)
(0.0344848 -0.034803 -9.03331e-19)
(0.0261375 -0.0250298 6.45733e-19)
(0.0535075 -0.0718807 -1.30244e-18)
(0.0486821 -0.0443397 -3.97583e-19)
(0.082113 -0.15023 -3.93387e-19)
(0.0570561 -0.0999593 -3.85778e-19)
(0.143531 -0.256885 -5.21645e-19)
(0.108925 -0.202813 0)
(0.15489 -0.333998 -5.42334e-19)
(0.239252 -0.392334 -5.00255e-19)
(0.0233273 -0.0296888 6.06779e-19)
(0.0181632 -0.0345662 -1.73726e-20)
(0.0385691 -0.0342585 1.19629e-18)
(0.0293205 -0.0264228 -4.74993e-20)
(0.0556783 -0.0689588 5.19293e-19)
(0.0552301 -0.0404101 5.04733e-19)
(0.0785608 -0.150857 -2.65218e-21)
(0.0543398 -0.0952103 4.48955e-19)
(0.128299 -0.272331 -5.90723e-21)
(0.105902 -0.199132 -4.51104e-19)
(0.12106 -0.362375 7.22904e-19)
(0.231633 -0.442674 2.04576e-19)
(0.0239002 -0.0316926 -6.7027e-19)
(0.016334 -0.036934 -3.83667e-20)
(0.0434119 -0.0328592 -7.62761e-19)
(0.0325989 -0.0288274 -7.06024e-19)
(0.059223 -0.0620451 4.36719e-19)
(0.0639818 -0.034027 -6.2306e-19)
(0.0757362 -0.142733 2.62056e-20)
(0.0532444 -0.0853003 -5.57355e-20)
(0.11323 -0.273806 2.08165e-19)
(0.108715 -0.179386 5.68982e-20)
(0.0534708 -0.382789 2.73691e-19)
(0.200919 -0.504382 6.19018e-19)
(0.0238838 -0.0342643 -3.54931e-20)
(0.0149499 -0.0386664 -9.54971e-20)
(0.0491319 -0.0309289 -5.69852e-19)
(0.0352293 -0.0334614 5.35412e-20)
(0.0655365 -0.0509657 -1.13468e-18)
(0.0749169 -0.026243 -2.41628e-20)
(0.0789885 -0.121133 -3.46726e-20)
(0.0566987 -0.0715861 -5.21864e-19)
(0.083885 -0.261104 1.36607e-19)
(0.121176 -0.129111 4.40504e-19)
(-0.10506 -0.419635 8.2502e-20)
(0.140257 -0.580891 -5.23923e-19)
(0.0240589 -0.0379842 -1.45489e-20)
(0.0552812 -0.0315249 6.03908e-19)
(0.0779394 -0.041138 6.08541e-19)
(0.0969942 -0.0958397 -5.0223e-20)
(0.0199652 -0.26279 3.39937e-19)
(0.0138521 -0.727254 5.84067e-19)
(0.491414 0.758675 3.77215e-19)
(0.26961 0.790358 -2.71856e-19)
(0.422392 0.883863 2.44176e-19)
(0.709902 0.661281 8.39464e-20)
(0.602155 0.668254 3.37355e-19)
(0.706241 0.706724 -6.25913e-20)
(0.826538 0.573777 -2.16648e-19)
(0.749702 0.597584 -5.01425e-20)
(0.825876 0.629847 7.932e-20)
(0.893105 0.493365 -2.90647e-19)
(0.839215 0.51419 4.9163e-20)
(0.900922 0.541265 -3.1113e-20)
(0.935208 0.423572 -2.15343e-19)
(0.894278 0.440918 -3.18452e-19)
(0.945689 0.4652 5.6031e-20)
(0.964047 0.365232 -1.01627e-19)
(0.931423 0.378816 -1.0413e-19)
(0.974941 0.400405 -4.63863e-20)
(0.985466 0.317678 -2.68497e-19)
(0.9584 0.32799 1.11866e-19)
(0.9957 0.346902 1.01668e-19)
(1.00242 0.279213 -3.56882e-19)
(0.979381 0.287044 -1.78995e-19)
(1.01176 0.303512 -2.69879e-19)
(1.0162 0.247748 -7.85575e-20)
(0.996359 0.253864 -7.9659e-20)
(1.02484 0.268259 7.85574e-20)
(1.02732 0.221373 -6.25931e-20)
(1.01018 0.226396 2.01026e-21)
(1.03552 0.239098 7.3224e-20)
(1.03602 0.198599 -2.52537e-19)
(1.02126 0.202942 -6.34743e-20)
(1.044 0.21428 2.95319e-21)
(1.04247 0.178402 -7.19812e-20)
(1.02985 0.182299 -2.56312e-19)
(1.05037 0.192518 -5.83116e-21)
(1.04686 0.160108 1.20477e-19)
(1.03617 0.163731 5.54535e-20)
(1.05473 0.173003 8.73114e-21)
(1.04934 0.14325 0)
(1.04043 0.146727 1.16377e-19)
(1.0572 0.155177 5.1066e-20)
(1.05005 0.12748 0)
(1.04281 0.130911 -1.10914e-19)
(1.05791 0.138635 0)
(1.04908 0.112525 -4.61319e-20)
(1.04343 0.115986 5.36047e-20)
(1.05695 0.123063 0)
(1.04651 0.098173 -1.88826e-22)
(1.04239 0.101721 1.04818e-19)
(1.05438 0.108217 4.34231e-23)
(1.04241 0.0842686 1.35115e-19)
(1.03976 0.0879491 -9.67801e-20)
(1.05025 0.0939191 4.69731e-20)
(1.03685 0.0707189 1.73522e-19)
(1.03564 0.0745481 1.81434e-19)
(1.04461 0.0800273 8.84299e-20)
(1.02993 0.0574863 -1.27647e-19)
(1.03024 0.0613487 -1.85296e-19)
(1.03765 0.0663351 -7.69037e-20)
(1.02173 0.0445745 -4.57201e-20)
(1.0238 0.0481847 1.84187e-19)
(1.02961 0.0526217 1.06797e-19)
(1.01239 0.0320672 4.00977e-20)
(1.0157 0.0358759 1.68694e-19)
(1.01983 0.0397777 4.92912e-20)
(1.00334 0.0212063 -1.21993e-19)
(1.00309 0.027782 -3.2553e-19)
(1.00539 0.0316944 -4.99811e-21)
(0.990102 0.0245462 -7.23748e-24)
(0.990365 0.0290626 -1.06579e-19)
(0.424053 0.661363 -2.70719e-19)
(0.251438 0.655219 1.05383e-19)
(0.635795 0.61028 2.11381e-19)
(0.534502 0.608851 -4.47372e-20)
(0.762227 0.53661 2.23346e-19)
(0.686757 0.550224 -1.45405e-19)
(0.839017 0.462352 2.81489e-20)
(0.78429 0.476107 -5.02959e-21)
(0.889433 0.396912 -2.10496e-19)
(0.847347 0.408924 1.57463e-19)
(0.924939 0.342285 1.06356e-19)
(0.891281 0.351657 0)
(0.95168 0.297932 2.03551e-19)
(0.923783 0.304856 1.07857e-19)
(0.972864 0.262128 9.76508e-20)
(0.949184 0.267202 -3.79258e-21)
(0.990035 0.232815 0)
(0.969698 0.236651 0)
(1.00393 0.208165 1.47627e-21)
(0.986395 0.211271 8.28672e-20)
(1.01496 0.186789 -6.55442e-20)
(0.99987 0.189488 2.35721e-21)
(1.02345 0.167757 -1.31781e-19)
(1.01054 0.170226 7.17521e-20)
(1.02968 0.150465 5.08186e-20)
(1.01872 0.152842 -1.32129e-19)
(1.03386 0.134489 7.39181e-21)
(1.02468 0.136878 1.16377e-19)
(1.03616 0.119506 -5.86156e-20)
(1.02866 0.121988 -1.10914e-19)
(1.03673 0.10526 2.04166e-19)
(1.0308 0.107899 2.64853e-23)
(1.03566 0.0915531 9.72597e-21)
(1.03124 0.0943951 1.00004e-19)
(1.03305 0.0782488 -5.24915e-20)
(1.03007 0.0813252 -9.45241e-20)
(1.02901 0.0652772 -1.75272e-19)
(1.02742 0.0685904 -4.88227e-21)
(1.02364 0.0526253 1.2394e-19)
(1.02351 0.0560642 -8.18492e-20)
(1.01707 0.0403156 3.91495e-19)
(1.01863 0.043634 2.6276e-20)
(1.00944 0.0284458 -1.33598e-19)
(1.01212 0.0320314 4.08432e-19)
(1.00205 0.0182732 -2.05237e-19)
(1.00134 0.0240724 -5.13944e-19)
(0.990304 0.0204193 1.23118e-19)
(0.383196 0.583953 3.00756e-19)
(0.243462 0.557125 2.38486e-19)
(0.580645 0.55101 -3.98907e-19)
(0.487204 0.540456 -4.98832e-19)
(0.708581 0.489099 -3.77642e-19)
(0.636474 0.493798 9.53766e-20)
(0.791541 0.423319 1.21116e-19)
(0.73765 0.430371 -2.79277e-19)
(0.848305 0.364335 3.71451e-19)
(0.806207 0.371081 2.14983e-19)
(0.889351 0.314863 0)
(0.855452 0.320026 -1.43917e-19)
(0.920674 0.274642 -9.94586e-20)
(0.892517 0.278174 -1.21321e-19)
(0.945568 0.242109 -1.01954e-19)
(0.921672 0.244413 1.09648e-20)
(0.965754 0.215371 8.19451e-20)
(0.945245 0.216907 -9.96653e-20)
(0.982147 0.192766 8.46261e-20)
(0.964475 0.193927 7.98123e-20)
(0.995319 0.173054 1.39028e-19)
(0.980104 0.174075 -1.57645e-19)
(1.0057 0.155428 7.35206e-20)
(0.992666 0.156432 6.69227e-20)
(1.01365 0.139359 -6.86085e-20)
(1.00256 0.140449 -1.34326e-19)
(1.01943 0.124469 0)
(1.01011 0.125726 2.54892e-19)
(1.02326 0.110462 -5.32519e-20)
(1.01558 0.111951 -1.35956e-21)
(1.02529 0.0971053 -1.05087e-19)
(1.01916 0.0988764 -1.6855e-19)
(1.02566 0.0842187 -2.7968e-21)
(1.021 0.0863047 -1.07061e-19)
(1.02448 0.0716884 -4.72755e-20)
(1.02122 0.0741063 4.73663e-20)
(1.0219 0.0594714 8.88807e-20)
(1.01997 0.0622102 -4.8045e-20)
(1.01803 0.0475795 -1.79808e-19)
(1.0175 0.0505346 8.98167e-20)
(1.013 0.0360483 4.00266e-20)
(1.01406 0.0390135 -4.15907e-19)
(1.00697 0.0249772 8.85638e-20)
(1.00905 0.0282728 3.6001e-19)
(1.00109 0.0155968 -2.86841e-19)
(1.00007 0.0205926 -5.2821e-19)
(0.990878 0.0167014 2.20635e-19)
(0.356967 0.506415 -5.20966e-19)
(0.242296 0.473304 -6.52885e-19)
(0.53921 0.485515 -1.57449e-20)
(0.454585 0.469036 6.54363e-20)
(0.665186 0.435103 2.02142e-19)
(0.597609 0.43274 2.4007e-19)
(0.751369 0.378827 -1.95003e-19)
(0.699423 0.37998 1.48645e-19)
(0.812554 0.327397 -2.9541e-19)
(0.771316 0.329255 -3.22494e-19)
(0.857879 0.283919 -2.65552e-19)
(0.824398 0.285082 1.49617e-19)
(0.892917 0.248412 -1.19231e-20)
(0.865003 0.248679 -5.79479e-20)
(0.920909 0.219552 1.45731e-20)
(0.897189 0.219165 1.69785e-19)
(0.943671 0.195693 -1.03795e-19)
(0.923299 0.194974 -1.04e-19)
(0.962248 0.175385 -1.6002e-19)
(0.944685 0.174621 1.783e-19)
(0.977323 0.157567 -2.32124e-19)
(0.962191 0.156911 6.96806e-21)
(0.989417 0.141558 -1.39027e-19)
(0.976431 0.141089 -1.49467e-19)
(0.998938 0.12691 1.85689e-19)
(0.987861 0.126697 -6.63147e-20)
(1.0062 0.11329 2.55738e-19)
(0.996855 0.113393 3.21877e-19)
(1.01144 0.100437 -1.15252e-19)
(1.0037 0.100904 -1.35956e-21)
(1.01485 0.0881381 -1.7099e-19)
(1.0086 0.0890068 -1.14872e-19)
(1.01657 0.0762384 -5.79308e-20)
(1.01174 0.0775285 1.13672e-22)
(1.01675 0.0646505 4.76097e-20)
(1.01326 0.0663641 5.1884e-20)
(1.01553 0.0533602 -4.82169e-20)
(1.01333 0.0554734 1.53687e-19)
(1.01307 0.0423998 -1.47757e-19)
(1.01218 0.044817 -2.01508e-19)
(1.00948 0.0318088 -9.43641e-20)
(1.01007 0.0343641 -1.98379e-19)
(1.00492 0.0216754 -2.25549e-19)
(1.00645 0.0246211 9.81174e-20)
(1.00039 0.0131685 -2.06179e-19)
(0.99919 0.0173618 -1.33429e-19)
(0.991728 0.0134002 1.72942e-20)
(0.343466 0.431458 -1.01565e-19)
(0.24474 0.396936 -1.07466e-19)
(0.509331 0.418342 3.14275e-19)
(0.432751 0.398532 1.72084e-19)
(0.631142 0.377996 1.90431e-19)
(0.568386 0.370129 1.72447e-19)
(0.718408 0.331102 2.90322e-20)
(0.668998 0.327193 5.11988e-22)
(0.782376 0.287526 1.15592e-19)
(0.742588 0.28499 -8.58957e-20)
(0.830788 0.250376 3.60349e-19)
(0.798228 0.247854 2.22673e-19)
(0.86868 0.219853 1.21199e-19)
(0.841422 0.217066 6.33727e-20)
(0.899146 0.194887 5.46537e-20)
(0.875938 0.191948 5.80847e-20)
(0.924027 0.174099 1.75287e-19)
(0.904069 0.171215 -1.14575e-19)
(0.944448 0.156274 3.4732e-19)
(0.927222 0.15364 8.95664e-20)
(0.961168 0.140533 9.12794e-20)
(0.946311 0.138232 -2.0158e-21)
(0.974767 0.126321 -7.75788e-20)
(0.961995 0.124395 2.3951e-21)
(0.985693 0.113264 6.63971e-20)
(0.97477 0.111754 0)
(0.994289 0.101079 6.75439e-20)
(0.985038 0.100023 6.89882e-20)
(1.00082 0.0895361 0)
(0.993103 0.0889691 -1.27785e-19)
(1.00548 0.078451 5.54401e-20)
(0.999204 0.0783968 6.1116e-20)
(1.00844 0.0676948 1.09716e-19)
(1.00353 0.0681599 1.15304e-19)
(1.00987 0.0572096 1.57419e-19)
(1.00623 0.0581813 -5.90238e-20)
(1.00992 0.0470081 2.47084e-21)
(1.00749 0.0484517 2.67462e-19)
(1.00875 0.0371365 -2.52061e-19)
(1.00756 0.0389675 -1.54683e-19)
(1.00647 0.0276275 -2.9311e-21)
(1.00665 0.0297205 1.07087e-19)
(1.00324 0.0185471 1.91617e-19)
(1.00427 0.0210945 4.30552e-20)
(0.999889 0.0109732 5.79673e-21)
(0.998624 0.0144017 5.43046e-23)
(0.992747 0.0105043 -4.18643e-20)
(0.336012 0.360728 1.31756e-19)
(0.249774 0.326274 6.26478e-19)
(0.48831 0.351832 2.88672e-20)
(0.418651 0.329903 4.04863e-19)
(0.605194 0.319863 -1.3904e-20)
(0.547077 0.307697 -5.85685e-20)
(0.692153 0.281743 -1.12658e-19)
(0.645536 0.273541 -1.43036e-19)
(0.757633 0.245859 1.62935e-20)
(0.719667 0.239442 2.22137e-19)
(0.808113 0.215029 -7.21554e-20)
(0.776837 0.20918 -7.11647e-20)
(0.848079 0.189536 -1.05826e-22)
(0.821797 0.183945 1.40033e-19)
(0.880429 0.168539 -1.09383e-19)
(0.858011 0.163225 -1.07203e-22)
(0.906985 0.150923 -2.02556e-19)
(0.887678 0.145998 -4.87937e-21)
(0.928909 0.135706 -2.59025e-19)
(0.912223 0.131285 5.13621e-21)
(0.947004 0.122182 -9.10492e-20)
(0.9326 0.118293 -1.65615e-19)
(0.961885 0.109909 7.99961e-20)
(0.949481 0.106564 1.60559e-19)
(0.974026 0.0985858 1.90786e-21)
(0.963392 0.0958026 -1.49039e-19)
(0.983788 0.0879754 -1.24778e-19)
(0.97475 0.0857741 2.28154e-21)
(0.99145 0.0778821 -6.82838e-20)
(0.983875 0.0762827 -1.94251e-19)
(0.99723 0.0681504 1.20569e-19)
(0.991019 0.0671647 -2.07524e-21)
(1.00131 0.0586809 -5.21721e-20)
(0.996383 0.0583024 1.21181e-19)
(1.00387 0.0494452 4.8658e-20)
(1.00014 0.0496474 3.25498e-21)
(1.00507 0.0404781 1.13016e-19)
(1.00247 0.0412177 -6.0678e-21)
(1.00505 0.0318312 2.04381e-19)
(1.0036 0.0330358 -1.05688e-19)
(1.00394 0.0235234 1.5641e-19)
(1.00375 0.0251087 1.52862e-19)
(1.00187 0.0155926 -1.48231e-19)
(1.00247 0.0177156 5.16022e-20)
(0.99951 0.00899429 -4.74653e-20)
(0.998328 0.0117651 1.49232e-19)
(0.993785 0.00794731 -2.23112e-19)
(0.332892 0.293386 8.93453e-19)
(0.256323 0.259886 4.32344e-20)
(0.474142 0.286885 3.2545e-19)
(0.410356 0.263543 4.72339e-19)
(0.586125 0.261944 -1.853e-19)
(0.532281 0.246364 -3.5127e-19)
(0.671959 0.231838 1.85753e-19)
(0.628188 0.219997 2.11594e-19)
(0.738023 0.203248 1.39073e-19)
(0.702091 0.19343 -1.36297e-19)
(0.789748 0.178526 1.38083e-19)
(0.760005 0.169707 8.3282e-20)
(0.831117 0.157961 1.41832e-19)
(0.806054 0.149829 7.6812e-22)
(0.864827 0.140908 1.04235e-19)
(0.843419 0.13341 -1.22747e-19)
(0.892643 0.126498 2.02773e-19)
(0.874186 0.11967 2.16459e-19)
(0.915739 0.113962 1.00327e-19)
(0.899772 0.107854 4.98609e-20)
(0.934938 0.102751 8.25477e-20)
(0.921145 0.0973497 2.00852e-21)
(0.95087 0.0925276 -6.5607e-20)
(0.938978 0.0878194 3.95959e-20)
(0.964023 0.0830523 -1.50106e-19)
(0.953807 0.0790352 1.3606e-21)
(0.97477 0.0741328 -6.55594e-20)
(0.966059 0.0708117 -3.71008e-20)
(0.983401 0.0656078 -1.2962e-19)
(0.976065 0.0629898 -6.64659e-20)
(0.990146 0.0573526 -2.53117e-21)
(0.984086 0.0554375 -3.06838e-20)
(0.9952 0.0492975 1.77396e-19)
(0.990334 0.0480667 9.28348e-20)
(0.99874 0.0414407 -5.14448e-20)
(0.994987 0.0408558 1.16117e-19)
(1.00094 0.0338325 -2.24184e-19)
(0.998226 0.0338425 -1.4174e-19)
(1.00194 0.0265238 -1.57446e-19)
(1.00028 0.0270644 -1.64788e-19)
(1.00187 0.0195239 4.82103e-20)
(1.00132 0.0205333 -1.57009e-19)
(1.00085 0.0128618 3.48642e-19)
(1.001 0.0144411 2.82942e-19)
(0.9993 0.00719693 2.06101e-20)
(0.998243 0.00940248 2.21815e-19)
(0.994861 0.00577532 -1.54966e-19)
(0.333127 0.228932 -3.86069e-19)
(0.263783 0.197042 -3.13806e-19)
(0.465418 0.223884 -1.87207e-19)
(0.406548 0.199588 -2.05856e-19)
(0.57289 0.204943 3.48881e-20)
(0.522888 0.18658 -1.80897e-19)
(0.657174 0.182099 -1.04333e-19)
(0.616184 0.167137 2.71323e-19)
(0.723178 0.160307 -1.95083e-19)
(0.689382 0.147508 -3.21693e-19)
(0.77551 0.141376 -5.28685e-20)
(0.747463 0.129918 1.66198e-19)
(0.817731 0.125553 -2.62208e-19)
(0.794063 0.115132 -1.39248e-19)
(0.852344 0.112356 -1.44559e-20)
(0.832121 0.102867 -6.07267e-20)
(0.881047 0.101136 6.53557e-20)
(0.863606 0.092552 5.75473e-20)
(0.905004 0.0913132 -4.80545e-20)
(0.889911 0.0836297 -4.59121e-20)
(0.925041 0.08248 -4.1368e-20)
(0.912003 0.0756518 -1.90066e-22)
(0.941792 0.0743843 1.06967e-19)
(0.930541 0.0683796 -1.64958e-19)
(0.955747 0.0668445 1.14806e-19)
(0.946069 0.0616443 2.67361e-19)
(0.967287 0.0597096 -3.76564e-20)
(0.959015 0.0553048 -1.44265e-21)
(0.976708 0.0528526 3.21862e-20)
(0.969715 0.0492383 0)
(0.984249 0.0461797 6.36145e-20)
(0.978437 0.0433445 -4.743e-23)
(0.990108 0.039649 3.13868e-20)
(0.985397 0.0375639 6.26962e-20)
(0.994468 0.0332788 2.78009e-20)
(0.990779 0.0318966 -6.09777e-20)
(0.9975 0.0271253 -8.21356e-20)
(0.994762 0.0263907 1.74091e-19)
(0.999354 0.0212313 -1.63404e-19)
(0.997558 0.0210868 -3.37651e-19)
(1.00016 0.0155967 7.72009e-20)
(0.999328 0.015993 5.65455e-20)
(1.00003 0.0102508 1.56479e-19)
(0.999817 0.0112299 1.30827e-19)
(0.99923 0.00556793 9.3125e-20)
(0.998294 0.00719957 -1.82753e-22)
(0.995997 0.0039786 4.49133e-20)
(0.33585 0.167118 -1.35855e-19)
(0.271745 0.137081 0)
(0.46109 0.162944 -2.00681e-19)
(0.406259 0.137937 -1.73685e-19)
(0.564629 0.149216 4.69167e-20)
(0.518024 0.128494 -2.77421e-20)
(0.647207 0.132954 6.40453e-20)
(0.608874 0.115264 5.459e-20)
(0.712728 0.117459 3.23052e-20)
(0.681103 0.102024 4.47102e-20)
(0.76519 0.103971 8.40707e-20)
(0.738943 0.0901611 -2.0309e-21)
(0.807819 0.092666 6.12206e-20)
(0.785678 0.0801884 3.54013e-20)
(0.842949 0.083206 9.96829e-21)
(0.824047 0.0719083 6.20172e-20)
(0.872206 0.0751281 -5.26482e-20)
(0.855919 0.0649351 -5.41351e-20)
(0.896735 0.0680215 1.46272e-21)
(0.88265 0.0588787 -4.96882e-20)
(0.917355 0.0615994 -1.22064e-19)
(0.905198 0.0534388 4.5764e-20)
(0.934693 0.0556838 -8.6508e-21)
(0.924206 0.0484584 -1.23274e-19)
(0.94924 0.0501425 1.53542e-19)
(0.940214 0.0438187 3.89838e-20)
(0.961376 0.0448637 3.62196e-20)
(0.95365 0.0394191 3.592e-20)
(0.971403 0.0397538 -3.22525e-20)
(0.964854 0.0351722 -6.90902e-20)
(0.979561 0.0347491 -1.48112e-21)
(0.974094 0.0310091 3.43301e-20)
(0.986052 0.0298308 -2.87356e-20)
(0.981591 0.0268956 6.30954e-20)
(0.991059 0.0250284 8.36979e-20)
(0.987527 0.0228462 -6.14008e-20)
(0.994753 0.0203944 -7.81712e-20)
(0.99208 0.0189089 1.75617e-19)
(0.997286 0.0159593 -1.18379e-19)
(0.995444 0.0151181 -2.84106e-19)
(0.99879 0.0117176 1.10593e-19)
(0.997773 0.0114736 2.20264e-19)
(0.999395 0.0077005 -2.50825e-20)
(0.998919 0.00803811 -1.60341e-19)
(0.999261 0.00407259 -4.85795e-20)
(0.998426 0.00506899 -2.55792e-20)
(0.997139 0.00257293 -2.29854e-20)
(0.340415 0.107599 -3.36662e-20)
(0.279941 0.0793635 0)
(0.460371 0.103974 -3.40301e-21)
(0.408796 0.0783204 -1.40605e-19)
(0.560661 0.0948768 -2.15755e-20)
(0.51703 0.0720515 6.43569e-20)
(0.641561 0.0846336 3.55072e-20)
(0.605739 0.0644952 -2.04399e-22)
(0.706341 0.0749827 1.0989e-20)
(0.676888 0.0571851 -2.52425e-21)
(0.758584 0.0666024 -5.13888e-20)
(0.734207 0.0506856 -8.48943e-20)
(0.801266 0.0595936 3.5856e-20)
(0.780754 0.0452649 -7.22898e-20)
(0.836586 0.05374 -6.99798e-22)
(0.819117 0.0408045 8.08137e-22)
(0.866104 0.0487408 -5.12142e-20)
(0.851087 0.0370801 -7.08244e-22)
(0.890938 0.0443309 -6.38251e-21)
(0.877982 0.0338471 -2.59299e-20)
(0.911897 0.0403307 4.62132e-20)
(0.900737 0.0309379 -4.5072e-20)
(0.929598 0.0366235 -7.72157e-20)
(0.919983 0.0282607 6.39246e-20)
(0.944526 0.0331207 -7.86224e-20)
(0.936255 0.0257405 -3.8828e-20)
(0.957061 0.029747 -6.8514e-20)
(0.94998 0.0233146 0)
(0.967505 0.0264417 -3.42036e-21)
(0.961494 0.0209294 -6.90902e-20)
(0.976099 0.023168 9.86886e-20)
(0.971069 0.0185461 6.68409e-20)
(0.983045 0.0199244 3.14385e-20)
(0.978923 0.0161519 1.27904e-19)
(0.988524 0.0167424 2.8886e-20)
(0.985238 0.0137675 -6.28219e-20)
(0.992706 0.0136628 -2.75052e-20)
(0.990185 0.0114327 -3.62514e-22)
(0.995742 0.0107019 5.20959e-20)
(0.993946 0.00917119 -1.15258e-19)
(0.997767 0.00784856 -4.87e-20)
(0.996669 0.00697724 1.66613e-19)
(0.998906 0.00513082 -1.61648e-19)
(0.998304 0.00487831 -1.47341e-19)
(0.999308 0.00268157 0)
(0.998605 0.00302456 -5.22486e-20)
(0.998162 0.00146572 4.6905e-20)
(0.346393 0.0499441 -1.03568e-19)
(0.288206 0.0232968 0)
(0.462702 0.046737 -7.63482e-20)
(0.413699 0.0203708 -3.46253e-20)
(0.560481 0.0418851 8.69285e-20)
(0.519441 0.0170714 9.49713e-20)
(0.639846 0.0372341 -3.81701e-20)
(0.606397 0.0148242 -5.50285e-20)
(0.703746 0.0330561 -9.72293e-20)
(0.676452 0.0131 -9.57742e-20)
(0.755515 0.029496 -1.06165e-19)
(0.73306 0.0116712 0)
(0.797963 0.0265811 -1.08103e-19)
(0.779165 0.0105822 -1.07664e-19)
(0.833192 0.0242066 8.17774e-22)
(0.817255 0.00979195 3.31079e-20)
(0.86271 0.0222149 2.49254e-20)
(0.849065 0.00922207 1.2044e-21)
(0.887604 0.0204705 -6.44211e-20)
(0.87588 0.00876493 9.91267e-22)
(0.908668 0.0188848 -2.848e-20)
(0.898607 0.00836473 -9.01283e-20)
(0.926511 0.0173935 1.03269e-19)
(0.917867 0.00798341 6.42585e-20)
(0.941612 0.0159471 3.94583e-20)
(0.934193 0.00758602 3.91149e-20)
(0.954349 0.0145053 0)
(0.948004 0.00714555 0)
(0.96502 0.0130387 0)
(0.959636 0.00664187 0)
(0.973867 0.0115343 9.56027e-20)
(0.969357 0.00606399 0)
(0.981089 0.0100013 3.51259e-20)
(0.977386 0.0054158 8.0155e-20)
(0.986866 0.00846677 -9.24995e-20)
(0.983901 0.00471771 -7.79977e-20)
(0.991365 0.00695766 -8.74332e-20)
(0.989069 0.00399649 -2.98748e-20)
(0.994735 0.00548086 -2.37101e-21)
(0.993059 0.00326568 -5.77443e-20)
(0.997111 0.00402706 6.95625e-20)
(0.996018 0.00251772 5.59246e-20)
(0.998615 0.00262389 -3.84828e-20)
(0.997969 0.00176105 -1.35391e-20)
(0.999373 0.00137671 -8.32263e-21)
(0.998806 0.00109889 3.89275e-20)
(0.998978 0.000587003 -3.50926e-20)
(0.353522 -0.00631944 6.97299e-20)
(0.29644 -0.0316968 -1.50303e-20)
(0.467718 -0.00908962 1.34326e-19)
(0.420704 -0.0363399 8.05925e-20)
(0.563741 -0.00989819 -4.41621e-20)
(0.52497 -0.0367037 -4.00584e-23)
(0.641783 -0.00923455 -1.11916e-19)
(0.610598 -0.0338265 -4.13398e-20)
(0.704738 -0.00820861 0)
(0.6796 -0.0301809 0)
(0.755841 -0.00717177 0)
(0.735362 -0.0267452 0)
(0.797817 -0.00615971 3.1877e-20)
(0.780814 -0.0236706 0)
(0.832708 -0.00517079 3.39012e-20)
(0.818395 -0.0209153 1.61481e-20)
(0.861986 -0.00422547 -2.27652e-20)
(0.849809 -0.0184172 -2.00052e-20)
(0.886706 -0.00334317 -2.38076e-20)
(0.876311 -0.0161488 -1.18882e-20)
(0.90765 -0.00253638 1.02472e-21)
(0.898782 -0.0140739 -1.08989e-20)
(0.92542 -0.00182309 3.38069e-22)
(0.91784 -0.0121834 3.34965e-22)
(0.940488 -0.00121565 0)
(0.934009 -0.0104739 0)
(0.953229 -0.000720248 0)
(0.947706 -0.00893728 0)
(0.963937 -0.000336799 0)
(0.959261 -0.00756133 0)
(0.972851 -5.78809e-05 -1.60554e-20)
(0.968942 -0.00633114 0)
(0.980168 0.000131186 -3.17811e-20)
(0.97696 -0.00523046 8.07626e-24)
(0.986066 0.000248623 -1.57073e-20)
(0.983494 -0.00424414 7.67066e-24)
(0.990709 0.000308631 0)
(0.988705 -0.00336114 0)
(0.994248 0.000314787 0)
(0.992756 -0.00257549 0)
(0.99681 0.000264959 -2.67508e-20)
(0.995792 -0.00188429 0)
(0.998502 0.000181986 6.31547e-20)
(0.997886 -0.00127704 -1.34065e-20)
(0.999454 0.000140843 1.13093e-20)
(0.999035 -0.000719679 7.80984e-20)
(0.999551 -0.000144358 -9.37319e-20)
(0.361673 -0.0616929 -6.69315e-21)
(0.304593 -0.0862078 -1.50303e-20)
(0.475229 -0.0638773 -5.20688e-20)
(0.429712 -0.0922739 9.1499e-21)
(0.570245 -0.0606651 3.55037e-21)
(0.533489 -0.0895684 -6.27239e-20)
(0.647206 -0.0548088 6.98676e-20)
(0.618221 -0.0815689 5.50235e-20)
(0.709185 -0.0487351 0)
(0.68623 -0.0726333 0)
(0.759465 -0.0432508 0)
(0.74103 -0.0644457 0)
(0.800759 -0.0384364 -1.59288e-20)
(0.785635 -0.0573185 0)
(0.835085 -0.0341794 -3.72998e-20)
(0.822487 -0.0511123 -1.61361e-20)
(0.863891 -0.0303638 -9.25936e-21)
(0.853275 -0.0456209 -1.51281e-20)
(0.888211 -0.0269012 9.86909e-22)
(0.879235 -0.0406815 1.31147e-20)
(0.908816 -0.0237378 -1.1722e-20)
(0.901228 -0.0361772 -1.1608e-20)
(0.926301 -0.0208483 0)
(0.919869 -0.0320544 0)
(0.941133 -0.0182085 0)
(0.935676 -0.0282717 0)
(0.95368 -0.015791 0)
(0.94906 -0.024786 -1.1381e-21)
(0.964233 -0.0135676 0)
(0.960347 -0.0215534 1.09854e-21)