/*--------------------------------*- C++ -*----------------------------------*\
  =========                 |
  \\      /  F ield         | OpenFOAM: The Open Source CFD Toolbox
   \\    /   O peration     | Website:  https://openfoam.org
    \\  /    A nd           | Version:  11
     \\/     M anipulation  |
\*---------------------------------------------------------------------------*/
FoamFile
{
    format      ascii;
    class       surfaceScalarField;
    location    "1.46";
    object      meshPhi;
}
// * * * * * * * * * * * * * * * * * * * * * * * * * * * * * * * * * * * * * //

dimensions      [0 3 -1 0 0 0 0];

internalField   nonuniform List<scalar> 
5640
(
1.36917e-16
9.81747e-07
2.42021e-16
1.37445e-06
3.76885e-16
1.76715e-06
-1.33943e-15
2.15984e-06
-3.6817e-15
2.55254e-06
2.94524e-06
5.951e-15
1.7999e-18
9.81747e-07
-3.88839e-16
1.37445e-06
-2.60424e-15
1.76715e-06
1.94342e-15
2.15984e-06
8.06604e-15
2.55254e-06
2.94524e-06
-9.03002e-15
-1.16487e-16
9.81747e-07
1.86376e-16
1.37445e-06
-1.56242e-15
1.76715e-06
-4.2127e-15
2.15984e-06
-7.49847e-15
2.55254e-06
2.94524e-06
7.72314e-16
8.69383e-17
9.81747e-07
-1.01899e-16
1.37445e-06
2.69311e-15
1.76715e-06
7.4427e-15
2.15984e-06
3.25965e-15
2.55254e-06
2.94524e-06
-2.79809e-15
-4.84087e-17
9.81747e-07
3.94688e-17
1.37445e-06
1.94215e-16
1.76715e-06
-1.80625e-15
2.15984e-06
-4.20884e-15
2.55254e-06
2.94524e-06
5.01324e-15
-1.80116e-16
9.81747e-07
4.29832e-18
1.37445e-06
-1.84789e-15
1.76715e-06
-3.88627e-15
2.15984e-06
3.15683e-15
2.55254e-06
2.94524e-06
4.97997e-16
2.53957e-16
9.81747e-07
2.55419e-16
1.37445e-06
2.06585e-15
1.76715e-06
4.50404e-15
2.15984e-06
-2.31001e-15
2.55254e-06
2.94524e-06
5.40693e-16
2.16466e-17
9.81747e-07
-3.21731e-16
1.37445e-06
-1.14895e-15
1.76715e-06
-5.28566e-15
2.15984e-06
-3.76867e-16
2.55254e-06
2.94524e-06
-5.64016e-15
-1.4343e-16
9.81747e-07
1.66387e-16
1.37445e-06
4.19108e-15
1.76715e-06
6.34932e-15
2.15984e-06
-8.05688e-16
2.55254e-06
2.94524e-06
8.39283e-16
-6.8852e-17
9.81747e-07
-9.21679e-17
1.37445e-06
-2.76939e-15
1.76715e-06
-3.68919e-16
2.15984e-06
-1.45086e-15
2.55254e-06
2.94524e-06
-1.76762e-16
1.66308e-16
9.81747e-07
-8.87911e-17
1.37445e-06
5.69596e-16
1.76715e-06
-2.10365e-15
2.15984e-06
9.6598e-15
2.55254e-06
2.94524e-06
5.29009e-15
-1.77802e-16
9.81747e-07
-2.05699e-17
1.37445e-06
-3.45503e-16
1.76715e-06
-4.17278e-15
2.15984e-06
-2.62251e-15
2.55254e-06
2.94524e-06
5.3692e-15
1.77753e-16
9.81747e-07
2.05147e-17
1.37445e-06
3.45344e-16
1.76715e-06
4.17247e-15
2.15984e-06
2.62216e-15
2.55254e-06
2.94524e-06
-5.36978e-15
-1.66371e-16
9.81747e-07
8.86323e-17
1.37445e-06
-5.69749e-16
1.76715e-06
2.10341e-15
2.15984e-06
-9.66008e-15
2.55254e-06
2.94524e-06
-5.29041e-15
6.87821e-17
9.81747e-07
9.1998e-17
1.37445e-06
2.76935e-15
1.76715e-06
3.68739e-16
2.15984e-06
1.45065e-15
2.55254e-06
2.94524e-06
1.76409e-16
1.43361e-16
9.81747e-07
-1.66421e-16
1.37445e-06
-4.19125e-15
1.76715e-06
-6.34955e-15
2.15984e-06
8.05537e-16
2.55254e-06
2.94524e-06
-8.3943e-16
-2.16942e-17
9.81747e-07
3.21645e-16
1.37445e-06
1.14879e-15
1.76715e-06
5.28556e-15
2.15984e-06
3.76665e-16
2.55254e-06
2.94524e-06
5.63961e-15
-2.54005e-16
9.81747e-07
-2.5547e-16
1.37445e-06
-2.06607e-15
1.76715e-06
-4.50419e-15
2.15984e-06
2.30985e-15
2.55254e-06
2.94524e-06
-5.41082e-16
1.80071e-16
9.81747e-07
-4.36823e-18
1.37445e-06
1.84765e-15
1.76715e-06
3.88602e-15
2.15984e-06
-3.1572e-15
2.55254e-06
2.94524e-06
-4.98359e-16
4.83588e-17
9.81747e-07
-3.9528e-17
1.37445e-06
-1.9439e-16
1.76715e-06
1.80603e-15
2.15984e-06
4.20838e-15
2.55254e-06
2.94524e-06
-5.01347e-15
-8.69755e-17
9.81747e-07
1.01946e-16
1.37445e-06
-2.6932e-15
1.76715e-06
-7.4429e-15
2.15984e-06
-3.25987e-15
2.55254e-06
2.94524e-06
2.79778e-15
1.16433e-16
9.81747e-07
-1.86426e-16
1.37445e-06
1.56229e-15
1.76715e-06
4.21239e-15
2.15984e-06
7.49813e-15
2.55254e-06
2.94524e-06
-7.72565e-16
-1.84864e-18
9.81747e-07
3.88735e-16
1.37445e-06
2.60406e-15
1.76715e-06
-1.94375e-15
2.15984e-06
-8.06656e-15
2.55254e-06
2.94524e-06
9.02986e-15
-1.36978e-16
-2.42167e-16
-3.77062e-16
1.33928e-15
3.68131e-15
-5.95142e-15
-1.1336e-14
4.53785e-06
-4.53785e-06
-4.81257e-16
5.23599e-06
-5.23599e-06
-5.35829e-15
5.93412e-06
-5.93412e-06
-1.13042e-14
6.63225e-06
-6.63225e-06
4.86785e-15
7.33038e-06
-7.33038e-06
-1.1103e-15
8.02851e-06
-8.02851e-06
-8.15862e-15
8.72664e-06
-8.72664e-06
1.30438e-14
9.42478e-06
-9.42478e-06
5.94802e-15
1.01229e-05
-1.01229e-05
-1.99688e-15
1.0821e-05
-1.0821e-05
2.43856e-14
1.15192e-05
-1.15192e-05
1.61866e-14
1.22173e-05
-1.22173e-05
-3.27877e-14
1.29154e-05
-1.29154e-05
-3.0539e-15
1.36136e-05
-1.36136e-05
-1.44445e-14
1.43117e-05
-1.43117e-05
-2.6903e-14
1.50098e-05
-1.50098e-05
7.73634e-15
1.5708e-05
-1.5708e-05
-4.44119e-15
1.64061e-05
-1.64061e-05
-1.80045e-14
1.71042e-05
-1.71042e-05
2.18202e-14
1.78024e-05
-1.78024e-05
8.21355e-15
1.85005e-05
-1.85005e-05
-6.08446e-15
1.91986e-05
-1.91986e-05
3.89185e-14
1.98967e-05
-1.98967e-05
2.05949e-05
-2.05949e-05
9.3988e-15
4.53785e-06
5.20182e-16
5.23599e-06
7.52799e-15
5.93412e-06
-4.41232e-15
6.63225e-06
3.78264e-15
7.33038e-06
1.33841e-14
8.02851e-06
-2.10962e-15
8.72664e-06
8.52798e-15
9.42478e-06
-1.0028e-14
1.01229e-05
1.8656e-15
1.0821e-05
-2.02017e-14
1.15192e-05
-7.01515e-15
1.22173e-05
7.50759e-15
1.29154e-05
2.36054e-14
1.36136e-05
-2.04506e-15
1.43117e-05
1.48305e-14
1.50098e-05
-1.38811e-14
1.5708e-05
2.3883e-15
1.64061e-05
2.04085e-14
1.71042e-05
-7.01827e-15
1.78024e-05
1.20634e-14
1.85005e-05
-2.59425e-14
1.91986e-05
1.84479e-15
1.98967e-05
2.05949e-05
-8.67607e-15
4.53785e-06
1.22919e-14
5.23599e-06
1.88267e-15
5.93412e-06
8.90172e-15
6.63225e-06
-5.10832e-15
7.33038e-06
-2.19918e-14
8.02851e-06
1.2264e-14
8.72664e-06
-5.37443e-15
9.42478e-06
4.45515e-15
1.01229e-05
-1.43072e-14
1.0821e-05
-7.32802e-15
1.15192e-05
7.03903e-15
1.22173e-05
2.39941e-14
1.29154e-05
-7.55737e-15
1.36136e-05
9.79614e-15
1.43117e-05
-1.62391e-14
1.50098e-05
4.02941e-14
1.5708e-05
1.44448e-14
1.64061e-05
-1.37083e-14
1.71042e-05
-7.89758e-15
1.78024e-05
-3.9254e-14
1.85005e-05
4.27455e-14
1.91986e-05
-8.85348e-15
1.98967e-05
2.05949e-05
5.98583e-15
4.53785e-06
2.18571e-16
5.23599e-06
-6.43598e-15
5.93412e-06
6.06371e-15
6.63225e-06
-2.09348e-15
7.33038e-06
1.61756e-14
8.02851e-06
-1.88322e-14
8.72664e-06
-2.35202e-15
9.42478e-06
9.17045e-15
1.01229e-05
-4.71262e-15
1.0821e-05
2.16256e-14
1.15192e-05
-2.96462e-14
1.22173e-05
-9.28987e-15
1.29154e-05
-1.89103e-14
1.36136e-05
4.4636e-15
1.43117e-05
3.01526e-14
1.50098e-05
-2.62194e-14
1.5708e-05
4.33104e-16
1.64061e-05
-2.11736e-14
1.71042e-05
1.8712e-14
1.78024e-05
-3.92714e-15
1.85005e-05
-2.91634e-14
1.91986e-05
1.52304e-14
1.98967e-05
2.05949e-05
6.71481e-15
4.53785e-06
-7.30708e-15
5.23599e-06
1.11003e-14
5.93412e-06
-4.24137e-15
6.63225e-06
1.51012e-14
7.33038e-06
-5.21059e-15
8.02851e-06
1.7012e-14
8.72664e-06
-3.94233e-15
9.42478e-06
-2.94675e-16
1.01229e-05
6.60824e-15
1.0821e-05
1.37038e-14
1.15192e-05
1.01828e-14
1.22173e-05
1.82153e-14
1.29154e-05
1.43662e-14
1.36136e-05
2.33393e-14
1.43117e-05
-2.5346e-14
1.50098e-05
2.90707e-14
1.5708e-05
-7.83105e-15
1.64061e-05
3.54122e-14
1.71042e-05
-4.5122e-15
1.78024e-05
4.23667e-14
1.85005e-05
-5.89444e-16
1.91986e-05
-8.7337e-15
1.98967e-05
2.05949e-05
-4.63082e-15
4.53785e-06
5.79734e-15
5.23599e-06
-1.61511e-14
5.93412e-06
-5.97465e-15
6.63225e-06
-8.55555e-15
7.33038e-06
4.22358e-15
8.02851e-06
-8.18759e-15
8.72664e-06
6.99792e-15
9.42478e-06
-2.42303e-14
1.01229e-05
-7.77023e-15
1.0821e-05
-2.27675e-14
1.15192e-05
8.34654e-15
1.22173e-05
-7.40529e-15
1.29154e-05
2.82651e-14
1.36136e-05
-4.5712e-14
1.43117e-05
-8.22502e-15
1.50098e-05
-2.82304e-14
1.5708e-05
-2.3422e-15
1.64061e-05
-6.94857e-15
1.71042e-05
2.21473e-14
1.78024e-05
-3.41181e-14
1.85005e-05
-3.74429e-15
1.91986e-05
-3.23481e-14
1.98967e-05
2.05949e-05
-8.92541e-15
4.53785e-06
-2.28895e-15
5.23599e-06
-2.22461e-15
5.93412e-06
6.61576e-15
6.63225e-06
-3.38862e-15
7.33038e-06
-3.90764e-15
8.02851e-06
-6.41917e-15
8.72664e-06
-7.15933e-15
9.42478e-06
6.80925e-15
1.01229e-05
6.98264e-15
1.0821e-05
-9.06755e-15
1.15192e-05
6.75674e-15
1.22173e-05
-2.88917e-14
1.29154e-05
-1.22368e-14
1.36136e-05
4.80304e-15
1.43117e-05
2.50246e-14
1.50098e-05
3.85819e-15
1.5708e-05
3.60569e-15
1.64061e-05
-2.04858e-14
1.71042e-05
-2.17619e-14
1.78024e-05
3.4604e-15
1.85005e-05
2.90352e-14
1.91986e-05
-1.66479e-15
1.98967e-05
2.05949e-05
6.21563e-15
4.53785e-06
-3.87965e-15
5.23599e-06
1.54218e-14
5.93412e-06
-7.06578e-15
6.63225e-06
-2.2105e-15
7.33038e-06
1.42816e-15
8.02851e-06
-5.49425e-15
8.72664e-06
1.32257e-14
9.42478e-06
6.04376e-15
1.01229e-05
-1.74514e-14
1.0821e-05
2.08848e-14
1.15192e-05
-2.14445e-14
1.22173e-05
1.91312e-14
1.29154e-05
-7.31767e-15
1.36136e-05
3.84833e-14
1.43117e-05
-1.29248e-14
1.50098e-05
-1.8873e-15
1.5708e-05
5.71266e-15
1.64061e-05
-7.58909e-15
1.71042e-05
2.76562e-14
1.78024e-05
1.4097e-14
1.85005e-05
-5.3143e-14
1.91986e-05
3.90827e-14
1.98967e-05
2.05949e-05
-1.49868e-15
4.53785e-06
1.08965e-14
5.23599e-06
-6.59993e-15
5.93412e-06
7.26477e-15
6.63225e-06
6.17464e-15
7.33038e-06
2.48821e-15
8.02851e-06
-9.65221e-16
8.72664e-06
-4.36614e-15
9.42478e-06
-8.90307e-15
1.01229e-05
1.38621e-14
1.0821e-05
1.06887e-14
1.15192e-05
6.24865e-15
1.22173e-05
-1.28306e-16
1.29154e-05
-3.4393e-15
1.36136e-05
-1.10484e-14
1.43117e-05
-1.77693e-14
1.50098e-05
1.76771e-14
1.5708e-05
9.95284e-15
1.64061e-05
3.32608e-15
1.71042e-05
-3.29695e-14
1.78024e-05
-1.04246e-14
1.85005e-05
3.00673e-14
1.91986e-05
-5.99983e-14
1.98967e-05
2.05949e-05
5.17016e-15
4.53785e-06
-7.45553e-15
5.23599e-06
-7.56962e-16
5.93412e-06
6.83912e-15
6.63225e-06
-9.97474e-15
7.33038e-06
-1.66514e-15
8.02851e-06
9.21866e-15
8.72664e-06
-1.34594e-14
9.42478e-06
2.32202e-14
1.01229e-05
1.04709e-14
1.0821e-05
-1.72743e-14
1.15192e-05
-3.02785e-15
1.22173e-05
1.13963e-14
1.29154e-05
-1.98177e-14
1.36136e-05
-4.68033e-15
1.43117e-05
5.03015e-14
1.50098e-05
-2.40475e-14
1.5708e-05
-6.66055e-15
1.64061e-05
1.42581e-14
1.71042e-05
1.64808e-15
1.78024e-05
-6.8138e-15
1.85005e-05
1.44399e-14
1.91986e-05
5.07552e-14
1.98967e-05
2.05949e-05
-6.19737e-15
4.53785e-06
2.82231e-17
5.23599e-06
1.15112e-14
5.93412e-06
-2.06265e-14
6.63225e-06
5.36662e-15
7.33038e-06
1.22099e-15
8.02851e-06
-4.76531e-17
8.72664e-06
1.23927e-14
9.42478e-06
-1.32263e-14
1.01229e-05
-1.88957e-14
1.0821e-05
-4.96565e-15
1.15192e-05
-7.15505e-15
1.22173e-05
-1.48885e-14
1.29154e-05
3.53384e-14
1.36136e-05
-2.90235e-18
1.43117e-05
-4.3138e-14
1.50098e-05
1.35595e-14
1.5708e-05
-2.8258e-14
1.64061e-05
2.45119e-15
1.71042e-05
-1.02447e-14
1.78024e-05
2.37995e-14
1.85005e-05
1.38747e-14
1.91986e-05
-4.55639e-14
1.98967e-05
2.05949e-05
-1.90715e-15
4.53785e-06
1.12996e-15
5.23599e-06
-2.16627e-14
5.93412e-06
9.62383e-15
6.63225e-06
1.51369e-14
7.33038e-06
-1.40656e-14
8.02851e-06
8.09213e-15
8.72664e-06
-2.69613e-14
9.42478e-06
-1.96607e-15
1.01229e-05
2.97148e-14
1.0821e-05
-1.17466e-14
1.15192e-05
1.98663e-14
1.22173e-05
-2.74464e-14
1.29154e-05
-2.06179e-14
1.36136e-05
1.60394e-14
1.43117e-05
-4.61322e-15
1.50098e-05
4.68849e-15
1.5708e-05
4.79651e-14
1.64061e-05
-1.37397e-14
1.71042e-05
3.23685e-14
1.78024e-05
-3.51898e-14
1.85005e-05
-2.49079e-14
1.91986e-05
7.19104e-14
1.98967e-05
2.05949e-05
1.90619e-15
4.53785e-06
-1.13122e-15
5.23599e-06
2.16614e-14
5.93412e-06
-9.62429e-15
6.63225e-06
-1.51379e-14
7.33038e-06
1.40642e-14
8.02851e-06
-8.09384e-15
8.72664e-06
2.69575e-14
9.42478e-06
1.96483e-15
1.01229e-05
-2.972e-14
1.0821e-05
1.17439e-14
1.15192e-05
-1.98696e-14
1.22173e-05
2.74437e-14
1.29154e-05
2.06135e-14
1.36136e-05
-1.60442e-14
1.43117e-05
4.61157e-15
1.50098e-05
-4.69437e-15
1.5708e-05
-4.79705e-14
1.64061e-05
1.37338e-14
1.71042e-05
-3.23754e-14
1.78024e-05
3.51822e-14
1.85005e-05
2.49012e-14
1.91986e-05
-7.1921e-14
1.98967e-05
2.05949e-05
6.19689e-15
4.53785e-06
-2.88365e-17
5.23599e-06
-1.15123e-14
5.93412e-06
2.06253e-14
6.63225e-06
-5.36723e-15
7.33038e-06
-1.22339e-15
8.02851e-06
4.61187e-17
8.72664e-06
-1.23956e-14
9.42478e-06
1.32249e-14
1.01229e-05
1.88924e-14
1.0821e-05
4.9625e-15
1.15192e-05
7.15088e-15
1.22173e-05
1.48859e-14
1.29154e-05
-3.53407e-14
1.36136e-05
-1.64168e-18
1.43117e-05
4.31343e-14
1.50098e-05
-1.35666e-14
1.5708e-05
2.825e-14
1.64061e-05
-2.45591e-15
1.71042e-05
1.02397e-14
1.78024e-05
-2.38082e-14
1.85005e-05
-1.38783e-14
1.91986e-05
4.5559e-14
1.98967e-05
2.05949e-05
-5.17055e-15
4.53785e-06
7.45519e-15
5.23599e-06
7.5589e-16
5.93412e-06
-6.84031e-15
6.63225e-06
9.9739e-15
7.33038e-06
1.66366e-15
8.02851e-06
-9.21896e-15
8.72664e-06
1.34574e-14
9.42478e-06
-2.32224e-14
1.01229e-05
-1.04739e-14
1.0821e-05
1.72711e-14
1.15192e-05
3.02356e-15
1.22173e-05
-1.13992e-14
1.29154e-05
1.98136e-14
1.36136e-05
4.67689e-15
1.43117e-05
-5.03078e-14
1.50098e-05
2.40437e-14
1.5708e-05
6.65463e-15
1.64061e-05
-1.42631e-14
1.71042e-05
-1.65049e-15
1.78024e-05
6.80704e-15
1.85005e-05
-1.44467e-14
1.91986e-05
-5.07619e-14
1.98967e-05
2.05949e-05
1.49827e-15
4.53785e-06
-1.08974e-14
5.23599e-06
6.59898e-15
5.93412e-06
-7.26606e-15
6.63225e-06
-6.17572e-15
7.33038e-06
-2.48946e-15
8.02851e-06
9.64696e-16
8.72664e-06
4.36413e-15
9.42478e-06
8.89932e-15
1.01229e-05
-1.38637e-14
1.0821e-05
-1.06926e-14
1.15192e-05
-6.2536e-15
1.22173e-05
1.25308e-16
1.29154e-05
3.43493e-15
1.36136e-05
1.10403e-14
1.43117e-05
1.77614e-14
1.50098e-05
-1.76845e-14
1.5708e-05
-9.95782e-15
1.64061e-05
-3.33285e-15
1.71042e-05
3.29644e-14
1.78024e-05
1.04191e-14
1.85005e-05
-3.00703e-14
1.91986e-05
5.99895e-14
1.98967e-05
2.05949e-05
-6.21594e-15
4.53785e-06
3.87866e-15
5.23599e-06
-1.54224e-14
5.93412e-06
7.06466e-15
6.63225e-06
2.20985e-15
7.33038e-06
-1.43026e-15
8.02851e-06
5.49185e-15
8.72664e-06
-1.32273e-14
9.42478e-06
-6.04716e-15
1.01229e-05
1.74486e-14
1.0821e-05
-2.08885e-14
1.15192e-05
2.14442e-14
1.22173e-05
-1.91355e-14
1.29154e-05
7.31289e-15
1.36136e-05
-3.84871e-14
1.43117e-05
1.29199e-14
1.50098e-05
1.88147e-15
1.5708e-05
-5.72102e-15
1.64061e-05
7.57945e-15
1.71042e-05
-2.7664e-14
1.78024e-05
-1.41028e-14
1.85005e-05
5.31376e-14
1.91986e-05
-3.90879e-14
1.98967e-05
2.05949e-05
8.92468e-15
4.53785e-06
2.28833e-15
5.23599e-06
2.22365e-15
5.93412e-06
-6.61671e-15
6.63225e-06
3.38729e-15
7.33038e-06
3.90618e-15
8.02851e-06
6.41759e-15
8.72664e-06
7.15687e-15
9.42478e-06
-6.81144e-15
1.01229e-05
-6.98431e-15
1.0821e-05
9.06264e-15
1.15192e-05
-6.76182e-15
1.22173e-05
2.88864e-14
1.29154e-05
1.2233e-14
1.36136e-05
-4.80561e-15
1.43117e-05
-2.50263e-14
1.50098e-05
-3.86539e-15
1.5708e-05
-3.60903e-15
1.64061e-05
2.04793e-14
1.71042e-05
2.17582e-14
1.78024e-05
-3.47271e-15
1.85005e-05
-2.90491e-14
1.91986e-05
1.65457e-15
1.98967e-05
2.05949e-05
4.63009e-15
4.53785e-06
-5.79817e-15
5.23599e-06
1.61499e-14
5.93412e-06
5.9741e-15
6.63225e-06
8.55431e-15
7.33038e-06
-4.22469e-15
8.02851e-06
8.18701e-15
8.72664e-06
-7.00001e-15
9.42478e-06
2.42294e-14
1.01229e-05
7.76693e-15
1.0821e-05
2.27635e-14
1.15192e-05
-8.35252e-15
1.22173e-05
7.40208e-15
1.29154e-05
-2.82687e-14
1.36136e-05
4.57074e-14
1.43117e-05
8.22001e-15
1.50098e-05
2.82221e-14
1.5708e-05
2.33788e-15
1.64061e-05
6.94464e-15
1.71042e-05
-2.21508e-14
1.78024e-05
3.41042e-14
1.85005e-05
3.73899e-15
1.91986e-05
3.23385e-14
1.98967e-05
2.05949e-05
-6.71531e-15
4.53785e-06
7.30636e-15
5.23599e-06
-1.11018e-14
5.93412e-06
4.2407e-15
6.63225e-06
-1.51035e-14
7.33038e-06
5.20868e-15
8.02851e-06
-1.70145e-14
8.72664e-06
3.94065e-15
9.42478e-06
2.92515e-16
1.01229e-05
-6.61303e-15
1.0821e-05
-1.37085e-14
1.15192e-05
-1.01866e-14
1.22173e-05
-1.8219e-14
1.29154e-05
-1.43692e-14
1.36136e-05
-2.33428e-14
1.43117e-05
2.53433e-14
1.50098e-05
-2.90764e-14
1.5708e-05
7.82355e-15
1.64061e-05
-3.5419e-14
1.71042e-05
4.50982e-15
1.78024e-05
-4.23768e-14
1.85005e-05
5.80512e-16
1.91986e-05
8.72742e-15
1.98967e-05
2.05949e-05
-5.98623e-15
4.53785e-06
-2.19253e-16
5.23599e-06
6.43522e-15
5.93412e-06
-6.06427e-15
6.63225e-06
2.09136e-15
7.33038e-06
-1.61775e-14
8.02851e-06
1.88293e-14
8.72664e-06
2.34947e-15
9.42478e-06
-9.17274e-15
1.01229e-05
4.70921e-15
1.0821e-05
-2.16282e-14
1.15192e-05
2.96433e-14
1.22173e-05
9.28819e-15
1.29154e-05
1.89049e-14
1.36136e-05
-4.46847e-15
1.43117e-05
-3.01586e-14
1.50098e-05
2.62122e-14
1.5708e-05
-4.4229e-16
1.64061e-05
2.11678e-14
1.71042e-05
-1.87201e-14
1.78024e-05
3.91591e-15
1.85005e-05
2.91543e-14
1.91986e-05
-1.52328e-14
1.98967e-05
2.05949e-05
8.67599e-15
4.53785e-06
-1.22928e-14
5.23599e-06
-1.88343e-15
5.93412e-06
-8.90245e-15
6.63225e-06
5.10758e-15
7.33038e-06
2.199e-14
8.02851e-06
-1.22654e-14
8.72664e-06
5.37313e-15
9.42478e-06
-4.45815e-15
1.01229e-05
1.43047e-14
1.0821e-05
7.32484e-15
1.15192e-05
-7.0426e-15
1.22173e-05
-2.39969e-14
1.29154e-05
7.55296e-15
1.36136e-05
-9.80685e-15
1.43117e-05
1.62329e-14
1.50098e-05
-4.02975e-14
1.5708e-05
-1.4449e-14
1.64061e-05
1.3706e-14
1.71042e-05
7.8903e-15
1.78024e-05
3.92454e-14
1.85005e-05
-4.27582e-14
1.91986e-05
8.84676e-15
1.98967e-05
2.05949e-05
-9.39909e-15
4.53785e-06
-5.20712e-16
5.23599e-06
-7.52906e-15
5.93412e-06
4.41121e-15
6.63225e-06
-3.7839e-15
7.33038e-06
-1.33853e-14
8.02851e-06
2.10866e-15
8.72664e-06
-8.52926e-15
9.42478e-06
1.00253e-14
1.01229e-05
-1.86706e-15
1.0821e-05
2.02005e-14
1.15192e-05
7.01063e-15
1.22173e-05
-7.51327e-15
1.29154e-05
-2.36143e-14
1.36136e-05
2.03658e-15
1.43117e-05
-1.48357e-14
1.50098e-05
1.38763e-14
1.5708e-05
-2.39402e-15
1.64061e-05
-2.0414e-14
1.71042e-05
7.01529e-15
1.78024e-05
-1.20699e-14
1.85005e-05
2.5936e-14
1.91986e-05
-1.85237e-15
1.98967e-05
2.05949e-05
1.1336e-14
4.53785e-06
4.80552e-16
5.23599e-06
5.35679e-15
5.93412e-06
1.13026e-14
6.63225e-06
-4.86941e-15
7.33038e-06
1.10796e-15
8.02851e-06
8.15701e-15
8.72664e-06
-1.30451e-14
9.42478e-06
-5.95045e-15
1.01229e-05
1.9953e-15
1.0821e-05
-2.43892e-14
1.15192e-05
-1.61907e-14
1.22173e-05
3.27854e-14
1.29154e-05
3.04978e-15
1.36136e-05
1.44394e-14
1.43117e-05
2.68982e-14
1.50098e-05
-7.74349e-15
1.5708e-05
4.43186e-15
1.64061e-05
1.79955e-14
1.71042e-05
-2.1826e-14
1.78024e-05
-8.216e-15
1.85005e-05
6.07861e-15
1.91986e-05
-3.89203e-14
1.98967e-05
2.05949e-05
1.36925e-16
9.81747e-07
2.42021e-16
1.37445e-06
3.76903e-16
1.76715e-06
-1.33949e-15
2.15984e-06
-3.68157e-15
2.55254e-06
2.94524e-06
5.95101e-15
1.7999e-18
9.81747e-07
-3.88839e-16
1.37445e-06
-2.60424e-15
1.76715e-06
1.94342e-15
2.15984e-06
8.06604e-15
2.55254e-06
2.94524e-06
-9.03002e-15
-1.16487e-16
9.81747e-07
1.86376e-16
1.37445e-06
-1.56242e-15
1.76715e-06
-4.2127e-15
2.15984e-06
-7.49847e-15
2.55254e-06
2.94524e-06
7.72314e-16
8.69383e-17
9.81747e-07
-1.01899e-16
1.37445e-06
2.69311e-15
1.76715e-06
7.4427e-15
2.15984e-06
3.25965e-15
2.55254e-06
2.94524e-06
-2.79809e-15
-4.84087e-17
9.81747e-07
3.94688e-17
1.37445e-06
1.94215e-16
1.76715e-06
-1.80625e-15
2.15984e-06
-4.20884e-15
2.55254e-06
2.94524e-06
5.01324e-15
-1.80116e-16
9.81747e-07
4.29832e-18
1.37445e-06
-1.84789e-15
1.76715e-06
-3.88627e-15
2.15984e-06
3.15683e-15
2.55254e-06
2.94524e-06
4.97997e-16
2.53957e-16
9.81747e-07
2.55419e-16
1.37445e-06
2.06585e-15
1.76715e-06
4.50404e-15
2.15984e-06
-2.31001e-15
2.55254e-06
2.94524e-06
5.40693e-16
2.16466e-17
9.81747e-07
-3.21731e-16
1.37445e-06
-1.14895e-15
1.76715e-06
-5.28566e-15
2.15984e-06
-3.76867e-16
2.55254e-06
2.94524e-06
-5.64016e-15
-1.4343e-16
9.81747e-07
1.66387e-16
1.37445e-06
4.19108e-15
1.76715e-06
6.34932e-15
2.15984e-06
-8.05688e-16
2.55254e-06
2.94524e-06
8.39283e-16
-6.8852e-17
9.81747e-07
-9.21679e-17
1.37445e-06
-2.76939e-15
1.76715e-06
-3.68919e-16
2.15984e-06
-1.45086e-15
2.55254e-06
2.94524e-06
-1.76762e-16
1.66308e-16
9.81747e-07
-8.87911e-17
1.37445e-06
5.69596e-16
1.76715e-06
-2.10365e-15
2.15984e-06
9.6598e-15
2.55254e-06
2.94524e-06
5.29009e-15
-1.77802e-16
9.81747e-07
-2.05699e-17
1.37445e-06
-3.45503e-16
1.76715e-06
-4.17278e-15
2.15984e-06
-2.62251e-15
2.55254e-06
2.94524e-06
5.3692e-15
1.77753e-16
9.81747e-07
2.05147e-17
1.37445e-06
3.45344e-16
1.76715e-06
4.17247e-15
2.15984e-06
2.62216e-15
2.55254e-06
2.94524e-06
-5.36978e-15
-1.66371e-16
9.81747e-07
8.86323e-17
1.37445e-06
-5.69749e-16
1.76715e-06
2.10341e-15
2.15984e-06
-9.66008e-15
2.55254e-06
2.94524e-06
-5.29041e-15
6.87821e-17
9.81747e-07
9.1998e-17
1.37445e-06
2.76935e-15
1.76715e-06
3.68739e-16
2.15984e-06
1.45065e-15
2.55254e-06
2.94524e-06
1.76409e-16
1.43361e-16
9.81747e-07
-1.66421e-16
1.37445e-06
-4.19125e-15
1.76715e-06
-6.34955e-15
2.15984e-06
8.05537e-16
2.55254e-06
2.94524e-06
-8.3943e-16
-2.16942e-17
9.81747e-07
3.21645e-16
1.37445e-06
1.14879e-15
1.76715e-06
5.28556e-15
2.15984e-06
3.76665e-16
2.55254e-06
2.94524e-06
5.63961e-15
-2.54005e-16
9.81747e-07
-2.5547e-16
1.37445e-06
-2.06607e-15
1.76715e-06
-4.50419e-15
2.15984e-06
2.30985e-15
2.55254e-06
2.94524e-06
-5.41082e-16
1.80071e-16
9.81747e-07
-4.36823e-18
1.37445e-06
1.84765e-15
1.76715e-06
3.88602e-15
2.15984e-06
-3.1572e-15
2.55254e-06
2.94524e-06
-4.98359e-16
4.83588e-17
9.81747e-07
-3.9528e-17
1.37445e-06
-1.9439e-16
1.76715e-06
1.80603e-15
2.15984e-06
4.20838e-15
2.55254e-06
2.94524e-06
-5.01347e-15
-8.69755e-17
9.81747e-07
1.01946e-16
1.37445e-06
-2.6932e-15
1.76715e-06
-7.4429e-15
2.15984e-06
-3.25987e-15
2.55254e-06
2.94524e-06
2.79778e-15
1.16433e-16
9.81747e-07
-1.86426e-16
1.37445e-06
1.56229e-15
1.76715e-06
4.21239e-15
2.15984e-06
7.49813e-15
2.55254e-06
2.94524e-06
-7.72565e-16
-1.84864e-18
9.81747e-07
3.88735e-16
1.37445e-06
2.60406e-15
1.76715e-06
-1.94375e-15
2.15984e-06
-8.06656e-15
2.55254e-06
2.94524e-06
9.02986e-15
-1.36966e-16
-2.42205e-16
-3.77064e-16
1.33922e-15
3.68132e-15
-5.95149e-15
-1.1336e-14
4.53785e-06
-4.81448e-16
5.23599e-06
-5.35795e-15
5.93412e-06
-1.13044e-14
6.63225e-06
4.86813e-15
7.33038e-06
-1.10998e-15
8.02851e-06
-8.15828e-15
8.72664e-06
1.30444e-14
9.42478e-06
5.948e-15
1.01229e-05
-1.99688e-15
1.0821e-05
2.43855e-14
1.15192e-05
1.61871e-14
1.22173e-05
-3.27881e-14
1.29154e-05
-3.05387e-15
1.36136e-05
-1.44423e-14
1.43117e-05
-2.69032e-14
1.50098e-05
7.73522e-15
1.5708e-05
-4.43993e-15
1.64061e-05
-1.80046e-14
1.71042e-05
2.18188e-14
1.78024e-05
8.21356e-15
1.85005e-05
-6.08315e-15
1.91986e-05
3.89169e-14
1.98967e-05
2.05949e-05
9.3988e-15
4.53785e-06
5.20182e-16
5.23599e-06
7.52799e-15
5.93412e-06
-4.41232e-15
6.63225e-06
3.78264e-15
7.33038e-06
1.33841e-14
8.02851e-06
-2.10962e-15
8.72664e-06
8.52798e-15
9.42478e-06
-1.0028e-14
1.01229e-05
1.8656e-15
1.0821e-05
-2.02017e-14
1.15192e-05
-7.01515e-15
1.22173e-05
7.50759e-15
1.29154e-05
2.36054e-14
1.36136e-05
-2.04506e-15
1.43117e-05
1.48305e-14
1.50098e-05
-1.38811e-14
1.5708e-05
2.3883e-15
1.64061e-05
2.04085e-14
1.71042e-05
-7.01827e-15
1.78024e-05
1.20634e-14
1.85005e-05
-2.59425e-14
1.91986e-05
1.84479e-15
1.98967e-05
2.05949e-05
-8.67607e-15
4.53785e-06
1.22919e-14
5.23599e-06
1.88267e-15
5.93412e-06
8.90172e-15
6.63225e-06
-5.10832e-15
7.33038e-06
-2.19918e-14
8.02851e-06
1.2264e-14
8.72664e-06
-5.37443e-15
9.42478e-06
4.45515e-15
1.01229e-05
-1.43072e-14
1.0821e-05
-7.32802e-15
1.15192e-05
7.03903e-15
1.22173e-05
2.39941e-14
1.29154e-05
-7.55737e-15
1.36136e-05
9.79614e-15
1.43117e-05
-1.62391e-14
1.50098e-05
4.02941e-14
1.5708e-05
1.44448e-14
1.64061e-05
-1.37083e-14
1.71042e-05
-7.89758e-15
1.78024e-05
-3.9254e-14
1.85005e-05
4.27455e-14
1.91986e-05
-8.85348e-15
1.98967e-05
2.05949e-05
5.98583e-15
4.53785e-06
2.18571e-16
5.23599e-06
-6.43598e-15
5.93412e-06
6.06371e-15
6.63225e-06
-2.09348e-15
7.33038e-06
1.61756e-14
8.02851e-06
-1.88322e-14
8.72664e-06
-2.35202e-15
9.42478e-06
9.17045e-15
1.01229e-05
-4.71262e-15
1.0821e-05
2.16256e-14
1.15192e-05
-2.96462e-14
1.22173e-05
-9.28987e-15
1.29154e-05
-1.89103e-14
1.36136e-05
4.4636e-15
1.43117e-05
3.01526e-14
1.50098e-05
-2.62194e-14
1.5708e-05
4.33104e-16
1.64061e-05
-2.11736e-14
1.71042e-05
1.8712e-14
1.78024e-05
-3.92714e-15
1.85005e-05
-2.91634e-14
1.91986e-05
1.52304e-14
1.98967e-05
2.05949e-05
6.71481e-15
4.53785e-06
-7.30708e-15
5.23599e-06
1.11003e-14
5.93412e-06
-4.24137e-15
6.63225e-06
1.51012e-14
7.33038e-06
-5.21059e-15
8.02851e-06
1.7012e-14
8.72664e-06
-3.94233e-15
9.42478e-06
-2.94675e-16
1.01229e-05
6.60824e-15
1.0821e-05
1.37038e-14
1.15192e-05
1.01828e-14
1.22173e-05
1.82153e-14
1.29154e-05
1.43662e-14
1.36136e-05
2.33393e-14
1.43117e-05
-2.5346e-14
1.50098e-05
2.90707e-14
1.5708e-05
-7.83105e-15
1.64061e-05
3.54122e-14
1.71042e-05
-4.5122e-15
1.78024e-05
4.23667e-14
1.85005e-05
-5.89444e-16
1.91986e-05
-8.7337e-15
1.98967e-05
2.05949e-05
-4.63082e-15
4.53785e-06
5.79734e-15
5.23599e-06
-1.61511e-14
5.93412e-06
-5.97465e-15
6.63225e-06
-8.55555e-15
7.33038e-06
4.22358e-15
8.02851e-06
-8.18759e-15
8.72664e-06
6.99792e-15
9.42478e-06
-2.42303e-14
1.01229e-05
-7.77023e-15
1.0821e-05
-2.27675e-14
1.15192e-05
8.34654e-15
1.22173e-05
-7.40529e-15
1.29154e-05
2.82651e-14
1.36136e-05
-4.5712e-14
1.43117e-05
-8.22502e-15
1.50098e-05
-2.82304e-14
1.5708e-05
-2.3422e-15
1.64061e-05
-6.94857e-15
1.71042e-05
2.21473e-14
1.78024e-05
-3.41181e-14
1.85005e-05
-3.74429e-15
1.91986e-05
-3.23481e-14
1.98967e-05
2.05949e-05
-8.92541e-15
4.53785e-06
-2.28895e-15
5.23599e-06
-2.22461e-15
5.93412e-06
6.61576e-15
6.63225e-06
-3.38862e-15
7.33038e-06
-3.90764e-15
8.02851e-06
-6.41917e-15
8.72664e-06
-7.15933e-15
9.42478e-06
6.80925e-15
1.01229e-05
6.98264e-15
1.0821e-05
-9.06755e-15
1.15192e-05
6.75674e-15
1.22173e-05
-2.88917e-14
1.29154e-05
-1.22368e-14
1.36136e-05
4.80304e-15
1.43117e-05
2.50246e-14
1.50098e-05
3.85819e-15
1.5708e-05
3.60569e-15
1.64061e-05
-2.04858e-14
1.71042e-05
-2.17619e-14
1.78024e-05
3.4604e-15
1.85005e-05
2.90352e-14
1.91986e-05
-1.66479e-15
1.98967e-05
2.05949e-05
6.21563e-15
4.53785e-06
-3.87965e-15
5.23599e-06
1.54218e-14
5.93412e-06
-7.06578e-15
6.63225e-06
-2.2105e-15
7.33038e-06
1.42816e-15
8.02851e-06
-5.49425e-15
8.72664e-06
1.32257e-14
9.42478e-06
6.04376e-15
1.01229e-05
-1.74514e-14
1.0821e-05
2.08848e-14
1.15192e-05
-2.14445e-14
1.22173e-05
1.91312e-14
1.29154e-05
-7.31767e-15
1.36136e-05
3.84833e-14
1.43117e-05
-1.29248e-14
1.50098e-05
-1.8873e-15
1.5708e-05
5.71266e-15
1.64061e-05
-7.58909e-15
1.71042e-05
2.76562e-14
1.78024e-05
1.4097e-14
1.85005e-05
-5.3143e-14
1.91986e-05
3.90827e-14
1.98967e-05
2.05949e-05
-1.49868e-15
4.53785e-06
1.08965e-14
5.23599e-06
-6.59993e-15
5.93412e-06
7.26477e-15
6.63225e-06
6.17464e-15
7.33038e-06
2.48821e-15
8.02851e-06
-9.65221e-16
8.72664e-06
-4.36614e-15
9.42478e-06
-8.90307e-15
1.01229e-05
1.38621e-14
1.0821e-05
1.06887e-14
1.15192e-05
6.24865e-15
1.22173e-05
-1.28306e-16
1.29154e-05
-3.4393e-15
1.36136e-05
-1.10484e-14
1.43117e-05
-1.77693e-14
1.50098e-05
1.76771e-14
1.5708e-05
9.95284e-15
1.64061e-05
3.32608e-15
1.71042e-05
-3.29695e-14
1.78024e-05
-1.04246e-14
1.85005e-05
3.00673e-14
1.91986e-05
-5.99983e-14
1.98967e-05
2.05949e-05
5.17016e-15
4.53785e-06
-7.45553e-15
5.23599e-06
-7.56962e-16
5.93412e-06
6.83912e-15
6.63225e-06
-9.97474e-15
7.33038e-06
-1.66514e-15
8.02851e-06
9.21866e-15
8.72664e-06
-1.34594e-14
9.42478e-06
2.32202e-14
1.01229e-05
1.04709e-14
1.0821e-05
-1.72743e-14
1.15192e-05
-3.02785e-15
1.22173e-05
1.13963e-14
1.29154e-05
-1.98177e-14
1.36136e-05
-4.68033e-15
1.43117e-05
5.03015e-14
1.50098e-05
-2.40475e-14
1.5708e-05
-6.66055e-15
1.64061e-05
1.42581e-14
1.71042e-05
1.64808e-15
1.78024e-05
-6.8138e-15
1.85005e-05
1.44399e-14
1.91986e-05
5.07552e-14
1.98967e-05
2.05949e-05
-6.19737e-15
4.53785e-06
2.82231e-17
5.23599e-06
1.15112e-14
5.93412e-06
-2.06265e-14
6.63225e-06
5.36662e-15
7.33038e-06
1.22099e-15
8.02851e-06
-4.76531e-17
8.72664e-06
1.23927e-14
9.42478e-06
-1.32263e-14
1.01229e-05
-1.88957e-14
1.0821e-05
-4.96565e-15
1.15192e-05
-7.15505e-15
1.22173e-05
-1.48885e-14
1.29154e-05
3.53384e-14
1.36136e-05
-2.90235e-18
1.43117e-05
-4.3138e-14
1.50098e-05
1.35595e-14
1.5708e-05
-2.8258e-14
1.64061e-05
2.45119e-15
1.71042e-05
-1.02447e-14
1.78024e-05
2.37995e-14
1.85005e-05
1.38747e-14
1.91986e-05
-4.55639e-14
1.98967e-05
2.05949e-05
-1.90715e-15
4.53785e-06
1.12996e-15
5.23599e-06
-2.16627e-14
5.93412e-06
9.62383e-15
6.63225e-06
1.51369e-14
7.33038e-06
-1.40656e-14
8.02851e-06
8.09213e-15
8.72664e-06
-2.69613e-14
9.42478e-06
-1.96607e-15
1.01229e-05
2.97148e-14
1.0821e-05
-1.17466e-14
1.15192e-05
1.98663e-14
1.22173e-05
-2.74464e-14
1.29154e-05
-2.06179e-14
1.36136e-05
1.60394e-14
1.43117e-05
-4.61322e-15
1.50098e-05
4.68849e-15
1.5708e-05
4.79651e-14
1.64061e-05
-1.37397e-14
1.71042e-05
3.23685e-14
1.78024e-05
-3.51898e-14
1.85005e-05
-2.49079e-14
1.91986e-05
7.19104e-14
1.98967e-05
2.05949e-05
1.90619e-15
4.53785e-06
-1.13122e-15
5.23599e-06
2.16614e-14
5.93412e-06
-9.62429e-15
6.63225e-06
-1.51379e-14
7.33038e-06
1.40642e-14
8.02851e-06
-8.09384e-15
8.72664e-06
2.69575e-14
9.42478e-06
1.96483e-15
1.01229e-05
-2.972e-14
1.0821e-05
1.17439e-14
1.15192e-05
-1.98696e-14
1.22173e-05
2.74437e-14
1.29154e-05
2.06135e-14
1.36136e-05
-1.60442e-14
1.43117e-05
4.61157e-15
1.50098e-05
-4.69437e-15
1.5708e-05
-4.79705e-14
1.64061e-05
1.37338e-14
1.71042e-05
-3.23754e-14
1.78024e-05
3.51822e-14
1.85005e-05
2.49012e-14
1.91986e-05
-7.1921e-14
1.98967e-05
2.05949e-05
6.19689e-15
4.53785e-06
-2.88365e-17
5.23599e-06
-1.15123e-14
5.93412e-06
2.06253e-14
6.63225e-06
-5.36723e-15
7.33038e-06
-1.22339e-15
8.02851e-06
4.61187e-17
8.72664e-06
-1.23956e-14
9.42478e-06
1.32249e-14
1.01229e-05
1.88924e-14
1.0821e-05
4.9625e-15
1.15192e-05
7.15088e-15
1.22173e-05
1.48859e-14
1.29154e-05
-3.53407e-14
1.36136e-05
-1.64168e-18
1.43117e-05
4.31343e-14
1.50098e-05
-1.35666e-14
1.5708e-05
2.825e-14
1.64061e-05
-2.45591e-15
1.71042e-05
1.02397e-14
1.78024e-05
-2.38082e-14
1.85005e-05
-1.38783e-14
1.91986e-05
4.5559e-14
1.98967e-05
2.05949e-05
-5.17055e-15
4.53785e-06
7.45519e-15
5.23599e-06
7.5589e-16
5.93412e-06
-6.84031e-15
6.63225e-06
9.9739e-15
7.33038e-06
1.66366e-15
8.02851e-06
-9.21896e-15
8.72664e-06
1.34574e-14
9.42478e-06
-2.32224e-14
1.01229e-05
-1.04739e-14
1.0821e-05
1.72711e-14
1.15192e-05
3.02356e-15
1.22173e-05
-1.13992e-14
1.29154e-05
1.98136e-14
1.36136e-05
4.67689e-15
1.43117e-05
-5.03078e-14
1.50098e-05
2.40437e-14
1.5708e-05
6.65463e-15