/*--------------------------------*- C++ -*----------------------------------*\
  =========                 |
  \\      /  F ield         | OpenFOAM: The Open Source CFD Toolbox
   \\    /   O peration     | Website:  https://openfoam.org
    \\  /    A nd           | Version:  11
     \\/     M anipulation  |
\*---------------------------------------------------------------------------*/
FoamFile
{
    format      ascii;
    class       surfaceScalarField;
    location    "1.46";
    object      phi;
}
// * * * * * * * * * * * * * * * * * * * * * * * * * * * * * * * * * * * * * //

dimensions      [0 3 -1 0 0 0 0];

internalField   nonuniform List<scalar> 
5640
(
-3.83603e-07
3.83603e-07
-1.13956e-06
7.55957e-07
-1.94594e-06
8.06379e-07
-2.51059e-06
5.64648e-07
-2.57459e-06
6.40084e-08
-1.04136e-06
-1.53323e-06
-5.53365e-07
9.36967e-07
-1.29455e-06
1.49714e-06
-1.94686e-06
1.45869e-06
-2.37755e-06
9.9534e-07
-2.36875e-06
5.5205e-08
-1.69685e-06
-1.71326e-06
-5.77213e-07
1.51418e-06
-1.24597e-06
2.16589e-06
-1.81504e-06
2.02776e-06
-2.18206e-06
1.36236e-06
-2.23152e-06
1.04659e-07
-1.94166e-06
-1.98671e-06
-5.74937e-07
2.08912e-06
-1.1686e-06
2.75956e-06
-1.67924e-06
2.5384e-06
-2.02537e-06
1.7085e-06
-2.17228e-06
2.51569e-07
-1.87581e-06
-2.23813e-06
-5.63392e-07
2.65251e-06
-1.08371e-06
3.27987e-06
-1.54789e-06
3.00258e-06
-1.8975e-06
2.0581e-06
-2.14649e-06
5.00563e-07
-1.59553e-06
-2.42677e-06
-5.48349e-07
3.20086e-06
-9.93493e-07
3.72502e-06
-1.41775e-06
3.42684e-06
-1.78087e-06
2.42123e-06
-2.11896e-06
8.38655e-07
-1.17377e-06
-2.54072e-06
-5.22842e-07
3.7237e-06
-8.96884e-07
4.09906e-06
-1.28306e-06
3.81301e-06
-1.66012e-06
2.79829e-06
-2.06781e-06
1.24634e-06
-6.62943e-07
-2.57864e-06
-4.59816e-07
4.18352e-06
-7.85926e-07
4.42517e-06
-1.13766e-06
4.16474e-06
-1.52303e-06
3.18366e-06
-1.97775e-06
1.70107e-06
-1.01655e-07
-2.53904e-06
-3.84009e-07
4.56753e-06
-6.60048e-07
4.70121e-06
-9.76761e-07
4.48146e-06
-1.36049e-06
3.56739e-06
-1.83863e-06
2.17921e-06
4.7838e-07
-2.41867e-06
-2.99409e-07
4.86693e-06
-5.20286e-07
4.92209e-06
-7.97208e-07
4.75838e-06
-1.16622e-06
3.9364e-06
-1.64438e-06
2.65737e-06
1.04924e-06
-2.21524e-06
-2.07664e-07
5.0746e-06
-3.6705e-07
5.08147e-06
-5.97006e-07
4.98834e-06
-9.36382e-07
4.27578e-06
-1.39175e-06
3.11274e-06
1.58517e-06
-1.92768e-06
-1.09513e-07
5.18411e-06
-2.01057e-07
5.17301e-06
-3.75421e-07
5.1627e-06
-6.69397e-07
4.56976e-06
-1.08006e-06
3.5234e-06
2.06177e-06
-1.55666e-06
-3.532e-09
5.18764e-06
-2.42136e-08
5.1937e-06
-1.32886e-07
5.27137e-06
-3.65865e-07
4.80274e-06
-7.11427e-07
3.86897e-06
2.4559e-06
-1.10556e-06
1.00999e-07
5.08664e-06
1.63243e-07
5.13145e-06
1.28979e-07
5.30564e-06
-2.88074e-08
4.96052e-06
-2.91104e-07
4.13126e-06
2.74728e-06
-5.82484e-07
2.10864e-07
4.87578e-06
3.57405e-07
4.98491e-06
4.06861e-07
5.25618e-06
3.37209e-07
5.03017e-06
1.72675e-07
4.2958e-06
2.93146e-06
-1.15007e-08
3.28051e-07
4.54773e-06
5.55408e-07
4.75755e-06
6.95949e-07
5.11564e-06
7.24013e-07
5.00211e-06
6.68558e-07
4.35125e-06
2.98061e-06
6.19401e-07
4.68741e-07
4.07899e-06
7.50664e-07
4.47563e-06
9.89771e-07
4.87653e-06
1.12305e-06
4.86883e-06
1.17943e-06
4.29487e-06
2.90854e-06
1.25151e-06
5.64091e-07
3.5149e-06
9.29598e-07
4.11012e-06
1.2802e-06
4.52593e-06
1.52522e-06
4.6238e-06
1.6865e-06
4.13359e-06
2.74093e-06
1.85412e-06
6.15569e-07
2.89933e-06
1.08573e-06
3.63996e-06
1.55871e-06
4.05295e-06
1.92269e-06
4.25983e-06
2.17388e-06
3.8824e-06
2.53061e-06
2.3842e-06
6.44528e-07
2.2548e-06
1.21609e-06
3.0684e-06
1.81699e-06
3.45205e-06
2.31077e-06
3.76605e-06
2.63876e-06
3.5544e-06
2.3718e-06
2.79757e-06
6.52162e-07
1.60264e-06
1.31686e-06
2.4037e-06
2.04626e-06
2.72265e-06
2.68926e-06
3.12305e-06
3.11717e-06
3.12649e-06
2.3545e-06
3.13447e-06
6.36924e-07
9.65716e-07
1.3832e-06
1.65742e-06
2.23249e-06
1.87336e-06
3.05542e-06
2.30012e-06
3.69779e-06
2.48412e-06
2.14053e-06
3.91177e-06
5.85519e-07
3.80197e-07
1.40277e-06
8.40175e-07
2.33851e-06
9.37622e-07
3.37486e-06
1.26376e-06
4.40873e-06
1.45025e-06
1.36732e-06
5.18193e-06
3.80197e-07
1.22037e-06
2.15799e-06
3.42176e-06
4.87201e-06
6.23933e-06
-3.70075e-06
-1.12455e-05
1.3413e-05
-4.39776e-06
-1.21038e-05
1.28008e-05
-4.39469e-06
-1.14311e-05
1.1428e-05
-3.77561e-06
-1.04905e-05
9.87137e-06
-2.59172e-06
-9.52054e-06
8.33665e-06
-9.01519e-07
-8.59965e-06
6.90945e-06
1.22611e-06
-7.75948e-06
5.63185e-06
3.71775e-06
-7.02245e-06
4.53081e-06
6.49901e-06
-6.40428e-06
3.62303e-06
9.49944e-06
-5.91565e-06
2.91521e-06
1.2656e-05
-5.56193e-06
2.40535e-06
1.59141e-05
-5.34466e-06
2.08661e-06
1.92276e-05
-5.26197e-06
1.94845e-06
2.25592e-05
-5.3092e-06
1.97763e-06
2.58797e-05
-5.48017e-06
2.15962e-06
2.91686e-05
-5.76778e-06
2.47893e-06
3.24145e-05
-6.1641e-06
2.91821e-06
3.56143e-05
-6.65874e-06
3.45893e-06
3.87695e-05
-7.23922e-06
4.08397e-06
4.18851e-05
-7.89241e-06
4.77681e-06
4.49673e-05
-8.60557e-06
5.52339e-06
4.80269e-05
-9.36097e-06
6.3013e-06
5.10668e-05
-1.01541e-05
7.11426e-06
-1.10051e-05
7.93945e-06
-3.2742e-06
-9.68456e-06
-4.25348e-06
-1.11245e-05
-4.52492e-06
-1.11596e-05
-4.20346e-06
-1.08119e-05
-3.36448e-06
-1.03595e-05
-2.07099e-06
-9.89314e-06
-3.84626e-07
-9.44585e-06
1.63013e-06
-9.03721e-06
3.91106e-06
-8.68521e-06
6.39687e-06
-8.40146e-06
9.03124e-06
-8.1963e-06
1.1764e-05
-8.07739e-06
1.45519e-05
-8.04988e-06
1.73582e-05
-8.11549e-06
2.01534e-05
-8.27543e-06
2.29159e-05
-8.53029e-06
2.56314e-05
-8.87957e-06
2.82936e-05
-9.32088e-06
3.09057e-05
-9.85138e-06
3.34794e-05
-1.04661e-05
3.60297e-05
-1.11558e-05
3.85733e-05
-1.19046e-05
4.11164e-05
-1.26972e-05
-1.35553e-05
-3.27734e-06
-8.39393e-06
-4.25379e-06
-1.01481e-05
-4.66222e-06
-1.07512e-05
-4.53424e-06
-1.09399e-05
-3.94109e-06
-1.09527e-05
-2.94746e-06
-1.08868e-05
-1.61484e-06
-1.07785e-05
-1.21369e-09
-1.06508e-05
1.83758e-06
-1.0524e-05
3.84751e-06
-1.04114e-05
5.97918e-06
-1.0328e-05
8.1871e-06
-1.02853e-05
1.04327e-05
-1.02955e-05
1.26824e-05
-1.03652e-05
1.49094e-05
-1.05025e-05
1.70941e-05
-1.07149e-05
1.9225e-05
-1.10105e-05
2.13009e-05
-1.13968e-05
2.33302e-05
-1.18807e-05
2.533e-05
-1.24659e-05
2.73235e-05
-1.31493e-05
2.93357e-05
-1.39168e-05
3.13817e-05
-1.47433e-05
-1.56167e-05
-3.39237e-06
-7.23969e-06
-4.31987e-06
-9.22059e-06
-4.78073e-06
-1.02903e-05
-4.7621e-06
-1.09585e-05
-4.31998e-06
-1.13948e-05
-3.51985e-06
-1.16869e-05
-2.42366e-06
-1.18747e-05
-1.08879e-06
-1.19857e-05
4.31019e-07
-1.20438e-05
2.08822e-06
-1.20686e-05
3.83784e-06
-1.20776e-05
5.63799e-06
-1.20855e-05
7.45148e-06
-1.2109e-05
9.25164e-06
-1.21654e-05
1.10201e-05
-1.2271e-05
1.27449e-05
-1.24397e-05
1.44215e-05
-1.26871e-05
1.60534e-05
-1.30287e-05
1.76516e-05
-1.34789e-05
1.92333e-05
-1.40476e-05
2.08207e-05
-1.47367e-05
2.24386e-05
-1.55347e-05
2.41047e-05
-1.64094e-05
-1.72945e-05
-3.50698e-06
-6.15948e-06
-4.38615e-06
-8.34142e-06
-4.84653e-06
-9.82995e-06
-4.86534e-06
-1.09397e-05
-4.48611e-06
-1.1774e-05
-3.77501e-06
-1.2398e-05
-2.79581e-06
-1.28539e-05
-1.60638e-06
-1.31751e-05
-2.57737e-07
-1.33925e-05
1.20741e-06
-1.35337e-05
2.75342e-06
-1.36236e-05
4.35178e-06
-1.36838e-05
5.97507e-06
-1.37323e-05
7.59832e-06
-1.37886e-05
9.20933e-06
-1.3882e-05
1.07946e-05
-1.40249e-05
1.23497e-05
-1.42422e-05
1.38756e-05
-1.45546e-05
1.53765e-05
-1.49798e-05
1.68597e-05
-1.55309e-05
1.83345e-05
-1.62114e-05
1.98087e-05
-1.70089e-05
2.12785e-05
-1.78792e-05
-1.8716e-05
-3.57588e-06
-5.12432e-06
-4.40438e-06
-7.51291e-06
-4.82555e-06
-9.40879e-06
-4.81391e-06
-1.09514e-05
-4.41041e-06
-1.21775e-05
-3.6843e-06
-1.31241e-05
-2.70363e-06
-1.38345e-05
-1.5277e-06
-1.43511e-05
-2.06085e-07
-1.47141e-05
1.22137e-06
-1.49612e-05
2.72308e-06
-1.51253e-05
4.27408e-06
-1.52348e-05
5.85698e-06
-1.53152e-05
7.45978e-06
-1.53914e-05
9.06606e-06
-1.54883e-05
1.06699e-05
-1.56288e-05
1.22645e-05
-1.58367e-05
1.38469e-05
-1.6137e-05
1.54115e-05
-1.65444e-05
1.69551e-05
-1.70744e-05
1.8474e-05
-1.77304e-05
1.99634e-05
-1.84983e-05
2.14176e-05
-1.93334e-05
-2.01412e-05
-3.57469e-06
-4.12827e-06
-4.34041e-06
-6.7472e-06
-4.68424e-06
-9.06495e-06
-4.57419e-06
-1.10614e-05
-4.05804e-06
-1.26937e-05
-3.21363e-06
-1.39685e-05
-2.11672e-06
-1.49314e-05
-8.29694e-07
-1.56381e-05
5.98619e-07
-1.61424e-05
2.13145e-06
-1.6494e-05
3.7419e-06
-1.67358e-05
5.41062e-06
-1.69035e-05
7.12457e-06
-1.70291e-05
8.87482e-06
-1.71416e-05
1.06544e-05
-1.72678e-05
1.24582e-05
-1.74326e-05
1.42814e-05
-1.76599e-05
1.61162e-05
-1.79718e-05
1.79578e-05
-1.8386e-05
1.98001e-05
-1.89168e-05
2.1637e-05
-1.95673e-05
2.34646e-05
-2.0326e-05
2.52828e-05
-2.11516e-05
-2.19716e-05
-3.48811e-06
-3.1792e-06
-4.17309e-06
-6.06221e-06
-4.39283e-06
-8.84522e-06
-4.10972e-06
-1.13445e-05
-3.38635e-06
-1.3417e-05
-2.31735e-06
-1.50375e-05
-9.90889e-07
-1.62579e-05
5.24622e-07
-1.71536e-05
2.18039e-06
-1.77982e-05
3.9435e-06
-1.82571e-05
5.79277e-06
-1.8585e-05
7.71553e-06
-1.88263e-05
9.70498e-06
-1.90186e-05
1.17585e-05
-1.91952e-05
1.38752e-05
-1.93846e-05
1.60547e-05
-1.96121e-05
1.82954e-05
-1.99006e-05
2.05937e-05
-2.027e-05
2.29441e-05
-2.07365e-05
2.53393e-05
-2.1312e-05
2.77727e-05
-2.20007e-05
3.0242e-05
-2.27953e-05
3.27495e-05
-2.36591e-05
-2.45397e-05
-3.30741e-06
-2.29046e-06
-3.88558e-06
-5.48404e-06
-3.92507e-06
-8.80573e-06
-3.38431e-06
-1.18853e-05
-2.35131e-06
-1.445e-05
-9.4766e-07
-1.64412e-05
7.19983e-07
-1.79255e-05
2.57488e-06
-1.90085e-05
4.56755e-06
-1.97908e-05
6.66821e-06
-2.03578e-05
8.86087e-06
-2.07777e-05
1.11395e-05
-2.11049e-05
1.35042e-05
-2.13833e-05
1.59585e-05
-2.16494e-05
1.85076e-05
-2.19337e-05
2.11563e-05
-2.22608e-05
2.39075e-05
-2.26519e-05
2.67612e-05
-2.31237e-05
2.9714e-05
-2.36893e-05
3.27599e-05
-2.43579e-05
3.58918e-05
-2.51325e-05
3.91072e-05
-2.60107e-05
4.24023e-05
-2.69541e-05
-2.79276e-05
-3.02502e-06
-1.48068e-06
-3.46316e-06
-5.04591e-06
-3.25562e-06
-9.01326e-06
-2.36009e-06
-1.27808e-05
-9.03706e-07
-1.59064e-05
9.51343e-07
-1.82962e-05
3.07238e-06
-2.00466e-05
5.36837e-06
-2.13045e-05
7.78467e-06
-2.22071e-05
1.02947e-05
-2.28678e-05
1.28905e-05
-2.33735e-05
1.55741e-05
-2.37886e-05
1.83527e-05
-2.41618e-05
2.12358e-05
-2.45325e-05
2.42339e-05
-2.49317e-05
2.73559e-05
-2.53828e-05
3.06074e-05
-2.59034e-05
3.39894e-05
-2.65057e-05
3.74977e-05
-2.71976e-05
4.11267e-05
-2.79869e-05
4.48668e-05
-2.88726e-05
4.87089e-05
-2.98528e-05
5.2629e-05
-3.08742e-05
-3.19696e-05
-2.6348e-06
-7.73562e-07
-2.89138e-06
-4.78932e-06
-2.3547e-06
-9.54994e-06
-9.88653e-07
-1.41469e-05
1.01319e-06
-1.79083e-05
3.42313e-06
-2.07062e-05
6.06693e-06
-2.26904e-05
8.83903e-06
-2.40766e-05
1.16914e-05
-2.50595e-05
1.46111e-05
-2.57876e-05
1.76018e-05
-2.63641e-05
2.06726e-05
-2.68594e-05
2.38365e-05
-2.73258e-05
2.71081e-05
-2.78041e-05
3.05002e-05
-2.83238e-05
3.40247e-05
-2.89074e-05
3.76901e-05
-2.95688e-05
4.14945e-05
-3.03101e-05
4.54287e-05
-3.11318e-05
4.94864e-05
-3.20446e-05
5.36558e-05
-3.3042e-05
5.79171e-05
-3.41141e-05
6.22564e-05
-3.52135e-05
-3.64088e-05
-2.13202e-06
-1.98206e-07
-2.15224e-06
-4.7691e-06
-1.18061e-06
-1.05216e-05
7.83089e-07
-1.61106e-05
3.41984e-06
-2.0545e-05
6.42072e-06
-2.3707e-05
9.57989e-06
-2.58495e-05
1.28037e-05
-2.73004e-05
1.60616e-05
-2.83174e-05
1.93514e-05
-2.90773e-05
2.26847e-05
-2.96974e-05
2.60782e-05
-3.02529e-05
2.95497e-05
-3.07972e-05
3.31192e-05
-3.13737e-05
3.67981e-05
-3.20027e-05
4.05998e-05
-3.2709e-05
4.45321e-05
-3.35011e-05
4.85979e-05
-3.43759e-05
5.27927e-05
-3.53266e-05
5.70681e-05
-3.63201e-05
6.13615e-05
-3.73353e-05
6.55795e-05
-3.83321e-05
6.97387e-05
-3.93727e-05
-4.04649e-05
-1.51326e-06
2.09491e-07
-1.22125e-06
-5.06111e-06
3.31777e-07
-1.20746e-05
2.99085e-06
-1.87696e-05
6.30362e-06
-2.38578e-05
9.87107e-06
-2.72745e-05
1.34901e-05
-2.94686e-05
1.70846e-05
-3.08948e-05
2.06411e-05
-3.1874e-05
2.41743e-05
-3.26105e-05
2.77079e-05
-3.3231e-05
3.12664e-05
-3.38114e-05
3.4873e-05
-3.44039e-05
3.85552e-05
-3.50558e-05
4.23389e-05
-3.57864e-05
4.62093e-05
-3.65794e-05
5.01059e-05
-3.73977e-05
5.39593e-05
-3.82293e-05
5.77019e-05
-3.90692e-05
6.1294e-05
-3.99121e-05
6.47449e-05
-4.07862e-05
6.80542e-05
-4.16414e-05
7.12757e-05
-4.25943e-05
-4.35279e-05
-7.77834e-07
4.04841e-07
-5.53874e-08
-5.78356e-06
2.21289e-06
-1.43429e-05
5.66511e-06
-2.22219e-05
9.6038e-06
-2.77965e-05
1.35994e-05
-3.127e-05
1.74788e-05
-3.33481e-05
2.12115e-05
-3.46274e-05
2.48203e-05
-3.54829e-05
2.83427e-05
-3.61328e-05
3.18142e-05
-3.67026e-05
3.52699e-05
-3.72671e-05
3.87463e-05
-3.78803e-05
4.22202e-05
-3.85298e-05
4.56236e-05
-3.91898e-05
4.89039e-05
-3.98597e-05
5.20578e-05
-4.05517e-05
5.50995e-05
-4.1271e-05
5.80463e-05
-4.20159e-05
6.09106e-05
-4.27765e-05
6.36998e-05
-4.35753e-05
6.64443e-05
-4.43859e-05
6.90941e-05
-4.52441e-05
-4.59859e-05
3.21452e-08
3.61195e-07
1.36814e-06
-7.11955e-06
4.53961e-06
-1.75143e-05
8.71975e-06
-2.6402e-05
1.30477e-05
-3.21244e-05
1.71343e-05
-3.53567e-05
2.09156e-05
-3.71293e-05
2.44465e-05
-3.81584e-05
2.77906e-05
-3.88269e-05
3.10007e-05
-3.93429e-05
3.41146e-05
-3.98165e-05
3.71589e-05
-4.03114e-05
4.01129e-05
-4.08343e-05
4.2952e-05
-4.13688e-05
4.56933e-05
-4.1931e-05
4.83536e-05
-4.252e-05
5.09394e-05
-4.31375e-05
5.34606e-05
-4.37922e-05
5.59419e-05
-4.44972e-05
5.84055e-05
-4.52402e-05
6.08217e-05
-4.59915e-05
6.3165e-05
-4.67291e-05
6.53024e-05
-4.73816e-05
-4.78766e-05
1.01251e-06
-3.19172e-08
3.11367e-06
-9.2207e-06
7.22455e-06
-2.16252e-05
1.18405e-05
-3.1018e-05
1.61082e-05
-3.6392e-05
1.98606e-05
-3.91092e-05
2.31993e-05
-4.0468e-05
2.6258e-05
-4.12171e-05
2.91219e-05
-4.16908e-05
3.18464e-05
-4.20674e-05
3.44639e-05
-4.24339e-05
3.69786e-05
-4.28262e-05
3.93966e-05
-4.32522e-05
4.17488e-05
-4.3721e-05
4.40446e-05
-4.42269e-05
4.62907e-05
-4.47661e-05
4.85075e-05
-4.53544e-05
5.07071e-05
-4.59917e-05
5.28623e-05
-4.66524e-05
5.49448e-05
-4.73227e-05
5.69244e-05
-4.79711e-05
5.87676e-05
-4.85724e-05
6.04123e-05
-4.90262e-05
-4.92181e-05
2.05249e-06
-8.32905e-07
5.15733e-06
-1.23255e-05
9.99172e-06
-2.64596e-05
1.45496e-05
-3.55758e-05
1.83267e-05
-4.01692e-05
2.14766e-05
-4.22591e-05
2.42325e-05
-4.32238e-05
2.67575e-05
-4.37421e-05
2.91222e-05
-4.40556e-05
3.13764e-05
-4.43216e-05
3.35468e-05
-4.46043e-05
3.56474e-05
-4.49267e-05
3.76908e-05
-4.52957e-05
3.96849e-05
-4.57151e-05
4.16474e-05
-4.61894e-05
4.35958e-05
-4.67144e-05
4.55199e-05
-4.72784e-05
4.73896e-05
-4.78614e-05
4.91815e-05
-4.84444e-05
5.08703e-05
-4.90114e-05
5.24414e-05
-4.95423e-05
5.38747e-05
-5.00057e-05
5.51646e-05
-5.0316e-05
-5.02879e-05
3.18392e-06
-2.16271e-06
7.40698e-06
-1.65486e-05
1.2473e-05
-3.15257e-05
1.65132e-05
-3.9616e-05
1.96113e-05
-4.32673e-05
2.21334e-05
-4.47812e-05
2.43562e-05
-4.54466e-05
2.64088e-05
-4.57948e-05
2.83398e-05
-4.59865e-05
3.01953e-05
-4.61771e-05
3.19983e-05
-4.64074e-05
3.37642e-05
-4.66925e-05
3.55028e-05
-4.70343e-05
3.72187e-05
-4.7431e-05
3.89088e-05
-4.78794e-05
4.05628e-05
-4.83685e-05
4.21661e-05
-4.88817e-05
4.37071e-05
-4.94024e-05
4.51777e-05
-4.9915e-05
4.65675e-05
-5.04013e-05
4.78621e-05
-5.08369e-05
4.90399e-05
-5.11834e-05
5.00855e-05
-5.13617e-05
-5.11866e-05
4.45084e-06
-4.22935e-06
9.66986e-06
-2.17676e-05
1.43926e-05
-3.62484e-05
1.76984e-05
-4.29219e-05
2.01259e-05
-4.56947e-05
2.20957e-05
-4.6751e-05
2.38649e-05
-4.72158e-05
2.54965e-05
-4.74264e-05
2.70528e-05
-4.75427e-05
2.85673e-05
-4.76917e-05
3.00571e-05
-4.78971e-05
3.15304e-05
-4.81658e-05
3.29911e-05
-4.84951e-05
3.44371e-05
-4.88769e-05
3.58584e-05
-4.93008e-05
3.72444e-05
-4.97546e-05
3.85875e-05
-5.02248e-05
3.9881e-05
-5.06959e-05
4.11167e-05
-5.11507e-05
4.22833e-05
-5.15678e-05
4.33651e-05
-5.19187e-05
4.4344e-05
-5.21623e-05
4.52071e-05
-5.22248e-05
-5.19607e-05
5.86233e-06
-7.29411e-06
1.16852e-05
-2.75905e-05
1.56714e-05
-4.02345e-05
1.821e-05
-4.54606e-05
2.0022e-05
-4.75066e-05
2.15368e-05
-4.82659e-05
2.29003e-05
-4.85793e-05
2.416e-05
-4.86861e-05
2.53971e-05
-4.87798e-05
2.66236e-05
-4.89182e-05
2.7847e-05
-4.91205e-05
2.90684e-05
-4.93873e-05
3.0285e-05
-4.97117e-05
3.14913e-05
-5.00832e-05
3.26802e-05
-5.04897e-05
3.38435e-05
-5.09179e-05
3.49725e-05
-5.13538e-05
3.6058e-05
-5.17814e-05
3.70906e-05
-5.21833e-05
3.80606e-05
-5.25378e-05
3.8958e-05
-5.28162e-05
3.97755e-05
-5.29799e-05
4.05159e-05
-5.29651e-05
-5.26539e-05
7.53269e-06
-1.16923e-05
1.32272e-05
-3.3285e-05
1.63354e-05
-4.33428e-05
1.81615e-05
-4.72866e-05
1.94633e-05
-4.88084e-05
2.05629e-05
-4.93655e-05
2.15492e-05
-4.95656e-05
2.25201e-05
-4.9657e-05
2.3493e-05
-4.97527e-05
2.44761e-05
-4.99012e-05
2.54705e-05
-5.01149e-05
2.6473e-05
-5.03897e-05
2.7477e-05
-5.07157e-05
2.84747e-05
-5.10809e-05
2.94576e-05
-5.14726e-05
3.04174e-05
-5.18777e-05
3.13461e-05
-5.22825e-05
3.22365e-05
-5.26718e-05
3.30819e-05
-5.30286e-05
3.38757e-05
-5.33317e-05
3.46134e-05
-5.35538e-05
3.52942e-05
-5.36607e-05
3.59264e-05
-5.35973e-05
-5.32664e-05
9.60904e-06
-1.73896e-05
1.42508e-05
-3.79268e-05
1.6451e-05
-4.55429e-05
1.76552e-05
-4.84909e-05
1.85117e-05
-4.96649e-05
1.9253e-05
-5.01068e-05
1.99623e-05
-5.02749e-05
2.06792e-05
-5.03739e-05
2.14203e-05
-5.04938e-05
2.21878e-05
-5.06687e-05
2.29767e-05
-5.09039e-05
2.37793e-05
-5.11923e-05
2.45866e-05
-5.1523e-05
2.53895e-05
-5.18838e-05
2.61799e-05
-5.22629e-05
2.69501e-05
-5.2648e-05
2.76939e-05
-5.30263e-05
2.84057e-05
-5.33836e-05
2.90808e-05
-5.37037e-05
2.97155e-05
-5.39664e-05
3.03086e-05
-5.41469e-05
3.08623e-05
-5.42144e-05
3.1387e-05
-5.4122e-05
-5.37926e-05
1.18978e-05
-2.41055e-05
1.48689e-05
-4.08979e-05
1.60996e-05
-4.67736e-05
1.67669e-05
-4.91582e-05
1.72594e-05
-5.01573e-05
1.77131e-05
-5.05605e-05
1.8179e-05
-5.07409e-05
1.86792e-05
-5.0874e-05
1.92194e-05
-5.1034e-05
1.97952e-05
-5.12445e-05
2.03975e-05
-5.15061e-05
2.10158e-05
-5.18106e-05
2.16399e-05
-5.21471e-05
2.22607e-05
-5.25047e-05
2.28706e-05
-5.28728e-05
2.34632e-05
-5.32405e-05
2.40333e-05
-5.35964e-05
2.45772e-05
-5.39275e-05
2.50921e-05
-5.42187e-05
2.55771e-05
-5.44514e-05
2.60336e-05
-5.46034e-05
2.64665e-05
-5.46473e-05
2.68881e-05
-5.45436e-05
-5.42331e-05
1.37932e-05
-3.16594e-05
1.49169e-05
-4.20216e-05
1.52856e-05
-4.71423e-05
1.55481e-05
-4.94207e-05
1.57644e-05
-5.03736e-05
1.59875e-05
-5.07837e-05
1.62503e-05
-5.10036e-05
1.65641e-05
-5.11878e-05
1.69265e-05
-5.13965e-05
1.73282e-05
-5.16462e-05
1.77576e-05
-5.19355e-05
1.82033e-05
-5.22563e-05
1.86551e-05
-5.25989e-05
1.91044e-05
-5.2954e-05
1.95441e-05
-5.33125e-05
1.99688e-05
-5.36652e-05
2.03746e-05
-5.40022e-05
2.07591e-05
-5.4312e-05
2.11217e-05
-5.45812e-05
2.14635e-05
-5.47933e-05
2.17881e-05
-5.4928e-05
2.21021e-05
-5.49613e-05
2.24192e-05
-5.48607e-05
-5.45816e-05
-5.94248e-07
5.94248e-07
-8.57576e-07
2.63328e-07
-2.29185e-07
-6.28392e-07
1.42532e-06
-1.6545e-06
5.5934e-06
-4.16809e-06
-7.28618e-06
1.28796e-05
-6.22611e-07
1.21686e-06
-6.28537e-07
2.69255e-07
2.3896e-07
-1.49589e-06
2.20008e-06
-3.61562e-06
5.4597e-06
-7.42771e-06
-1.2368e-05
1.05415e-05
-5.53622e-07
1.77048e-06
-4.0694e-07
1.22573e-07
5.36621e-07
-2.43945e-06
2.4991e-06
-5.5781e-06
5.41022e-06
-1.03388e-05
-1.61301e-05
9.17236e-06
-4.71497e-07
2.24198e-06
-2.42448e-07
-1.06476e-07
7.03035e-07
-3.38493e-06
2.53315e-06
-7.40821e-06
5.06739e-06
-1.28731e-05
-1.89918e-05
7.92905e-06
-3.90073e-07
2.63205e-06
-1.28255e-07
-3.68294e-07
7.59194e-07
-4.27238e-06
2.38697e-06
-9.03599e-06
4.52195e-06
-1.50081e-05
-2.11685e-05
6.69865e-06
-3.15854e-07
2.9479e-06
-5.80407e-08
-6.26107e-07
7.2772e-07
-5.05814e-06
2.11626e-06
-1.04245e-05
3.87028e-06
-1.67621e-05
-2.27993e-05
5.50111e-06
-2.51762e-07
3.19967e-06
-2.55893e-08
-8.5228e-07
6.27851e-07
-5.71158e-06
1.76019e-06
-1.15569e-05
3.15593e-06
-1.81578e-05
-2.39848e-05
4.34144e-06
-1.9832e-07
3.39799e-06
-2.41313e-08
-1.02647e-06
4.76494e-07
-6.21221e-06
1.3477e-06
-1.24281e-05
2.40675e-06
-1.92169e-05
-2.47956e-05
3.21755e-06
-1.54383e-07
3.55237e-06
-4.61977e-08
-1.13465e-06
2.88617e-07
-6.54702e-06
8.99113e-07
-1.30386e-05
1.64374e-06
-1.99615e-05
-2.5283e-05
2.13115e-06
-1.17669e-07
3.67004e-06
-8.37578e-08
-1.16857e-06
7.90773e-08
-6.70986e-06
4.29692e-07
-1.33892e-05
8.79311e-07
-2.04111e-05
-2.54876e-05
1.08385e-06
-8.51502e-08
3.75519e-06
-1.28462e-07
-1.12525e-06
-1.41662e-07
-6.69666e-06
-4.53446e-08
-1.34855e-05
1.20066e-07
-2.05765e-05
-2.54357e-05
6.82333e-08
-5.34132e-08
3.8086e-06
-1.71757e-07
-1.00691e-06
-3.58335e-07
-6.51008e-06
-5.16733e-07
-1.33271e-05
-6.1248e-07
-2.04808e-05
-2.51635e-05
-8.84735e-07
-1.89366e-08
3.82754e-06
-2.05307e-07
-8.20539e-07
-5.58222e-07
-6.15716e-06
-9.67195e-07
-1.29181e-05
-1.32002e-06
-2.01279e-05
-2.46836e-05
-1.79988e-06
2.12508e-08
3.80629e-06
-2.21175e-07
-5.78113e-07
-7.28748e-07
-5.64959e-06
-1.3842e-06
-1.22627e-05
-1.99123e-06
-1.95209e-05
-2.40115e-05
-2.66333e-06
6.99198e-08
3.73637e-06
-2.12084e-07
-2.9611e-07
-8.572e-07
-5.00448e-06
-1.75326e-06
-1.13666e-05
-2.61565e-06
-1.86585e-05
-2.3157e-05
-3.47012e-06
1.2895e-07
3.60742e-06
-1.71748e-07
4.58861e-09
-9.30718e-07
-4.24551e-06
-2.05805e-06
-1.02393e-05
-3.18138e-06
-1.75352e-05
-2.21227e-05
-4.21572e-06
2.00021e-07
3.4074e-06
-9.52714e-08
2.99881e-07
-9.35871e-07
-3.40491e-06
-2.27934e-06
-8.89581e-06
-3.67327e-06
-1.61413e-05
-2.0901e-05
-4.895e-06
2.84088e-07
3.12331e-06
2.00151e-08
5.63953e-07
-8.59331e-07
-2.52556e-06
-2.39441e-06
-7.36074e-06
-4.06981e-06
-1.44659e-05
-1.94681e-05
-5.50272e-06
3.80941e-07
2.74237e-06
1.734e-07
7.71495e-07
-6.89867e-07
-1.66229e-06
-2.37627e-06
-5.67433e-06
-4.33971e-06
-1.25024e-05
-1.77751e-05
-6.0327e-06
4.86327e-07
2.25604e-06
3.56898e-07
9.00924e-07
-4.22859e-07
-8.82537e-07
-2.19091e-06
-3.90628e-06
-4.44047e-06
-1.02529e-05
-1.57405e-05
-6.47508e-06
5.50295e-07
1.70575e-06
5.52734e-07
8.98484e-07
-6.96876e-08
-2.60115e-07
-1.79316e-06
-2.18281e-06
-4.31871e-06
-7.72732e-06
-1.32623e-05
-6.79684e-06
5.94366e-07
1.11138e-06
7.45859e-07
7.46991e-07
3.64999e-07
1.20744e-07
-1.11405e-06
-7.03764e-07
-3.87486e-06
-4.96651e-06
-1.02339e-05
-6.90327e-06
6.21477e-07
4.89904e-07
9.1739e-07
4.51078e-07
8.23463e-07
2.14672e-07
3.66381e-08
8.30609e-08
-2.78304e-06
-2.14683e-06
-6.1061e-06
-6.91087e-06
4.89904e-07
9.40982e-07
1.15565e-06
1.23871e-06
-9.08112e-07
-7.01422e-06
1.33315e-05
-3.21113e-05
1.39124e-05
-4.26024e-05
1.40617e-05
-4.72916e-05
1.40818e-05
-4.94408e-05
1.40866e-05
-5.03785e-05
1.41241e-05
-5.08212e-05
1.42167e-05
-5.10961e-05
1.43671e-05
-5.13382e-05
1.45677e-05
-5.15971e-05
1.48071e-05
-5.18855e-05
1.5073e-05
-5.22014e-05
1.53544e-05
-5.25377e-05
1.56418e-05
-5.28863e-05
1.59274e-05
-5.32396e-05
1.6205e-05
-5.35901e-05
1.64699e-05
-5.39301e-05
1.6719e-05
-5.42513e-05
1.69513e-05
-5.45443e-05
1.71674e-05
-5.47973e-05
1.73702e-05
-5.49961e-05
1.75649e-05
-5.51227e-05
1.77592e-05
-5.51556e-05
1.79677e-05
-5.50692e-05
-5.48324e-05
1.19797e-05
-3.35496e-05
1.25269e-05
-4.31496e-05
1.2582e-05
-4.73467e-05
1.24361e-05
-4.92948e-05
1.22776e-05
-5.022e-05
1.21653e-05
-5.07088e-05
1.21113e-05
-5.10422e-05
1.21134e-05
-5.13404e-05
1.21626e-05
-5.16463e-05
1.22475e-05
-5.19704e-05
1.23568e-05
-5.23107e-05
1.24805e-05
-5.26614e-05
1.26103e-05
-5.30161e-05
1.27391e-05
-5.33685e-05
1.28616e-05
-5.37126e-05
1.29737e-05
-5.40422e-05
1.3073e-05
-5.43506e-05
1.31589e-05
-5.46302e-05
1.32331e-05
-5.48715e-05
1.32997e-05
-5.50627e-05
1.33648e-05
-5.51878e-05
1.34373e-05
-5.5228e-05
1.35333e-05
-5.51652e-05
-5.49814e-05
1.07797e-05
-3.51569e-05
1.10717e-05
-4.34416e-05
1.0946e-05
-4.7221e-05
1.06751e-05
-4.9024e-05
1.03939e-05
-4.99388e-05
1.01518e-05
-5.04666e-05
9.96207e-06
-5.08525e-05
9.8233e-06
-5.12016e-05
9.72701e-06
-5.155e-05
9.66274e-06
-5.19062e-05
9.62051e-06
-5.22685e-05
9.59171e-06
-5.26326e-05
9.56921e-06
-5.29936e-05
9.54719e-06
-5.33465e-05
9.521e-06
-5.36864e-05
9.48718e-06
-5.40083e-05
9.44359e-06
-5.4307e-05
9.38985e-06
-5.45765e-05
9.32773e-06
-5.48094e-05
9.26148e-06
-5.49964e-05
9.19742e-06
-5.51238e-05
9.14404e-06
-5.51747e-05
9.11995e-06
-5.51411e-05
-5.50275e-05
9.32259e-06
-3.65505e-05
9.46963e-06
-4.35887e-05
9.23007e-06
-4.69814e-05
8.85857e-06
-4.86525e-05
8.46574e-06
-4.9546e-05
8.10258e-06
-5.01035e-05
7.78477e-06
-5.05347e-05
7.51106e-06
-5.09279e-05
7.27389e-06
-5.13129e-05
7.06435e-06
-5.16966e-05
6.87425e-06
-5.20784e-05
6.6967e-06
-5.2455e-05
6.52605e-06
-5.28229e-05
6.35776e-06
-5.31782e-05
6.18823e-06
-5.35169e-05
6.01474e-06
-5.38348e-05
5.83556e-06
-5.41278e-05
5.65026e-06
-5.43912e-05
5.46012e-06
-5.46193e-05
5.26877e-06
-5.48051e-05
5.08154e-06
-5.49365e-05
4.89972e-06
-5.49929e-05
4.72118e-06
-5.49625e-05
-5.49859e-05
7.79363e-06
-3.76455e-05
7.83285e-06
-4.36279e-05
7.4911e-06
-4.66397e-05
7.01891e-06
-4.81803e-05
6.52009e-06
-4.90472e-05
6.04155e-06
-4.96249e-05
5.59902e-06
-5.00922e-05
5.19261e-06
-5.05215e-05
4.81656e-06
-5.09368e-05
4.46389e-06
-5.1344e-05
4.12822e-06
-5.17427e-05
3.80432e-06
-5.21311e-05
3.48805e-06
-5.25067e-05
3.17622e-06
-5.28664e-05
2.86648e-06
-5.32071e-05
2.55726e-06
-5.35256e-05
2.24783e-06
-5.38184e-05
1.93847e-06
-5.40818e-05
1.63059e-06
-5.43114e-05
1.32725e-06
-5.45017e-05
1.03699e-06
-5.46463e-05
7.85772e-07
-5.47416e-05
6.03291e-07
-5.47801e-05
-5.46387e-05
6.28548e-06
-3.84298e-05
6.19819e-06
-4.35406e-05
5.75556e-06
-4.6197e-05
5.18297e-06
-4.76077e-05
4.57789e-06
-4.84421e-05
3.98438e-06
-4.90314e-05
3.41802e-06
-4.95258e-05
2.88014e-06
-4.99836e-05
2.36665e-06
-5.04233e-05
1.87242e-06
-5.08497e-05
1.39275e-06
-5.12631e-05
9.23897e-07
-5.16623e-05
4.63016e-07
-5.20458e-05
8.07457e-09
-5.24114e-05
-4.42225e-07
-5.27568e-05
-8.88447e-07
-5.30794e-05
-1.3304e-06
-5.33765e-05
-1.76709e-06
-5.36451e-05
-2.19661e-06
-5.38819e-05
-2.61536e-06
-5.4083e-05
-3.01629e-06
-5.42453e-05
-3.39287e-06
-5.43651e-05
-3.75988e-06
-5.4413e-05
-5.43301e-05
4.82614e-06
-3.89145e-05
4.59588e-06
-4.33103e-05
4.04555e-06
-4.56467e-05
3.36854e-06
-4.69307e-05
2.65498e-06
-4.77286e-05
1.94557e-06
-4.8322e-05
1.25528e-06
-4.88355e-05
5.86342e-07
-4.93146e-05
-6.36612e-08
-4.97733e-05
-6.98305e-07
-5.02151e-05
-1.32075e-06
-5.06406e-05
-1.93359e-06
-5.10495e-05
-2.5387e-06
-5.14407e-05
-3.13742e-06
-5.18127e-05
-3.73049e-06
-5.21637e-05
-4.31818e-06
-5.24917e-05
-4.90025e-06
-5.27944e-05
-5.47597e-06
-5.30694e-05
-6.04396e-06
-5.33139e-05
-6.60209e-06
-5.35249e-05
-7.14855e-06
-5.36989e-05
-7.68546e-06
-5.38282e-05
-8.2096e-06
-5.38889e-05
-5.38931e-05
3.42153e-06
-3.91185e-05
3.03928e-06
-4.29281e-05
2.37433e-06
-4.49818e-05
1.58884e-06
-4.61452e-05
7.64279e-07
-4.6904e-05
-6.24102e-08
-4.74953e-05
-8.77319e-07
-4.80206e-05
-1.67701e-06
-4.85149e-05
-2.46261e-06
-4.89877e-05
-3.23624e-06
-4.94414e-05
-3.99995e-06
-4.98769e-05
-4.75533e-06
-5.02941e-05
-5.5036e-06
-5.06924e-05
-6.24555e-06
-5.10707e-05
-6.98168e-06
-5.14276e-05
-7.71211e-06
-5.17613e-05
-8.43664e-06
-5.20699e-05
-9.15464e-06
-5.23514e-05
-9.86496e-06
-5.26036e-05
-1.05659e-05
-5.28239e-05
-1.12558e-05
-5.3009e-05
-1.19321e-05
-5.31519e-05
-1.2583e-05
-5.3238e-05
-5.331e-05
2.07322e-06
-3.90606e-05
1.53673e-06
-4.23916e-05
7.52591e-07
-4.41976e-05
-1.44382e-07
-4.52482e-05
-1.08338e-06
-4.5965e-05
-2.02913e-06
-4.65496e-05
-2.96867e-06
-4.70811e-05
-3.89843e-06
-4.75852e-05
-4.81829e-06
-4.80679e-05
-5.72916e-06
-4.85306e-05
-6.63207e-06
-4.8974e-05
-7.52784e-06
-4.93983e-05
-8.41709e-06
-4.98031e-05
-9.30024e-06
-5.01876e-05
-1.01775e-05
-5.05504e-05
-1.10488e-05
-5.089e-05
-1.19138e-05
-5.12049e-05
-1.27716e-05
-5.14936e-05
-1.36208e-05
-5.17543e-05
-1.44594e-05
-5.19854e-05
-1.52844e-05
-5.2184e-05
-1.60914e-05
-5.23449e-05
-1.687e-05
-5.24594e-05
-5.2589e-05
7.83307e-07
-3.876e-05
9.51568e-08
-4.17034e-05
-8.12489e-07
-4.329e-05
-1.82498e-06
-4.42357e-05
-2.87876e-06
-4.49112e-05
-3.94398e-06
-4.54843e-05
-5.00813e-06
-4.60169e-05
-6.06692e-06
-4.65264e-05
-7.11926e-06
-4.70155e-05
-8.16506e-06
-4.74848e-05
-9.20449e-06
-4.79346e-05
-1.02377e-05
-4.83651e-05
-1.12649e-05
-4.8776e-05
-1.2286e-05
-4.91665e-05
-1.3301e-05
-4.95354e-05
-1.43096e-05
-4.98814e-05
-1.53112e-05
-5.02033e-05
-1.63046e-05
-5.05001e-05
-1.72881e-05
-5.07709e-05
-1.8259e-05
-5.10144e-05
-1.92138e-05
-5.12291e-05
-2.01475e-05
-5.14112e-05
-2.1051e-05
-5.15559e-05
-5.17379e-05
-4.46722e-07
-3.82451e-05
-1.28404e-06
-4.08661e-05
-2.31436e-06
-4.22597e-05
-3.44267e-06
-4.31074e-05
-4.61293e-06
-4.3741e-05
-5.79784e-06
-4.42994e-05
-6.9858e-06
-4.4829e-05
-8.17199e-06
-4.53402e-05
-9.35448e-06
-4.5833e-05
-1.05323e-05
-4.63069e-05
-1.17051e-05
-4.67618e-05
-1.28722e-05
-4.71979e-05
-1.40335e-05
-4.76147e-05
-1.51886e-05
-4.80114e-05
-1.63371e-05
-4.83868e-05
-1.74786e-05
-4.87399e-05
-1.8612e-05
-4.90699e-05
-1.97361e-05
-4.93761e-05
-2.08487e-05
-4.96583e-05
-2.19468e-05
-4.99163e-05
-2.30266e-05
-5.01493e-05
-2.40828e-05
-5.03549e-05
-2.51076e-05
-5.05312e-05
-5.07615e-05
-1.61302e-06
-3.75168e-05
-2.59407e-06
-3.98851e-05
-3.74699e-06
-4.11067e-05
-4.99142e-06
-4.1863e-05
-6.27806e-06
-4.24543e-05
-7.58206e-06
-4.29954e-05
-8.89235e-06
-4.35187e-05
-1.02037e-05
-4.40289e-05
-1.15134e-05
-4.45233e-05
-1.282e-05
-4.50003e-05
-1.41222e-05
-4.54596e-05
-1.54193e-05
-4.59009e-05
-1.67103e-05
-4.63236e-05
-1.79949e-05
-4.67269e-05
-1.92722e-05
-4.71095e-05
-2.05416e-05
-4.74705e-05
-2.1802e-05
-4.78095e-05
-2.30515e-05
-4.81265e-05
-2.4288e-05
-4.84218e-05
-2.55081e-05
-4.86962e-05
-2.6708e-05
-4.89495e-05
-2.78825e-05
-4.91803e-05
-2.90247e-05
-4.93891e-05
-4.9664e-05
-2.7146e-06
-3.66021e-05
-3.83231e-06
-3.87674e-05
-5.10533e-06
-3.98337e-05
-6.46489e-06
-4.05034e-05
-7.86694e-06
-4.10523e-05
-9.28857e-06
-4.15738e-05
-1.0719e-05
-4.20883e-05
-1.21526e-05
-4.25952e-05
-1.35862e-05
-4.30897e-05
-1.50176e-05
-4.3569e-05
-1.64451e-05
-4.40321e-05
-1.78675e-05
-4.44785e-05
-1.92837e-05
-4.49075e-05
-2.06928e-05
-4.53178e-05
-2.20939e-05
-4.57084e-05
-2.3486e-05
-4.60784e-05
-2.48679e-05
-4.64277e-05
-2.62375e-05
-4.67568e-05
-2.75924e-05
-4.70669e-05
-2.89293e-05
-4.73593e-05
-3.02442e-05
-4.76346e-05
-3.15325e-05
-4.7892e-05
-3.27881e-05
-4.81335e-05
-4.84495e-05
-3.74862e-06
-3.55168e-05
-4.99492e-06
-3.75211e-05
-6.38447e-06
-3.84442e-05
-7.8571e-06
-3.90308e-05
-9.37276e-06
-3.95366e-05
-1.09098e-05
-4.00368e-05
-1.24575e-05
-4.05406e-05
-1.40099e-05
-4.10428e-05
-1.55634e-05
-4.15362e-05
-1.71152e-05