/*--------------------------------*- C++ -*----------------------------------*\
  =========                 |
  \\      /  F ield         | OpenFOAM: The Open Source CFD Toolbox
   \\    /   O peration     | Website:  https://openfoam.org
    \\  /    A nd           | Version:  11
     \\/     M anipulation  |
\*---------------------------------------------------------------------------*/
FoamFile
{
    format      ascii;
    class       volScalarField;
    location    "0.5";
    object      epsilon;
}
// * * * * * * * * * * * * * * * * * * * * * * * * * * * * * * * * * * * * * //

dimensions      [0 2 -3 0 0 0 0];

internalField   nonuniform List<scalar> 
2880
(
1.86783
3.01975
6.06506
6.87313
6.6387
6.22162
0.816696
2.31709
3.55984
3.82402
3.58058
3.03631
0.232104
2.01091
2.62056
2.67328
2.40928
2.0167
0.261148
1.80961
2.16374
2.12202
1.88563
1.63133
1.18599
1.65559
1.87817
1.79893
1.60861
1.46243
1.27032
1.53888
1.67469
1.588
1.44548
1.37134
1.38966
1.43303
1.51916
1.43828
1.3411
1.30621
1.48257
1.34292
1.39521
1.32558
1.26295
1.2529
1.54843
1.26602
1.29327
1.2358
1.196
1.20359
1.58781
1.1996
1.20725
1.15982
1.13429
1.15404
1.59993
1.14211
1.13312
1.09233
1.07541
1.10293
1.59112
1.09305
1.06847
1.0304
1.0186
1.05133
1.56418
1.0537
1.01163
0.972761
0.963815
1.00178
1.52681
1.02386
0.961468
0.918776
0.911592
0.957934
1.47713
1.00034
0.916794
0.868179
0.862912
0.923861
1.41357
0.978091
0.875953
0.820845
0.818755
0.904324
1.33322
0.947477
0.836426
0.776827
0.779916
0.904421
1.21356
0.889251
0.794861
0.736443
0.747204
0.928303
0.276824
0.762311
0.749006
0.701312
0.721996
0.984331
0.266301
0.670951
0.708064
0.675085
0.706911
1.07718
0.250769
0.621937
0.689792
0.666742
0.708377
1.18606
0.229846
0.642733
0.717307
0.697278
0.738638
1.29508
0.867292
0.874935
0.890635
0.859987
0.859004
1.51005
2.17854
2.12402
1.93988
1.76658
1.48033
1.57624
1.92233
1.54845
1.57719
1.71746
1.86604
1.99606
2.08063
2.11791
2.11984
2.0774
2.00258
1.90663
1.79889
1.68678
1.57581
1.46984
1.3714
1.28209
1.20271
1.1335
1.07439
1.02518
0.986061
0.957759
1.6834
1.50248
1.57801
1.74278
1.92134
2.08321
2.19573
2.24851
2.25764
2.21326
2.12971
2.02126
1.89965
1.7738
1.65004
1.53258
1.424
1.32568
1.23817
1.16143
1.09518
1.03936
0.994213
0.959407
1.5366
1.48078
1.60505
1.80803
2.03688
2.25423
2.42289
2.51569
2.54723
2.51832
2.43976
2.32809
2.19859
2.06226
1.92652
1.79612
1.67386
1.56123
1.45885
1.36687
1.28531
1.2145
1.15439
1.10412
1.45342
1.47874
1.64794
1.89748
2.19032
2.47882
2.70989
2.84947
2.90175
2.87205
2.77657
2.64855
2.50553
2.35876
2.21536
2.07945
1.95312
1.83714
1.73147
1.63574
1.54967
1.4732
1.40545
1.3405
1.40307
1.4891
1.69526
1.99396
2.356
2.71441
2.98253
3.1062
3.10308
3.02112
2.90132
2.7578
2.60431
2.45075
2.30334
2.16551
2.03871
1.92309
1.81815
1.72316
1.63752
1.56091
1.49323
1.42058
1.3707
1.49983
1.73745
2.08519
2.51742
2.92714
3.16314
3.19899
3.13395
2.99821
2.8257
2.64277
2.46413
2.29773
2.14669
2.01159
1.89145
1.78444
1.68871
1.60243
1.52473
1.45321
1.39399
1.3181
1.34579
1.504
1.77032
2.17303
2.68755
3.10048
3.25651
3.17055
2.91951
2.62218
2.34438
2.09553
1.88155
1.70185
1.55148
1.42568
1.32014
1.23044
1.15298
1.08369
1.02324
0.961563
0.919687
0.847116
1.319
1.49884
1.79736
2.28036
2.90586
3.30233
3.28187
2.94595
2.43593
2.00176
1.65011
1.36017
1.12971
0.948295
0.807129
0.696934
0.609857
0.540313
0.484095
0.436771
0.397837
0.36041
0.3357
0.296473
1.28639
1.48523
1.83028
2.4537
3.22575
3.51601
3.2621
2.58822
1.97355
1.5237
1.18537
0.93501
0.740373
0.588563
0.471167
0.381295
0.312711
0.260025
0.219533
0.187819
0.162871
0.142079
0.127135
0.110477
1.24786
1.469
1.89145
2.75913
3.65829
3.67239
3.10581
2.24066
1.66261
1.26586
0.974716
0.748286
0.571064
0.433779
0.329287
0.251534
0.19478
0.153596
0.123223
0.10063
0.0837661
0.0709283
0.0617017
0.0547684
1.2066
1.46368
2.02882
3.27728
4.07534
3.76063
2.77514
1.96236
1.44408
1.08084
0.811103
0.604548
0.448321
0.332329
0.247134
0.184711
0.139012
0.105721
0.081635
0.0643191
0.0520516
0.0436207
0.0381769
0.0356284
1.16922
1.49451
2.32668
4.01609
4.35983
3.68675
2.45776
1.72262
1.23969
0.893425
0.639485
0.45371
0.321884
0.230304
0.167271
0.12379
0.0934183
0.0718291
0.0562555
0.0449383
0.0367938
0.0312682
0.0281661
0.0276175
1.14571
1.60288
2.93605
4.73916
4.47674
3.25866
2.15112
1.48581
1.03467
0.718143
0.493755
0.338195
0.232877
0.162313
0.115108
0.0834495
0.0621217
0.0476651
0.0378107
0.0311162
0.0267083
0.0241065
0.0231462
0.0236159
1.14897
1.84306
3.95833
5.07355
4.38169
2.82356
1.85475
1.25108
0.842665
0.563323
0.375795
0.253117
0.17337
0.121155
0.0864897
0.0631342
0.0472285
0.03637
0.0290418
0.0242715
0.0214308
0.0201163
0.0201485
0.0210425
1.19594
2.30083
5.14603
5.15376
3.88642
2.41107
1.57135
1.02922
0.667857
0.431228
0.281266
0.186955
0.127266
0.0889651
0.063959
0.0473377
0.0361248
0.0285178
0.0234282
0.0201975
0.0184129
0.0178219
0.0181601
0.0192906
1.31688
3.15781
5.72314
5.09845
3.2832
2.05984
1.31045
0.82406
0.515218
0.325967
0.210639
0.139629
0.0951307
0.0666956
0.0481898
0.0359648
0.0278173
0.022404
0.0189047
0.0168207
0.0158378
0.0157685
0.0163449
0.0175819
1.53966
4.51336
5.85074
4.62633
2.80972
1.73835
1.06205
0.643434
0.393943
0.246725
0.159082
0.105827
0.0726491
0.0514571
0.0376227
0.0284455
0.0223198
0.0182753
0.0157192
0.0142861
0.0137397
0.0138892
0.0146085
0.015792
1.8905
5.87237
5.77498
4.08455
2.43855
1.44197
0.842809
0.496444
0.299539
0.186819
0.120741
0.0808191
0.0559642
0.0400657
0.0296642
0.0227502
0.0181324
0.0150958
0.0132076
0.0122022
0.0119075
0.0121546
0.0129047
0.0139827
2.45937
6.54504
5.70975
3.52584
2.03773
1.15515
0.653901
0.378617
0.227462
0.14231
0.0925902
0.0624946
0.0436803
0.0315912
0.0236502
0.0183561
0.0148169
0.0124967
0.0110723
0.0103462
0.0101913
0.0104717
0.0111847
0.0121497
3.46652
6.75563
5.37011
3.09032
1.69764
0.915163
0.503019
0.288552
0.173659
0.109336
0.0717074
0.0488252
0.0344454
0.0251568
0.0190235
0.0149146
0.0121557
0.0103417
0.00922911
0.00867093
0.00857308
0.00883644
0.00946879
0.0103193
5.04315
6.81775
5.00036
2.6419
1.34718
0.699422
0.381192
0.219666
0.133291
0.084648
0.0559869
0.0384429
0.027353
0.0201504
0.0153688
0.0121464
0.00996732
0.00852067
0.00762068
0.00715708
0.00706165
0.00727125
0.00779572
0.00853297
7.46089
7.28562
4.47006
2.13038
1.03617
0.5308
0.290069
0.168461
0.103113
0.0660356
0.044026
0.0304622
0.0218362
0.0162023
0.0124409
0.00988891
0.00814657
0.00697135
0.00621804
0.00580166
0.00567284
0.00579911
0.00619385
0.0068166
9.59023
7.59236
3.54214
1.62099
0.775229
0.398866
0.220598
0.129705
0.0802394
0.051848
0.0348338
0.0242673
0.0175035
0.0130601
0.0100759
0.00803638
0.00662801
0.00565805
0.00500922
0.00461212
0.00442743
0.00444258
0.00467972
0.00517376
12.239
7.06901
2.82232
1.20433
0.573115
0.299781
0.168669
0.100545
0.0628707
0.0409741
0.0277224
0.019427
0.0140816
0.0105488
0.00816154
0.00651737
0.00536795
0.00455768
0.00398868
0.00359956
0.00335204
0.00323155
0.00327638
0.00359117
2.3883
4.77306
7.02318
7.63274
7.9242
32.7169
0.974173
2.37637
3.7813
4.847
5.62138
9.61049
0.259758
1.95576
3.07641
4.01469
4.55446
5.24442
0.279492
1.85568
2.78222
3.48775
3.65091
3.49488
1.24252
1.85247
2.60992
3.04693
2.94393
2.4925
1.37971
1.85869
2.48498
2.68939
2.4182
1.83267
1.49369
1.8675
2.38505
2.41938
2.01518
1.42195
1.57858
1.87247
2.30005
2.22217
1.71324
1.14851
1.63546
1.86922
2.22759
2.06705
1.4916
0.959158
1.66754
1.85543
2.16585
1.94282
1.32791
0.824072
1.67908
1.83097
2.11283
1.84636
1.20733
0.725588
1.67583
1.7972
2.06688
1.77705
1.1198
0.653194
1.6605
1.7554
2.02859
1.73395
1.05822
0.600581
1.6228
1.70601
1.99973
1.71576
1.0189
0.563754
1.55784
1.64918
1.98003
1.71934
1.00089
0.539937
1.46624
1.58412
1.96904
1.74649
1.00498
0.527688
1.35472
1.50848
1.96369
1.79666
1.03406
0.526966
1.23548
1.41807
1.96036
1.86951
1.09402
0.538713
0.280174
1.30585
1.95545
1.96398
1.19546
0.566474
0.269428
1.17737
1.94402
2.07793
1.35693
0.618094
0.251935
1.04918
1.90748
2.21396
1.61119
0.713012
0.228618
0.950579
1.83063
2.37748
2.01603
0.90771
0.851363
0.958047
1.75028
2.61838
2.64922
1.43244
1.95099
1.65726
2.16055
3.3282
3.58162
3.16119
14.8885
4.68416
1.8283
0.830995
0.417617
0.22582
0.129738
0.0784708
0.0495995
0.0325931
0.0221949
0.0156328
0.0113756
0.00854478
0.00661978
0.00528345
0.00433771
0.00365588
0.00315493
0.00277817
0.00248357
0.00224171
0.00205806
0.00206271
6.22173
2.65197
1.22914
0.600508
0.311558
0.172227
0.100707
0.0617465
0.0394302
0.0261115
0.0178862
0.0126547
0.00923904
0.00695478
0.00539236
0.00430009
0.00351929
0.00294713
0.00251456
0.00217231
0.00188133
0.00160957
0.00133753
0.000950141
3.59605
1.80119
0.874415
0.43838
0.23392
0.132509
0.0789182
0.0490277
0.0316069
0.0210787
0.0145165
0.0103136
0.00755411
0.00569999
0.00442632
0.00353208
0.00288989
0.00241701
0.00205801
0.00177339
0.00153183
0.00130807
0.00108471
0.000784281
2.37958
1.23872
0.621647
0.323756
0.178317
0.103359
0.0625588
0.0393117
0.0255554
0.0171504
0.0118694
0.00846644
0.00622188
0.00470832
0.00366572
0.00293224
0.00240491
0.00201672
0.00172272
0.00149052
0.0012935
0.00111041
0.000931448
0.000706755
1.61481
0.868002
0.453288
0.24468
0.138427
0.0817786
0.0501699
0.0318351
0.0208448
0.0140667
0.00977833
0.00700092
0.00516204
0.00391867
0.00306059
0.00245624
0.00202153
0.00170154
0.0014593
0.00126794
0.0011051
0.000954087
0.000810671
0.000642189
1.15906
0.633726
0.341192
0.189352
0.109404
0.0656272
0.0407089
0.0260419
0.0171556
0.0116317
0.0081168
0.00583074
0.00431268
0.00328419
0.00257355
0.00207271
0.00171237
0.00144714
0.0012464
0.00108786
0.000953013
0.000829113
0.000715117
0.000588411
0.871985
0.480872
0.264557
0.149867
0.0879891
0.0534139
0.0334257
0.0215228
0.0142485
0.00969786
0.00678877
0.0048906
0.00362742
0.00277054
0.00217817
0.00176069
0.00146045
0.00123963
0.00107275
0.000941265
0.000829949
0.000729132
0.000639297
0.000544145
0.684419
0.378272
0.210927
0.121177
0.0719751
0.0440851
0.027774
0.0179738
0.0119441
0.00815334
0.00572161
0.00413128
0.00307162
0.00235252
0.00185557
0.00150568
0.00125443
0.00107007
0.000931207
0.000822344
0.000730917
0.000649533
0.00057922
0.000507969
0.557248
0.30717
0.172462
0.0999562
0.059844
0.0368898
0.0233545
0.0151686
0.010107
0.00691353
0.00486008
0.00351541
0.00261913
0.00201125
0.00159175
0.00129704
0.00108606
0.000931858
0.000816357
0.000726482
0.000651796
0.000586556
0.000531789
0.00047858
0.468103
0.256458
0.144262
0.0840058
0.0505452
0.0312896
0.0198735
0.012938
0.00863501
0.00591388
0.00416191
0.00301429
0.00224986
0.00173223
0.00137593
0.00112653
0.000948817
0.000819714
0.000723747
0.000649781
0.00058907
0.000537039
0.000494477
0.000454818
0.404052
0.219455
0.123208
0.0718512
0.0433427
0.0268956
0.0171138
0.0111548
0.00745028
0.00510489
0.00359443
0.00260565
0.00194808
0.00150401
0.00119951
0.000987471
0.000837361
0.000729176
0.000649525
0.000588817
0.000539651
0.000498288
0.000465214
0.000435697
0.357251
0.192003
0.107264
0.0624839
0.0377148
0.0234241
0.0149139
0.009723
0.00649335
0.00444836
0.00313223
0.00227198
0.00170136
0.00131744
0.00105555
0.000874394
0.000747208
0.000656449
0.000590379
0.000540644
0.000500924
0.000468089
0.000442351
0.000420415
0.322772
0.171391
0.0950725
0.055202
0.033287
0.0206668
0.0131531
0.00856965
0.00571855
0.00391463
0.00275536
0.00199943
0.00149973
0.00116513
0.000938338
0.000782737
0.000674587
0.000598307
0.000543484
0.000502766
0.000470714
0.000444656
0.000424587
0.00040832
0.297489
0.155838
0.0857104
0.0495091
0.0297876
0.0184696
0.0117405
0.00763923
0.00509069
0.00348059
0.00244814
0.00177697
0.00133518
0.00104104
0.000843164
0.000708703
0.000616328
0.000552031
0.000506466
0.000473109
0.000447251
0.000426569
0.000410901
0.000398877
0.279385
0.144165
0.0785138
0.0450493
0.0270181
0.0167178
0.0106076
0.00688935
0.00458255
0.00312819
0.00219815
0.00159579
0.00120121
0.000940226
0.000766151
0.000649136
0.000569785
0.00051535
0.00047736
0.000449982
0.000429115
0.000412711
0.000400485
0.000391637
0.267185
0.135566
0.0730131
0.0415665
0.0248328
0.0153263
0.00970285
0.00628765
0.00417314
0.0028433
0.00199559
0.00144881
0.0010926
0.000858669
0.0007041
0.000601423
0.000532768
0.000486401
0.000454567
0.000432022
0.000415179
0.000402201
0.000392695
0.000386219
0.260153
0.129488
0.0688769
0.0388766
0.023125
0.014232
0.0089876
0.00580958
0.00384631
0.00261495
0.00183274
0.00133044
0.0010051
0.000793078
0.000654382
0.000563407
0.000503479
0.000463664
0.0004368
0.000418143
0.000404541
0.000394332
0.000387009
0.000382295
0.258015
0.125559
0.0658657
0.0368497
0.0218176
0.0133886
0.00843321
0.0054367
0.00358979
0.0024347
0.00170357
0.00123624
0.000935347
0.0007408
0.000614851
0.000533317
0.00048044
0.000445907
0.000423031
0.000407479
0.000396467
0.000388498
0.000382965
0.000379572
0.261
0.123551
0.0638015
0.0353993
0.0208563
0.0127638
0.00801918
0.00515553
0.00339443
0.00229614
0.00160348
0.00116278
0.000880704
0.000699742
0.000583795
0.000509726
0.000462453
0.000432128
0.000412427
0.000399339
0.000390364
0.000384162
0.000380129
0.000377718
0.270018
0.123367
0.0625781
0.0344455
0.0202056
0.0123363
0.00773165
0.00495667
0.00325368
0.00219462
0.00152909
0.00110752
0.000839202
0.000668334
0.000559926
0.000491557
0.000448609
0.000421564
0.000404365
0.000393238
0.000385881
0.000381034
0.000378092
0.000376442
0.286985
0.124736
0.0621087
0.0339485
0.0198483
0.0120949
0.00756249
0.00483409
0.00316316
0.00212695
0.00147802
0.00106865
0.00080944
0.000645464
0.000542343
0.000478065
0.000438285
0.000413688
0.000398388
0.000388777
0.000382685
0.000378887
0.000376735
0.000375665
0.315498
0.127706
0.0623123
0.0338994
0.0197845
0.012037
0.00750831
0.0047846
0.00312032
0.0020912
0.00144878
0.001045
0.000790473
0.000630365
0.000530415
0.000468723
0.000431034
0.000408111
0.000394149
0.000385631
0.000380468
0.000377458
0.000375939
0.000375251
0.360849
0.131756
0.0631359
0.0343104
0.0200241
0.0121589
0.00756158
0.00480433
0.00312365
0.00208656
0.00144066
0.00103593
0.000781744
0.00062255
0.000523718
0.000463157
0.000426527
0.000404547
0.000391396
0.000383575
0.000379024
0.000376602
0.000375484
0.000375067
0.415216
0.135696
0.0646774
0.0352697
0.0206054
0.0124894
0.00774447
0.00490222
0.00317357
0.00211083
0.00145185
0.00104052
0.000782863
0.000621805
0.000522048
0.000461172
0.000424583
0.000402828
0.000389977
0.000382479
0.000378263
0.00037617
0.000375275
0.000375006
2.57065
3.75661
5.56574
5.07026
4.15173
3.31277
1.00639
2.74796
3.34122
2.7296
1.90659
1.06795
0.271765
2.36204
2.50898
1.82396
1.17447
0.645544
1.34717
2.20828
2.1048
1.43391
0.908137
0.531249
1.76935
2.10187
1.85974
1.24408
0.801488
0.501058
2.14868
2.01317
1.70379
1.15234
0.766125
0.505118
2.47043
1.93688
1.606
1.11646
0.76967
0.530306
2.73103
1.88413
1.54946
1.11672
0.798978
0.572391
2.93187
1.85225
1.52414
1.14129
0.850083
0.629879
3.07646
1.83759
1.52422
1.18814
0.919912
0.703608
3.16856
1.83774
1.54317
1.2532
1.00826
0.795672
3.21112
1.85179
1.58212
1.33533
1.11602
0.90914
3.20999
1.88079
1.6378
1.43403
1.24466
1.04791
3.19428
1.92946
1.70873
1.54889
1.39581
1.21657
3.15612
1.99264
1.79281
1.67889
1.5706
1.42002
3.0876
2.06313
1.8867
1.82168
1.7687
1.66273
2.98058
2.13083
1.98545
1.97284
1.98688
1.94684
2.82583
2.18202
2.0829
2.12409
2.22286
2.27484
2.61208
2.19888
2.16927
2.26905
2.46609
2.65787
2.32516
2.17559
2.23211
2.40929
2.70672
3.10983
1.95202
2.09477
2.28783
2.55564
2.94559
3.68323
1.49022
1.98334
2.40013
2.77073
3.25207
4.60971
1.09589
2.07605
2.82395
3.32719
3.89028
6.63479
3.00187
3.88783
5.33765
5.95728
6.14529
6.20353
0.402386
0.137017
0.0669632
0.0368287
0.0215512
0.0130311
0.00805393
0.00508005
0.00327683
0.00217124
0.0014872
0.00106103
0.000794554
0.000628268
0.000525429
0.000462761
0.000425187
0.000402946
0.000389911
0.000382374
0.000378195
0.000376134
0.000375261
0.000375005
0.32051
0.136809
0.0702291
0.0390768
0.022892
0.0138009
0.00850033
0.00534306
0.00343433
0.00226697
0.00154615
0.00109772
0.00081757
0.000642715
0.000534416
0.000468266
0.000428518
0.000404966
0.00039116
0.000383177
0.000378697
0.000376436
0.000375426
0.000375062
0.286924
0.140235
0.074825
0.0421135
0.0246569
0.0148191
0.00909776
0.00570063
0.00365243
0.00240238
0.00163164
0.00115252
0.000853121
0.00066593
0.000549574
0.000478123
0.000434919
0.000409158
0.000393954
0.000385068
0.000379957
0.00037718
0.00037583
0.000375233
0.279987
0.147822
0.0810102
0.0459724
0.026887
0.016115
0.00986612
0.00616603
0.00394003
0.00258349
0.00174775
0.00122821
0.000903159
0.000699325
0.000571948
0.00049311
0.000444964
0.000415933
0.000398579
0.000388244
0.000382093
0.00037849
0.000376573
0.000375631
0.287954
0.159699
0.089074
0.0507591
0.0296523
0.0177331
0.0108339
0.00675771
0.00430929
0.00281843
0.00190003
0.00132863
0.0009704
0.000744868
0.000602998
0.000514327
0.00045948
0.000425909
0.000405491
0.000393047
0.000385362
0.000380606
0.000377865
0.000376376
0.308047
0.175896
0.0992104
0.0566635
0.0330647
0.0197394
0.0120411
0.00750087
0.00477654
0.00311809
0.00209586
0.00145891
0.00105847
0.000805186
0.000644665
0.000543234
0.000479577
0.000439931
0.000415334
0.000399978
0.000390171
0.000383817
0.000379896
0.000377615
0.337531
0.196777
0.111882
0.0639799
0.0372889
0.0222271
0.0135429
0.00842944
0.00536354
0.00349684
0.002345
0.00162582
0.00117218
0.000883755
0.000699526
0.000581782
0.000506755
0.000459159
0.000429012
0.000409739
0.000397049
0.00038847
0.000382832
0.000379453
0.376534
0.223311
0.127812
0.0731316
0.042557
0.0253253
0.0154139
0.00958879
0.00609901
0.00397355
0.00266025
0.00183826
0.00131786
0.000985201
0.000771036
0.000632615
0.000543076
0.000485209
0.000447769
0.000423251
0.000406623
0.000394978
0.000387083
0.00038216
0.426431
0.257016
0.14803
0.0847115
0.0491922
0.0292116
0.0177554
0.0110395
0.00702086
0.00457298
0.00305835
0.00210791
0.00150388
0.00111566
0.000863811
0.000699284
0.000591315
0.000520257
0.000473291
0.000441787
0.000419844
0.000404077
0.000393198
0.000386101
0.489562
0.300042
0.173979
0.0995503
0.0576456
0.0341314
0.0207055
0.0128626
0.00817931
0.00532762
0.00356117
0.00245
0.00174116
0.00128318
0.000983901
0.000786434
0.000655102
0.000567168
0.000507834
0.000467103
0.000438052
0.000416741
0.000401809
0.000391621
0.569222
0.355333
0.207666
0.118819
0.0685534
0.0404269
0.0244534
0.0151681
0.00964119
0.00628021
0.00419728
0.00288436
0.00204391
0.00149819
0.00113916
0.0009001
0.000739153
0.000629681
0.00055438
0.000501557
0.000463045
0.00043424
0.000413726
0.000399136
0.66976
0.426866
0.25189
0.144184
0.0828236
0.0485827
0.0292634
0.0181059
0.0114963
0.00748734
0.00500407
0.00343674
0.0024305
0.00177422
0.00133978
0.00104812
0.000849618
0.000712697
0.000616869
0.000548294
0.000497249
0.000458306
0.000430051
0.000409178
0.796739
0.51995
0.310547
0.178025
0.101767
0.0592941
0.0355084
0.0218843
0.0138669
0.00902461
0.00603075
0.00414068
0.00292472
0.00212869
0.00159891
0.00124065
0.000994494
0.000822619
0.000700479
0.000611483
0.000543928
0.000491321
0.000452314
0.000422452
0.957071
0.641555
0.389007
0.223749
0.127289
0.0735721
0.0437243
0.0267964
0.0169213
0.0109942
0.00734269
0.00504011
0.00355741
0.0025841
0.00193348
0.00149078
0.00118414
0.000967774
0.000811976
0.000696621
0.000607444
0.000536528
0.000482631
0.000439905
1.15911
0.800621
0.494538
0.286183
0.162169
0.0929007
0.0546911
0.033262
0.0208958
0.0135362
0.00902772
0.00619305
0.00436877
0.00316951
0.00236527
0.00181535
0.00143188
0.00115893
0.00096016
0.000810908
0.000693577
0.000598302
0.000523909
0.000462818
1.4128
1.00819
0.636651
0.372031
0.21043
0.119469
0.0695587
0.0418917
0.026127
0.0168462
0.0112058
0.00767714
0.00541167
0.00392263
0.00292229
0.00223591
0.0017548
0.00140993
0.00115641
0.000963737
0.000809952
0.000682505
0.000580111
0.000492906
1.72993
1.27745
0.827177
0.490251
0.27778
0.15649
0.0900325
0.0535852
0.0331034
0.0212017
0.0140433
0.00959791
0.00675662
0.0048929
0.0036408
0.00278012
0.00217473
0.00173846
0.00141536
0.00116729
0.000966596
0.000796974
0.000656614
0.000532421
2.116
1.62475
1.07993
0.652119
0.372017
0.208608
0.118641
0.0696808
0.0425437
0.0270042
0.0177764
0.0121017
0.00849936
0.00614621
0.00456833
0.00348375
0.00271962
0.00216712
0.00175572
0.00143731
0.00117667
0.000952221
0.000760754
0.000584241
2.57256
2.06577
1.40907
0.870552
0.503149
0.282296
0.159083
0.0921727
0.0555176
0.034844
0.0227455
0.0153956
0.0107727
0.00777228
0.00576847
0.00439393
0.00342586
0.00272502
0.00220154
0.0017941
0.00145745
0.00116247
0.000902729
0.000652015
3.11292
2.61057
1.82547
1.15792
0.682691
0.38603
0.216599
0.124002
0.0736229
0.0455988
0.029451
0.019779
0.0137655
0.00989647
0.0073287
0.0055746
0.00434221
0.0034508
0.00278447
0.00226436
0.00183197
0.00144736
0.00109728
0.000740503
3.78326
3.26229
2.33261
1.52228
0.92156
0.529743
0.298179
0.169384
0.0992268
0.0605808
0.0386372
0.0256921
0.0177514
0.0126985
0.00937327
0.00711601
0.00553724
0.00439869
0.00354886
0.00288546
0.00233266
0.0018356
0.00136751
0.000856855
4.6987
4.04045
2.9265
1.96338
1.22642
0.723019
0.412202
0.234028
0.135748
0.0817387
0.0514161
0.0337897
0.0231347
0.0164414
0.0120835
0.00915039
0.00711275
0.00565098
0.00456401
0.00371754
0.00301324
0.0023768
0.00175681
0.00101883
6.36741
4.97447
3.6078
2.47441
1.59692
0.972225
0.567114
0.324956
0.187876
0.111898
0.0694391
0.0450488
0.0305157
0.0215141
0.0157271
0.0118747
0.00922433
0.00733962
0.00594959
0.00487587
0.00399033
0.00319202
0.00238746
0.00136085
9.46928
6.75804
4.50497
3.06964
2.03125
1.27941
0.769587
0.449699
0.261543
0.15498
0.0951047
0.0609141
0.0407831
0.0284876
0.0206927
0.0155727
0.0120964
0.00965993
0.00789595
0.00657045
0.00552393
0.00464641
0.00392988
0.00365843
2.60018
3.74093
4.50979
4.33476
3.51095
3.13286
1.04256
1.7653
2.23403
2.30807
2.1192
2.38468
0.272288
1.51456
1.87193
1.92787
1.87946
2.12375
1.32088
1.57763
1.80486
1.84828
1.83823
2.04478
1.71819
1.67825
1.81424
1.85246
1.86763
2.04576
2.04637
1.77068
1.8541
1.89285
1.92824
2.09367
2.31447
1.84386
1.89888
1.94426
1.99821
2.16091
2.53209
1.89626
1.93928
1.9951
2.0656
2.22978
2.70581
1.92963
1.97253
2.03991
2.1235
2.28877
2.84044
1.94823
1.99874
2.07649
2.16757
2.33027
2.94109
1.95768
2.01922
2.10468
2.19609
2.34753
3.00561
1.96162
2.03569
2.12584
2.20975
2.34448
3.01849
1.9596
2.05032
2.14248
2.21232
2.32187
2.98293
1.95165
2.06559
2.15805
2.20933
2.28527
2.89286
1.93885
2.08425
2.17648
2.2066
2.24141
2.74857
1.9224
2.10831
2.20318
2.21025
2.19804
2.55097
1.90323
2.1392
2.24499
2.23097
2.16373
2.30235
1.88154
2.18022
2.30955
2.28373
2.14849
2.00491
1.85778
2.23411
2.40605
2.38417
2.16497
1.66218
1.83375
2.30305
2.54906
2.55841
2.25551
1.28517
1.81606
2.3892
2.7664
2.85475
2.4948
0.268856
1.82026
2.51821
3.10829
3.37144
3.06848
1.02985
2.02446
2.84299
3.72987
4.35544
4.65364
2.51337
3.42832
4.42611
5.50923
6.17152
6.15424
8.75769
7.34646
5.233
3.66423
2.50198
1.63634
1.02146
0.614596
0.363382
0.216046
0.13176
0.0834747
0.0552322
0.0381835
0.0275222
0.0206198
0.0160064
0.0128379
0.0106179
0.00905038
0.00795634
0.00724282
0.00696359
0.00735955
7.10919
7.05004
5.79721
4.20301
2.97259
2.02515
1.31781
0.822696
0.499526
0.30098
0.18379
0.115644
0.0757137
0.05177
0.036963
0.0275039
0.0212804
0.0170966
0.0142684
0.0124042
0.0112804
0.0107891
0.010943
0.0117456
4.90204
6.66064
5.93075
4.55978
3.38021
2.41072
1.64296
1.07076
0.673544
0.415516
0.256415
0.161272
0.104806
0.0709097
0.05008
0.0369146
0.0283752
0.0227491
0.0190669
0.0167765
0.0155555
0.0152239
0.0156752
0.0167751
3.55181
6.34698
5.90983
4.79054
3.70078
2.76234
1.97507
1.34873
0.884515
0.563697
0.354984
0.225027
0.145939
0.0979275
0.0683987
0.0498482
0.0379486
0.0302359
0.0253081
0.0223551
0.0208852
0.0205974
0.0212373
0.0225745
3.02988
5.76747
5.80337
5.01933
3.9518
3.06041
2.28884
1.63916
1.12498
0.745689
0.483549
0.311812
0.203319
0.135933
0.0940635
0.0677418
0.0509565
0.0401915
0.0334076
0.0294023
0.0274268
0.0270109
0.0277351
0.0292577
2.81498
5.00246
5.73796
5.20414
4.14373
3.29524
2.56345
1.9213
1.38138
0.95626
0.643047
0.425565
0.281438
0.188763
0.12995
0.0926185
0.0687799
0.0535431
0.043978
0.0383146
0.0354336
0.0346308
0.0353107
0.0369467
2.72323
4.34868
5.61058
5.3368
4.39383
3.49855
2.79132
2.17505
1.63493
1.18359
0.829181
0.567351
0.383913
0.260505
0.179593
0.12718
0.0933554
0.0716288
0.0579206
0.0496872
0.0452932
0.0437096
0.0441626
0.0457917
2.68848
3.89797
5.33428
5.3715
4.7291
3.72296
2.98835
2.392
1.86845
1.41195
1.03216
0.733747
0.511852
0.354456
0.246733
0.17472
0.127252
0.0963201
0.0765402
0.0644008
0.0575869
0.0546192
0.0545609
0.0559916
2.67966
3.61528
4.93325
5.36281
5.00269
4.02696
3.19081
2.57852
2.07134
1.62525
1.23786
0.916016
0.662144
0.471526
0.334294
0.238657
0.173565
0.130086
0.101663
0.083736
0.0731849
0.0679436
0.0667405
0.0678756
2.67641
3.43145
4.54195
5.25995
5.13985
4.4171
3.45542
2.76642
2.24844
1.8137
1.43201
1.10164
0.826886
0.608715
0.442892
0.321536
0.235421
0.175858
0.135686
0.10948
0.0933325
0.0844919
0.0812536
0.0817865
2.65997
3.29527
4.21731
5.03265
5.14805
4.76174
3.81095
2.998
2.42217
1.97974
1.60562
1.27807
0.994984
0.758741
0.569432
0.423534
0.314913
0.236456
0.181385
0.143975
0.119779
0.105481
0.0988952
0.0982119
2.62185
3.17238
3.95183
4.74377
5.08862
4.92006
4.22566
3.31695
2.63526
2.14488
1.76228
1.43819
1.1555
0.911856
0.707322
0.541561
0.411861
0.313586
0.241337
0.189904
0.154829
0.132643
0.120884
0.117828
2.56047
3.04342
3.71896
4.45028
4.93864
4.94282
4.56276
3.7051
2.92633
2.34829
1.92322
1.58806
1.30438
1.05852
0.847734
0.669619
0.523306
0.406903
0.317042
0.24975
0.2012
0.168276
0.14883
0.141722
2.47899
2.90036
3.49623
4.16463
4.70733
4.8883
4.71227
4.10517
3.30251
2.63211
2.12916
1.75193
1.45234
1.20063
0.984415
0.799781
0.64322
0.513051
0.407704
0.324722
0.261344
0.215172
0.185019
0.171406
2.38331
2.74263
3.27043
3.88062
4.43266
4.74753
4.7239
4.38951
3.69944
3.00266
2.42141
1.97321
1.62835
1.35298
1.12497
0.931872
0.767256
0.6274
0.510176
0.41378
0.336283
0.275941
0.232366
0.208991
2.28071
2.57399
3.03683
3.59069
4.12838
4.5172
4.63932
4.49237
4.03451
3.40615
2.80172
2.2883
1.87735
1.55264
1.29257
1.07962
0.901668
0.75103
0.623266
0.51556
0.425797
0.352233
0.294178
0.257385
2.17921
2.40058
2.79697
3.29164
3.79829
4.21704
4.44986
4.44324
4.21124
3.74142
3.20288
2.68074
2.22137
1.83877
1.52781
1.27594
1.06991
0.898997
0.755618
0.634609
0.532411
0.446424
0.37453
0.321109
2.0876
2.22969
2.55664
2.98654
3.44697
3.86241
4.15529
4.26792
4.19026
3.92151
3.51368
3.05927
2.61093
2.20252
1.84909
1.5521
1.3056
1.10131
0.931276
0.788884
0.668992
0.567633
0.481627
0.40885
2.01144
2.06928
2.32452
2.68457
3.08469
3.46832
3.77788
3.96174
3.99639
3.88841
3.6367
3.30074
2.92753
2.55238
2.20002
1.88375
1.60798
1.3716
1.17079
1.00072
0.856746
0.734287
0.631148
0.536599
1.95468
1.92788
2.11081
2.3999
2.72978
3.05871
3.34594
3.55212
3.65302
3.64329
3.52876
3.31802
3.05165
2.75673
2.45622
2.16675
1.89859
1.65681
1.44282
1.25565
1.09324
0.951932
0.832209
0.719125
1.92739
1.81213
1.92545
2.14908
2.40712
2.66771
2.90349
3.08977
3.20304
3.24313
3.20563
3.09583
2.92909
2.7264
2.50416
2.2763
2.05338
1.84275
1.64892
1.47328
1.31622
1.17653
1.05523
0.941301
1.93982
1.72182
1.77628
1.94736
2.14252
2.33526
2.50723
2.64378
2.73116
2.76956
2.75851
2.69823
2.59717
2.46644
2.31621
2.15567
1.99242
1.8322
1.67907
1.53635
1.40597
1.2891
1.18866
1.10678
2.01149
1.65499
1.668
1.80744
1.96237
2.10549
2.21995
2.29709
2.33614
2.34364
2.31628
2.25913
2.17897
2.0823
1.97498
1.86217
1.74828
1.63692
1.53088
1.43207
1.3419
1.26119
1.19103
1.13758
2.09705
1.60237
1.60384
1.73718
1.88008
2.0059
2.09298
2.13608
2.14603
2.11727
2.05696
1.9746
1.87843
1.77528
1.6705
1.56809
1.47097
1.38123
1.30029
1.22917
1.16813
1.11713
1.07648
1.04896
)
;

boundaryField
{
    rotor
    {
        type            epsilonWallFunction;
        value           nonuniform List<scalar> 
144
(
1.86783
3.01975
6.06506
6.87313
6.6387
6.22162
1.86783
0.816696
0.232104
0.261148
1.18599
1.27032
1.38966
1.48257
1.54843
1.58781
1.59993
1.59112
1.56418
1.52681
1.47713
1.41357
1.33322
1.21356
0.276824
0.266301
0.250769
0.229846
0.867292
2.17854
2.17854
2.12402
1.93988
1.76658
1.48033
1.57624
2.3883
4.77306
7.02318
7.63274
7.9242
32.7169
2.3883
0.974173
0.259758
0.279492
1.24252
1.37971
1.49369
1.57858
1.63546
1.66754
1.67908
1.67583
1.6605
1.6228
1.55784
1.46624
1.35472
1.23548
0.280174
0.269428
0.251935
0.228618
0.851363
1.95099
1.95099
1.65726
2.16055
3.3282
3.58162
3.16119
2.57065
3.75661
5.56574
5.07026
4.15173
3.31277
2.57065
1.00639
0.271765
1.34717
1.76935
2.14868
2.47043
2.73103
2.93187
3.07646
3.16856
3.21112
3.20999
3.19428
3.15612
3.0876
2.98058
2.82583
2.61208
2.32516
1.95202
1.49022
1.09589
3.00187
3.00187
3.88783
5.33765
5.95728
6.14529
6.20353
2.60018
3.74093
4.50979
4.33476
3.51095
3.13286
2.60018
1.04256
0.272288
1.32088
1.71819
2.04637
2.31447
2.53209
2.70581
2.84044
2.94109
3.00561
3.01849
2.98293
2.89286
2.74857
2.55097
2.30235
2.00491
1.66218
1.28517
0.268856
1.02985
2.51337
2.51337
3.42832
4.42611
5.50923
6.17152
6.15424
)
;
    }
    freestream
    {
        type            inletOutlet;
        inletValue      uniform 0.000375;
        value           nonuniform List<scalar> 
96
(
0.957759
0.959407
1.10412
1.3405
1.42058
1.3181
0.847116
0.296473
0.110477
0.0547684
0.0356284
0.0276175
0.0236159
0.0210425
0.0192906
0.0175819
0.015792
0.0139827
0.0121497
0.0103193
0.00853297
0.0068166
0.00517376
0.00359117
0.00206271
0.000375
0.000375
0.000375
0.000375
0.000375
0.000375
0.000375
0.000375
0.000375
0.000375
0.000375
0.000375
0.000375
0.000375
0.000375
0.000375
0.000375
0.000375
0.000375
0.000375
0.000375
0.000375
0.000375
0.000375
0.000375
0.000375
0.000375
0.000375
0.000375
0.000375
0.000375
0.000375
0.000375
0.000375
0.000375
0.000375
0.000375
0.000375
0.000375
0.000375
0.000375
0.000375
0.000375
0.000375
0.000375
0.000375
0.00365843
0.00735955
0.0117456
0.0167751
0.0225745
0.0292577
0.0369467
0.0457917
0.0559916
0.0678756
0.0817865
0.0982119
0.117828
0.141722
0.171406
0.208991
0.257385
0.321109
0.40885
0.536599
0.719125
0.941301
1.10678
1.13758
1.04896
)
;
    }
    frontAndBack
    {
        type            empty;
    }
}


// ************************************************************************* //
