/*--------------------------------*- C++ -*----------------------------------*\
  =========                 |
  \\      /  F ield         | OpenFOAM: The Open Source CFD Toolbox
   \\    /   O peration     | Website:  https://openfoam.org
    \\  /    A nd           | Version:  11
     \\/     M anipulation  |
\*---------------------------------------------------------------------------*/
FoamFile
{
    format      ascii;
    class       surfaceScalarField;
    location    "0.5";
    object      meshPhi;
}
// * * * * * * * * * * * * * * * * * * * * * * * * * * * * * * * * * * * * * //

dimensions      [0 3 -1 0 0 0 0];

internalField   nonuniform List<scalar> 
5640
(
1.36924e-16
9.81747e-07
2.42061e-16
1.37445e-06
3.77005e-16
1.76715e-06
-1.33924e-15
2.15984e-06
-3.68157e-15
2.55254e-06
2.94524e-06
5.95128e-15
1.83743e-18
9.81747e-07
-3.88826e-16
1.37445e-06
-2.60409e-15
1.76715e-06
1.94369e-15
2.15984e-06
8.06625e-15
2.55254e-06
2.94524e-06
-9.02999e-15
-1.16463e-16
9.81747e-07
1.86351e-16
1.37445e-06
-1.56235e-15
1.76715e-06
-4.21257e-15
2.15984e-06
-7.4984e-15
2.55254e-06
2.94524e-06
7.72167e-16
8.69361e-17
9.81747e-07
-1.01893e-16
1.37445e-06
2.69316e-15
1.76715e-06
7.44279e-15
2.15984e-06
3.25977e-15
2.55254e-06
2.94524e-06
-2.79809e-15
-4.83571e-17
9.81747e-07
3.95457e-17
1.37445e-06
1.94315e-16
1.76715e-06
-1.80612e-15
2.15984e-06
-4.20844e-15
2.55254e-06
2.94524e-06
5.01335e-15
-1.80118e-16
9.81747e-07
4.32558e-18
1.37445e-06
-1.84782e-15
1.76715e-06
-3.88618e-15
2.15984e-06
3.15706e-15
2.55254e-06
2.94524e-06
4.98029e-16
2.53956e-16
9.81747e-07
2.55421e-16
1.37445e-06
2.06596e-15
1.76715e-06
4.50408e-15
2.15984e-06
-2.31005e-15
2.55254e-06
2.94524e-06
5.40652e-16
2.16468e-17
9.81747e-07
-3.21732e-16
1.37445e-06
-1.1489e-15
1.76715e-06
-5.28564e-15
2.15984e-06
-3.76871e-16
2.55254e-06
2.94524e-06
-5.64011e-15
-1.43381e-16
9.81747e-07
1.66368e-16
1.37445e-06
4.19113e-15
1.76715e-06
6.34944e-15
2.15984e-06
-8.05788e-16
2.55254e-06
2.94524e-06
8.39254e-16
-6.8811e-17
9.81747e-07
-9.20654e-17
1.37445e-06
-2.7694e-15
1.76715e-06
-3.68798e-16
2.15984e-06
-1.4509e-15
2.55254e-06
2.94524e-06
-1.76546e-16
1.66335e-16
9.81747e-07
-8.86857e-17
1.37445e-06
5.69691e-16
1.76715e-06
-2.10352e-15
2.15984e-06
9.65996e-15
2.55254e-06
2.94524e-06
5.29001e-15
-1.77797e-16
9.81747e-07
-2.05081e-17
1.37445e-06
-3.45443e-16
1.76715e-06
-4.17261e-15
2.15984e-06
-2.6224e-15
2.55254e-06
2.94524e-06
5.3693e-15
1.77779e-16
9.81747e-07
2.05079e-17
1.37445e-06
3.45422e-16
1.76715e-06
4.17259e-15
2.15984e-06
2.62226e-15
2.55254e-06
2.94524e-06
-5.36952e-15
-1.66342e-16
9.81747e-07
8.86939e-17
1.37445e-06
-5.69664e-16
1.76715e-06
2.10355e-15
2.15984e-06
-9.66004e-15
2.55254e-06
2.94524e-06
-5.29028e-15
6.87959e-17
9.81747e-07
9.20225e-17
1.37445e-06
2.76937e-15
1.76715e-06
3.68715e-16
2.15984e-06
1.45076e-15
2.55254e-06
2.94524e-06
1.76553e-16
1.434e-16
9.81747e-07
-1.66414e-16
1.37445e-06
-4.19107e-15
1.76715e-06
-6.3495e-15
2.15984e-06
8.05695e-16
2.55254e-06
2.94524e-06
-8.39405e-16
-2.16658e-17
9.81747e-07
3.21678e-16
1.37445e-06
1.14892e-15
1.76715e-06
5.28557e-15
2.15984e-06
3.76912e-16
2.55254e-06
2.94524e-06
5.6399e-15
-2.53991e-16
9.81747e-07
-2.55435e-16
1.37445e-06
-2.06597e-15
1.76715e-06
-4.50411e-15
2.15984e-06
2.30998e-15
2.55254e-06
2.94524e-06
-5.40923e-16
1.80095e-16
9.81747e-07
-4.33615e-18
1.37445e-06
1.84773e-15
1.76715e-06
3.8861e-15
2.15984e-06
-3.157e-15
2.55254e-06
2.94524e-06
-4.98208e-16
4.83666e-17
9.81747e-07
-3.9515e-17
1.37445e-06
-1.94365e-16
1.76715e-06
1.80603e-15
2.15984e-06
4.20845e-15
2.55254e-06
2.94524e-06
-5.01313e-15
-8.69575e-17
9.81747e-07
1.0192e-16
1.37445e-06
-2.69318e-15
1.76715e-06
-7.44281e-15
2.15984e-06
-3.25997e-15
2.55254e-06
2.94524e-06
2.79781e-15
1.16454e-16
9.81747e-07
-1.86383e-16
1.37445e-06
1.56233e-15
1.76715e-06
4.21246e-15
2.15984e-06
7.49837e-15
2.55254e-06
2.94524e-06
-7.72357e-16
-1.83765e-18
9.81747e-07
3.88789e-16
1.37445e-06
2.60413e-15
1.76715e-06
-1.94368e-15
2.15984e-06
-8.06626e-15
2.55254e-06
2.94524e-06
9.02994e-15
-1.36969e-16
-2.4209e-16
-3.77051e-16
1.33932e-15
3.68146e-15
-5.95134e-15
-1.13361e-14
4.53785e-06
-4.53785e-06
-4.81202e-16
5.23599e-06
-5.23599e-06
-5.35695e-15
5.93412e-06
-5.93412e-06
-1.13033e-14
6.63225e-06
-6.63225e-06
4.86935e-15
7.33038e-06
-7.33038e-06
-1.11013e-15
8.02851e-06
-8.02851e-06
-8.15837e-15
8.72664e-06
-8.72664e-06
1.30442e-14
9.42478e-06
-9.42478e-06
5.94901e-15
1.01229e-05
-1.01229e-05
-1.99556e-15
1.0821e-05
-1.0821e-05
2.43865e-14
1.15192e-05
-1.15192e-05
1.619e-14
1.22173e-05
-1.22173e-05
-3.27862e-14
1.29154e-05
-1.29154e-05
-3.05218e-15
1.36136e-05
-1.36136e-05
-1.44425e-14
1.43117e-05
-1.43117e-05
-2.69021e-14
1.50098e-05
-1.50098e-05
7.73602e-15
1.5708e-05
-1.5708e-05
-4.43933e-15
1.64061e-05
-1.64061e-05
-1.80013e-14
1.71042e-05
-1.71042e-05
2.18196e-14
1.78024e-05
-1.78024e-05
8.21176e-15
1.85005e-05
-1.85005e-05
-6.08248e-15
1.91986e-05
-1.91986e-05
3.89176e-14
1.98967e-05
-1.98967e-05
2.05949e-05
-2.05949e-05
9.39901e-15
4.53785e-06
5.20127e-16
5.23599e-06
7.52863e-15
5.93412e-06
-4.41124e-15
6.63225e-06
3.78285e-15
7.33038e-06
1.3384e-14
8.02851e-06
-2.11062e-15
8.72664e-06
8.52922e-15
9.42478e-06
-1.00284e-14
1.01229e-05
1.86614e-15
1.0821e-05
-2.02045e-14
1.15192e-05
-7.01131e-15
1.22173e-05
7.51007e-15
1.29154e-05
2.36086e-14
1.36136e-05
-2.04073e-15
1.43117e-05
1.48331e-14
1.50098e-05
-1.38823e-14
1.5708e-05
2.38921e-15
1.64061e-05
2.04117e-14
1.71042e-05
-7.01654e-15
1.78024e-05
1.20702e-14
1.85005e-05
-2.59362e-14
1.91986e-05
1.84842e-15
1.98967e-05
2.05949e-05
-8.67627e-15
4.53785e-06
1.22925e-14
5.23599e-06
1.88319e-15
5.93412e-06
8.90226e-15
6.63225e-06
-5.10864e-15
7.33038e-06
-2.19916e-14
8.02851e-06
1.22645e-14
8.72664e-06
-5.37457e-15
9.42478e-06
4.45754e-15
1.01229e-05
-1.43061e-14
1.0821e-05
-7.32515e-15
1.15192e-05
7.04132e-15
1.22173e-05
2.39942e-14
1.29154e-05
-7.55639e-15
1.36136e-05
9.80106e-15
1.43117e-05
-1.62368e-14
1.50098e-05
4.02961e-14
1.5708e-05
1.44457e-14
1.64061e-05
-1.37064e-14
1.71042e-05
-7.89865e-15
1.78024e-05
-3.92459e-14
1.85005e-05
4.2751e-14
1.91986e-05
-8.84517e-15
1.98967e-05
2.05949e-05
5.98561e-15
4.53785e-06
2.18935e-16
5.23599e-06
-6.43554e-15
5.93412e-06
6.06403e-15
6.63225e-06
-2.0928e-15
7.33038e-06
1.61762e-14
8.02851e-06
-1.88306e-14
8.72664e-06
-2.35165e-15
9.42478e-06
9.17174e-15
1.01229e-05
-4.71111e-15
1.0821e-05
2.16273e-14
1.15192e-05
-2.96447e-14
1.22173e-05
-9.2901e-15
1.29154e-05
-1.89096e-14
1.36136e-05
4.4661e-15
1.43117e-05
3.0157e-14
1.50098e-05
-2.62186e-14
1.5708e-05
4.39436e-16
1.64061e-05
-2.11714e-14
1.71042e-05
1.87113e-14
1.78024e-05
-3.9221e-15
1.85005e-05
-2.91621e-14
1.91986e-05
1.52323e-14
1.98967e-05
2.05949e-05
6.7149e-15
4.53785e-06
-7.30704e-15
5.23599e-06
1.11006e-14
5.93412e-06
-4.24104e-15
6.63225e-06
1.5102e-14
7.33038e-06
-5.20863e-15
8.02851e-06
1.70133e-14
8.72664e-06
-3.94013e-15
9.42478e-06
-2.94162e-16
1.01229e-05
6.61077e-15
1.0821e-05
1.3706e-14
1.15192e-05
1.01851e-14
1.22173e-05
1.82173e-14
1.29154e-05
1.43684e-14
1.36136e-05
2.33405e-14
1.43117e-05
-2.53465e-14
1.50098e-05
2.90726e-14
1.5708e-05
-7.82596e-15
1.64061e-05
3.54173e-14
1.71042e-05
-4.51367e-15
1.78024e-05
4.23701e-14
1.85005e-05
-5.87586e-16
1.91986e-05
-8.7335e-15
1.98967e-05
2.05949e-05
-4.63018e-15
4.53785e-06
5.79748e-15
5.23599e-06
-1.61506e-14
5.93412e-06
-5.97469e-15
6.63225e-06
-8.55456e-15
7.33038e-06
4.22441e-15
8.02851e-06
-8.18664e-15
8.72664e-06
6.99954e-15
9.42478e-06
-2.42298e-14
1.01229e-05
-7.76954e-15
1.0821e-05
-2.27647e-14
1.15192e-05
8.34844e-15
1.22173e-05
-7.4032e-15
1.29154e-05
2.82667e-14
1.36136e-05
-4.57087e-14
1.43117e-05
-8.22265e-15
1.50098e-05
-2.82287e-14
1.5708e-05
-2.33891e-15
1.64061e-05
-6.94395e-15
1.71042e-05
2.21497e-14
1.78024e-05
-3.41116e-14
1.85005e-05
-3.73822e-15
1.91986e-05
-3.23446e-14
1.98967e-05
2.05949e-05
-8.92506e-15
4.53785e-06
-2.28906e-15
5.23599e-06
-2.2239e-15
5.93412e-06
6.6168e-15
6.63225e-06
-3.38819e-15
7.33038e-06
-3.90701e-15
8.02851e-06
-6.41882e-15
8.72664e-06
-7.15892e-15
9.42478e-06
6.8108e-15
1.01229e-05
6.9819e-15
1.0821e-05
-9.06395e-15
1.15192e-05
6.75966e-15
1.22173e-05
-2.88883e-14
1.29154e-05
-1.22319e-14
1.36136e-05
4.80128e-15
1.43117e-05
2.50258e-14
1.50098e-05
3.86233e-15
1.5708e-05
3.60762e-15
1.64061e-05
-2.04815e-14
1.71042e-05
-2.17606e-14
1.78024e-05
3.46716e-15
1.85005e-05
2.90387e-14
1.91986e-05
-1.66284e-15
1.98967e-05
2.05949e-05
6.21568e-15
4.53785e-06
-3.87941e-15
5.23599e-06
1.54221e-14
5.93412e-06
-7.06484e-15
6.63225e-06
-2.21087e-15
7.33038e-06
1.42863e-15
8.02851e-06
-5.49382e-15
8.72664e-06
1.32257e-14
9.42478e-06
6.04503e-15
1.01229e-05
-1.74519e-14
1.0821e-05
2.0888e-14
1.15192e-05
-2.14452e-14
1.22173e-05
1.91345e-14
1.29154e-05
-7.31413e-15
1.36136e-05
3.84846e-14
1.43117e-05
-1.29249e-14
1.50098e-05
-1.88231e-15
1.5708e-05
5.71454e-15
1.64061e-05
-7.58812e-15
1.71042e-05
2.76577e-14
1.78024e-05
1.40956e-14
1.85005e-05
-5.31386e-14
1.91986e-05
3.90814e-14
1.98967e-05
2.05949e-05
-1.49872e-15
4.53785e-06
1.08971e-14
5.23599e-06
-6.59964e-15
5.93412e-06
7.26563e-15
6.63225e-06
6.17532e-15
7.33038e-06
2.48856e-15
8.02851e-06
-9.65264e-16
8.72664e-06
-4.36591e-15
9.42478e-06
-8.90104e-15
1.01229e-05
1.38633e-14
1.0821e-05
1.06901e-14
1.15192e-05
6.2507e-15
1.22173e-05
-1.2725e-16
1.29154e-05
-3.43637e-15
1.36136e-05
-1.10446e-14
1.43117e-05
-1.77663e-14
1.50098e-05
1.76819e-14
1.5708e-05
9.95426e-15
1.64061e-05
3.32725e-15
1.71042e-05
-3.29691e-14
1.78024e-05
-1.04233e-14
1.85005e-05
3.00687e-14
1.91986e-05
-5.99954e-14
1.98967e-05
2.05949e-05
5.17016e-15
4.53785e-06
-7.45569e-15
5.23599e-06
-7.56616e-16
5.93412e-06
6.83925e-15
6.63225e-06
-9.97396e-15
7.33038e-06
-1.66396e-15
8.02851e-06
9.21873e-15
8.72664e-06
-1.34589e-14
9.42478e-06
2.32211e-14
1.01229e-05
1.04721e-14
1.0821e-05
-1.72717e-14
1.15192e-05
-3.02646e-15
1.22173e-05
1.13974e-14
1.29154e-05
-1.98158e-14
1.36136e-05
-4.67949e-15
1.43117e-05
5.03079e-14
1.50098e-05
-2.40454e-14
1.5708e-05
-6.65583e-15
1.64061e-05
1.42629e-14
1.71042e-05
1.64863e-15
1.78024e-05
-6.80999e-15
1.85005e-05
1.44426e-14
1.91986e-05
5.07557e-14
1.98967e-05
2.05949e-05
-6.19719e-15
4.53785e-06
2.83345e-17
5.23599e-06
1.15118e-14
5.93412e-06
-2.06261e-14
6.63225e-06
5.3669e-15
7.33038e-06
1.22117e-15
8.02851e-06
-4.73339e-17
8.72664e-06
1.23941e-14
9.42478e-06
-1.32267e-14
1.01229e-05
-1.88959e-14
1.0821e-05
-4.96329e-15
1.15192e-05
-7.15438e-15
1.22173e-05
-1.48877e-14
1.29154e-05
3.53385e-14
1.36136e-05
-2.66814e-19
1.43117e-05
-4.31383e-14
1.50098e-05
1.35628e-14
1.5708e-05
-2.82574e-14
1.64061e-05
2.45488e-15
1.71042e-05
-1.02431e-14
1.78024e-05
2.38032e-14
1.85005e-05
1.38756e-14
1.91986e-05
-4.5562e-14
1.98967e-05
2.05949e-05
-1.90661e-15
4.53785e-06
1.1303e-15
5.23599e-06
-2.16619e-14
5.93412e-06
9.62389e-15
6.63225e-06
1.5137e-14
7.33038e-06
-1.40654e-14
8.02851e-06
8.09303e-15
8.72664e-06
-2.69592e-14
9.42478e-06
-1.96639e-15
1.01229e-05
2.97161e-14
1.0821e-05
-1.17449e-14
1.15192e-05
1.98673e-14
1.22173e-05
-2.74455e-14
1.29154e-05
-2.06159e-14
1.36136e-05
1.60409e-14
1.43117e-05
-4.61467e-15
1.50098e-05
4.69079e-15
1.5708e-05
4.79634e-14
1.64061e-05
-1.37379e-14
1.71042e-05
3.23721e-14
1.78024e-05
-3.51898e-14
1.85005e-05
-2.49031e-14
1.91986e-05
7.19175e-14
1.98967e-05
2.05949e-05
1.90653e-15
4.53785e-06
-1.13062e-15
5.23599e-06
2.16619e-14
5.93412e-06
-9.62429e-15
6.63225e-06
-1.51376e-14
7.33038e-06
1.40657e-14
8.02851e-06
-8.09274e-15
8.72664e-06
2.69594e-14
9.42478e-06
1.96532e-15
1.01229e-05
-2.97178e-14
1.0821e-05
1.17452e-14
1.15192e-05
-1.98673e-14
1.22173e-05
2.74454e-14
1.29154e-05
2.06157e-14
1.36136e-05
-1.60416e-14
1.43117e-05
4.61224e-15
1.50098e-05
-4.69277e-15
1.5708e-05
-4.79679e-14
1.64061e-05
1.37393e-14
1.71042e-05
-3.2371e-14
1.78024e-05
3.5182e-14
1.85005e-05
2.49045e-14
1.91986e-05
-7.19136e-14
1.98967e-05
2.05949e-05
6.19729e-15
4.53785e-06
-2.84743e-17
5.23599e-06
-1.15117e-14
5.93412e-06
2.06257e-14
6.63225e-06
-5.36726e-15
7.33038e-06
-1.22184e-15
8.02851e-06
4.73172e-17
8.72664e-06
-1.23939e-14
9.42478e-06
1.32262e-14
1.01229e-05
1.88944e-14
1.0821e-05
4.9641e-15
1.15192e-05
7.1527e-15
1.22173e-05
1.48862e-14
1.29154e-05
-3.53403e-14
1.36136e-05
-2.89222e-19
1.43117e-05
4.31368e-14
1.50098e-05
-1.35647e-14
1.5708e-05
2.82553e-14
1.64061e-05
-2.45732e-15
1.71042e-05
1.02414e-14
1.78024e-05
-2.38047e-14
1.85005e-05
-1.38744e-14
1.91986e-05
4.55638e-14
1.98967e-05
2.05949e-05
-5.17025e-15
4.53785e-06
7.45561e-15
5.23599e-06
7.567e-16
5.93412e-06
-6.84012e-15
6.63225e-06
9.97425e-15
7.33038e-06
1.66412e-15
8.02851e-06
-9.21883e-15
8.72664e-06
1.34593e-14
9.42478e-06
-2.32221e-14
1.01229e-05
-1.04724e-14
1.0821e-05
1.72728e-14
1.15192e-05
3.0268e-15
1.22173e-05
-1.13982e-14
1.29154e-05
1.98144e-14
1.36136e-05
4.67922e-15
1.43117e-05
-5.03066e-14
1.50098e-05
2.40431e-14
1.5708e-05
6.65647e-15
1.64061e-05
-1.42621e-14
1.71042e-05
-1.64839e-15
1.78024e-05
6.8097e-15
1.85005e-05
-1.4445e-14
1.91986e-05
-5.07587e-14
1.98967e-05
2.05949e-05
1.49868e-15
4.53785e-06
-1.08971e-14
5.23599e-06
6.59917e-15
5.93412e-06
-7.26585e-15
6.63225e-06
-6.1748e-15
7.33038e-06
-2.48836e-15
8.02851e-06
9.6468e-16
8.72664e-06
4.36531e-15
9.42478e-06
8.90055e-15
1.01229e-05
-1.38636e-14
1.0821e-05
-1.06894e-14
1.15192e-05
-6.2507e-15
1.22173e-05
1.26822e-16
1.29154e-05
3.4383e-15
1.36136e-05
1.10427e-14
1.43117e-05
1.77657e-14
1.50098e-05
-1.76853e-14
1.5708e-05
-9.95344e-15
1.64061e-05
-3.3287e-15
1.71042e-05
3.29678e-14
1.78024e-05
1.04237e-14
1.85005e-05
-3.00659e-14
1.91986e-05
5.99927e-14
1.98967e-05
2.05949e-05
-6.21587e-15
4.53785e-06
3.87933e-15
5.23599e-06
-1.54221e-14
5.93412e-06
7.06493e-15
6.63225e-06
2.21066e-15
7.33038e-06
-1.42886e-15
8.02851e-06
5.49336e-15
8.72664e-06
-1.32263e-14
9.42478e-06
-6.04536e-15
1.01229e-05
1.74515e-14
1.0821e-05
-2.08874e-14
1.15192e-05
2.14455e-14
1.22173e-05
-1.9134e-14
1.29154e-05
7.31548e-15
1.36136e-05
-3.84847e-14
1.43117e-05
1.29217e-14
1.50098e-05
1.88181e-15
1.5708e-05
-5.71543e-15
1.64061e-05
7.58682e-15
1.71042e-05
-2.7659e-14
1.78024e-05
-1.40975e-14
1.85005e-05
5.31408e-14
1.91986e-05
-3.90856e-14
1.98967e-05
2.05949e-05
8.92488e-15
4.53785e-06
2.28883e-15
5.23599e-06
2.22398e-15
5.93412e-06
-6.61688e-15
6.63225e-06
3.3883e-15
7.33038e-06
3.90622e-15
8.02851e-06
6.41811e-15
8.72664e-06
7.15838e-15
9.42478e-06
-6.81059e-15
1.01229e-05
-6.98289e-15
1.0821e-05
9.06353e-15
1.15192e-05
-6.75972e-15
1.22173e-05
2.88873e-14
1.29154e-05
1.22317e-14
1.36136e-05
-4.80589e-15
1.43117e-05
-2.50246e-14
1.50098e-05
-3.86404e-15
1.5708e-05
-3.6085e-15
1.64061e-05
2.04831e-14
1.71042e-05
2.17583e-14
1.78024e-05
-3.4674e-15
1.85005e-05
-2.90408e-14
1.91986e-05
1.66117e-15
1.98967e-05
2.05949e-05
4.63035e-15
4.53785e-06
-5.79765e-15
5.23599e-06
1.61506e-14
5.93412e-06
5.97433e-15
6.63225e-06
8.55506e-15
7.33038e-06
-4.22425e-15
8.02851e-06
8.18619e-15
8.72664e-06
-6.99999e-15
9.42478e-06
2.42298e-14
1.01229e-05
7.76948e-15
1.0821e-05
2.27645e-14
1.15192e-05
-8.3497e-15
1.22173e-05
7.40283e-15
1.29154e-05
-2.82659e-14
1.36136e-05
4.571e-14
1.43117e-05
8.22341e-15
1.50098e-05
2.82272e-14
1.5708e-05
2.33635e-15
1.64061e-05
6.94545e-15
1.71042e-05
-2.21498e-14
1.78024e-05
3.4107e-14
1.85005e-05
3.73985e-15
1.91986e-05
3.23422e-14
1.98967e-05
2.05949e-05
-6.71523e-15
4.53785e-06
7.30645e-15
5.23599e-06
-1.11009e-14
5.93412e-06
4.24096e-15
6.63225e-06
-1.5102e-14
7.33038e-06
5.20906e-15
8.02851e-06
-1.70134e-14
8.72664e-06
3.9404e-15
9.42478e-06
2.94492e-16
1.01229e-05
-6.61051e-15
1.0821e-05
-1.37053e-14
1.15192e-05
-1.01847e-14
1.22173e-05
-1.82187e-14
1.29154e-05
-1.43683e-14
1.36136e-05
-2.33391e-14
1.43117e-05
2.53453e-14
1.50098e-05
-2.90739e-14
1.5708e-05
7.82622e-15
1.64061e-05
-3.54172e-14
1.71042e-05
4.51026e-15
1.78024e-05
-4.23737e-14
1.85005e-05
5.80819e-16
1.91986e-05
8.73104e-15
1.98967e-05
2.05949e-05
-5.98606e-15
4.53785e-06
-2.19307e-16
5.23599e-06
6.43554e-15
5.93412e-06
-6.06416e-15
6.63225e-06
2.09239e-15
7.33038e-06
-1.61769e-14
8.02851e-06
1.88309e-14
8.72664e-06
2.35111e-15
9.42478e-06
-9.17232e-15
1.01229e-05
4.70975e-15
1.0821e-05
-2.16269e-14
1.15192e-05
2.96457e-14
1.22173e-05
9.28882e-15
1.29154e-05
1.89082e-14
1.36136e-05
-4.46835e-15
1.43117e-05
-3.01559e-14
1.50098e-05
2.62144e-14
1.5708e-05
-4.36732e-16
1.64061e-05
2.11687e-14
1.71042e-05
-1.87127e-14
1.78024e-05
3.91984e-15
1.85005e-05
2.91599e-14
1.91986e-05
-1.52346e-14
1.98967e-05
2.05949e-05
8.67599e-15
4.53785e-06
-1.22926e-14
5.23599e-06
-1.8833e-15
5.93412e-06
-8.90257e-15
6.63225e-06
5.10844e-15
7.33038e-06
2.19904e-14
8.02851e-06
-1.22643e-14
8.72664e-06
5.37426e-15
9.42478e-06
-4.45667e-15
1.01229e-05
1.43056e-14
1.0821e-05
7.3256e-15
1.15192e-05
-7.04084e-15
1.22173e-05
-2.39946e-14
1.29154e-05
7.55376e-15
1.36136e-05
-9.80004e-15
1.43117e-05
1.62351e-14
1.50098e-05
-4.02954e-14
1.5708e-05
-1.44446e-14
1.64061e-05
1.36991e-14
1.71042e-05
7.89439e-15
1.78024e-05
3.92487e-14
1.85005e-05
-4.27531e-14
1.91986e-05
8.84602e-15
1.98967e-05
2.05949e-05
-9.39883e-15
4.53785e-06
-5.20764e-16
5.23599e-06
-7.52872e-15
5.93412e-06
4.41146e-15
6.63225e-06
-3.78307e-15
7.33038e-06
-1.3385e-14
8.02851e-06
2.10973e-15
8.72664e-06
-8.52831e-15
9.42478e-06
1.00274e-14
1.01229e-05
-1.86796e-15
1.0821e-05
2.02017e-14
1.15192e-05
7.01341e-15
1.22173e-05
-7.50859e-15
1.29154e-05
-2.36111e-14
1.36136e-05
2.04084e-15
1.43117e-05
-1.48329e-14
1.50098e-05
1.38784e-14
1.5708e-05
-2.38955e-15
1.64061e-05
-2.04169e-14
1.71042e-05
7.01696e-15
1.78024e-05
-1.20671e-14
1.85005e-05
2.59402e-14
1.91986e-05
-1.85153e-15
1.98967e-05
2.05949e-05
1.1336e-14
4.53785e-06
4.81152e-16
5.23599e-06
5.35706e-15
5.93412e-06
1.1303e-14
6.63225e-06
-4.8692e-15
7.33038e-06
1.10946e-15
8.02851e-06
8.15771e-15
8.72664e-06
-1.30439e-14
9.42478e-06
-5.94937e-15
1.01229e-05
1.9961e-15
1.0821e-05
-2.43864e-14
1.15192e-05
-1.61907e-14
1.22173e-05
3.27868e-14
1.29154e-05
3.05123e-15
1.36136e-05
1.44405e-14
1.43117e-05
2.69002e-14
1.50098e-05
-7.74221e-15
1.5708e-05
4.43785e-15
1.64061e-05
1.79949e-14
1.71042e-05
-2.18232e-14
1.78024e-05
-8.21526e-15
1.85005e-05
6.08327e-15
1.91986e-05
-3.89132e-14
1.98967e-05
2.05949e-05
1.36938e-16
9.81747e-07
2.4208e-16
1.37445e-06
3.76958e-16
1.76715e-06
-1.33938e-15
2.15984e-06
-3.68164e-15
2.55254e-06
2.94524e-06
5.95113e-15
1.83743e-18
9.81747e-07
-3.88826e-16
1.37445e-06
-2.60409e-15
1.76715e-06
1.94369e-15
2.15984e-06
8.06625e-15
2.55254e-06
2.94524e-06
-9.02999e-15
-1.16463e-16
9.81747e-07
1.86351e-16
1.37445e-06
-1.56235e-15
1.76715e-06
-4.21257e-15
2.15984e-06
-7.4984e-15
2.55254e-06
2.94524e-06
7.72167e-16
8.69361e-17
9.81747e-07
-1.01893e-16
1.37445e-06
2.69316e-15
1.76715e-06
7.44279e-15
2.15984e-06
3.25977e-15
2.55254e-06
2.94524e-06
-2.79809e-15
-4.83571e-17
9.81747e-07
3.95457e-17
1.37445e-06
1.94315e-16
1.76715e-06
-1.80612e-15
2.15984e-06
-4.20844e-15
2.55254e-06
2.94524e-06
5.01335e-15
-1.80118e-16
9.81747e-07
4.32558e-18
1.37445e-06
-1.84782e-15
1.76715e-06
-3.88618e-15
2.15984e-06
3.15706e-15
2.55254e-06
2.94524e-06
4.98029e-16
2.53956e-16
9.81747e-07
2.55421e-16
1.37445e-06
2.06596e-15
1.76715e-06
4.50408e-15
2.15984e-06
-2.31005e-15
2.55254e-06
2.94524e-06
5.40652e-16
2.16468e-17
9.81747e-07
-3.21732e-16
1.37445e-06
-1.1489e-15
1.76715e-06
-5.28564e-15
2.15984e-06
-3.76871e-16
2.55254e-06
2.94524e-06
-5.64011e-15
-1.43381e-16
9.81747e-07
1.66368e-16
1.37445e-06
4.19113e-15
1.76715e-06
6.34944e-15
2.15984e-06
-8.05788e-16
2.55254e-06
2.94524e-06
8.39254e-16
-6.8811e-17
9.81747e-07
-9.20654e-17
1.37445e-06
-2.7694e-15
1.76715e-06
-3.68798e-16
2.15984e-06
-1.4509e-15
2.55254e-06
2.94524e-06
-1.76546e-16
1.66335e-16
9.81747e-07
-8.86857e-17
1.37445e-06
5.69691e-16
1.76715e-06
-2.10352e-15
2.15984e-06
9.65996e-15
2.55254e-06
2.94524e-06
5.29001e-15
-1.77797e-16
9.81747e-07
-2.05081e-17
1.37445e-06
-3.45443e-16
1.76715e-06
-4.17261e-15
2.15984e-06
-2.6224e-15
2.55254e-06
2.94524e-06
5.3693e-15
1.77779e-16
9.81747e-07
2.05079e-17
1.37445e-06
3.45422e-16
1.76715e-06
4.17259e-15
2.15984e-06
2.62226e-15
2.55254e-06
2.94524e-06
-5.36952e-15
-1.66342e-16
9.81747e-07
8.86939e-17
1.37445e-06
-5.69664e-16
1.76715e-06
2.10355e-15
2.15984e-06
-9.66004e-15
2.55254e-06
2.94524e-06
-5.29028e-15
6.87959e-17
9.81747e-07
9.20225e-17
1.37445e-06
2.76937e-15
1.76715e-06
3.68715e-16
2.15984e-06
1.45076e-15
2.55254e-06
2.94524e-06
1.76553e-16
1.434e-16
9.81747e-07
-1.66414e-16
1.37445e-06
-4.19107e-15
1.76715e-06
-6.3495e-15
2.15984e-06
8.05695e-16
2.55254e-06
2.94524e-06
-8.39405e-16
-2.16658e-17
9.81747e-07
3.21678e-16
1.37445e-06
1.14892e-15
1.76715e-06
5.28557e-15
2.15984e-06
3.76912e-16
2.55254e-06
2.94524e-06
5.6399e-15
-2.53991e-16
9.81747e-07
-2.55435e-16
1.37445e-06
-2.06597e-15
1.76715e-06
-4.50411e-15
2.15984e-06
2.30998e-15
2.55254e-06
2.94524e-06
-5.40923e-16
1.80095e-16
9.81747e-07
-4.33615e-18
1.37445e-06
1.84773e-15
1.76715e-06
3.8861e-15
2.15984e-06
-3.157e-15
2.55254e-06
2.94524e-06
-4.98208e-16
4.83666e-17
9.81747e-07
-3.9515e-17
1.37445e-06
-1.94365e-16
1.76715e-06
1.80603e-15
2.15984e-06
4.20845e-15
2.55254e-06
2.94524e-06
-5.01313e-15
-8.69575e-17
9.81747e-07
1.0192e-16
1.37445e-06
-2.69318e-15
1.76715e-06
-7.44281e-15
2.15984e-06
-3.25997e-15
2.55254e-06
2.94524e-06
2.79781e-15
1.16454e-16
9.81747e-07
-1.86383e-16
1.37445e-06
1.56233e-15
1.76715e-06
4.21246e-15
2.15984e-06
7.49837e-15
2.55254e-06
2.94524e-06
-7.72357e-16
-1.83765e-18
9.81747e-07
3.88789e-16
1.37445e-06
2.60413e-15
1.76715e-06
-1.94368e-15
2.15984e-06
-8.06626e-15
2.55254e-06
2.94524e-06
9.02994e-15
-1.36969e-16
-2.42109e-16
-3.77028e-16
1.33921e-15
3.68133e-15
-5.95134e-15
-1.13362e-14
4.53785e-06
-4.81303e-16
5.23599e-06
-5.35752e-15
5.93412e-06
-1.13031e-14
6.63225e-06
4.86963e-15
7.33038e-06
-1.10953e-15
8.02851e-06
-8.1587e-15
8.72664e-06
1.30446e-14
9.42478e-06
5.94938e-15
1.01229e-05
-1.99677e-15
1.0821e-05
2.43865e-14
1.15192e-05
1.61891e-14
1.22173e-05
-3.27881e-14
1.29154e-05
-3.05117e-15
1.36136e-05
-1.44415e-14
1.43117e-05
-2.68999e-14
1.50098e-05
7.73718e-15
1.5708e-05
-4.43812e-15
1.64061e-05
-1.79988e-14
1.71042e-05
2.18183e-14
1.78024e-05
8.21449e-15
1.85005e-05
-6.08248e-15
1.91986e-05
3.89205e-14
1.98967e-05
2.05949e-05
9.39901e-15
4.53785e-06
5.20127e-16
5.23599e-06
7.52863e-15
5.93412e-06
-4.41124e-15
6.63225e-06
3.78285e-15
7.33038e-06
1.3384e-14
8.02851e-06
-2.11062e-15
8.72664e-06
8.52922e-15
9.42478e-06
-1.00284e-14
1.01229e-05
1.86614e-15
1.0821e-05
-2.02045e-14
1.15192e-05
-7.01131e-15
1.22173e-05
7.51007e-15
1.29154e-05
2.36086e-14
1.36136e-05
-2.04073e-15
1.43117e-05
1.48331e-14
1.50098e-05
-1.38823e-14
1.5708e-05
2.38921e-15
1.64061e-05
2.04117e-14
1.71042e-05
-7.01654e-15
1.78024e-05
1.20702e-14
1.85005e-05
-2.59362e-14
1.91986e-05
1.84842e-15
1.98967e-05
2.05949e-05
-8.67627e-15
4.53785e-06
1.22925e-14
5.23599e-06
1.88319e-15
5.93412e-06
8.90226e-15
6.63225e-06
-5.10864e-15
7.33038e-06
-2.19916e-14
8.02851e-06
1.22645e-14
8.72664e-06
-5.37457e-15
9.42478e-06
4.45754e-15
1.01229e-05
-1.43061e-14
1.0821e-05
-7.32515e-15
1.15192e-05
7.04132e-15
1.22173e-05
2.39942e-14
1.29154e-05
-7.55639e-15
1.36136e-05
9.80106e-15
1.43117e-05
-1.62368e-14
1.50098e-05
4.02961e-14
1.5708e-05
1.44457e-14
1.64061e-05
-1.37064e-14
1.71042e-05
-7.89865e-15
1.78024e-05
-3.92459e-14
1.85005e-05
4.2751e-14
1.91986e-05
-8.84517e-15
1.98967e-05
2.05949e-05
5.98561e-15
4.53785e-06
2.18935e-16
5.23599e-06
-6.43554e-15
5.93412e-06
6.06403e-15
6.63225e-06
-2.0928e-15
7.33038e-06
1.61762e-14
8.02851e-06
-1.88306e-14
8.72664e-06
-2.35165e-15
9.42478e-06
9.17174e-15
1.01229e-05
-4.71111e-15
1.0821e-05
2.16273e-14
1.15192e-05
-2.96447e-14
1.22173e-05
-9.2901e-15
1.29154e-05
-1.89096e-14
1.36136e-05
4.4661e-15
1.43117e-05
3.0157e-14
1.50098e-05
-2.62186e-14
1.5708e-05
4.39436e-16
1.64061e-05
-2.11714e-14
1.71042e-05
1.87113e-14
1.78024e-05
-3.9221e-15
1.85005e-05
-2.91621e-14
1.91986e-05
1.52323e-14
1.98967e-05
2.05949e-05
6.7149e-15
4.53785e-06
-7.30704e-15
5.23599e-06
1.11006e-14
5.93412e-06
-4.24104e-15
6.63225e-06
1.5102e-14
7.33038e-06
-5.20863e-15
8.02851e-06
1.70133e-14
8.72664e-06
-3.94013e-15
9.42478e-06
-2.94162e-16
1.01229e-05
6.61077e-15
1.0821e-05
1.3706e-14
1.15192e-05
1.01851e-14
1.22173e-05
1.82173e-14
1.29154e-05
1.43684e-14
1.36136e-05
2.33405e-14
1.43117e-05
-2.53465e-14
1.50098e-05
2.90726e-14
1.5708e-05
-7.82596e-15
1.64061e-05
3.54173e-14
1.71042e-05
-4.51367e-15
1.78024e-05
4.23701e-14
1.85005e-05
-5.87586e-16
1.91986e-05
-8.7335e-15
1.98967e-05
2.05949e-05
-4.63018e-15
4.53785e-06
5.79748e-15
5.23599e-06
-1.61506e-14
5.93412e-06
-5.97469e-15
6.63225e-06
-8.55456e-15
7.33038e-06
4.22441e-15
8.02851e-06
-8.18664e-15
8.72664e-06
6.99954e-15
9.42478e-06
-2.42298e-14
1.01229e-05
-7.76954e-15
1.0821e-05
-2.27647e-14
1.15192e-05
8.34844e-15
1.22173e-05
-7.4032e-15
1.29154e-05
2.82667e-14
1.36136e-05
-4.57087e-14
1.43117e-05
-8.22265e-15
1.50098e-05
-2.82287e-14
1.5708e-05
-2.33891e-15
1.64061e-05
-6.94395e-15
1.71042e-05
2.21497e-14
1.78024e-05
-3.41116e-14
1.85005e-05
-3.73822e-15
1.91986e-05
-3.23446e-14
1.98967e-05
2.05949e-05
-8.92506e-15
4.53785e-06
-2.28906e-15
5.23599e-06
-2.2239e-15
5.93412e-06
6.6168e-15
6.63225e-06
-3.38819e-15
7.33038e-06
-3.90701e-15
8.02851e-06
-6.41882e-15
8.72664e-06
-7.15892e-15
9.42478e-06
6.8108e-15
1.01229e-05
6.9819e-15
1.0821e-05
-9.06395e-15
1.15192e-05
6.75966e-15
1.22173e-05
-2.88883e-14
1.29154e-05
-1.22319e-14
1.36136e-05
4.80128e-15
1.43117e-05
2.50258e-14
1.50098e-05
3.86233e-15
1.5708e-05
3.60762e-15
1.64061e-05
-2.04815e-14
1.71042e-05
-2.17606e-14
1.78024e-05
3.46716e-15
1.85005e-05
2.90387e-14
1.91986e-05
-1.66284e-15
1.98967e-05
2.05949e-05
6.21568e-15
4.53785e-06
-3.87941e-15
5.23599e-06
1.54221e-14
5.93412e-06
-7.06484e-15
6.63225e-06
-2.21087e-15
7.33038e-06
1.42863e-15
8.02851e-06
-5.49382e-15
8.72664e-06
1.32257e-14
9.42478e-06
6.04503e-15
1.01229e-05
-1.74519e-14
1.0821e-05
2.0888e-14
1.15192e-05
-2.14452e-14
1.22173e-05
1.91345e-14
1.29154e-05
-7.31413e-15
1.36136e-05
3.84846e-14
1.43117e-05
-1.29249e-14
1.50098e-05
-1.88231e-15
1.5708e-05
5.71454e-15
1.64061e-05
-7.58812e-15
1.71042e-05
2.76577e-14
1.78024e-05
1.40956e-14
1.85005e-05
-5.31386e-14
1.91986e-05
3.90814e-14
1.98967e-05
2.05949e-05
-1.49872e-15
4.53785e-06
1.08971e-14
5.23599e-06
-6.59964e-15
5.93412e-06
7.26563e-15
6.63225e-06
6.17532e-15
7.33038e-06
2.48856e-15
8.02851e-06
-9.65264e-16
8.72664e-06
-4.36591e-15
9.42478e-06
-8.90104e-15
1.01229e-05
1.38633e-14
1.0821e-05
1.06901e-14
1.15192e-05
6.2507e-15
1.22173e-05
-1.2725e-16
1.29154e-05
-3.43637e-15
1.36136e-05
-1.10446e-14
1.43117e-05
-1.77663e-14
1.50098e-05
1.76819e-14
1.5708e-05
9.95426e-15
1.64061e-05
3.32725e-15
1.71042e-05
-3.29691e-14
1.78024e-05
-1.04233e-14
1.85005e-05
3.00687e-14
1.91986e-05
-5.99954e-14
1.98967e-05
2.05949e-05
5.17016e-15
4.53785e-06
-7.45569e-15
5.23599e-06
-7.56616e-16
5.93412e-06
6.83925e-15
6.63225e-06
-9.97396e-15
7.33038e-06
-1.66396e-15
8.02851e-06
9.21873e-15
8.72664e-06
-1.34589e-14
9.42478e-06
2.32211e-14
1.01229e-05
1.04721e-14
1.0821e-05
-1.72717e-14
1.15192e-05
-3.02646e-15
1.22173e-05
1.13974e-14
1.29154e-05
-1.98158e-14
1.36136e-05
-4.67949e-15
1.43117e-05
5.03079e-14
1.50098e-05
-2.40454e-14
1.5708e-05
-6.65583e-15
1.64061e-05
1.42629e-14
1.71042e-05
1.64863e-15
1.78024e-05
-6.80999e-15
1.85005e-05
1.44426e-14
1.91986e-05
5.07557e-14
1.98967e-05
2.05949e-05
-6.19719e-15
4.53785e-06
2.83345e-17
5.23599e-06
1.15118e-14
5.93412e-06
-2.06261e-14
6.63225e-06
5.3669e-15
7.33038e-06
1.22117e-15
8.02851e-06
-4.73339e-17
8.72664e-06
1.23941e-14
9.42478e-06
-1.32267e-14
1.01229e-05
-1.88959e-14
1.0821e-05
-4.96329e-15
1.15192e-05
-7.15438e-15
1.22173e-05
-1.48877e-14
1.29154e-05
3.53385e-14
1.36136e-05
-2.66814e-19
1.43117e-05
-4.31383e-14
1.50098e-05
1.35628e-14
1.5708e-05
-2.82574e-14
1.64061e-05
2.45488e-15
1.71042e-05
-1.02431e-14
1.78024e-05
2.38032e-14
1.85005e-05
1.38756e-14
1.91986e-05
-4.5562e-14
1.98967e-05
2.05949e-05
-1.90661e-15
4.53785e-06
1.1303e-15
5.23599e-06
-2.16619e-14
5.93412e-06
9.62389e-15
6.63225e-06
1.5137e-14
7.33038e-06
-1.40654e-14
8.02851e-06
8.09303e-15
8.72664e-06
-2.69592e-14
9.42478e-06
-1.96639e-15
1.01229e-05
2.97161e-14
1.0821e-05
-1.17449e-14
1.15192e-05
1.98673e-14
1.22173e-05
-2.74455e-14
1.29154e-05
-2.06159e-14
1.36136e-05
1.60409e-14
1.43117e-05
-4.61467e-15
1.50098e-05
4.69079e-15
1.5708e-05
4.79634e-14
1.64061e-05
-1.37379e-14
1.71042e-05
3.23721e-14
1.78024e-05
-3.51898e-14
1.85005e-05
-2.49031e-14
1.91986e-05
7.19175e-14
1.98967e-05
2.05949e-05
1.90653e-15
4.53785e-06
-1.13062e-15
5.23599e-06
2.16619e-14
5.93412e-06
-9.62429e-15
6.63225e-06
-1.51376e-14
7.33038e-06
1.40657e-14
8.02851e-06
-8.09274e-15
8.72664e-06
2.69594e-14
9.42478e-06
1.96532e-15
1.01229e-05
-2.97178e-14
1.0821e-05
1.17452e-14
1.15192e-05
-1.98673e-14
1.22173e-05
2.74454e-14
1.29154e-05
2.06157e-14
1.36136e-05
-1.60416e-14
1.43117e-05
4.61224e-15
1.50098e-05
-4.69277e-15
1.5708e-05
-4.79679e-14
1.64061e-05
1.37393e-14
1.71042e-05
-3.2371e-14
1.78024e-05
3.5182e-14
1.85005e-05
2.49045e-14
1.91986e-05
-7.19136e-14
1.98967e-05
2.05949e-05
6.19729e-15
4.53785e-06
-2.84743e-17
5.23599e-06
-1.15117e-14
5.93412e-06
2.06257e-14
6.63225e-06
-5.36726e-15
7.33038e-06
-1.22184e-15
8.02851e-06
4.73172e-17
8.72664e-06
-1.23939e-14
9.42478e-06
1.32262e-14
1.01229e-05
1.88944e-14
1.0821e-05
4.9641e-15
1.15192e-05
7.1527e-15
1.22173e-05
1.48862e-14
1.29154e-05
-3.53403e-14
1.36136e-05
-2.89222e-19
1.43117e-05
4.31368e-14
1.50098e-05
-1.35647e-14
1.5708e-05
2.82553e-14
1.64061e-05
-2.45732e-15
1.71042e-05
1.02414e-14
1.78024e-05
-2.38047e-14
1.85005e-05
-1.38744e-14
1.91986e-05
4.55638e-14
1.98967e-05
2.05949e-05
-5.17025e-15
4.53785e-06
7.45561e-15
5.23599e-06
7.567e-16
5.93412e-06
-6.84012e-15
6.63225e-06
9.97425e-15
7.33038e-06
1.66412e-15
8.02851e-06
-9.21883e-15
8.72664e-06
1.34593e-14
9.42478e-06
-2.32221e-14
1.01229e-05
-1.04724e-14
1.0821e-05
1.72728e-14
1.15192e-05
3.0268e-15
1.22173e-05
-1.13982e-14
1.29154e-05
1.98144e-14
1.36136e-05
4.67922e-15
1.43117e-05
-5.03066e-14
1.50098e-05
2.40431e-14
1.5708e-05