/*--------------------------------*- C++ -*----------------------------------*\
  =========                 |
  \\      /  F ield         | OpenFOAM: The Open Source CFD Toolbox
   \\    /   O peration     | Website:  https://openfoam.org
    \\  /    A nd           | Version:  11
     \\/     M anipulation  |
\*---------------------------------------------------------------------------*/
FoamFile
{
    format      ascii;
    class       volScalarField;
    location    "0.5";
    object      p;
}
// * * * * * * * * * * * * * * * * * * * * * * * * * * * * * * * * * * * * * //

dimensions      [0 2 -2 0 0 0 0];

internalField   nonuniform List<scalar> 
2880
(
-0.833742
-0.848886
-0.866149
-0.881087
-0.867823
-0.828042
-0.827293
-0.847202
-0.864101
-0.88173
-0.874097
-0.842234
-0.814483
-0.843308
-0.859641
-0.878167
-0.876088
-0.857967
-0.808009
-0.840085
-0.856329
-0.875114
-0.877354
-0.869769
-0.814506
-0.839187
-0.855355
-0.874184
-0.880261
-0.880346
-0.827694
-0.840233
-0.856255
-0.874895
-0.884566
-0.8908
-0.835871
-0.841747
-0.857981
-0.876464
-0.889434
-0.900773
-0.83871
-0.843132
-0.859934
-0.878365
-0.89416
-0.909625
-0.840755
-0.844214
-0.861804
-0.880218
-0.898209
-0.916781
-0.843029
-0.844878
-0.863323
-0.881687
-0.901177
-0.921745
-0.845075
-0.844976
-0.864316
-0.882511
-0.902777
-0.924157
-0.846335
-0.844369
-0.864733
-0.88255
-0.902861
-0.923859
-0.846493
-0.84324
-0.864313
-0.881798
-0.901443
-0.92093
-0.845468
-0.841348
-0.863412
-0.880358
-0.898692
-0.915669
-0.843337
-0.838745
-0.862097
-0.878386
-0.894909
-0.908532
-0.840282
-0.835564
-0.860489
-0.876097
-0.890484
-0.900013
-0.83684
-0.831896
-0.858814
-0.873796
-0.885876
-0.890786
-0.836691
-0.828422
-0.857452
-0.871936
-0.881625
-0.882382
-0.841744
-0.827002
-0.856756
-0.871071
-0.878588
-0.877255
-0.844613
-0.826775
-0.856355
-0.871528
-0.878127
-0.877852
-0.841787
-0.826028
-0.855585
-0.87297
-0.881577
-0.892644
-0.83388
-0.82366
-0.853878
-0.874929
-0.888245
-0.930495
-0.823084
-0.82
-0.851848
-0.876738
-0.895627
-0.976642
-0.817919
-0.817607
-0.851679
-0.879358
-0.902375
-1.00242
-0.807883
-0.786991
-0.760809
-0.723033
-0.671198
-0.606874
-0.534315
-0.45892
-0.385449
-0.317135
-0.2558
-0.202378
-0.156942
-0.119184
-0.0883739
-0.0631943
-0.0434376
-0.0282772
-0.0169759
-0.00876437
-0.00307901
0.000720501
0.00374793
0.00597077
-0.829303
-0.809879
-0.784062
-0.745553
-0.691483
-0.622622
-0.543988
-0.462132
-0.382744
-0.309686
-0.244949
-0.189298
-0.14255
-0.104572
-0.0735582
-0.0489809
-0.0299482
-0.0155776
-0.00505505
0.00225247
0.00697325
0.0100388
0.0130177
0.0136103
-0.848291
-0.832799
-0.810861
-0.774475
-0.719525
-0.646292
-0.560674
-0.470895
-0.383988
-0.304752
-0.235456
-0.176731
-0.128215
-0.0890028
-0.0578273
-0.0335807
-0.0152036
-0.00174672
0.0076093
0.0135361
0.0166407
0.0178503
0.0184366
0.0153337
-0.866065
-0.856846
-0.841258
-0.809587
-0.755555
-0.678385
-0.585019
-0.486018
-0.390078
-0.303472
-0.228701
-0.166314
-0.115564
-0.0751138
-0.0435196
-0.0194135
-0.00156358
0.0110679
0.0193264
0.0238785
0.0252544
0.0241146
0.0210489
0.0142708
-0.883263
-0.881994
-0.874813
-0.850384
-0.799265
-0.718698
-0.616634
-0.506815
-0.399182
-0.304256
-0.223755
-0.157843
-0.10522
-0.0640626
-0.0325108
-0.00888119
0.00824998
0.0200296
0.0273805
0.0310086
0.0313735
0.0290357
0.024022
0.0159522
-0.900043
-0.90755
-0.910413
-0.895541
-0.849308
-0.765944
-0.654028
-0.532665
-0.408975
-0.306508
-0.220274
-0.150952
-0.0968136
-0.0554473
-0.0244508
-0.00172459
0.0143497
0.0249862
0.0313416
0.0343085
0.0343124
0.0320496
0.0264675
0.0193787
-0.91594
-0.932325
-0.946201
-0.942634
-0.903067
-0.817943
-0.695567
-0.559764
-0.429457
-0.31744
-0.225681
-0.153335
-0.0978356
-0.0561583
-0.0254392
-0.00317042
0.0123882
0.0220697
0.0273516
0.0298844
0.0297714
0.0279866
0.0222037
0.0182231
-0.930104
-0.954686
-0.979503
-0.987765
-0.95576
-0.869581
-0.738829
-0.593302
-0.456434
-0.33928
-0.24465
-0.170997
-0.114966
-0.0729497
-0.0418083
-0.0188539
-0.00199437
0.010277
0.0181204
0.0222367
0.0237473
0.0230926
0.0198814
0.0193083
-0.941524
-0.972648
-1.00713
-1.02556
-0.999094
-0.911663
-0.774525
-0.622857
-0.482439
-0.363908
-0.269631
-0.196935
-0.141348
-0.0988008
-0.0661122
-0.0412528
-0.0226184
-0.00861162
0.00163967
0.00881266
0.0136259
0.0162526
0.0173883
0.0214109
-0.949257
-0.984332
-1.02666
-1.0511
-1.02476
-0.933867
-0.792033
-0.638074
-0.498357
-0.381887
-0.29006
-0.219239
-0.164336
-0.121577
-0.0881512
-0.0618926
-0.0412457
-0.0249847
-0.0121508
-0.00226662
0.00523143
0.0109503
0.0170192
0.0237832
-0.952685
-0.990091
-1.03478
-1.05877
-1.02848
-0.931165
-0.787276
-0.635658
-0.500443
-0.389048
-0.301082
-0.232719
-0.178872
-0.136084
-0.101966
-0.0746787
-0.0527707
-0.0350991
-0.0207246
-0.00908458
0.000558064
0.0098796
0.0200748
0.0266338
-0.951394
-0.988121
-1.03205
-1.04827
-1.00967
-0.904864
-0.761828
-0.615874
-0.488423
-0.385798
-0.30272
-0.237333
-0.185302
-0.143276
-0.109102
-0.0811816
-0.0582397
-0.039241
-0.0232902
-0.00982224
0.00155904
0.0122607
0.0244506
0.0316769
-0.945432
-0.979114
-1.01784
-1.02129
-0.970353
-0.859077
-0.718694
-0.58194
-0.466173
-0.371714
-0.294623
-0.232827
-0.183006
-0.142331
-0.108855
-0.0811295
-0.0579792
-0.0384505
-0.0217812
-0.0074079
0.00503523
0.0170577
0.0318457
0.0391914
-0.935306
-0.964433
-0.990923
-0.98043
-0.914925
-0.798927
-0.66443
-0.538711
-0.434118
-0.348202
-0.277575
-0.219912
-0.172678
-0.133656
-0.101192
-0.0740272
-0.0511301
-0.0316424
-0.0148841
-0.000384335
0.0124025
0.0255265
0.0425552
0.0487274
-0.922054
-0.945594
-0.952106
-0.927391
-0.84766
-0.728805
-0.60245
-0.489304
-0.394635
-0.316877
-0.252651
-0.199489
-0.155357
-0.118478
-0.0874407
-0.0611564
-0.0387587
-0.0195407
-0.0029454
0.0114278
0.024151
0.0377378
0.0560926
0.0599433
-0.906904
-0.923729
-0.905392
-0.863525
-0.771179
-0.652505
-0.535797
-0.434238
-0.349716
-0.2797
-0.221415
-0.172694
-0.131825
-0.0973579
-0.0681099
-0.0431393
-0.0216953
-0.0031746
0.0128809
0.0267856
0.0391417
0.052914
0.0721452
0.0729549
-0.890452
-0.893192
-0.856096
-0.791055
-0.687624
-0.572453
-0.466244
-0.375747
-0.300426
-0.237689
-0.185098
-0.140773
-0.103246
-0.0713203
-0.0440249
-0.0205836
-0.000370473
0.0171291
0.0323085
0.0454186
0.0570983
0.0707397
0.0905108
0.0878666
-0.875116
-0.845909
-0.801894
-0.711613
-0.599467
-0.490185
-0.394614
-0.314452
-0.2477
-0.191814
-0.144689
-0.104712
-0.0706192
-0.0413969
-0.0162392
0.00548829
0.0242925
0.0405957
0.0547233
0.066857
0.0776569
0.0908965
0.110899
0.104624
-0.861466
-0.790983
-0.73309
-0.623843
-0.508036
-0.406383
-0.3214
-0.250911
-0.192189
-0.14286
-0.101073
-0.0654244
-0.0348271
-0.0084288
0.0144354
0.0342804
0.0515151
0.0664833
0.0794379
0.0904822
0.100271
0.112938
0.133023
0.123288
-0.835015
-0.742988
-0.649431
-0.526719
-0.413471
-0.32126
-0.246683
-0.18549
-0.13456
-0.0916619
-0.0551642
-0.0238521
0.00319537
0.0266844
0.0471549
0.0650169
0.0805946
0.0941622
0.105896
0.115799
0.124516
0.13652
0.156616
0.143885
-0.780215
-0.689696
-0.552775
-0.420709
-0.315359
-0.234432
-0.170589
-0.118663
-0.0754682
-0.038966
-0.00774716
0.019206
0.0426499
0.0631561
0.0811547
0.0969677
0.110847
0.123001
0.13353
0.142317
0.149974
0.16126
0.181312
0.166413
-0.701709
-0.592953
-0.433396
-0.304747
-0.213099
-0.14568
-0.09342
-0.0510341
-0.0156399
0.0144693
0.0404184
0.0630034
0.0828111
0.100284
0.115754
0.129471
0.141625
0.152373
0.161741
0.169502
0.176184
0.186712
0.206633
0.190961
-0.619124
-0.433036
-0.282926
-0.178908
-0.107634
-0.0559475
-0.0160268
0.0165945
0.0441672
0.0679212
0.0886398
0.106876
0.123041
0.137452
0.150351
0.161922
0.172312
0.181638
0.189883
0.196759
0.202664
0.212394
0.23192
0.218069
-0.473296
-0.220649
-0.108737
-0.0462715
-0.00105576
0.0331525
0.0603347
0.0832097
0.103102
0.120657
0.136274
0.150248
0.162814
0.174163
0.18445
0.193801
0.202323
0.210114
0.217177
0.223268
0.228573
0.236988
0.255093
0.250821
1.24145
1.26566
1.28348
1.28649
1.22082
0.973341
1.24165
1.26155
1.26781
1.25947
1.15946
0.964432
1.24127
1.25587
1.25268
1.23491
1.13561
0.966507
1.24063
1.2509
1.24189
1.2177
1.12604
0.981158
1.24123
1.24739
1.23505
1.20693
1.12387
0.997321
1.24147
1.24511
1.2305
1.20047
1.12442
1.01127
1.24088
1.2434
1.22723
1.19659
1.1256
1.02349
1.23996
1.24178
1.22483
1.19405
1.12722
1.03459
1.23892
1.24005
1.22309
1.19231
1.12936
1.0448
1.23779
1.23817
1.22182
1.19134
1.13205
1.05419
1.23661
1.2362
1.22095
1.19121
1.1353
1.06278
1.2354
1.23421
1.22049
1.19187
1.13908
1.07085
1.23416
1.23228
1.22042
1.19326
1.1434
1.07846
1.23291
1.23055
1.22074
1.19531
1.14824
1.08571
1.23168
1.22906
1.22139
1.19793
1.15355
1.09267
1.23052
1.22782
1.2223
1.20097
1.15927
1.09936
1.22958
1.22682
1.22333
1.20429
1.16528
1.10582
1.22886
1.22605
1.2243
1.20767
1.17139
1.11197
1.22889
1.22539
1.22491
1.21088
1.17722
1.11764
1.22914
1.22462
1.22479
1.21352
1.18222
1.12249
1.22816
1.22344
1.22347
1.21491
1.1858
1.12637
1.22713
1.2215
1.22078
1.21424
1.18778
1.12912
1.22738
1.2192
1.21722
1.21157
1.18781
1.12639
1.22778
1.21736
1.21427
1.20849
1.18186
1.08337
0.000957968
0.00506782
0.0594204
0.083459
0.102335
0.119127
0.134049
0.147703
0.160349
0.172037
0.182795
0.192677
0.201749
0.210078
0.217727
0.224748
0.231194
0.237133
0.24261
0.247458
0.251321
0.255717
0.268379
0.295182
0.337035
0.205505
0.205151
0.200357
0.197792
0.199548
0.203714
0.209159
0.215246
0.221548
0.227802
0.233856
0.239628
0.245068
0.250141
0.254812
0.259055
0.262866
0.266225
0.268778
0.269786
0.271243
0.284838
0.313062
0.54094
0.375224
0.331384
0.302623
0.283857
0.273659
0.268769
0.267076
0.267351
0.268826
0.271009
0.273586
0.27635
0.279154
0.281883
0.284433
0.286725
0.288713
0.290279
0.290855
0.289928
0.291749
0.309086
0.323372
0.673001
0.506755
0.436446
0.391104
0.36062
0.341122
0.328792
0.321057
0.316326
0.313592
0.312196
0.311704
0.311813
0.312303
0.312994
0.313735
0.314415
0.314965
0.315213
0.314516
0.312682
0.315235
0.334544
0.340758
0.761752
0.607214
0.523299
0.467082
0.428266
0.401778
0.38357
0.370891
0.36197
0.355659
0.351196
0.348064
0.345895
0.34441
0.343384
0.342627
0.342001
0.341419
0.340669
0.339076
0.336642
0.33946
0.359415
0.361329
0.823768
0.683144
0.594012
0.531674
0.48736
0.455852
0.433148
0.416536
0.404195
0.394917
0.387887
0.382538
0.378458
0.375327
0.372883
0.370907
0.369238
0.367772
0.366269
0.364038
0.361187
0.364053
0.384016
0.383451
0.869034
0.741218
0.651648
0.586439
0.538756
0.50375
0.477723
0.458067
0.443002
0.431321
0.422191
0.415023
0.409376
0.404901
0.401307
0.398352
0.395853
0.393692
0.391609
0.388906
0.385765
0.388578
0.408147
0.40609
0.903284
0.786527
0.698886
0.632841
0.583291
0.545992
0.517585
0.49564
0.478463
0.464882
0.454076
0.445449
0.438546
0.432998
0.428492
0.424762
0.421613
0.418913
0.41639
0.413349
0.410033
0.412745
0.431611
0.428684
0.929998
0.822564
0.73785
0.672165
0.621797
0.583104
0.553069
0.529459
0.510691
0.49565
0.483542
0.473778
0.465897
0.459515
0.454302
0.449975
0.446327
0.443218
0.44037
0.437107
0.433716
0.436292
0.4542
0.450828
0.951416
0.851694
0.770179
0.70551
0.655024
0.615596
0.584519
0.559754
0.539833
0.523708
0.510622
0.500001
0.491382
0.484374
0.478632
0.473859
0.46984
0.46643
0.463354
0.459965
0.456584
0.458994
0.475734
0.472219
0.969072
0.875547
0.797118
0.733782
0.683627
0.64394
0.612273
0.58676
0.566046
0.549155
0.535367
0.524127
0.514979
0.507522
0.501401
0.49631
0.492027
0.488408
0.485184
0.481751
0.478446
0.480659
0.496059
0.492615
0.983846
0.895247
0.819606
0.757712
0.708165
0.668557
0.636643
0.610706
0.589494
0.572098
0.557839
0.546184
0.53668
0.528925
0.52255
0.517246
0.51279
0.509036
0.50573
0.502316
0.49914
0.501126
0.51505
0.511823
0.996347
0.911585
0.838348
0.777881
0.7291
0.689812
0.657912
0.631806
0.610334
0.592648
0.57811
0.566206
0.556492
0.54856
0.542037
0.536607
0.532048
0.52822
0.524885
0.521541
0.518528
0.520258
0.532613
0.529694
1.00699
0.925104
0.85386
0.794741
0.746813
0.708016
0.676329
0.650256
0.628715
0.610914
0.596251
0.584235
0.574428
0.56642
0.559831
0.554345
0.549741
0.545887
0.542563
0.539327
0.536499
0.53795
0.54868
0.54612
1.016
0.936157
0.866512
0.808634
0.761611
0.72343
0.692113
0.666233
0.644775
0.626997
0.612335
0.600316
0.590509
0.582503
0.575914
0.570425
0.565822
0.561977
0.558694
0.555592
0.552964
0.554119
0.563211
0.561026
1.02352
0.944938
0.876545
0.819814
0.773737
0.736275
0.705452
0.679894
0.65864
0.640997
0.626432
0.614493
0.604758
0.596814
0.590274
0.584823
0.580254
0.576446
0.573227
0.570275
0.567851
0.568704
0.576186
0.574368
1.02953
0.951508
0.884095
0.828454
0.783381
0.746735
0.716515
0.691383
0.670429
0.653005
0.638611
0.626816
0.617204
0.609364
0.60291
0.597527
0.593015
0.589262
0.586121
0.583329
0.58111
0.581681
0.587631
0.58612
1.03392
0.955797
0.889211
0.834672
0.790701
0.754971
0.725451
0.70083
0.680251
0.66311
0.64894
0.63733
0.627877
0.620171
0.613824
0.608528
0.604089
0.600404
0.597348
0.594718
0.592715
0.593065
0.5976
0.596171
1.03644
0.957606
0.891876
0.838555
0.795838
0.761136
0.732404
0.708362
0.688211
0.671396
0.657484
0.646087
0.636812
0.629253
0.623026
0.617825
0.613465
0.609848
0.60687
0.604382
0.602573
0.602739
0.605928
0.604314
1.03677
0.956652
0.892033
0.840199
0.798941
0.765388
0.737516
0.714101
0.694414
0.677949
0.664312
0.653136
0.644045
0.636638
0.630533
0.625429
0.621144
0.617587
0.614672
0.612294
0.610598
0.610472
0.612486
0.611194
1.0347
0.952569
0.889619
0.839735
0.800191
0.767901
0.740936
0.718172
0.698961
0.682853
0.669489
0.658532
0.64962
0.64236
0.636374
0.631366
0.627156
0.623657
0.620803
0.618522
0.616898
0.61647
0.617548
0.616766
1.02964
0.944819
0.884625
0.837382
0.799823
0.768877
0.742831
0.72071
0.70196
0.686191
0.673084
0.662328
0.653579
0.646455
0.640581
0.635664
0.631526
0.628086
0.625292
0.623097
0.621539
0.620891
0.621271
0.620836
1.01794
0.932757
0.877316
0.833538
0.798143
0.768533
0.743357
0.721832
0.703506
0.688042
0.675161
0.664577
0.655966
0.648957
0.643181
0.638346
0.634276
0.630889
0.628147
0.626019
0.624512
0.623718
0.623631
0.623441
0.989772
0.916815
0.868748
0.82886
0.795512
0.767084
0.742653
0.721638
0.703672
0.688465
0.675767
0.66532
0.656816
0.649896
0.6442
0.639435
0.635424
0.632085
0.629386
0.627305
0.625829
0.624958
0.624637
0.624592
1.06733
1.03951
1.00881
0.9755
0.966718
0.975359
1.07491
1.04293
1.01367
0.980176
0.968394
0.969747
1.08447
1.04906
1.02014
0.986664
0.970983
0.962308
1.07975
1.05424
1.02517
0.992359
0.973458
0.957268
1.07345
1.05668
1.02796
0.996075
0.974152
0.952552
1.07118
1.05727
1.02903
0.997982
0.973019
0.947343
1.06939
1.05699
1.029
0.998505
0.970592
0.941693
1.06684
1.05634
1.02829
0.998002
0.967283
0.935647
1.06388
1.0557
1.02723
0.996767
0.963299
0.929145
1.06119
1.05544
1.02612
0.99503
0.958767
0.922086
1.05932
1.05587
1.02523
0.992987
0.953771
0.914335
1.05865
1.05722
1.02473
0.99081
0.948341
0.905727
1.05941
1.05965
1.02477
0.988661
0.942478
0.896062
1.06174
1.06298
1.02558
0.986632
0.936172
0.885113
1.06551
1.06748
1.02715
0.984891
0.929398
0.872603
1.07047
1.07297
1.02949
0.983549
0.922147
0.85822
1.07625
1.07908
1.03255
0.982701
0.914467
0.841538
1.08236
1.08536
1.03619
0.982387
0.906456
0.822142
1.08821
1.09127
1.04016
0.982632
0.89818
0.799835
1.09322
1.09632
1.04421
0.983738
0.889902
0.7748
1.09701
1.10039
1.04871
0.986894
0.883009
0.748329
1.09989
1.10436
1.05523
0.994082
0.880923
0.723293
1.10306
1.10923
1.06479
1.00432
0.885837
0.695338
1.10626
1.11277
1.07145
1.00612
0.886468
0.678518
0.952461
0.901953
0.860898
0.824123
0.792287
0.764725
0.740845
0.720216
0.702525
0.687511
0.674947
0.664592
0.656156
0.649297
0.643659
0.638951
0.634989
0.631691
0.629024
0.626967
0.625501
0.624624
0.624305
0.624302
0.936937
0.893103
0.854921
0.819668
0.788623
0.761555
0.738012
0.71763
0.700115
0.685222
0.672734
0.662424
0.654018
0.647186
0.641581
0.636911
0.632987
0.62972
0.627074
0.625019
0.623544
0.622731
0.622652
0.622589
0.928414
0.887552
0.849918
0.815167
0.784412
0.757539
0.734148
0.713887
0.69646
0.68162
0.669153
0.65884
0.650422
0.643582
0.637984
0.633332
0.629432
0.626188
0.623552
0.621476
0.619972
0.619293
0.619688
0.619463
0.922099
0.882436
0.8448
0.810167
0.779447
0.75258
0.729203
0.70896
0.691544
0.676697
0.664203
0.653847
0.645379
0.638498
0.632878
0.628225
0.624335
0.621104
0.618466
0.61635
0.614801
0.614333
0.615432
0.614935
0.916108
0.876712
0.838985
0.804346
0.773535
0.746562
0.723102
0.702801
0.685334
0.670434
0.657874
0.647439
0.63889
0.63194
0.626273
0.621597
0.617703
0.614475
0.611828
0.609657
0.608059
0.60789
0.60993
0.608966
0.909789
0.870174
0.832264
0.797515
0.766524
0.739367
0.715759
0.695343
0.677783
0.662795
0.650141
0.639604
0.63095
0.623906
0.618169
0.613451
0.609537
0.606299
0.603631
0.601385
0.599698
0.599816
0.603036
0.601814
0.902957
0.862785
0.824536
0.789538
0.758281
0.73088
0.707075
0.686507
0.668827
0.653732
0.640971
0.630319
0.621547
0.614393
0.608567
0.603787
0.599834
0.596567
0.593856
0.591498
0.589635
0.589933
0.594497
0.593575
0.895513
0.854453
0.815667
0.780275
0.748671
0.720976
0.696942
0.676205
0.658394
0.643188
0.630319
0.619553
0.610661
0.603391
0.597466
0.592612
0.588605
0.585298
0.58253
0.580034
0.577972
0.578496
0.584476
0.583502
0.887275
0.844999
0.805468
0.769554
0.737536
0.709515
0.68524
0.664332
0.646398
0.631094
0.618133
0.607269
0.598269
0.590891
0.584869
0.579938
0.575875
0.572524
0.569695
0.567058
0.564802
0.565613
0.573137
0.571885
0.878016
0.834177
0.793702
0.757162
0.724689
0.696333
0.671827
0.650769
0.632741
0.617372
0.604352
0.593421
0.584343
0.576879
0.570774
0.565775
0.561661
0.558271
0.555386
0.552609
0.550158
0.551276
0.560421
0.558841
0.867461
0.821676
0.780064
0.74283
0.709898
0.681234
0.656538
0.635381
0.617312
0.601933
0.588908
0.577961
0.568848
0.561334
0.555176
0.550129
0.54598
0.542564
0.539634
0.536728
0.534086
0.535509
0.546311
0.544389
0.855278
0.807102
0.76417
0.726221
0.692881
0.663983
0.63918
0.618009
0.599985
0.584676
0.571723
0.56083
0.551746
0.544237
0.538069
0.533008
0.52885
0.525429
0.522477
0.519463
0.516643
0.518361
0.530818
0.528565
0.841036
0.789955
0.745536
0.706913
0.673285
0.644297
0.619527
0.598473
0.580616
0.565492
0.552715
0.541971
0.532999
0.525567
0.519448
0.514421
0.510292
0.506899
0.503954
0.500867
0.497895
0.499894
0.513965
0.511426
0.824179
0.7696
0.723554
0.684377
0.650683
0.621836
0.597314
0.576567
0.559048
0.544262
0.531797
0.521323
0.512571
0.505308
0.499315
0.494385
0.490335
0.487011
0.484115
0.481001
0.477917
0.480182
0.495786
0.493052
0.803963
0.745246
0.69746
0.657962
0.624549
0.596197
0.572233
0.552061
0.535109
0.520859
0.508882
0.498832
0.490432
0.483453
0.477683
0.472929
0.469022
0.465819
0.46302
0.459937
0.456796
0.459313
0.476329
0.47354
0.779365
0.715889
0.66628
0.62686
0.594256
0.566905
0.543934
0.524697
0.508611
0.495153
0.483883
0.474447
0.466565
0.46001
0.454583
0.450102
0.446417
0.443399
0.440755
0.437768
0.434639
0.437389
0.455647
0.453004
0.749033
0.680188
0.628757
0.590091
0.559061
0.533412
0.512022
0.494195
0.479361
0.467014
0.45672
0.448129
0.440965
0.435006
0.430066
0.42598
0.422615
0.41986
0.417437
0.41462
0.411578
0.414536
0.433807
0.431579
0.711171
0.636147
0.583401
0.546516
0.518126
0.495111
0.476069
0.460261
0.447161
0.436315
0.427323
0.419855
0.413646
0.40849
0.404214
0.400671
0.397747
0.395353
0.393232
0.390667
0.387792
0.39091
0.410893
0.409446
0.663194
0.580972
0.528522
0.494919
0.47056
0.451363
0.43563
0.422596
0.41182
0.402944
0.395639
0.389617
0.384645
0.380534
0.377134
0.374317
0.371987
0.370077
0.368358
0.366143
0.363518
0.366714
0.387006
0.386884
0.601495
0.511134
0.46228
0.434038
0.415469
0.401541
0.390275
0.380918
0.373165
0.366807
0.361632
0.35743
0.354014
0.351233
0.34896
0.347089
0.345547
0.344283
0.343105
0.341364
0.339082
0.342204
0.362259
0.364375
0.521749
0.422396
0.382682
0.362671
0.352041
0.345096
0.339634
0.334989
0.331057
0.327839
0.325292
0.323323
0.321824
0.320693
0.319838
0.319183
0.318673
0.318274
0.317831
0.316753
0.314939
0.317717
0.336691
0.342794
0.417666
0.310191
0.287762
0.279935
0.27972
0.281666
0.283466
0.284655
0.285413
0.286012
0.286631
0.287341
0.288146
0.289014
0.289908
0.290785
0.291611
0.292373
0.292965
0.292885
0.291803
0.293722
0.309941
0.323728
0.270998
0.170575
0.175514
0.185295
0.198289
0.211155
0.221714
0.229883
0.236227
0.241343
0.245685
0.249531
0.253032
0.256259
0.259244
0.261996
0.264518
0.266824
0.268917
0.270433
0.270801
0.271628
0.282597
0.310146
0.0400639
0.0126751
0.0499408
0.0804875
0.108748
0.134063
0.154634
0.170816
0.183591
0.193908
0.202515
0.209934
0.216498
0.222408
0.227789
0.232726
0.237285
0.241541
0.245551
0.249132
0.251768
0.25481
0.266426
0.28711
-0.548677
-0.532405
-0.532625
-0.547106
-0.573087
-0.64674
-0.551859
-0.536987
-0.541287
-0.559135
-0.582837
-0.646092
-0.556532
-0.543014
-0.551164
-0.570251
-0.588031
-0.613887
-0.555013
-0.547723
-0.558921
-0.578329
-0.593856
-0.611142
-0.55504
-0.551895
-0.565136
-0.584651
-0.600663
-0.615052
-0.557397
-0.556377
-0.570685
-0.590313
-0.607809
-0.621885
-0.560116
-0.561213
-0.575893
-0.595578
-0.614507
-0.630215
-0.562864
-0.566204
-0.580776
-0.600419
-0.620529
-0.638481
-0.565578
-0.571141
-0.585259
-0.604753
-0.625779
-0.645906
-0.568188
-0.575853
-0.589268
-0.608499
-0.630185
-0.652187
-0.570622
-0.580207
-0.592755
-0.611599
-0.6337
-0.657193
-0.572842
-0.584096
-0.595702
-0.614023
-0.636293
-0.660872
-0.574838
-0.587473
-0.598111
-0.615809
-0.637934
-0.663267
-0.576624
-0.590301
-0.600001
-0.617066
-0.638624
-0.664487
-0.578227
-0.592561
-0.601422
-0.617907
-0.638522
-0.6646
-0.57967
-0.594264
-0.602451
-0.618376
-0.637974
-0.663757
-0.580969
-0.59546
-0.603196
-0.618525
-0.637202
-0.662399
-0.582148
-0.59624
-0.603802
-0.618513
-0.6363
-0.661169
-0.583216
-0.596752
-0.604448
-0.618678
-0.63559
-0.660522
-0.583965
-0.597273
-0.605382
-0.619416
-0.635654
-0.661171
-0.58364
-0.598347
-0.606949
-0.621107
-0.637125
-0.663815
-0.583187
-0.600636
-0.609493
-0.623943
-0.640232
-0.667972
-0.584623
-0.603437
-0.612673
-0.627462
-0.644731
-0.674971
-0.585656
-0.605471
-0.614398
-0.628426
-0.651003
-0.725746
-0.299914
-0.166623
-0.0875498
-0.0316939
0.0135957
0.0517491
0.0829462
0.107854
0.127742
0.143852
0.157212
0.168591
0.17852
0.18735
0.195313
0.202567
0.209236
0.215415
0.221108
0.226019
0.229984
0.236181
0.251733
0.249614
-0.428045
-0.331117
-0.223047
-0.144782
-0.0840158
-0.0338744
0.00774102
0.0416246
0.0690507
0.0914056
0.109919
0.125573
0.139092
0.150979
0.161568
0.17108
0.179655
0.187372
0.194163
0.199658
0.203994
0.211439
0.228334
0.215918
-0.505571
-0.433025
-0.336581
-0.251777
-0.180868
-0.120681
-0.0696937
-0.027099
0.00799538
0.0368751
0.0608424
0.0810261
0.0983139
0.113355
0.126591
0.138307
0.14867
0.157759
0.16551
0.171612
0.176434
0.184516
0.201527
0.18639
-0.567567
-0.49586
-0.427209
-0.349428
-0.274727
-0.207262
-0.148208
-0.0975437
-0.0549069
-0.0193778
0.0102575
0.0351805
0.0563971
0.0746882
0.0906118
0.104531
0.116663
0.127121
0.135899
0.14282
0.148417
0.157057
0.17378
0.159042
-0.604337
-0.550572
-0.501417
-0.436434
-0.364132
-0.292661
-0.227025
-0.169072
-0.119177
-0.0769796
-0.0415205
-0.011669
0.0136409
0.0352998
0.0539819
0.0701495
0.084094
0.0959954
0.105933
0.113879
0.12046
0.129665
0.145993
0.133351
-0.625897
-0.600334
-0.563282
-0.512337
-0.447625
-0.375782
-0.30539
-0.241014
-0.184279
-0.135493
-0.0941085
-0.0591567
-0.0295782
-0.00440592
0.0171445
0.0356475
0.0514942
0.064954
0.0762059
0.0853596
0.0930714
0.102876
0.118817
0.109336
-0.642281
-0.639904
-0.615729
-0.578272
-0.523628
-0.455162
-0.382298
-0.312603
-0.249558
-0.194373
-0.147032
-0.106838
-0.0728137
-0.0439588
-0.0193956
0.00156625
0.0194336
0.0345825
0.0472984
0.0578101
0.0667657
0.0772211
0.0928173
0.0871329
-0.656144
-0.668644
-0.65969
-0.635282
-0.590994
-0.528943
-0.456326
-0.382792
-0.31415
-0.25289
-0.199666
-0.154152
-0.115532
-0.0828261
-0.0550886
-0.0315231
-0.0115027
0.00546471
0.0197748
0.0317619
0.0420476
0.0532183
0.068512
0.0668903
-0.667925
-0.689332
-0.694625
-0.682753
-0.649224
-0.594951
-0.525493
-0.450073
-0.37686
-0.310037
-0.251157
-0.200366
-0.157086
-0.120404
-0.0893471
-0.0630343
-0.0407294
-0.0218261
-0.00581698
0.00772944
0.0194087
0.0313479
0.0464073
0.0488409
-0.677655
-0.70461
-0.720651
-0.719825
-0.697408
-0.651409
-0.587256
-0.51234
-0.436038
-0.364468
-0.300374
-0.244537
-0.196673
-0.155987
-0.12153
-0.0923627
-0.0676654
-0.0467329
-0.0289524
-0.0138076
-0.00068777
0.0120855
0.0270187
0.0332429
-0.685306
-0.715802
-0.738688
-0.746646
-0.733946
-0.696807
-0.638964
-0.566904
-0.489479
-0.414408
-0.345856
-0.285432
-0.233297
-0.188759
-0.150953
-0.118885
-0.0917377
-0.0687309
-0.0491558
-0.032405
-0.0178364
-0.00416761
0.0107594
0.0202692
-0.690871
-0.723395
-0.749914
-0.763707
-0.758137
-0.72944
-0.678283
-0.610778
-0.534463
-0.457629
-0.385688
-0.321688
-0.265735
-0.2176
-0.176858
-0.141961
-0.112391
-0.0873403
-0.0660051
-0.0476876
-0.031738
-0.0171184
-0.00206826
0.0100047
-0.694431
-0.727672
-0.755353
-0.771851
-0.770635
-0.748185
-0.703558
-0.641314
-0.568054
-0.491592
-0.418081
-0.35106
-0.292706
-0.242142
-0.197991
-0.160602
-0.128937
-0.102057
-0.0791245
-0.0593829
-0.0421682
-0.0266147
-0.0113528
0.0025145
-0.696181
-0.728974
-0.755881
-0.772294
-0.772694
-0.753548
-0.714132
-0.656975
-0.587934
-0.513736
-0.440635
-0.372745
-0.312497
-0.259535
-0.213677
-0.174372
-0.140842
-0.112476
-0.0882472
-0.0673283
-0.0490485
-0.0326846
-0.0171431
-0.00219487
-0.69646
-0.727795
-0.752364
-0.76646
-0.765855
-0.747423
-0.710867
-0.657866
-0.593151
-0.522425
-0.451412
-0.384277
-0.323534
-0.27002
-0.223039
-0.18228
-0.147808
-0.11848
-0.0933092
-0.071546
-0.0525144
-0.0355344
-0.0197626
-0.0044319
-0.695693
-0.724843
-0.74585
-0.755975
-0.752175
-0.732243
-0.69616
-0.645792
-0.584672
-0.517723
-0.449795
-0.384804
-0.325195
-0.272044
-0.225236
-0.184658
-0.149708
-0.119888
-0.0942868
-0.0721509
-0.0528039
-0.0355669
-0.0198042
-0.00466357
-0.694455
-0.72099
-0.737568
-0.742542
-0.733913
-0.710736
-0.673315
-0.623766
-0.565132
-0.501517
-0.436968
-0.374919
-0.317594
-0.266041
-0.220466
-0.18068
-0.146269
-0.116714
-0.0913136
-0.0693772
-0.0502594
-0.0332815
-0.0179539
-0.00345438
-0.693437
-0.717311
-0.728877
-0.727982
-0.713632
-0.685852
-0.64568
-0.595415
-0.538052
-0.476947
-0.415507
-0.356573
-0.30206
-0.252894
-0.209298
-0.171105
-0.137972
-0.109421
-0.0848764
-0.0637346
-0.0454165
-0.0292665
-0.0149521
-0.00153484
-0.693491
-0.715006
-0.721229
-0.714121
-0.69355
-0.660366
-0.616465
-0.564349
-0.507038
-0.447511
-0.388588
-0.332542
-0.280903
-0.234414
-0.19323
-0.157167
-0.12588
-0.0989239
-0.0758019
-0.0559915
-0.0389975
-0.024213
-0.0114573
0.000378745
-0.695747
-0.715032
-0.716132
-0.702685
-0.675812
-0.63694
-0.58859
-0.533769
-0.475484
-0.416542
-0.35935
-0.305694
-0.2567
-0.212878
-0.174255
-0.14058
-0.111472
-0.0864901
-0.0651776
-0.047087
-0.0318099
-0.018829
-0.00801051
0.0016563
-0.700965
-0.718536
-0.714814
-0.695172
-0.66229
-0.617789
-0.564723
-0.506527
-0.446416
-0.387085
-0.330675
-0.278665
-0.231829
-0.190412
-0.154278
-0.123061
-0.0962911
-0.0734897
-0.0542083
-0.0380479
-0.0246874
-0.0137763
-0.00515411
0.00175778
-0.709636
-0.727121
-0.718004
-0.692839
-0.65442
-0.604566
-0.546792
-0.484897
-0.42232
-0.361747
-0.30519
-0.253911
-0.208483
-0.168915
-0.134905
-0.10597
-0.0815307
-0.0610237
-0.0439546
-0.0299248
-0.0186244
-0.00981702
-0.00341538
0.000713787
-0.724935
-0.741739
-0.726681
-0.696627
-0.653036
-0.598103
-0.535654
-0.46984
-0.404357
-0.341927
-0.284471
-0.233111
-0.188345
-0.149933
-0.117462
-0.0904044
-0.0680047
-0.0495989
-0.0346101
-0.0226179
-0.013313
-0.00649897
-0.00217135
-9.81278e-05
-0.759678
-0.762608
-0.741313
-0.706806
-0.658512
-0.598754
-0.531477
-0.461302
-0.392332
-0.32744
-0.268464
-0.216476
-0.171606
-0.133673
-0.10198
-0.0764085
-0.0556145
-0.0389533
-0.0258445
-0.0157603
-0.00824819
-0.00304608
-8.82396e-05
0.00111731
)
;

boundaryField
{
    rotor
    {
        type            zeroGradient;
    }
    freestream
    {
        type            freestreamPressure;
        freestreamValue uniform 0;
        supersonic      false;
        value           nonuniform List<scalar> 
96
(
5.95473e-05
1.30475e-05
3.42182e-05
0.000157174
0.000345022
0.000617007
0.000781489
0.00109812
0.00158962
0.00225142
0.00310138
0.00437388
0.00627157
0.00890219
0.0123616
0.0168364
0.0225458
0.0296749
0.0384479
0.0490933
0.0618315
0.0769106
0.0947696
0.117081
0.147298
0.16605
0.182613
0.204185
0.228809
0.255571
0.283764
0.312886
0.342487
0.372146
0.401467
0.430075
0.457623
0.483796
0.508316
0.530938
0.551449
0.569568
0.584933
0.59803
0.608709
0.616689
0.62194
0.624425
0.624134
0.62109
0.615326
0.606901
0.595849
0.582514
0.567088
0.548987
0.528644
0.506338
0.482265
0.45665
0.429744
0.401823
0.373181
0.344123
0.314969
0.28606
0.257787
0.230641
0.205284
0.182673
0.164356
0.142664
0.11607
0.0935719
0.074978
0.0591668
0.0457232
0.0344432
0.0251455
0.0176384
0.0117416
0.0072724
0.00402897
0.00180466
0.000411125
-0.000324812
-0.000592276
-0.000560699
-0.000371294
-0.00014608
3.15067e-05
0.000118348
0.000105249
3.44837e-05
-3.57244e-06
2.62635e-05
)
;
    }
    frontAndBack
    {
        type            empty;
    }
}


// ************************************************************************* //
