/*--------------------------------*- C++ -*----------------------------------*\
  =========                 |
  \\      /  F ield         | OpenFOAM: The Open Source CFD Toolbox
   \\    /   O peration     | Website:  https://openfoam.org
    \\  /    A nd           | Version:  11
     \\/     M anipulation  |
\*---------------------------------------------------------------------------*/
FoamFile
{
    format      ascii;
    class       volVectorField;
    location    "0.5";
    object      U;
}
// * * * * * * * * * * * * * * * * * * * * * * * * * * * * * * * * * * * * * //

dimensions      [0 1 -1 0 0 0 0];

internalField   nonuniform List<vector> 
2880
(
(-0.0504323 0.0386713 -9.7264e-21)
(-0.198441 0.0702512 -1.38363e-19)
(-0.391548 0.0897575 3.87289e-21)
(-0.481206 0.0951289 -1.30827e-19)
(-0.521302 0.102064 1.10807e-19)
(-0.519173 0.105049 7.87681e-21)
(-0.108034 0.0759765 -3.56455e-19)
(-0.290392 0.110856 4.3672e-19)
(-0.426915 0.12407 -1.99809e-19)
(-0.489512 0.123838 -1.38112e-19)
(-0.515391 0.12133 1.33453e-19)
(-0.513922 0.101158 -3.23038e-20)
(-0.134015 0.0989506 3.25351e-19)
(-0.307435 0.141628 -3.00839e-19)
(-0.420141 0.146411 -2.15056e-19)
(-0.469706 0.140502 4.88039e-19)
(-0.493913 0.131741 -1.09989e-19)
(-0.495809 0.106827 0)
(-0.157593 0.120695 -8.93278e-21)
(-0.31145 0.169412 5.70258e-19)
(-0.406442 0.16814 3.85537e-19)
(-0.446759 0.15768 -4.31512e-20)
(-0.467928 0.143431 3.17447e-19)
(-0.471276 0.115595 0)
(-0.183409 0.139523 0)
(-0.313708 0.193336 4.53097e-23)
(-0.391182 0.18937 0)
(-0.423263 0.17569 -4.06711e-23)
(-0.440019 0.158153 1.1208e-21)
(-0.442951 0.129182 2.38855e-19)
(-0.208003 0.158664 -4.36912e-20)
(-0.316405 0.211849 -4.62582e-19)
(-0.375131 0.209179 -4.79901e-20)
(-0.399272 0.193934 -2.76767e-19)
(-0.410717 0.175023 -3.3617e-19)
(-0.411226 0.146686 -2.97374e-19)
(-0.225103 0.187414 2.3544e-20)
(-0.315305 0.227107 1.01716e-18)
(-0.358286 0.227314 -4.58577e-20)
(-0.3748 0.212114 -7.80125e-20)
(-0.380162 0.193345 6.03213e-19)
(-0.376323 0.166893 0)
(-0.235306 0.203251 -1.53248e-18)
(-0.310689 0.240143 -9.89175e-19)
(-0.340823 0.243936 1.36794e-19)
(-0.350013 0.230072 -6.11377e-19)
(-0.348619 0.212527 7.13034e-20)
(-0.338732 0.188663 -1.20725e-19)
(-0.242752 0.216753 3.0161e-18)
(-0.303549 0.251477 0)
(-0.323082 0.259234 -9.06382e-20)
(-0.32515 0.247626 7.59837e-19)
(-0.316558 0.231953 -6.02668e-19)
(-0.299269 0.210927 6.18865e-19)
(-0.248236 0.228389 -1.57992e-18)
(-0.294463 0.261308 2.82073e-20)
(-0.305225 0.273406 -7.13479e-19)
(-0.300506 0.264552 -7.67129e-20)
(-0.284611 0.251024 6.67669e-20)
(-0.259061 0.232653 -3.70704e-19)
(-0.251372 0.237159 -1.58758e-18)
(-0.283893 0.269795 -2.87028e-20)
(-0.287257 0.286588 7.54771e-19)
(-0.276432 0.280672 0)
(-0.253515 0.269223 0)
(-0.219463 0.252915 0)
(-0.251712 0.242544 1.61291e-18)
(-0.272103 0.277122 -5.62286e-20)
(-0.269256 0.298853 0)
(-0.253341 0.295878 0)
(-0.224071 0.286172 -1.38137e-19)
(-0.181958 0.270984 -3.04043e-21)
(-0.24894 0.244777 -1.51971e-18)
(-0.259165 0.283422 0)
(-0.251515 0.31029 0)
(-0.231611 0.310147 -1.5468e-19)
(-0.19709 0.301649 5.45619e-19)
(-0.148005 0.286393 -2.78171e-21)
(-0.242821 0.244173 -2.09176e-20)
(-0.245071 0.288736 -5.75409e-20)
(-0.234283 0.321102 6.71372e-19)
(-0.211632 0.323506 -5.39154e-19)
(-0.173335 0.3156 -5.53442e-19)
(-0.118904 0.298959 0)
(-0.2334 0.241141 1.47319e-18)
(-0.229937 0.293158 2.88663e-20)
(-0.217641 0.331361 -7.25555e-19)
(-0.193763 0.336033 6.21735e-19)
(-0.15348 0.328119 0)
(-0.0957178 0.308765 -1.28265e-19)
(-0.220784 0.236338 1.53649e-18)
(-0.213928 0.296663 0)
(-0.201732 0.341094 0)
(-0.178274 0.34783 6.26458e-19)
(-0.138085 0.339428 -5.5865e-19)
(-0.0794088 0.316098 1.28204e-19)
(-0.206876 0.233862 -1.50445e-18)
(-0.197482 0.299253 0)
(-0.186721 0.350179 7.44786e-19)
(-0.165362 0.358962 -6.35946e-19)
(-0.127583 0.3499 1.445e-19)
(-0.0711531 0.321429 -1.27911e-19)
(-0.171654 0.23998 1.38038e-18)
(-0.181425 0.299563 -6.13732e-20)
(-0.172707 0.358069 -7.12613e-19)
(-0.154997 0.369317 0)
(-0.122258 0.360147 5.72595e-19)
(-0.0720343 0.325576 5.14645e-19)
(-0.147963 0.231324 -1.23826e-18)
(-0.167421 0.293673 -4.24584e-19)
(-0.159439 0.363563 1.2658e-21)
(-0.146877 0.378587 -4.50718e-19)
(-0.121755 0.370806 4.32883e-19)
(-0.0822535 0.328063 -5.8743e-19)
(-0.13068 0.213002 3.66709e-20)
(-0.153234 0.283341 4.92523e-19)
(-0.145966 0.366065 -2.43139e-20)
(-0.140262 0.386453 -3.64007e-22)
(-0.125393 0.382598 -3.65102e-19)
(-0.105586 0.327231 1.30827e-19)
(-0.106468 0.19135 0)
(-0.13665 0.268941 3.20043e-20)
(-0.131345 0.365517 3.83236e-19)
(-0.134635 0.392236 3.04386e-19)
(-0.130994 0.399053 3.75284e-20)
(-0.139848 0.322041 0)
(-0.0863402 0.169809 0)
(-0.118499 0.250874 3.33401e-20)
(-0.115515 0.361962 -4.53544e-19)
(-0.127508 0.392818 0)
(-0.134247 0.427226 -1.17362e-19)
(-0.17001 0.31817 1.12766e-19)
(-0.0672697 0.143558 1.89261e-19)
(-0.0983812 0.226092 1.30126e-19)
(-0.0986195 0.35255 -2.86092e-20)
(-0.119016 0.380682 -5.98146e-22)
(-0.129397 0.465102 2.26802e-19)
(-0.172933 0.317513 -1.86958e-19)
(-0.0381666 0.074693 -2.0779e-19)
(-0.0718135 0.157246 -1.41239e-19)
(-0.0753488 0.306495 0)
(-0.0960131 0.317206 -1.26974e-20)
(-0.105867 0.480792 1.06235e-20)
(-0.152246 0.254879 2.952e-31)
(-0.513887 0.0342491 7.46939e-20)
(-0.533061 -0.022141 -7.781e-21)
(-0.542381 -0.0582669 -5.38629e-20)
(-0.538423 -0.0912464 5.81539e-20)
(-0.517382 -0.120401 2.99861e-20)
(-0.479921 -0.143136 3.35705e-20)
(-0.429342 -0.157517 -1.25889e-20)
(-0.369752 -0.16273 4.34596e-20)
(-0.304712 -0.15921 -2.6345e-20)
(-0.237336 -0.148373 0)
(-0.170086 -0.132019 5.33079e-21)
(-0.104386 -0.111754 -9.11887e-21)
(-0.0412358 -0.0889935 1.76039e-20)
(0.0187231 -0.0649042 -1.42421e-21)
(0.0751072 -0.040462 -6.68224e-21)
(0.127749 -0.0164226 3.90647e-33)
(0.176577 0.00661035 1.05922e-21)
(0.221555 0.0281275 -1.63809e-21)
(0.262791 0.0477848 -7.02331e-22)
(0.300295 0.0650658 3.64681e-22)
(0.334041 0.079422 3.00031e-22)
(0.364011 0.0902858 2.26391e-23)
(0.390531 0.0972115 3.32751e-22)
(0.416195 0.101124 -2.24406e-22)
(-0.510895 0.0361729 -5.58219e-20)
(-0.530524 -0.0138126 1.13218e-19)
(-0.539363 -0.0553884 8.21041e-20)
(-0.534054 -0.0979066 2.61979e-20)
(-0.510033 -0.139403 -7.99341e-20)
(-0.46808 -0.175511 7.22803e-20)
(-0.411943 -0.202072 5.64301e-20)
(-0.346907 -0.21727 -4.20365e-20)
(-0.277522 -0.221222 3.92204e-20)
(-0.207414 -0.21536 2.90131e-20)
(-0.139229 -0.202038 2.62336e-20)
(-0.0743493 -0.183316 -1.62307e-20)
(-0.0134543 -0.160965 -9.5913e-21)
(0.0431341 -0.136435 -8.76654e-21)
(0.0954033 -0.110854 1.51127e-21)
(0.143526 -0.0851068 -4.86115e-21)
(0.187677 -0.059921 4.65666e-21)
(0.228071 -0.0358679 1.30024e-21)
(0.264926 -0.0133937 -1.05542e-21)
(0.298407 0.00716207 4.12822e-22)
(0.328534 0.0255326 5.95166e-22)
(0.355352 0.0415373 -8.09252e-22)
(0.379943 0.0551282 0)
(0.405762 0.0657014 2.41819e-24)
(-0.498143 0.0464324 0)
(-0.51739 -0.00273368 -4.63202e-19)
(-0.52501 -0.0496657 -2.35429e-19)
(-0.516851 -0.101938 -4.78265e-20)
(-0.487175 -0.156789 0)
(-0.436611 -0.207352 -1.38259e-19)
(-0.369941 -0.246749 1.2392e-19)
(-0.294282 -0.271601 0)
(-0.215797 -0.28193 -3.455e-20)
(-0.138872 -0.279453 -5.14635e-20)
(-0.0662812 -0.267245 -8.90351e-20)
(0.000674773 -0.248172 5.40867e-20)
(0.0617032 -0.224585 -1.21353e-20)
(0.116985 -0.198316 6.56562e-21)
(0.166969 -0.170686 1.07957e-20)
(0.212189 -0.142729 -3.27061e-21)
(0.253162 -0.115208 2.01362e-21)
(0.290355 -0.0886872 -9.1232e-22)
(0.324163 -0.063587 -1.53429e-21)
(0.354878 -0.0402213 -4.12995e-22)
(0.382653 -0.0188026 -6.18264e-21)
(0.407828 0.000581837 4.03123e-21)
(0.431954 0.0179194 -3.17338e-21)
(0.458642 0.0319145 3.12334e-21)
(-0.476971 0.0611649 -7.73442e-20)
(-0.494213 0.012315 6.85322e-19)
(-0.498938 -0.0397087 4.88863e-19)
(-0.485483 -0.102038 -5.51015e-20)
(-0.446388 -0.171254 0)
(-0.381878 -0.23763 -1.58354e-19)
(-0.298536 -0.290682 -1.76721e-19)
(-0.206394 -0.324786 -3.33557e-20)
(-0.113839 -0.340067 1.66985e-20)
(-0.0263783 -0.338953 1.11655e-19)
(0.0531344 -0.325556 3.74328e-20)
(0.123896 -0.3039 0)
(0.186287 -0.277156 1.37715e-20)
(0.241186 -0.247612 -1.30777e-20)
(0.289669 -0.216832 -1.65012e-21)
(0.332792 -0.185934 3.29652e-21)
(0.371489 -0.155684 0)
(0.406559 -0.126587 -5.31425e-22)
(0.438651 -0.0989757 1.47422e-21)
(0.468287 -0.073065 0)
(0.495818 -0.0489549 2.12321e-21)
(0.521782 -0.0266276 0)
(0.547253 -0.00603889 2.12682e-21)
(0.576214 0.0110311 5.81953e-23)
(-0.448415 0.080073 -3.20849e-19)
(-0.461108 0.0317947 -5.70677e-19)
(-0.460207 -0.0245206 -2.53437e-19)
(-0.437873 -0.0967587 -2.36577e-19)
(-0.384177 -0.181172 0)
(-0.298805 -0.264653 -1.00871e-20)
(-0.191516 -0.331836 -1.35681e-19)
(-0.077117 -0.373814 0)
(0.0331102 -0.39118 0)
(0.132715 -0.388093 -7.11335e-21)
(0.219494 -0.370693 -7.94171e-20)
(0.293835 -0.344128 0)
(0.357093 -0.31245 2.47078e-20)
(0.411064 -0.278492 -2.85621e-20)
(0.457581 -0.243987 6.00895e-21)
(0.498293 -0.210055 5.2106e-21)
(0.534583 -0.177406 0)
(0.56756 -0.146427 0)
(0.59809 -0.117338 0)
(0.626907 -0.0902727 0)
(0.654479 -0.0652594 0)
(0.681665 -0.0421888 0)
(0.708514 -0.0206271 3.05728e-21)
(0.741827 -0.000534414 -7.52419e-21)
(-0.413105 0.10257 4.03493e-19)
(-0.417935 0.0557423 2.92803e-19)
(-0.407599 -0.00345989 1.35215e-19)
(-0.371427 -0.0847623 1.15915e-19)
(-0.296021 -0.184543 -1.02403e-19)
(-0.180946 -0.285734 6.39891e-20)
(-0.0421116 -0.366376 1.12565e-19)
(0.0982399 -0.413652 -4.35718e-19)
(0.22667 -0.429291 2.46975e-19)
(0.337411 -0.421023 1.64169e-19)
(0.429143 -0.396763 3.6865e-20)
(0.504186 -0.363138 -3.88635e-20)
(0.565363 -0.325119 5.93292e-20)
(0.615729 -0.285966 -3.4209e-20)
(0.657997 -0.24754 -7.83442e-21)
(0.694454 -0.210861 -1.5888e-21)
(0.726906 -0.176461 -1.72743e-21)
(0.756653 -0.144507 0)
(0.784624 -0.115059 -6.5364e-21)
(0.811721 -0.0881636 1.46823e-20)
(0.838226 -0.0638196 -1.4128e-20)
(0.865828 -0.0416676 -1.16174e-20)
(0.891509 -0.0215236 2.24163e-20)
(0.930741 0.00112616 -8.72527e-21)
(-0.371548 0.127823 0)
(-0.364699 0.0836582 1.55372e-19)
(-0.340084 0.0234952 -1.4238e-19)
(-0.283365 -0.065241 0)
(-0.176289 -0.179446 2.2125e-19)
(-0.0201401 -0.297383 3.51447e-19)
(0.15779 -0.389411 -1.66848e-19)
(0.326892 -0.438021 -1.24399e-20)
(0.471794 -0.448366 -3.04122e-19)
(0.587997 -0.432338 2.23099e-20)
(0.678084 -0.399313 -6.4111e-20)
(0.746934 -0.357653 6.04273e-20)
(0.799751 -0.31321 0)
(0.841194 -0.269416 2.26476e-20)
(0.874894 -0.22806 1.21299e-20)
(0.903807 -0.189918 -4.58761e-21)
(0.929827 -0.155237 3.2945e-21)
(0.954219 -0.123897 1.16442e-20)
(0.978161 -0.0957764 -4.52416e-21)
(1.0027 -0.0707497 0)
(1.0272 -0.0489834 -5.57098e-21)
(1.05482 -0.0289015 -5.11743e-21)
(1.07503 -0.0133861 0)
(1.12147 0.0095974 -2.88762e-21)
(-0.324531 0.15471 0)
(-0.302046 0.114348 0)
(-0.257699 0.0553063 0)
(-0.172029 -0.038808 0)
(-0.020456 -0.165419 0)
(0.189314 -0.296388 -4.27251e-19)
(0.411579 -0.394771 1.48487e-19)
(0.605186 -0.441284 1.00848e-19)
(0.75397 -0.444505 0)
(0.861294 -0.420204 -1.27542e-19)
(0.935891 -0.379474 0)
(0.986933 -0.331985 0)
(1.02253 -0.283853 0)
(1.04866 -0.23831 -1.85371e-20)
(1.0695 -0.196911 -1.4722e-20)
(1.08852 -0.159863 -2.8598e-21)
(1.10589 -0.127166 0)
(1.12241 -0.0984759 0)
(1.1383 -0.0736116 0)
(1.15426 -0.0523012 0)
(1.16981 -0.0346912 5.58896e-21)
(1.1861 -0.0183687 5.12593e-21)
(1.19711 -0.00734809 0)
(1.23245 0.0119922 7.09598e-21)
(-0.273398 0.181828 -8.57169e-20)
(-0.231807 0.145925 0)
(-0.162897 0.0895264 7.85289e-19)
(-0.0398799 -0.00839168 -4.3174e-19)
(0.169576 -0.144287 2.64675e-19)
(0.439504 -0.281332 6.33604e-19)
(0.697635 -0.379248 -1.89079e-19)
(0.893631 -0.420104 2.62918e-19)
(1.02031 -0.416254 0)
(1.09739 -0.387736 1.247e-20)
(1.1412 -0.345625 1.08029e-19)
(1.16496 -0.29907 5.42789e-20)
(1.17787 -0.253407 -1.24038e-19)
(1.18559 -0.211221 1.00534e-19)
(1.19151 -0.173475 1.4692e-20)
(1.19572 -0.140508 0)
(1.20003 -0.11183 7.89449e-21)
(1.20495 -0.0870488 1.66545e-21)
(1.21067 -0.0658597 -1.59594e-21)
(1.21798 -0.0481536 4.85273e-21)
(1.22504 -0.0338423 -4.64066e-21)
(1.23188 -0.0211395 0)
(1.23707 -0.0123727 0)
(1.25985 0.0058975 4.0616e-22)
(-0.220073 0.207658 9.30364e-20)
(-0.157236 0.176217 -1.6391e-19)
(-0.0606377 0.122035 -7.9357e-19)
(0.107008 0.0197938 1.48294e-19)
(0.384052 -0.119566 -2.57367e-19)
(0.706891 -0.252177 4.46617e-19)
(0.976146 -0.343472 1.60777e-19)
(1.14225 -0.376151 -2.63233e-19)
(1.2256 -0.368599 -1.94018e-19)
(1.26293 -0.342228 1.39781e-19)
(1.27367 -0.304682 0)
(1.27149 -0.264403 1.08457e-20)
(1.26446 -0.225859 5.79245e-20)
(1.25699 -0.19062 -9.14265e-20)
(1.25055 -0.159086 3.1153e-20)
(1.24587 -0.131267 9.02749e-21)
(1.24316 -0.107083 -4.95663e-20)
(1.24217 -0.0862835 2.43361e-20)
(1.24237 -0.0685094 -1.20699e-20)
(1.24365 -0.0537145 0)
(1.2443 -0.0416876 6.50706e-21)
(1.24488 -0.0315604 4.57324e-21)
(1.24583 -0.0225805 -1.04833e-20)
(1.25908 -0.00505884 4.76779e-22)
(-0.166791 0.230788 0)
(-0.0823668 0.20259 -6.74924e-19)
(0.042455 0.148273 0)
(0.26423 0.042013 2.99442e-19)
(0.613462 -0.0930057 -2.75076e-19)
(0.968546 -0.211109 0)
(1.21606 -0.289371 -3.83459e-19)
(1.33199 -0.315339 -2.97214e-19)
(1.3702 -0.306394 3.85111e-19)
(1.37531 -0.285753 -1.39195e-19)
(1.36098 -0.255563 0)
(1.34062 -0.223772 -7.18287e-20)
(1.32042 -0.193846 0)
(1.30284 -0.166691 6.76038e-20)
(1.28864 -0.142368 -3.85528e-20)
(1.27769 -0.120747 1.74689e-20)
(1.26947 -0.101724 2.14415e-20)
(1.26337 -0.0851739 -2.04535e-20)
(1.25867 -0.0708082 -2.98583e-21)
(1.25414 -0.0579362 4.617e-21)
(1.2495 -0.0472655 -6.98853e-22)
(1.24558 -0.0387641 3.9768e-21)
(1.24158 -0.0309695 4.13532e-21)
(1.24014 -0.0126731 -6.78022e-21)
(-0.116017 0.250024 8.81553e-20)
(-0.0109827 0.222817 6.78839e-19)
(0.143132 0.164932 0)
(0.433629 0.0592185 0)
(0.850706 -0.060396 0)
(1.20658 -0.158984 0)
(1.4018 -0.222602 3.48646e-19)
(1.46322 -0.244462 2.23992e-19)
(1.46533 -0.236853 -3.86565e-19)
(1.44979 -0.225201 1.21332e-19)
(1.41715 -0.203318 -1.15544e-19)
(1.38548 -0.180319 0)
(1.3581 -0.158553 9.75996e-20)
(1.33529 -0.138609 -9.22314e-20)
(1.31664 -0.12062 0)
(1.30143 -0.10455 3.52368e-20)
(1.28886 -0.0903072 -3.35417e-20)
(1.27821 -0.0777935 0)
(1.26874 -0.0667693 -7.25624e-21)
(1.25922 -0.0569654 4.90551e-21)
(1.25055 -0.0482314 5.35675e-21)
(1.24087 -0.0410133 8.69204e-21)
(1.22961 -0.0317262 -1.73409e-20)
(1.21574 -0.0120474 -3.10576e-21)
(-0.069986 0.264719 -6.25666e-19)
(0.0534633 0.235218 1.72455e-19)
(0.244167 0.170736 -4.79891e-19)
(0.625669 0.0754077 2.95174e-19)
(1.08615 -0.0167104 2.42776e-19)
(1.40012 -0.0960068 -2.2346e-19)
(1.52695 -0.149647 -3.10431e-19)
(1.54102 -0.170587 0)
(1.52541 -0.172191 0)
(1.48832 -0.16475 -1.18016e-19)
(1.44588 -0.152644 1.10904e-19)
(1.40952 -0.138804 -1.29788e-19)
(1.37916 -0.124736 2.17662e-19)
(1.35394 -0.111206 -9.01579e-20)
(1.33291 -0.0985612 4.98094e-20)
(1.31515 -0.0869816 -4.72229e-20)
(1.2998 -0.0765316 0)
(1.28606 -0.0671739 0)
(1.27321 -0.0587983 0)
(1.2606 -0.0512511 0)
(1.24717 -0.0443062 -8.53316e-21)
(1.23198 -0.0372149 8.13859e-21)
(1.21462 -0.0268063 0)
(1.19267 -0.00687391 0)
(-0.0304891 0.27468 9.01914e-19)
(0.109705 0.237811 4.85883e-21)
(0.357727 0.169753 6.20571e-19)
(0.844334 0.103309 -4.22282e-19)
(1.29887 0.0369892 -4.80617e-19)
(1.53566 -0.0279531 -1.63267e-19)
(1.59827 -0.0761788 8.60596e-19)
(1.58652 -0.099843 -4.71485e-20)
(1.54966 -0.108028 -1.84058e-19)
(1.50168 -0.109097 6.79714e-21)
(1.45864 -0.105202 1.90273e-19)
(1.4219 -0.0987762 6.465e-20)
(1.39088 -0.0912721 0)
(1.36456 -0.0834519 -6.4302e-20)
(1.34201 -0.0757163 6.07981e-20)
(1.32236 -0.0682923 -3.0697e-20)
(1.30479 -0.0612992 2.91099e-20)
(1.28854 -0.0547583 0)
(1.27286 -0.0486001 -5.0791e-21)
(1.25695 -0.0427118 3.05178e-21)
(1.23988 -0.0369495 -1.42927e-20)
(1.22063 -0.0303372 -1.65452e-20)
(1.19867 -0.019286 2.34208e-20)
(1.17115 0.000403697 9.27283e-21)
(0.00126192 0.279742 8.84249e-20)
(0.161762 0.230004 6.58114e-19)
(0.505758 0.172532 -6.24666e-19)
(1.07322 0.15058 5.57153e-19)
(1.46369 0.09896 2.10244e-19)
(1.61363 0.0396016 -3.17601e-19)
(1.63045 -0.0073832 -1.18713e-20)
(1.60023 -0.0333744 6.86194e-20)
(1.5509 -0.0497264 -1.66185e-19)
(1.50419 -0.0574762 -2.19843e-19)
(1.46256 -0.060203 -9.12366e-21)
(1.42658 -0.0598963 -6.37844e-20)
(1.3957 -0.0578378 0)
(1.36903 -0.0548298 5.55225e-20)
(1.34565 -0.0513416 -5.24516e-20)
(1.32475 -0.0476386 0)
(1.30554 -0.0438528 -6.89512e-21)
(1.28732 -0.0400134 -7.34251e-21)
(1.2694 -0.0360665 6.45956e-21)
(1.251 -0.031904 -6.90013e-21)
(1.23112 -0.027328 6.55722e-21)
(1.2087 -0.0212409 4.65608e-20)
(1.1834 -0.0100988 -3.15773e-20)
(1.1523 0.00884656 -9.10534e-21)
(0.0247154 0.278786 -8.84691e-20)
(0.2252 0.214537 -6.65181e-19)
(0.70501 0.203044 -1.4301e-19)
(1.27977 0.209798 1.29722e-19)
(1.56815 0.162754 -1.89339e-19)
(1.64736 0.103431 3.52581e-19)
(1.63562 0.0569102 -1.72463e-20)
(1.59116 0.0242546 9.76997e-20)
(1.54334 0.00362261 1.20609e-19)
(1.49852 -0.00968787 1.05304e-19)
(1.45873 -0.0181215 4.43125e-21)
(1.42409 -0.0231918 1.28431e-21)
(1.39395 -0.0259632 1.07449e-19)
(1.36749 -0.0271892 -6.07699e-20)
(1.34386 -0.0273742 1.40068e-20)
(1.32232 -0.026837 1.5344e-20)
(1.30215 -0.0257576 -1.02287e-20)
(1.28269 -0.0242031 3.72679e-22)
(1.26327 -0.0221492 9.84488e-21)
(1.24314 -0.0195116 -2.00205e-20)
(1.22125 -0.0161078 1.18958e-20)
(1.19662 -0.0108086 -7.81423e-21)
(1.16903 -0.000141835 0)
(1.13551 0.0175952 0)
(0.0399019 0.268698 0)
(0.314825 0.20148 0)
(0.944675 0.268344 0)
(1.43453 0.275543 0)
(1.62052 0.222945 3.39764e-19)
(1.65011 0.162204 2.92196e-19)
(1.61975 0.113181 -3.06288e-20)
(1.57437 0.0778039 0)
(1.52813 0.0523295 -1.86727e-20)
(1.48593 0.0339493 -8.77389e-20)
(1.44866 0.0207108 0)
(1.41595 0.0111999 -4.62641e-20)
(1.3871 0.00437239 0)
(1.36133 -0.000513659 -3.01055e-20)
(1.33794 -0.00395864 7.21306e-21)
(1.31624 -0.0062842 -1.74983e-21)
(1.29561 -0.00768091 2.41721e-21)
(1.27543 -0.00823521 -5.98046e-21)
(1.25507 -0.00795173 0)
(1.23377 -0.00678977 0)
(1.21049 -0.00460743 1.19389e-20)
(1.18434 -0.000302792 0)
(1.15518 0.00954709 -1.63456e-20)
(1.1201 0.0257107 0)
(0.0543405 0.246419 8.68454e-20)
(0.450886 0.222824 3.68232e-19)
(1.17128 0.350672 1.34686e-19)
(1.52925 0.340026 0)
(1.63385 0.278137 -1.89685e-19)
(1.6318 0.215221 -8.2721e-20)
(1.59463 0.164373 -1.84329e-19)
(1.54968 0.125377 1.10751e-19)
(1.50672 0.0958148 -9.89064e-20)
(1.4681 0.0733879 1.76128e-20)
(1.43384 0.0562977 3.81922e-20)
(1.40341 0.043187 0)
(1.37616 0.0330404 1.52881e-20)
(1.35144 0.0251214 -5.89122e-22)
(1.32865 0.0189203 2.91774e-22)
(1.30722 0.014104 1.71906e-21)
(1.28656 0.0104737 -8.15711e-21)
(1.26613 0.00793562 5.87509e-21)
(1.24529 0.00647362 0)
(1.22331 0.00609528 0)
(1.19917 0.0068931 -1.17604e-20)
(1.17211 0.00994535 -1.70105e-20)
(1.14198 0.018697 1.61411e-20)
(1.1061 0.0331191 1.8989e-20)
(0.0822361 0.217831 -2.62776e-19)
(0.668692 0.31258 -6.75698e-19)
(1.32736 0.434427 1.11121e-19)
(1.57151 0.399324 -1.63303e-20)
(1.62065 0.328476 -3.00227e-19)
(1.60119 0.262984 2.39806e-19)
(1.56166 0.209505 1.20411e-19)
(1.51996 0.16741 -1.65065e-19)
(1.48128 0.134579 -3.86998e-20)
(1.44652 0.108897 3.57298e-20)
(1.41539 0.0886618 -4.95213e-20)
(1.38737 0.0725728 -1.43619e-20)
(1.3619 0.0596542 1.55831e-20)
(1.33848 0.0491866 -5.12462e-21)
(1.31659 0.0406562 0)
(1.29573 0.0337125 9.59378e-21)
(1.2754 0.0281357 -8.03614e-21)
(1.25507 0.0238135 -2.92273e-20)
(1.23415 0.0207098 1.89123e-20)
(1.21191 0.0188019 3.44751e-20)
(1.1874 0.018125 -3.29112e-20)
(1.15993 0.0197521 1.68447e-20)
(1.12937 0.0272018 0)
(1.09329 0.0397983 1.59911e-21)
(0.141776 0.189746 2.2687e-19)
(0.916195 0.440795 -1.90726e-19)
(1.4312 0.513189 -2.92031e-19)
(1.57781 0.452748 8.45087e-20)
(1.59023 0.374079 0)
(1.56184 0.30529 -8.33194e-20)
(1.52401 0.24913 -5.89871e-20)
(1.48682 0.204406 -4.14072e-20)
(1.45273 0.168913 -1.45556e-21)
(1.4219 0.140599 3.86213e-20)
(1.39396 0.117817 6.7923e-22)
(1.36845 0.0993041 -3.26549e-22)
(1.34494 0.084108 -5.99584e-21)
(1.32302 0.0715174 -3.02115e-21)
(1.30225 0.0610134 -1.30888e-20)
(1.28222 0.0522311 -3.69258e-21)
(1.26248 0.0449319 1.2093e-20)
(1.24254 0.0389842 0)
(1.22185 0.0343303 -3.29605e-20)
(1.19971 0.0309131 3.97072e-20)
(1.17525 0.0287191 3.29539e-20)
(1.14781 0.0288158 5.26803e-21)
(1.11726 0.0348469 -4.63602e-20)
(1.08148 0.0456628 2.26758e-20)
(0.251168 0.209889 0)
(1.13308 0.577173 3.21471e-19)
(1.47755 0.583149 -1.54052e-20)
(1.55329 0.499685 -1.02522e-19)
(1.5465 0.414202 3.45316e-20)
(1.51668 0.341907 -3.10131e-20)
(1.48311 0.283332 1.47902e-20)
(1.45114 0.236449 -1.35172e-20)
(1.42177 0.198842 -1.80297e-20)
(1.39489 0.168455 1.23344e-20)
(1.37017 0.143668 -2.41835e-21)
(1.34727 0.123242 6.01003e-21)
(1.32585 0.106232 0)
(1.30556 0.0919281 -2.14014e-21)
(1.28608 0.0798003 -1.52439e-20)
(1.26705 0.069466 7.05782e-21)
(1.24809 0.0606656 -1.42514e-20)
(1.22876 0.0532475 3.4563e-20)
(1.20855 0.0471345 -2.39363e-20)
(1.18682 0.0422363 2.60445e-20)
(1.16277 0.0385037 -2.71601e-20)
(1.13576 0.0370036 4.19233e-20)
(1.10559 0.04155 -5.41714e-20)
(1.07058 0.0507654 -2.61046e-20)
(0.442604 0.394337 0)
(1.25767 0.706928 9.45351e-20)
(1.47306 0.64494 1.86562e-19)
(1.50854 0.540969 1.08495e-19)
(1.49436 0.448591 -1.97375e-20)
(1.46771 0.372694 1.11402e-20)
(1.43988 0.312035 -1.7809e-21)
(1.41348 0.263478 5.06502e-21)
(1.38891 0.224306 -1.14053e-21)
(1.36603 0.192393 -9.25468e-22)
(1.3446 0.166116 -6.30306e-21)
(1.32438 0.144246 1.86153e-22)
(1.30513 0.125847 -6.588e-21)
(1.28659 0.110209 -1.70169e-20)
(1.26851 0.0967922 3.63527e-21)
(1.2506 0.0851959 2.68168e-20)
(1.23254 0.075136 1.62159e-20)
(1.21397 0.0664359 1.53755e-20)
(1.19443 0.0589948 -3.73742e-20)
(1.17337 0.0526911 -8.14951e-21)
(1.15004 0.0474409 5.8431e-21)
(1.12379 0.0443143 1.432e-20)
(1.09437 0.0473172 0)
(1.06056 0.0552838 1.39709e-20)
(0.724685 0.696772 -5.77807e-20)
(1.29181 0.810083 -9.36568e-20)
(1.4283 0.692948 2.43165e-20)
(1.44846 0.57369 -5.32658e-20)
(1.43604 0.475125 2.1998e-20)
(1.41604 0.396833 -6.4698e-21)
(1.39499 0.334927 -5.38074e-21)
(1.37445 0.285388 -2.05631e-21)
(1.35476 0.245259 2.43904e-21)
(1.3359 0.212364 -4.58376e-22)
(1.31778 0.185085 4.63542e-21)
(1.30029 0.162206 -1.34391e-20)
(1.28326 0.142808 1.37653e-20)
(1.26654 0.126186 7.08285e-21)
(1.24994 0.111798 2.5092e-20)
(1.23322 0.0992292 1.17487e-21)
(1.21615 0.0881731 -1.69989e-20)
(1.19843 0.0784234 -4.7544e-21)
(1.17968 0.0698483 3.44042e-21)
(1.15944 0.0622956 8.16862e-21)
(1.13706 0.0556329 -9.68932e-21)
(1.11186 0.0508807 3.09762e-20)
(1.0835 0.0521815 -1.78214e-20)
(1.05148 0.0595361 -4.60714e-21)
(0.92217 0.998115 5.3496e-20)
(1.2545 0.886526 1.85526e-21)
(1.35392 0.722206 -1.49709e-20)
(1.37764 0.59409 6.97746e-21)
(1.37451 0.492652 -3.68286e-21)
(1.36321 0.413767 -2.09537e-22)
(1.3494 0.351724 0)
(1.33479 0.302042 2.20865e-21)
(1.31994 0.261636 0)
(1.30506 0.228322 1.14265e-21)
(1.29024 0.200514 4.81159e-21)
(1.27547 0.177033 -2.37777e-21)
(1.26071 0.15699 0)
(1.24586 0.139702 -5.28807e-21)
(1.23079 0.124636 5.0098e-21)
(1.21534 0.111376 5.26074e-21)
(1.19932 0.0996042 -1.02418e-20)
(1.1825 0.0890873 9.74864e-21)
(1.1646 0.0796623 -5.51434e-21)
(1.14524 0.0711537 9.87633e-21)
(1.12388 0.0633622 -1.00886e-20)
(1.09982 0.0570248 4.16313e-21)
(1.07272 0.0559633 2.03405e-20)
(1.04325 0.0639615 -5.40235e-21)
(-0.0447915 -0.0525075 -9.60262e-21)
(-0.0479314 -0.0475257 2.37622e-19)
(-0.0417396 0.0604213 -5.46632e-21)
(-0.0587251 0.284582 1.24807e-19)
(0.0371824 0.447408 -9.68106e-20)
(0.0608968 1.07804 -5.68618e-21)
(-0.0491856 -0.0558283 5.28594e-19)
(-0.0316333 -0.00702277 -6.15233e-19)
(-0.00148629 0.125339 2.80827e-19)
(0.0151086 0.333432 1.90331e-19)
(0.0963515 0.542057 -1.68704e-19)
(0.246633 0.905462 4.0371e-20)
(-0.0494 -0.0497258 -4.77643e-19)
(-0.0134291 0.0245775 4.11703e-19)
(0.0380282 0.165827 2.93084e-19)
(0.084008 0.360739 -6.62731e-19)
(0.195446 0.57451 1.40529e-19)
(0.357684 0.833887 0)
(-0.0493698 -0.0434338 1.43075e-20)
(0.00570174 0.050418 -7.73733e-19)
(0.0760745 0.195314 -5.29845e-19)
(0.147217 0.378564 6.02867e-20)
(0.271879 0.577358 -4.08111e-19)
(0.436116 0.77323 0)
(-0.0486533 -0.0352069 0)
(0.0247051 0.0717994 1.63055e-21)
(0.111031 0.216721 0)
(0.201864 0.388658 3.16681e-21)
(0.332307 0.565868 2.57295e-22)
(0.490137 0.712582 -2.76412e-19)
(-0.0455084 -0.0228274 7.0088e-20)
(0.042433 0.087433 6.44129e-19)
(0.142105 0.23079 6.59704e-20)
(0.247324 0.391943 3.82645e-19)
(0.379526 0.546065 4.38183e-19)
(0.525776 0.656564 3.28366e-19)
(-0.0427927 -0.0143986 -3.48697e-20)
(0.0584323 0.0977567 -1.43479e-18)
(0.16921 0.238407 6.652e-20)
(0.284745 0.389229 1.05414e-19)
(0.415596 0.521517 -7.97846e-19)
(0.549036 0.60604 0)
(-0.0388328 -0.00966555 2.25956e-18)
(0.0725816 0.103453 1.42238e-18)
(0.192397 0.240642 -1.96104e-19)
(0.31534 0.381355 8.71473e-19)
(0.442592 0.495026 -7.94688e-20)
(0.564117 0.559709 1.45559e-19)
(-0.0340117 -0.00812849 -4.44258e-18)
(0.0848021 0.105205 0)
(0.211774 0.238478 1.2973e-19)
(0.33996 0.3695 -1.08542e-18)
(0.462491 0.46774 7.92664e-19)
(0.573318 0.517118 -6.94356e-19)
(-0.028913 -0.00918401 2.32319e-18)
(0.0949595 0.103746 -4.13801e-20)
(0.227441 0.232707 1.05173e-18)
(0.359142 0.35489 1.06223e-19)
(0.476825 0.440133 -9.01773e-20)
(0.578253 0.477663 4.23258e-19)
(-0.0240588 -0.0121954 2.31881e-18)
(0.102849 0.0997271 4.08168e-20)
(0.23948 0.223965 -1.12251e-18)
(0.373408 0.338271 0)
(0.486658 0.412513 0)
(0.580108 0.440714 0)
(-0.019867 -0.0165614 -2.35394e-18)
(0.10824 0.0936598 8.27025e-20)
(0.247902 0.212738 0)
(0.383294 0.319982 0)
(0.492825 0.384982 1.71021e-19)
(0.57968 0.405726 -9.36126e-21)
(-0.0166506 -0.0217472 2.21221e-18)
(0.110922 0.0859171 0)
(0.252659 0.199342 0)
(0.389253 0.300136 2.16583e-19)
(0.495952 0.357534 -7.17971e-19)
(0.577498 0.372211 -8.84469e-21)
(-0.0148147 -0.027414 3.23526e-20)
(0.110722 0.0767814 8.30479e-20)
(0.253672 0.183955 -1.01246e-18)
(0.391554 0.27874 7.80608e-19)
(0.496504 0.330056 7.10635e-19)
(0.573988 0.339747 0)
(-0.014575 -0.0330832 -2.14664e-18)
(0.107424 0.0664131 -4.20923e-20)
(0.25083 0.166645 1.08903e-18)
(0.390291 0.255741 -9.01594e-19)
(0.494826 0.302352 0)
(0.569468 0.30795 1.3901e-19)
(-0.0160862 -0.0382394 -2.25156e-18)
(0.100836 0.0549246 0)
(0.243971 0.1474 0)
(0.385417 0.230984 -9.1627e-19)
(0.491144 0.274141 7.29589e-19)
(0.564213 0.276461 -1.40445e-19)
(-0.0195003 -0.042464 2.2235e-18)
(0.0907801 0.042401 0)
(0.232895 0.126152 -1.11993e-18)
(0.376706 0.204189 9.28559e-19)
(0.485524 0.245044 -1.7648e-19)
(0.558466 0.244903 1.50454e-19)
(-0.0254436 -0.0469948 -2.19339e-18)
(0.0770403 0.0289176 8.7962e-20)
(0.21736 0.102817 1.06737e-18)
(0.36368 0.175008 0)
(0.477833 0.214546 -7.53309e-19)
(0.552479 0.212867 -5.96527e-19)
(-0.0321275 -0.0492307 2.07757e-18)
(0.0596006 0.0144364 6.29679e-19)
(0.19711 0.0773228 4.16706e-22)
(0.345536 0.14301 6.63962e-19)
(0.467637 0.181962 -5.8098e-19)
(0.546524 0.179882 6.8333e-19)
(-0.0379462 -0.0501031 -5.71308e-20)
(0.0396689 -0.000816592 -7.37537e-19)
(0.171914 0.0497563 3.72281e-20)
(0.321056 0.107749 8.19857e-22)
(0.453987 0.146365 4.95865e-19)
(0.540883 0.145336 -1.55243e-19)
(-0.0426057 -0.0504252 0)
(0.0182325 -0.0162293 -4.75798e-20)
(0.141408 0.0205948 -5.74195e-19)
(0.288491 0.069047 -4.44076e-19)
(0.434793 0.106344 -5.23158e-20)
(0.535636 0.10798 0)
(-0.0455695 -0.0499681 0)
(-0.00426581 -0.0306753 -4.96166e-20)
(0.104738 -0.00890509 6.7516e-19)
(0.245065 0.0273152 0)
(0.405037 0.0593902 1.62145e-19)
(0.530152 0.0642662 -1.24677e-19)
(-0.0473944 -0.0482574 -2.82752e-19)
(-0.0272036 -0.0433496 -1.96055e-19)
(0.0593633 -0.0376332 4.11291e-20)
(0.184479 -0.0174199 -4.01818e-22)
(0.352029 0.000926309 -3.04255e-19)
(0.522849 0.00395654 2.22352e-19)
(-0.0377477 -0.0423062 2.8945e-19)
(-0.0426174 -0.0518236 2.10863e-19)
(0.00491786 -0.0607476 1.06366e-20)
(0.0925748 -0.062616 -1.71532e-20)
(0.245065 -0.0542382 1.44905e-20)
(0.516304 -0.0231544 1.07846e-20)
(0.87945 1.19909 -1.26909e-20)
(1.16836 0.915777 -3.40261e-22)
(1.27105 0.726712 8.70259e-21)
(1.30563 0.599393 -1.10193e-20)
(1.31325 0.500414 -4.38618e-21)
(1.31077 0.423223 -8.08639e-21)
(1.3041 0.362399 -4.83732e-21)
(1.29525 0.313511 -8.05794e-21)
(1.28509 0.273518 1.0664e-20)
(1.27407 0.240321 -3.3215e-21)
(1.26245 0.212415 -7.97072e-22)
(1.25037 0.188689 -9.55728e-21)
(1.23787 0.168305 6.09994e-21)
(1.22493 0.150615 6.65716e-21)
(1.21148 0.135114 0)
(1.19739 0.121405 6.02796e-21)
(1.18254 0.109173 -5.76309e-21)
(1.16673 0.0981824 1.18844e-20)
(1.14976 0.0882637 -1.70557e-20)
(1.13136 0.0792535 1.10704e-20)
(1.11113 0.0708872 -9.56795e-33)
(1.08849 0.0632377 5.62392e-21)
(1.06293 0.0584024 1.1737e-20)
(1.03402 0.0693829 -1.13702e-20)
(0.836649 1.02199 9.77207e-21)
(1.09437 0.864616 -4.19829e-20)
(1.19557 0.709229 -1.66788e-20)
(1.23758 0.590987 -1.64144e-20)
(1.25443 0.498368 1.97226e-20)
(1.26014 0.425402 -2.62008e-20)
(1.2601 0.367276 -2.20395e-20)
(1.2566 0.320091 1.67593e-20)
(1.2508 0.281133 -1.77134e-20)
(1.24341 0.248515 -1.61561e-20)
(1.23486 0.220876 -2.6134e-20)
(1.22538 0.1972 1.50101e-20)
(1.21512 0.176712 1.58276e-20)
(1.20411 0.158815 2.30021e-20)
(1.19233 0.143036 1.01793e-21)
(1.17973 0.129007 2.70888e-20)
(1.16619 0.116436 -2.59557e-20)
(1.15161 0.105106 -1.8381e-20)
(1.13582 0.0948678 3.7885e-20)
(1.11864 0.0855545 1.27328e-20)
(1.09991 0.0767747 1.24024e-20)
(1.07934 0.0683724 -1.7926e-20)
(1.0558 0.0633243 0)
(1.02542 0.0788242 2.77475e-20)
(0.784466 0.943226 0)
(1.0255 0.820202 2.15286e-19)
(1.12632 0.681031 1.0492e-19)
(1.17455 0.57386 1.15165e-20)
(1.19959 0.489457 0)
(1.21245 0.421929 5.10532e-20)
(1.2182 0.367271 -5.81171e-20)
(1.21942 0.322334 0)
(1.21756 0.284839 1.89367e-20)
(1.2135 0.253153 4.26126e-20)
(1.2078 0.226068 9.43853e-20)
(1.2008 0.202674 -7.05682e-20)
(1.1927 0.182263 1.77804e-20)
(1.18359 0.164284 -1.51423e-20)
(1.17351 0.148298 -4.73624e-20)
(1.16244 0.133953 3.14659e-20)
(1.15032 0.120969 -5.81166e-20)
(1.13706 0.10913 7.19705e-20)
(1.12254 0.0982702 -4.16156e-20)
(1.10663 0.0881274 -1.2798e-20)
(1.0892 0.0781628 -9.1239e-20)
(1.06984 0.0686004 6.3099e-20)
(1.04652 0.0643701 -5.41967e-20)
(1.01592 0.0764937 2.24554e-20)
(0.756626 0.852711 5.38088e-20)
(0.964539 0.75799 -3.96733e-19)