/*--------------------------------*- C++ -*----------------------------------*\
  =========                 |
  \\      /  F ield         | OpenFOAM: The Open Source CFD Toolbox
   \\    /   O peration     | Website:  https://openfoam.org
    \\  /    A nd           | Version:  11
     \\/     M anipulation  |
\*---------------------------------------------------------------------------*/
FoamFile
{
    format      ascii;
    class       surfaceVectorField;
    location    "0.5";
    object      Uf;
}
// * * * * * * * * * * * * * * * * * * * * * * * * * * * * * * * * * * * * * //

dimensions      [0 1 -1 0 0 0 0];

internalField   nonuniform List<vector> 
5640
(
(-0.11704 0.0536526 -7.08613e-20)
(-0.0792008 0.0568314 -1.83091e-19)
(-0.288381 0.0796713 -7.01129e-20)
(-0.244467 0.0913264 1.48769e-19)
(-0.425108 0.0926718 -6.02147e-20)
(-0.409265 0.107412 -9.79682e-20)
(-0.500839 0.0984944 -1.33475e-20)
(-0.485532 0.112127 -1.35872e-19)
(-0.532929 0.103106 5.8745e-20)
(-0.518602 0.115599 1.242e-19)
(-0.516853 0.107768 -1.22135e-20)
(-0.510813 0.0757333 3.72907e-20)
(-0.190718 0.0927288 1.78005e-20)
(-0.120353 0.0823613 -1.01033e-20)
(-0.356586 0.117099 1.31999e-19)
(-0.298567 0.123614 6.51335e-20)
(-0.452572 0.124409 -1.6814e-19)
(-0.423277 0.133332 -2.05395e-19)
(-0.50249 0.12258 -6.00041e-21)
(-0.47938 0.130437 1.76815e-19)
(-0.52121 0.110842 4.87667e-20)
(-0.504515 0.125489 1.06148e-20)
(-0.504995 0.104974 -1.61519e-20)
(-0.508829 0.0744422 -4.21087e-20)
(-0.212356 0.119614 3.14689e-20)
(-0.145514 0.108366 1.58209e-19)
(-0.363393 0.143587 -2.59773e-19)
(-0.309256 0.154584 1.34709e-19)
(-0.441218 0.14403 1.24615e-19)
(-0.413211 0.156872 8.61107e-20)
(-0.48206 0.136147 1.97811e-19)
(-0.458144 0.148646 2.21484e-19)
(-0.49754 0.119137 -5.63127e-20)
(-0.480812 0.137037 1.03729e-19)
(-0.483427 0.110631 0)
(-0.495213 0.081907 0)
(-0.22714 0.144334 2.63955e-19)
(-0.170982 0.131906 -4.46639e-21)
(-0.358613 0.168409 4.80952e-19)
(-0.312648 0.181631 2.85714e-19)
(-0.424124 0.163505 1.78434e-19)
(-0.398858 0.178927 1.92769e-19)
(-0.457601 0.150626 1.32476e-19)
(-0.435043 0.166804 -2.13354e-20)
(-0.470715 0.129578 1.62528e-19)
(-0.453978 0.15081 1.59323e-19)
(-0.457057 0.122176 1.19427e-19)
(-0.472835 0.0930928 -3.22455e-20)
(-0.242892 0.165456 2.13478e-23)
(-0.19692 0.15267 -2.18456e-20)
(-0.351518 0.191219 2.36189e-23)
(-0.315239 0.203129 -2.30068e-19)
(-0.405525 0.183112 -1.96486e-23)
(-0.38324 0.199521 -2.3995e-20)
(-0.431844 0.167035 5.23784e-22)
(-0.411317 0.184957 -1.38081e-19)
(-0.442025 0.14384 1.17138e-19)
(-0.425403 0.166691 -1.67295e-19)
(-0.427094 0.13795 -2.92242e-20)
(-0.444707 0.108866 5.50889e-21)
(-0.25857 0.183913 -2.41419e-19)
(-0.216521 0.172962 -1.00736e-20)
(-0.344404 0.210614 -2.64107e-19)
(-0.315931 0.21966 2.77291e-19)
(-0.386059 0.202091 -1.59149e-19)
(-0.366758 0.218367 -4.69239e-20)
(-0.405143 0.184627 -3.05636e-19)
(-0.387069 0.203104 -1.7739e-19)
(-0.411281 0.161076 -3.16847e-19)
(-0.395471 0.18426 1.33521e-19)
(-0.393797 0.156845 -1.48687e-19)
(-0.411677 0.128419 -5.89422e-21)
(-0.26802 0.205926 4.91692e-19)
(-0.22883 0.192545 -7.54468e-19)
(-0.335431 0.22741 5.0877e-19)
(-0.313015 0.233661 1.41628e-20)
(-0.365829 0.220168 -6.1392e-20)
(-0.349579 0.235676 4.5468e-20)
(-0.377601 0.202904 2.53339e-19)
(-0.36243 0.221142 -3.44695e-19)
(-0.378479 0.18035 3.08837e-19)
(-0.364416 0.202988 3.37502e-19)
(-0.357553 0.177828 -6.03624e-20)
(-0.374136 0.150693 0)
(-0.271369 0.220341 -1.2765e-18)
(-0.238583 0.209229 7.45584e-19)
(-0.324599 0.242234 -4.50738e-19)
(-0.307129 0.245828 -4.94588e-19)
(-0.345044 0.237355 -2.24253e-19)
(-0.331974 0.251623 2.30777e-20)
(-0.349443 0.221488 -2.79771e-19)
(-0.337604 0.238889 7.40361e-20)
(-0.343929 0.200809 -2.27635e-20)
(-0.33261 0.222278 -2.65497e-19)
(-0.319027 0.199841 2.4907e-19)
(-0.332707 0.174563 -7.03934e-20)
(-0.272043 0.232711 1.59505e-18)
(-0.245643 0.222793 7.19217e-19)
(-0.31233 0.255545 -4.33906e-20)
(-0.299023 0.256418 1.41037e-20)
(-0.32402 0.253664 3.20116e-19)
(-0.314168 0.266342 -4.02059e-19)
(-0.32102 0.239981 9.76136e-20)
(-0.312847 0.256118 3.41562e-19)
(-0.308236 0.221621 -6.54288e-21)
(-0.300603 0.241515 -2.6795e-19)
(-0.279189 0.221826 1.24264e-19)
(-0.288436 0.198825 3.2523e-19)
(-0.270848 0.243303 -8.21557e-19)
(-0.250031 0.23307 -1.58375e-18)
(-0.298963 0.267567 -3.26855e-19)
(-0.289197 0.265576 -2.47726e-22)
(-0.302994 0.269094 -4.05852e-19)
(-0.296245 0.280002 2.06226e-20)
(-0.292781 0.257978 -6.98477e-21)
(-0.288481 0.272627 -3.83564e-20)
(-0.272252 0.24198 -1.46725e-19)
(-0.269074 0.260138 3.33835e-20)
(-0.239276 0.242802 -1.85352e-19)
(-0.242789 0.222244 -1.77324e-19)
(-0.267696 0.251713 -8.52238e-19)
(-0.25168 0.240008 1.17802e-20)
(-0.284772 0.278434 3.45408e-19)
(-0.277974 0.273431 -4.24657e-20)
(-0.282153 0.283627 3.90135e-19)
(-0.278284 0.292752 3.77386e-19)
(-0.265258 0.275138 0)
(-0.264888 0.288276 0)
(-0.237004 0.261178 0)
(-0.238793 0.277698 -6.90685e-20)
(-0.200708 0.261946 -1.52022e-21)
(-0.19753 0.243668 0)
(-0.262292 0.257925 8.24691e-19)
(-0.250368 0.243702 4.65991e-20)
(-0.270488 0.287761 -2.93107e-20)
(-0.265677 0.280315 -2.81143e-20)
(-0.261746 0.297248 0)
(-0.260343 0.304529 0)
(-0.239046 0.291227 -6.7132e-20)
(-0.242467 0.303003 -7.73399e-20)
(-0.20362 0.278666 -7.18898e-20)
(-0.210567 0.293897 2.03741e-19)
(-0.164959 0.278665 -2.91107e-21)
(-0.154548 0.262169 3.5204e-20)
(-0.254815 0.261855 -8.03692e-19)
(-0.245866 0.244462 -7.70231e-19)
(-0.254625 0.297222 0)
(-0.252117 0.286078 -2.87704e-20)
(-0.242098 0.310009 -7.47271e-20)
(-0.242891 0.31569 3.35686e-19)
(-0.214743 0.306115 1.85292e-19)
(-0.221607 0.316814 -3.46917e-19)
(-0.173218 0.294116 2.7827e-19)
(-0.185186 0.308601 -4.0625e-21)
(-0.133415 0.292642 -1.39086e-21)
(-0.115645 0.277179 -2.61976e-19)
(-0.245165 0.263605 -3.81728e-20)
(-0.238064 0.242621 7.2639e-19)
(-0.238934 0.305416 2.89855e-19)
(-0.23749 0.290936 -1.43373e-20)
(-0.223552 0.322005 8.70978e-20)
(-0.225946 0.32622 -2.71764e-20)
(-0.192912 0.319797 -5.46097e-19)
(-0.202675 0.329752 4.14099e-20)
(-0.146824 0.307417 -2.83355e-19)
(-0.163369 0.32183 -2.76721e-19)
(-0.107266 0.303828 -6.41327e-20)
(-0.0823462 0.288468 3.76017e-19)
(-0.23314 0.263736 7.94279e-19)
(-0.226829 0.238564 1.50484e-18)
(-0.222988 0.31293 -3.32293e-19)
(-0.221928 0.294907 1.44332e-20)
(-0.206329 0.333307 -7.46684e-20)
(-0.209653 0.336205 -3.62777e-19)
(-0.174061 0.332361 3.19583e-19)
(-0.185982 0.341907 6.24096e-19)
(-0.125318 0.318637 -6.25953e-20)
(-0.145732 0.33374 -2.79325e-19)
(-0.0874908 0.312383 -3.08169e-23)
(-0.0557481 0.29602 -3.63206e-20)
(-0.218959 0.262501 8.12566e-19)
(-0.211531 0.233773 4.77812e-21)
(-0.206937 0.319787 0)
(-0.205555 0.297872 0)
(-0.19063 0.343976 3.02647e-19)
(-0.194161 0.345599 3.72393e-19)
(-0.158598 0.343979 5.05179e-20)
(-0.171753 0.353358 -5.06096e-21)
(-0.109482 0.327991 -2.23456e-19)
(-0.132767 0.344625 -2.06746e-19)
(-0.0750577 0.318635 1.46642e-22)
(-0.0365811 0.299605 3.56393e-20)
(-0.203835 0.26208 -7.95624e-19)
(-0.188397 0.236493 -6.2037e-20)
(-0.191073 0.325985 3.56547e-19)
(-0.188957 0.299164 -3.06866e-20)
(-0.176642 0.353973 7.77432e-20)
(-0.179643 0.354089 1.57512e-20)
(-0.146834 0.354872 -2.56664e-19)
(-0.160089 0.364095 -3.17973e-19)
(-0.100095 0.335911 1.13122e-20)
(-0.124784 0.354956 3.59191e-19)
(-0.0711505 0.323284 1.93367e-19)
(-0.0253116 0.298588 -7.45834e-20)
(-0.177599 0.265091 7.01091e-19)
(-0.16233 0.236696 8.26177e-20)
(-0.175843 0.330678 -3.76587e-19)
(-0.174699 0.296732 -2.42978e-19)
(-0.16439 0.362976 -3.68344e-19)
(-0.16615 0.360848 -3.55674e-19)
(-0.138923 0.365222 2.78271e-19)
(-0.150877 0.373927 -2.25359e-19)
(-0.0977824 0.3432 5.44315e-19)
(-0.121749 0.36537 5.02739e-19)
(-0.0766339 0.326608 -3.87305e-20)
(-0.0190415 0.29325 3.36291e-19)
(-0.158378 0.257386 -8.54893e-19)
(-0.140151 0.222444 -6.00794e-19)
(-0.16214 0.33101 -2.16528e-19)
(-0.160893 0.288699 3.27044e-20)
(-0.153561 0.370314 -2.1753e-19)
(-0.152863 0.364869 -1.1524e-20)
(-0.134572 0.375062 -2.16745e-20)
(-0.143636 0.382542 -2.25689e-19)
(-0.102303 0.350412 -6.44689e-20)
(-0.123283 0.376603 3.32384e-20)
(-0.092059 0.327016 -2.28302e-19)
(-0.0126536 0.284823 -4.52079e-19)
(-0.142389 0.242574 2.48933e-19)
(-0.118476 0.20215 1.83355e-20)
(-0.148424 0.327328 2.47418e-19)
(-0.145352 0.276251 2.62263e-19)
(-0.143321 0.375551 -1.27435e-20)
(-0.138818 0.365835 1.79461e-19)
(-0.133047 0.384543 -1.7762e-19)
(-0.137544 0.38937 1.51803e-19)
(-0.114734 0.358852 -1.27035e-19)
(-0.12828 0.390849 -1.63787e-19)
(-0.120475 0.324035 6.54135e-20)
(-0.00287201 0.26855 1.69428e-19)
(-0.121549 0.224215 1.5079e-20)
(-0.095943 0.180488 0)
(-0.133009 0.319898 2.02599e-19)
(-0.127453 0.259884 3.26722e-20)
(-0.132985 0.378209 3.45143e-19)
(-0.123195 0.363693 -3.56626e-20)
(-0.133123 0.394446 1.75461e-19)
(-0.131247 0.392562 1.52193e-19)
(-0.132542 0.373362 1.9214e-20)
(-0.133192 0.413253 -3.99169e-20)
(-0.159189 0.320953 5.63829e-20)
(0.0193358 0.258837 0)
(-0.102141 0.204073 1.57083e-20)
(-0.0732861 0.15622 9.46304e-20)
(-0.116193 0.30937 -1.97018e-19)
(-0.106837 0.238272 8.17329e-20)
(-0.121318 0.376819 -2.34433e-19)
(-0.105839 0.357094 -2.41076e-19)
(-0.13158 0.404712 -5.70358e-20)
(-0.122704 0.386676 -2.99073e-22)
(-0.14719 0.401322 1.09424e-20)
(-0.132113 0.446202 5.44089e-20)
(-0.180036 0.318969 -2.79489e-20)
(0.0794786 0.314091 6.57526e-20)
(-0.0824147 0.177502 1.60562e-19)
(-0.0529326 0.109139 -9.15098e-21)
(-0.0977974 0.293716 5.41356e-20)
(-0.0837638 0.191582 -6.26423e-21)
(-0.108465 0.366221 -1.51097e-20)
(-0.0884082 0.329616 -1.43046e-20)
(-0.125214 0.41 1.1388e-19)
(-0.109913 0.349101 -6.64779e-21)
(-0.146207 0.438113 5.10319e-20)
(-0.120767 0.473152 1.18713e-19)
(-0.165841 0.286409 -9.34788e-20)
(0.195852 0.420389 -1.33102e-19)
(-0.0542282 0.107211 -1.75897e-19)
(-0.0731779 0.238715 -7.36247e-20)
(-0.0853411 0.311388 -6.13423e-21)
(-0.101414 0.378 1.79048e-21)
(-0.126453 0.433091 5.4391e-21)
(0.293328 0.492652 2.2303e-20)
(-0.523278 0.00672884 3.44377e-20)
(-0.512205 0.0323743 7.17861e-21)
(-0.504862 0.0258171 7.34734e-20)
(-0.537262 -0.0398139 -3.03394e-20)
(-0.531781 -0.0181485 5.27186e-20)
(-0.528174 -0.0256527 -7.58969e-21)
(-0.540214 -0.0744427 1.10402e-21)
(-0.540873 -0.0568178 1.41127e-20)
(-0.538902 -0.0589507 -5.8584e-20)
(-0.528121 -0.105581 4.42924e-20)
(-0.536238 -0.0945888 4.21661e-20)
(-0.53488 -0.0875633 6.79815e-20)
(-0.499246 -0.131606 3.1751e-20)
(-0.513707 -0.129906 -2.49766e-20)
(-0.513874 -0.110635 -1.43399e-20)
(-0.455428 -0.150241 1.08121e-20)
(-0.474 -0.15932 5.29283e-20)
(-0.476884 -0.127001 1.29427e-20)
(-0.400354 -0.160104 1.52735e-20)
(-0.420644 -0.179759 2.19206e-20)
(-0.426901 -0.135419 -8.99497e-21)
(-0.337925 -0.161001 8.84108e-21)
(-0.358334 -0.189931 7.66541e-22)
(-0.367658 -0.13548 2.16465e-20)
(-0.271591 -0.153858 -1.33191e-20)
(-0.291123 -0.190124 6.36424e-21)
(-0.302461 -0.127817 -1.78908e-20)
(-0.204173 -0.140285 2.6376e-21)
(-0.222382 -0.18176 1.45066e-20)
(-0.234271 -0.113904 -6.95943e-21)
(-0.137579 -0.121986 -1.81562e-21)
(-0.154665 -0.166914 1.58733e-20)
(-0.165494 -0.0953858 2.8093e-22)
(-0.0730724 -0.100478 4.07675e-21)
(-0.089375 -0.147422 -1.26748e-20)
(-0.0976348 -0.0737504 -5.91698e-21)
(-0.0114531 -0.0770524 8.21593e-21)
(-0.0273516 -0.12488 4.00632e-21)
(-0.0318301 -0.0502927 1.76536e-20)
(0.0467712 -0.0527821 -3.92056e-21)
(0.0309222 -0.100572 -5.17318e-21)
(0.0311271 -0.0260928 -1.88851e-21)
(0.101303 -0.028535 -3.36766e-21)
(0.0852508 -0.07559 -2.58548e-21)
(0.0907075 -0.00207051 -7.1455e-21)
(0.152064 -0.0049906 5.25594e-22)
(0.135634 -0.0507131 -2.43058e-21)
(0.146576 0.0212372 -1.78027e-34)
(0.198988 0.0172937 -2.35e-22)
(0.182126 -0.0266431 2.85794e-21)
(0.198523 0.0431201 1.23047e-21)
(0.242114 0.0378906 -1.17346e-21)
(0.224816 -0.00390356 -1.42341e-22)
(0.246441 0.0632056 -1.66045e-21)
(0.281479 0.0563697 -2.31445e-22)
(0.263865 0.0170954 -8.78875e-22)
(0.290287 0.081071 -1.77779e-21)
(0.317108 0.0721994 2.87258e-22)
(0.299362 0.0359518 3.88751e-22)
(0.330087 0.0962944 4.14197e-22)
(0.349027 0.0848234 1.62192e-22)
(0.3313 0.0522865 4.47599e-22)
(0.365937 0.108495 5.98857e-22)
(0.377263 0.0937304 2.38818e-22)
(0.359696 0.0656797 -2.08779e-22)
(0.397981 0.117266 -1.47114e-22)
(0.401809 0.0991082 1.29455e-21)
(0.385264 0.0757592 1.66376e-22)
(0.426499 0.122165 1.2914e-22)
(0.411026 0.0826911 -1.10994e-22)
(0.453353 0.123392 -1.0691e-22)
(-0.520595 0.0117675 2.66196e-20)
(-0.504498 0.0411431 -2.79109e-20)
(-0.534396 -0.0341203 9.79869e-20)
(-0.523938 -0.00841717 -1.75222e-19)
(-0.536496 -0.0762265 5.48479e-20)
(-0.532183 -0.0525528 -7.66623e-20)
(-0.522239 -0.118307 -2.59807e-20)
(-0.525454 -0.0999133 -1.07996e-20)
(-0.48977 -0.157222 -4.54611e-21)
(-0.498601 -0.148122 -3.9967e-20)
(-0.440977 -0.188663 6.44655e-20)
(-0.452341 -0.191464 -3.30417e-20)
(-0.380379 -0.209626 7.82923e-21)
(-0.390938 -0.224437 9.01325e-20)
(-0.313008 -0.21926 -1.56194e-21)
(-0.32059 -0.244468 -2.10182e-20)
(-0.243078 -0.218345 3.4531e-20)
(-0.246652 -0.251632 2.24538e-21)
(-0.173783 -0.208779 2.76378e-20)
(-0.173131 -0.247497 -1.12252e-20)
(-0.107112 -0.192769 5.20302e-21)
(-0.10274 -0.234759 -3.15888e-20)
(-0.0441418 -0.17224 -1.29418e-20)
(-0.0368185 -0.215887 1.8928e-20)
(0.014638 -0.148803 -9.18254e-21)
(0.0241448 -0.19293 -1.06157e-20)
(0.0691374 -0.123743 -3.77618e-21)
(0.0800834 -0.167557 -8.10941e-22)
(0.119373 -0.0980729 -1.64963e-21)
(0.13121 -0.140951 6.44331e-21)
(0.165531 -0.0725998 -3.53555e-22)
(0.177882 -0.114104 -4.06588e-21)
(0.207817 -0.0479729 2.99062e-21)
(0.220445 -0.0877589 3.33514e-21)
(0.246446 -0.0247015 2.83437e-22)
(0.25924 -0.0624794 5.17354e-22)
(0.281627 -0.00317732 -3.26195e-22)
(0.294572 -0.0387002 -9.58746e-22)
(0.3135 0.0163008 5.03409e-22)
(0.326671 -0.0167445 3.44079e-22)
(0.342117 0.0335108 -1.02706e-22)
(0.355624 0.00313318 -2.42242e-21)
(0.367358 0.048271 -4.07035e-22)
(0.38162 0.0208319 1.24622e-21)
(0.389009 0.0600131 1.20214e-24)
(0.405966 0.0363942 -1.58669e-21)
(0.432201 0.0488141 1.56288e-21)
(-0.507552 0.022436 -2.26049e-19)
(-0.487532 0.0536738 -3.86721e-20)
(-0.520493 -0.0256047 -3.52665e-19)
(-0.505797 0.00476933 1.11129e-19)
(-0.520621 -0.0752524 -1.43898e-19)
(-0.511978 -0.0446641 1.26642e-19)
(-0.502216 -0.128898 -2.43131e-20)
(-0.501173 -0.101955 -5.1464e-20)
(-0.46279 -0.181771 -6.80792e-20)
(-0.466787 -0.163993 0)
(-0.40453 -0.226907 -7.37575e-21)
(-0.409253 -0.222447 -1.48306e-19)
(-0.333314 -0.259134 6.27561e-20)
(-0.334256 -0.268632 -2.61295e-20)
(-0.256002 -0.276785 -1.7069e-20)
(-0.250363 -0.298068 -1.66778e-20)
(-0.178027 -0.280749 -4.29126e-20)
(-0.164853 -0.310821 -8.92576e-21)
(-0.103044 -0.273428 -7.00534e-20)
(-0.0826524 -0.309065 2.96499e-20)
(-0.0330979 -0.257797 -1.82747e-20)
(-0.00658229 -0.296356 -2.59462e-20)
(0.031003 -0.236472 2.15473e-20)
(0.0622957 -0.276088 2.70433e-20)
(0.0892323 -0.211544 -2.86692e-21)
(0.124025 -0.251018 8.18107e-22)
(0.141906 -0.184594 8.66303e-21)
(0.17913 -0.223187 -3.25602e-21)
(0.189534 -0.156796 3.81842e-21)
(0.228375 -0.194039 3.66682e-21)
(0.232644 -0.129052 -6.48527e-22)
(0.272553 -0.164643 1.02241e-21)
(0.271734 -0.102025 1.03343e-21)
(0.312389 -0.135766 1.00681e-21)
(0.307238 -0.0762083 -1.22115e-21)
(0.348517 -0.107941 2.6246e-22)
(0.339511 -0.0519667 -9.77383e-22)
(0.381459 -0.081542 -8.74123e-22)
(0.36883 -0.0295553 -3.27932e-21)
(0.411618 -0.0568239 -2.06497e-22)
(0.395383 -0.00913383 -3.03462e-22)
(0.439247 -0.0339354 -2.21336e-21)
(0.419322 0.00911693 4.50377e-22)
(0.464778 -0.0128853 2.01561e-21)
(0.440977 0.024176 -1.44432e-20)
(0.489523 0.00634541 -5.2328e-22)
(0.517294 0.0221472 1.59077e-21)
(-0.485381 0.0373265 2.9484e-19)
(-0.462677 0.0705572 -1.99097e-19)
(-0.495729 -0.0129664 5.9039e-19)
(-0.477675 0.0221083 5.74983e-20)
(-0.491729 -0.0701523 2.22778e-19)
(-0.479601 -0.0320062 1.1807e-19)
(-0.466116 -0.136033 -2.80115e-20)
(-0.461715 -0.0992584 -1.45839e-19)
(-0.415314 -0.204099 -7.79739e-20)
(-0.415331 -0.176032 0)
(-0.341928 -0.264053 -1.67409e-19)
(-0.340402 -0.250915 -8.49644e-20)
(-0.254061 -0.307749 -1.04034e-19)
(-0.245113 -0.310935 -1.56201e-19)
(-0.161344 -0.332493 -6.22144e-21)
(-0.141859 -0.348913 -1.66778e-20)
(-0.0709378 -0.339596 6.47864e-20)
(-0.0404718 -0.365223 8.34924e-21)
(0.0128709 -0.332346 7.49311e-20)
(0.0530955 -0.363251 5.22709e-20)
(0.0882406 -0.314817 1.89001e-20)
(0.136262 -0.34793 -2.09921e-20)
(0.154966 -0.290614 6.82192e-21)
(0.208831 -0.323885 0)
(0.213687 -0.262469 9.65802e-22)
(0.271669 -0.294725 1.92396e-20)
(0.265421 -0.232305 -7.41155e-21)
(0.326117 -0.263023 -2.08199e-20)
(0.311244 -0.201463 8.03555e-22)
(0.373629 -0.230425 2.12768e-21)
(0.352157 -0.170886 1.66076e-21)
(0.415556 -0.198046 4.25356e-21)
(0.389037 -0.141208 -2.63786e-22)
(0.453057 -0.166622 0)
(0.422611 -0.11285 4.64431e-22)
(0.487086 -0.136606 -2.65713e-22)
(0.45347 -0.0860835 7.42029e-22)
(0.518403 -0.108275 7.37112e-22)
(0.482092 -0.0610575 1.0548e-21)
(0.547631 -0.0817984 0)
(0.50885 -0.0378299 1.06816e-21)
(0.575183 -0.0572346 1.06161e-21)
(0.534076 -0.0164797 1.05708e-21)
(0.60175 -0.034507 0)
(0.558199 0.00164233 1.09845e-21)
(0.627902 -0.0134039 2.82523e-21)
(0.659017 0.00526104 -3.733e-21)
(-0.454565 0.0565259 -4.42768e-19)
(-0.430768 0.0913451 4.12433e-20)
(-0.459699 0.00452044 -4.15379e-19)
(-0.439562 0.0438888 -1.3934e-19)
(-0.448293 -0.0596784 -2.45163e-19)
(-0.433979 -0.0137661 -5.91109e-20)
(-0.411126 -0.138154 -1.20266e-19)
(-0.404758 -0.0904418 -6.13997e-20)
(-0.343079 -0.222563 -4.9669e-21)
(-0.340237 -0.182452 -5.12014e-20)
(-0.247586 -0.298286 -7.20099e-20)
(-0.240016 -0.274781 2.55685e-20)
(-0.13647 -0.352985 -6.87121e-20)
(-0.116927 -0.348772 -1.26777e-20)
(-0.0236883 -0.382705 0)
(0.0104956 -0.393539 -2.17859e-19)
(0.0819486 -0.389778 -3.5171e-21)
(0.130065 -0.410751 1.23487e-19)
(0.175587 -0.379503 -4.30922e-20)
(0.235268 -0.405162 8.0555e-20)
(0.256463 -0.357492 -4.00983e-20)
(0.324549 -0.384409 -1.89912e-20)
(0.325421 -0.32836 1.22394e-20)
(0.399245 -0.354325 -1.94318e-20)
(0.384106 -0.29554 -2.83402e-22)
(0.461447 -0.319429 4.20185e-20)
(0.43438 -0.261307 -1.26947e-20)
(0.513588 -0.282794 -3.32801e-20)
(0.477999 -0.227088 4.53288e-21)
(0.557952 -0.246245 -2.52639e-21)
(0.51649 -0.193797 2.62505e-21)
(0.59651 -0.210858 1.8109e-21)
(0.551111 -0.16198 0)
(0.630854 -0.177256 -8.63717e-22)
(0.582852 -0.131943 0)
(0.662195 -0.145728 0)
(0.612504 -0.103865 0)
(0.691435 -0.11643 -3.2682e-21)
(0.640724 -0.0778101 0)
(0.719392 -0.0894495 7.34116e-21)
(0.668036 -0.0537808 0)
(0.746442 -0.0648026 -7.06398e-21)
(0.694863 -0.0315164 1.51954e-21)
(0.77386 -0.0422609 -5.80869e-21)
(0.72146 -0.011735 2.30872e-20)
(0.800158 -0.0215089 1.12822e-20)
(0.836462 -0.000229025 -8.12473e-21)
(-0.415371 0.079752 3.49475e-19)
(-0.39236 0.115277 2.01747e-19)
(-0.411714 0.0271982 2.15659e-19)
(-0.391396 0.0698919 2.24088e-19)
(-0.388401 -0.04281 1.29919e-19)
(-0.373997 0.0103925 -3.58234e-21)
(-0.333652 -0.133554 8.58158e-21)
(-0.327636 -0.0744217 5.79575e-20)
(-0.240582 -0.23483 -1.75854e-20)
(-0.236483 -0.181203 5.94235e-20)
(-0.114949 -0.326417 7.73354e-20)
(-0.100922 -0.290644 2.01429e-19)
(0.0252775 -0.39042 -1.65576e-19)
(0.0575775 -0.377262 -2.71419e-20)
(0.161379 -0.421495 -9.7293e-20)
(0.212748 -0.426276 -2.21055e-19)
(0.281129 -0.425314 2.06033e-19)
(0.349441 -0.439334 -3.20509e-20)
(0.382834 -0.409007 1.01181e-19)
(0.463127 -0.4277 8.62309e-20)
(0.466646 -0.379984 -6.27598e-22)
(0.554144 -0.399318 -1.3623e-20)
(0.534933 -0.344138 7.22935e-21)
(0.626124 -0.361757 1.07819e-20)
(0.590764 -0.305549 1.53685e-20)
(0.683104 -0.320484 2.96646e-20)
(0.637078 -0.266766 -1.91031e-20)
(0.728958 -0.278888 2.45398e-21)
(0.676398 -0.229227 -4.73641e-21)
(0.766878 -0.238844 -5.02843e-21)
(0.710805 -0.193698 -4.86825e-22)
(0.799505 -0.201293 -3.0882e-21)
(0.741878 -0.160522 -8.6998e-22)
(0.828684 -0.166615 -4.4843e-21)
(0.770727 -0.129815 -3.24549e-21)
(0.855677 -0.134783 5.82211e-21)
(0.798215 -0.101651 4.00219e-21)
(0.881524 -0.105735 -7.71444e-21)
(0.825066 -0.0760029 -1.04568e-21)
(0.907221 -0.0794858 7.34116e-21)
(0.851851 -0.0528464 -1.28804e-20)
(0.932615 -0.0561591 -9.84947e-21)
(0.878836 -0.0315636 7.10756e-21)
(0.960184 -0.0349451 -8.3674e-21)
(0.905933 -0.0121754 4.32682e-20)
(0.983019 -0.0168496 1.12082e-20)
(1.02594 0.00577242 -5.80645e-21)
(-0.3681 0.106318 7.58236e-20)
(-0.348093 0.141375 0)
(-0.351285 0.054825 1.41591e-20)
(-0.3335 0.0992623 7.7686e-20)
(-0.310198 -0.0191173 -7.25136e-20)
(-0.299148 0.0399206 -7.11898e-20)
(-0.229516 -0.120842 1.08775e-19)
(-0.228123 -0.0511609 0)
(-0.100901 -0.238199 2.7809e-19)
(-0.0991287 -0.170899 1.10625e-19)
(0.0645603 -0.344128 8.24692e-20)
(0.0836092 -0.294903 -3.7902e-20)
(0.239289 -0.414295 -9.06359e-20)
(0.283942 -0.390586 -9.1806e-21)
(0.396922 -0.443837 -1.56542e-19)
(0.465266 -0.438084 3.30977e-20)
(0.528679 -0.440699 -1.38674e-19)
(0.612394 -0.445445 -1.52061e-19)
(0.632864 -0.415865 -2.04499e-20)
(0.724319 -0.425608 -5.26163e-20)
(0.712856 -0.378377 -6.74703e-21)
(0.806803 -0.389019 -3.20555e-20)
(0.773859 -0.335292 3.04937e-20)
(0.866844 -0.344639 3.02137e-20)
(0.82101 -0.291179 1.12244e-20)
(0.911085 -0.298419 0)
(0.858549 -0.248618 1.39936e-20)
(0.944845 -0.2537 3.21025e-21)
(0.889735 -0.208914 8.90398e-21)
(0.972014 -0.212111 -1.29605e-21)
(0.917061 -0.172554 -6.76435e-22)
(0.995859 -0.17427 6.71441e-22)
(0.94221 -0.139556 7.43908e-21)
(1.01751 -0.140488 1.64725e-21)
(0.96639 -0.109806 1.10019e-21)
(1.038 -0.110547 5.82211e-21)
(0.990524 -0.0832665 -2.27717e-21)
(1.05803 -0.0842872 -2.26208e-21)
(1.01516 -0.0598077 -2.76763e-21)
(1.07842 -0.0614101 0)
(1.04053 -0.0391835 -5.34561e-21)
(1.09858 -0.0419923 -1.08927e-21)
(1.06591 -0.0207178 -2.57395e-21)
(1.12057 -0.0238545 -1.54993e-21)
(1.09188 -0.00478524 -1.43551e-21)
(1.13622 -0.010668 0)
(1.17702 0.0106862 1.33484e-21)
(-0.313486 0.135052 0)
(-0.299029 0.16838 -4.28585e-20)
(-0.278794 0.0862702 0)
(-0.267082 0.130406 0)
(-0.213051 0.0105191 0)
(-0.210579 0.072903 3.92645e-19)
(-0.0957356 -0.100107 0)
(-0.106387 -0.0228516 -2.1587e-19)
(0.0813126 -0.230723 -2.1038e-19)
(0.0733127 -0.152693 1.32337e-19)
(0.295311 -0.346813 -1.43389e-19)
(0.312864 -0.286184 8.35417e-20)
(0.503168 -0.419851 1.08162e-19)
(0.55282 -0.383915 -2.02958e-20)
(0.67651 -0.444041 5.10255e-20)
(0.747751 -0.427823 1.81883e-19)
(0.806427 -0.432814 -6.30616e-20)
(0.885678 -0.42785 0)
(0.898755 -0.399756 -6.44364e-20)
(0.978 -0.401643 -7.46026e-20)
(0.962142 -0.355438 0)
(1.03727 -0.360347 5.40144e-20)
(1.00558 -0.307601 0)
(1.0747 -0.313372 2.71394e-20)
(1.03636 -0.260809 -9.1872e-21)
(1.09899 -0.266545 -6.2019e-20)
(1.05978 -0.217362 -1.66455e-20)
(1.11603 -0.222873 4.09985e-20)
(1.07957 -0.178198 -8.83802e-21)
(1.12967 -0.183736 -1.07044e-20)
(1.09754 -0.143428 -1.44074e-21)
(1.14154 -0.149189 -1.4299e-21)
(1.11438 -0.112769 0)
(1.15251 -0.118709 3.94725e-21)
(1.13055 -0.085993 0)
(1.16324 -0.0920012 8.32726e-22)
(1.14634 -0.0629646 0)
(1.17401 -0.0689122 -7.97968e-22)
(1.16214 -0.0434696 2.77656e-21)
(1.18564 -0.0494005 2.42636e-21)
(1.1777 -0.0266861 5.35888e-21)
(1.19698 -0.033507 4.7415e-22)
(1.1927 -0.0122913 2.57823e-21)
(1.20859 -0.0190677 2.56297e-21)
(1.20823 -0.00118065 3.52759e-21)
(1.2168 -0.00935358 0)
(1.2461 0.00902675 3.15046e-21)
(-0.253109 0.164301 -4.38859e-20)
(-0.246792 0.194827 3.65971e-21)
(-0.196411 0.11935 3.84422e-19)
(-0.194571 0.161145 -8.19549e-20)
(-0.0998602 0.0431392 1.96575e-19)
(-0.11209 0.106264 -4.4859e-22)
(0.063917 -0.0746928 -9.4044e-20)
(0.0329667 0.00659492 -1.41723e-19)
(0.300219 -0.213181 4.46337e-19)
(0.275805 -0.130417 3.65372e-21)
(0.560681 -0.333397 1.98973e-19)
(0.57163 -0.264409 5.40111e-19)
(0.789182 -0.402642 3.40166e-20)
(0.835268 -0.358932 -1.4151e-20)
(0.953633 -0.419806 1.33027e-19)
(1.01649 -0.395958 1.64208e-20)
(1.05787 -0.402499 6.16563e-21)
(1.12159 -0.390379 -9.7009e-20)
(1.11984 -0.366418 5.42111e-20)
(1.17884 -0.363013 7.61255e-20)
(1.15408 -0.321878 8.14176e-20)
(1.20611 -0.323171 5.40144e-20)
(1.17238 -0.275809 -2.7502e-20)
(1.21691 -0.279777 3.25623e-20)
(1.18255 -0.231971 -2.29734e-20)
(1.21993 -0.237782 -3.30568e-20)
(1.1891 -0.192149 5.7971e-20)
(1.22016 -0.199226 1.75019e-20)
(1.194 -0.15687 7.40433e-21)
(1.21997 -0.164692 2.29225e-20)
(1.19823 -0.12605 3.91732e-21)
(1.21983 -0.134451 4.51374e-21)
(1.20275 -0.0993566 4.80256e-21)
(1.22082 -0.108293 -1.19433e-20)
(1.20805 -0.0763693 2.47471e-21)
(1.223 -0.0858261 1.30008e-20)
(1.21437 -0.057027 1.60689e-21)
(1.22618 -0.0666701 -6.83291e-21)
(1.22151 -0.0410276 -9.35534e-23)
(1.23063 -0.0506558 2.42636e-21)
(1.22851 -0.0274872 -2.33466e-21)
(1.23453 -0.0375591 9.33199e-22)
(1.23533 -0.0162428 0)
(1.23821 -0.0261051 2.28662e-21)
(1.24186 -0.0073534 2.01912e-22)
(1.24133 -0.0172953 -5.24165e-21)
(1.25947 0.000414458 4.78704e-22)
(-0.189565 0.192202 -3.30276e-20)
(-0.193474 0.219278 4.65182e-20)
(-0.109167 0.150253 -4.72147e-19)
(-0.11994 0.189584 -4.19417e-19)
(0.0242827 0.0737686 -3.40207e-19)
(-0.00927526 0.135394 -3.96785e-19)
(0.244839 -0.0475563 -5.11448e-20)
(0.185331 0.0312787 2.23868e-19)
(0.539677 -0.187259 1.07422e-19)
(0.498067 -0.105387 -2.66222e-19)
(0.831992 -0.302673 2.67605e-19)
(0.837137 -0.230885 2.23309e-19)
(1.05233 -0.363761 -4.85045e-20)
(1.09549 -0.315628 -1.04987e-19)
(1.18106 -0.374121 -2.29038e-19)
(1.23651 -0.344946 -2.80223e-19)
(1.24361 -0.355878 -2.89757e-20)
(1.29714 -0.336502 8.7585e-20)
(1.26924 -0.322939 7.06195e-20)
(1.31858 -0.313284 5.94966e-21)
(1.2737 -0.283946 5.36961e-21)
(1.31679 -0.279422 0)
(1.26886 -0.244699 2.85138e-20)
(1.30557 -0.243457 -2.5446e-20)
(1.26136 -0.207958 -1.60954e-20)
(1.29207 -0.209367 2.89622e-20)
(1.2542 -0.174694 -3.54811e-20)
(1.27963 -0.178287 -1.19113e-20)
(1.2485 -0.145094 2.01781e-20)
(1.26937 -0.150436 -6.03022e-21)
(1.24474 -0.119113 -1.77156e-20)
(1.26158 -0.12575 1.11927e-20)
(1.24282 -0.0966512 -1.44425e-20)
(1.25612 -0.104151 -1.40624e-20)
(1.24238 -0.0773785 7.36695e-21)
(1.25257 -0.0854613 1.94127e-21)
(1.24305 -0.061126 -6.0752e-21)
(1.2503 -0.0693767 -9.78691e-21)
(1.24403 -0.0476938 3.23266e-21)
(1.24872 -0.0555967 2.3085e-21)
(1.24483 -0.036481 1.24356e-21)
(1.24677 -0.0443057 2.9041e-21)
(1.24565 -0.0268813 -8.04867e-21)
(1.24521 -0.0351364 4.27502e-21)
(1.24577 -0.0186299 -5.03477e-21)
(1.24383 -0.0269423 -3.174e-21)
(1.24961 -0.00885991 -3.20027e-21)
(-0.125761 0.216887 -3.29372e-19)
(-0.14141 0.240414 4.40776e-20)
(-0.0191253 0.177754 -3.44529e-19)
(-0.0466277 0.21265 2.41103e-21)
(0.154902 0.0991031 1.46937e-19)
(0.092628 0.156791 0)
(0.437421 -0.0231404 2.63749e-20)
(0.349002 0.0505335 1.49721e-19)
(0.783524 -0.155086 -1.39628e-19)
(0.732048 -0.0766591 -1.37538e-19)
(1.08235 -0.256447 -1.8906e-19)
(1.08801 -0.185557 0)
(1.26778 -0.306704 -3.94048e-19)
(1.3094 -0.256525 -1.28593e-20)
(1.34908 -0.312389 3.98801e-20)
(1.39769 -0.279996 -3.66111e-20)
(1.37244 -0.29642 1.25875e-19)
(1.41813 -0.272034 -4.19861e-21)
(1.36931 -0.26992 -7.03234e-20)
(1.41255 -0.255473 -8.93148e-21)
(1.35188 -0.239019 -3.55618e-20)
(1.38893 -0.229282 -5.77718e-20)
(1.33125 -0.208426 -3.62472e-20)
(1.36294 -0.201922 -3.59143e-20)
(1.31213 -0.180037 3.35051e-20)
(1.33917 -0.176098 4.87998e-20)
(1.2961 -0.154387 1.86987e-20)
(1.31901 -0.152589 -1.23138e-20)
(1.28341 -0.131476 -1.07644e-20)
(1.30264 -0.131487 -1.92764e-20)
(1.27375 -0.11119 1.94402e-20)
(1.28959 -0.112686 2.63529e-20)
(1.26654 -0.0934311 1.68455e-21)
(1.27922 -0.0960791 -6.0501e-21)
(1.26109 -0.077998 -1.17804e-20)
(1.27087 -0.0815659 -1.02268e-20)
(1.2565 -0.0643502 -4.63737e-24)
(1.2638 -0.0689026 -5.12104e-21)
(1.25195 -0.0525368 -3.3669e-22)
(1.25679 -0.0575726 3.73145e-21)
(1.2477 -0.0429192 4.3879e-21)
(1.25013 -0.0478663 2.32895e-21)
(1.24319 -0.0352188 4.05559e-21)
(1.24329 -0.0399654 6.33442e-21)
(1.23496 -0.0267184 -1.29107e-21)
(1.23553 -0.0312716 -7.24744e-21)
(1.22788 -0.0122943 -4.94299e-21)
(-0.0649219 0.236594 3.76417e-19)
(-0.0929574 0.257328 -2.68755e-19)
(0.0673791 0.197214 3.46528e-19)
(0.0214092 0.228849 4.25647e-19)
(0.288998 0.116165 0)
(0.193374 0.168109 -2.39946e-19)
(0.639918 0.00157038 0)
(0.53003 0.066932 1.47587e-19)
(1.01977 -0.114716 0)
(0.969307 -0.0394312 1.21388e-19)
(1.29489 -0.197792 1.71896e-19)
(1.30461 -0.128754 -1.1173e-19)
(1.42787 -0.237367 2.87119e-19)
(1.46557 -0.187316 1.91075e-20)
(1.46296 -0.241919 -8.99809e-20)
(1.50308 -0.208488 1.11996e-19)
(1.45802 -0.230742 -1.35442e-19)
(1.49577 -0.204921 -1.93282e-19)
(1.43424 -0.213809 9.14135e-21)
(1.46909 -0.19501 1.65826e-21)
(1.40218 -0.19127 -5.83389e-20)
(1.4316 -0.178069 -2.31979e-21)
(1.37239 -0.169097 4.83475e-20)
(1.39757 -0.159636 -6.48942e-20)
(1.34708 -0.148402 7.51544e-21)
(1.36867 -0.141681 1.57631e-19)
(1.32624 -0.129507 -4.65003e-20)
(1.34461 -0.124905 -9.11947e-20)
(1.30924 -0.112516 1.74785e-20)
(1.32474 -0.109559 2.49047e-20)
(1.2953 -0.0973831 2.39234e-21)
(1.30824 -0.0957204 -5.99305e-21)
(1.28366 -0.0840198 -1.68925e-20)
(1.29429 -0.0833747 -1.67709e-20)
(1.27354 -0.0722892 -3.60291e-21)
(1.2821 -0.0724487 0)
(1.26408 -0.0618366 -1.93682e-21)
(1.27094 -0.0627562 -3.62812e-21)
(1.25502 -0.0525232 5.12968e-21)
(1.2599 -0.0540984 2.45276e-21)
(1.2459 -0.0444995 3.96074e-21)
(1.24884 -0.0462498 -1.5882e-21)
(1.23472 -0.0369223 6.4023e-21)
(1.23637 -0.039056 8.41531e-21)
(1.21754 -0.0267929 -1.02643e-20)
(1.22209 -0.0292399 -8.67046e-21)
(1.20427 -0.00952511 -1.55288e-21)
(-0.00973215 0.250332 -2.36172e-19)
(-0.0501167 0.269594 1.39146e-19)
(0.150296 0.207365 -1.31453e-19)
(0.0818073 0.236319 8.8657e-20)
(0.433953 0.126716 -1.19939e-19)
(0.300955 0.170237 7.03399e-20)
(0.85229 0.0303649 2.69413e-19)
(0.735269 0.0891238 -6.35538e-20)
(1.23396 -0.0630052 -3.06279e-20)
(1.1938 0.00900435 -1.1892e-19)
(1.4558 -0.129772 -2.6634e-19)
(1.46944 -0.0633388 -1.93364e-19)
(1.5313 -0.162758 -1.57209e-19)
(1.56399 -0.11412 2.86714e-19)
(1.53292 -0.171796 0)
(1.5646 -0.135942 -2.35742e-20)
(1.50755 -0.167999 -5.83512e-20)
(1.53774 -0.140292 -9.20289e-20)
(1.46759 -0.15847 -7.16014e-21)
(1.49538 -0.137258 -5.56092e-20)
(1.42835 -0.145283 -8.26092e-21)
(1.45248 -0.129115 1.50588e-19)
(1.39481 -0.131484 3.71403e-20)
(1.41587 -0.118931 -3.25692e-20)