/*--------------------------------*- C++ -*----------------------------------*  =========                 |
  \      /  F ield         | OpenFOAM: The Open Source CFD Toolbox
   \    /   O peration     | Website:  https://openfoam.org
    \  /    A nd           | Version:  11
     \/     M anipulation  |
\*---------------------------------------------------------------------------*/
FoamFile
{
    format      ascii;
    class       volScalarField;
    object      U;
}
// * * * * * * * * * * * * * * * * * * * * * * * * * * * * * * * * * * * * * //

dimensions      [0 1 -1 0 0 0 0];

internalField   nonuniform List<scalar> 
2880
( 
0.06370630495120422
0.07403807717775701
0.07298264429391046
0.1385997464716082
0.18589224762077677
0.6145007919865181
0.06612813943866737
0.057255312038579864
0.10083529617998316
0.13903386208969468
0.2078245240449149
0.4273986535593056
0.06044486784570809
0.049994523168378796
0.09468468228590399
0.16369775606292872
0.227637720492183
0.3911928457970517
0.06490196420728342
0.05227120716058303
0.10939822499353588
0.14685383331670238
0.2229244068522704
0.36318881903737155
0.05687770064666332
0.07516600903040384
0.10457549948028569
0.15214522228142238
0.22383153738734582
0.3434103053113982
0.061459477512523744
0.08160022777040112
0.11678066406695797
0.15140977667187394
0.2124183609431843
0.32464291569808296
0.06728051733467047
0.06381535672337268
0.1202693129546002
0.15073001836490782
0.21577415422944146
0.30594632534224864
0.05352804661794108
0.09504933636950184
0.1135950237011509
0.1435117867363885
0.20577738876461546
0.2923795942956851
0.0669541006547997
0.07494287981067083
0.1080987418039924
0.13760600522529548
0.2025593189240868
0.26430293332070176
0.06521915143452356
0.09388264143410703
0.10900962578943996
0.1473973583655407
0.17722622004774302
0.25253878059645263
0.05253312623559883
0.08361808429202117
0.1084934438466729
0.14384307179302508
0.19035112855484332
0.25462809668475367
0.0396558543280075
0.08343122183568455
0.10118888564581463
0.13306259997835487
0.19720269597873596
0.2535306223604108
0.05489115352561963
0.07765601468451033
0.11376920423389458
0.13380607176159712
0.18591176691332245
0.2522057881353531
0.055454541570814864
0.100760752370272
0.10516322006608528
0.143333262013261
0.19651520720119095
0.25347756699087637
0.049090677128408367
0.08713423377667662
0.0985733691454514
0.15855891714665807
0.22023414073967473
0.27527419620741456
0.05963462039517062
0.08200560470011606
0.11975771244380934
0.1546850876224029
0.20301127592362989
0.2765544337844375
0.04939503622173286
0.07065610776810727
0.11593413276136358
0.1565018045554016
0.20425142821794293
0.2770012559694194
0.056295393559770396
0.08415020459960328
0.11792985237136233
0.15816088244678322
0.23123174805392366
0.3152844024605643
0.03225696507651693
0.08849466223080274
0.10158975116262392
0.17462203528765602
0.2225524354717799
0.3291946689250549
0.051282492470798455
0.07054480315607028
0.1034810955560993
0.15973076828197413
0.22201616220614687
0.321312962749505
0.05190914703114832
0.06978983962239334
0.10620475193730472
0.1569975057276171
0.2346132627314877
0.3449402416331454
0.044301789003224956
0.060408462087280096
0.12336617767918737
0.16111704026264745
0.22968177316250318
0.3404101897187335
0.04378933136357861
0.06133061662294695
0.11038021347179536
0.15501949546159197
0.21378245301260135
0.31851898803040474
0.04508372983348339
0.058195499987670526
0.1033060851756908
0.1522509339053646
0.2227829050511042
0.3685962632113707
1.0138566093117427
1.012010718898022
1.0496541866398477
1.0718224416119246
1.07623710326522
1.0750393015713946
1.0793461658249162
1.087473062309273
1.0907382683222064
1.0921278890740316
1.1000285563526004
1.0969182383444442
1.1048288585075892
1.098109101641836
1.104143910867256
1.0938231934821325
1.0912694956257791
1.0823832277413483
1.0712473927067294
1.0647773481475369
1.0553981622196953
1.0425814617975238
1.025391465804633
1.0067810202829726
0.8296402784858938
0.9281868508103231
0.9775445162617374
1.0181195598895894
1.0220910067333264
1.036027229960542
1.0487891577324149
1.0560484122322935
1.0679431137948983
1.0682673477465872
1.0810708080994067
1.0864793224877185
1.0824570254428976
1.0892115772600353
1.0876865698422011
1.0865442802749232
1.0847455474306236
1.0755271955579582
1.0665947800852857
1.0603945737230507
1.0547618915526507
1.0396641139927276
1.0228317244091485
1.0016358022303946
0.7012634689523521
0.8428258971544559
0.9015048911980972
0.9522138478606902
0.9779682710510311
1.004065432468879
1.0059119353217967
1.0319666977647743
1.0422699782178608
1.056078650149143
1.0554887540832791
1.0642688027296952
1.0757936113255466
1.0732320216644766
1.072936686344312
1.073613764064748
1.0699812030076616
1.0679728529215213
1.0599622420152666
1.0483850288712486
1.0456691998073548
1.0315839149664225
1.0177848161090435
1.0020232571169885
0.625373243598286
0.7635738061273302
0.8424399749926038
0.8897587125176871
0.9286462517566871
0.9522998311093968
0.981466263195449
0.9885478161742107
1.014004156785411
1.0376555264581437
1.0464874971547624
1.0513818909366865
1.0522460405275427
1.0556964586107922
1.0608855839749225
1.064359916805759
1.0666792377206569
1.0594688265838395
1.045993134390881
1.0416290184606536
1.0379264467418596
1.02672875720511
1.0159243436428784
1.002850965979507
0.5562421136519018
0.6802672475242211
0.771887352703911
0.8315303005698077
0.8863685665361717
0.9071576922495137
0.9519349897853724
0.975017737082344
0.9953880353417421
1.0173925034338758
1.0161926833458756
1.0339107498674938
1.0452975884821352
1.0460040457215392
1.0370391469800182
1.0504036343382697
1.048434902851097
1.0403655447554387
1.043797635761734
1.0372663007092555
1.0334006597441825
1.0235104107529658
1.0115931816196584
0.9999175024709193
0.49355641998353994
0.627741384031916
0.7179760455258388
0.7803827784308376
0.8402765280648209
0.8823732635362486
0.9135738386425659
0.9454645721241024
0.9763352813588653
0.9939687259378034
1.0044151910123977
1.019380827117253
1.0197146249856495
1.0308186328236313
1.0360202054878598
1.035639255697485
1.0358457315102676
1.0355684589156753
1.0298177635638446
1.0281260575333364
1.0219535261842847
1.021631649470959
1.0091277492883817
0.9989204837038872
0.4448332369765613
0.5802481146486345
0.6749400154519303
0.73668660603578
0.7915562060862644
0.8512237967184502
0.8902443178405753
0.9201200106532821
0.9498455680383633
0.9758729518194711
0.9898436424461119
1.0059235898407732
1.0125086615493184
1.016548062030402
1.0184975185610736
1.0244033444092537
1.0235238378277858
1.030164647954961
1.0287543027556372
1.0240968144604399
1.019956142734637
1.0161772822375668
1.006062094137717
0.9976646083995881
0.4140097791278027
0.527586544118628
0.6313090939529746
0.7185191111183236
0.7668110252112709
0.8220473003080665
0.8646452853414941
0.9141277537345299
0.9324845523891652
0.9570642184859152
0.9768202855873603
0.9929333882399505
0.9951008468111333
1.0049671816152612
1.0171453603979004
1.013628436845078
1.0139746321727898
1.0226474456380428
1.0155828800526383
1.014973659252209
1.018001178888247
1.0150901431608759
1.0055919557667126
0.9986373401387021
0.37564778891449424
0.4977537578345246
0.6062911214930826
0.6732858473730674
0.7511125504803714
0.8059257395959053
0.8554378830302269
0.8833077666459737
0.9227447594826584
0.9541655546227397
0.951137970257344
0.9753005485663935
0.9724817290067996
0.9967365354106734
1.003695943000646
1.0122799190629366
1.0110251978184979
1.0138890464377466
1.013478818599048
1.0125717159034744
1.0132333671165408
1.0110015877219598
1.0037772296193375
0.9992794802433911
0.3533425993699807
0.4637823142302746
0.5746199869011454
0.6556891529478003
0.720061855936088
0.7917167844713826
0.8339889516707085
0.8779909653002133
0.9057203254733649
0.9283430984375023
0.9567037039492172
0.9673822488597795
0.9777490802746238
0.9869317753948017
0.9922174459464536
0.9980222099482031
1.0074281954894628
1.0077649353981974
1.0109254256258422
1.0104102717337295
1.0093876948867175
1.0096651220275454
1.0052482484392649
1.0008329973611358
0.35070756799878444
0.4655616312664234
0.5624502561729462
0.6405503132001369
0.7312726603357214
0.7822071782225363
0.8329887880495885
0.8774099059638859
0.9084101128928346
0.9252433999659194
0.9310216833268247
0.9557151665064946
0.97160456312794
0.9756191715841704
0.9903117533668718
0.9979027709426018
0.9964860750102781
1.003227832497193
1.0036805284370098
1.0095914328261943
1.0074059171916157
1.0071324788638516
1.00540633577399
1.002368468258321
0.33534373834593534
0.4518182323176879
0.5566580341216807
0.6397965304351789
0.7225691300614974
0.7851186956692221
0.816153029619962
0.8621672458902536
0.9031293701918057
0.9051826583818097
0.9331257268840774
0.9503881415438818
0.9631815852735247
0.9695357770563452
0.9773522766639849
0.9863390447111339
0.9967560748237279
0.9962608295626811
1.0035660928509018
1.0016821725680232
1.0072509019342828
1.0076202988843228
1.008204779772685
1.0046670687143755
0.34946380617663164
0.47181689793657733
0.569349605537721
0.6587668649149546
0.7216932948371659
0.7888889827927468
0.8040387934051194
0.8597227635960355
0.8967506611391302
0.9120420421075971
0.9358228381679792
0.9442246867444454
0.9591368812281416
0.9755440330105982
0.9798744445205589
0.986081802143849
0.9913906311807826
0.9960636195157222
1.001996470845133
1.007538803468626
1.0079828684482621
1.0100993414650508
1.0076882123731412
1.007583386493027
0.35303224542979295
0.4675177819704379
0.5713776070024952
0.6625610916207826
0.7224077872876997
0.7915461070241752
0.8278878993109511
0.866462550897865
0.8784490729356828
0.9206139732525598
0.9301966763874653
0.9402336584887014
0.9563454902437933
0.969134552200049
0.9670187859533127
0.9804874442358179
0.9907042756759465
0.9940874360918542
0.9996138938279228
1.0063913963853326
1.0073246246724594
1.0083185822148164
1.0105782967476342
1.0079219008267153
0.37957011838782273
0.47830576109820666
0.6020302005087838
0.6792642068251
0.7561773898849852
0.8015135724670457
0.8389974604610314
0.8626866032040809
0.8931666506690223
0.9113122377521707
0.9181956809482343
0.9373135021033112
0.9527713093926173
0.9730491100772771
0.9713509697750469
0.9809327158476545
0.9906460477591733
0.9962565912706811
0.9994567736008722
1.0040058505842475
1.0102433342116168
1.010026371727471
1.0099410829081106
1.0095037066269228
0.38481398179730864
0.5049834912457918
0.6144857300670349
0.7001344206316573
0.7458232467792496
0.8078049909352201
0.8555459004239807
0.8693961728097404
0.9058341163372615
0.9113529155475044
0.930975764232536
0.9420197102358728
0.9548941783116842
0.9778461103886509
0.9791093549083394
0.9843667969388195
0.9970174373607914
1.0000114382726155
1.0082789634086544
1.0118568247018942
1.0121146118973332
1.0156701226598974
1.010608954799471
1.0105183275693357
0.42351028268618063
0.5356063222013332
0.6528793679327004
0.7282702800405338
0.7685007103930437
0.814325976655794
0.8510650074577407
0.8759079065652593
0.9022285614702699
0.9228981574632401
0.9346956121737191
0.9473389973501738
0.9609926625466578
0.9688543557773419
0.9740733904409822
0.9910168741835083
1.0013174429238816
0.9994908884334269
1.0022416340416196
1.0138720391855045
1.0161277865040124
1.0148284691061402
1.0169213669694939
1.0129748109850363
0.4456396874761908
0.5647282175299172
0.6837675223858635
0.7511483815257534
0.8063722970977464
0.8357547288539483
0.8699024622962284
0.8997981800159004
0.9178307329035325
0.9240846923898277
0.9415576437429347
0.9549138403540793
0.9663409031153923
0.9810968837742532
0.9926293848514184
0.9943449988794547
1.0033417770129267
0.9975611409010108
1.003468273389271
1.0155634328802847
1.0083728669421494
1.0119646424119464
1.0142922844912876
1.0127596325407038
0.46878113523774023
0.631274286419704
0.7399967282424277
0.7922147286065682
0.8376233488718207
0.8626725522141989
0.8861661536196681
0.9096634695545327
0.9230799730795614
0.9402556332329054
0.9388169432942188
0.9633487245157498
0.9803071571259329
0.9831390385525695
0.9940710638680105
0.9976667963562255
1.0057860964891512
1.0046317414483972
1.0124444745247823
1.0190103949266545
1.0129024641837132
1.0156016616807144
1.0151351533907869
1.0103928488063303
0.5240382289965603
0.6709861664291373
0.7708064398464525
0.8114295103135903
0.8487389479228485
0.8952356324354742
0.9070818988449346
0.9261620050179953
0.9358761314442358
0.9544768679322138
0.9651086004689453
0.977668363186425
0.9798600145153399
0.9915138454294647
0.9937312993196584
1.0037048364810526
1.0075227686697141
1.0111006272689789
1.015553106585237
1.0109557228378185
1.0180096625319242
1.0116814660624112
1.0126672063102993
1.0076989848836118
0.5785373136013046
0.7454531397339642
0.8236219556121079
0.8609485852525651
0.8940116311896557
0.9092308309643148
0.931560455142656
0.9313074523656615
0.9526205614027027
0.9655975741828172
0.9758910721831218
0.9787941488135268
0.9909786847734989
1.002927489659544
1.0043649847957703
1.0084190496010759
1.0167318927234699
1.0169069849578056
1.0211803118123428
1.0213948616287105
1.0181475443977464
1.0159846745463066
1.0094449322285755
1.0069047304903413
0.667763114227518
0.8194468808344528
0.8677494714719189
0.8997067370492959
0.9175417041160564
0.9196505583551782
0.9521817407434143
0.9617775364029192
0.9698852211933753
0.9788535502070687
0.9831618882033686
1.0018291705855142
0.9994518321782456
1.0093150512736928
1.0190480750696698
1.019497091397421
1.023678583327617
1.0191030033584825
1.0155329991642557
1.0192777711247647
1.0163772582472
1.0174598412612545
1.0086451747977663
1.0023280866958673
0.7424823784797051
0.8740929436918181
0.9352583005478166
0.9305063130111045
0.9399777425525646
0.9597187837516811
0.9547240045663311
0.9837448852881452
0.9924056898834049
0.9876212656420602
1.0102272316947856
1.0113107853395302
1.0135433072610658
1.0130669724969856
1.0142186297808522
1.0226765862540517
1.0295416966722584
1.0264563895886702
1.0179823519723337
1.0271976746935072
1.0219985766278663
1.0106668379202102
1.008959224778861
1.0028716358612138
0.9117196246945465
0.9670096183682549
1.0024387896882943
0.9722545535945735
0.978272934751203
0.9762030273647891
0.9684322998958577
0.9825295797781758
1.0117421957485249
1.0121911923456821
1.0144947821235624
1.0258570363506483
1.034004356329359
1.0264132980582357
1.0317026380358933
1.034379802692797
1.0355577373988925
1.0276832134890295
1.0248809938946017
1.0262314157521648
1.0184096111594194
1.0165698830562198
1.0103690218442605
1.0008670946750886
0.12778915929136478
0.2493000580488649
0.3110653895753627
0.31800122772254263
0.43865403827321203
0.48426187040298235
0.16440379759486712
0.26492665210303523
0.33119352454972634
0.33121961471024874
0.4081129248405202
0.527778604646368
0.18200891350454207
0.2605790318998066
0.3229078193149878
0.33637150702643903
0.4245511212091825
0.6261043256486818
0.1942737757775914
0.2607025403665546
0.3258674963395948
0.3409982310072238
0.47197643065926587
0.7134748271364026
0.2129215198418351
0.25759461546883394
0.30296945442087264
0.3457871494186165
0.5199685592905191
0.7825055958944912
0.22378104442968055
0.2452804772768041
0.29164591228173903
0.3625529050657823
0.5570444402375974
0.8133005257025256
0.2247091316753712
0.23948201434711266
0.2841374501839795
0.3785431523693523
0.5958042359410346
0.8455658271359803
0.2442273765052798
0.2498964648599057
0.27656402034115357
0.3902843773479098
0.6018031656279453
0.8715791462144302
0.2641578542169174
0.2519848180326815
0.28904037751985606
0.3958030775374635
0.6428448420398928
0.8680581556536309
0.2724276621239642
0.2588373511442287
0.2845136417691879
0.4058625556758702
0.6199281160935155
0.8762333227099148
0.2775235847235152
0.2607217866601728
0.28892382916010484
0.3840391962880999
0.6213864850403638
0.8578277288034053
0.276751787769481
0.2597786519580385
0.2976016832843705
0.3976963446123306
0.6419931992007767
0.8228052701422726
0.2784641514110568
0.2581257395760473
0.29694273181512426
0.44040608882519716
0.6220206394924244
0.8127067409614126
0.28279016308824656
0.2683433784201983
0.30764572320044953
0.41426372045584414
0.612398838841242
0.8245008717497078
0.2669346181369293
0.26511207490970273
0.31454434450993213
0.4285872608346545
0.6226092754034791
0.8255158156995807
0.2556551428370495
0.27412051057498465
0.3233801344590945
0.42542351439633536
0.6404117875646644
0.7451871023595404
0.2480661774945251
0.2775988137327635
0.3229895710417344
0.44516056681503097
0.6025118799449997
0.7371485527415919
0.23053441457226478
0.2763942900456829
0.3317936475152452
0.419273646941444
0.5606949842860436
0.7520109155913853
0.21671503096317252
0.277873058590588
0.3362148110440305
0.42233068199168944
0.5521747752517746
0.713080001148545
0.1980033071130618
0.27907089086610815
0.3350602389930074
0.424788050519022
0.5479065428934715
0.6970230204087136
0.18329895811882765
0.274010828014167
0.3437092029776259
0.40530121493881544
0.5035706722270736
0.6686763113917176
0.16369194263117692
0.2739715131312727
0.3477676582734588
0.3981255239551967
0.5050252258514726
0.6041523348858843
0.14333686871495255
0.2622362633512696
0.33328287387583316
0.39227816795844506
0.47302851655013434
0.5836849265688115
0.09570867951954973
0.2291219316324497
0.3235171399657475
0.37104612773583073
0.4420882657203876
0.5588863245451878
1.0182024361364144
1.0714166662989335
1.0331500588803504
1.0077910548990396
1.015373231723181
0.984329874334855
1.002162313316197
1.0148494077354144
1.024979172869743
1.009625899062016
1.0322553749624885
1.041366631980468
1.0351778218284717
1.0382055539557533
1.040697704851264
1.036621358480558
1.0382316643881682
1.032538247482748
1.0280014607623278
1.0303983352759527
1.0295669283008795
1.0155689356427249
1.003272655032211
0.9986050263465858
1.0691948499351949
1.1242990780619744
1.0736276280687291
1.05971870615312
1.0399267046495222
1.007953945410978
1.0438872518059161
1.031696183210847
1.0313591954930579
1.0506545189723726
1.0399370438944229
1.0414271710199157
1.0461168863745396
1.043440509232138
1.0491771973643182
1.0443997326476324
1.0394836101101974
1.037936000306284
1.035049432394428
1.0271720675114728
1.0271371154436286
1.021007184121671
1.0053485915358618
0.99302533112324
1.1185894376321626
1.1677705447029987
1.1250520144749452
1.0853596382362927
1.042293808034869
1.053587246583069
1.0560120503906152
1.0476584376046874
1.0403397154307685
1.0401361653013914
1.0527252240876555
1.0393952069063628
1.0585925231913158
1.061803378846055
1.054436456749417
1.0539191283412868
1.0381735832695627
1.0344452910066426
1.0374109825586348
1.0269175550009428
1.021327177758224
1.0159382659613236
1.006326298639903
0.9946047901429917
1.1545166488640637
1.1846202803176504
1.1654429331142215
1.1323531905711122
1.0461372503246977
1.0466635878325763
1.0677438144339162
1.061503417223055
1.0518187180799723
1.0598216000337932
1.080403332433568
1.070819468334041
1.0626097640607004
1.0712614002470886
1.0534312145408677
1.0601074000645079
1.04917319091473
1.0436596402323624
1.0365168657125108
1.0298748664346447
1.0242156198243801
1.013403949204926
1.0039078319837569
0.9915040645953658
1.1044738156119092
1.2056483224768189
1.1957580162115087
1.1421518405852997
1.083792098598852
1.0662483634928268
1.071876139510095
1.074765298703217
1.0552673831941994
1.081949060386637
1.0694501098855447
1.0721703398659428
1.067247589553577
1.0717050675280344
1.068605384235938
1.0664188779580925
1.057907844695225
1.041633084519773
1.0328997453506779
1.0326781560786966
1.0243585822742238
1.0189872063308547
1.0032253636937036
0.9894678386565066
1.152629596527858
1.2310253120149446
1.2031171819040143
1.1492084161407365
1.149790481069777
1.0882471652718133
1.0671096981785493
1.0705480432006673
1.0891151774841183
1.061104387431779
1.0802870322822449
1.0722489079805035
1.0848080842194467
1.0651814087953715
1.0642862082309437
1.0682809666752204
1.052962194244912
1.053110617905549
1.0461820149798664
1.0340918561675336
1.026252184396208
1.014338683154405
1.001102052773389
0.9898341272063792
1.1936635312494497
1.2839564902514617
1.223210413672101
1.2023899559599025
1.1367198728139198
1.1070233219769756
1.0588490695526311
1.0631514887020206
1.0798578357686366
1.0850971768517634
1.088753879607901
1.0715482217232961
1.0845516735588636
1.0775096114671794
1.0678819875327066
1.0706504570379218
1.0477086140215028
1.0566428932955239
1.0484570176818118
1.0334058871830656
1.0210654780227797
1.0161176508738476
1.0003705650861632
0.9849483478968377
1.0953533263857582
1.3143444020685349
1.2333480734325095
1.1872813866862002
1.1665988912179641
1.1322948493197365
1.1014018297528587
1.08786573188358
1.0832711664675654
1.0963310535887174
1.093944284047401
1.0812331127258892
1.0793047039859416
1.082135372531612
1.0844010958890824
1.0773334891742645
1.055704828233126
1.056989532598271
1.0451044205233866
1.043096978648016
1.0311976441122312
1.0206174334261109
1.0035675169976068
0.9860479106688045
1.1382695602071482
1.3165081019680431
1.246583308125473
1.2596033875872426
1.178702660469387
1.134697126285248
1.124320863999876
1.113187457176282
1.1017235942835004
1.1167242215260493
1.1008842660458795
1.0701655233691463
1.08996022225051
1.0887874672417102
1.0691119541767982
1.0708562286766534
1.0644358309829165
1.0485383183826664
1.0569315647480662
1.0426869869720725
1.0372739389230754
1.016049937078084
1.0061084563066482
0.9846221061069278
1.13076264699328
1.2538650881262394
1.2896184643223045
1.2274208513501979
1.2275629578913696
1.1266502540566212
1.142787848177821
1.136308714370282
1.1039379393532212
1.1036397390064097
1.1033356377837076
1.0912055088243335
1.108096005084793
1.083427285058085
1.086268599591141
1.0736678521387335
1.080789240814578
1.060333608402941
1.0565700967223457
1.045455065322174
1.033502071172811
1.0259485193692335
1.0081736493680995
0.987811237230749
1.0935755077364857
1.2627666529358947
1.2892634979907558
1.2869201435475872
1.2367773152980184
1.1882101328742682
1.1853533276707353
1.1550488693353869
1.1538281036090499
1.130112394064146
1.0957341012930273
1.0895432484078038
1.1077962771878198
1.0927089935029537
1.0863228314827107
1.0879121237519402
1.0754857756161182
1.0660955549662487
1.0584591654669346
1.044607757631656
1.0395091909398138
1.0237345104657485
1.0098070476014607
0.9893094543254789
1.0547323512962943
1.2561629148576863
1.3060635268880978
1.326094090149931
1.2625022810674718
1.2317310759109619
1.1985997942594395
1.1717624039250123
1.1413204196124016
1.1274542283233284
1.130972287155652
1.1067190009551546
1.0879618098364974
1.0796438775676336
1.090689470051267
1.0934131362695807
1.085567147579184
1.0672731413036913
1.0486443277336326
1.047770672069095
1.0411038230210676
1.0319449103900993
1.0072714993136298
0.9926888970113498
1.0593439767353112
1.2342493414832612
1.2903603014999105
1.3532045917018354
1.3367615698030244
1.2592537130851418
1.2362902767031285
1.1889308475986866
1.177952331133873
1.1507805863639111
1.1310495973757277
1.1251476941046445
1.1286531700122957
1.1235441882773702
1.0880551668433556
1.0978546428751272
1.0931999092303
1.0744620395505662
1.055419727513267
1.064382948705492
1.0489546892405472
1.032566922549779
1.0126997375366458
0.9950072762356723
1.0283911060708752
1.2595122377178218
1.3129170724384536
1.3944464519046553
1.3535341723751133
1.3043372251707188
1.2643285905514214
1.2309325865677607
1.2036891026780423
1.1739591193594103
1.14268664809227
1.13273053817797
1.1362330499742777
1.1158938043849636
1.1155993494737009
1.094104794283562
1.0968729875435361
1.0887111965889524
1.0735056182156422
1.0553992262586989
1.0515319490445565
1.03738016512152
1.0219955845713478
1.0023227935636496
0.9998660936632494
1.2447262625024407
1.2986657437759055
1.409459802844889
1.336695167308679
1.305319210300051
1.2818030449499638
1.261189871822674
1.228617085865856
1.2077498019781585
1.1776235084365847
1.1407619548459584
1.1641658279898868
1.1413908746561094
1.1276705000614813
1.118735194569354
1.1135210644273001
1.0932402132904284
1.083626961777522
1.0754525839863405
1.060057463178779
1.0538324701668944
1.0286692342142743
1.0076515904325132
1.0020163930763613
1.1537010783137422
1.349384156961549
1.4479912582557897
1.4009756558156563
1.3798416394357012
1.3172885287615161
1.300373236527709
1.2610106112966692
1.2270812016139732
1.216726273373711
1.1838201088613483
1.1569527489373126
1.1626470237790176
1.1439909184853159
1.1442060544551764
1.1206555833399348
1.1131522003391363
1.1057597602235645
1.0877465741880237
1.0727069131368778
1.0573508303891537
1.0385613328845655
1.0098919798573391
0.996921512453377
1.1247199372871917
1.288039805952741
1.3743925543747513
1.3986083394623625
1.425425643743266
1.3563182450737798
1.312383059445493
1.3247455534160784
1.2828321761966626
1.2399464870040025
1.2326539199962272
1.2109360658793076
1.1880890986745183
1.16905429645792
1.145996960424588
1.143841826125113
1.1388561188286062
1.1183936647477561
1.1010524255960763
1.0887903905979261
1.0721990029739417
1.0432264763236265
1.023206731104724
0.9338185464835673
1.0677674425287476
1.2455816611740702
1.3471072778987767
1.3872007490216771
1.4234943853606303
1.40948375514418
1.3561680843725763
1.3235144279398434
1.3001763051566397
1.2908976556110274
1.2564576565244838
1.247416339953712
1.2166823288726676
1.2137919612159123
1.1921606842825763
1.1537488752272915
1.1595755706949364
1.1372334116851732
1.125949539609782
1.1121197319299434
1.081392300202742
1.0500495679263833
1.0323510874843285
0.9011042669819607
1.1060487968585788
1.2165407872003127
1.3288078427099634
1.3691243445958332
1.40866456359502
1.4219706822654465
1.4010855755688678
1.3785372822856752
1.3517109205445754
1.3135589550575761
1.293251133385266
1.2867067183344951
1.265410495469471
1.2481904855474009
1.2228068052640657
1.2146639075445245
1.1893344547361127
1.1705978862631536
1.1528573984821016
1.1378647143209668
1.111849346023771
1.0849846157443002
1.0502341522342065
0.8925531323155351
1.072085832226367
1.2203111942105718
1.270439563630596
1.3682720935843427
1.4032254412838217
1.3841628791825134
1.4085706148488666
1.3948005358210158
1.3691323015254036
1.3691446276826995
1.3681188867578897
1.3360436763808785
1.3116956310037966
1.2770259703803466
1.2656072418226496
1.2478185652376728
1.2148167184398668
1.2044597263234686
1.1875879913097784
1.165930887797655
1.1301040893129903
1.1092189799505823
1.071900493173546
0.8678401596665143
1.0422783070824184
1.141312579036577
1.224529284374288
1.3569293963728393
1.3845753927097622
1.3877286573540384
1.4331314558055366
1.393448747995586
1.411202471223156
1.4067275345219024
1.3760008131245547
1.361812174094232
1.3582637371275994
1.3328679114500266
1.3075243534988088
1.2969481472450721
1.2650977074213383
1.2531803563914714
1.2196770659758758
1.2003212460624826
1.1682938039128874
1.1410971731201973
1.1012886436040985
0.8369784670877889
1.0029505923136506
1.1576783000661346
1.2313844005837047
1.3071584172276243
1.388594926763353
1.3541547629565611
1.4075852590422697
1.4191762713494407
1.3994135025461711
1.422515924796461
1.4431450841099192
1.4077687658294868
1.403949394690318
1.35683032287162
1.345494445996101
1.344035415552356
1.3005739380872319
1.294123370268439
1.264923540904543
1.250371063431736
1.2115130175582238
1.180813244565789
1.1536404009251855
0.8129122411720601
0.9902383605260326
1.1363324127010324
1.1903874054544097
1.2863484421735196
1.3583552886914287
1.4098441977122258
1.3866139144748453
1.414941832492637
1.4412941821788823
1.4165240938687527
1.4406672471237176
1.4229459677314458
1.412383579100383
1.4107340978834695
1.3816289054636122
1.3632109020113061
1.3392226415577813
1.326700384998623
1.3239782659222232
1.283626074317685
1.2832225394121708
1.2304871683939484
1.180339249596424
0.800721992447034
0.992145109936651
1.0969854634252598
1.160857202803606
1.262341099363832
1.316368117508342
1.3657762896904546
1.3797703916492743
1.429819134668129
1.412105281063237
1.4469708943034272
1.5010684378022754
1.4578587048458145
1.4678647681618868
1.4845074875007895
1.415230948012932
1.422368653860282
1.3932065631484802
1.3580565268617546
1.355764624357231
1.3349871696986328
1.3063618200230314
1.2806009335731636
1.2330059457889488
0.05011348150990839
0.07175605002684567
0.10993971172955247
0.15467497860251284
0.2278798577151244
0.28934495826472895
0.04469961352087737
0.06545323628782826
0.11598689378505339
0.15929330945172546
0.2262988731765784
0.26833723563064615
0.05084346838132285
0.07490624217756238
0.12502865075377573
0.16055383992744185
0.19792218557100813
0.24816862768826287
0.051363229583282044
0.06891685211824702
0.11621190537065618
0.14282155853987655
0.18920000519408575
0.2137411328734807
0.05227148900287647
0.06786556238817895
0.10178436135910002
0.14108118829076272
0.16323980728065138
0.19248774029639457
0.0466703088526028
0.07595672822870358
0.10579863925925267
0.11873016793344932
0.13558186491404892
0.17992417301969377
0.056011251629047396
0.07604104858297833
0.08813066781910145
0.11665957294318952
0.11811066699499945
0.13600000396928774
0.05669272228179503
0.06007173211030911
0.07683365238226736
0.09747350680369468
0.0968364728663042
0.11186630709791662
0.048347865052558725
0.08065718529291563
0.07065210190139462
0.08713353404338248
0.09054290625428124
0.06149226289592713
0.050462221620828335
0.06047656099008672
0.06236854990288246
0.05293247954438707
0.09388183328029825
0.1136745812017263
0.059636105401844774
0.057573483719211865
0.06337321595866127
0.09959291099771525
0.08185587587527476
0.10844973863268542
0.05578230000687509
0.07530904506876682
0.06405889283763122
0.06851787944956914
0.08386802156165984
0.1449381181691793
0.04884017279852271
0.05490692987480281
0.07071044479310201
0.09043708481183474
0.1227671417451843
0.14511564053264975
0.05972550066812923
0.08115912840666017
0.0753356306307579
0.09286343693227417
0.12208022670513402
0.19842017609851084
0.05930305310486869
0.05445390307955594
0.07914483941857905
0.08476824821755446
0.12341976443515329
0.16530918794346822
0.05522414852872368
0.06743043283334874
0.08941988254190808
0.11139090800834847
0.1515486965872353
0.18574407522971403
0.053111872156763495
0.08363044126479849
0.08627091974684509
0.13188893599811474
0.16610684651893506
0.19883683519300321
0.052051541134330526
0.08202025941891583