/*--------------------------------*- C++ -*----------------------------------*  =========                 |
  \      /  F ield         | OpenFOAM: The Open Source CFD Toolbox
   \    /   O peration     | Website:  https://openfoam.org
    \  /    A nd           | Version:  11
     \/     M anipulation  |
\*---------------------------------------------------------------------------*/
FoamFile
{
    format      ascii;
    class       volScalarField;
    object      U;
}
// * * * * * * * * * * * * * * * * * * * * * * * * * * * * * * * * * * * * * //

dimensions      [0 1 -1 0 0 0 0];

internalField   nonuniform List<scalar> 
2880
( 
0.06180101951542942
0.1661866221202218
0.2718690019529146
0.3258161901732415
0.3493909994916193
0.3855049425319924
0.11206740291652267
0.22013574235910333
0.2934213582562119
0.3387412412596515
0.36057059782584416
0.36635162583797704
0.13198725642336306
0.2413988122923114
0.3026610952787265
0.33067308365730336
0.3500228451534154
0.3657802386815337
0.15420872045410086
0.25339543183033153
0.30123605983931817
0.3254689917797564
0.34234577916708286
0.3414737065373199
0.17587419448642702
0.2568691858353501
0.30556901485459875
0.32118168560454097
0.33673519151752945
0.34488669588865706
0.1984646983384181
0.2703823488157007
0.3057589576758351
0.3250970153785416
0.3184443258744385
0.34123944863128464
0.21556394842398374
0.2804105604755013
0.30797475270283603
0.3150739946762869
0.32703644632340173
0.34446890112648737
0.2340982953262152
0.2828649186950903
0.3116587165571415
0.31772854717585297
0.3424078801071048
0.34494853644476375
0.2503126593591576
0.2852849708506422
0.3028403718912349
0.3178290142653468
0.3316644311068573
0.33890794321930046
0.25354962087491156
0.2877780190803612
0.3099940368804758
0.3231743743213885
0.3264082899604189
0.3336682260698345
0.26334208071289755
0.2915718202961898
0.31911474011670954
0.3148413487234534
0.3462838022903262
0.33371819859720864
0.2628709755936413
0.29187961414910746
0.316589584785506
0.32207150980477867
0.3152744434231571
0.34299713684806604
0.2702736481787419
0.2994056118420463
0.32222593457002036
0.3286660414864461
0.33407498741137087
0.3205192886966508
0.2565035768155155
0.2859324994084141
0.3230839269799106
0.32666963781863706
0.33156839430882035
0.31526958601018945
0.25682665008652944
0.2958336250523862
0.3209952057986898
0.33553496247325765
0.33577285404240553
0.3069824573851926
0.247144174694074
0.28142569829230274
0.32435097663625906
0.34018942610115355
0.33724740931497865
0.3187084018536227
0.2397174434881844
0.28446825284254584
0.32586225940477553
0.35125368126534173
0.3433826847840357
0.3237777773445451
0.23513048477536774
0.2756371087418091
0.3320281709066401
0.35049153910800795
0.348149299719005
0.33795659963893554
0.2195103587680448
0.26666623683294777
0.32786333131770756
0.3624023777183112
0.36254081630053997
0.3366287906396427
0.19861028625010338
0.2602213385467822
0.3261579138744965
0.3627655920036838
0.3709754878157367
0.3416179506988525
0.17299792310643353
0.2510761205324429
0.32286198655837023
0.36681478147601193
0.39210155366881927
0.34834130240759814
0.15009214498809945
0.22655616684120625
0.30710668440725886
0.35942778583969287
0.4154488238410131
0.3663002456925325
0.1269116196003972
0.20183236588974157
0.3042272385521553
0.35427704622089634
0.4489584819725835
0.38918614957749603
0.07218242441220049
0.15093413522068905
0.2598388765118368
0.3028143768768683
0.45419806992442624
0.3549090767648536
0.43761397086896353
0.384655670811326
0.36549195832395975
0.3506063918299107
0.36867209360492126
0.3431329648656134
0.36785009063462115
0.3904710318468011
0.39438917839624965
0.4019943501816503
0.3982333922438007
0.44384732583988484
0.4552368680538452
0.5022507449976888
0.5263765098075847
0.5516199193818486
0.5893174688875276
0.632448744964438
0.6587975424842376
0.6989854193072909
0.7060692941245275
0.7073432568774172
0.7450108546055494
0.7732263403888544
0.4368883120392388
0.41733066260386525
0.3653844051283087
0.33111645918591237
0.35169653298060544
0.3282991903374074
0.31833101413142084
0.3528055817657071
0.3255007183628197
0.3775964778986387
0.387912664886811
0.3899693758066686
0.41582047187147
0.4793364367847043
0.49971818796612066
0.5059705482371863
0.5548419742908389
0.5771090924520198
0.6107844537756097
0.5973375310971225
0.6466457885094411
0.6536119248587277
0.6690702859698998
0.715462399111648
0.4349324812644595
0.43029868417998085
0.389605449706113
0.3603364854406693
0.3367930759248078
0.3149122711389014
0.2956943613429359
0.30860035939262864
0.28517240248399645
0.30248240265129656
0.35038209941852916
0.3757499749236759
0.4051751715627816
0.43747138974651956
0.45410698170903085
0.4659439673641469
0.5122273632685678
0.5498058723647841
0.5618093640044644
0.5891284433044313
0.5694644780028584
0.6319508027863259
0.6229791388654824
0.6445106291493098
0.4286707632747459
0.45184226749847345
0.42156460635161064
0.3456198340748098
0.3357085579439436
0.2927556424013754
0.27268446388664014
0.304474452892052
0.3178968599683675
0.3064231697308333
0.35388132553811813
0.38225076433615046
0.3852672640964534
0.41530400866797923
0.44536308625738197
0.46146450833638686
0.49441376122162317
0.5288514001813018
0.5374205113423035
0.5552620064860923
0.5496041632450241
0.5729298412351483
0.583605968252936
0.595499340915552
0.41995866470267396
0.4579229735904738
0.4110750540228243
0.39531071882368035
0.3214387622545313
0.2803248110752904
0.27109583386146596
0.28603560899768365
0.3346013671684367
0.3543952404177988
0.38150217292899014
0.40872078358397157
0.42927691605073925
0.4536499392137673
0.4598522721074946
0.4876850681616056
0.5051285435902827
0.5062739639610652
0.5174644862289691
0.5535693893610464
0.5675964358887302
0.563850865657747
0.5633945600166508
0.5894320070203984
0.3877864420331902
0.4301742473607543
0.4249902419857133
0.3820482250276415
0.3182276350669939
0.2983808705883587
0.3278580476564992
0.3729471651346542
0.3962493239931255
0.4135013185695605
0.45853420373568454
0.4810104385029771
0.47107232295144486
0.4972688327737368
0.49150124560837183
0.5155084124156659
0.5127744945015908
0.540394706866881
0.541130156550066
0.5527129033653047
0.5616640139341342
0.5801043835010347
0.5850237862465997
0.6069751311029585
0.38220438660179923
0.39060921964982476
0.41083455775581823
0.3767866985788306
0.32075855435804346
0.3227130346784155
0.41766763231986437
0.4519684636549056
0.5112477454397323
0.5346591222946419
0.5545489679996293
0.5622992365820175
0.5649681088378508
0.56507678201095
0.5807136308510892
0.5696270230108228
0.5834364780468615
0.596921385681175
0.5902493093386745
0.6133766437627417
0.614754306106237
0.6172031149634092
0.6332312587195332
0.6395595786283879
0.39076686488111145
0.37772627385447216
0.387604146420106
0.35827069681161233
0.37935731361288333
0.4218267426308364
0.4705094712254304
0.5972223665800777
0.6596374584541331
0.663681913116167
0.641816351965979
0.6721654979158072
0.6752967482029035
0.6701982228621797
0.6650178803101758
0.6665122722232772
0.6658517697659571
0.6694188861439274
0.6622142178501731
0.6857591713372657
0.6806118303581932
0.6781455921107031
0.6970757716015186
0.7048376914725623
0.36049895189449077
0.3830055663153458
0.3503074892664269
0.3697607796343399
0.43109899540189817
0.5234955854299383
0.6386973613901716
0.6996379378041897
0.7640160118132062
0.788479798575961
0.7726210203174384
0.7930112467346362
0.8094298412653642
0.7859216206707389
0.7705457562453966
0.7620036729910513
0.7878122566777026
0.765285244332378
0.7590545117293581
0.7611929745210466
0.7730498381436007
0.7716948812457947
0.7851380262469045
0.7970783856259168
0.3442757861149286
0.35494444107035195
0.36483260165834047
0.3870646379242415
0.4974648531329276
0.6353583956872759
0.7570800933890944
0.8515943829928279
0.9076230491009093
0.9430537576598403
0.9411905804028253
0.9078823108977878
0.9459008674286794
0.9328022343784503
0.8957216432630347
0.8668702988436134
0.903110791860165
0.876678565567336
0.881286650459286
0.8927523026830534
0.8755039368522798
0.8992542311534026
0.88851062200848
0.9020001594062398
0.32625406105611865
0.31602928477934333
0.3210306858164889
0.4146890266336375
0.5816055561454379
0.7670276108321075
0.9214103288965197
0.9867042615849803
0.9921520995442872
1.0505739885502252
1.0540395120030874
1.0204231104950314
0.9969897357598876
1.0258558815175154
1.0388983608256865
1.050149152379737
1.0058891329626503
1.001099796970938
0.9932343547186242
1.0008746288980777
1.0307205045057333
0.9996325598790159
1.022586497440302
1.0242334632765735
0.3012074981987866
0.29236274766333936
0.32124648923682736
0.5152465418452358
0.6993883039582064
0.8978854094231876
1.021627483655308
1.0723891098846778
1.1248330755518035
1.1489022716441981
1.1031991261800993
1.1584977193957062
1.1440754014012262
1.1960683975974156
1.148847861129575
1.151645619133805
1.1436833664849817
1.1307740068993515
1.139719122882098
1.1564656454302686
1.1425303808961653
1.1252909480387714
1.1232030561453252
1.1266522687232368
0.3102191163747078
0.2768554457780124
0.3510682086674634
0.5860399162032357
0.838064671005903
1.0181296213212574
1.1392992323128266
1.176829843357466
1.2016349583465584
1.2200394286836955
1.2502708925269874
1.227798514026581
1.2335316652640227
1.2517151317002002
1.1929984199863701
1.2150133673323267
1.2601391991835398
1.2359844244549796
1.2542079275396922
1.2432833207602607
1.226368648081284
1.2382163634496457
1.233225993537746
1.2386787288919088
0.29303669376925073
0.2975575923330377
0.40902940067025856
0.7027417677167545
0.989137683331153
1.105825042873092
1.1945949000600713
1.2378868291222083
1.2255112223857834
1.277545201028959
1.2593591833854334
1.285337509521258
1.2367269533919458
1.3256405884601499
1.3149806049511046
1.3241302611854664
1.3173717163918575
1.3673801347591736
1.3152683656622361
1.3402751102386425
1.333674842973624
1.3119905405863561
1.2922082348880486
1.2908325126989482
0.288472767549289
0.3014931643889606
0.5059641132641517
0.8448938071049182
1.0988667749549126
1.2134983515383384
1.2841754948470423
1.2577342156098856
1.3050196680549753
1.3043046442272546
1.3277921797730203
1.3280233820331697
1.344413560315189
1.321497392278402
1.4039726765710283
1.3682824987742048
1.389284793386587
1.3824067641174795
1.3961380891051398
1.3964924590923722
1.3633580991635508
1.3457360756731411
1.349812467000406
1.344053088924244
0.2959928123688126
0.3297835533358343
0.6565874971686387
1.0163934479962038
1.1886772621988206
1.3061586619793983
1.3035446753807092
1.324702739846092
1.3491861645701233
1.3486109529548955
1.364006297834319
1.3651924121844061
1.3774174718947234
1.3565925583194312
1.4139675550060973
1.41998016442168
1.4059752321891714
1.43290569417823
1.418771517068243
1.4051558021607435
1.423506519922877
1.363805907849906
1.3610385524606101
1.3299475934142688
0.2752402849559116
0.42465483125389686
0.8279945498080576
1.1424314966805373
1.3187009508146208
1.3585412254566425
1.3658450688898567
1.3485205779583724
1.426986519978589
1.3917608467509532
1.4317032102974971
1.3990096986742044
1.4297400841351993
1.4232584410023321
1.4409916414125552
1.4277066263925757
1.4389406099656772
1.4298794349149997
1.4242900001382612
1.410755130431877
1.3919398272176213
1.3637841835767603
1.3401483180186813
1.3109694012416955
0.27022871206300286
0.5190158759603697
1.0164716015538169
1.2332501342771578
1.3311306017867008
1.4002215281621453
1.4065580870726793
1.4181035355812817
1.4205416711220387
1.40932122986959
1.451121227555587
1.4409241754345292
1.4666064472554423
1.4671351705915434
1.4277392302222838
1.4207362973445787
1.419879115369583
1.4186507617856476
1.4006906670092305
1.3773569350420773
1.3518976503690592
1.3251470781023063
1.3090008963286288
1.2620768892961725
0.2745495930527946
0.7189369623169345
1.1453905070074062
1.3428330350259072
1.4261524550729394
1.456777498740396
1.442922580699948
1.4406004234486567
1.441167948320009
1.4348162304514835
1.4723734364960068
1.4666688937805001
1.4316724050607617
1.429980819419634
1.454252997586552
1.412738221409332
1.3970750014129947
1.370256704196978
1.3428740153096117
1.3226327118971812
1.3035554436874264
1.2774795798166587
1.2437784644097085
1.2138371252977558
0.3076528341295242
0.9013869816679158
1.2910647390189118
1.4242677973632303
1.4478340445441262
1.4539700734079037
1.477884956029081
1.485752956328521
1.481480422261054
1.488081295497654
1.5057332191411954
1.4768564585718693
1.4634999750782174
1.4107850318884532
1.3848113704964855
1.3610514212979583
1.3411150321025764
1.3146606317034137
1.290885733567823
1.274580546002459
1.256655529019883
1.217678871813251
1.1908670606166962
1.1600373141946616
0.4021025727196945
1.081497437233939
1.3904603881100757
1.468480642228164
1.4795284546641665
1.4952545798714443
1.5007297893297071
1.5048054884136681
1.4991046749137413
1.5032107720321868
1.4906440104667766
1.4376076214896107
1.3978270783412672
1.3768359328914894
1.3438360767577127
1.314264074104565
1.296501593251064
1.2687596475121488
1.2414169485445066
1.2204251216946669
1.1939959819378119
1.1694814235774922
1.1417334402497799
1.1067000508200637
0.6028007140135709
1.2726548204938786
1.4500876839401777
1.4817473622710815
1.489852556525191
1.5251123901882568
1.5164569349606585
1.514505679013519
1.4803880833101335
1.4656019440052255
1.4379335129531197
1.4070109563813615
1.3700951647549624
1.3211747342442266
1.2906039999104113
1.2614519277020602
1.2349627427856114
1.2081169992400929
1.187714248530821
1.17460389326072
1.1599843688478721
1.132421209473043
1.1066492252813758
1.0761496559946435
0.8845960539248613
1.3612507355901222
1.487522621523108
1.508199086992938
1.500607686686791
1.5065725214741368
1.501017914078696
1.4802412825318805
1.4752006294247866
1.427887038088337
1.3969035164036798
1.3510451768326328
1.3085724806874706
1.2697729497955401
1.2408986603277914
1.2103089397110987
1.1926658381158624
1.1658685074867727
1.168284335903843
1.129780349314959
1.1295526578828172
1.0856576790278574
1.0773904933926208
1.0440408827350696
1.2064824224225263
1.4136126306923993
1.4645792903751347
1.520018268166059
1.5282054149707167
1.4792679217227105
1.4727303097316176
1.4550781362544167
1.4246061749600383
1.387473762463785
1.336288775910764
1.294925414769991
1.250670669531519
1.217409677486008
1.2032402465777312
1.1824490926690046
1.1466535815725973
1.1318576955565824
1.1366471943367997
1.1125326068560717
1.0851558330816995
1.0780464927177278
1.0477024250053475
1.0368284117219149
0.09385170919566041
0.15205457709410042
0.15643198084854884
0.23265005248429904
0.3475555962680437
0.8290434503437358
0.1229016584232242
0.14329647116849753
0.1555315208314307
0.24039005425530202
0.41244667328640444
0.742125994159791
0.13181867670301092
0.12724697413825475
0.15520131724649164
0.2677448742936652
0.4706714037825014
0.7592182396239371
0.13624510805699214
0.12164029280784283
0.16508117497819447
0.2943060911987602
0.5016273440059278
0.7793141893741473
0.14047618304197482
0.11499563195299767
0.17892636294280712
0.32249360348106865
0.5361557049819825
0.785071710275814
0.14440592412586598
0.12040153515958328
0.1937433581879888
0.35336573016011685
0.5749472314351227
0.8018383933457287
0.14706447790913757
0.11575423364806854
0.20464773491658744
0.3772301862830511
0.5797807215658497
0.811276607599285
0.14755027672552104
0.117586830559131
0.21511111685401046
0.3899097156634433
0.6136909714843528
0.8094935179618592
0.14930290423278203
0.1157048929932746
0.22258455412612457
0.4048669020660123
0.6131473394621818
0.8101731646910703
0.14962299957932357
0.11704725079692817
0.22544036644564014
0.4165331576412019
0.6168126330469945
0.8147086556398864
0.15048505170872623
0.11900615024644395
0.2264040669560258
0.4185188823805767
0.6275830616268456
0.7996357010276962
0.14984919830029128
0.1174809801033811
0.22178225099310284
0.41319156614418495
0.6269980021884642
0.8189870419590191
0.1520806172543971
0.11385777050111175
0.21768925468184036
0.40971725529592523
0.6292419472037611
0.8089566963956567
0.15067703013792183
0.11753558849675368
0.20636682827172764
0.3923844167538479
0.6087685708447971
0.7943628254421892
0.14981501114318427
0.11645313150652532
0.2002574181846906
0.3837044460237947
0.5885337629938762
0.7832605286118264
0.149892993402717
0.11851576684533045
0.18756258046909105
0.3633486889488155
0.590213626863673
0.7778436856736055
0.14702834160671666
0.11348041521109997
0.16934827800381197
0.3349374921552703
0.5687772272559386
0.7615979499194243
0.14460189208282312
0.11039260670980472
0.15977832626203403
0.3100948926803462
0.5249431380861873
0.7311905948432984
0.14176755277903214
0.11188656124633142
0.14336983947699763
0.2688183628298479
0.48219607303993217
0.6971524547392849
0.13997283055174636
0.11578146011071148
0.13619523925594598
0.22694408556513243
0.4276828359484481
0.6887249281499004
0.13271996561737914
0.1166132458771082
0.14216872358563293
0.2026847002564881
0.36532935475396544
0.644245546863383
0.12390408406651802
0.12403048663796862
0.14766112840203763
0.17807745499766017
0.2905300975708932
0.5832581356645007
0.11249692643709956
0.1313972355251112
0.14883301308024333
0.16731347671627117
0.2377415496158519
0.5128465960753917
0.0781957974730059
0.11888853719054165
0.15658127197385427
0.16197669247078547
0.24875047762870467
0.4885287070131805
1.341232512904605
1.4195545300702896
1.4617645793521197
1.4535880037421007
1.4690461148598883
1.4568431112292595
1.4415997931735824
1.3948137089852661
1.3602827439397358
1.3222474097508878
1.2789105967374943
1.2399930164495205
1.2047012916109134
1.1724118771145802
1.1563495147961702
1.1456235242718702
1.1207922524020775
1.108980261984116
1.099997199415915
1.0865952271060824
1.0805435747764613
1.0616471268453518
1.0371738751168011
1.0232023298413802
1.2166272444973778
1.3840827286776483
1.4501879862000169
1.4556439501584875
1.4738247253591341
1.4445441583402283
1.4036322087487363
1.3510714401988189
1.3112980199688717
1.2693546659035642
1.2198707464932639
1.2010066592703026
1.16318819533215
1.1638399958916852
1.1279354445726775
1.130972513723579
1.105505142864844
1.087321775972953
1.08237000621745
1.0696727786618019
1.0618270848993407
1.0502694574242328
1.0297731429473966
1.0122548912489466
1.1342045263184517
1.3111275757999583
1.4073554621010191
1.4290738647689638
1.4148596744110808
1.3744486332078265
1.3447076529547524
1.2923520728268487
1.2559707262657396
1.213601814767276
1.1739820826004532
1.1600906481849924
1.137774947729745
1.1145934849097112
1.1079324526122971
1.0992964115303074
1.0782550900846266
1.0782475181195812
1.0878656589307347
1.0645106104168014
1.053621546895542
1.0460868144017361
1.0160613360515256
1.0020709443029179
1.0928319475216697
1.2529036749997629
1.334869972780149
1.3740020967760431
1.358089236482582
1.333205928546365
1.2896403738360651
1.2519276878013483
1.20987417462453
1.1738091458297655
1.1304248806371917
1.1165943509226595
1.1049995274284108
1.099171235231327
1.0880211158797195
1.090505938956142
1.0719936802815568
1.071588602928819
1.0522394218920366
1.0489433004468252
1.049020886688484
1.0299097921496707
1.0171221556458898
1.0021356736169504
1.0666682641346457
1.223239187651344
1.3082762736349587
1.3330599006156896
1.3118739487859266
1.2693375323134743
1.2317124907648502
1.1832065654751829
1.150169810933609
1.1272492725243555
1.1215890801688602
1.1193243101740544
1.1012368257465797
1.0741076486317989
1.0859678746654022
1.0747102967660007
1.0670861497680992
1.0629543420277145
1.0555343141144473
1.0454326533663187
1.0375667426889177
1.0207092125198507
1.0046493231563876
0.9944155556045352
1.0518172299702648
1.2028588163971687
1.2611602369235129
1.2632055013577728
1.2401719008159708
1.2002241940180434
1.1766181980681591
1.1281874118423452
1.1226853850929102
1.0949006935587453
1.0809065523644972
1.0629515195118904
1.0700240499395215
1.0679955561359342
1.0623184785856503
1.0653268513579708
1.0663207510741106
1.0467778188222536
1.045958516553759
1.0302683411629472
1.0216751214252353
1.0211446587664903
0.9985693589990623
0.9857833011051399
1.0142824260265437
1.1721824038513142
1.2097439144554905
1.2108143613750295
1.1758987930074931
1.136371001602657
1.1298894358905085
1.0968750303696677
1.0889492176670539
1.0645187597408707
1.0581403941960996
1.048204533505024
1.0578221955473983
1.0711070304909778
1.048280373513965
1.0436559025421874
1.0436124174314059
1.0327944497993011
1.0431909665756165
1.02442008836699
1.0131432439148775
1.0099272628394873
0.9950423507308844
0.9820526858718344
1.0092760192242411
1.1183200269802354
1.1501167257302352
1.1385999142133671
1.1160446196620992
1.09359273495234
1.0743360718403625
1.0621729982517627
1.0348235938999626
1.0530680634205851
1.0415915101700706
1.047137285670886
1.0410615633448963
1.0384783922272975
1.0526513137473343
1.0410122428079018
1.036647168332831
1.0279394900496643
1.032601427002212
1.0236855973182457
1.0035260848464846
1.003559034481488
0.9899316036709274
0.9814325519631236
0.9980367850485833
1.0996215543588144
1.1038700393342873
1.095113299879952
1.0704522455349628
1.0420031342762355
1.0470079690430365
1.0433605290422527
1.036611789284341
1.0227598021611126
1.032387659059039
1.027045642789641
1.034010847614148
1.0315543216821046
1.0278382666215113
1.0312577714267621
1.0340828905356645
1.0243072008928251
1.0295648647728415
1.0140184750313008
1.0066549744845599
1.0010162334799386
0.9900083471918156
0.9795613064646759
0.9755134130444605
1.053136075376724
1.0581154212251005
1.0407303401900097
1.0249337552428583
1.0146864285036548
1.008448753873226
1.0205521107034563
1.0129882727342037
1.0370334407938808
1.0152878879543208
1.0116492666275314
1.0237881504689614
1.023229031252538
1.0149549146859909
1.0113148593986676
1.0171300219754529
1.0181466716088747
1.0112845026930795
1.0055728453593495
0.9978713333918819
1.0017362717545635
0.9874518004414305
0.9780906864714891
0.9513645312352395
1.012536380166959
0.9990066126402091
0.9950379154385012
0.982822464667486
0.9997883392031858
0.9657987355766474
1.0015848162706025
0.9923859137917345
1.0038804545688294
0.9949726157953634
1.0107777516073062
1.015511714497154
1.0081663770311622
1.0110692521360605
1.0198959163337906
1.0042644367325062
1.0046841075353559
1.0131580671984424
1.0041708895155623
1.0050604453341498
0.9959595387333939
0.9874482906572779
0.9800947396568108
0.9417587608641603
0.9848264140515901
0.9650891298541371
0.9357636638726927
0.9572420246193813
0.9587316951323347
0.950035806155259
0.9645367034471988
0.9715238212512185
0.9845949045404099
0.9897409374488908
0.9982149813837414
1.0003906511982055
1.0056700376054075
1.0044482120960005
1.0094162002214444
1.011354406252362
1.0071546629959633
1.01037257932872
1.0062818859383318
0.9989394071458573
0.9909297660934377
0.9862936101047413
0.9799730029071987
0.9268303837377282
0.9393467942016245
0.9248273307207798
0.9205611083081029
0.9128256724338903
0.9437919015753627
0.9306786519964836
0.9576935845881754
0.9706775247209669
0.9811923373883643
0.9802194766928731
0.9931650309035983
1.002178361687198
0.9977581165291498
1.0014705813108271
1.00117856245039
1.0063727735390258
1.0078321632954998
1.000596805056193
0.9989589653657549
1.0017588053991653
0.9953962596072657
0.9869931124252952
0.9817099835759432
0.9038556038002408
0.8908871509317773
0.8770876850700215
0.8933199038312479
0.9110756338892917
0.9275474538343021
0.9157160395184814
0.9468329717651299
0.9583367118402529
0.9710105822976063
0.9814653928209577
0.9869072742668478
0.9900249388584439
0.9961418640848154
0.9969785262239829
0.9979450979136226
1.0030419484352167
1.0053177345436284
0.9994028665425556
0.9954234707533001
1.0051742246739792
0.9934572800625647
0.9910776677856401
0.985488944659357
0.8788811775920604
0.8574023109018254
0.8649449174712294
0.884504044382014
0.8865967279096926
0.9160076114075939
0.921068352216261
0.9341313662573492
0.9442814332039637
0.952675906253724
0.9663939542448141
0.9786409753709628
0.993072880291065
0.9864958932905812
0.9960137937912728
0.9986027650608202
0.9936998842251986
0.9991957946089535
0.9975107125440547
1.00071497027034
1.0039108707087547
0.9985784493352725
0.9951598300975205
0.9888729785296116
0.8551106352067045
0.8142417933374276
0.8580705731230318
0.8472975867600474
0.8761541586649968
0.9003694579111309
0.9168782879777931
0.9335672835374239
0.9305474610009817
0.9542278078663134
0.9663112593023683
0.9756146665625809
0.9745416043450418
0.9860823201688477
0.9892393464966012
0.991800324769812
1.0033328881405605
1.003496425479614
1.0036045454068532
1.0045098218277038
1.0042308064069772
1.0002646170471212
0.9957048521154004
0.9934716576227466
0.8210496105864127
0.7979255382018756
0.7984869637366118
0.8137432340801664
0.8527124934321941
0.8818665936527313
0.8928372840018228
0.9241658204829359
0.9297730750159758
0.94088664692939
0.9546780872984088
0.9671609129393604
0.9821582021999341
0.9837817664890562
0.9870037351370731
0.9975912407343837
0.9966880531072384
0.9983298339943089
1.0028227555791132
1.003715078967009
1.0037994059722777
1.0038096610229643
0.9986526149021525
0.9962377578248827
0.8087089548958508
0.7763769445109703
0.801287558977321
0.8280927389217428
0.8542616425974315
0.865543631072471
0.8962467120877202
0.9092876632445521
0.9274840656376138
0.9399859978036997
0.9604151205390592
0.9654847918943034
0.9779471129900462
0.9785008701487011
0.9893097291932612
0.9906465264112837
0.9976007532868695
1.0017005515958368
1.0042570717010375
1.0035980712979005
1.0039843888591289
1.0064948624162724
1.0026999264567569
0.9984884554599973
0.7835573816203512
0.7764041408212281
0.7932313109375416
0.8323207495667012
0.8468580364323799
0.8697748719085203
0.8801986796870263
0.9064665209226171
0.9242044979840212
0.9350235896514093
0.9452262838224461
0.959246672773641
0.9703240639398374
0.981938358753088
0.9865339893204065
0.9988929343719917
0.9975302258280678
1.0018240287880653
1.005581097343913
1.0063086436194413
1.0055767046868986
1.0069600870483564
1.0036882456420406
1.0022226875416838
0.753765166654447
0.7580178861997489
0.7717033722550151
0.8104675219295008
0.8330931029339546
0.8500625920350998
0.8809913825725635
0.8979806708305331
0.9193506857186233
0.9296617627725395
0.9501993792309018
0.9610250638239505
0.9676230829950591
0.9780459266243134
0.9913835183800207
0.9928965935827523
0.9975926091890389
1.0027495860398503
1.007827243574961
1.0088376593479271
1.008243273655523
1.0074484688169212
1.0063016748059253
1.0061905894303067
0.7269962623734467
0.7561518225191011
0.7781060801618269
0.8002619942975034
0.8444068730553351
0.8556634728260751
0.8724479836630196
0.8975219461011359
0.9126877930608313
0.9330402546463927
0.9420144413446182
0.9602988279178211
0.9729728687282853
0.9817814990706301
0.9890699642507514
0.9932778329593035
1.0003201095753969
1.0036185142807443
1.006386835234456
1.009573246819014
1.0116737417294306
1.0112573506016382
1.0100807612438347
1.0099935783640683
0.700400654580522
0.7458755124216805
0.772493317585424
0.7974139659041138
0.8136104387511606
0.8521401094670231
0.8749744345868617
0.8978324754684702
0.9120004446009378
0.9328166021671073
0.9454708388976345
0.9578592423103685
0.9715436495217191
0.9817687470445766
0.9868758403866482
0.9948729561170011
1.0033591929056316
1.004330609207263
1.0070706680394983
1.0116531561088
1.0110396794375696
1.0126024110757081
1.0109235818282956
1.0101640183291296
0.6714787510211648
0.7249443791681294
0.7576074938560484
0.8036932025793904
0.8249294923084508
0.850970326857453
0.8739315998343534
0.8986788705454831
0.915252172932491
0.9337574485697534
0.9455916693803885
0.9647222831938965
0.972980130881436
0.9852760217599394
0.991995876760648
0.9993049651612248
1.0009455958528586
1.005802793992184
1.0115793924421548
1.0115193655785302
1.0108730376933497
1.0115635780473673
1.0134417606527015
1.0107551082973814
0.6539504456801771
0.7121757273334574
0.7511068259658944
0.7958299245427334
0.82068298131808
0.8479200812060732
0.8754198600618767
0.8985404905635379
0.9208376673649132
0.9378676828867463
0.9520870868889232
0.9638812645621028
0.9728077645855921
0.9815818783907936
0.9900116468406228
0.9956642124201578
1.0031757082000858
1.009375695591585
1.0092550939701141
1.0097560551539506
1.0134017763973993
1.0125097219529755
1.0110559799438452
1.0112362741294227
0.0657165073771406
0.21059978215627942
0.38585663254392966
0.43660886460188164
0.48333799843754155
0.32976989655371447
0.1235413320088225
0.2939236487991152
0.4181784953893815
0.46153992160827234
0.47539689193451345
0.37753797726426386
0.16309669042282215
0.3263127225332568
0.41735409918174216
0.45081636741955555
0.4609753374909177
0.4133161131060898
0.19759817538403404
0.3417228124394553
0.41965158408769165
0.44656634105842496
0.4517051679123302
0.44106423963672714
0.2314060893777311
0.36760856240097545
0.42067672685356766
0.44261017639030026
0.46154772003565814
0.4482660539012008
0.25891919943682656
0.37105919158072015
0.41960589130829773
0.4488104614485663
0.4606215280609825
0.4780960922457642
0.28130633930744897
0.38750809290110966
0.428085663537354
0.4525716135995269
0.467989353581162
0.4843153687042524
0.3053714827064451
0.39037970094095514
0.436705777093728
0.4672028972520961
0.48882673629970597
0.5096119559527003
0.3259684531798912
0.4012088396250604
0.4430825961846031
0.4677730959595927
0.48041285319862187
0.5204271020970271
0.3441111670062117
0.4055850676807772
0.44500864621569
0.47856974286029696
0.5076496758488547
0.5456810828084973
0.3555474354752901
0.4057549879033442
0.4522462091880499
0.4911064406913084
0.5180296588617954
0.5647229160048377
0.36062354838862
0.40796784280457704
0.46548971451555593
0.49785957874046083
0.5444593636683057
0.5844751378363799
0.35826863284240096
0.4146643479287502
0.46892060091862864
0.5169125093849357
0.5595446515272975
0.6082034466486944
0.3603565423205715
0.4095310202071493
0.4715476405560219
0.5204316605335516
0.5818231058077361
0.6349509616736136
0.34923660708230075
0.404912361165369
0.47216226695681357
0.5425549235939392
0.6024490344229455
0.6561794297695404
0.33713311265816753
0.39792199768945374
0.4758234134559317
0.5510889737914794
0.618748793719035
0.6866322795415385
0.3216051592104544
0.39920223146586553
0.48632164023720215
0.5544894179279829
0.6419037157236211
0.724038691175545
0.30413929645572035
0.39376650171356287