/*--------------------------------*- C++ -*----------------------------------*\
  =========                 |
  \\      /  F ield         | OpenFOAM: The Open Source CFD Toolbox
   \\    /   O peration     | Website:  https://openfoam.org
    \\  /    A nd           | Version:  11
     \\/     M anipulation  |
\*---------------------------------------------------------------------------*/
FoamFile
{
    format      ascii;
    class       volScalarField;
    location    "0.8";
    object      epsilon;
}
// * * * * * * * * * * * * * * * * * * * * * * * * * * * * * * * * * * * * * //

dimensions      [0 2 -3 0 0 0 0];

internalField   nonuniform List<scalar> 
2880
(
2.38172
5.75679
8.80809
9.80519
10.7319
52.9032
0.972798
2.55851
4.125
5.11601
6.51179
14.3187
0.258659
1.96403
2.99083
3.78974
4.85318
7.58627
1.19892
1.79741
2.50003
3.13555
3.90838
5.11094
1.47115
1.73136
2.21873
2.70727
3.26259
3.8705
1.71434
1.70362
2.02824
2.39166
2.77995
3.09887
1.92583
1.68282
1.88972
2.14697
2.40763
2.56453
2.09721
1.65963
1.77995
1.95171
2.11628
2.17426
2.2228
1.62963
1.68754
1.79334
1.88669
1.88122
2.30069
1.59171
1.60753
1.66441
1.70568
1.65766
2.33271
1.5473
1.53831
1.56062
1.56402
1.48662
2.32425
1.49936
1.48033
1.47929
1.45497
1.35703
2.28412
1.45149
1.43466
1.4188
1.37382
1.26086
2.2106
1.40575
1.40243
1.37876
1.31736
1.19257
2.09795
1.36293
1.38653
1.36093
1.28466
1.14867
1.94802
1.32371
1.38482
1.36181
1.27484
1.12866
1.7663
1.28853
1.40089
1.38657
1.28811
1.13046
1.56119
1.25717
1.43807
1.44023
1.33118
1.15905
1.34142
1.22807
1.50137
1.53214
1.4155
1.22393
1.19287
1.19725
1.59833
1.68094
1.56553
1.34844
0.263123
1.16297
1.74126
1.92535
1.83595
1.59389
0.238159
1.14379
1.9593
2.35962
2.36194
2.13645
0.878158
1.20439
2.35893
3.28977
3.53379
3.55618
1.93218
1.92568
3.4884
5.81436
6.60714
6.22274
22.5245
8.60465
4.13684
2.19027
1.1775
0.63068
0.338665
0.18485
0.103869
0.0605765
0.0367966
0.0232905
0.0153447
0.0105067
0.00746396
0.00549119
0.00417392
0.00326747
0.00262195
0.00214004
0.00175241
0.00141095
0.00109454
0.00075854
10.8343
5.77272
3.21082
1.77288
0.959241
0.511559
0.2732
0.148638
0.0834615
0.0487162
0.0296326
0.018779
0.0123824
0.00848166
0.00602592
0.00443297
0.00336941
0.00263795
0.00211764
0.00172994
0.00141935
0.00114935
0.000907502
0.000665492
6.73939
4.32271
2.54958
1.43254
0.775858
0.412347
0.219651
0.119475
0.0671893
0.0393051
0.0239566
0.0152034
0.010032
0.00687281
0.00488206
0.00359062
0.00272899
0.0021374
0.00171785
0.0014068
0.00115976
0.000948862
0.000766542
0.000593663
4.82047
3.36536
2.03739
1.15339
0.624454
0.331359
0.176525
0.0962119
0.05427
0.0318406
0.0194498
0.012359
0.00815855
0.0055885
0.00396826
0.00291787
0.00221837
0.00173968
0.00140201
0.00115373
0.000959044
0.000796425
0.000660895
0.000538609
3.68344
2.65136
1.63134
0.927311
0.501973
0.266407
0.142209
0.0777755
0.0440351
0.0259163
0.0158632
0.0100894
0.00666088
0.00456091
0.00323743
0.00238091
0.00181239
0.00142537
0.00115451
0.000957628
0.000805702
0.000681852
0.00058236
0.000496669
2.91928
2.11587
1.31284
0.747387
0.404531
0.214959
0.115104
0.0632107
0.0359287
0.0212072
0.0130025
0.0082745
0.00546171
0.0037383
0.00265354
0.00195358
0.00149124
0.00117877
0.000962357
0.000807293
0.000689868
0.000596597
0.000524334
0.000464795
2.3713
1.71289
1.06513
0.605895
0.327823
0.174494
0.0937693
0.0517106
0.0295001
0.0174563
0.010716
0.00682099
0.00450102
0.00308032
0.00218815
0.00161491
0.00123871
0.000986819
0.000814585
0.000693253
0.000603278
0.000533697
0.000481635
0.000440576
1.96553
1.4084
0.873343
0.495366
0.267759
0.142758
0.0769812
0.0426176
0.0243904
0.0144617
0.00888503
0.00565572
0.0037315
0.00255483
0.00181837
0.00134777
0.00104141
0.000838588
0.000701988
0.000607586
0.000539135
0.000487594
0.000450294
0.000422181
1.66061
1.1771
0.724997
0.409229
0.220792
0.117857
0.0637444
0.0354072
0.0203169
0.0120646
0.00741625
0.0047209
0.0031155
0.00213599
0.00152555
0.00113808
0.000888254
0.000725013
0.000616944
0.000543798
0.000491981
0.000453978
0.000427351
0.00040826
1.43059
1.0003
0.610062
0.342036
0.183999
0.0982599
0.053269
0.0296675
0.0170581
0.0101407
0.00623608
0.00397064
0.00262279
0.00180287
0.0012945
0.000974304
0.000770113
0.000638657
0.000553245
0.000496678
0.000457546
0.000429589
0.00041064
0.00039782
1.25663
0.86462
0.52073
0.289445
0.155059
0.0827651
0.0449381
0.0250776
0.0144411
0.00859226
0.00528631
0.0033683
0.00222907
0.00153851
0.00111283
0.000847024
0.000679579
0.000573505
0.000505921
0.000462135
0.000432567
0.000412018
0.000398589
0.000390116
1.12526
0.760276
0.451022
0.248075
0.132168
0.0704405
0.038274
0.0213883
0.0123309
0.00734251
0.00452079
0.00288459
0.00191477
0.00132921
0.000970515
0.000748637
0.000610686
0.000524754
0.000471063
0.000437019
0.000414601
0.0003995
0.000390049
0.000384573
1.02715
0.680101
0.3964
0.215336
0.11394
0.0605709
0.0329087
0.0184063
0.0106222
0.00633093
0.00390287
0.00249612
0.00166418
0.00116393
0.000859505
0.000673044
0.000558677
0.000488617
0.000445644
0.000418949
0.000401838
0.00039074
0.000384169
0.000380725
0.955763
0.61884
0.353438
0.18925
0.0993252
0.0526108
0.0285584
0.0159815
0.00923221
0.00550978
0.00340349
0.00218423
0.00146475
0.00103385
0.000773359
0.000615388
0.000519788
0.000462136
0.000427351
0.000406143
0.000392931
0.000384752
0.000380308
0.00037819
0.906689
0.572645
0.319539
0.168307
0.0875302
0.0461498
0.0250037
0.0139968
0.00809621
0.00484139
0.00299958
0.0019341
0.0013065
0.000931982
0.000706984
0.000571835
0.000491063
0.000443021
0.000414429
0.000397278
0.00038689
0.000380842
0.000377895
0.000376608
0.877188
0.538701
0.292717
0.151379
0.0779455
0.0408596
0.0220731
0.0123606
0.00716324
0.00429603
0.00267291
0.001734
0.00118157
0.000852844
0.000656423
0.000539427
0.000470247
0.000429552
0.000405586
0.000391405
0.00038304
0.000378522
0.000376464
0.000375665
0.866308
0.514937
0.271404
0.137706
0.0700422
0.0364633
0.0196323
0.0110015
0.00639336
0.00385027
0.00240909
0.00157472
0.00108382
0.000792198
0.000618647
0.000515942
0.000455687
0.000420499
0.000399912
0.000387847
0.00038088
0.000377309
0.000375758
0.000375205
0.873063
0.499748
0.254589
0.126461
0.063393
0.032743
0.0175807
0.00986362
0.00575529
0.00348572
0.00219679
0.00144899
0.00100843
0.00074674
0.000591315
0.000499681
0.000446137
0.000414949
0.000396724
0.000386073
0.000380001
0.000376936
0.00037558
0.000375087
0.899408
0.491678
0.241593
0.116943
0.0576484
0.0295335
0.0158297
0.00890327
0.00522459
0.00318796
0.00202713
0.00135114
0.000951647
0.000713888
0.000572603
0.000489327
0.000440646
0.000412217
0.000395533
0.00038574
0.000380093
0.000377119
0.000375712
0.000375118
0.948634
0.490019
0.231005
0.10849
0.0525128
0.0266996
0.0143103
0.00808629
0.00478243
0.00294585
0.00189325
0.00127679
0.000910579
0.000691688
0.00056115
0.000483928
0.000438555
0.000411834
0.000395986
0.000386542
0.000380978
0.000377818
0.000376125
0.000375248
1.02683
0.49391
0.221316
0.100448
0.0477308
0.0241342
0.0129716
0.00738725
0.00441463
0.002751
0.00178998
0.00122266
0.000883112
0.000678734
0.000556009
0.000482825
0.000439381
0.000413509
0.000397897
0.000388373
0.000382535
0.000378968
0.000376811
0.000375495
1.14432
0.501081
0.210681
0.0921487
0.0430896
0.0217596
0.011779
0.00678845
0.00411111
0.00259743
0.00171366
0.00118648
0.000867804
0.000674134
0.000556577
0.000485693
0.000443022
0.000417153
0.000401222
0.000391221
0.000384801
0.000380578
0.000377765
0.000375864
1.31783
0.501103
0.196326
0.0829452
0.0384466
0.0195343
0.0107147
0.00627949
0.00386555
0.00248124
0.00166192
0.00116681
0.000863799
0.000677251
0.000562676
0.000492469
0.000449442
0.000422821
0.000406038
0.000395169
0.000387857
0.000382727
0.000379067
0.000376431
1.46042
0.473969
0.174895
0.072462
0.0337879
0.0174619
0.00977946
0.00585694
0.00367502
0.0024005
0.00163365
0.00116303
0.000870736
0.000688323
0.000574384
0.000503309
0.000458851
0.000430725
0.000412544
0.000400395
0.000391866
0.000385564
0.000380856
0.000377313
1.97444
1.51923
2.42741
4.01615
5.00957
5.42969
0.8793
1.21651
2.1305
3.08176
3.38288
2.51529
0.237067
1.31167
2.02543
2.42404
2.28458
1.38105
0.261643
1.40775
1.86602
1.98153
1.61494
0.873904
1.19012
1.45877
1.72486
1.65034
1.19377
0.612788
1.37307
1.46928
1.60767
1.39887
0.9282
0.470069
1.62919
1.46553
1.5087
1.21623
0.763598
0.388485
1.85265
1.46064
1.42809
1.0902
0.664627
0.343558
2.03614
1.46013
1.36831
1.00989
0.61048
0.323411
2.17519
1.46721
1.3318
0.967168
0.589679
0.322162
2.26804
1.48376
1.31977
0.957318
0.593347
0.336697
2.31453
1.51046
1.32776
0.970436
0.621089
0.369035
2.31724
1.54766
1.3596
1.01473
0.673741
0.419731
2.28935
1.59532
1.41498
1.08626
0.752305
0.492197
2.25427
1.65198
1.4909
1.18563
0.860181
0.59199
2.19964
1.71072
1.58396
1.31365
1.00208
0.726826
2.11381
1.76251
1.68829
1.471
1.18362
0.906987
1.98499
1.79722
1.79834
1.65618
1.41058
1.1464
1.80088
1.80646
1.91513
1.86194
1.68909
1.46342
1.54907
1.78866
2.04421
2.09444
2.02245
1.87867
1.21954
1.7511
2.20003
2.37611
2.41642
2.41413
0.259142
1.73501
2.46007
2.75902
2.92071
3.23088
0.986761
2.04775
3.12801
3.5434
3.81341
4.86945
2.4083
4.34663
6.29725
6.52331
6.16627
6.1685
1.17748
0.391527
0.144781
0.0611149
0.0292888
0.0155878
0.0089963
0.00552329
0.00353967
0.00235553
0.00162904
0.00117546
0.000889203
0.00070755
0.000592077
0.000518607
0.000471635
0.000441216
0.000421054
0.000407179
0.000397072
0.000389312
0.000383331
0.000378678
0.781862
0.286027
0.113388
0.0503904
0.025279
0.014
0.00837683
0.00528373
0.003462
0.00234754
0.00164916
0.00120504
0.000919854
0.000735705
0.000616444
0.000538982
0.000488338
0.000454768
0.000431979
0.000415883
0.00040381
0.000394278
0.000386712
0.000380723
0.523881
0.205863
0.0875065
0.0415156
0.0220183
0.012782
0.00793747
0.00514568
0.00344712
0.00237971
0.00169647
0.00125367
0.000964275
0.000774084
0.000648572
0.000565358
0.000509748
0.000472058
0.000445909
0.000427031
0.000412527
0.000400764
0.000391064
0.000383519
0.365545
0.151494
0.0687649
0.0349128
0.0196226
0.0119647
0.00769273
0.0051196
0.00350052
0.00245712
0.00177483
0.00132438
0.0010249
0.000824682
0.000690131
0.000599153
0.000537074
0.000494106
0.000463685
0.000441277
0.000423667
0.000409021
0.000396684
0.000387196
0.269576
0.116616
0.0562671
0.0304496
0.0181197
0.0115406
0.00765426
0.00521486
0.00363205
0.00258691
0.00188977
0.00142154
0.00110524
0.00089037
0.000743516
0.000642391
0.00057203
0.000522346
0.000486466
0.000459516
0.000437917
0.00041969
0.000404373
0.000392277
0.21202
0.0953722
0.0486383
0.0278514
0.0174341
0.0115098
0.00783853
0.00544841
0.00385436
0.00277897
0.00204901
0.0015512
0.00121009
0.000975032
0.00081192
0.00069773
0.000616848
0.000558653
0.000515828
0.000483084
0.000456431
0.000433744
0.00041474
0.000399183
0.17886
0.0835798
0.0447365
0.0268912
0.0174889
0.0118896
0.00827152
0.00584257
0.00418512
0.00304695
0.00226302
0.00172151
0.00134589
0.0010838
0.000899512
0.000768601
0.000674385
0.000605429
0.000553799
0.000513678
0.000480586
0.000452211
0.000428472
0.000408288
0.162111
0.0786675
0.04386
0.0272805
0.0183151
0.0127248
0.00899396
0.0064297
0.00464908
0.00340957
0.00254608
0.00194344
0.00152119
0.00122349
0.00101178
0.000859505
0.000748394
0.000665846
0.000603071
0.000553562
0.000512208
0.000476444
0.000446481
0.000420089
0.157448
0.0789638
0.0453464
0.0291747
0.0199912
0.014092
0.0100675
0.00725641
0.00528091
0.00389266
0.00291761
0.0022318
0.00174748
0.00140313
0.00115598
0.00097638
0.000843821
0.000744084
0.000667203
0.000605738
0.000553749
0.000508302
0.000470045
0.000435261
0.161199
0.0840848
0.0497872
0.0326704
0.0226657
0.0161141
0.0115838
0.00838959
0.00612932
0.00453198
0.00340417
0.00260667
0.00204019
0.00163483
0.00134178
0.0011271
0.000967194
0.000845645
0.000750877
0.000674183
0.000608501
0.00055034
0.000500936
0.000454705
0.175524
0.0946771
0.0573245
0.0380953
0.0265985
0.0189802
0.013678
0.00992541
0.00726316
0.00537737
0.00404244
0.0030955
0.00242028
0.0019349
0.00158213
0.00132215
0.00112717
0.000977793
0.000860264
0.000764151
0.00068086
0.000606029
0.000541595
0.000479635
0.200335
0.111502
0.0687745
0.0460306
0.0321984
0.0229757
0.0165488
0.0120028
0.00878051
0.00649905
0.00488353
0.00373619
0.00291643
0.00232549
0.00189452
0.00157559
0.00133529
0.00115017
0.00100353
0.000882596
0.000776683
0.000680064
0.000595382
0.000511672
0.237959
0.136462
0.085447
0.0573899
0.0400904
0.0285278
0.0204892
0.0148242
0.0108227
0.00799712
0.00599957
0.00458176
0.00356841
0.00283709
0.00230279
0.00190651
0.00160711
0.00137569
0.00119155
0.00103878
0.000903813
0.000778815
0.000666904
0.000552931
0.292273
0.17256
0.109397
0.0735708
0.0512202
0.0362775
0.0259353
0.0186881
0.0135962
0.0100164
0.00749391
0.00570745
0.00443219
0.00351226
0.00284005
0.00234119
0.00196393
0.00167194
0.00143912
0.00124526
0.0010729
0.000911045
0.000762579
0.0006061
0.368942
0.2242
0.143721
0.0966842
0.0670169
0.0471915
0.0335421
0.0240404
0.0174072
0.0127698
0.0095172
0.00722198
0.00558799
0.00441157
0.00355312
0.00291664
0.00243567
0.00206357
0.00176684
0.00151951
0.00129891
0.00108928
0.000891739
0.000674553
0.476032
0.297776
0.192991
0.129883
0.0896334
0.0627337
0.044303
0.0315561
0.0227168
0.0165759
0.012293
0.00928545
0.00715311
0.00562315
0.00450993
0.00368666
0.00306594
0.00258673
0.00220521
0.00188758
0.00160429
0.00133291
0.00106946
0.000763056
0.624697
0.402317
0.263787
0.177797
0.122285
0.0851178
0.0597324
0.0422673
0.0302297
0.0219196
0.0161595
0.0121383
0.00930261
0.00727808
0.00581172
0.00473197
0.00392133
0.00329804
0.00280359
0.00239317
0.0020283
0.00167761
0.00132578
0.000883587
0.829798
0.550077
0.365236
0.247026
0.169675
0.117657
0.0821347
0.0577615
0.0410346
0.0295492
0.0216365
0.0161479
0.0123026
0.00957492
0.00761216
0.00617675
0.00510715
0.0042916
0.00365052
0.00312365
0.00266037
0.00221597
0.00175189
0.00112906
1.111
0.756902
0.509298
0.346504
0.238424
0.165181
0.114968
0.0804711
0.0568208
0.0406327
0.0295349
0.0218846
0.0165628
0.0128172
0.010145
0.0082102
0.00678649
0.00571948
0.00490174
0.00425574
0.00372072
0.00324888
0.0028534
0.00277572
1.49671
1.04218
0.710322
0.487359
0.337236
0.23439
0.163257
0.114058
0.0801948
0.0569978
0.0411299
0.030243
0.0227202
0.0174688
0.0137591
0.0111058
0.00918614
0.00778603
0.00676523
0.00603514
0.00554076
0.00525993
0.00527582
0.00588152
2.03844
1.42808
0.982927
0.681525
0.476286
0.333809
0.233865
0.163817
0.115088
0.0814787
0.0584289
0.0426361
0.0317733
0.024244
0.0189742
0.01525
0.0126012
0.0107231
0.00942561
0.00859835
0.00818275
0.00817371
0.00864977
0.00978846
2.77678
1.92853
1.33585
0.937894
0.664975
0.472691
0.335207
0.236863
0.167153
0.118351
0.0845554
0.0612984
0.045307
0.0342682
0.0265961
0.0212279
0.017465
0.0148602
0.0131395
0.0121443
0.0117854
0.0120158
0.012905
0.0145128
3.80155
2.53498
1.76041
1.25507
0.90714
0.658029
0.475639
0.341534
0.24381
0.173699
0.124207
0.0897113
0.0658384
0.0493402
0.0379082
0.0299601
0.0244452
0.0206887
0.018274
0.01695
0.0165597
0.0169711
0.0182403
0.0203168
5.67278
3.482
2.27421
1.62186
1.19556
0.88937
0.659713
0.485143
0.353241
0.255249
0.183949
0.133068
0.097283
0.0723273
0.0549784
0.0429303
0.0346076
0.0289779
0.0253883
0.0234258
0.0228152
0.0233074
0.0249012
0.0274826
1.9624
2.57811
3.12476
3.23338
2.84464
2.91011
0.871441
1.13497
1.44674
1.57916
1.56842
1.87773
0.23375
0.88555
1.15028
1.24712
1.29729
1.56657
0.256157
0.848802
1.07053
1.15
1.2128
1.42782
0.271705
0.881582
1.05554
1.12753
1.19376
1.3694
1.18894
0.961915
1.06869
1.1373
1.20655
1.35426
1.27332
1.02841
1.09686
1.16602
1.23997
1.36869
1.40167
1.0773
1.13067
1.20524
1.28591
1.40494
1.50786
1.11199
1.16634
1.25069
1.33995
1.45559
1.59181
1.13638
1.20287
1.3003
1.39946
1.51573
1.65338
1.15389
1.24046
1.35314
1.46271
1.58171
1.69389
1.16739
1.27963
1.40892
1.52857
1.65069
1.71625
1.17939
1.32087
1.46771
1.59646
1.72066
1.71132
1.18942
1.36487
1.53009
1.66648
1.79055
1.6758
1.19706
1.41257
1.59723
1.73968
1.86056
1.60969
1.20231
1.46517
1.67124
1.81854
1.93262
1.51497
1.2054
1.52428
1.75568
1.90781
2.01111
1.39527
1.2065
1.59237
1.8565
2.01602
2.10444
1.257
1.20615
1.67332
1.98379
2.1555
2.22893
0.280097
1.20545
1.77392
2.15331
2.35371
2.42274
0.263782
1.21204
1.90755
2.39761
2.66703
2.76833
0.23841
1.24348
2.11651
2.79311
3.21692
3.49362
0.874806
1.37593
2.57817
3.61668
4.28683
5.36368
1.91102
2.16713
4.25771
6.17239
6.67077
6.22269
5.51018
4.23536
2.80675
2.01169
1.50911
1.15387
0.882806
0.669518
0.501365
0.370781
0.271711
0.198416
0.145386
0.107657
0.0811016
0.0625417
0.0496871
0.0409755
0.0353813
0.0322259
0.0310383
0.031437
0.0332368
0.0363675
5.01231
4.79793
3.57893
2.49516
1.86067
1.44193
1.13306
0.88776
0.687475
0.524492
0.394511
0.293659
0.217595
0.161643
0.121282
0.0925945
0.0724922
0.0587223
0.0497227
0.0444128
0.0420027
0.0419977
0.043768
0.0474526
3.56775
4.98715
4.43656
3.21784
2.33221
1.78125
1.40896
1.12931
0.902736
0.712935
0.5543
0.42451
0.321393
0.241924
0.182343
0.138698
0.107391
0.0854972
0.0708135
0.0617305
0.0570013
0.0558235
0.0573597
0.0614336
2.52625
4.57758
4.74315
4.15273
3.07281
2.28022
1.76022
1.40614
1.14151
0.927052
0.745263
0.590311
0.460575
0.355005
0.271742
0.208003
0.160553
0.12626
0.102448
0.0869719
0.078051
0.0744075
0.0751934
0.07931
2.03602
3.67782
4.61905
4.54162
3.96554
3.04087
2.30131
1.7853
1.42988
1.16842
0.959846
0.783567
0.631717
0.502168
0.394328
0.307246
0.239125
0.187588
0.150132
0.124432
0.108352
0.100078
0.098904
0.102603
1.80384
2.94468
4.095
4.53831
4.40493
3.87592
3.07425
2.3729
1.84816
1.47762
1.20893
1.00013
0.826695
0.677367
0.54837
0.438842
0.348375
0.276078
0.220525
0.179986
0.152602
0.136423
0.130645
0.133446
1.69895
2.48523
3.47044
4.23022
4.46489
4.31954
3.85458
3.15108
2.4821
1.94386
1.54867
1.26318
1.04762
0.873711
0.725968
0.597916
0.48761
0.394682
0.31893
0.259861
0.216648
0.188167
0.173923
0.174521
1.66495
2.22987
2.99689
3.74548
4.26047
4.39818
4.26508
3.86996
3.25041
2.61471
2.06546
1.64173
1.33168
1.10251
0.923944
0.776202
0.649272
0.539262
0.445214
0.367229
0.305555
0.260576
0.233345
0.228639
1.67238
2.10542
2.69474
3.33632
3.89418
4.2562
4.34359
4.2292
3.89684
3.35158
2.75377
2.20229
1.75312
1.41479
1.16593
0.977763
0.827409
0.701068
0.592169
0.498453
0.419657
0.356696
0.312574
0.298538
1.70808
2.05896
2.52367
3.05053
3.56005
3.97716
4.23806
4.29551
4.19743
3.91461
3.43569
2.88314
2.3434
1.87863
1.51363
1.24093
1.03769
0.880557
0.752773
0.644759
0.55226
0.473837
0.411571
0.384631
1.75966
2.0538
2.43409
2.86559
3.30327
3.70015
4.01312
4.20318
4.23989
4.15368
3.9088
3.49138
2.99148
2.4787
2.01293
1.62866
1.33178
1.10873
0.939436
0.805963
0.696636
0.604751
0.525892
0.483748
1.81878
2.07158
2.38756
2.74288
3.10986
3.45929
3.76486
4.0003
4.13947
4.16192
4.08519
3.87202
3.51228
3.07034
2.59905
2.14985
1.75957
1.44357
1.19876
1.01201
0.86683
0.750967
0.652693
0.592682
1.87948
2.09721
2.35792
2.64889
2.95061
3.2453
3.51774
3.75208
3.9307
4.03509
4.04961
3.98157
3.79799
3.49446
3.11589
2.69948
2.28499
1.9057
1.5816
1.31811
1.11002
0.947675
0.813947
0.72196
1.93778
2.12061
2.32992
2.56121
2.80167
3.04051
3.26946
3.47961
3.66015
3.79812
3.87917
3.89028
3.8316
3.6794
3.43641
3.12669
2.77458
2.41053
2.06075
1.74398
1.47078
1.24312
1.05587
0.914545
1.99178
2.13601
2.2939
2.46824
2.65072
2.83533
3.01767
3.19281
3.3543
3.49368
3.6006
3.66409
3.67352
3.62617
3.50616
3.31983
3.08304
2.80573
2.50493
2.19925
1.90639
1.63833
1.40519
1.2168
2.04124
2.14072
2.2465
2.36665
2.49611
2.63152
2.76971
2.90715
3.03933
3.16065
3.26411
3.34217
3.38618
3.39142
3.35281
3.26253
3.12249
2.94224
2.73155
2.50137
2.26065
2.01866
1.79318
1.60528
2.08764
2.13559
2.18845
2.25881
2.34309
2.43827
2.54042
2.64519
2.74753
2.84306
2.9262
2.99178
3.03476
3.05332
3.04397
3.00311
2.92889
2.82322
2.68875
2.52993
2.35581
2.17722
2.01182
1.87679
2.13393
2.12134
2.12255
2.14977
2.19897
2.26619
2.34512
2.42956
2.51155
2.58689
2.64874
2.69121
2.71272
2.71585
2.69713
2.65783
2.5996
2.52401
2.43255
2.32724
2.21194
2.09375
1.98474
1.88219
2.18773
2.09827
2.05209
2.0446
2.06979
2.12285
2.19442
2.27663
2.36469
2.44636
2.50886
2.54334
2.55487
2.53795
2.4941
2.42863
2.34648
2.25243
2.15101
2.04537
1.93949
1.83922
1.74991
1.65654
2.25515
2.0714
1.97645
1.94685
1.95928
2.01236
2.09274
2.19483
2.30416
2.40091
2.47433
2.5145
2.52753
2.50552
2.45283
2.3764
2.28171
2.17411
2.05894
1.94129
1.82501
1.7138
1.60981
1.5076
2.34883
2.0423
1.90013
1.85681
1.86882
1.93399
2.03784
2.16548
2.29938
2.42447
2.52277
2.57992
2.5989
2.57
2.50506
2.41412
2.30637
2.18936
2.06839
1.94748
1.82989
1.71753
1.60876
1.50408
2.49172
2.01187
1.82543
1.77605
1.79978
1.88833
2.02187
2.18681
2.36364
2.52129
2.62884
2.67367
2.65785
2.60915
2.52942
2.42728
2.31131
2.18875
2.0653
1.94523
1.83115
1.72365
1.61937
1.51934
2.71105
1.97841
1.75646
1.71069
1.75927
1.88196
2.06092
2.27842
2.49615
2.65739
2.72775
2.70734
2.63583
2.52019
2.38471
2.24256
2.10122
1.9656
1.83907
1.7235
1.61958
1.52613
1.44293
1.35967
2.97701
1.93867
1.70447
1.67658
1.76637
1.9408
2.18641
2.46776
2.71099
2.83204
2.81584
2.65285
2.41937
2.1797
1.95897
1.76282
1.58985
1.43532
1.30086
1.18545
1.08799
1.00335
0.938932
0.86776
1.87035
1.84867
3.41568
4.73029
5.58859
6.18321
0.862777
1.27665
2.27196
3.26823
4.65506
6.34527
0.234343
1.24871
2.04394
2.80194
3.6771
4.15524
0.25898
1.26801
1.93753
2.5272
3.00832
3.14602
0.275496
1.28262
1.84662
2.29777
2.59257
2.66136
1.21221
1.28676
1.75552
2.10212
2.31822
2.3928
1.33056
1.278
1.66478
1.93527
2.11766
2.2259
1.43305
1.26042
1.57663
1.79355
1.95726
2.10167
1.51137
1.2376
1.49224
1.66883
1.82101
1.99908
1.56305
1.21102
1.41212
1.55608
1.69985
1.90972
1.58702
1.18173
1.33635
1.45231
1.58922
1.83183
1.58488
1.1505
1.26488
1.3559
1.48709
1.76703
1.55611
1.118
1.19762
1.26604
1.39289
1.71777
1.50589
1.085
1.13435
1.18247
1.30647
1.68569
1.44295
1.05138
1.07472
1.10511
1.22745
1.67284
1.36375
1.01242
1.01769
1.03355
1.1556
1.68299
1.25944
0.959925
0.961098
0.967243
1.09069
1.72057
1.1859
0.881173
0.903019
0.905522
1.03232
1.78409
0.27342
0.76922
0.845109
0.848545
0.979854
1.86249
0.261944
0.68731
0.794093
0.799256
0.932825
1.9379
0.245403
0.640386
0.761894
0.766431
0.893652
2.00798
0.22356
0.655621
0.773683
0.773454
0.876831
2.09844
0.835685
0.852712
0.914201
0.892226
0.936448
2.28856
1.95441
1.98769
1.93063
1.74071
1.48472
2.20494
2.93856
1.89351
1.6915
1.69814
1.84346
2.09584
2.42702
2.76929
3.00201
3.04786
2.86371
2.50068
2.1212
1.79048
1.52046
1.29952
1.11467
0.961446
0.832044
0.721341
0.627119
0.545547
0.479066
0.416077
2.68935
1.88772
1.73393
1.79839
2.02531
2.37595
2.80034
3.17487
3.33637
3.24408
2.85273
2.3215
1.87084
1.52416
1.26334
1.0601
0.894756
0.755311
0.6354
0.532114
0.444205
0.370433
0.309835
0.261884
2.45998
1.93756
1.85553
2.0069
2.33609
2.79999
3.30663
3.64931
3.66762
3.34809
2.70448
2.10414
1.65181
1.32897
1.09459
0.914167
0.764932
0.637735
0.528883
0.436149
0.357596
0.291764
0.238107
0.201162
2.34151
2.04969
2.06471
2.3268
2.78371
3.3744
3.91954
4.1156
3.88316
3.26845
2.47624
1.86006
1.44046
1.14891
0.934493
0.766827
0.629298
0.515391
0.42129
0.344107
0.28138
0.231108
0.192747
0.169371
2.30067
2.19482
2.34598
2.75199
3.37397
4.08327
4.54512
4.43943
3.92268
2.94745
2.13619
1.59111
1.23324
0.979852
0.78831
0.635142
0.510077
0.408653
0.327421
0.263372
0.21401
0.177595
0.153343
0.141525
2.2931
2.36406
2.68574
3.28895
4.10926
4.85355
4.97364
4.54786
3.5368
2.50501
1.80025
1.35514
1.05411
0.832722
0.660417
0.52258
0.412906
0.326629
0.259671
0.208679
0.171103
0.145144
0.129526
0.123064
2.29479
2.55108
3.08948
3.95552
4.95763
5.44819
5.1462
4.23173
2.96516
2.06994
1.51565
1.15533
0.896807
0.698434
0.542841
0.421682
0.328528
0.257924
0.205287
0.166944
0.140101
0.122707
0.11318
0.109983
2.30122
2.75904
3.58506
4.77217
5.77771
5.68706
4.9875
3.54878
2.42377
1.73099
1.29252
0.98491
0.753404
0.57529
0.438995
0.335938
0.259115
0.202765
0.162266
0.13402
0.115295
0.104006
0.0985983
0.0974401
2.31308
3.00977
4.22134
5.70247
6.20795
5.70537
4.29004
2.8832
2.01446
1.47504
1.10432
0.83038
0.623167
0.467081
0.350938
0.265715
0.204045
0.160125
0.129533
0.108974
0.0959842
0.0887379
0.0858625
0.0858055
2.33876
3.3422
5.04271
6.50769
6.32665
5.21921
3.50389
2.40337
1.72492
1.268
0.937059
0.691033
0.508514
0.374728
0.278027
0.209031
0.160429
0.126742
0.103959
0.0891875
0.0803082
0.075819
0.0745669
0.0750704
2.39344
3.80996
6.0211
6.83005
6.15206
4.37307
2.94461
2.06837
1.49311
1.08522
0.786584
0.568028
0.410182
0.297877
0.218948
0.164023
0.126209
0.100594
0.0837213
0.0731541
0.0671539
0.0645066
0.0642519
0.0650787
2.49709
4.47388
6.93932
6.87146
5.54664
3.68773
2.54099
1.80476
1.29173
0.920758
0.652588
0.461628
0.327883
0.23539
0.171949
0.128706
0.0994808
0.0800534
0.0675465
0.059972
0.055946
0.0544961
0.0547836
0.055832
2.66733
5.37073
7.35654
6.70025
4.75129
3.21961
2.24856
1.5846
1.11128
0.773239
0.535644
0.37176
0.26036
0.18527
0.134831
0.101024
0.0785056
0.0637551
0.0544393
0.0489776
0.0462856
0.0455903
0.0461648
0.0473238
2.91373
6.42029
7.44159
6.22674
4.18773
2.87839
2.0011
1.38395
0.946968
0.642791
0.435729
0.297328
0.20581
0.145493
0.105675
0.0793353
0.0619738
0.0507173
0.04371
0.039719
0.0379043
0.0376594
0.0383812
0.0395374
3.24363
7.35794
7.3523
5.662
3.81422
2.61335
1.78364
1.20147
0.799777
0.529586
0.351838
0.236561
0.162196
0.114111
0.0828089
0.0623028
0.0488745
0.0402139
0.0348642
0.0318778
0.0306127
0.0306012
0.0313648
0.0324732
3.69528
7.92349
7.27075
5.16391
3.50261
2.37002
1.5773
1.03245
0.668912
0.432843
0.282446
0.187506
0.127556
0.0894076
0.0648495
0.0488708
0.0384373
0.0317062
0.0275421
0.0252249
0.0242724
0.0243324
0.0250608
0.0260936
4.35026
8.20179
7.08402
4.84373
3.25926
2.14815
1.38525
0.879597
0.555007
0.351552
0.225759
0.148234
0.100167
0.0699808
0.0507175
0.0382395
0.0300893
0.0247994
0.021484
0.0195966
0.0187821
0.018796
0.0194025
0.0203344
5.18483
8.35452
6.90182
4.6423
3.02862
1.92818
1.20307
0.742038
0.45702
0.284042
0.179879
0.116988
0.0785801
0.0547139
0.0395843
0.0298091
0.0234063
0.0192044
0.0165044
0.0148843
0.0140819
0.0139335
0.0143215
0.0151021
6.15916
8.51707
6.83353
4.43257
2.7853
1.71092
1.03412
0.620837
0.374093
0.228635
0.143046
0.0922601
0.0616246
0.0427427
0.0308283
0.0231377
0.0180774
0.0147081
0.0124685
0.0110187
0.0101476
0.0097307
0.0097419
0.0102297
7.46082
8.87745
6.79656
4.19369
2.52867
1.49932
0.879754
0.515436
0.304651
0.18353
0.113657
0.0727856
0.0483662
0.0334028
0.0239861
0.0179035
0.0138777
0.0111545
0.00927639
0.00795659
0.00700177
0.00627138
0.00568722
0.00545633
9.27578
9.54639
6.68198
3.89622
2.25676
1.29587
0.740793
0.424902
0.247044
0.147064
0.0903305
0.0575202
0.0380559
0.0261736
0.0187035
0.0138694
0.0106505
0.00844258
0.00687475
0.00570678
0.004769
0.00392914
0.00307632
0.00181615
11.4579
10.3993
6.32202
3.53025
1.97728
1.10517
0.617791
0.348016
0.19963
0.117742
0.0718876
0.0455957
0.0300749
0.0206216
0.0146806
0.010831
0.00825961
0.00648622
0.00521701
0.00426289
0.00349278
0.00280933
0.00213015
0.00123433
14.2843
10.8515
5.80283
3.11581
1.69832
0.929221
0.510162
0.283287
0.160846
0.0942568
0.0573352
0.0362878
0.0238994
0.0163627
0.0116273
0.00855826
0.00650791
0.00509477
0.00408595
0.0033316
0.00272624
0.00219084
0.00166901
0.00103152
18.6596
10.8771
5.1303
2.66127
1.4278
0.770309
0.417349
0.229329
0.129321
0.075506
0.0458568
0.0290071
0.0191
0.0130734
0.00928604
0.00683135
0.00519218
0.00406372
0.00325962
0.0026593
0.00217683
0.00174952
0.00134164
0.000877947
)
;

boundaryField
{
    rotor
    {
        type            epsilonWallFunction;
        value           nonuniform List<scalar> 
144
(
2.38172
5.75679
8.80809
9.80519
10.7319
52.9032
2.38172
0.972798
0.258659
1.19892
1.47115
1.71434
1.92583
2.09721
2.2228
2.30069
2.33271
2.32425
2.28412
2.2106
2.09795
1.94802
1.7663
1.56119
1.34142
1.19287
0.263123
0.238159
0.878158
1.93218
1.93218
1.92568
3.4884
5.81436
6.60714
6.22274
1.97444
1.51923
2.42741
4.01615
5.00957
5.42969
1.97444
0.8793
0.237067
0.261643
1.19012
1.37307
1.62919
1.85265
2.03614
2.17519
2.26804
2.31453
2.31724
2.28935
2.25427
2.19964
2.11381
1.98499
1.80088
1.54907
1.21954
0.259142
0.986761
2.4083
2.4083
4.34663
6.29725
6.52331
6.16627
6.1685
1.9624
2.57811
3.12476
3.23338
2.84464
2.91011
1.9624
0.871441
0.23375
0.256157
0.271705
1.18894
1.27332
1.40167
1.50786
1.59181
1.65338
1.69389
1.71625
1.71132
1.6758
1.60969
1.51497
1.39527
1.257
0.280097
0.263782
0.23841
0.874806
1.91102
1.91102
2.16713
4.25771
6.17239
6.67077
6.22269
1.87035
1.84867
3.41568
4.73029
5.58859
6.18321
1.87035
0.862777
0.234343
0.25898
0.275496
1.21221
1.33056
1.43305
1.51137
1.56305
1.58702
1.58488
1.55611
1.50589
1.44295
1.36375
1.25944
1.1859
0.27342
0.261944
0.245403
0.22356
0.835685
1.95441
1.95441
1.98769
1.93063
1.74071
1.48472
2.20494
)
;
    }
    freestream
    {
        type            inletOutlet;
        inletValue      uniform 0.000375;
        value           nonuniform List<scalar> 
96
(
0.000375
0.000375
0.000375
0.000375
0.000375
0.000375
0.000375
0.000375
0.000375
0.000375
0.000375
0.000375
0.000375
0.000375
0.000375
0.000375
0.000375
0.000375
0.000375
0.000375
0.000375
0.000375
0.000375
0.000375
0.000375
0.000375
0.000375
0.000375
0.000375
0.000375
0.000375
0.000375
0.000375
0.000375
0.000375
0.000375
0.000375
0.000375
0.000375
0.000375
0.000375
0.000375
0.00277572
0.00588152
0.00978846
0.0145128
0.0203168
0.0274826
0.0363675
0.0474526
0.0614336
0.07931
0.102603
0.133446
0.174521
0.228639
0.298538
0.384631
0.483748
0.592682
0.72196
0.914545
1.2168
1.60528
1.87679
1.88219
1.65654
1.5076
1.50408
1.51934
1.35967
0.86776
0.416077
0.261884
0.201162
0.169371
0.141525
0.123064
0.109983
0.0974401
0.0858055
0.0750704
0.0650787
0.055832
0.0473238
0.0395374
0.0324732
0.0260936
0.0203344
0.0151021
0.0102297
0.00545633
0.000375
0.000375
0.000375
0.000375
)
;
    }
    frontAndBack
    {
        type            empty;
    }
}


// ************************************************************************* //
