/*--------------------------------*- C++ -*----------------------------------*\
  =========                 |
  \\      /  F ield         | OpenFOAM: The Open Source CFD Toolbox
   \\    /   O peration     | Website:  https://openfoam.org
    \\  /    A nd           | Version:  11
     \\/     M anipulation  |
\*---------------------------------------------------------------------------*/
FoamFile
{
    format      ascii;
    class       volScalarField;
    location    "0.8";
    object      k;
}
// * * * * * * * * * * * * * * * * * * * * * * * * * * * * * * * * * * * * * //

dimensions      [0 2 -2 0 0 0 0];

internalField   nonuniform List<scalar> 
2880
(
0.00511505
0.0240306
0.0603232
0.0999627
0.152506
0.187599
0.0187342
0.0538097
0.0994644
0.14488
0.20215
0.299683
0.022985
0.0682448
0.11734
0.166401
0.224976
0.306961
0.0251762
0.0776918
0.127425
0.176915
0.232082
0.296312
0.0289152
0.0842689
0.133413
0.181167
0.231657
0.281603
0.0320417
0.0891155
0.136847
0.181756
0.226752
0.265955
0.0346327
0.0927182
0.138511
0.180155
0.219647
0.250571
0.0366609
0.0952605
0.138808
0.177143
0.211623
0.236095
0.0381111
0.0968072
0.138042
0.17326
0.203412
0.222846
0.0389957
0.0973887
0.136377
0.16886
0.195434
0.210957
0.0393554
0.0970432
0.133979
0.164194
0.187931
0.200436
0.0392582
0.0958213
0.130994
0.159434
0.180986
0.191253
0.0388022
0.0937737
0.127534
0.154681
0.174616
0.183333
0.0379622
0.0909672
0.123673
0.149967
0.168807
0.176562
0.0366583
0.0874662
0.11943
0.145263
0.163505
0.170812
0.0348869
0.0833004
0.114783
0.140496
0.158617
0.165945
0.0326781
0.0784581
0.109642
0.135539
0.154016
0.161819
0.0300933
0.0728818
0.103843
0.130203
0.149531
0.158278
0.0272388
0.0664576
0.0971239
0.12422
0.144923
0.155137
0.0249935
0.0589774
0.089066
0.117222
0.139837
0.152201
0.0233289
0.0502108
0.0790009
0.108641
0.133666
0.149314
0.021168
0.0397972
0.0657895
0.0974199
0.125488
0.145823
0.0169278
0.0261419
0.0471774
0.0813652
0.113176
0.139129
0.004154
0.00805676
0.0239883
0.0593889
0.0939018
0.118208
0.343349
0.349542
0.300259
0.237276
0.182417
0.138292
0.10485
0.0803764
0.0627074
0.0499142
0.0405299
0.0335232
0.0281916
0.0240584
0.0207954
0.0181712
0.0160177
0.0142088
0.0126446
0.0112367
0.00989379
0.00853117
0.00711147
0.00548877
0.375096
0.346204
0.285263
0.223466
0.170123
0.127977
0.0965452
0.0738101
0.0575025
0.0457215
0.0370757
0.0306087
0.0256775
0.0218477
0.0188207
0.016386
0.014391
0.0127213
0.0112875
0.0100111
0.00881304
0.00762752
0.00644169
0.00516509
0.354889
0.326164
0.266959
0.207778
0.157149
0.117673
0.0885587
0.0676455
0.0526829
0.0418666
0.0339102
0.0279423
0.0233798
0.0198295
0.0170206
0.0147622
0.0129156
0.0113777
0.0100685
0.00891905
0.00786152
0.00684514
0.00587111
0.00488108
0.330239
0.302678
0.247038
0.19141
0.144203
0.10775
0.0810557
0.061939
0.0482547
0.0383355
0.0310134
0.0255026
0.0212782
0.0179855
0.0153792
0.013286
0.0115805
0.0101695
0.00898154
0.00795606
0.00703483
0.00617804
0.00539282
0.00463816
0.305543
0.278455
0.226895
0.175317
0.131824
0.0984675
0.0741366
0.0567156
0.0442122
0.0351127
0.028368
0.0232741
0.0193598
0.0163051
0.0138882
0.0119517
0.0103818
0.00909427
0.00802522
0.00712088
0.00633045
0.00562125
0.00500051
0.00443571
0.282275
0.255294
0.207662
0.16016
0.120345
0.0899644
0.0678415
0.051974
0.0405409
0.0321818
0.0259597
0.0212452
0.0176155
0.0147818
0.0125429
0.0107558
0.00931694
0.00815002
0.00719725
0.00641013
0.00574304
0.0051671
0.00468585
0.00427071
0.261006
0.234039
0.189959
0.14629
0.109925
0.0822882
0.0621685
0.0476963
0.037221
0.029526
0.0237752
0.0194061
0.016038
0.0134099
0.011339
0.00969472
0.0083826
0.00733299
0.00649293
0.0058175
0.00526416
0.00480517
0.00443873
0.00413861
0.241971
0.215056
0.174059
0.133847
0.100603
0.0754268
0.0570897
0.0438547
0.0342303
0.0271284
0.0218024
0.0177475
0.0146204
0.012184
0.0102715
0.00876362
0.00757351
0.00663707
0.0059048
0.00533364
0.00488241
0.00452293
0.00424819
0.00403437
0.225156
0.198471
0.160018
0.122831
0.0923425
0.0693336
0.0525632
0.0404169
0.0315451
0.0249724
0.020029
0.0162604
0.0133554
0.0110976
0.00933435
0.007956
0.00688249
0.00605398
0.00542296
0.0049468
0.0045845
0.00430706
0.0041036
0.00395328
0.210548
0.184107
0.147749
0.113161
0.0850654
0.0639437
0.0485403
0.0373487
0.0291419
0.0230411
0.0184428
0.0149352
0.0122346
0.010143
0.00851981
0.00726386
0.00630073
0.00557364
0.00503572
0.0046437
0.00435646
0.00414472
0.00399551
0.0038912
0.198015
0.171757
0.137099
0.104714
0.0786745
0.0591852
0.0449711
0.0346159
0.0269972
0.0213181
0.0170313
0.0137616
0.0112492
0.00931168
0.00781927
0.00667807
0.00581823
0.00518479
0.0047304
0.00441069
0.00418493
0.00402457
0.00391602
0.00384466
0.187382
0.161208
0.127894
0.0973504
0.0730666
0.0549856
0.0418061
0.0321855
0.0250883
0.0197869
0.0157818
0.0127291
0.0103895
0.00859441
0.00722336
0.00618879
0.00542431
0.0048756
0.00449414
0.00423477
0.00405805
0.00393714
0.00385876
0.00381075
0.178467
0.152252
0.119954
0.0909326
0.0681411
0.0512749
0.0389985
0.0300258
0.0233931
0.0184313
0.0146816
0.0118268
0.00964568
0.00798153
0.00672235
0.00578584
0.005108
0.00463426
0.00431477
0.00410436
0.00396586
0.00387482
0.00381867
0.00378694
0.171099
0.144698
0.113111
0.0853282
0.0638025
0.0479873
0.0365038
0.0281069
0.0218909
0.017236
0.0137182
0.0110441
0.00900772
0.00746342
0.00630649
0.00545904
0.00485851
0.00444955
0.00418133
0.00400965
0.00390032
0.00383155
0.00379166
0.00377107
0.165128
0.138372
0.107205
0.0804131
0.0599611
0.0450605
0.0342801
0.0264004
0.0205617
0.016186
0.0128799
0.0103705
0.00846615
0.00703082
0.00596639
0.00519857
0.00466559
0.00431121
0.00408436
0.00394264
0.00385507
0.00380244
0.00377446
0.00376108
0.160428
0.133117
0.102087
0.0760704
0.056531
0.0424361
0.0322887
0.0248804
0.0193873
0.0152677
0.0121555
0.0097966
0.00801218
0.00667522
0.00569345
0.00499554
0.00452014
0.00421051
0.00401619
0.00389716
0.00382551
0.0037844
0.00376416
0.00375513
0.156891
0.12879
0.0976159
0.0721822
0.0534289
0.0400608
0.0304953
0.0235235
0.0183509
0.0144684
0.0115349
0.0093136
0.00763787
0.00638901
0.00548006
0.00484223
0.00441457
0.00414048
0.0039709
0.00386847
0.00380803
0.00377476
0.00375887
0.00375213
0.154423
0.12525
0.0936401
0.0686298
0.0505769
0.0378873
0.0288697
0.0223091
0.0174379
0.0137769
0.0110088
0.00891359
0.00733602
0.00616533
0.00531946
0.00473194
0.00434257
0.00409562
0.00394401
0.00385304
0.00379984
0.003771
0.00375719
0.00375128
0.152921
0.122337
0.0899868
0.0652894
0.0479013
0.035873
0.0273856
0.0212197
0.0166353
0.0131832
0.0105692
0.00858947
0.00710013
0.00599795
0.00520556
0.00465883
0.00429886
0.00407153
0.00393212
0.00384835
0.00379925
0.00377179
0.00375799
0.00375149
0.152242
0.119825
0.0864488
0.062034
0.0453341
0.0339808
0.0260217
0.0202412
0.015933
0.0126792
0.010209
0.0083351
0.00692456
0.00588156
0.00513329
0.00461826
0.00427949
0.00406507
0.00393277
0.0038524
0.00380435
0.00377641
0.00376086
0.00375243
0.152133
0.117351
0.0827622
0.0587284
0.0428147
0.0321815
0.0247619
0.0193634
0.0153231
0.0122583
0.00992277
0.0081455
0.00680474
0.00581191
0.00509875
0.00460689
0.00428164
0.00407419
0.00394455
0.00386425
0.0038147
0.00378423
0.0037656
0.00375412
0.152073
0.114264
0.0785834
0.0552349
0.0402961
0.0304575
0.0235975
0.0185802
0.0148006
0.0119162
0.00970639
0.00801698
0.00673729
0.00578599
0.00509915
0.00462215
0.00430399
0.00409806
0.00396699
0.00388374
0.00383033
0.0037954
0.00377223
0.00375661
0.150084
0.109428
0.073507
0.0514464
0.0377615
0.0288085
0.0225294
0.0178913
0.0143642
0.0116509
0.00955762
0.00794719
0.00672005
0.00580145
0.00513349
0.0046643
0.00434643
0.00413687
0.00400046
0.00391129
0.00385168
0.00381042
0.00378127
0.00376036
0.141345
0.101136
0.067183
0.0473616
0.0352464
0.0272576
0.021569
0.0173017
0.0140159
0.0114627
0.00947594
0.00793524
0.00675182
0.00585879
0.00520166
0.00473322
0.00440977
0.00419173
0.00404614
0.00394803
0.00387977
0.00383021
0.00379355
0.00376607
0.00424194
0.00632287
0.0165749
0.0409364
0.0713051
0.102808
0.0169349
0.0230781
0.0375832
0.0621963
0.0847203
0.0953032
0.0210557
0.0355288
0.0524683
0.073513
0.0855354
0.0884284
0.0231768
0.0449114
0.0623667
0.0775096
0.0835428
0.0809985
0.024926
0.0525179
0.0689717
0.0786917
0.0809056
0.0745793
0.0275929
0.0586025
0.0733285
0.0794057
0.0788321
0.0699748
0.0308509
0.0634094
0.0765293
0.0804785
0.0775401
0.0671978
0.0336095
0.067348
0.0793459
0.081972
0.0772733
0.0661084
0.0357944
0.0707096
0.0821554
0.0839486
0.077864
0.0663803
0.0374064
0.0736704
0.0851501
0.0865034
0.0796748
0.0680047
0.0384632
0.0763149
0.0884068
0.0896841
0.0825804
0.0709878
0.0389857
0.0786502
0.0919149
0.0935101
0.0865513
0.0752009
0.0390142
0.0806149
0.095578
0.0979411
0.0915707
0.0806573
0.0386969
0.0820924
0.0992393
0.10289
0.0976118
0.0873971
0.0382976
0.0828866
0.102703
0.108239
0.104553
0.09547
0.0376736
0.0828547
0.105726
0.113795
0.112206
0.104888
0.0366838
0.0818062
0.107989
0.119216
0.120388
0.115507
0.0351743
0.0795761
0.109115
0.123992
0.128843
0.126923
0.0329602
0.0760359
0.108796
0.127488
0.1368
0.139031
0.0298077
0.0711009
0.106604
0.128799
0.143043
0.151418
0.0254137
0.0646098
0.101781
0.127097
0.145685
0.162468
0.0229961
0.0560459
0.0932726
0.120274
0.142496
0.168856
0.0189789
0.0439288
0.0781961
0.104233
0.128622
0.163214
0.00515604
0.0180597
0.043023
0.0663822
0.0875255
0.116547
0.120729
0.0878217
0.0598302
0.0431964
0.0328525
0.0258515
0.0207377
0.0168221
0.0137614
0.0113549
0.00946292
0.00798203
0.00683398
0.00595801
0.00530457
0.00483045
0.00449585
0.00426459
0.00410591
0.00399567
0.00391615
0.00385617
0.00381029
0.00377473
0.0995275
0.0738145
0.0526358
0.0393352
0.0307187
0.0246475
0.0200628
0.0164672
0.0136087
0.011332
0.00952118
0.00808924
0.00696737
0.00610076
0.00544422
0.00495838
0.00460727
0.00435807
0.00418225
0.00405648
0.00396291
0.00389017
0.00383282
0.00378747
0.0830835
0.0623753
0.0464909
0.0360827
0.0289632
0.0236968
0.0195706
0.0162531
0.0135694
0.0114
0.00965504
0.00826019
0.00715501
0.00628998
0.00562376
0.00512045
0.00474764
0.00447578
0.00427861
0.00413367
0.00402281
0.00393414
0.00386168
0.00380467
0.0708888
0.053922
0.0417967
0.0335932
0.0276554
0.0230353
0.0192834
0.0161937
0.01365
0.0115661
0.00987015
0.00849968
0.0074014
0.00653022
0.00584798
0.00532175
0.00492223
0.00462288
0.00439969
0.00423114
0.00409866
0.00398978
0.00389866
0.00382709
0.062409
0.0481379
0.0385528
0.0318949
0.0268192
0.0226836
0.0192182
0.0163021
0.0138625
0.0118386
0.0101734
0.00881401
0.00771259
0.00682757
0.00612324
0.00556895
0.00513787
0.00480601
0.00455152
0.00435393
0.00419451
0.00406076
0.00394824
0.00385764
0.056956
0.044571
0.0366021
0.0309493
0.0264546
0.0226529
0.0193879
0.01659
0.0142168
0.0122263
0.010573
0.00921072
0.00809589
0.0071893
0.00645691
0.00586956
0.00540217
0.00503276
0.00474141
0.00450887
0.00431658
0.00415253
0.0040138
0.00389849
0.0539525
0.0427923
0.0357629
0.0307016
0.0265353
0.0229487
0.0198033
0.0170684
0.0147234
0.0127391
0.011078
0.00969853
0.00855964
0.00762352
0.00685698
0.0062316
0.00572325
0.00531133
0.00497748
0.00470369
0.00447176
0.00427046
0.00409894
0.00395137
0.0529242
0.04247
0.035847
0.0310314
0.0270748
0.023581
0.020476
0.0177496
0.0153941
0.0133882
0.011699
0.0102873
0.00911321
0.00813918
0.00733213
0.00666364
0.00610982
0.00565067
0.00526885
0.00494728
0.00466806
0.00442094
0.00420801
0.00401845
0.0533122
0.0431525
0.0367378
0.0320225
0.0280717
0.0245602
0.0214198
0.0186481
0.016243
0.0141869
0.0124483
0.0109884
0.00976708
0.00874614
0.00789177
0.00717487
0.00657106
0.0060602
0.00562521
0.00524935
0.00491461
0.00461164
0.00434646
0.00410234
0.0550893
0.0450247
0.0384715
0.0336123
0.029532
0.0259029
0.0226536
0.0197822
0.0172872
0.0151506
0.0133399
0.0118147
0.0105331
0.00945532
0.00854611
0.00777504
0.00711653
0.00654957
0.00605648
0.00562004
0.00522132
0.0048513
0.00452078
0.00420611
0.0581431
0.0478695
0.0409782
0.0358151
0.03148
0.0276361
0.0242035
0.0211757
0.0185479
0.0162983
0.0143906
0.0127811
0.0114246
0.0102789
0.00930634
0.00847455
0.00775617
0.00712852
0.00657253
0.00606946
0.00559836
0.00514935
0.00473826
0.00433312
0.0623734
0.0516976
0.0442919
0.0386735
0.0339592
0.0298002
0.0261054
0.0228601
0.0200521
0.0176531
0.0156205
0.0139051
0.0124571
0.0112306
0.0101849
0.00928476
0.00850047
0.00780704
0.00718313
0.00660748
0.00605573
0.00551542
0.00500661
0.00448669
0.0678208
0.0565793
0.0484903
0.0422618
0.0370358
0.0324527
0.0284083
0.0248762
0.0218342
0.0192439
0.017054
0.0152076
0.0136488
0.0123266
0.0111959
0.0102184
0.00936099
0.00859577
0.00789834
0.00724392
0.00660328
0.00595909
0.00533359
0.00466941
0.0745869
0.0626401
0.0536944
0.046688
0.0408031
0.0356725
0.0311775
0.0272781
0.0239384
0.0211072
0.0187215
0.0167144
0.0150218
0.0135859
0.0123565
0.0112907
0.0103514
0.00950712
0.00872959
0.00798954
0.00725151
0.00649052
0.00572721
0.00488233
0.0828114
0.0700502
0.0600659
0.0520962
0.0453855
0.0395643
0.0344998
0.0301364
0.026422
0.0232897
0.0206616
0.0184578
0.0166036
0.0150328
0.0136882
0.0125211
0.0114897
0.0105576
0.00969216
0.00885858
0.00801402
0.00712282
0.00619761
0.00512438
0.092641
0.079004
0.0677985
0.0586648
0.0509406
0.0442631
0.0384878
0.0335434
0.0293602
0.0258523
0.022924
0.0204793
0.0184301
0.0166991
0.0152202
0.0139374
0.0128024
0.0117733
0.0108114
0.00987556
0.00891464
0.0078794
0.00676401
0.00539443
0.104184
0.089686
0.0770952
0.0665948
0.0576564
0.0499367
0.0432855
0.0376191
0.0328508
0.0288746
0.025574
0.0228336
0.0205486
0.0186276
0.0169933
0.0155804
0.0143326
0.0132003
0.0121372
0.0110938
0.0100095
0.00881859
0.00747994
0.00571091
0.117476
0.102209
0.0881215
0.0760801
0.0657357
0.0567805
0.0490697
0.042516
0.0370211
0.0324611
0.0286973
0.0255924
0.0230211
0.0208753
0.0190639
0.0175103
0.016149
0.0149218
0.0137731
0.0126436
0.011461
0.0101364
0.0085642
0.00633314
0.13209
0.116501
0.100919
0.0872455
0.0753574
0.0649977
0.0560433
0.0484202
0.0420328
0.0367472
0.0324058
0.0288483
0.0259269
0.0235139
0.0215023
0.0198035
0.0183436
0.0170591
0.0158919
0.0147843
0.0136722
0.0125018
0.0113784
0.011021
0.146986
0.132277
0.115273
0.100037
0.0865983
0.0747499
0.0644092
0.0555423
0.0480819
0.0419037
0.0368425
0.0327191
0.0293632
0.0266251
0.0243804
0.0225286
0.0209906
0.0197064
0.0186344
0.0177504
0.0170425
0.0165348
0.0164454
0.0173171
0.160954
0.148338
0.130429
0.114043
0.099305
0.0860664
0.0743122
0.0640853
0.0553863
0.0481358
0.0421858
0.0373522
0.0334466
0.0302982
0.027763
0.0257272
0.0241067
0.0228468
0.021922
0.0213323
0.0210923
0.0212456
0.0219677
0.0234829
0.17172
0.161902
0.144743
0.128267
0.112916
0.0987035
0.0857346
0.0741756
0.0641472
0.055667
0.0486476
0.0429297
0.0383235
0.0346424
0.0317242
0.0294409
0.0277021
0.0264555
0.0256829
0.0253893
0.0255659
0.0262361
0.0275379
0.0294261
0.171275
0.166885
0.155508
0.140956
0.126292
0.111979
0.098347
0.0857447
0.0744677
0.0646922
0.0564535
0.0496678
0.0441781
0.0398014
0.036365
0.0337288
0.0317958
0.0305118
0.0298565
0.0298229
0.0303319
0.0314467
0.033174
0.0353484
0.152593
0.162654
0.159069
0.149838
0.137702
0.12466
0.111356
0.0983717
0.0862173
0.0752804
0.0657846
0.05779
0.0512294
0.0459625
0.0418285
0.0386856
0.0364327
0.0350124
0.034397
0.0345355
0.035319
0.0367967
0.0388782
0.0413124
0.00420693
0.0106887
0.0213013
0.0328414
0.0403015
0.0548122
0.0167684
0.0285623
0.0437784
0.0559693
0.0639188
0.0795775
0.0207524
0.0369727
0.0547415
0.067492
0.0770979
0.0912847
0.0227421
0.0427182
0.0621934
0.0756363
0.0863209
0.0996898
0.0240893
0.0474683
0.0681385
0.0823663
0.0939755
0.107016
0.0249174
0.0518632
0.0732797
0.0883511
0.100854
0.11385
0.0261976
0.0559603
0.0778796
0.0938523
0.107275
0.120435
0.0278954
0.0596323
0.0820128
0.0989675
0.113375
0.12691
0.0292889
0.0627801
0.0856816
0.103716
0.119196
0.133305
0.0303687
0.0653624
0.0888727
0.108085
0.124724
0.139565
0.0311493
0.0673594
0.0915687
0.112044
0.129906
0.145591
0.0316584
0.0687486
0.0937445
0.115546
0.134672
0.151258
0.0319384
0.0694931
0.0953631
0.118528
0.138934
0.156435
0.0318791
0.0695781
0.0963721
0.120914
0.142601
0.161007
0.031438
0.0689949
0.0966816
0.12261
0.145576
0.164878
0.030607
0.0676829
0.0962367
0.123502
0.147757
0.167983
0.0293948
0.0655685
0.0948915
0.123448
0.149028
0.170287
0.0278297
0.0625481
0.0924866
0.122266
0.149229
0.1718
0.026022
0.0584771
0.088807
0.119709
0.148154
0.172392
0.0248705
0.0531359
0.0835442
0.115421
0.145416
0.17184
0.0233263
0.0464318
0.0762143
0.108853
0.14037
0.16969
0.0211591
0.0378348
0.0659469
0.0990874
0.131778
0.164668
0.0168387
0.0257472
0.0507444
0.0842812
0.117177
0.152138
0.00409909
0.00900754
0.0290954
0.0627756
0.0946116
0.118837
0.147556
0.159143
0.158813
0.154332
0.145694
0.135248
0.123514
0.111165
0.0988704
0.0872202
0.0766592
0.0674526
0.0596939
0.0533473
0.0483077
0.0444575
0.0417048
0.0399938
0.0392892
0.0394936
0.0404591
0.04222
0.0446117
0.0473014
0.14996
0.167437
0.163396
0.15784
0.150919
0.142944
0.133545
0.12287
0.111431
0.0998591
0.0887569
0.0785983
0.0696859
0.0621563
0.0560242
0.0512439
0.0477635
0.0455478
0.0445652
0.0447061
0.0457109
0.0476677
0.0503239
0.0532707
0.141766
0.183785
0.179307
0.167762
0.157706
0.149368
0.141323
0.132508
0.12269
0.112113
0.101287
0.0907712
0.0810431
0.0724379
0.0651471
0.0592587
0.0548117
0.0518312
0.0503197
0.0502182
0.0510942
0.0530962
0.0559564
0.0591631
0.135899
0.185902
0.197799
0.189657
0.173068
0.159507
0.149313
0.140651
0.132047
0.122885
0.113107
0.10304
0.0931512
0.0838936
0.0756304
0.0686198
0.0630451
0.0590468
0.0567187
0.0560669
0.0566783
0.0585054
0.0614682
0.0649214
0.134912
0.180629
0.207635
0.208472
0.198549
0.179734
0.163276
0.150742
0.140898
0.132098
0.123352
0.11428
0.104967
0.0957437
0.0870134
0.0791569
0.0725073
0.0673558
0.063943
0.0624008
0.0625574
0.0639302
0.0668238
0.0704839
0.13664
0.174502
0.207206
0.221429
0.219069
0.20687
0.186966
0.168332
0.153426
0.141987
0.132587
0.123982
0.11548
0.10689
0.0983677
0.0902358
0.0828806
0.0767069
0.0721105
0.069412
0.0687546
0.0695618
0.0719898
0.0757774
0.140186
0.17151
0.203295
0.225237
0.232906
0.228691
0.215202
0.19482
0.174506
0.157308
0.14394
0.133508
0.124709
0.116579
0.108637
0.10083
0.0933711
0.0866289
0.081063
0.0771544
0.0752877
0.0754333
0.077079
0.0807781
0.144977
0.171527
0.200165
0.224427
0.239375
0.242807
0.237607
0.223678
0.203124
0.181569
0.162301
0.146827
0.134946
0.125551
0.117507
0.110071
0.102952
0.0962206
0.0901955
0.0853588
0.0822475
0.081371
0.0822801
0.0854089
0.150578
0.173893
0.199318
0.222858
0.240897
0.250854
0.251637
0.245983
0.2319
0.211421
0.189167
0.168269
0.150749
0.137113
0.12668
0.118343
0.111165
0.104625
0.0986173
0.0933673
0.0893327
0.0871802
0.0873807
0.089702
0.156617
0.177791
0.200452
0.222279
0.240742
0.253881
0.260251
0.259688
0.253422
0.239188
0.219312
0.197039
0.175137
0.155877
0.140379
0.128516
0.119427
0.11213
0.105923
0.100511
0.0959834
0.0927565
0.091976
0.093544
0.162765
0.182475
0.202848
0.22267
0.240317
0.254359
0.263748
0.267693
0.266211
0.259399
0.245441
0.226608
0.204925
0.182771
0.16239
0.145255
0.131772
0.121485
0.11357
0.107249
0.102099
0.0980414
0.09593
0.0968233
0.168715
0.187294
0.205657
0.223425
0.239611
0.253334
0.263847
0.270478
0.272774
0.27075
0.263708
0.250591
0.233092
0.212658
0.191172
0.170573
0.152392
0.137401
0.125612
0.116546
0.109513
0.103973
0.0999704
0.099989
0.174206
0.191728
0.208135
0.223743
0.238161
0.250857
0.26139
0.269295
0.274072
0.275297
0.273073
0.266397
0.254586
0.238935
0.220494
0.200605
0.180785
0.162397
0.146375
0.133085
0.122436
0.114052
0.10724
0.104875
0.179032
0.195384
0.209736
0.223067
0.235456
0.246706
0.256587
0.264799
0.270967
0.274668
0.275416
0.273206
0.267453
0.257727
0.244538
0.228676
0.211126
0.192994
0.175345
0.159032
0.14462
0.13229
0.121876
0.11585
0.183054
0.198
0.210067
0.221001
0.2312
0.24076
0.249602
0.257522
0.264228
0.269358
0.27247
0.273207
0.271348
0.26671
0.259323
0.249155
0.236407
0.221692
0.205856
0.189691
0.173947
0.15917
0.14596
0.136759
0.186182
0.199425
0.209031
0.217416
0.225352
0.233139
0.240765
0.248056
0.254739
0.260479
0.264916
0.267615
0.268413
0.26705
0.26337
0.257468
0.249626
0.23991
0.228488
0.215719
0.202066
0.188111
0.17511
0.165602
0.188369
0.199613
0.206563
0.212354
0.218065
0.224123
0.230527
0.237066
0.243422
0.249239
0.254143
0.257806
0.259866
0.260372
0.259099
0.255955
0.250913
0.244178
0.236013
0.226742
0.216822
0.206759
0.197555
0.190671
0.189586
0.198542
0.202721
0.205967
0.209564
0.214014
0.219276
0.225088
0.231056
0.236737
0.241704
0.245599
0.248082
0.249112
0.248729
0.246777
0.24334
0.238542
0.232544
0.225563
0.21792
0.210256
0.20347
0.197762
0.189868
0.196235
0.197599
0.198447
0.200086
0.203046
0.207257
0.212393
0.218009
0.223557
0.228534
0.232508
0.235081
0.236198
0.236002
0.234318
0.231292
0.227093
0.221915
0.215982
0.209604
0.203256
0.197478
0.191757
0.189148
0.192876
0.191303
0.190029
0.189911
0.191494
0.194701
0.199161
0.204421
0.209911
0.215008
0.219183
0.222015
0.223341
0.223394
0.221971
0.21924
0.215389
0.210624
0.205154
0.19923
0.193184
0.187292
0.181284
0.187383
0.188485
0.184095
0.180825
0.179418
0.179684
0.181852
0.18554
0.190315
0.195591
0.200623
0.204798
0.207804
0.209499
0.210019
0.209288
0.207403
0.204507
0.200815
0.196527
0.191839
0.186903
0.181683
0.17638
0.184463
0.182886
0.176195
0.171419
0.168964
0.168248
0.169338
0.172013
0.175813
0.180179
0.184273
0.187253
0.189226
0.190317
0.190647
0.190231
0.189143
0.18735
0.18506
0.182419
0.179541
0.17643
0.172885
0.169124
0.179252
0.175987
0.168055
0.162623
0.15967
0.158591
0.159257
0.161694
0.164417
0.166241
0.166953
0.166609
0.165028
0.163305
0.161712
0.160177
0.158543
0.156723
0.154745
0.15269
0.150643
0.148607
0.146553
0.144274
0.169913
0.168204
0.160674
0.155707
0.153382
0.153086
0.155203
0.158733
0.161215
0.161297
0.15623
0.149076
0.142385
0.136826
0.132487
0.128851
0.125433
0.121934
0.118304
0.114619
0.111043
0.107535
0.104368
0.100804
0.0040093
0.00765856
0.0232177
0.0479409
0.0790505
0.117613
0.0165999
0.0236784
0.0438225
0.067465
0.0945386
0.128438
0.0207972
0.0346773
0.0572918
0.0809348
0.107114
0.136625
0.0229819
0.0425963
0.0663438
0.0898634
0.114884
0.140207
0.0244461
0.0486842
0.0726794
0.0957818
0.119477
0.141934
0.0253095
0.0535014
0.0770227
0.0994465
0.121859
0.142708
0.0269303
0.0569538
0.0798231
0.101349
0.122537
0.142532
0.0282961
0.0593176
0.0813861
0.101834
0.12192
0.141237
0.0293182
0.0607752
0.0819318
0.101241
0.120031
0.138861
0.0299832
0.0614573
0.081669
0.0995999
0.117137
0.135522
0.0302895
0.0614571
0.080637
0.0971538
0.113406
0.131405
0.0302624
0.060845
0.0789807
0.0940421
0.108997
0.126715
0.0298951
0.0596675
0.0767855
0.0903857
0.104057
0.121658
0.0292474
0.0579397
0.0741178
0.0862884
0.0987176
0.116418
0.0284255
0.0556444
0.0710247
0.0818381
0.0930865
0.111133
0.0273742
0.0527817
0.067536
0.0771066
0.0872513
0.105882
0.0259892
0.0493436
0.063671
0.0721512
0.081297
0.100644
0.0248803
0.0454498
0.059462
0.0670157
0.0753531
0.0954703
0.024246
0.0414535
0.0549665
0.0617162
0.069458
0.0906237
0.0232524
0.0376055
0.0502135
0.0562181
0.0635313
0.0860298
0.021784
0.0337127
0.0450653
0.0503816
0.0572504
0.081477
0.0198431
0.0292945
0.0390229
0.0438043
0.0498489
0.0762322
0.0160763
0.0229207
0.0305776
0.0352872
0.0395873
0.0686471
0.00418664
0.00824344
0.0131763
0.01771
0.0210713
0.0416676
0.160359
0.161397
0.155785
0.152523
0.151788
0.153508
0.157788
0.162515
0.164784
0.162393
0.152922
0.140909
0.130591
0.123078
0.117857
0.113616
0.109388
0.104776
0.0997817
0.0945402
0.0892509
0.0839004
0.078724
0.0741164
0.156174
0.158279
0.155199
0.154213
0.156005
0.16096
0.167868
0.173451
0.173873
0.167337
0.151994
0.136324
0.124349
0.116218
0.110757
0.106347
0.101806
0.0968361
0.0915002
0.0859722
0.0804614
0.0750932
0.0702054
0.0668348
0.155724
0.159191
0.15867
0.16084
0.16637
0.174719
0.183359
0.187421
0.184236
0.169658
0.148857
0.131281
0.119611
0.112511
0.107601
0.1032
0.0985095
0.0933837
0.0879432
0.082397
0.0769744
0.0720741
0.0682054
0.0659267
0.156886
0.162917
0.166171
0.172278
0.181572
0.192565
0.200748
0.200616
0.189368
0.166497
0.143249
0.126869
0.117295
0.111211
0.106411
0.101715
0.096589
0.0911386
0.0856193
0.0802998
0.0754377
0.0713554
0.0684958
0.0674571
0.159047
0.168545
0.176105
0.18649
0.199362
0.211358
0.215661
0.20748
0.187055
0.159099
0.137184
0.124122
0.116406
0.110608
0.105242
0.0996187
0.0937404
0.0879342
0.0825215
0.077789
0.0740049
0.0714494
0.0703001
0.0704735
0.16109
0.174523
0.186931
0.201829
0.21751
0.227396
0.223417
0.207707
0.176545
0.149292
0.132287
0.122602
0.11574
0.109479
0.103099
0.0965471
0.0901973
0.0844158
0.0795059
0.0757166
0.0732463
0.0722328
0.0724261
0.0733286
0.162288
0.180005
0.197674
0.217114
0.23373
0.23577
0.224761
0.195931
0.163676
0.142399
0.130173
0.121865
0.114496
0.1071
0.0996935
0.092647
0.0863219
0.0810183
0.0769589
0.0742789
0.0730093
0.0730483
0.0740022
0.0754608
0.162395
0.184668
0.208048
0.231495
0.243758
0.238055
0.215498
0.179708
0.154128
0.13905
0.128963
0.120261
0.111713
0.103271
0.095292
0.0881507
0.0821626
0.077551
0.0744274
0.0727812
0.0724853
0.0731301
0.0746134
0.0762193
0.161434
0.188721
0.218346
0.243887
0.246758
0.232309
0.198014
0.168029
0.149654
0.137466
0.127208
0.117306
0.107618
0.0984827
0.0902861
0.083346
0.0778847
0.074017
0.0717385
0.0709322
0.0712763
0.0725129
0.0744006
0.0761153
0.15966
0.192804
0.228901
0.250079
0.244449
0.217765
0.183704
0.16186
0.147468
0.135545
0.124127
0.112991
0.102487
0.0930246
0.0849228
0.0783896
0.0735333
0.0703605
0.0687703
0.0685687
0.0693156
0.0709617
0.0730251
0.0747777
0.157481
0.197786
0.239447
0.250706
0.235401
0.201442
0.17622
0.159442
0.1457
0.132581
0.119756
0.10763
0.0966682
0.0872009
0.0794097
0.0733741
0.0690961
0.0664969
0.065414
0.0655771
0.0666232
0.0684514
0.0705677
0.0723018
0.155363
0.204384
0.246606
0.245165
0.221356
0.192752
0.17349
0.157937
0.143052
0.12834
0.11431
0.101562
0.0904846
0.0812485
0.073884
0.0683515
0.0645673
0.0623958
0.0616437
0.0619982
0.0632147
0.0650825
0.0671719
0.068857
0.153759
0.212835
0.248023
0.237468
0.210572
0.189594
0.172464
0.155946
0.139237
0.123014
0.108122
0.0951065
0.084176
0.0753191
0.0684232
0.0633494
0.0599513
0.0580621
0.0574824
0.0579107
0.0591535
0.0609684
0.062975
0.064594
0.153006
0.222072
0.244269
0.228063
0.206972
0.189157
0.171507
0.152933
0.134301
0.116873
0.101494
0.0885093
0.0779099
0.0695095
0.0630748
0.0583903
0.0552685
0.0535308
0.0529893
0.0533848
0.0545363
0.0562228
0.058104
0.0596482
0.153022
0.229732
0.23728
0.223588
0.206898
0.18959
0.169831
0.148793
0.128454
0.110207
0.0946809
0.0819533
0.0717975
0.0638785
0.0578693
0.0534992
0.0505545
0.0488573
0.0482407
0.0485038
0.0494624
0.0509505
0.0526665
0.0541296
0.152957
0.233958
0.233742
0.222983
0.209819
0.190094
0.167129
0.143627
0.121954
0.103275
0.0878797
0.0755635
0.0659078
0.0584617
0.0528306
0.048706
0.0458581
0.0441129
0.0433268
0.0433609
0.044032
0.0452436
0.0467454
0.0481172
0.150807
0.234842
0.233278
0.226604
0.213504
0.189781
0.163182
0.137575
0.115033
0.096279
0.0812304
0.0694233
0.0602863
0.0532857
0.0479841
0.0440493
0.0412402
0.039385
0.0383576
0.0380555
0.0383585
0.0391804
0.0403869
0.0416399
0.14562
0.234891
0.23773
0.233499
0.216111
0.187701
0.158003
0.130874
0.107919
0.0893845
0.0748356
0.063592
0.0549683
0.0483788
0.0433634
0.039578
0.0367738
0.034775
0.0334602
0.032743
0.0325548
0.0328353
0.0335769
0.0346265
0.142091
0.237346
0.247412
0.241915
0.217546
0.18425
0.151914
0.123781
0.100797
0.082709
0.068766
0.0581137
0.0499885
0.0437774
0.0390141
0.0353534
0.0325424
0.0303973
0.0287852
0.0276091
0.026796
0.0263128
0.0262429
0.0267965
0.148266
0.246207
0.260307
0.249945
0.217178
0.179355
0.145065
0.116463
0.0937888
0.0763304
0.0630692
0.0530234
0.0453826
0.0395263
0.0349949
0.0314505
0.0286419
0.0263779
0.0245063
0.022896
0.0214187
0.0199525
0.0184658
0.0174692
0.168833
0.262795
0.274961
0.254636
0.213887
0.173072
0.137632
0.109061
0.0869858
0.0702991
0.0577745
0.0483452
0.0411814
0.0356711
0.0313709
0.0279572
0.0251878
0.0228729
0.0208523
0.0189736
0.0170678
0.014927
0.0122708
0.00811896
0.195923
0.28534
0.289627
0.256651
0.209302
0.165817
0.129805
0.101684
0.0804454
0.0646408
0.0528907
0.0440837
0.0373952
0.0322354
0.0281847
0.0249408
0.022279
0.0200257
0.0180384
0.016188
0.0143421
0.0123552
0.0100444
0.00678486
0.229203
0.311956
0.300356
0.254284
0.202363
0.157474
0.121645
0.0943947
0.0742014
0.0593613
0.0484058
0.0402184
0.0340005
0.0291947
0.0254107
0.0223704
0.0198702
0.017755
0.0159007
0.0141974
0.0125312
0.0107793
0.00881892
0.00625891
0.276295
0.337882
0.304837
0.247425
0.19327
0.148222
0.113277
0.0872665
0.0682805
0.0544555
0.0442953
0.0367119
0.0309496
0.0264894
0.0229725
0.0201447
0.0178212
0.0158627
0.0141582
0.0126094
0.0111132
0.00956492
0.00788988
0.00584871
)
;

boundaryField
{
    rotor
    {
        type            kqRWallFunction;
        value           nonuniform List<scalar> 
144
(
0.00511505
0.0240306
0.0603232
0.0999627
0.152506
0.187599
0.00511505
0.0187342
0.022985
0.0251762
0.0289152
0.0320417
0.0346327
0.0366609
0.0381111
0.0389957
0.0393554
0.0392582
0.0388022
0.0379622
0.0366583
0.0348869
0.0326781
0.0300933
0.0272388
0.0249935
0.0233289
0.021168
0.0169278
0.004154
0.004154
0.00805676
0.0239883
0.0593889
0.0939018
0.118208
0.00424194
0.00632287
0.0165749
0.0409364
0.0713051
0.102808
0.00424194
0.0169349
0.0210557
0.0231768
0.024926
0.0275929
0.0308509
0.0336095
0.0357944
0.0374064
0.0384632
0.0389857
0.0390142
0.0386969
0.0382976
0.0376736
0.0366838
0.0351743
0.0329602
0.0298077
0.0254137
0.0229961
0.0189789
0.00515604
0.00515604
0.0180597
0.043023
0.0663822
0.0875255
0.116547
0.00420693
0.0106887
0.0213013
0.0328414
0.0403015
0.0548122
0.00420693
0.0167684
0.0207524
0.0227421
0.0240893
0.0249174
0.0261976
0.0278954
0.0292889
0.0303687
0.0311493
0.0316584
0.0319384
0.0318791
0.031438
0.030607
0.0293948
0.0278297
0.026022
0.0248705
0.0233263
0.0211591
0.0168387
0.00409909
0.00409909
0.00900754
0.0290954
0.0627756
0.0946116
0.118837
0.0040093
0.00765856
0.0232177
0.0479409
0.0790505
0.117613
0.0040093
0.0165999
0.0207972
0.0229819
0.0244461
0.0253095
0.0269303
0.0282961
0.0293182
0.0299832
0.0302895
0.0302624
0.0298951
0.0292474
0.0284255
0.0273742
0.0259892
0.0248803