/*--------------------------------*- C++ -*----------------------------------*\
  =========                 |
  \\      /  F ield         | OpenFOAM: The Open Source CFD Toolbox
   \\    /   O peration     | Website:  https://openfoam.org
    \\  /    A nd           | Version:  11
     \\/     M anipulation  |
\*---------------------------------------------------------------------------*/
FoamFile
{
    format      ascii;
    class       volScalarField;
    location    "0.8";
    object      nut;
}
// * * * * * * * * * * * * * * * * * * * * * * * * * * * * * * * * * * * * * //

dimensions      [0 2 -1 0 0 0 0];

internalField   nonuniform List<scalar> 
2880
(
9.88672e-07
9.02801e-06
3.71817e-05
9.17196e-05
0.000195047
5.9872e-05
3.24706e-05
0.000101853
0.000215851
0.000369258
0.000564792
0.000564498
0.000183825
0.000213419
0.00041433
0.000657578
0.000938619
0.00111784
4.75808e-05
0.000302236
0.000584526
0.000898377
0.00124031
0.00154611
5.11491e-05
0.000369138
0.000721994
0.00109111
0.00148038
0.00184395
5.38986e-05
0.000419542
0.000830979
0.00124315
0.00166459
0.00205425
5.6053e-05
0.000459764
0.000913728
0.00136053
0.00180344
0.00220341
5.76776e-05
0.000492105
0.000974229
0.00144703
0.00190457
0.0023073
5.8809e-05
0.000517569
0.00101628
0.00150652
0.00197376
0.00237581
5.94865e-05
0.000536286
0.00104127
0.00154183
0.00201532
0.00241622
5.97573e-05
0.00054777
0.0010502
0.00155475
0.00203234
0.00243216
5.96789e-05
0.000551137
0.00104324
0.00154651
0.00202619
0.00242589
5.93247e-05
0.000545243
0.00102035
0.00151773
0.00199748
0.00239915
5.86725e-05
0.000529791
0.000981538
0.00146806
0.0019468
0.00235262
5.76491e-05
0.000505183
0.000925854
0.00139546
0.00187291
0.00228603
5.62308e-05
0.000471786
0.00085625
0.00130453
0.00177617
0.00219587
5.44116e-05
0.000429955
0.000772305
0.00119242
0.00165737
0.00208473
5.22067e-05
0.000380266
0.000674872
0.00105937
0.0015117
0.00194528
4.97798e-05
0.000323674
0.000565468
0.000906414
0.00133539
0.00176978
4.71306e-05
0.000261474
0.000446682
0.000735713
0.00112415
0.00154614
0.000186153
0.000195104
0.000322584
0.000551723
0.00087583
0.00125888
0.00016933
0.000124624
0.000198817
0.000361989
0.000600034
0.000895784
2.93676e-05
5.10683e-05
8.49173e-05
0.000181115
0.000326217
0.000489887
8.03762e-07
3.03374e-06
1.48462e-05
5.45948e-05
0.000120109
0.000202095
0.000471041
0.00127794
0.00196141
0.00231341
0.00254339
0.00272917
0.0029215
0.00314543
0.00340718
0.00370157
0.00401779
0.00434264
0.00466148
0.00495805
0.00521443
0.00541179
0.00553222
0.00556091
0.00548818
0.00531009
0.00502727
0.00464246
0.00415844
0.00357449
0.00116876
0.00186864
0.00228096
0.00253505
0.00271543
0.00288145
0.00307061
0.00329871
0.00356557
0.00386198
0.00417495
0.00449014
0.0047923
0.00506492
0.00529041
0.0054512
0.00553182
0.0055213
0.00541485
0.00521405
0.00492499
0.00455571
0.00411523
0.0036079
0.00168192
0.00221492
0.00251573
0.00271229
0.00286475
0.00302225
0.00321346
0.00344702
0.00371776
0.00401355
0.00431996
0.00462195
0.00490384
0.00514909
0.0053406
0.00546227
0.00550136
0.0054509
0.00531116
0.00508918
0.00479609
0.00444431
0.00404712
0.00361188
0.00203615
0.00245003
0.00269585
0.00285889
0.00299704
0.00315338
0.00334967
0.00358874
0.00386155
0.00415397
0.00445067
0.00473618
0.0049946
0.00520942
0.00536424
0.00544462
0.00544082
0.00535022
0.00517838
0.0049378
0.0046442
0.00431319
0.00396043
0.00359468
0.00228104
0.00263198
0.0028402
0.00298309
0.00311565
0.00327554
0.00347841
0.00372224
0.00399509
0.00428154
0.00456574
0.00483198
0.00506424
0.00524614
0.00536209
0.00539958
0.00535221
0.00522215
0.00502063
0.00476555
0.00447648
0.00417079
0.00386438
0.00356535
0.00245648
0.00277225
0.00295629
0.00308889
0.00322216
0.00338867
0.00359867
0.00384614
0.00411705
0.00439523
0.00466461
0.00490935
0.00511334
0.00526042
0.00533595
0.00532962
0.00523892
0.00507142
0.0048444
0.00458084
0.0043029
0.00402768
0.00376887
0.00353167
0.00258558
0.00287798
0.00304901
0.00317887
0.00331741
0.0034925
0.00370956
0.00395942
0.00422664
0.00449468
0.00474744
0.00496901
0.0051432
0.00525413
0.00528826
0.00523799
0.00510539
0.00490419
0.00465787
0.00439362
0.00413412
0.00389373
0.00368165
0.00349888
0.00268096
0.00295544
0.00312213
0.00325486
0.0034019
0.00358668
0.00381043
0.00406149
0.00432358
0.00458008
0.00481495
0.00501222
0.0051556
0.00522954
0.00522195
0.00512855
0.00495693
0.00472766
0.00447015
0.00421388
0.00397937
0.00377594
0.00360707
0.00346973
0.00274752
0.00301178
0.00317866
0.00331814
0.00347587
0.00367093
0.00390089
0.00415219
0.00440809
0.00465211
0.00486831
0.00504059
0.00515259
0.0051892
0.00514024
0.00500562
0.00479951
0.00454965
0.00429011
0.00404999
0.00384484
0.00367764
0.00354641
0.00344525
0.00278886
0.00304967
0.00322044
0.00336951
0.00353943
0.00374509
0.00398083
0.00423167
0.00448073
0.00471176
0.00490893
0.00505596
0.00513641
0.00513583
0.00504661
0.00487396
0.00463949
0.00437776
0.00412524
0.00390747
0.00373315
0.00359898
0.00349885
0.00342549
0.00280822
0.00307077
0.00324861
0.00340945
0.00359263
0.00380909
0.00405037
0.0043004
0.00454235
0.00476028
0.00493841
0.00506026
0.00510932
0.00507223
0.00494478
0.00473859
0.00448317
0.0042186
0.00398066
0.00378867
0.00364389
0.00353806
0.00346263
0.00341008
0.00280829
0.00307642
0.00326394
0.00343823
0.00363543
0.00386293
0.00410978
0.00435901
0.00459396
0.00479901
0.0049584
0.0050554
0.00507363
0.00500129
0.00483859
0.00460451
0.00433624
0.00407702
0.00385885
0.00369319
0.00357476
0.00349211
0.00343573
0.00339848
0.00279076
0.00306759
0.00326694
0.00345594
0.00366762
0.0039065
0.00415937
0.00440824
0.00463666
0.00482935
0.00497053
0.0050433
0.0050316
0.00492594
0.00473191
0.00447643
0.00420323
0.00395581
0.00375985
0.00361886
0.00352263
0.00345826
0.00341622
0.00339007
0.00275668
0.00304502
0.00325792
0.00346251
0.00368857
0.0039393
0.00419936
0.00444886
0.00467157
0.00485266
0.00497638
0.00502576
0.00498549
0.00484909
0.00462846
0.00435838
0.00408716
0.00385571
0.00368203
0.00356267
0.00348439
0.00343408
0.00340224
0.00338425
0.00270662
0.0030092
0.00323705
0.00345776
0.00369678
0.00395973
0.00422982
0.00448161
0.00469981
0.00487027
0.00497745
0.00500454
0.00493748
0.00477362
0.00453165
0.00425344
0.0039895
0.00377587
0.00362277
0.00352146
0.00345715
0.00341683
0.00339297
0.00338048
0.00264066
0.00296046
0.00320435
0.00344039
0.00368998
0.0039666
0.00425089
0.0045073
0.00472245
0.0048834
0.00497513
0.00498131
0.00488973
0.00470223
0.00444436
0.00416365
0.00391038
0.00371445
0.00357921
0.00349231
0.00343857
0.00340524
0.00338731
0.00337824
0.00255721
0.00289902
0.00315986
0.00340526
0.00366805
0.0039612
0.00426322
0.00452686
0.00474056
0.0048932
0.00497067
0.00495764
0.0048443
0.00463741
0.00436889
0.00409008
0.00384904
0.00366926
0.00354859
0.00347265
0.00342654
0.00339878
0.00338414
0.00337698
0.00245822
0.00282518
0.00309976
0.00335206
0.00363166
0.00394559
0.00426668
0.00454119
0.00475512
0.00490064
0.00496518
0.00493494
0.00480305
0.00458126
0.00430684
0.004033
0.00380424
0.0036382
0.00352883
0.00346083
0.00341971
0.00339537
0.00338274
0.00337651
0.00234002
0.00273954
0.00301659
0.00328059
0.0035822
0.0039216
0.00426397
0.00455167
0.00476709
0.00490653
0.00495957
0.00491444
0.00476759
0.00453542
0.00425916
0.00399205
0.0037745
0.00361936
0.00351814
0.00345538
0.00341781
0.00339516
0.00338297
0.00337662
0.00219892
0.00263708
0.00291165
0.00319236
0.00352231
0.00389228
0.00425857
0.00456001
0.00477738
0.00491151
0.00495455
0.00489718
0.00473924
0.00450109
0.00422625
0.00396661
0.0037584
0.00361124
0.00351528
0.00345548
0.00341903
0.00339718
0.00338442
0.00337714
0.00202857
0.00250939
0.00278544
0.00309028
0.00345644
0.00386209
0.00425416
0.00456795
0.00478674
0.00491599
0.00495061
0.00488395
0.004719
0.004479
0.00420813
0.00395611
0.0037551
0.00361278
0.00351938
0.00346039
0.00342368
0.00340091
0.00338679
0.00337795
0.00181885
0.00234504
0.00263803
0.00297976
0.00339153
0.0038369
0.00425467
0.00457694
0.0047956
0.00492012
0.00494805
0.00487532
0.00470752
0.00446943
0.00420448
0.00395885
0.00376322
0.0036233
0.00353004
0.00346993
0.00343145
0.00340655
0.00339015
0.00337912
0.00153834
0.00215067
0.00247698
0.00287185
0.00333798
0.00382372
0.00426345
0.00458777
0.00480389
0.0049237
0.00494689
0.00487159
0.00470516
0.00447266
0.00421511
0.00397592
0.00378299
0.00364276
0.00354728
0.00348418
0.00344247
0.00341428
0.0033947
0.00338077
0.0012312
0.00194225
0.00232265
0.00278603
0.00330911
0.00382935
0.0042814
0.00459991
0.00481088
0.0049262
0.00494685
0.00487272
0.00471191
0.00448814
0.00423958
0.0040061
0.0038142
0.00367138
0.00357153
0.00350359
0.00345714
0.00342446
0.00340074
0.00338313
8.20218e-07
2.36836e-06
1.01859e-05
3.75536e-05
9.13445e-05
0.000175194
2.93542e-05
3.94028e-05
5.9669e-05
0.000112973
0.000190955
0.00032499
0.000168311
8.66118e-05
0.000122326
0.000200646
0.000288222
0.000509585
0.000184774
0.000128953
0.0001876
0.000272868
0.00038896
0.000675667
4.69848e-05
0.000170165
0.000248215
0.000337696
0.00049349
0.0008169
4.9905e-05
0.000210364
0.000301017
0.000405667
0.00060257
0.000937485
5.25784e-05
0.000246918
0.000349379
0.000479276
0.000708647
0.00104611
5.48748e-05
0.000279479
0.000396768
0.000554713
0.000808581
0.00114487
5.66325e-05
0.000308182
0.000443944
0.000628055
0.000893808
0.00122621
5.78947e-05
0.000332917
0.000489976
0.000696317
0.000968878
0.00129195
5.87058e-05
0.000353262
0.000532986
0.000756166
0.0010344
0.00134701
5.91005e-05
0.000368582
0.000572657
0.000810948
0.00108552
0.00137918
5.91176e-05
0.000377919
0.000604712
0.000850792
0.00112011
0.00139495
5.88685e-05
0.000380189
0.00062641
0.000877113
0.00113986
0.00139668
5.85571e-05
0.000374288
0.000636741
0.000889327
0.00114374
0.00138568
5.80716e-05
0.000361158
0.000635132
0.000887182
0.00113076
0.00136228
5.72963e-05
0.00034173
0.000621659
0.000869549
0.00110204
0.0013239
5.60963e-05
0.000317107
0.00059586
0.00083545
0.00105918
0.00126471
5.42922e-05
0.00028804
0.000556247
0.000785619
0.000997151
0.00118876
5.16214e-05
0.00025437
0.000500342
0.000712854
0.000910541
0.00109837
4.76632e-05
0.00021455
0.000423786
0.000611856
0.000790498
0.000984051
0.00018366
0.000162941
0.000318275
0.000471876
0.000625691
0.000794245
3.28528e-05
8.48134e-05
0.000175932
0.000275949
0.000390442
0.000492352
9.93493e-07
6.75323e-06
2.64541e-05
6.07964e-05
0.000111812
0.000198183
0.00111406
0.0017729
0.00222522
0.00274784
0.00331649
0.0038586
0.00430229
0.00461109
0.00481509
0.00492627
0.00494723
0.0048782
0.00472704
0.00451531
0.00427726
0.0040493
0.0038571
0.00370976
0.0036035
0.00352887
0.0034761
0.00343761
0.00340867
0.00338645
0.00114025
0.00171443
0.00219906
0.00276349
0.00335959
0.00390534
0.00432459
0.00461895
0.00481444
0.00492318
0.00494723
0.00488718
0.00474965
0.00455309
0.00432733
0.00410532
0.00391209
0.00375872
0.00364419
0.00356099
0.0035002
0.00345443
0.00341895
0.00339103
0.00118588
0.00170094
0.00222299
0.00282247
0.00342888
0.00395388
0.00434278
0.00462035
0.00480735
0.00491507
0.00494543
0.00489825
0.00477818
0.00459996
0.00438872
0.00417383
0.00397962
0.00381931
0.00369489
0.00360126
0.0035306
0.0034758
0.00343199
0.00339695
0.00123725
0.00172735
0.00228643
0.00290912
0.0035079
0.00399145
0.00435039
0.00460996
0.00479043
0.00489996
0.00494008
0.00490949
0.00481048
0.00465384
0.00445987
0.00425416
0.00406007
0.00389268
0.0037572
0.00365128
0.00356864
0.00350263
0.00344849
0.00340447
0.00130034
0.00178837
0.00237739
0.0030068
0.00357258
0.00401273
0.00434275
0.00458657
0.00476185
0.00487598
0.0049291
0.00491846
0.00484381
0.00471199
0.00453853
0.004345
0.00415326
0.00397974
0.00383269
0.00371283
0.00361587
0.00353613
0.00346949
0.00341423
0.00137703
0.00187467
0.002479
0.00309527
0.00361281
0.00401254
0.00431589
0.00454637
0.00471948
0.00484113
0.00491013
0.00492222
0.00487476
0.00477087
0.00462146
0.00444392
0.00425795
0.0040805
0.0039224
0.00378753
0.00367408
0.00357794
0.00349605
0.00342659
0.00146471
0.00197184
0.00257304
0.00315467
0.00362349
0.00398652
0.00426709
0.00448771
0.00466175
0.00479351
0.00488062
0.00491751
0.00489943
0.00482618
0.00470437
0.00454716
0.0043714
0.00419359
0.00402634
0.0038764
0.0037448
0.00362953
0.0035291
0.0034417
0.00155503
0.00206354
0.00263681
0.00317683
0.00360215
0.00393294
0.00419546
0.00440991
0.00458759
0.0047314
0.00483805
0.00490093
0.00491361
0.00487309
0.0047821
0.00464962
0.0044892
0.00431587
0.00414291
0.00397932
0.00382885
0.003692
0.00356939
0.00345954
0.00162465
0.0021224
0.00267871
0.00316334
0.00354765
0.00385241
0.0041016
0.00431311
0.00449642
0.00465339
0.00478008
0.00486923
0.00491315
0.00490656
0.00484889
0.00474517
0.00460536
0.00444216
0.00426836
0.00409419
0.00392562
0.00376558
0.00361722
0.00347981
0.00169439
0.00216983
0.00267548
0.00311232
0.00346305
0.00374743
0.00398721
0.00419808
0.00438811
0.00455842
0.00470475
0.00481952
0.0048942
0.00492177
0.0048989
0.00482709
0.00471266
0.0045654
0.00439657
0.00421642
0.0040322
0.00384882
0.00367187
0.00350166
0.00173342
0.00217829
0.00263638
0.00303042
0.00335318
0.00362154
0.00385458
0.00406604
0.0042629
0.00444586
0.00461061
0.00474951
0.00485354
0.00491447
0.00492671
0.00488874
0.00480339
0.00467729
0.00451934
0.00433874
0.00414291
0.00393781
0.00373083
0.00352317
0.00174777
0.00215726
0.00256722
0.00292431
0.00322346
0.00347865
0.00370628
0.00391846
0.00412137
0.00431553
0.00449677
0.00465758
0.0047888
0.00488131
0.00492783
0.00492425
0.00487027
0.00476929
0.00462744
0.00445197
0.00424943
0.00402577
0.00378908
0.00354081
0.00173966
0.00211129
0.0024766
0.00280094
0.00307926
0.00332259
0.00354493
0.003757
0.00396442
0.0041677
0.00436292
0.00454291
0.0046985
0.00482006
0.00489901
0.0049291
0.00490728
0.00483385
0.00471195
0.00454636
0.00434194
0.00410364
0.003839
0.00354892
0.00171308
0.00204648
0.0023719
0.00266654
0.00292542
0.00315699
0.00337315
0.0035835
0.00379327
0.00400307
0.00420937
0.00440538
0.00458212
0.00472968
0.00483848
0.00490054
0.00491038
0.00486542
0.00476578
0.00461345
0.00441101
0.00416162
0.00387119
0.00353958
0.00167288
0.00196981
0.00225932
0.00252639
0.00276625
0.00298528
0.00319363
0.00340003
0.0036095
0.00382286
0.00403701
0.00424565
0.00444009
0.0046103
0.004746
0.00483777
0.00487799
0.00486137
0.00478505
0.004648
0.00445006
0.00419187
0.00387662
0.00350356
0.00162261
0.00188648
0.00214361
0.00238476
0.00260556
0.00281077
0.00300923
0.00320903
0.00341517
0.0036288
0.00384737
0.00406509
0.00427371
0.00446323
0.0046229
0.0047421
0.00481131
0.00482271
0.0047704
0.00465009
0.00445828
0.00419207
0.00385021
0.00343224
0.00156379
0.00179938
0.00202789
0.0022449
0.00244661
0.0026367
0.00282304
0.00301339
0.00321292
0.00342329
0.0036426
0.00386578
0.00408508
0.00429081
0.00447193
0.00461696
0.00471475
0.00475506
0.00472895
0.0046284
0.00444561
0.00417205
0.00379812
0.00332203
0.00149682
0.00170922
0.00191352
0.00210884
0.00229207
0.00246618
0.00263841
0.00281649
0.00300602
0.0032094
0.00342561
0.00365046
0.00387701
0.00409612
0.00429693
0.00446756
0.00459576
0.00466943
0.00467681
0.00460601
0.00444372
0.00417297
0.00376798
0.00319716
0.00141342
0.00161386
0.00179977
0.00197706
0.0021436
0.00230186
0.00245873
0.00262214
0.00279841
0.00299099
0.00320001
0.00342249
0.00365267
0.0038824
0.00410166
0.00429904
0.00446239
0.00457926
0.00463705
0.00462241
0.00452163
0.00432965
0.00408363
0.0039383
0.00129914
0.00151101
0.00168362
0.00184805
0.00200137
0.00214548
0.002287
0.00243425
0.00259453
0.00277261
0.00297018
0.00318582
0.00341536
0.00365226
0.00388809
0.00411305
0.00431677
0.0044889
0.00461948
0.00469866
0.0047178
0.00467799
0.00461363
0.00458882
0.0011438
0.00138673
0.00155765
0.00171751
0.00186345
0.00199716
0.00212519
0.00225631
0.00239892
0.00255938
0.00274125
0.00294508
0.00316873
0.00340777
0.00365604
0.00390624
0.00415058
0.00438102
0.00458875
0.00476325
0.0048932
0.00497007
0.00502119
0.00507028
0.000955748
0.00122327
0.00141149
0.00157876
0.00172564
0.00185494
0.00197352
0.00209058
0.00221556
0.00235649
0.00251898
0.00270589
0.00291748
0.00315186
0.0034057
0.00367483
0.00395458
0.00423886
0.00451807
0.00477718
0.00499138
0.00515573
0.00528867
0.00536979
0.000694496
0.000988787
0.00123633
0.00142477
0.00158243
0.00171502
0.00183015
0.00193742
0.00204704
0.00216845
0.00230929
0.00247483
0.00266795
0.0028896
0.00313961
0.00341745
0.0037221
0.00404989
0.00439023
0.00472251
0.00500022
0.00524424
0.00543008
0.00553511
0.000369418
0.000683823
0.00100135
0.00124587
0.00142741
0.00157258
0.00169167
0.0017952
0.00189391
0.00199821
0.00211735
0.00225878
0.00242797
0.00262874
0.00286414
0.00313744
0.00345187
0.00380733
0.00419421
0.00458226
0.00492078
0.00522839
0.00546305
0.00558914
8.1168e-07
3.98836e-06
1.30689e-05
3.00212e-05
5.13876e-05
9.29152e-05
2.90395e-05
6.46906e-05
0.000119226
0.000178532
0.000234443
0.000303521
0.000165816
0.000138929
0.000234462
0.000328731
0.000412372
0.000478727
0.000181718
0.000193491
0.000325187
0.000447721
0.000552948
0.000626426
0.000192217
0.000230032
0.000395871
0.000541518
0.000665817
0.000752673
4.69991e-05
0.000251666
0.00045223
0.000617722
0.000758724
0.0008614
4.85096e-05
0.000274055
0.000497668
0.000679872
0.000835277
0.000953767
4.99646e-05
0.000297076
0.000535389
0.000731401
0.000899637
0.00103175
5.12021e-05
0.000318996
0.000566492
0.00077408
0.000954288
0.00109874
5.2144e-05
0.000338356
0.000590964
0.000808594
0.00100041
0.00115658
5.28162e-05
0.000353896
0.00060835
0.000834973
0.00103835
0.00120611
5.32518e-05
0.000364379
0.000618088
0.000852831
0.00106785
0.00124741
5.3492e-05
0.000368526
0.000619647
0.000861479
0.00108818
0.00128002
5.34469e-05
0.000366313
0.000612427
0.000859966
0.00109822
0.00130301
5.308e-05
0.000357899
0.000595552
0.000847084
0.00109637
0.001315
5.23771e-05
0.000342914
0.000568902
0.000821393
0.00108047
0.0013141
5.13308e-05
0.000320997
0.000531656
0.000781207
0.00104771
0.00129769
4.99574e-05
0.000291839
0.000483454
0.000724701
0.000994154
0.00126227
4.84828e-05
0.00025516
0.000424189
0.000650134
0.000916473
0.0012
0.000198747
0.000210799
0.000354113
0.000556808
0.000808558
0.00109694
0.000185647
0.000160088
0.000274057
0.000444781
0.00066491
0.000936129
0.000169009
0.000103606
0.000184932
0.000316368
0.000485831
0.000698533
2.91706e-05
4.33616e-05
8.98892e-05
0.000176764
0.000288266
0.00038838
7.9132e-07
3.36954e-06
1.78943e-05
5.74607e-05
0.000120769
0.000204253
0.000355623
0.000538179
0.000808742
0.0010656
0.00126592
0.00142675
0.00155527
0.00166117
0.00175477
0.00184654
0.00194654
0.00206378
0.00220587
0.00237917
0.00258968
0.00284422
0.00315043
0.00351321
0.00392658
0.00435601
0.00474654
0.00510315
0.00538917
0.00553705
0.000403789
0.000525887
0.000671389
0.000898626
0.00110169
0.00127535
0.00141658
0.00153053
0.00162553
0.00171111
0.00179717
0.00189333
0.00200855
0.00215107
0.00232914
0.00255236
0.00283233
0.00317962
0.00359485
0.00405012
0.00447719
0.00486928
0.00520755
0.0053822
0.00050698
0.000609553
0.000652217
0.00078716
0.000959782
0.00112728
0.00127576
0.0013993
0.00150073
0.00158672
0.00166572
0.00174683
0.00183924
0.00195207
0.00209481
0.00227865
0.0025178
0.00282796
0.00321812
0.00367675
0.00412193
0.0045452
0.00491286
0.0051279
0.000657962
0.000679474
0.000742377
0.000779559
0.000877282
0.00100421
0.00113991
0.00126619
0.00137473
0.00146601
0.00154494
0.00161873
0.00169558
0.00178429
0.00189443
0.00203738
0.00222806
0.00248523
0.00282612
0.00325294
0.00370422
0.00414016
0.00452235
0.00478289
0.000804563
0.000798411
0.00084002
0.000861246
0.000894698
0.000956106
0.00104259
0.00114551
0.00124954
0.00134411
0.00142671
0.00150004
0.00156972
0.00164291
0.00172805
0.00183541
0.0019787
0.00217664
0.00245106
0.00281638
0.00325061
0.00367548
0.00406342
0.00435773
0.000931536
0.000930688
0.000943608
0.000972334
0.000980543
0.000993712
0.00102336
0.00107472
0.00114631
0.00122794
0.00130871
0.00138326
0.00145181
0.00151808
0.00158809
0.0016699
0.00177461
0.00191814
0.00212218
0.0024092
0.00278796
0.00319223
0.00357019
0.00387274
0.00104105
0.00106526
0.0010718
0.00107934
0.00109344
0.0010897
0.00108133
0.00108405
0.00110419
0.00114572
0.00120405
0.00126997
0.0013361
0.00139995
0.00146313
0.00153033
0.00160915
0.00171128
0.00185435
0.00206169
0.0023547
0.00272161
0.00307439
0.00336498
0.00113616
0.00118748
0.00120323
0.00121027
0.00121044
0.0012064
0.00119133
0.00116355
0.00114242
0.00113475
0.0011478
0.00118182
0.00123073
0.00128676
0.00134501
0.0014048
0.00146922
0.00154518
0.00164453
0.00178567
0.0019925
0.0022869
0.00261116
0.00287143
0.00122019
0.00129261
0.00132684
0.00133977
0.00134119
0.00133064
0.00131203
0.00128764
0.00124202
0.0012003
0.00116952
0.00115712
0.00116665
0.00119594
0.00123877
0.00128912
0.00134419
0.00140526
0.0014781
0.00157401
0.00171147
0.0019177
0.00219847
0.00242576
0.00129245
0.0013817
0.00143295
0.00145769
0.00146517
0.00145858
0.00143833
0.00141297
0.00137705
0.00131533
0.00125995
0.00121194
0.00117801
0.00116404
0.00117172
0.00119788
0.00123704
0.00128507
0.00134141
0.00141017
0.00150138
0.00163419
0.00184989
0.00204753
0.00135499
0.00145912
0.00152141
0.00155723
0.0015735
0.00157369
0.00156006
0.0015344
0.00150432
0.00145796
0.00138706
0.00132372
0.00126341
0.00121292
0.00117906
0.00116594
0.00117343
0.00119802
0.00123566
0.00128444
0.00134673
0.00143049
0.00157491
0.00174415
0.00140854
0.00152401
0.00159433
0.00163794
0.00166155
0.00166971
0.00166416
0.00164594
0.00161772
0.00158521
0.00153206
0.00145961
0.00139222
0.00132562
0.00126554
0.00121802
0.00118784
0.00117703
0.0011846
0.00120797
0.00124521
0.00129557
0.00137809
0.00151819
0.00145323
0.0015775
0.0016535
0.00170089
0.0017301
0.00174518
0.00174806
0.00173951
0.0017199
0.00169041
0.00165725
0.00160416
0.00153589
0.00147035
0.00140428
0.00134167
0.00128731
0.0012455
0.00121921
0.00120933
0.00121544
0.00123536
0.00127162
0.00137112
0.00148868
0.00162017
0.00169922
0.0017485
0.00178093
0.00180159
0.00181233
0.00181361
0.00180541
0.00178768
0.00175987
0.0017268
0.00168019
0.00162475
0.00156614
0.00150522
0.00144587
0.00139065
0.00134278
0.00130518
0.00127983
0.00126702
0.0012661
0.00132078
0.00151412
0.00165185
0.00173134
0.00178091
0.00181491
0.00183996
0.0018581
0.00186939
0.00187326
0.00186904
0.00185569
0.00183341
0.00180391
0.00176552
0.0017262
0.00168293
0.00163148
0.00157652
0.00152257
0.00147253
0.00142844
0.00139176
0.00136451
0.00138335
0.00152835
0.00167202
0.00175048
0.0017976
0.00183106
0.00185894
0.00188363
0.00190491
0.00192156
0.00193202
0.00193505
0.00192857
0.00191487
0.00189254
0.00186194
0.00182867
0.00179606
0.00176061
0.00172013
0.00167433
0.00162553
0.00157764
0.00153901
0.00153752
0.0015297
0.0016792
0.00175473
0.00179673
0.00182652
0.00185411
0.0018827
0.00191216
0.00194097
0.00196647
0.00198653
0.00199939
0.0020027
0.00199829
0.00198488
0.00196335
0.00193457
0.00190068
0.00186451
0.00182894
0.00179602
0.00176714
0.00174595
0.0017434
0.00151592
0.0016724
0.00174255
0.00177601
0.00179745
0.00181899
0.00184527
0.00187681
0.00191309
0.00194983
0.00198505
0.00201721
0.00204187
0.00205649
0.0020644
0.00206218
0.00205005
0.002029
0.00200075
0.0019676
0.00193226
0.00190027
0.00187732
0.0018701
0.00148304
0.00165172
0.00171244
0.0017335
0.0017408
0.00174788
0.00176173
0.00178333
0.00180891
0.00183865
0.00187355
0.00191299
0.00194675
0.00197839
0.00200983
0.00203466
0.00205185
0.00206063
0.00206051
0.00205262
0.0020387
0.0020216
0.00200571
0.00199777
0.00142781
0.00161634
0.00166648
0.00166936
0.0016567
0.00164001
0.00163029
0.00162648
0.00163223
0.00165172
0.00168149
0.00171951
0.00175513
0.00179177
0.00183113
0.00186602
0.00189592
0.00192047
0.00193917
0.00195125
0.00195743
0.00195986
0.00196112
0.00196189
0.0013454
0.00156558
0.00160525
0.00158487
0.00155026
0.00150247
0.00146052
0.00143075
0.00141767
0.00142012
0.00143592
0.00146315
0.00149542
0.001537
0.00158468
0.00163295
0.00167858
0.00171927
0.0017547
0.00178489
0.00181005
0.0018305
0.00184663
0.00186153
0.00122903
0.00149625
0.00153061
0.00148905
0.00142762
0.00134916
0.00127643
0.00121774
0.00117696
0.00115885
0.00116252
0.0011803
0.00121247
0.00124939
0.00129324
0.0013418
0.00139304
0.00144329
0.0014924
0.00153961
0.00158433
0.00162533
0.00166116
0.00169432
0.00106668
0.00140893
0.00144712
0.00139134
0.00130424
0.00120279
0.00110758
0.00103275
0.000974689
0.000935977
0.00091966
0.000922781
0.000929912
0.000952376
0.000986941
0.00102967
0.00107662
0.00112464
0.00117186
0.00121745
0.00126107
0.00130235
0.00133963
0.00137779
0.000872802
0.00131345
0.00136315
0.00130148
0.0011987
0.00108676
0.000991546
0.000918912
0.000862835
0.000826796
0.00078012
0.000753954
0.000754171
0.000773008
0.000806422
0.000847639
0.000890655
0.000932277
0.000968305
0.000997418
0.00101999
0.00103726
0.0010441
0.00105389
7.73494e-07
2.85546e-06
1.42038e-05
4.37287e-05
0.000100635
0.000201344
2.87443e-05
3.95254e-05
7.60739e-05
0.000125339
0.000172797
0.00023398
0.000166112
8.66704e-05
0.00014453
0.000210404
0.000280823
0.000404302
0.000183547
0.000128785
0.000204454
0.000287586
0.000394854
0.000562365
0.00019523
0.000166311
0.000257446
0.000359337
0.000495544
0.000681263
4.75587e-05
0.000200204
0.000304139
0.000423412
0.000576505
0.000766007
4.90559e-05
0.000228432
0.000344464
0.000477686
0.00063815
0.000821414
5.02846e-05
0.000251244
0.000378106
0.000520371
0.000683508
0.000854228
5.11855e-05
0.000268605
0.000404862
0.000552767
0.000712065
0.000868105
5.17639e-05
0.000280696
0.000425093
0.000573758
0.000726474
0.000865557
5.20287e-05
0.000287654
0.000437914
0.000584929
0.000728332
0.000848357
5.20059e-05
0.000289606
0.000443849
0.000587029
0.000719006
0.000817818
5.16896e-05
0.0002866
0.00044308
0.000580756
0.000699632
0.000775465
5.11238e-05
0.000278463
0.000435853
0.000566708
0.000671323
0.000723613
5.03972e-05
0.000265049
0.000422443
0.000545443
0.000635346
0.00066447
4.94531e-05
0.000247656
0.000403364
0.000517719
0.000592895
0.000599521
4.82674e-05
0.000228279
0.000379627
0.000484389
0.00054537
0.000529837
4.69789e-05
0.000210982
0.000352391
0.000446372
0.000495027
0.000459793
0.000193505
0.000201055
0.000321755
0.000403986
0.000443124
0.000396855
0.000185767
0.000185179
0.000285767
0.000355884
0.000389419
0.000343724
0.000174035
0.00015973
0.000239901
0.000298066
0.000330089
0.000297545
0.000158514
0.000117805
0.000177141
0.000223276
0.000255057
0.000249243
2.78338e-05
5.54494e-05
9.20468e-05
0.000125603
0.000150616
0.000185321
8.07158e-07
3.07688e-06
8.09332e-06
1.62163e-05
2.69143e-05
7.08667e-05
0.000787583
0.00123812
0.00129129
0.00123293
0.00112482
0.00101192
0.000923246
0.000858339
0.000814071
0.000778726
0.000734943
0.000714595
0.000723579
0.000761438
0.000822198
0.000894002
0.000966131
0.00102764
0.00107696
0.00111515
0.00114319
0.00116128
0.00116429
0.00118822
0.000816228
0.0011944
0.00125023
0.00119015
0.0010815
0.000981394
0.00090566
0.000852847
0.000815519
0.000776844
0.000728846
0.000720476
0.000743859
0.000797556
0.000873914
0.000960163
0.00104253
0.00111736
0.00118588
0.00125013
0.0013117
0.00137004
0.0014317
0.00153511
0.000887199
0.00117713
0.00122114
0.00116013
0.00106636
0.000981214
0.000915085
0.0008663
0.000832923
0.000773736
0.000737388
0.000737175
0.000779516
0.000857268
0.000951967
0.00104852
0.00114176
0.00123068
0.0013161
0.00140098
0.00149122
0.00160239
0.00175836
0.00194456
0.000946051
0.00116543
0.00120363
0.001148
0.0010659
0.000989011
0.000925356
0.000880117
0.00083113
0.000763335
0.000745818
0.000778803
0.000859607
0.000968844
0.00109053
0.00121426
0.00133426
0.00145048
0.00156605
0.00168647
0.00182023
0.00198281
0.0021907
0.00241801
0.000989548
0.00116486
0.00118976
0.00113738
0.0010602
0.00098463
0.000920962
0.000872709
0.000802779
0.000772909
0.000792891
0.00087145
0.000988877
0.00112372
0.00126451
0.00140622
0.00155046
0.00170296
0.00187185
0.0020678
0.00230319
0.00258707
0.00290062
0.00315836
0.00101849
0.00115955
0.00117096
0.00111468
0.00103618
0.000958846
0.000903238
0.00085376
0.000793125
0.000800768
0.000874877
0.000998286
0.00114372
0.00129541
0.00144856
0.00160535
0.00177328
0.00196352
0.00219088
0.00247255
0.002822
0.00323528
0.00364483
0.00393241
0.00103294
0.0011431
0.00113829
0.00107254
0.000991741
0.000918263
0.00088348
0.000816449
0.000813141
0.000881658
0.0010062
0.00115689
0.00131559
0.00147809
0.0016478
0.00183198
0.00204132
0.00229043
0.00259657
0.00297443
0.00342418
0.00391375
0.00435472
0.00465971
0.0010314
0.00111242
0.00108661
0.00101067
0.000925563
0.000896826
0.000838003
0.000819024
0.000882089
0.00100529
0.00115807
0.00132158
0.00149082
0.00166846
0.00186164
0.00208178
0.00234476
0.00266947
0.00307243
0.00355722
0.0041014
0.00462781
0.00508167
0.0053658
0.00101401
0.00106501
0.00101645
0.000938761
0.000882744
0.000851318
0.000822571
0.000881325
0.0010006
0.00115301
0.0013188
0.00149145
0.00167265
0.00186883
0.00209052
0.00235286
0.00267559
0.00307926
0.00357574
0.00415534
0.00476357
0.00533292
0.00580219
0.00607676
0.000980957
0.00100102
0.000935136
0.000864908
0.000850049
0.000817735
0.000866818
0.000981071
0.00113466
0.00130404
0.00147983
0.00166275
0.00185898
0.00207836
0.00233455
0.00264576
0.00303338
0.00351545
0.00409432
0.0047445
0.00538449
0.00597741
0.00643637
0.00670375
0.00093256
0.000924092
0.00085701
0.000828223
0.000810659
0.000835133
0.000949134
0.00110616
0.00127959
0.00145776
0.00164095
0.00183543
0.00205037
0.00229746
0.00259209
0.0029541
0.00340455
0.00395615
0.00459989
0.00529064
0.0059487
0.00653737
0.00697538
0.00722939
0.000869963
0.000840332
0.000788739
0.000787244
0.00079505
0.000906738
0.00106608
0.00124391
0.0014258
0.00160999
0.00180208
0.002011
0.00224736
0.00252398
0.00285721
0.00326694
0.00377163
0.00437697
0.00506311
0.00576836
0.00642849
0.00699529
0.00741254
0.00764286
0.000797716
0.00075909
0.000752581
0.000757465
0.000839913
0.00100482
0.00119051
0.00138125
0.0015701
0.00176132
0.00196426
0.00218978
0.00244932
0.0027558
0.00312508
0.00357522
0.0041204
0.00475897
0.0054626
0.00616258
0.00680388
0.00733803
0.00773157
0.00793502
0.000723117
0.000691317
0.000721626
0.000751782
0.000920637
0.00111877
0.00132292
0.00152098
0.00171423
0.0019125
0.00212768
0.00237129
0.00265437
0.00298874
0.0033883
0.00386775
0.00443599
0.00508504
0.00578147
0.00645772