/*--------------------------------*- C++ -*----------------------------------*\
  =========                 |
  \\      /  F ield         | OpenFOAM: The Open Source CFD Toolbox
   \\    /   O peration     | Website:  https://openfoam.org
    \\  /    A nd           | Version:  11
     \\/     M anipulation  |
\*---------------------------------------------------------------------------*/
FoamFile
{
    format      ascii;
    class       volScalarField;
    location    "0.8";
    object      p;
}
// * * * * * * * * * * * * * * * * * * * * * * * * * * * * * * * * * * * * * //

dimensions      [0 2 -2 0 0 0 0];

internalField   nonuniform List<scalar> 
2880
(
1.54563
1.58677
1.61901
1.64928
1.62147
1.46607
1.54513
1.58107
1.60049
1.61696
1.53754
1.36591
1.54437
1.57277
1.57894
1.57899
1.4892
1.31256
1.54496
1.56544
1.56121
1.54675
1.45711
1.29366
1.54515
1.5605
1.54806
1.52253
1.43473
1.28951
1.54408
1.55637
1.53781
1.50427
1.41895
1.29105
1.5424
1.55174
1.52904
1.49003
1.40799
1.29483
1.54018
1.54628
1.52108
1.47865
1.40042
1.29934
1.5374
1.54012
1.51376
1.46948
1.39519
1.3038
1.5342
1.53352
1.50718
1.46213
1.3916
1.30773
1.53074
1.52686
1.50153
1.4564
1.38923
1.31104
1.52719
1.52048
1.49697
1.45218
1.38784
1.31374
1.52371
1.51471
1.49357
1.44936
1.38728
1.31587
1.52041
1.50974
1.49132
1.44783
1.38749
1.31757
1.51738
1.50566
1.49018
1.44749
1.38846
1.31902
1.51466
1.50247
1.49007
1.44823
1.39033
1.32054
1.51226
1.5001
1.49073
1.4499
1.39327
1.32264
1.51011
1.49842
1.49182
1.45224
1.39744
1.32593
1.50868
1.49725
1.49285
1.45493
1.40292
1.33106
1.50895
1.49613
1.49317
1.45742
1.40968
1.33886
1.51023
1.49431
1.49187
1.45875
1.41755
1.35208
1.50903
1.49121
1.48826
1.458
1.42659
1.37891
1.50667
1.48736
1.48338
1.45637
1.43875
1.43554
1.50565
1.48479
1.48304
1.4607
1.45814
1.5347
0.211258
0.255677
0.283903
0.305361
0.328447
0.345252
0.356034
0.362618
0.366569
0.368919
0.370363
0.371323
0.372039
0.372643
0.373199
0.373733
0.374258
0.37479
0.375151
0.374631
0.373318
0.378098
0.401742
0.40449
0.566936
0.453915
0.43251
0.426168
0.427294
0.428355
0.427622
0.425474
0.422601
0.419533
0.416607
0.414
0.411783
0.409971
0.408541
0.40745
0.406656
0.406119
0.405605
0.404349
0.402491
0.407024
0.430187
0.430808
0.773058
0.622479
0.564177
0.534764
0.517931
0.505471
0.494538
0.484537
0.4755
0.467526
0.460648
0.454827
0.449989
0.446038
0.442871
0.440375
0.438447
0.436993
0.435722
0.433835
0.431508
0.435683
0.457936
0.45711
0.899213
0.751732
0.674613
0.629115
0.598761
0.575368
0.555852
0.539092
0.524688
0.512415
0.502064
0.493424
0.486295
0.48049
0.475829
0.472132
0.469239
0.467001
0.465079
0.46266
0.459958
0.46373
0.484753
0.482955
0.990528
0.851845
0.765707
0.709769
0.669413
0.637532
0.611059
0.588687
0.569764
0.553838
0.540522
0.529474
0.520394
0.513018
0.507098
0.502395
0.498692
0.495792
0.493319
0.490469
0.487493
0.490849
0.510405
0.508002
1.05849
0.929392
0.83997
0.777603
0.730201
0.691905
0.659976
0.633099
0.610491
0.591555
0.575782
0.562735
0.55204
0.543369
0.536418
0.530893
0.526528
0.52308
0.520152
0.516972
0.513823
0.516767
0.53468
0.531963
1.10866
0.989133
0.899832
0.833858
0.781692
0.738721
0.702659
0.672285
0.646769
0.625433
0.60769
0.593038
0.581049
0.571348
0.563583
0.55741
0.552518
0.548631
0.545341
0.541925
0.538697
0.541233
0.557376
0.554577
1.14557
1.03499
0.947553
0.879866
0.824642
0.778399
0.739322
0.706333
0.678607
0.655428
0.636164
0.620275
0.607296
0.596814
0.588435
0.581776
0.576483
0.572255
0.568689
0.565127
0.561897
0.564027
0.578313
0.575602
1.17284
1.06986
0.985108
0.916918
0.859871
0.811451
0.770273
0.735416
0.706088
0.681561
0.661184
0.644393
0.630701
0.619666
0.610861
0.60386
0.598281
0.593802
0.590037
0.586404
0.583232
0.584952
0.597338
0.594831
1.19271
1.09619
1.01416
0.946175
0.888172
0.838409
0.795861
0.759756
0.729345
0.703902
0.682771
0.66538
0.651227
0.639846
0.630779
0.623567
0.6178
0.613147
0.609251
0.605608
0.602536
0.603846
0.614327
0.612096
1.20685
1.11557
1.03602
0.968624
0.910265
0.859782
0.816441
0.779594
0.748535
0.722549
0.700981
0.683256
0.668864
0.657321
0.648138
0.640826
0.634954
0.630194
0.626221
0.622617
0.619675
0.620578
0.629194
0.627272
1.21641
1.12918
1.0517
0.985076
0.926769
0.876035
0.832347
0.795169
0.763827
0.737616
0.715886
0.698062
0.683628
0.672083
0.662908
0.655589
0.649681
0.644867
0.640866
0.637338
0.634543
0.635055
0.641888
0.640279
1.22219
1.13787
1.06196
0.996175
0.938201
0.887565
0.843879
0.806702
0.775386
0.749227
0.727575
0.709858
0.695553
0.684142
0.675079
0.667826
0.661939
0.657118
0.653127
0.649704
0.647068
0.64722
0.652399
0.651081
1.22465
1.14223
1.06736
1.00241
0.944959
0.894693
0.85129
0.814393
0.783369
0.757504
0.736142
0.718713
0.704686
0.693524
0.684656
0.677531
0.67171
0.666921
0.662974
0.659677
0.657214
0.657068
0.660769
0.659631
1.22404
1.14259
1.06823
1.00411
0.947329
0.897653
0.854776
0.818407
0.78792
0.762569
0.74169
0.724709
0.711087
0.700269
0.691663
0.684713
0.678997
0.674274
0.670396
0.667232
0.664939
0.664566
0.666947
0.665721
1.22037
1.13906
1.06475
1.00146
0.945492
0.896603
0.854489
0.818892
0.789175
0.764547
0.744327
0.727937
0.714831
0.704435
0.696145
0.689408
0.683829
0.6792
0.67541
0.672373
0.670205
0.669572
0.670852
0.669848
1.21344
1.13158
1.0569
0.994525
0.939533
0.891646
0.850549
0.815982
0.78727
0.763568
0.744173
0.728504
0.716007
0.706098
0.698168
0.691681
0.686274
0.681773
0.678099
0.675201
0.673132
0.67224
0.67269
0.672146
1.20285
1.11983
1.04447
0.983219
0.929452
0.882849
0.843065
0.809813
0.78235
0.759773
0.74136
0.726527
0.714721
0.705352
0.697822
0.691619
0.68642
0.682082
0.678554
0.675803
0.673837
0.67278
0.672683
0.67245
1.18786
1.10324
1.02701
0.967354
0.915187
0.870258
0.832152
0.800535
0.774578
0.753325
0.736039
0.722144
0.711093
0.702308
0.695208
0.689321
0.684361
0.680214
0.676848
0.674243
0.672388
0.671292
0.6709
0.67082
1.16734
1.08084
1.00396
0.946638
0.896664
0.85394
0.817962
0.788338
0.764153
0.744412
0.728382
0.715508
0.705264
0.697094
0.69045
0.684905
0.680213
0.676282
0.673093
0.670631
0.668876
0.667813
0.667397
0.667387
1.14005
1.05103
0.974501
0.920715
0.87384
0.834023
0.800712
0.773469
0.751319
0.733258
0.718588
0.706796
0.697392
0.689856
0.683687
0.678505
0.674102
0.670407
0.667405
0.665077
0.663408
0.662458
0.662274
0.662222
1.10472
1.01066
0.937435
0.88925
0.846804
0.810772
0.780732
0.756257
0.736373
0.720119
0.706879
0.696202
0.687651
0.680756
0.675071
0.670264
0.666163
0.662715
0.659905
0.657699
0.656104
0.655347
0.655646
0.655458
1.05078
0.952895
0.891498
0.852261
0.815959
0.78469
0.758513
0.73713
0.719666
0.705286
0.693498
0.683938
0.67623
0.669967
0.664763
0.660334
0.656541
0.653344
0.650723
0.648624
0.647089
0.646597
0.647615
0.647188
0.920778
0.869198
0.837121
0.810736
0.78229
0.756621
0.734719
0.716601
0.70159
0.689068
0.678701
0.670218
0.66332
0.657665
0.652927
0.648869
0.645379
0.642429
0.63999
0.637982
0.636493
0.636338
0.638297
0.637531
0.633708
0.59596
0.570356
0.526518
0.425132
0.117278
0.635553
0.5991
0.575727
0.536689
0.470015
0.357318
0.640554
0.60482
0.584978
0.549934
0.502168
0.454047
0.643673
0.611506
0.59583
0.564265
0.527368
0.499685
0.642386
0.617892
0.606287
0.578103
0.550414
0.532724
0.643034
0.623867
0.615646
0.591073
0.570404
0.557175
0.646411
0.629829
0.624082
0.603129
0.586463
0.57391
0.650372
0.635963
0.632016
0.614112
0.598816
0.58445
0.654578
0.642354
0.639628
0.623837
0.608129
0.59076
0.658777
0.649052
0.646915
0.632244
0.615009
0.594168
0.663064
0.656103
0.653844
0.639451
0.619917
0.595372
0.667542
0.663541
0.660435
0.645567
0.623023
0.594546
0.672248
0.671363
0.666708
0.650655
0.624424
0.591725
0.677155
0.679508
0.672698
0.654883
0.624355
0.586962
0.682183
0.68781
0.678515
0.658487
0.623065
0.580279
0.687171
0.696089
0.684242
0.661668
0.620789
0.571736
0.691913
0.704053
0.689885
0.664604
0.617726
0.561423
0.696214
0.711335
0.695385
0.667491
0.614004
0.549455
0.6999
0.717567
0.700744
0.670626
0.609868
0.535891
0.702435
0.722581
0.706225
0.674686
0.606207
0.52073
0.701514
0.726964
0.712971
0.681417
0.605389
0.504966
0.69952
0.732737
0.723494
0.694117
0.611893
0.491813
0.704026
0.740305
0.7387
0.713344
0.628335
0.477262
0.707729
0.745978
0.75069
0.727335
0.640211
0.461096
0.638061
0.774214
0.779843
0.767411
0.747545
0.727744
0.710148
0.695216
0.682538
0.671771
0.662735
0.655258
0.649113
0.644025
0.639726
0.63602
0.632818
0.630104
0.627838
0.625904
0.624457
0.624721
0.627842
0.626574
0.573247
0.698998
0.727745
0.726479
0.713872
0.699293
0.685574
0.673476
0.662873
0.653674
0.645831
0.639255
0.633786
0.629211
0.625311
0.621928
0.618993
0.616496
0.614386
0.612509
0.611081
0.611795
0.616298
0.614524
0.571273
0.656517
0.686223
0.690293
0.682661
0.672126
0.661542
0.651751
0.642878
0.635006
0.628182
0.622381
0.617498
0.613369
0.609821
0.606722
0.604016
0.601704
0.599719
0.597858
0.596358
0.597394
0.60346
0.601764
0.57222
0.630606
0.654252
0.659242
0.654403
0.646624
0.63831
0.630251
0.62273
0.615925
0.609935
0.604775
0.600381
0.59663
0.59338
0.590519
0.588004
0.585835
0.583934
0.582035
0.580374
0.581623
0.589312
0.588051
0.57321
0.611762
0.628907
0.632639
0.62895
0.622772
0.615907
0.609045
0.602515
0.596523
0.591186
0.586539
0.582543
0.579103
0.576102
0.573441
0.571083
0.56903
0.567185
0.565225
0.563403
0.564941
0.574264
0.572932
0.575407
0.596934
0.608089
0.609514
0.605815
0.600303
0.594213
0.588094
0.58224
0.576836
0.57199
0.56774
0.564061
0.560875
0.55808
0.555589
0.553363
0.551407
0.549606
0.547579
0.54561
0.547487
0.558498
0.556883
0.577288
0.585144
0.590358
0.588892
0.584382
0.578837
0.573014
0.567282
0.561847
0.556846
0.552359
0.548413
0.544985
0.542006
0.539385
0.537038
0.534929
0.533058
0.531291
0.529195
0.527079
0.529287
0.541989
0.540071
0.577523
0.575521
0.57449
0.569858
0.56401
0.557959
0.552048
0.546443
0.54124
0.536505
0.532278
0.528566
0.52534
0.522535
0.520065
0.51785
0.51585
0.51406
0.51233
0.510171
0.507912
0.510427
0.524785
0.522591
0.576226
0.566528
0.559522
0.5516
0.544107
0.537261
0.531038
0.525393
0.520297
0.515738
0.511707
0.508185
0.505133
0.502484
0.500156
0.498069
0.496179
0.494476
0.492794
0.490593
0.488204
0.490997
0.506941
0.504542
0.573458
0.557081
0.544533
0.53339
0.524131
0.516358
0.50971
0.503938
0.498885
0.494456
0.490592
0.487243
0.484357
0.481863
0.479681
0.477728
0.47596
0.47436
0.472748
0.470536
0.468046
0.471084
0.48851
0.486028
0.568899
0.546256
0.528749
0.51461
0.503615
0.494897
0.487801
0.481884
0.476863
0.472561
0.468868
0.465703
0.462997
0.460676
0.458655
0.456857
0.455232
0.45376
0.452248
0.450069
0.447521
0.450771
0.469538
0.467165
0.562173
0.533609
0.511643
0.494762
0.482149
0.472554
0.465056
0.459034
0.454083
0.449947
0.446464
0.443522
0.441035
0.438922
0.437099
0.435487
0.434037
0.432725
0.431353
0.429262
0.426712
0.430137
0.450057
0.448078
0.553124
0.518805
0.492759
0.473402
0.459349
0.449012
0.441223
0.435189
0.430392
0.4265
0.423301
0.420653
0.41845
0.416605
0.415035
0.413659
0.412429
0.411321
0.410135
0.408196
0.40571
0.409258
0.430082
0.428913
0.541508
0.501437
0.471627
0.450082
0.43483
0.423951
0.416041
0.410142
0.40563
0.402101
0.399296
0.397042
0.395219
0.393732
0.392493
0.391426
0.390481
0.389635
0.388696
0.386982
0.384633
0.38822
0.409601
0.409878
0.526933
0.480981
0.447717
0.42432
0.408183
0.397035
0.389234
0.383673
0.379624
0.376618
0.374354
0.372633
0.371318
0.370306
0.369511
0.368856
0.36829
0.36779
0.367178
0.365785
0.363651
0.367126
0.38856
0.391335
0.508836
0.456734
0.420387
0.395576
0.378959
0.367895
0.36051
0.355547
0.352189
0.34991
0.348372
0.347356
0.346711
0.346331
0.346127
0.346024
0.345971
0.345944
0.345783
0.344855
0.343041
0.346117
0.366777
0.374022
0.486462
0.42776
0.388857
0.363224
0.346664
0.336143
0.329557
0.325516
0.323127
0.32182
0.32123
0.321124
0.321345
0.321785
0.32236
0.322996
0.323643
0.324276
0.324774
0.32458
0.323304
0.325396
0.34359
0.359544
0.458803
0.392805
0.352185
0.326563
0.310759
0.301359
0.296044
0.293316
0.292226
0.292175
0.292787
0.293824
0.295131
0.296607
0.298175
0.299775
0.301362
0.302918
0.304395
0.305421
0.305267
0.305806
0.318688
0.351145
0.424322
0.350289
0.309279
0.284819
0.270676
0.263112
0.259637
0.258678
0.259262
0.260786
0.262877
0.265305
0.267927
0.270655
0.273431
0.276217
0.278995
0.281777
0.28459
0.287247
0.289096
0.291168
0.302993
0.335572
0.380637
0.298365
0.258915
0.237189
0.225847
0.220983
0.220009
0.221336
0.22401
0.227451
0.23131
0.235377
0.239528
0.243691
0.247829
0.251923
0.255978
0.260021
0.264027
0.267691
0.270822
0.276854
0.294503
0.29843
0.324555
0.234874
0.199836
0.182921
0.175775
0.174609
0.17687
0.181042
0.186248
0.191966
0.197886
0.203829
0.209693
0.215422
0.220981
0.226349
0.231519
0.23649
0.241156
0.245108
0.248507
0.256296
0.276532
0.266174
0.252147
0.157135
0.131028
0.121497
0.120143
0.123758
0.130014
0.137596
0.14578
0.154137
0.162413
0.170468
0.178226
0.185645
0.192693
0.199339
0.205559
0.211334
0.216547
0.220825
0.224553
0.233155
0.254167
0.238708
0.153704
0.0633272
0.0525411
0.0528518
0.0589469
0.0684222
0.0793739
0.0908785
0.102455
0.113799
0.124724
0.135132
0.144977
0.154235
0.162879
0.170876
0.17819
0.1848
0.190625
0.195411
0.199676
0.208835
0.229922
0.213064
0.0049142
-0.043285
-0.0313821
-0.021224
-0.00695214
0.00902174
0.0251201
0.0409044
0.0561941
0.0708248
0.0846765
0.0976871
0.109835
0.121113
0.131507
0.140987
0.149516
0.157076
0.163643
0.169093
0.174024
0.183629
0.204468
0.188296
-0.396086
-0.384649
-0.388797
-0.401665
-0.425242
-0.475614
-0.398229
-0.388036
-0.395355
-0.41172
-0.436972
-0.490669
-0.402872
-0.392697
-0.403409
-0.42139
-0.444318
-0.476535
-0.406338
-0.396341
-0.409525
-0.427934
-0.448795
-0.471133
-0.405348
-0.398563
-0.413831
-0.432427
-0.452065
-0.470378
-0.401757
-0.400262
-0.417083
-0.436002
-0.455084
-0.471759
-0.400839
-0.402554
-0.419964
-0.439132
-0.457966
-0.474082
-0.402204
-0.405457
-0.422675
-0.441881
-0.460695
-0.476703
-0.403669
-0.408472
-0.425154
-0.444265
-0.463225
-0.479185
-0.405043
-0.411274
-0.427298
-0.446308
-0.465409
-0.481349
-0.406218
-0.413753
-0.429017
-0.447987
-0.467157
-0.483156
-0.407178
-0.415842
-0.430238
-0.449254
-0.468491
-0.484983
-0.407923
-0.417473
-0.43091
-0.450035
-0.469419
-0.486472
-0.40846
-0.418629
-0.430983
-0.450309
-0.469949
-0.487736
-0.408826
-0.419269
-0.430474
-0.450074
-0.470062
-0.488861
-0.409127
-0.41938
-0.429451
-0.449333
-0.469696
-0.489752
-0.409465
-0.419044
-0.428004
-0.44808
-0.46874
-0.490226
-0.409637
-0.418403
-0.426243
-0.446307
-0.467016
-0.489977
-0.409518
-0.417594
-0.424333
-0.444033
-0.464275
-0.488528
-0.407304
-0.416921
-0.422595
-0.441395
-0.460209
-0.484762
-0.403685
-0.416976
-0.421518
-0.438803
-0.454556
-0.475866
-0.404532
-0.418201
-0.421742
-0.436739
-0.44696
-0.456108
-0.408783
-0.420249
-0.423051
-0.434293
-0.436096
-0.417741
-0.410796
-0.42099
-0.421435
-0.427884
-0.41759
-0.357055
-0.238203
-0.16156
-0.120675
-0.0967732
-0.0754043
-0.0534765
-0.0323208
-0.0121629
0.00700598
0.0251341
0.0421515
0.058013
0.0727044
0.086228
0.0985809
0.109741
0.119675
0.128376
0.135865
0.142132
0.147842
0.157832
0.178223
0.164208
-0.340482
-0.267025
-0.211192
-0.172357
-0.143025
-0.117088
-0.0921354
-0.0680067
-0.0450166
-0.0233072
-0.00295138
0.0159932
0.0334913
0.0495321
0.0641127
0.0772185
0.0888242
0.0989278
0.107577
0.114851
0.121468
0.131802
0.151588
0.140806
-0.395663
-0.337649
-0.285805
-0.244991
-0.209907
-0.179879
-0.152421
-0.125861
-0.099637
-0.074476
-0.0507083
-0.0284903
-0.00791793
0.0109523
0.028092
0.0434816
0.0570997
0.0689446
0.0790634
0.0876044
0.0952877
0.105971
0.125034
0.11819
-0.433536
-0.386236
-0.343585
-0.307707
-0.274784
-0.242738
-0.212457
-0.183934
-0.156058
-0.128149
-0.101126
-0.0755325
-0.0516469
-0.0296194
-0.0095403
0.00853927
0.024587
0.0385923
0.0505906
0.0607449
0.0697244
0.0808591
0.0991235
0.0965574
-0.456595
-0.422191
-0.389235
-0.359325
-0.331043
-0.30253
-0.272677
-0.242171
-0.212634
-0.183306
-0.153906
-0.125106
-0.0977606
-0.0722796
-0.0488731
-0.0276571
-0.00869952
0.00796597
0.0223513
0.0345713
0.0452133
0.057031
0.0744819
0.0762255
-0.469989
-0.449059
-0.424435
-0.400741
-0.377469
-0.353608
-0.32818
-0.300236
-0.26972
-0.238584
-0.207611
-0.176675
-0.146109
-0.117014
-0.0899485
-0.0651627
-0.0427971
-0.0229304
-0.00558795
0.00927587
0.0221066
0.0350229
0.0518658
0.0577224
-0.478721
-0.468163
-0.451164
-0.433041
-0.414592
-0.395448
-0.374889
-0.351477
-0.32456
-0.294227
-0.261566
-0.228624
-0.195783
-0.163413
-0.132593
-0.103908
-0.0776968
-0.0541217
-0.0332562
-0.015109
0.000563423
0.0152426
0.0320229
0.0416175
-0.485219
-0.481619
-0.471107
-0.457755
-0.443455
-0.428392
-0.412093
-0.393401
-0.371151
-0.344733
-0.314221
-0.28031
-0.24514
-0.210258
-0.176117
-0.143474
-0.113155
-0.0854974
-0.0606513
-0.0386774
-0.0195011
-0.00222414
0.0153572
0.0283364
-0.490325
-0.491233
-0.485687
-0.476238
-0.465186
-0.453313
-0.440335
-0.42543
-0.407557
-0.385684
-0.358985
-0.327644
-0.292821
-0.255934
-0.218758
-0.182663
-0.148402
-0.116575
-0.0875288
-0.0614221
-0.0382642
-0.0175838
0.00184185
0.018029
-0.494496
-0.4983
-0.496257
-0.48956
-0.480906
-0.471178
-0.460464
-0.448086
-0.433257
-0.415141
-0.392598
-0.364975
-0.332573
-0.296479
-0.25828
-0.21965
-0.181973
-0.146267
-0.113147
-0.0829252
-0.0557409
-0.031175
-0.00903313
0.0104241
-0.498077
-0.503616
-0.50322
-0.498903
-0.491768
-0.483148
-0.473461
-0.462287
-0.448946
-0.432887
-0.413271
-0.389061
-0.359874
-0.326249
-0.289246
-0.250268
-0.210859
-0.172396
-0.135774
-0.102485
-0.07161
-0.0426886
-0.0176513
0.00510627
-0.501004
-0.507963
-0.509114
-0.505679
-0.49916
-0.490644
-0.480735
-0.469333
-0.455949
-0.440077
-0.421293
-0.398908
-0.37219
-0.341141
-0.30646
-0.269135
-0.230367
-0.19141
-0.153426
-0.117342
-0.08366
-0.0534823
-0.0253579
0.00269916
-0.503823
-0.511978
-0.51412
-0.511146
-0.50451
-0.495392
-0.484236
-0.471217
-0.45619
-0.438816
-0.418828
-0.395999
-0.369964
-0.340445
-0.307746
-0.272614
-0.235929
-0.198616
-0.16158
-0.125612
-0.0914517
-0.0590606
-0.0286738
0.000457663
-0.506805
-0.516156
-0.519303
-0.516566
-0.509602
-0.499344
-0.486249
-0.470641
-0.452569
-0.432094
-0.409232
-0.384022
-0.356529
-0.326738
-0.294808
-0.261259
-0.226735
-0.191878
-0.157302
-0.123513
-0.0909403
-0.0594532
-0.0298198
-0.000435305
-0.510464
-0.520956
-0.525574
-0.523139
-0.515964
-0.50462
-0.489372
-0.470584
-0.44865
-0.423905
-0.396745
-0.367628
-0.337011
-0.305189
-0.27244
-0.239186
-0.206001
-0.17338
-0.141674
-0.111131
-0.0819153
-0.0537892
-0.0269737
-0.00025094
-0.5152
-0.527171
-0.533539
-0.532031
-0.525251
-0.513206
-0.4961
-0.47427
-0.448204
-0.41851
-0.38611
-0.351948
-0.316861
-0.281521
-0.246564
-0.212419
-0.179505
-0.148213
-0.118814
-0.0914389
-0.0661009
-0.0425491
-0.0205681
-3.33242e-05
-0.521305
-0.535363
-0.54413
-0.544418
-0.538719
-0.52679
-0.508578
-0.484295
-0.454463
-0.419817
-0.381758
-0.341774
-0.301214
-0.26126
-0.222749
-0.186396
-0.152674
-0.121861
-0.0940624
-0.069253
-0.0473255
-0.028029
-0.0110517
0.00276393
-0.529166
-0.546041
-0.558072
-0.560943
-0.557333
-0.546648
-0.528543
-0.502873
-0.469745
-0.430078
-0.386068
-0.339792
-0.293176
-0.247827
-0.204942
-0.165411
-0.129798
-0.0983663
-0.0711406
-0.0479698
-0.028551
-0.0121554
0.00238553
0.0131316
-0.539257
-0.559597
-0.575726
-0.582009
-0.581654
-0.573662
-0.557174
-0.530925
-0.494471
-0.450026
-0.399888
-0.346685
-0.29318
-0.241626
-0.193617
-0.150255
-0.112157
-0.079502
-0.0521682
-0.0298628
-0.012069
0.00275683
0.0179714
0.0288094
-0.552187
-0.576312
-0.597111
-0.607591
-0.611801
-0.607877
-0.593815
-0.567776
-0.529625
-0.481069
-0.424356
-0.363304
-0.301758
-0.242834
-0.188647
-0.140576
-0.0992866
-0.064888
-0.0371492
-0.0156626
0.000243339
0.0123534
0.0237092
0.0282242
-0.568318
-0.596403
-0.621854
-0.636902
-0.646386
-0.647984
-0.638405
-0.614859
-0.576472
-0.523809
-0.460055
-0.390206
-0.319408
-0.251896
-0.190472
-0.136924
-0.0918781
-0.0553415
-0.0269562
-0.0061887
0.00760551
0.0153937
0.0179862
0.0125175
-0.587019
-0.620213
-0.649228
-0.668757
-0.684243
-0.692758
-0.68987
-0.67096
-0.633441
-0.577278
-0.506082
-0.426355
-0.344795
-0.267619
-0.197895
-0.138416
-0.0893124
-0.0503976
-0.0210378
-0.000444217
0.012128
0.017299
0.0151948
0.00660933
-0.61042
-0.648653
-0.678049
-0.701209
-0.723086
-0.739714
-0.745141
-0.732654
-0.697964
-0.639725
-0.56095
-0.471488
-0.378359
-0.291496
-0.213926
-0.148123
-0.0945913
-0.0527813
-0.0216714
-0.000144633
0.0127924
0.0181205
0.0163986
0.0098578
-0.661397
-0.683292
-0.706215
-0.731627
-0.759692
-0.784713
-0.799126
-0.794398
-0.763977
-0.706281
-0.619346
-0.52255
-0.421708
-0.326887
-0.243229
-0.172923
-0.116088
-0.0717478
-0.0385105
-0.0149382
0.000111233
0.00762235
0.00847554
0.00773801
-0.792805
-0.810398
-0.822774
-0.847931
-0.882023
-1.01358
-0.790505
-0.808418
-0.819953
-0.842588
-0.861553
-0.897805
-0.785352
-0.804989
-0.814918
-0.834394
-0.845371
-0.847701
-0.781177
-0.801324
-0.809295
-0.824913
-0.829666
-0.820611
-0.781849
-0.798161
-0.804021
-0.815461
-0.814941
-0.801238
-0.785693
-0.795508
-0.799325
-0.806714
-0.802375
-0.787102
-0.787051
-0.79301
-0.79507
-0.798964
-0.792145
-0.776448
-0.785933
-0.790436
-0.791177
-0.792244
-0.78392
-0.768203
-0.784529
-0.787756
-0.787631
-0.786518
-0.777404
-0.76186
-0.783327
-0.784936
-0.784383
-0.781787
-0.772357
-0.757076
-0.782169
-0.781952
-0.781403
-0.777982
-0.768573
-0.753589
-0.78088
-0.778839
-0.778748
-0.774902
-0.765854
-0.75117
-0.779379
-0.775651
-0.776411
-0.772411
-0.764053
-0.749732
-0.777622
-0.772425
-0.774321
-0.77057
-0.762979
-0.749291
-0.775546
-0.769173
-0.772441
-0.7694
-0.762523
-0.749933
-0.773235
-0.765706
-0.77079
-0.768924
-0.762522
-0.751636
-0.770778
-0.762166
-0.769423
-0.769151
-0.762849
-0.754156
-0.770752
-0.759232
-0.768474
-0.770106
-0.763722
-0.758217
-0.774122
-0.758028
-0.76803
-0.771796
-0.766017
-0.767301
-0.775642
-0.757684
-0.767778
-0.774075
-0.77079
-0.78512
-0.77379
-0.756855
-0.767196
-0.776712
-0.777673
-0.811022
-0.769116
-0.754758
-0.765681
-0.778793
-0.785278
-0.842931
-0.762801
-0.751623
-0.763526
-0.779126
-0.791981
-0.87856
-0.759782
-0.749426
-0.762672
-0.77913
-0.797666
-0.911888
-0.76997
-0.719053
-0.730486
-0.75707
-0.790325
-0.822443
-0.844421
-0.846199
-0.818914
-0.760283
-0.673145
-0.570146
-0.464073
-0.365326
-0.279087
-0.207303
-0.149566
-0.104315
-0.0696088
-0.0435032
-0.0242278
-0.0100923
-0.000635395
0.00455424
-0.787622
-0.743412
-0.747308
-0.774899
-0.811791
-0.848419
-0.874716
-0.878954
-0.852614
-0.79307
-0.704822
-0.599819
-0.492756
-0.394242
-0.30868
-0.237916
-0.181003
-0.135843
-0.100241
-0.0721787
-0.0498706
-0.0316617
-0.0159267
-0.00295473
-0.777645
-0.750237
-0.755512
-0.784211
-0.822682
-0.860691
-0.88707
-0.890148
-0.861843
-0.80015
-0.711252
-0.607536
-0.503648
-0.408955
-0.326546
-0.258505
-0.203336
-0.158599
-0.12231
-0.0926922
-0.0681386
-0.0471792
-0.0285169
-0.0106567
-0.767863
-0.749099
-0.756885
-0.785739
-0.823338
-0.859366
-0.882228
-0.880949
-0.848044
-0.783528
-0.695042
-0.595304
-0.497743
-0.409069
-0.33261
-0.269167
-0.216707
-0.173373
-0.137374
-0.107096
-0.0810904
-0.0581603
-0.0372688
-0.0159173
-0.760132
-0.745536
-0.753757
-0.780719
-0.815037
-0.846107
-0.86269
-0.854391
-0.81521
-0.747802
-0.660972
-0.567049
-0.47732
-0.397222
-0.328245
-0.269514
-0.220425
-0.179385
-0.144679
-0.114857
-0.0886848
-0.0651782
-0.043246
-0.0192905
-0.753237
-0.740574
-0.74732
-0.770342
-0.79911
-0.822987
-0.831314
-0.813889
-0.768145
-0.698714
-0.615262
-0.528663
-0.44737
-0.376019
-0.314107
-0.260694
-0.215335
-0.17679
-0.143667
-0.11475
-0.0890584
-0.065846
-0.0439631
-0.0194525
-0.747237
-0.734627
-0.738224
-0.755576
-0.776894
-0.792299
-0.79036
-0.763248
-0.711663
-0.641583
-0.56288
-0.484505
-0.412106
-0.348169
-0.2925
-0.244334
-0.202895
-0.167153
-0.135992
-0.108419
-0.0836713
-0.0611755
-0.0397323
-0.0162441
-0.742236
-0.728008
-0.726978
-0.737183
-0.750022
-0.755664
-0.742172
-0.706172
-0.649959
-0.580857
-0.507722
-0.437168
-0.37271
-0.315519
-0.265507
-0.222028
-0.184304
-0.151462
-0.122601
-0.0969094
-0.0737662
-0.0524933
-0.0316286
-0.0101166
-0.738105
-0.720972
-0.714008
-0.715925
-0.720032
-0.714058
-0.689553
-0.645638
-0.58635
-0.519467
-0.452034
-0.388432
-0.330695
-0.279418
-0.234397
-0.19507
-0.160755
-0.130717
-0.104225
-0.0806252
-0.0593985
-0.0395865
-0.0194475
-0.00104558
-0.734772
-0.713704
-0.699551
-0.693138
-0.687155
-0.66904
-0.63441
-0.5837
-0.5229
-0.458944
-0.396794
-0.339143
-0.2871
-0.24086
-0.200157
-0.164501
-0.133303
-0.105937
-0.0817852
-0.0603145
-0.0410032
-0.02257
-0.00312887
0.0110732
-0.732236
-0.706297
-0.683878
-0.669091
-0.65139
-0.621879
-0.577558
-0.521686
-0.460711
-0.399891
-0.342394
-0.289753
-0.242478
-0.20052
-0.163556
-0.131139
-0.102768
-0.0779045
-0.0560113
-0.0366436
-0.0192319
-0.00210449
0.0167834
0.0260758
-0.730519
-0.698412
-0.667484
-0.643006
-0.613378
-0.572387
-0.519564
-0.460324
-0.400063
-0.342296
-0.288854
-0.240471
-0.197248
-0.158958
-0.125239
-0.0956824
-0.069854
-0.0472868
-0.0275016
-0.0101135
0.00547597
0.0213886
0.0398851
0.0438154
-0.72966
-0.689435
-0.650437
-0.614471
-0.572651
-0.520304
-0.460861
-0.39976
-0.340771
-0.285921
-0.23607
-0.19139
-0.151683
-0.116591
-0.0857205
-0.0586935
-0.0351311
-0.0146233
0.00325446
0.0188345
0.0327337
0.0475653
0.0658106
0.06416
-0.729893
-0.678233
-0.631569
-0.583065
-0.527842
-0.46554
-0.401549
-0.339813
-0.282483
-0.23046
-0.183899
-0.14255
-0.105986
-0.0737498
-0.0454239
-0.020651
0.000904121
0.0196019
0.0358046
0.0497722
0.0621397
0.0760439
0.0942003
0.0870422
-0.731075
-0.663768
-0.608873
-0.54701
-0.478341
-0.408294
-0.341515
-0.28008
-0.224765
-0.175602
-0.132196
-0.0939719
-0.0603299
-0.0307313
-0.00473763
0.0179964
0.0377746
0.0549104
0.0696889
0.0822684
0.0932924
0.106426
0.124673
0.112424
-0.731168
-0.646279
-0.579752
-0.504145
-0.423971
-0.348452
-0.280402
-0.220112
-0.167226
-0.121076
-0.0808378
-0.0456835
-0.0148767
0.0121849
0.0359623
0.0567997
0.0749808
0.090778
0.104389
0.115836
0.125749
0.138275
0.156784
0.140274
-0.725624
-0.628358
-0.542243
-0.453008
-0.364527
-0.285767
-0.217805
-0.159496
-0.109532
-0.066669
-0.0297407
0.00227433
0.0302136
0.0547287
0.0763034
0.0952916
0.111972
0.126589
0.139263
0.149865
0.158962
0.171065
0.190016
0.170656
-0.710561
-0.612599
-0.496866
-0.393342
-0.299685
-0.219889
-0.153339
-0.0978755
-0.0514073
-0.0122062
0.0211625
0.0498621
0.0747985
0.0966544
0.115933
0.133004
0.148159
0.161636
0.173516
0.183574
0.192256
0.204186
0.22374
0.20405
-0.685526
-0.593318
-0.443454
-0.325128
-0.228865
-0.150252
-0.0865847
-0.034948
0.00735289
0.0424297
0.0719128
0.0970497
0.118774
0.137774
0.154556
0.169504
0.182926
0.195082
0.206091
0.215775
0.224434
0.236156
0.255984
0.242692
-0.651908
-0.554684
-0.378079
-0.247705
-0.151514
-0.0763904
-0.0172743
0.0294329
0.0668343
0.0972893
0.122536
0.143841
0.162119
0.178024
0.192033
0.204503
0.215728
0.225963
0.235399
0.243989
0.251631
0.260441
0.27669
0.289934
-0.61128
-0.482293
-0.294311
-0.159767
-0.0671963
0.00194386
0.0546715
0.0952548
0.126997
0.152343
0.173031
0.190281
0.204932
0.217564
0.228581
0.238263
0.246813
0.254392
0.26111
0.266776
0.270608
0.273719
0.286662
0.321085
-0.566468
-0.369102
-0.185536
-0.059725
0.0242687
0.0845703
0.129001
0.162251
0.187614
0.207433
0.223331
0.236403
0.247377
0.256735
0.264798
0.271775
0.277806
0.283003
0.28736
0.290383
0.291435
0.294504
0.313505
0.335085
-0.50946
-0.205335
-0.0465413
0.0534373
0.12231
0.170591
0.204928
0.229808
0.248226
0.262239
0.273237
0.282128
0.289496
0.295715
0.301021
0.305565
0.309454
0.312778
0.315478
0.316955
0.316974
0.321304
0.343644
0.355117
-0.337481
0.0195851
0.118175
0.177702
0.225009
0.258337
0.281183
0.296995
0.308157
0.316271
0.322402
0.327223
0.33115
0.334437
0.337236
0.339638
0.341707
0.343501
0.344901
0.345251
0.344542
0.349321
0.372807
0.378775
)
;

boundaryField
{
    rotor
    {
        type            zeroGradient;
    }
    freestream
    {
        type            freestreamPressure;
        freestreamValue uniform 0;
        supersonic      false;
        value           nonuniform List<scalar> 
96
(
0.266513
0.297919
0.330515
0.363803
0.397312
0.430583
0.463152
0.494562
0.524373
0.552178
0.577619
0.600388
0.620235
0.636926
0.650089
0.660073
0.666912
0.670371
0.670468
0.667323
0.661025
0.651751
0.639668
0.624984
0.607898
0.588738
0.568004
0.545602
0.521279
0.495645
0.469022
0.441656
0.413796
0.385687
0.357576
0.329704
0.302316
0.275679
0.250136
0.226218
0.204864
0.187742
0.167992
0.139545
0.115677
0.0959542
0.0788697
0.0639227
0.0509302
0.0397662
0.0303107
0.0224425
0.0160405
0.0109985
0.00719035
0.00445147
0.00258571
0.00137182
0.000619943
0.000304214
4.8085e-05
-4.26305e-05
-2.25429e-05
-2.6114e-06
0.000167581
0.000463637
0.000227725
5.19242e-05
0.00027626
0.000273915
0.000527932
0.000488693
0.000342566
-0.000266712
-0.00112594
-0.00190716
-0.00257795
-0.0028874
-0.00266738
-0.00183246
-0.000208643
0.00243117
0.00628837
0.0115823
0.018547
0.0274417
0.0385396
0.0521158
0.068475
0.0880884
0.11225
0.142964
0.167927
0.186491
0.209898
0.236853
)
;
    }
    frontAndBack
    {
        type            empty;
    }
}


// ************************************************************************* //
