/*--------------------------------*- C++ -*----------------------------------*\
  =========                 |
  \\      /  F ield         | OpenFOAM: The Open Source CFD Toolbox
   \\    /   O peration     | Website:  https://openfoam.org
    \\  /    A nd           | Version:  11
     \\/     M anipulation  |
\*---------------------------------------------------------------------------*/
FoamFile
{
    format      ascii;
    class       surfaceScalarField;
    location    "0.8";
    object      phi;
}
// * * * * * * * * * * * * * * * * * * * * * * * * * * * * * * * * * * * * * //

dimensions      [0 3 -1 0 0 0 0];

internalField   nonuniform List<scalar> 
5640
(
-2.50433e-07
2.50433e-07
1.1667e-07
-3.67103e-07
1.31954e-06
-1.20287e-06
3.15513e-06
-1.8356e-06
7.21972e-06
-4.06459e-06
-7.77675e-06
1.49965e-05
-6.20824e-08
3.12516e-07
5.51803e-07
-9.80989e-07
1.83203e-06
-2.4831e-06
3.86473e-06
-3.86829e-06
6.67565e-06
-6.87551e-06
-1.18699e-05
1.07688e-05
7.19093e-08
2.40606e-07
8.00599e-07
-1.70968e-06
2.06766e-06
-3.75015e-06
3.93318e-06
-5.73382e-06
6.1748e-06
-9.11712e-06
-1.41902e-05
8.49512e-06
1.74336e-07
6.627e-08
9.43798e-07
-2.47914e-06
2.12139e-06
-4.92774e-06
3.71948e-06
-7.33191e-06
5.44688e-06
-1.08445e-05
-1.55747e-05
6.83138e-06
2.67695e-07
-2.01425e-07
1.00169e-06
-3.21314e-06
2.04334e-06
-5.9694e-06
3.34158e-06
-8.63014e-06
4.59189e-06
-1.20948e-05
-1.63392e-05
5.35635e-06
3.19994e-07
-5.21419e-07
9.86354e-07
-3.8795e-06
1.86606e-06
-6.8491e-06
2.8619e-06
-9.62599e-06
3.68529e-06
-1.29182e-05
-1.66395e-05
3.98558e-06
3.33436e-07
-8.54855e-07
9.10059e-07
-4.45612e-06
1.61607e-06
-7.55512e-06
2.3229e-06
-1.03328e-05
2.77446e-06
-1.33698e-05
-1.65756e-05
2.71056e-06
3.13595e-07
-1.16845e-06
7.86127e-07
-4.92865e-06
1.31622e-06
-8.08521e-06
1.75641e-06
-1.0773e-05
1.88933e-06
-1.35027e-05
-1.62194e-05
1.5331e-06
2.66753e-07
-1.4352e-06
6.28158e-07
-5.29006e-06
9.86385e-07
-8.44343e-06
1.18652e-06
-1.09731e-05
1.04918e-06
-1.33654e-05
-1.56243e-05
4.54138e-07
2.0052e-07
-1.63572e-06
4.4857e-07
-5.53811e-06
6.43423e-07
-8.63829e-06
6.31322e-07
-1.0961e-05
2.66664e-07
-1.30007e-05
-1.48333e-05
-5.24408e-07
1.22513e-07
-1.75824e-06
2.58132e-07
-5.67372e-06
3.0097e-07
-8.68112e-06
1.04181e-07
-1.07643e-05
-4.50101e-07
-1.24464e-05
-1.38795e-05
-1.40384e-06
3.9639e-08
-1.79787e-06
6.58496e-08
-5.69994e-06
-3.03418e-08
-8.58493e-06
-3.85198e-07
-1.04094e-05
-1.09601e-06
-1.17356e-05
-1.27906e-05
-2.18495e-06
-4.23319e-08
-1.75554e-06
-1.21014e-07
-5.62125e-06
-3.42571e-07
-8.36338e-06
-8.30442e-07
-9.92152e-06
-1.66801e-06
-1.0898e-05
-1.15904e-05
-2.86821e-06
-1.18174e-07
-1.63737e-06
-2.96668e-07
-5.44276e-06
-6.30035e-07
-8.03001e-06
-1.22749e-06
-9.32407e-06
-2.16443e-06
-9.9611e-06
-1.03006e-05
-3.45417e-06
-1.83715e-07
-1.45365e-06
-4.56375e-07
-5.1701e-06
-8.89013e-07
-7.59737e-06
-1.57441e-06
-8.63868e-06
-2.58472e-06
-8.9508e-06
-8.9422e-06
-3.94316e-06
-2.35046e-07
-1.21861e-06
-5.96094e-07
-4.80905e-06
-1.11722e-06
-7.07624e-06
-1.87096e-06
-7.88494e-06
-2.92928e-06
-7.89248e-06
-7.53636e-06
-4.33512e-06
-2.6856e-07
-9.50048e-07
-7.1206e-07
-4.36555e-06
-1.31353e-06
-6.47478e-06
-2.11879e-06
-7.07968e-06
-3.19993e-06
-6.81134e-06
-6.10666e-06
-4.62963e-06
-2.80823e-07
-6.69225e-07
-8.0068e-07
-3.84569e-06
-1.47792e-06
-5.79754e-06
-2.32144e-06
-6.23616e-06
-3.40041e-06
-5.73237e-06
-4.68059e-06
-4.82648e-06
-2.67988e-07
-4.01237e-07
-8.57958e-07
-3.25572e-06
-1.61102e-06
-5.04447e-06
-2.48461e-06
-5.36257e-06
-3.53704e-06
-4.67994e-06
-3.29196e-06
-4.92568e-06
-2.28199e-07
-1.73038e-07
-8.79655e-07
-2.60427e-06
-1.71346e-06
-4.21067e-06
-2.61693e-06
-4.4591e-06
-3.62089e-06
-3.67598e-06
-1.98621e-06
-4.92664e-06
-1.70665e-07
-2.37353e-09
-8.62994e-07
-1.91194e-06
-1.7846e-06
-3.28906e-06
-2.73137e-06
-3.51233e-06
-3.67418e-06
-2.73317e-06
-8.33668e-07
-4.82672e-06
-9.94561e-08
9.70826e-08
-8.04777e-07
-1.20662e-06
-1.81822e-06
-2.27562e-06
-2.84479e-06
-2.48576e-06
-3.73584e-06
-1.84213e-06
3.15627e-08
-4.60107e-06
-1.08188e-08
1.07901e-07
-6.85583e-07
-5.31852e-07
-1.79264e-06
-1.16856e-06
-2.95842e-06
-1.31998e-06
-3.84603e-06
-9.54517e-07
3.48698e-07
-4.16316e-06
1.07901e-07
-4.23951e-07
-1.59251e-06
-2.91249e-06
-3.86701e-06
-3.51831e-06
1.10227e-05
-3.3827e-05
3.78008e-05
8.67697e-06
-4.14682e-05
4.38139e-05
6.72754e-06
-4.51348e-05
4.70842e-05
4.95523e-06
-4.70804e-05
4.88527e-05
3.26574e-06
-4.81415e-05
4.9831e-05
1.64172e-06
-4.87963e-05
5.04203e-05
8.41021e-08
-4.92676e-05
5.08252e-05
-1.40739e-06
-4.96614e-05
5.11529e-05
-2.83736e-06
-5.00243e-05
5.14542e-05
-4.21218e-06
-5.03736e-05
5.17484e-05
-5.53843e-06
-5.07132e-05
5.20394e-05
-6.82203e-06
-5.10418e-05
5.23254e-05
-8.06803e-06
-5.13561e-05
5.26021e-05
-9.28073e-06
-5.16524e-05
5.28651e-05
-1.04639e-05
-5.19261e-05
5.31092e-05
-1.16207e-05
-5.21722e-05
5.3329e-05
-1.27539e-05
-5.23852e-05
5.35184e-05
-1.38658e-05
-5.25587e-05
5.36706e-05
-1.49572e-05
-5.2686e-05
5.37774e-05
-1.60279e-05
-5.27591e-05
5.38298e-05
-1.70746e-05
-5.27692e-05
5.38159e-05
-1.80897e-05
-5.27035e-05
5.37186e-05
-1.9054e-05
-5.25448e-05
5.35091e-05
-5.23812e-05
5.32443e-05
9.06471e-06
-3.21229e-05
7.23338e-06
-3.96368e-05
5.31361e-06
-4.32151e-05
3.39897e-06
-4.51657e-05
1.54893e-06
-4.62914e-05
-2.25429e-07
-4.70219e-05
-1.92332e-06
-4.75697e-05
-3.5497e-06
-4.8035e-05
-5.11243e-06
-4.84615e-05
-6.62005e-06
-4.88659e-05
-8.08027e-06
-4.9253e-05
-9.49946e-06
-4.96226e-05
-1.08828e-05
-4.99728e-05
-1.22344e-05
-5.03008e-05
-1.35578e-05
-5.06027e-05
-1.48556e-05
-5.08743e-05
-1.613e-05
-5.11108e-05
-1.73819e-05
-5.13068e-05
-1.86111e-05
-5.14568e-05
-1.98153e-05
-5.15549e-05
-2.09896e-05
-5.15948e-05
-2.2125e-05
-5.15681e-05
-2.32042e-05
-5.14657e-05
-5.13966e-05
7.56736e-06
-3.11951e-05
5.76474e-06
-3.78342e-05
3.7756e-06
-4.12259e-05
1.75991e-06
-4.315e-05
-2.06183e-07
-4.43253e-05
-2.09933e-06
-4.51287e-05
-3.91648e-06
-4.57525e-05
-5.66341e-06
-4.62881e-05
-7.34895e-06
-4.6776e-05
-8.98198e-06
-4.72329e-05
-1.05701e-05
-4.76649e-05
-1.21193e-05
-4.80733e-05
-1.36345e-05
-4.84576e-05
-1.51194e-05
-4.88159e-05
-1.65768e-05
-4.91453e-05
-1.80089e-05
-4.94423e-05
-1.94168e-05
-4.97029e-05
-2.08005e-05
-4.99231e-05
-2.21587e-05
-5.00986e-05
-2.34879e-05
-5.02257e-05
-2.47821e-05
-5.03006e-05
-2.60319e-05
-5.03183e-05
-2.72218e-05
-5.02758e-05
-5.02948e-05
5.97669e-06
-3.03404e-05
4.19899e-06
-3.60565e-05
2.16731e-06
-3.91942e-05
8.30207e-08
-4.10657e-05
-1.96956e-06
-4.22728e-05
-3.95872e-06
-4.31396e-05
-5.87889e-06
-4.38324e-05
-7.73469e-06
-4.44323e-05
-9.53406e-06
-4.49766e-05
-1.1285e-05
-4.5482e-05
-1.29941e-05
-4.59557e-05
-1.46669e-05
-4.64005e-05
-1.63074e-05
-4.68171e-05
-1.79187e-05
-4.72046e-05
-1.9503e-05
-4.7561e-05
-2.10616e-05
-4.78836e-05
-2.25951e-05
-4.81695e-05
-2.41026e-05
-4.84156e-05
-2.55817e-05
-4.86194e-05
-2.70282e-05
-4.87792e-05
-2.84355e-05
-4.88933e-05
-2.97943e-05
-4.89595e-05
-3.10907e-05
-4.89794e-05
-4.90801e-05
4.4003e-06
-2.93843e-05
2.61173e-06
-3.42679e-05
5.47353e-07
-3.71299e-05
-1.59037e-06
-3.8928e-05
-3.71169e-06
-4.01514e-05
-5.78252e-06
-4.10688e-05
-7.79433e-06
-4.18206e-05
-9.74971e-06
-4.24769e-05
-1.16548e-05
-4.30715e-05
-1.35162e-05
-4.36207e-05
-1.53393e-05
-4.41326e-05
-1.71284e-05
-4.46114e-05
-1.88869e-05
-4.50587e-05
-2.06171e-05
-4.54744e-05
-2.23205e-05
-4.58576e-05
-2.39978e-05
-4.62063e-05
-2.56488e-05
-4.65185e-05
-2.7272e-05
-4.67924e-05
-2.88644e-05
-4.70271e-05
-3.04209e-05
-4.72227e-05
-3.19348e-05
-4.73795e-05
-3.3397e-05
-4.74972e-05
-3.47958e-05
-4.75806e-05
-4.77568e-05
2.88292e-06
-2.82817e-05
1.05711e-06
-3.24421e-05
-1.04265e-06
-3.50301e-05
-3.22705e-06
-3.67436e-05
-5.40882e-06
-3.79697e-05
-7.55258e-06
-3.8925e-05
-9.64791e-06
-3.97252e-05
-1.16953e-05
-4.04295e-05
-1.36988e-05
-4.10679e-05
-1.56633e-05
-4.16561e-05
-1.7593e-05
-4.2203e-05
-1.9491e-05
-4.27134e-05
-2.13597e-05
-4.31899e-05
-2.32009e-05
-4.36332e-05
-2.50154e-05
-4.40431e-05
-2.68033e-05
-4.44184e-05
-2.85638e-05
-4.4758e-05
-3.02947e-05
-4.50614e-05
-3.19926e-05
-4.53293e-05
-3.36519e-05
-4.55634e-05
-3.52658e-05
-4.57656e-05
-3.6826e-05
-4.5937e-05
-3.83228e-05
-4.60838e-05
-4.6329e-05
1.44939e-06
-2.70205e-05
-4.32416e-07
-3.05603e-05
-2.5737e-06
-3.28888e-05
-4.80407e-06
-3.45132e-05
-7.04219e-06
-3.57315e-05
-9.25346e-06
-3.67137e-05
-1.14262e-05
-3.75524e-05
-1.35591e-05
-3.82967e-05
-1.56542e-05
-3.89728e-05
-1.77147e-05
-3.95956e-05
-1.97434e-05
-4.01743e-05
-2.17425e-05
-4.07143e-05
-2.37137e-05
-4.12187e-05
-2.56578e-05
-4.16891e-05
-2.75752e-05
-4.21257e-05
-2.94655e-05
-4.25281e-05
-3.13272e-05
-4.28962e-05
-3.31579e-05
-4.32307e-05
-3.49534e-05
-4.35338e-05
-3.67081e-05
-4.38087e-05
-3.84154e-05
-4.40583e-05
-4.00681e-05
-4.42843e-05
-4.16585e-05
-4.44934e-05
-4.48014e-05
1.15347e-07
-2.56028e-05
-1.83678e-06
-2.86082e-05
-4.02633e-06
-3.06993e-05
-6.30423e-06
-3.22353e-05
-8.59707e-06
-3.34387e-05
-1.08723e-05
-3.44385e-05
-1.31176e-05
-3.53071e-05
-1.533e-05
-3.60843e-05
-1.751e-05
-3.67927e-05
-1.96594e-05
-3.74463e-05
-2.17796e-05
-3.80541e-05
-2.3872e-05
-3.86218e-05
-2.59375e-05
-3.91533e-05
-2.79763e-05
-3.96503e-05
-2.99883e-05
-4.01137e-05
-3.19727e-05
-4.05438e-05
-3.39274e-05
-4.09414e-05
-3.58496e-05
-4.13085e-05
-3.77348e-05
-4.16486e-05
-3.95774e-05
-4.19661e-05
-4.13714e-05
-4.22643e-05
-4.3111e-05
-4.25447e-05
-4.47903e-05
-4.2814e-05
-4.31787e-05
-1.11612e-06
-2.40325e-05
-3.14417e-06
-2.65801e-05
-5.38745e-06
-2.8456e-05
-7.71511e-06
-2.99077e-05
-1.0062e-05
-3.10918e-05
-1.23983e-05
-3.21023e-05
-1.47117e-05
-3.29937e-05
-1.6998e-05
-3.3798e-05
-1.92564e-05
-3.45343e-05
-2.14873e-05
-3.52154e-05
-2.36914e-05
-3.585e-05
-2.58691e-05
-3.64441e-05
-2.80207e-05
-3.70017e-05
-3.0146e-05
-3.7525e-05
-3.22442e-05
-3.80154e-05
-3.43142e-05
-3.84739e-05
-3.63536e-05
-3.8902e-05
-3.83589e-05
-3.93032e-05
-4.03257e-05
-3.96818e-05
-4.22487e-05
-4.00431e-05
-4.41229e-05
-4.03901e-05
-4.59436e-05
-4.0724e-05
-4.77069e-05
-4.10508e-05
-4.14666e-05
-2.23801e-06
-2.23189e-05
-4.34755e-06
-2.44706e-05
-6.64877e-06
-2.61548e-05
-9.028e-06
-2.75285e-05
-1.14283e-05
-2.86915e-05
-1.38228e-05
-2.97077e-05
-1.61998e-05
-3.06168e-05
-1.85542e-05
-3.14435e-05
-2.08844e-05
-3.22042e-05
-2.31895e-05
-3.29102e-05
-2.54697e-05
-3.35699e-05
-2.77246e-05
-3.41892e-05
-2.99539e-05
-3.47723e-05
-3.21572e-05
-3.53218e-05
-3.43331e-05
-3.58394e-05
-3.64802e-05
-3.63268e-05
-3.85956e-05
-3.67866e-05
-4.06758e-05
-3.7223e-05
-4.27162e-05
-3.76415e-05
-4.47122e-05
-3.80471e-05
-4.66599e-05
-3.84424e-05
-4.85559e-05
-3.88279e-05
-5.03977e-05
-3.9209e-05
-3.96711e-05
-3.2513e-06
-2.04715e-05
-5.44374e-06
-2.22781e-05
-7.80533e-06
-2.37932e-05
-1.02369e-05
-2.50969e-05
-1.26892e-05
-2.62392e-05
-1.51388e-05
-2.72582e-05
-1.75745e-05
-2.8181e-05
-1.99911e-05
-2.90269e-05
-2.2386e-05
-2.98093e-05
-2.47579e-05
-3.05383e-05
-2.71061e-05
-3.12217e-05
-2.94299e-05
-3.18654e-05
-3.17286e-05
-3.24736e-05
-3.40012e-05
-3.30492e-05
-3.62463e-05
-3.35944e-05
-3.84618e-05
-3.41113e-05
-4.06447e-05
-3.46037e-05
-4.27912e-05
-3.50765e-05
-4.48972e-05
-3.55355e-05
-4.69589e-05
-3.59853e-05
-4.89736e-05
-3.64277e-05
-5.09389e-05
-3.68626e-05
-5.2853e-05
-3.7295e-05
-3.77988e-05
-4.15662e-06
-1.84998e-05
-6.43159e-06
-2.00032e-05
-8.85437e-06
-2.13704e-05
-1.13379e-05
-2.26133e-05
-1.384e-05
-2.37371e-05
-1.63406e-05
-2.47576e-05
-1.88298e-05
-2.56918e-05
-2.13021e-05
-2.65546e-05
-2.37545e-05
-2.73569e-05
-2.61853e-05
-2.81075e-05
-2.85933e-05
-2.88137e-05
-3.09776e-05
-2.94811e-05
-3.3337e-05
-3.01142e-05
-3.56703e-05
-3.07159e-05
-3.79758e-05
-3.12889e-05
-4.02509e-05
-3.18362e-05
-4.24926e-05
-3.2362e-05
-4.46971e-05
-3.28719e-05
-4.6861e-05
-3.33716e-05
-4.89814e-05
-3.38649e-05
-5.10563e-05
-3.43528e-05
-5.30843e-05
-3.48347e-05
-5.50641e-05
-3.53151e-05
-3.5857e-05
-4.9552e-06
-1.64128e-05
-7.31122e-06
-1.76472e-05
-9.79468e-06
-1.8887e-05
-1.23285e-05
-2.00795e-05
-1.48772e-05
-2.11884e-05
-1.74242e-05
-2.22106e-05
-1.99609e-05
-2.31551e-05
-2.2482e-05
-2.40335e-05
-2.49842e-05
-2.48547e-05
-2.74657e-05
-2.5626e-05
-2.99251e-05
-2.63543e-05
-3.23611e-05
-2.70451e-05
-3.47725e-05
-2.77028e-05
-3.71577e-05
-2.83308e-05
-3.95145e-05
-2.8932e-05
-4.18405e-05
-2.95102e-05
-4.41324e-05
-3.00702e-05
-4.63868e-05
-3.06175e-05
-4.8601e-05
-3.11575e-05
-5.07729e-05
-3.1693e-05
-5.29012e-05
-3.22245e-05
-5.49847e-05
-3.27511e-05
-5.7023e-05
-3.32768e-05
-3.3853e-05
-5.64869e-06
-1.42183e-05
-8.08369e-06
-1.52122e-05
-1.06262e-05
-1.63445e-05
-1.32075e-05
-1.74982e-05
-1.57986e-05
-1.85973e-05
-1.83865e-05
-1.96228e-05
-2.0964e-05
-2.05776e-05
-2.35264e-05
-2.14711e-05
-2.60704e-05
-2.23106e-05
-2.85941e-05
-2.31023e-05
-3.10961e-05
-2.38523e-05
-3.3575e-05
-2.45662e-05
-3.60293e-05
-2.52485e-05
-3.84573e-05
-2.59028e-05
-4.08566e-05
-2.65327e-05
-4.32246e-05
-2.71423e-05
-4.55581e-05
-2.77366e-05
-4.78544e-05
-2.83212e-05
-5.01113e-05
-2.89005e-05
-5.23276e-05
-2.94767e-05
-5.45021e-05
-3.005e-05
-5.66334e-05
-3.06198e-05
-5.87211e-05
-3.11891e-05
-3.17927e-05
-6.23899e-06
-1.19224e-05
-8.75088e-06
-1.27003e-05
-1.13498e-05
-1.37455e-05
-1.39745e-05
-1.48735e-05
-1.66031e-05
-1.59687e-05
-1.92257e-05
-1.70002e-05
-2.18367e-05
-1.79665e-05
-2.44322e-05
-1.88757e-05
-2.70093e-05
-1.97335e-05
-2.95664e-05
-2.05453e-05
-3.21019e-05
-2.13168e-05
-3.46145e-05
-2.20536e-05
-3.71026e-05
-2.27604e-05
-3.95642e-05
-2.34412e-05
-4.19969e-05
-2.41e-05
-4.43979e-05
-2.47413e-05
-4.67646e-05
-2.537e-05
-4.90946e-05
-2.59912e-05
-5.13866e-05
-2.66085e-05
-5.36399e-05
-2.72235e-05
-5.58536e-05
-2.78363e-05
-5.80265e-05
-2.84469e-05
-6.01569e-05
-2.90587e-05
-2.9688e-05
-6.72838e-06
-9.52918e-06
-9.31548e-06
-1.01132e-05
-1.19674e-05
-1.10936e-05
-1.46308e-05
-1.22101e-05
-1.7291e-05
-1.33085e-05
-1.99412e-05
-1.435e-05
-2.25775e-05
-1.53303e-05
-2.51971e-05
-1.6256e-05
-2.77982e-05
-1.71324e-05
-3.03792e-05
-1.79643e-05
-3.2939e-05
-1.87571e-05
-3.54761e-05
-1.95165e-05
-3.79887e-05
-2.02477e-05
-4.04748e-05
-2.09551e-05
-4.29317e-05
-2.16431e-05
-4.53569e-05
-2.23161e-05
-4.7748e-05
-2.29789e-05
-5.01035e-05
-2.36357e-05
-5.24226e-05
-2.42894e-05
-5.47049e-05
-2.49411e-05
-5.69501e-05
-2.55911e-05
-5.91574e-05
-2.62396e-05
-6.1326e-05
-2.68901e-05
-2.755e-05
-7.11963e-06
-7.03918e-06
-9.78124e-06
-7.45155e-06
-1.24822e-05
-8.39262e-06
-1.51789e-05
-9.51342e-06
-1.78636e-05
-1.06237e-05
-2.0533e-05
-1.16807e-05
-2.31853e-05
-1.2678e-05
-2.58196e-05
-1.36217e-05
-2.84349e-05
-1.45171e-05
-3.10303e-05
-1.53689e-05
-3.36047e-05
-1.61826e-05
-3.61568e-05
-1.69644e-05
-3.86847e-05
-1.77198e-05
-4.1186e-05
-1.84538e-05
-4.36583e-05
-1.91707e-05
-4.60991e-05
-1.98753e-05
-4.85065e-05
-2.05715e-05
-5.08795e-05
-2.12628e-05
-5.32177e-05
-2.19512e-05
-5.55211e-05
-2.26378e-05
-5.77894e-05
-2.33228e-05
-6.00222e-05
-2.40068e-05
-6.22197e-05
-2.46926e-05
-2.53846e-05
-7.41672e-06
-4.44893e-06
-1.01534e-05
-4.71485e-06
-1.28995e-05
-5.64655e-06
-1.56227e-05
-6.79023e-06
-1.83231e-05
-7.92326e-06
-2.10018e-05
-9.00198e-06
-2.36598e-05
-1.002e-05
-2.62984e-05
-1.09832e-05
-2.89177e-05
-1.18978e-05
-3.15175e-05
-1.27691e-05
-3.40969e-05
-1.36032e-05
-3.66545e-05
-1.44068e-05
-3.91884e-05
-1.5186e-05
-4.16961e-05
-1.5946e-05
-4.41751e-05
-1.66917e-05
-4.66232e-05
-1.74272e-05
-4.90389e-05
-1.81558e-05
-5.14215e-05
-1.88801e-05
-5.37711e-05
-1.96016e-05
-5.60875e-05
-2.03213e-05
-5.83705e-05
-2.10399e-05
-6.06193e-05
-2.1758e-05
-6.2835e-05
-2.24768e-05
-2.31994e-05
-7.62563e-06
-1.74898e-06
-1.04402e-05
-1.90028e-06
-1.32267e-05
-2.86009e-06
-1.59674e-05
-4.04949e-06
-1.86724e-05
-5.21828e-06
-2.13486e-05
-6.32571e-06
-2.4001e-05
-7.36766e-06
-2.66327e-05
-8.35143e-06
-2.92455e-05
-9.28504e-06
-3.18395e-05
-1.01751e-05
-3.4414e-05
-1.10287e-05
-3.69677e-05
-1.18532e-05
-3.94983e-05
-1.26553e-05
-4.20034e-05
-1.34409e-05
-4.44805e-05
-1.42146e-05
-4.69276e-05
-1.49801e-05
-4.93434e-05
-1.574e-05
-5.17276e-05
-1.64959e-05
-5.40801e-05
-1.72491e-05
-5.6401e-05
-1.80004e-05
-5.86901e-05
-1.87508e-05
-6.09472e-05
-1.95009e-05
-6.31722e-05
-2.02518e-05
-2.10043e-05
-7.75658e-06
1.08095e-06
-1.06545e-05
9.9768e-07
-1.34737e-05
-4.08856e-08
-1.62192e-05
-1.30402e-06
-1.89145e-05
-2.52296e-06
-2.15747e-05
-3.66556e-06
-2.42087e-05
-4.73366e-06
-2.68219e-05
-5.73825e-06
-2.9417e-05
-6.68987e-06
-3.19949e-05
-7.5972e-06
-3.45548e-05
-8.46881e-06
-3.7095e-05
-9.31297e-06
-3.96133e-05
-1.0137e-05
-4.21071e-05
-1.09471e-05
-4.45739e-05
-1.17478e-05
-4.70117e-05
-1.25423e-05
-4.94196e-05
-1.33321e-05
-5.17973e-05
-1.41183e-05
-5.41446e-05
-1.49017e-05
-5.64617e-05
-1.56833e-05
-5.87482e-05
-1.64642e-05
-6.10038e-05
-1.72454e-05
-6.32287e-05
-1.80269e-05
-1.88078e-05
-7.82537e-06
4.07961e-06
-1.08166e-05
3.98889e-06
-1.3654e-05
2.79649e-06
-1.63851e-05
1.42714e-06
-1.90526e-05
1.44544e-07
-2.16807e-05
-1.03747e-06
-2.42824e-05
-2.13196e-06
-2.68648e-05
-3.15586e-06
-2.94313e-05
-4.12334e-06
-3.19827e-05
-5.04577e-06
-3.45182e-05
-5.93338e-06
-3.70357e-05
-6.79546e-06
-3.95327e-05
-7.63997e-06
-4.20066e-05
-8.47323e-06
-4.44548e-05
-9.29967e-06
-4.68754e-05
-1.01217e-05
-4.92673e-05
-1.09402e-05
-5.16303e-05
-1.17554e-05
-5.39641e-05
-1.25679e-05
-5.62688e-05
-1.33786e-05
-5.8544e-05
-1.4189e-05
-6.07894e-05
-1.5e-05
-6.30052e-05
-1.58111e-05
-1.66192e-05
-7.87006e-06
7.34861e-06
-1.09599e-05
7.07868e-06
-1.37845e-05
5.62113e-06
-1.64719e-05
4.11451e-06
-1.90883e-05
2.76098e-06
-2.16661e-05
1.54037e-06
-2.42208e-05
4.22702e-07
-2.676e-05
-6.16661e-07
-2.9287e-05
-1.59638e-06
-3.1802e-05
-2.53079e-06
-3.43035e-05
-3.43182e-06
-3.67893e-05
-4.3097e-06
-3.92564e-05
-5.17282e-06
-4.17021e-05
-6.02761e-06
-4.41235e-05
-6.87819e-06
-4.65189e-05
-7.72631e-06
-4.8887e-05
-8.57207e-06
-5.12272e-05
-9.41515e-06
-5.35394e-05
-1.02558e-05
-5.58233e-05
-1.10948e-05
-5.80786e-05
-1.19337e-05
-6.03049e-05
-1.27737e-05
-6.25027e-05
-1.36133e-05
-1.44477e-05
-7.99926e-06
1.11847e-05
-1.11382e-05
1.02176e-05
-1.38824e-05
8.3653e-06
-1.64826e-05
6.71469e-06
-1.902e-05
5.29842e-06
-2.15283e-05
4.04863e-06
-2.40213e-05
2.91574e-06
-2.65055e-05
1.86753e-06
-2.89826e-05
8.80686e-07
-3.14516e-05
-6.17492e-08
-3.39103e-05
-9.73123e-07
-3.63557e-05
-1.86428e-06
-3.87847e-05
-2.74388e-06
-4.1194e-05
-3.61828e-06
-4.3581e-05
-4.49122e-06
-4.59435e-05
-5.36383e-06
-4.828e-05
-6.23556e-06
-5.05896e-05
-7.10548e-06
-5.2872e-05
-7.97338e-06
-5.51268e-05
-8.83999e-06
-5.73536e-05
-9.70681e-06
-5.95522e-05
-1.05751e-05
-6.17231e-05
-1.14425e-05
-1.23023e-05
-8.59092e-06
1.62573e-05
-1.14151e-05
1.30418e-05
-1.39514e-05
1.09016e-05
-1.64107e-05
9.17397e-06
-1.88406e-05
7.72826e-06
-2.12613e-05
6.4694e-06
-2.36799e-05
5.33432e-06
-2.60986e-05
4.28626e-06
-2.85165e-05
3.29857e-06
-3.09309e-05
2.35261e-06
-3.33383e-05
1.43434e-06
-3.57353e-05
5.32655e-07
-3.81181e-05
-3.61059e-07
-4.04834e-05
-1.25292e-06
-4.28284e-05
-2.14626e-06
-4.51506e-05
-3.04169e-06
-4.7448e-05
-3.93806e-06
-4.97196e-05
-4.83389e-06
-5.19645e-05
-5.7285e-06
-5.41822e-05
-6.62231e-06
-5.63723e-05
-7.51675e-06
-5.85343e-05
-8.413e-06
-6.0669e-05
-9.30777e-06
-1.01919e-05
1.6018e-07
-1.6018e-07
-1.44055e-07
3.04235e-07
-9.34738e-07
7.90682e-07
-2.39013e-06
1.45539e-06
-4.71486e-06
2.32473e-06
4.96712e-06
-9.68198e-06
-7.88117e-08
-8.13678e-08
-7.69616e-07
9.95039e-07
-2.01344e-06
2.03451e-06
-3.80941e-06
3.25136e-06
-6.33539e-06
4.85071e-06
8.07865e-06
-9.44692e-06
-2.44526e-07
1.63159e-07
-1.15215e-06
1.90266e-06
-2.59228e-06
3.47464e-06
-4.49363e-06
5.1527e-06
-6.89828e-06
7.25537e-06
1.03509e-05
-9.17056e-06
-3.69812e-07
5.32971e-07
-1.38187e-06
2.91472e-06
-2.88041e-06
4.97318e-06
-4.75397e-06
7.02626e-06
-6.89672e-06
9.39812e-06
1.21861e-05
-8.7319e-06
-4.72164e-07
1.00513e-06
-1.50601e-06
3.94857e-06
-2.96485e-06
6.43202e-06
-4.71933e-06
8.78075e-06
-6.58205e-06
1.12608e-05
1.37055e-05
-8.10146e-06
-5.47839e-07
1.55297e-06
-1.53903e-06
4.93975e-06
-2.89779e-06
7.79078e-06
-4.47999e-06
1.0363e-05
-6.07413e-06
1.2855e-05
1.49975e-05
-7.3661e-06
-5.80786e-07
2.13376e-06
-1.49125e-06
5.85022e-06
-2.71143e-06
9.01095e-06
-4.09245e-06
1.1744e-05
-5.44072e-06
1.42032e-05
1.61125e-05
-6.55577e-06
-5.71964e-07
2.70572e-06
-1.37509e-06
6.65334e-06
-2.42954e-06
1.00654e-05
-3.59699e-06
1.29114e-05
-4.72011e-06
1.53264e-05
1.70711e-05
-5.67867e-06
-5.27981e-07
3.23371e-06
-1.20231e-06
7.32767e-06
-2.07186e-06
1.0935e-05
-3.02174e-06
1.38613e-05
-3.9355e-06
1.62401e-05
1.78849e-05
-4.7493e-06
-4.54729e-07
3.68844e-06
-9.83545e-07
7.85648e-06
-1.65546e-06
1.16069e-05
-2.3866e-06
1.45924e-05
-3.10028e-06
1.69538e-05
1.85565e-05
-3.77191e-06
-3.57442e-07
4.04588e-06
-7.2855e-07
8.22759e-06
-1.19449e-06
1.20728e-05
-1.7064e-06
1.51044e-05
-2.22405e-06
1.74715e-05
1.90812e-05
-2.74874e-06
-2.41331e-07
4.28721e-06
-4.46863e-07
8.43312e-06
-7.01911e-07
1.23279e-05
-9.9261e-07
1.53951e-05
-1.31213e-06
1.7791e-05
1.94489e-05
-1.67982e-06
-1.11591e-07
4.3988e-06
-1.47491e-07
8.46902e-06
-1.88885e-07
1.23693e-05
-2.54008e-07
1.54602e-05
-3.67604e-07
1.79046e-05
1.96464e-05
-5.65063e-07
2.73622e-08
4.37144e-06
1.61222e-07
8.33516e-06
3.35384e-07
1.21951e-05
5.02096e-07
1.52935e-05
6.06048e-07
1.78006e-05
1.96574e-05
5.95004e-07
1.68296e-07
4.20314e-06
4.71214e-07
8.03225e-06
8.61431e-07
1.18049e-05
1.26737e-06
1.48875e-05
1.60401e-06
1.7464e-05
1.94621e-05
1.79934e-06
3.06289e-07
3.89685e-06
7.7371e-07
7.56483e-06
1.37876e-06
1.11998e-05
2.03218e-06
1.42341e-05
2.61999e-06
1.68762e-05
1.90362e-05
3.04582e-06
4.33538e-07
3.46331e-06
1.05838e-06
6.93999e-06
1.87485e-06
1.03833e-05
2.78445e-06
1.33245e-05
3.64498e-06
1.60156e-05
1.83499e-05
4.33132e-06
5.40589e-07
2.92272e-06
1.31252e-06
6.16805e-06
2.33428e-06
9.3616e-06
3.50812e-06
1.21507e-05
4.66622e-06
1.48575e-05
1.73644e-05
5.65177e-06
6.15489e-07
2.30724e-06
1.52049e-06
5.26305e-06
2.73755e-06
8.14453e-06
4.18124e-06
1.0707e-05
5.66588e-06
1.33729e-05
1.60294e-05
7.00081e-06
6.42966e-07
1.66427e-06
1.66334e-06
4.24268e-06
3.06095e-06
6.74693e-06
4.77552e-06
8.99242e-06
6.61809e-06
1.15303e-05
1.42802e-05
8.36728e-06
6.0812e-07
1.05615e-06
1.71843e-06
3.13237e-06
3.2769e-06
5.18846e-06
5.25482e-06
7.01449e-06
7.48277e-06
9.30236e-06
1.20262e-05
9.73681e-06
5.26056e-07
5.30094e-07
1.66477e-06
1.99366e-06
3.35473e-06
3.4985e-06
5.57165e-06
4.79757e-06
8.20685e-06
6.66716e-06
9.12243e-06
1.11106e-05
3.94286e-07
1.35808e-07
1.48883e-06
8.99112e-07
3.2516e-06
1.73573e-06
5.64424e-06
2.40493e-06
8.7386e-06
3.57279e-06
5.28999e-06
1.2571e-05
1.35808e-07
1.03492e-06
2.77065e-06
5.17558e-06
8.74837e-06
1.40384e-05
-9.57781e-06
1.61531e-05
-1.17173e-05
1.51813e-05
-1.3957e-05
1.31413e-05
-1.62337e-05
1.14507e-05
-1.85361e-05
1.00307e-05
-2.0857e-05
8.79025e-06
-2.31918e-05
7.66914e-06
-2.55367e-05
6.63121e-06
-2.78875e-05
5.6493e-06
-3.02394e-05
4.7045e-06
-3.25879e-05
3.78283e-06
-3.49287e-05
2.87347e-06
-3.72579e-05
1.96813e-06
-3.95719e-05
1.06109e-06
-4.18676e-05
1.49434e-07
-4.41422e-05
-7.67027e-07
-4.63936e-05
-1.68667e-06
-4.862e-05
-2.60752e-06
-5.08201e-05
-3.52837e-06
-5.29932e-05
-4.44925e-06
-5.51385e-05
-5.37145e-06
-5.72553e-05
-6.29623e-06
-5.93434e-05
-7.21965e-06
-8.12407e-06
-1.03027e-05
1.70089e-05
-1.18613e-05
1.67399e-05
-1.38158e-05
1.50958e-05
-1.5917e-05
1.35519e-05
-1.80905e-05
1.22042e-05
-2.03071e-05
1.10068e-05
-2.25527e-05
9.91476e-06
-2.48178e-05
8.89627e-06
-2.70948e-05
7.92629e-06
-2.93773e-05
6.98702e-06
-3.16597e-05
6.06531e-06
-3.39373e-05
5.15103e-06
-3.62057e-05
4.23652e-06
-3.84612e-05
3.3166e-06
-4.07005e-05
2.38876e-06
-4.29207e-05
1.45314e-06
-4.5119e-05
5.11661e-07
-4.72933e-05
-4.33269e-07
-4.94417e-05
-1.37997e-06
-5.15629e-05
-2.32802e-06
-5.36558e-05
-3.27852e-06
-5.57191e-05
-4.233e-06
-5.77502e-05
-5.18854e-06
-6.10484e-06
-1.03096e-05
1.8148e-05
-1.17176e-05
1.81479e-05
-1.34868e-05
1.6865e-05
-1.54405e-05
1.55056e-05
-1.74934e-05
1.42571e-05
-1.96067e-05
1.312e-05
-2.17604e-05
1.20685e-05
-2.39411e-05
1.10769e-05
-2.61388e-05
1.0124e-05
-2.83458e-05
9.19403e-06
-3.05557e-05
8.27522e-06
-3.27632e-05
7.35854e-06
-3.49639e-05
6.43717e-06
-3.71538e-05
5.50656e-06
-3.93297e-05
4.5646e-06
-4.14882e-05
3.61163e-06
-4.36263e-05
2.64976e-06
-4.57412e-05
1.68168e-06
-4.78307e-05
7.09518e-07
-4.98929e-05
-2.65846e-07
-5.19261e-05
-1.24524e-06
-5.39288e-05
-2.23036e-06
-5.58984e-05
-3.21892e-06
-4.1417e-06
-9.95742e-06
1.93735e-05
-1.13131e-05
1.95036e-05
-1.29665e-05
1.85184e-05
-1.48004e-05
1.73395e-05
-1.67425e-05
1.61993e-05
-1.87551e-05
1.51325e-05
-2.08154e-05
1.41288e-05
-2.2908e-05
1.31695e-05
-2.50215e-05
1.22375e-05
-2.71473e-05
1.13199e-05
-2.92786e-05
1.04064e-05
-3.14096e-05
9.48953e-06
-3.35357e-05
8.56336e-06
-3.56532e-05
7.62406e-06
-3.77585e-05
6.6699e-06
-3.98482e-05
5.7013e-06
-4.19189e-05
4.72043e-06
-4.39674e-05
3.73015e-06
-4.59909e-05
2.73308e-06
-4.79874e-05
1.73062e-06
-4.9955e-05
7.22372e-07
-5.18923e-05
-2.9307e-07
-5.37995e-05
-1.31173e-06
-2.24796e-06
-9.37285e-06
2.06449e-05
-1.07062e-05
2.08369e-05
-1.22726e-05
2.00848e-05
-1.4003e-05
1.90699e-05
-1.58418e-05
1.80382e-05
-1.77553e-05
1.7046e-05
-1.97206e-05
1.60941e-05
-2.17215e-05
1.51705e-05
-2.37462e-05
1.42622e-05
-2.57855e-05
1.33591e-05
-2.78322e-05
1.24531e-05
-2.98805e-05
1.15378e-05
-3.19258e-05
1.06087e-05
-3.39643e-05
9.66252e-06
-3.59923e-05
8.69796e-06
-3.80065e-05
7.71547e-06
-4.00032e-05
6.71712e-06
-4.19789e-05
5.70588e-06
-4.39305e-05
4.68471e-06
-4.58556e-05
3.65566e-06
-4.77522e-05
2.61899e-06
-4.96193e-05
1.574e-06
-5.14566e-05
5.25624e-07
-4.35069e-07
-8.62738e-06
2.19062e-05
-9.93692e-06
2.21464e-05
-1.14255e-05
2.15734e-05
-1.30596e-05
2.07039e-05
-1.47985e-05
1.97772e-05
-1.66128e-05
1.88603e-05
-1.84807e-05
1.7962e-05
-2.03863e-05
1.7076e-05
-2.23175e-05
1.61935e-05
-2.4265e-05
1.53066e-05
-2.62214e-05
1.44095e-05
-2.81811e-05
1.34975e-05
-3.01395e-05
1.2567e-05
-3.20926e-05
1.16157e-05
-3.40372e-05
1.06425e-05
-3.59696e-05
9.64787e-06
-3.78862e-05
8.63374e-06
-3.97833e-05
7.60298e-06
-4.16573e-05
6.55875e-06
-4.35053e-05
5.5036e-06
-4.53247e-05
4.43845e-06
-4.71139e-05
3.36317e-06
-4.88714e-05
2.28313e-06
1.2943e-06
-7.76824e-06
2.31187e-05
-9.03353e-06
2.34117e-05
-1.04432e-05
2.2983e-05
-1.19821e-05
2.22428e-05
-1.3621e-05
2.14161e-05
-1.53342e-05
2.05735e-05
-1.71016e-05
1.97295e-05
-1.89078e-05
1.88822e-05
-2.07408e-05
1.80264e-05
-2.25913e-05
1.71571e-05
-2.44521e-05
1.62703e-05
-2.63174e-05
1.53629e-05
-2.8183e-05
1.44325e-05
-3.00449e-05
1.34776e-05
-3.18998e-05
1.24974e-05
-3.37444e-05
1.14924e-05
-3.55749e-05
1.04643e-05
-3.73875e-05
9.41557e-06
-3.91782e-05
8.34947e-06
-4.09434e-05
7.26878e-06
-4.26799e-05
6.17494e-06
-4.4385e-05
5.06829e-06
-4.60564e-05
3.95453e-06
2.93424e-06
-6.81547e-06
2.42555e-05
-8.01745e-06
2.46137e-05
-9.34058e-06
2.43062e-05
-1.07816e-05
2.36839e-05
-1.2318e-05
2.29525e-05
-1.39271e-05
2.21826e-05
-1.55902e-05
2.13926e-05
-1.72925e-05
2.05845e-05
-1.90224e-05
1.97563e-05
-2.07707e-05
1.89055e-05
-2.25304e-05
1.803e-05
-2.4296e-05
1.71285e-05
-2.6063e-05
1.61996e-05
-2.78279e-05
1.52425e-05
-2.95874e-05
1.42569e-05
-3.13382e-05
1.32432e-05
-3.30767e-05
1.22028e-05
-3.4799e-05
1.11378e-05
-3.65007e-05
1.00512e-05
-3.81777e-05
8.94573e-06
-3.98259e-05
7.82312e-06
-4.14417e-05
6.6841e-06
-4.30217e-05
5.53451e-06
4.4788e-06
-5.78555e-06
2.52917e-05
-6.90145e-06
2.57296e-05
-8.12933e-06
2.5534e-05
-9.46783e-06
2.50224e-05
-1.08978e-05
2.43825e-05
-1.23988e-05
2.36835e-05
-1.39533e-05
2.2947e-05
-1.5547e-05
2.21783e-05
-1.71689e-05
2.13782e-05
-1.881e-05
2.05466e-05
-2.04634e-05
1.96835e-05
-2.21239e-05
1.87889e-05
-2.3787e-05
1.78627e-05
-2.54494e-05
1.69049e-05
-2.71078e-05
1.59153e-05
-2.87592e-05
1.48945e-05
-3.03999e-05
1.38435e-05
-3.20261e-05
1.2764e-05
-3.36333e-05
1.16584e-05
-3.52167e-05
1.05292e-05
-3.67717e-05
9.37805e-06
-3.82934e-05
8.20588e-06
-3.97773e-05
7.01833e-06
5.92258e-06
-4.68564e-06
2.62054e-05
-5.69645e-06
2.67404e-05
-6.81946e-06
2.6657e-05
-8.04952e-06
2.62524e-05
-9.36838e-06
2.57013e-05
-1.07567e-05
2.50719e-05
-1.21979e-05
2.43882e-05
-1.36784e-05
2.36588e-05
-1.51874e-05
2.28871e-05
-1.67163e-05
2.20755e-05
-1.82584e-05
2.12257e-05
-1.98086e-05
2.03391e-05
-2.13627e-05
1.94168e-05
-2.29173e-05
1.84594e-05
-2.44693e-05
1.74673e-05
-2.60156e-05
1.64409e-05
-2.7553e-05
1.53809e-05
-2.90776e-05
1.42886e-05
-3.05849e-05
1.31657e-05
-3.20697e-05
1.2014e-05
-3.35267e-05
1.0835e-05
-3.49502e-05
9.62936e-06
-3.63338e-05
8.4019e-06
7.26077e-06
-3.52045e-06
2.69772e-05
-4.4106e-06
2.76306e-05
-5.41887e-06
2.76653e-05
-6.53402e-06
2.73676e-05
-7.73661e-06
2.69039e-05
-9.00762e-06
2.63429e-05
-1.0331e-05
2.57116e-05
-1.16936e-05
2.50214e-05
-1.3085e-05
2.42786e-05
-1.44971e-05
2.34875e-05
-1.59232e-05
2.26518e-05
-1.73583e-05
2.17742e-05
-1.87984e-05
2.08569e-05
-2.02401e-05
1.99012e-05
-2.16805e-05
1.89077e-05
-2.31167e-05
1.78771e-05
-2.45455e-05
1.68097e-05
-2.59631e-05
1.57063e-05
-2.73653e-05
1.45678e-05
-2.87466e-05
1.33953e-05
-3.01011e-05
1.21896e-05
-3.14224e-05
1.09506e-05
-3.27021e-05
9.68165e-06
8.48915e-06
-2.29202e-06
2.75893e-05
-3.04841e-06
2.83869e-05
-3.93317e-06
2.85501e-05
-4.92725e-06
2.83617e-05
-6.00864e-06
2.79853e-05
-7.1579e-06
2.74922e-05
-8.35915e-06
2.69128e-05
-9.59968e-06
2.62619e-05
-1.08694e-05
2.55483e-05
-1.21602e-05
2.47784e-05
-1.34659e-05
2.39575e-05
-1.47815e-05
2.30898e-05
-1.61029e-05
2.21784e-05
-1.74271e-05
2.12253e-05
-1.8751e-05
2.02316e-05
-2.0072e-05
1.91981e-05
-2.13871e-05
1.81248e-05
-2.26928e-05
1.7012e-05
-2.39847e-05
1.58597e-05
-2.52578e-05
1.46683e-05
-2.65057e-05
1.34375e-05
-2.77211e-05
1.2166e-05
-2.88938e-05
1.08544e-05
9.60388e-06
-1.00147e-06
2.80258e-05
-1.61276e-06
2.89982e-05
-2.36631e-06
2.93036e-05
-3.23387e-06
2.92292e-05
-4.18977e-06
2.89412e-05
-5.21346e-06
2.85158e-05
-6.28896e-06
2.79883e-05
-7.40375e-06
2.73767e-05
-8.54798e-06
2.66925e-05
-9.71386e-06
2.59442e-05
-1.08952e-05
2.51388e-05
-1.20872e-05
2.42818e-05
-1.32859e-05
2.33771e-05
-1.4488e-05
2.24275e-05
-1.5691e-05
2.14346e-05
-1.68921e-05
2.03992e-05
-1.80886e-05
1.93213e-05
-1.92774e-05
1.82007e-05
-2.04544e-05
1.70368e-05
-2.16146e-05
1.58285e-05
-2.27517e-05
1.45747e-05
-2.38578e-05
1.32721e-05
-2.49208e-05