/*--------------------------------*- C++ -*----------------------------------*\
  =========                 |
  \\      /  F ield         | OpenFOAM: The Open Source CFD Toolbox
   \\    /   O peration     | Website:  https://openfoam.org
    \\  /    A nd           | Version:  11
     \\/     M anipulation  |
\*---------------------------------------------------------------------------*/
FoamFile
{
    format      ascii;
    class       surfaceVectorField;
    location    "0.8";
    object      Uf;
}
// * * * * * * * * * * * * * * * * * * * * * * * * * * * * * * * * * * * * * //

dimensions      [0 1 -1 0 0 0 0];

internalField   nonuniform List<vector> 
5640
(
(-0.0272139 -0.0640966 1.04512e-18)
(-0.0289315 -0.0604911 2.42303e-20)
(-0.0479162 0.00163652 1.12371e-18)
(-0.034698 -0.021767 5.01028e-20)
(-0.0972846 0.136366 0)
(-0.0627973 0.0964913 9.76273e-20)
(-0.117456 0.299334 -8.48552e-19)
(-0.122246 0.271412 -7.79826e-20)
(-0.138737 0.620228 -1.18986e-18)
(-0.105149 0.426776 1.83618e-19)
(-0.153128 0.905358 -6.84844e-19)
(0.0388376 1.23246 -1.41541e-19)
(-0.0313567 -0.0275225 -9.61046e-19)
(-0.033465 -0.0500927 0)
(-0.0442506 0.0726827 -9.69812e-19)
(-0.0324645 0.0315061 -1.01989e-18)
(-0.0726359 0.212688 3.85798e-20)
(-0.0466108 0.164243 9.76273e-20)
(-0.0900231 0.390369 8.87342e-19)
(-0.0796793 0.325788 -1.44071e-19)
(-0.0459149 0.616184 6.46754e-19)
(-0.047508 0.501262 6.29755e-19)
(0.020969 0.785255 -5.0308e-20)
(0.153669 0.965312 -3.12688e-19)
(-0.0309481 0.000474705 0)
(-0.0351305 -0.0373356 0)
(-0.0330822 0.120643 0)
(-0.0254603 0.0729057 0)
(-0.0441781 0.261778 -6.38557e-20)
(-0.0261492 0.209028 0)
(-0.0389532 0.431063 -4.36521e-19)
(-0.0368083 0.358302 -7.15067e-21)
(0.0308335 0.623167 -5.79147e-20)
(0.00692926 0.525023 -4.2846e-19)
(0.109198 0.725564 6.35444e-19)
(0.216749 0.843182 4.18043e-19)
(-0.0283606 0.0243703 0)
(-0.037044 -0.0199269 -4.35517e-20)
(-0.0190474 0.15698 0)
(-0.0160769 0.105888 7.27949e-20)
(-0.014715 0.294074 5.69466e-20)
(-0.00518255 0.240105 -3.53815e-20)
(0.00744784 0.447152 1.27503e-20)
(0.0022008 0.376464 1.13068e-19)
(0.0876179 0.608534 2.39394e-19)
(0.0553803 0.523711 -1.09356e-20)
(0.164268 0.6746 2.25508e-19)
(0.251961 0.761893 5.56919e-20)
(-0.0241117 0.0496797 2.08586e-20)
(-0.0382144 -0.000991944 -4.35517e-20)
(-0.00385472 0.183898 4.14792e-20)
(-0.00568228 0.130532 2.65203e-20)
(0.0134007 0.31383 1.5725e-20)
(0.0152654 0.260492 -4.65602e-19)
(0.0482108 0.448558 9.29234e-20)
(0.0367343 0.383368 1.2674e-21)
(0.131902 0.580691 -2.85502e-20)
(0.0967573 0.508361 4.50434e-19)
(0.203472 0.62295 -6.16987e-19)
(0.276628 0.691663 3.91752e-19)
(-0.0187011 0.0685143 -4.36049e-20)
(-0.0359168 0.0137012 -1.43392e-18)
(0.0115617 0.202174 -4.5963e-19)
(0.00564857 0.147674 -7.1874e-19)
(0.0392418 0.323363 -4.94015e-19)
(0.0349718 0.272055 7.83394e-20)
(0.0831915 0.439672 3.46111e-19)
(0.0670975 0.381284 -5.28632e-20)
(0.167181 0.545499 -1.06632e-19)
(0.131415 0.484563 9.11095e-20)
(0.233072 0.570548 -2.83408e-19)
(0.295434 0.625853 -9.21868e-19)
(-0.0111644 0.0817794 -2.1531e-18)
(-0.0306455 0.0241845 -1.41071e-18)
(0.0270393 0.212921 -2.13809e-19)
(0.0178024 0.158379 2.66214e-20)
(0.0628025 0.324734 5.26123e-19)
(0.0538932 0.276465 5.08929e-19)
(0.113079 0.423504 -3.12236e-19)
(0.0937387 0.37228 0)
(0.195645 0.506445 -7.48394e-20)
(0.160264 0.455569 -5.56477e-19)
(0.256051 0.5185 1.93635e-19)
(0.310353 0.563493 4.24219e-20)
(-0.00187118 0.0902448 6.83635e-19)
(-0.0229973 0.0307561 1.38174e-18)
(0.0424821 0.217514 7.28845e-19)
(0.0304885 0.163854 6.99096e-19)
(0.0842828 0.319825 0)
(0.071949 0.275288 0)
(0.138599 0.402328 -2.28639e-19)
(0.117089 0.358179 -4.5824e-20)
(0.218791 0.465597 -3.05482e-19)
(0.184238 0.423507 1.8278e-19)
(0.274208 0.467586 -1.32566e-19)
(0.322472 0.504404 3.82404e-19)
(0.00861049 0.0945543 1.43669e-18)
(-0.0136916 0.0338903 1.35833e-18)
(0.0576724 0.217379 0)
(0.0433022 0.165304 0)
(0.103804 0.310279 -4.42759e-20)
(0.0889712 0.269917 -5.81812e-20)
(0.160385 0.377862 3.59688e-19)
(0.137498 0.34051 3.70429e-19)
(0.237712 0.424205 3.64114e-19)
(0.20415 0.389811 4.1814e-19)
(0.288715 0.418203 -1.26841e-19)
(0.332498 0.448348 -7.14626e-20)
(0.019635 0.0955474 0)
(-0.0036174 0.0342277 6.31376e-20)
(0.0722916 0.213727 -5.57054e-20)
(0.0557933 0.163743 2.02993e-20)
(0.121404 0.297452 3.41755e-19)
(0.104757 0.261502 -1.45466e-19)
(0.178948 0.35139 4.27923e-19)
(0.155238 0.320485 -3.16374e-19)
(0.253226 0.383045 -5.95235e-20)
(0.220665 0.355456 3.37597e-19)
(0.300409 0.370534 -6.09855e-20)
(0.340802 0.395113 -5.6991e-19)
(0.030522 0.0939809 8.6361e-20)
(0.00634895 0.0323635 6.31376e-20)
(0.0860056 0.20752 -6.24526e-20)
(0.0675141 0.159938 2.02993e-20)
(0.137088 0.2824 -7.98256e-19)
(0.11912 0.250934 -8.72849e-20)
(0.194702 0.323841 -4.24754e-19)
(0.170538 0.299022 -3.65199e-19)
(0.265962 0.342572 3.45691e-19)
(0.234321 0.321092 -3.49891e-20)
(0.309868 0.32457 6.53389e-20)
(0.347783 0.344335 2.69379e-19)
(0.0406492 0.0904371 0)
(0.0154538 0.0287643 4.18555e-20)
(0.0985064 0.199467 0)
(0.0780623 0.15441 -6.14196e-20)
(0.150871 0.265903 3.55068e-19)
(0.13192 0.238855 2.97362e-20)
(0.207979 0.295877 1.56331e-20)
(0.183617 0.27679 4.127e-19)
(0.276401 0.303023 -3.17717e-19)
(0.245562 0.287136 -4.11136e-19)
(0.317516 0.280205 -1.90538e-19)
(0.3537 0.295669 3.49991e-19)
(0.0495286 0.085298 -1.35962e-20)
(0.0230988 0.0237635 -1.2992e-18)
(0.109546 0.190037 -3.58503e-20)
(0.0870982 0.147466 -6.14196e-20)
(0.162799 0.248509 7.44299e-20)
(0.143077 0.225699 2.97362e-20)
(0.219098 0.267937 8.77038e-21)
(0.194702 0.254258 4.52166e-20)
(0.284924 0.264509 -2.89203e-19)
(0.25477 0.253867 -7.57147e-20)
(0.323668 0.237312 3.54344e-20)
(0.358729 0.248786 -5.72912e-19)
(0.0567109 0.0788307 -1.41843e-18)
(0.0288373 0.0176088 -3.87906e-20)
(0.118941 0.179505 0)
(0.0943159 0.139236 3.99507e-19)
(0.172964 0.230588 0)
(0.152577 0.211728 -3.0878e-20)
(0.228357 0.240338 -3.61365e-20)
(0.204055 0.231747 0)
(0.291846 0.227087 2.4622e-19)
(0.262288 0.221494 -3.71789e-20)
(0.328553 0.195772 3.54761e-19)
(0.363018 0.203367 3.39672e-19)
(0.0618858 0.0711657 1.75456e-18)
(0.0323256 0.0104958 1.95378e-18)
(0.126545 0.167985 3.87622e-19)
(0.0994125 0.129711 -2.79622e-19)
(0.1815 0.212347 -3.19212e-20)
(0.16046 0.197052 2.22883e-19)
(0.236061 0.213297 0)
(0.211972 0.20948 -2.41705e-20)
(0.297443 0.190808 6.197e-20)
(0.268439 0.190206 -1.38857e-19)
(0.332337 0.155507 3.12228e-20)
(0.36668 0.159118 1.75095e-19)
(0.0647405 0.0623833 4.90139e-20)
(0.0332709 0.00261414 -4.47775e-20)
(0.132232 0.155464 -4.65097e-19)
(0.102055 0.118761 -3.11628e-19)
(0.188585 0.193903 2.3898e-19)
(0.166791 0.181656 -2.66179e-20)
(0.242528 0.186998 -1.5974e-19)
(0.218788 0.187615 -3.62969e-20)
(0.30195 0.155732 -1.73681e-19)
(0.273563 0.160222 4.59268e-20)
(0.335132 0.116513 -3.22692e-20)
(0.369788 0.115761 -1.86699e-20)
(0.064971 0.0525542 -3.89553e-19)
(0.0313788 -0.00583095 -6.96074e-19)
(0.135859 0.141808 1.147e-19)
(0.101869 0.106125 3.56011e-19)
(0.194425 0.175284 -3.0145e-19)
(0.171664 0.165384 -2.71751e-19)
(0.248135 0.161631 1.67149e-19)
(0.224902 0.166242 -1.21264e-20)
(0.305638 0.122011 1.89193e-19)
(0.278047 0.131818 9.92847e-20)
(0.337035 0.0789113 -1.68894e-20)
(0.372383 0.0730601 -8.84926e-20)
(0.0622493 0.0418367 -1.0893e-20)
(0.0263873 -0.0146163 -4.25465e-20)
(0.137278 0.126735 -4.09446e-21)
(0.0983695 0.0914137 -3.58707e-20)
(0.199276 0.156385 8.98914e-21)
(0.175187 0.147927 8.69538e-21)
(0.253322 0.137377 -8.30823e-20)
(0.230799 0.145393 -1.42016e-20)
(0.308828 0.0899137 -1.04013e-19)
(0.282352 0.105365 4.02844e-21)
(0.338134 0.0430168 -8.16152e-21)
(0.374521 0.0308372 -8.04883e-20)
(0.055994 0.0290731 -6.79094e-20)
(0.0181599 -0.0234601 -1.6227e-19)
(0.136281 0.109784 -2.53453e-20)
(0.0909993 0.0740662 1.406e-21)
(0.203439 0.136977 -1.37218e-20)
(0.177424 0.128782 7.86466e-20)
(0.258638 0.114431 7.23989e-20)
(0.237088 0.125016 -5.97424e-20)
(0.311937 0.0598852 1.00173e-19)
(0.287088 0.081345 3.87173e-20)
(0.33849 0.00943863 -2.75218e-20)
(0.376251 -0.0110242 1.33149e-20)
(0.0462131 0.0148915 -1.02259e-19)
(0.0085534 -0.0319445 2.15275e-20)
(0.132677 0.0903422 1.02137e-19)
(0.0796408 0.0534341 2.44639e-19)
(0.207225 0.116678 3.73166e-20)
(0.178281 0.107218 4.44963e-21)
(0.264831 0.0930217 -9.61683e-20)
(0.24458 0.104914 1.14895e-20)
(0.315606 0.0327696 -8.75425e-20)
(0.293201 0.0603651 1.04219e-19)
(0.338117 -0.0206941 -1.40578e-20)
(0.377537 -0.0524108 -5.13378e-20)
(0.034854 0.000538554 3.55964e-19)
(-0.0001429 -0.0394653 1.32637e-19)
(0.126562 0.0679541 1.57084e-19)
(0.0649502 0.0293371 -2.09013e-21)
(0.210858 0.0950518 -2.19372e-20)
(0.177124 0.0822656 2.91355e-19)
(0.27301 0.0734599 2.09349e-19)
(0.254398 0.084587 5.70974e-20)
(0.321159 0.00994222 1.80027e-19)
(0.302333 0.0430591 6.9678e-20)
(0.335733 -0.0453159 -4.3394e-20)
(0.378072 -0.0930166 -2.19463e-20)
(0.0226757 -0.0143675 -2.16866e-19)
(-0.00855315 -0.0454733 -8.89335e-21)
(0.117912 0.0427043 1.19868e-19)
(0.0465926 0.00180791 -2.2082e-19)
(0.213946 0.0717244 3.77997e-19)
(0.17182 0.0525302 -3.18045e-20)
(0.284613 0.0561841 -8.2615e-20)
(0.26777 0.0628869 0)
(0.330877 -0.00606298 -1.44524e-19)
(0.317051 0.0298614 -8.49981e-20)
(0.324128 -0.0610266 -6.52324e-20)
(0.37575 -0.132976 1.76517e-19)
(0.00906155 -0.0310142 0)
(-0.0159088 -0.04901 4.58949e-20)
(0.104241 0.01376 -3.76811e-19)
(0.0231343 -0.0288984 -5.94865e-19)
(0.214456 0.0451769 -4.06854e-19)
(0.150869 0.0136123 -4.19039e-19)
(0.299811 0.0398968 0)
(0.283479 0.0373335 1.21983e-19)
(0.346588 -0.0125358 0)
(0.334181 0.0189208 -3.37169e-19)
(0.286726 -0.0631213 2.42984e-19)
(0.364186 -0.175568 -1.47458e-19)
(-0.00883529 -0.0485995 -5.14493e-19)
(0.075716 -0.0286269 -6.47631e-19)
(0.203603 -0.00325292 9.84439e-20)
(0.307231 0.00566411 -2.18087e-19)
(0.361064 -0.0330469 -1.08093e-19)
(0.349251 -0.240101 1.72702e-19)
(0.706957 1.02319 -9.56025e-20)
(0.498536 1.12163 1.15616e-19)
(0.667047 1.17627 -8.67423e-20)
(0.922004 0.862042 -1.02928e-19)
(0.809362 0.904642 -3.00365e-20)
(0.916804 0.923586 -1.19461e-19)
(1.03268 0.737713 -2.65771e-20)
(0.955989 0.777448 1.94427e-20)
(1.04101 0.791033 3.44418e-20)
(1.0937 0.636935 -4.66619e-20)
(1.03787 0.673206 -4.58944e-20)
(1.10941 0.684422 -8.51578e-21)
(1.12839 0.55264 0)
(1.08555 0.583065 0)
(1.14803 0.592756 5.80617e-21)
(1.14862 0.481922 0)
(1.11434 0.507406 -9.18238e-20)
(1.16961 0.515783 -2.30369e-20)
(1.16049 0.422674 6.66367e-20)
(1.13223 0.444207 0)
(1.18138 0.451113 1.25687e-20)
(1.16724 0.372951 6.83088e-20)
(1.14349 0.391341 -7.58712e-20)
(1.18736 0.396739 9.36827e-20)
(1.17058 0.330955 0)
(1.15041 0.346859 7.09213e-20)
(1.18974 0.350887 -2.43534e-20)
(1.17143 0.295137 1.05185e-19)
(1.15422 0.309068 -6.53736e-20)
(1.18965 0.311954 2.171e-20)
(1.17027 0.264238 1.13326e-20)
(1.1556 0.276576 5.23021e-20)
(1.18765 0.278573 1.06294e-19)
(1.16739 0.237256 -1.00155e-19)
(1.15495 0.248284 -4.05971e-20)
(1.18405 0.249638 -1.16883e-19)
(1.16293 0.2134 -2.5056e-21)
(1.15251 0.223331 4.51364e-20)
(1.179 0.224271 1.66957e-20)
(1.15699 0.192041 0)
(1.14843 0.20104 -9.6631e-20)
(1.17259 0.201772 3.91634e-20)
(1.14957 0.172669 3.88793e-20)
(1.14277 0.180863 -1.80285e-21)
(1.16483 0.181576 -5.47173e-20)
(1.14067 0.154857 2.24793e-21)
(1.13555 0.16235 -4.59841e-20)
(1.1557 0.163216 3.91905e-20)
(1.1302 0.13825 -3.77903e-20)
(1.12675 0.145128 4.41559e-20)
(1.14515 0.146304 -3.75183e-20)
(1.11806 0.12254 6.95011e-20)
(1.11628 0.128898 7.84728e-20)
(1.13306 0.130519 -3.32051e-20)
(1.10407 0.107466 -6.45472e-20)
(1.10403 0.113391 3.33802e-20)
(1.11926 0.115574 1.02057e-19)
(1.08802 0.0928084 -5.20147e-20)
(1.0899 0.0982085 -1.35885e-19)
(1.10361 0.101048 -7.3472e-20)
(1.06958 0.0783734 1.50085e-19)
(1.07383 0.0827918 4.72708e-20)
(1.08594 0.0863224 -9.33165e-21)
(1.04822 0.06399 8.92359e-20)
(1.05504 0.068047 1.01674e-19)
(1.06545 0.0721561 1.97119e-20)
(1.02461 0.050103 7.5443e-20)
(1.03044 0.0603362 3.77259e-20)
(1.03918 0.0648868 6.3772e-20)
(1.00127 0.0636981 -1.73436e-19)
(1.0071 0.0701243 7.30962e-21)
(0.633794 0.925207 2.94984e-19)
(0.458093 0.961837 1.86905e-19)
(0.842007 0.820737 8.62374e-20)
(0.736849 0.852373 6.03239e-20)
(0.959095 0.714946 0)
(0.883591 0.74542 -1.5355e-19)
(1.02841 0.619917 0)
(0.971569 0.648253 0)
(1.07058 0.538744 -9.04287e-20)
(1.02632 0.563254 0)
(1.09732 0.470577 -9.31021e-20)
(1.06167 0.491405 -5.04344e-20)
(1.11481 0.413595 -1.42163e-19)
(1.08533 0.431318 -4.97117e-20)
(1.12638 0.365815 -7.5655e-20)
(1.10158 0.381032 -6.80373e-20)
(1.13386 0.325413 7.06435e-21)
(1.11277 0.338638 7.48139e-20)
(1.13826 0.290851 -1.19766e-19)
(1.12025 0.30249 -6.97663e-20)
(1.1402 0.260894 8.95759e-22)
(1.12481 0.271257 -1.20179e-19)
(1.14003 0.23458 1.04154e-19)
(1.12694 0.243899 5.63714e-22)
(1.13798 0.211153 -4.75438e-20)
(1.12696 0.219608 -6.56708e-21)
(1.1342 0.190014 -9.92201e-20)
(1.12508 0.197744 5.28892e-20)
(1.12876 0.170675 -8.63153e-20)
(1.12143 0.177794 -1.02883e-19)
(1.12166 0.152735 -4.76534e-21)
(1.11606 0.159334 -1.32889e-19)
(1.11287 0.135858 1.6017e-19)
(1.10898 0.142019 1.69613e-19)
(1.10233 0.119765 4.29953e-20)
(1.10013 0.125573 -5.02161e-20)
(1.0899 0.104224 -3.68513e-20)
(1.08945 0.109755 -1.1834e-19)
(1.07545 0.0890534 -3.4691e-20)
(1.07693 0.0942001 1.20189e-19)
(1.05873 0.0741028 4.52689e-21)
(1.06258 0.0784108 -1.49415e-19)
(1.03943 0.0592609 6.93232e-20)
(1.04566 0.0633803 3.17706e-20)
(1.01868 0.045198 -2.99712e-21)
(1.0229 0.0553022 1.49227e-19)
(0.99656 0.0570736 -1.43445e-19)
(0.579019 0.857919 2.63849e-20)
(0.433505 0.862603 -3.20583e-19)
(0.776596 0.774133 -1.74984e-19)
(0.677948 0.790878 -1.65749e-20)
(0.894267 0.679626 -1.56405e-19)
(0.8211 0.700639 4.10663e-20)
(0.968496 0.592342 0)
(0.91225 0.613151 0)
(1.01668 0.516755 4.15466e-20)
(0.972195 0.535409 0)
(1.04913 0.452922 -6.24203e-21)
(1.01296 0.469079 -7.4607e-20)
(1.07171 0.399395 2.51148e-20)
(1.04164 0.413305 -6.05207e-20)
(1.08769 0.354362 8.08396e-20)
(1.06231 0.366409 7.11331e-20)
(1.09897 0.316111 -5.86079e-22)
(1.07734 0.326665 -7.90463e-20)
(1.10666 0.283209 -6.9355e-20)
(1.08814 0.292572 -7.84417e-21)
(1.11145 0.254513 -1.21899e-19)
(1.0956 0.262919 6.89665e-20)
(1.11381 0.229133 -1.10298e-19)
(1.10028 0.236765 -2.47737e-19)
(1.11403 0.20637 9.35024e-20)
(1.10259 0.213372 4.83511e-21)
(1.1123 0.185669 5.0847e-20)
(1.10279 0.192156 2.0267e-19)
(1.10874 0.16658 -1.49071e-19)
(1.10103 0.172647 -5.0857e-20)
(1.10339 0.14873 3.91956e-20)
(1.09743 0.154456 9.84394e-20)
(1.09627 0.131813 -3.90722e-20)
(1.09201 0.137266 -6.85874e-21)
(1.08733 0.115579 -2.10883e-19)
(1.08478 0.120833 -1.31672e-19)
(1.07652 0.0998323 3.69723e-20)
(1.07571 0.104949 -8.4711e-20)
(1.06375 0.0844254 3.77634e-21)
(1.06485 0.0892861 3.51999e-20)
(1.04887 0.06925 -1.17293e-19)
(1.05231 0.0734124 -1.57226e-19)
(1.03172 0.0542481 9.1007e-20)
(1.03733 0.0583696 -2.50441e-19)
(1.01372 0.0402969 1.12418e-19)
(1.01653 0.0500423 2.33189e-19)
(0.992943 0.050465 3.61472e-20)
(0.539941 0.783289 -3.72293e-19)
(0.419281 0.775629 2.31062e-19)
(0.721799 0.71694 1.94212e-19)
(0.632608 0.723535 7.56966e-21)
(0.837991 0.634973 1.97465e-19)
(0.768922 0.648009 1.9386e-19)
(0.915152 0.557046 0)
(0.860775 0.571199 7.63161e-20)
(0.967842 0.488526 -1.1502e-19)
(0.924076 0.501755 -1.37967e-19)
(1.00497 0.430162 -1.28702e-19)
(0.968991 0.441885 6.11173e-20)
(1.03187 0.380892 -1.58067e-20)
(1.00176 0.391134 1.46089e-19)
(1.05169 0.339167 -8.70204e-20)
(1.02616 0.348147 -1.58486e-19)
(1.06632 0.303483 -8.71936e-20)
(1.0445 0.311441 -8.42309e-20)
(1.07694 0.272567 1.29861e-19)
(1.05821 0.27971 1.51722e-19)
(1.08432 0.245403 -5.35633e-20)
(1.06824 0.2519 -9.25594e-21)
(1.089 0.221196 -1.34951e-19)
(1.07523 0.227181 -5.72643e-20)
(1.09131 0.19932 1.12404e-19)
(1.07963 0.204901 1.19143e-19)
(1.0915 0.179272 1.0336e-19)
(1.08174 0.184541 -6.5209e-20)
(1.08972 0.160644 1.95721e-19)
(1.08177 0.165677 -3.11428e-21)
(1.08606 0.143099 5.33377e-20)
(1.07984 0.147959 2.52139e-19)
(1.08056 0.126363 -9.83255e-20)
(1.07604 0.131106 -1.435e-19)
(1.07323 0.11022 -5.58333e-21)
(1.07039 0.114905 1.41424e-19)
(1.06406 0.0945105 -8.7282e-20)
(1.06292 0.0991826 4.27265e-20)
(1.05302 0.0791264 -1.27977e-19)
(1.05374 0.0836588 -4.1065e-20)
(1.04005 0.0639973 -2.89929e-19)
(1.04304 0.0679699 -4.51409e-20)
(1.02508 0.049114 -1.71844e-19)
(1.03004 0.0531731 -3.8373e-19)
(1.00968 0.035527 1.57931e-19)
(1.01127 0.0447293 5.06855e-19)
(0.990353 0.0440245 -1.26377e-19)
(0.513641 0.709263 5.86989e-19)
(0.411134 0.695228 2.37635e-19)
(0.678287 0.655172 0)
(0.598034 0.654797 0)
(0.790645 0.585034 7.4897e-20)
(0.726251 0.591587 0)
(0.868906 0.516723 -5.70724e-20)
(0.817045 0.525154 7.63161e-20)
(0.924609 0.45586 3.49618e-20)
(0.88221 0.464225 -2.10365e-19)
(0.965294 0.403495 3.35122e-19)
(0.93006 0.411137 2.45393e-19)
(0.995679 0.358908 7.75621e-21)
(0.965982 0.365723 2.76619e-19)
(1.01869 0.320831 -1.56433e-19)
(0.993397 0.326914 -5.29789e-20)
(1.03619 0.287993 1.52228e-19)
(1.01449 0.293479 1.84613e-19)
(1.04936 0.259304 1.4314e-20)
(1.03068 0.264323 2.39225e-19)
(1.05904 0.233892 -1.25031e-20)
(1.04296 0.238552 -2.23011e-19)
(1.06579 0.211065 1.95328e-19)
(1.05199 0.215458 1.38853e-19)
(1.07001 0.190275 -5.68075e-20)
(1.05826 0.194479 1.24296e-19)
(1.07198 0.171077 -1.72202e-19)
(1.06211 0.17516 -1.18339e-19)
(1.07187 0.153108 5.1229e-20)
(1.06379 0.157127 -1.1033e-19)
(1.06982 0.136069 5.83295e-20)
(1.06344 0.140073 1.05861e-19)
(1.06589 0.119722 9.4156e-20)
(1.06118 0.123751 -1.00659e-19)
(1.06015 0.103886 1.90632e-19)
(1.05707 0.107985 1.44392e-19)
(1.05261 0.0884438 8.97153e-20)
(1.05117 0.0926405 9.65511e-20)
(1.04332 0.0733257 4.20139e-20)
(1.04367 0.0774885 4.41523e-20)
(1.03225 0.0584977 -1.36613e-19)
(1.03479 0.0622374 -1.44706e-19)
(1.01944 0.0439908 2.1006e-19)
(1.02375 0.0479271 1.38365e-21)
(1.00648 0.0309842 3.97567e-19)
(1.00703 0.0394974 3.87658e-19)
(0.988698 0.0378719 -1.20851e-19)
(0.49525 0.637383 -3.40515e-19)
(0.406913 0.620366 -6.45787e-19)
(0.644146 0.592217 0)
(0.571904 0.587122 0)
(0.751554 0.532512 0)
(0.691909 0.533912 0)
(0.82954 0.473437 -7.11874e-20)
(0.780563 0.477014 0)
(0.887033 0.4202 -7.50542e-21)
(0.846419 0.424293 -7.2398e-20)
(0.930259 0.37395 1.86455e-19)
(0.896173 0.37792 2.77421e-19)
(0.963327 0.3342 2.20244e-19)
(0.9344 0.337879 1.83974e-19)
(0.988911 0.299933 2.85469e-19)
(0.964151 0.30333 -1.19141e-19)
(1.00878 0.270105 2.71126e-19)
(0.98746 0.273277 2.87882e-19)
(1.02412 0.24381 6.77839e-21)
(1.00572 0.246824 -1.86078e-19)
(1.03579 0.220317 -7.53125e-20)
(1.0199 0.223233 -7.92421e-20)
(1.04438 0.199039 6.79477e-20)
(1.0307 0.201913 -1.45799e-19)
(1.05031 0.179506 6.50405e-20)
(1.03863 0.182388 -2.56851e-21)
(1.05389 0.161333 -5.66266e-20)
(1.04406 0.164269 6.50701e-20)
(1.05534 0.144201 -5.75564e-20)
(1.04723 0.147233 -1.16879e-19)
(1.0548 0.127852 -5.16534e-20)
(1.04835 0.131013 1.1836e-19)
(1.05238 0.112085 -5.24253e-20)
(1.04754 0.1154 -5.20479e-20)
(1.04816 0.0967603 5.06431e-20)
(1.0449 0.100258 1.08405e-19)
(1.04223 0.0818008 5.13376e-20)
(1.04053 0.0854932 -1.05797e-19)
(1.03466 0.0671786 -1.41255e-19)
(1.03466 0.0709325 2.03178e-19)
(1.02547 0.0528892 2.52197e-21)
(1.02755 0.0563545 -3.40374e-19)
(1.01474 0.0389912 1.3719e-19)
(1.01839 0.0427462 1.83586e-19)
(1.004 0.0267404 4.34289e-20)
(1.00372 0.0344509 -1.90822e-19)
(0.987864 0.0320996 3.26268e-19)
(0.482369 0.56857 -3.20753e-19)
(0.405189 0.550656 2.40313e-19)
(0.617652 0.529956 0)
(0.552395 0.521716 6.84786e-20)
(0.719775 0.479205 0)
(0.664686 0.47654 2.24331e-19)
(0.796591 0.428623 0)
(0.750624 0.428146 0)
(0.854908 0.382664 2.06929e-19)
(0.816329 0.383062 8.04197e-20)
(0.899812 0.342385 2.76298e-19)
(0.867152 0.343103 -6.22757e-21)
(0.934845 0.307435 -1.51462e-19)
(0.906956 0.308287 -6.10544e-20)
(0.962417 0.27701 -1.21707e-19)
(0.93844 0.277951 -1.0267e-19)
(0.984191 0.250265 -1.6406e-19)
(0.96348 0.2513 5.73703e-22)
(1.00134 0.226466 -2.73224e-19)
(0.983402 0.227611 -1.79093e-19)
(1.01469 0.205012 -1.49154e-19)
(0.999168 0.20629 8.2288e-20)
(1.02487 0.185416 -2.17723e-19)
(1.01148 0.186853 -1.53212e-19)
(1.03232 0.167283 -3.21056e-21)
(1.02085 0.168906 -1.38297e-19)
(1.03736 0.150284 6.33561e-21)
(1.02767 0.152121 1.31952e-19)
(1.04023 0.134146 5.70908e-20)
(1.0322 0.136224 -1.2307e-19)
(1.04109 0.118652 1.19257e-19)
(1.03465 0.120988 1.7834e-19)
(1.04008 0.103641 1.07619e-19)
(1.03519 0.106246 -1.76646e-19)
(1.03733 0.0890147 -4.63109e-20)
(1.03394 0.0919003 1.64866e-19)
(1.03295 0.0747411 4.38981e-20)
(1.03103 0.0779039 -2.13172e-19)
(1.02703 0.0608281 1.33524e-21)
(1.02671 0.0641386 2.03178e-19)
(1.01963 0.0472918 -1.5239e-19)
(1.02126 0.0504451 -2.51039e-19)
(1.01087 0.0342021 -1.4207e-19)
(1.01389 0.0377212 9.89784e-20)
(1.00216 0.0228397 -5.26043e-20)
(1.00125 0.0296682 -1.40303e-19)
(0.987727 0.0267764 2.82803e-19)
(0.47344 0.503306 6.29424e-19)
(0.405061 0.48565 5.57293e-19)
(0.597347 0.469408 2.89546e-19)
(0.538042 0.459057 6.84786e-20)
(0.694341 0.426241 2.28503e-19)
(0.643459 0.420371 -1.75118e-19)
(0.769465 0.383293 7.90749e-20)
(0.726478 0.379447 -3.46152e-19)
(0.827894 0.344097 -1.3118e-19)
(0.791471 0.341323 1.69034e-19)
(0.873779 0.309489 -3.42582e-19)
(0.842725 0.307353 -2.16225e-19)
(0.910163 0.279186 -1.16192e-20)
(0.883507 0.277514 -2.60137e-19)
(0.939212 0.252543 1.83229e-20)
(0.916205 0.251263 -1.19618e-19)
(0.962474 0.228888 -1.24239e-20)
(0.94254 0.227967 3.55574e-21)
(0.981071 0.207635 1.7374e-19)
(0.963767 0.207056 8.39952e-20)
(0.995832 0.188299 8.06506e-20)
(0.980818 0.188054 -8.92605e-21)
(1.00737 0.170485 -7.39256e-20)
(0.994385 0.170576 -5.87113e-21)
(1.01613 0.153866 -5.58486e-21)
(1.00499 0.154301 -7.13133e-20)
(1.02246 0.138167 4.67214e-21)
(1.01301 0.138959 -5.369e-21)
(1.0266 0.12316 -4.35623e-21)
(1.01874 0.124321 -6.3357e-20)
(1.02875 0.108667 -1.14793e-19)
(1.02241 0.110202 2.51315e-19)
(1.02906 0.0945699 -1.22017e-19)
(1.02418 0.0964732 -3.61612e-19)
(1.02769 0.0808163 9.51847e-22)
(1.02421 0.0830828 5.43428e-20)
(1.02476 0.0674156 -5.66687e-20)
(1.02266 0.0700282 5.90319e-20)
(1.0204 0.054404 -5.24929e-20)
(1.01979 0.0572418 -5.68034e-20)
(1.01469 0.0418046 -1.83241e-21)
(1.01589 0.0446121 2.05052e-22)
(1.00774 0.0296832 1.02171e-19)
(1.01015 0.0329158 -8.8571e-23)
(1.00082 0.0193013 5.081e-20)
(0.999489 0.0252041 2.05187e-23)
(0.988153 0.0219497 1.6643e-19)
(0.467629 0.441411 6.55334e-21)
(0.405926 0.424711 -5.95057e-19)
(0.58208 0.411046 -3.90462e-19)
(0.527794 0.399292 0)
(0.674357 0.374285 -7.45665e-19)
(0.627268 0.365864 6.69508e-20)
(0.747545 0.338123 -2.64985e-19)
(0.707421 0.331462 -2.44879e-19)
(0.805594 0.305116 8.99605e-20)
(0.771361 0.299622 9.39692e-20)
(0.851919 0.275809 -1.33169e-19)
(0.822574 0.27118 4.26214e-21)
(0.88915 0.249931 -3.69914e-19)
(0.863859 0.246019 -6.39798e-20)
(0.919235 0.226956 -1.35826e-19)
(0.897338 0.22368 8.06675e-21)
(0.94361 0.206351 9.91021e-20)
(0.92459 0.203655 1.04398e-19)
(0.963345 0.187655 -9.76218e-20)
(0.946799 0.185496 -6.70136e-21)
(0.979243 0.170483 -9.53892e-20)
(0.964856 0.168833 1.7911e-19)
(0.991908 0.154522 -2.61452e-21)
(0.979441 0.153362 -8.75717e-20)
(1.0018 0.139506 -7.16765e-20)
(0.991066 0.138829 -2.34427e-19)
(1.00925 0.12521 -7.29145e-20)
(1.00012 0.125015 1.48763e-19)
(1.01452 0.111449 1.89868e-19)
(1.0069 0.111736 -7.08774e-20)
(1.01782 0.098086 9.30342e-21)
(1.01163 0.0988456 1.23604e-19)
(1.01934 0.0850469 -1.88407e-19)
(1.01452 0.0862591 -3.13145e-19)
(1.01923 0.0723243 1.1252e-19)
(1.01572 0.0739677 -3.0863e-21)
(1.01765 0.0599637 5.97366e-20)
(1.0154 0.0620102 1.15946e-19)
(1.01473 0.0480174 -4.39078e-21)
(1.01386 0.050359 -5.85986e-20)
(1.01055 0.0365014 1.91706e-21)
(1.01134 0.0389333 2.21018e-19)
(1.00525 0.0254674 -1.02437e-19)
(1.00709 0.028368 -1.05154e-19)
(0.999906 0.0161245 1.14602e-19)
(0.998323 0.0210933 -3.1392e-19)
(0.989014 0.0176475 1.6643e-19)
(0.464012 0.382803 -6.15135e-19)
(0.407458 0.367231 -2.77172e-19)
(0.57093 0.35501 4.55526e-19)
(0.520814 0.342236 -6.66065e-20)
(0.659059 0.323678 5.72965e-19)
(0.615336 0.313168 2.91682e-19)
(0.730263 0.293536 1.0781e-19)
(0.692837 0.284494 1.0092e-19)
(0.78761 0.266158 9.63408e-21)
(0.755546 0.258321 5.35508e-21)
(0.833966 0.241767 7.4318e-20)
(0.806386 0.234958 4.26214e-21)
(0.871638 0.220065 3.12903e-19)
(0.8478 0.214171 7.09822e-20)
(0.902388 0.200615 2.47097e-19)
(0.881702 0.195553 1.22365e-19)
(0.927549 0.182991 -9.96071e-23)
(0.909548 0.178692 2.27026e-19)
(0.948136 0.166834 2.68107e-19)
(0.93245 0.163239 -1.00728e-22)
(0.964923 0.151848 1.89663e-19)
(0.951262 0.148909 2.71096e-19)
(0.978501 0.137786 -3.18023e-19)
(0.966641 0.135471 -8.49812e-20)
(0.989322 0.124439 -1.74356e-20)
(0.979092 0.122728 -7.36845e-20)
(0.997727 0.111628 1.52666e-19)
(0.989 0.110508 2.21108e-19)
(1.00398 0.0992099 -1.38686e-19)
(0.996666 0.0986676 2.87004e-22)
(1.00831 0.08709 -1.95447e-19)
(1.00233 0.0871028 7.0257e-20)
(1.0109 0.0752372 -1.3014e-19)
(1.00619 0.075771 -1.93372e-19)
(1.01193 0.0636857 -7.11526e-22)
(1.00843 0.0647053 3.19291e-19)
(1.01157 0.0525074 -1.22372e-21)
(1.00923 0.0539768 -6.28583e-20)
(1.00994 0.0417558 1.65077e-19)
(1.00886 0.0435837 -3.31317e-21)
(1.00714 0.0314302 1.09684e-19)
(1.00755 0.03346 2.83658e-19)
(1.00329 0.0215654 -2.89889e-19)
(1.00462 0.0240939 5.91566e-20)
(0.999312 0.0132948 -2.64854e-19)
(0.997637 0.0173528 -1.55073e-19)
(0.990185 0.0138799 1.81868e-19)
(0.462164 0.327016 2.65801e-19)
(0.409453 0.312608 6.51427e-19)
(0.563205 0.301188 -2.37355e-19)
(0.516529 0.287602 -3.46918e-19)
(0.647824 0.274541 -1.76426e-19)
(0.607069 0.262253 1.26841e-19)
(0.717123 0.249776 0)
(0.682219 0.238682 -1.55518e-19)
(0.773574 0.227526 0)
(0.743633 0.217652 1.88954e-19)
(0.81966 0.207685 0)
(0.793867 0.198965 8.24314e-20)
(0.857449 0.189912 -1.20255e-19)
(0.835121 0.182265 0)
(0.888553 0.173832 1.00983e-19)
(0.869152 0.167176 -1.2182e-19)
(0.914215 0.159105 2.29552e-19)
(0.897313 0.153364 1.14401e-19)
(0.935397 0.145453 0)
(0.920652 0.140556 -1.04213e-19)
(0.952844 0.132652 0)
(0.939986 0.128539 -1.89465e-19)
(0.967131 0.120516 1.59269e-19)
(0.955951 0.11714 8.91431e-20)
(0.9787 0.108885 1.6217e-19)
(0.969039 0.106216 7.92718e-20)
(0.987895 0.0976234 7.05998e-20)
(0.979631 0.0956376 0)
(0.994984 0.0866286 2.08739e-19)
(0.988027 0.0853011 7.11936e-20)
(1.00019 0.075848 7.43668e-20)
(0.994473 0.0751428 -3.96427e-21)
(1.00372 0.0652928 2.52162e-19)
(0.999175 0.0651623 -1.32924e-19)
(1.00576 0.0550304 2.59852e-19)
(1.00231 0.0554287 2.53583e-19)
(1.00646 0.0451455 -6.52476e-20)
(1.00408 0.0460325 -6.33072e-20)
(1.00597 0.0356811 1.13537e-19)
(1.00472 0.0369838 5.93612e-20)
(1.00437 0.0266163 2.28393e-19)
(1.00444 0.0282209 -3.07168e-21)
(1.00178 0.0179721 2.20904e-19)
(1.00266 0.0200945 5.55392e-20)
(0.998966 0.0107891 2.89768e-19)
(0.997327 0.0139859 2.18808e-19)
(0.991554 0.0106403 1.69099e-19)
(0.461762 0.27361 6.26413e-20)
(0.4118 0.260273 -1.05952e-21)
(0.55841 0.249363 7.58088e-21)
(0.514552 0.235031 5.1057e-22)
(0.640172 0.226864 1.53081e-19)
(0.602029 0.212988 -2.442e-19)
(0.707719 0.206973 2.7748e-20)
(0.675172 0.194062 -1.00984e-19)
(0.763167 0.189428 2.73068e-19)
(0.735292 0.177762 -1.79202e-19)
(0.80876 0.173812 8.35789e-20)
(0.784761 0.163409 2.44846e-19)
(0.846405 0.159738 0)
(0.825627 0.150536 1.43743e-19)
(0.8776 0.146877 -1.11246e-19)
(0.859541 0.138799 0)
(0.903513 0.134955 -2.16895e-19)
(0.887775 0.127921 -1.10075e-19)
(0.925059 0.123761 -2.92788e-19)
(0.911322 0.117691 1.06583e-19)
(0.942954 0.11313 -1.03111e-19)
(0.930965 0.107952 -1.89059e-19)
(0.957756 0.10293 9.23134e-21)
(0.947318 0.0985865 2.68485e-19)
(0.969897 0.0930452 -8.22089e-20)
(0.960861 0.0894947 -3.34198e-19)
(0.979717 0.0833811 0)
(0.971969 0.0805898 -7.88556e-20)
(0.987487 0.0738748 -1.4094e-19)
(0.98094 0.0718062 7.63758e-20)
(0.993432 0.0645144 -2.10337e-19)
(0.988019 0.0631198 1.73429e-21)
(0.997758 0.0553481 -1.34442e-19)
(0.993414 0.0545692 -6.88411e-20)
(1.00065 0.046466 -6.71941e-20)
(0.997306 0.0462493 -6.88008e-20)
(1.00227 0.0379523 6.05206e-20)
(0.999876 0.0382571 -6.52461e-20)
(1.00274 0.0298325 -5.68567e-20)
(1.00136 0.0306033 6.0927e-20)
(1.00216 0.0220687 -1.76414e-19)
(1.00194 0.0232276 1.24258e-19)
(1.00065 0.0146737 5.23508e-20)
(1.00113 0.0163622 -1.74968e-19)
(0.998804 0.00857984 1.5983e-19)
(0.997296 0.0109849 1.66186e-19)
(0.993015 0.00790702 -6.39993e-20)
(0.462613 0.222125 -6.32452e-20)
(0.414457 0.209671 -3.29224e-19)
(0.556207 0.199259 -2.46175e-19)
(0.514649 0.184134 3.492e-19)
(0.635747 0.180565 -5.00711e-19)
(0.599917 0.165186 -4.22733e-19)
(0.70173 0.165184 -3.06417e-19)
(0.671398 0.150619 5.77797e-20)
(0.756123 0.15201 -2.13661e-19)
(0.730263 0.138742 -1.35564e-19)
(0.801056 0.140345 3.06418e-19)
(0.778855 0.128446 2.89523e-22)
(0.838343 0.129763 1.45589e-19)
(0.819147 0.119179 -7.01614e-20)
(0.869403 0.119979 2.48422e-21)
(0.852733 0.110635 1.28942e-19)
(0.895345 0.110771 2.10898e-19)
(0.880824 0.102583 -1.15192e-19)
(0.917044 0.101981 2.1335e-19)
(0.904368 0.0948592 1.56904e-19)
(0.935188 0.093495 1.77917e-19)
(0.92412 0.0873572 3.87952e-22)
(0.950319 0.0852268 -6.92931e-20)
(0.940675 0.0800053 1.79342e-19)
(0.962861 0.0771038 -3.33166e-19)
(0.954498 0.0727462 -1.67969e-19)
(0.973145 0.0690703 -3.86105e-21)
(0.965957 0.0655323 1.22466e-19)
(0.98144 0.0611023 2.19661e-19)
(0.975346 0.0583359 -1.41665e-21)
(0.987973 0.0532251 1.43862e-19)
(0.982907 0.0511708 2.1754e-19)
(0.992945 0.0455163 -3.11628e-21)
(0.988845 0.0441073 1.77434e-19)
(0.996537 0.0380759 -6.67614e-20)
(0.993335 0.0372552 -7.2071e-20)
(0.998907 0.0309781 -6.56813e-20)
(0.996557 0.0307061 -1.31277e-19)
(1.00018 0.024231 2.41669e-19)
(0.998723 0.0244668 0)
(1.00045 0.0177862 1.25982e-19)
(0.999992 0.0184811 1.8185e-19)
(0.999819 0.0116522 -6.31411e-20)
(0.999975 0.0128882 -1.17873e-19)
(0.998769 0.00663694 5.14997e-21)
(0.997453 0.00833995 -5.80026e-20)
(0.994468 0.00564025 3.63787e-21)
(0.464631 0.172098 6.69574e-20)
(0.417436 0.160262 1.23335e-19)
(0.556397 0.150577 1.8834e-19)
(0.516725 0.134514 -7.35793e-20)
(0.634309 0.135524 1.26532e-19)
(0.600558 0.118645 1.2118e-19)
(0.698918 0.124427 2.31825e-19)
(0.670697 0.108308 1.09455e-19)
(0.752233 0.115376 7.6299e-20)