/*--------------------------------*- C++ -*----------------------------------*\
  =========                 |
  \\      /  F ield         | OpenFOAM: The Open Source CFD Toolbox
   \\    /   O peration     | Website:  https://openfoam.org
    \\  /    A nd           | Version:  11
     \\/     M anipulation  |
\*---------------------------------------------------------------------------*/
FoamFile
{
    format      ascii;
    class       volScalarField;
    location    "1.92";
    object      epsilon;
}
// * * * * * * * * * * * * * * * * * * * * * * * * * * * * * * * * * * * * * //

dimensions      [0 2 -3 0 0 0 0];

internalField   nonuniform List<scalar> 
2880
(
3.22425
8.01121
11.3435
12.4065
10.7883
38.6604
1.14168
4.51508
6.25274
7.27588
8.6855
13.6926
1.69086
3.59104
4.73511
5.55618
6.58952
8.07712
2.33752
3.20477
4.04507
4.70303
5.35345
5.84319
2.9298
3.00184
3.65019
4.19422
4.6046
4.7296
3.45456
2.89185
3.39719
3.85617
4.12857
4.09114
3.90502
2.83138
3.2255
3.61949
3.81603
3.69597
4.27769
2.79874
3.10526
3.45271
3.60721
3.44567
4.57071
2.78182
3.01996
3.33725
3.47119
3.29226
4.78294
2.77337
2.95983
3.26112
3.39071
3.21083
4.91408
2.76959
2.91855
3.21621
3.35568
3.18804
4.96711
2.76799
2.89158
3.1966
3.35974
3.21527
4.96178
2.7691
2.87533
3.19764
3.39734
3.29276
4.89514
2.76919
2.86637
3.21462
3.47059
3.41997
4.76032
2.7626
2.86161
3.24641
3.57606
3.60011
4.55099
2.74424
2.8581
3.29198
3.71325
3.83972
4.26268
2.70854
2.85386
3.34904
3.88368
4.14928
3.89258
2.65086
2.84986
3.41896
4.09055
4.54749
3.43991
2.57488
2.85343
3.50808
4.34108
5.07396
2.90811
2.4915
2.88383
3.63302
4.651
5.81199
2.30832
2.42747
2.99106
3.83796
5.05954
6.97551
1.6642
2.46684
3.29709
4.24804
5.69315
9.25811
1.14078
2.92626
4.23588
5.32785
6.97674
15.3787
2.9627
6.28167
8.7669
9.82311
10.8168
50.3774
9.07396
3.04541
1.07853
0.398647
0.156444
0.0679339
0.0328046
0.0173012
0.0097822
0.00585616
0.00365068
0.00236518
0.00159874
0.00113416
0.000849015
0.000672598
0.000563068
0.000494999
0.000452516
0.000425526
0.000407673
0.000395354
0.000386739
0.000380659
6.67151
2.66975
1.00147
0.379666
0.151215
0.0662613
0.0321533
0.0169804
0.00958781
0.00571314
0.00353843
0.00227601
0.00152802
0.00107826
0.000804976
0.000638074
0.00053622
0.000474349
0.000436836
0.000413813
0.000399174
0.000389497
0.000383087
0.000378658
5.24611
2.31149
0.917054
0.358617
0.145763
0.0647068
0.0316306
0.0167551
0.00946244
0.00561895
0.00346131
0.00221249
0.0014763
0.0010366
0.000771739
0.000611806
0.000515708
0.000458557
0.000424855
0.000404892
0.000392747
0.000385113
0.00038032
0.000377217
4.29458
2.02609
0.841723
0.339072
0.140818
0.063425
0.0312733
0.0166353
0.00940819
0.00557354
0.00341877
0.00217392
0.00144279
0.00100841
0.000748554
0.000593097
0.000500894
0.000447042
0.000416059
0.00039831
0.000388002
0.000381906
0.000378351
0.000376258
3.64341
1.81489
0.780765
0.322904
0.136896
0.0625534
0.0311216
0.0166346
0.00942772
0.00557854
0.00341146
0.00216036
0.00142721
0.00099325
0.000734939
0.000581449
0.000491287
0.000439351
0.000410046
0.00039373
0.000384671
0.000379672
0.000377012
0.00037564
3.20173
1.66209
0.734974
0.310985
0.134322
0.0621985
0.0311999
0.0167486
0.00951565
0.00562869
0.00343636
0.00217058
0.00142937
0.00099106
0.000730718
0.000576592
0.000486576
0.000435183
0.000406543
0.000390913
0.000382542
0.000378265
0.00037621
0.000375275
2.90491
1.5568
0.703852
0.303691
0.133305
0.0624207
0.0315263
0.016996
0.0096824
0.00572911
0.00349438
0.00220306
0.00144691
0.00100012
0.000734975
0.000578138
0.000486634
0.000434423
0.000405434
0.000389738
0.000381565
0.000377566
0.000375785
0.000375112
2.71169
1.49105
0.686644
0.301183
0.133938
0.0632769
0.0321481
0.0173993
0.00994379
0.00589251
0.00359534
0.00226526
0.00148525
0.00102373
0.000749424
0.000586842
0.000491658
0.00043717
0.000406794
0.000390289
0.000381709
0.000377536
0.000375714
0.000375073
2.59659
1.45959
0.682794
0.303495
0.136361
0.064899
0.0331521
0.0180156
0.0103316
0.00613522
0.00374843
0.00236261
0.00154742
0.00106355
0.000774973
0.00060319
0.000502048
0.000443667
0.000410762
0.000392637
0.000382957
0.000378137
0.000375951
0.000375122
2.54445
1.45948
0.692333
0.311306
0.141079
0.067521
0.0346153
0.0188642
0.0108486
0.00645688
0.00395214
0.00249339
0.0016324
0.00111937
0.000811934
0.000627741
0.000518298
0.000454318
0.000417649
0.000397008
0.000385587
0.000379537
0.00037659
0.000375286
2.5468
1.49001
0.716306
0.325224
0.148292
0.0711967
0.036563
0.0199576
0.0115009
0.00686197
0.00421051
0.0026613
0.00174317
0.00119338
0.000861876
0.000661622
0.000541251
0.000469747
0.000427897
0.000403697
0.000389801
0.00038193
0.000377727
0.000375646
2.60013
1.5521
0.756188
0.346025
0.158352
0.0760839
0.0390679
0.0213332
0.0123097
0.00736284
0.00453132
0.00287158
0.00188343
0.00128828
0.000926821
0.000706352
0.000572059
0.000490826
0.000442152
0.000413161
0.000395857
0.000385523
0.000379567
0.000376325
2.70472
1.64804
0.814965
0.375041
0.171846
0.0824336
0.0422395
0.023042
0.0133004
0.00797393
0.00492367
0.00313041
0.00205764
0.00140741
0.00100928
0.00076387
0.000612233
0.000518737
0.000461328
0.000426096
0.000404277
0.000390638
0.000382329
0.000377417
2.86415
1.78261
0.896026
0.414055
0.189561
0.0905733
0.0462169
0.0251472
0.0145037
0.00871234
0.00539823
0.00344507
0.00227108
0.00155474
0.00111234
0.000836589
0.000663682
0.000554992
0.000486612
0.000443405
0.000415718
0.000397729
0.000386283
0.000379072
3.08547
1.96296
1.0037
0.465433
0.212536
0.10093
0.0511782
0.0277275
0.0159571
0.00959834
0.00596741
0.00382398
0.00252986
0.00173493
0.00123966
0.000927424
0.00072875
0.000601479
0.000519504
0.00046625
0.000431037
0.000407385
0.000391799
0.000381476
3.37974
2.19864
1.14396
0.532299
0.242138
0.11406
0.0573503
0.0308816
0.0177062
0.010656
0.00664562
0.00427675
0.00284097
0.00195335
0.00139548
0.00103981
0.000810232
0.000660479
0.00056185
0.000496083
0.000451328
0.000420376
0.00039935
0.000384863
3.76353
2.50242
1.32455
0.61867
0.280124
0.130675
0.0650211
0.034732
0.0198067
0.0119138
0.00744943
0.00481422
0.00321221
0.00221598
0.00158458
0.00117765
0.000911371
0.000734684
0.000615877
0.000534722
0.000478019
0.000437711
0.00040943
0.000389425
4.2613
2.89152
1.55507
0.729528
0.328697
0.151668
0.0745494
0.03943
0.0223263
0.0134055
0.00839787
0.00544853
0.00365217
0.0025294
0.00181229
0.00134537
0.00103588
0.000827245
0.000684245
0.00058436
0.000512812
0.000460562
0.000422766
0.000395419
4.90625
3.39057
1.84695
0.870729
0.390488
0.178124
0.0863717
0.0451593
0.0253487
0.0151714
0.00951283
0.00619322
0.00417025
0.00290076
0.0020844
0.00154786
0.00118798
0.000941798
0.00077007
0.000647602
0.000557779
0.000490447
0.000440329
0.000403217
5.75674
4.03467
2.21304
1.04859
0.468437
0.211294
0.100996
0.0521297
0.0289851
0.0172601
0.0108196
0.00706344
0.00477672
0.0033378
0.00240717
0.00179044
0.0013723
0.00108243
0.000876922
0.000727499
0.000615426
0.000529282
0.000463381
0.000413284
6.9467
4.85922
2.66506
1.26881
0.565428
0.252505
0.118993
0.0605884
0.0333483
0.0197265
0.0123471
0.0080762
0.00548283
0.00384878
0.00278725
0.00207879
0.00159386
0.00125362
0.00100879
0.000827547
0.000688717
0.000579409
0.000493518
0.000426224
8.79581
5.89862
3.20948
1.53435
0.683543
0.302949
0.140943
0.0708035
0.0385554
0.0226319
0.0141283
0.00925076
0.00630104
0.00444264
0.00323166
0.00241882
0.00185789
0.00146011
0.00117
0.000951664
0.000781084
0.000643634
0.000532713
0.000442803
12.3986
7.27769
3.85406
1.84343
0.822946
0.363303
0.167325
0.0830324
0.0447354
0.0260448
0.0162009
0.0106092
0.00724532
0.00512911
0.00374783
0.00281667
0.00216977
0.00170682
0.00136515
0.00110413
0.00089641
0.000725255
0.000583361
0.000463971
21.6738
9.56152
4.62773
2.18895
0.980714
0.433267
0.198385
0.0974919
0.052019
0.0300411
0.018608
0.012177
0.00833181
0.00591914
0.00434379
0.00327876
0.00253503
0.00199878
0.001599
0.0012895
0.00103899
0.00082807
0.000648319
0.000490882
5.09195
3.79198
2.68417
1.92268
1.50075
2.75415
1.50461
2.10486
1.83397
1.41801
1.45625
3.23476
2.18232
2.15049
1.78442
1.4537
1.6109
3.49527
2.68975
2.36588
1.84052
1.57417
1.8
3.71705
3.07028
2.47664
1.91492
1.70447
1.98404
3.89025
3.37993
2.53085
1.98543
1.83454
2.15734
4.03481
3.64639
2.55897
2.05879
1.96528
2.32356
4.12522
3.8804
2.57993
2.14136
2.09909
2.48886
4.17217
4.08618
2.60264
2.23597
2.23745
2.658
4.19722
4.2661
2.63596
2.34356
2.38514
2.83103
4.21806
4.42201
2.68725
2.46354
2.54483
3.00815
4.24252
4.55612
2.76313
2.59657
2.71675
3.19011
4.27851
4.67145
2.87042
2.74384
2.90063
3.37897
4.33493
4.72108
2.99818
2.90527
3.09677
3.57987
4.43101
4.70773
3.14315
3.08165
3.30762
3.80377
4.59543
4.61363
3.30638
3.27626
3.53756
4.06145
4.8399
4.43461
3.49164
3.49486
3.79178
4.36165
5.17118
4.16347
3.70562
3.74698
4.07624
4.71052
5.59435
3.79165
3.96193
4.04785
4.40006
5.11244
6.09789
3.32029
4.27797
4.42852
4.78269
5.57877
6.66152
2.75682
4.71044
4.95908
5.27304
6.15494
7.29486
2.07259
5.41254
5.82658
6.00922
7.00253
8.20644
1.34629
6.89694
7.76708
7.47081
8.26854
11.1338
5.08304
11.0467
13.8561
12.1227
9.67485
31.5734
18.1916
10.9147
5.3027
2.53017
1.14745
0.510996
0.234006
0.114329
0.060533
0.0347045
0.0213999
0.0139847
0.00957975
0.00682556
0.0050287
0.00381209
0.00295944
0.00234113
0.00187638
0.00151249
0.00121345
0.00095638
0.000730969
0.000524913
14.1088
10.6906
5.69036
2.81925
1.31124
0.593658
0.27378
0.133635
0.0704058
0.0401301
0.0246369
0.0160696
0.011013
0.00786421
0.00581361
0.00442483
0.00344946
0.00273936
0.00220231
0.001778
0.00142471
0.00111498
0.000835291
0.000567684
11.531
10.1519
5.87761
3.04204
1.46437
0.678796
0.31727
0.155499
0.0817844
0.0464314
0.0283929
0.0184789
0.0126618
0.00905545
0.00671278
0.00512744
0.00401315
0.00320002
0.00258249
0.00209136
0.00167808
0.00130926
0.000966007
0.000621114
9.86412
9.29249
5.86577
3.19485
1.60097
0.76492
0.364197
0.180057
0.094852
0.0537476
0.0327601
0.0212718
0.0145655
0.010426
0.00774538
0.00593431
0.00466178
0.00373228
0.00302468
0.00245941
0.00198005
0.0015457
0.00112905
0.000687582
8.75291
8.5001
5.76573
3.2904
1.72006
0.850701
0.414678
0.207556
0.109846
0.0622508
0.037853
0.024523
0.0167736
0.0120108
0.00893726
0.00686585
0.00541234
0.00435084
0.00354182
0.00289368
0.00234103
0.00183417
0.00133351
0.000770737
7.95216
7.81284
5.62942
3.3452
1.82319
0.935313
0.468576
0.238442
0.127103
0.0721589
0.0438129
0.0283241
0.0193474
0.013853
0.0103215
0.00794963
0.00628975
0.0050796
0.00415757
0.00341762
0.00278396
0.00219695
0.00160025
0.000881394
7.34397
7.22974
5.4518
3.36447
1.91127
1.01846
0.525813
0.272959
0.147003
0.0837387
0.0508123
0.0327853
0.0223588
0.016002
0.0119353
0.00921722
0.0073245
0.00595145
0.00490996
0.0040766
0.00336287
0.00269714
0.00200295
0.0011121
6.862
6.73699
5.23071
3.35533
1.98544
1.09957
0.586296
0.311404
0.169912
0.0972944
0.0590565
0.0380358
0.0258877
0.018508
0.0138115
0.0106928
0.00853851
0.00699232
0.00583685
0.00493187
0.00418055
0.00351732
0.00293554
0.00257078
6.46788
6.32241
5.00872
3.33135
2.04794
1.17815
0.649881
0.354055
0.196242
0.113182
0.0687907
0.044228
0.0300231
0.0214193
0.0159728
0.012383
0.00992994
0.00819933
0.00694462
0.00601559
0.00532001
0.0048097
0.00449601
0.00445269
6.14188
5.97666
4.80178
3.29902
2.10097
1.25415
0.716344
0.401163
0.226447
0.131822
0.0803174
0.0515543
0.0348775
0.0247957
0.0184453
0.0142928
0.0114899
0.00955242
0.00819784
0.00725949
0.00663939
0.00628455
0.00617814
0.00628638
5.87514
5.69407
4.61855
3.26446
2.14687
1.32793
0.785417
0.452919
0.261012
0.153712
0.0940214
0.0602725
0.0406105
0.0287305
0.021281
0.0164495
0.0132308
0.0110535
0.00958581
0.00863149
0.00807096
0.00782824
0.00784835
0.00803361
5.66643
5.47325
4.46695
3.23404
2.1887
1.39993
0.856907
0.509506
0.300457
0.179448
0.110398
0.0707353
0.0474527
0.033368
0.0245673
0.0189035
0.0151781
0.0127077
0.011094
0.0100975
0.00956646
0.0093957
0.00949101
0.00973633
5.52222
5.31803
4.3557
3.2143
2.23048
1.47147
0.930901
0.571088
0.345335
0.209733
0.130083
0.0834241
0.0557359
0.038925
0.0284408
0.0217369
0.0173749
0.0145284
0.0127117
0.011629
0.0110886
0.0109553
0.0110991
0.0113955
5.46235
5.24408
4.29866
3.2089
2.2762
1.54431
1.00793
0.637925
0.396245
0.245389
0.15388
0.0989891
0.0659312
0.0457214
0.0331098
0.0250794
0.0198959
0.016551
0.0144463
0.0132146
0.0126172
0.0124865
0.012659
0.0129996
5.49714
5.26576
4.30648
3.23403
2.33302
1.6217
1.08939
0.710632
0.453906
0.287379
0.182792
0.118296
0.0786991
0.0542244
0.038889
0.0291348
0.0228671
0.0188475
0.0163335
0.014866
0.0141493
0.0139788
0.0141582
0.0145382
5.63005
5.38992
4.40404
3.31023
2.41238
1.70931
1.17774
0.790445
0.519303
0.336842
0.21805
0.142475
0.0949549
0.0651131
0.0462539
0.0342232
0.0264969
0.0215495
0.0184524
0.0166279
0.0157062
0.0154379
0.0155961
0.0160011
5.91759
5.68156
4.63422
3.46713
2.53314
1.81731
1.27796
0.879805
0.593974
0.395226
0.261175
0.17299
0.115954
0.07937
0.0559246
0.0408495
0.0311294
0.0248863
0.0209535
0.0185971
0.0173471
0.0168956
0.0169915
0.0173927
6.36566
6.14943
5.02562
3.74275
2.72486
1.96383
1.39987
0.983803
0.680797
0.464655
0.314143
0.211744
0.143407
0.0984079
0.0689905
0.0498128
0.037331
0.0292515
0.0241069
0.020958
0.0191963
0.0184313
0.0183985
0.018747
6.92967
6.76141
5.57139
4.16262
3.02238
2.17678
1.5614
1.11277
0.785638
0.548852
0.379852
0.261325
0.179659
0.124251
0.087094
0.0623766
0.0460363
0.0353183
0.0283905
0.0240486
0.021495
0.0202193
0.0199039
0.0201672
7.52772
7.4023
6.18192
4.69655
3.43896
2.48428
1.78831
1.28502
0.920136
0.655133
0.463315
0.325667
0.228087
0.159839
0.112715
0.080542
0.0587949
0.0442489
0.0346587
0.0284892
0.0246939
0.0225809
0.0217404
0.0218296
8.02755
7.86142
6.67618
5.22432
3.92325
2.88316
2.09891
1.5227
1.10281
0.796954
0.573976
0.411673
0.294136
0.209716
0.149704
0.107517
0.0782012
0.0580774
0.0444638
0.0354441
0.0296611
0.0261689
0.0243982
0.0240887
8.2567
7.86771
6.81715
5.54674
4.33933
3.30262
2.47101
1.83095
1.34961
0.99174
0.726935
0.5314
0.387329
0.281588
0.204452
0.148652
0.108697
0.0804224
0.0606926
0.0471677
0.0381294
0.0323226
0.0289232
0.0277023
7.98734
7.20643
6.46791
5.47883
4.50284
3.6049
2.81852
2.1679
1.64916
1.24533
0.935575
0.700104
0.522133
0.388231
0.28797
0.213355
0.158267
0.117997
0.0889158
0.0682186
0.05378
0.0439838
0.037671
0.0344991
6.75664
5.80481
5.50355
4.99556
4.33919
3.65306
3.01803
2.4416
1.94386
1.52938
1.19267
0.923757
0.711556
0.545597
0.416749
0.31741
0.241379
0.183696
0.14042
0.10839
0.085162
0.0685618
0.0570251
0.0494838
1.63672
1.87594
2.26561
2.35507
2.36071
2.98596
0.785262
0.811614
0.997122
1.09718
1.19994
1.51852
0.215108
0.605228
0.753146
0.844926
0.943509
1.14
0.239726
0.544712
0.673072
0.76132
0.852379
0.985398
0.259257
0.530088
0.644872
0.731005
0.81564
0.913184
0.273229
0.537984
0.639104
0.723396
0.803581
0.881809
1.18556
0.563814
0.645053
0.727677
0.805076
0.873314
1.19242
0.596412
0.657363
0.739344
0.816532
0.880649
1.19949
0.625189
0.67258
0.755913
0.835942
0.901621
1.20849
0.649351
0.688875
0.776143
0.86256
0.935299
1.23769
0.667829
0.705295
0.799437
0.8963
0.982078
1.26257
0.681234
0.721403
0.825505
0.937386
1.04311
1.2749
0.689961
0.73696
0.85413
0.986087
1.11993
1.27132
0.694019
0.751766
0.885005
1.04251
1.2142
1.25155
0.693129
0.765582
0.917633
1.1064
1.32743
1.22009
0.686746
0.77815
0.951283
1.17704
1.46072
1.18877
0.673772
0.789328
0.985063
1.25308
1.61437
1.18758
0.652955
0.7995
1.01822
1.33275
1.78754
0.27669
0.626948
0.810497
1.0509
1.41436
1.97797
0.265799
0.616461
0.826903
1.08608
1.49753
2.18277
0.248291
0.626402
0.858977
1.13425
1.58675
2.39426
0.224878
0.680594
0.93549
1.22747
1.7067
2.62088
0.832841
0.891432
1.1709
1.49448
1.97918
2.98083
1.83637
2.0304
2.49821
2.88949
3.23122
4.10513
3.48472
3.9316
4.11901
4.06469
3.83173
3.44384
2.99181
2.5586
2.15126
1.78237
1.46029
1.18593
0.956304
0.766635
0.611613
0.486064
0.385169
0.304946
0.242311
0.193773
0.156494
0.128025
0.107813
0.0905978
1.96809
2.46791
2.8464
3.04916
3.07135
2.97818
2.76994
2.4979
2.21923
1.94715
1.69012
1.45541
1.24601
1.06228
0.903032
0.766283
0.650116
0.552499
0.471121
0.403835
0.349912
0.30478
0.273742
0.238306
1.35499
1.65673
1.97022
2.22126
2.36918
2.41595
2.38627
2.29482
2.1572
2.00462
1.84926
1.69854
1.55705
1.42723
1.3102
1.20615
1.11443
1.03385
0.963664
0.902211
0.849981
0.801376
0.766258
0.71875
1.09998
1.26739
1.47511
1.67953
1.84219
1.95027
2.00778
2.01871
2.0034
1.96481
1.91472
1.86411
1.81715
1.77592
1.74112
1.71251
1.68983
1.67184
1.65669
1.64245
1.62732
1.61009
1.59021
1.56142
0.987148
1.08706
1.2228
1.36935
1.50513
1.61771
1.70481
1.76821
1.81426
1.84681
1.87143
1.89174
1.91097
1.93143
1.95375
1.97708
1.99903
2.0171
2.02902
2.0325
2.02811
2.01629
1.99402
1.96296
0.939073
1.00718
1.10004
1.20297
1.30506
1.40004
1.48461
1.55898
1.62546
1.68586
1.74212
1.79556
1.84666
1.895
1.93942
1.97847
2.01084
2.03522
2.05022
2.05474
2.04958
2.03429
2.00518
1.9731
0.924546
0.97953
1.04866
1.12324
1.19699
1.26744
1.33446
1.39856
1.45997
1.51901
1.57557
1.62899
1.67858
1.72313
1.76127
1.79174
1.81363
1.82648
1.82995
1.82537
1.81145
1.78556
1.75
1.71704
0.930959
0.980627
1.03839
1.09812
1.15514
1.20708
1.2551
1.30036
1.34349
1.38479
1.42405
1.46056
1.49259
1.51865
1.53772
1.54925
1.55328
1.55096
1.54271
1.53025
1.5155
1.49929
1.48239
1.46684
0.956588
1.00862
1.0622
1.11334
1.15955
1.20074
1.23748
1.27059
1.30058
1.32743
1.35068
1.36963
1.38401
1.39377
1.39898
1.40023
1.39856
1.39538
1.39197
1.38953
1.38917
1.39164
1.39577
1.39612
1.001
1.0632
1.12182
1.1739
1.21794
1.25428
1.28412
1.30872
1.32904
1.34561
1.35869
1.3684
1.37476
1.37798
1.3786
1.37764
1.37613
1.3752
1.37579
1.37847
1.38374
1.39299
1.408
1.42283
1.06598
1.14754
1.22106
1.28391
1.33524
1.37609
1.40822
1.43334
1.45279
1.46756
1.4784
1.48597
1.49099
1.49427
1.49644
1.49864
1.5012
1.50418
1.50768
1.51084
1.51189
1.5106
1.51159
1.51996
1.15472
1.26689
1.36626
1.45018
1.51848
1.57314
1.61664
1.65125
1.67883
1.70083
1.71842
1.7327
1.74457
1.75465
1.76375
1.77199
1.77796
1.78068
1.78085
1.77142
1.74691
1.70005
1.63456
1.576
1.27147
1.42793
1.56481
1.6796
1.7732
1.84898
1.9104
1.96041
2.00143
2.03512
2.06289
2.08604
2.1047
2.11846
2.13062
2.13654
2.13033
2.10967
2.0631
1.99088
1.89876
1.78977
1.68146
1.5778
1.42139
1.6382
1.82345
1.97611
2.09913
2.19808
2.27785
2.34188
2.39359
2.43383
2.46528
2.48863
2.50056
2.49571
2.46871
2.42011
2.34981
2.26109
2.16169
2.04894
1.92328
1.78243
1.63953
1.45815
1.61058
1.90543
2.14582
2.33651
2.48468
2.5993
2.68754
2.75299
2.80113
2.82848
2.82709
2.79831
2.74714
2.67439
2.59085
2.49424
2.382
2.25357
2.10588
1.94006
1.76105
1.56623
1.38662
1.15158
1.8462
2.23637
2.52899
2.74545
2.90133
3.01031
3.08329
3.11599
3.09625
3.049
2.97538
2.89004
2.78824
2.66855
2.52732
2.36532
2.18445
1.98741
1.77755
1.55947
1.34152
1.12686
0.940195
0.729837
2.13679
2.63465
2.95883
3.17043
3.30038
3.35972
3.33794
3.27503
3.18621
3.07596
2.94105
2.7788
2.59384
2.38979
2.17033
1.93932
1.70105
1.46088
1.22583
1.00555
0.805128
0.633365
0.492982
0.383245
2.49295
3.09679
3.40509
3.55882
3.58381
3.51346
3.4058
3.2642
3.0826
2.86872
2.63088
2.37671
2.11316
1.84614
1.58109
1.32368
1.08143
0.860851
0.670304
0.516202
0.401021
0.319758
0.261323
0.227166
2.9287
3.60538
3.81903
3.8122
3.68568
3.51053
3.28307
3.01268
2.71421
2.40114
2.08549
1.77709
1.48347
1.21024
0.964411
0.750042
0.574714
0.442514
0.347428
0.277745
0.226928
0.190701
0.165355
0.156804
3.46586
4.12004
4.11955
3.89984
3.62399
3.29437
2.92874
2.5464
2.16593
1.8033
1.4703
1.17343
0.916826
0.704421
0.536688
0.413145
0.323958
0.258165
0.209658
0.174353
0.148941
0.131024
0.119
0.117739
4.15199
4.57787
4.24585
3.81843
3.36435
2.89706
2.43281
1.99286
1.59548
1.25198
0.965296
0.73483
0.557458
0.426078
0.330822
0.261877
0.210678
0.172085
0.142721
0.120308
0.103582
0.0917768
0.0852058
0.086003
5.07197
4.95487
4.23798
3.56956
2.97661
2.4235
1.92242
1.49057
1.13626
0.856699
0.643698
0.486553
0.372326
0.288825
0.226693
0.179417
0.143063
0.115056
0.0937722
0.0783418
0.0680686
0.0621905
0.060671
0.0630003
6.30721
5.18796
4.03001
3.22661
2.55415
1.97266
1.49016
1.10966
0.821274
0.608511
0.454066
0.341721
0.2589
0.197103
0.150788
0.116233
0.0907769
0.0724803
0.0598837
0.0517914
0.0471221
0.0452073
0.0457321
0.0486446
8.04595
5.26743
3.76749
2.86831
2.15994
1.593
1.1592
0.839767
0.609274
0.44408
0.325043
0.238666
0.176005
0.130858
0.098657
0.0759442
0.0601126
0.0492462
0.0420005
0.0374618
0.0350391
0.0344437
0.0353286
0.0381466
2.54281
5.137
8.99029
10.5835
9.89682
28.9432
0.967402
2.95861
4.79508
6.09243
7.12547
10.3852
0.261362
2.37602
3.70578
4.92311
6.12232
7.33543
1.23767
2.13184
3.24934
4.43338
5.60455
6.31644
1.53004
1.99722
3.01376
4.19361
5.34241
5.85299
1.77494
1.9169
2.88018
4.07723
5.22579
5.61316
1.97107
1.86832
2.8001
4.02824
5.18822
5.48498
2.11939
1.83691
2.74879
4.01897
5.20765
5.42646
2.2215
1.81158
2.71126
4.03808
5.27322
5.41351
2.27907
1.785
2.67687
4.07432
5.36644
5.43642
2.29338
1.75221
2.63781
4.11815
5.4747
5.49284
2.26888
1.7104
2.58719
4.15923
5.59182
5.57746
2.21263
1.65895
2.51883
4.18569
5.71654
5.68905
2.13244
1.59787
2.42714
4.18606
5.84869
5.84174
2.02735
1.52427
2.30931
4.14737
5.98803
6.05038
1.89756
1.43593
2.16326
4.05375
6.13124
6.32653
1.74297
1.33023
1.98866
3.88891
6.26711
6.68598
1.55752
1.20168
1.78698
3.63778
6.37426
7.1504
1.30762
1.03725
1.56331
3.29179
6.40389
7.75244
0.280952
0.814311
1.33345
2.86037
6.3054
8.54804
0.262742
0.670429
1.11531
2.36188
5.98463
9.63795
0.239554
0.619796
0.958074
1.86142
5.32176
11.2331
0.902932
0.781278
0.97202
1.51176
4.11961
14.3131
2.27831
1.83396
1.88423
2.15767
2.9669
27.0413
9.64802
4.8916
3.43904
2.51734
1.81276
1.28716
0.909582
0.643172
0.455864
0.32378
0.230629
0.165349
0.119981
0.0886526
0.0670718
0.0521844
0.0419022
0.0348676
0.0302391
0.0274734
0.0262165
0.026254
0.0272976
0.0298216
6.72318
4.341
3.10205
2.18771
1.51519
1.0426
0.717273
0.493978
0.340552
0.23545
0.163997
0.115774
0.0833457
0.0615074
0.0467132
0.0366232
0.0297355
0.0251038
0.0221392
0.0204661
0.0198532
0.0200898
0.0211524
0.0232829
5.78353
4.02907
2.79389
1.88989
1.2655
0.846644
0.566646
0.379238
0.254278
0.171651
0.117453
0.0820408
0.058855
0.0435513
0.0333298
0.0264221
0.021729
0.0185786
0.0165697
0.0154608
0.0151089
0.0153704
0.0162907
0.0179849
5.35787
3.73374
2.49024
1.62633
1.05838
0.688823
0.447831
0.291152
0.190235
0.125891
0.085099
0.0591839
0.0425514
0.0316999
0.0244827
0.0195973
0.0162579
0.0139946
0.0125316
0.0117091
0.0114345
0.0116293
0.0123367
0.0136426
5.05321
3.43845
2.21111
1.40164
0.887632
0.561299
0.354204
0.223988
0.143143
0.0933773
0.0627219
0.0436318
0.0315162
0.0236435
0.0184005
0.0148312
0.0123652
0.0106627
0.00952567
0.00884297
0.00855381
0.00863168
0.00910617
0.0100739
4.79961
3.15644
1.9646
1.21197
0.746585
0.458285
0.28086
0.17324
0.108788
0.0703097
0.0471228
0.0328703
0.0238739
0.0180267
0.0141143
0.0114265
0.00954079
0.00820407
0.00726736
0.00664745
0.00630277
0.00623285
0.00648147
0.00714381
4.57118
2.89814
1.75201
1.0527
0.630242
0.375446
0.223832
0.135159
0.0837826
0.0538721
0.0361298
0.0253034
0.0184764
0.0140238
0.011024
0.00894093
0.00745449
0.00636975
0.00556841
0.00498176
0.00457495
0.00434937
0.00437424
0.00475545
4.36296
2.66951
1.57104
0.919302
0.534543
0.309214
0.179777
0.106685
0.0655449
0.042058
0.0282683
0.0198793
0.0145796
0.0111058
0.00874814
0.00709396
0.00589506
0.00499725
0.00430285
0.00375026
0.00330348
0.00295426
0.00273952
0.0027922
4.17786
2.47243
1.41842
0.807998
0.456209
0.25658
0.1459
0.0853965
0.0521628
0.033464
0.0225522
0.0159157
0.0117096
0.00893818
0.00704457
0.00570468
0.00472224
0.00397347
0.00337696
0.00287677
0.00243358
0.0020247
0.00162655
0.00111353
4.02054
2.30721
1.29125
0.715733
0.392469
0.214973
0.119904
0.0694284
0.0422547
0.0271256
0.0183249
0.0129654
0.00955669
0.00730057
0.00575134
0.00464918
0.00383617
0.00321226
0.00271117
0.00228614
0.00190151
0.00153211
0.00117231
0.000757155
3.89507
2.17279
1.18674
0.639842
0.340926
0.182221
0.0999576
0.0573836
0.0348392
0.022382
0.0151453
0.01073
0.00791324
0.00604299
0.00475511
0.00383681
0.00315849
0.0026381
0.00222159
0.0018712
0.00155822
0.00126243
0.000976296
0.000662269
3.80681
2.06773
1.10239
0.578028
0.299525
0.156533
0.0846336
0.0482324
0.0292239
0.0187794
0.0127145
0.00900752
0.00663748
0.0050613
0.00397508
0.00320071
0.00262942
0.00219228
0.001844
0.00155309
0.00129588
0.00105687
0.000832966
0.000601488
3.76203
1.99071
1.03615
0.528359
0.266562
0.13646
0.0728335
0.0412234
0.0249214
0.0160048
0.0108278
0.00765953
0.00563189
0.0042834
0.00335515
0.00269493
0.00220953
0.00183988
0.00154727
0.001305
0.00109339
0.000900459
0.000725015
0.000552337
3.75943
1.94093
0.986463
0.489389
0.240592
0.120767
0.0636871
0.035811
0.0215874
0.01384
0.00934326
0.00659008
0.00482869
0.0036592
0.00285661
0.00228827
0.00187281
0.00155869
0.00131227
0.00111054
0.000936874
0.000781623
0.00064409
0.000513925
3.79969
1.91777
0.952633
0.459676
0.220272
0.108491
0.0565588
0.0316016
0.0189774
0.0121314
0.00816101
0.00573153
0.00417998
0.00315323
0.00245205
0.00195867
0.00160083
0.00133282
0.0011249
0.000956935
0.000814608
0.000689888
0.000582061
0.000483622
3.88729
1.92029
0.933865
0.437863
0.20455
0.0989054
0.0509882
0.0283017
0.0169156
0.0107692
0.00720976
0.00503543
0.00365128
0.00273985
0.00212153
0.00169004
0.00138016
0.00115071
0.000975057
0.000835277
0.000718833
0.000618808
0.000534271
0.000459691
4.03205
1.95257
0.929485
0.422889
0.192578
0.091446
0.0466265
0.0257018
0.0152751
0.00967431
0.00643784
0.00446647
0.0032173
0.00240004
0.00185018
0.00147026
0.00120058
0.00100357
0.000855021
0.000738777
0.000643673
0.000563583
0.000497309
0.00044076
4.24428
2.01644
0.93556
0.413606
0.183631
0.0856703
0.0432103
0.023646
0.0139625
0.00878843
0.00580723
0.00399853
0.00285913
0.00211948
0.0016266
0.00128994
0.00105413
0.00088448
0.00075873
0.000662133
0.000584602
0.000520585
0.000468636
0.00042575
4.5379
2.11263
0.951986
0.409282
0.177113
0.0812261
0.0405368
0.0220173
0.0129083
0.00806829
0.00528957
0.00361196
0.00256243
0.00188715
0.00144199
0.00114175
0.000934555
0.000788005
0.000681434
0.000601223
0.000538146
0.000487073
0.000446358
0.000413834
4.93356
2.24802
0.981197
0.409117
0.172493
0.0778197
0.0384452
0.0207254
0.0120598
0.00748127
0.00486338
0.00329179
0.00231617
0.0016945
0.00128941
0.00101991
0.000836889
0.000709839
0.000619383
0.000552821
0.000501613
0.000460949
0.000429043
0.000404382
5.46017
2.42687
1.01801
0.410879
0.169155
0.0751796
0.0368025
0.0196993
0.0113767
0.00700249
0.00451228
0.00302649
0.00211174
0.00153478
0.00116336
0.000919789
0.000757175
0.000646553
0.000569604
0.000514376
0.000472894
0.000440602
0.000415616
0.000396921
6.16458
2.65227
1.05732
0.413344
0.166516
0.0730662
0.0354973
0.0188823
0.0108277
0.00661289
0.00422366
0.00280714
0.0019424
0.00140265
0.00105946
0.000837687
0.000692245
0.000595411
0.000529729
0.000483867
0.000450331
0.000424787
0.000405272
0.000391098
7.12557
2.87221
1.09129
0.414442
0.163913
0.0712541
0.0344342
0.0182287
0.0103886
0.00629786
0.00398787
0.0026268
0.00180286
0.00129385
0.000974154
0.000770613
0.000639542
0.000554219
0.000497872
0.000459686
0.0004326
0.000412509
0.000397383
0.000386646
8.30822
3.0362
1.10578
0.410465
0.160693
0.0695809
0.0335516
0.0177089
0.0100439
0.00604785
0.00379838
0.00248062
0.00168924
0.00120515
0.000904705
0.000716198
0.000597024
0.000521216
0.00047253
0.00044056
0.00041863
0.000402899
0.000391397
0.000383273
)
;

boundaryField
{
    rotor
    {
        type            epsilonWallFunction;
        value           nonuniform List<scalar> 
144
(
3.22425
8.01121
11.3435
12.4065
10.7883
38.6604
3.22425
1.14168
1.69086
2.33752
2.9298
3.45456
3.90502
4.27769
4.57071
4.78294
4.91408
4.96711
4.96178
4.89514
4.76032
4.55099
4.26268
3.89258
3.43991
2.90811
2.30832
1.6642
1.14078
2.9627
2.9627
6.28167
8.7669
9.82311
10.8168
50.3774
5.09195
3.79198
2.68417
1.92268
1.50075
2.75415
5.09195
1.50461
2.18232
2.68975
3.07028
3.37993
3.64639
3.8804
4.08618
4.2661
4.42201
4.55612
4.67145
4.72108
4.70773
4.61363
4.43461
4.16347
3.79165
3.32029
2.75682
2.07259
1.34629
5.08304
5.08304
11.0467
13.8561
12.1227
9.67485
31.5734
1.63672
1.87594
2.26561
2.35507
2.36071
2.98596
1.63672
0.785262
0.215108
0.239726
0.259257
0.273229
1.18556
1.19242
1.19949
1.20849
1.23769
1.26257
1.2749
1.27132
1.25155
1.22009
1.18877
1.18758
0.27669
0.265799
0.248291
0.224878
0.832841
1.83637
1.83637
2.0304
2.49821
2.88949
3.23122
4.10513
2.54281
5.137
8.99029
10.5835
9.89682
28.9432
2.54281
0.967402
0.261362
1.23767
1.53004
1.77494
1.97107
2.11939
2.2215
2.27907
2.29338
2.26888
2.21263
2.13244
2.02735
1.89756
1.74297
1.55752
1.30762
0.280952
0.262742
0.239554
0.902932
2.27831
2.27831
1.83396
1.88423
2.15767
2.9669
27.0413
)
;
    }
    freestream
    {
        type            inletOutlet;
        inletValue      uniform 0.000375;
        value           nonuniform List<scalar> 
96
(
0.000375
0.000375
0.000375
0.000375
0.000375
0.000375
0.000375
0.000375
0.000375
0.000375
0.000375
0.000375
0.000375
0.000375
0.000375
0.000375
0.000375
0.000375
0.000375
0.000375
0.000375
0.000375
0.000375
0.000375
0.000375
0.000375
0.000375
0.000375
0.000375
0.000375
0.000375
0.00257078
0.00445269
0.00628638
0.00803361
0.00973633
0.0113955
0.0129996
0.0145382
0.0160011
0.0173927
0.018747
0.0201672
0.0218296
0.0240887
0.0277023
0.0344991
0.0494838
0.0905978
0.238306
0.71875
1.56142
1.96296
1.9731
1.71704
1.46684
1.39612
1.42283
1.51996
1.576
1.5778
1.45815
1.15158
0.729837
0.383245
0.227166
0.156804
0.117739
0.086003
0.0630003
0.0486446
0.0381466
0.0298216
0.0232829
0.0179849
0.0136426
0.0100739
0.00714381
0.00475545
0.0027922
0.000375
0.000375
0.000375
0.000375
0.000375
0.000375
0.000375
0.000375
0.000375
0.000375
0.000375
0.000375
0.000375
0.000375
0.000375
0.000375
)
;
    }
    frontAndBack
    {
        type            empty;
    }
}


// ************************************************************************* //
