/*--------------------------------*- C++ -*----------------------------------*\
  =========                 |
  \\      /  F ield         | OpenFOAM: The Open Source CFD Toolbox
   \\    /   O peration     | Website:  https://openfoam.org
    \\  /    A nd           | Version:  11
     \\/     M anipulation  |
\*---------------------------------------------------------------------------*/
FoamFile
{
    format      ascii;
    class       volScalarField;
    location    "1.92";
    object      k;
}
// * * * * * * * * * * * * * * * * * * * * * * * * * * * * * * * * * * * * * //

dimensions      [0 2 -2 0 0 0 0];

internalField   nonuniform List<scalar> 
2880
(
0.00691448
0.0332318
0.0774123
0.126113
0.153215
0.151698
0.0219688
0.0645312
0.107761
0.153782
0.197339
0.25876
0.0316125
0.0853309
0.128919
0.173728
0.219386
0.268907
0.0392304
0.0993381
0.143501
0.187228
0.229738
0.265492
0.0456046
0.109678
0.154256
0.196671
0.234828
0.260157
0.0508988
0.117611
0.162455
0.203501
0.237489
0.255533
0.0552324
0.123766
0.168792
0.208633
0.239015
0.252094
0.0586927
0.128485
0.173682
0.212542
0.240186
0.249945
0.0613433
0.131971
0.177393
0.215577
0.24142
0.249099
0.0632279
0.134344
0.180099
0.217979
0.242945
0.249556
0.0643787
0.13567
0.181905
0.219896
0.244874
0.251309
0.0648409
0.135972
0.182857
0.221393
0.247238
0.254384
0.0647945
0.13523
0.18295
0.222462
0.249984
0.258748
0.0642138
0.133435
0.182129
0.223027
0.252981
0.26437
0.0630306
0.130575
0.180291
0.222941
0.256022
0.271181
0.0611708
0.126611
0.177295
0.221958
0.258844
0.279026
0.0585613
0.121496
0.172966
0.219742
0.26109
0.287625
0.0551228
0.115179
0.167108
0.215871
0.26215
0.29662
0.0507642
0.107607
0.159504
0.209819
0.26125
0.305432
0.0453893
0.0986902
0.149873
0.200892
0.256974
0.31314
0.0389134
0.0882097
0.137733
0.188115
0.247493
0.318194
0.0312892
0.075513
0.122031
0.169921
0.229834
0.31706
0.0219613
0.0582318
0.0997882
0.143237
0.199254
0.297574
0.00635709
0.0260366
0.0597661
0.0997576
0.153291
0.181228
0.288892
0.215268
0.135189
0.086206
0.0578278
0.0417252
0.0317201
0.0248623
0.0198242
0.0159804
0.0130032
0.0106945
0.00890879
0.00753316
0.00648043
0.00568405
0.00509253
0.00466401
0.00436193
0.0041531
0.00400881
0.00390802
0.00383746
0.00378786
0.295282
0.213196
0.135104
0.0863796
0.058054
0.0419172
0.031844
0.0249082
0.0197935
0.0158827
0.0128577
0.0105191
0.00871816
0.0073389
0.00629188
0.00550886
0.00493684
0.00453192
0.00425496
0.00407037
0.00394805
0.00386635
0.00381209
0.00377508
0.283356
0.206163
0.133182
0.0859917
0.0581616
0.0421052
0.0319986
0.0249973
0.0198141
0.0158401
0.0127669
0.0103965
0.00857739
0.00719094
0.00614561
0.00537164
0.00481453
0.00442839
0.0041716
0.00400641
0.00390154
0.00383483
0.00379277
0.00376578
0.268985
0.198351
0.130652
0.0853648
0.058221
0.0423094
0.0321911
0.025133
0.0198841
0.0158536
0.0127335
0.0103288
0.00848811
0.00709023
0.0060419
0.00527194
0.00472442
0.00435161
0.0041096
0.00395878
0.00386696
0.00381159
0.00377885
0.00375948
0.256223
0.191305
0.128212
0.0847799
0.0583203
0.0425613
0.0324343
0.0253219
0.0200087
0.0159209
0.012757
0.0103186
0.00845241
0.00703798
0.00598124
0.00520946
0.0046655
0.00429998
0.00406708
0.00392563
0.00384267
0.00379529
0.00376927
0.00375538
0.246176
0.185685
0.126271
0.0844288
0.058536
0.0428936
0.0327436
0.025573
0.0201947
0.0160481
0.0128368
0.0103624
0.00846983
0.00703562
0.00596455
0.00518435
0.00463712
0.0042724
0.00404272
0.00390563
0.00382745
0.00378487
0.00376334
0.00375292
0.238901
0.181692
0.125058
0.084443
0.0589321
0.0433402
0.0331561
0.0259208
0.0204688
0.0162541
0.0129859
0.010466
0.0085383
0.00707819
0.00598854
0.00519516
0.004639
0.00426855
0.00403598
0.00389809
0.0038205
0.00377991
0.00376038
0.0037518
0.234175
0.179351
0.124698
0.0848722
0.0595688
0.0439687
0.0337046
0.0263809
0.0208444
0.0165546
0.0132227
0.0106498
0.0086784
0.0071824
0.00606376
0.00524714
0.0046729
0.00428915
0.0040473
0.00390341
0.0038223
0.00378011
0.00376004
0.00375155
0.231764
0.178646
0.12525
0.0858391
0.0605415
0.0448005
0.0343954
0.0269535
0.0213173
0.0169428
0.0135391
0.0109051
0.00888191
0.00734229
0.00618703
0.00533976
0.00474
0.00433554
0.00407771
0.00392226
0.00383322
0.00378551
0.00376223
0.00375201
0.231494
0.179576
0.126846
0.0874248
0.0618577
0.0458381
0.0352269
0.0276369
0.021886
0.0174174
0.0139343
0.0112321
0.00915017
0.00755993
0.00636089
0.00547547
0.00484247
0.00440972
0.00412898
0.00395607
0.00385432
0.00379712
0.00376751
0.00375334
0.23325
0.182161
0.129521
0.08965
0.0635422
0.0471026
0.0362146
0.028441
0.0225574
0.017984
0.0144129
0.011635
0.00948694
0.00783877
0.00658854
0.00565741
0.00498342
0.0045146
0.00420359
0.0040067
0.00388679
0.00381618
0.00377665
0.00375609
0.237
0.186455
0.133362
0.0925876
0.0656441
0.0486226
0.037375
0.0293759
0.023338
0.0186472
0.0149791
0.0121176
0.00989603
0.00818258
0.00687377
0.0058894
0.00516672
0.004654
0.00430504
0.0040771
0.00393287
0.00384379
0.00379087
0.00376093
0.242736
0.192546
0.138477
0.0963208
0.0682176
0.0504291
0.0387249
0.0304507
0.0242335
0.0194111
0.0156364
0.0126834
0.010381
0.00859519
0.00722063
0.00617573
0.00539687
0.00483253
0.00443776
0.00417117
0.00399576
0.00388241
0.00381151
0.00376852
0.250493
0.200542
0.144994
0.100951
0.0713263
0.0525569
0.0402823
0.0316748
0.0252488
0.0202789
0.0163875
0.0133352
0.0109452
0.00908028
0.00763326
0.00652098
0.00567887
0.00505543
0.00460695
0.00429367
0.00407938
0.00393494
0.00384048
0.0037798
0.260318
0.210568
0.153057
0.106594
0.0750436
0.0550457
0.0420669
0.0330574
0.0263882
0.021253
0.0172343
0.0140751
0.0115911
0.00964115
0.00811563
0.00692976
0.00601787
0.00532831
0.00481842
0.00445012
0.00418848
0.00400501
0.00388016
0.00379594
0.272254
0.222755
0.162814
0.113376
0.0794509
0.0579398
0.0441
0.0346077
0.0276553
0.0223345
0.0181772
0.0149041
0.0123205
0.0102803
0.00867113
0.00740628
0.00641885
0.00565682
0.00507822
0.00464656
0.00432851
0.00409696
0.00393344
0.00381834
0.286314
0.237217
0.174401
0.121418
0.0846328
0.0612862
0.0464042
0.0363351
0.0290529
0.0235233
0.0192155
0.0158215
0.0131336
0.0109991
0.00930217
0.00795396
0.00688618
0.00604616
0.00539231
0.00488942
0.00450577
0.004216
0.00400314
0.00384813
0.302433
0.254026
0.187908
0.130821
0.0906681
0.0651321
0.0490026
0.0382486
0.0305824
0.0248178
0.0203467
0.0168252
0.0140291
0.0117974
0.0100099
0.00857519
0.0074234
0.00650099
0.00576632
0.00518496
0.00472644
0.00436731
0.00409303
0.00388672
0.320362
0.273187
0.203324
0.141628
0.0976135
0.0695179
0.0519159
0.0403562
0.0322445
0.0262151
0.0215667
0.0179115
0.0150041
0.0126735
0.010794
0.00927116
0.0080331
0.00702514
0.00620517
0.00553893
0.00499664
0.00455658
0.00420754
0.00393601
0.339636
0.294451
0.220453
0.153776
0.105479
0.0744669
0.0551592
0.0426643
0.0340383
0.0277107
0.0228701
0.0190749
0.0160542
0.0136243
0.0116529
0.0100417
0.00871656
0.00762127
0.00671274
0.00595625
0.00532203
0.00478963
0.00435153
0.00399804
0.359615
0.316853
0.238769
0.167025
0.114191
0.07997
0.0587358
0.045174
0.0359616
0.0292994
0.0242504
0.020309
0.0171736
0.014645
0.0125831
0.0108849
0.0094734
0.00829043
0.00729144
0.00644061
0.00570742
0.0050719
0.00452995
0.00407505
0.378198
0.338518
0.257256
0.180871
0.123547
0.0859637
0.0626283
0.0478785
0.038009
0.0309753
0.0257007
0.0216065
0.0183552
0.0157296
0.0135796
0.0117971
0.0103014
0.00903191
0.00794204
0.00699428
0.00615648
0.0054081
0.0047475
0.00416924
0.38829
0.356503
0.274559
0.194474
0.133164
0.0923035
0.0667887
0.05076
0.0401715
0.0327312
0.0272136
0.0229599
0.0195917
0.0168709
0.0146363
0.0127731
0.0111966
0.00984312
0.00866354
0.00761791
0.00667154
0.00580192
0.00500822
0.00428251
0.355602
0.361842
0.288658
0.206642
0.142461
0.098751
0.0711307
0.0537877
0.0424361
0.034559
0.0287819
0.0243618
0.0208755
0.0180615
0.0157459
0.0138063
0.0121534
0.0107198
0.00945315
0.00831051
0.0072535
0.00625595
0.00531534
0.00441627
0.0109301
0.0157456
0.0183425
0.0195695
0.0212768
0.0517278
0.0289764
0.0386131
0.0409094
0.0407674
0.0444137
0.0818922
0.0375012
0.0485317
0.0534479
0.0540768
0.06092
0.102157
0.0431097
0.0566855
0.0638213
0.0653796
0.0748783
0.118991
0.0470859
0.0643266
0.0731717
0.075712
0.0872562
0.132808
0.0502016
0.0715156
0.0817898
0.0854272
0.0983917
0.143201
0.0528075
0.0782671
0.0898228
0.0946828
0.108572
0.150996
0.0550444
0.0846351
0.0973799
0.103586
0.11802
0.157042
0.0569749
0.0906072
0.104529
0.112211
0.126852
0.162051
0.0586369
0.0961358
0.111298
0.120535
0.135241
0.166532
0.0600588
0.10118
0.117692
0.12854
0.1434
0.170896
0.0612691
0.105676
0.123707
0.136261
0.151429
0.175651
0.0623012
0.10952
0.129323
0.143747
0.159526
0.181289
0.0627421
0.112803
0.1345
0.151028
0.16791
0.188328
0.062624
0.115483
0.139147
0.158073
0.176736
0.197311
0.0617863
0.117416
0.143116
0.164747
0.185964
0.208316
0.0601764
0.118321
0.146182
0.170769
0.195271
0.220992
0.0576961
0.118022
0.147981
0.175669
0.203956
0.234333
0.0542051
0.115994
0.148166
0.178694
0.210901
0.246483
0.04961
0.111593
0.146182
0.179048
0.214465
0.254757
0.0438227
0.103799
0.14123
0.175545
0.212797
0.256191
0.0362308
0.0912482
0.132165
0.166545
0.202958
0.24712
0.025924
0.0712251
0.116899
0.149655
0.180172
0.219631
0.0109012
0.0458298
0.0945269
0.123191
0.137088
0.132666
0.298905
0.35345
0.294616
0.215846
0.150753
0.105011
0.0755409
0.0569206
0.0447873
0.0364508
0.0303996
0.025806
0.0222
0.0192945
0.0169014
0.01489
0.0131655
0.0116563
0.0103067
0.00906956
0.0079019
0.0067717
0.00567129
0.00457116
0.257344
0.333952
0.292844
0.221486
0.157582
0.110831
0.0799077
0.0601169
0.0472104
0.0384008
0.0320627
0.0272885
0.0235606
0.0205646
0.018097
0.0160179
0.0142266
0.012647
0.0112192
0.00989161
0.00861526
0.00734992
0.00607796
0.00474716
0.231911
0.311654
0.287827
0.224258
0.162891
0.116075
0.08415
0.063343
0.0496947
0.040406
0.0337701
0.028808
0.0249551
0.0218689
0.0193293
0.0171864
0.0153329
0.0136879
0.012187
0.0107737
0.00939216
0.00799136
0.0065375
0.0049438
0.217032
0.291647
0.279084
0.224242
0.166744
0.120708
0.0882235
0.0665772
0.0522346
0.0424671
0.0355237
0.0303661
0.0263847
0.0232084
0.0205992
0.0183964
0.0164855
0.0147802
0.0132114
0.0117171
0.0102345
0.00869939
0.00705443
0.00516115
0.208374
0.274443
0.2682
0.222669
0.169412
0.124771
0.0921167
0.0698092
0.0548278
0.0445866
0.0373274
0.0319664
0.027853
0.024587
0.021912
0.0196553
0.017694
0.0159358
0.0143057
0.0127362
0.0111565
0.00948865
0.00764303
0.0054033
0.203676
0.259819
0.257135
0.22024
0.171163
0.128327
0.0958381
0.073038
0.057475
0.0467677
0.0391844
0.0336121
0.0293634
0.0260101
0.0232764
0.0209767
0.0189788
0.0171829
0.0155072
0.0138763
0.0122104
0.0104153
0.00835952
0.00570241
0.201231
0.247454
0.246458
0.217015
0.172161
0.131439
0.0993991
0.0762672
0.0601806
0.0490133
0.0410963
0.0353032
0.0309155
0.0274783
0.0246968
0.0223723
0.0203635
0.0185634
0.0168827
0.0152378
0.0135385
0.0116736
0.00946518
0.00640125
0.200043
0.237051
0.236515
0.212917
0.172363
0.134107
0.102801
0.0794975
0.0629463
0.0513248
0.0430617
0.037034
0.0324998
0.0289799
0.0261616
0.0238347
0.0218513
0.0201018
0.018498
0.0169628
0.0154263
0.0138507
0.012342
0.0113531
0.199599
0.228383
0.227499
0.208121
0.171987
0.136341
0.106038
0.0827248
0.0657732
0.053703
0.045076
0.038793
0.0340973
0.0304886
0.027638
0.0253257
0.0234025
0.0217651
0.0203425
0.019089
0.0179828
0.0170458
0.0164018
0.0162786
0.199789
0.221329
0.219585
0.203247
0.171212
0.138186
0.109098
0.0859405
0.0686615
0.05615
0.0471367
0.0405695
0.0356881
0.0319751
0.029087
0.0267965
0.0249541
0.0234645
0.0222713
0.0213478
0.0206885
0.0203081
0.0202485
0.0204925
0.200521
0.215872
0.212942
0.198518
0.17016
0.139703
0.111967
0.0891322
0.0716107
0.0586716
0.0492477
0.0423609
0.0372609
0.0334199
0.0304818
0.0282121
0.0264601
0.0251332
0.0241781
0.0235659
0.0232767
0.0232894
0.0235619
0.0239922
0.201856
0.212103
0.207768
0.194189
0.168992
0.140948
0.114644
0.0922901
0.0746222
0.06128
0.0514236
0.0441769
0.0388178
0.0348159
0.0318055
0.029544
0.0278759
0.0267039
0.0259668
0.0256205
0.0256211
0.0258963
0.0263984
0.0269393
0.204436
0.210618
0.204416
0.190535
0.167911
0.142019
0.11715
0.0954068
0.0777004
0.0639947
0.0536908
0.0460421
0.0403758
0.0361697
0.0330517
0.0307704
0.0291607
0.0281146
0.0275562
0.0274233
0.0276285
0.0281181
0.0287803
0.0294092
0.20906
0.211603
0.203528
0.188142
0.167185
0.14306
0.119546
0.0984919
0.0808559
0.0668425
0.0560879
0.0479971
0.0419689
0.0375034
0.0342277
0.0318811
0.0302862
0.0293199
0.0288892
0.0289102
0.0292674
0.0299181
0.0307081
0.0314167
0.216465
0.215528
0.204652
0.187762
0.167023
0.144257
0.12194
0.101587
0.0841125
0.0698591
0.0586657
0.0500985
0.0436497
0.0388583
0.035359
0.0328843
0.0312437
0.0302978
0.0299366
0.0300432
0.0305128
0.0312779
0.0321715
0.0329561
0.227367
0.224437
0.209074
0.189296
0.168001
0.145931
0.124503
0.104782
0.0875198
0.0730923
0.0614859
0.0524192
0.0454917
0.0402988
0.0364951
0.0338121
0.0320487
0.03105
0.0306895
0.0308236
0.0313478
0.0321869
0.0331602
0.034017
0.241802
0.238774
0.219173
0.194552
0.171127
0.148671
0.12757
0.108257
0.0911741
0.076613
0.0646254
0.055049
0.0475911
0.0419174
0.0377164
0.0347289
0.0327487
0.0316092
0.0311691
0.0312706
0.0317804
0.032647
0.0336709
0.0345927
0.258678
0.257745
0.23512
0.205143
0.177769
0.153453
0.131753
0.112368
0.0952768
0.0805479
0.068191
0.0581007
0.0500703
0.0438392
0.0391418
0.0357401
0.0334325
0.032047
0.0314296
0.0314319
0.0318415
0.0326774
0.0337124
0.0346853
0.275837
0.278955
0.255311
0.221012
0.189041
0.161511
0.138017
0.117765
0.100232
0.0851471
0.0723588
0.0617288
0.0530865
0.0462277
0.0409353
0.0370018
0.0342415
0.0324873
0.031584
0.0313881
0.0316581
0.0323704
0.0333669
0.0343677
0.28994
0.297806
0.275438
0.239834
0.204567
0.173584
0.14741
0.125385
0.106736
0.0908865
0.077455
0.0661815
0.0568597
0.0492996
0.0433159
0.0387319
0.0353839
0.0331203
0.0317942
0.0312607
0.0313156
0.0317811
0.0326563
0.033641
0.296179
0.308063
0.289553
0.256612
0.221333
0.188594
0.160104
0.135948
0.115611
0.0984797
0.0840347
0.0718838
0.0617356
0.0533642
0.0465824
0.0412271
0.0371529
0.0342261
0.0323174
0.031299
0.0309896
0.0311614
0.0317536
0.032654
0.289359
0.303909
0.291314
0.265061
0.234061
0.202961
0.174245
0.148908
0.127082
0.108494
0.0927434
0.0794365
0.0682395
0.0588851
0.0511612
0.0448974
0.0399521
0.0362019
0.0335325
0.0318253
0.0309682
0.0307569
0.0309662
0.0316092
0.264213
0.280925
0.278016
0.261125
0.237236
0.211663
0.185948
0.161732
0.139827
0.120503
0.103715
0.0892684
0.0769241
0.0664479
0.0576347
0.0503141
0.0443453
0.03961
0.0360034
0.033408
0.031753
0.0309109
0.0307023
0.0309127
0.212077
0.239209
0.24729
0.242795
0.229654
0.210937
0.190995
0.170705
0.150977
0.132583
0.115886
0.100998
0.0878914
0.0764693
0.0666111
0.0581961
0.0511132
0.0452637
0.0405639
0.0369259
0.0342617
0.0324874
0.0315104
0.0312079
0.00350801
0.00778023
0.0154598
0.023953
0.0335183
0.0564146
0.0151063
0.0226673
0.0335996
0.0435292
0.0543897
0.0721926
0.0190942
0.0301546
0.0428839
0.0541078
0.0656696
0.0808835
0.0212819
0.0351934
0.0492166
0.061408
0.0732931
0.0865037
0.0230185
0.0391522
0.0541817
0.0670777
0.0790645
0.0908162
0.0242425
0.042478
0.0583046
0.0717172
0.083727
0.0945236
0.0248232
0.0453653
0.0618022
0.0756076
0.0876481
0.0979036
0.0249818
0.0479292
0.0647698
0.078899
0.09103
0.101073
0.0251219
0.050064
0.0672414
0.0816772
0.0939934
0.104098
0.0252826
0.0517782
0.0692329
0.0839937
0.096613
0.107029
0.0256768
0.0530253
0.070752
0.0858779
0.0989327
0.109903
0.0260169
0.0538133
0.0718021
0.0873407
0.100969
0.112741
0.0261842
0.054141
0.0723786
0.0883744
0.102713
0.115535
0.0261343
0.0539994
0.0724656
0.0889501
0.104121
0.118246
0.0258623
0.0533687
0.0720343
0.0890144
0.105118
0.120786
0.025428
0.0522216
0.0710393
0.0884891
0.105585
0.123012
0.0249882
0.0505163
0.0694189
0.0872655
0.10536
0.124702
0.0249217
0.0481914
0.0670943
0.0852047
0.104233
0.125541
0.0245747
0.0453353
0.0639696
0.082134
0.101942
0.125111
0.023601
0.0419149
0.0599044
0.0778334
0.0981412
0.12286
0.0220466
0.0377288
0.0546454
0.0719811
0.0923291
0.118105
0.0199681
0.0323333
0.0476349
0.0639218
0.083611
0.110021
0.0160309
0.0243281
0.0372155
0.0518937
0.0700554
0.097288
0.00394026
0.00842696
0.0170329
0.0293228
0.0456385
0.0769717
0.144562
0.187325
0.205772
0.211925
0.209776
0.201629
0.188236
0.173274
0.15778
0.142282
0.127393
0.113463
0.100674
0.0890978
0.0787453
0.0695919
0.0616008
0.0547262
0.0489317
0.0441941
0.0404215
0.0375285
0.0355582
0.0342371
0.113832
0.145993
0.167063
0.179371
0.184386
0.183588
0.17884
0.170142
0.159774
0.148663
0.137306
0.126115
0.115363
0.105228
0.095815
0.0871819
0.0793554
0.0723577
0.0662147
0.0608817
0.0564018
0.0526335
0.0498676
0.0472257
0.103241
0.123659
0.14057
0.153542
0.161857
0.165769
0.165939
0.163738
0.158939
0.153067
0.146558
0.139811
0.133116
0.126676
0.120628
0.115055
0.110007
0.105486
0.101484
0.097954
0.0948813
0.0921135
0.0899565
0.0875849
0.100933
0.114555
0.127143
0.138086
0.14663
0.152616
0.156188
0.157831
0.157865
0.157179
0.155785
0.154235
0.152777
0.151591
0.150798
0.150457
0.150559
0.151018
0.151755
0.152605
0.153379
0.153989
0.154395
0.154695
0.101823
0.112116
0.122077
0.131101
0.138841
0.145201
0.150254
0.154246
0.157469
0.160289
0.162931
0.165626
0.16853
0.171721
0.175198
0.178888
0.182659
0.186344
0.189758
0.192721
0.195054
0.196663
0.197544
0.197906
0.104087
0.112713
0.121154
0.129005
0.135983
0.14203
0.147351
0.152164
0.156704
0.161137
0.165577
0.170153
0.174874
0.179691
0.184515
0.189226
0.193689
0.197763
0.201308
0.204196
0.206303
0.207533
0.207881
0.207738
0.106921
0.11494
0.122534
0.129525
0.135795
0.141385
0.14646
0.15122
0.155833
0.160412
0.165082
0.169863
0.174683
0.179422
0.183983
0.188238
0.192067
0.195369
0.198072
0.200112
0.20142
0.201898
0.201562
0.200853
0.110034
0.118042
0.125374
0.131965
0.137768
0.142867
0.147446
0.151699
0.155784
0.159788
0.163709
0.167473
0.171067
0.174454
0.17753
0.180214
0.182418
0.184098
0.185247
0.185872
0.185968
0.1856
0.184752
0.183712
0.113343
0.121758
0.129302
0.135948
0.141675
0.146578
0.150828
0.1546
0.158032
0.161205
0.16415
0.166865
0.169282
0.17132
0.172911
0.174008
0.174655
0.174892
0.174784
0.174389
0.17382
0.173238
0.172811
0.172435
0.116859
0.126056
0.134246
0.1414
0.1475
0.152636
0.156959
0.160619
0.163734
0.166382
0.168605
0.170418
0.171821
0.172813
0.17341
0.173642
0.173533
0.173112
0.17245
0.171622
0.170741
0.169992
0.1696
0.169493
0.120628
0.130993
0.140258
0.148359
0.155271
0.161086
0.165946
0.169987
0.17332
0.176022
0.178147
0.179733
0.180811
0.181409
0.181556
0.181332
0.180705
0.179697
0.1783
0.176503
0.174378
0.172135
0.170199
0.169288
0.124698
0.136645
0.147397
0.156829
0.164916
0.171771
0.177544
0.182372
0.186368
0.189611
0.192156
0.194061
0.195363
0.196084
0.196233
0.195955
0.195141
0.193594
0.191237
0.187885
0.183299
0.177719
0.172105
0.168538
0.129097
0.143057
0.15565
0.166677
0.17613
0.184168
0.190973
0.196694
0.201463
0.205339
0.208371
0.210685
0.212201
0.21293
0.212801
0.211657
0.209231
0.205459
0.200487
0.194376
0.18749
0.179825
0.171894
0.164524
0.133817
0.150214
0.164875
0.177548
0.188275
0.197299
0.204868
0.211129
0.216299
0.220313
0.223176
0.224625
0.224816
0.223876
0.221704
0.21836
0.214007
0.208516
0.201844
0.193984
0.184897
0.174587
0.163718
0.152164
0.138798
0.158001
0.174735
0.188791
0.200334
0.209734
0.217338
0.223187
0.227052
0.229307
0.230093
0.229796
0.228513
0.225883
0.221779
0.216234
0.209194
0.200708
0.190853
0.179761
0.167697
0.154784
0.142143
0.128037
0.143904
0.166167
0.184641
0.19942
0.210913
0.219493
0.22513
0.228565
0.230491
0.230865
0.229723
0.227015
0.222451
0.216212
0.208407
0.199128
0.188484
0.176632
0.163788
0.150237
0.136477
0.122959
0.110569
0.0987149
0.148895
0.174274
0.193713
0.208109
0.217684
0.223493
0.226928
0.228039
0.226754
0.223599
0.218223
0.21104
0.202244
0.191994
0.180469
0.167868
0.154436
0.140489
0.126501
0.113048
0.100755
0.0901736
0.0813373
0.0761016
0.153396
0.181649
0.200789
0.212628
0.219448
0.222553
0.222029
0.218938
0.212972
0.204758
0.194789
0.183379
0.170844
0.157472
0.143547
0.129427
0.1156
0.102658
0.0911677
0.0814934
0.0738686
0.0684421
0.0655804
0.0653171
0.156867
0.187354
0.20395
0.212953
0.215987
0.214416
0.20939
0.200738
0.189822
0.177257
0.163611
0.14937
0.134946
0.120703
0.107127
0.0947801
0.0841162
0.0753451
0.0684572
0.0633742
0.0600292
0.0584563
0.0585829
0.0599492
0.158669
0.189904
0.203626
0.208133
0.206431
0.200247
0.189489
0.176304
0.161669
0.146434
0.131285
0.116701
0.103112
0.0910022
0.0807257
0.0723616
0.0657516
0.0606697
0.0569268
0.0544492
0.0532531
0.0532941
0.053993
0.0562899
0.158584
0.189476
0.199048
0.198706
0.192984
0.181157
0.166339
0.150236
0.134018
0.118552
0.104348
0.0917931
0.0811619
0.0724706
0.0654908
0.059918
0.0554987
0.0520977
0.0496916
0.0483372
0.0480748
0.0485117
0.0498618
0.0527136
0.157941
0.186235
0.191611
0.187862
0.176917
0.1611
0.143935
0.126991
0.11132
0.097437
0.0855656
0.0757298
0.0676922
0.0611169
0.0557222
0.051333
0.0478707
0.0453212
0.0437326
0.0431947
0.0434563
0.0444189
0.0463545
0.049294
0.159676
0.184298
0.184884
0.177156
0.161059
0.142892
0.125029
0.108786
0.0946992
0.0828259
0.0729923
0.0648604
0.0581092
0.052523
0.0479742
0.0443717
0.0416694
0.0398688
0.0389926
0.0390125
0.0395822
0.0409355
0.0430307
0.0458477
0.168694
0.185431
0.18113
0.1666
0.146982
0.127618
0.110149
0.0951597
0.082594
0.0721545
0.0634742
0.0562633
0.0503323
0.045532
0.0417328
0.0388359
0.0367799
0.0355383
0.0351069
0.0353244
0.0361343
0.0376225
0.0396801
0.0422803
0.00546611
0.0213837
0.0614718
0.107781
0.14063
0.125622
0.0186499
0.0433323
0.0887962
0.13633
0.180967
0.214431
0.0232413
0.0585156
0.105001
0.153723
0.199943
0.231297
0.0257163
0.0687078
0.115009
0.163791
0.207777
0.233587
0.0296212
0.0756521
0.121598
0.169604
0.21047
0.230522
0.0327033
0.0804919
0.125925
0.172795
0.210661
0.225527
0.0350704
0.0837788
0.128596
0.174341
0.209774
0.220477
0.0368087
0.0858105
0.129957
0.17483
0.20852
0.216076
0.0379815
0.0867505
0.130214
0.174616
0.207229
0.212522
0.0386346
0.0866922
0.129479
0.17381
0.205988
0.209781
0.0387957
0.0856712
0.127807
0.172502
0.204762
0.207756
0.038518
0.0837159
0.125211
0.170633
0.203495
0.206334
0.0378776
0.0808336
0.121673
0.168041
0.202127
0.205397
0.0369556
0.0770534
0.117157
0.164525
0.200539
0.205007
0.0357299
0.0724468
0.111622
0.159843
0.198553
0.205109
0.0341867
0.0670887
0.105023
0.153705
0.195886
0.205656
0.032302
0.0610624
0.0973242
0.145785
0.192088
0.206466
0.0299661
0.0544672
0.0885227
0.135746
0.186472
0.207245
0.0266657
0.0474744
0.0786836
0.123308
0.178017
0.207479
0.0249705
0.0406879
0.0679911
0.108282
0.165333
0.206737
0.0233517
0.034565
0.0568299
0.0905971
0.146767
0.203032
0.0212909
0.0286897
0.0453648
0.0707678
0.121482
0.19023
0.0173967
0.021707
0.0324405
0.0491384
0.0881042
0.155474
0.00489315
0.00761466
0.0128735
0.021961
0.0420689
0.1195
0.191797
0.192234
0.178287
0.156335
0.134589
0.115054
0.0984268
0.0845592
0.0730457
0.0634891
0.0555973
0.0491578
0.0439789
0.0398841
0.0367235
0.0343819
0.0327846
0.0318937
0.0316927
0.0320114
0.0328986
0.0343295
0.0362526
0.038605
0.216778
0.196435
0.171536
0.146285
0.12364
0.104573
0.0888045
0.0757685
0.0649961
0.0561577
0.0489975
0.0432781
0.0387757
0.035288
0.0326453
0.0307203
0.0294311
0.0287339
0.0286081
0.0289265
0.0297468
0.0310277
0.0327491
0.0348435
0.222316
0.194083
0.163568
0.136489
0.114013
0.0956585
0.0805876
0.0681889
0.0580685
0.0499244
0.0434706
0.0384257
0.0345261
0.0315429
0.0292952
0.0276538
0.026538
0.0259064
0.025743
0.0259776
0.0266304
0.0276956
0.0291737
0.03101
0.221327
0.187433
0.154615
0.127495
0.105672
0.087929
0.0733938
0.0615684
0.0521013
0.0446546
0.0388797
0.0344405
0.0310418
0.0284462
0.0264761
0.0250089
0.0239688
0.0233175
0.0230429
0.0231267
0.0235461
0.0243457
0.0255503
0.0271322
0.215782
0.179203
0.14614
0.119649
0.0984041
0.0810957
0.0670277
0.0557892
0.0469968
0.0402313
0.0350717
0.0311427
0.0281396
0.0258314
0.024051
0.0226838
0.0216578
0.0209353
0.020506
0.0203758
0.0205323
0.0210128
0.0219118
0.0232381
0.208842
0.171167
0.13869
0.112843
0.0919697
0.0749937
0.0614001
0.0507815
0.0426622
0.0365269
0.0318984
0.0283846
0.0256872
0.0235892
0.0219362
0.0206216
0.0195753
0.0187571
0.0181529
0.0177696
0.0176267
0.017758
0.0182908
0.019343
0.201813
0.164091
0.132337
0.1069
0.0862226
0.0695474
0.056461
0.0464778
0.0389984
0.0334212
0.0292357
0.0260517
0.0235871
0.021642
0.0200754
0.0187877
0.0177093
0.0167948
0.0160208
0.0153856
0.0149082
0.0146455
0.0147488
0.015438
0.195451
0.15813
0.126969
0.101679
0.0810838
0.064716
0.0521635
0.0428032
0.0359063
0.0308061
0.026981
0.0240554
0.0217677
0.019936
0.0184318
0.017162
0.0160578
0.0150682
0.0141576
0.013307
0.012518
0.0118282
0.0113458
0.0113556
0.190093
0.153297
0.12246
0.0970875
0.0765112
0.0604675
0.0484549
0.0396791
0.0332934
0.0285902
0.0250535
0.0223293
0.0201776
0.0184334
0.0169796
0.0157302
0.0146188
0.013592
0.0126051
0.0116198
0.0106043
0.00953319
0.00828712
0.0063337
0.18587
0.149551
0.118717
0.0930743
0.0724783
0.0567671
0.0452766
0.0370287
0.0310788
0.0266995
0.0233909
0.0208234
0.0187777
0.0171041
0.0156964
0.0144756
0.0133805
0.0123606
0.011372
0.0103716
0.00931372
0.00815687
0.0068917
0.00527538
0.182836
0.14683
0.115681
0.0896109
0.0689626
0.0535754
0.0425687
0.0347821
0.0291949
0.0250748
0.0219445
0.0194982
0.0175359
0.0159211
0.014557
0.0133715
0.0123091
0.011325
0.0103813
0.0094422
0.00846962
0.00742952
0.00631261
0.00499482
0.181016
0.145084
0.113316
0.0866812
0.0659404
0.0508495
0.0402736
0.0328788
0.0275863
0.0236698
0.0206762
0.0183226
0.0164254
0.0148593
0.013535
0.0123862
0.0113617
0.0104207
0.00952938
0.00865675
0.00777014
0.0068442
0.00588316
0.00481092
0.180442
0.14425
0.111608
0.0842745
0.0633852
0.048546
0.0383396
0.031268
0.0262091
0.0224483
0.019557
0.0172724
0.015425
0.0138986
0.0126097
0.0114961
0.0105098
0.00961289
0.00877454
0.00796712
0.00716266
0.00634278
0.00551864
0.00464188
0.181036
0.144302
0.110566
0.0823825
0.0612685
0.0466243
0.0367226
0.0299087
0.0250284
0.0213823
0.0185642
0.0163293
0.0145192
0.0130249
0.0117672
0.0106868
0.00973812
0.00888522
0.00809944
0.00735579
0.00663013
0.00590907
0.00520605
0.00448922
0.18277
0.145391
0.110192
0.0809963
0.0595634
0.0450488
0.0353853
0.0287673
0.0240168
0.0204501
0.017681
0.0154796
0.0136966
0.0122281
0.0109982
0.00994955
0.00903789
0.00822879
0.00749509
0.00681378
0.00616353
0.00553401
0.00493824
0.00435502
0.185669
0.147464
0.110398
0.0801153
0.0582455
0.0437874
0.0342955
0.027816
0.0231522
0.0196346
0.0168942
0.014713
0.0129488
0.0115014
0.0102967
0.00927856
0.00840349
0.00763793
0.00695567
0.00633498
0.00575639
0.00521114
0.00471012
0.00423911
0.189771
0.150644
0.111506
0.0797431
0.0572882
0.0428108
0.0334254
0.0270321
0.022417
0.0189226
0.0161936
0.0140218
0.0122699
0.0108397
0.00965825
0.00866963
0.00783077
0.00710838
0.00647671
0.00591466
0.00540376
0.00493554
0.00451779
0.00414064
0.195125
0.155015
0.113319
0.0798072
0.0566595
0.0420912
0.0327509
0.0263963
0.0217967
0.0183033
0.0155715
0.0134001
0.011655
0.0102391
0.00907924
0.00811937
0.00731622
0.00663643
0.00605422
0.00554855
0.00510113
0.00470276
0.00435755
0.00405818
0.201782
0.160724
0.11584
0.0801898
0.056331
0.0416031
0.0322504
0.0258921
0.0212792
0.017768
0.0150214
0.0128432
0.0111006
0.00969646
0.0085568
0.00762483
0.0068567
0.00621865
0.00568447
0.00523259
0.00484415
0.00450844
0.00422566
0.00398997
0.209792
0.167938
0.119084
0.0809236
0.0562821
0.0413211
0.0319032
0.0255046
0.0208539
0.0173093
0.0145382
0.0123472
0.0106037
0.00920921
0.0080884
0.0071833
0.00644924
0.00585174
0.00536376
0.00496267
0.0046284
0.00434815
0.00411841
0.00393419
0.219401
0.176828
0.122972
0.0819577
0.0564182
0.041214
0.0316889
0.0252198
0.0205116
0.0169209
0.0141175
0.011909
0.0101617
0.00877504
0.00767168
0.00679224
0.00609096
0.0055324
0.00508833
0.00473454
0.00444933
0.00421752
0.00403229
0.00388917
0.231484
0.187512
0.127024
0.0831799
0.0566993
0.0412427
0.0315862
0.0250245
0.0202437
0.0165973
0.0137557
0.0115261
0.00977256
0.00839187
0.00730444
0.00644914
0.005779
0.00525732
0.0048543
0.00454383
0.00430229
0.00411227
0.00396408
0.00385342
0.24727
0.199668
0.130633
0.0844206
0.0570698
0.0413509
0.031572
0.0249053
0.0200423
0.0163336
0.0134496
0.0111961
0.00943427
0.00805775
0.00698447
0.00615149
0.00551043
0.00502311
0.00465776
0.00438611
0.00418267
0.00402825
0.00391087
0.00382569
0.268262
0.209897
0.133471
0.0854968
0.0574706
0.0415211
0.0316208
0.024853
0.019903
0.0161279
0.0131984
0.0109185
0.00914612
0.00777152
0.00671008
0.00589702
0.00528243
0.00482639
0.00449484
0.0042571
0.004086
0.00396123
0.00386974
0.00380444
)
;

boundaryField
{
    rotor
    {
        type            kqRWallFunction;
        value           nonuniform List<scalar> 
144
(
0.00691448
0.0332318
0.0774123
0.126113
0.153215
0.151698
0.00691448
0.0219688
0.0316125
0.0392304
0.0456046
0.0508988
0.0552324
0.0586927
0.0613433
0.0632279
0.0643787
0.0648409
0.0647945
0.0642138
0.0630306
0.0611708
0.0585613
0.0551228
0.0507642
0.0453893
0.0389134
0.0312892
0.0219613
0.00635709
0.00635709
0.0260366
0.0597661
0.0997576
0.153291
0.181228
0.0109301
0.0157456
0.0183425
0.0195695
0.0212768
0.0517278
0.0109301
0.0289764
0.0375012
0.0431097
0.0470859
0.0502016
0.0528075
0.0550444
0.0569749
0.0586369
0.0600588
0.0612691
0.0623012
0.0627421
0.062624
0.0617863
0.0601764
0.0576961
0.0542051
0.04961
0.0438227
0.0362308
0.025924
0.0109012
0.0109012
0.0458298
0.0945269
0.123191
0.137088
0.132666
0.00350801
0.00778023
0.0154598
0.023953
0.0335183
0.0564146
0.00350801
0.0151063
0.0190942
0.0212819
0.0230185
0.0242425
0.0248232
0.0249818
0.0251219
0.0252826
0.0256768
0.0260169
0.0261842
0.0261343
0.0258623
0.025428
0.0249882
0.0249217
0.0245747
0.023601
0.0220466
0.0199681
0.0160309
0.00394026
0.00394026
0.00842696
0.0170329
0.0293228
0.0456385
0.0769717
0.00546611
0.0213837
0.0614718
0.107781
0.14063
0.125622
0.00546611
0.0186499
0.0232413
0.0257163
0.0296212
0.0327033
0.0350704
0.0368087
0.0379815
0.0386346
0.0387957
0.038518
0.0378776
0.0369556
0.0357299
0.0341867
0.032302
0.0299661
0.0266657
0.0249705
0.0233517
0.0212909
0.0173967
0.00489315
0.00489315
0.00761466
0.0128735
0.021961
0.0420689