/*--------------------------------*- C++ -*----------------------------------*\
  =========                 |
  \\      /  F ield         | OpenFOAM: The Open Source CFD Toolbox
   \\    /   O peration     | Website:  https://openfoam.org
    \\  /    A nd           | Version:  11
     \\/     M anipulation  |
\*---------------------------------------------------------------------------*/
FoamFile
{
    format      ascii;
    class       surfaceScalarField;
    location    "1.92";
    object      meshPhi;
}
// * * * * * * * * * * * * * * * * * * * * * * * * * * * * * * * * * * * * * //

dimensions      [0 3 -1 0 0 0 0];

internalField   nonuniform List<scalar> 
5640
(
1.36962e-16
9.81747e-07
2.42017e-16
1.37445e-06
3.76919e-16
1.76715e-06
-1.33938e-15
2.15984e-06
-3.68173e-15
2.55254e-06
2.94524e-06
5.95117e-15
1.81235e-18
9.81747e-07
-3.88816e-16
1.37445e-06
-2.60424e-15
1.76715e-06
1.94346e-15
2.15984e-06
8.06605e-15
2.55254e-06
2.94524e-06
-9.03002e-15
-1.16486e-16
9.81747e-07
1.86371e-16
1.37445e-06
-1.56249e-15
1.76715e-06
-4.21266e-15
2.15984e-06
-7.49862e-15
2.55254e-06
2.94524e-06
7.71916e-16
8.69103e-17
9.81747e-07
-1.01948e-16
1.37445e-06
2.69306e-15
1.76715e-06
7.44271e-15
2.15984e-06
3.25966e-15
2.55254e-06
2.94524e-06
-2.79821e-15
-4.84093e-17
9.81747e-07
3.94716e-17
1.37445e-06
1.9421e-16
1.76715e-06
-1.8062e-15
2.15984e-06
-4.20856e-15
2.55254e-06
2.94524e-06
5.01307e-15
-1.80149e-16
9.81747e-07
4.29095e-18
1.37445e-06
-1.8479e-15
1.76715e-06
-3.8862e-15
2.15984e-06
3.15682e-15
2.55254e-06
2.94524e-06
4.97992e-16
2.53955e-16
9.81747e-07
2.55413e-16
1.37445e-06
2.0658e-15
1.76715e-06
4.50401e-15
2.15984e-06
-2.31005e-15
2.55254e-06
2.94524e-06
5.40691e-16
2.16306e-17
9.81747e-07
-3.21673e-16
1.37445e-06
-1.149e-15
1.76715e-06
-5.28573e-15
2.15984e-06
-3.7685e-16
2.55254e-06
2.94524e-06
-5.63997e-15
-1.43411e-16
9.81747e-07
1.66425e-16
1.37445e-06
4.19107e-15
1.76715e-06
6.34935e-15
2.15984e-06
-8.0558e-16
2.55254e-06
2.94524e-06
8.39078e-16
-6.88337e-17
9.81747e-07
-9.20448e-17
1.37445e-06
-2.76942e-15
1.76715e-06
-3.68791e-16
2.15984e-06
-1.45081e-15
2.55254e-06
2.94524e-06
-1.76831e-16
1.66316e-16
9.81747e-07
-8.87385e-17
1.37445e-06
5.697e-16
1.76715e-06
-2.10346e-15
2.15984e-06
9.6599e-15
2.55254e-06
2.94524e-06
5.29e-15
-1.77834e-16
9.81747e-07
-2.05462e-17
1.37445e-06
-3.45528e-16
1.76715e-06
-4.17277e-15
2.15984e-06
-2.62254e-15
2.55254e-06
2.94524e-06
5.36929e-15
1.77753e-16
9.81747e-07
2.0436e-17
1.37445e-06
3.45363e-16
1.76715e-06
4.17249e-15
2.15984e-06
2.62238e-15
2.55254e-06
2.94524e-06
-5.36954e-15
-1.66365e-16
9.81747e-07
8.86938e-17
1.37445e-06
-5.6972e-16
1.76715e-06
2.10353e-15
2.15984e-06
-9.6601e-15
2.55254e-06
2.94524e-06
-5.29035e-15
6.87816e-17
9.81747e-07
9.20344e-17
1.37445e-06
2.76931e-15
1.76715e-06
3.68744e-16
2.15984e-06
1.45057e-15
2.55254e-06
2.94524e-06
1.7649e-16
1.4339e-16
9.81747e-07
-1.66407e-16
1.37445e-06
-4.19125e-15
1.76715e-06
-6.3495e-15
2.15984e-06
8.05504e-16
2.55254e-06
2.94524e-06
-8.39375e-16
-2.16732e-17
9.81747e-07
3.21652e-16
1.37445e-06
1.14881e-15
1.76715e-06
5.28553e-15
2.15984e-06
3.76607e-16
2.55254e-06
2.94524e-06
5.63976e-15
-2.54034e-16
9.81747e-07
-2.55463e-16
1.37445e-06
-2.06601e-15
1.76715e-06
-4.50411e-15
2.15984e-06
2.30985e-15
2.55254e-06
2.94524e-06
-5.41089e-16
1.80076e-16
9.81747e-07
-4.34746e-18
1.37445e-06
1.84768e-15
1.76715e-06
3.88618e-15
2.15984e-06
-3.15717e-15
2.55254e-06
2.94524e-06
-4.9842e-16
4.83389e-17
9.81747e-07
-3.95438e-17
1.37445e-06
-1.94397e-16
1.76715e-06
1.80602e-15
2.15984e-06
4.20839e-15
2.55254e-06
2.94524e-06
-5.01349e-15
-8.70054e-17
9.81747e-07
1.01914e-16
1.37445e-06
-2.69326e-15
1.76715e-06
-7.44287e-15
2.15984e-06
-3.25987e-15
2.55254e-06
2.94524e-06
2.79785e-15
1.16416e-16
9.81747e-07
-1.86415e-16
1.37445e-06
1.56234e-15
1.76715e-06
4.21242e-15
2.15984e-06
7.49828e-15
2.55254e-06
2.94524e-06
-7.72548e-16
-1.85219e-18
9.81747e-07
3.88769e-16
1.37445e-06
2.60407e-15
1.76715e-06
-1.94381e-15
2.15984e-06
-8.06638e-15
2.55254e-06
2.94524e-06
9.02949e-15
-1.36959e-16
-2.4209e-16
-3.77053e-16
1.33919e-15
3.68143e-15
-5.95142e-15
-1.13363e-14
4.53785e-06
-4.53785e-06
-4.81358e-16
5.23599e-06
-5.23599e-06
-5.35749e-15
5.93412e-06
-5.93412e-06
-1.13039e-14
6.63225e-06
-6.63225e-06
4.8682e-15
7.33038e-06
-7.33038e-06
-1.11016e-15
8.02851e-06
-8.02851e-06
-8.15911e-15
8.72664e-06
-8.72664e-06
1.30427e-14
9.42478e-06
-9.42478e-06
5.94866e-15
1.01229e-05
-1.01229e-05
-1.99708e-15
1.0821e-05
-1.0821e-05
2.43848e-14
1.15192e-05
-1.15192e-05
1.61881e-14
1.22173e-05
-1.22173e-05
-3.27906e-14
1.29154e-05
-1.29154e-05
-3.05303e-15
1.36136e-05
-1.36136e-05
-1.44422e-14
1.43117e-05
-1.43117e-05
-2.69042e-14
1.50098e-05
-1.50098e-05
7.73833e-15
1.5708e-05
-1.5708e-05
-4.44037e-15
1.64061e-05
-1.64061e-05
-1.80045e-14
1.71042e-05
-1.71042e-05
2.18173e-14
1.78024e-05
-1.78024e-05
8.20849e-15
1.85005e-05
-1.85005e-05
-6.08598e-15
1.91986e-05
-1.91986e-05
3.89127e-14
1.98967e-05
-1.98967e-05
2.05949e-05
-2.05949e-05
9.39859e-15
4.53785e-06
5.19939e-16
5.23599e-06
7.52792e-15
5.93412e-06
-4.41206e-15
6.63225e-06
3.7828e-15
7.33038e-06
1.33841e-14
8.02851e-06
-2.11051e-15
8.72664e-06
8.52685e-15
9.42478e-06
-1.00277e-14
1.01229e-05
1.86423e-15
1.0821e-05
-2.02063e-14
1.15192e-05
-7.01365e-15
1.22173e-05
7.5091e-15
1.29154e-05
2.3609e-14
1.36136e-05
-2.04625e-15
1.43117e-05
1.48301e-14
1.50098e-05
-1.38791e-14
1.5708e-05
2.39007e-15
1.64061e-05
2.04052e-14
1.71042e-05
-7.01977e-15
1.78024e-05
1.20633e-14
1.85005e-05
-2.59461e-14
1.91986e-05
1.84655e-15
1.98967e-05
2.05949e-05
-8.67632e-15
4.53785e-06
1.22921e-14
5.23599e-06
1.8826e-15
5.93412e-06
8.90218e-15
6.63225e-06
-5.10856e-15
7.33038e-06
-2.19926e-14
8.02851e-06
1.22641e-14
8.72664e-06
-5.37498e-15
9.42478e-06
4.45572e-15
1.01229e-05
-1.4307e-14
1.0821e-05
-7.32827e-15
1.15192e-05
7.03928e-15
1.22173e-05
2.39942e-14
1.29154e-05
-7.55706e-15
1.36136e-05
9.79718e-15
1.43117e-05
-1.62372e-14
1.50098e-05
4.02915e-14
1.5708e-05
1.44416e-14
1.64061e-05
-1.37074e-14
1.71042e-05
-7.89967e-15
1.78024e-05
-3.92577e-14
1.85005e-05
4.27455e-14
1.91986e-05
-8.85395e-15
1.98967e-05
2.05949e-05
5.98556e-15
4.53785e-06
2.18687e-16
5.23599e-06
-6.43634e-15
5.93412e-06
6.06296e-15
6.63225e-06
-2.09281e-15
7.33038e-06
1.61755e-14
8.02851e-06
-1.88319e-14
8.72664e-06
-2.3518e-15
9.42478e-06
9.17054e-15
1.01229e-05
-4.71213e-15
1.0821e-05
2.16266e-14
1.15192e-05
-2.96471e-14
1.22173e-05
-9.2917e-15
1.29154e-05
-1.89092e-14
1.36136e-05
4.4648e-15
1.43117e-05
3.01526e-14
1.50098e-05
-2.62197e-14
1.5708e-05
4.34828e-16
1.64061e-05
-2.11724e-14
1.71042e-05
1.8711e-14
1.78024e-05
-3.92723e-15
1.85005e-05
-2.91629e-14
1.91986e-05
1.52318e-14
1.98967e-05
2.05949e-05
6.71481e-15
4.53785e-06
-7.30689e-15
5.23599e-06
1.11006e-14
5.93412e-06
-4.24191e-15
6.63225e-06
1.5101e-14
7.33038e-06
-5.20933e-15
8.02851e-06
1.70124e-14
8.72664e-06
-3.94079e-15
9.42478e-06
-2.9508e-16
1.01229e-05
6.60961e-15
1.0821e-05
1.37045e-14
1.15192e-05
1.01835e-14
1.22173e-05
1.82163e-14
1.29154e-05
1.4367e-14
1.36136e-05
2.33382e-14
1.43117e-05
-2.53457e-14
1.50098e-05
2.90719e-14
1.5708e-05
-7.8277e-15
1.64061e-05
3.54148e-14
1.71042e-05
-4.51522e-15
1.78024e-05
4.23667e-14
1.85005e-05
-5.88134e-16
1.91986e-05
-8.73451e-15
1.98967e-05
2.05949e-05
-4.63047e-15
4.53785e-06
5.79736e-15
5.23599e-06
-1.61507e-14
5.93412e-06
-5.9744e-15
6.63225e-06
-8.55602e-15
7.33038e-06
4.22313e-15
8.02851e-06
-8.18773e-15
8.72664e-06
6.99926e-15
9.42478e-06
-2.42311e-14
1.01229e-05
-7.76926e-15
1.0821e-05
-2.27647e-14
1.15192e-05
8.34947e-15
1.22173e-05
-7.40436e-15
1.29154e-05
2.82631e-14
1.36136e-05
-4.57114e-14
1.43117e-05
-8.2246e-15
1.50098e-05
-2.82283e-14
1.5708e-05
-2.34104e-15
1.64061e-05
-6.94983e-15
1.71042e-05
2.21474e-14
1.78024e-05
-3.41105e-14
1.85005e-05
-3.74298e-15
1.91986e-05
-3.2349e-14
1.98967e-05
2.05949e-05
-8.92521e-15
4.53785e-06
-2.28879e-15
5.23599e-06
-2.22444e-15
5.93412e-06
6.61573e-15
6.63225e-06
-3.38899e-15
7.33038e-06
-3.90788e-15
8.02851e-06
-6.41895e-15
8.72664e-06
-7.15963e-15
9.42478e-06
6.80768e-15
1.01229e-05
6.98251e-15
1.0821e-05
-9.06664e-15
1.15192e-05
6.75875e-15
1.22173e-05
-2.88888e-14
1.29154e-05
-1.22364e-14
1.36136e-05
4.80324e-15
1.43117e-05
2.50223e-14
1.50098e-05
3.85849e-15
1.5708e-05
3.60291e-15
1.64061e-05
-2.04861e-14
1.71042e-05
-2.17643e-14
1.78024e-05
3.46168e-15
1.85005e-05
2.90321e-14
1.91986e-05
-1.66764e-15
1.98967e-05
2.05949e-05
6.21566e-15
4.53785e-06
-3.87934e-15
5.23599e-06
1.54217e-14
5.93412e-06
-7.06554e-15
6.63225e-06
-2.21111e-15
7.33038e-06
1.42922e-15
8.02851e-06
-5.49327e-15
8.72664e-06
1.32252e-14
9.42478e-06
6.04381e-15
1.01229e-05
-1.74511e-14
1.0821e-05
2.08854e-14
1.15192e-05
-2.14467e-14
1.22173e-05
1.91311e-14
1.29154e-05
-7.31806e-15
1.36136e-05
3.84837e-14
1.43117e-05
-1.29273e-14
1.50098e-05
-1.88503e-15
1.5708e-05
5.7169e-15
1.64061e-05
-7.58891e-15
1.71042e-05
2.76552e-14
1.78024e-05
1.40967e-14
1.85005e-05
-5.31416e-14
1.91986e-05
3.9082e-14
1.98967e-05
2.05949e-05
-1.49878e-15
4.53785e-06
1.08968e-14
5.23599e-06
-6.60008e-15
5.93412e-06
7.26446e-15
6.63225e-06
6.17411e-15
7.33038e-06
2.48764e-15
8.02851e-06
-9.64457e-16
8.72664e-06
-4.36544e-15
9.42478e-06
-8.90265e-15
1.01229e-05
1.38621e-14
1.0821e-05
1.06897e-14
1.15192e-05
6.24798e-15
1.22173e-05
-1.29077e-16
1.29154e-05
-3.44273e-15
1.36136e-05
-1.10436e-14
1.43117e-05
-1.77667e-14
1.50098e-05
1.76757e-14
1.5708e-05
9.95057e-15
1.64061e-05
3.329e-15
1.71042e-05
-3.29701e-14
1.78024e-05
-1.04242e-14
1.85005e-05
3.00652e-14
1.91986e-05
-6.00016e-14
1.98967e-05
2.05949e-05
5.17004e-15
4.53785e-06
-7.45554e-15
5.23599e-06
-7.5746e-16
5.93412e-06
6.83834e-15
6.63225e-06
-9.97511e-15
7.33038e-06
-1.66581e-15
8.02851e-06
9.21853e-15
8.72664e-06
-1.34595e-14
9.42478e-06
2.32195e-14
1.01229e-05
1.04717e-14
1.0821e-05
-1.72725e-14
1.15192e-05
-3.02984e-15
1.22173e-05
1.1395e-14
1.29154e-05
-1.98205e-14
1.36136e-05
-4.68173e-15
1.43117e-05
5.03056e-14
1.50098e-05
-2.40479e-14
1.5708e-05
-6.66323e-15
1.64061e-05
1.42597e-14
1.71042e-05
1.64493e-15
1.78024e-05
-6.81732e-15
1.85005e-05
1.44407e-14
1.91986e-05
5.07515e-14
1.98967e-05
2.05949e-05
-6.19771e-15
4.53785e-06
2.79001e-17
5.23599e-06
1.15115e-14
5.93412e-06
-2.06259e-14
6.63225e-06
5.36619e-15
7.33038e-06
1.22061e-15
8.02851e-06
-4.80302e-17
8.72664e-06
1.2393e-14
9.42478e-06
-1.32274e-14
1.01229e-05
-1.88951e-14
1.0821e-05
-4.96467e-15
1.15192e-05
-7.1551e-15
1.22173e-05
-1.48902e-14
1.29154e-05
3.53357e-14
1.36136e-05
-4.20059e-18
1.43117e-05
-4.31396e-14
1.50098e-05
1.35579e-14
1.5708e-05
-2.82613e-14
1.64061e-05
2.45489e-15
1.71042e-05
-1.02443e-14
1.78024e-05
2.37977e-14
1.85005e-05
1.38728e-14
1.91986e-05
-4.55693e-14
1.98967e-05
2.05949e-05
-1.90696e-15
4.53785e-06
1.13032e-15
5.23599e-06
-2.16621e-14
5.93412e-06
9.62347e-15
6.63225e-06
1.51363e-14
7.33038e-06
-1.40666e-14
8.02851e-06
8.09188e-15
8.72664e-06
-2.69599e-14
9.42478e-06
-1.9666e-15
1.01229e-05
2.97163e-14
1.0821e-05
-1.17479e-14
1.15192e-05
1.98642e-14
1.22173e-05
-2.74497e-14
1.29154e-05
-2.06182e-14
1.36136e-05
1.60393e-14
1.43117e-05
-4.61329e-15
1.50098e-05
4.69046e-15
1.5708e-05
4.79645e-14
1.64061e-05
-1.37448e-14
1.71042e-05
3.23675e-14
1.78024e-05
-3.51903e-14
1.85005e-05
-2.49056e-14
1.91986e-05
7.19185e-14
1.98967e-05
2.05949e-05
1.90638e-15
4.53785e-06
-1.13084e-15
5.23599e-06
2.16616e-14
5.93412e-06
-9.62446e-15
6.63225e-06
-1.51381e-14
7.33038e-06
1.40645e-14
8.02851e-06
-8.09403e-15
8.72664e-06
2.69593e-14
9.42478e-06
1.9651e-15
1.01229e-05
-2.97198e-14
1.0821e-05
1.17446e-14
1.15192e-05
-1.98689e-14
1.22173e-05
2.74433e-14
1.29154e-05
2.0613e-14
1.36136e-05
-1.60431e-14
1.43117e-05
4.6117e-15
1.50098e-05
-4.69456e-15
1.5708e-05
-4.79717e-14
1.64061e-05
1.37317e-14
1.71042e-05
-3.23761e-14
1.78024e-05
3.51816e-14
1.85005e-05
2.49024e-14
1.91986e-05
-7.192e-14
1.98967e-05
2.05949e-05
6.19715e-15
4.53785e-06
-2.84165e-17
5.23599e-06
-1.15122e-14
5.93412e-06
2.06262e-14
6.63225e-06
-5.3672e-15
7.33038e-06
-1.22207e-15
8.02851e-06
4.58673e-17
8.72664e-06
-1.23948e-14
9.42478e-06
1.32255e-14
1.01229e-05
1.88926e-14
1.0821e-05
4.96325e-15
1.15192e-05
7.15145e-15
1.22173e-05
1.4884e-14
1.29154e-05
-3.53427e-14
1.36136e-05
-1.78582e-18
1.43117e-05
4.31343e-14
1.50098e-05
-1.35645e-14
1.5708e-05
2.82514e-14
1.64061e-05
-2.46099e-15
1.71042e-05
1.02357e-14
1.78024e-05
-2.38074e-14
1.85005e-05
-1.38805e-14
1.91986e-05
4.55563e-14
1.98967e-05
2.05949e-05
-5.17036e-15
4.53785e-06
7.45546e-15
5.23599e-06
7.56092e-16
5.93412e-06
-6.84011e-15
6.63225e-06
9.97442e-15
7.33038e-06
1.66415e-15
8.02851e-06
-9.22019e-15
8.72664e-06
1.34583e-14
9.42478e-06
-2.32225e-14
1.01229e-05
-1.04738e-14
1.0821e-05
1.72706e-14
1.15192e-05
3.02437e-15
1.22173e-05
-1.13985e-14
1.29154e-05
1.98155e-14
1.36136e-05
4.67473e-15
1.43117e-05
-5.03081e-14
1.50098e-05
2.40438e-14
1.5708e-05
6.65659e-15
1.64061e-05
-1.42633e-14
1.71042e-05
-1.65738e-15
1.78024e-05
6.80502e-15
1.85005e-05
-1.44474e-14
1.91986e-05
-5.07678e-14
1.98967e-05
2.05949e-05
1.49835e-15
4.53785e-06
-1.08974e-14
5.23599e-06
6.59887e-15
5.93412e-06
-7.26636e-15
6.63225e-06
-6.17544e-15
7.33038e-06
-2.48962e-15
8.02851e-06
9.63825e-16
8.72664e-06
4.36362e-15
9.42478e-06
8.90104e-15
1.01229e-05
-1.38638e-14
1.0821e-05
-1.06922e-14
1.15192e-05
-6.25175e-15
1.22173e-05
1.23925e-16
1.29154e-05
3.43571e-15
1.36136e-05
1.10394e-14
1.43117e-05
1.77613e-14
1.50098e-05
-1.76839e-14
1.5708e-05
-9.95849e-15
1.64061e-05
-3.32988e-15
1.71042e-05
3.2962e-14
1.78024e-05
1.04153e-14
1.85005e-05
-3.00679e-14
1.91986e-05
5.9992e-14
1.98967e-05
2.05949e-05
-6.21613e-15
4.53785e-06
3.879e-15
5.23599e-06
-1.54225e-14
5.93412e-06
7.0642e-15
6.63225e-06
2.20992e-15
7.33038e-06
-1.4301e-15
8.02851e-06
5.49221e-15
8.72664e-06
-1.32281e-14
9.42478e-06
-6.04655e-15
1.01229e-05
1.74493e-14
1.0821e-05
-2.08883e-14
1.15192e-05
2.14444e-14
1.22173e-05
-1.91381e-14
1.29154e-05
7.31379e-15
1.36136e-05
-3.84889e-14
1.43117e-05
1.29197e-14
1.50098e-05
1.88122e-15
1.5708e-05
-5.72038e-15
1.64061e-05
7.58251e-15
1.71042e-05
-2.76641e-14
1.78024e-05
-1.41034e-14
1.85005e-05
5.31361e-14
1.91986e-05
-3.90892e-14
1.98967e-05
2.05949e-05
8.92493e-15
4.53785e-06
2.28846e-15
5.23599e-06
2.22403e-15
5.93412e-06
-6.61679e-15
6.63225e-06
3.38745e-15
7.33038e-06
3.90616e-15
8.02851e-06
6.41699e-15
8.72664e-06
7.15744e-15
9.42478e-06
-6.81156e-15
1.01229e-05
-6.9846e-15
1.0821e-05
9.0635e-15
1.15192e-05
-6.76133e-15
1.22173e-05
2.88865e-14
1.29154e-05
1.22315e-14
1.36136e-05
-4.80471e-15
1.43117e-05
-2.50293e-14
1.50098e-05
-3.86458e-15
1.5708e-05
-3.61004e-15
1.64061e-05
2.04803e-14
1.71042e-05
2.17543e-14
1.78024e-05
-3.47135e-15
1.85005e-05
-2.90439e-14
1.91986e-05
1.66064e-15
1.98967e-05
2.05949e-05
4.63027e-15
4.53785e-06
-5.79786e-15
5.23599e-06
1.61503e-14
5.93412e-06
5.97392e-15
6.63225e-06
8.5542e-15
7.33038e-06
-4.2249e-15
8.02851e-06
8.1863e-15
8.72664e-06
-7.00036e-15
9.42478e-06
2.42279e-14
1.01229e-05
7.76674e-15
1.0821e-05
2.27637e-14
1.15192e-05
-8.352e-15
1.22173e-05
7.40274e-15
1.29154e-05
-2.82686e-14
1.36136e-05
4.57076e-14
1.43117e-05
8.2221e-15
1.50098e-05
2.82219e-14
1.5708e-05
2.3359e-15
1.64061e-05
6.94182e-15
1.71042e-05
-2.21541e-14
1.78024e-05
3.41061e-14
1.85005e-05
3.73818e-15
1.91986e-05
3.23422e-14
1.98967e-05
2.05949e-05
-6.71526e-15
4.53785e-06
7.30618e-15
5.23599e-06
-1.11012e-14
5.93412e-06
4.24054e-15
6.63225e-06
-1.51029e-14
7.33038e-06
5.20846e-15
8.02851e-06
-1.7014e-14
8.72664e-06
3.93932e-15
9.42478e-06
2.92507e-16
1.01229e-05
-6.61284e-15
1.0821e-05
-1.37084e-14
1.15192e-05
-1.01875e-14
1.22173e-05
-1.82195e-14
1.29154e-05
-1.43707e-14
1.36136e-05
-2.33423e-14
1.43117e-05
2.53415e-14
1.50098e-05
-2.90775e-14
1.5708e-05
7.823e-15
1.64061e-05
-3.54214e-14
1.71042e-05
4.50778e-15
1.78024e-05
-4.23748e-14
1.85005e-05
5.77367e-16
1.91986e-05
8.72391e-15
1.98967e-05
2.05949e-05
-5.98627e-15
4.53785e-06
-2.19217e-16
5.23599e-06
6.43502e-15
5.93412e-06
-6.06457e-15
6.63225e-06
2.09248e-15
7.33038e-06
-1.61773e-14
8.02851e-06
1.88304e-14
8.72664e-06
2.34946e-15
9.42478e-06
-9.17281e-15
1.01229e-05
4.70861e-15
1.0821e-05
-2.16285e-14
1.15192e-05
2.96427e-14
1.22173e-05
9.2868e-15
1.29154e-05
1.89054e-14
1.36136e-05
-4.46912e-15
1.43117e-05
-3.0157e-14
1.50098e-05
2.62133e-14
1.5708e-05
-4.39162e-16
1.64061e-05
2.11677e-14
1.71042e-05
-1.87192e-14
1.78024e-05
3.91599e-15
1.85005e-05
2.91512e-14
1.91986e-05
-1.52316e-14
1.98967e-05
2.05949e-05
8.67579e-15
4.53785e-06
-1.22927e-14
5.23599e-06
-1.88357e-15
5.93412e-06
-8.90272e-15
6.63225e-06
5.10752e-15
7.33038e-06
2.19893e-14
8.02851e-06
-1.22655e-14
8.72664e-06
5.37259e-15
9.42478e-06
-4.45774e-15
1.01229e-05
1.43049e-14
1.0821e-05
7.32413e-15
1.15192e-05
-7.04349e-15
1.22173e-05
-2.39982e-14
1.29154e-05
7.55377e-15
1.36136e-05
-9.80297e-15
1.43117e-05
1.62358e-14
1.50098e-05
-4.0298e-14
1.5708e-05
-1.4448e-14
1.64061e-05
1.36994e-14
1.71042e-05
7.89358e-15
1.78024e-05
3.92431e-14
1.85005e-05
-4.27584e-14
1.91986e-05
8.84791e-15
1.98967e-05
2.05949e-05
-9.3992e-15
4.53785e-06
-5.20799e-16
5.23599e-06
-7.52891e-15
5.93412e-06
4.41144e-15
6.63225e-06
-3.78384e-15
7.33038e-06
-1.33858e-14
8.02851e-06
2.10925e-15
8.72664e-06
-8.52942e-15
9.42478e-06
1.0026e-14
1.01229e-05
-1.86742e-15
1.0821e-05
2.02016e-14
1.15192e-05
7.0103e-15
1.22173e-05
-7.51278e-15
1.29154e-05
-2.36103e-14
1.36136e-05
2.04134e-15
1.43117e-05
-1.48355e-14
1.50098e-05
1.38736e-14
1.5708e-05
-2.39525e-15
1.64061e-05
-2.04152e-14
1.71042e-05
7.01544e-15
1.78024e-05
-1.20734e-14
1.85005e-05
2.59339e-14
1.91986e-05
-1.85125e-15
1.98967e-05
2.05949e-05
1.13358e-14
4.53785e-06
4.80912e-16
5.23599e-06
5.35684e-15
5.93412e-06
1.1303e-14
6.63225e-06
-4.86905e-15
7.33038e-06
1.10893e-15
8.02851e-06
8.15797e-15
8.72664e-06
-1.3045e-14
9.42478e-06
-5.95079e-15
1.01229e-05
1.99483e-15
1.0821e-05
-2.43888e-14
1.15192e-05
-1.6192e-14
1.22173e-05
3.27859e-14
1.29154e-05
3.05103e-15
1.36136e-05
1.444e-14
1.43117e-05
2.69012e-14
1.50098e-05
-7.74036e-15
1.5708e-05
4.43572e-15
1.64061e-05
1.79974e-14
1.71042e-05
-2.18237e-14
1.78024e-05
-8.21794e-15
1.85005e-05
6.07798e-15
1.91986e-05
-3.89257e-14
1.98967e-05
2.05949e-05
1.36942e-16
9.81747e-07
2.42064e-16
1.37445e-06
3.76914e-16
1.76715e-06
-1.33938e-15
2.15984e-06
-3.6817e-15
2.55254e-06
2.94524e-06
5.95115e-15
1.81235e-18
9.81747e-07
-3.88816e-16
1.37445e-06
-2.60424e-15
1.76715e-06
1.94346e-15
2.15984e-06
8.06605e-15
2.55254e-06
2.94524e-06
-9.03002e-15
-1.16486e-16
9.81747e-07
1.86371e-16
1.37445e-06
-1.56249e-15
1.76715e-06
-4.21266e-15
2.15984e-06
-7.49862e-15
2.55254e-06
2.94524e-06
7.71916e-16
8.69103e-17
9.81747e-07
-1.01948e-16
1.37445e-06
2.69306e-15
1.76715e-06
7.44271e-15
2.15984e-06
3.25966e-15
2.55254e-06
2.94524e-06
-2.79821e-15
-4.84093e-17
9.81747e-07
3.94716e-17
1.37445e-06
1.9421e-16
1.76715e-06
-1.8062e-15
2.15984e-06
-4.20856e-15
2.55254e-06
2.94524e-06
5.01307e-15
-1.80149e-16
9.81747e-07
4.29095e-18
1.37445e-06
-1.8479e-15
1.76715e-06
-3.8862e-15
2.15984e-06
3.15682e-15
2.55254e-06
2.94524e-06
4.97992e-16
2.53955e-16
9.81747e-07
2.55413e-16
1.37445e-06
2.0658e-15
1.76715e-06
4.50401e-15
2.15984e-06
-2.31005e-15
2.55254e-06
2.94524e-06
5.40691e-16
2.16306e-17
9.81747e-07
-3.21673e-16
1.37445e-06
-1.149e-15
1.76715e-06
-5.28573e-15
2.15984e-06
-3.7685e-16
2.55254e-06
2.94524e-06
-5.63997e-15
-1.43411e-16
9.81747e-07
1.66425e-16
1.37445e-06
4.19107e-15
1.76715e-06
6.34935e-15
2.15984e-06
-8.0558e-16
2.55254e-06
2.94524e-06
8.39078e-16
-6.88337e-17
9.81747e-07
-9.20448e-17
1.37445e-06
-2.76942e-15
1.76715e-06
-3.68791e-16
2.15984e-06
-1.45081e-15
2.55254e-06
2.94524e-06
-1.76831e-16
1.66316e-16
9.81747e-07
-8.87385e-17
1.37445e-06
5.697e-16
1.76715e-06
-2.10346e-15
2.15984e-06
9.6599e-15
2.55254e-06
2.94524e-06
5.29e-15
-1.77834e-16
9.81747e-07
-2.05462e-17
1.37445e-06
-3.45528e-16
1.76715e-06
-4.17277e-15
2.15984e-06
-2.62254e-15
2.55254e-06
2.94524e-06
5.36929e-15
1.77753e-16
9.81747e-07
2.0436e-17
1.37445e-06
3.45363e-16
1.76715e-06
4.17249e-15
2.15984e-06
2.62238e-15
2.55254e-06
2.94524e-06
-5.36954e-15
-1.66365e-16
9.81747e-07
8.86938e-17
1.37445e-06
-5.6972e-16
1.76715e-06
2.10353e-15
2.15984e-06
-9.6601e-15
2.55254e-06
2.94524e-06
-5.29035e-15
6.87816e-17
9.81747e-07
9.20344e-17
1.37445e-06
2.76931e-15
1.76715e-06
3.68744e-16
2.15984e-06
1.45057e-15
2.55254e-06
2.94524e-06
1.7649e-16
1.4339e-16
9.81747e-07
-1.66407e-16
1.37445e-06
-4.19125e-15
1.76715e-06
-6.3495e-15
2.15984e-06
8.05504e-16
2.55254e-06
2.94524e-06
-8.39375e-16
-2.16732e-17
9.81747e-07
3.21652e-16
1.37445e-06
1.14881e-15
1.76715e-06
5.28553e-15
2.15984e-06
3.76607e-16
2.55254e-06
2.94524e-06
5.63976e-15
-2.54034e-16
9.81747e-07
-2.55463e-16
1.37445e-06
-2.06601e-15
1.76715e-06
-4.50411e-15
2.15984e-06
2.30985e-15
2.55254e-06
2.94524e-06
-5.41089e-16
1.80076e-16
9.81747e-07
-4.34746e-18
1.37445e-06
1.84768e-15
1.76715e-06
3.88618e-15
2.15984e-06
-3.15717e-15
2.55254e-06
2.94524e-06
-4.9842e-16
4.83389e-17
9.81747e-07
-3.95438e-17
1.37445e-06
-1.94397e-16
1.76715e-06
1.80602e-15
2.15984e-06
4.20839e-15
2.55254e-06
2.94524e-06
-5.01349e-15
-8.70054e-17
9.81747e-07
1.01914e-16
1.37445e-06
-2.69326e-15
1.76715e-06
-7.44287e-15
2.15984e-06
-3.25987e-15
2.55254e-06
2.94524e-06
2.79785e-15
1.16416e-16
9.81747e-07
-1.86415e-16
1.37445e-06
1.56234e-15
1.76715e-06
4.21242e-15
2.15984e-06
7.49828e-15
2.55254e-06
2.94524e-06
-7.72548e-16
-1.85219e-18
9.81747e-07
3.88769e-16
1.37445e-06
2.60407e-15
1.76715e-06
-1.94381e-15
2.15984e-06
-8.06638e-15
2.55254e-06
2.94524e-06
9.02949e-15
-1.36964e-16
-2.42111e-16
-3.77033e-16
1.33921e-15
3.68144e-15
-5.95142e-15
-1.13362e-14
4.53785e-06
-4.81558e-16
5.23599e-06
-5.35753e-15
5.93412e-06
-1.13039e-14
6.63225e-06
4.86895e-15
7.33038e-06
-1.10989e-15
8.02851e-06
-8.15918e-15
8.72664e-06
1.30432e-14
9.42478e-06
5.94825e-15
1.01229e-05
-1.99662e-15
1.0821e-05
2.43848e-14
1.15192e-05
1.61881e-14
1.22173e-05
-3.27887e-14
1.29154e-05
-3.05447e-15
1.36136e-05
-1.44436e-14
1.43117e-05
-2.69042e-14
1.50098e-05
7.7381e-15
1.5708e-05
-4.43955e-15
1.64061e-05
-1.80045e-14
1.71042e-05
2.18159e-14
1.78024e-05
8.20667e-15
1.85005e-05
-6.08187e-15
1.91986e-05
3.89123e-14
1.98967e-05
2.05949e-05
9.39859e-15
4.53785e-06
5.19939e-16
5.23599e-06
7.52792e-15
5.93412e-06
-4.41206e-15
6.63225e-06
3.7828e-15
7.33038e-06
1.33841e-14
8.02851e-06
-2.11051e-15
8.72664e-06
8.52685e-15
9.42478e-06
-1.00277e-14
1.01229e-05
1.86423e-15
1.0821e-05
-2.02063e-14
1.15192e-05
-7.01365e-15
1.22173e-05
7.5091e-15
1.29154e-05
2.3609e-14
1.36136e-05
-2.04625e-15
1.43117e-05
1.48301e-14
1.50098e-05
-1.38791e-14
1.5708e-05
2.39007e-15
1.64061e-05
2.04052e-14
1.71042e-05
-7.01977e-15
1.78024e-05
1.20633e-14
1.85005e-05
-2.59461e-14
1.91986e-05
1.84655e-15
1.98967e-05
2.05949e-05
-8.67632e-15
4.53785e-06
1.22921e-14
5.23599e-06
1.8826e-15
5.93412e-06
8.90218e-15
6.63225e-06
-5.10856e-15
7.33038e-06
-2.19926e-14
8.02851e-06
1.22641e-14
8.72664e-06
-5.37498e-15
9.42478e-06
4.45572e-15
1.01229e-05
-1.4307e-14
1.0821e-05
-7.32827e-15
1.15192e-05
7.03928e-15
1.22173e-05
2.39942e-14
1.29154e-05
-7.55706e-15
1.36136e-05
9.79718e-15
1.43117e-05
-1.62372e-14
1.50098e-05
4.02915e-14
1.5708e-05
1.44416e-14
1.64061e-05
-1.37074e-14
1.71042e-05
-7.89967e-15
1.78024e-05
-3.92577e-14
1.85005e-05
4.27455e-14
1.91986e-05
-8.85395e-15
1.98967e-05
2.05949e-05
5.98556e-15
4.53785e-06
2.18687e-16
5.23599e-06
-6.43634e-15
5.93412e-06
6.06296e-15
6.63225e-06
-2.09281e-15
7.33038e-06
1.61755e-14
8.02851e-06
-1.88319e-14
8.72664e-06
-2.3518e-15
9.42478e-06
9.17054e-15
1.01229e-05
-4.71213e-15
1.0821e-05
2.16266e-14
1.15192e-05
-2.96471e-14
1.22173e-05
-9.2917e-15
1.29154e-05
-1.89092e-14
1.36136e-05
4.4648e-15
1.43117e-05
3.01526e-14
1.50098e-05
-2.62197e-14
1.5708e-05
4.34828e-16
1.64061e-05
-2.11724e-14
1.71042e-05
1.8711e-14
1.78024e-05
-3.92723e-15
1.85005e-05
-2.91629e-14
1.91986e-05
1.52318e-14
1.98967e-05
2.05949e-05
6.71481e-15
4.53785e-06
-7.30689e-15
5.23599e-06
1.11006e-14
5.93412e-06
-4.24191e-15
6.63225e-06
1.5101e-14
7.33038e-06
-5.20933e-15
8.02851e-06
1.70124e-14
8.72664e-06
-3.94079e-15
9.42478e-06
-2.9508e-16
1.01229e-05
6.60961e-15
1.0821e-05
1.37045e-14
1.15192e-05
1.01835e-14
1.22173e-05
1.82163e-14
1.29154e-05
1.4367e-14
1.36136e-05
2.33382e-14
1.43117e-05
-2.53457e-14
1.50098e-05
2.90719e-14
1.5708e-05
-7.8277e-15
1.64061e-05
3.54148e-14
1.71042e-05
-4.51522e-15
1.78024e-05
4.23667e-14
1.85005e-05
-5.88134e-16
1.91986e-05
-8.73451e-15
1.98967e-05
2.05949e-05
-4.63047e-15
4.53785e-06
5.79736e-15
5.23599e-06
-1.61507e-14
5.93412e-06
-5.9744e-15
6.63225e-06
-8.55602e-15
7.33038e-06
4.22313e-15
8.02851e-06
-8.18773e-15
8.72664e-06
6.99926e-15
9.42478e-06
-2.42311e-14
1.01229e-05
-7.76926e-15
1.0821e-05
-2.27647e-14
1.15192e-05
8.34947e-15
1.22173e-05
-7.40436e-15
1.29154e-05
2.82631e-14
1.36136e-05
-4.57114e-14
1.43117e-05
-8.2246e-15
1.50098e-05
-2.82283e-14
1.5708e-05
-2.34104e-15
1.64061e-05
-6.94983e-15
1.71042e-05
2.21474e-14
1.78024e-05
-3.41105e-14
1.85005e-05
-3.74298e-15
1.91986e-05
-3.2349e-14
1.98967e-05
2.05949e-05
-8.92521e-15
4.53785e-06
-2.28879e-15
5.23599e-06
-2.22444e-15
5.93412e-06
6.61573e-15
6.63225e-06
-3.38899e-15
7.33038e-06
-3.90788e-15
8.02851e-06
-6.41895e-15
8.72664e-06
-7.15963e-15
9.42478e-06
6.80768e-15
1.01229e-05
6.98251e-15
1.0821e-05
-9.06664e-15
1.15192e-05
6.75875e-15
1.22173e-05
-2.88888e-14
1.29154e-05
-1.22364e-14
1.36136e-05
4.80324e-15
1.43117e-05
2.50223e-14
1.50098e-05
3.85849e-15
1.5708e-05
3.60291e-15
1.64061e-05
-2.04861e-14
1.71042e-05
-2.17643e-14
1.78024e-05
3.46168e-15
1.85005e-05
2.90321e-14
1.91986e-05
-1.66764e-15
1.98967e-05
2.05949e-05
6.21566e-15
4.53785e-06
-3.87934e-15
5.23599e-06
1.54217e-14
5.93412e-06
-7.06554e-15
6.63225e-06
-2.21111e-15
7.33038e-06
1.42922e-15
8.02851e-06
-5.49327e-15
8.72664e-06
1.32252e-14
9.42478e-06
6.04381e-15
1.01229e-05
-1.74511e-14
1.0821e-05
2.08854e-14
1.15192e-05
-2.14467e-14
1.22173e-05
1.91311e-14
1.29154e-05
-7.31806e-15
1.36136e-05
3.84837e-14
1.43117e-05
-1.29273e-14
1.50098e-05
-1.88503e-15
1.5708e-05
5.7169e-15
1.64061e-05
-7.58891e-15
1.71042e-05
2.76552e-14
1.78024e-05
1.40967e-14
1.85005e-05
-5.31416e-14
1.91986e-05
3.9082e-14
1.98967e-05
2.05949e-05
-1.49878e-15
4.53785e-06
1.08968e-14
5.23599e-06
-6.60008e-15
5.93412e-06
7.26446e-15
6.63225e-06
6.17411e-15
7.33038e-06
2.48764e-15
8.02851e-06
-9.64457e-16
8.72664e-06
-4.36544e-15
9.42478e-06
-8.90265e-15
1.01229e-05
1.38621e-14
1.0821e-05
1.06897e-14
1.15192e-05
6.24798e-15
1.22173e-05
-1.29077e-16
1.29154e-05
-3.44273e-15
1.36136e-05
-1.10436e-14
1.43117e-05
-1.77667e-14
1.50098e-05
1.76757e-14
1.5708e-05
9.95057e-15
1.64061e-05
3.329e-15
1.71042e-05
-3.29701e-14
1.78024e-05
-1.04242e-14
1.85005e-05
3.00652e-14
1.91986e-05
-6.00016e-14
1.98967e-05
2.05949e-05
5.17004e-15
4.53785e-06
-7.45554e-15
5.23599e-06
-7.5746e-16
5.93412e-06
6.83834e-15
6.63225e-06
-9.97511e-15
7.33038e-06
-1.66581e-15
8.02851e-06
9.21853e-15
8.72664e-06
-1.34595e-14
9.42478e-06
2.32195e-14
1.01229e-05
1.04717e-14
1.0821e-05
-1.72725e-14
1.15192e-05
-3.02984e-15
1.22173e-05
1.1395e-14
1.29154e-05
-1.98205e-14
1.36136e-05
-4.68173e-15
1.43117e-05
5.03056e-14
1.50098e-05
-2.40479e-14
1.5708e-05
-6.66323e-15
1.64061e-05
1.42597e-14
1.71042e-05
1.64493e-15
1.78024e-05
-6.81732e-15
1.85005e-05
1.44407e-14
1.91986e-05
5.07515e-14
1.98967e-05
2.05949e-05
-6.19771e-15
4.53785e-06
2.79001e-17
5.23599e-06
1.15115e-14
5.93412e-06
-2.06259e-14
6.63225e-06
5.36619e-15
7.33038e-06
1.22061e-15
8.02851e-06
-4.80302e-17
8.72664e-06
1.2393e-14
9.42478e-06
-1.32274e-14
1.01229e-05
-1.88951e-14
1.0821e-05
-4.96467e-15
1.15192e-05
-7.1551e-15
1.22173e-05
-1.48902e-14
1.29154e-05
3.53357e-14
1.36136e-05
-4.20059e-18
1.43117e-05
-4.31396e-14
1.50098e-05
1.35579e-14
1.5708e-05
-2.82613e-14
1.64061e-05
2.45489e-15
1.71042e-05
-1.02443e-14
1.78024e-05
2.37977e-14
1.85005e-05
1.38728e-14
1.91986e-05
-4.55693e-14
1.98967e-05
2.05949e-05
-1.90696e-15
4.53785e-06
1.13032e-15
5.23599e-06
-2.16621e-14
5.93412e-06
9.62347e-15
6.63225e-06
1.51363e-14
7.33038e-06
-1.40666e-14
8.02851e-06
8.09188e-15
8.72664e-06
-2.69599e-14
9.42478e-06
-1.9666e-15
1.01229e-05
2.97163e-14
1.0821e-05
-1.17479e-14
1.15192e-05
1.98642e-14
1.22173e-05
-2.74497e-14
1.29154e-05
-2.06182e-14
1.36136e-05
1.60393e-14
1.43117e-05
-4.61329e-15
1.50098e-05
4.69046e-15
1.5708e-05
4.79645e-14
1.64061e-05
-1.37448e-14
1.71042e-05
3.23675e-14
1.78024e-05
-3.51903e-14
1.85005e-05
-2.49056e-14
1.91986e-05
7.19185e-14
1.98967e-05
2.05949e-05
1.90638e-15
4.53785e-06
-1.13084e-15
5.23599e-06
2.16616e-14
5.93412e-06
-9.62446e-15
6.63225e-06
-1.51381e-14
7.33038e-06
1.40645e-14
8.02851e-06
-8.09403e-15
8.72664e-06
2.69593e-14
9.42478e-06
1.9651e-15
1.01229e-05
-2.97198e-14
1.0821e-05
1.17446e-14
1.15192e-05
-1.98689e-14
1.22173e-05
2.74433e-14
1.29154e-05
2.0613e-14
1.36136e-05
-1.60431e-14
1.43117e-05
4.6117e-15
1.50098e-05
-4.69456e-15
1.5708e-05
-4.79717e-14
1.64061e-05
1.37317e-14
1.71042e-05
-3.23761e-14
1.78024e-05
3.51816e-14
1.85005e-05
2.49024e-14
1.91986e-05
-7.192e-14
1.98967e-05
2.05949e-05
6.19715e-15
4.53785e-06
-2.84165e-17
5.23599e-06
-1.15122e-14
5.93412e-06
2.06262e-14
6.63225e-06
-5.3672e-15
7.33038e-06
-1.22207e-15
8.02851e-06
4.58673e-17
8.72664e-06
-1.23948e-14
9.42478e-06
1.32255e-14
1.01229e-05
1.88926e-14
1.0821e-05
4.96325e-15
1.15192e-05
7.15145e-15
1.22173e-05
1.4884e-14
1.29154e-05
-3.53427e-14
1.36136e-05
-1.78582e-18
1.43117e-05
4.31343e-14
1.50098e-05
-1.35645e-14
1.5708e-05
2.82514e-14
1.64061e-05
-2.46099e-15
1.71042e-05
1.02357e-14
1.78024e-05
-2.38074e-14
1.85005e-05
-1.38805e-14
1.91986e-05
4.55563e-14
1.98967e-05
2.05949e-05
-5.17036e-15
4.53785e-06
7.45546e-15
5.23599e-06
7.56092e-16
5.93412e-06
-6.84011e-15
6.63225e-06
9.97442e-15
7.33038e-06
1.66415e-15
8.02851e-06
-9.22019e-15
8.72664e-06
1.34583e-14
9.42478e-06
-2.32225e-14
1.01229e-05
-1.04738e-14
1.0821e-05
1.72706e-14
1.15192e-05
3.02437e-15
1.22173e-05
-1.13985e-14
1.29154e-05
1.98155e-14
1.36136e-05
4.67473e-15
1.43117e-05
-5.03081e-14
1.50098e-05
2.40438e-14
1.5708e-05
6.65659e-15
1.64061e-05