/*--------------------------------*- C++ -*----------------------------------*\
  =========                 |
  \\      /  F ield         | OpenFOAM: The Open Source CFD Toolbox
   \\    /   O peration     | Website:  https://openfoam.org
    \\  /    A nd           | Version:  11
     \\/     M anipulation  |
\*---------------------------------------------------------------------------*/
FoamFile
{
    format      ascii;
    class       volScalarField;
    location    "1.92";
    object      nut;
}
// * * * * * * * * * * * * * * * * * * * * * * * * * * * * * * * * * * * * * //

dimensions      [0 2 -1 0 0 0 0];

internalField   nonuniform List<scalar> 
2880
(
1.33454e-06
1.24065e-05
4.75461e-05
0.000115376
0.000195836
5.35717e-05
3.80464e-05
8.30074e-05
0.000167147
0.000292529
0.000403527
0.000440098
5.31926e-05
0.000182488
0.000315899
0.000488883
0.000657363
0.00080573
5.92562e-05
0.000277126
0.00045817
0.000670817
0.000887308
0.00108567
6.38882e-05
0.000360658
0.000586694
0.00082999
0.00107783
0.00128793
6.74941e-05
0.000430491
0.000699176
0.000966542
0.00122951
0.00143646
7.03082e-05
0.000486904
0.000794962
0.00108234
0.00134735
0.00154753
7.24771e-05
0.000530867
0.000874287
0.00117753
0.00143935
0.00163176
7.40957e-05
0.000563473
0.000937813
0.00125331
0.00151116
0.00169626
7.52256e-05
0.000585698
0.000986279
0.00131131
0.00156664
0.00174567
7.59074e-05
0.000598131
0.00102039
0.00135311
0.00160823
0.00178293
7.61794e-05
0.000601145
0.00104072
0.00138
0.00163745
0.00181136
7.6152e-05
0.000594363
0.00104766
0.00139291
0.0016555
0.00182993
7.58112e-05
0.000578672
0.00104152
0.0013926
0.00165965
0.00183927
7.51119e-05
0.000555445
0.00102231
0.0013779
0.00164965
0.00183842
7.39988e-05
0.00052573
0.000989821
0.00134688
0.00162392
0.00182487
7.24071e-05
0.000490489
0.000943472
0.00129762
0.00157972
0.00179442
7.02535e-05
0.000450405
0.00088189
0.00122669
0.00151203
0.00174129
6.74233e-05
0.000404733
0.000802454
0.00112944
0.001415
0.00165473
6.37587e-05
0.000351827
0.000701
0.00099977
0.00127783
0.00151843
5.90397e-05
0.000288484
0.000570815
0.000829833
0.00108958
0.00130632
5.29451e-05
0.000208039
0.00040649
0.000611717
0.000835065
0.000977247
3.80501e-05
0.000104292
0.000211572
0.00034658
0.00051216
0.000518219
1.22764e-06
9.71261e-06
3.66696e-05
9.1177e-05
0.000195514
5.86754e-05
0.000827785
0.00136949
0.00152509
0.00167775
0.00192379
0.0023065
0.00276043
0.00321551
0.00361574
0.00392466
0.00416837
0.00435208
0.00446787
0.00450323
0.00445179
0.00432317
0.00414524
0.00395511
0.00378412
0.00364806
0.00354782
0.00347672
0.00342699
0.0033923
0.00117623
0.00153226
0.00164038
0.00176873
0.00200592
0.00238653
0.00283839
0.00328835
0.00367764
0.00397388
0.00420494
0.00437548
0.00447673
0.00449555
0.00442609
0.0042805
0.0040907
0.00389681
0.00373005
0.00360335
0.00351434
0.00345415
0.00341406
0.00338726
0.00137743
0.00165489
0.00174076
0.00185578
0.00208867
0.00246583
0.00291337
0.00335645
0.0037341
0.00401884
0.00423815
0.00439676
0.00448515
0.00448953
0.00440455
0.00424465
0.00404525
0.00384895
0.00368643
0.00356791
0.00348819
0.00343674
0.00340413
0.00338345
0.00151627
0.00174763
0.00182519
0.00193423
0.00216642
0.00254013
0.00298223
0.00341743
0.00378224
0.00405851
0.00426842
0.00441668
0.00449429
0.00448668
0.00438901
0.00421752
0.00401046
0.00381236
0.0036533
0.00354115
0.00346854
0.00342372
0.00339678
0.00338076
0.00162171
0.00181487
0.00189486
0.00200334
0.0022361
0.00260628
0.00304222
0.00346915
0.00382186
0.00408939
0.00429337
0.00443562
0.00450522
0.00448827
0.00438101
0.00420065
0.00398752
0.0037876
0.00363057
0.0035226
0.00345477
0.00341447
0.00339158
0.00337892
0.00170353
0.00186699
0.00195244
0.00206293
0.00229583
0.00266224
0.00309272
0.00351422
0.00385725
0.00411795
0.00431576
0.00445234
0.00451696
0.00449518
0.00438176
0.00419529
0.00397731
0.00377499
0.00361812
0.00351191
0.00344652
0.00340839
0.00338813
0.00337778
0.00176825
0.00190844
0.00199978
0.00211319
0.00234476
0.0027083
0.00313831
0.00355789
0.00389445
0.00415032
0.00434326
0.00447486
0.00453464
0.00450851
0.00439149
0.00420154
0.00398006
0.00377477
0.00361592
0.00350893
0.00344282
0.00340576
0.00338661
0.00337723
0.00182005
0.00194158
0.00203813
0.0021525
0.00238438
0.00274969
0.00318028
0.0035999
0.00393251
0.00418579
0.00437666
0.00450621
0.00456377
0.00453522
0.00441569
0.00422247
0.00399717
0.00378734
0.00362408
0.00351354
0.00344478
0.00340637
0.00338665
0.00337714
0.00186179
0.00196789
0.00206778
0.00218505
0.00241913
0.00278337
0.00321168
0.00362931
0.00395859
0.00421097
0.00440121
0.00453016
0.00458825
0.00456193
0.0044455
0.00425434
0.00402767
0.00381304
0.00364322
0.00352635
0.00345319
0.00341068
0.00338846
0.00337753
0.00189552
0.00198857
0.00209162
0.00220965
0.002441
0.00280064
0.00322643
0.00364403
0.00397377
0.00422852
0.00442158
0.00455383
0.00461608
0.0045952
0.00448494
0.00429838
0.0040719
0.00385216
0.00367381
0.00354789
0.0034675
0.00341898
0.0033922
0.00337843
0.0019226
0.0020043
0.00210777
0.00222413
0.00245047
0.00280461
0.00322825
0.00364776
0.00398189
0.00424195
0.00444029
0.00457805
0.00464681
0.00463406
0.0045329
0.00435379
0.00412952
0.00390497
0.00371659
0.003579
0.00348804
0.00343176
0.00339843
0.00338014
0.0019442
0.00201592
0.00211679
0.00222967
0.00244912
0.00279657
0.00321799
0.00364056
0.00398219
0.00425033
0.00445648
0.00460209
0.00467967
0.00467748
0.00458815
0.0044194
0.00419982
0.00397163
0.00377247
0.00362097
0.00351659
0.00344914
0.00340746
0.00338276
0.0019606
0.00202462
0.00211767
0.00222641
0.00243722
0.00277651
0.00319525
0.00362174
0.00397382
0.00425274
0.00446919
0.00462499
0.00471362
0.00472424
0.00464921
0.00449365
0.00428164
0.00405178
0.00384203
0.00367494
0.00355437
0.00347272
0.00341978
0.00338659
0.00197168
0.00203046
0.00211164
0.00221516
0.00241543
0.00274474
0.00315988
0.00359072
0.00395588
0.00424812
0.00447733
0.00464562
0.00474743
0.00477291
0.00471437
0.00457464
0.00437327
0.0041445
0.00392543
0.00374196
0.00360274
0.00350375
0.00343643
0.00339203
0.00197665
0.00203289
0.0021006
0.00219712
0.00238473
0.00270189
0.00311199
0.00354706
0.00392743
0.00423532
0.00447963
0.00466264
0.00477967
0.00482189
0.00478173
0.00466016
0.00447249
0.00424817
0.0040222
0.00382267
0.00366303
0.0035436
0.00345843
0.00339949
0.00197383
0.00203115
0.00208553
0.00217335
0.00234627
0.00264887
0.00305199
0.00349051
0.00388754
0.00421308
0.00447466
0.00467453
0.00480874
0.00486938
0.00484922
0.00474778
0.00457665
0.00436041
0.0041309
0.00391698
0.00373618
0.00359359
0.00348686
0.00340947
0.00196034
0.00202383
0.00206668
0.00214463
0.00230128
0.00258688
0.0029806
0.0034211
0.00383538
0.00418011
0.00446089
0.00467962
0.00483285
0.00491348
0.00491468
0.00483495
0.00468278
0.00447817
0.00424911
0.00402374
0.00382239
0.00365474
0.00352261
0.0034223
0.00193179
0.0020085
0.00204354
0.00211134
0.0022509
0.00251733
0.00289892
0.00333923
0.00377024
0.0041351
0.0044367
0.00467611
0.00485008
0.00495217
0.0049759
0.00491911
0.00478782
0.00459798
0.00437349
0.00414049
0.0039206
0.00372719
0.00356643
0.00343836
0.00188267
0.00198103
0.00201449
0.00207329
0.00219611
0.00244182
0.00280849
0.00324576
0.00369145
0.0040768
0.00440049
0.00466218
0.0048585
0.00498338
0.0050307
0.0049978
0.00488879
0.00471623
0.00450008
0.00426369
0.00402843
0.00381003
0.00361845
0.00345793
0.00180341
0.00193402
0.00197645
0.00202962
0.00213757
0.00236201
0.00271128
0.00314258
0.00359752
0.00400399
0.00435078
0.00463608
0.00485615
0.00500509
0.00507695
0.00506868
0.0049829
0.00482943
0.00462467
0.0043889
0.0041421
0.00390085
0.0036778
0.00348088
0.00167548
0.00185948
0.00192527
0.00197884
0.00207553
0.00227943
0.00260931
0.00303131
0.00349017
0.0039166
0.00428662
0.00459634
0.00484126
0.00501533
0.00511257
0.00512954
0.00506762
0.00493436
0.00474318
0.00451133
0.00425678
0.00399576
0.0037422
0.00350647
0.00146354
0.00174846
0.00185583
0.00191891
0.00200976
0.00219535
0.00250462
0.00291386
0.00337233
0.00381552
0.00420766
0.00454187
0.00481225
0.00501227
0.00513561
0.00517831
0.00514064
0.00502825
0.00485201
0.00462642
0.00436727
0.00408971
0.00380783
0.00353301
0.00109441
0.00157172
0.00176033
0.00184647
0.0019393
0.00211062
0.00239932
0.00279279
0.00324659
0.00370208
0.00411411
0.00447199
0.0047679
0.0049943
0.00514427
0.00521311
0.00519998
0.00510881
0.00494825
0.00473036
0.00446877
0.00417729
0.00386965
0.00355753
0.000525092
0.00123241
0.00162047
0.00175567
0.00186249
0.00202568
0.00229534
0.00267079
0.00311567
0.00357807
0.00400667
0.00438653
0.00470734
0.00496011
0.00513698
0.00523228
0.00524393
0.00517424
0.00502977
0.00482034
0.0045575
0.00425365
0.00392208
0.00357582
2.11158e-06
5.88427e-06
1.12811e-05
1.79264e-05
2.71487e-05
8.74386e-05
5.02236e-05
6.3751e-05
8.21288e-05
0.000105485
0.000121911
0.000186589
5.7998e-05
9.85724e-05
0.000144081
0.000181046
0.000207345
0.000268719
6.21843e-05
0.000122235
0.000199175
0.000244386
0.000280337
0.000342828
6.49899e-05
0.000150369
0.000251639
0.000302679
0.00034537
0.000408047
6.71072e-05
0.000181877
0.000303239
0.00035802
0.000403869
0.000457415
6.88288e-05
0.000215445
0.000352699
0.000410544
0.000456585
0.000497426
7.02736e-05
0.000249882
0.000398559
0.000460056
0.000503677
0.000531998
7.14978e-05
0.000283892
0.000439791
0.000506474
0.000544854
0.000563096
7.2536e-05
0.000315555
0.000475706
0.000548219
0.00058145
0.000591736
7.34136e-05
0.000342864
0.000506032
0.000584332
0.00061524
0.000619557
7.41534e-05
0.000363741
0.000530436
0.000615083
0.000646929
0.000649013
7.47796e-05
0.000376084
0.000548578
0.000641132
0.000677832
0.000682348
7.50445e-05
0.000381965
0.000560401
0.000662899
0.000708806
0.000720393
7.49743e-05
0.000381866
0.000565469
0.000679896
0.000739056
0.000762465
7.44704e-05
0.000375267
0.000562654
0.000690519
0.00076634
0.00080696
7.34918e-05
0.00036086
0.000550299
0.000692174
0.000786803
0.000849974
7.19581e-05
0.000338304
0.000525983
0.000681351
0.000794783
0.000883401
6.97419e-05
0.000305637
0.000488104
0.000653136
0.000783014
0.000896681
6.6712e-05
0.000261988
0.000434283
0.00060327
0.000742021
0.000876839
6.26949e-05
0.000205858
0.00036199
0.000525968
0.000662138
0.000809753
5.70013e-05
0.000138449
0.000269814
0.000415422
0.000529419
0.000669733
4.49272e-05
6.61991e-05
0.000158346
0.000269809
0.000353337
0.000389929
2.1041e-06
1.71122e-05
5.8038e-05
0.000112668
0.000174823
5.01699e-05
0.000442016
0.00103012
0.00147319
0.00165723
0.00178254
0.00194221
0.00219472
0.00255049
0.00298236
0.00344566
0.00388657
0.0042858
0.00463014
0.00490878
0.0051125
0.00523444
0.00527114
0.00522321
0.00509518
0.00489466
0.0046311
0.00431526
0.0039601
0.00358269
0.000422454
0.000938878
0.00135637
0.00156604
0.00170441
0.0018622
0.00209903
0.00243396
0.00284911
0.00330713
0.00375539
0.00417057
0.00453637
0.00483981
0.00507001
0.00521866
0.00528071
0.00525496
0.00514386
0.00495273
0.00468871
0.00436052
0.00398034
0.00357276
0.000419776
0.000861074
0.00126854
0.0014879
0.00163075
0.00178641
0.00200873
0.00232227
0.00271765
0.00316462
0.0036149
0.00404197
0.00442654
0.00475322
0.00500925
0.00518457
0.00527236
0.00526945
0.00517607
0.00499512
0.00473108
0.00438992
0.00398186
0.00354155
0.000429765
0.000823805
0.00119505
0.00141653
0.00156299
0.00171435
0.00192342
0.00221556
0.00258888
0.00301988
0.00346684
0.00390137
0.00430154
0.00464956
0.00493059
0.0051326
0.00524679
0.0052678
0.00519349
0.00502407
0.00476099
0.00440653
0.0039669
0.00348668
0.000446453
0.000797484
0.00112281
0.00135616
0.00150171
0.00164699
0.00184165
0.00211316
0.00246297
0.00287413
0.00331281
0.00375023
0.00416256
0.00452984
0.00483508
0.00506417
0.00520608
0.00525309
0.00520037
0.0050451
0.00478512
0.00441787
0.00394256
0.00340922
0.0004695
0.000777634
0.00105706
0.001305
0.0014462
0.0015846
0.00176416
0.00201353
0.00233908
0.002728
0.00315404
0.00358986
0.00401082
0.00439526
0.00472425
0.00498159
0.00515402
0.00523127
0.0052056
0.00507071
0.00481992
0.00444395
0.00393022
0.0033204
0.000496252
0.000762273
0.00100274
0.00125982
0.00139569
0.00152669
0.00169113
0.00191788
0.00221732
0.00258193
0.00299144
0.0034213
0.00384721
0.00424665
0.00459928
0.00488722
0.00509532
0.00521116
0.00522455
0.00512614
0.00490538
0.00454725
0.00402559
0.0033161
0.000524853
0.000750691
0.000962496
0.00121598
0.0013467
0.00147206
0.00162226
0.00182653
0.00209875
0.00243674
0.0028259
0.00324527
0.00367206
0.00408391
0.00445996
0.00478157
0.00503287
0.00520105
0.00527612
0.00525079
0.00512309
0.00490881
0.00467009
0.00451239
0.000554366
0.000742487
0.000929983
0.00117019
0.00129992
0.00142003
0.00155715
0.00173957
0.00198403
0.00229331
0.0026583
0.00306233
0.00348519
0.00390583
0.00430402
0.00466167
0.00496388
0.00519978
0.00536295
0.00545166
0.00547073
0.00543698
0.00538513
0.00535617
0.000584904
0.000737669
0.000903747
0.00112695
0.00125571
0.00137032
0.00149538
0.00165698
0.00187371
0.00215256
0.00248972
0.00287328
0.00328657
0.00371099
0.00412814
0.00452148
0.00487767
0.00518741
0.00544547
0.00564995
0.00580192
0.00590621
0.00597272
0.0060122
0.000615949
0.000736568
0.000883612
0.0010865
0.00121381
0.00132275
0.00143656
0.00157867
0.00176822
0.00201554
0.00232161
0.0026795
0.00307689
0.00349872
0.00392943
0.00435472
0.00476256
0.00514324
0.00548856
0.0057906
0.00604172
0.00623586
0.00636626
0.00644871
0.000647168
0.000739757
0.000869736
0.00104942
0.00117433
0.00127718
0.00138043
0.00150454
0.001668
0.0018834
0.00215579
0.00248311
0.00285788
0.0032694
0.00370585
0.00415566
0.00460771
0.00505038
0.00547006
0.00585063
0.00617571
0.00642375
0.00660824
0.00670843
0.000681153
0.000750727
0.000863408
0.00101649
0.00113763
0.00123363
0.00132686
0.00143449
0.00157343
0.00175737
0.00199444
0.00228698
0.00263239
0.00302485
0.00345691
0.00392022
0.00440471
0.00489651
0.00537624
0.00582021
0.00619554
0.00649516
0.00671659
0.00683086
0.000720123
0.000768454
0.00086728
0.000992794
0.00110516
0.00119274
0.00127608
0.00136859
0.00148492
0.00163867
0.00183992
0.00209452
0.0024044
0.00276863
0.0031845
0.00364747
0.00414925
0.00467457
0.00519946
0.00569236
0.00611011
0.00645162
0.00670422
0.00683333
0.000767151
0.000793939
0.000875292
0.000981099
0.00107616
0.0011549
0.00122842
0.00130699
0.00140281
0.00152839
0.00169455
0.00190952
0.00217889
0.0025062
0.00289344
0.00334047
0.003842
0.00438339
0.0049382
0.00546439
0.00592203
0.00629863
0.00657924
0.00672364
0.000826391
0.000841102
0.000893284
0.000974241
0.00105298
0.00112128
0.00118455
0.00125011
0.0013275
0.00142745
0.0015604
0.00173574
0.00196151
0.0022447
0.00259157
0.00300654
0.00348873
0.00402651
0.00459378
0.00514247
0.005631
0.00603968
0.00634542
0.00650854
0.000889238
0.00090313
0.000932909
0.000982527
0.00104045
0.00109462
0.00114611
0.00119887
0.00125956
0.0013366
0.00143919
0.0015766
0.00175795
0.00199239
0.00228929
0.00265728
0.00310071
0.00361335
0.00417285
0.00473229
0.00524002
0.00567748
0.00600512
0.00619216
0.000946056
0.000972271
0.000989998
0.00101196
0.00104379
0.00107917
0.00111602
0.00115511
0.00120005
0.00125667
0.0013322
0.00143481
0.00157337
0.00175767
0.00199864
0.00230788
0.00269471
0.00315987
0.00368791
0.00424261
0.00475348
0.00521412
0.00555956
0.00577565
0.000988178
0.00103579
0.00105298
0.00105611
0.00106415
0.00107853
0.00109797
0.00112168
0.00115089
0.00118885
0.00124054
0.00131231
0.00141177
0.00154792
0.00173161
0.00197546
0.00229217
0.00268949
0.00316231
0.00368707
0.00419639
0.00466416
0.00503427
0.00527104
0.00100507
0.00107831
0.0011045
0.00110226
0.00109518
0.0010916
0.00109359
0.00110109
0.00111432
0.00113478
0.00116537
0.00121044
0.00127571
0.00136851
0.00149815
0.00167632
0.00191652
0.00223114
0.00262499
0.00308715
0.00357417
0.00402567
0.00441479
0.0046659
0.000983482
0.00108648
0.00113024
0.0011344
0.0011238
0.00111027
0.00109914
0.00109238
0.00109078
0.00109522
0.0011073
0.00112967
0.00116618
0.00122211
0.00130453
0.00142276
0.0015886
0.00181531
0.00211402
0.00248748
0.00291398
0.00333958
0.00371938
0.00398385
0.00091266
0.00105653
0.00112037
0.00113998
0.00113626
0.00112256
0.00110583
0.00108994
0.00107697
0.00106821
0.00106491
0.00106871
0.00108202
0.00110825
0.00115221
0.00122043
0.00132162
0.00146665
0.00166739
0.00193261
0.00226367
0.00263403
0.00298381
0.00324603
0.000786589
0.000985604
0.00107552
0.00112009
0.00112491
0.00111851
0.00110409
0.00108591
0.00106699
0.00104943
0.00103477
0.00102441
0.00101997
0.00102356
0.00103816
0.00106787
0.00111827
0.00119669
0.00131205
0.00147245
0.0016873
0.00195512
0.00225204
0.00249293
0.000599097
0.000887172
0.00100003
0.00106203
0.00109391
0.0010962
0.00108784
0.00107414
0.00105535
0.00103443
0.00101341
0.000993829
0.00097707
0.000964595
0.000958211
0.000960308
0.000974112
0.00100379
0.00105461
0.00113218
0.00124055
0.00138545
0.00156706
0.00177137
6.76688e-07
2.90409e-06
9.49427e-06
2.1926e-05
4.28315e-05
9.59271e-05
2.61542e-05
5.69759e-05
0.000101897
0.000155427
0.000221879
0.000308893
0.000152542
0.000135217
0.000219761
0.000311848
0.000411363
0.000516487
0.000170039
0.000204643
0.000323895
0.000445784
0.0005672
0.00068344
0.000183936
0.00026026
0.000409708
0.00055396
0.000689776
0.000812852
0.000193585
0.000301857
0.000478715
0.000639902
0.000785134
0.000911903
4.67772e-05
0.000328515
0.000532912
0.000707025
0.000858798
0.000987801
4.71044e-05
0.000346654
0.000574358
0.000757773
0.000913352
0.00104402
4.73532e-05
0.000360813
0.000605022
0.000794278
0.000951176
0.00108169
4.76041e-05
0.000371583
0.000626219
0.000818078
0.000973924
0.00110229
4.79414e-05
0.000378916
0.000638777
0.000830273
0.000982807
0.00110692
4.82501e-05
0.000382582
0.00064319
0.000831679
0.000978822
0.00109666
4.84001e-05
0.000382358
0.000639763
0.000822946
0.000962891
0.0010727
4.83515e-05
0.000378137
0.000628672
0.000804617
0.000935932
0.00103639
4.80982e-05
0.00036983
0.000609999
0.00077713
0.000898842
0.000989159
4.7695e-05
0.000357394
0.000583683
0.000740819
0.000852429
0.000932329
4.72731e-05
0.000340872
0.000549465
0.000695767
0.000797293
0.000866938
4.70691e-05
0.000320109
0.000506751
0.000641697
0.00073368
0.000793521
0.000196438
0.000295042
0.0004544
0.000577731
0.000661281
0.000712222
0.000188604
0.000256492
0.000390577
0.00050201
0.000578856
0.000622378
0.000176183
0.00020452
0.000312873
0.00041112
0.000483516
0.000524337
0.000159576
0.000138247
0.0002183
0.000299593
0.000368649
0.000415665
2.77712e-05
5.97544e-05
0.000106456
0.000162175
0.000223172
0.000285775
7.60909e-07
3.14776e-06
1.04518e-05
2.67813e-05
5.80148e-05
0.000129891
0.000539738
0.000803273
0.000925172
0.000994446
0.00103362
0.00106244
0.00106589
0.0010561
0.00104148
0.00102222
0.00100021
0.000977002
0.000953856
0.00093194
0.000912461
0.000896741
0.000886674
0.000883914
0.000889303
0.000907146
0.000939662
0.000990083
0.00105548
0.00116444
0.00059255
0.000777285
0.000882483
0.000949659
0.000996255
0.00101855
0.0010392
0.00104301
0.00103527
0.00102152
0.00100394
0.00098353
0.000961296
0.000938144
0.00091497
0.000892702
0.000871775
0.000852867
0.000837566
0.000826062
0.000818219
0.000818051
0.000817593
0.000842296
0.000707967
0.000830695
0.000902637
0.0009552
0.000995194
0.00102367
0.00103853
0.00105146
0.00105394
0.0010519
0.00104535
0.00103573
0.00102423
0.0010119
0.000999534
0.000987765
0.000977308
0.000968669
0.000961864
0.000957148
0.000953223
0.000952912
0.000950457
0.000960558
0.000833533
0.000931875
0.000986283
0.00102177
0.0010504
0.00107485
0.00109351
0.00111058
0.00111955
0.00113165
0.00114075
0.00114852
0.00115602
0.00116458
0.00117545
0.00118969
0.0012073
0.00122773
0.00125109
0.0012761
0.00130107
0.00132547
0.00134914
0.00137936
0.000945262
0.00104069
0.00109688
0.00112963
0.00115267
0.00117295
0.00119184
0.00121098
0.00123008
0.00125207
0.00127667
0.00130508
0.00133766
0.00137407
0.00141395
0.00145673
0.00150213
0.00154933
0.0015972
0.00164464
0.00168835
0.00172637
0.00176133
0.00179577
0.00103833
0.00113522
0.0012009
0.00124509
0.00127521
0.00129676
0.00131623
0.00133667
0.00135964
0.00138615
0.00141632
0.00145119
0.0014904
0.00153351
0.00157992
0.00162883
0.0016791
0.0017295
0.00177894
0.00182633
0.00186891
0.00190547
0.00193962
0.00196845
0.00111286
0.00121385
0.00128862
0.00134425
0.00138651
0.00141946
0.00144669
0.00147156
0.00149699
0.0015246
0.0015567
0.00159412
0.00163607
0.00168142
0.0017297
0.00177984
0.00183061
0.00188079
0.00192952
0.0019744
0.00201569
0.00205462
0.0020894
0.00211456
0.00117049
0.00127883
0.00136238
0.00142728
0.00147877
0.00152185
0.00155894
0.00159274
0.00162575
0.00165939
0.00169381
0.00172827
0.00176455
0.00180362
0.00184462
0.00188668
0.0019281
0.0019667
0.00200199
0.00203192
0.00205383
0.00206782
0.00207232
0.00207079
0.00120866
0.00132285
0.0014166
0.00149403
0.00155789
0.00161038
0.0016545
0.001693
0.00172821
0.00176192
0.00179545
0.00182967
0.00186347
0.00189526
0.00192342
0.00194618
0.001963
0.00197283
0.00197521
0.00196976
0.00195743
0.00194088
0.00192564
0.00191676
0.00122781
0.00134509
0.00144585
0.00153288
0.00160768
0.00167172
0.00172669
0.00177415
0.00181545
0.00185154
0.00188305
0.00191012
0.00193272
0.00195054
0.00196314
0.00196978
0.00196947
0.00196125
0.00194544
0.00192305
0.00189611
0.00186704
0.00183862
0.00181717
0.00122855
0.00134577
0.00144999
0.00154288
0.00162503
0.00169712
0.00175997
0.00181437
0.00186095
0.00190011
0.001932
0.00195654
0.00197341
0.00198214
0.00198246
0.00197467
0.00195769
0.00193208
0.00189774
0.0018558
0.00181012
0.00176536
0.00172474
0.00169692
0.00121195
0.00132645
0.00143116
0.00152641
0.00161198
0.00168802
0.00175485
0.00181279
0.001862
0.00190242
0.00193383
0.00195613
0.00196898
0.00197214
0.00196495
0.00195027
0.0019276
0.00189427
0.00184824
0.00179351
0.00173098
0.00167204
0.00163091
0.00162212
0.00117969
0.0012899
0.00139342
0.00148863
0.00157453
0.00165096
0.00171815
0.00177614
0.00182512
0.00186464
0.00189428
0.00191509
0.00192552
0.00192618
0.00191286
0.0018871
0.00184947
0.00180086
0.00175345
0.00170799
0.00166621
0.00162608
0.00158153
0.001544
0.00113385
0.00123965
0.00134171
0.00143569
0.00151981
0.00159386
0.0016583
0.00171307
0.00175914
0.00179487
0.00181832
0.00182473
0.00181911
0.00180744
0.00179193
0.00177317
0.00175415
0.00173063
0.00169621
0.0016529
0.00159977
0.00153905
0.00147136
0.00142911
0.00107654
0.00117916
0.00128058
0.00137289
0.00145373
0.00152308
0.00158183
0.00162846
0.00165638
0.00167311
0.00168542
0.00169837
0.00171074
0.00171706
0.0017086
0.00168715
0.00165348
0.00160879
0.00155671
0.00149906
0.00143722
0.00137671
0.0013114
0.0012812
0.0010095
0.00111119
0.00121325
0.00130366
0.00137992
0.00144037
0.00147943
0.00150892
0.00154424
0.00157327
0.00159628
0.00160489
0.00159727
0.00157663
0.0015467
0.00150875
0.00146369
0.00141285
0.00135827
0.00130262
0.00124957
0.00120751
0.00117028
0.00120166
0.000933775
0.00103749
0.00114141
0.00122944
0.0012922
0.00133803
0.00138848
0.00142904
0.00145237
0.00146285
0.00145728
0.0014425
0.00141922
0.00138821
0.00135059
0.00130776
0.00126189
0.00121593
0.0011749
0.00114384
0.00113478
0.00115544
0.00120779
0.00136005
0.000849491
0.000958956
0.0010656
0.00114334
0.00120937
0.00126875
0.00130269
0.00132162
0.00132425
0.00131534
0.00129798
0.00127341
0.00124311
0.00120887
0.00117294
0.00113896
0.00111215
0.00110179
0.00111597
0.00115789
0.0012246
0.00131846
0.0014812
0.00169026
0.00075619
0.000876232
0.000980254
0.00107062
0.00113915
0.00117865
0.00120192
0.00120378
0.0011948
0.0011777
0.00115521
0.00112995
0.0011048
0.00108345
0.00107098
0.00107793
0.00110803
0.00115458
0.00121399
0.00130143
0.00142916
0.0016127
0.00186795
0.00206278
0.000653756
0.000787792
0.000905858
0.000999722
0.00105829
0.00109548
0.00110339
0.0010986
0.00108606
0.00107019
0.00105502
0.00104456
0.0010437
0.00105807
0.00109281
0.00114066
0.00120107
0.00128318
0.00139112
0.00153037
0.00171363
0.00195096
0.00220481
0.00242204
0.000545138
0.000705813
0.000839834
0.00093063
0.000996281
0.00101952
0.00102358
0.00101932
0.00101315
0.00101033
0.0010152
0.00103199
0.00106349
0.00110937
0.00116683
0.00123384
0.0013158
0.00141951
0.00155712
0.00174788
0.00200814
0.00230783
0.00262609
0.00290786
0.000442643
0.000629989
0.000779696
0.000889827
0.000946363
0.000963812
0.000969898
0.000973729
0.000981553
0.000997383
0.00102367
0.00106083
0.00110763
0.00116394
0.00123271
0.00132182
0.00144163
0.00160671
0.0018356
0.00214343
0.0024969
0.00285531
0.00318746
0.00347127
0.000363817
0.000589234
0.000763368
0.000875406
0.000914044
0.000931551
0.000944125
0.000959848
0.000982759
0.00101463
0.00105603
0.00110798
0.00117382
0.00125965
0.00137369
0.00152449
0.00172148
0.00197374
0.00228507
0.0026448
0.00299239
0.00333606
0.003644
0.00388904
0.000318319
0.000587499
0.00078374
0.000870894
0.000900175
0.000920134
0.000941981
0.000970487
0.00100769
0.00105514
0.00111557
0.00119372
0.00129543
0.00142586
0.0015888
0.00178737
0.00202534
0.00230814
0.00264102
0.0029978
0.00335373
0.00369851
0.00401109
0.00421757
1.05751e-06
8.0112e-06
3.78286e-05
9.87867e-05
0.000179848
4.90714e-05
3.23586e-05
5.71186e-05
0.000147991
0.000274559
0.000413646
0.00039848
0.000186003
0.000129699
0.000267763
0.000431997
0.00058768
0.000656382
4.80901e-05
0.000199296
0.000366365
0.000544615
0.000693261
0.000777443
5.16111e-05
0.000257904
0.000441555
0.000617347
0.000746253
0.000817131
5.42301e-05
0.000304192
0.000495505
0.000659084
0.000764292
0.000815518
5.61594e-05
0.000338111
0.000531522
0.000679092
0.000763356
0.000797619
5.75349e-05
0.000360775
0.00055297
0.000684475
0.000751441
0.000774356
5.84442e-05
0.000373877
0.000562843
0.000679573
0.000732938
0.00075088
5.89438e-05
0.000378934
0.000563658
0.000667325
0.000711605
0.000728555
5.90654e-05
0.000376985
0.000557328
0.000650324
0.000689253
0.000707215
5.88517e-05
0.000368775
0.00054538
0.000630019
0.000666495
0.000686988
5.83579e-05
0.00035448
0.00052897
0.000607162
0.000643215
0.000667409
5.76403e-05
0.000334414
0.000508964
0.000581975
0.000618847
0.000647495
5.66731e-05
0.000309898
0.000485583
0.000554444
0.000592532
0.000625789
5.5432e-05
0.000282103
0.000458887
0.000524523
0.000563252
0.000601672
5.38782e-05
0.000252268
0.000428669
0.000491857
0.00052988
0.000573818
5.18882e-05
0.000222191
0.000394668
0.000455889
0.000490952
0.000540605
4.894e-05
0.00019556
0.000356424
0.00041571
0.000445373
0.000499748
0.00019974
0.000182971
0.000312011
0.000368923
0.000390165
0.00045
0.000186788
0.000160385
0.000260615
0.000312761
0.000323937
0.000384936
0.000170305
0.000119521
0.000193322
0.000242142
0.000249579
0.000289937
3.01661e-05
5.42793e-05
9.7441e-05
0.000143748
0.000169582
0.000151993
9.45819e-07
2.84546e-06
7.9159e-06
2.0117e-05
5.36862e-05
4.75285e-05
0.000343155
0.000679914
0.000831851
0.000873803
0.000899337
0.00092557
0.000958579
0.00100055
0.00105341
0.00112045
0.00120625
0.00131531
0.00145084
0.00161492
0.00180963
0.00203874
0.00230858
0.00262561
0.00298946
0.00335691
0.00371556
0.00404
0.00433307
0.0044978
0.000629066
0.000799999
0.000853697
0.000880349
0.000908014
0.000943989
0.000989527
0.00104595
0.00111644
0.00120549
0.00131751
0.00145603
0.0016236
0.00182209
0.00205327
0.0023192
0.00262168
0.00296
0.00332704
0.0036796
0.00401135
0.00431287
0.00456332
0.00469299
0.000769117
0.00084142
0.000861845
0.000887162
0.000924463
0.000972721
0.0010315
0.00110346
0.00119348
0.00130684
0.00144801
0.00161978
0.00182286
0.0020561
0.00231742
0.00260487
0.00291702
0.00325121
0.00359952
0.00392831
0.00422438
0.00449137
0.00470205
0.00481213
0.000822843
0.000846821
0.000863977
0.000899542
0.000949547
0.00101018
0.00108255
0.00117176
0.00128425
0.00142554
0.00159869
0.00180375
0.00203808
0.00229738
0.00257687
0.00287234
0.00318031
0.00349661
0.00381339
0.004111
0.00436379
0.00458707
0.0047625
0.00485642
0.00082929
0.000840563
0.000869299
0.000919235
0.000981829
0.00105449
0.00114156
0.0012506
0.0013887
0.00156002
0.00176497
0.00200056
0.00226123
0.00253995
0.0028293
0.00312248
0.00341406
0.0036994
0.0039729
0.00422545
0.00443567
0.00460377
0.0047453
0.00482443
0.000817849
0.000835383
0.000881168
0.000945577
0.00101965
0.00110448
0.00120807
0.00133969
0.00150572
0.00170786
0.00194334
0.00220599
0.00248744
0.00277813
0.00306836
0.00334947
0.00361472
0.00385961
0.00408093
0.00427508
0.00443663
0.00455349
0.00464552
0.00471367
0.000801885
0.000836166
0.00089964
0.000976994
0.00106164
0.00115946
0.00128179
0.00143843
0.00163374
0.00186605
0.00212914
0.00241399
0.00271002
0.00300588
0.00329029
0.00355311
0.00378642
0.00398538
0.00414841
0.00427652
0.00437229
0.00443836
0.0044756
0.00451057
0.000788019
0.000843019
0.000923527
0.00101215
0.00110695
0.00121901
0.0013622
0.00154558
0.00177029
0.0020308
0.0023177
0.00261978
0.00292498
0.00322084
0.00349513
0.00373672
0.00393665
0.00408913
0.0041924
0.00424956
0.00426917
0.00426215
0.00422899
0.00415636
0.000778432
0.000855433
0.000951536
0.00104993
0.00115486
0.00128252
0.00144831
0.0016593
0.00191248
0.00219836
0.00250491
0.00281947
0.00312926
0.0034214
0.00368336
0.00390373
0.00407302
0.00418445
0.00423456
0.00422412
0.00415876
0.00403978
0.00379998
0.00324232
0.000773355
0.000872439
0.000982335
0.00108931
0.00120463
0.00134912
0.00153871
0.00177738
0.0020573
0.0023652
0.00268717
0.00300993
0.00332061
0.00360652
0.00385544
0.0040564
0.00420037
0.00428068
0.00429297
0.00423481
0.00410573
0.0039084
0.00364631
0.003308
0.000772411
0.000893013
0.00101487
0.00112951
0.00125548
0.00141767
0.00163157
0.00189743
0.00220185
0.00252825
0.00286164
0.00318882
0.00349738
0.00377518
0.00401074
0.00419404
0.00431734
0.00437551
0.00436595
0.00428814
0.00414325
0.0039351
0.00367349
0.00339038
0.00077467
0.000916195
0.00104831
0.00116988
0.00130651
0.00148665
0.0017248
0.00201713
0.00234365
0.00268505
0.00302612
0.00335438
0.00365822
0.00392623
0.00414777
0.00431393
0.00441843
0.00445798
0.00443212
0.00434267
0.00419311
0.00398903
0.00373969
0.00346315
0.000778925
0.000940729
0.00108195
0.00120978
0.0013565
0.00155434
0.00181638
0.00213452
0.0024807
0.00283375
0.0031791
0.00350548
0.00380225
0.00405879
0.00426522
0.00441364
0.00449916
0.00452024
0.00447843
0.0043776
0.00422295
0.00402104
0.00378059
0.00351096
0.000784603
0.00096555
0.00111534
0.00124813
0.00140422
0.00162002
0.00190572
0.00224813
0.00261161
0.00297315
0.0033197
0.00364156