/*--------------------------------*- C++ -*----------------------------------*  =========                 |
  \      /  F ield         | OpenFOAM: The Open Source CFD Toolbox
   \    /   O peration     | Website:  https://openfoam.org
    \  /    A nd           | Version:  11
     \/     M anipulation  |
\*---------------------------------------------------------------------------*/
FoamFile
{
    format      ascii;
    class       volScalarField;
    object      U;
}
// * * * * * * * * * * * * * * * * * * * * * * * * * * * * * * * * * * * * * //

dimensions      [0 1 -1 0 0 0 0];

internalField   nonuniform List<scalar> 
2880
( 
0.07286452960307874
0.14335920741190383
0.22313469475325345
0.27029635847658123
0.34073695735353554
0.44779418315495684
0.10225810853212497
0.17355527534366755
0.24606016006841716
0.28927222752475584
0.35175043615043766
0.42150477872228254
0.1159536192852513
0.18398413190024848
0.24973569762071865
0.29202359904819214
0.3558205355686573
0.4304108434908433
0.12820692778285744
0.19149155283412714
0.2504475041038725
0.2924150160403236
0.3591721038800323
0.43939480256531216
0.14114390336326166
0.19774162689863645
0.2502825863598696
0.29254856143710467
0.36063071928461055
0.4435464717190564
0.15353586742794126
0.20265806704772532
0.24890078643576727
0.29223021028092777
0.3603697820378378
0.4431219299835324
0.16484096677376242
0.20616045315793036
0.2475748223180941
0.2914836151517919
0.35868492261471496
0.43954478790878354
0.1739790362748127
0.2085670119267199
0.24650196772262872
0.29055415252534766
0.356552508520985
0.43460259098256443
0.18153547639451525
0.21014439173856914
0.24520785014431443
0.2893938455807059
0.35402092490736825
0.4292548927577039
0.1874488229890789
0.21133584096620345
0.24397481309776944
0.288508042185565
0.3522485495810254
0.4253908693697832
0.1916561107954601
0.21242426947995868
0.24447783350282973
0.28875687896049695
0.3516523425054078
0.4233379123218807
0.19378313535314526
0.2135586174584168
0.2462163044856608
0.2902768967525917
0.3523002858921432
0.422265980013295
0.19412291713109872
0.21439937635895
0.2485009884085589
0.2934037610693752
0.3547959342475439
0.4236433733088156
0.19233951647421443
0.21483153384789375
0.2508957485389841
0.29774991044657806
0.35965893440146834
0.428295340954611
0.18844087836365872
0.21484277856073755
0.25320685253056047
0.30212181178420905
0.36513183015772327
0.4340027744610499
0.18278601099980357
0.21413750301399884
0.2555442991333924
0.30586851487306316
0.3701342339983437
0.43993845516002017
0.17553578720090846
0.2130805655928888
0.25771804560116907
0.3086191151705236
0.3746034681613344
0.44565328439795204
0.16638212490873353
0.21091498489042823
0.2588812551775819
0.31047060639583907
0.3778390076338126
0.45049522412633075
0.15505779674262699
0.20669685841476662
0.2595906593499423
0.311111638942333
0.37939509052400777
0.45398099503733386
0.14162884484631638
0.2001534679610099
0.25896907684921266
0.3096660758462039
0.3791466460223223
0.4549014705318431
0.12652974557420546
0.1911130490110767
0.256771206706037
0.3078715797794704
0.3767898309491705
0.4522719050436326
0.11146871671584137
0.17952263284728318
0.2524266356859937
0.304069901303225
0.3730874872066992
0.4446748890740589
0.09502556643966739
0.16471133913351782
0.2436175220040631
0.29635052399676154
0.370096880757098
0.4336099298416843
0.06458934004331651
0.13123720462114105
0.2174329273910518
0.2703706969644054
0.36330797937571796
0.4319647017604732
0.8251493518960816
0.9067538103507328
0.946749590273666
0.9701775676153519
0.9859944815763086
0.9970613666802738
1.007552391709294
1.0224769460203103
1.039144274023302
1.055670696160696
1.0714373331930458
1.0851916882418948
1.0953362615254987
1.1014267034593501
1.1043485115902918
1.1049605044958664
1.102992727484744
1.0987541573819293
1.0929505211098995
1.0853496669904572
1.0758757272177937
1.0645248924705333
1.0503796218816084
1.0341993495527264
0.7292878036650409
0.8742595831920147
0.9317689073741072
0.9616077173030565
0.9815761773600469
0.9962010267501034
1.0101793444886953
1.0282634055820281
1.0488245496423676
1.067353535228575
1.0830187289997948
1.0950270835257787
1.103509795037691
1.108286686106836
1.1092200652114266
1.1076466701888177
1.10447314275309
1.0994595991445182
1.0924043108037353
1.0842363413680456
1.0741758102114347
1.0623339169085977
1.0476684879347453
1.031431516853567
0.664068728536919
0.8271851048609582
0.9008781593042287
0.9435323902519092
0.9702809558663066
0.9912445519068314
1.010992873050634
1.034541865789011
1.057585219677211
1.0775262863092407
1.093303301485227
1.1036013629889825
1.109520143732057
1.111570692031409
1.1113386613919447
1.1086188601162814
1.1041347064214062
1.0978906913143207
1.090477368621
1.0813847497283096
1.0713501267416066
1.0590523122882487
1.0443272277152198
1.0278106392655368
0.6240352601736746
0.7776257505615067
0.8628649277505712
0.9154882941378155
0.9512173684943362
0.9802359865621925
1.010453110960459
1.0387320364817871
1.0634905252131808
1.084358403147638
1.0992139340976204
1.1079823878378277
1.1118338152182023
1.1124700800786191
1.1106299127008303
1.1067207593231059
1.1013553734365944
1.0946278535920477
1.0866146966214199
1.0777019882095662
1.0667516421036458
1.0549250395109344
1.0396735505742554
1.0236073831908732
0.5964009454143594
0.7347886544361591
0.8244054236536439
0.8847200130253567
0.9285514715490797
0.9665633609491744
1.0042812754023702
1.0383685517586079
1.0666151925717304
1.0869878147727285
1.1001315671271612
1.1076280501501128
1.110176293677539
1.1098452997039858
1.1072494830857984
1.1029475982493484
1.097319434040973
1.0902990403804411
1.082241907617985
1.0730437882686092
1.0627446253659039
1.0507698289810419
1.0355875972215773
1.019452087907286
0.574548555503953
0.6997349154512776
0.7892141189424474
0.8555004607342157
0.9066155722248397
0.9534251127600235
0.9979319173147069
1.0362111774389262
1.0653352598775476
1.0854617743902626
1.0968503293814258
1.1025506961545541
1.1046134088566746
1.1038911418660613
1.1009349844157557
1.096643196767195
1.0907839734437532
1.0846494821882788
1.076474647610991
1.0673534242306484
1.0571561105463196
1.0452560754330493
1.0306248086895005
1.0150922016387918
0.5560394172223296
0.6708767803409296
0.7596358083125238
0.829640733777525
0.8887996976838457
0.9440739242916697
0.9929192230716869
1.0326176286909838
1.062094605740243
1.080111437221343
1.0906425943213807
1.0956668440431652
1.0973771446985832
1.0964547006540244
1.0938182220254582
1.0895160700643955
1.0844758543110786
1.0781117230993125
1.0705108474648957
1.0620070737301082
1.0524943638187794
1.0409891195288248
1.0265683235256136
1.0123698344047236
0.5399602595711853
0.6472330507559072
0.7357849937361045
0.8095525799829875
0.875585542127138
0.9374674816601725
0.9898533715564637
1.0299580595123399
1.0569396357517797
1.07327005902812
1.0829815913312384
1.0873569508769778
1.0889485627807989
1.0882870241858058
1.0860317832522632
1.0821836763813966
1.0779241795390684
1.0721587769721235
1.0652017295390033
1.0568634833203843
1.047884263023137
1.037113271557207
1.0239486578150843
1.0100792840711952
0.5270687441548032
0.6297583602488163
0.7188469012531957
0.7952197442433104
0.868519341605648
0.935093506260657
0.9885058434157445
1.0262133959280992
1.0505294012473931
1.06561456907535
1.0739711608920053
1.0780893662526865
1.07992199181449
1.0794876813976415
1.0778853288346095
1.074771812275026
1.070688300278358
1.0650098186928776
1.0592108088955579
1.0521231524520918
1.0441361908560922
1.03457044337495
1.0219152334474275
1.0091786528060795
0.5184935024121581
0.6179343189977125
0.7078442515561554
0.7892570313964397
0.8682360254770396
0.9360598291774049
0.9877863293734965
1.0220347379592636
1.0436575795685128
1.0569554958390923
1.064927705917223
1.0689846905827975
1.0709499353174967
1.0711650012250442
1.0694917187845394
1.0669302130471228
1.0637263738242972
1.0596831178907469
1.0543860606891835
1.048442400973771
1.0416184038902077
1.0331913994722632
1.0222983054867145
1.0107635666397128
0.5128713310986933
0.6124910405334776
0.7035661742179893
0.7906721540484861
0.8729837439569637
0.940331104740406
0.9875816652481404
1.0178324000579697
1.0371532490576303
1.0492476231836734
1.0564966213198088
1.0607325858587473
1.0627873427976715
1.0633095364388343
1.0622594390080125
1.0606583880427947
1.0578873523850179
1.0547598140209589
1.0504557098533238
1.0460658964727543
1.0406489247544253
1.033795570256181
1.0244127227708213
1.0140545129103191
0.5106661388046099
0.6119151854800795
0.7053298446761073
0.799132741986935
0.8829450304363438
0.946302942278117
0.9884540567109218
1.0149315888216943
1.0316450242135706
1.042352852167933
1.0490013869867796
1.0533609084412516
1.0557990706784537
1.0565579075541625
1.0563019757596512
1.0546691473721568
1.0528567657930286
1.0508558707852889
1.0485931340624814
1.0457153212071315
1.0416033392270978
1.0364228498016532
1.0280792820986266
1.0185035165141754
0.5123763583331679
0.6150476887165661
0.7147648735538686
0.8139915533553512
0.8962804773728946
0.95321407810481
0.9899648034064056
1.012352908628306
1.0271571429546211
1.0369541167541094
1.0437126568405863
1.0477761330893351
1.0506537157072666
1.051295290659566
1.0511067370031877
1.0506791918413823
1.0504733362585066
1.049923056294331
1.0491320653480494
1.0475928436573356
1.0447335047094455
1.0401525286099744
1.03267624269136
1.0237300785551031
0.5172873060760242
0.6220224401737225
0.7299190160858678
0.832664323760677
0.9098508839844105
0.9600854117477214
0.9908474592024461
1.010840588762352
1.0240397086863167
1.0335969431340133
1.0397394819556685
1.0430444909072314
1.045880666445611
1.0479131113253306
1.0493357828582115
1.0503946028627251
1.0503209507044953
1.0504034966040163
1.0510606863278746
1.0505407181563875
1.0487981449237482
1.0450131738415
1.0377476651874362
1.029219838164952
0.5253126757325177
0.6340145323112831
0.7507534908289094
0.8534594383841579
0.9227686257846761
0.9656255129830781
0.9921617825204188
1.010400017945453
1.022285853703283
1.0300171248535324
1.0364195865454242
1.0409142251954409
1.04423897995475
1.0461492896984794
1.0475747625249199
1.050218324796287
1.052156291027226
1.0542771155560446
1.055159371902032
1.0550403589438109
1.053359384766862
1.0496450082968745
1.0428533225914018
1.0339694424899462
0.535617301048033
0.6537342613212733
0.777912634175351
0.8742199279360279
0.9350522809251202
0.9713985084809074
0.9946674435999868
1.0096365283672895
1.0211503779637352
1.029249088900894
1.0346102731169153
1.0385930139018031
1.0421147955281358
1.0455011261833862
1.0495198391279172
1.0527906385034065
1.0551021637240878
1.057407727247297
1.059474055505106
1.0596876245911446
1.0582703717943165
1.0544875469530153
1.0467489282835436
1.037683832490324
0.5475135576743183
0.6797098824204918
0.8084667987954176
0.8954772817785432
0.9462196939636085
0.9763380917011835
0.996889709899983
1.011157857388996
1.020748376712264
1.0275225410629314
1.0330752355897386
1.0381128352964206
1.042763505766338
1.0473320479666075
1.0518407075086398
1.0566048169331757
1.0603470324633768
1.0625730408859169
1.0639859554749072
1.0643948091419293
1.0622626953103926
1.0579344612780188
1.0500093171426623
1.0399137603509463
0.5607847795479426
0.7118745123017468
0.8403677006961104
0.9145030803121347
0.9558030609080653
0.9821139061341032
0.9992465637348307
1.0112581623470767
1.0205396997704557
1.0274551044300255
1.0334687784516152
1.0394723933153578
1.045359286842138
1.0508264675994723
1.0559953902012698
1.0606417527154481
1.0645284241213913
1.0674961889159373
1.068899137940857
1.0685311753479025
1.0661779611755016
1.0606250169773868
1.0515470227326569
1.0407323513034905
0.5778265182157417
0.751314053187931
0.8692012977362731
0.930116703568248
0.9642513298728198
0.9857623227195762
1.000765591021516
1.0119530151542666
1.0204989786775602
1.0276534339524817
1.0338914153335432
1.04100316902412
1.0476620986295986
1.0548134818437007
1.0611428776508074
1.0661333705908995
1.0692158480329519
1.0723036766840255
1.073435262727819
1.07246327137451
1.0686377183436782
1.0623441592052534
1.0522400655333957
1.0400037778442408
0.6004358396476527
0.7939677281909251
0.8942558472303385
0.9434185540170988
0.9712523216588674
0.9891545165141856
1.001895961626264
1.0120233357877022
1.020006914585791
1.0273717556878665
1.036201331381555
1.0446790753597643
1.0528789775993197
1.0600834476714955
1.0659245542870066
1.0714145591210618
1.074597895752653
1.0765945474156016
1.076934254720603
1.0746440896094085
1.0700658866645751
1.0626965714297385
1.0522802513409126
1.0392274121816656
0.6335762862949406
0.8351575038259103
0.9152587809255521
0.9536649760490918
0.9761483351561772
0.9916285718600487
1.0029343913600048
1.011876928537941
1.020909075755022
1.0304124553114418
1.0398081427804857
1.0491309182185904
1.0579886443972408
1.065692918558078
1.0717220720943386
1.0758308693763445
1.0792394778250256
1.0805189638223796
1.0798290376738282
1.0762509010958472
1.0706803614854141
1.0622223707670877
1.0510171704791853
1.0372221243887698
0.6844309172959532
0.8691759008047276
0.931091625909109
0.9612720400517952
0.9797303267728167
0.9926635661457964
1.003091136352311
1.0125058252813706
1.021952005019064
1.0321718664234936
1.0440445588976093
1.0547364248049174
1.0635655406903004
1.0711124916299983
1.0770589041714624
1.0810225397475086
1.0836726808612833
1.083598229093692
1.0816665173816467
1.077114017016071
1.0707271299187084
1.0613454857294935
1.0499828020955548
1.0359230138129611
0.7536131331578234
0.8941041511952759
0.9404861587360804
0.9652430813061605
0.9812711104208148
0.9929088015988862
1.0030213314551917
1.0125302326902241
1.0239269792883383
1.0367072020581733
1.0489946686366733
1.0605869194049697
1.0706235287717447
1.0776651214433208
1.0822276348908426
1.0857420420287067
1.086829784753296
1.0856092039531904
1.0826922963264354
1.077227094503641
1.070056958054682
1.0603820611219152
1.0480280551382897
1.0338006942648799
0.8293268813084635
0.9069415790812085
0.9425311761216696
0.9656132856799902
0.9806959016043306
0.9923980692519692
1.0020140390623837
1.014320495325676
1.0277897998207024
1.0418970835704655
1.055156338269705
1.06650672747751
1.0764028151823215
1.0832402486845039
1.0873371987731466
1.0898013643011992
1.0896835733456478
1.0872012808070322
1.0831798686412486
1.0769758896676298
1.069387477616784
1.0593793290386917
1.0465354084188152
1.0322426377080185
0.07138330350012807
0.14282729624481524
0.22400514836847463
0.27422886212238223
0.3433817796816627
0.4520646820855997
0.101713110418237
0.17393922324638508
0.2474014636662868
0.29189103532692495
0.3528198278626633
0.4212864421440901
0.11594199264938163
0.18496077575479367
0.2515198364500026
0.29430740823777846
0.35671073766966777
0.4281289627392545
0.1284055440530733
0.19308708927278648
0.2523936652307619
0.29446638286610216
0.35815797945392797
0.4351640105565469
0.14139905655719168
0.19956547531818258
0.251889278747692
0.2939324443311066
0.3581939906579492
0.4367217095287276
0.15393551790562476
0.2044118966857736
0.2512846531789265
0.29313500062682013
0.3571337276131901
0.43466700308842837
0.16553697339560328
0.207771660627269
0.24994172079275864
0.29191638515995794
0.3548621113176847
0.43007685849640936
0.17504866479237782
0.21059139093137133
0.24821865004074406
0.29029594477508674
0.35187511533908616
0.424073273424772
0.18272216401681257
0.21264995764672298
0.24752458876195987
0.2889738150261952
0.3489219534778383
0.4180024692252791
0.18876514852068507
0.21413434089319325
0.24745992565912378
0.28850651980693093
0.34689219989243536
0.41379811984229686
0.19301181893909047
0.21532494114049483
0.24800611460856353
0.2887632704313486
0.34643669655900955
0.4123279401128252
0.1951551351724077
0.21625328289395046
0.2492780593222522
0.29015648944877115
0.34793305671099833
0.4127959314140264
0.19528413147425136
0.2169168184017916
0.25125006654016235
0.29353312650767216
0.351421402300017
0.415162799315997
0.19336877142298034
0.2172525592528988
0.25363070091766754
0.2978863514077459
0.35640583489522637
0.4200104466068555
0.1894350374729143
0.21700965105995781
0.25603815040118805
0.30235012915265524
0.36206821085012103
0.42605379115797715
0.18366347377630632
0.21616805082507187
0.2580346995302671
0.3065440457454242
0.3675910185916063
0.4326017497984719
0.17634991021821395
0.2145442727805676
0.25934389473772923
0.30985213723857186
0.37249395142753217
0.4390155470562753
0.16704347826304933
0.21176051279458089
0.26072435402545435
0.31176972414774196
0.37639625529679294
0.4447115366545079
0.15565403866938954
0.20748124152095565
0.2608447607115544
0.3121640360948538
0.378817567709067
0.44912185916369884
0.14221766352544843
0.2009325397380339
0.2598408086859543
0.3114600536075504
0.3791114875388608
0.4512150362336465
0.12651333853894353
0.19134352249260747
0.2572746935437867
0.3089668566916516
0.37759669245380795
0.4502115439793018
0.11112722032664224
0.1792528820914473
0.2519215708294043
0.30477261048667587
0.37422324693220427
0.4448357723877867
0.0943947038614535
0.1640738294030537
0.24269460191733608
0.2964938961777628
0.37029077447088443
0.43655131846618594
0.06326183129659067
0.1300038612389221
0.21502524012990248
0.26980258000664725
0.360955956602118
0.43755168684611695
0.8136560296729165
0.896979485322957
0.9364293823338985
0.9613379851674381
0.9769263543108383
0.9898986733732064
1.002169443309877
1.0155102786331365
1.0315760327574837
1.0478435634961913
1.0621589716903328
1.0735539506784624
1.0818768561172478
1.0881130656327922
1.0919485626824423
1.092744260904147
1.0913722757154145
1.087838847643864
1.0831932113041018
1.0763527395507124
1.0681781694299213
1.0579194390792626
1.0449538700394514
1.0305256210010232
0.7152517579671559
0.8605506803207642
0.9185683448880139
0.9503532156616099
0.9700538276738866
0.9852439071015847
1.0004165659707687
1.0186541561915379
1.0366598884875768
1.0535504908966502
1.0686532455359259
1.0793514780270859
1.0875790904413447
1.092507362534264
1.0944180039264126
1.0942996400838452
1.0919528363688629
1.0877632367802803
1.0819317170881106
1.075100541485629
1.0663340940099606
1.0556326401769516
1.0428626706333974
1.028318440813154
0.6508251970058039
0.8112991814023272
0.8866634202576833
0.9292634741481757
0.9566501701181543
0.9765724549038848
0.9980506616905349
1.0200533996674759
1.040862956006151
1.058915156033402
1.0734605097602967
1.0839234030595297
1.0909017297160963
1.094535095346517
1.0955392983365688
1.0942851069920132
1.0910237989472678
1.0863729996272076
1.0802185360526528
1.0731768735218574
1.064284097685937
1.0534907804491733
1.0404809442474097
1.0264753892822223
0.6103272054414316
0.7619763617387683
0.847044243788636
0.8999529265340994
0.9356065377456522
0.9647066039153303
0.9919367917744116
1.0185836272490392
1.0425702307215148
1.0621713071390466
1.0764186000899945
1.0862683349817663
1.0918912649742474
1.0943235250887753
1.094501119381709
1.092192604417918
1.0885106634873378
1.0837037626418153
1.0776545517974634
1.070147464406227
1.060701098694615
1.050436557458488
1.0372616484961041
1.0229798055573278
0.5819430390254009
0.7188975574296036
0.808020890860142
0.8681915809755546
0.911854371573271
0.9485041079240286
0.9838285491846855
1.0149876578226005
1.0409816023006577
1.061309482393528
1.0756109890327759
1.0843512565932802
1.0890352761577538
1.0906558568034315
1.0899248195651652
1.087627788423173
1.0837660589009475
1.07884200218923
1.072685028377573
1.065326253110905
1.0567565118324895
1.0463856395055564
1.0331419074898311
1.0196715095691833
0.559138518796434
0.6819640300027586
0.7725979100210898
0.8384009458747517
0.8884635649738555
0.9333787894742808
0.9740866414947201
1.0094063539570586
1.0372616509519952
1.0579812907296378
1.071172846152725
1.0790864624442795
1.0830772073781287
1.0844010687640793
1.0836104587982893
1.0813699161914105
1.0779216535737295
1.0733892691472895
1.0673397635117146
1.060145823234613
1.0519371288515154
1.0422749216675764
1.0294586055097523
1.0162301264325888
0.540009720996383
0.6525641497367854
0.7417803372013206
0.8119485142081135
0.8689289789604394
0.9204737465524031
0.9663604703426321
1.0043158995372852
1.032829539176476
1.052007781967568
1.0642521463066013
1.0714838334220853
1.07537689788821
1.0764152830556626
1.075999078582809
1.0742563090686192
1.070892407575287
1.066519285309555
1.0609919969084791
1.0545372417984047
1.0468550614468886
1.0372362397700303
1.0251908763835798
1.0127813026401757
0.5234882744545647
0.6287263669913543
0.7170366673865011
0.790293086259941
0.8535472062880707
0.9121266117180187
0.9613296267311313
1.0003837099986272
1.0276792885566146
1.045317715198476
1.0562588681901888
1.0630696241332764
1.0662993236885474
1.0680278085900095
1.0676953518638568
1.0663087243531078
1.0634554507122198
1.0600036015052734
1.0551382732131094
1.0492332514696805
1.041931980981612
1.0335514264988022
1.021784505924466
1.0098812406519442
0.5096631991489152
0.6095303982016581
0.6983861477337278
0.7742825019556467
0.8445764645990732
0.9082101153286107
0.9594272588925115
0.9973467062463203
1.022308363283287
1.0383697396930083
1.0483618171153934
1.0546866695992907
1.0580255167191384
1.059861123207686
1.0602143026008952
1.0593364769314197
1.0574389782534952
1.0542616381942347
1.0499593022922744
1.0445125625477458
1.0383249480336691
1.0299397043686978
1.0191018408037724
1.0079288101270996
0.5008177034315773
0.5974268315880297
0.6860303021120298
0.7651534212154589
0.8423413630157923
0.9092854190097609
0.960281282699681
0.9953318798890894
1.017721058211989
1.0323097115681763
1.0419026399030114
1.0477634907114963
1.0516746391581813
1.0534203739307733
1.0541423790051412
1.053553427122951
1.0518105004792822
1.0490237616055458
1.045660821662219
1.0410950612588907
1.035144516843171
1.0281826918916457
1.018022813504131
1.0075899571069034
0.4967594363244446
0.5922604898568401
0.6808125047850011
0.7657494401041998
0.8469650106666242
0.9141946047556302
0.9620459181617106
0.9938004567369292
1.0139581502461248
1.0274361553805844
1.0361966424043922
1.0421657266556303
1.0462428956627992
1.0485331457359346
1.0490816515470742
1.0493222454297417
1.04809421728446
1.0461828955962065
1.0433342705891815
1.0392437408961446
1.0343790719471195
1.0283804183627063
1.0192649118314727
1.0092457986029346
0.49564546100600854
0.5918317174548088
0.6830252158412308
0.7749528116600211
0.8581108795750445
0.9219159473001755
0.9652440481672803
0.9930596834780806
1.0115830150574048
1.0240772382466878
1.0326017707682322
1.0385613453885152
1.042772489940979
1.045270624501194
1.047001851703266
1.0469545282541644
1.046056160197946
1.0445905077941173
1.0424013582678204
1.0396330111007428
1.035571115925559
1.030353369211341
1.0219317092309435
1.0124193493897498
0.49675641032183043
0.5947135368091618
0.6912566070023869
0.7899622824266334
0.8719251622027356
0.9308977686640683
0.969067214683975
0.9935131528213477
1.0104342469543173
1.0229181556331164
1.0312360583740272
1.0371246392324982
1.0413120388143413
1.0441571821491236
1.0460691386610228
1.0467691260626895
1.0460681811808754
1.044813349279156
1.0436033590752944
1.0421871301049865
1.0387864979428476
1.034190368016427
1.0261523568892865
1.0170665270575716
0.5026943132124225
0.6014482797423107
0.7059930066721516
0.8083944935821356
0.8869809790866976
0.9389847711787502
0.9725055218685328
0.9953196990740172
1.011070699366935
1.0222077699259149
1.0307061378346303
1.0369904576154505
1.0419809195596836
1.045078584432048
1.046657426758531
1.0473168921145313
1.0481680994382672
1.0489889263026202
1.048219473771983
1.0469493392877622
1.0441252159922727
1.039356470908737
1.0311662420135232
1.0217575311983027
0.5114181015009668
0.6138953978025481
0.7265994685605811
0.8289355440781074
0.9007696583108545
0.94593334417707
0.9757904943144213
0.9963166410632387
1.0112895203222894
1.0229674268393456
1.032118896190917
1.0382275098677325
1.043025270710882
1.046650691577814
1.0494458590139808
1.0518215117593788
1.0532768403965942
1.0539935228259563
1.0540706210868573
1.053066686654509
1.0503396202629902
1.0455216997574535
1.0372134006927496
1.027303340381361
0.5216794175100091
0.6328896638827859
0.7535602916700128
0.850927301349952
0.9123480809541596
0.9521060688403069
0.9783220943245661
0.9977804538108954
1.0125839391779488
1.0238737575236718
1.0325681201369739
1.0403810404462142
1.0461159835957679
1.0501467106829299
1.053692271576494
1.0565027133933391
1.0593903893602974
1.0610943910647497
1.061098159955396
1.0599844451115479
1.0569300105369246
1.0518077085474957
1.0430517130461545
1.032525027839456
0.5332498391486015
0.6591204410519121
0.7856280601331821
0.8715583831866461
0.9236540105531403
0.9570118621531599
0.9809936802117948
0.999224345145832
1.013531753355029
1.025760425410493
1.0352452780589438
1.0425071188402746
1.048833643356035
1.0544364472082015
1.059883023351306
1.0633766140139114
1.0660677784283885
1.0678932786713937
1.0684285191979297
1.0668045522246634
1.0637103805303045
1.0576761331474496
1.048160549659179
1.0373805263237499
0.5470856924126497
0.692528515946212
0.8180300098053549
0.8914221586893939
0.93486163634411
0.9629452360766583
0.9836919228528929
1.0014772260375455
1.0155579415366198
1.0270248794065797
1.0374018568106325
1.0456196703447334
1.0532207815094714
1.0599733999440992
1.0658034678710302
1.0704787317597717
1.0741072322631942
1.0754977024137047
1.0753758965735523
1.0739262766813524
1.0693923855862038
1.063021178841045
1.052806867416148
1.0411668446337967
0.5649630172921211
0.7329957765942695
0.8485033806784263
0.909772927111192
0.9448055240202266
0.9692392460638176
0.9875749677017737
1.0034850378044962
1.0175193769570647
1.0297177758431149
1.0401922498602632
1.0497105970256433
1.0588351484299274
1.0665790635528258
1.0724490435628613
1.0766729898916187
1.0808735027474654
1.0821969664243034
1.0819573754241074
1.0795069149281074
1.0747277031536246
1.0672467870384583
1.0563576103739345
1.0435012480796029
0.5887884621467845
0.7777894375444756
0.8765125212753434
0.9253392212843895
0.9547021080821733
0.9757551368008138
0.9928486504618819
1.0077494533424798
1.0205280488962616
1.0330425833322952
1.044116703546145
1.0549137479419382
1.0640134514041537
1.0726648368727245
1.079051901530484
1.0839132489079937
1.0866920588584852
1.0879718002660794
1.0869169804232885
1.083882185131009
1.0782630281561492
1.0700020770931216
1.0585816920329705
1.0451229982903527
0.6237942634034953
0.8219242998175227
0.9007138797503408
0.9389505184766808
0.963983126450861
0.9827793671431347
0.9986244365116318
1.0127756002916533
1.0252644665383044
1.0361598775358474
1.0490775265648122
1.0606088868482182
1.0705137739769557
1.078241049506237
1.084570038760246
1.0894886388084895
1.0920395578249962
1.0923654631969484
1.0907699728585452
1.0866680630332095
1.0803303960662407
1.0713728891699896
1.0594067533182194
1.045118287419377
0.677345527381166
0.859951453355803
0.9201528203333011
0.9512132011043603
0.9727325931146636
0.9898636284008394
1.004838033247861
1.018394545289238
1.031342516626535
1.0435626746953075
1.055022088803506
1.0661716637853627
1.0765833020787903
1.0846355575445035
1.0903256713186227
1.094481412256139
1.0958571578825216
1.095434531538062
1.0926147624247968
1.0879658497304079
1.0808998900292077
1.0715222586332596
1.0585411825336761
1.0441923160988722
0.750162859934836
0.8885202866562947
0.9337757424962868
0.9607582628537666
0.9802990854017859
0.9969129590797275
1.0118410803357598
1.0247538993203626
1.0372643296434585
1.0506368099348367
1.063189422190661
1.073362044760947
1.0821337108162832
1.0899267340395622
1.0952497151760447
1.0979376855494707
1.0986238520922096
1.0971395355700633
1.0934591208451934
1.0880269929321322
1.080138518642069
1.070184162481567
1.0571318658058553
1.0421482416487786
0.8297631146756074
0.9045339583363216
0.9416242348376025
0.9672906479932274
0.9873690008447155
1.0032275227578986
1.0181081115783062
1.0310500314400304
1.0446713043247795
1.0582850373765094
1.0709447059514838
1.081527066305857
1.0889282786258276
1.0946727240560288
1.098623477328605
1.1003426134597118
1.1000510926107638
1.0972383158271597
1.0929969813152967
1.0864634363143593
1.0782893444410246
1.0678290423179781
1.0545252192625827
1.0386623302490678
0.07654080713783364
0.15559050393336898
0.24022431726653687
0.28807502257841405
0.35703860132632864
0.45450198667645736
0.10874796762882744
0.18782713937638526
0.26233782196305516
0.3052123319209583
0.3650775237091091
0.428286321718471
0.1246734328860702
0.1983931418682554
0.2647577707534276
0.3059606596149767
0.3663544964042861
0.4355996032577262
0.1386514319473794
0.20558657745759273
0.26425068445678845
0.3041789677200062
0.3673961707432693
0.44333587421931314
0.1528164165646498
0.21147390454608897
0.2627368912672972
0.30256928853768705
0.367060064519206
0.4465292619684329
0.16621272308450555
0.2161033366205015
0.2601887056708282
0.3004820648088566
0.36517434314249575
0.444979856540395
0.17823745238567862
0.21906288162006973
0.2579078367632537
0.298271782847185
0.3620927019141857
0.4404525742408028
0.18822776486176027
0.22095711510380223
0.2558944848808754
0.2961764832359092
0.358434368412203
0.43443345345635925
0.1964655235898534
0.2221892588683344
0.25379485401980334
0.2939572767779524
0.3547905000572523
0.4275635231542364
0.2029812818839288
0.22325824564665647
0.25196372550188495
0.2921076410133069
0.35152332890379484
0.4224731629397369
0.20759345165247153
0.224136584822331
0.25218899762286484
0.2915374474132792
0.3501389194423614
0.42061336821251283
0.20997740775821164
0.22504227763122603
0.25343248919637895
0.29274368794948147
0.35059977849381546
0.4204662752252623
0.21028443288758775
0.2258151371096479
0.25550415005241334
0.2959791755598906
0.3539807807655207
0.42363836700026297
0.20827767671614722
0.22615243612995906
0.25789565857840613
0.30052590586469946
0.36004645955762565
0.429623694917933
0.2039285905315244
0.2260136889822812
0.260535659588742
0.30538988809805895
0.36629414774318375
0.4368176607261341
0.19760716488875896
0.22556986200773133
0.2634390719749918
0.3099492095858759
0.3725633585313843
0.44418896829880194
0.18948816943317834
0.22454646255023847
0.2661749257695845
0.31367266261890053
0.3779740776005403
0.4512133198254788
0.1794270494283792
0.2225075723076807
0.26799481218892407
0.31677404034731527
0.3823564932473102