/*--------------------------------*- C++ -*----------------------------------*\
  =========                 |
  \\      /  F ield         | OpenFOAM: The Open Source CFD Toolbox
   \\    /   O peration     | Website:  https://openfoam.org
    \\  /    A nd           | Version:  11
     \\/     M anipulation  |
\*---------------------------------------------------------------------------*/
FoamFile
{
    format      ascii;
    class       volScalarField;
    location    "1.28";
    object      epsilon;
}
// * * * * * * * * * * * * * * * * * * * * * * * * * * * * * * * * * * * * * //

dimensions      [0 2 -3 0 0 0 0];

internalField   nonuniform List<scalar> 
2880
(
2.07699
2.90881
3.55231
3.592
3.08709
3.20146
0.906691
1.31427
1.69392
1.81521
1.76165
2.11321
0.242152
1.05865
1.36397
1.45005
1.47412
1.7767
0.263928
1.03316
1.27525
1.33818
1.37725
1.61582
0.280162
1.08675
1.25696
1.30754
1.34927
1.53516
1.28644
1.17137
1.26684
1.30802
1.3503
1.50086
1.46314
1.23183
1.2899
1.32664
1.36966
1.49335
1.60701
1.27484
1.31643
1.35419
1.39939
1.50549
1.71844
1.30365
1.34319
1.38658
1.43573
1.53148
1.80038
1.32105
1.36982
1.42231
1.47677
1.56682
1.85548
1.33081
1.39711
1.46116
1.52143
1.60863
1.88671
1.33627
1.42623
1.50363
1.56958
1.65517
1.89375
1.33981
1.45824
1.55058
1.62155
1.70522
1.87225
1.34126
1.49434
1.60327
1.67817
1.75819
1.81676
1.34031
1.53588
1.66337
1.74088
1.81427
1.72752
1.33683
1.58429
1.73324
1.8123
1.87502
1.60614
1.33086
1.64102
1.81658
1.89701
1.94417
1.45601
1.32223
1.70705
1.91993
2.00296
2.02925
1.28192
1.31053
1.78312
2.05184
2.14472
2.14678
0.280383
1.29539
1.87018
2.22814
2.35251
2.33125
0.263501
1.28019
1.97207
2.4801
2.68174
2.6638
0.239019
1.28176
2.10923
2.87151
3.26454
3.39215
0.884125
1.37785
2.4149
3.60392
4.42697
5.50872
1.94244
2.12968
3.68495
5.64614
6.45526
6.17378
5.2207
4.22943
3.26265
2.57262
1.99551
1.49787
1.08408
0.758838
0.51733
0.347014
0.231843
0.156199
0.107252
0.0756429
0.0550756
0.0415313
0.032526
0.0265582
0.0227358
0.0205295
0.0196103
0.0197749
0.0208931
0.0229122
5.18132
4.82928
3.73321
2.90739
2.30882
1.80541
1.36807
1.00136
0.71019
0.491553
0.335433
0.228376
0.156978
0.110042
0.0792726
0.0590109
0.0456109
0.0368102
0.0312355
0.0280486
0.0267058
0.0268564
0.0282024
0.0306378
4.15457
5.25232
4.47906
3.35292
2.62905
2.09799
1.65211
1.26473
0.937776
0.675359
0.475652
0.330828
0.229814
0.16124
0.115378
0.08488
0.0646531
0.0513781
0.042962
0.0380845
0.0358637
0.035757
0.0371839
0.0400331
3.00638
5.14026
4.97811
4.05716
3.06358
2.41246
1.93282
1.53288
1.18617
0.891928
0.653138
0.468696
0.332583
0.23582
0.16886
0.123312
0.0926903
0.0724131
0.0594169
0.0516847
0.0478302
0.0469852
0.0483264
0.051493
2.37873
4.45247
5.12031
4.70658
3.69132
2.82493
2.23802
1.80232
1.44092
1.12815
0.861124
0.641813
0.469636
0.340123
0.246159
0.179864
0.13409
0.103158
0.082923
0.0704799
0.0637436
0.0613576
0.0622861
0.065567
2.05756
3.55698
4.85937
4.92127
4.42101
3.41576
2.63965
2.10138
1.70106
1.37158
1.08717
0.842941
0.639799
0.477531
0.352996
0.260749
0.194461
0.148165
0.116928
0.0969586
0.0853557
0.0800772
0.0800196
0.0830086
1.88363
2.90434
4.18721
4.83385
4.72214
4.12496
3.2085
2.49557
1.99412
1.62256
1.31993
1.05965
0.834869
0.64545
0.491425
0.370787
0.279602
0.21299
0.166113
0.13473
0.115308
0.105062
0.102482
0.105001
1.79663
2.502
3.51602
4.41955
4.70541
4.50592
3.8769
3.04132
2.38004
1.90863
1.56095
1.28114
1.04179
0.834102
0.656863
0.510185
0.392993
0.302695
0.23577
0.188461
0.157234
0.138907
0.131528
0.132864
1.76292
2.27381
3.03196
3.85953
4.46232
4.54115
4.30453
3.67672
2.9056
2.286
1.83899
1.51102
1.25075
1.02991
0.837779
0.671967
0.53246
0.418883
0.32978
0.262868
0.215518
0.185076
0.169594
0.168281
1.75937
2.15514
2.7291
3.40717
4.03712
4.40709
4.39312
4.12738
3.49654
2.78775
2.20903
1.78368
1.47125
1.22654
1.02142
0.843389
0.68867
0.556682
0.447373
0.360164
0.293884
0.247342
0.219887
0.212987
1.77745
2.10296
2.55531
3.10055
3.66195
4.11864
4.32489
4.26073
3.95577
3.33999
2.69548
2.15318
1.74432
1.44193
1.20792
1.01516
0.849505
0.705418
0.581371
0.477125
0.392625
0.327962
0.284698
0.268741
1.8086
2.0861
2.45833
2.90488
3.38368
3.82763
4.14315
4.23381
4.13239
3.79508
3.2208
2.62747
2.11786
1.72268
1.42575
1.19752
1.01239
0.855986
0.721636
0.605649
0.507014
0.425841
0.364779
0.336111
1.84636
2.08629
2.40044
2.77456
3.18154
3.58231
3.92061
4.12673
4.14586
4.01501
3.65304
3.12455
2.58494
2.10898
1.72588
1.43032
1.20192
1.01917
0.867089
0.738766
0.629445
0.535939
0.458408
0.414231
1.88633
2.09296
2.35826
2.67352
3.02001
3.37345
3.69948
3.95129
4.07827
4.05972
3.89685
3.52997
3.06101
2.57749
2.13614
1.76535
1.46789
1.23231
1.04443
0.891326
0.763892
0.656759
0.564332
0.502459
1.9256
2.09774
2.31614
2.57838
2.87084
3.17788
3.47783
3.73947
3.92509
3.99962
3.95519
3.77282
3.43907
3.03355
2.60855
2.20575
1.8501
1.55042
1.30451
1.10462
0.941963
0.808566
0.695359
0.609996
1.96292
2.096
2.2665
2.47755
2.71878
2.97944
3.24551
3.49569
3.7029
3.83851
3.87867
3.81983
3.64335
3.36306
3.02508
2.66291
2.30518
1.97301
1.67852
1.42565
1.21311
1.03603
0.888459
0.768066
1.99887
2.08619
2.20713
2.36872
2.56087
2.77483
3.0008
3.2238
3.4246
3.58216
3.67604
3.69298
3.63089
3.47949
3.25795
2.98952
2.69338
2.38969
2.09544
1.82208
1.57656
1.36008
1.17532
1.01696
2.03536
2.06949
2.13971
2.25549
2.40286
2.57235
2.75505
2.93967
3.1123
3.25847
3.36407
3.41709
3.41461
3.35241
3.22838
3.0559
2.84858
2.61945
2.38123
2.14394
1.91502
1.69997
1.50829
1.34052
2.07594
2.04843
2.06858
2.14441
2.25518
2.38726
2.5301
2.67348
2.80574
2.9178
3.00089
3.04676
3.05785
3.02821
2.95883
2.85383
2.7194
2.56224
2.38934
2.2086
2.02777
1.85318
1.69566
1.56198
2.12694
2.02349
1.99903
2.04236
2.12876
2.23612
2.35098
2.46262
2.55973
2.63217
2.67416
2.68897
2.67575
2.6342
2.56864
2.48321
2.38195
2.26874
2.14722
2.02096
1.89379
1.77076
1.66008
1.56127
2.20421
1.99579
1.93316
1.95433
2.03122
2.13259
2.2457
2.35352
2.4417
2.49453
2.5159
2.50431
2.4577
2.38359
2.28932
2.18171
2.06663
1.94879
1.83177
1.7183
1.61097
1.51342
1.43003
1.3545
2.3316
1.96819
1.86993
1.88192
1.96452
2.07923
2.20563
2.32404
2.42009
2.47504
2.49566
2.47765
2.41972
2.33194
2.22332
2.10199
1.97472
1.84671
1.72162
1.60197
1.48986
1.38785
1.29884
1.22033
2.54768
1.9372
1.80729
1.82441
1.92572
2.0625
2.21505
2.36671
2.49471
2.57492
2.60942
2.59753
2.5351
2.43662
2.31375
2.17779
2.03727
1.89822
1.76454
1.63854
1.52164
1.41497
1.31862
1.23301
2.87533
1.89116
1.7435
1.78025
1.9088
2.07879
2.2757
2.4748
2.64257
2.74927
2.78797
2.7545
2.67183
2.55731
2.42454
2.2827
2.1392
1.99962
1.86784
1.74616
1.6356
1.53561
1.44255
1.35579
1.88861
2.42259
5.00334
6.08189
6.29193
6.23037
0.853573
1.82766
3.20383
3.98757
4.93365
6.30007
0.236044
1.73697
2.62744
3.13542
3.56702
3.74046
0.262329
1.69316
2.31761
2.6284
2.79745
2.6767
0.280543
1.65106
2.09448
2.27705
2.34794
2.20053
1.28655
1.59997
1.91403
2.02403
2.05657
1.94562
1.42924
1.53773
1.76323
1.83232
1.85093
1.78855
1.54226
1.47419
1.6351
1.67946
1.69351
1.67484
1.62453
1.41381
1.52473
1.55159
1.56474
1.57679
1.67574
1.35688
1.42856
1.4406
1.45227
1.48632
1.6955
1.30344
1.34367
1.34162
1.35059
1.4011
1.69058
1.25393
1.26771
1.25183
1.25752
1.32237
1.65582
1.20906
1.19902
1.16958
1.17241
1.25367
1.6089
1.17068
1.13663
1.09394
1.09536
1.19944
1.54843
1.13626
1.07949
1.02429
1.02665
1.16392
1.4724
1.101
1.02598
0.960114
0.966257
1.15049
1.3766
1.05577
0.973321
0.900891
0.91388
1.16222
1.24205
0.981912
0.917249
0.846321
0.869228
1.20404
0.28077
0.840866
0.853502
0.797668
0.83218
1.28151
0.269513
0.736368
0.795373
0.753436
0.802049
1.37772
0.253088
0.671801
0.755635
0.722659
0.781334
1.46675
0.231353
0.678393
0.76245
0.729112
0.782687
1.5784
0.870791
0.879923
0.899449
0.841839
0.849894
1.79497
2.14204
2.04865
1.86302
1.62595
1.35915
1.76082
2.7585
1.80618
1.68298
1.75206
1.91236
2.12387
2.37072
2.61559
2.79564
2.87555
2.85957
2.79464
2.68925
2.5585
2.41437
2.2667
2.12255
1.98625
1.86018
1.74544
1.64222
1.5498
1.4648
1.38064
2.37757
1.71995
1.64227
1.74836
1.94305
2.20198
2.50256
2.77865
2.91975
2.92452
2.81755
2.63596
2.43804
2.24634
2.06733
1.90602
1.76397
1.64052
1.53418
1.44279
1.36455
1.29654
1.24021
1.17656
2.06163
1.67059
1.63729
1.77861
2.01659
2.33862
2.70624
2.97964
3.07138
2.91074
2.57088
2.21471
1.90731
1.65246
1.43405
1.25399
1.10689
0.987621
0.89185
0.814493
0.754175
0.702593
0.669586
0.625838
1.88641
1.65851
1.66962
1.85321
2.15121
2.56151
2.99871
3.24963
3.18287
2.80253
2.26243
1.81523
1.47461
1.21156
1.01132
0.84775
0.711911
0.599449
0.507348
0.432134
0.371659
0.321919
0.285021
0.247071
1.79541
1.67184
1.74132
1.97844
2.36097
2.89355
3.38466
3.5133
3.24046
2.5911
1.981
1.54406
1.23742
1.01032
0.827624
0.675499
0.548218
0.442675
0.356629
0.287911
0.234054
0.191314
0.158816
0.132389
1.74594
1.70474
1.84185
2.15349
2.66746
3.35619
3.81606
3.71629
3.16765
2.31952
1.7273
1.33851
1.06824
0.863537
0.696965
0.559285
0.446279
0.354364
0.280096
0.220484
0.173085
0.136012
0.108433
0.0911962
1.70924
1.74764
1.96244
2.39259
3.11723
3.94705
4.18414
3.80127
2.85017
2.01732
1.49793
1.1551
0.905972
0.713461
0.558928
0.435887
0.339292
0.264379
0.2067
0.162381
0.128273
0.102249
0.0834979
0.0729476
1.67288
1.7924
2.10947
2.73995
3.76664
4.54639
4.35164
3.5728
2.439
1.72339
1.28467
0.982245
0.757791
0.581591
0.442993
0.335999
0.254747
0.193823
0.148665
0.115649
0.0919867
0.0757268
0.0656809
0.0614245
1.63441
1.84067
2.31395
3.27867
4.59486
4.86766
4.337
3.03212
2.03908
1.46572
1.09511
0.828157
0.624612
0.468126
0.349929
0.261952
0.197082
0.149555
0.115007
0.0903015
0.073274
0.062367
0.0564829
0.0547247
1.59441
1.91048
2.63851
4.10069
5.24162
4.96235
3.80057
2.46862
1.71267
1.25022
0.927428
0.686138
0.504408
0.370016
0.272185
0.201746
0.151376
0.115545
0.0902742
0.0727986
0.0612385
0.054298
0.0510491
0.050582
1.56016
2.03696
3.18921
5.14319
5.46184
4.70097
3.07213
2.05877
1.46309
1.06296
0.771973
0.557541
0.40181
0.290315
0.211341
0.155795
0.116926
0.0899237
0.0714421
0.0591763
0.0515318
0.0473932
0.0459722
0.0462716
1.54518
2.27261
4.10316
5.82972
5.47091
3.94473
2.54663
1.75824
1.2519
0.893548
0.634094
0.448528
0.317997
0.227324
0.164723
0.121575
0.0918843
0.0715978
0.0580044
0.0492729
0.0441334
0.0416897
0.0412823
0.0419266
1.56672
2.68572
5.34873
6.02785
5.06572
3.2208
2.17344
1.51862
1.06503
0.742051
0.514626
0.35745
0.250345
0.177817
0.128714
0.0953968
0.0727935
0.0575882
0.0476087
0.0414093
0.0379876
0.0366428
0.0367917
0.0376523
1.64849
3.38472
6.28485
5.98746
4.30097
2.79957
1.90366
1.30882
0.895058
0.60836
0.413494
0.283203
0.196749
0.139355
0.101048
0.0753399
0.0580784
0.0466155
0.0392392
0.0348166
0.0325624
0.0319247
0.0323636
0.0333627
1.81865
4.52025
6.57668
5.64918
3.66422
2.44532
1.65816
1.11619
0.743947
0.494285
0.330381
0.223926
0.154801
0.109597
0.0797382
0.0598513
0.0465952
0.0378768
0.032359
0.0291613
0.0276744
0.0274628
0.0280615
0.029082
2.08745
5.85661
6.5886
5.08322
3.2961
2.18816
1.44602
0.944094
0.612494
0.398782
0.262996
0.176921
0.121968
0.0864366
0.0631395
0.0477033
0.037461
0.0307664
0.0265804
0.024224
0.0232281
0.0232486
0.0239166
0.0249035
2.46663
6.87477
6.49279
4.56821
2.9665
1.93346
1.2415
0.787935
0.49958
0.319997
0.208896
0.1398
0.0962495
0.0683228
0.0501055
0.0380716
0.0301016
0.0249028
0.0216696
0.0198821
0.0191831
0.0192983
0.0199734
0.0209016
3.01094
7.33328
6.34121
4.1616
2.68716
1.70112
1.05678
0.652103
0.405046
0.25597
0.165789
0.11054
0.0760541
0.0540747
0.0397876
0.0303632
0.0241166
0.0200302
0.0174783
0.0160647
0.0155221
0.0156476
0.0162632
0.0171179
3.88652
7.48066
6.0675
3.89397
2.42529
1.47607
0.887275
0.534455
0.326586
0.20427
0.131523
0.0874476
0.0601326
0.0428008
0.0315619
0.0241493
0.019221
0.0159709
0.0139091
0.0127323
0.0122439
0.0123076
0.0128067
0.0135722
5.11358
7.55166
5.88222
3.60705
2.14805
1.25931
0.736101
0.43483
0.262324
0.162778
0.104328
0.0692035
0.0475468
0.0338483
0.0249783
0.0191234
0.0152116
0.0125993
0.0108963
0.00986478
0.00935676
0.00928616
0.00960352
0.0102464
7.00277
7.89995
5.67915
3.27342
1.86442
1.05759
0.604271
0.351596
0.210077
0.129593
0.0827699
0.0547897
0.0375952
0.0267389
0.0197122
0.0150659
0.0119424
0.00982371
0.00839269
0.00745282
0.00688021
0.00660631
0.0066413
0.00706385
9.17481
8.4902
5.26279
2.8811
1.58128
0.874213
0.49116
0.282728
0.16782
0.103122
0.0657059
0.0434204
0.0297473
0.0211179
0.0155281
0.0118213
0.0093112
0.0075796
0.00636493
0.00549739
0.00485861
0.00436316
0.00397985
0.00389301
11.2279
8.80055
4.67826
2.45566
1.3104
0.71204
0.395745
0.226314
0.133837
0.0820767
0.0522341
0.0344814
0.0235905
0.0167122
0.012249
0.00927886
0.00725304
0.00583507
0.004811
0.00403724
0.00340854
0.00284143
0.00227148
0.0014483
14.3238
8.63666
4.01005
2.01584
1.06002
0.571887
0.316411
0.180496
0.106644
0.0653952
0.0416233
0.0274741
0.0187852
0.0132907
0.00971968
0.00733761
0.00570703
0.00455963
0.00372531
0.00309079
0.00257445
0.00211411
0.00165933
0.00105757
2.08626
3.8044
6.06623
6.97349
7.73509
37.6568
0.90657
1.80905
3.11252
4.03167
5.03391
10.6334
0.245222
1.47065
2.45996
3.20238
3.89336
5.69524
0.267957
1.39704
2.17612
2.72251
3.14188
3.80223
1.18598
1.40385
1.99704
2.35059
2.57447
2.80752
1.21169
1.4379
1.86047
2.05044
2.13247
2.17197
1.28251
1.45437
1.74474
1.80866
1.79107
1.73519
1.34934
1.45592
1.64237
1.61481
1.52805
1.42065
1.40286
1.44267
1.55101
1.45821
1.32619
1.19111
1.43833
1.41635
1.47101
1.33155
1.1719
1.02268
1.45504
1.3799
1.40275
1.23109
1.05457
0.898314
1.4553
1.33781
1.34576
1.15422
0.96649
0.806375
1.44465
1.29353
1.30018
1.09884
0.902062
0.738978
1.41445
1.24885
1.26692
1.06286
0.857449
0.690845
1.36468
1.20476
1.24638
1.04686
0.830446
0.658567
1.30025
1.16127
1.23888
1.04743
0.821834
0.640275
1.23064
1.11715
1.24038
1.06779
0.829196
0.635962
0.280607
1.0687
1.25231
1.11064
0.858114
0.645234
0.273696
1.01598
1.27256
1.18056
0.916307
0.67256
0.260023
0.964415
1.29925
1.28506
1.01989
0.726732
0.240163
0.897909
1.3335
1.43718
1.20393
0.830336
0.215544
0.823594
1.36758
1.67718
1.55362
1.04931
0.79284
0.795451
1.39291
2.14898
2.32379
1.64718
1.72222
1.1807
1.69335
3.23887
4.25783
4.18707
17.1709
6.55815
3.07387
1.58336
0.840871
0.454586
0.251601
0.143652
0.0850035
0.0522111
0.0332774
0.0219854
0.0150389
0.0106399
0.00777783
0.00586713
0.00455881
0.00363883
0.00297173
0.00246706
0.00205817
0.00169385
0.00134075
0.000905854
8.09121
4.1877
2.27135
1.22681
0.66079
0.359082
0.199461
0.114298
0.0678699
0.0418116
0.026711
0.0176773
0.0121071
0.00857416
0.00627334
0.00473684
0.00368504
0.00294618
0.00241128
0.00200703
0.00167862
0.00138531
0.0011074
0.000788568
4.93015
3.04184
1.73253
0.952943
0.517546
0.282989
0.15813
0.0911172
0.0543619
0.0336151
0.0215351
0.0142819
0.00979784
0.00694884
0.00509158
0.00385072
0.00300126
0.00240467
0.0019729
0.00164649
0.00138098
0.00114515
0.000928455
0.000695241
3.44327
2.27153
1.32566
0.738757
0.40498
0.223294
0.125729
0.0729229
0.0437341
0.0271497
0.0174432
0.0115928
0.00796651
0.0056586
0.00415264
0.00314607
0.00245699
0.0019732
0.00162335
0.00135927
0.0011452
0.000957519
0.000790901
0.000621331
2.53061
1.70869
1.01726
0.574293
0.318133
0.177054
0.100505
0.0586799
0.0353708
0.0220391
0.014197
0.00945338
0.00650605
0.00462764
0.00340121
0.00258152
0.00202076
0.00162763
0.00134411
0.00113108
0.00095976
0.00081219
0.000685736
0.000563341
1.91462
1.30472
0.788292
0.450149
0.251882
0.14145
0.0809106
0.0475267
0.0287775
0.0179883
0.011613
0.00774477
0.00533673
0.00380069
0.00279784
0.0021282
0.00167094
0.00135138
0.00112207
0.000951124
0.000815231
0.000700594
0.000605773
0.000518104
1.48413
1.01616
0.619639
0.357042
0.201512
0.114052
0.0656699
0.038773
0.023565
0.0147678
0.00955003
0.00637636
0.00439828
0.00313633
0.00231319
0.00176468
0.0013914
0.00113187
0.000947044
0.000810717
0.000703904
0.000615794
0.000545347
0.000482939
1.18261
0.808499
0.495304
0.287164
0.163139
0.0929054
0.0537744
0.0318782
0.0194302
0.0121995
0.00789859
0.00527826
0.00364429
0.00260261
0.00192448
0.00147413
0.00116921
0.000958725
0.000810325
0.000702289
0.000619012
0.000551861
0.000499841
0.000455631
0.968244
0.657652
0.403102
0.234439
0.133748
0.0764966
0.0444441
0.0264238
0.0161381
0.0101453
0.00657369
0.0043959
0.00303837
0.00217433
0.00161357
0.00124293
0.000993677
0.000823219
0.000704493
0.000619339
0.000554824
0.000503937
0.000465639
0.000434445
0.813222
0.546849
0.334101
0.19432
0.11106
0.0636768
0.037083
0.0220882
0.0135069
0.00849744
0.00550875
0.00368636
0.00255166
0.00183127
0.00136567
0.00105982
0.000855883
0.00071797
0.000623241
0.000556382
0.000506607
0.00046816
0.000439982
0.000418067
0.699704
0.464503
0.281884
0.163477
0.0933866
0.0535829
0.0312383
0.0186241
0.0113956
0.00717191
0.0046514
0.00311554
0.00216104
0.00155706
0.00116873
0.000915521
0.000748383
0.000636799
0.000561312
0.000508909
0.000470572
0.000441548
0.000420809
0.000405505
0.6159
0.402616
0.241894
0.139496
0.0794824
0.045569
0.0265662
0.0158419
0.00969504
0.00610293
0.00396025
0.00265629
0.00184789
0.00133843
0.00101284
0.000802366
0.000665018
0.000574607
0.000514406
0.000473306
0.000443765
0.000421849
0.000406592
0.000395998
0.553915
0.35566
0.210897
0.120631
0.0684291
0.0391512
0.0228058
0.0135956
0.00832013
0.00523885
0.00340253
0.00228688
0.00159722
0.00116455
0.000889924
0.000714082
0.000600754
0.000527249
0.000479082
0.000446741
0.00042393
0.00040738
0.000396188
0.000388946
0.50842
0.319788
0.186589
0.105609
0.0595465
0.0339652
0.0197578
0.0117726
0.00720469
0.00453906
0.00295223
0.00198995
0.00139693
0.00102671
0.000793419
0.000645569
0.000551514
0.00049141
0.000452635
0.000427037
0.000409363
0.000396881
0.000388725
0.000383859
0.475821
0.292293
0.167303
0.0934969
0.0523264
0.0297352
0.0172696
0.0102859
0.00629705
0.00397158
0.00258874
0.00175165
0.00123734
0.000917833
0.000718021
0.000592712
0.000514035
0.000464477
0.000432978
0.00041254
0.00039878
0.000389397
0.000383528
0.000380329
0.453744
0.271239
0.15182
0.0835983
0.0463856
0.026251
0.015224
0.00906786
0.00555682
0.00351128
0.00229574
0.00156094
0.00111069
0.000832292
0.000659477
0.000552221
0.000485727
0.000444407
0.000418509
0.000401997
0.000391201
0.00038417
0.000380045
0.000378002
0.440691
0.255207
0.139228
0.0753904
0.0414318
0.023351
0.0135303
0.00806609
0.0049525
0.00313844
0.00206041
0.00140914
0.00101088
0.000765632
0.000614433
0.0005215
0.000464559
0.000429615
0.000408002
0.000394465
0.000385885
0.000380594
0.000377823
0.000376535
0.435818
0.243115
0.128833
0.0684788
0.0372423
0.020911
0.0121187
0.00724009
0.00445964
0.0028377
0.00187269
0.00128946
0.00093315
0.000714411
0.000580321
0.000498588
0.000449016
0.000418931
0.000400559
0.000389265
0.000382336
0.000378347
0.000376439
0.000375638
0.438939
0.234062
0.120099
0.0625755
0.033651
0.0188362
0.0109363
0.00655894
0.00405942
0.00259716
0.00172482
0.00119664
0.000873848
0.000676008
0.000555214
0.000482047
0.000438017
0.000411532
0.000395537
0.000385878
0.000380139
0.000377073
0.000375693
0.000375186
0.450519
0.227579
0.112468
0.0573071
0.0305192
0.0170553
0.00994381
0.00599965
0.00373771
0.0024078
0.00161084
0.00112666
0.000830167
0.000648418
0.000537651
0.000470798
0.00043076
0.000406816
0.00039247
0.00038392
0.000378961
0.000376465
0.000375393
0.000375045
0.472109
0.223252
0.105261
0.0523929
0.0277079
0.0155169
0.00911402
0.00554588
0.0034842
0.00226295
0.00152634
0.0010765
0.000800012
0.000630144
0.00052654
0.00046404
0.000426655
0.000404347
0.000391031
0.000383161
0.000378664
0.000376388
0.000375382
0.000375037
0.508671
0.21911
0.0976868
0.047596
0.0251366
0.0141914
0.00843037
0.00518703
0.00329195
0.00215799
0.00146822
0.00104407
0.00078193
0.000620156
0.000521147
0.000461254
0.000425322
0.000403853
0.000391024
0.000383407
0.000379016
0.000376694
0.000375583
0.000375102
0.564347
0.211231
0.0888366
0.0427679
0.022781
0.0130707
0.00788579
0.00491746
0.00315687
0.00209013
0.00143457
0.00102806
0.000775088
0.000617864
0.000521056
0.000462106
0.000426568
0.000405181
0.000392307
0.000384583
0.000380016
0.0003774
0.000375983
0.000375252
0.620031
0.192677
0.078013
0.0379486
0.0206869
0.0121673
0.00748144
0.0047358
0.00307743
0.0020582
0.00142462
0.00102792
0.000778884
0.000623076
0.00052624
0.000466707
0.000430427
0.000408371
0.000394929
0.000386702
0.000381645
0.000378531
0.000376653
0.000375536
1.85766
1.53571
2.69125
3.25484
3.39412
3.43653
0.852695
1.37397
1.92266
2.05646
1.77746
1.21245
0.233679
1.37164
1.59303
1.42903
1.03397
0.573293
0.258918
1.36433
1.41181
1.0865
0.705692
0.365236
1.19898
1.36774
1.27827
0.887824
0.544342
0.28415
1.48629
1.3573
1.17706
0.773364
0.465163
0.251715
1.74425
1.33755
1.10537
0.711696
0.430819
0.243711
1.96343
1.3242
1.0603
0.68558
0.424394
0.250077
2.14072
1.3213
1.03925
0.685442
0.435264
0.270633
2.27556
1.32993
1.03994
0.705289
0.465751
0.303331
2.36824
1.35061
1.05935
0.745883
0.512868
0.349065
2.41921
1.38388
1.09996
0.805432
0.577671
0.410265
2.43013
1.43043
1.15988
0.884566
0.66237
0.490463
2.42237
1.49257
1.23887
0.98453
0.770076
0.594397
2.40238
1.56867
1.33622
1.10666
0.904511
0.728165
2.36154
1.65271
1.44995
1.25165
1.06946
0.899366
2.29054
1.73575
1.57615
1.41879
1.26794
1.11681
2.17906
1.80563
1.70859
1.60532
1.50115
1.3895
2.01262
1.8468
1.83943
1.80693
1.76769
1.72485
1.76399
1.84381
1.96471
2.01928
2.06485
2.14014
1.38147
1.79958
2.09349
2.24918
2.3952
2.6758
0.27903
1.69517
2.28553
2.54725
2.8023
3.39161
1.06232
1.90324
2.80946
3.18118
3.54932
4.42942
2.6855
3.82425
5.45717
5.83556
5.64
6.20011
0.492435
0.15494
0.0657181
0.0334821
0.0189772
0.0115098
0.00722487
0.00464423
0.00305433
0.00206239
0.00143853
0.00104412
0.000794185
0.000636189
0.000536966
0.000475231
0.000437108
0.000413605
0.000399041
0.000389907
0.000384047
0.000380191
0.000377673
0.000376024
0.313202
0.116636
0.0549913
0.0299434
0.0178191
0.011132
0.00712735
0.00464791
0.00309063
0.00210506
0.00147808
0.00107767
0.000821497
0.000657841
0.000553823
0.000488196
0.000447036
0.000421232
0.000404934
0.00039444
0.000387427
0.000382554
0.00037919
0.000376844
0.210686
0.0914834
0.0476652
0.0277468
0.0172563
0.0110587
0.00720163
0.00475445
0.00319132
0.00218954
0.0015456
0.00113049
0.000862355
0.000689213
0.000577758
0.000506374
0.000460835
0.000431757
0.000413014
0.000400634
0.000392064
0.000385865
0.000381427
0.00037819
0.160146
0.0777724
0.0437802
0.0269541
0.0173037
0.0113101
0.00746277
0.00497457
0.00336408
0.00232135
0.00164518
0.00120557
0.000919033
0.00073205
0.000610139
0.000530847
0.000479367
0.000445868
0.000423842
0.000408966
0.000398378
0.000390461
0.000384504
0.000380182
0.137257
0.0719992
0.0429029
0.0273793
0.0179835
0.0119115
0.00793143
0.00532362
0.00362
0.00250855
0.00178266
0.00130724
0.000994785
0.000788851
0.000652922
0.000563176
0.000503888
0.000464582
0.000438238
0.000420082
0.000406831
0.000396601
0.000388615
0.000382902
0.129924
0.0718546
0.044379
0.029067
0.0193309
0.0129018
0.00863781
0.00582356
0.0039748
0.00276239
0.00196621
0.00144153
0.00109415
0.000863111
0.00070886
0.000605573
0.000536194
0.000489343
0.000457331
0.000434815
0.000418008
0.000404769
0.000394412
0.000386795
0.132103
0.0760589
0.0483608
0.0320336
0.021421
0.0143423
0.00962636
0.00650561
0.00445038
0.00309839
0.00220704
0.00161666
0.0012233
0.000959565
0.000781669
0.000661002
0.000578677
0.000522087
0.000482678
0.000454419
0.000432938
0.000415821
0.00040246
0.000392264
0.142495
0.0848236
0.0547777
0.0364422
0.0243868
0.0163273
0.0109614
0.00741361
0.00507691
0.0035377
0.00252023
0.00184367
0.00139049
0.0010845
0.000876241
0.000733342
0.000634454
0.000565338
0.000516326
0.000480545
0.000452923
0.000430719
0.000413406
0.000399672
0.160588
0.0982887
0.0640245
0.0425963
0.0284381
0.018996
0.0127349
0.00860863
0.00589577
0.00410897
0.00292613
0.00213732
0.00160666
0.00124625
0.000999024
0.000827685
0.000707622
0.000622439
0.000561016
0.000515415
0.0004797
0.00045072
0.000428086
0.000409485
0.187146
0.117288
0.0767998
0.0509781
0.0338903
0.0225509
0.0150769
0.0101757
0.00696372
0.00485107
0.00345205
0.00251733
0.0018864
0.00145582
0.00115854
0.000950757
0.000803595
0.000697818
0.000620397
0.000562013
0.00051563
0.00047756
0.00044766
0.000422314
0.223988
0.143304
0.0941938
0.0623147
0.0412083
0.0272849
0.0181727
0.0122339
0.00835913
0.00581701
0.00413489
0.00301009
0.00224912
0.00172785
0.00136607
0.00111145
0.000929527
0.00079733
0.000699309
0.000624327
0.000563909
0.000513635
0.00047374
0.000438969
0.273707
0.178589
0.117832
0.0776836
0.0510752
0.0336234
0.0222877
0.0149514
0.0101911
0.00707967
0.00502484
0.00365122
0.0027208
0.00208182
0.00163658
0.00132155
0.00109488
0.000928705
0.000804148
0.000707658
0.000628842
0.000562233
0.000508559
0.00046054
0.340107
0.226404
0.150092
0.0986721
0.0644976
0.0421895
0.0278065
0.0185686
0.0126136
0.00874051
0.00619085
0.00448908
0.00333644
0.00254377
0.00199
0.00159666
0.00131215
0.00110216
0.000943374
0.000819038
0.000716188
0.000627826
0.000555206
0.000488497
0.428471
0.291364
0.194415
0.127613
0.082966
0.0539053
0.0352944
0.0234351
0.0158473
0.0109428
0.00772898
0.00559023
0.00414363
0.00314882
0.00245299
0.00195756
0.00159795
0.00133122
0.00112818
0.0009678
0.000833648
0.000716472
0.000617923
0.000524793
0.545891
0.379873
0.255718
0.167919
0.108692
0.0701469
0.0455927
0.0300665
0.0202136
0.0138923
0.00977519
0.00704754
0.00520798
0.00394483
0.00306154
0.00243212
0.00197439
0.00163385
0.00137343
0.00116638
0.000991557
0.000836411
0.000702549
0.000571955
0.701645
0.500601
0.340876
0.22451
0.144945
0.0929767
0.0599672
0.0392352
0.0261893
0.0178903
0.0125256
0.00899309
0.00662154
0.00499813
0.00386502
0.00305819
0.00247134
0.0020342
0.00169908
0.00143147
0.00120394
0.000999018
0.000817246
0.000633174
0.907817
0.664858
0.459163
0.304297
0.196483
0.125474
0.0803325
0.0521123
0.0344932
0.023386
0.016269
0.0116186
0.00851611
0.00640261
0.00493261
0.00388843
0.00313007
0.00256551
0.00213249
0.00178606
0.00149027
0.00122051
0.000973968
0.000712501
1.18009
0.886736
0.622422
0.416555
0.270019
0.17216
0.109574
0.0704843
0.0462229
0.0310612
0.0214387
0.0152083
0.0110849
0.00829447
0.00636396
0.0049984
0.00400985
0.00327566
0.00271331
0.0022636
0.0018793
0.0015257
0.001192
0.000815844
1.53847
1.18327
0.84476
0.572891
0.374536
0.239455
0.15197
0.0970687
0.0630671
0.0419648
0.0286974
0.0201926
0.0146173
0.0108762
0.00830679
0.00650058
0.0052
0.00423841
0.00350449
0.00291917
0.00242033
0.00195963
0.00150963
0.000959119
1.99648
1.57526
1.14124
0.7863
0.521049
0.335934
0.213629
0.135927
0.0876147
0.0577221
0.0390713
0.0272339
0.0195552
0.0144548
0.0109846
0.00856657
0.00684014
0.00557453
0.00461692
0.00386049
0.00322329
0.00263786
0.00204615
0.00127366
2.56256
2.07651
1.52242
1.06797
0.721012
0.471888
0.302696
0.192888
0.12376
0.0808406
0.0541589
0.0373624
0.0265803
0.0194989
0.0147357
0.0114552
0.00914288
0.00747417
0.00623908
0.00529686
0.00454753
0.00392374
0.00345084
0.00342623
3.2598
2.66933
1.98184
1.42029
0.982305
0.657358
0.428773
0.275708
0.177113
0.115108
0.0764342
0.0521837
0.036749
0.0267228
0.0200615
0.0155356
0.012397
0.0101841
0.00861102
0.00750215
0.00675019
0.00630763
0.00626748
0.00691456
4.06957
3.24798
2.47211
1.82343
1.30145
0.89762
0.600692
0.393379
0.255105
0.165978
0.109634
0.0741781
0.0516966
0.0372163
0.0277028
0.0213241
0.0169728
0.0139784
0.0119397
0.0106228
0.0098956
0.00971132
0.0101316
0.0112896
4.80847
3.70662
2.8991
2.22325
1.6529
1.18561
0.821767
0.553696
0.366185
0.240622
0.159118
0.10708
0.0739419
0.0526627
0.0387919
0.0295941
0.023411
0.0192469
0.0165136
0.0148694
0.0141146
0.0141539
0.0149503
0.0165507
)
;

boundaryField
{
    rotor
    {
        type            epsilonWallFunction;
        value           nonuniform List<scalar> 
144
(
2.07699
2.90881
3.55231
3.592
3.08709
3.20146
2.07699
0.906691
0.242152
0.263928
0.280162
1.28644
1.46314
1.60701
1.71844
1.80038
1.85548
1.88671
1.89375
1.87225
1.81676
1.72752
1.60614
1.45601
1.28192
0.280383
0.263501
0.239019
0.884125
1.94244
1.94244
2.12968
3.68495
5.64614
6.45526
6.17378
1.88861
2.42259
5.00334
6.08189
6.29193
6.23037
1.88861
0.853573
0.236044
0.262329
0.280543
1.28655
1.42924
1.54226
1.62453
1.67574
1.6955
1.69058
1.65582
1.6089
1.54843
1.4724
1.3766
1.24205
0.28077
0.269513
0.253088
0.231353
0.870791
2.14204
2.14204
2.04865
1.86302
1.62595
1.35915
1.76082
2.08626
3.8044
6.06623
6.97349
7.73509
37.6568
2.08626
0.90657
0.245222
0.267957
1.18598
1.21169
1.28251
1.34934
1.40286
1.43833
1.45504
1.4553
1.44465
1.41445
1.36468
1.30025
1.23064
0.280607
0.273696
0.260023
0.240163
0.215544
0.79284
1.72222
1.72222
1.1807
1.69335
3.23887
4.25783
4.18707
1.85766
1.53571
2.69125
3.25484
3.39412
3.43653
1.85766
0.852695
0.233679
0.258918
1.19898
1.48629
1.74425
1.96343
2.14072
2.27556
2.36824
2.41921
2.43013
2.42237
2.40238
2.36154
2.29054
2.17906
2.01262
1.76399
1.38147
0.27903
1.06232
2.6855
2.6855
3.82425
5.45717
5.83556
5.64
6.20011
)
;
    }
    freestream
    {
        type            inletOutlet;
        inletValue      uniform 0.000375;
        value           nonuniform List<scalar> 
96
(
0.0229122
0.0306378
0.0400331
0.051493
0.065567
0.0830086
0.105001
0.132864
0.168281
0.212987
0.268741
0.336111
0.414231
0.502459
0.609996
0.768066
1.01696
1.34052
1.56198
1.56127
1.3545
1.22033
1.23301
1.35579
1.38064
1.17656
0.625838
0.247071
0.132389
0.0911962
0.0729476
0.0614245
0.0547247
0.050582
0.0462716
0.0419266
0.0376523
0.0333627
0.029082
0.0249035
0.0209016
0.0171179
0.0135722
0.0102464
0.00706385
0.00389301
0.000375
0.000375
0.000375
0.000375
0.000375
0.000375
0.000375
0.000375
0.000375
0.000375
0.000375
0.000375
0.000375
0.000375
0.000375
0.000375
0.000375
0.000375
0.000375
0.000375
0.000375
0.000375
0.000375
0.000375
0.000375
0.000375
0.000375
0.000375
0.000375
0.000375
0.000375
0.000375
0.000375
0.000375
0.000375
0.000375
0.000375
0.000375
0.000375
0.000375
0.000375
0.000375
0.000375
0.000375
0.000375
0.000375
0.00342623
0.00691456
0.0112896
0.0165507
)
;
    }
    frontAndBack
    {
        type            empty;
    }
}


// ************************************************************************* //
