/*--------------------------------*- C++ -*----------------------------------*\
  =========                 |
  \\      /  F ield         | OpenFOAM: The Open Source CFD Toolbox
   \\    /   O peration     | Website:  https://openfoam.org
    \\  /    A nd           | Version:  11
     \\/     M anipulation  |
\*---------------------------------------------------------------------------*/
FoamFile
{
    format      ascii;
    class       volScalarField;
    location    "1.28";
    object      k;
}
// * * * * * * * * * * * * * * * * * * * * * * * * * * * * * * * * * * * * * //

dimensions      [0 2 -2 0 0 0 0];

internalField   nonuniform List<scalar> 
2880
(
0.00445186
0.0120514
0.0241998
0.0364661
0.0437154
0.060316
0.0174462
0.0313742
0.048114
0.060546
0.0675411
0.0851735
0.0214966
0.0405692
0.0597614
0.0722846
0.0805515
0.0959599
0.0234782
0.046938
0.0675021
0.080259
0.0893475
0.103203
0.0249314
0.0522305
0.0734582
0.0865554
0.0963529
0.109207
0.0262853
0.0569675
0.0783769
0.0919008
0.102393
0.114734
0.0286708
0.0610967
0.0825488
0.0965887
0.107796
0.119908
0.0305205
0.0645839
0.0860855
0.100751
0.112727
0.124852
0.0319163
0.0674157
0.0890331
0.104448
0.117276
0.129644
0.0329239
0.0695957
0.0914195
0.107715
0.121492
0.134318
0.0335929
0.0711286
0.0932636
0.110566
0.125396
0.138865
0.0339692
0.0720106
0.0945738
0.113002
0.128982
0.14324
0.0340546
0.0722136
0.0953422
0.115001
0.132219
0.147373
0.0337975
0.0717984
0.095518
0.116519
0.135047
0.151173
0.0331274
0.070729
0.0950991
0.117485
0.137386
0.154536
0.0320348
0.0689686
0.0939719
0.117755
0.139125
0.157359
0.0305178
0.0664553
0.0920201
0.117249
0.140137
0.159545
0.0285928
0.0630954
0.0890724
0.115722
0.140237
0.161004
0.0263479
0.05875
0.0848948
0.112898
0.139202
0.161657
0.0248982
0.0531954
0.0791561
0.108375
0.136643
0.161336
0.0233145
0.0463064
0.0713597
0.101553
0.131911
0.159601
0.0212114
0.0376503
0.0606814
0.091484
0.123826
0.155491
0.0170111
0.0256927
0.0453745
0.07661
0.110163
0.145549
0.00416325
0.00882482
0.0251635
0.0574445
0.0915106
0.117727
0.166677
0.187494
0.193713
0.190882
0.180403
0.162261
0.141655
0.121033
0.102092
0.0857658
0.0723439
0.061671
0.0533606
0.0469671
0.0420891
0.0384144
0.0357288
0.0339045
0.0328761
0.0326054
0.0329961
0.03404
0.0357397
0.0378378
0.167584
0.19126
0.192037
0.190234
0.184198
0.171414
0.15413
0.135001
0.116048
0.0986983
0.0837455
0.0714338
0.061627
0.0539945
0.0481614
0.0438029
0.040684
0.0386583
0.0376386
0.0375532
0.0382012
0.0396162
0.0416615
0.0439818
0.156379
0.201345
0.197305
0.191496
0.185303
0.176311
0.163179
0.146974
0.129411
0.112113
0.0962768
0.0825885
0.071276
0.0622453
0.055241
0.0499796
0.0462304
0.0438362
0.0426863
0.0426707
0.0434772
0.0451754
0.0475143
0.0500488
0.145771
0.203147
0.208364
0.198773
0.188337
0.179136
0.168824
0.155955
0.140917
0.124899
0.109174
0.0947391
0.0821991
0.071786
0.0634694
0.0570925
0.0524823
0.0495001
0.0480275
0.0479242
0.0487736
0.0506468
0.0532288
0.0559757
0.141212
0.195534
0.2171
0.211823
0.196818
0.183328
0.172611
0.161902
0.149654
0.135867
0.121352
0.107103
0.0939581
0.082464
0.07288
0.0652635
0.0595765
0.0557559
0.0537163
0.0533151
0.0540695
0.0559705
0.0587313
0.0616848
0.139982
0.184116
0.216411
0.221287
0.211671
0.192886
0.177805
0.166259
0.155609
0.14418
0.131676
0.118605
0.105739
0.0937892
0.083269
0.0744889
0.0676147
0.0627302
0.0598492
0.0588818
0.0593783
0.0611043
0.0639494
0.0670917
0.14077
0.17568
0.209561
0.225594
0.222866
0.208788
0.188455
0.172347
0.160335
0.149954
0.139418
0.128174
0.116478
0.104912
0.0940873
0.0845084
0.076555
0.0705059
0.0665415
0.064695
0.0647518
0.0660457
0.0688151
0.0721024
0.143007
0.171334
0.201495
0.223635
0.229552
0.223101
0.205365
0.184074
0.167254
0.154947
0.144899
0.135239
0.125191
0.114789
0.104451
0.0947106
0.0860775
0.0790045
0.0738664
0.0709012
0.0701408
0.0709264
0.0732708
0.0766316
0.146246
0.170096
0.196043
0.218846
0.23186
0.231747
0.222751
0.202108
0.180228
0.162881
0.150291
0.140479
0.131563
0.122584
0.113371
0.104194
0.095515
0.0878509
0.0817116
0.0775371
0.0756001
0.0757471
0.0773498
0.0806416
0.150166
0.171053
0.193709
0.214919
0.230897
0.237204
0.234113
0.221658
0.19971
0.177611
0.15973
0.146674
0.136836
0.128405
0.12028
0.112105
0.104005
0.0963582
0.0896684
0.0844759
0.081261
0.08038
0.0812609
0.0840254
0.154505
0.173522
0.193589
0.212991
0.229291
0.239679
0.24133
0.235994
0.220994
0.198631
0.176404
0.158073
0.14442
0.134247
0.125938
0.118352
0.11098
0.103806
0.0971101
0.0913416
0.0870409
0.0847872
0.0849236
0.0868642
0.159029
0.176838
0.194933
0.212561
0.228269
0.240236
0.246228
0.245288
0.237802
0.220713
0.198704
0.176887
0.158329
0.143973
0.133113
0.124493
0.116996
0.110064
0.103599
0.0977013
0.092718
0.0891922
0.0880981
0.0892631
0.163512
0.180443
0.196911
0.212891
0.227656
0.240022
0.248511
0.251474
0.248776
0.239164
0.221578
0.200564
0.1795
0.160897
0.14579
0.133965
0.12458
0.116715
0.109758
0.103576
0.0981735
0.0937117
0.0910082
0.0913647
0.167746
0.183883
0.198831
0.213245
0.226906
0.239115
0.248842
0.254835
0.255808
0.251786
0.2409
0.224122
0.20458
0.184665
0.166318
0.150593
0.137641
0.127041
0.118265
0.110822
0.10441
0.0989536
0.0945946
0.09368
0.171545
0.186815
0.200186
0.213009
0.225486
0.237232
0.247526
0.25535
0.259636
0.259541
0.254692
0.243813
0.228741
0.211186
0.192829
0.175132
0.15906
0.145031
0.133065
0.122941
0.114395
0.107157
0.100928
0.0979591
0.174762
0.18899
0.200602
0.211803
0.223013
0.234081
0.244485
0.253401
0.259873
0.263012
0.2624
0.257632
0.248078
0.235111
0.219845
0.203403
0.186827
0.170956
0.156345
0.143268
0.131798
0.12183
0.113134
0.107376
0.177292
0.190247
0.200006
0.209476
0.219348
0.229566
0.239694
0.249033
0.256781
0.262103
0.264408
0.263466
0.259277
0.251599
0.241009
0.228167
0.213876
0.198965
0.184118
0.169844
0.156496
0.144231
0.133265
0.124972
0.179034
0.19048
0.198249
0.206008
0.214539
0.223806
0.233353
0.242525
0.250611
0.256957
0.260927
0.262362
0.261035
0.256954
0.250329
0.24165
0.231289
0.219629
0.207161
0.194357
0.181618
0.169232
0.157856
0.148921
0.179866
0.189662
0.195346
0.20146
0.208734
0.217056
0.22587
0.234495
0.242242
0.248521
0.252868
0.254966
0.25507
0.252882
0.248556
0.24231
0.234482
0.225462
0.215624
0.20533
0.194954
0.18491
0.17586
0.16884
0.179766
0.187691
0.19132
0.195921
0.202088
0.209564
0.21768
0.225682
0.232849
0.238592
0.242426
0.24418
0.244223
0.242277
0.238585
0.23341
0.227032
0.21972
0.21174
0.203365
0.194895
0.186754
0.179628
0.173909
0.17868
0.184492
0.186179
0.18946
0.194679
0.201437
0.208998
0.216533
0.223267
0.228566
0.231801
0.233093
0.232643
0.230292
0.226355
0.221146
0.214962
0.208055
0.200656
0.193063
0.185578
0.178621
0.172685
0.167608
0.176381
0.17998
0.179935
0.182128
0.186559
0.192714
0.199856
0.207178
0.213828
0.219102
0.222294
0.223543
0.223029
0.220612
0.216639
0.211454
0.205403
0.198823
0.191987
0.185043
0.178195
0.171722
0.165975
0.16093
0.172086
0.173931
0.172678
0.174025
0.177765
0.183307
0.190023
0.197165
0.203852
0.209307
0.212938
0.214591
0.214699
0.213046
0.209929
0.205653
0.200536
0.194874
0.188914
0.182864
0.176904
0.171199
0.165777
0.160848
0.164519
0.166102
0.164551
0.165377
0.168386
0.173096
0.179049
0.185556
0.191675
0.196558
0.199858
0.201646
0.202183
0.201506
0.199725
0.19698
0.193501
0.189507
0.185193
0.180717
0.176188
0.171652
0.167097
0.162746
0.00404978
0.0100226
0.0340313
0.0617094
0.0891031
0.118762
0.0164333
0.0250877
0.0524497
0.0770608
0.100585
0.126731
0.0209512
0.0375615
0.0657045
0.0885427
0.110839
0.131688
0.0232179
0.0464237
0.0741524
0.0957721
0.116395
0.132783
0.0249218
0.0530184
0.0795985
0.100046
0.118797
0.132561
0.0264139
0.0578281
0.0829306
0.102181
0.119173
0.131498
0.0282614
0.0610863
0.08471
0.102736
0.118343
0.129672
0.0297281
0.0631274
0.0853076
0.102189
0.116363
0.127102
0.0307766
0.0641867
0.0850376
0.10058
0.113506
0.123742
0.0314209
0.064426
0.0839609
0.098188
0.109897
0.119618
0.0316685
0.0640094
0.0822634
0.0951581
0.105658
0.114845
0.0316075
0.0629763
0.0800445
0.0916097
0.100919
0.109607
0.0311736
0.0614081
0.0773775
0.087645
0.0958152
0.104131
0.030581
0.0593029
0.0743144
0.0833515
0.0904748
0.0986502
0.0298091
0.0566935
0.0708896
0.0788015
0.085012
0.0933788
0.0288244
0.0535794
0.0671182
0.0740505
0.0795205
0.0885422
0.0275592
0.0499173
0.0630012
0.0691347
0.0740722
0.084228
0.0257347
0.0457038
0.0585532
0.064071
0.0687481
0.0803664
0.0249269
0.0413773
0.0538537
0.0588483
0.0635022
0.0768464
0.0239289
0.0373948
0.0489813
0.0534308
0.0582207
0.0733366
0.0224713
0.033551
0.0438356
0.047711
0.0525964
0.0690412
0.0205415
0.0293274
0.0379368
0.0413579
0.0459092
0.064795
0.016759
0.0232705
0.0297929
0.0333252
0.0364128
0.0589382
0.00459181
0.00849918
0.012713
0.0165314
0.019273
0.0332668
0.154463
0.157145
0.15626
0.156773
0.158921
0.162472
0.167049
0.171964
0.17619
0.178572
0.179317
0.179098
0.178459
0.177651
0.176605
0.175192
0.173424
0.1714
0.169203
0.166915
0.164594
0.162245
0.159681
0.15677
0.147547
0.149685
0.149101
0.149243
0.150556
0.152973
0.156236
0.158756
0.159292
0.156722
0.151792
0.146503
0.142242
0.139429
0.137517
0.136017
0.134737
0.133638
0.132711
0.131911
0.131187
0.130468
0.129751
0.128672
0.143407
0.144758
0.14411
0.144046
0.145254
0.14833
0.15195
0.153671
0.149626
0.139027
0.127908
0.119195
0.11356
0.109614
0.105989
0.102215
0.0983536
0.0946169
0.091225
0.0882854
0.0859493
0.083925
0.082451
0.0803131
0.14102
0.142146
0.141747
0.142106
0.144243
0.148854
0.153403
0.154169
0.147053
0.131037
0.116762
0.107371
0.101897
0.097754
0.0934283
0.0886594
0.0835972
0.0784688
0.0734768
0.0687377
0.0644208
0.060322
0.0567017
0.0531899
0.139683
0.14131
0.141871
0.143534
0.14777
0.154851
0.160248
0.158571
0.145996
0.125671
0.110474
0.101911
0.096962
0.09267
0.0879307
0.0826644
0.0770939
0.0714799
0.0660337
0.0609049
0.0562191
0.0519404
0.0483619
0.0458154
0.138711
0.141539
0.143715
0.147847
0.155382
0.16509
0.16875
0.161344
0.140493
0.118477
0.106212
0.0999569
0.0953813
0.0908719
0.0858217
0.0802243
0.0743507
0.0684886
0.0628686
0.0576527
0.052942
0.0489707
0.0461879
0.044654
0.137547
0.14206
0.146793
0.154387
0.1661
0.17673
0.174564
0.160561
0.132166
0.113517
0.10513
0.0997279
0.0950715
0.0901
0.0843274
0.078105
0.0718379
0.0658387
0.0603228
0.0554395
0.0512573
0.0481619
0.0461682
0.0455403
0.135728
0.142341
0.150342
0.16256
0.178535
0.184641
0.176354
0.150061
0.123898
0.112013
0.105385
0.0999787
0.0946349
0.088367
0.0815234
0.0746671
0.0681963
0.0623638
0.0573362
0.0532417
0.0502045
0.0483013
0.0476035
0.0478877
0.13307
0.142098
0.154318
0.172323
0.189591
0.187374
0.170127
0.137407
0.120718
0.112218
0.105886
0.0999417
0.0930515
0.0855317
0.0780221
0.0709818
0.064698
0.0593513
0.0550703
0.0519625
0.0501106
0.0493944
0.0496655
0.0505445
0.129592
0.141488
0.159357
0.183685
0.193926
0.184722
0.154401
0.131457
0.120333
0.112782
0.106006
0.0983721
0.090098
0.0818795
0.0742092
0.0673943
0.0616165
0.0569869
0.0535761
0.0514164
0.0504958
0.0506351
0.0514933
0.052816
0.125509
0.141191
0.166583
0.194228
0.193948
0.1735
0.14419
0.129943
0.120821
0.113012
0.104545
0.0953607
0.0862404
0.0777425
0.0702068
0.0638203
0.0586785
0.0548243
0.0522562
0.0509152
0.050675
0.0512668
0.0526185
0.054063
0.121217
0.142305
0.176912
0.197983
0.18812
0.159112
0.141177
0.130295
0.121224
0.111825
0.101565
0.0913416
0.081822
0.0733876
0.0662155
0.0603732
0.0558787
0.0527185
0.0508373
0.0501285
0.0503652
0.0513278
0.0528664
0.0543561
0.117276
0.146231
0.189186
0.19715
0.176622
0.154097
0.141255
0.130927
0.120547
0.109038
0.0974706
0.0866813
0.0771301
0.0689939
0.0623004
0.057022
0.0531157
0.0505236
0.0491556
0.0488807
0.0494084
0.0506715
0.0523512
0.0538677
0.11436
0.154072
0.196376
0.190523
0.168468
0.153559
0.14265
0.131093
0.11821
0.105025
0.0926507
0.0816951
0.0723641
0.0646472
0.0584549
0.0536906
0.0502683
0.0481008
0.0470787
0.0470606
0.0477536
0.0491359
0.050838
0.0523325
0.112932
0.165513
0.197428
0.183361
0.166651
0.156209
0.143589
0.129558
0.114523
0.100176
0.0874331
0.0765955
0.0676311
0.0603785
0.0546613
0.0503334
0.0472805
0.0454001
0.0445792
0.0446681
0.0454364
0.0468124
0.0484719
0.0499229
0.112956
0.178087
0.192936
0.18076
0.16947
0.158699
0.14364
0.126561
0.10981
0.0947995
0.0820345
0.0715039
0.06298
0.0561909
0.0508996
0.0469258
0.0441373
0.0424253
0.0416828
0.0417755
0.0425081
0.0437998
0.0453683
0.0467634
0.113783
0.187802
0.190664
0.18138
0.174608
0.160195
0.141662
0.122222
0.104396
0.0891576
0.0766148
0.066499
0.0584385
0.0520857
0.0471632
0.0434674
0.0408538
0.0392128
0.0384478
0.0384552
0.039059
0.0401986
0.0416344
0.0429652
0.113509
0.191834
0.190901
0.18754
0.179773
0.160733
0.138269
0.116982
0.0985826
0.0834339
0.0712709
0.0616234
0.0540201
0.0480661
0.0434584
0.0399775
0.0374696
0.035825
0.0349581
0.0347888
0.0351922
0.0361035
0.0373606
0.0386165
0.109944
0.192547
0.197258
0.195858
0.182853
0.158466
0.133383
0.111074
0.0925718
0.0777506
0.0660644
0.0569046
0.0497384
0.0441441
0.0398049
0.0364912
0.0340404
0.0323399
0.0313104
0.0308895
0.0310075
0.031597
0.032604
0.0337612
0.108032
0.195837
0.208313
0.205059
0.183987
0.154744
0.127631
0.104819
0.0865297
0.0721908
0.0610378
0.0523682
0.0456145
0.0403444
0.0362368
0.0330565
0.030634
0.028849
0.0276187
0.0268861
0.0266091
0.026762
0.0273703
0.028359
0.124024
0.207936
0.222028
0.211324
0.181716
0.149266
0.121111
0.0983419
0.0805408
0.0668054
0.0562248
0.0480431
0.0416805
0.0367061
0.0328023
0.0297344
0.0273276
0.0254519
0.0240105
0.0229316
0.0221627
0.0216919
0.0216306
0.0222162
0.154928
0.226872
0.235977
0.214071
0.177019
0.142572
0.114108
0.0917934
0.0746856
0.0616416
0.0516605
0.0439646
0.0379781
0.033281
0.0295652
0.026601
0.0242131
0.0222632
0.0206372
0.0192335
0.0179522
0.016707
0.0155159
0.0148777
0.183537
0.250387
0.246258
0.212278
0.170425
0.134896
0.106774
0.0852666
0.0690189
0.0567346
0.0473743
0.0401652
0.0345495
0.0301252
0.0265983
0.0237492
0.0214075
0.0194351
0.0177116
0.0161195
0.0145269
0.0127753
0.0106696
0.00748726
0.222026
0.273544
0.250699
0.20452
0.16151
0.126357
0.0992431
0.0788464
0.0635888
0.0521124
0.0433858
0.0366649
0.0314211
0.0272764
0.0239561
0.0212548
0.0190148
0.0171099
0.0154336
0.0138876
0.0123686
0.0107633
0.00894106
0.00641292
0.00447439
0.0157929
0.0414496
0.0710316
0.10997
0.149672
0.0174494
0.0386747
0.0743032
0.111473
0.157861
0.245218
0.0217812
0.0497335
0.088807
0.129157
0.176038
0.247022
0.0237925
0.0567758
0.0965537
0.136192
0.179535
0.232521
0.0248557
0.0618082
0.100675
0.137639
0.176149
0.215577
0.0253146
0.0656598
0.102624
0.13626
0.16927
0.198976
0.0263096
0.0684087
0.103175
0.133306
0.161255
0.183794
0.0272194
0.0703005
0.102788
0.12963
0.153248
0.170464
0.0279366
0.0714023
0.101671
0.125675
0.145758
0.159019
0.0284069
0.0717404
0.0999898
0.121687
0.138979
0.149298
0.028627
0.0713648
0.0978766
0.117808
0.132963
0.141075
0.0286302
0.0703089
0.0954342
0.114102
0.127653
0.134141
0.0284898
0.0686133
0.0927303
0.110581
0.122955
0.128315
0.0280911
0.0663531
0.0897908
0.107205
0.11878
0.123417
0.0274278
0.0635722
0.0865974
0.103902
0.115037
0.119281
0.0265578
0.0602834
0.0830857
0.100574
0.111614
0.115757
0.025614
0.0564766
0.0791434
0.0970836
0.10839
0.112695
0.0249964
0.0521024
0.0745921
0.0932363
0.105213
0.109942
0.0242936
0.0471179
0.0691669
0.088754
0.101884
0.107316
0.0230881
0.0415574
0.0624981
0.0832228
0.0981185
0.104593
0.0213258
0.0351375
0.0540679
0.0759962
0.0934698
0.101513
0.0191383
0.0275599
0.0431191
0.0659919
0.0870514
0.0977985
0.0152577
0.0178742
0.0282757
0.0513558
0.0768852
0.0921952
0.00369206
0.00489817
0.0115979
0.033098
0.0606446
0.0793109
0.279238
0.283922
0.245409
0.194214
0.151206
0.117324
0.0916931
0.0726239
0.0584389
0.0477929
0.0397
0.0334623
0.0285888
0.0247296
0.0216313
0.0191058
0.0170098
0.0152307
0.013676
0.0122615
0.0108968
0.00948501
0.00794249
0.00595495
0.304754
0.280086
0.229528
0.180575
0.139773
0.108061
0.0842913
0.0666855
0.0536054
0.0437837
0.0363082
0.0305385
0.0260246
0.0224464
0.0195717
0.0172289
0.015288
0.0136474
0.0122249
0.0109448
0.00972492
0.00848301
0.00717281
0.00559435
0.282089
0.259022
0.211281
0.165768
0.128083
0.0989835
0.0772301
0.0611123
0.0491144
0.0400834
0.0331944
0.0278676
0.0236945
0.0203834
0.0177226
0.0155555
0.0137637
0.0122555
0.0109565
0.00979926
0.00871071
0.00762474
0.0065226
0.00527407
0.257028
0.235612
0.192309
0.150959
0.116782
0.0904037
0.070645
0.0559534
0.044975
0.036683
0.0303401
0.0254253
0.0215692
0.0185071
0.016046
0.0140433
0.0123911
0.0110064
0.00982299
0.0087808
0.00781662
0.00687898
0.00596603
0.00498962
0.232564
0.21242
0.173973
0.136971
0.106278
0.0824986
0.0646011
0.0512251
0.041183
0.033569
0.0277276
0.0231917
0.0196279
0.0167959
0.0145203
0.0126709
0.0111501
0.0098829
0.00881026
0.00787936
0.0070356
0.00623884
0.00549554
0.00474267
0.210384
0.191267
0.157249
0.124267
0.0967613
0.0753345
0.0591129
0.0469218
0.0377256
0.0307265
0.0253417
0.0211521
0.0178565
0.015237
0.0131339
0.0114289
0.0100331
0.00887931
0.00791459
0.00709222
0.00636452
0.00569921
0.00510478
0.00453303
0.191098
0.17277
0.142489
0.112994
0.0882738
0.0689096
0.0541653
0.043026
0.0345861
0.0281406
0.0231693
0.0192952
0.0162457
0.0138228
0.011881
0.0103127
0.00903731
0.00799379
0.00713455
0.00641743
0.00579977
0.00525398
0.00478653
0.00435854
0.174705
0.156971
0.129705
0.103126
0.0807738
0.063185
0.049727
0.0395135
0.0317458
0.0257966
0.0211988
0.0176118
0.0147883
0.0125477
0.0107575
0.00931943
0.00816003
0.00722374
0.00646687
0.00585024
0.00533444
0.00489414
0.00453191
0.00421556
0.160913
0.14367
0.118748
0.0945486
0.0741798
0.0581044
0.0457593
0.0363571
0.0291852
0.0236799
0.0194192
0.0160937
0.0134778
0.0114067
0.00975909
0.0084451
0.00739737
0.00656459
0.00590563
0.00538288
0.00495874
0.00460872
0.00433128
0.00409996
0.149368
0.132552
0.109397
0.0871152
0.068395
0.0536047
0.0422206
0.0335288
0.0268845
0.0217763
0.0178199
0.0147325
0.0123076
0.0103941
0.00888062
0.00768454
0.00674357
0.00600945
0.00544233
0.00500503
0.00466093
0.00438594
0.00417527
0.00400768
0.139773
0.123239
0.101415
0.0806718
0.0633206
0.0496225
0.0390694
0.0310004
0.024824
0.0200714
0.0163899
0.0135196
0.0112705
0.00950341
0.00811573
0.00703105
0.00619108
0.00554946
0.00506653
0.00470482
0.00442864
0.00421446
0.00405546
0.00393511
0.131824
0.115422
0.0945846
0.0750741
0.0588631
0.0460973
0.0362658
0.0287448
0.0229845
0.018551
0.0151182
0.012446
0.0103586
0.00872717
0.00745694
0.00647663
0.00573095
0.00517436
0.00476664
0.00446999
0.00424995
0.00408412
0.00396471
0.00387908
0.125258
0.108844
0.0887153
0.0701922
0.0549371
0.0429731
0.0337725
0.0267363
0.0213475
0.0172012
0.0139939
0.0115023
0.00956326
0.00805722
0.00689589
0.00601236
0.00535329
0.00487318
0.00453093
0.00428881
0.00411422
0.00398633
0.0038971
0.00383685
0.11985
0.103288
0.0836418
0.0659111
0.0514654
0.0401986
0.0315547
0.0249507
0.0198955
0.0160087
0.013006
0.0106791
0.00887582
0.0074849
0.00642372
0.00562877
0.00504785
0.00463494
0.00434827
0.00415082
0.00401241
0.00391408
0.00384782
0.00380596
0.115417
0.0985739
0.0792201
0.0621287
0.0483785
0.0377268
0.0295806
0.0233656
0.0186122
0.0149605
0.0121438
0.00996682
0.00828735
0.0070014
0.00603133
0.00531625
0.00480446
0.00444927
0.00420868
0.00404711
0.00393712
0.00386169
0.00381293
0.00378427
0.111805
0.0945453
0.0753221
0.0587524
0.0456131
0.0355154
0.0278213
0.0219608
0.0174824
0.014045
0.0113975
0.00935654
0.00778921
0.00659806
0.00570976
0.00506543
0.00461349
0.00430675
0.0041036
0.00397036
0.00388236
0.00382451
0.00378905
0.00376979
0.108887
0.0910618
0.0718293
0.0556968
0.0431112
0.0335258
0.026251
0.0207181
0.0164927
0.0132514
0.0107578
0.00883993
0.00737338
0.00626678
0.0054506
0.00486757
0.0044662
0.00419921
0.0040259
0.00391469
0.00384343
0.00379874
0.00377332
0.00376055
0.106547
0.0879889
0.0686263
0.0528809
0.0408197
0.0317238
0.0248469
0.0196219
0.0156314
0.0125704
0.0102166
0.00840958
0.00703272
0.00600038
0.00524646
0.00471517
0.0043553
0.00412001
0.00396996
0.00387564
0.003817
0.00378184
0.00376347
0.00375487
0.104669
0.0851849
0.0655931
0.0502251
0.0386909
0.0300806
0.0235908
0.0186593
0.014889
0.011994
0.0097672
0.00805908
0.00676101
0.00579266
0.00509113
0.00460212
0.00427512
0.00406418
0.00393157
0.00384969
0.00380017
0.00377187
0.00375801
0.00375194
0.103121
0.08248
0.0625973
0.047657
0.0366875
0.0285754
0.0224697
0.0178211
0.0142579
0.0115158
0.00940358
0.00778289
0.00655285
0.00563825
0.0049793
0.00452339
0.00422112
0.00402789
0.00390757
0.00383422
0.00379074
0.00376686
0.00375554
0.00375091
0.101702
0.0796393
0.0594944
0.0451143
0.0347859
0.0271982
0.021477
0.017102
0.0137334
0.0111312
0.00912115
0.00757642
0.00640368
0.00553263
0.00490658
0.00447491
0.00418982
0.00400828
0.00389575
0.00382759
0.0037876
0.00376583
0.00375531
0.00375084
0.099981
0.0762953
0.0561364
0.0425574
0.0329819
0.0259505
0.0206135
0.0165009
0.0133131
0.0108371
0.00891658
0.00743618
0.00630997
0.00547233
0.00486973
0.00445392
0.00417884
0.00400352
0.00389471
0.00382866
0.0037897
0.00376782
0.00375665
0.00375128
0.0967973
0.0718443
0.0524048
0.0399913
0.0312972
0.0248471
0.0198865
0.0160208
0.0129973
0.0106323
0.00878791
0.00735987
0.00626946
0.00545518
0.00486674
0.00445844
0.00418697
0.00401265
0.00390363
0.00383674
0.00379648
0.00377286
0.00375957
0.00375235
0.0896208
0.0655672
0.0483231
0.0375026
0.029787
0.0239165
0.0193101
0.015668
0.0127884
0.0105173
0.00873461
0.00734633
0.00628037
0.00547991
0.00489719
0.00448895
0.00421432
0.00403586
0.00392273
0.00385205
0.00380816
0.00378097
0.00376434
0.00375427
0.00397726
0.00634871
0.0183131
0.0331046
0.0482568
0.0650644
0.0163966
0.019901
0.0333329
0.0456287
0.0553657
0.0603457
0.0207269
0.0331439
0.0460824
0.0549021
0.0586771
0.0584465
0.0229647
0.0431513
0.0548333
0.0603124
0.0614854
0.0576845
0.0251141
0.0508973
0.061219
0.0647378
0.0639344
0.0580255
0.0289835
0.0568419
0.0663334
0.0688068
0.0664538
0.0594669
0.0322499
0.061627
0.0707883
0.0727011
0.0693352
0.0618715
0.0349004
0.0656139
0.0749067
0.0766115
0.0727237
0.0651013
0.0369729
0.0690308
0.0788776
0.080686
0.0766967
0.0691268
0.0385109
0.0720166
0.0828086
0.0850277
0.0812929
0.0739719
0.0395502
0.0746429
0.0867427
0.0897002
0.086559
0.0796756
0.0401156
0.0769194
0.0906669
0.0947333
0.0925173
0.0862929
0.0402356
0.078796
0.0945238
0.100102
0.0991681
0.0938854
0.040148
0.0801484
0.0982151
0.105704
0.106469
0.102506
0.0399256
0.0808336
0.101583
0.111386
0.114341
0.112142
0.0394705
0.0807434
0.104386
0.116905
0.122616
0.122719
0.0386738
0.0796389
0.106297
0.121884
0.130926
0.134236
0.0374059
0.0773309
0.106903
0.125804
0.138723
0.146378
0.0354703
0.0736261
0.106027
0.127993
0.145164
0.158469
0.0324758
0.0683768
0.102902
0.127665
0.149018
0.169479
0.0275981
0.0613915
0.0970598
0.124063
0.148595
0.177748
0.0247653
0.052547
0.0876706
0.115031
0.142113
0.179903
0.0204622
0.0407515
0.0724161
0.0975873
0.124761
0.170155
0.00578995
0.0159001
0.0372756
0.0593619
0.0799815
0.116907
0.0748614
0.0574944
0.0442623
0.0352843
0.0285348
0.0231963
0.0189026
0.0154516
0.0126907
0.0104939
0.00875696
0.00739627
0.00634437
0.00554786
0.00496192
0.00454609
0.00426201
0.00407428
0.00395304
0.00387549
0.00382556
0.00379288
0.00377151
0.00375747
0.0622928
0.0505529
0.0409547
0.0335695
0.0276262
0.0227241
0.0186824
0.015381
0.0127095
0.0105654
0.00885807
0.0075112
0.00646216
0.0056602
0.00506285
0.00463216
0.00433233
0.00413005
0.00399644
0.00390866
0.00385002
0.00380973
0.00378202
0.00376274
0.0549076
0.0461433
0.0387565
0.0324843
0.0271155
0.022528
0.0186646
0.0154652
0.0128504
0.0107357
0.00904034
0.00769372
0.00663647
0.00581983
0.00520309
0.00475043
0.00442853
0.00420616
0.00405556
0.00395378
0.00388338
0.00383312
0.00379725
0.00377122
0.051407
0.0439591
0.0376783
0.0320479
0.0270214
0.0226196
0.018859
0.0157115
0.0131194
0.0110096
0.00930819
0.00794787
0.00687125
0.00603075
0.00538678
0.00490519
0.00455482
0.00430655
0.00413389
0.00401394
0.0039284
0.00386523
0.00381806
0.00378359
0.0505072
0.0434455
0.0375789
0.0322075
0.0273358
0.023007
0.0192724
0.0161269
0.013523
0.0113935
0.00966737
0.0082791
0.00717186
0.00629836
0.00561948
0.00510211
0.00471686
0.00443662
0.00423629
0.00409321
0.00398812
0.00390787
0.00384573
0.00380038
0.0511897
0.0440801
0.038267
0.0329467
0.0280566
0.0236902
0.0199111
0.0167191
0.0140691
0.0118948
0.0101252
0.00869449
0.00754524
0.00662964
0.0059083
0.00534849
0.004922
0.00460338
0.00436902
0.00419666
0.00406627
0.00396408
0.00388409
0.00382411
0.0532018
0.0458003
0.039737
0.0342225
0.029173
0.0246735
0.0207832
0.0174976
0.0147675
0.012523
0.0106908
0.00920272
0.00799985
0.00703292
0.00626159
0.00565276
0.00517868
0.0048151
0.00453977
0.00433117
0.00416885
0.00403895
0.00393647
0.00385702
0.0562155
0.0483752
0.0418846
0.0360187
0.0306881
0.0259665
0.0219008
0.0184749
0.01563
0.0132895
0.0113747
0.00981395
0.0085454
0.00751762
0.00668856
0.00602406
0.00549606
0.00508087
0.00475737
0.00450486
0.00430288
0.00413793
0.00400652
0.00390093
0.0601112
0.0517531
0.0446969
0.0383421
0.0326172
0.027587
0.0232812
0.0196669
0.0166714
0.0142076
0.0121894
0.0105397
0.00919282
0.00809412
0.00719922
0.00647219
0.00588396
0.00541066
0.00503173
0.00472722
0.00447675
0.00426757
0.00409866
0.0039581
0.0648827
0.055947
0.0482012
0.0412252
0.0349918
0.0295628
0.0249483
0.0210941
0.0179093
0.0152929
0.013149
0.011393
0.0099541
0.00877369
0.0078043
0.00700758
0.00635275
0.005815
0.00537362
0.00500885
0.00470018
0.00443582
0.00421843
0.0040312
0.0705855
0.0610226
0.052464
0.0447276
0.0378619
0.0319341
0.0269343
0.0227826
0.0193654
0.016564
0.0142695
0.0123882
0.0108424
0.00956856
0.0085153
0.00764126
0.00691325
0.00630477
0.00579414
0.00536095
0.00498391
0.00465194
0.00437253
0.00412338
0.0773173
0.0670916
0.0575913
0.0489403
0.0412999
0.0347569
0.0292819
0.0247653
0.0210658
0.0180422
0.0155692
0.0135412
0.011872
0.0104918
0.00934443
0.00838476
0.00757659
0.00689101
0.00630444
0.00579489
0.00533922
0.00492614
0.00456863
0.0042382
0.0852034
0.0743069
0.0637308
0.0539893
0.0454057
0.0381066
0.0320473
0.0270846
0.0230428
0.0197531
0.017069
0.0148699
0.0130587
0.0115575
0.0103046
0.00925013
0.00835421
0.00758477
0.00691553
0.00632181
0.0057773
0.00526896
0.00481505
0.0043794
0.0943855
0.082857
0.0710721
0.0600405
0.050312
0.042084
0.0353049
0.029795
0.0253374
0.0217281
0.0187939
0.0163947
0.0144196
0.0127809
0.0114095
0.01025
0.00925791
0.0083973
0.0076383
0.00695252
0.00630898
0.00569083
0.00512015
0.00455029
0.105004
0.0929564
0.0798431
0.067302
0.0561905
0.0468211
0.0391525
0.0329677
0.0280016
0.024006
0.0207737
0.0181394
0.0159746
0.014179
0.0126742
0.0113979
0.0103002
0.0093403
0.00848392
0.00769786
0.00694497
0.006202
0.00549207
0.00475296
0.117145
0.104825
0.0902946
0.0760187
0.0632542
0.0524881
0.0437181
0.0366966
0.0311036
0.0266371
0.0230462
0.0201336
0.0177476
0.0157718
0.014116
0.0127095
0.0114952
0.0104269
0.00946474
0.00856969
0.00769687
0.00681358
0.00593923
0.0049873
0.130679
0.118668
0.102661
0.08645
0.0717513
0.0592957
0.0491668
0.0411048
0.0347334
0.0296872
0.0256605
0.0224148
0.0197685
0.0175842
0.0157566
0.014204
0.012861
0.011674
0.0105968
0.00958339
0.00857978
0.00754034
0.00647293
0.00525094
0.145468
0.134497
0.117071
0.0988168
0.0819392
0.0674891
0.0557044
0.0463518
0.0390099
0.0332436
0.0286817
0.0250329
0.0220772
0.0196496
0.0176256
0.0159092
0.0144242
0.0131081
0.0119064
0.0107651
0.00961984
0.00840878
0.00711551
0.00554232
0.161388
0.151872
0.133426
0.113212
0.0940289
0.077322
0.063571
0.0526378
0.0440881
0.037423
0.0321971
0.0280549
0.0247274
0.0220142
0.0197655
0.0178671
0.0162289
0.0147769
0.0134462
0.0121723
0.0108794
0.00948614
0.00793139
0.00588742
0.177781
0.169832
0.151328
0.129476
0.108087
0.0889971
0.0730158
0.0601979
0.0501636
0.0423778
0.0363229
0.0315706
0.0277915
0.0247406
0.0222359
0.0201403
0.0183468
0.0167679
0.0153266
0.0139467
0.0125409
0.0110036
0.00920035
0.00663504
0.192836
0.186826
0.169692
0.14699
0.123883
0.102559
0.0842337
0.069276
0.0574669
0.0483
0.0412105
0.0356975
0.0313633
0.0279083
0.025111
0.022807
0.0208712
0.0192051
0.0177266
0.0163628
0.0150452
0.0137374
0.0126035
0.0123942
0.202613
0.199773
0.186325
0.164431
0.140692
0.117734
0.0972541
0.0800599
0.0662356
0.0554148
0.0470478
0.0405839
0.0355574
0.031607
0.0284643
0.0259328
0.02387
0.0221742
0.020777
0.0196379
0.0187393
0.018115
0.0180065
0.0189173
0.199117
0.203248
0.19676
0.179697
0.157138
0.133756
0.111782
0.0925675
0.0766488
0.0639511
0.0540511
0.0464082
0.0405099
0.0359342
0.0323592
0.0295509
0.0273463
0.0256409
0.0243791
0.0235432
0.0231377
0.0232026
0.023889
0.0253871
0.173986
0.197389
0.197137
0.18908
0.171128
0.149225
0.127028
0.106487
0.0887098
0.0740739
0.0624355
0.0533726
0.0463837
0.0410068
0.0368693
0.0336955
0.0312981
0.0295644
0.0284404
0.0279079
0.0279529
0.0285445
0.0298163
0.0316573
)
;

boundaryField
{
    rotor
    {
        type            kqRWallFunction;
        value           nonuniform List<scalar> 
144
(
0.00445186
0.0120514
0.0241998
0.0364661
0.0437154
0.060316
0.00445186
0.0174462
0.0214966
0.0234782
0.0249314
0.0262853
0.0286708
0.0305205
0.0319163
0.0329239
0.0335929
0.0339692
0.0340546
0.0337975
0.0331274
0.0320348
0.0305178
0.0285928
0.0263479
0.0248982
0.0233145
0.0212114
0.0170111
0.00416325
0.00416325
0.00882482
0.0251635
0.0574445
0.0915106
0.117727
0.00404978
0.0100226
0.0340313
0.0617094
0.0891031
0.118762
0.00404978
0.0164333
0.0209512
0.0232179
0.0249218
0.0264139
0.0282614
0.0297281
0.0307766
0.0314209
0.0316685
0.0316075
0.0311736
0.030581
0.0298091
0.0288244
0.0275592
0.0257347
0.0249269
0.0239289
0.0224713
0.0205415
0.016759
0.00459181
0.00459181
0.00849918
0.012713
0.0165314
0.019273
0.0332668
0.00447439
0.0157929
0.0414496
0.0710316
0.10997
0.149672
0.00447439
0.0174494
0.0217812
0.0237925
0.0248557
0.0253146
0.0263096
0.0272194
0.0279366
0.0284069
0.028627
0.0286302
0.0284898
0.0280911
0.0274278
0.0265578
0.025614
0.0249964
0.0242936
0.0230881
0.0213258
0.0191383
0.0152577
0.00369206
0.00369206
0.00489817
0.0115979
0.033098
0.0606446
0.0793109
0.00397726
0.00634871
0.0183131
0.0331046
0.0482568
0.0650644
0.00397726
0.0163966
0.0207269
0.0229647
0.0251141
0.0289835
0.0322499
0.0349004
0.0369729
0.0385109
0.0395502