/*--------------------------------*- C++ -*----------------------------------*\
  =========                 |
  \\      /  F ield         | OpenFOAM: The Open Source CFD Toolbox
   \\    /   O peration     | Website:  https://openfoam.org
    \\  /    A nd           | Version:  11
     \\/     M anipulation  |
\*---------------------------------------------------------------------------*/
FoamFile
{
    format      ascii;
    class       surfaceScalarField;
    location    "1.28";
    object      meshPhi;
}
// * * * * * * * * * * * * * * * * * * * * * * * * * * * * * * * * * * * * * //

dimensions      [0 3 -1 0 0 0 0];

internalField   nonuniform List<scalar> 
5640
(
1.36977e-16
9.81747e-07
2.42107e-16
1.37445e-06
3.76995e-16
1.76715e-06
-1.33932e-15
2.15984e-06
-3.68152e-15
2.55254e-06
2.94524e-06
5.95132e-15
1.83042e-18
9.81747e-07
-3.88781e-16
1.37445e-06
-2.60408e-15
1.76715e-06
1.94361e-15
2.15984e-06
8.06642e-15
2.55254e-06
2.94524e-06
-9.0297e-15
-1.16457e-16
9.81747e-07
1.86388e-16
1.37445e-06
-1.5623e-15
1.76715e-06
-4.21259e-15
2.15984e-06
-7.49845e-15
2.55254e-06
2.94524e-06
7.72335e-16
8.69549e-17
9.81747e-07
-1.01905e-16
1.37445e-06
2.69319e-15
1.76715e-06
7.4428e-15
2.15984e-06
3.25975e-15
2.55254e-06
2.94524e-06
-2.79793e-15
-4.838e-17
9.81747e-07
3.9562e-17
1.37445e-06
1.94275e-16
1.76715e-06
-1.80608e-15
2.15984e-06
-4.20858e-15
2.55254e-06
2.94524e-06
5.01334e-15
-1.801e-16
9.81747e-07
4.29708e-18
1.37445e-06
-1.84782e-15
1.76715e-06
-3.88619e-15
2.15984e-06
3.15696e-15
2.55254e-06
2.94524e-06
4.97932e-16
2.53983e-16
9.81747e-07
2.55426e-16
1.37445e-06
2.0659e-15
1.76715e-06
4.50409e-15
2.15984e-06
-2.31006e-15
2.55254e-06
2.94524e-06
5.40889e-16
2.16846e-17
9.81747e-07
-3.21657e-16
1.37445e-06
-1.14886e-15
1.76715e-06
-5.28566e-15
2.15984e-06
-3.7686e-16
2.55254e-06
2.94524e-06
-5.63977e-15
-1.43396e-16
9.81747e-07
1.66393e-16
1.37445e-06
4.19121e-15
1.76715e-06
6.34936e-15
2.15984e-06
-8.05669e-16
2.55254e-06
2.94524e-06
8.39268e-16
-6.88019e-17
9.81747e-07
-9.20156e-17
1.37445e-06
-2.76933e-15
1.76715e-06
-3.68861e-16
2.15984e-06
-1.45085e-15
2.55254e-06
2.94524e-06
-1.76616e-16
1.66331e-16
9.81747e-07
-8.86672e-17
1.37445e-06
5.69672e-16
1.76715e-06
-2.10357e-15
2.15984e-06
9.66004e-15
2.55254e-06
2.94524e-06
5.29004e-15
-1.778e-16
9.81747e-07
-2.0488e-17
1.37445e-06
-3.45458e-16
1.76715e-06
-4.17273e-15
2.15984e-06
-2.62224e-15
2.55254e-06
2.94524e-06
5.36948e-15
1.77791e-16
9.81747e-07
2.05043e-17
1.37445e-06
3.45414e-16
1.76715e-06
4.17266e-15
2.15984e-06
2.62246e-15
2.55254e-06
2.94524e-06
-5.36945e-15
-1.66314e-16
9.81747e-07
8.86834e-17
1.37445e-06
-5.69648e-16
1.76715e-06
2.10352e-15
2.15984e-06
-9.65989e-15
2.55254e-06
2.94524e-06
-5.29019e-15
6.87837e-17
9.81747e-07
9.20709e-17
1.37445e-06
2.76939e-15
1.76715e-06
3.68715e-16
2.15984e-06
1.45082e-15
2.55254e-06
2.94524e-06
1.767e-16
1.43383e-16
9.81747e-07
-1.66389e-16
1.37445e-06
-4.19116e-15
1.76715e-06
-6.34949e-15
2.15984e-06
8.05547e-16
2.55254e-06
2.94524e-06
-8.39046e-16
-2.16496e-17
9.81747e-07
3.21671e-16
1.37445e-06
1.14887e-15
1.76715e-06
5.28562e-15
2.15984e-06
3.76786e-16
2.55254e-06
2.94524e-06
5.63994e-15
-2.53985e-16
9.81747e-07
-2.55413e-16
1.37445e-06
-2.06603e-15
1.76715e-06
-4.50411e-15
2.15984e-06
2.30997e-15
2.55254e-06
2.94524e-06
-5.4075e-16
1.80062e-16
9.81747e-07
-4.31539e-18
1.37445e-06
1.84778e-15
1.76715e-06
3.88615e-15
2.15984e-06
-3.1571e-15
2.55254e-06
2.94524e-06
-4.98015e-16
4.83592e-17
9.81747e-07
-3.95288e-17
1.37445e-06
-1.94378e-16
1.76715e-06
1.80618e-15
2.15984e-06
4.20842e-15
2.55254e-06
2.94524e-06
-5.01339e-15
-8.69418e-17
9.81747e-07
1.01899e-16
1.37445e-06
-2.69315e-15
1.76715e-06
-7.44272e-15
2.15984e-06
-3.25972e-15
2.55254e-06
2.94524e-06
2.79787e-15
1.16461e-16
9.81747e-07
-1.86333e-16
1.37445e-06
1.56231e-15
1.76715e-06
4.21257e-15
2.15984e-06
7.4985e-15
2.55254e-06
2.94524e-06
-7.72288e-16
-1.85116e-18
9.81747e-07
3.88834e-16
1.37445e-06
2.60417e-15
1.76715e-06
-1.94355e-15
2.15984e-06
-8.06626e-15
2.55254e-06
2.94524e-06
9.02991e-15
-1.36951e-16
-2.42065e-16
-3.76912e-16
1.33931e-15
3.6814e-15
-5.95105e-15
-1.13359e-14
4.53785e-06
-4.53785e-06
-4.81097e-16
5.23599e-06
-5.23599e-06
-5.35707e-15
5.93412e-06
-5.93412e-06
-1.13032e-14
6.63225e-06
-6.63225e-06
4.86952e-15
7.33038e-06
-7.33038e-06
-1.11003e-15
8.02851e-06
-8.02851e-06
-8.15882e-15
8.72664e-06
-8.72664e-06
1.30443e-14
9.42478e-06
-9.42478e-06
5.95037e-15
1.01229e-05
-1.01229e-05
-1.99639e-15
1.0821e-05
-1.0821e-05
2.43875e-14
1.15192e-05
-1.15192e-05
1.61908e-14
1.22173e-05
-1.22173e-05
-3.27864e-14
1.29154e-05
-1.29154e-05
-3.0548e-15
1.36136e-05
-1.36136e-05
-1.44424e-14
1.43117e-05
-1.43117e-05
-2.69013e-14
1.50098e-05
-1.50098e-05
7.73838e-15
1.5708e-05
-1.5708e-05
-4.43784e-15
1.64061e-05
-1.64061e-05
-1.80002e-14
1.71042e-05
-1.71042e-05
2.18186e-14
1.78024e-05
-1.78024e-05
8.2131e-15
1.85005e-05
-1.85005e-05
-6.07996e-15
1.91986e-05
-1.91986e-05
3.89209e-14
1.98967e-05
-1.98967e-05
2.05949e-05
-2.05949e-05
9.39898e-15
4.53785e-06
5.20394e-16
5.23599e-06
7.52834e-15
5.93412e-06
-4.41117e-15
6.63225e-06
3.78375e-15
7.33038e-06
1.33854e-14
8.02851e-06
-2.11052e-15
8.72664e-06
8.52886e-15
9.42478e-06
-1.00261e-14
1.01229e-05
1.86634e-15
1.0821e-05
-2.02015e-14
1.15192e-05
-7.01159e-15
1.22173e-05
7.5111e-15
1.29154e-05
2.36087e-14
1.36136e-05
-2.0416e-15
1.43117e-05
1.48316e-14
1.50098e-05
-1.38811e-14
1.5708e-05
2.39008e-15
1.64061e-05
2.04093e-14
1.71042e-05
-7.01271e-15
1.78024e-05
1.20685e-14
1.85005e-05
-2.59375e-14
1.91986e-05
1.84893e-15
1.98967e-05
2.05949e-05
-8.67619e-15
4.53785e-06
1.22921e-14
5.23599e-06
1.88324e-15
5.93412e-06
8.9023e-15
6.63225e-06
-5.10809e-15
7.33038e-06
-2.19906e-14
8.02851e-06
1.22645e-14
8.72664e-06
-5.37436e-15
9.42478e-06
4.45608e-15
1.01229e-05
-1.43046e-14
1.0821e-05
-7.32547e-15
1.15192e-05
7.04101e-15
1.22173e-05
2.39959e-14
1.29154e-05
-7.55646e-15
1.36136e-05
9.80051e-15
1.43117e-05
-1.62378e-14
1.50098e-05
4.02934e-14
1.5708e-05
1.44478e-14
1.64061e-05
-1.37016e-14
1.71042e-05
-7.89553e-15
1.78024e-05
-3.92502e-14
1.85005e-05
4.27549e-14
1.91986e-05
-8.85084e-15
1.98967e-05
2.05949e-05
5.98596e-15
4.53785e-06
2.19102e-16
5.23599e-06
-6.43579e-15
5.93412e-06
6.0636e-15
6.63225e-06
-2.09277e-15
7.33038e-06
1.61764e-14
8.02851e-06
-1.88313e-14
8.72664e-06
-2.3499e-15
9.42478e-06
9.17313e-15
1.01229e-05
-4.71113e-15
1.0821e-05
2.16275e-14
1.15192e-05
-2.96442e-14
1.22173e-05
-9.28923e-15
1.29154e-05
-1.89065e-14
1.36136e-05
4.46615e-15
1.43117e-05
3.01551e-14
1.50098e-05
-2.6214e-14
1.5708e-05
4.38036e-16
1.64061e-05
-2.11698e-14
1.71042e-05
1.87119e-14
1.78024e-05
-3.9201e-15
1.85005e-05
-2.91571e-14
1.91986e-05
1.52319e-14
1.98967e-05
2.05949e-05
6.71526e-15
4.53785e-06
-7.30662e-15
5.23599e-06
1.1101e-14
5.93412e-06
-4.24127e-15
6.63225e-06
1.51023e-14
7.33038e-06
-5.20911e-15
8.02851e-06
1.70133e-14
8.72664e-06
-3.9395e-15
9.42478e-06
-2.9353e-16
1.01229e-05
6.61007e-15
1.0821e-05
1.37062e-14
1.15192e-05
1.01844e-14
1.22173e-05
1.82192e-14
1.29154e-05
1.43717e-14
1.36136e-05
2.33373e-14
1.43117e-05
-2.53435e-14
1.50098e-05
2.90751e-14
1.5708e-05
-7.82901e-15
1.64061e-05
3.54177e-14
1.71042e-05
-4.51155e-15
1.78024e-05
4.23717e-14
1.85005e-05
-5.80128e-16
1.91986e-05
-8.73145e-15
1.98967e-05
2.05949e-05
-4.63065e-15
4.53785e-06
5.79745e-15
5.23599e-06
-1.61503e-14
5.93412e-06
-5.97417e-15
6.63225e-06
-8.55441e-15
7.33038e-06
4.22404e-15
8.02851e-06
-8.18663e-15
8.72664e-06
7.00022e-15
9.42478e-06
-2.42287e-14
1.01229e-05
-7.76929e-15
1.0821e-05
-2.27654e-14
1.15192e-05
8.35044e-15
1.22173e-05
-7.40275e-15
1.29154e-05
2.82666e-14
1.36136e-05
-4.57095e-14
1.43117e-05
-8.22176e-15
1.50098e-05
-2.82228e-14
1.5708e-05
-2.33874e-15
1.64061e-05
-6.94231e-15
1.71042e-05
2.21493e-14
1.78024e-05
-3.41069e-14
1.85005e-05
-3.73821e-15
1.91986e-05
-3.23436e-14
1.98967e-05
2.05949e-05
-8.92497e-15
4.53785e-06
-2.28898e-15
5.23599e-06
-2.22404e-15
5.93412e-06
6.6164e-15
6.63225e-06
-3.38805e-15
7.33038e-06
-3.90705e-15
8.02851e-06
-6.41831e-15
8.72664e-06
-7.15807e-15
9.42478e-06
6.81058e-15
1.01229e-05
6.98226e-15
1.0821e-05
-9.06527e-15
1.15192e-05
6.75999e-15
1.22173e-05
-2.88879e-14
1.29154e-05
-1.22318e-14
1.36136e-05
4.80545e-15
1.43117e-05
2.50266e-14
1.50098e-05
3.86485e-15
1.5708e-05
3.60839e-15
1.64061e-05
-2.04811e-14
1.71042e-05
-2.1759e-14
1.78024e-05
3.46971e-15
1.85005e-05
2.90425e-14
1.91986e-05
-1.659e-15
1.98967e-05
2.05949e-05
6.2158e-15
4.53785e-06
-3.87927e-15
5.23599e-06
1.54223e-14
5.93412e-06
-7.06471e-15
6.63225e-06
-2.2108e-15
7.33038e-06
1.42943e-15
8.02851e-06
-5.4927e-15
8.72664e-06
1.32269e-14
9.42478e-06
6.04635e-15
1.01229e-05
-1.74503e-14
1.0821e-05
2.08868e-14
1.15192e-05
-2.14447e-14
1.22173e-05
1.91358e-14
1.29154e-05
-7.3145e-15
1.36136e-05
3.8488e-14
1.43117e-05
-1.29214e-14
1.50098e-05
-1.8816e-15
1.5708e-05
5.71772e-15
1.64061e-05
-7.58676e-15
1.71042e-05
2.76588e-14
1.78024e-05
1.41004e-14
1.85005e-05
-5.31415e-14
1.91986e-05
3.90868e-14
1.98967e-05
2.05949e-05
-1.49896e-15
4.53785e-06
1.08971e-14
5.23599e-06
-6.59933e-15
5.93412e-06
7.2656e-15
6.63225e-06
6.17504e-15
7.33038e-06
2.48842e-15
8.02851e-06
-9.64492e-16
8.72664e-06
-4.36597e-15
9.42478e-06
-8.9003e-15
1.01229e-05
1.38636e-14
1.0821e-05
1.06904e-14
1.15192e-05
6.25094e-15
1.22173e-05
-1.26667e-16
1.29154e-05
-3.43851e-15
1.36136e-05
-1.10429e-14
1.43117e-05
-1.77633e-14
1.50098e-05
1.76825e-14
1.5708e-05
9.95366e-15
1.64061e-05
3.32821e-15
1.71042e-05
-3.29674e-14
1.78024e-05
-1.04195e-14
1.85005e-05
3.00671e-14
1.91986e-05
-5.99948e-14
1.98967e-05
2.05949e-05
5.17009e-15
4.53785e-06
-7.4556e-15
5.23599e-06
-7.57172e-16
5.93412e-06
6.83961e-15
6.63225e-06
-9.9742e-15
7.33038e-06
-1.66416e-15
8.02851e-06
9.21984e-15
8.72664e-06
-1.34594e-14
9.42478e-06
2.32208e-14
1.01229e-05
1.04724e-14
1.0821e-05
-1.72728e-14
1.15192e-05
-3.02869e-15
1.22173e-05
1.13961e-14
1.29154e-05
-1.9817e-14
1.36136e-05
-4.67831e-15
1.43117e-05
5.0307e-14
1.50098e-05
-2.40438e-14
1.5708e-05
-6.65664e-15
1.64061e-05
1.42611e-14
1.71042e-05
1.64794e-15
1.78024e-05
-6.81094e-15
1.85005e-05
1.4441e-14
1.91986e-05
5.07564e-14
1.98967e-05
2.05949e-05
-6.19732e-15
4.53785e-06
2.85058e-17
5.23599e-06
1.15116e-14
5.93412e-06
-2.06259e-14
6.63225e-06
5.36704e-15
7.33038e-06
1.22197e-15
8.02851e-06
-4.69832e-17
8.72664e-06
1.23936e-14
9.42478e-06
-1.32274e-14
1.01229e-05
-1.88936e-14
1.0821e-05
-4.96441e-15
1.15192e-05
-7.15306e-15
1.22173e-05
-1.48852e-14
1.29154e-05
3.53383e-14
1.36136e-05
-5.85796e-19
1.43117e-05
-4.31373e-14
1.50098e-05
1.35645e-14
1.5708e-05
-2.82562e-14
1.64061e-05
2.45502e-15
1.71042e-05
-1.02406e-14
1.78024e-05
2.38054e-14
1.85005e-05
1.38739e-14
1.91986e-05
-4.55614e-14
1.98967e-05
2.05949e-05
-1.90662e-15
4.53785e-06
1.13073e-15
5.23599e-06
-2.16621e-14
5.93412e-06
9.62421e-15
6.63225e-06
1.51375e-14
7.33038e-06
-1.40659e-14
8.02851e-06
8.09239e-15
8.72664e-06
-2.69593e-14
9.42478e-06
-1.96569e-15
1.01229e-05
2.97168e-14
1.0821e-05
-1.17445e-14
1.15192e-05
1.98681e-14
1.22173e-05
-2.74447e-14
1.29154e-05
-2.06157e-14
1.36136e-05
1.60415e-14
1.43117e-05
-4.61141e-15
1.50098e-05
4.69369e-15
1.5708e-05
4.79694e-14
1.64061e-05
-1.37398e-14
1.71042e-05
3.23696e-14
1.78024e-05
-3.51806e-14
1.85005e-05
-2.49047e-14
1.91986e-05
7.19173e-14
1.98967e-05
2.05949e-05
1.90659e-15
4.53785e-06
-1.13037e-15
5.23599e-06
2.16619e-14
5.93412e-06
-9.62381e-15
6.63225e-06
-1.51375e-14
7.33038e-06
1.40654e-14
8.02851e-06
-8.09296e-15
8.72664e-06
2.69593e-14
9.42478e-06
1.9662e-15
1.01229e-05
-2.97169e-14
1.0821e-05
1.17453e-14
1.15192e-05
-1.98656e-14
1.22173e-05
2.74437e-14
1.29154e-05
2.06156e-14
1.36136e-05
-1.60402e-14
1.43117e-05
4.61431e-15
1.50098e-05
-4.69043e-15
1.5708e-05
-4.7965e-14
1.64061e-05
1.37398e-14
1.71042e-05
-3.23719e-14
1.78024e-05
3.51868e-14
1.85005e-05
2.4904e-14
1.91986e-05
-7.19169e-14
1.98967e-05
2.05949e-05
6.19696e-15
4.53785e-06
-2.81566e-17
5.23599e-06
-1.15115e-14
5.93412e-06
2.0626e-14
6.63225e-06
-5.36708e-15
7.33038e-06
-1.22148e-15
8.02851e-06
4.77234e-17
8.72664e-06
-1.23941e-14
9.42478e-06
1.32268e-14
1.01229e-05
1.88946e-14
1.0821e-05
4.96285e-15
1.15192e-05
7.15432e-15
1.22173e-05
1.48867e-14
1.29154e-05
-3.5339e-14
1.36136e-05
3.04506e-18
1.43117e-05
4.31386e-14
1.50098e-05
-1.35625e-14
1.5708e-05
2.82567e-14
1.64061e-05
-2.45064e-15
1.71042e-05
1.02405e-14
1.78024e-05
-2.38074e-14
1.85005e-05
-1.38767e-14
1.91986e-05
4.55642e-14
1.98967e-05
2.05949e-05
-5.17042e-15
4.53785e-06
7.45568e-15
5.23599e-06
7.56833e-16
5.93412e-06
-6.83969e-15
6.63225e-06
9.97367e-15
7.33038e-06
1.66507e-15
8.02851e-06
-9.21847e-15
8.72664e-06
1.34575e-14
9.42478e-06
-2.32221e-14
1.01229e-05
-1.04729e-14
1.0821e-05
1.72718e-14
1.15192e-05
3.02733e-15
1.22173e-05
-1.1398e-14
1.29154e-05
1.98167e-14
1.36136e-05
4.67941e-15
1.43117e-05
-5.03028e-14
1.50098e-05
2.40477e-14
1.5708e-05
6.66026e-15
1.64061e-05
-1.42603e-14
1.71042e-05
-1.65064e-15
1.78024e-05
6.81123e-15
1.85005e-05
-1.44423e-14
1.91986e-05
-5.07516e-14
1.98967e-05
2.05949e-05
1.49849e-15
4.53785e-06
-1.0897e-14
5.23599e-06
6.59965e-15
5.93412e-06
-7.26593e-15
6.63225e-06
-6.17546e-15
7.33038e-06
-2.48768e-15
8.02851e-06
9.65846e-16
8.72664e-06
4.3643e-15
9.42478e-06
8.90132e-15
1.01229e-05
-1.38636e-14
1.0821e-05
-1.06912e-14
1.15192e-05
-6.25002e-15
1.22173e-05
1.27545e-16
1.29154e-05
3.43965e-15
1.36136e-05
1.10438e-14
1.43117e-05
1.7764e-14
1.50098e-05
-1.76814e-14
1.5708e-05
-9.95071e-15
1.64061e-05
-3.32883e-15
1.71042e-05
3.29673e-14
1.78024e-05
1.04208e-14
1.85005e-05
-3.00662e-14
1.91986e-05
5.99971e-14
1.98967e-05
2.05949e-05
-6.21555e-15
4.53785e-06
3.87921e-15
5.23599e-06
-1.54219e-14
5.93412e-06
7.06479e-15
6.63225e-06
2.20979e-15
7.33038e-06
-1.42848e-15
8.02851e-06
5.49421e-15
8.72664e-06
-1.32255e-14
9.42478e-06
-6.04618e-15
1.01229e-05
1.74512e-14
1.0821e-05
-2.08864e-14
1.15192e-05
2.14445e-14
1.22173e-05
-1.91345e-14
1.29154e-05
7.31737e-15
1.36136e-05
-3.84875e-14
1.43117e-05
1.29223e-14
1.50098e-05
1.88154e-15
1.5708e-05
-5.71393e-15
1.64061e-05
7.587e-15
1.71042e-05
-2.76591e-14
1.78024e-05
-1.40993e-14
1.85005e-05
5.31395e-14
1.91986e-05
-3.90829e-14
1.98967e-05
2.05949e-05
8.92531e-15
4.53785e-06
2.28932e-15
5.23599e-06
2.22389e-15
5.93412e-06
-6.6163e-15
6.63225e-06
3.38757e-15
7.33038e-06
3.90695e-15
8.02851e-06
6.41931e-15
8.72664e-06
7.15896e-15
9.42478e-06
-6.80933e-15
1.01229e-05
-6.98226e-15
1.0821e-05
9.0644e-15
1.15192e-05
-6.75988e-15
1.22173e-05
2.88894e-14
1.29154e-05
1.22325e-14
1.36136e-05
-4.80261e-15
1.43117e-05
-2.50242e-14
1.50098e-05
-3.86156e-15
1.5708e-05
-3.60715e-15
1.64061e-05
2.04854e-14
1.71042e-05
2.17666e-14
1.78024e-05
-3.46688e-15
1.85005e-05
-2.90408e-14
1.91986e-05
1.66037e-15
1.98967e-05
2.05949e-05
4.63034e-15
4.53785e-06
-5.79752e-15
5.23599e-06
1.61505e-14
5.93412e-06
5.97444e-15
6.63225e-06
8.55478e-15
7.33038e-06
-4.22433e-15
8.02851e-06
8.1868e-15
8.72664e-06
-6.99833e-15
9.42478e-06
2.42296e-14
1.01229e-05
7.76951e-15
1.0821e-05
2.27646e-14
1.15192e-05
-8.34849e-15
1.22173e-05
7.40379e-15
1.29154e-05
-2.82669e-14
1.36136e-05
4.57112e-14
1.43117e-05
8.22204e-15
1.50098e-05
2.82295e-14
1.5708e-05
2.33683e-15
1.64061e-05
6.94192e-15
1.71042e-05
-2.21451e-14
1.78024e-05
3.41126e-14
1.85005e-05
3.74145e-15
1.91986e-05
3.23438e-14
1.98967e-05
2.05949e-05
-6.71494e-15
4.53785e-06
7.3065e-15
5.23599e-06
-1.11009e-14
5.93412e-06
4.24082e-15
6.63225e-06
-1.51025e-14
7.33038e-06
5.20863e-15
8.02851e-06
-1.70131e-14
8.72664e-06
3.94086e-15
9.42478e-06
2.93493e-16
1.01229e-05
-6.611e-15
1.0821e-05
-1.37042e-14
1.15192e-05
-1.01849e-14
1.22173e-05
-1.82175e-14
1.29154e-05
-1.43669e-14
1.36136e-05
-2.33417e-14
1.43117e-05
2.53431e-14
1.50098e-05
-2.90731e-14
1.5708e-05
7.82686e-15
1.64061e-05
-3.54171e-14
1.71042e-05
4.51303e-15
1.78024e-05
-4.23704e-14
1.85005e-05
5.86307e-16
1.91986e-05
8.73126e-15
1.98967e-05
2.05949e-05
-5.9859e-15
4.53785e-06
-2.18968e-16
5.23599e-06
6.43552e-15
5.93412e-06
-6.06445e-15
6.63225e-06
2.09269e-15
7.33038e-06
-1.61761e-14
8.02851e-06
1.8831e-14
8.72664e-06
2.35097e-15
9.42478e-06
-9.17305e-15
1.01229e-05
4.71031e-15
1.0821e-05
-2.1628e-14
1.15192e-05
2.96443e-14
1.22173e-05
9.29088e-15
1.29154e-05
1.89091e-14
1.36136e-05
-4.46545e-15
1.43117e-05
-3.01549e-14
1.50098e-05
2.62142e-14
1.5708e-05
-4.35358e-16
1.64061e-05
2.11746e-14
1.71042e-05
-1.87141e-14
1.78024e-05
3.92181e-15
1.85005e-05
2.91615e-14
1.91986e-05
-1.52329e-14
1.98967e-05
2.05949e-05
8.67592e-15
4.53785e-06
-1.22927e-14
5.23599e-06
-1.88304e-15
5.93412e-06
-8.90242e-15
6.63225e-06
5.10852e-15
7.33038e-06
2.19911e-14
8.02851e-06
-1.22643e-14
8.72664e-06
5.37512e-15
9.42478e-06
-4.45599e-15
1.01229e-05
1.43054e-14
1.0821e-05
7.32532e-15
1.15192e-05
-7.04015e-15
1.22173e-05
-2.39976e-14
1.29154e-05
7.5537e-15
1.36136e-05
-9.79998e-15
1.43117e-05
1.62385e-14
1.50098e-05
-4.02936e-14
1.5708e-05
-1.44465e-14
1.64061e-05
1.37031e-14
1.71042e-05
7.89398e-15
1.78024e-05
3.92534e-14
1.85005e-05
-4.27515e-14
1.91986e-05
8.85201e-15
1.98967e-05
2.05949e-05
-9.39919e-15
4.53785e-06
-5.20029e-16
5.23599e-06
-7.52836e-15
5.93412e-06
4.41203e-15
6.63225e-06
-3.78372e-15
7.33038e-06
-1.33846e-14
8.02851e-06
2.10997e-15
8.72664e-06
-8.5274e-15
9.42478e-06
1.00281e-14
1.01229e-05
-1.86588e-15
1.0821e-05
2.02026e-14
1.15192e-05
7.01445e-15
1.22173e-05
-7.51322e-15
1.29154e-05
-2.36107e-14
1.36136e-05
2.0423e-15
1.43117e-05
-1.48336e-14
1.50098e-05
1.38801e-14
1.5708e-05
-2.39219e-15
1.64061e-05
-2.04124e-14
1.71042e-05
7.01557e-15
1.78024e-05
-1.20661e-14
1.85005e-05
2.5941e-14
1.91986e-05
-1.84218e-15
1.98967e-05
2.05949e-05
1.1336e-14
4.53785e-06
4.81483e-16
5.23599e-06
5.35736e-15
5.93412e-06
1.13036e-14
6.63225e-06
-4.86921e-15
7.33038e-06
1.1092e-15
8.02851e-06
8.15783e-15
8.72664e-06
-1.30434e-14
9.42478e-06
-5.94869e-15
1.01229e-05
1.99658e-15
1.0821e-05
-2.43871e-14
1.15192e-05
-1.61891e-14
1.22173e-05
3.27848e-14
1.29154e-05
3.05088e-15
1.36136e-05
1.44413e-14
1.43117e-05
2.69022e-14
1.50098e-05
-7.74048e-15
1.5708e-05
4.43679e-15
1.64061e-05
1.80003e-14
1.71042e-05
-2.18234e-14
1.78024e-05
-8.2112e-15
1.85005e-05
6.08556e-15
1.91986e-05
-3.89201e-14
1.98967e-05
2.05949e-05
1.3697e-16
9.81747e-07
2.42089e-16
1.37445e-06
3.76997e-16
1.76715e-06
-1.33932e-15
2.15984e-06
-3.68152e-15
2.55254e-06
2.94524e-06
5.95123e-15
1.83042e-18
9.81747e-07
-3.88781e-16
1.37445e-06
-2.60408e-15
1.76715e-06
1.94361e-15
2.15984e-06
8.06642e-15
2.55254e-06
2.94524e-06
-9.0297e-15
-1.16457e-16
9.81747e-07
1.86388e-16
1.37445e-06
-1.5623e-15
1.76715e-06
-4.21259e-15
2.15984e-06
-7.49845e-15
2.55254e-06
2.94524e-06
7.72335e-16
8.69549e-17
9.81747e-07
-1.01905e-16
1.37445e-06
2.69319e-15
1.76715e-06
7.4428e-15
2.15984e-06
3.25975e-15
2.55254e-06
2.94524e-06
-2.79793e-15
-4.838e-17
9.81747e-07
3.9562e-17
1.37445e-06
1.94275e-16
1.76715e-06
-1.80608e-15
2.15984e-06
-4.20858e-15
2.55254e-06
2.94524e-06
5.01334e-15
-1.801e-16
9.81747e-07
4.29708e-18
1.37445e-06
-1.84782e-15
1.76715e-06
-3.88619e-15
2.15984e-06
3.15696e-15
2.55254e-06
2.94524e-06
4.97932e-16
2.53983e-16
9.81747e-07
2.55426e-16
1.37445e-06
2.0659e-15
1.76715e-06
4.50409e-15
2.15984e-06
-2.31006e-15
2.55254e-06
2.94524e-06
5.40889e-16
2.16846e-17
9.81747e-07
-3.21657e-16
1.37445e-06
-1.14886e-15
1.76715e-06
-5.28566e-15
2.15984e-06
-3.7686e-16
2.55254e-06
2.94524e-06
-5.63977e-15
-1.43396e-16
9.81747e-07
1.66393e-16
1.37445e-06
4.19121e-15
1.76715e-06
6.34936e-15
2.15984e-06
-8.05669e-16
2.55254e-06
2.94524e-06
8.39268e-16
-6.88019e-17
9.81747e-07
-9.20156e-17
1.37445e-06
-2.76933e-15
1.76715e-06
-3.68861e-16
2.15984e-06
-1.45085e-15
2.55254e-06
2.94524e-06
-1.76616e-16
1.66331e-16
9.81747e-07
-8.86672e-17
1.37445e-06
5.69672e-16
1.76715e-06
-2.10357e-15
2.15984e-06
9.66004e-15
2.55254e-06
2.94524e-06
5.29004e-15
-1.778e-16
9.81747e-07
-2.0488e-17
1.37445e-06
-3.45458e-16
1.76715e-06
-4.17273e-15
2.15984e-06
-2.62224e-15
2.55254e-06
2.94524e-06
5.36948e-15
1.77791e-16
9.81747e-07
2.05043e-17
1.37445e-06
3.45414e-16
1.76715e-06
4.17266e-15
2.15984e-06
2.62246e-15
2.55254e-06
2.94524e-06
-5.36945e-15
-1.66314e-16
9.81747e-07
8.86834e-17
1.37445e-06
-5.69648e-16
1.76715e-06
2.10352e-15
2.15984e-06
-9.65989e-15
2.55254e-06
2.94524e-06
-5.29019e-15
6.87837e-17
9.81747e-07
9.20709e-17
1.37445e-06
2.76939e-15
1.76715e-06
3.68715e-16
2.15984e-06
1.45082e-15
2.55254e-06
2.94524e-06
1.767e-16
1.43383e-16
9.81747e-07
-1.66389e-16
1.37445e-06
-4.19116e-15
1.76715e-06
-6.34949e-15
2.15984e-06
8.05547e-16
2.55254e-06
2.94524e-06
-8.39046e-16
-2.16496e-17
9.81747e-07
3.21671e-16
1.37445e-06
1.14887e-15
1.76715e-06
5.28562e-15
2.15984e-06
3.76786e-16
2.55254e-06
2.94524e-06
5.63994e-15
-2.53985e-16
9.81747e-07
-2.55413e-16
1.37445e-06
-2.06603e-15
1.76715e-06
-4.50411e-15
2.15984e-06
2.30997e-15
2.55254e-06
2.94524e-06
-5.4075e-16
1.80062e-16
9.81747e-07
-4.31539e-18
1.37445e-06
1.84778e-15
1.76715e-06
3.88615e-15
2.15984e-06
-3.1571e-15
2.55254e-06
2.94524e-06
-4.98015e-16
4.83592e-17
9.81747e-07
-3.95288e-17
1.37445e-06
-1.94378e-16
1.76715e-06
1.80618e-15
2.15984e-06
4.20842e-15
2.55254e-06
2.94524e-06
-5.01339e-15
-8.69418e-17
9.81747e-07
1.01899e-16
1.37445e-06
-2.69315e-15
1.76715e-06
-7.44272e-15
2.15984e-06
-3.25972e-15
2.55254e-06
2.94524e-06
2.79787e-15
1.16461e-16
9.81747e-07
-1.86333e-16
1.37445e-06
1.56231e-15
1.76715e-06
4.21257e-15
2.15984e-06
7.4985e-15
2.55254e-06
2.94524e-06
-7.72288e-16
-1.85116e-18
9.81747e-07
3.88834e-16
1.37445e-06
2.60417e-15
1.76715e-06
-1.94355e-15
2.15984e-06
-8.06626e-15
2.55254e-06
2.94524e-06
9.02991e-15
-1.36958e-16
-2.42066e-16
-3.76958e-16
1.33931e-15
3.68154e-15
-5.95119e-15
-1.13359e-14
4.53785e-06
-4.81202e-16
5.23599e-06
-5.3573e-15
5.93412e-06
-1.13037e-14
6.63225e-06
4.87004e-15
7.33038e-06
-1.10887e-15
8.02851e-06
-8.1588e-15
8.72664e-06
1.30446e-14
9.42478e-06
5.94967e-15
1.01229e-05
-1.99605e-15
1.0821e-05
2.43871e-14
1.15192e-05
1.619e-14
1.22173e-05
-3.27859e-14
1.29154e-05
-3.05287e-15
1.36136e-05
-1.44424e-14
1.43117e-05
-2.69013e-14
1.50098e-05
7.73617e-15
1.5708e-05
-4.43549e-15
1.64061e-05
-1.80026e-14
1.71042e-05
2.1816e-14
1.78024e-05
8.2119e-15
1.85005e-05
-6.07974e-15
1.91986e-05
3.89209e-14
1.98967e-05
2.05949e-05
9.39898e-15
4.53785e-06
5.20394e-16
5.23599e-06
7.52834e-15
5.93412e-06
-4.41117e-15
6.63225e-06
3.78375e-15
7.33038e-06
1.33854e-14
8.02851e-06
-2.11052e-15
8.72664e-06
8.52886e-15
9.42478e-06
-1.00261e-14
1.01229e-05
1.86634e-15
1.0821e-05
-2.02015e-14
1.15192e-05
-7.01159e-15
1.22173e-05
7.5111e-15
1.29154e-05
2.36087e-14
1.36136e-05
-2.0416e-15
1.43117e-05
1.48316e-14
1.50098e-05
-1.38811e-14
1.5708e-05
2.39008e-15
1.64061e-05
2.04093e-14
1.71042e-05
-7.01271e-15
1.78024e-05
1.20685e-14
1.85005e-05
-2.59375e-14
1.91986e-05
1.84893e-15
1.98967e-05
2.05949e-05
-8.67619e-15
4.53785e-06
1.22921e-14
5.23599e-06
1.88324e-15
5.93412e-06
8.9023e-15
6.63225e-06
-5.10809e-15
7.33038e-06
-2.19906e-14
8.02851e-06
1.22645e-14
8.72664e-06
-5.37436e-15
9.42478e-06
4.45608e-15
1.01229e-05
-1.43046e-14
1.0821e-05
-7.32547e-15
1.15192e-05
7.04101e-15
1.22173e-05
2.39959e-14
1.29154e-05
-7.55646e-15
1.36136e-05
9.80051e-15
1.43117e-05
-1.62378e-14
1.50098e-05
4.02934e-14
1.5708e-05
1.44478e-14
1.64061e-05
-1.37016e-14
1.71042e-05
-7.89553e-15
1.78024e-05
-3.92502e-14
1.85005e-05
4.27549e-14
1.91986e-05
-8.85084e-15
1.98967e-05
2.05949e-05
5.98596e-15
4.53785e-06
2.19102e-16
5.23599e-06
-6.43579e-15
5.93412e-06
6.0636e-15
6.63225e-06
-2.09277e-15
7.33038e-06
1.61764e-14
8.02851e-06
-1.88313e-14
8.72664e-06
-2.3499e-15
9.42478e-06
9.17313e-15
1.01229e-05
-4.71113e-15
1.0821e-05
2.16275e-14
1.15192e-05
-2.96442e-14
1.22173e-05
-9.28923e-15
1.29154e-05
-1.89065e-14
1.36136e-05
4.46615e-15
1.43117e-05
3.01551e-14
1.50098e-05
-2.6214e-14
1.5708e-05
4.38036e-16
1.64061e-05
-2.11698e-14
1.71042e-05
1.87119e-14
1.78024e-05
-3.9201e-15
1.85005e-05
-2.91571e-14
1.91986e-05
1.52319e-14
1.98967e-05
2.05949e-05
6.71526e-15
4.53785e-06
-7.30662e-15
5.23599e-06
1.1101e-14
5.93412e-06
-4.24127e-15
6.63225e-06
1.51023e-14
7.33038e-06
-5.20911e-15
8.02851e-06
1.70133e-14
8.72664e-06
-3.9395e-15
9.42478e-06
-2.9353e-16
1.01229e-05
6.61007e-15
1.0821e-05
1.37062e-14
1.15192e-05
1.01844e-14
1.22173e-05
1.82192e-14
1.29154e-05
1.43717e-14
1.36136e-05
2.33373e-14
1.43117e-05
-2.53435e-14
1.50098e-05
2.90751e-14
1.5708e-05
-7.82901e-15
1.64061e-05
3.54177e-14
1.71042e-05
-4.51155e-15
1.78024e-05
4.23717e-14
1.85005e-05
-5.80128e-16
1.91986e-05
-8.73145e-15
1.98967e-05
2.05949e-05
-4.63065e-15
4.53785e-06
5.79745e-15
5.23599e-06
-1.61503e-14
5.93412e-06
-5.97417e-15
6.63225e-06
-8.55441e-15
7.33038e-06
4.22404e-15
8.02851e-06
-8.18663e-15
8.72664e-06
7.00022e-15
9.42478e-06
-2.42287e-14
1.01229e-05
-7.76929e-15
1.0821e-05
-2.27654e-14
1.15192e-05
8.35044e-15
1.22173e-05
-7.40275e-15
1.29154e-05
2.82666e-14
1.36136e-05
-4.57095e-14
1.43117e-05
-8.22176e-15
1.50098e-05
-2.82228e-14
1.5708e-05
-2.33874e-15
1.64061e-05
-6.94231e-15
1.71042e-05
2.21493e-14
1.78024e-05
-3.41069e-14
1.85005e-05
-3.73821e-15
1.91986e-05
-3.23436e-14
1.98967e-05
2.05949e-05
-8.92497e-15
4.53785e-06
-2.28898e-15
5.23599e-06
-2.22404e-15
5.93412e-06
6.6164e-15
6.63225e-06
-3.38805e-15
7.33038e-06
-3.90705e-15
8.02851e-06
-6.41831e-15
8.72664e-06
-7.15807e-15
9.42478e-06
6.81058e-15
1.01229e-05
6.98226e-15
1.0821e-05
-9.06527e-15
1.15192e-05
6.75999e-15
1.22173e-05
-2.88879e-14
1.29154e-05
-1.22318e-14
1.36136e-05
4.80545e-15
1.43117e-05
2.50266e-14
1.50098e-05
3.86485e-15
1.5708e-05
3.60839e-15
1.64061e-05
-2.04811e-14
1.71042e-05
-2.1759e-14
1.78024e-05
3.46971e-15
1.85005e-05
2.90425e-14
1.91986e-05
-1.659e-15
1.98967e-05
2.05949e-05
6.2158e-15
4.53785e-06
-3.87927e-15
5.23599e-06
1.54223e-14
5.93412e-06
-7.06471e-15
6.63225e-06
-2.2108e-15
7.33038e-06
1.42943e-15
8.02851e-06
-5.4927e-15
8.72664e-06
1.32269e-14
9.42478e-06
6.04635e-15
1.01229e-05
-1.74503e-14
1.0821e-05
2.08868e-14
1.15192e-05
-2.14447e-14
1.22173e-05
1.91358e-14
1.29154e-05
-7.3145e-15
1.36136e-05
3.8488e-14
1.43117e-05
-1.29214e-14
1.50098e-05
-1.8816e-15
1.5708e-05
5.71772e-15
1.64061e-05
-7.58676e-15
1.71042e-05
2.76588e-14
1.78024e-05
1.41004e-14
1.85005e-05
-5.31415e-14
1.91986e-05
3.90868e-14
1.98967e-05
2.05949e-05
-1.49896e-15
4.53785e-06
1.08971e-14
5.23599e-06
-6.59933e-15
5.93412e-06
7.2656e-15
6.63225e-06
6.17504e-15
7.33038e-06
2.48842e-15
8.02851e-06
-9.64492e-16
8.72664e-06
-4.36597e-15
9.42478e-06
-8.9003e-15
1.01229e-05
1.38636e-14
1.0821e-05
1.06904e-14
1.15192e-05
6.25094e-15
1.22173e-05
-1.26667e-16
1.29154e-05
-3.43851e-15
1.36136e-05
-1.10429e-14
1.43117e-05
-1.77633e-14
1.50098e-05
1.76825e-14
1.5708e-05
9.95366e-15
1.64061e-05
3.32821e-15
1.71042e-05
-3.29674e-14
1.78024e-05
-1.04195e-14
1.85005e-05
3.00671e-14
1.91986e-05
-5.99948e-14
1.98967e-05
2.05949e-05
5.17009e-15
4.53785e-06
-7.4556e-15
5.23599e-06
-7.57172e-16
5.93412e-06
6.83961e-15
6.63225e-06
-9.9742e-15
7.33038e-06
-1.66416e-15
8.02851e-06
9.21984e-15
8.72664e-06
-1.34594e-14
9.42478e-06
2.32208e-14
1.01229e-05
1.04724e-14
1.0821e-05
-1.72728e-14
1.15192e-05
-3.02869e-15
1.22173e-05
1.13961e-14
1.29154e-05
-1.9817e-14
1.36136e-05
-4.67831e-15
1.43117e-05
5.0307e-14
1.50098e-05
-2.40438e-14
1.5708e-05
-6.65664e-15
1.64061e-05
1.42611e-14
1.71042e-05
1.64794e-15
1.78024e-05
-6.81094e-15
1.85005e-05
1.4441e-14
1.91986e-05
5.07564e-14
1.98967e-05
2.05949e-05
-6.19732e-15
4.53785e-06
2.85058e-17
5.23599e-06
1.15116e-14
5.93412e-06
-2.06259e-14
6.63225e-06
5.36704e-15
7.33038e-06
1.22197e-15
8.02851e-06
-4.69832e-17
8.72664e-06
1.23936e-14
9.42478e-06
-1.32274e-14
1.01229e-05
-1.88936e-14
1.0821e-05
-4.96441e-15
1.15192e-05
-7.15306e-15
1.22173e-05
-1.48852e-14
1.29154e-05
3.53383e-14
1.36136e-05
-5.85796e-19
1.43117e-05
-4.31373e-14
1.50098e-05
1.35645e-14
1.5708e-05
-2.82562e-14
1.64061e-05
2.45502e-15
1.71042e-05
-1.02406e-14
1.78024e-05
2.38054e-14
1.85005e-05
1.38739e-14
1.91986e-05
-4.55614e-14
1.98967e-05
2.05949e-05
-1.90662e-15
4.53785e-06
1.13073e-15
5.23599e-06
-2.16621e-14
5.93412e-06
9.62421e-15
6.63225e-06
1.51375e-14
7.33038e-06
-1.40659e-14
8.02851e-06
8.09239e-15
8.72664e-06
-2.69593e-14
9.42478e-06
-1.96569e-15
1.01229e-05
2.97168e-14
1.0821e-05
-1.17445e-14
1.15192e-05
1.98681e-14
1.22173e-05
-2.74447e-14
1.29154e-05
-2.06157e-14
1.36136e-05
1.60415e-14
1.43117e-05
-4.61141e-15
1.50098e-05
4.69369e-15
1.5708e-05
4.79694e-14
1.64061e-05
-1.37398e-14
1.71042e-05
3.23696e-14
1.78024e-05
-3.51806e-14
1.85005e-05
-2.49047e-14
1.91986e-05
7.19173e-14
1.98967e-05
2.05949e-05
1.90659e-15
4.53785e-06
-1.13037e-15
5.23599e-06
2.16619e-14
5.93412e-06
-9.62381e-15
6.63225e-06
-1.51375e-14
7.33038e-06
1.40654e-14
8.02851e-06
-8.09296e-15
8.72664e-06
2.69593e-14
9.42478e-06
1.9662e-15
1.01229e-05
-2.97169e-14
1.0821e-05
1.17453e-14
1.15192e-05
-1.98656e-14
1.22173e-05
2.74437e-14
1.29154e-05
2.06156e-14
1.36136e-05
-1.60402e-14
1.43117e-05
4.61431e-15
1.50098e-05
-4.69043e-15
1.5708e-05
-4.7965e-14
1.64061e-05
1.37398e-14
1.71042e-05
-3.23719e-14
1.78024e-05
3.51868e-14
1.85005e-05
2.4904e-14
1.91986e-05
-7.19169e-14
1.98967e-05
2.05949e-05
6.19696e-15
4.53785e-06
-2.81566e-17
5.23599e-06
-1.15115e-14
5.93412e-06
2.0626e-14
6.63225e-06
-5.36708e-15
7.33038e-06
-1.22148e-15
8.02851e-06
4.77234e-17
8.72664e-06
-1.23941e-14
9.42478e-06
1.32268e-14
1.01229e-05
1.88946e-14
1.0821e-05
4.96285e-15
1.15192e-05
7.15432e-15
1.22173e-05
1.48867e-14
1.29154e-05
-3.5339e-14
1.36136e-05
3.04506e-18
1.43117e-05
4.31386e-14
1.50098e-05
-1.35625e-14
1.5708e-05
2.82567e-14
1.64061e-05
-2.45064e-15
1.71042e-05
1.02405e-14
1.78024e-05
-2.38074e-14
1.85005e-05
-1.38767e-14
1.91986e-05
4.55642e-14
1.98967e-05
2.05949e-05
-5.17042e-15
4.53785e-06
7.45568e-15
5.23599e-06
7.56833e-16
5.93412e-06
-6.83969e-15
6.63225e-06
9.97367e-15
7.33038e-06
1.66507e-15
8.02851e-06
-9.21847e-15
8.72664e-06
1.34575e-14
9.42478e-06
-2.32221e-14
1.01229e-05
-1.04729e-14
1.0821e-05
1.72718e-14
1.15192e-05
3.02733e-15
1.22173e-05
-1.1398e-14
1.29154e-05
1.98167e-14
1.36136e-05
4.67941e-15
1.43117e-05
-5.03028e-14
1.50098e-05
2.40477e-14
1.5708e-05
6.66026e-15