/*--------------------------------*- C++ -*----------------------------------*\
  =========                 |
  \\      /  F ield         | OpenFOAM: The Open Source CFD Toolbox
   \\    /   O peration     | Website:  https://openfoam.org
    \\  /    A nd           | Version:  11
     \\/     M anipulation  |
\*---------------------------------------------------------------------------*/
FoamFile
{
    format      ascii;
    class       volScalarField;
    location    "1.28";
    object      p;
}
// * * * * * * * * * * * * * * * * * * * * * * * * * * * * * * * * * * * * * //

dimensions      [0 2 -2 0 0 0 0];

internalField   nonuniform List<scalar> 
2880
(
-0.446864
-0.434204
-0.437207
-0.451749
-0.479049
-0.534677
-0.449026
-0.43776
-0.444238
-0.462593
-0.491204
-0.551041
-0.453759
-0.442542
-0.452953
-0.472416
-0.49786
-0.533809
-0.457384
-0.446171
-0.459095
-0.478858
-0.501278
-0.524395
-0.455333
-0.448392
-0.46337
-0.483145
-0.503743
-0.521594
-0.452291
-0.450298
-0.46663
-0.486535
-0.506435
-0.522456
-0.451499
-0.452866
-0.469523
-0.489532
-0.509365
-0.525189
-0.452926
-0.455745
-0.472186
-0.492239
-0.512285
-0.528799
-0.454424
-0.458614
-0.474575
-0.494639
-0.515026
-0.532591
-0.455791
-0.461323
-0.47661
-0.496679
-0.517468
-0.53618
-0.457027
-0.463761
-0.478217
-0.498292
-0.519538
-0.539373
-0.458106
-0.465835
-0.479343
-0.499442
-0.521175
-0.542031
-0.459005
-0.467501
-0.479973
-0.500074
-0.522291
-0.544113
-0.459715
-0.468761
-0.480079
-0.500135
-0.522827
-0.545624
-0.460256
-0.46961
-0.479607
-0.499668
-0.522784
-0.546583
-0.460707
-0.470044
-0.478604
-0.498734
-0.522179
-0.547188
-0.461176
-0.47009
-0.477227
-0.49736
-0.520967
-0.547541
-0.461569
-0.469818
-0.475649
-0.495624
-0.519071
-0.547489
-0.461736
-0.469338
-0.474072
-0.493644
-0.516409
-0.546896
-0.459607
-0.468944
-0.472783
-0.491616
-0.512945
-0.54554
-0.456826
-0.469217
-0.472155
-0.489917
-0.508743
-0.542336
-0.457769
-0.470608
-0.472805
-0.489123
-0.503819
-0.533435
-0.461383
-0.472805
-0.475224
-0.489284
-0.496364
-0.510095
-0.463051
-0.473929
-0.474238
-0.484895
-0.488565
-0.464224
-0.257939
-0.155355
-0.106529
-0.0740153
-0.0431504
-0.0143043
0.0119645
0.0355549
0.0566533
0.0754837
0.0923
0.107371
0.120948
0.13323
0.144357
0.1544
0.163384
0.171313
0.178115
0.183556
0.188223
0.197325
0.217382
0.200621
-0.377057
-0.28556
-0.217015
-0.169502
-0.129626
-0.0928844
-0.059426
-0.0292772
-0.00225793
0.0218537
0.0433142
0.0624158
0.0794527
0.0946835
0.108301
0.120423
0.131105
0.14038
0.148242
0.154605
0.160158
0.169813
0.189549
0.174094
-0.435055
-0.370231
-0.308138
-0.258345
-0.213641
-0.172182
-0.133122
-0.0970868
-0.0643053
-0.0347817
-0.00839499
0.0150766
0.0359132
0.0543993
0.0707759
0.0852127
0.0978128
0.108654
0.117797
0.125297
0.131897
0.142084
0.161384
0.148646
-0.476277
-0.425395
-0.377808
-0.335634
-0.293013
-0.249833
-0.207627
-0.167023
-0.129049
-0.094224
-0.0627524
-0.0346096
-0.0096155
0.0124866
0.0319593
0.0490205
0.063829
0.0765147
0.0872054
0.0960714
0.103875
0.114618
0.133436
0.124369
-0.502966
-0.464934
-0.431644
-0.399551
-0.364056
-0.323883
-0.281129
-0.237917
-0.195815
-0.156105
-0.119566
-0.086532
-0.0570353
-0.0309226
-0.00795612
0.0121086
0.0294819
0.0443492
0.0568992
0.0673875
0.0765622
0.0879336
0.106254
0.101425
-0.518799
-0.49534
-0.473192
-0.451384
-0.424678
-0.391198
-0.351624
-0.308265
-0.263579
-0.219784
-0.178441
-0.140437
-0.106154
-0.0756428
-0.0487548
-0.0252578
-0.00490793
0.0125299
0.0272984
0.0397075
0.0504696
0.0626027
0.0804189
0.0800185
-0.529662
-0.518905
-0.505953
-0.492848
-0.475118
-0.449948
-0.416425
-0.375844
-0.330742
-0.284171
-0.238644
-0.195814
-0.156594
-0.121361
-0.0901456
-0.0627804
-0.0390183
-0.0185885
-0.00120316
0.0134679
0.0261063
0.0391874
0.0565474
0.0605088
-0.538563
-0.537201
-0.532376
-0.526151
-0.516239
-0.499348
-0.473332
-0.438042
-0.395065
-0.347566
-0.298932
-0.251749
-0.207659
-0.167529
-0.131671
-0.100058
-0.0724812
-0.0486547
-0.0282572
-0.0109415
0.00391879
0.0182475
0.0353895
0.0433815
-0.546278
-0.551615
-0.553445
-0.552979
-0.549209
-0.53935
-0.52076
-0.492027
-0.453562
-0.407468
-0.357367
-0.306751
-0.258191
-0.213227
-0.172593
-0.136489
-0.104806
-0.0772724
-0.0535342
-0.0332126
-0.0157818
0.000211891
0.0175199
0.0289723
-0.552994
-0.563066
-0.569869
-0.573964
-0.574856
-0.570326
-0.557864
-0.535512
-0.50273
-0.460333
-0.410976
-0.358491
-0.306358
-0.256997
-0.211742
-0.171139
-0.135274
-0.103929
-0.0766766
-0.0531063
-0.0328116
-0.0147217
0.00324411
0.0175391
-0.558711
-0.572085
-0.58217
-0.589407
-0.593456
-0.592582
-0.584438
-0.5672
-0.539685
-0.501971
-0.455455
-0.403298
-0.349286
-0.296605
-0.247351
-0.202606
-0.162742
-0.127775
-0.0971834
-0.0703657
-0.0471089
-0.0265936
-0.00741676
0.00921879
-0.563479
-0.579057
-0.591088
-0.599869
-0.605405
-0.606375
-0.600709
-0.586566
-0.562813
-0.52919
-0.486401
-0.436479
-0.382805
-0.328724
-0.276846
-0.228646
-0.186122
-0.148443
-0.113825
-0.0840933
-0.0584337
-0.0354923
-0.0147501
0.00379658
-0.567466
-0.584368
-0.597256
-0.606225
-0.611625
-0.612521
-0.607275
-0.594105
-0.572014
-0.540885
-0.501215
-0.454248
-0.402546
-0.349231
-0.296923
-0.247564
-0.202686
-0.162006
-0.126136
-0.0948521
-0.0663023
-0.0412134
-0.0191269
0.00083957
-0.570957
-0.588546
-0.601465
-0.609586
-0.613486
-0.6126
-0.605679
-0.59138
-0.568853
-0.53821
-0.500047
-0.455414
-0.406145
-0.354862
-0.303952
-0.255246
-0.210088
-0.169147
-0.132528
-0.0994647
-0.070078
-0.0441864
-0.0211767
-0.000186849
-0.574221
-0.59236
-0.60472
-0.611292
-0.612716
-0.608714
-0.598474
-0.581125
-0.556246
-0.524123
-0.485642
-0.441965
-0.394598
-0.345528
-0.29686
-0.250198
-0.206666
-0.16689
-0.130971
-0.0987164
-0.0700106
-0.0440343
-0.0210601
0.000207718
-0.577675
-0.596476
-0.608253
-0.612871
-0.611269
-0.60338
-0.588667
-0.566884
-0.538086
-0.502928
-0.462553
-0.418326
-0.371756
-0.324426
-0.277989
-0.233824
-0.192835
-0.155485
-0.121852
-0.0917376
-0.0648345
-0.0405216
-0.0189405
0.00145752
-0.58213
-0.60161
-0.613367
-0.615826
-0.611197
-0.599198
-0.579564
-0.552485
-0.518717
-0.479373
-0.435908
-0.389938
-0.342976
-0.29647
-0.251733
-0.209866
-0.171558
-0.137085
-0.106407
-0.0792656
-0.05531
-0.0339325
-0.01503
0.0027445
-0.588298
-0.608867
-0.621181
-0.621871
-0.614524
-0.598683
-0.574212
-0.541704
-0.502419
-0.458098
-0.410657
-0.361882
-0.313445
-0.266818
-0.223039
-0.182899
-0.146866
-0.115062
-0.0873411
-0.063384
-0.0428073
-0.0250857
-0.0098677
0.00344625
-0.596795
-0.619262
-0.63269
-0.632573
-0.623158
-0.604047
-0.575221
-0.537523
-0.492716
-0.443059
-0.390959
-0.33862
-0.287789
-0.239953
-0.196131
-0.156914
-0.122536
-0.0929289
-0.067813
-0.0467913
-0.0294256
-0.01521
-0.00369197
0.0048447
-0.608493
-0.633699
-0.648974
-0.648874
-0.638424
-0.61695
-0.584447
-0.541868
-0.491526
-0.436266
-0.379065
-0.322493
-0.268554
-0.218745
-0.17403
-0.134857
-0.101308
-0.0731619
-0.0499984
-0.0312867
-0.0164564
-0.00479512
0.00458381
0.010271
-0.624189
-0.652989
-0.670871
-0.671482
-0.660976
-0.638381
-0.602887
-0.555726
-0.49968
-0.438236
-0.375097
-0.313434
-0.25553
-0.202987
-0.156721
-0.117019
-0.0837588
-0.0565424
-0.0347928
-0.0178492
-0.00497979
0.00502641
0.0140759
0.0194243
-0.643977
-0.678166
-0.698735
-0.70073
-0.691262
-0.668307
-0.630852
-0.579951
-0.518092
-0.449622
-0.379339
-0.311275
-0.248195
-0.191867
-0.143178
-0.102264
-0.0688006
-0.0421743
-0.0216536
-0.00650575
0.00407118
0.0117228
0.0195462
0.0238115
-0.670933
-0.71145
-0.73229
-0.735693
-0.728537
-0.707266
-0.669635
-0.615518
-0.547496
-0.471012
-0.392271
-0.316448
-0.246976
-0.185836
-0.133853
-0.0909898
-0.0566522
-0.0300252
-0.0102042
0.00368016
0.0125103
0.0176291
0.0206351
0.017421
-0.725876
-0.755805
-0.770075
-0.775001
-0.771925
-0.754643
-0.718572
-0.662227
-0.587903
-0.502275
-0.413319
-0.327894
-0.250532
-0.183607
-0.127775
-0.0826574
-0.0473202
-0.0206268
-0.00145819
0.0111697
0.0180643
0.0199777
0.0172827
0.00910231
-0.850003
-0.870169
-0.889821
-0.919892
-0.971498
-1.08351
-0.845287
-0.867735
-0.886195
-0.913996
-0.942739
-0.97349
-0.835789
-0.863121
-0.879883
-0.905248
-0.924414
-0.927232
-0.833449
-0.858575
-0.873521
-0.895621
-0.908704
-0.903952
-0.83954
-0.855208
-0.868321
-0.886686
-0.895203
-0.889517
-0.84303
-0.852715
-0.864073
-0.87895
-0.884492
-0.880461
-0.843158
-0.850464
-0.860451
-0.872332
-0.876177
-0.873991
-0.842866
-0.848168
-0.857207
-0.866617
-0.86954
-0.868602
-0.842313
-0.845764
-0.8542
-0.861654
-0.863984
-0.863636
-0.841896
-0.843168
-0.851364
-0.857224
-0.859079
-0.85872
-0.841369
-0.840314
-0.848623
-0.853118
-0.854533
-0.853601
-0.840438
-0.837191
-0.84584
-0.849265
-0.850189
-0.848252
-0.838951
-0.833803
-0.842976
-0.845644
-0.846005
-0.842692
-0.836815
-0.830255
-0.840083
-0.842278
-0.842014
-0.837014
-0.834057
-0.826396
-0.837274
-0.839224
-0.838313
-0.831438
-0.830737
-0.822239
-0.834623
-0.836602
-0.835032
-0.826523
-0.82728
-0.817825
-0.832248
-0.834608
-0.832281
-0.822977
-0.826792
-0.813789
-0.83039
-0.833523
-0.830273
-0.821679
-0.830753
-0.811795
-0.829291
-0.833653
-0.82975
-0.823331
-0.832864
-0.811012
-0.82863
-0.834978
-0.832027
-0.833429
-0.830241
-0.809904
-0.827815
-0.837137
-0.837788
-0.859709
-0.82337
-0.8075
-0.826292
-0.839571
-0.845473
-0.898161
-0.814202
-0.804008
-0.824461
-0.841253
-0.852955
-0.937918
-0.809848
-0.801616
-0.824157
-0.843007
-0.8598
-0.968097
-0.849717
-0.804656
-0.808087
-0.816047
-0.819114
-0.808376
-0.776264
-0.719114
-0.638606
-0.542593
-0.441341
-0.344554
-0.257891
-0.184201
-0.123927
-0.0762902
-0.039895
-0.0131583
0.00539555
0.0170395
0.0226812
0.0230573
0.0182597
0.00925288
-0.875406
-0.84169
-0.842355
-0.855779
-0.867165
-0.865401
-0.839941
-0.78395
-0.69828
-0.59226
-0.478334
-0.370731
-0.274921
-0.194163
-0.128981
-0.0782502
-0.0401135
-0.0125705
0.00616882
0.0178404
0.0236224
0.0246191
0.0205135
0.0135515
-0.873958
-0.862178
-0.87014
-0.891196
-0.912126
-0.920536
-0.903331
-0.850631
-0.761671
-0.647307
-0.524704
-0.408377
-0.305947
-0.220564
-0.152355
-0.0995916
-0.059816
-0.0307266
-0.0106058
0.00253346
0.0102538
0.0136774
0.0120331
0.0106707
-0.873153
-0.874088
-0.89085
-0.919735
-0.949138
-0.966223
-0.955902
-0.905866
-0.815307
-0.695533
-0.566918
-0.446181
-0.341362
-0.255329
-0.187245
-0.134372
-0.0936811
-0.062519
-0.0386201
-0.0209565
-0.0087726
-0.000742926
0.00364061
0.00772793
-0.873192
-0.881945
-0.905052
-0.939461
-0.974317
-0.996398
-0.987851
-0.937516
-0.844602
-0.722386
-0.592428
-0.472214
-0.368906
-0.284913
-0.218401
-0.166016
-0.124816
-0.0923829
-0.0667328
-0.0462603
-0.0298108
-0.0160643
-0.0045316
0.00559061
-0.872424
-0.886271
-0.912792
-0.949528
-0.985884
-1.00731
-0.99617
-0.942059
-0.846206
-0.724283
-0.597861
-0.482616
-0.384068
-0.303836
-0.239722
-0.188248
-0.146784
-0.113289
-0.0860565
-0.0636315
-0.0447633
-0.0282356
-0.0126362
0.00190484
-0.870864
-0.887117
-0.914313
-0.950102
-0.98366
-0.999668
-0.982161
-0.921567
-0.823362
-0.70449
-0.585134
-0.477809
-0.387299
-0.312298
-0.251451
-0.201912
-0.161233
-0.127584
-0.0994651
-0.075602
-0.054885
-0.0362475
-0.0183836
-0.00144857
-0.868368
-0.8846
-0.910051
-0.941875
-0.968669
-0.9759
-0.948694
-0.880817
-0.781636
-0.667898
-0.557996
-0.461437
-0.379167
-0.310037
-0.253051
-0.206046
-0.166919
-0.13404
-0.106062
-0.0818173
-0.0602894
-0.0404381
-0.0207659
-0.00188162
-0.864627
-0.878968
-0.900613
-0.925641
-0.942558
-0.938823
-0.899892
-0.825822
-0.72757
-0.621525
-0.521603
-0.435314
-0.361369
-0.298367
-0.245548
-0.20128
-0.163905
-0.13205
-0.104562
-0.0804734
-0.0589548
-0.0388856
-0.0184209
0.00065566
-0.859524
-0.870574
-0.886691
-0.902144
-0.90806
-0.890937
-0.840729
-0.761855
-0.66651
-0.569448
-0.480234
-0.402451
-0.335729
-0.278705
-0.230228
-0.189005
-0.153728
-0.123235
-0.0965547
-0.07293
-0.0517416
-0.0318457
-0.0111643
0.00636544
-0.853127
-0.859902
-0.868729
-0.872855
-0.866843
-0.835351
-0.775289
-0.693212
-0.602467
-0.514314
-0.434499
-0.364719
-0.304497
-0.252703
-0.208231
-0.170007
-0.136989
-0.108219
-0.0828786
-0.0603381
-0.0400433
-0.0206545
7.40368e-05
0.0149855
-0.845614
-0.847596
-0.846584
-0.839595
-0.819633
-0.774862
-0.705983
-0.622973
-0.537782
-0.457767
-0.386071
-0.323284
-0.268793
-0.221615
-0.180781
-0.145395
-0.114622
-0.0877028
-0.063987
-0.0429665
-0.0240874
-0.0055742
0.0150338
0.0263883
-0.83742
-0.834276
-0.820575
-0.802542
-0.767856
-0.710309
-0.634718
-0.552852
-0.473352
-0.400537
-0.335789
-0.27901
-0.229513
-0.186436
-0.148942
-0.116275
-0.0877526
-0.0627639
-0.0407891
-0.0214208
-0.00408357
0.0134226
0.0337821
0.0407078
-0.829039
-0.819437
-0.792279
-0.761297
-0.711675
-0.642254
-0.562811
-0.483405
-0.409418
-0.342878
-0.284067
-0.232503
-0.18743
-0.148049
-0.113635
-0.0835544
-0.0572546
-0.0342331
-0.014059
0.00360018
0.0193874
0.03592
0.0559793
0.0578152
-0.820761
-0.800272
-0.762976
-0.715732
-0.650197
-0.571527
-0.490799
-0.414665
-0.345858
-0.284872
-0.231291
-0.184365
-0.143281
-0.107288
-0.0757467
-0.0481299
-0.0239861
-0.00290031
0.0154889
0.0314425
0.0456559
0.0612222
0.0810437
0.0775669
-0.813343
-0.773922
-0.73037
-0.664384
-0.58334
-0.498652
-0.418556
-0.346264
-0.282421
-0.226534
-0.177721
-0.135046
-0.0976588
-0.0648423
-0.0360267
-0.0107656
0.0113125
0.0305536
0.0472507
0.0615883
0.0742833
0.0889402
0.108656
0.099959
-0.806887
-0.741117
-0.688504
-0.604668
-0.511401
-0.423743
-0.345806
-0.277803
-0.218883
-0.167875
-0.123582
-0.0849447
-0.0510885
-0.0213278
0.00485588
0.0278489
0.0479634
0.065488
0.0806417
0.0935028
0.104793
0.118618
0.138351
0.124877
-0.80159
-0.708062
-0.63402
-0.534852
-0.434459
-0.346693
-0.272168
-0.208932
-0.155077
-0.108936
-0.0690988
-0.0344304
-0.00405402
0.0226888
0.0462778
0.0670591
0.0853029
0.101249
0.11504
0.126621
0.136685
0.149773
0.169643
0.152251
-0.779631
-0.680197
-0.569088
-0.454975
-0.352346
-0.267216
-0.197286
-0.139404
-0.090916
-0.0497932
-0.01449
0.0161581
0.043012
0.0666991
0.0876688
0.106242
0.122664
0.13714
0.149741
0.160279
0.169356
0.181836
0.201972
0.182118
-0.738507
-0.648938
-0.494684
-0.365819
-0.264689
-0.184747
-0.120797
-0.06905
-0.0263961
0.00942254
0.0400079
0.0665024
0.0897223
0.110252
0.128511
0.144805
0.159371
0.172398
0.183921
0.193667
0.202102
0.214144
0.234615
0.21496
-0.680093
-0.58589
-0.404127
-0.267088
-0.171132
-0.0988773
-0.0425912
0.00205614
0.0383236
0.0685014
0.0941453
0.116318
0.135756
0.15298
0.16837
0.182212
0.19474
0.206152
0.216517
0.225612
0.233727
0.245135
0.265455
0.253481
-0.618819
-0.470029
-0.287036
-0.157218
-0.0716121
-0.00972212
0.0371425
0.0736649
0.102974
0.127182
0.147678
0.165378
0.180897
0.194661
0.20698
0.21809
0.228185
0.23745
0.246018
0.253788
0.260581
0.268526
0.284704
0.302605
-0.555417
-0.296824
-0.137118
-0.0351844
0.033278
0.0818571
0.117695
0.145204
0.167098
0.185112
0.200352
0.21352
0.225072
0.235313
0.244446
0.252613
0.259908
0.266417
0.272189
0.276941
0.27987
0.282469
0.296319
0.33032
-0.391125
-0.0657218
0.038674
0.0967807
0.141635
0.174138
0.197793
0.215779
0.230067
0.241858
0.251888
0.260611
0.268307
0.275149
0.281242
0.286641
0.291373
0.295466
0.298848
0.300955
0.301145
0.303633
0.322542
0.342578
1.51336
1.54474
1.56898
1.58955
1.55122
1.35784
1.51275
1.54054
1.55353
1.56177
1.48112
1.2947
1.51071
1.53439
1.53656
1.53135
1.4401
1.25832
1.50799
1.52875
1.523
1.50643
1.41432
1.24889
1.50755
1.5246
1.51307
1.48751
1.3969
1.25008
1.50938
1.52122
1.5053
1.47258
1.38443
1.25396
1.50964
1.51749
1.49844
1.46045
1.37548
1.25828
1.50801
1.51315
1.49207
1.45051
1.36913
1.26268
1.50602
1.50841
1.48623
1.44247
1.36473
1.26714
1.50384
1.50349
1.48106
1.43617
1.36197
1.27162
1.50149
1.49861
1.47671
1.43153
1.36066
1.27596
1.49905
1.49397
1.47326
1.42846
1.36069
1.2803
1.49664
1.48968
1.47067
1.42687
1.36193
1.28467
1.4943
1.48589
1.46901
1.42664
1.36427
1.28908
1.49206
1.48264
1.46818
1.42765
1.36765
1.2936
1.48991
1.47992
1.46808
1.42975
1.37205
1.29834
1.4882
1.47781
1.46853
1.43274
1.37755
1.30349
1.4881
1.47631
1.46929
1.43635
1.38413
1.30934
1.48932
1.47535
1.46997
1.44021
1.39165
1.31612
1.48872
1.47441
1.47001
1.44378
1.3998
1.32382
1.4864
1.47295
1.46895
1.44619
1.40774
1.33242
1.48409
1.47052
1.46659
1.44652
1.41482
1.34463
1.48268
1.46811
1.4635
1.44545
1.42224
1.37031
1.48223
1.46627
1.46273
1.44784
1.43425
1.41932
0.157031
0.178253
0.212612
0.230282
0.249421
0.264612
0.27578
0.284293
0.291141
0.296915
0.301958
0.306468
0.310548
0.314253
0.317597
0.320571
0.323161
0.325369
0.327061
0.327579
0.326666
0.330182
0.35193
0.36215
0.522626
0.387092
0.36605
0.3546
0.351174
0.350339
0.349915
0.349639
0.349575
0.349762
0.350192
0.35083
0.351625
0.352523
0.353457
0.35436
0.355175
0.355871
0.356261
0.355637
0.353964
0.35783
0.380524
0.385398
0.733944
0.56272
0.500201
0.464879
0.443588
0.429421
0.418993
0.410977
0.404752
0.399929
0.396218
0.393395
0.391281
0.389724
0.388589
0.387751
0.38711
0.386598
0.38598
0.384508
0.382256
0.386124
0.408883
0.41058
0.864395
0.695582
0.611536
0.560007
0.525616
0.500986
0.482316
0.46774
0.456206
0.447025
0.4397
0.433863
0.429228
0.425568
0.422681
0.42039
0.41855
0.417051
0.415616
0.413462
0.410735
0.414424
0.436699
0.436341
0.955806
0.796876
0.702911
0.641106
0.597376
0.564781
0.539552
0.519598
0.503627
0.490761
0.480365
0.471966
0.465199
0.459771
0.455426
0.451934
0.449108
0.4468
0.444693
0.441993
0.438901
0.442337
0.463747
0.462048
1.02165
0.874228
0.777176
0.709424
0.659336
0.620908
0.590638
0.566414
0.546846
0.530953
0.518017
0.507496
0.498969
0.49209
0.486555
0.482089
0.478463
0.475495
0.472843
0.469719
0.466374
0.469528
0.489783
0.487247
1.06935
0.933551
0.837158
0.7664
0.712252
0.669727
0.635717
0.608211
0.585814
0.567508
0.552533
0.540307
0.530369
0.522333
0.515852
0.510613
0.50635
0.502854
0.499769
0.496335
0.492847
0.495705
0.514579
0.511583
1.10426
0.979359
0.885387
0.813545
0.757009
0.711742
0.675063
0.645124
0.620578
0.600414
0.583858
0.570309
0.55928
0.550353
0.543148
0.537314
0.532558
0.528652
0.525237
0.521598
0.518062
0.520615
0.537932
0.534764
1.13026
1.01491
0.924023
0.852267
0.794502
0.747514
0.709024
0.67736
0.651252
0.629717
0.61199
0.597461
0.585628
0.576049
0.568315
0.562045
0.556924
0.552711
0.549057
0.545305
0.541803
0.544038
0.559664
0.556536
1.14995
1.04255
0.95481
0.883783
0.82556
0.777602
0.73797
0.705163
0.677989
0.655506
0.636964
0.621758
0.609375
0.599356
0.591265
0.584696
0.579319
0.574889
0.571076
0.567289
0.563883
0.565785
0.579627
0.576687
1.16511
1.06396
0.979104
0.909102
0.850913
0.802524
0.762271
0.72879
0.700965
0.677892
0.658845
0.643225
0.630514
0.620237
0.611936
0.605185
0.599645
0.595074
0.591169
0.587411
0.584145
0.585699
0.597705
0.595048
1.17672
1.08034
0.997932
0.929034
0.871175
0.822741
0.782266
0.748492
0.72036
0.697003
0.677715
0.661906
0.649056
0.638677
0.630289
0.623453
0.617827
0.61318
0.609238
0.605558
0.602461
0.603658
0.61382
0.611497
1.18547
1.09256
1.01206
0.944212
0.886851
0.838648
0.798262
0.764504
0.736353
0.712969
0.693664
0.677858
0.66503
0.654676
0.646304
0.639463
0.633814
0.629142
0.625209
0.621643
0.618734
0.619572
0.627925
0.625953
1.19182
1.10119
1.02203
0.955111
0.898337
0.850565
0.810521
0.777038
0.749111
0.725919
0.706787
0.691146
0.678473
0.668252
0.659976
0.653192
0.647573
0.642919
0.639031
0.635606
0.632893
0.633383
0.640007
0.638376
1.19595
1.10658
1.02819
0.962063
0.905926
0.858751
0.819263
0.786279
0.75879
0.735978
0.717183
0.701843
0.689433
0.679429
0.671313
0.664638
0.659089
0.654489
0.650675
0.64741
0.644899
0.645071
0.650092
0.648756
1.19788
1.10885
1.03071
0.965267
0.909819
0.863397
0.82467
0.792395
0.765534
0.743271
0.724953
0.710026
0.697968
0.688246
0.680341
0.673812
0.668368
0.663853
0.660135
0.65704
0.654738
0.654659
0.658246
0.657033
1.19748
1.10797
1.02959
0.964789
0.910127
0.864639
0.826889
0.795533
0.769483
0.747919
0.730198
0.715779
0.704142
0.694753
0.687095
0.680743
0.67543
0.671019
0.667408
0.664474
0.662362
0.662079
0.664376
0.663078
1.19441
1.10368
1.02466
0.960549
0.906871
0.862571
0.826051
0.795835
0.770775
0.750048
0.73303
0.719196
0.708033
0.699013
0.69163
0.68548
0.680317
0.676026
0.672528
0.669738
0.667754
0.667205
0.66844
0.667482
1.18807
1.09547
1.01556
0.952369
0.900011
0.857263
0.822284
0.79345
0.769557
0.749794
0.733568
0.720379
0.70973
0.701109
0.694024
0.688097
0.683107
0.678954
0.675583
0.672936
0.671056
0.670263
0.670706
0.670187
1.17763
1.0825
1.00181
0.940044
0.889533
0.84883
0.815756
0.788557
0.765997
0.747308
0.731945
0.719443
0.709336
0.701131
0.694361
0.688677
0.683877
0.679881
0.676649
0.674145
0.672367
0.671406
0.671323
0.671117
1.16239
1.06377
0.982774
0.923372
0.875525
0.837474
0.806704
0.781375
0.760288
0.742757
0.728304
0.716516
0.706963
0.699182
0.692739
0.687307
0.682712
0.678883
0.675791
0.67341
0.671722
0.670725
0.67036
0.670295
1.14135
1.03747
0.957608
0.902226
0.858233
0.823532
0.795447
0.772173
0.752653
0.736326
0.722803
0.711734
0.702731
0.695372
0.689254
0.684085
0.679702
0.676046
0.673094
0.670823
0.669207
0.668234
0.667863
0.667855
1.10744
0.998324
0.925321
0.876823
0.838192
0.807521
0.782393
0.761265
0.743337
0.728213
0.715609
0.70524
0.696772
0.689822
0.684026
0.679115
0.674945
0.671462
0.668644
0.666464
0.664902
0.664029
0.663902
0.663846
1.01821
0.938305
0.886407
0.848312
0.816378
0.790139
0.768017
0.748986
0.732594
0.718622
0.70689
0.697182
0.689214
0.68265
0.67716
0.672499
0.668535
0.66522
0.662528
0.660416
0.65889
0.658189
0.658554
0.658345
0.869616
0.836489
0.80873
0.761964
0.674297
0.513591
0.87437
0.839962
0.814532
0.770679
0.707177
0.642545
0.884332
0.846442
0.823215
0.781359
0.73262
0.698829
0.887677
0.853394
0.83209
0.792756
0.753769
0.728179
0.882482
0.858929
0.839544
0.80347
0.771613
0.748926
0.88024
0.863203
0.845686
0.812854
0.784917
0.762235
0.881992
0.867034
0.850967
0.820673
0.793962
0.769548
0.884226
0.870827
0.855622
0.82696
0.799815
0.772841
0.886051
0.87473
0.859776
0.831931
0.803293
0.773407
0.887792
0.878929
0.86357
0.835801
0.804794
0.77177
0.889881
0.883624
0.867151
0.838723
0.804697
0.768314
0.892583
0.888956
0.870655
0.84091
0.803362
0.763251
0.896034
0.894985
0.874234
0.842591
0.801016
0.756679
0.900274
0.901676
0.878061
0.843964
0.79782
0.748628
0.905225
0.908972
0.882263
0.845216
0.793885
0.739052
0.910683
0.916715
0.886914
0.846521
0.789276
0.727892
0.916352
0.924596
0.891992
0.848035
0.784063
0.714997
0.921897
0.932194
0.897339
0.849889
0.778388
0.700107
0.926985
0.939035
0.902711
0.852172
0.772521
0.683005
0.930826
0.944722
0.908053
0.855144
0.767057
0.663984
0.92949
0.949262
0.914073
0.860108
0.763737
0.644224
0.926166
0.954503
0.922946
0.870013
0.767073
0.624892
0.933482
0.961482
0.935943
0.885349
0.780278
0.60501
0.939613
0.96658
0.945338
0.895733
0.783321
0.58968
0.812616
0.867241
0.845854
0.819223
0.794176
0.772179
0.752797
0.735664
0.720667
0.707745
0.696808
0.6877
0.680187
0.673974
0.668765
0.664338
0.660568
0.657411
0.654833
0.652767
0.651255
0.6508
0.651893
0.651428
0.766744
0.814018
0.810523
0.792686
0.772962
0.754299
0.73712
0.721569
0.707763
0.695751
0.685507
0.676923
0.669807
0.663903
0.658945
0.654727
0.651134
0.648121
0.645641
0.6436
0.642089
0.641958
0.644012
0.643167
0.762984
0.785285
0.783666
0.769843
0.753291
0.736818
0.721222
0.706888
0.694039
0.682775
0.673108
0.664963
0.65818
0.652536
0.647792
0.643755
0.640316
0.63743
0.635036
0.633003
0.631489
0.63177
0.63502
0.63358
0.76045
0.768435
0.763307
0.750206
0.735039
0.719767
0.70519
0.691721
0.679592
0.668912
0.659705
0.65191
0.645394
0.639958
0.635385
0.631495
0.62818
0.625395
0.623061
0.621004
0.619413
0.620019
0.6247
0.623139
0.757163
0.755784
0.74664
0.732745
0.7178
0.703014
0.689
0.676091
0.664469
0.654221
0.64536
0.637832
0.631518
0.626239
0.621795
0.618013
0.614786
0.612066
0.609755
0.607618
0.605846
0.606642
0.612866
0.611737
0.75465
0.745245
0.73197
0.716555
0.701145
0.686359
0.672567
0.659971
0.648675
0.638724
0.630111
0.622777
0.616607
0.611439
0.607087
0.603382
0.600215
0.597535
0.595221
0.592976
0.59101
0.592068
0.599879
0.598697
0.752605
0.735622
0.71826
0.700964
0.684689
0.669583
0.655766
0.643291
0.632178
0.622417
0.613971
0.606769
0.600698
0.595606
0.591316
0.587664
0.58454
0.581885
0.579557
0.577197
0.575049
0.576431
0.585926
0.584452
0.749336
0.725913
0.704744
0.685441
0.668087
0.652459
0.638445
0.625956
0.614919
0.605267
0.596928
0.589815
0.583811
0.578769
0.574522
0.570908
0.567814
0.565177
0.562828
0.560349
0.558015
0.559726
0.570945
0.569141
0.744177
0.715431
0.690856
0.669546
0.651015
0.63475
0.620435
0.607843
0.596814
0.58722
0.578953
0.571903
0.565949
0.560946
0.556733
0.55315
0.550084
0.547464
0.545098
0.542506
0.539985
0.542008
0.554953
0.552823
0.737244
0.70384
0.676152
0.652884
0.633155
0.616207
0.601541
0.588807
0.577756
0.568202
0.559996
0.553007
0.547104
0.542142
0.537965
0.534419
0.531387
0.528792
0.526422
0.523734
0.521036
0.523348
0.537983
0.535565
0.728608
0.690865
0.660235
0.635077
0.614179
0.596561
0.581551
0.568682
0.55762
0.54812
0.539993
0.533085
0.527253
0.522352
0.51823
0.514735
0.511753
0.509201
0.506849
0.504094
0.501244
0.503818
0.520069
0.517447
0.718177
0.676178
0.642689
0.615727
0.593741
0.575521
0.560229
0.547281
0.536261
0.526866
0.518869
0.512089
0.506371
0.501569
0.497534
0.49412
0.491213
0.48873
0.486426
0.483648
0.480684
0.483492
0.501248
0.498563
0.70574
0.659358
0.623051
0.594395
0.571456
0.552765
0.537312
0.524395
0.513517
0.504318
0.496534
0.489959
0.484426
0.479783
0.475887
0.472596
0.469803
0.467425
0.465209
0.462459
0.459435
0.462448
0.481554
0.479019
0.690959
0.639874
0.600771
0.57058
0.546891
0.527936
0.512511
0.499794
0.489209
0.480343
0.472895
0.466636
0.461385
0.456988
0.453305
0.4502
0.447573
0.445346
0.443264
0.440606
0.437587
0.440769
0.461014
0.458935
0.673362
0.617047
0.575192
0.543697
0.519554
0.50063
0.485504
0.473225
0.463142
0.454794
0.447847
0.442052
0.437216
0.433184
0.429815
0.426984
0.424595
0.422579
0.42069
0.418194
0.415255
0.418552
0.439651
0.438462
0.652249
0.590024
0.545509
0.513059
0.488881
0.470397
0.455936
0.444413
0.435107
0.427516
0.421283
0.416141
0.411892
0.408376
0.405458
0.403018
0.400968
0.399248
0.397626
0.395377
0.392596
0.395916
0.417476
0.417832
0.626613
0.557747
0.510726
0.477852
0.454224
0.436731
0.423416
0.413059
0.404877
0.398344
0.393086
0.388834
0.385384
0.382578
0.380286
0.378394
0.376823
0.375517
0.374268
0.372377
0.369841
0.373021
0.394477
0.397473
0.595016
0.518818
0.469591
0.437117
0.41486
0.399079
0.387525
0.378846
0.372217
0.367103
0.363137
0.360054
0.357659
0.3558
0.354354
0.353217
0.352313
0.351594
0.35088
0.349519
0.347351
0.350083
0.370521
0.378247
0.555393
0.471217
0.420627
0.389787
0.370002
0.356857
0.347823
0.341445
0.33688
0.333612
0.331303
0.329714
0.32867
0.328035
0.327701
0.327578
0.327595
0.327711
0.327792
0.327277
0.325731
0.327401
0.344956
0.361899
0.504823
0.412046
0.362246
0.334763
0.318858
0.309483
0.303878
0.30053
0.298618
0.297683
0.297442
0.297706
0.298336
0.299231
0.300308
0.301499
0.302752
0.304041
0.305322
0.306221
0.305992
0.306185
0.317977
0.351767
0.439501
0.337512
0.292778
0.271025
0.260711
0.256439
0.2553
0.255797
0.257195
0.259126
0.261396
0.263889
0.266528
0.269256
0.272032
0.274828
0.277632
0.280464
0.283352
0.286087
0.288051
0.290593
0.303231
0.33077
0.353826
0.243524
0.21049
0.197798
0.195073
0.197367
0.201797
0.207001
0.2124
0.217759
0.222999
0.228098
0.233056
0.237876
0.242561
0.247119
0.251567
0.255936
0.26019
0.263995
0.267156
0.273239
0.290798
0.292136
0.234178
0.127579
0.114352
0.114847
0.121872
0.132199
0.143256
0.153996
0.164077
0.173426
0.182091
0.190159
0.197715
0.204825
0.211531
0.217857
0.223819
0.229419
0.234547
0.238782
0.24228
0.249948
0.269563
0.257974
0.0498016
-0.00666358
0.00651983
0.0231394
0.041835
0.0613087
0.0798189
0.0967838
0.11215
0.126016
0.13855
0.149942
0.160367
0.169956
0.178796
0.186929
0.194366
0.201099
0.207014
0.211743
0.215701
0.224191
0.244326
0.228319
)
;

boundaryField
{
    rotor
    {
        type            zeroGradient;
    }
    freestream
    {
        type            freestreamPressure;
        freestreamValue uniform 0;
        supersonic      false;
        value           nonuniform List<scalar> 
96
(
0.0741842
0.0591644
0.0462751
0.0353668
0.0262874
0.018873
0.0129773
0.00846134
0.00514437
0.00284029
0.00136471
0.000514877
0.000104445
-2.13206e-05
2.16691e-05
0.000137879
0.000231028
0.000247432
0.000270905
0.00036643
0.000253129
5.13659e-06
0.000141855
0.000225214
0.000347492
0.000626272
0.000592074
0.000537852
0.000485857
0.000200471
-0.000177624
-0.00026289
0.000103297
0.00112151
0.00293541
0.00572438
0.00974609
0.0152259
0.0223938
0.0315285
0.0428818
0.0567141
0.0733149
0.0931494
0.117728
0.149883
0.173562
0.191577
0.215041
0.242041
0.271625
0.302882
0.335246
0.368207
0.401281
0.434
0.465909
0.496572
0.525589
0.5526
0.577295
0.599413
0.61874
0.635041
0.64803
0.658157
0.665272
0.669233
0.670019
0.667751
0.662493
0.654359
0.643488
0.630037
0.614128
0.596333
0.576675
0.554663
0.530875
0.505609
0.479094
0.451569
0.423284
0.394499
0.365481
0.336498
0.307834
0.279813
0.252857
0.227602
0.20509
0.187052
0.164785
0.135954
0.111668
0.0915282
)
;
    }
    frontAndBack
    {
        type            empty;
    }
}


// ************************************************************************* //
