/*--------------------------------*- C++ -*----------------------------------*\
  =========                 |
  \\      /  F ield         | OpenFOAM: The Open Source CFD Toolbox
   \\    /   O peration     | Website:  https://openfoam.org
    \\  /    A nd           | Version:  11
     \\/     M anipulation  |
\*---------------------------------------------------------------------------*/
FoamFile
{
    format      ascii;
    class       volScalarField;
    location    "1.98";
    object      k;
}
// * * * * * * * * * * * * * * * * * * * * * * * * * * * * * * * * * * * * * //

dimensions      [0 2 -2 0 0 0 0];

internalField   nonuniform List<scalar> 
2880
(
0.00507529
0.0224809
0.0540199
0.0805788
0.0958058
0.102556
0.017006
0.0442644
0.0739969
0.0961146
0.108368
0.113387
0.025439
0.0625976
0.0896198
0.107355
0.115669
0.118201
0.0318648
0.0751528
0.100431
0.115005
0.120768
0.121503
0.0373897
0.0842133
0.10842
0.121022
0.125322
0.124592
0.0420993
0.0909994
0.114641
0.126271
0.12985
0.127909
0.0459516
0.0961767
0.119758
0.131179
0.134518
0.131711
0.0489983
0.100162
0.12412
0.135947
0.13945
0.136163
0.051316
0.103221
0.127912
0.140667
0.144733
0.141379
0.0529788
0.10552
0.131224
0.145366
0.15043
0.147451
0.0540448
0.10714
0.134099
0.150021
0.156578
0.154451
0.0545562
0.108077
0.136547
0.154569
0.163178
0.162427
0.0546104
0.108265
0.138522
0.158904
0.170171
0.171393
0.0544283
0.107602
0.139907
0.162913
0.177373
0.181324
0.0539201
0.106037
0.140508
0.166388
0.184544
0.19208
0.0529982
0.103471
0.140149
0.168986
0.191337
0.203416
0.0515661
0.0997606
0.138404
0.170245
0.19722
0.214938
0.049506
0.0947571
0.134992
0.169721
0.201437
0.225949
0.0466584
0.0883233
0.129565
0.166695
0.202931
0.235512
0.0428165
0.0803569
0.121824
0.160463
0.200821
0.242324
0.0377438
0.0708145
0.111467
0.150252
0.192919
0.244413
0.0312165
0.0595224
0.0979022
0.13485
0.176655
0.239876
0.0225471
0.0451298
0.0790524
0.111769
0.148087
0.219095
0.00699483
0.0180242
0.0413109
0.0686213
0.102887
0.130631
0.104289
0.0758733
0.0541783
0.0408107
0.031861
0.0254297
0.0205071
0.0166283
0.0135514
0.0111185
0.00920576
0.00771326
0.00656072
0.00568445
0.00503542
0.00457261
0.00425749
0.00405233
0.00392376
0.0038455
0.00379909
0.00377253
0.00375846
0.00375164
0.10856
0.0798491
0.056971
0.0426556
0.0331012
0.0262879
0.021111
0.0170545
0.0138501
0.0113251
0.00934565
0.00780392
0.00661497
0.00571332
0.00504766
0.00457432
0.00425252
0.00404408
0.00391471
0.00383717
0.00379235
0.00376799
0.00375611
0.00375097
0.110592
0.0826444
0.059497
0.0445086
0.0344276
0.0272467
0.0218122
0.0175698
0.0142289
0.0116028
0.00954812
0.00795028
0.00671924
0.00578555
0.00509508
0.00460286
0.00426783
0.00405081
0.0039165
0.00383659
0.0037909
0.00376678
0.00375537
0.00375076
0.111903
0.084858
0.0618544
0.0463849
0.0358418
0.0283077
0.0226135
0.018178
0.0146919
0.0119558
0.00981721
0.00815492
0.00687377
0.00590038
0.00517796
0.00466015
0.00430537
0.00407406
0.00393015
0.0038442
0.0037949
0.00376869
0.00375622
0.00375102
0.1134
0.0870328
0.0642149
0.0483423
0.0373654
0.0294819
0.0235226
0.0188857
0.0152453
0.0123898
0.0101581
0.00842259
0.00708305
0.00606213
0.00530025
0.00474956
0.00436806
0.0041162
0.00395753
0.00386153
0.00380551
0.0037745
0.00375911
0.00375205
0.115481
0.0895244
0.0667473
0.0504545
0.039033
0.0307879
0.0245518
0.0197023
0.0158969
0.0129117
0.010577
0.00875898
0.00735235
0.00627576
0.00546664
0.00487547
0.00445988
0.00418065
0.00400133
0.00389047
0.0038239
0.00378524
0.0037647
0.00375462
0.118364
0.0925568
0.069599
0.0528005
0.040887
0.0322504
0.0257171
0.0206397
0.0166564
0.0135297
0.0110812
0.00917067
0.00768774
0.00654696
0.00568259
0.00504316
0.00458582
0.00427187
0.00406525
0.00393394
0.0038523
0.00380265
0.00377442
0.00375943
0.122189
0.0962982
0.0729062
0.0554638
0.0429769
0.0338989
0.0270379
0.021712
0.0175348
0.0142532
0.011679
0.00966505
0.00809601
0.00688212
0.00595423
0.00525865
0.00475174
0.00439531
0.00415408
0.00399589
0.00389386
0.00382896
0.00378973
0.00376737
0.127064
0.100898
0.0768031
0.0585345
0.0453582
0.0357684
0.0285369
0.0229352
0.0185444
0.0150924
0.0123791
0.0102502
0.0085847
0.00728833
0.00628842
0.00552868
0.00496435
0.0045575
0.00427381
0.00408148
0.00395266
0.00386698
0.00381209
0.00377921
0.1331
0.106512
0.0814339
0.0621138
0.0480956
0.0378993
0.0302405
0.0243275
0.0196992
0.0160585
0.0131917
0.0109352
0.00916216
0.00777357
0.00669289
0.00586098
0.00523143
0.00476617
0.00443176
0.00419704
0.0040336
0.00392004
0.00384395
0.00379634
0.140412
0.113313
0.0869654
0.066322
0.0512667
0.04034
0.0321793
0.0259097
0.0210142
0.0171639
0.0141271
0.0117297
0.00983764
0.00834676
0.00717644
0.00626432
0.00556186
0.00503023
0.00463648
0.00435018
0.00414287
0.00399301
0.003889
0.00382085
0.149124
0.121493
0.0935937
0.0713057
0.0549668
0.0431492
0.0343898
0.0277055
0.0225063
0.0184218
0.0151968
0.0126441
0.010621
0.00901759
0.00774861
0.00674817
0.00596512
0.00535925
0.00489745
0.00454991
0.00428846
0.00409225
0.00395143
0.00385477
0.159357
0.131267
0.101548
0.0772438
0.0593144
0.0463997
0.036916
0.0297426
0.0241945
0.0198462
0.0164126
0.0136891
0.0115226
0.00979608
0.00841928
0.00732233
0.00645102
0.00576313
0.00522476
0.00480618
0.00447954
0.00422521
0.00403623
0.00390032
0.171211
0.142862
0.111092
0.0843536
0.0644574
0.0501824
0.0398123
0.0320542
0.0261001
0.0214527
0.0177868
0.0148755
0.0125525
0.0106922
0.00919835
0.00799666
0.00702944
0.00625194
0.00562876
0.00512953
0.0047262
0.00440046
0.00414938
0.00396012
0.184728
0.156501
0.122508
0.0928926
0.070579
0.0546128
0.0431469
0.0346807
0.0282483
0.0232578
0.0193318
0.0162138
0.0137204
0.0117153
0.0100953
0.00878076
0.00771013
0.00683564
0.00611973
0.00553056
0.00503898
0.00462746
0.00429785
0.00403725
0.199819
0.172389
0.136078
0.103148
0.0778998
0.059835
0.0470063
0.0376726
0.030669
0.0252808
0.0210609
0.0177144
0.0150354
0.0128743
0.0111189
0.00968361
0.00850235
0.00752379
0.00670758
0.00601954
0.00542832
0.00491604
0.00448931
0.00413512
0.216168
0.190659
0.152017
0.115407
0.0866713
0.0660246
0.0514988
0.0410931
0.0333994
0.0275439
0.0229887
0.0193876
0.0165059
0.0141766
0.0122767
0.0107132
0.0094145
0.00832524
0.00740158
0.00660613
0.00590415
0.00527585
0.00473162
0.00425723
0.23359
0.210914
0.170361
0.129897
0.0971553
0.0733863
0.0567583
0.0450226
0.0364862
0.0300749
0.0251319
0.0212445
0.0181401
0.0156293
0.0135753
0.0118761
0.0104538
0.0092478
0.00821012
0.00729923
0.0064757
0.00571597
0.00503233
0.00440664
0.251431
0.232436
0.190923
0.146703
0.10958
0.0821398
0.0629437
0.0495611
0.039989
0.0329086
0.0275115
0.0232981
0.0199464
0.0172385
0.0150202
0.013178
0.0116261
0.010298
0.0091405
0.00810687
0.00715158
0.00624496
0.00539837
0.00458529
0.268596
0.253948
0.213217
0.165655
0.124059
0.0924876
0.0702301
0.0548289
0.0439825
0.03609
0.0301544
0.0255648
0.0219355
0.0190116
0.0166168
0.0146236
0.0129364
0.0114813
0.010199
0.00903633
0.00793999
0.00687136
0.00583649
0.00479352
0.283469
0.273772
0.236007
0.186131
0.140459
0.104548
0.0787846
0.0609609
0.0485575
0.0396762
0.0330961
0.0280668
0.0241215
0.0209582
0.0183723
0.0162187
0.0143898
0.0128031
0.0113917
0.0100947
0.00884947
0.00760476
0.00635448
0.00502993
0.293494
0.289436
0.257296
0.206928
0.158255
0.118251
0.0887192
0.0680912
0.0538183
0.0437381
0.0363826
0.0308344
0.0265251
0.0230931
0.020298
0.0179727
0.015995
0.0142716
0.0127269
0.0112912
0.00989086
0.008458
0.00696406
0.00529246
0.291401
0.297522
0.274266
0.226389
0.176483
0.13323
0.100018
0.0763221
0.059873
0.0483586
0.0400724
0.0339083
0.0291759
0.0254392
0.0224135
0.0199035
0.0177693
0.0159045
0.0142229
0.0126448
0.0110845
0.00945415
0.00768805
0.00558186
0.248295
0.291852
0.281026
0.242863
0.193862
0.148792
0.112463
0.0856767
0.0668147
0.0536281
0.0442357
0.0373408
0.0321139
0.0280301
0.0247495
0.0220427
0.0197471
0.0177405
0.0159234
0.0142042
0.0124838
0.0106526
0.00859002
0.00592745
0.00639033
0.0159443
0.030453
0.0404158
0.0436667
0.0511828
0.0210092
0.0408673
0.0600436
0.0688771
0.0693948
0.0772946
0.0289334
0.0543065
0.0759645
0.0849125
0.0856391
0.0909218
0.034878
0.0649167
0.0878814
0.0971549
0.0984589
0.102929
0.0396968
0.0741225
0.0977843
0.107614
0.110011
0.114416
0.0436257
0.0821445
0.106246
0.116939
0.12095
0.125761
0.0468438
0.089027
0.113478
0.125335
0.131261
0.137001
0.0494741
0.094809
0.119596
0.132843
0.140841
0.148057
0.0516041
0.0995371
0.12468
0.13943
0.149547
0.158677
0.0533059
0.10325
0.128777
0.145035
0.157204
0.168369
0.0546535
0.105967
0.131912
0.149582
0.163626
0.176731
0.055595
0.10772
0.134093
0.153001
0.168638
0.183433
0.0559006
0.108576
0.135308
0.155227
0.172094
0.188211
0.0556508
0.108547
0.135505
0.156134
0.173806
0.190754
0.0547317
0.107617
0.134741
0.155867
0.173916
0.191141
0.0531312
0.105734
0.13292
0.154308
0.172423
0.189517
0.0508164
0.102813
0.129962
0.151448
0.169349
0.185896
0.0477434
0.0987287
0.125741
0.147247
0.16478
0.180523
0.0438668
0.093296
0.120062
0.141598
0.158798
0.173698
0.039157
0.0862232
0.112613
0.134267
0.151385
0.165692
0.0335714
0.0770429
0.102869
0.124794
0.142277
0.156591
0.027023
0.0648993
0.0898566
0.112251
0.130701
0.145882
0.0187923
0.0474693
0.0712255
0.0945181
0.114791
0.130884
0.00499458
0.0199274
0.0427162
0.0688208
0.0929662
0.115902
0.179631
0.269058
0.276889
0.253599
0.208825
0.163982
0.125612
0.0960562
0.0746943
0.0596328
0.048951
0.0411945
0.0353892
0.0309088
0.027348
0.0244363
0.0219845
0.0198516
0.0179233
0.0160944
0.0142518
0.0122606
0.00992388
0.00665725
0.1294
0.234467
0.265042
0.253603
0.219978
0.177725
0.138833
0.10721
0.0834886
0.0664367
0.0542965
0.0455372
0.0390565
0.034121
0.0302517
0.0271312
0.0245416
0.0223255
0.0203609
0.0185436
0.016775
0.0149804
0.01326
0.0122802
0.113333
0.201373
0.246311
0.248312
0.227461
0.189431
0.151525
0.118791
0.0930907
0.0740642
0.0603389
0.0504348
0.0431669
0.0377021
0.0334834
0.0301427
0.0274344
0.0251936
0.0233117
0.021721
0.020385
0.0193177
0.0186975
0.0189333
0.118468
0.179135
0.226024
0.237864
0.226913
0.198001
0.162889
0.130292
0.10327
0.0824699
0.0671151
0.0559414
0.0477632
0.0416741
0.0370429
0.0334488
0.0306187
0.0283824
0.0266452
0.0253656
0.0245343
0.024173
0.0243632
0.0251301
0.130894
0.168446
0.208465
0.225582
0.222972
0.203827
0.172532
0.14123
0.113708
0.0915241
0.074615
0.0620925
0.0528823
0.046057
0.0409285
0.0370272
0.0340517
0.0318232
0.0302479
0.0292827
0.0289005
0.0290637
0.0297454
0.0307865
0.143711
0.167553
0.196371
0.21327
0.215231
0.204448
0.179685
0.150985
0.123963
0.10099
0.0827594
0.0688923
0.0585542
0.0508754
0.045147
0.0408626
0.0376933
0.0354441
0.0340063
0.0333113
0.0332899
0.0338104
0.03484
0.0360355
0.154229
0.172281
0.19151
0.202723
0.206514
0.201811
0.184526
0.15917
0.133569
0.110529
0.0913771
0.0762924
0.0647906
0.0561566
0.0497168
0.0449521
0.0415117
0.0391778
0.0378144
0.0373158
0.0375369
0.0383381
0.0396008
0.04091
0.163999
0.18227
0.193831
0.196394
0.198375
0.19659
0.185794
0.165141
0.141994
0.119717
0.1002
0.0841713
0.0715674
0.0619208
0.054665
0.049308
0.0454911
0.0429744
0.0415891
0.0411881
0.0415494
0.042543
0.0439722
0.0453727
0.173853
0.193602
0.200424
0.197168
0.192849
0.190625
0.184097
0.168753
0.148727
0.128041
0.108846
0.0923092
0.0787972
0.0681611
0.0600176
0.053955
0.0496352
0.0468076
0.0452751
0.0448529
0.0452559
0.0463456
0.0478854
0.0493601
0.183763
0.204089
0.210831
0.202514
0.192082
0.186157
0.181101
0.169859
0.153505
0.135085
0.116896
0.100394
0.0863066
0.0748166
0.0657801
0.0589227
0.0539676
0.0506792
0.0488482
0.0482641
0.0486064
0.0496823
0.0512726
0.0528012
0.193126
0.213657
0.222519
0.214382
0.195659
0.185045
0.178163
0.169242
0.156208
0.140461
0.123914
0.108046
0.0938328
0.081752
0.0719164
0.0642326
0.0585296
0.0546233
0.0523212
0.0514081
0.051579
0.0525089
0.0540762
0.0556317
0.201211
0.222228
0.234005
0.228278
0.206404
0.187826
0.177793
0.168732
0.157598
0.144245
0.129594
0.114905
0.101067
0.0887643
0.0783357
0.0698822
0.0633717
0.0587086
0.0557548
0.0543217
0.054172
0.0548239
0.0562573
0.0578014
0.207365
0.22932
0.244057
0.241898
0.223192
0.196905
0.180424
0.169353
0.158619
0.146906
0.134011
0.120682
0.107689
0.09559
0.0848774
0.0758202
0.0685318
0.0630293
0.0592625
0.057112
0.0563911
0.0567037
0.0578112
0.0592863
0.210968
0.234175
0.251628
0.253926
0.241086
0.213245
0.189155
0.173189
0.16086
0.149411
0.137655
0.125514
0.113467
0.10195
0.0913157
0.0819236
0.0740019
0.0676759
0.0629959
0.0599401
0.0584034
0.058201
0.0588144
0.0601129
0.211767
0.235832
0.255771
0.263353
0.256046
0.233121
0.205687
0.18334
0.166902
0.153618
0.141628
0.130038
0.1187
0.107767
0.0974625
0.0880259
0.0797088
0.0726969
0.0671185
0.0630482
0.0604955
0.0593971
0.0595112
0.0603507
0.210017
0.234495
0.256164
0.268479
0.266935
0.251847
0.226289
0.200839
0.179521
0.162394
0.148202
0.135734
0.124287
0.113568
0.103487
0.094118
0.0856077
0.0781108
0.0717683
0.0667022
0.0630101
0.0607576
0.0599777
0.0603034
0.205589
0.229682
0.252459
0.268331
0.272839
0.265367
0.246346
0.222262
0.198621
0.177744
0.160076
0.145119
0.132184
0.120693
0.110257
0.100691
0.0919498
0.0840674
0.0771143
0.0711819
0.0663767
0.062828
0.0607269
0.0603079
0.198818
0.221633
0.244461
0.262889
0.272598
0.271749
0.261153
0.242334
0.220424
0.198443
0.178175
0.160308
0.144834
0.131406
0.11961
0.109111
0.0996856
0.0912045
0.0836099
0.0768948
0.0710937
0.066286
0.0626665
0.060956
0.190228
0.210962
0.232779
0.252398
0.265733
0.270836
0.267309
0.256065
0.239101
0.219574
0.199542
0.180411
0.162932
0.147334
0.133541
0.121355
0.110554
0.100939
0.0923581
0.084701
0.0779051
0.071945
0.0668551
0.0633771
0.180469
0.198591
0.218455
0.237766
0.253213
0.262406
0.264631
0.260216
0.249754
0.235114
0.21826
0.20063
0.183293
0.166909
0.15181
0.138105
0.12577
0.11471
0.104802
0.0959202
0.0879628
0.080837
0.0744678
0.0690417
0.170248
0.18564
0.202953
0.220761
0.236422
0.247917
0.25396
0.254472
0.250021
0.240918
0.228775
0.214773
0.199902
0.184921
0.170357
0.156545
0.143669
0.131799
0.120933
0.111021
0.102011
0.0938087
0.0864399
0.0793469
0.160312
0.173204
0.187836
0.203389
0.21789
0.229652
0.237459
0.240959
0.240324
0.236047
0.228448
0.218674
0.20747
0.195482
0.183231
0.171098
0.159367
0.148197
0.137658
0.127771
0.118574
0.110046
0.10234
0.0946842
0.151256
0.162241
0.174422
0.187589
0.200209
0.210844
0.218582
0.222908
0.224174
0.222537
0.218289
0.211977
0.204236
0.195534
0.186276
0.176814
0.167426
0.158375
0.149778
0.141643
0.13386
0.126453
0.119656
0.113358
0.143401
0.153397
0.16354
0.174725
0.185512
0.194551
0.201092
0.204806
0.206165
0.205303
0.202505
0.198157
0.19271
0.186524
0.179906
0.173111
0.166331
0.159706
0.153439
0.147738
0.142774
0.138396
0.134562
0.131571
0.00360575
0.0100642
0.0333256
0.0637132
0.0911351
0.116751
0.0147862
0.0233442
0.0497971
0.0777467
0.101471
0.122427
0.0195102
0.0349936
0.0613579
0.0858071
0.106216
0.123107
0.0220628
0.042801
0.0680685
0.0898793
0.107756
0.121922
0.0238161
0.04817
0.0720708
0.0918532
0.107778
0.120094
0.0249417
0.0520226
0.0743889
0.0925512
0.106965
0.117967
0.0263253
0.054603
0.075579
0.0924069
0.105582
0.115565
0.0274986
0.0562265
0.0759605
0.0916178
0.103755
0.11288
0.0283712
0.0571068
0.0757707
0.090337
0.101548
0.109904
0.0289365
0.0573834
0.0750765
0.0886532
0.0990065
0.106649
0.029203
0.0571794
0.073993
0.0866314
0.0961709
0.103152
0.0291908
0.0565141
0.0725731
0.0843192
0.0930819
0.0994728
0.0289369
0.0554221
0.0708459
0.0817498
0.0897776
0.0956841
0.0285355
0.053901
0.0688203
0.0789423
0.0862895
0.0918622
0.0279564
0.0519568
0.0664883
0.0759016
0.082641
0.0880789
0.0271662
0.0495583
0.0638296
0.0726219
0.0788441
0.0843924
0.0260544
0.0466564
0.0608232
0.0690936
0.0748974
0.080855
0.0249612
0.0433538
0.0574781
0.065309
0.0707829
0.0775751
0.024413
0.0400384
0.0538449
0.0612568
0.0664523
0.0745874
0.0235518
0.036943
0.0499355
0.0568919
0.0618171
0.0715243
0.0222097
0.0337722
0.045561
0.0520534
0.0567512
0.0677688
0.0203635
0.0299882
0.040165
0.0462968
0.0507037
0.0626533
0.0166425
0.024094
0.032089
0.0382633
0.0416763
0.0560115
0.00460364
0.00902484
0.0142329
0.0204988
0.0240509
0.0321661
0.138774
0.146846
0.155435
0.165324
0.174869
0.182684
0.187945
0.190563
0.19121
0.189957
0.187184
0.183318
0.178741
0.173771
0.168675
0.163676
0.158947
0.154617
0.150774
0.147448
0.144643
0.142455
0.141002
0.140382
0.136228
0.142251
0.149889
0.159278
0.16861
0.176203
0.181068
0.183227
0.183472
0.181841
0.178818
0.174868
0.170383
0.165682
0.161024
0.156616
0.152625
0.149176
0.146345
0.14416
0.142612
0.141648
0.141143
0.141041
0.133834
0.13899
0.146361
0.156025
0.165864
0.173896
0.179096
0.181477
0.18186
0.180354
0.177443
0.173609
0.169252
0.164693
0.160189
0.155933
0.152075
0.148726
0.145954
0.143782
0.142183
0.141092
0.140415
0.140047
0.131389
0.136497
0.144146
0.154531
0.165189
0.174171
0.180602
0.184132
0.185391
0.184785
0.182681
0.179567
0.175822
0.171756
0.167604
0.163547
0.159715
0.156196
0.15305
0.150306
0.14798
0.146079
0.144607
0.143517
0.128927
0.13434
0.142557
0.153892
0.16586
0.17643
0.184486
0.189748
0.192458
0.193225
0.192448
0.190581
0.187955
0.184851
0.181479
0.177992
0.174497
0.171069
0.167765
0.164635
0.161739
0.159166
0.156994
0.155223
0.126324
0.132167
0.141017
0.153316
0.166584
0.178458
0.187677
0.194003
0.197784
0.199539
0.199768
0.198969
0.197431
0.19533
0.192888
0.190239
0.187462
0.184608
0.181709
0.178798
0.17593
0.173202
0.170688
0.168319
0.123496
0.129697
0.139033
0.152041
0.166046
0.178379
0.18783
0.194329
0.198327
0.20037
0.200922
0.200478
0.199389
0.197682
0.195615
0.193319
0.190861
0.188276
0.185584
0.182802
0.179969
0.177176
0.174516
0.171689
0.12037
0.126744
0.136281
0.149499
0.163251
0.174556
0.182492
0.187587
0.190439
0.191648
0.19165
0.190926
0.189746
0.188121
0.186169
0.184051
0.181789
0.179387
0.176836
0.174121
0.171241
0.168232
0.165349
0.161754
0.116916
0.12327
0.132736
0.145597
0.157586
0.165374
0.169011
0.16996
0.169309
0.167937
0.166045
0.163862
0.161524
0.159103
0.156632
0.154104
0.151496
0.148777
0.145905
0.142815
0.139508
0.135802
0.132428
0.127438
0.113167
0.119433
0.128846
0.141086
0.149792
0.151617
0.14831
0.143281
0.138128
0.133311
0.128834
0.124678
0.120807
0.117172
0.113708
0.110306
0.10686
0.103285
0.0995417
0.0955758
0.0915022
0.0869255
0.0830598
0.0769845
0.10923
0.115631
0.125936
0.137783
0.141789
0.136645
0.125763
0.11588
0.107441
0.100337
0.0940603
0.0884142
0.0832876
0.0785867
0.0741971
0.0700615
0.0661586
0.0624624
0.058975
0.0556987
0.0526885
0.0498223
0.0475778
0.0450034
0.105274
0.112421
0.125078
0.136876
0.135227
0.123026
0.108301
0.0977069
0.0898956
0.0829422
0.0764005
0.07027
0.0646379
0.0595505
0.0550173
0.0510223
0.0475175
0.0444498
0.0417803
0.0394887
0.0375697
0.0360277
0.0350337
0.0343318
0.101507
0.110587
0.127395
0.137037
0.130201
0.111618
0.0982036
0.0894412
0.0821448
0.075179
0.0684219
0.0620464
0.0562294
0.0510616
0.0465699
0.0427254
0.0394731
0.0367528
0.0345231
0.0327658
0.0314808
0.0306987
0.0304583
0.0306993
0.0981667
0.111106
0.133154
0.136945
0.123019
0.103683
0.0931055
0.085254
0.0777976
0.0703875
0.063243
0.0566962
0.0509119
0.0459283
0.0417001
0.0381542
0.035218
0.0328264
0.0309409
0.0295476
0.0286661
0.0283523
0.0285669
0.0294813
0.0955732
0.114992
0.138998
0.135439
0.114547
0.0993621
0.0903406
0.0820187
0.0736169
0.0654712
0.0579429
0.0513304
0.0456973
0.0409877
0.0371034
0.0339409
0.0314126
0.0294545
0.0280369
0.0271657
0.026857
0.0270197
0.0276966
0.0291523
0.094124
0.122453
0.140934
0.130388
0.108565
0.0973267
0.0881342
0.0785679
0.069253
0.0606085
0.053022
0.0466134
0.041308
0.0369709
0.0334666
0.030681
0.0285308
0.026968
0.0259739
0.0255546
0.0256506
0.0261806
0.0273315
0.0290299
0.0941119
0.131438
0.139005
0.121807
0.106483
0.0960919
0.0853461
0.0746206
0.0646852
0.0559817
0.0486794
0.0426806
0.0378126
0.033902
0.0307999
0.0283915
0.0265987
0.0253786
0.0247154
0.0246039
0.0249051
0.0257244
0.0270971
0.0288771
0.095705
0.136148
0.133234
0.117888
0.105752
0.0939817
0.0816322
0.0700606
0.0599718
0.0515923
0.0447622
0.0392537
0.0348473
0.0313535
0.0286217
0.0265417
0.0250427
0.0240887
0.0236669
0.0237384
0.0242216
0.0252306
0.0266867
0.0284418
0.0988192
0.136456
0.128077
0.116984
0.104788
0.0907005
0.0770369
0.06519
0.0554707
0.0476195
0.0413278
0.0363163
0.0323471
0.0292279
0.0268122
0.024998
0.0237219
0.0229525
0.0226784
0.0228393
0.0234283
0.0244826
0.0259294
0.0276093
0.0990292
0.133189
0.126282
0.117564
0.102477
0.0861068
0.0718764
0.0603944
0.0512569
0.0440099
0.0382732
0.0337412
0.0301719
0.0273784
0.0252235
0.0236139
0.0224934
0.0218344
0.0216276
0.0218193
0.0224217
0.0234399
0.024818
0.0263958
0.0953334
0.131371
0.127732
0.11808
0.0983292
0.0805673
0.0666096
0.0557856
0.0473452
0.0407281
0.035526
0.0314322
0.0282127
0.0256921
0.0237438
0.0222827
0.0212583
0.020647
0.0204423
0.0206092
0.0211515
0.0220766
0.0233446
0.0248092
0.105324
0.134418
0.132992
0.116151
0.0922314
0.0745092
0.0613947
0.051443
0.0437506
0.0377458
0.0330337
0.0293248
0.0264018
0.0241036
0.0223142
0.0209554
0.0199805
0.0193678
0.0191133
0.0192051
0.0196284
0.0204126
0.021538
0.0228839
0.126454
0.146554
0.136018
0.108039
0.0847311
0.0683865
0.0564506
0.0474227
0.0404545
0.0350156
0.0307411
0.0273655
0.0246918
0.0225736
0.0209051
0.0196134
0.0186535
0.0180039
0.0176613
0.0176317
0.017892
0.018488
0.0194384
0.0206593
0.148726
0.158913
0.133193
0.0990817
0.0773174
0.0625636
0.0518397
0.0437172
0.0374299
0.0325036
0.0286132
0.025523
0.0230573
0.0210848
0.0195085
0.0182595
0.0172929
0.0165847
0.0161287
0.0159316
0.0159986
0.0163519
0.017079
0.0181577
0.00564259
0.0269128
0.0623883
0.100435
0.145966
0.154166
0.0196669
0.0559655
0.0970388
0.138597
0.178889
0.218592
0.0248474
0.0701788
0.112758
0.15341
0.186209
0.203261
0.0279251
0.0789797
0.120186
0.156251
0.176214
0.175134
0.0320054
0.0844067
0.122857
0.152421
0.159549
0.150263
0.0347737
0.0876914
0.122901
0.145086
0.143809
0.129626
0.0366225
0.089461
0.121278
0.136971
0.131378
0.114824
0.0378
0.0900858
0.118761
0.129722
0.12192
0.10512
0.0384699
0.0897961
0.115847
0.123876
0.11507
0.0987689
0.0387265
0.0887357
0.112835
0.119432
0.110425
0.0944719
0.0386275
0.0870025
0.109888
0.116162
0.107457
0.0915876
0.0381928
0.0846687
0.107085
0.113787
0.105769
0.0897593
0.0374266
0.0817428
0.104426
0.112153
0.105037
0.0887782
0.0363336
0.0782363
0.101823
0.111074
0.105015
0.0885724
0.0349308
0.0741584
0.0991182
0.110349
0.105602
0.08902
0.0332271
0.0695224
0.0960786
0.109774
0.106654
0.0901523
0.0312346
0.0643443
0.0923848
0.109126
0.107995
0.0919272
0.0288621
0.0586079
0.0876721
0.108137
0.109373
0.0942988
0.0259674
0.05229
0.0814877
0.106311
0.110321
0.0971753
0.024694
0.0454535
0.0735075
0.102778
0.110688
0.100349
0.0232106
0.0384443
0.0634577
0.0962749
0.109741
0.102717
0.0211784
0.0309964
0.0512657
0.084622
0.105688
0.103499
0.0172674
0.0219545
0.0357635
0.064036
0.0947041
0.0980399
0.0046773
0.00702806
0.0134692
0.0310243
0.0727672
0.091376
0.188325
0.164888
0.118733
0.0889864
0.0700618
0.0571097
0.0475994
0.0403325
0.0346635
0.0301895
0.026631
0.0237831
0.0214908
0.0196368
0.0181322
0.0169111
0.0159273
0.0151514
0.0145704
0.0141847
0.0140053
0.0140669
0.0144807
0.015371
0.203758
0.148448
0.104948
0.0792827
0.0632498
0.0521099
0.0437565
0.0372656
0.0321406
0.0280581
0.0247844
0.0221426
0.0199968
0.0182416
0.0167955
0.0155957
0.014594
0.0137551
0.0130548
0.0124797
0.0120264
0.0117227
0.0117099
0.0122775
0.176016
0.123907
0.0908135
0.0706985
0.0574185
0.047777
0.0403614
0.0345123
0.0298464
0.0260983
0.0230693
0.0206054
0.0185865
0.0169178
0.0155247
0.0143473
0.0133373
0.0124545
0.0116644
0.0109355
0.0102381
0.00955955
0.00897235
0.00884605
0.145985
0.105768
0.0800385
0.0636989
0.0524137
0.0439586
0.0373272
0.0320274
0.0277576
0.0242994
0.0214837
0.0191767
0.0172721
0.0156847
0.0143464
0.0132015
0.0122036
0.0113125
0.0104908
0.00969928
0.00889071
0.00801288
0.00703026
0.00563507
0.121106
0.0912701
0.0713257
0.0578672
0.048128
0.0406218
0.0346353
0.0297961
0.0258632
0.0226546
0.0200254
0.0178587
0.0160599
0.0145527
0.0132752
0.0121771
0.0112161
0.0103564
0.00956589
0.00881164
0.00805407
0.00725096
0.00637333
0.00520768
0.104338
0.0809572
0.0645809
0.0530506
0.0444576
0.0377052
0.0322487
0.0277951
0.0241481
0.0211543
0.0186885
0.0166476
0.0149471
0.0135182
0.0123049
0.0112615
0.0103501
0.00953899
0.00879997
0.00810421
0.00741561
0.00669831
0.00594165
0.00499999
0.0931987
0.0733685
0.059202
0.0490341
0.0413152
0.0351621
0.0301377
0.0260044
0.0225984
0.0197887
0.0174654
0.0155366
0.013926
0.0125712
0.0114208
0.010433
0.00957314
0.00881238
0.00812548
0.00748639
0.00686256
0.00622534
0.00557632
0.00481379
0.0855053
0.0676168
0.0548716
0.0456775
0.0386254
0.0329478
0.0282743
0.0244051
0.0212012
0.0185482
0.0163484
0.0145185
0.0129891
0.0117025
0.0106114
0.00967687
0.00886693
0.00815502
0.00751823
0.00693309
0.00637086
0.00580953
0.00525768
0.00464161
0.079979
0.0631562
0.0513568
0.0428709
0.0363286
0.0310258
0.0266343
0.0229811
0.019945
0.0174243
0.0153305
0.0135873
0.0121303
0.0109059
0.00986986
0.00898571
0.0082236
0.00755895
0.00697083
0.0064381
0.00593554
0.00544635
0.00498178
0.00448703
0.0758909
0.0596603
0.0485024
0.0405323
0.0343762
0.0293647
0.0251966
0.0217176
0.0188193
0.0164093
0.0144059
0.0127382
0.0113456
0.0101776
0.00919259
0.00835613
0.00764011
0.0070216
0.00648123
0.00599974
0.00555475
0.005133
0.00474551
0.00435097
0.0728522
0.056927
0.0462008
0.0385993
0.0327283
0.0279379
0.0239431
0.0206021
0.0178152
0.0154967
0.0135698
0.0119672
0.0106316
0.00951493
0.00857736
0.00778627
0.00711496
0.00654169
0.00604823
0.00561656
0.00522636
0.00486641
0.00454579
0.00423326
0.07064
0.0548318
0.0443761
0.0370224
0.0313518
0.0267226
0.022858
0.0196234
0.0169248
0.0146807
0.0128176
0.0112711
0.00998578
0.0089156
0.00802229
0.00727451
0.0066466
0.00611764
0.00566996
0.00528615
0.00494718
0.00464272
0.0043791
0.00413293
0.0691267
0.0532915
0.0429701
0.0357619
0.0302191
0.0256998
0.0219281
0.0187721
0.0161411
0.013956
0.0121454
0.0106464
0.00940538
0.00837735
0.00752531
0.00681883
0.00623294
0.00574705
0.0053435
0.00500494
0.00471297
0.00445738
0.00424161
0.00404859
0.068236
0.0522487
0.0419397
0.0347869
0.0293086
0.0248543
0.0211422
0.0180401
0.0154581
0.013318
0.0115494
0.0100902
0.00888768
0.00789767
0.00708395
0.00641668
0.00587116
0.00542666
0.00506504
0.00476849
0.00451884
0.00430554
0.00412948
0.00397867
0.0679227
0.0516672
0.0412551
0.0340752
0.0286037
0.0241739
0.0204916
0.0174207
0.0148704
0.0127624
0.011026
0.00959931
0.0084298
0.00747378
0.00669539
0.00606502
0.00555784
0.00515254
0.00483005
0.00457182
0.00435962
0.00418245
0.00403909
0.00392162
0.0681695
0.051529
0.040899
0.0336124
0.0280931
0.0236497
0.0199694
0.0169085
0.0143736
0.0122852
0.0105717
0.00917053
0.00802873
0.00710266
0.00635646
0.00576039
0.0052891
0.00492031
0.0046337
0.0044098
0.00423028
0.00408366
0.00396718
0.00387592
0.0689776
0.0518333
0.0408659
0.0333912
0.0277697
0.0232758
0.0195703
0.0164989
0.0139638
0.0118832
0.0101835
0.00880082
0.00768141
0.00678113
0.00606377
0.0054991
0.00506085
0.00472543
0.00447108
0.00427742
0.00412608
0.00400523
0.00391085
0.00384011
0.0703796
0.0525977
0.0411612
0.0334065
0.0276304
0.0230482
0.0192906
0.0161885
0.0136379
0.0115533
0.00985841
0.00848727
0.00738482
0.00650598
0.00581386
0.00527734
0.00486893
0.00456341
0.00433753
0.00417008
0.00404278
0.00394366
0.00386759
0.00381287
0.0724341
0.0538696
0.0418026
0.0336704
0.027666
0.0229646
0.0191277
0.0159747
0.0133934
0.0112931
0.00959391
0.00822725
0.00713611
0.00627408
0.00560324
0.00509131
0.00470923
0.00442999
0.00422876
0.00408362
0.00397656
0.00389572
0.00383508
0.00379288
0.0752374
0.0557122
0.0428233
0.0341909
0.027896
0.023014
0.0190796
0.0158557
0.0132283
0.0111006
0.00938805
0.00801862
0.00693285
0.00608265
0.00542872
0.00493738
0.00457783
0.00432112
0.00414084
0.00401438
0.00392399
0.00385819
0.00381087
0.00377846
0.0789276
0.0582125
0.044258
0.0349845
0.0283167
0.0232172
0.0191358
0.0158299
0.0131413
0.0109746
0.00923949
0.00785987
0.00677328
0.00592951
0.00528768
0.00481252
0.00447138
0.00423336
0.00407052
0.00395957
0.00388287
0.00382915
0.00379239
0.00376784
0.0836797
0.0614808
0.046141
0.0360612
0.0289333
0.0235634
0.019313
0.0158882
0.0131315
0.0109143
0.00914753
0.00775022
0.00665642
0.0058134
0.00517846
0.00471464
0.00438748
0.00416417
0.00401531
0.00391693
0.0038514
0.00380741
0.00377866
0.00376051
0.0896549
0.0656157
0.0484797
0.0374174
0.029741
0.0240522
0.0196014
0.0160415
0.0131902
0.0109185
0.00911201
0.00768951
0.00658197
0.00573375
0.00510014
0.00464248
0.00432454
0.00411175
0.00397331
0.00388458
0.00382779
0.00379151
0.00376908
0.00375592
0.0968902
0.0706015
0.0512202
0.0390242
0.0307258
0.0246776
0.0200005
0.016289
0.0133297
0.0109813
0.00913057
0.00767826
0.0065503
0.00569056
0.00505234
0.00459521
0.00428142
0.00407476
0.00394312
0.0038611
0.00381067
0.00378019
0.00376261
0.00375317
)
;

boundaryField
{
    rotor
    {
        type            kqRWallFunction;
        value           nonuniform List<scalar> 
144
(
0.00507529
0.0224809
0.0540199
0.0805788
0.0958058
0.102556
0.00507529
0.017006
0.025439
0.0318648
0.0373897
0.0420993
0.0459516
0.0489983
0.051316
0.0529788
0.0540448
0.0545562
0.0546104
0.0544283
0.0539201
0.0529982
0.0515661
0.049506
0.0466584
0.0428165
0.0377438
0.0312165
0.0225471
0.00699483
0.00699483
0.0180242
0.0413109
0.0686213
0.102887
0.130631
0.00639033
0.0159443
0.030453
0.0404158
0.0436667
0.0511828
0.00639033
0.0210092
0.0289334
0.034878
0.0396968
0.0436257
0.0468438
0.0494741
0.0516041
0.0533059
0.0546535
0.055595
0.0559006
0.0556508
0.0547317
0.0531312
0.0508164
0.0477434
0.0438668
0.039157
0.0335714
0.027023
0.0187923
0.00499458
0.00499458
0.0199274
0.0427162
0.0688208
0.0929662
0.115902
0.00360575
0.0100642
0.0333256
0.0637132
0.0911351
0.116751
0.00360575
0.0147862
0.0195102
0.0220628
0.0238161
0.0249417
0.0263253
0.0274986
0.0283712
0.0289365
0.029203
0.0291908
0.0289369
0.0285355
0.0279564
0.0271662
0.0260544
0.0249612
0.024413
0.0235518
0.0222097
0.0203635
0.0166425
0.00460364
0.00460364
0.00902484
0.0142329
0.0204988
0.0240509
0.0321661
0.00564259
0.0269128
0.0623883
0.100435
0.145966
0.154166
0.00564259
0.0196669
0.0248474
0.0279251