/*--------------------------------*- C++ -*----------------------------------*\
  =========                 |
  \\      /  F ield         | OpenFOAM: The Open Source CFD Toolbox
   \\    /   O peration     | Website:  https://openfoam.org
    \\  /    A nd           | Version:  11
     \\/     M anipulation  |
\*---------------------------------------------------------------------------*/
FoamFile
{
    format      ascii;
    class       surfaceScalarField;
    location    "1.98";
    object      meshPhi;
}
// * * * * * * * * * * * * * * * * * * * * * * * * * * * * * * * * * * * * * //

dimensions      [0 3 -1 0 0 0 0];

internalField   nonuniform List<scalar> 
5640
(
1.36959e-16
9.81747e-07
2.42055e-16
1.37445e-06
3.76825e-16
1.76715e-06
-1.33942e-15
2.15984e-06
-3.68175e-15
2.55254e-06
2.94524e-06
5.95108e-15
1.8259e-18
9.81747e-07
-3.88842e-16
1.37445e-06
-2.60414e-15
1.76715e-06
1.94351e-15
2.15984e-06
8.06603e-15
2.55254e-06
2.94524e-06
-9.02994e-15
-1.16479e-16
9.81747e-07
1.86363e-16
1.37445e-06
-1.56241e-15
1.76715e-06
-4.21267e-15
2.15984e-06
-7.49841e-15
2.55254e-06
2.94524e-06
7.72267e-16
8.6943e-17
9.81747e-07
-1.01951e-16
1.37445e-06
2.69307e-15
1.76715e-06
7.44271e-15
2.15984e-06
3.25972e-15
2.55254e-06
2.94524e-06
-2.79821e-15
-4.83801e-17
9.81747e-07
3.95081e-17
1.37445e-06
1.94219e-16
1.76715e-06
-1.80618e-15
2.15984e-06
-4.20865e-15
2.55254e-06
2.94524e-06
5.01333e-15
-1.8013e-16
9.81747e-07
4.29315e-18
1.37445e-06
-1.8478e-15
1.76715e-06
-3.88612e-15
2.15984e-06
3.15698e-15
2.55254e-06
2.94524e-06
4.97916e-16
2.53965e-16
9.81747e-07
2.55442e-16
1.37445e-06
2.06594e-15
1.76715e-06
4.50406e-15
2.15984e-06
-2.31004e-15
2.55254e-06
2.94524e-06
5.40652e-16
2.16351e-17
9.81747e-07
-3.21727e-16
1.37445e-06
-1.14893e-15
1.76715e-06
-5.2857e-15
2.15984e-06
-3.76914e-16
2.55254e-06
2.94524e-06
-5.64006e-15
-1.43441e-16
9.81747e-07
1.66395e-16
1.37445e-06
4.19107e-15
1.76715e-06
6.3493e-15
2.15984e-06
-8.05849e-16
2.55254e-06
2.94524e-06
8.39141e-16
-6.8842e-17
9.81747e-07
-9.2058e-17
1.37445e-06
-2.7694e-15
1.76715e-06
-3.68838e-16
2.15984e-06
-1.45106e-15
2.55254e-06
2.94524e-06
-1.7673e-16
1.66311e-16
9.81747e-07
-8.87261e-17
1.37445e-06
5.69609e-16
1.76715e-06
-2.10361e-15
2.15984e-06
9.65991e-15
2.55254e-06
2.94524e-06
5.28993e-15
-1.77813e-16
9.81747e-07
-2.05436e-17
1.37445e-06
-3.45522e-16
1.76715e-06
-4.17273e-15
2.15984e-06
-2.62244e-15
2.55254e-06
2.94524e-06
5.36944e-15
1.77754e-16
9.81747e-07
2.05151e-17
1.37445e-06
3.45457e-16
1.76715e-06
4.17253e-15
2.15984e-06
2.62231e-15
2.55254e-06
2.94524e-06
-5.36953e-15
-1.66378e-16
9.81747e-07
8.86372e-17
1.37445e-06
-5.697e-16
1.76715e-06
2.10341e-15
2.15984e-06
-9.65992e-15
2.55254e-06
2.94524e-06
-5.29037e-15
6.87995e-17
9.81747e-07
9.2012e-17
1.37445e-06
2.76936e-15
1.76715e-06
3.68705e-16
2.15984e-06
1.4508e-15
2.55254e-06
2.94524e-06
1.76529e-16
1.43413e-16
9.81747e-07
-1.66417e-16
1.37445e-06
-4.19122e-15
1.76715e-06
-6.34947e-15
2.15984e-06
8.0562e-16
2.55254e-06
2.94524e-06
-8.39329e-16
-2.16668e-17
9.81747e-07
3.21647e-16
1.37445e-06
1.14878e-15
1.76715e-06
5.28569e-15
2.15984e-06
3.76701e-16
2.55254e-06
2.94524e-06
5.63974e-15
-2.53985e-16
9.81747e-07
-2.55461e-16
1.37445e-06
-2.06601e-15
1.76715e-06
-4.50413e-15
2.15984e-06
2.30989e-15
2.55254e-06
2.94524e-06
-5.4083e-16
1.80106e-16
9.81747e-07
-4.3504e-18
1.37445e-06
1.84768e-15
1.76715e-06
3.88615e-15
2.15984e-06
-3.15703e-15
2.55254e-06
2.94524e-06
-4.98299e-16
4.83586e-17
9.81747e-07
-3.95592e-17
1.37445e-06
-1.94391e-16
1.76715e-06
1.80603e-15
2.15984e-06
4.20844e-15
2.55254e-06
2.94524e-06
-5.01347e-15
-8.69798e-17
9.81747e-07
1.01902e-16
1.37445e-06
-2.69321e-15
1.76715e-06
-7.44281e-15
2.15984e-06
-3.25993e-15
2.55254e-06
2.94524e-06
2.79792e-15
1.16443e-16
9.81747e-07
-1.86393e-16
1.37445e-06
1.56235e-15
1.76715e-06
4.21246e-15
2.15984e-06
7.49827e-15
2.55254e-06
2.94524e-06
-7.72418e-16
-1.85792e-18
9.81747e-07
3.88749e-16
1.37445e-06
2.60418e-15
1.76715e-06
-1.94376e-15
2.15984e-06
-8.06631e-15
2.55254e-06
2.94524e-06
9.02986e-15
-1.36975e-16
-2.42083e-16
-3.77023e-16
1.33914e-15
3.68158e-15
-5.95138e-15
-1.1336e-14
4.53785e-06
-4.53785e-06
-4.81127e-16
5.23599e-06
-5.23599e-06
-5.35778e-15
5.93412e-06
-5.93412e-06
-1.1304e-14
6.63225e-06
-6.63225e-06
4.86881e-15
7.33038e-06
-7.33038e-06
-1.11043e-15
8.02851e-06
-8.02851e-06
-8.15805e-15
8.72664e-06
-8.72664e-06
1.30441e-14
9.42478e-06
-9.42478e-06
5.94921e-15
1.01229e-05
-1.01229e-05
-1.99729e-15
1.0821e-05
-1.0821e-05
2.43865e-14
1.15192e-05
-1.15192e-05
1.61869e-14
1.22173e-05
-1.22173e-05
-3.27882e-14
1.29154e-05
-1.29154e-05
-3.05207e-15
1.36136e-05
-1.36136e-05
-1.4445e-14
1.43117e-05
-1.43117e-05
-2.69041e-14
1.50098e-05
-1.50098e-05
7.74001e-15
1.5708e-05
-1.5708e-05
-4.43928e-15
1.64061e-05
-1.64061e-05
-1.80019e-14
1.71042e-05
-1.71042e-05
2.18207e-14
1.78024e-05
-1.78024e-05
8.20667e-15
1.85005e-05
-1.85005e-05
-6.08412e-15
1.91986e-05
-1.91986e-05
3.89192e-14
1.98967e-05
-1.98967e-05
2.05949e-05
-2.05949e-05
9.39889e-15
4.53785e-06
5.20201e-16
5.23599e-06
7.52799e-15
5.93412e-06
-4.41156e-15
6.63225e-06
3.78362e-15
7.33038e-06
1.33848e-14
8.02851e-06
-2.11093e-15
8.72664e-06
8.5274e-15
9.42478e-06
-1.00271e-14
1.01229e-05
1.86519e-15
1.0821e-05
-2.02032e-14
1.15192e-05
-7.01451e-15
1.22173e-05
7.5081e-15
1.29154e-05
2.36067e-14
1.36136e-05
-2.03993e-15
1.43117e-05
1.48305e-14
1.50098e-05
-1.38819e-14
1.5708e-05
2.39429e-15
1.64061e-05
2.04103e-14
1.71042e-05
-7.02015e-15
1.78024e-05
1.20636e-14
1.85005e-05
-2.59438e-14
1.91986e-05
1.84578e-15
1.98967e-05
2.05949e-05
-8.67632e-15
4.53785e-06
1.22922e-14
5.23599e-06
1.88286e-15
5.93412e-06
8.90221e-15
6.63225e-06
-5.10884e-15
7.33038e-06
-2.19909e-14
8.02851e-06
1.22641e-14
8.72664e-06
-5.37487e-15
9.42478e-06
4.45565e-15
1.01229e-05
-1.43068e-14
1.0821e-05
-7.32741e-15
1.15192e-05
7.03867e-15
1.22173e-05
2.3994e-14
1.29154e-05
-7.55549e-15
1.36136e-05
9.80072e-15
1.43117e-05
-1.62397e-14
1.50098e-05
4.02935e-14
1.5708e-05
1.44438e-14
1.64061e-05
-1.37049e-14
1.71042e-05
-7.90048e-15
1.78024e-05
-3.9255e-14
1.85005e-05
4.2744e-14
1.91986e-05
-8.85572e-15
1.98967e-05
2.05949e-05
5.98596e-15
4.53785e-06
2.18894e-16
5.23599e-06
-6.43627e-15
5.93412e-06
6.06439e-15
6.63225e-06
-2.09339e-15
7.33038e-06
1.61766e-14
8.02851e-06
-1.88308e-14
8.72664e-06
-2.35226e-15
9.42478e-06
9.1704e-15
1.01229e-05
-4.71128e-15
1.0821e-05
2.16262e-14
1.15192e-05
-2.96471e-14
1.22173e-05
-9.28899e-15
1.29154e-05
-1.89089e-14
1.36136e-05
4.46514e-15
1.43117e-05
3.0153e-14
1.50098e-05
-2.62167e-14
1.5708e-05
4.31033e-16
1.64061e-05
-2.11727e-14
1.71042e-05
1.87115e-14
1.78024e-05
-3.92276e-15
1.85005e-05
-2.91655e-14
1.91986e-05
1.52297e-14
1.98967e-05
2.05949e-05
6.71468e-15
4.53785e-06
-7.30661e-15
5.23599e-06
1.11008e-14
5.93412e-06
-4.24097e-15
6.63225e-06
1.51021e-14
7.33038e-06
-5.21043e-15
8.02851e-06
1.70133e-14
8.72664e-06
-3.9416e-15
9.42478e-06
-2.94969e-16
1.01229e-05
6.60998e-15
1.0821e-05
1.37048e-14
1.15192e-05
1.0184e-14
1.22173e-05
1.82171e-14
1.29154e-05
1.43642e-14
1.36136e-05
2.33394e-14
1.43117e-05
-2.53453e-14
1.50098e-05
2.90709e-14
1.5708e-05
-7.83264e-15
1.64061e-05
3.54189e-14
1.71042e-05
-4.51379e-15
1.78024e-05
4.23713e-14
1.85005e-05
-5.87877e-16
1.91986e-05
-8.73372e-15
1.98967e-05
2.05949e-05
-4.63073e-15
4.53785e-06
5.7972e-15
5.23599e-06
-1.61506e-14
5.93412e-06
-5.9749e-15
6.63225e-06
-8.55518e-15
7.33038e-06
4.22309e-15
8.02851e-06
-8.18796e-15
8.72664e-06
6.99758e-15
9.42478e-06
-2.42303e-14
1.01229e-05
-7.76964e-15
1.0821e-05
-2.27655e-14
1.15192e-05
8.34825e-15
1.22173e-05
-7.40635e-15
1.29154e-05
2.82618e-14
1.36136e-05
-4.57106e-14
1.43117e-05
-8.22179e-15
1.50098e-05
-2.82282e-14
1.5708e-05
-2.34396e-15
1.64061e-05
-6.94446e-15
1.71042e-05
2.21451e-14
1.78024e-05
-3.41091e-14
1.85005e-05
-3.74371e-15
1.91986e-05
-3.23474e-14
1.98967e-05
2.05949e-05
-8.92506e-15
4.53785e-06
-2.28893e-15
5.23599e-06
-2.22411e-15
5.93412e-06
6.616e-15
6.63225e-06
-3.38864e-15
7.33038e-06
-3.9068e-15
8.02851e-06
-6.41942e-15
8.72664e-06
-7.1591e-15
9.42478e-06
6.80865e-15
1.01229e-05
6.98326e-15
1.0821e-05
-9.06562e-15
1.15192e-05
6.75769e-15
1.22173e-05
-2.88903e-14
1.29154e-05
-1.22371e-14
1.36136e-05
4.80436e-15
1.43117e-05
2.5025e-14
1.50098e-05
3.85992e-15
1.5708e-05
3.60836e-15
1.64061e-05
-2.04853e-14
1.71042e-05
-2.176e-14
1.78024e-05
3.46532e-15
1.85005e-05
2.9038e-14
1.91986e-05
-1.66455e-15
1.98967e-05
2.05949e-05
6.21555e-15
4.53785e-06
-3.87956e-15
5.23599e-06
1.54214e-14
5.93412e-06
-7.06514e-15
6.63225e-06
-2.21103e-15
7.33038e-06
1.42856e-15
8.02851e-06
-5.49414e-15
8.72664e-06
1.32247e-14
9.42478e-06
6.04486e-15
1.01229e-05
-1.74506e-14
1.0821e-05
2.08853e-14
1.15192e-05
-2.14465e-14
1.22173e-05
1.91334e-14
1.29154e-05
-7.31839e-15
1.36136e-05
3.84855e-14
1.43117e-05
-1.29225e-14
1.50098e-05
-1.88344e-15
1.5708e-05
5.71423e-15
1.64061e-05
-7.58939e-15
1.71042e-05
2.76554e-14
1.78024e-05
1.40986e-14
1.85005e-05
-5.31428e-14
1.91986e-05
3.90837e-14
1.98967e-05
2.05949e-05
-1.49867e-15
4.53785e-06
1.08967e-14
5.23599e-06
-6.59972e-15
5.93412e-06
7.26526e-15
6.63225e-06
6.17511e-15
7.33038e-06
2.48811e-15
8.02851e-06
-9.65704e-16
8.72664e-06
-4.36501e-15
9.42478e-06
-8.90095e-15
1.01229e-05
1.38631e-14
1.0821e-05
1.06901e-14
1.15192e-05
6.24873e-15
1.22173e-05
-1.2794e-16
1.29154e-05
-3.4402e-15
1.36136e-05
-1.10435e-14
1.43117e-05
-1.77637e-14
1.50098e-05
1.76785e-14
1.5708e-05
9.95244e-15
1.64061e-05
3.32873e-15
1.71042e-05
-3.29738e-14
1.78024e-05
-1.04205e-14
1.85005e-05
3.00661e-14
1.91986e-05
-5.99935e-14
1.98967e-05
2.05949e-05
5.16996e-15
4.53785e-06
-7.45562e-15
5.23599e-06
-7.57257e-16
5.93412e-06
6.83902e-15
6.63225e-06
-9.97417e-15
7.33038e-06
-1.66503e-15
8.02851e-06
9.21807e-15
8.72664e-06
-1.34611e-14
9.42478e-06
2.3221e-14
1.01229e-05
1.04723e-14
1.0821e-05
-1.72724e-14
1.15192e-05
-3.02903e-15
1.22173e-05
1.13978e-14
1.29154e-05
-1.98171e-14
1.36136e-05
-4.67952e-15
1.43117e-05
5.03056e-14
1.50098e-05
-2.40493e-14
1.5708e-05
-6.66013e-15
1.64061e-05
1.4259e-14
1.71042e-05
1.64673e-15
1.78024e-05
-6.8135e-15
1.85005e-05
1.44409e-14
1.91986e-05
5.0754e-14
1.98967e-05
2.05949e-05
-6.19757e-15
4.53785e-06
2.83595e-17
5.23599e-06
1.15115e-14
5.93412e-06
-2.06265e-14
6.63225e-06
5.36623e-15
7.33038e-06
1.22137e-15
8.02851e-06
-4.70705e-17
8.72664e-06
1.23935e-14
9.42478e-06
-1.32267e-14
1.01229e-05
-1.88945e-14
1.0821e-05
-4.96554e-15
1.15192e-05
-7.15496e-15
1.22173e-05
-1.48884e-14
1.29154e-05
3.53368e-14
1.36136e-05
-2.30194e-18
1.43117e-05
-4.31414e-14
1.50098e-05
1.3564e-14
1.5708e-05
-2.82575e-14
1.64061e-05
2.45066e-15
1.71042e-05
-1.02436e-14
1.78024e-05
2.38006e-14
1.85005e-05
1.38729e-14
1.91986e-05
-4.55654e-14
1.98967e-05
2.05949e-05
-1.90667e-15
4.53785e-06
1.13046e-15
5.23599e-06
-2.16622e-14
5.93412e-06
9.62379e-15
6.63225e-06
1.51366e-14
7.33038e-06
-1.4066e-14
8.02851e-06
8.09307e-15
8.72664e-06
-2.69594e-14
9.42478e-06
-1.96466e-15
1.01229e-05
2.9717e-14
1.0821e-05
-1.17469e-14
1.15192e-05
1.98659e-14
1.22173e-05
-2.74465e-14
1.29154e-05
-2.06155e-14
1.36136e-05
1.60397e-14
1.43117e-05
-4.61402e-15
1.50098e-05
4.69111e-15
1.5708e-05
4.79643e-14
1.64061e-05
-1.37422e-14
1.71042e-05
3.23723e-14
1.78024e-05
-3.519e-14
1.85005e-05
-2.49067e-14
1.91986e-05
7.19127e-14
1.98967e-05
2.05949e-05
1.90656e-15
4.53785e-06
-1.13064e-15
5.23599e-06
2.16613e-14
5.93412e-06
-9.62387e-15
6.63225e-06
-1.51375e-14
7.33038e-06
1.40646e-14
8.02851e-06
-8.09355e-15
8.72664e-06
2.69593e-14
9.42478e-06
1.96483e-15
1.01229e-05
-2.97167e-14
1.0821e-05
1.17432e-14
1.15192e-05
-1.98688e-14
1.22173e-05
2.74425e-14
1.29154e-05
2.06162e-14
1.36136e-05
-1.60426e-14
1.43117e-05
4.61368e-15
1.50098e-05
-4.69488e-15
1.5708e-05
-4.79687e-14
1.64061e-05
1.37356e-14
1.71042e-05
-3.23742e-14
1.78024e-05
3.518e-14
1.85005e-05
2.49007e-14
1.91986e-05
-7.192e-14
1.98967e-05
2.05949e-05
6.19694e-15
4.53785e-06
-2.88027e-17
5.23599e-06
-1.15124e-14
5.93412e-06
2.06258e-14
6.63225e-06
-5.36685e-15
7.33038e-06
-1.22175e-15
8.02851e-06
4.63003e-17
8.72664e-06
-1.23952e-14
9.42478e-06
1.32253e-14
1.01229e-05
1.88944e-14
1.0821e-05
4.9615e-15
1.15192e-05
7.154e-15
1.22173e-05
1.48857e-14
1.29154e-05
-3.53409e-14
1.36136e-05
6.88192e-19
1.43117e-05
4.31359e-14
1.50098e-05
-1.35641e-14
1.5708e-05
2.8254e-14
1.64061e-05
-2.45758e-15
1.71042e-05
1.02381e-14
1.78024e-05
-2.38071e-14
1.85005e-05
-1.38756e-14
1.91986e-05
4.55592e-14
1.98967e-05
2.05949e-05
-5.17036e-15
4.53785e-06
7.45506e-15
5.23599e-06
7.56885e-16
5.93412e-06
-6.84023e-15
6.63225e-06
9.9736e-15
7.33038e-06
1.66387e-15
8.02851e-06
-9.21933e-15
8.72664e-06
1.34595e-14
9.42478e-06
-2.32212e-14
1.01229e-05
-1.04732e-14
1.0821e-05
1.72699e-14
1.15192e-05
3.02754e-15
1.22173e-05
-1.13979e-14
1.29154e-05
1.98154e-14
1.36136e-05
4.67713e-15
1.43117e-05
-5.0311e-14
1.50098e-05
2.40425e-14
1.5708e-05
6.65547e-15
1.64061e-05
-1.42614e-14
1.71042e-05
-1.65092e-15
1.78024e-05
6.81029e-15
1.85005e-05
-1.44489e-14
1.91986e-05
-5.07576e-14
1.98967e-05
2.05949e-05
1.4984e-15
4.53785e-06
-1.08975e-14
5.23599e-06
6.5994e-15
5.93412e-06
-7.26603e-15
6.63225e-06
-6.1753e-15
7.33038e-06
-2.48885e-15
8.02851e-06
9.63096e-16
8.72664e-06
4.36355e-15
9.42478e-06
8.89987e-15
1.01229e-05
-1.38642e-14
1.0821e-05
-1.06916e-14
1.15192e-05
-6.25162e-15
1.22173e-05
1.25079e-16
1.29154e-05
3.43664e-15
1.36136e-05
1.1042e-14
1.43117e-05
1.77647e-14
1.50098e-05
-1.76819e-14
1.5708e-05
-9.95539e-15
1.64061e-05
-3.33158e-15
1.71042e-05
3.2965e-14
1.78024e-05
1.04177e-14
1.85005e-05
-3.00719e-14
1.91986e-05
5.99919e-14
1.98967e-05
2.05949e-05
-6.21589e-15
4.53785e-06
3.87906e-15
5.23599e-06
-1.54223e-14
5.93412e-06
7.06462e-15
6.63225e-06
2.21057e-15
7.33038e-06
-1.42988e-15
8.02851e-06
5.49206e-15
8.72664e-06
-1.32266e-14
9.42478e-06
-6.04784e-15
1.01229e-05
1.74496e-14
1.0821e-05
-2.08876e-14
1.15192e-05
2.14441e-14
1.22173e-05
-1.91367e-14
1.29154e-05
7.31428e-15
1.36136e-05
-3.84871e-14
1.43117e-05
1.29218e-14
1.50098e-05
1.88233e-15
1.5708e-05
-5.7195e-15
1.64061e-05
7.58446e-15
1.71042e-05
-2.76637e-14
1.78024e-05
-1.41023e-14
1.85005e-05
5.3135e-14
1.91986e-05
-3.90888e-14
1.98967e-05
2.05949e-05
8.92498e-15
4.53785e-06
2.28881e-15
5.23599e-06
2.22398e-15
5.93412e-06
-6.61674e-15
6.63225e-06
3.38788e-15
7.33038e-06
3.90597e-15
8.02851e-06
6.41899e-15
8.72664e-06
7.15875e-15
9.42478e-06
-6.81124e-15
1.01229e-05
-6.98414e-15
1.0821e-05
9.06424e-15
1.15192e-05
-6.76069e-15
1.22173e-05
2.88875e-14
1.29154e-05
1.22312e-14
1.36136e-05
-4.80641e-15
1.43117e-05
-2.50266e-14
1.50098e-05
-3.86222e-15
1.5708e-05
-3.60967e-15
1.64061e-05
2.04801e-14
1.71042e-05
2.17574e-14
1.78024e-05
-3.46978e-15
1.85005e-05
-2.90401e-14
1.91986e-05
1.66076e-15
1.98967e-05
2.05949e-05
4.63043e-15
4.53785e-06
-5.79763e-15
5.23599e-06
1.61505e-14
5.93412e-06
5.9738e-15
6.63225e-06
8.55479e-15
7.33038e-06
-4.22453e-15
8.02851e-06
8.18759e-15
8.72664e-06
-6.99983e-15
9.42478e-06
2.42274e-14
1.01229e-05
7.76989e-15
1.0821e-05
2.27637e-14
1.15192e-05
-8.35073e-15
1.22173e-05
7.40118e-15
1.29154e-05
-2.82697e-14
1.36136e-05
4.57079e-14
1.43117e-05
8.22263e-15
1.50098e-05
2.82245e-14
1.5708e-05
2.33741e-15
1.64061e-05
6.94357e-15
1.71042e-05
-2.2151e-14
1.78024e-05
3.41059e-14
1.85005e-05
3.73849e-15
1.91986e-05
3.23466e-14
1.98967e-05
2.05949e-05
-6.71533e-15
4.53785e-06
7.30649e-15
5.23599e-06
-1.11013e-14
5.93412e-06
4.24089e-15
6.63225e-06
-1.51029e-14
7.33038e-06
5.20803e-15
8.02851e-06
-1.70139e-14
8.72664e-06
3.93987e-15
9.42478e-06
2.92718e-16
1.01229e-05
-6.61187e-15
1.0821e-05
-1.37055e-14
1.15192e-05
-1.0185e-14
1.22173e-05
-1.82183e-14
1.29154e-05
-1.4371e-14
1.36136e-05
-2.33427e-14
1.43117e-05
2.53419e-14
1.50098e-05
-2.90786e-14
1.5708e-05
7.82319e-15
1.64061e-05
-3.54198e-14
1.71042e-05
4.5097e-15
1.78024e-05
-4.23744e-14
1.85005e-05
5.82779e-16
1.91986e-05
8.73424e-15
1.98967e-05
2.05949e-05
-5.98641e-15
4.53785e-06
-2.19198e-16
5.23599e-06
6.43556e-15
5.93412e-06
-6.06414e-15
6.63225e-06
2.09205e-15
7.33038e-06
-1.61784e-14
8.02851e-06
1.88308e-14
8.72664e-06
2.35073e-15
9.42478e-06
-9.17364e-15
1.01229e-05
4.70942e-15
1.0821e-05
-2.16283e-14
1.15192e-05
2.96458e-14
1.22173e-05
9.28851e-15
1.29154e-05
1.8905e-14
1.36136e-05
-4.46925e-15
1.43117e-05
-3.01579e-14
1.50098e-05
2.62151e-14
1.5708e-05
-4.38449e-16
1.64061e-05
2.11666e-14
1.71042e-05
-1.87155e-14
1.78024e-05
3.91508e-15
1.85005e-05
2.9155e-14
1.91986e-05
-1.52291e-14
1.98967e-05
2.05949e-05
8.67602e-15
4.53785e-06
-1.22929e-14
5.23599e-06
-1.8836e-15
5.93412e-06
-8.90229e-15
6.63225e-06
5.10772e-15
7.33038e-06
2.19894e-14
8.02851e-06
-1.22645e-14
8.72664e-06
5.3737e-15
9.42478e-06
-4.4574e-15
1.01229e-05
1.43052e-14
1.0821e-05
7.32534e-15
1.15192e-05
-7.04165e-15
1.22173e-05
-2.39973e-14
1.29154e-05
7.55539e-15
1.36136e-05
-9.80292e-15
1.43117e-05
1.62341e-14
1.50098e-05
-4.02936e-14
1.5708e-05
-1.44472e-14
1.64061e-05
1.37045e-14
1.71042e-05
7.89701e-15
1.78024e-05
3.92451e-14
1.85005e-05
-4.2753e-14
1.91986e-05
8.85374e-15
1.98967e-05
2.05949e-05
-9.39921e-15
4.53785e-06
-5.2063e-16
5.23599e-06
-7.52901e-15
5.93412e-06
4.41172e-15
6.63225e-06
-3.78355e-15
7.33038e-06
-1.33848e-14
8.02851e-06
2.10866e-15
8.72664e-06
-8.52929e-15
9.42478e-06
1.00256e-14
1.01229e-05
-1.86704e-15
1.0821e-05
2.01996e-14
1.15192e-05
7.00976e-15
1.22173e-05
-7.51181e-15
1.29154e-05
-2.36087e-14
1.36136e-05
2.04153e-15
1.43117e-05
-1.48324e-14
1.50098e-05
1.38781e-14
1.5708e-05
-2.39462e-15
1.64061e-05
-2.04146e-14
1.71042e-05
7.01118e-15
1.78024e-05
-1.20745e-14
1.85005e-05
2.59387e-14
1.91986e-05
-1.84977e-15
1.98967e-05
2.05949e-05
1.13359e-14
4.53785e-06
4.80892e-16
5.23599e-06
5.35691e-15
5.93412e-06
1.13036e-14
6.63225e-06
-4.86939e-15
7.33038e-06
1.10883e-15
8.02851e-06
8.15687e-15
8.72664e-06
-1.30445e-14
9.42478e-06
-5.95048e-15
1.01229e-05
1.99465e-15
1.0821e-05
-2.43883e-14
1.15192e-05
-1.61897e-14
1.22173e-05
3.2783e-14
1.29154e-05
3.05026e-15
1.36136e-05
1.44382e-14
1.43117e-05
2.69008e-14
1.50098e-05
-7.74084e-15
1.5708e-05
4.43531e-15
1.64061e-05
1.79945e-14
1.71042e-05
-2.18256e-14
1.78024e-05
-8.21801e-15
1.85005e-05
6.07847e-15
1.91986e-05
-3.89248e-14
1.98967e-05
2.05949e-05
1.36945e-16
9.81747e-07
2.42054e-16
1.37445e-06
3.76896e-16
1.76715e-06
-1.33942e-15
2.15984e-06
-3.68175e-15
2.55254e-06
2.94524e-06
5.951e-15
1.8259e-18
9.81747e-07
-3.88842e-16
1.37445e-06
-2.60414e-15
1.76715e-06
1.94351e-15
2.15984e-06
8.06603e-15
2.55254e-06
2.94524e-06
-9.02994e-15
-1.16479e-16
9.81747e-07
1.86363e-16
1.37445e-06
-1.56241e-15
1.76715e-06
-4.21267e-15
2.15984e-06
-7.49841e-15
2.55254e-06
2.94524e-06
7.72267e-16
8.6943e-17
9.81747e-07
-1.01951e-16
1.37445e-06
2.69307e-15
1.76715e-06
7.44271e-15
2.15984e-06
3.25972e-15
2.55254e-06
2.94524e-06
-2.79821e-15
-4.83801e-17
9.81747e-07
3.95081e-17
1.37445e-06
1.94219e-16
1.76715e-06
-1.80618e-15
2.15984e-06
-4.20865e-15
2.55254e-06
2.94524e-06
5.01333e-15
-1.8013e-16
9.81747e-07
4.29315e-18
1.37445e-06
-1.8478e-15
1.76715e-06
-3.88612e-15
2.15984e-06
3.15698e-15
2.55254e-06
2.94524e-06
4.97916e-16
2.53965e-16
9.81747e-07
2.55442e-16
1.37445e-06
2.06594e-15
1.76715e-06
4.50406e-15
2.15984e-06
-2.31004e-15
2.55254e-06
2.94524e-06
5.40652e-16
2.16351e-17
9.81747e-07
-3.21727e-16
1.37445e-06
-1.14893e-15
1.76715e-06
-5.2857e-15
2.15984e-06
-3.76914e-16
2.55254e-06
2.94524e-06
-5.64006e-15
-1.43441e-16
9.81747e-07
1.66395e-16
1.37445e-06
4.19107e-15
1.76715e-06
6.3493e-15
2.15984e-06
-8.05849e-16
2.55254e-06
2.94524e-06
8.39141e-16
-6.8842e-17
9.81747e-07
-9.2058e-17
1.37445e-06
-2.7694e-15
1.76715e-06
-3.68838e-16
2.15984e-06
-1.45106e-15
2.55254e-06
2.94524e-06
-1.7673e-16
1.66311e-16
9.81747e-07
-8.87261e-17
1.37445e-06
5.69609e-16
1.76715e-06
-2.10361e-15
2.15984e-06
9.65991e-15
2.55254e-06
2.94524e-06
5.28993e-15
-1.77813e-16
9.81747e-07
-2.05436e-17
1.37445e-06
-3.45522e-16
1.76715e-06
-4.17273e-15
2.15984e-06
-2.62244e-15
2.55254e-06
2.94524e-06
5.36944e-15
1.77754e-16
9.81747e-07
2.05151e-17
1.37445e-06
3.45457e-16
1.76715e-06
4.17253e-15
2.15984e-06
2.62231e-15
2.55254e-06
2.94524e-06
-5.36953e-15
-1.66378e-16
9.81747e-07
8.86372e-17
1.37445e-06
-5.697e-16
1.76715e-06
2.10341e-15
2.15984e-06
-9.65992e-15
2.55254e-06
2.94524e-06
-5.29037e-15
6.87995e-17
9.81747e-07
9.2012e-17
1.37445e-06
2.76936e-15
1.76715e-06
3.68705e-16
2.15984e-06
1.4508e-15
2.55254e-06
2.94524e-06
1.76529e-16
1.43413e-16
9.81747e-07
-1.66417e-16
1.37445e-06
-4.19122e-15
1.76715e-06
-6.34947e-15
2.15984e-06
8.0562e-16
2.55254e-06
2.94524e-06
-8.39329e-16
-2.16668e-17
9.81747e-07
3.21647e-16
1.37445e-06
1.14878e-15
1.76715e-06
5.28569e-15
2.15984e-06
3.76701e-16
2.55254e-06
2.94524e-06
5.63974e-15
-2.53985e-16
9.81747e-07
-2.55461e-16
1.37445e-06
-2.06601e-15
1.76715e-06
-4.50413e-15
2.15984e-06
2.30989e-15
2.55254e-06
2.94524e-06
-5.4083e-16
1.80106e-16
9.81747e-07
-4.3504e-18
1.37445e-06
1.84768e-15
1.76715e-06
3.88615e-15
2.15984e-06
-3.15703e-15
2.55254e-06
2.94524e-06
-4.98299e-16
4.83586e-17
9.81747e-07
-3.95592e-17
1.37445e-06
-1.94391e-16
1.76715e-06
1.80603e-15
2.15984e-06
4.20844e-15
2.55254e-06
2.94524e-06
-5.01347e-15
-8.69798e-17
9.81747e-07
1.01902e-16
1.37445e-06
-2.69321e-15
1.76715e-06
-7.44281e-15
2.15984e-06
-3.25993e-15
2.55254e-06
2.94524e-06
2.79792e-15
1.16443e-16
9.81747e-07
-1.86393e-16
1.37445e-06
1.56235e-15
1.76715e-06
4.21246e-15
2.15984e-06
7.49827e-15
2.55254e-06
2.94524e-06
-7.72418e-16
-1.85792e-18
9.81747e-07
3.88749e-16
1.37445e-06
2.60418e-15
1.76715e-06
-1.94376e-15
2.15984e-06
-8.06631e-15
2.55254e-06
2.94524e-06
9.02986e-15
-1.36975e-16
-2.42102e-16
-3.77071e-16
1.33923e-15
3.68145e-15
-5.95146e-15
-1.13362e-14
4.53785e-06
-4.81327e-16
5.23599e-06
-5.35767e-15
5.93412e-06
-1.13038e-14
6.63225e-06
4.86826e-15
7.33038e-06
-1.11012e-15
8.02851e-06
-8.15902e-15
8.72664e-06
1.30444e-14
9.42478e-06
5.94846e-15
1.01229e-05
-1.99689e-15
1.0821e-05
2.43857e-14
1.15192e-05
1.61873e-14
1.22173e-05
-3.27873e-14
1.29154e-05
-3.05207e-15
1.36136e-05
-1.4445e-14
1.43117e-05
-2.69041e-14
1.50098e-05
7.73767e-15
1.5708e-05
-4.4405e-15
1.64061e-05
-1.80007e-14
1.71042e-05
2.18207e-14
1.78024e-05
8.2067e-15
1.85005e-05
-6.0841e-15
1.91986e-05
3.89177e-14
1.98967e-05
2.05949e-05
9.39889e-15
4.53785e-06
5.20201e-16
5.23599e-06
7.52799e-15
5.93412e-06
-4.41156e-15
6.63225e-06
3.78362e-15
7.33038e-06
1.33848e-14
8.02851e-06
-2.11093e-15
8.72664e-06
8.5274e-15
9.42478e-06
-1.00271e-14
1.01229e-05
1.86519e-15
1.0821e-05
-2.02032e-14
1.15192e-05
-7.01451e-15
1.22173e-05
7.5081e-15
1.29154e-05
2.36067e-14
1.36136e-05
-2.03993e-15
1.43117e-05
1.48305e-14
1.50098e-05
-1.38819e-14
1.5708e-05
2.39429e-15
1.64061e-05
2.04103e-14
1.71042e-05
-7.02015e-15
1.78024e-05
1.20636e-14
1.85005e-05
-2.59438e-14
1.91986e-05
1.84578e-15
1.98967e-05
2.05949e-05
-8.67632e-15
4.53785e-06
1.22922e-14
5.23599e-06
1.88286e-15
5.93412e-06
8.90221e-15
6.63225e-06
-5.10884e-15
7.33038e-06
-2.19909e-14
8.02851e-06
1.22641e-14
8.72664e-06
-5.37487e-15
9.42478e-06
4.45565e-15
1.01229e-05
-1.43068e-14
1.0821e-05
-7.32741e-15
1.15192e-05
7.03867e-15
1.22173e-05
2.3994e-14
1.29154e-05
-7.55549e-15
1.36136e-05
9.80072e-15
1.43117e-05
-1.62397e-14
1.50098e-05
4.02935e-14
1.5708e-05
1.44438e-14
1.64061e-05
-1.37049e-14
1.71042e-05
-7.90048e-15
1.78024e-05
-3.9255e-14
1.85005e-05
4.2744e-14
1.91986e-05
-8.85572e-15
1.98967e-05
2.05949e-05
5.98596e-15
4.53785e-06
2.18894e-16
5.23599e-06
-6.43627e-15
5.93412e-06
6.06439e-15
6.63225e-06
-2.09339e-15
7.33038e-06
1.61766e-14
8.02851e-06
-1.88308e-14
8.72664e-06
-2.35226e-15
9.42478e-06
9.1704e-15
1.01229e-05
-4.71128e-15
1.0821e-05
2.16262e-14
1.15192e-05
-2.96471e-14
1.22173e-05
-9.28899e-15
1.29154e-05
-1.89089e-14
1.36136e-05
4.46514e-15
1.43117e-05
3.0153e-14
1.50098e-05
-2.62167e-14
1.5708e-05
4.31033e-16
1.64061e-05
-2.11727e-14
1.71042e-05
1.87115e-14
1.78024e-05
-3.92276e-15
1.85005e-05
-2.91655e-14
1.91986e-05
1.52297e-14
1.98967e-05
2.05949e-05
6.71468e-15
4.53785e-06
-7.30661e-15
5.23599e-06
1.11008e-14
5.93412e-06
-4.24097e-15
6.63225e-06
1.51021e-14
7.33038e-06
-5.21043e-15
8.02851e-06
1.70133e-14
8.72664e-06
-3.9416e-15
9.42478e-06
-2.94969e-16
1.01229e-05
6.60998e-15
1.0821e-05
1.37048e-14
1.15192e-05
1.0184e-14
1.22173e-05
1.82171e-14
1.29154e-05
1.43642e-14
1.36136e-05
2.33394e-14
1.43117e-05
-2.53453e-14
1.50098e-05
2.90709e-14
1.5708e-05
-7.83264e-15
1.64061e-05
3.54189e-14
1.71042e-05
-4.51379e-15
1.78024e-05
4.23713e-14
1.85005e-05
-5.87877e-16
1.91986e-05
-8.73372e-15
1.98967e-05
2.05949e-05
-4.63073e-15
4.53785e-06
5.7972e-15
5.23599e-06
-1.61506e-14
5.93412e-06
-5.9749e-15
6.63225e-06
-8.55518e-15
7.33038e-06
4.22309e-15
8.02851e-06
-8.18796e-15
8.72664e-06
6.99758e-15
9.42478e-06
-2.42303e-14
1.01229e-05
-7.76964e-15
1.0821e-05
-2.27655e-14
1.15192e-05
8.34825e-15
1.22173e-05
-7.40635e-15
1.29154e-05
2.82618e-14
1.36136e-05
-4.57106e-14
1.43117e-05
-8.22179e-15
1.50098e-05
-2.82282e-14
1.5708e-05
-2.34396e-15
1.64061e-05
-6.94446e-15
1.71042e-05
2.21451e-14
1.78024e-05
-3.41091e-14
1.85005e-05
-3.74371e-15
1.91986e-05
-3.23474e-14
1.98967e-05
2.05949e-05
-8.92506e-15
4.53785e-06
-2.28893e-15
5.23599e-06
-2.22411e-15
5.93412e-06
6.616e-15
6.63225e-06
-3.38864e-15
7.33038e-06
-3.9068e-15
8.02851e-06
-6.41942e-15
8.72664e-06
-7.1591e-15
9.42478e-06
6.80865e-15
1.01229e-05
6.98326e-15
1.0821e-05
-9.06562e-15
1.15192e-05
6.75769e-15
1.22173e-05
-2.88903e-14
1.29154e-05
-1.22371e-14
1.36136e-05
4.80436e-15
1.43117e-05
2.5025e-14
1.50098e-05
3.85992e-15
1.5708e-05
3.60836e-15
1.64061e-05
-2.04853e-14
1.71042e-05
-2.176e-14
1.78024e-05
3.46532e-15
1.85005e-05
2.9038e-14
1.91986e-05
-1.66455e-15
1.98967e-05
2.05949e-05
6.21555e-15
4.53785e-06
-3.87956e-15
5.23599e-06
1.54214e-14
5.93412e-06
-7.06514e-15
6.63225e-06
-2.21103e-15
7.33038e-06
1.42856e-15
8.02851e-06
-5.49414e-15
8.72664e-06
1.32247e-14
9.42478e-06
6.04486e-15
1.01229e-05
-1.74506e-14
1.0821e-05
2.08853e-14
1.15192e-05
-2.14465e-14
1.22173e-05
1.91334e-14
1.29154e-05
-7.31839e-15
1.36136e-05
3.84855e-14
1.43117e-05
-1.29225e-14
1.50098e-05
-1.88344e-15
1.5708e-05
5.71423e-15
1.64061e-05
-7.58939e-15
1.71042e-05
2.76554e-14
1.78024e-05
1.40986e-14
1.85005e-05
-5.31428e-14
1.91986e-05
3.90837e-14
1.98967e-05
2.05949e-05
-1.49867e-15
4.53785e-06
1.08967e-14
5.23599e-06
-6.59972e-15
5.93412e-06
7.26526e-15
6.63225e-06
6.17511e-15
7.33038e-06
2.48811e-15
8.02851e-06
-9.65704e-16
8.72664e-06
-4.36501e-15
9.42478e-06
-8.90095e-15
1.01229e-05
1.38631e-14
1.0821e-05
1.06901e-14
1.15192e-05
6.24873e-15
1.22173e-05
-1.2794e-16
1.29154e-05
-3.4402e-15
1.36136e-05
-1.10435e-14
1.43117e-05
-1.77637e-14
1.50098e-05
1.76785e-14
1.5708e-05
9.95244e-15
1.64061e-05
3.32873e-15
1.71042e-05
-3.29738e-14
1.78024e-05
-1.04205e-14
1.85005e-05
3.00661e-14
1.91986e-05
-5.99935e-14
1.98967e-05
2.05949e-05
5.16996e-15
4.53785e-06
-7.45562e-15
5.23599e-06
-7.57257e-16
5.93412e-06
6.83902e-15
6.63225e-06
-9.97417e-15
7.33038e-06
-1.66503e-15
8.02851e-06
9.21807e-15
8.72664e-06
-1.34611e-14
9.42478e-06
2.3221e-14
1.01229e-05
1.04723e-14
1.0821e-05
-1.72724e-14
1.15192e-05
-3.02903e-15
1.22173e-05
1.13978e-14
1.29154e-05
-1.98171e-14
1.36136e-05
-4.67952e-15
1.43117e-05
5.03056e-14
1.50098e-05
-2.40493e-14
1.5708e-05
-6.66013e-15
1.64061e-05
1.4259e-14
1.71042e-05
1.64673e-15
1.78024e-05
-6.8135e-15
1.85005e-05
1.44409e-14
1.91986e-05
5.0754e-14
1.98967e-05
2.05949e-05
-6.19757e-15
4.53785e-06
2.83595e-17
5.23599e-06
1.15115e-14
5.93412e-06
-2.06265e-14
6.63225e-06
5.36623e-15
7.33038e-06
1.22137e-15
8.02851e-06
-4.70705e-17
8.72664e-06
1.23935e-14
9.42478e-06
-1.32267e-14
1.01229e-05
-1.88945e-14
1.0821e-05
-4.96554e-15
1.15192e-05
-7.15496e-15
1.22173e-05
-1.48884e-14
1.29154e-05
3.53368e-14
1.36136e-05
-2.30194e-18
1.43117e-05
-4.31414e-14
1.50098e-05
1.3564e-14
1.5708e-05
-2.82575e-14
1.64061e-05
2.45066e-15
1.71042e-05
-1.02436e-14
1.78024e-05
2.38006e-14
1.85005e-05
1.38729e-14
1.91986e-05
-4.55654e-14
1.98967e-05
2.05949e-05
-1.90667e-15
4.53785e-06
1.13046e-15
5.23599e-06
-2.16622e-14
5.93412e-06
9.62379e-15
6.63225e-06
1.51366e-14
7.33038e-06
-1.4066e-14
8.02851e-06
8.09307e-15
8.72664e-06
-2.69594e-14
9.42478e-06
-1.96466e-15
1.01229e-05
2.9717e-14
1.0821e-05
-1.17469e-14
1.15192e-05
1.98659e-14
1.22173e-05
-2.74465e-14
1.29154e-05
-2.06155e-14
1.36136e-05
1.60397e-14
1.43117e-05
-4.61402e-15
1.50098e-05
4.69111e-15
1.5708e-05
4.79643e-14
1.64061e-05
-1.37422e-14
1.71042e-05
3.23723e-14
1.78024e-05
-3.519e-14
1.85005e-05
-2.49067e-14
1.91986e-05
7.19127e-14
1.98967e-05
2.05949e-05
1.90656e-15
4.53785e-06
-1.13064e-15
5.23599e-06
2.16613e-14
5.93412e-06
-9.62387e-15
6.63225e-06
-1.51375e-14
7.33038e-06
1.40646e-14
8.02851e-06
-8.09355e-15
8.72664e-06
2.69593e-14
9.42478e-06
1.96483e-15
1.01229e-05
-2.97167e-14
1.0821e-05
1.17432e-14
1.15192e-05
-1.98688e-14
1.22173e-05
2.74425e-14
1.29154e-05
2.06162e-14
1.36136e-05
-1.60426e-14
1.43117e-05
4.61368e-15
1.50098e-05
-4.69488e-15
1.5708e-05
-4.79687e-14
1.64061e-05
1.37356e-14
1.71042e-05
-3.23742e-14
1.78024e-05
3.518e-14
1.85005e-05
2.49007e-14
1.91986e-05
-7.192e-14
1.98967e-05
2.05949e-05
6.19694e-15
4.53785e-06
-2.88027e-17
5.23599e-06
-1.15124e-14
5.93412e-06
2.06258e-14
6.63225e-06
-5.36685e-15
7.33038e-06
-1.22175e-15
8.02851e-06
4.63003e-17
8.72664e-06
-1.23952e-14
9.42478e-06
1.32253e-14
1.01229e-05
1.88944e-14
1.0821e-05
4.9615e-15
1.15192e-05
7.154e-15
1.22173e-05
1.48857e-14
1.29154e-05
-3.53409e-14
1.36136e-05
6.88192e-19
1.43117e-05
4.31359e-14
1.50098e-05
-1.35641e-14
1.5708e-05
2.8254e-14
1.64061e-05
-2.45758e-15
1.71042e-05
1.02381e-14
1.78024e-05
-2.38071e-14
1.85005e-05
-1.38756e-14
1.91986e-05
4.55592e-14
1.98967e-05
2.05949e-05
-5.17036e-15
4.53785e-06
7.45506e-15
5.23599e-06
7.56885e-16
5.93412e-06
-6.84023e-15
6.63225e-06
9.9736e-15
7.33038e-06
1.66387e-15
8.02851e-06
-9.21933e-15
8.72664e-06
1.34595e-14
9.42478e-06
-2.32212e-14
1.01229e-05
-1.04732e-14
1.0821e-05
1.72699e-14
1.15192e-05
3.02754e-15
1.22173e-05
-1.13979e-14
1.29154e-05
1.98154e-14
1.36136e-05
4.67713e-15
1.43117e-05
-5.0311e-14
1.50098e-05
2.40425e-14
1.5708e-05
6.65547e-15
1.64061e-05