/*--------------------------------*- C++ -*----------------------------------*\
  =========                 |
  \\      /  F ield         | OpenFOAM: The Open Source CFD Toolbox
   \\    /   O peration     | Website:  https://openfoam.org
    \\  /    A nd           | Version:  11
     \\/     M anipulation  |
\*---------------------------------------------------------------------------*/
FoamFile
{
    format      ascii;
    class       volVectorField;
    location    "1.98";
    object      U;
}
// * * * * * * * * * * * * * * * * * * * * * * * * * * * * * * * * * * * * * //

dimensions      [0 1 -1 0 0 0 0];

internalField   nonuniform List<vector> 
2880
(
(0.0407971 -0.0556319 -2.8937e-19)
(0.20663 -0.101547 3.99767e-19)
(0.398585 -0.142991 -3.65945e-20)
(0.499738 -0.160092 -8.79972e-20)
(0.518189 -0.157765 0)
(0.457776 -0.110747 0)
(0.0937637 -0.0857823 2.34828e-19)
(0.283425 -0.152991 -2.62089e-20)
(0.425932 -0.181394 2.58131e-20)
(0.48987 -0.184942 8.68874e-20)
(0.505775 -0.182249 0)
(0.472757 -0.12378 9.8882e-21)
(0.126264 -0.113603 3.96968e-20)
(0.306063 -0.185336 -1.47702e-19)
(0.416778 -0.204296 -2.44312e-20)
(0.469261 -0.19937 -6.6317e-23)
(0.4875 -0.183357 1.07806e-20)
(0.479825 -0.121757 -9.22682e-21)
(0.152983 -0.143484 5.0714e-19)
(0.313458 -0.212734 1.63165e-19)
(0.404375 -0.225516 2.45721e-19)
(0.453028 -0.213501 -1.94558e-19)
(0.474097 -0.189525 -1.60752e-19)
(0.482536 -0.130125 0)
(0.175173 -0.1729 5.22799e-19)
(0.316215 -0.236965 -1.93744e-20)
(0.393296 -0.245929 -2.31889e-19)
(0.439354 -0.229547 1.8426e-19)
(0.464797 -0.201327 -1.50537e-19)
(0.484613 -0.146551 0)
(0.193232 -0.199729 -9.77853e-19)
(0.316888 -0.257915 5.83721e-19)
(0.383197 -0.265372 0)
(0.42769 -0.247182 0)
(0.4578 -0.217633 5.82305e-19)
(0.486381 -0.168419 0)
(0.207929 -0.223749 1.93226e-18)
(0.31593 -0.275961 -6.28394e-19)
(0.373733 -0.284042 8.94044e-19)
(0.417398 -0.266303 -6.73635e-19)
(0.451936 -0.237606 -2.12408e-19)
(0.487506 -0.194109 -1.77294e-19)
(0.219886 -0.244813 -3.81046e-18)
(0.313416 -0.2917 0)
(0.364472 -0.302205 -8.10993e-19)
(0.407868 -0.286881 7.34019e-19)
(0.446493 -0.260712 -6.89241e-20)
(0.487815 -0.222769 5.78188e-19)
(0.22941 -0.262623 1.9704e-18)
(0.309242 -0.305634 -1.07994e-18)
(0.354981 -0.320081 0)
(0.398547 -0.308859 -7.81988e-20)
(0.440949 -0.286561 -6.33171e-20)
(0.487243 -0.254033 -3.42797e-19)
(0.236604 -0.276926 0)
(0.30324 -0.318124 1.02697e-18)
(0.34486 -0.337834 -6.69522e-19)
(0.388932 -0.332123 -7.84584e-20)
(0.4349 -0.314873 6.46207e-19)
(0.485778 -0.287777 -1.14314e-19)
(0.241243 -0.287574 1.828e-18)
(0.295292 -0.329427 3.16799e-20)
(0.333744 -0.355579 1.50106e-18)
(0.378583 -0.356568 0)
(0.428013 -0.345458 -5.12875e-19)
(0.483369 -0.323983 0)
(0.242843 -0.294561 -1.88527e-18)
(0.285371 -0.339727 0)
(0.32134 -0.373353 -1.48203e-18)
(0.367098 -0.382099 0)
(0.419968 -0.378171 0)
(0.479936 -0.362733 3.26629e-19)
(0.240917 -0.298055 -2.94176e-20)
(0.273459 -0.349137 3.15083e-20)
(0.3074 -0.391117 7.36615e-19)
(0.354112 -0.408585 0)
(0.410448 -0.412889 0)
(0.475361 -0.404159 -4.31633e-19)
(0.235082 -0.29836 1.97616e-18)
(0.259502 -0.35769 -1.14756e-18)
(0.291732 -0.408794 4.68248e-20)
(0.339272 -0.435843 0)
(0.399123 -0.44948 0)
(0.469478 -0.448415 3.16969e-19)
(0.225134 -0.295778 -1.85991e-18)
(0.243454 -0.365334 -6.74551e-20)
(0.274204 -0.426195 4.72191e-20)
(0.32227 -0.463582 0)
(0.385631 -0.487753 0)
(0.462057 -0.495649 -4.19726e-19)
(0.210994 -0.290573 0)
(0.225409 -0.371915 1.06594e-18)
(0.254765 -0.442964 9.22134e-20)
(0.302844 -0.491363 -7.58048e-20)
(0.36958 -0.52736 -1.17928e-19)
(0.452785 -0.545902 1.06043e-19)
(0.192778 -0.282924 2.99596e-20)
(0.20556 -0.377048 -3.44478e-20)
(0.233446 -0.458544 -7.69284e-19)
(0.280774 -0.518514 6.7248e-19)
(0.350529 -0.56772 -5.46615e-19)
(0.441251 -0.59897 4.95615e-19)
(0.170925 -0.272765 3.01465e-20)
(0.184214 -0.380037 0)
(0.210372 -0.472074 7.89606e-19)
(0.255889 -0.544007 -6.10891e-19)
(0.32796 -0.60787 4.90338e-19)
(0.426892 -0.654374 -4.02302e-19)
(0.146329 -0.259399 1.95074e-18)
(0.161733 -0.379739 0)
(0.185768 -0.482193 -8.20695e-19)
(0.227996 -0.56639 -7.53405e-20)
(0.301247 -0.646311 -4.26593e-19)
(0.40879 -0.711251 0)
(0.120346 -0.241069 -2.02451e-18)
(0.138373 -0.374337 3.89499e-20)
(0.159915 -0.486867 8.55474e-19)
(0.196806 -0.583828 0)
(0.269706 -0.680612 1.00755e-18)
(0.385431 -0.768069 3.82453e-19)
(0.0943807 -0.215016 0)
(0.114382 -0.361113 6.55041e-19)
(0.133112 -0.483393 -5.52705e-20)
(0.162098 -0.594223 4.42223e-20)
(0.232639 -0.70717 -3.24562e-19)
(0.354215 -0.823015 -3.45132e-19)
(0.0703782 -0.179489 -6.33265e-20)
(0.0906455 -0.336914 -6.48895e-19)
(0.106154 -0.468614 0)
(0.124405 -0.59569 -3.75128e-19)
(0.189732 -0.720777 -2.79751e-19)
(0.310395 -0.876128 -2.41602e-19)
(0.0522796 -0.135563 -1.10563e-18)
(0.0692058 -0.296963 7.72739e-19)
(0.0816073 -0.437265 0)
(0.0857585 -0.585951 -2.49198e-21)
(0.140064 -0.709424 0)
(0.241613 -0.939954 1.80315e-19)
(0.0417929 -0.0701379 1.08351e-18)
(0.0473782 -0.209391 -7.99262e-19)
(0.0523699 -0.356548 -2.99131e-19)
(0.0254748 -0.546762 4.61455e-19)
(0.101124 -0.632614 1.74217e-19)
(0.106848 -1.07569 0)
(0.55345 0.106264 2.00384e-20)
(0.667261 0.107764 8.23368e-20)
(0.7245 0.0928439 1.08828e-19)
(0.771969 0.0797921 6.93979e-20)
(0.809075 0.0695582 0)
(0.840004 0.0612176 6.95832e-20)
(0.865938 0.0542176 3.05511e-20)
(0.887998 0.04818 4.59829e-22)
(0.906863 0.0428889 7.61805e-20)
(0.923039 0.0382108 0)
(0.936932 0.0340389 -4.31371e-20)
(0.948858 0.0302799 8.0743e-20)
(0.959065 0.0268515 3.77512e-20)
(0.967755 0.0236811 -1.84772e-20)
(0.97509 0.0207129 -5.2683e-20)
(0.98121 0.0179122 6.70042e-20)
(0.986241 0.0152657 -9.70797e-20)
(0.990303 0.012773 0)
(0.993515 0.0104334 -1.49986e-20)
(0.995986 0.00823785 0)
(0.9978 0.00616891 0)
(0.998988 0.00421728 4.03783e-20)
(0.999554 0.00241805 -1.16779e-19)
(0.999696 0.000833792 8.1407e-20)
(0.535112 0.0556979 0)
(0.647498 0.0708383 -6.59917e-20)
(0.710082 0.0626101 6.81161e-21)
(0.760862 0.0532803 8.47645e-21)
(0.800135 0.0457036 -1.03836e-20)
(0.832603 0.0394762 0)
(0.859718 0.0342731 3.108e-20)
(0.88272 0.0298248 -2.61952e-20)
(0.902359 0.0259935 1.26123e-20)
(0.919181 0.0226895 -1.18741e-20)
(0.933621 0.0198286 1.07963e-20)
(0.946016 0.0173344 -1.02863e-20)
(0.956633 0.0151389 1.20574e-21)
(0.965685 0.0131821 -1.94544e-20)
(0.973346 0.0114126 1.75278e-20)
(0.979762 0.00978984 -1.05529e-21)
(0.985059 0.00828744 1.01499e-21)
(0.98936 0.00689101 -9.76636e-22)
(0.992784 0.00559272 -4.22448e-24)
(0.995441 0.00438535 1.45014e-20)
(0.997418 0.00326012 8.72877e-22)
(0.99878 0.00221187 -1.34508e-20)
(0.999579 0.0012533 1.22388e-20)
(0.999945 0.000405252 -1.16577e-20)
(0.534461 0.00987006 0)
(0.635454 0.0314755 -5.84386e-20)
(0.699486 0.0301387 4.87899e-20)
(0.751965 0.0250807 -3.89955e-20)
(0.792879 0.0204985 -2.04241e-20)
(0.826638 0.0166236 4.45883e-20)
(0.854806 0.0133953 1.54404e-20)
(0.878671 0.0106775 -4.43217e-20)
(0.89902 0.00842204 3.83335e-20)
(0.916427 0.00658763 1.16446e-20)
(0.931352 0.00511808 0)
(0.944151 0.00395675 0)
(0.955107 0.0030524 -1.09785e-21)
(0.964445 0.0023591 3.79106e-20)
(0.972352 0.00183295 -9.32984e-23)
(0.978976 0.00143093 -1.57765e-20)
(0.984452 0.00111408 1.52829e-20)
(0.988902 0.000853427 -1.46449e-20)
(0.992448 0.000632398 0)
(0.995202 0.00044448 0)
(0.997258 0.000290068 -1.48374e-20)
(0.99869 0.000172156 2.69435e-20)
(0.999528 8.53397e-05 -1.21807e-20)
(0.999909 -8.61888e-09 3.49767e-20)
(0.537932 -0.0298187 0)
(0.628777 -0.00696692 -6.59589e-20)
(0.692485 -0.00319633 -5.55706e-20)
(0.745528 -0.0042306 4.74536e-20)
(0.787547 -0.00577744 1.21854e-19)
(0.822315 -0.00719251 -6.98513e-22)
(0.851373 -0.0083306 0)
(0.875992 -0.00920533 -2.83146e-20)
(0.89696 -0.00978346 2.57079e-20)
(0.914873 -0.0100605 -2.35888e-20)
(0.930205 -0.0100646 -4.3693e-20)
(0.94333 -0.00983122 4.06002e-20)
(0.954544 -0.00939302 -9.65128e-20)
(0.964085 -0.00877971 3.69029e-20)
(0.972147 -0.00802477 -1.75518e-20)
(0.97889 -0.0071707 0)
(0.984449 -0.00626627 -9.69931e-20)
(0.988953 -0.00535505 1.59273e-20)
(0.992524 -0.00446416 -2.97294e-20)
(0.995282 -0.00360073 1.78563e-22)
(0.997328 -0.0027553 9.76711e-20)
(0.998707 -0.00191869 -1.61682e-19)
(0.999404 -0.00112671 1.17248e-19)
(0.999597 -0.000453148 -3.50024e-20)
(0.541703 -0.0674174 2.72426e-19)
(0.625438 -0.0440187 1.64145e-19)
(0.68837 -0.0366731 -5.41782e-20)
(0.741462 -0.0342159 -1.41216e-19)
(0.78422 -0.0328598 -8.17435e-20)
(0.819758 -0.0318058 -7.12316e-20)
(0.849544 -0.0307937 6.20381e-20)
(0.874796 -0.0297437 -1.69907e-19)
(0.896283 -0.0285618 7.58319e-22)
(0.914609 -0.0272061 0)
(0.93026 -0.0256792 4.37114e-20)
(0.943622 -0.0239965 -8.09673e-20)
(0.955005 -0.0221717 8.12615e-22)
(0.964658 -0.020217 7.27946e-20)
(0.972782 -0.0181524 0)
(0.979545 -0.0160156 0)
(0.985089 -0.0138614 -3.19485e-20)
(0.989546 -0.011747 6.18504e-20)
(0.993042 -0.00971202 2.99492e-20)
(0.995706 -0.007766 0)
(0.997646 -0.00589245 -1.10997e-19)
(0.998862 -0.00408589 3.37489e-23)
(0.99922 -0.00242657 7.78378e-20)
(0.999011 -0.00101506 2.33355e-20)
(0.545013 -0.104075 -3.07563e-19)
(0.624166 -0.0801594 -2.58482e-19)
(0.686525 -0.0701247 2.20419e-19)
(0.739573 -0.0646497 1.89576e-19)
(0.782883 -0.0605601 0)
(0.819031 -0.0570702 1.42144e-19)
(0.84941 -0.053881 -6.37878e-20)
(0.875178 -0.050848 1.68499e-19)
(0.897078 -0.0478399 1.02319e-19)
(0.915717 -0.0447881 9.30155e-20)
(0.931592 -0.0416745 8.48408e-20)
(0.945098 -0.0384962 -8.19271e-20)
(0.956556 -0.0352486 7.65849e-20)
(0.966223 -0.0319262 7.14916e-20)
(0.97431 -0.0285331 -1.39144e-19)
(0.980992 -0.0250972 1.32361e-19)
(0.986418 -0.0216741 -6.41271e-20)
(0.990723 -0.0183323 6.10235e-20)
(0.994038 -0.0151247 -2.37165e-19)
(0.996505 -0.0120656 1.71306e-19)
(0.998237 -0.00913414 0)
(0.999167 -0.00634242 -5.29879e-20)
(0.998989 -0.00384803 0)
(0.998172 -0.00175429 0)
(0.547792 -0.140434 4.0942e-21)
(0.624283 -0.115997 2.60821e-19)
(0.686539 -0.103665 -2.70708e-19)
(0.739676 -0.095471 1.88868e-19)
(0.783492 -0.0887725 -1.63166e-19)
(0.820162 -0.0828752 -6.96623e-20)
(0.851035 -0.0774903 1.24325e-19)
(0.877215 -0.072428 -2.27744e-19)
(0.899424 -0.067539 -1.01604e-19)
(0.918276 -0.0627378 2.33963e-21)
(0.934274 -0.0579905 6.95986e-22)
(0.947825 -0.053278 -7.96401e-20)
(0.959258 -0.0485795 3.02857e-19)
(0.96884 -0.0438716 -1.72766e-21)
(0.976789 -0.0391409 -1.37542e-19)
(0.983285 -0.0344012 6.51853e-20)
(0.988486 -0.0297024 0)
(0.99253 -0.0251192 -6.0393e-20)
(0.995554 -0.0207172 1.75665e-19)
(0.997714 -0.0165175 -2.83129e-19)
(0.999132 -0.0124989 0)
(0.999647 -0.00871017 5.29626e-20)
(0.998726 -0.0054251 0)
(0.99711 -0.00272377 -1.34162e-19)
(0.550076 -0.177106 -7.71861e-20)
(0.625455 -0.152075 3.83432e-19)
(0.688149 -0.137525 5.5201e-21)
(0.741635 -0.126726 -2.77153e-19)
(0.786008 -0.11746 4.81065e-19)
(0.823176 -0.10915 -4.26031e-19)
(0.854474 -0.101536 4.97033e-19)
(0.880975 -0.0943974 -1.14069e-19)
(0.903395 -0.0875775 1.99769e-19)
(0.922358 -0.0809805 9.02354e-20)
(0.938376 -0.0745594 1.69948e-19)
(0.951869 -0.0682816 -2.38153e-19)
(0.963175 -0.0621109 -1.48354e-19)
(0.972568 -0.0560076 1.40341e-19)
(0.980272 -0.0499399 0)
(0.986476 -0.0439036 -6.49766e-20)
(0.991339 -0.0379364 0)
(0.995007 -0.0321118 6.02211e-20)
(0.99762 -0.0265046 -2.86636e-19)
(0.999351 -0.021141 2.23019e-19)
(1.00033 -0.0159981 -2.14766e-19)
(1.00031 -0.0111644 2.07918e-19)
(0.998443 -0.00705834 2.00237e-19)
(0.995989 -0.00406995 -2.2626e-19)
(0.551973 -0.214627 0)
(0.627535 -0.188872 -5.07717e-19)
(0.691224 -0.171981 -1.05554e-19)
(0.745386 -0.158528 5.60433e-19)
(0.790427 -0.146637 -2.48622e-19)
(0.828107 -0.135853 1.38444e-19)
(0.859786 -0.125946 -2.4946e-19)
(0.886527 -0.116674 0)
(0.909065 -0.107872 -2.02035e-19)
(0.928036 -0.0994352 -1.84565e-19)
(0.943968 -0.0913054 -1.70105e-19)
(0.957296 -0.0834367 2.46193e-21)
(0.968367 -0.0757792 2.10913e-21)
(0.977463 -0.0682775 -4.89356e-23)
(0.984814 -0.0608816 0)
(0.990612 -0.0535668 -2.52356e-19)
(0.995021 -0.0463522 3.65058e-19)
(0.998189 -0.0393023 -1.16186e-19)
(1.00026 -0.0324936 1.14112e-19)
(1.00143 -0.0259544 0)
(1.00184 -0.0196565 -1.04338e-19)
(1.00117 -0.0137421 -1.0112e-19)
(0.998221 -0.00885499 -1.95154e-19)
(0.99489 -0.00580307 5.1429e-19)
(0.553591 -0.253492 0)
(0.630486 -0.226845 -1.22046e-19)
(0.695738 -0.207353 1.10095e-19)
(0.75094 -0.191037 0)
(0.79679 -0.176355 0)
(0.835018 -0.162967 1.36227e-19)
(0.867041 -0.150663 -1.25473e-19)
(0.893949 -0.139179 0)
(0.916509 -0.128334 0)
(0.935384 -0.118013 0)
(0.951122 -0.108142 0)
(0.964172 -0.0986624 1.55713e-19)
(0.974896 -0.089509 0)
(0.983583 -0.0806115 2.70867e-19)
(0.990468 -0.0719025 -2.60505e-19)
(0.995745 -0.0633355 3.69015e-19)
(0.999582 -0.054907 -3.589e-19)
(1.00213 -0.0466643 3.44273e-19)
(1.00353 -0.0386782 -4.42339e-19)
(1.004 -0.0309731 2.13966e-19)
(1.00372 -0.0235171 1.04134e-19)
(1.00228 -0.0165404 1.00992e-19)
(0.998152 -0.0110197 -9.47162e-20)
(0.993712 -0.00787234 2.4061e-19)
(0.555033 -0.294179 0)
(0.634362 -0.266451 0)
(0.701768 -0.243997 -4.20298e-19)
(0.758384 -0.224448 0)
(0.805188 -0.206691 0)
(0.844 -0.190484 0)
(0.87633 -0.17563 0)
(0.903328 -0.161827 2.1267e-19)
(0.925813 -0.148868 -1.98929e-19)
(0.944481 -0.136614 -1.80393e-19)
(0.959909 -0.124972 -3.26822e-19)
(0.972566 -0.113865 3.53361e-21)
(0.982826 -0.103211 0)
(0.990989 -0.0929264 1.31382e-19)
(0.997294 -0.082925 -3.75862e-19)
(1.00194 -0.0731393 1.20412e-19)
(1.00509 -0.0635408 1.14185e-19)
(1.00689 -0.0541542 0)
(1.0075 -0.0450364 0)
(1.00715 -0.0362001 0)
(1.00605 -0.0276088 9.89631e-20)
(1.00371 -0.0196052 -3.9248e-19)
(0.998258 -0.0135613 5.59745e-19)
(0.992487 -0.0103239 1.95783e-21)
(0.556399 -0.337164 -6.30554e-19)
(0.6393 -0.30815 -2.38882e-19)
(0.709485 -0.282287 4.16245e-19)
(0.767876 -0.258984 -9.24765e-20)
(0.815772 -0.23774 0)
(0.855189 -0.218406 -2.67303e-19)
(0.887774 -0.20079 0)
(0.91477 -0.184529 2.0878e-19)
(0.93707 -0.169366 -1.89708e-19)
(0.955412 -0.155124 4.30352e-21)
(0.970407 -0.141681 4.37992e-21)
(0.982546 -0.128934 2.95861e-19)
(0.992222 -0.116783 1.3434e-19)
(0.999742 -0.105126 -2.64699e-19)
(1.00535 -0.0938595 1.24308e-19)
(1.00925 -0.0828959 0)
(1.0116 -0.0721813 -3.37202e-19)
(1.01256 -0.0617141 2.16695e-19)
(1.01226 -0.051529 0)
(1.01097 -0.0416165 -9.90859e-20)
(1.0089 -0.0319266 2.90813e-19)
(1.00551 -0.0229256 -8.96724e-20)
(0.998594 -0.0164395 -5.45687e-19)
(0.991348 -0.0132115 8.46685e-20)
(0.557809 -0.382926 5.64715e-19)
(0.645523 -0.352409 4.83934e-19)
(0.719156 -0.322603 0)
(0.779663 -0.29488 0)
(0.82876 -0.269605 0)
(0.868766 -0.246735 1.3917e-19)
(0.901523 -0.226075 -1.10381e-19)
(0.928402 -0.207176 0)
(0.950385 -0.1897 5.40847e-21)
(0.968266 -0.173408 1.72262e-19)
(0.982693 -0.158134 3.11423e-19)
(0.994182 -0.143741 -1.44229e-19)
(1.00315 -0.130104 -2.69051e-19)
(1.0099 -0.117098 1.2573e-19)
(1.0147 -0.104603 -1.16754e-19)
(1.01774 -0.0925108 1.11142e-19)
(1.01919 -0.0807429 1.06414e-19)
(1.01919 -0.069271 1.05335e-19)
(1.01788 -0.0581011 -2.01616e-19)
(1.01551 -0.0471908 9.8637e-20)
(1.01234 -0.0364642 -3.7596e-19)
(1.00775 -0.0265109 8.27993e-19)
(0.999266 -0.0196636 -2.61967e-19)
(0.990403 -0.016563 0)
(0.559409 -0.431939 7.13369e-20)
(0.653344 -0.399683 0)
(0.731152 -0.365318 1.95366e-19)
(0.794093 -0.332384 -1.77941e-19)
(0.844455 -0.302386 -1.4563e-19)
(0.88497 -0.275462 -1.21547e-19)
(0.917763 -0.251402 2.31515e-19)
(0.944366 -0.229642 0)
(0.965872 -0.209719 -1.78891e-19)
(0.983135 -0.191308 3.29866e-19)
(0.996842 -0.174176 -3.00608e-19)
(1.00754 -0.158137 2.77941e-19)
(1.01565 -0.143033 -1.31662e-19)
(1.02152 -0.128714 0)
(1.02539 -0.115038 1.16562e-19)
(1.02747 -0.101876 -2.17585e-19)
(1.02791 -0.0891262 -1.05982e-19)
(1.02684 -0.0767346 -1.95777e-19)
(1.02441 -0.064676 1.93625e-19)
(1.02086 -0.0528667 -9.13887e-20)
(1.01644 -0.0411919 0)
(1.01052 -0.030354 0)
(1.00037 -0.0232284 -8.45882e-20)
(0.989756 -0.0203839 0)
(0.561388 -0.484652 -1.29642e-19)
(0.663187 -0.450385 5.64572e-19)
(0.745974 -0.410769 0)
(0.811637 -0.371717 1.63334e-19)
(0.863244 -0.336163 -1.49156e-19)
(0.904102 -0.304559 1.0468e-20)
(0.936719 -0.276661 0)
(0.962829 -0.25177 9.93367e-22)
(0.983654 -0.229246 -3.50704e-19)
(1.00011 -0.208637 -1.57061e-19)
(1.01293 -0.18962 4.38043e-19)
(1.02267 -0.171946 -1.3678e-19)
(1.0298 -0.155408 2.47205e-19)
(1.03464 -0.139824 -2.35218e-19)
(1.03746 -0.125028 0)
(1.03846 -0.110866 3.14406e-19)
(1.03779 -0.0972178 -2.00346e-19)
(1.03557 -0.0840011 9.76755e-20)
(1.03192 -0.0711608 -9.02536e-20)
(1.02707 -0.0585686 -2.64391e-19)
(1.02128 -0.0460597 3.45814e-19)
(1.01389 -0.0344322 -4.24327e-19)
(1.00202 -0.0271147 4.11836e-19)
(0.989515 -0.0246621 0)
(0.563985 -0.541492 3.84801e-19)
(0.67563 -0.50483 -3.33179e-19)
(0.764274 -0.459198 -2.73828e-19)
(0.832899 -0.413023 -8.32932e-20)
(0.885615 -0.370965 -1.3619e-19)
(0.926532 -0.333957 3.73311e-19)
(0.958651 -0.301711 -4.15989e-19)
(0.983973 -0.273368 2.00385e-19)
(1.00386 -0.248065 1.40552e-20)
(1.01928 -0.225176 -1.44503e-19)
(1.031 -0.204252 -1.37378e-19)
(1.03962 -0.184962 1.27366e-19)
(1.0456 -0.167038 -1.20517e-19)
(1.04928 -0.150255 1.0884e-19)
(1.05093 -0.134415 1.02527e-19)
(1.05075 -0.119342 -2.95679e-19)
(1.04886 -0.10489 1.91025e-19)
(1.04539 -0.0909537 0)
(1.04044 -0.0774491 8.98364e-20)
(1.03421 -0.0642037 4.2071e-19)
(1.02693 -0.0509971 -4.09032e-19)
(1.01796 -0.0387019 8.21305e-20)
(1.00431 -0.0312846 2.3973e-19)
(0.989795 -0.029367 -2.97465e-19)
(0.567526 -0.602897 -4.58032e-19)
(0.691406 -0.563098 2.9546e-19)
(0.78687 -0.510617 3.66154e-19)
(0.858618 -0.456286 0)
(0.912159 -0.406719 -2.57011e-19)
(0.952695 -0.363515 -1.10791e-19)
(0.983863 -0.326355 2.04794e-19)
(1.008 -0.294204 -2.66509e-19)
(1.02661 -0.265926 3.2211e-19)
(1.04072 -0.240669 2.91314e-19)
(1.05112 -0.217825 2.65918e-19)
(1.05842 -0.196951 0)
(1.06308 -0.177705 0)
(1.06546 -0.159807 -2.12262e-19)
(1.06582 -0.143021 -5.38519e-21)
(1.06433 -0.127142 5.06073e-21)
(1.06115 -0.111998 -8.77678e-20)
(1.05634 -0.0974622 1.72403e-19)
(1.05001 -0.0834224 -1.66961e-19)
(1.04231 -0.0696656 7.76876e-20)
(1.03346 -0.0559149 -7.61694e-20)
(1.0228 -0.0430969 0)
(1.00734 -0.0356788 3.81076e-19)
(0.990708 -0.0344476 -5.79151e-19)
(0.572447 -0.669048 1.13821e-19)
(0.711426 -0.625002 -7.90932e-19)
(0.814767 -0.564647 -1.6731e-19)
(0.889656 -0.501203 -6.57031e-20)
(0.943556 -0.443175 5.09511e-19)
(0.983089 -0.392978 -9.52939e-20)
(1.0127 -0.35033 -9.42792e-20)
(1.03513 -0.313991 2.66755e-19)
(1.05203 -0.282534 -1.65877e-19)
(1.06449 -0.254825 -1.42502e-19)
(1.0733 -0.230058 -2.51678e-19)
(1.07905 -0.207649 -1.12117e-19)
(1.08222 -0.187163 -2.13592e-19)
(1.08315 -0.168255 5.05778e-19)
(1.08209 -0.150641 -2.87532e-19)
(1.07921 -0.134082 1.78803e-19)
(1.07463 -0.118379 8.76685e-20)
(1.06842 -0.10338 7.9135e-20)
(1.06064 -0.0889491 1.56455e-19)
(1.05141 -0.0748354 -1.51879e-19)
(1.04091 -0.0607088 -2.93648e-19)
(1.02849 -0.0475306 -7.04591e-21)
(1.0112 -0.040216 -7.53916e-20)
(0.992357 -0.0398302 3.43088e-19)
(0.579351 -0.739566 -1.05782e-19)
(0.736892 -0.689893 4.73913e-19)
(0.849106 -0.62035 0)
(0.926905 -0.54704 -1.28224e-19)
(0.980522 -0.479808 1.18052e-19)
(1.01824 -0.421926 2.1146e-19)
(1.04551 -0.373265 0)
(1.06556 -0.332382 8.88584e-21)
(1.08023 -0.297551 1.33362e-19)
(1.09063 -0.26732 0)
(1.09753 -0.240641 1.22566e-19)
(1.1015 -0.216764 1.12777e-19)
(1.10298 -0.195139 9.73063e-20)
(1.1023 -0.175345 2.78837e-19)
(1.09969 -0.157043 -2.64305e-19)
(1.09531 -0.139952 -1.6797e-19)
(1.08927 -0.123844 -1.5954e-19)
(1.0816 -0.108541 1.48654e-19)
(1.07233 -0.0938803 0)
(1.06153 -0.0795805 0)
(1.04933 -0.065261 6.64097e-20)
(1.0351 -0.0518986 -2.11057e-19)
(1.01597 -0.0447921 3.37658e-19)
(0.994831 -0.0454172 0)
(0.589071 -0.81347 -3.34628e-19)
(0.769265 -0.756317 -3.36181e-19)
(0.891 -0.675938 -3.10285e-19)
(0.971173 -0.592452 1.17094e-19)
(1.02371 -0.515692 -5.26795e-20)
(1.05865 -0.449705 0)
(1.08263 -0.39465 -8.05149e-20)
(1.0995 -0.348949 2.84735e-19)
(1.1113 -0.31059 -2.04915e-19)
(1.11916 -0.277792 0)
(1.12378 -0.249235 0)
(1.12568 -0.223978 9.67948e-20)
(1.12526 -0.201338 -9.7853e-20)
(1.12281 -0.180802 -9.14237e-20)
(1.11854 -0.16197 8.59643e-20)
(1.11258 -0.144517 1.56769e-19)
(1.105 -0.128179 -7.70887e-20)
(1.09583 -0.11275 6.93135e-20)
(1.08504 -0.0980437 6.62886e-20)
(1.07267 -0.0837484 -6.39401e-20)
(1.05875 -0.0694379 -6.62981e-20)
(1.04269 -0.0560799 6.42567e-20)
(1.02173 -0.0492776 -1.87844e-19)
(0.998192 -0.0510848 0)
(0.603159 -0.889373 3.49229e-19)
(0.810013 -0.821693 2.69469e-19)
(0.941225 -0.728537 3.05132e-19)
(1.02301 -0.63527 -3.93353e-20)
(1.07356 -0.549339 -1.04116e-21)
(1.10467 -0.475337 -3.47441e-20)
(1.12433 -0.413796 -6.20999e-21)
(1.13709 -0.363166 -2.01067e-19)
(1.14528 -0.32121 3.25707e-21)
(1.15004 -0.285849 -3.59667e-21)
(1.15197 -0.255483 0)
(1.1515 -0.228957 -9.75589e-20)
(1.14895 -0.205443 4.12737e-20)
(1.14457 -0.184328 8.1058e-20)
(1.13851 -0.165142 -4.02531e-20)
(1.13088 -0.147512 -7.56674e-20)
(1.12172 -0.131137 -7.20357e-20)
(1.11102 -0.115782 1.64312e-19)
(1.09872 -0.101235 -1.94155e-19)
(1.08478 -0.0871581 6.39129e-20)
(1.06917 -0.0730832 0)
(1.05128 -0.0599331 1.20791e-19)
(1.02853 -0.0535076 -1.75505e-19)
(1.00247 -0.0566784 1.44102e-19)
(0.625129 -0.965976 -6.39434e-21)
(0.860652 -0.88228 4.66082e-21)
(1.00012 -0.774157 6.47459e-20)
(1.08243 -0.672406 2.30437e-20)
(1.13008 -0.578582 -3.61169e-20)
(1.1564 -0.497412 7.42614e-20)
(1.17069 -0.429787 -6.78982e-20)
(1.17839 -0.374386 6.19857e-20)
(1.18217 -0.328915 1.05535e-19)
(1.1832 -0.291075 4.21275e-20)
(1.18198 -0.259012 -1.3291e-19)
(1.17881 -0.231357 -2.28728e-21)
(1.17389 -0.207128 1.16372e-19)
(1.1674 -0.185608 -1.83871e-19)
(1.15943 -0.166253 1.03741e-19)
(1.15005 -0.14864 -1.33576e-19)
(1.13926 -0.132432 6.38012e-20)
(1.12702 -0.117364 2.92229e-20)
(1.11322 -0.1032 8.69215e-20)
(1.09777 -0.089583 -2.0018e-19)
(1.08055 -0.0760038 1.10421e-19)
(1.06092 -0.0632858 1.12063e-19)
(1.03644 -0.0572579 -1.09187e-19)
(1.00767 -0.062001 -5.4602e-20)
(0.660081 -1.04757 2.52134e-20)
(0.919817 -0.932024 3.05521e-20)
(1.06562 -0.807535 -3.59109e-20)
(1.14818 -0.699755 9.41215e-20)
(1.19239 -0.600537 1.89133e-21)
(1.21333 -0.514028 -2.55983e-20)
(1.22151 -0.441432 -2.57122e-20)
(1.22329 -0.381834 -2.47473e-20)
(1.22186 -0.333151 -4.99799e-20)
(1.21852 -0.293036 -3.64863e-21)
(1.21366 -0.259448 8.28374e-20)
(1.20743 -0.230834 -4.25481e-20)
(1.19989 -0.206065 -3.31343e-20)
(1.19111 -0.184317 6.70183e-20)
(1.18111 -0.164975 0)
(1.1699 -0.147568 2.88267e-20)
(1.15744 -0.131724 0)
(1.14365 -0.117153 -5.60788e-20)
(1.12839 -0.103602 -2.83041e-20)
(1.11149 -0.0907096 7.72554e-20)
(1.09276 -0.0779329 -7.74988e-20)
(1.07155 -0.0659081 4.98517e-20)
(1.04553 -0.0601844 -7.99986e-20)
(1.01375 -0.0667833 1.89649e-19)
(0.697736 -1.17817 3.15645e-20)
(0.993511 -0.974539 -3.34267e-20)
(1.13937 -0.82646 3.8185e-20)
(1.21902 -0.713481 -7.73211e-21)
(1.25883 -0.612228 -3.55977e-21)
(1.27424 -0.523035 1.38094e-20)
(1.27604 -0.447312 3.52231e-20)
(1.27138 -0.384607 -1.82933e-20)
(1.26411 -0.333319 0)
(1.25579 -0.291287 0)
(1.24681 -0.256427 -5.00084e-20)
(1.23716 -0.227062 -2.0992e-20)
(1.22674 -0.201936 9.57095e-20)
(1.21549 -0.18013 -7.52209e-20)
(1.20334 -0.160963 0)
(1.19022 -0.143918 -4.18997e-20)
(1.17605 -0.128597 -6.54753e-20)
(1.1607 -0.114691 5.0769e-20)
(1.14399 -0.101946 4.94755e-20)
(1.12571 -0.090028 5.28618e-23)
(1.10558 -0.0784085 -7.09554e-20)
(1.08303 -0.0674149 0)
(1.05581 -0.0616782 -3.64154e-20)
(1.02049 -0.070536 0)
(0.0238516 -0.0581533 1.6328e-19)
(0.0186266 -0.148074 -2.2543e-19)
(0.0135853 -0.285867 -1.51633e-19)
(0.0135836 -0.363625 5.69143e-20)
(0.0223678 -0.495933 0)
(0.0408682 -0.351052 -1.21869e-19)
(0.00476457 -0.0963055 -1.31636e-19)
(-0.0102694 -0.195971 1.47123e-20)
(-0.013541 -0.311537 -1.56541e-20)
(-0.00964886 -0.3806 -5.70686e-20)
(0.0149411 -0.463239 0)
(0.0451555 -0.373408 -7.18258e-21)
(-0.0160381 -0.111058 -2.23896e-20)
(-0.033194 -0.206449 8.34655e-20)
(-0.0371095 -0.304303 1.44556e-20)
(-0.0301039 -0.363467 2.00893e-22)
(0.00621589 -0.416763 -7.38174e-21)
(0.0484715 -0.360789 7.00269e-21)
(-0.0389907 -0.116262 -2.89903e-19)
(-0.0546515 -0.204424 -9.37156e-20)
(-0.0592556 -0.287962 -1.50646e-19)
(-0.0489204 -0.338579 1.32551e-19)
(-0.00459283 -0.37752 1.18811e-19)
(0.060554 -0.348256 0)
(-0.0613936 -0.114758 -3.04716e-19)
(-0.0748782 -0.195213 1.13744e-20)
(-0.0805832 -0.266927 1.4445e-19)
(-0.0678959 -0.311111 -1.2781e-19)
(-0.018462 -0.341037 1.19216e-19)
(0.0624204 -0.333253 0)
(-0.0820119 -0.109511 5.66237e-19)
(-0.0939594 -0.181788 -3.58173e-19)
(-0.10143 -0.243395 0)
(-0.0878847 -0.28255 0)
(-0.0370093 -0.307205 -4.61534e-19)
(0.0507088 -0.311335 0)
(-0.100379 -0.102721 -1.14356e-18)
(-0.112067 -0.16622 3.90842e-19)
(-0.122055 -0.218916 -5.97103e-19)
(-0.10939 -0.253811 5.01665e-19)
(-0.060223 -0.275442 1.69629e-19)
(0.0291852 -0.284737 1.60284e-19)
(-0.115983 -0.0954279 2.26803e-18)
(-0.12913 -0.14981 0)
(-0.142451 -0.194498 5.50176e-19)
(-0.132326 -0.225594 -5.55041e-19)
(-0.0871852 -0.245292 5.58599e-20)
(-0.000427548 -0.256492 -5.35418e-19)
(-0.128462 -0.0879311 -1.17952e-18)
(-0.14493 -0.133322 6.9828e-19)
(-0.162394 -0.170722 0)
(-0.156359 -0.198289 6.24738e-20)
(-0.116998 -0.216617 5.9542e-20)
(-0.03627 -0.228204 3.1747e-19)
(-0.137618 -0.0801926 0)
(-0.159201 -0.117182 -6.64026e-19)
(-0.181527 -0.147892 4.76582e-19)
(-0.180969 -0.172099 5.967e-20)
(-0.14884 -0.18936 -5.65546e-19)
(-0.0767078 -0.200705 1.03825e-19)
(-0.143406 -0.0720728 -1.12059e-18)
(-0.171673 -0.101608 -2.0406e-20)
(-0.199433 -0.126133 -1.08469e-18)
(-0.205527 -0.147122 0)
(-0.181812 -0.163515 4.47025e-19)
(-0.12012 -0.174482 0)
(-0.145899 -0.0634298 1.15575e-18)
(-0.182045 -0.086689 0)
(-0.215696 -0.105478 1.08346e-18)
(-0.229277 -0.123389 0)
(-0.215058 -0.139086 0)
(-0.164883 -0.149888 -3.11128e-19)
(-0.14526 -0.0541537 1.87257e-20)
(-0.189995 -0.0724607 -2.03536e-20)
(-0.229854 -0.0858626 -5.42043e-19)
(-0.251475 -0.100913 0)
(-0.247537 -0.116106 0)
(-0.209626 -0.127181 4.14912e-19)
(-0.141676 -0.0441924 -1.22142e-18)
(-0.195222 -0.0589283 7.50742e-19)
(-0.241324 -0.0672308 -3.36958e-20)
(-0.271566 -0.0796154 0)
(-0.278234 -0.0945162 0)
(-0.252974 -0.106559 -3.05606e-19)
(-0.135355 -0.0336081 1.14892e-18)
(-0.197444 -0.0460494 4.42137e-20)
(-0.24955 -0.0495186 -3.40951e-20)
(-0.28886 -0.0591627 0)
(-0.306204 -0.0744147 0)
(-0.293718 -0.0881043 4.09081e-19)
(-0.126479 -0.022568 0)
(-0.196383 -0.0337507 -6.82266e-19)
(-0.254144 -0.0325787 -7.11571e-20)
(-0.302217 -0.0394933 6.03293e-20)
(-0.330751 -0.0556414 1.11081e-19)
(-0.330773 -0.0717 -9.98705e-20)
(-0.115182 -0.0113582 -1.90512e-20)
(-0.191784 -0.0219288 2.13542e-20)
(-0.2547 -0.0162206 5.72572e-19)
(-0.310642 -0.0205616 -5.60912e-19)
(-0.351242 -0.0379366 4.92998e-19)
(-0.363056 -0.0568945 -4.99804e-19)
(-0.101514 -0.000357185 -1.8518e-20)
(-0.183412 -0.0104526 0)
(-0.250809 -0.00031366 -5.8705e-19)
(-0.313343 -0.00209059 5.08651e-19)
(-0.36617 -0.020344 -4.4636e-19)
(-0.39015 -0.043792 4.02453e-19)
(-0.0854509 0.0100018 -1.19461e-18)
(-0.171045 0.000826087 0)
(-0.242043 0.0152104 6.07445e-19)
(-0.309702 0.016144 6.59451e-20)
(-0.373788 -0.00271818 4.00827e-19)
(-0.41183 -0.0318861 0)
(-0.0669545 0.019286 1.24227e-18)
(-0.154427 0.0120384 -2.37312e-20)
(-0.227927 0.0303197 -6.31989e-19)
(-0.29851 0.034315 0)
(-0.372774 0.0156007 -9.45049e-19)
(-0.427887 -0.0186035 -4.11249e-19)
(-0.0461677 0.0272151 0)
(-0.133215 0.0231885 -4.09289e-19)
(-0.207968 0.0447543 4.22408e-20)
(-0.278242 0.0522491 -3.49534e-20)
(-0.361101 0.0354837 3.06502e-19)
(-0.437216 -0.00280265 3.70691e-19)
(-0.0241696 0.0331326 3.94685e-20)
(-0.106774 0.0338688 4.10872e-19)
(-0.181402 0.0578054 0)
(-0.246503 0.0693158 3.01994e-19)
(-0.334723 0.0582357 2.60272e-19)
(-0.437049 0.0223925 2.8155e-19)
(-0.00217149 0.0363237 6.77409e-19)
(-0.0725489 0.0431828 -4.90519e-19)
(-0.145604 0.0685194 0)
(-0.198142 0.0847911 1.26535e-21)
(-0.282589 0.0846736 0)
(-0.42375 0.0704249 -1.81042e-19)
(0.0193485 0.0364419 -6.80928e-19)
(-0.0202999 0.0511268 2.99224e-19)
(-0.0895723 0.078606 -5.06799e-20)
(-0.122577 0.0980506 -2.77339e-19)
(-0.166363 0.0985305 -3.69858e-20)
(-0.406943 0.066183 0)
(0.756696 -0.97075 -3.29961e-20)
(1.07161 -0.93753 -2.39141e-20)
(1.21692 -0.817272 0)
(1.2906 -0.708835 4.35863e-22)
(1.32634 -0.610825 1.03489e-20)
(1.33702 -0.522482 -1.39057e-20)
(1.33296 -0.446029 -1.98125e-20)
(1.32189 -0.381772 -1.88774e-21)
(1.30845 -0.328806 6.64014e-21)
(1.29471 -0.285403 -1.46183e-20)
(1.28118 -0.24962 2.92609e-20)
(1.26776 -0.21975 -1.51075e-20)
(1.25422 -0.19446 -1.35727e-20)
(1.24034 -0.17275 1.95783e-20)
(1.22593 -0.153879 6.57379e-21)
(1.21084 -0.137291 -1.16273e-20)
(1.19492 -0.122562 1.21221e-20)
(1.178 -0.109375 2.28329e-20)
(1.15984 -0.0974885 -5.33535e-21)
(1.14017 -0.0866479 0)
(1.11867 -0.0764374 2.14899e-20)
(1.09476 -0.0667894 -1.59272e-20)
(1.06655 -0.0603646 -5.96668e-21)
(1.02927 -0.0716701 2.76148e-20)
(0.647327 -0.655458 0)
(1.10821 -0.844385 2.45735e-20)
(1.28068 -0.776757 -1.74132e-21)
(1.35611 -0.684303 -8.29779e-22)
(1.39094 -0.594626 1.42817e-21)
(1.39889 -0.511055 0)
(1.39036 -0.436465 4.23409e-21)
(1.37363 -0.372487 -5.15718e-21)
(1.35419 -0.31904 2.55072e-21)
(1.33483 -0.275002 -2.37427e-21)
(1.31646 -0.238752 2.82687e-21)
(1.299 -0.208677 -2.63972e-21)
(1.28212 -0.183427 3.06782e-22)
(1.26547 -0.161951 -6.32753e-21)
(1.24873 -0.143457 5.8793e-21)
(1.23166 -0.127348 -3.07837e-22)
(1.21402 -0.113172 3.05081e-22)
(1.19555 -0.100597 -3.01948e-22)
(1.17598 -0.0893923 2.22756e-22)
(1.15495 -0.0793711 4.93467e-21)
(1.13194 -0.0702315 2.91936e-22)
(1.1061 -0.0618918 -5.03859e-21)
(1.07617 -0.056566 4.83262e-21)
(1.04128 -0.0678003 -1.02846e-20)
(0.486042 -0.438263 0)
(1.07862 -0.725369 4.38007e-20)
(1.31269 -0.713341 -2.75823e-20)
(1.40787 -0.643386 1.73685e-20)
(1.44771 -0.565197 4.82317e-21)
(1.45662 -0.488885 -8.53518e-21)
(1.446 -0.418248 -1.36666e-22)
(1.42508 -0.35625 7.28556e-22)
(1.40037 -0.303596 2.34372e-21)
(1.3756 -0.259787 7.98324e-22)
(1.35227 -0.223629 0)
(1.3306 -0.193714 0)
(1.31023 -0.168746 -1.15131e-21)
(1.29072 -0.147663 9.21551e-21)
(1.27164 -0.12964 -3.12747e-22)