/*--------------------------------*- C++ -*----------------------------------*\
  =========                 |
  \\      /  F ield         | OpenFOAM: The Open Source CFD Toolbox
   \\    /   O peration     | Website:  https://openfoam.org
    \\  /    A nd           | Version:  11
     \\/     M anipulation  |
\*---------------------------------------------------------------------------*/
FoamFile
{
    format      ascii;
    class       surfaceScalarField;
    location    "0.64";
    object      phi;
}
// * * * * * * * * * * * * * * * * * * * * * * * * * * * * * * * * * * * * * //

dimensions      [0 3 -1 0 0 0 0];

internalField   nonuniform List<scalar> 
5640
(
-4.86059e-07
4.86059e-07
-1.43817e-06
9.52109e-07
-2.31225e-06
8.74081e-07
-2.61676e-06
3.04507e-07
-2.02239e-06
-5.94371e-07
-2.00955e-06
-1.28375e-08
-7.01422e-07
1.18748e-06
-1.5513e-06
1.80199e-06
-2.14914e-06
1.47192e-06
-2.26787e-06
4.23245e-07
-1.59979e-06
-1.26245e-06
-3.64809e-06
3.87557e-08
-7.14688e-07
1.90217e-06
-1.43335e-06
2.52065e-06
-1.88036e-06
1.91893e-06
-1.85655e-06
3.99432e-07
-1.18984e-06
-1.92917e-06
-5.0226e-06
1.84666e-07
-7.03312e-07
2.60548e-06
-1.29178e-06
3.10911e-06
-1.6186e-06
2.24575e-06
-1.50673e-06
2.87558e-07
-8.51698e-07
-2.5842e-06
-6.24241e-06
3.68114e-07
-6.82789e-07
3.28827e-06
-1.15054e-06
3.57686e-06
-1.37689e-06
2.47211e-06
-1.21285e-06
1.2352e-07
-5.76211e-07
-3.22084e-06
-7.3841e-06
5.6548e-07
-6.29063e-07
3.91733e-06
-1.00308e-06
3.95088e-06
-1.15209e-06
2.62112e-06
-9.62033e-07
-6.65421e-08
-3.48113e-07
-3.83476e-06
-8.48438e-06
7.52172e-07
-5.55469e-07
4.4728e-06
-8.50784e-07
4.24619e-06
-9.43542e-07
2.71388e-06
-7.47069e-07
-2.63015e-07
-1.61913e-07
-4.41991e-06
-9.55071e-06
9.04412e-07
-4.70132e-07
4.94294e-06
-6.96314e-07
4.47238e-06
-7.49751e-07
2.76731e-06
-5.63321e-07
-4.49445e-07
-1.86581e-08
-4.96457e-06
-1.05728e-05
1.0034e-06
-3.76511e-07
5.31945e-06
-5.41058e-07
4.63692e-06
-5.68782e-07
2.79504e-06
-4.07422e-07
-6.10805e-07
8.03341e-08
-5.45233e-06
-1.15288e-05
1.03634e-06
-2.77267e-07
5.59671e-06
-3.84791e-07
4.74445e-06
-3.98216e-07
2.80846e-06
-2.76103e-07
-7.32918e-07
1.35744e-07
-5.86418e-06
-1.23897e-05
9.96626e-07
-1.73637e-07
5.77035e-06
-2.27676e-07
4.79849e-06
-2.35216e-07
2.816e-06
-1.65528e-07
-8.02606e-07
1.48485e-07
-6.17819e-06
-1.3125e-05
8.83791e-07
-6.67505e-08
5.8371e-06
-6.96011e-08
4.80134e-06
-7.65812e-08
2.82298e-06
-7.04674e-08
-8.08719e-07
1.23633e-07
-6.37229e-06
-1.37046e-05
7.03255e-07
4.2102e-08
5.795e-06
9.03755e-08
4.75306e-06
8.17393e-08
2.83162e-06
1.6692e-08
-7.43672e-07
6.82499e-08
-6.42385e-06
-1.41016e-05
4.65305e-07
1.51011e-07
5.64399e-06
2.52669e-07
4.6514e-06
2.43876e-07
2.84041e-06
1.00342e-07
-6.00137e-07
-1.1681e-08
-6.31183e-06
-1.43008e-05
1.87485e-07
2.60044e-07
5.38394e-06
4.17118e-07
4.49433e-06
4.13537e-07
2.84399e-06
1.94109e-07
-3.8071e-07
-8.38716e-08
-6.03385e-06
-1.42671e-05
-1.1759e-07
3.67945e-07
5.016e-06
5.83497e-07
4.27878e-06
5.94486e-07
2.833e-06
3.08257e-07
-9.44809e-08
-1.4755e-07
-5.57804e-06
-1.39629e-05
-4.51731e-07
4.73967e-07
4.54203e-06
7.50709e-07
4.00204e-06
7.89249e-07
2.79446e-06
4.55314e-07
2.39454e-07
-1.77927e-07
-4.9448e-06
-1.3371e-05
-7.69845e-07
5.8565e-07
3.95638e-06
9.15096e-07
3.67259e-06
9.98329e-07
2.71123e-06
6.4789e-07
5.89893e-07
-1.51746e-07
-4.14516e-06
-1.24658e-05
-1.05697e-06
6.8089e-07
3.27549e-06
1.06618e-06
3.2873e-06
1.21946e-06
2.55794e-06
8.97296e-07
9.12058e-07
-5.43484e-08
-3.19352e-06
-1.12325e-05
-1.28762e-06
7.20899e-07
2.55459e-06
1.19468e-06
2.81353e-06
1.44878e-06
2.30384e-06
1.21239e-06
1.14845e-06
2.02458e-07
-2.18359e-06
-9.60995e-06
-1.42009e-06
7.30964e-07
1.82363e-06
1.30314e-06
2.24135e-06
1.68051e-06
1.92647e-06
1.58788e-06
1.24109e-06
6.19763e-07
-1.21547e-06
-7.59522e-06
-1.39497e-06
7.19814e-07
1.10382e-06
1.38733e-06
1.57383e-06
1.90392e-06
1.40988e-06
2.00835e-06
1.13665e-06
1.1969e-06
-4.0402e-07
-5.26061e-06
-1.13771e-06
6.70214e-07
4.33602e-07
1.42941e-06
8.14636e-07
2.08719e-06
7.52095e-07
2.44883e-06
7.75014e-07
1.89452e-06
1.50292e-07
-2.73591e-06
-6.30182e-07
4.33602e-07
1.24824e-06
2.00033e-06
2.77535e-06
2.92564e-06
1.89734e-07
1.32876e-06
-1.00373e-05
8.69571e-06
3.3536e-06
-1.49497e-05
1.29249e-05
6.13669e-06
-1.96587e-05
1.68756e-05
9.5192e-06
-2.4225e-05
2.08425e-05
1.33037e-05
-2.85026e-05
2.4718e-05
1.72915e-05
-3.24035e-05
2.84157e-05
2.12999e-05
-3.5906e-05
3.18977e-05
2.51621e-05
-3.90053e-05
3.51432e-05
2.87404e-05
-4.17063e-05
3.8128e-05
3.19377e-05
-4.40315e-05
4.08342e-05
3.46592e-05
-4.59606e-05
4.32391e-05
3.69337e-05
-4.75483e-05
4.52739e-05
3.88896e-05
-4.89214e-05
4.69655e-05
4.05544e-05
-5.01021e-05
4.84373e-05
4.19085e-05
-5.10744e-05
4.97203e-05
4.30142e-05
-5.18746e-05
5.0769e-05
4.39347e-05
-5.25271e-05
5.16066e-05
4.47195e-05
-5.30446e-05
5.22598e-05
4.54091e-05
-5.34347e-05
5.2745e-05
4.60316e-05
-5.36986e-05
5.30761e-05
4.6599e-05
-5.38189e-05
5.32515e-05
4.71166e-05
-5.37611e-05
5.32436e-05
4.75892e-05
-5.34467e-05
5.29741e-05
-5.27136e-05
5.2251e-05
1.69033e-06
-1.16889e-05
3.98363e-06
-1.7243e-05
7.02529e-06
-2.27004e-05
1.05806e-05
-2.77804e-05
1.43819e-05
-3.23039e-05
1.81999e-05
-3.62215e-05
2.18444e-05
-3.95506e-05
2.51746e-05
-4.23355e-05
2.81125e-05
-4.46443e-05
3.06048e-05
-4.65237e-05
3.26885e-05
-4.80443e-05
3.44786e-05
-4.93385e-05
3.59922e-05
-5.04349e-05
3.72325e-05
-5.13424e-05
3.82629e-05
-5.21048e-05
3.91359e-05
-5.27477e-05
3.98923e-05
-5.32835e-05
4.05643e-05
-5.37166e-05
4.11757e-05
-5.4046e-05
4.17395e-05
-5.42624e-05
4.22624e-05
-5.43418e-05
4.27484e-05
-5.42471e-05
4.32074e-05
-5.39057e-05
-5.31838e-05
1.98853e-06
-1.34927e-05
4.56448e-06
-1.9819e-05
7.8057e-06
-2.59416e-05
1.14008e-05
-3.13755e-05
1.50446e-05
-3.59477e-05
1.8508e-05
-3.96849e-05
2.16393e-05
-4.26818e-05
2.43674e-05
-4.50637e-05
2.66747e-05
-4.69515e-05
2.85998e-05
-4.84488e-05
3.02398e-05
-4.96843e-05
3.1615e-05
-5.07137e-05
3.2749e-05
-5.15689e-05
3.37021e-05
-5.22954e-05
3.45178e-05
-5.29205e-05
3.52295e-05
-5.34594e-05
3.58636e-05
-5.39176e-05
3.64407e-05
-5.42937e-05
3.69752e-05
-5.45805e-05
3.74745e-05
-5.47617e-05
3.79437e-05
-5.48109e-05
3.83874e-05
-5.46908e-05
3.88196e-05
-5.4338e-05
-5.36425e-05
2.31318e-06
-1.54378e-05
5.09393e-06
-2.25997e-05
8.41954e-06
-2.92672e-05
1.18939e-05
-3.48498e-05
1.52151e-05
-3.92689e-05
1.81994e-05
-4.26692e-05
2.07717e-05
-4.52541e-05
2.29321e-05
-4.72241e-05
2.47242e-05
-4.87437e-05
2.62259e-05
-4.99505e-05
2.7475e-05
-5.09334e-05
2.85081e-05
-5.17468e-05
2.93786e-05
-5.24394e-05
3.01246e-05
-5.30414e-05
3.07751e-05
-5.35711e-05
3.13533e-05
-5.40376e-05
3.18776e-05
-5.44418e-05
3.23616e-05
-5.47777e-05
3.28144e-05
-5.50333e-05
3.32409e-05
-5.51882e-05
3.36457e-05
-5.52158e-05
3.40355e-05
-5.50806e-05
3.44263e-05
-5.47288e-05
-5.40713e-05
2.63972e-06
-1.7512e-05
5.53162e-06
-2.54917e-05
8.79771e-06
-3.25333e-05
1.2003e-05
-3.80552e-05
1.48901e-05
-4.2156e-05
1.73571e-05
-4.51362e-05
1.94061e-05
-4.73031e-05
2.10871e-05
-4.8905e-05
2.24669e-05
-5.01235e-05
2.35998e-05
-5.10834e-05
2.4533e-05
-5.18667e-05
2.5315e-05
-5.25288e-05
2.59807e-05
-5.31052e-05
2.65574e-05
-5.36181e-05
2.70662e-05
-5.40799e-05
2.75236e-05
-5.4495e-05
2.79417e-05
-5.486e-05
2.83297e-05
-5.51656e-05
2.86934e-05
-5.5397e-05
2.90375e-05
-5.55324e-05
2.93675e-05
-5.55458e-05
2.96917e-05
-5.54048e-05
3.0027e-05
-5.50641e-05
-5.44533e-05
2.91831e-06
-1.96782e-05
5.82195e-06
-2.83953e-05
8.89457e-06
-3.56059e-05
1.17237e-05
-4.08843e-05
1.41348e-05
-4.4567e-05
1.61096e-05
-4.7111e-05
1.77006e-05
-4.88941e-05
1.89778e-05
-5.01822e-05
2.00064e-05
-5.1152e-05
2.08413e-05
-5.19183e-05
2.15288e-05
-5.25542e-05
2.21049e-05
-5.31049e-05
2.2597e-05
-5.35973e-05
2.30255e-05
-5.40466e-05
2.3405e-05
-5.44594e-05
2.37459e-05
-5.48359e-05
2.40561e-05
-5.51703e-05
2.4342e-05
-5.54515e-05
2.46085e-05
-5.56635e-05
2.48612e-05
-5.5785e-05
2.51066e-05
-5.57913e-05
2.53542e-05
-5.56524e-05
2.56211e-05
-5.5331e-05
-5.4774e-05
3.10862e-06
-2.18824e-05
5.92002e-06
-3.12067e-05
8.69805e-06
-3.8384e-05
1.10997e-05
-4.32859e-05
1.30457e-05
-4.65131e-05
1.45796e-05
-4.86449e-05
1.57773e-05
-5.00918e-05
1.67126e-05
-5.11176e-05
1.74482e-05
-5.18876e-05
1.80349e-05
-5.2505e-05
1.85122e-05
-5.30314e-05
1.89093e-05
-5.3502e-05
1.9247e-05
-5.39349e-05
1.95388e-05
-5.43384e-05
1.97938e-05
-5.47143e-05
2.00181e-05
-5.50602e-05
2.02168e-05
-5.5369e-05
2.03947e-05
-5.56295e-05
2.05572e-05
-5.5826e-05
2.07107e-05
-5.59385e-05
2.08628e-05
-5.59434e-05
2.10238e-05
-5.58134e-05
2.12112e-05
-5.55183e-05
-5.50211e-05
3.18447e-06
-2.40635e-05
5.81054e-06
-3.38328e-05
8.23117e-06
-4.08046e-05
1.01994e-05
-4.52542e-05
1.17171e-05
-4.80308e-05
1.2863e-05
-4.97907e-05
1.37207e-05
-5.09495e-05
1.43621e-05
-5.1759e-05
1.48455e-05
-5.23711e-05
1.52166e-05
-5.2876e-05
1.55086e-05
-5.33234e-05
1.57443e-05
-5.37377e-05
1.59381e-05
-5.41287e-05
1.60983e-05
-5.44986e-05
1.62299e-05
-5.4846e-05
1.63362e-05
-5.51664e-05
1.64202e-05
-5.5453e-05
1.6486e-05
-5.56952e-05
1.65391e-05
-5.58791e-05
1.65868e-05
-5.59863e-05
1.66379e-05
-5.59945e-05
1.67034e-05
-5.58788e-05
1.6801e-05
-5.56159e-05
-5.5185e-05
3.13283e-06
-2.61599e-05
5.50348e-06
-3.62034e-05
7.53887e-06
-4.284e-05
9.0932e-06
-4.68085e-05
1.0225e-05
-4.91626e-05
1.10288e-05
-5.05945e-05
1.15885e-05
-5.15092e-05
1.19719e-05
-5.21424e-05
1.22328e-05
-5.2632e-05
1.24109e-05
-5.30541e-05
1.25335e-05
-5.3446e-05
1.26173e-05
-5.38216e-05
1.26719e-05
-5.41833e-05
1.2702e-05
-5.45287e-05
1.27098e-05
-5.48538e-05
1.26965e-05
-5.51532e-05
1.2664e-05
-5.54204e-05
1.26152e-05
-5.56465e-05
1.25555e-05
-5.58194e-05
1.24926e-05
-5.59233e-05
1.24359e-05
-5.59378e-05
1.2397e-05
-5.58399e-05
1.23953e-05
-5.56143e-05
-5.52583e-05
2.95283e-06
-2.81161e-05
5.0236e-06
-3.82742e-05
6.67147e-06
-4.44879e-05
7.84185e-06
-4.79789e-05
8.62733e-06
-4.9948e-05
9.12697e-06
-5.10942e-05
9.42125e-06
-5.18035e-05
9.57376e-06
-5.22949e-05
9.63293e-06
-5.26911e-05
9.63279e-06
-5.3054e-05
9.59482e-06
-5.3408e-05
9.53106e-06
-5.37578e-05
9.44749e-06
-5.40997e-05
9.34661e-06
-5.44278e-05
9.22914e-06
-5.47363e-05
9.09522e-06
-5.50193e-05
8.94538e-06
-5.52706e-05
8.78162e-06
-5.54827e-05
8.60827e-06
-5.5646e-05
8.43251e-06
-5.57476e-05
8.26347e-06
-5.57688e-05
8.11059e-06
-5.5687e-05
7.99603e-06
-5.54997e-05
-5.5238e-05
2.65345e-06
-2.98858e-05
4.40203e-06
-4.00228e-05
5.67594e-06
-4.57618e-05
6.49481e-06
-4.87978e-05
6.96839e-06
-5.04216e-05
7.19417e-06
-5.132e-05
7.24824e-06
-5.18575e-05
7.18959e-06
-5.22363e-05
7.06132e-06
-5.25629e-05
6.89181e-06
-5.28845e-05
6.69752e-06
-5.32138e-05
6.48689e-06
-5.35472e-05
6.26369e-06
-5.38765e-05
6.02931e-06
-5.41934e-05
5.78397e-06
-5.4491e-05
5.52753e-06
-5.47628e-05
5.26012e-06
-5.50031e-05
4.98281e-06
-5.52054e-05
4.69859e-06
-5.53618e-05
4.41368e-06
-5.54627e-05
4.139e-06
-5.54941e-05
3.88407e-06
-5.54321e-05
3.6104e-06
-5.5226e-05
-5.51222e-05
2.25129e-06
-3.14338e-05
3.6716e-06
-4.14431e-05
4.59364e-06
-4.66838e-05
5.09179e-06
-4.92959e-05
5.28205e-06
-5.06119e-05
5.25791e-06
-5.12958e-05
5.09097e-06
-5.16906e-05
4.83547e-06
-5.19808e-05
4.52914e-06
-5.22565e-05
4.19511e-06
-5.25504e-05
3.84573e-06
-5.28644e-05
3.48678e-06
-5.31882e-05
3.12071e-06
-5.35104e-05
2.74847e-06
-5.38212e-05
2.37047e-06
-5.4113e-05
1.98703e-06
-5.43794e-05
1.59882e-06
-5.46149e-05
1.20734e-06
-5.48139e-05
8.15453e-07
-5.49699e-05
4.27628e-07
-5.50749e-05
5.30403e-08
-5.51195e-05
-2.74846e-07
-5.51042e-05
-4.42345e-07
-5.50585e-05
-5.46405e-05
1.76838e-06
-3.27369e-05
2.86552e-06
-4.25402e-05
3.4599e-06
-4.72782e-05
3.66444e-06
-4.95004e-05
3.59466e-06
-5.05421e-05
3.33941e-06
-5.10406e-05
2.96593e-06
-5.13171e-05
2.52374e-06
-5.15386e-05
2.04545e-06
-5.17782e-05
1.54928e-06
-5.20543e-05
1.04451e-06
-5.23596e-05
5.34898e-07
-5.26786e-05
2.19167e-08
-5.29974e-05
-4.93712e-07
-5.33056e-05
-1.01147e-06
-5.35952e-05
-1.53072e-06
-5.38602e-05
-2.05059e-06
-5.40951e-05
-2.56976e-06
-5.42947e-05
-3.0862e-06
-5.44535e-05
-3.59562e-06
-5.45654e-05
-4.08892e-06
-5.46262e-05
-4.56247e-06
-5.46307e-05
-5.0875e-06
-5.45335e-05
-5.43065e-05
1.22941e-06
-3.37788e-05
2.0147e-06
-4.33255e-05
2.30486e-06
-4.75683e-05
2.23857e-06
-4.94341e-05
1.92731e-06
-5.02309e-05
1.45556e-06
-5.05688e-05
8.86231e-07
-5.07478e-05
2.6437e-07
-5.09167e-05
-3.8238e-07
-5.11315e-05
-1.03878e-06
-5.13979e-05
-1.69929e-06
-5.16991e-05
-2.36146e-06
-5.20164e-05
-3.02445e-06
-5.23345e-05
-3.68782e-06
-5.26422e-05
-4.35111e-06
-5.29319e-05
-5.01374e-06
-5.31975e-05
-5.67489e-06
-5.34339e-05
-6.33346e-06
-5.36362e-05
-6.98772e-06
-5.37992e-05
-7.63497e-06
-5.39182e-05
-8.27303e-06
-5.39882e-05
-8.90344e-06
-5.40002e-05
-9.50641e-06
-5.39305e-05
-5.38211e-05
6.57741e-07
-3.45542e-05
1.14685e-06
-4.38146e-05
1.15452e-06
-4.7576e-05
8.35714e-07
-4.91153e-05
2.97134e-07
-4.96923e-05
-3.80597e-07
-4.98911e-05
-1.13732e-06
-4.99911e-05
-1.93325e-06
-5.01208e-05
-2.74479e-06
-5.032e-05
-3.56102e-06
-5.05816e-05
-4.37738e-06
-5.08827e-05
-5.19277e-06
-5.12011e-05
-6.00692e-06
-5.15203e-05
-6.81959e-06
-5.18295e-05
-7.63039e-06
-5.21211e-05
-8.43874e-06
-5.23892e-05
-9.2438e-06
-5.26289e-05
-1.00444e-05
-5.28356e-05
-1.08385e-05
-5.30051e-05
-1.16234e-05
-5.31332e-05
-1.23956e-05
-5.32161e-05
-1.31483e-05
-5.32475e-05
-1.38621e-05
-5.32167e-05
-5.31923e-05
6.97537e-08
-3.50756e-05
2.91853e-07
-4.40367e-05
3.19526e-08
-4.73161e-05
-5.26334e-07
-4.8557e-05
-1.28126e-06
-4.89374e-05
-2.15603e-06
-4.90163e-05
-3.09509e-06
-4.9052e-05
-4.06157e-06
-4.91543e-05
-5.03591e-06
-4.93456e-05
-6.00993e-06
-4.96076e-05
-6.98103e-06
-4.99116e-05
-7.94884e-06
-5.02332e-05
-8.91336e-06
-5.05558e-05
-9.87438e-06
-5.08685e-05
-1.08314e-05
-5.11641e-05
-1.17837e-05
-5.14369e-05
-1.27302e-05
-5.16824e-05
-1.36693e-05
-5.18965e-05
-1.45988e-05
-5.20756e-05
-1.55152e-05
-5.22168e-05
-1.64138e-05
-5.23174e-05
-1.72871e-05
-5.23742e-05
-1.81207e-05
-5.23831e-05
-5.24292e-05
-4.92324e-07
-3.53532e-05
-5.35769e-07
-4.39933e-05
-1.04288e-06
-4.6809e-05
-1.83128e-06
-4.77686e-05
-2.79629e-06
-4.79723e-05
-3.86322e-06
-4.79494e-05
-4.97974e-06
-4.79355e-05
-6.11321e-06
-4.80208e-05
-7.24771e-06
-4.82111e-05
-8.37753e-06
-4.84778e-05
-9.50146e-06
-4.87877e-05
-1.06197e-05
-4.9115e-05
-1.17324e-05
-4.94431e-05
-1.28393e-05
-4.97616e-05
-1.39397e-05
-5.00637e-05
-1.50326e-05
-5.0344e-05
-1.61168e-05
-5.05982e-05
-1.71903e-05
-5.08229e-05
-1.82507e-05
-5.10152e-05
-1.92944e-05
-5.11732e-05
-2.03163e-05
-5.12955e-05
-2.13095e-05
-5.1381e-05
-2.22629e-05
-5.14297e-05
-5.15375e-05
-1.01539e-06
-3.53947e-05
-1.30884e-06
-4.36998e-05
-2.05313e-06
-4.60647e-05
-3.06757e-06
-4.67542e-05
-4.23881e-06
-4.68011e-05
-5.49402e-06
-4.66942e-05
-6.78434e-06
-4.66452e-05
-8.08154e-06
-4.67237e-05
-9.37335e-06
-4.69193e-05
-1.06563e-05
-4.71948e-05
-1.19304e-05
-4.75136e-05
-1.31962e-05
-4.78492e-05
-1.44539e-05
-4.81854e-05
-1.57031e-05
-4.85125e-05
-1.69429e-05
-4.88238e-05
-1.81723e-05
-4.91145e-05
-1.93898e-05
-4.93807e-05
-2.05934e-05
-4.96193e-05
-2.17806e-05
-4.98281e-05
-2.29477e-05
-5.00061e-05
-2.409e-05
-5.01531e-05
-2.52016e-05
-5.02694e-05
-2.62734e-05
-5.03579e-05
-5.05214e-05
-1.46212e-06
-3.52202e-05
-1.99614e-06
-4.31658e-05
-2.98433e-06
-4.50765e-05
-4.22546e-06
-4.55131e-05
-5.60157e-06
-4.5425e-05
-7.04233e-06
-4.52534e-05
-8.50319e-06
-4.51843e-05
-9.96079e-06
-4.5266e-05
-1.14066e-05
-4.54735e-05
-1.28394e-05
-4.5762e-05
-1.42602e-05
-4.60929e-05
-1.56698e-05
-4.64396e-05
-1.70684e-05
-4.67867e-05
-1.84557e-05
-4.71252e-05
-1.98306e-05
-4.74489e-05
-2.1192e-05
-4.77532e-05
-2.25383e-05
-4.80344e-05
-2.38677e-05
-4.82899e-05
-2.51776e-05
-4.85182e-05
-2.64646e-05
-4.87191e-05
-2.77244e-05
-4.88933e-05
-2.89518e-05
-4.90421e-05
-3.01393e-05
-4.91704e-05
-4.93851e-05
-1.79107e-06
-3.48493e-05
-2.58002e-06
-4.23769e-05
-3.82414e-06
-4.38324e-05
-5.29754e-06
-4.40397e-05
-6.87935e-06
-4.38432e-05
-8.50369e-06
-4.36291e-05
-1.01319e-05
-4.35561e-05
-1.17462e-05
-4.36517e-05
-1.33423e-05
-4.38774e-05
-1.49208e-05
-4.41835e-05
-1.64839e-05
-4.45298e-05
-1.80329e-05
-4.48906e-05
-1.95678e-05
-4.52518e-05
-2.10883e-05
-4.56047e-05
-2.25933e-05
-4.59438e-05
-2.40818e-05
-4.62647e-05
-2.55523e-05
-4.65639e-05
-2.70029e-05
-4.68393e-05
-2.84313e-05
-4.70899e-05
-2.98343e-05
-4.73161e-05
-3.12081e-05
-4.75195e-05
-3.2548e-05
-4.77022e-05
-3.38476e-05
-4.78708e-05
-4.8133e-05
-1.95778e-06
-3.42865e-05
-3.0418e-06
-4.12928e-05
-4.56225e-06
-4.23119e-05
-6.2791e-06
-4.23228e-05
-8.06943e-06
-4.20529e-05
-9.87567e-06
-4.18228e-05
-1.16675e-05
-4.17643e-05
-1.34342e-05
-4.1885e-05
-1.51757e-05
-4.21359e-05
-1.68952e-05
-4.2464e-05
-1.85956e-05
-4.28294e-05
-2.02785e-05
-4.32077e-05
-2.19444e-05
-4.35859e-05
-2.35926e-05
-4.39565e-05
-2.52225e-05
-4.4314e-05
-2.68328e-05
-4.46543e-05
-2.84223e-05
-4.49744e-05
-2.99893e-05
-4.52723e-05
-3.15317e-05
-4.55475e-05
-3.30464e-05
-4.58013e-05
-3.453e-05
-4.60359e-05
-3.59781e-05
-4.62541e-05
-3.73857e-05
-4.64632e-05
-4.67697e-05
-1.91218e-06
-3.3512e-05
-3.36029e-06
-3.98447e-05
-5.19427e-06
-4.0478e-05
-7.17087e-06
-4.03462e-05
-9.17315e-06
-4.00506e-05
-1.11585e-05
-3.98374e-05
-1.31089e-05
-3.9814e-05
-1.50223e-05
-3.99716e-05
-1.69035e-05
-4.02547e-05
-1.8758e-05
-4.06096e-05
-2.05897e-05
-4.09977e-05
-2.24006e-05
-4.13968e-05
-2.41913e-05
-4.17953e-05
-2.59614e-05
-4.21864e-05
-2.77102e-05
-4.25652e-05
-2.94367e-05
-4.29278e-05
-3.11397e-05
-4.32714e-05
-3.28178e-05
-4.35942e-05
-3.44689e-05
-4.38964e-05
-3.60903e-05
-4.41799e-05
-3.76787e-05
-4.44475e-05
-3.92304e-05
-4.47024e-05
-4.07412e-05
-4.49524e-05
-4.53003e-05
-1.53672e-06
-3.26054e-05
-3.51617e-06
-3.78653e-05
-5.73186e-06
-3.82623e-05
-7.98416e-06
-3.80939e-05
-1.01976e-05
-3.78371e-05
-1.23556e-05
-3.76794e-05
-1.44569e-05
-3.77127e-05
-1.65094e-05
-3.79191e-05
-1.8523e-05
-3.82411e-05
-2.05053e-05
-3.86272e-05
-2.24613e-05
-3.90417e-05
-2.43934e-05
-3.94647e-05
-2.63022e-05
-3.98865e-05
-2.81875e-05
-4.0301e-05
-3.00489e-05
-4.07038e-05
-3.18854e-05
-4.10913e-05
-3.3696e-05
-4.14608e-05
-3.54794e-05
-4.18109e-05
-3.72335e-05
-4.21423e-05
-3.89559e-05
-4.24575e-05
-4.06435e-05
-4.27599e-05
-4.22932e-05
-4.30528e-05
-4.3902e-05
-4.33436e-05
-4.37301e-05
-5.11458e-07
-3.19043e-05
-3.55101e-06
-3.48257e-05
-6.22541e-06
-3.55879e-05
-8.74572e-06
-3.55736e-05
-1.11557e-05
-3.54272e-05
-1.34727e-05
-3.53624e-05
-1.57132e-05
-3.54722e-05
-1.78948e-05
-3.57374e-05
-2.00318e-05
-3.61041e-05
-2.21337e-05
-3.65253e-05
-2.42061e-05
-3.69692e-05
-2.62516e-05
-3.74192e-05
-2.82711e-05
-3.7867e-05
-3.02646e-05
-3.83076e-05
-3.22315e-05
-3.87369e-05
-3.41714e-05
-3.91515e-05
-3.60831e-05
-3.95491e-05
-3.79653e-05
-3.99286e-05
-3.98161e-05
-4.02914e-05
-4.16332e-05
-4.06405e-05
-4.34137e-05
-4.09794e-05
-4.51554e-05
-4.13111e-05
-4.68565e-05
-4.16425e-05
-4.20649e-05
-2.64734e-07
2.64734e-07
-6.25096e-07
3.60362e-07
-8.87077e-07
2.61981e-07
-8.10212e-07
-7.68652e-08
1.04695e-06
-1.85716e-06
-4.23113e-06
5.27808e-06
-2.99801e-07
5.64535e-07
-5.80927e-07
6.41488e-07
-7.04864e-07
3.85918e-07
-4.4063e-07
-3.41099e-07
4.91745e-07
-2.78954e-06
-6.20891e-06
2.46953e-06
-2.90865e-07
8.554e-07
-5.03678e-07
8.54301e-07
-5.66097e-07
4.48336e-07
-3.15463e-07
-5.91733e-07
1.9256e-07
-3.29756e-06
-6.9496e-06
9.33252e-07
-2.67979e-07
1.12338e-06
-4.35687e-07
1.02201e-06
-4.83831e-07
4.9648e-07
-3.25935e-07
-7.49629e-07
-1.48201e-07
-3.47529e-06
-6.94012e-06
-1.5769e-07
-2.37497e-07
1.36088e-06
-3.7808e-07
1.16259e-06
-4.41423e-07
5.59823e-07
-4.10749e-07
-7.80302e-07
-5.22996e-07
-3.36305e-06
-6.56063e-06
-9.02484e-07
-2.03565e-07
1.56444e-06
-3.28818e-07
1.28785e-06
-4.24401e-07
6.55406e-07
-5.27223e-07
-6.7748e-07
-8.66093e-07
-3.02418e-06
-5.84369e-06
-1.58303e-06
-1.6836e-07
1.7328e-06
-2.85199e-07
1.40468e-06
-4.20296e-07
7.90503e-07
-6.48619e-07
-4.49157e-07
-1.17872e-06
-2.49407e-06
-4.88271e-06
-2.1397e-06
-1.32947e-07
1.86575e-06
-2.44188e-07
1.51593e-06
-4.18469e-07
9.64783e-07
-7.5578e-07
-1.11846e-07
-1.44019e-06
-1.80967e-06
-3.74997e-06
-2.57292e-06
-9.74928e-08
1.96324e-06
-2.02652e-07
1.62108e-06
-4.09878e-07
1.17201e-06
-8.34235e-07
3.1251e-07
-1.63581e-06
-1.00809e-06
-2.49887e-06
-2.88692e-06
-6.16651e-08
2.02491e-06
-1.57809e-07
1.71723e-06
-3.8734e-07
1.40154e-06
-8.73489e-07
7.98659e-07
-1.75641e-06
-1.25168e-07
-1.17072e-06
-3.08456e-06
-2.4976e-08
2.04988e-06
-1.07442e-07
1.79969e-06
-3.45525e-07
1.63962e-06
-8.66319e-07
1.31945e-06
-1.79618e-06
8.04689e-07
2.00743e-07
-3.16764e-06
1.26256e-08
2.03726e-06
-5.01465e-08
1.86247e-06
-2.80999e-07
1.87048e-06
-8.08215e-07
1.84667e-06
-1.75158e-06
1.74805e-06
1.58626e-06
-3.13709e-06
5.05546e-08
1.9867e-06
1.45107e-08
1.89851e-06
-1.92247e-07
2.07723e-06
-6.97062e-07
2.35149e-06
-1.62083e-06
2.67182e-06
2.95858e-06
-2.99316e-06
8.90952e-08
1.89761e-06
8.60459e-08
1.90156e-06
-7.97296e-08
2.24301e-06
-5.33041e-07
2.8048e-06
-1.40361e-06
3.54239e-06
4.2904e-06
-2.73542e-06
1.27033e-07
1.77057e-06
1.62599e-07
1.86599e-06
5.40416e-08
2.35157e-06
-3.18667e-07
3.17751e-06
-1.10109e-06
4.32482e-06
5.55227e-06
-2.36296e-06
1.62867e-07
1.60771e-06
2.41303e-07
1.78756e-06
2.0439e-07
2.38848e-06
-5.91519e-08
3.44105e-06
-7.16056e-07
4.98172e-06
6.71038e-06
-1.87417e-06
1.94647e-07
1.41306e-06
3.18177e-07
1.66403e-06
3.64509e-07
2.34215e-06
2.37547e-07
3.56801e-06
-2.53433e-07
5.4727e-06
7.72378e-06
-1.26684e-06
2.20051e-07
1.19301e-06
3.88309e-07
1.49577e-06
5.25321e-07
2.20514e-06
5.59483e-07
3.53385e-06
2.78235e-07
5.75395e-06
8.54267e-06
-5.40647e-07
2.3653e-07
9.56477e-07
4.46133e-07
1.28617e-06
6.75626e-07
1.97564e-06
8.90484e-07
3.31899e-06
8.64768e-07
5.77966e-06
9.10614e-06
3.01293e-07
2.41542e-07
7.14936e-07
4.85806e-07
1.0419e-06
8.02209e-07
1.65924e-06
1.20857e-06
2.91263e-06
1.48798e-06
5.50026e-06
9.29469e-06
1.29943e-06
2.32937e-07
4.81999e-07
5.0165e-07
7.7319e-07
8.89944e-07
1.27095e-06
1.48362e-06
2.31895e-06
2.11152e-06
4.87236e-06
8.96095e-06
2.44527e-06
2.09639e-07
2.7236e-07
4.88484e-07
4.94345e-07
9.21742e-07
8.37689e-07
1.67274e-06
1.56794e-06
2.68293e-06
3.86218e-06
7.82305e-06
3.82082e-06
1.70543e-07
1.01817e-07
4.39571e-07
2.25317e-07
8.77169e-07
4.0009e-07
1.71055e-06
7.34558e-07
3.1674e-06
2.40533e-06
5.23498e-06
5.75547e-06
1.01817e-07
3.27134e-07
7.27224e-07
1.46178e-06
3.86711e-06
9.10209e-06
1.05784e-07
-2.6732e-05
-3.73671e-06
-3.09832e-05
-6.75378e-06
-3.25708e-05
-9.48793e-06
-3.28395e-05
-1.20615e-05
-3.28536e-05
-1.45156e-05
-3.29083e-05
-1.68797e-05
-3.31082e-05
-1.91781e-05
-3.3439e-05
-2.1428e-05
-3.38541e-05
-2.364e-05
-3.43134e-05
-2.58198e-05
-3.47894e-05
-2.79703e-05
-3.52687e-05
-3.00924e-05
-3.57449e-05
-3.21861e-05
-3.62138e-05
-3.42513e-05
-3.66717e-05
-3.62872e-05
-3.71156e-05
-3.82929e-05
-3.75433e-05
-4.02671e-05
-3.79544e-05
-4.22078e-05
-3.83507e-05
-4.41126e-05
-3.87357e-05
-4.59794e-05
-3.91127e-05
-4.78064e-05
-3.9484e-05
-4.95935e-05
-3.98554e-05
-4.03107e-05
-9.4958e-07
-2.33129e-05
-4.27657e-06
-2.76562e-05
-7.36814e-06
-2.94792e-05
-1.02294e-05
-2.99782e-05
-1.29226e-05
-3.01605e-05
-1.54869e-05
-3.03439e-05
-1.79564e-05
-3.06387e-05
-2.03578e-05
-3.10376e-05
-2.2709e-05
-3.1503e-05
-2.50205e-05
-3.20018e-05
-2.72982e-05
-3.25117e-05
-2.95444e-05
-3.30224e-05
-3.17604e-05
-3.3529e-05
-3.39461e-05
-3.40281e-05
-3.61014e-05
-3.45164e-05
-3.82256e-05
-3.49914e-05
-4.03178e-05
-3.54511e-05
-4.23765e-05
-3.58957e-05
-4.43997e-05
-3.63275e-05
-4.63853e-05
-3.67501e-05
-4.83313e-05
-3.71667e-05
-5.02362e-05
-3.7579e-05
-5.21005e-05
-3.79912e-05
-3.84713e-05
-1.83701e-06
-2.05426e-05
-4.94959e-06
-2.45437e-05
-8.03696e-06
-2.63919e-05
-1.09617e-05
-2.70535e-05
-1.37349e-05
-2.73872e-05
-1.63841e-05
-2.76946e-05
-1.8941e-05
-2.80818e-05
-2.14312e-05
-2.85475e-05
-2.38714e-05
-2.90627e-05
-2.62716e-05
-2.96017e-05
-2.86368e-05
-3.01466e-05
-3.09692e-05
-3.069e-05
-3.32697e-05
-3.12285e-05
-3.55385e-05
-3.17593e-05
-3.77753e-05
-3.22796e-05
-3.99795e-05
-3.27872e-05
-4.21499e-05
-3.32807e-05
-4.42852e-05
-3.37605e-05
-4.63833e-05
-3.42293e-05
-4.84425e-05
-3.46909e-05
-5.04611e-05
-3.51481e-05
-5.24379e-05
-3.56022e-05
-5.43723e-05
-3.60568e-05
-3.6557e-05
-2.6634e-06
-1.80369e-05
-5.65152e-06
-2.15555e-05
-8.71087e-06
-2.33325e-05
-1.16627e-05
-2.41017e-05
-1.44875e-05
-2.45624e-05
-1.72008e-05
-2.49814e-05
-1.98289e-05
-2.54537e-05
-2.23941e-05
-2.59822e-05
-2.49113e-05
-2.65456e-05
-2.7389e-05
-2.7124e-05
-2.98312e-05
-2.77043e-05
-3.22398e-05
-2.82815e-05
-3.46153e-05
-2.8853e-05
-3.69578e-05
-2.94167e-05
-3.92671e-05
-2.99704e-05
-4.15422e-05
-3.05121e-05
-4.37821e-05
-3.10408e-05
-4.59853e-05
-3.15573e-05
-4.815e-05
-3.20645e-05
-5.0275e-05
-3.2566e-05
-5.23591e-05
-3.3064e-05
-5.44018e-05
-3.35595e-05
-5.64021e-05
-3.40565e-05
-3.45777e-05
-3.40292e-06
-1.55364e-05
-6.32212e-06
-1.86363e-05
-9.34922e-06
-2.03054e-05
-1.23097e-05
-2.11412e-05
-1.51675e-05
-2.17047e-05
-1.79287e-05
-2.22201e-05
-2.06141e-05
-2.27684e-05
-2.32419e-05
-2.33543e-05
-2.58244e-05
-2.39631e-05
-2.83684e-05
-2.458e-05
-3.08771e-05
-2.51956e-05
-3.33517e-05
-2.58069e-05
-3.57923e-05
-2.64123e-05
-3.81991e-05
-2.70099e-05
-4.05714e-05
-2.75981e-05
-4.29083e-05
-2.81752e-05
-4.52086e-05
-2.87405e-05
-4.74708e-05
-2.92951e-05
-4.96936e-05
-2.98417e-05
-5.18763e-05
-3.03833e-05
-5.40186e-05
-3.09216e-05
-5.61207e-05
-3.14574e-05
-5.81825e-05
-3.19947e-05
-3.25439e-05
-4.05099e-06
-1.30685e-05
-6.92531e-06
-1.5762e-05
-9.92384e-06
-1.73069e-05
-1.28842e-05
-1.81809e-05
-1.57628e-05
-1.8826e-05
-1.85597e-05
-1.94232e-05
-2.12904e-05
-2.00377e-05
-2.39694e-05
-2.06753e-05
-2.6606e-05
-2.13265e-05
-2.92057e-05
-2.19803e-05
-3.17704e-05
-2.26309e-05
-3.43007e-05
-2.32766e-05
-3.67967e-05
-2.39163e-05
-3.9258e-05
-2.45486e-05
-4.1684e-05
-2.51722e-05
-4.40734e-05
-2.57857e-05
-4.64251e-05
-2.63889e-05
-4.87376e-05
-2.69826e-05
-5.10101e-05
-2.75692e-05
-5.32423e-05
-2.81511e-05
-5.54346e-05
-2.87293e-05
-5.75875e-05
-2.93044e-05
-5.97026e-05
-2.98796e-05
-3.04618e-05
-4.59688e-06
-1.06113e-05
-7.4409e-06
-1.2918e-05
-1.04157e-05
-1.43321e-05
-1.33719e-05
-1.52247e-05
-1.62634e-05
-1.59345e-05
-1.90865e-05
-1.66002e-05
-2.18522e-05
-1.72719e-05
-2.45718e-05
-1.79558e-05
-2.72521e-05
-1.86462e-05
-2.98969e-05
-1.93355e-05
-3.25072e-05
-2.00206e-05
-3.50832e-05
-2.07007e-05
-3.76246e-05
-2.13749e-05
-4.01309e-05
-2.20423e-05
-4.26011e-05
-2.2702e-05
-4.5034e-05
-2.33528e-05
-4.74281e-05
-2.39947e-05
-4.97824e-05
-2.46284e-05
-5.20962e-05
-2.52554e-05
-5.43697e-05
-2.58776e-05
-5.66035e-05
-2.64955e-05
-5.87985e-05
-2.71095e-05
-6.09561e-05
-2.7722e-05
-2.83386e-05
-5.0323e-06
-8.15193e-06
-7.85628e-06
-1.0094e-05
-1.08119e-05
-1.13764e-05
-1.37622e-05
-1.22744e-05
-1.66613e-05
-1.30354e-05
-1.95027e-05
-1.37588e-05
-2.22944e-05
-1.44802e-05
-2.50446e-05
-1.52055e-05
-2.77586e-05
-1.59323e-05
-3.04383e-05
-1.66558e-05
-3.30841e-05
-1.73748e-05
-3.56957e-05
-1.8089e-05
-3.82726e-05
-1.87979e-05
-4.08142e-05
-1.95008e-05
-4.33193e-05
-2.01969e-05
-4.57864e-05
-2.08857e-05
-4.82142e-05
-2.15669e-05
-5.06015e-05
-2.22411e-05
-5.2948e-05
-2.29089e-05
-5.52542e-05
-2.35714e-05
-5.75208e-05
-2.42289e-05
-5.97488e-05
-2.48816e-05
-6.19393e-05
-2.55314e-05
-2.61826e-05
-5.35279e-06
-5.68605e-06
-8.16339e-06
-7.28342e-06
-1.11038e-05
-8.43602e-06
-1.40477e-05
-9.33046e-06
-1.69503e-05
-1.01328e-05
-1.98035e-05
-1.09056e-05
-2.26129e-05
-1.16709e-05
-2.53846e-05
-1.24338e-05
-2.81223e-05
-1.31946e-05
-3.08269e-05
-1.39512e-05
-3.34981e-05
-1.47036e-05
-3.61354e-05
-1.54517e-05
-3.87381e-05
-1.61952e-05
-4.13053e-05
-1.69336e-05
-4.38357e-05
-1.76665e-05
-4.63279e-05
-1.83936e-05
-4.87802e-05
-1.91146e-05
-5.11916e-05
-1.98296e-05
-5.35622e-05
-2.05384e-05
-5.58923e-05
-2.12413e-05
-5.81828e-05
-2.19384e-05
-6.04346e-05
-2.26298e-05
-6.2649e-05
-2.3317e-05
-2.4003e-05
-5.55606e-06
-3.21455e-06
-8.35725e-06
-4.48223e-06
-1.12858e-05
-5.50744e-06
-1.42234e-05
-6.39289e-06
-1.71262e-05
-7.22994e-06
-1.99853e-05
-8.04648e-06
-2.28046e-05
-8.85164e-06
-2.55889e-05
-9.64954e-06
-2.83408e-05
-1.04427e-05
-3.10605e-05
-1.12315e-05
-3.37473e-05
-1.20168e-05
-3.64004e-05
-1.27986e-05
-3.90191e-05
-1.35765e-05
-4.16022e-05
-1.43505e-05
-4.41484e-05
-1.51203e-05
-4.66561e-05
-1.58859e-05
-4.91237e-05
-1.6647e-05
-5.15504e-05
-1.74029e-05
-5.39361e-05
-1.81528e-05
-5.62813e-05
-1.88961e-05
-5.85869e-05
-1.96328e-05
-6.08534e-05
-2.03633e-05
-6.30823e-05
-2.10881e-05
-2.18087e-05
-5.64087e-06
-7.41317e-07
-8.43497e-06
-1.68813e-06
-1.13546e-05
-2.58784e-06
-1.42861e-05
-3.46137e-06
-1.71863e-05
-4.32971e-06
-2.00458e-05
-5.18696e-06
-2.28677e-05
-6.0298e-06
-2.5656e-05
-6.8612e-06
-2.84129e-05
-7.68576e-06
-3.11381e-05
-8.50628e-06
-3.38307e-05
-9.32417e-06
-3.64899e-05
-1.01394e-05
-3.91146e-05
-1.09518e-05
-4.17038e-05
-1.17613e-05
-4.4256e-05
-1.25681e-05
-4.67696e-05
-1.33723e-05
-4.92433e-05
-1.41733e-05
-5.16761e-05
-1.49701e-05
-5.40679e-05
-1.5761e-05
-5.64192e-05
-1.65448e-05
-5.87308e-05
-1.73212e-05
-6.10034e-05
-1.80906e-05
-6.32381e-05
-1.88534e-05
-1.96092e-05
-5.60656e-06
1.72815e-06
-8.39506e-06
1.10036e-06
-1.13085e-05
3.25565e-07
-1.42343e-05
-5.35492e-07
-1.71295e-05
-1.43453e-06
-1.99844e-05
-2.33206e-06
-2.28019e-05
-3.21233e-06
-2.55859e-05
-4.07714e-06
-2.83387e-05
-4.93305e-06
-3.10598e-05
-5.78519e-06
-3.37483e-05
-6.63561e-06
-3.64034e-05
-7.48437e-06
-3.90239e-05
-8.33121e-06
-4.16091e-05
-9.17619e-06
-4.41575e-05
-1.00197e-05
-4.66678e-05
-1.0862e-05
-4.91385e-05
-1.17027e-05
-5.15684e-05
-1.25401e-05
-5.39575e-05
-1.33719e-05
-5.6306e-05
-1.41962e-05
-5.86147e-05
-1.50125e-05
-6.08841e-05
-1.58212e-05
-6.31154e-05
-1.66221e-05
-1.74134e-05
-5.45278e-06
4.18777e-06
-8.23709e-06
3.88468e-06
-1.11473e-05
3.23574e-06
-1.40684e-05
2.38561e-06
-1.69563e-05
1.45345e-06
-1.98017e-05
5.13322e-07
-2.26079e-05
-4.06198e-07
-2.53793e-05
-1.30568e-06
-2.81186e-05
-2.19377e-06
-3.08257e-05
-3.07805e-06
-3.35001e-05
-3.96131e-06
-3.61408e-05
-4.8436e-06
-3.87474e-05
-5.72467e-06
-4.13188e-05
-6.60471e-06
-4.3854e-05
-7.48445e-06
-4.63515e-05
-8.36447e-06
-4.88099e-05
-9.24434e-06
-5.12279e-05
-1.0122e-05
-5.36053e-05
-1.09946e-05
-5.59421e-05
-1.18594e-05
-5.82389e-05
-1.27157e-05
-6.04962e-05
-1.3564e-05
-6.27149e-05