/*--------------------------------*- C++ -*----------------------------------*\
  =========                 |
  \\      /  F ield         | OpenFOAM: The Open Source CFD Toolbox
   \\    /   O peration     | Website:  https://openfoam.org
    \\  /    A nd           | Version:  11
     \\/     M anipulation  |
\*---------------------------------------------------------------------------*/
FoamFile
{
    format      ascii;
    class       volVectorField;
    location    "0.64";
    object      U;
}
// * * * * * * * * * * * * * * * * * * * * * * * * * * * * * * * * * * * * * //

dimensions      [0 1 -1 0 0 0 0];

internalField   nonuniform List<vector> 
2880
(
(-0.0626814 -0.0117641 0)
(-0.160905 -0.0855834 4.89249e-19)
(-0.240146 -0.16502 1.95897e-19)
(-0.245875 -0.178115 -1.63322e-20)
(-0.214616 -0.150044 -6.25231e-20)
(-0.0762261 -0.00834133 -2.36563e-20)
(-0.116041 -0.0311364 -9.17626e-21)
(-0.211416 -0.109052 -2.38829e-19)
(-0.248425 -0.152988 2.99512e-20)
(-0.230753 -0.157988 -2.8729e-21)
(-0.1659 -0.131374 -2.45456e-20)
(-0.0306478 -0.0418212 -1.53349e-20)
(-0.142844 -0.0371872 0)
(-0.223547 -0.0989153 1.29733e-20)
(-0.241166 -0.13614 1.45191e-19)
(-0.200436 -0.138137 -1.30673e-20)
(-0.111473 -0.116005 1.09802e-20)
(0.0301894 -0.0626412 4.05938e-20)
(-0.16273 -0.0437698 3.52729e-21)
(-0.232173 -0.0888616 -2.1059e-19)
(-0.23244 -0.119848 -1.37083e-19)
(-0.171897 -0.120354 1.33065e-20)
(-0.0639188 -0.102964 -3.084e-20)
(0.0868921 -0.0675397 -3.36506e-20)
(-0.185904 -0.0471193 8.57076e-21)
(-0.239434 -0.0818925 1.83679e-19)
(-0.223324 -0.105259 1.45049e-19)
(-0.146223 -0.104565 -1.3553e-20)
(-0.0221614 -0.0906819 1.02878e-19)
(0.141267 -0.0642611 4.85656e-20)
(-0.21283 -0.0420321 0)
(-0.243844 -0.0752567 -1.146e-20)
(-0.214124 -0.0914161 -1.31125e-19)
(-0.12329 -0.0901064 1.38715e-20)
(0.0150174 -0.0780362 -1.01895e-19)
(0.19265 -0.0550139 2.05436e-20)
(-0.227567 -0.0398757 1.55209e-19)
(-0.245959 -0.0681891 9.12178e-20)
(-0.205292 -0.0784037 8.0426e-20)
(-0.103152 -0.0764594 -7.33828e-21)
(0.0483183 -0.0647008 -1.14492e-20)
(0.241034 -0.0415823 -6.75197e-20)
(-0.240429 -0.0372664 -3.07285e-19)
(-0.246812 -0.0609319 -1.79572e-19)
(-0.197386 -0.0660374 -7.03753e-20)
(-0.0859947 -0.0633139 -7.26549e-21)
(0.077787 -0.0506749 -5.47381e-21)
(0.286107 -0.0253527 5.05234e-20)
(-0.251937 -0.0344688 1.55126e-19)
(-0.246927 -0.0535274 8.92619e-20)
(-0.190831 -0.0541288 3.62789e-20)
(-0.0720569 -0.0505292 7.42311e-21)
(0.103183 -0.0361805 -6.53935e-21)
(0.327194 -0.00739081 2.11159e-20)
(-0.261189 -0.0323344 -6.20575e-22)
(-0.246641 -0.0457026 0)
(-0.185959 -0.0425135 -3.60743e-20)
(-0.06162 -0.0380755 0)
(0.124082 -0.0215308 0)
(0.363467 0.0114004 -2.12213e-20)
(-0.267594 -0.0306544 0)
(-0.246229 -0.0374792 0)
(-0.183048 -0.0310574 9.28469e-21)
(-0.0549964 -0.025995 2.4079e-22)
(0.13996 -0.0070682 -2.13371e-22)
(0.394083 0.0302344 -5.45312e-21)
(-0.271058 -0.029112 0)
(-0.245893 -0.0288629 4.60501e-20)
(-0.182316 -0.0196598 -9.3092e-21)
(-0.0524993 -0.0143656 0)
(0.150198 0.0068897 3.20475e-21)
(0.418272 0.0484169 2.58686e-21)
(-0.271583 -0.0273165 -5.09764e-21)
(-0.245759 -0.0198647 -4.35515e-20)
(-0.183923 -0.00825507 4.76901e-21)
(-0.0544215 -0.00326882 3.84482e-21)
(0.154101 0.0200475 -6.13476e-20)
(0.435462 0.0653249 0)
(-0.269202 -0.0247963 0)
(-0.245857 -0.0105115 9.47084e-20)
(-0.187945 0.00318299 9.70698e-21)
(-0.0610511 0.00724339 -8.33113e-21)
(0.151007 0.0320942 -3.6222e-23)
(0.445272 0.0803798 0)
(-0.264061 -0.0211153 0)
(-0.246123 -0.000817171 -9.65232e-20)
(-0.19434 0.0146449 9.89804e-21)
(-0.0725979 0.0171493 -1.66497e-20)
(0.140414 0.042769 7.55648e-20)
(0.44689 0.0930375 3.28082e-20)
(-0.256473 -0.0158436 -1.02058e-20)
(-0.246463 0.00919718 6.19064e-21)
(-0.202938 0.0260576 0)
(-0.0890466 0.0264202 -1.39954e-19)
(0.121827 0.0521567 -1.32435e-20)
(0.439317 0.102845 -1.48805e-20)
(-0.2479 -0.00886509 -3.15071e-19)
(-0.246801 0.0194387 1.80346e-19)
(-0.21337 0.0372944 -1.55001e-19)
(-0.110168 0.0350867 2.68339e-19)
(0.0943949 0.0606235 1.49167e-20)
(0.421581 0.109195 0)
(-0.238529 0.00444415 6.55002e-19)
(-0.246892 0.0292341 -2.04871e-19)
(-0.225029 0.0481597 1.68166e-19)
(-0.135362 0.0432388 -1.457e-19)
(0.0571593 0.0686786 0)
(0.392838 0.111355 9.64349e-20)
(-0.222021 0.0216184 -3.10279e-19)
(-0.245172 0.0367508 0)
(-0.236842 0.0584919 0)
(-0.163558 0.0510679 1.34849e-19)
(0.0092003 0.0768715 4.4529e-20)
(0.352042 0.108486 -1.22719e-19)
(-0.202694 0.0262456 2.81034e-19)
(-0.239885 0.0408239 0)
(-0.247622 0.0686833 0)
(-0.193019 0.0589563 -1.56007e-19)
(-0.0495233 0.0859787 -9.32399e-20)
(0.297363 0.099494 -2.72508e-20)
(-0.180248 0.0274878 -2.69336e-19)
(-0.230501 0.0441565 0)
(-0.256573 0.0792695 -1.8863e-19)
(-0.221299 0.067311 0)
(-0.117227 0.09714 1.27027e-19)
(0.226979 0.0832669 1.39102e-19)
(-0.156811 0.0283007 0)
(-0.217004 0.0471183 2.24896e-19)
(-0.262721 0.0903689 1.72129e-19)
(-0.245985 0.076471 2.11206e-20)
(-0.191526 0.111055 -1.04591e-19)
(0.139183 0.0561543 -1.76205e-19)
(-0.130513 0.0264844 -3.11978e-19)
(-0.196953 0.0482878 -2.39811e-19)
(-0.26371 0.100511 0)
(-0.265222 0.0839333 0)
(-0.269671 0.130091 3.4483e-20)
(0.0377862 0.0024473 1.77161e-19)
(-0.072238 0.00934443 3.37274e-19)
(-0.144828 0.0314722 -2.31734e-19)
(-0.238081 0.0981301 -1.2863e-20)
(-0.24402 0.0834901 0)
(-0.351557 0.180199 -6.68123e-20)
(-0.0206206 -0.0223145 -1.76195e-19)
(0.149918 -0.0413984 1.01244e-19)
(0.287426 -0.0536372 2.25472e-20)
(0.445904 -0.0266194 4.12938e-20)
(0.607141 0.00596979 -5.55568e-21)
(0.763065 0.0402546 1.00977e-20)
(0.906798 0.0719385 2.08663e-21)
(1.03463 0.0979554 2.76072e-21)
(1.14445 0.116541 1.42229e-21)
(1.23483 0.126777 0)
(1.30596 0.128968 -2.49323e-21)
(1.35803 0.12443 -3.39668e-21)
(1.38978 0.11399 -4.65341e-21)
(1.40932 0.099034 4.44862e-21)
(1.42108 0.0837499 0)
(1.42307 0.0667522 1.17704e-20)
(1.41735 0.0494204 -8.03649e-21)
(1.40575 0.0331509 -1.58437e-20)
(1.3896 0.018655 -2.66405e-20)
(1.36983 0.00648561 -8.41964e-21)
(1.34707 -0.00296614 0)
(1.32104 -0.00944985 -3.23107e-20)
(1.29136 -0.0118483 -5.50153e-21)
(1.25818 -0.00597907 4.55616e-20)
(1.2185 0.0130321 0)
(0.197969 -0.0459672 -6.22855e-20)
(0.360743 -0.0457075 -7.21605e-20)
(0.542838 -0.0116146 3.91457e-20)
(0.719581 0.0275362 -5.22388e-21)
(0.881239 0.0660843 5.8733e-21)
(1.02134 0.0991035 8.69279e-22)
(1.13778 0.123838 1.28178e-21)
(1.23004 0.139004 -1.30505e-21)
(1.29942 0.144808 0)
(1.34875 0.143066 1.75759e-20)
(1.37827 0.13465 9.1006e-21)
(1.3961 0.121574 -1.02813e-20)
(1.40579 0.107815 -1.3113e-20)
(1.40644 0.0916663 3.61012e-20)
(1.40058 0.0750276 -2.67443e-20)
(1.38996 0.0589441 3.62201e-20)
(1.37571 0.0440737 2.75687e-20)
(1.35849 0.030947 0)
(1.33871 0.0200287 2.87346e-20)
(1.31633 0.0115725 1.06228e-21)
(1.29073 0.00582932 -3.88031e-20)
(1.26139 0.00399665 -7.4531e-20)
(1.22845 0.0104156 -2.15537e-21)
(1.18885 0.0285059 5.8047e-20)
(0.248207 -0.0524298 -1.71981e-20)
(0.440688 -0.0340727 1.51783e-20)
(0.64375 0.0094982 -3.01696e-20)
(0.830457 0.0552141 1.02583e-21)
(0.989724 0.0963713 6.72501e-21)
(1.11831 0.128158 -2.24741e-21)
(1.21666 0.148861 -3.22077e-21)
(1.28782 0.158702 3.00195e-21)
(1.33645 0.159595 0)
(1.36582 0.153355 -9.51155e-21)
(1.3827 0.142121 -2.55467e-20)
(1.39076 0.129358 3.13589e-20)
(1.39063 0.113996 1.68544e-20)
(1.38481 0.0979768 5.06264e-21)
(1.37499 0.0821882 -1.6808e-20)
(1.36221 0.0672136 -5.42669e-20)
(1.34702 0.0535263 -1.58156e-20)
(1.32966 0.0415109 0)
(1.3102 0.0315402 -1.9167e-20)
(1.28827 0.0238036 0)
(1.26311 0.0185101 0)
(1.23414 0.0169136 3.31173e-20)
(1.20153 0.0234194 -6.90626e-20)
(1.16235 0.0402796 6.8469e-20)
(0.306654 -0.0507553 -1.52941e-21)
(0.527068 -0.0158665 -7.89323e-21)
(0.745586 0.0369558 3.00804e-20)
(0.9338 0.0876392 1.55055e-20)
(1.08272 0.128249 -2.38271e-21)
(1.19341 0.155917 -4.315e-21)
(1.27087 0.170729 5.23641e-21)
(1.32191 0.174856 -1.91082e-20)
(1.35284 0.170984 0)
(1.36961 0.161502 -1.94966e-20)
(1.37675 0.149459 -1.99368e-20)
(1.37626 0.134809 1.3908e-21)
(1.37059 0.119301 0)
(1.36136 0.103771 -2.37667e-20)
(1.34958 0.0887818 -2.53951e-20)
(1.33584 0.0747486 1.06983e-19)
(1.3204 0.0620017 -6.58639e-20)
(1.30327 0.0508265 4.30464e-20)
(1.28426 0.0415191 -4.40602e-20)
(1.26281 0.0342248 0)
(1.2381 0.0291016 0)
(1.20953 0.0274421 -1.78378e-20)
(1.17734 0.0336661 0)
(1.13885 0.0491164 0)
(0.371035 -0.0401342 1.12708e-20)
(0.616081 0.00963065 0)
(0.843223 0.0697657 -1.52871e-20)
(1.02445 0.122043 0)
(1.15665 0.159075 -3.17306e-21)
(1.24674 0.180584 -2.01661e-22)
(1.30439 0.189064 4.43673e-21)
(1.33866 0.187976 4.74681e-21)
(1.35673 0.180407 2.19052e-20)
(1.36387 0.168921 9.41476e-21)
(1.36346 0.154849 2.49962e-20)
(1.35801 0.1397 -3.71163e-20)
(1.34919 0.124323 0)
(1.33808 0.109302 2.35586e-20)
(1.32534 0.0950243 0)
(1.31129 0.0817658 1.37926e-20)
(1.29598 0.0697501 3.67767e-20)
(1.27924 0.059186 6.27429e-20)
(1.26069 0.0503036 -1.21192e-20)
(1.2397 0.0432148 5.84381e-20)
(1.21544 0.0380167 -7.73405e-20)
(1.18735 0.0360226 4.3177e-20)
(1.15569 0.0416852 0)
(1.11811 0.0556585 2.36986e-20)
(0.43821 -0.0224715 1.19072e-20)
(0.703634 0.0408167 -2.72437e-20)
(0.931637 0.105857 -2.03167e-20)
(1.09914 0.15605 4.88044e-21)
(1.21139 0.187234 0)
(1.28155 0.201928 0)
(1.32236 0.204511 0)
(1.34357 0.198979 2.13527e-20)
(1.35198 0.188392 -2.21961e-20)
(1.35209 0.174837 0)
(1.34695 0.159862 0)
(1.33845 0.144454 4.4088e-20)
(1.32781 0.129271 -5.95695e-20)
(1.31575 0.114723 -1.69369e-21)
(1.30267 0.101053 2.89267e-20)
(1.28867 0.0884188 -1.36309e-20)
(1.27363 0.0769512 -7.11968e-20)
(1.25728 0.0667961 -1.43909e-20)
(1.23916 0.0581275 4.04091e-20)
(1.21861 0.0510314 -1.21374e-20)
(1.19485 0.045551 -2.49738e-20)
(1.16733 0.0429911 1.31538e-20)
(1.13631 0.0478853 -5.04983e-20)
(1.09988 0.0604208 3.86803e-20)
(0.505541 0.000508893 0)
(0.786028 0.075635 1.17023e-23)
(1.00761 0.142638 1.36837e-20)
(1.15712 0.188158 -3.73926e-21)
(1.24923 0.212399 0)
(1.30191 0.220529 4.70472e-21)
(1.32916 0.217921 -4.34993e-21)
(1.34042 0.208645 0)
(1.34177 0.195524 1.63082e-20)
(1.33713 0.18048 0)
(1.32894 0.16477 0)
(1.31865 0.149193 0)
(1.3071 0.134217 -3.50119e-20)
(1.2947 0.120088 5.08896e-20)
(1.2816 0.106917 3.39673e-20)
(1.26778 0.0947633 -3.20182e-20)
(1.25303 0.083681 0)
(1.23704 0.073763 -1.49104e-20)
(1.21932 0.0651347 1.3799e-20)
(1.19924 0.0578561 -1.51803e-20)
(1.17606 0.0519287 6.99756e-20)
(1.14923 0.0486247 -6.74832e-20)
(1.11897 0.0525886 -1.52815e-20)
(1.08389 0.0638422 -1.85255e-20)
(0.570695 0.0273145 1.76691e-20)
(0.860236 0.112455 4.51933e-20)
(1.06981 0.178438 -1.36955e-20)
(1.19968 0.217811 3.73517e-21)
(1.27329 0.23497 -2.97016e-21)
(1.3114 0.237077 0)
(1.32798 0.229911 0)
(1.33176 0.217406 0)
(1.32811 0.202166 -3.49594e-20)
(1.32034 0.185883 -1.96349e-21)
(1.31036 0.169607 1.81942e-20)
(1.29919 0.153933 -1.97522e-20)
(1.28732 0.13915 -1.01188e-21)
(1.27492 0.125362 5.91757e-22)
(1.26198 0.112578 0)
(1.24838 0.100773 0)
(1.23391 0.0899418 0)
(1.21823 0.0801284 -1.6139e-20)
(1.2009 0.071414 4.87905e-20)
(1.18134 0.0638211 -4.84331e-20)
(1.15883 0.0573247 3.05894e-20)
(1.13281 0.0531434 -3.19122e-20)
(1.10344 0.0560216 4.60413e-20)
(1.0699 0.0662765 2.23321e-20)
(0.63174 0.0566461 -2.24898e-20)
(0.924466 0.149935 2.06156e-21)
(1.11843 0.212582 -2.24444e-21)
(1.22896 0.245096 9.09776e-22)
(1.28643 0.25545 2.13136e-21)
(1.31269 0.252083 7.24482e-21)
(1.32102 0.240853 0)
(1.3193 0.225512 0)
(1.31226 0.208447 0)
(1.30259 0.191133 0)
(1.29173 0.1744 0)
(1.2803 0.158645 0)
(1.2685 0.144001 -2.15397e-20)
(1.2563 0.130456 2.02308e-20)
(1.24361 0.117939 0)
(1.23026 0.106368 0)
(1.21605 0.0956838 0)
(1.20066 0.0858831 -9.65262e-21)
(1.18372 0.0770046 -9.36402e-21)
(1.16469 0.0690235 -9.07328e-21)
(1.14292 0.0618799 0)
(1.11784 0.0567221 -3.48153e-20)
(1.08946 0.0582889 4.25999e-20)
(1.05771 0.0679779 0)
(0.6872 0.0874156 2.30408e-21)
(0.977965 0.187159 -1.51748e-20)
(1.15452 0.244897 0)
(1.24713 0.270338 0)
(1.29096 0.274267 0)
(1.30774 0.265884 -7.21752e-21)
(1.30979 0.250977 0)
(1.30418 0.233103 0)
(1.29499 0.214442 6.10406e-21)
(1.28437 0.196238 -1.18538e-20)
(1.27328 0.179098 5.75566e-21)
(1.26201 0.163235 0)
(1.25053 0.148646 0)
(1.23869 0.135233 0)
(1.22632 0.122867 1.10778e-20)
(1.21326 0.111424 -1.04671e-20)
(1.1993 0.100805 -2.67719e-21)
(1.18419 0.090962 9.60801e-21)
(1.16761 0.0818854 9.34831e-21)
(1.14911 0.0735162 9.08713e-21)
(1.1281 0.0657403 -1.86349e-20)
(1.10394 0.0595221 1.79685e-20)
(1.07658 0.0592168 -2.77401e-20)
(1.04724 0.0690205 1.81719e-20)
(0.736073 0.11879 0)
(1.02081 0.223567 0)
(1.17945 0.275445 2.2451e-24)
(1.25609 0.293856 -2.02639e-24)
(1.28862 0.291739 0)
(1.29794 0.278701 -1.7591e-22)
(1.29533 0.260413 1.62339e-22)
(1.28713 0.240245 0)
(1.27677 0.220157 0)
(1.26589 0.20115 -3.93812e-21)
(1.25505 0.18361 8.19715e-22)
(1.24423 0.167578 2.9884e-21)
(1.23326 0.152941 0)
(1.2219 0.139537 0)
(1.20996 0.127199 0)
(1.19726 0.115777 0)
(1.18361 0.105149 2.66022e-21)
(1.16881 0.0952309 0)
(1.15259 0.0859732 0)
(1.1346 0.0773104 -1.34366e-21)
(1.11432 0.0691292 1.83793e-23)
(1.09107 0.0619241 4.05481e-23)
(1.06465 0.0580747 1.28212e-21)
(1.03808 0.0692222 -6.07965e-22)
(0.77778 0.150243 0)
(1.05348 0.258924 0)
(1.1946 0.304385 0)
(1.25739 0.315937 -1.85635e-21)
(1.2807 0.308086 1.20719e-20)
(1.28426 0.290663 0)
(1.27836 0.269222 7.36964e-21)
(1.2686 0.246943 2.2158e-20)
(1.25785 0.22555 0)
(1.24724 0.205786 1.89701e-20)
(1.23697 0.187819 2.25001e-20)
(1.22683 0.17154 -1.02158e-20)
(1.21651 0.156741 -1.37491e-20)
(1.20577 0.143211 2.61593e-20)
(1.19438 0.130761 6.35667e-22)
(1.18217 0.11923 0)
(1.16897 0.108486 0)
(1.1546 0.0984328 1.14973e-20)
(1.13887 0.0890107 -1.10393e-20)
(1.12152 0.0801838 -1.91107e-20)
(1.10223 0.0719277 2.10606e-20)
(1.0807 0.0644905 0)
(1.05672 0.0557848 -1.33002e-20)
(1.02671 0.0696274 0)
(0.811969 0.181518 3.91319e-21)
(1.07657 0.293286 -4.56227e-21)
(1.20124 0.331932 9.8776e-22)
(1.25222 0.336796 0)
(1.26813 0.323436 -1.03369e-20)
(1.26738 0.301821 0)
(1.25931 0.2774 -3.12144e-20)
(1.24887 0.25315 4.91755e-23)
(1.23832 0.23054 0)
(1.22837 0.210039 1.16693e-21)
(1.21893 0.191606 -2.98851e-20)
(1.20963 0.174997 6.15875e-20)
(1.20011 0.159925 7.2315e-22)
(1.1901 0.146137 -2.77914e-20)
(1.17938 0.13342 -1.3016e-20)
(1.16779 0.121605 0)
(1.15518 0.110551 0)
(1.14141 0.100159 0)
(1.12631 0.0903593 0)
(1.10969 0.0810248 -4.58207e-20)
(1.09144 0.0717958 4.45029e-20)
(1.0714 0.0627469 0)
(1.04817 0.0578005 -3.57521e-20)
(1.01606 0.0694262 4.52243e-20)
(0.838394 0.212593 -3.74211e-20)
(1.09075 0.326784 0)
(1.20033 0.358318 0)
(1.24144 0.356582 0)
(1.25154 0.337848 0)
(1.24774 0.312165 0)
(1.23849 0.284892 0)
(1.22806 0.258777 0)
(1.2182 0.235011 0)
(1.20924 0.213786 0)
(1.20082 0.194855 1.83171e-20)
(1.1925 0.177853 -4.80399e-20)
(1.18388 0.162423 0)
(1.17469 0.148273 -3.03116e-20)
(1.16474 0.135172 2.86429e-20)
(1.15388 0.122934 2.87027e-20)
(1.14198 0.111411 0)
(1.12889 0.100494 0)
(1.11447 0.09009 2.57919e-20)
(1.0986 0.0799863 -2.50017e-20)
(1.08121 0.0697342 0)
(1.06193 0.0599117 0)
(1.0388 0.0559955 0)
(1.01069 0.06489 0)
(0.857003 0.243629 7.18793e-20)
(1.09672 0.359568 -3.09415e-22)
(1.19262 0.38373 5.26926e-21)
(1.22565 0.375369 -2.0221e-20)
(1.23136 0.351306 1.43255e-20)
(1.22562 0.321618 0)
(1.21603 0.291587 8.82775e-22)
(1.20624 0.263695 3.9017e-20)
(1.19748 0.238823 8.27444e-20)
(1.18975 0.216893 -3.77427e-20)
(1.18252 0.197456 0)
(1.1753 0.180028 7.24067e-20)
(1.16768 0.164196 -3.33923e-20)
(1.15941 0.149637 -6.47236e-20)
(1.15032 0.136101 9.31089e-20)
(1.14027 0.123392 -2.85325e-20)
(1.12915 0.111351 0)
(1.11684 0.0998645 0)
(1.10322 0.0888284 -7.87714e-20)
(1.08821 0.078004 7.62957e-20)
(1.07179 0.0669765 2.57167e-20)
(1.0535 0.0566154 0)
(1.03132 0.0527185 0)
(1.00586 0.0593474 0)
(0.867952 0.274743 -4.17427e-20)
(1.09511 0.391858 -6.05555e-21)
(1.17852 0.408342 -2.22876e-20)
(1.20518 0.393138 0)
(1.20782 0.363707 4.41468e-20)
(1.20119 0.330026 4.70008e-20)
(1.19204 0.297312 -8.61703e-20)
(1.18342 0.267732 4.7666e-20)
(1.17611 0.24182 -8.75728e-20)
(1.16984 0.219218 -4.23888e-20)
(1.16397 0.199287 3.93923e-20)
(1.15796 0.181437 -7.59151e-20)
(1.15144 0.165204 0)
(1.14418 0.15024 0)
(1.13604 0.136283 2.25332e-21)
(1.12689 0.123128 -6.30027e-20)
(1.11664 0.110612 1.51898e-19)
(1.1052 0.0986182 8.85774e-20)
(1.09247 0.0870419 -2.251e-19)
(1.07843 0.0756433 8.09534e-20)
(1.06308 0.0640476 -1.32171e-19)
(1.04599 0.0532414 1.0389e-19)
(1.025 0.0489246 0)
(1.00172 0.0536704 2.66035e-20)
(0.871351 0.306152 -5.27266e-20)
(1.08592 0.423759 -9.1915e-21)
(1.1582 0.432331 2.21689e-20)
(1.18018 0.409745 0)
(1.18104 0.374827 -4.39436e-20)
(1.17452 0.337159 5.54206e-20)
(1.16653 0.301839 -5.95372e-20)
(1.15959 0.270677 3.45528e-21)
(1.15408 0.243815 1.47114e-19)
(1.14947 0.220605 -1.39357e-19)
(1.14511 0.200223 0)
(1.14044 0.181985 -4.25703e-20)
(1.13513 0.165387 2.33961e-19)
(1.12898 0.150063 -7.29746e-20)
(1.12187 0.135739 1.08421e-19)
(1.11372 0.122202 -1.77193e-21)
(1.10445 0.109289 -2.25337e-19)
(1.09398 0.0968817 -1.53766e-19)
(1.08225 0.084874 1.81084e-19)
(1.06929 0.0730335 -3.155e-20)
(1.05516 0.0610201 5.78134e-20)
(1.03939 0.0498563 5.69701e-20)
(1.01967 0.0449916 -1.10493e-19)
(0.998311 0.0481 4.75387e-20)
(0.866662 0.338445 5.28275e-20)
(1.069 0.455534 2.79749e-20)
(1.13176 0.455612 1.06622e-20)
(1.15065 0.424914 0)
(1.15103 0.384321 1.19699e-19)
(1.14564 0.342684 7.45035e-20)
(1.13956 0.304885 5.28966e-20)
(1.13479 0.272289 0)
(1.13137 0.244601 -9.9261e-20)
(1.12865 0.220875 9.38792e-20)
(1.12594 0.200118 -1.88289e-19)
(1.12273 0.181561 1.73712e-19)
(1.11873 0.164668 -1.61308e-19)
(1.11379 0.149059 -8.0564e-20)
(1.10783 0.134451 -7.1885e-20)
(1.10077 0.120627 6.87682e-20)
(1.09257 0.107417 -4.11776e-21)
(1.08317 0.0947031 -6.75639e-20)
(1.07255 0.0823793 -1.23454e-22)
(1.06076 0.0702223 -1.26403e-19)
(1.04792 0.0579247 -5.78192e-20)
(1.03354 0.0465041 5.7081e-20)
(1.01517 0.0410737 2.38337e-19)
(0.995625 0.0427372 -3.89167e-19)
(0.852591 0.372664 1.03933e-21)
(1.04395 0.487303 -2.9876e-20)
(1.09889 0.477769 -1.02479e-19)
(1.11647 0.438135 0)
(1.11782 0.391701 -1.19156e-19)
(1.11463 0.34619 -1.89037e-19)
(1.11119 0.306117 6.1282e-20)
(1.10906 0.272292 1.25555e-19)
(1.10804 0.243946 -1.13094e-19)
(1.10741 0.219838 1.04571e-19)
(1.10649 0.198816 9.50454e-20)
(1.10486 0.180041 -9.5913e-20)
(1.10229 0.162954 -9.03224e-20)
(1.09866 0.147163 1.60512e-19)
(1.09393 0.132379 -3.14902e-19)
(1.08807 0.118378 1.50313e-19)
(1.08103 0.104986 -1.48502e-19)
(1.07279 0.0920817 2.06482e-19)
(1.06335 0.0795602 -3.74937e-21)
(1.05281 0.0672106 6.32341e-20)
(1.04133 0.054759 0)
(1.02838 0.0431939 -6.37857e-20)
(1.01139 0.037237 -6.43171e-20)
(0.993618 0.0376299 6.06414e-20)
(0.827055 0.410751 0)
(1.01033 0.518667 -8.0557e-20)
(1.05892 0.498072 2.3047e-19)
(1.07751 0.448662 -7.48615e-20)
(1.08144 0.396336 -8.91079e-20)
(1.0816 0.34719 0)
(1.08155 0.305157 0)
(1.08252 0.270384 -2.61119e-19)
(1.08418 0.241605 0)
(1.08582 0.217291 0)
(1.08684 0.196153 1.08878e-19)
(1.08691 0.177295 9.53713e-20)
(1.08586 0.160145 4.87491e-23)
(1.08364 0.144301 2.60575e-19)
(1.08023 0.129469 1.66626e-19)
(1.07564 0.115418 -2.36423e-19)
(1.06984 0.10197 3.79388e-19)
(1.06283 0.0890003 7.53926e-20)
(1.05464 0.0764054 -7.29792e-20)
(1.0454 0.0639907 0)
(1.03531 0.0515187 0)
(1.02381 0.0399333 6.3921e-20)
(1.00826 0.0335228 -2.65552e-19)
(0.992234 0.0328138 1.87501e-19)
(0.787684 0.456398 4.97479e-21)
(0.967339 0.548622 6.84786e-20)
(1.0112 0.515437 -2.87074e-19)
(1.03361 0.455463 -8.65889e-20)
(1.042 0.397443 2.35792e-19)
(1.04674 0.345113 0)
(1.05083 0.301586 3.1361e-19)
(1.05535 0.266248 -5.14195e-21)
(1.05995 0.237326 0)
(1.06403 0.213033 -1.20285e-19)
(1.06711 0.191967 7.613e-21)
(1.06897 0.173196 2.09046e-19)
(1.06954 0.156141 -1.93608e-19)
(1.0688 0.140397 9.5284e-20)
(1.06679 0.125663 0)
(1.06353 0.111704 -2.49488e-19)
(1.05903 0.0983373 3.22062e-19)
(1.05331 0.0854349 -1.51295e-19)
(1.04641 0.0728979 0)
(1.03851 0.0605526 0)
(1.02982 0.0482013 -7.20983e-20)
(1.01977 0.0367297 -2.10882e-19)
(1.00571 0.0299595 6.32671e-20)
(0.991411 0.0283162 3.23574e-19)
(0.731644 0.516559 8.89921e-21)
(0.912835 0.57514 -4.1909e-20)
(0.954965 0.527953 9.87745e-20)
(0.98475 0.457116 2.94064e-19)
(0.999827 0.394043 0)
(1.01043 0.339318 1.89405e-19)
(1.01939 0.294969 -3.25702e-19)
(1.02783 0.259567 3.11114e-19)
(1.03558 0.230869 0)
(1.04223 0.206878 -1.32318e-19)
(1.04747 0.186114 -1.14915e-19)
(1.05121 0.167631 -1.13632e-19)
(1.05345 0.150855 0)
(1.05426 0.135382 -9.50694e-20)
(1.05369 0.120908 0)
(1.05181 0.107194 -9.0519e-20)
(1.04865 0.094055 -8.25373e-20)
(1.04424 0.0813613 8.37927e-20)
(1.03867 0.069022 0)
(1.03212 0.0568891 2.2696e-19)
(1.02483 0.044807 -5.21976e-19)
(1.01622 0.03359 5.14087e-19)
(1.00368 0.0265686 -2.83136e-19)
(0.991078 0.0241584 1.55324e-19)
(0.647908 0.597621 3.6439e-20)
(0.841296 0.592765 -2.98191e-20)
(0.889367 0.532055 0)
(0.931405 0.45173 1.46108e-19)
(0.955637 0.38501 -3.28978e-19)
(0.973308 0.329154 -2.87185e-19)
(0.987706 0.284906 9.03458e-20)
(1.00035 0.250071 4.9971e-21)
(1.01139 0.222036 -1.49454e-19)
(1.02067 0.198675 1.31528e-19)
(1.02813 0.178475 4.13393e-21)
(1.03378 0.16051 2.3012e-19)
(1.03774 0.144218 0)
(1.04012 0.129203 0)
(1.04103 0.115163 -1.93999e-19)
(1.04055 0.101857 2.76523e-19)
(1.03874 0.0890987 1.81623e-19)
(1.03567 0.0767627 -3.42952e-19)
(1.03142 0.064769 3.31533e-19)
(1.02622 0.0529997 -8.23207e-20)
(1.02031 0.0413411 7.94443e-20)
(1.01309 0.0305214 7.77377e-20)
(1.0021 0.0233675 0)
(0.99116 0.0203564 0)
(0.491795 0.677723 2.65985e-19)
(0.743699 0.590315 -3.30676e-19)
(0.816086 0.521834 -2.88559e-19)
(0.875455 0.437075 -3.79073e-19)
(0.910846 0.369315 2.24882e-19)
(0.93634 0.31412 -4.40491e-19)
(0.956469 0.271118 -1.03746e-19)
(0.9734 0.237577 -3.52864e-19)
(0.987738 0.210697 1.58846e-19)
(0.999671 0.188326 -1.42007e-19)
(1.00934 0.168981 -1.30406e-19)
(1.01691 0.151779 0)
(1.02258 0.136189 2.27068e-19)
(1.02654 0.12183 -2.15725e-19)
(1.02892 0.108404 -1.03876e-19)
(1.02983 0.0956742 0)
(1.02937 0.0834566 -1.861e-19)
(1.02762 0.0716335 -2.70702e-19)
(1.02469 0.0601405 -8.78466e-20)
(1.02081 0.0488925 1.68364e-19)
(1.01622 0.0378131 -7.97472e-20)
(1.01036 0.02753 -7.7971e-20)
(1.00092 0.0203698 3.1004e-19)
(0.991581 0.0169199 -3.66686e-20)
(-0.00334055 -0.0554477 0)
(0.0263629 -0.101276 -3.29409e-18)
(0.0449375 -0.130757 -1.45413e-18)
(0.0172749 -0.113311 1.338e-19)
(0.0685983 -0.0972093 9.44248e-19)
(-0.293802 0.261539 1.0339e-18)
(0.00480819 -0.0718968 6.89455e-20)
(0.0245864 -0.108958 1.55642e-18)
(0.0350686 -0.125519 -2.21118e-19)
(0.00567123 -0.0985754 -8.5245e-22)
(0.0352436 -0.0298913 3.17417e-19)
(-0.0916878 0.1844 -2.42051e-19)
(0.00636725 -0.0820594 0)
(0.0202028 -0.110532 -8.48407e-20)
(0.0270918 -0.117007 -9.81687e-19)
(0.00702292 -0.0815137 1.07611e-19)
(0.0341564 0.00631772 -9.19049e-20)
(0.00465137 0.171891 -6.65014e-19)
(0.00521251 -0.0908102 -3.23958e-20)
(0.0164874 -0.111689 1.30118e-18)
(0.0222722 -0.110923 8.92832e-19)
(0.0124417 -0.0713278 -9.75748e-20)
(0.0422005 0.0190347 2.47506e-19)
(0.0582546 0.153474 2.93423e-19)
(0.00308062 -0.0980355 -6.42098e-20)
(0.013667 -0.11278 -1.10153e-18)
(0.0198685 -0.107463 -8.76092e-19)
(0.0197786 -0.0673887 9.02187e-20)
(0.0537967 0.0173522 -6.87171e-19)
(0.0950222 0.128077 -4.15226e-19)
(0.000997291 -0.104067 0)
(0.011657 -0.114001 6.69673e-20)
(0.0191719 -0.106594 7.71292e-19)
(0.0277945 -0.0688355 -8.47645e-20)
(0.0667807 0.00603906 6.55881e-19)
(0.123 0.0973706 -1.316e-19)
(-0.000556065 -0.109197 -1.02427e-18)
(0.0102905 -0.115582 -5.11497e-19)
(0.0196295 -0.108119 -4.37679e-19)
(0.0357948 -0.0748523 4.09695e-20)
(0.0797579 -0.0116852 6.84936e-20)
(0.144813 0.0621945 4.26412e-19)
(-0.00130385 -0.113545 2.00676e-18)
(0.00940355 -0.117595 9.89996e-19)
(0.0207834 -0.111772 3.75908e-19)
(0.0433037 -0.084625 3.88382e-20)
(0.0917815 -0.0338905 3.22207e-20)
(0.162144 0.0240008 -2.99735e-19)
(-0.00122137 -0.11705 -9.98906e-19)
(0.00884099 -0.119995 -4.83315e-19)
(0.0222265 -0.117166 -1.81501e-19)
(0.0499562 -0.0973553 -3.77049e-20)
(0.10233 -0.0592631 3.3355e-20)
(0.176077 -0.0160286 -1.16905e-19)
(-0.00047885 -0.119602 3.88303e-21)
(0.00845608 -0.122663 0)
(0.0236144 -0.123896 1.78029e-19)
(0.0554704 -0.112299 0)
(0.111123 -0.0868415 0)
(0.187272 -0.0571623 1.15927e-19)
(0.000696019 -0.121101 0)
(0.00810496 -0.125439 0)
(0.0246638 -0.131541 -4.3661e-20)
(0.0596287 -0.128781 -1.13343e-21)
(0.117987 -0.115901 1.00985e-21)
(0.196115 -0.0989961 2.85188e-20)
(0.0020588 -0.121466 0)
(0.00766617 -0.128142 -2.3361e-19)
(0.025158 -0.139681 4.33868e-20)
(0.0622621 -0.14618 0)
(0.122793 -0.145867 -1.55621e-20)
(0.202807 -0.141325 -1.40353e-20)
(0.00339244 -0.120657 3.08751e-20)
(0.00705577 -0.130569 2.19688e-19)
(0.0249533 -0.147893 -2.14156e-20)
(0.0632416 -0.163913 -1.74333e-20)
(0.125429 -0.176261 2.8216e-19)
(0.207416 -0.184057 0)
(0.00454254 -0.118653 0)
(0.00624168 -0.132509 -4.71355e-19)
(0.0239845 -0.155746 -4.29302e-20)
(0.0624775 -0.181398 3.65061e-20)
(0.125786 -0.20662 -1.41493e-21)
(0.209894 -0.227141 0)
(0.0054215 -0.115444 0)
(0.00525451 -0.133743 4.77704e-19)
(0.0222709 -0.162788 -4.33057e-20)
(0.059923 -0.198022 7.25377e-20)
(0.123743 -0.236449 -3.4444e-19)
(0.210077 -0.270522 -1.6439e-19)
(0.00602473 -0.111035 6.19326e-20)
(0.00419564 -0.134034 -3.03657e-20)
(0.0199121 -0.168524 0)
(0.0555847 -0.213099 5.88324e-19)
(0.119158 -0.265154 6.16479e-20)
(0.207652 -0.314085 5.8599e-20)
(0.00644256 -0.105436 1.92519e-18)
(0.00322516 -0.133118 -9.02365e-19)
(0.0170894 -0.172416 6.82091e-19)
(0.0495221 -0.225838 -1.12708e-18)
(0.111879 -0.291951 -6.49167e-20)
(0.202113 -0.357602 0)
(0.00686165 -0.0986514 -3.99504e-18)
(0.00254623 -0.130705 1.02688e-18)
(0.0140557 -0.173883 -7.5238e-19)
(0.0418467 -0.23532 6.17443e-19)
(0.101764 -0.315776 0)
(0.19272 -0.40072 -4.4145e-19)
(0.00754803 -0.0906647 2.04229e-18)
(0.00237916 -0.12649 0)
(0.0111198 -0.172312 0)
(0.0327309 -0.240492 -5.64632e-19)
(0.0887056 -0.335182 -1.97452e-19)
(0.178378 -0.442813 5.67469e-19)
(0.00879712 -0.081434 -2.02725e-18)
(0.00293687 -0.120181 0)
(0.00864092 -0.167117 0)
(0.0224413 -0.24021 6.76781e-19)
(0.0726912 -0.348085 4.2217e-19)
(0.157019 -0.482316 1.19338e-19)
(0.0108353 -0.0709477 2.0503e-18)
(0.00443398 -0.111561 0)
(0.00708299 -0.157831 9.02572e-19)
(0.0115031 -0.233354 0)
(0.0542665 -0.351319 -5.90275e-19)
(0.124597 -0.51683 -4.84556e-19)
(0.0138226 -0.059608 0)
(0.00717208 -0.100561 -1.32302e-18)
(0.00720313 -0.144216 -8.71807e-19)
(0.00106139 -0.219029 -1.00987e-19)
(0.035426 -0.340164 4.97255e-19)
(0.0728136 -0.545814 6.60016e-19)
(0.0180358 -0.0481843 2.17512e-18)
(0.0117669 -0.0868142 1.48081e-18)
(0.0104045 -0.125807 0)
(-0.00679767 -0.196045 0)
(0.0203222 -0.305715 -1.58394e-19)
(-0.0228693 -0.578638 -4.7707e-19)
(0.0246426 -0.0348872 -2.22855e-18)
(0.0204134 -0.0664018 0)
(0.0180432 -0.0973348 1.25644e-18)
(-0.00822652 -0.161973 -7.66299e-19)
(0.0382941 -0.245251 -8.25726e-19)
(-0.208758 -0.696907 4.00366e-19)
(0.297543 0.699804 -6.83756e-19)
(0.633281 0.557831 -7.3069e-20)
(0.744079 0.492323 2.05093e-19)
(0.820895 0.411639 7.11263e-19)
(0.867528 0.346529 -2.58922e-19)
(0.900755 0.29408 3.41527e-19)
(0.926471 0.253543 2.09923e-19)
(0.947544 0.222045 3.66281e-19)
(0.965064 0.196821 0)
(0.979555 0.17581 -1.48752e-19)
(0.991367 0.157615 1.32582e-19)
(1.00081 0.141431 -1.26673e-19)
(1.00816 0.126766 1.19857e-19)
(1.01365 0.113261 0)
(1.01746 0.100632 3.15299e-19)
(1.01975 0.0886477 -1.04354e-19)
(1.0206 0.0771331 -4.61537e-21)
(1.02014 0.0659819 -9.58308e-20)
(1.01849 0.0551493 8.8847e-20)
(1.01589 0.0445823 -3.49896e-19)
(1.01256 0.0342346 4.26486e-19)
(1.00797 0.0246216 0)
(1.00007 0.0175867 -3.20789e-19)
(0.992255 0.0138479 2.94835e-19)
(0.266189 0.554073 3.06408e-19)
(0.554829 0.494917 5.98486e-19)
(0.684698 0.445919 -4.61913e-19)
(0.772096 0.376307 1.84724e-19)
(0.827789 0.317224 -1.4247e-19)
(0.867762 0.269379 -2.57242e-19)
(0.898493 0.232386 -1.04883e-19)
(0.923336 0.2036 -9.88548e-20)
(0.943787 0.18049 0)
(0.960661 0.161185 3.15244e-19)
(0.974494 0.144425 1.41634e-19)
(0.985704 0.129504 -1.31658e-19)
(0.994646 0.115981 -1.21167e-19)
(1.0016 0.103525 3.52456e-19)
(1.00679 0.0918715 -2.19468e-19)
(1.01038 0.0808009 3.14379e-19)
(1.01249 0.0701505 2.01721e-19)
(1.01327 0.0598304 0)
(1.01285 0.0498165 1.87838e-19)
(1.01145 0.0400853 -7.04947e-22)
(1.00931 0.0306128 -2.63236e-19)
(1.00591 0.021799 -4.33163e-19)
(0.999457 0.0150311 -2.02815e-21)
(0.993079 0.0111222 3.02701e-19)
(0.260438 0.452913 1.33804e-19)
(0.505652 0.428767 -1.17507e-19)
(0.638483 0.391549 3.66071e-19)
(0.730892 0.334034 2.551e-20)
(0.792949 0.282771 -4.56115e-19)
(0.838252 0.240752 3.90078e-19)
(0.873164 0.208071 -1.1308e-19)
(0.901254 0.182507 1.03531e-19)
(0.924288 0.161885 0)
(0.9433 0.144585 -1.59451e-19)
(0.958974 0.129517 -2.93214e-19)
(0.971813 0.116085 2.78622e-19)
(0.982228 0.103906 1.27155e-19)
(0.990545 0.0926842 -1.99098e-22)
(0.997009 0.0821756 -1.18021e-19)
(1.00181 0.0721796 -3.28997e-19)
(1.00511 0.0625501 -1.02867e-19)
(1.00704 0.0532161 0)
(1.00776 0.0441735 -9.87622e-20)
(1.0075 0.0354229 0)
(1.00644 0.0269589 0)
(1.00414 0.0190874 1.77125e-19)
(0.999124 0.0128072 -3.42009e-19)
(0.993887 0.00868686 3.11572e-19)
(0.260574 0.364209 1.48258e-20)
(0.47338 0.360452 6.25262e-20)
(0.603364 0.33346 -4.23242e-19)
(0.6974 0.287525 -3.48646e-19)
(0.763509 0.244696 1.37816e-19)
(0.812711 0.20908 -4.23113e-19)
(0.850905 0.181139 1.17497e-19)
(0.881659 0.159126 -3.21893e-19)
(0.906875 0.141263 0)
(0.927738 0.126206 -1.70914e-19)
(0.945036 0.113045 -1.5187e-19)
(0.959325 0.1013 3.93829e-21)
(0.971064 0.0906463 0)
(0.980607 0.080825 -1.25605e-19)
(0.988225 0.0716193 -1.18041e-19)
(0.994131 0.0628498 5.59553e-19)
(0.998497 0.0543909 -3.25398e-19)
(1.00148 0.0461904 2.07352e-19)
(1.00324 0.0382606 -2.03865e-19)
(1.00399 0.0306181 0)
(1.00391 0.0232663 0)
(1.00261 0.0164265 -8.99472e-20)
(0.998969 0.0107899 0)
(0.994807 0.00657985 0)
(0.265233 0.286586 -8.29491e-20)
(0.452004 0.293387 0)
(0.57728 0.274474 1.99611e-19)
(0.671025 0.238848 0)
(0.73944 0.20431 3.2186e-19)
(0.79131 0.175192 1.40543e-19)