/*--------------------------------*- C++ -*----------------------------------*  =========                 |
  \      /  F ield         | OpenFOAM: The Open Source CFD Toolbox
   \    /   O peration     | Website:  https://openfoam.org
    \  /    A nd           | Version:  11
     \/     M anipulation  |
\*---------------------------------------------------------------------------*/
FoamFile
{
    format      ascii;
    class       volScalarField;
    object      U;
}
// * * * * * * * * * * * * * * * * * * * * * * * * * * * * * * * * * * * * * //

dimensions      [0 1 -1 0 0 0 0];

internalField   nonuniform List<scalar> 
2880
( 
0.0724841035665958
0.14245927518601
0.2220899904611315
0.26972001316948163
0.3400780444449875
0.4482504388426043
0.10159051850996627
0.17246293625736894
0.24497610298431577
0.2885818749926029
0.35104084594062857
0.4209683597806923
0.11518678208160925
0.18293992519194888
0.24874831915360546
0.2913372001408013
0.3550059239518513
0.42919768933993446
0.1273674167507611
0.19051947808691452
0.24955286479702538
0.2917175163405375
0.3580809859238787
0.43765113042862264
0.140227563609845
0.19683512988718743
0.24950903637593003
0.29177628172798814
0.359302011791456
0.44128166658040135
0.15254973439614683
0.20183518984202772
0.24820316792058045
0.29139216346839886
0.35881685764086285
0.44054570392338666
0.16376434553004576
0.20535834730368027
0.24691698046439506
0.29062020618206924
0.35694732024301773
0.43669480526486026
0.17280300536294682
0.20775568791046178
0.2458838563181921
0.28965390522059375
0.3547176471493298
0.4315709618466697
0.18029413638985697
0.20936107447097416
0.2446423281011904
0.2884709346311397
0.35210943532142663
0.4261156119346175
0.18615809923485072
0.21056190946307426
0.24341307687236718
0.28761449100314745
0.35031649366092027
0.42224043826146357
0.19030425307442808
0.2116332936609463
0.24394009489077
0.28785073505349473
0.34981714956011317
0.4203609181900595
0.19245855016751037
0.21278439251462822
0.24567040689877853
0.289469785980859
0.35060723914452635
0.4194368665789776
0.19276875825983802
0.21359831910941332
0.24798952944608915
0.2926455290225033
0.3532217767467246
0.42100463864511706
0.19103929837980338
0.21405178773048011
0.25039730026833534
0.2970045274131034
0.35819532555596345
0.425873895452066
0.18716189333599223
0.2140321037299497
0.25270501097897485
0.3014125639398303
0.36375615173292103
0.4317232057031546
0.1815544110907154
0.21333814162297307
0.2550096673819715
0.30521766379402954
0.3689295056215337
0.4378455970717121
0.17439253207415134
0.2122267429091306
0.25717676716949855
0.30796515736662433
0.37353456485165465
0.44380490590366267
0.1652699890208536
0.2100067183497288
0.2582751879751366
0.309913598559972
0.37694094012538903
0.4488926348216084
0.1540462365523303
0.20577735942245534
0.2589039799102818
0.3105910194383728
0.37864699670912083
0.45266476944837736
0.1407142215528528
0.19916083793123124
0.2582206730257983
0.30919770875293273
0.37860698424206823
0.45392745616866287
0.12570557830648432
0.19011159903684025
0.2559227514345996
0.3073363975363262
0.37641117815508013
0.45165925547176955
0.11074456754445657
0.17847122434558094
0.25145370463884614
0.30349677301574757
0.3727962296163417
0.44442433291738004
0.09442552124253518
0.1636673509768038
0.24259334162395566
0.29567042344940153
0.36970816308240734
0.4338050728819214
0.06432329600867485
0.13035521249670548
0.2163153356271616
0.2697478768428556
0.3625842123869413
0.43290791649242555
0.8243387161795358
0.9062609437685176
0.9467861577807298
0.9705726931138023
0.9865062782904452
0.997674510065429
1.0084803993782332
1.0232956008683662
1.0398075454095432
1.0562749232658364
1.071776058856524
1.0854158187163385
1.095437412634423
1.101566525560439
1.1046053783376664
1.1052067186618082
1.1032875273424492
1.099129734031483
1.0934238637744251
1.0859293902622635
1.0766987250088984
1.0652855790961095
1.051194495954961
1.0352232750915797
0.7272101787490968
0.8725620176057922
0.9308536675536834
0.9610293507067086
0.9814033717969962
0.9962212308787616
1.0101537979269886
1.0283339832841045
1.0488150758246322
1.0672157334067518
1.0826464938051137
1.094615344694049
1.1031886604675927
1.10802660925147
1.1089223287104972
1.1075474783379182
1.1043778729590032
1.0994908022886039
1.092580418862879
1.084545842785548
1.0747793553120109
1.0630116735823387
1.0484177698189832
1.0323898317796119
0.6613678293814904
0.824475858597574
0.8988704296483989
0.9419518093856324
0.969098566556383
0.9903488948047009
1.0100876388890927
1.0336908715365158
1.0565159855802382
1.0765171375794025
1.0923167166826884
1.102568009831408
1.108603409227181
1.1107429090473557
1.1106815905007614
1.1081273276176236
1.1037597752782002
1.097791891781791
1.0903729392586294
1.0816083295624381
1.0715536529022356
1.0593530067300772
1.0448482528387748
1.0284904115435733
0.6207385176238818
0.773966847263797
0.8596616198753148
0.9128524985471542
0.9490137715340228
0.9783353572892657
1.008508692210149
1.03687857702926
1.0617063587759428
1.0825036732291324
1.0975525303378282
1.1064057118886836
1.1103717265588822
1.1111606462620545
1.109533553992245
1.105948349953474
1.100562120918991
1.0941533189023123
1.0863207686589622
1.0774124922606625
1.0666941743991916
1.0549414590126631
1.0399519237756614
1.0240700774761986
0.5927428461607483
0.7304813027121047
0.8203624878182202
0.8811154224522977
0.9251461788556306
0.9634598481049799
1.001397962598073
1.0356019780727492
1.063827923246281
1.0842462239554143
1.0977253878900008
1.1053935292113268
1.1081267476955425
1.1080534797669503
1.1056980327204182
1.1015962854169679
1.0961296386374093
1.0894412496783077
1.0815177385076937
1.0724424525833316
1.0622896653051535
1.050556833583515
1.0356098624952397
1.0197126394299767
0.5706309041922447
0.6949632728599316
0.7843553696271413
0.8508615991921359
0.902228101023361
0.949253195922784
0.9939510268264485
1.0323182329866938
1.0617441109944241
1.0820281814068435
1.0937272215008111
1.0997430876530696
1.1021429058351675
1.1015043816495493
1.0989687594989368
1.094842581780375
1.089425984476622
1.0832663805939335
1.0753381500234074
1.066394550962485
1.0565161673500012
1.0449220343818144
1.0304387501778705
1.0150385015144145
0.5517625949257209
0.6657759459935865
0.7542546977770263
0.8242465564172934
0.8834586905719961
0.9390806152356692
0.9880639064255377
1.0280352134020612
1.057510880886758
1.0759759788581287
1.0868728583254477
1.092166291641103
1.0942260158846977
1.0936429745188638
1.0914126699516706
1.0874101822427487
1.082568035540725
1.0764363411185154
1.069060590293057
1.0607744205344902
1.0514951026049018
1.040236415515273
1.0260851113392866
1.0121051536043013
0.535603472434665
0.6418596837769441
0.7298792494724626
0.8035559723837206
0.869539916766441
0.9316151192692637
0.9841052037461937
1.0244823491211625
1.0518581474217643
1.0684192295257715
1.0786302825164582
1.0833590176999257
1.0854038398214763
1.0850236024316524
1.0831863462694218
1.0796167332626825
1.0754499309481493
1.070033347432307
1.063314435131747
1.055269506618631
1.046671495032482
1.036190075303566
1.023190340006449
1.0094995889796001
0.5226082988828962
0.6241271282051897
0.712606267617745
0.7885810341230427
0.8619404870080644
0.928472018985238
0.9822040383927256
1.0205176228705368
1.0450929576729902
1.0604928731112013
1.0692880285109012
1.073833124621029
1.0760591665836587
1.0759919179117565
1.0745939488209526
1.0717508295779867
1.0681270679124053
1.062824689814692
1.057148259406527
1.0503926350094994
1.0425572865032333
1.0333169519832317
1.0209713713282713
1.0086972618375871
0.5140032643237791
0.6121663444574997
0.701374192231137
0.7823444569951391
0.8613227147519632
0.9292126490396488
0.9811630933591222
1.0158318437161165
1.0378631943855807
1.0514819012343217
1.0599821342603235
1.0643811512121892
1.0667662058486447
1.0673328499434416
1.0659717969734916
1.0638072003192227
1.0609090526504406
1.057000174688332
1.0522176900320837
1.04643073716281
1.0399759200349619
1.031909985652291
1.02133515843239
1.0102639130178923
0.5085323655561487
0.6068427580299448
0.6969973398282336
0.7834985547221226
0.8657916395685393
0.9332513875944519
0.9809104860473947
1.0115770602909069
1.0312573702938252
1.0437154377312188
1.0513866573585113
1.0560764653584376
1.0584789362852491
1.0592715482410944
1.0586197697458777
1.0572560493076733
1.0548328464358205
1.0519305421515848
1.048040374186835
1.0440336698451746
1.0389370678330234
1.0324509390045726
1.023464597640026
1.0135579001441661
0.5065106152419588
0.6063507986314463
0.6987487685256877
0.792058033206339
0.8758279744483998
0.9393935355846409
0.9817397219179801
1.0085613998490233
1.0257862435778404
1.0369587896583992
1.0439179827985912
1.04869122569157
1.0514355026596598
1.0526084168861665
1.0525510048249496
1.051316586070879
1.0497713708001568
1.0480356176102157
1.0461290930521112
1.0436139082191613
1.0400953035965654
1.0352281781377748
1.0272781029908222
1.0181717974647544
0.5084103366456121
0.6095541803431102
0.7084105373071472
0.8071487654191424
0.8894036385243974
0.9466049429906082
0.9835038881791973
1.006284572399413
1.021402806709009
1.0317663564955921
1.0387682855856657
1.043267718127928
1.0464327175171446
1.0473805126689024
1.047395573239977
1.0473525779552457
1.0475083942075232
1.047243754302112
1.0468017294371714
1.0457282139922686
1.0432108663502686
1.0391722073411065
1.032094070969866
1.023665906425302
0.513438890640194
0.6166776395627405
0.7236599738495466
0.8261335506878468
0.903393809992873
0.9536636532070568
0.9849052310766929
1.0050370901343575
1.0186491671949267
1.028650495060657
1.0349688885460149
1.03867142096402
1.0417911655364152
1.044229128338353
1.045906421777839
1.047248257029601
1.0475890441235136
1.0480548250657278
1.0489790332078568
1.0490032918349737
1.0477138876313379
1.0443084278006045
1.0375529386959992
1.0292875247310256
0.5216841023744002
0.6289805063127614
0.7449367357809193
0.8474670903879626
0.9169061442798513
0.9599418434738197
0.9866502275343009
1.005124636819232
1.0174259528478713
1.0255370020810568
1.0321913347354734
1.0369206911712625
1.0405375127043954
1.042568263677602
1.044385841487279
1.0473031736092961
1.0497804168753995
1.0522008138002354
1.0534314768294248
1.0537252121802536
1.0523819939026258
1.0491420756990835
1.042719129639651
1.0342065890109853
0.5322451922220235
0.6489813716781545
0.7724403012720711
0.8687602905918109
0.9296285396524042
0.966150426107866
0.989650551387232
1.0049583567891511
1.0165890725612665
1.0250755314465863
1.0306594563303442
1.0349136093967004
1.0386457561274596
1.0424729053124606
1.0467292292392432
1.0503076736674222
1.0530047978845993
1.0557842739488725
1.05810051790036
1.058847596640195
1.0577666604787221
1.0543486139316183
1.047020430300148
1.0382027800397524
0.5443309864900827
0.6752016272678912
0.803600228773369
0.8906525524940205
0.9415471119618792
0.9717996591926534
0.992504080495841
1.0068924861601156
1.0167199077703097
1.023826168785357
1.029595197640316
1.0348697998169636
1.0396747942217612
1.0447218742256963
1.0496166475074615
1.0546460146652514
1.0587420564060865
1.061356990935558
1.063118046573158
1.06389922589656
1.0621527615597828
1.0581221646069043
1.0505075836108273
1.0407531313016862
0.5577718082232809
0.7078177230124684
0.8361904466270212
0.9102682482395988
0.9516615445651816
0.9780559059849991
0.9953925217153832
1.0077211380799305
1.0171371666205842
1.0242972500349388
1.0305638546547073
1.0366264604995425
1.042966328714668
1.0488027878639745
1.0542605893813861
1.0591334225392364
1.0634526303510927
1.066783182204183
1.068549602873957
1.068269227302623
1.0662396317826952
1.0610383538778267
1.0522035458296064
1.0415598093335126
0.5751131039610504
0.7478334544409344
0.8656573847202955
0.9267239676162409
0.9609029530412718
0.9826305590718516
0.9977163041284514
1.0089513360855193
1.0175503726146395
1.0251140922233077
1.0314392810510282
1.038799705143116
1.0458396281890974
1.0533505593943293
1.059810466963874
1.0652103073846613
1.068609112077572
1.071970885001186
1.0733055397581175
1.0725941490733908
1.0688963778579679
1.0628709560362195
1.0530516508656647
1.041016490788395
0.5981076391858003
0.7911767464545502
0.8915819153969746
0.9407172971995963
0.9685250321299983
0.9866352740278889
0.9994701440483797
1.0097116252342289
1.017806854737834
1.0253786217203817
1.0343533473331408
1.043330887059606
1.051657340502688
1.0591263235709647
1.0652410920021065
1.0708645616353014
1.0744782349914614
1.0768048182921952
1.077158748413986
1.0752086679599517
1.0706501457946669
1.063379841647655
1.0531393654918493
1.0402979147767673
0.6316572080108348
0.8330895217107595
0.9134592657760224
0.9520354661319123
0.9743519222918663
0.9898112652942215
1.001142101382252
1.010270977255152
1.019362359794948
1.029106428357943
1.038640043540086
1.0482623652346201
1.0574410062750363
1.0653555218703878
1.0716761416848402
1.0760955472578029
1.0796084491045566
1.0810436142243305
1.0803428153295809
1.0770904075679024
1.0714003412297615
1.06306992487371
1.0519717433407236
1.0382877405418645
0.6832286980856289
0.8680300706457809
0.9301172972221182
0.9603046823646538
0.9786626514876646
0.991597887926255
1.002025578373533
1.0115605337913218
1.0211062999046407
1.0315027688547023
1.0435715581079787
1.0546613618947696
1.0637216806573715
1.071383591945645
1.0776322552885853
1.0817247774495102
1.0843360203698056
1.0844730664704996
1.0825083072272101
1.0780327953922975
1.0716988881885536
1.0623060901084436
1.0509698390365025
1.036967604217101
0.7532404185010968
0.8939652292649032
0.9404556854776603
0.9651205551720683
0.9809346897376338
0.9927115535225082
1.002635576161188
1.0122758082002128
1.0239698410094322
1.0368329120739728
1.0493767184482878
1.0611663164281346
1.071280450863438
1.0786146757688617
1.0834197243146018
1.086842514792853
1.088128578777165
1.086810953872989
1.083912721093064
1.0783913392622926
1.0712981693026673
1.0616093878190347
1.0492177005400818
1.0348197739590295
0.8302930208652223
0.907894962430505
0.94348154567773
0.9663301561808213
0.9811852110812147
0.9928522695246788
1.002460352496743
1.0147208279300024
1.0284371073145664
1.0427410205382608
1.0561621643859143
1.0678107173762195
1.0777481140863348
1.0846627394438777
1.0889705263075267
1.0913642327359203
1.0911644777116012
1.0887424316408596
1.0846423099698177
1.0783952134279675
1.070727141526769
1.0606449627502479
1.047650873527027
1.0333938588625908
0.07189295997772722
0.14396523158383734
0.22548149857196267
0.27534923577476
0.34477164886310274
0.4525555069511636
0.10255575113279398
0.17532885297938156
0.24897474316878127
0.29313480349595167
0.35421599466865367
0.42268369005218837
0.11690698331503552
0.18632088294997357
0.25301531543273803
0.29558024319229603
0.35831057794286214
0.4302240954745909
0.12945110453853828
0.1943937995458065
0.25376315997003923
0.29578208397233746
0.36003588091571753
0.43774608079190613
0.1425402835720585
0.20082684191276706
0.2531930175826269
0.2953209015618503
0.3602745151971014
0.43979500717611014
0.15518074804462595
0.20562924798126556
0.25251273060881196
0.29454533688405815
0.3594052529714219
0.4380822072462493
0.166888765548639
0.20894532352520115
0.2510651667217008
0.29337404840096354
0.3572655896057487
0.4337647987923207
0.17649149027480665
0.211766657134479
0.24931475964917876
0.2918011291803587
0.3544092374991831
0.4279297861542585
0.18426155530340893
0.21382693142290732
0.24858977592500744
0.29044160908362643
0.35147505512982224
0.4218834509714131
0.19035155258903938
0.21532925942529896
0.24850712363196312
0.28998203944498013
0.34943923152496115
0.4176446874579415
0.1946686192627697
0.21651684474441998
0.24900000755446264
0.29018646084493077
0.348917278388877
0.4161229548444548
0.1968138052055841
0.2174378902062629
0.2502913624221712
0.29149320118986605
0.35027330917414906
0.41646313804373014
0.19693222111997785
0.21809733976293913
0.2522413357929816
0.29480737547868463
0.353702329532056
0.4186469059377641
0.19501209866765876
0.2184252232361829
0.254646126549167
0.2991759993148949
0.3585837351590891
0.42329120851439256
0.19100202215068127
0.218231895533188
0.25707101542816396
0.3036558516538918
0.36413847604237115
0.429207983939372
0.1851766410288935
0.21740528468648745
0.25909806425258014
0.3078086735648554
0.3695514337118034
0.4355884612977681
0.1778008599862082
0.21582248797096354
0.26043341499889
0.31106465764877395
0.37429248756528416
0.4417510494711628
0.16840089635940894
0.21304222037540407
0.2618474402788799
0.3129701851849431
0.3780795579346682
0.44721012987165243
0.15693244660732147
0.2087764831982421
0.26201815448975146
0.3132779450320806
0.38032065030672163
0.4514131846393889
0.14338944162992753
0.202258981136873
0.26112747563921773
0.3126115440445854
0.380499866711315
0.45316660034854145
0.12755113432437018
0.19271598870169038
0.25861911063646037
0.31011913137283625
0.3787933166167449
0.45181585559149573
0.1120482834388054
0.18061708664140594
0.25338132802070196
0.3059819680167246
0.3753200641344006
0.4459913359456509
0.09516667664970392
0.16542930808832332
0.2442265720587537
0.29775791056260625
0.3714214592006633
0.4372346434239101
0.06365363168659545
0.131108287022009
0.216520131702106
0.2709891805716873
0.3623958658027343
0.43750618777962225
0.8161414383395685
0.8991339673271379
0.9382371908543594
0.9628751749948719
0.9783287871341663
0.9910588538441415
1.0034186493300787
1.016804975875284
1.0330333545870576
1.0494617768124905
1.06383530403044
1.0755056902757008
1.0839407525404616
1.090238823855475
1.0937608325476285
1.0946491591214769
1.0932781051888574
1.0897072567443582
1.0848800674247352
1.0779618292270043
1.069601464980272
1.0593152020411252
1.0461769689078728
1.0315225345778634
0.7188102193428073
0.8639167456034568
0.9213771891193653
0.9527667746704263
0.9722209456894574
0.9872990223661068
1.002460924510376
1.020808045067253
1.0389031041754309
1.0558540878598959
1.0711585034351139
1.0819441061792956
1.0902280007708085
1.0950130259196327
1.0968761490854593
1.0965794963119342
1.094192452287243
1.089763001782836
1.0838519009142116
1.0768813900056737
1.0680089130705304
1.0572155531752325
1.0442492769327556
1.0295030369851272
0.6549089664593142
0.815704217346035
0.8904739202145202
0.9326782728817131
0.9597021116956451
0.9794646524594953
1.0009363796262472
1.0230600350801922
1.0438740402596884
1.062081977919945
1.0767129887135685
1.0871659604648254
1.0940187949092093
1.0975232877656675
1.0983167789996002
1.0969544496282044
1.0935723795910002
1.0887066996206585
1.082441706423529
1.0752660191689274
1.0662189382637413
1.0552369515384195
1.0420542997634445
1.0275906248534525
0.6147447836401448
0.7671283353370196
0.8519076487978208
0.9043963907499075
0.939681872695933
0.9687353719710986
0.9958273562054473
1.0225158627489697
1.0464606236462706
1.0661013265687957
1.080310310175791
1.0899476640094408
1.0955089450323123
1.0977436384424748
1.09763212788723
1.0952305018071207
1.0914125768488054
1.0864212800514907
1.0801234614134074
1.072345355364243
1.0628071240813421
1.0523967435520565
1.0389111532090682
1.0244829248080394
0.586732937929352
0.7245351935852413
0.8137412274515071
0.873548185935887
0.9170936135951324
0.9534780796355933
0.9886670792725778
1.0197752268530524
1.045864581638407
1.0660265142582817
1.0802213037732955
1.0887506320783247
1.0931694839997426
1.0945981074999984
1.0937494136076733
1.091133315236229
1.087035952296167
1.0818822529404581
1.0756163831503298
1.067889274904758
1.0590392709739187
1.0484715642340734
1.0350486339517901
1.021244152732853
0.564230705617182
0.6880663209623625
0.7788587510133582
0.8446165656248921
0.8946197554355129
0.939390061612907
0.9800992210954953
1.0152367726531548
1.0430919398156897
1.0634310127293902
1.0764661821459824
1.0840573638737563
1.0876785164343723
1.0888194679622214
1.0877557021686373
1.0852421126764293
1.0814951866381972
1.0767298017232743
1.070528086880298
1.0630911641511815
1.054582048735461
1.044783926070713
1.03154684912539
1.0181077584907696
0.5452502602553226
0.6589786593972686
0.7486459412285773
0.8189382140159353
0.8758946611222774
0.9274131730300831
0.9732280461496602
1.0109946876967457
1.0391808390854063
1.0581130367946359
1.070015506146925
1.0769920578237178
1.0805345688389623
1.0812879851380004
1.0805030594805451
1.0784280135853066
1.074974967293291
1.0701639737372597
1.0644131192787818
1.057783884412504
1.0498036410780711
1.0399403537207803
1.0274959517356679
1.0147813794328142
0.5288803567611304
0.63534408427831
0.7243358905666791
0.7979557031595358
0.8612716433470056
0.9198545805837407
0.968919325492194
1.0076414194151784
1.0348428198378778
1.052097579821122
1.0624740084520223
1.0689757445071555
1.0720075122444959
1.0732412783746055
1.0725981974869199
1.07081461217808
1.0677512260787103
1.0639406410871466
1.0587585520909182
1.0526564892062311
1.0451928559794565
1.036488324964227
1.0244274803048001
1.011991257143463
0.5151974693635112
0.6163669435636427
0.7060285588254379
0.7824732920560715
0.8529214597365422
0.9164684276492208
0.9675092151001722
1.005195266874891
1.029751331786018
1.0453824508024583
1.0550474489769561
1.0609714534512757
1.0639848473749143
1.0652853692435127
1.065453758842073
1.0642098901038368
1.0620880285923024
1.0584739889195784
1.0539578617194287
1.0480837723329375
1.0415411776396013
1.0329863692385195
1.021884980071422
1.0102654325353468
0.50627232643371
0.6043588710112346
0.6940356185941406
0.7737630968778513
0.8510528937860852
0.9179595816342091
0.9687851686229012
1.003504676397408
1.0254198846349043
1.0395729227006414
1.0487496654962698
1.0543775549982566
1.0576189749715599
1.0590138557058522
1.0596113540627545
1.0586935171679281
1.0565773789818333
1.053545029336734
1.049809040781101
1.0448068856849513
1.0385193158281982
1.0312627223512272
1.0208196921979287
1.0099290794716544
0.5021028904450916
0.5992686087496578
0.6888671918516974
0.7744007747633833
0.8559684759045469
0.9230986185225014
0.9706872665463805
1.0019958575946104
1.0218015423482505
1.0348067834257058
1.0431849001172337
1.0487464938278768
1.0524347069076851
1.054298128552447
1.0545390120857285
1.0544548464013257
1.0529996381069542
1.05061820949144
1.0474747012838352
1.0431497761813766
1.03790043024119
1.0314559654576783
1.021992926322992
1.011618590234172
0.5008526031937047
0.5986984603484304
0.6911136941302635
0.7836693839944359
0.8669831054069067
0.9307063045504061
0.9736796975326698
1.0012670001445358
1.0193603873185595
1.0314163583524598
1.0395800548203984
1.0451983607340998
1.0488980415492128
1.0510476598472398
1.0524320721848863
1.052030291190454
1.0508590899154258
1.0490873400970564
1.0465339734124306
1.0434094636411828
1.0389975491808052
1.0333169623198017
1.024523006649553
1.0145372279134737
0.5017878057263692
0.6014739577219231
0.6992146839208508
0.7984358441338485
0.8806148461846741
0.9395228093700573
0.9773116322747317
1.0014409481500348
1.0180112314612053
1.0301190333715655
1.0379597402273495
1.0436063766172818
1.047365327078185
1.0499492660871694
1.0514115621255673
1.0518061248144324
1.0507444301941085
1.0491719516697453
1.047748517187322
1.0458354318366825
1.0421366429276284
1.0369797148289626
1.028565000852383
1.0190458459917453
0.5075808179483441
0.6080814687945448
0.7137190649910502
0.8166347436959536
0.8952715580760188
0.9472132467425255
0.9803802566150414
1.0027320131114985
1.0182817529317387
1.0291361873311782
1.0372694780252962
1.0432411382291316
1.047822904372389
1.0505713677045294
1.0518069523121651
1.0522735674145662
1.0527184378160177
1.0530651339284038
1.0520143347339463
1.0502561730670013
1.0470634652233552
1.0420263785602806
1.03348970833891
1.0235804372801298
0.5161369587231761
0.6202823304043455
0.7340326237889859
0.8367008993901994
0.9085424646644912
0.9535988477203416
0.9832775035955458
1.0034440609601185
1.0181913300643959
1.0295326314943465
1.038213058468715
1.0440771568445735
1.0484764972437746
1.0519749214411174
1.054335806984809
1.0562484837028108
1.057565110826329
1.057882369094463
1.057587715965163
1.0561722081219438
1.0531311786356956
1.0478623630598476
1.0392321746925088
1.0289663068108383
0.5262852446384667
0.6390652951985454
0.7606005447813106
0.858170051362213
0.9195802192573043
0.9592456266044435
0.9852053449964461
1.0043860077845246
1.0188501412463704
1.0298944075330194
1.0384219355478972
1.0458276424934119
1.0512856094876954
1.0550306979539674
1.058213836238214
1.0607376451060493
1.0632139409788128
1.0646185660149716
1.0642756435408527
1.0627597440874128
1.0592707332390676
1.053819493722065
1.0448731783026273
1.0340098872854306
0.5376671676119333
0.6649535018213967
0.7921878355865786
0.878230655015314
0.9303259822270273
0.9635601603875973
0.9873640214150488
1.0054691933694548
1.0194472394436214
1.0312778312106572
1.0404772785695307
1.047547509009508
1.0535516058560408
1.0588031319475701
1.0639499269594088
1.0672061485833169
1.0696146880353865
1.071103447705874
1.071216047781235
1.0693990572640246
1.0658400198533842
1.0594668028320127
1.0498456295017171
1.0385792548720858
0.5512442721844389
0.6980383571294209
0.8239323631989591
0.8974008443276689
0.9407994481950178
0.968800083358749
0.9893785374817657
1.0070124122596569
1.0208331602967424
1.0321396165855412
1.0422248732924073
1.050233173863147
1.0575630921613277
1.063905010431097
1.0694764037890518
1.073858258461417
1.0771534759979464
1.0782958101482703
1.0778814513061914
1.0760975740810164
1.071304391185862
1.0646862504508536
1.054364735536908
1.042211770556118
0.5688540614544687
0.7380472541856142
0.8537380399436508
0.9149935340423037
0.9500079137950792
0.9744532725290684
0.992611210003937
1.0083887631690125
1.0222517793024684
1.0340985802466929
1.0444293338247554
1.053702779201141
1.0626123799236598
1.0700655385663085
1.0756152507099936
1.0795645777592586
1.0835237784341196
1.0845966767179722
1.0840673383755994
1.0814484372558628
1.0763758623166415
1.0688538765508533
1.0576684170954094
1.0444811309663264
0.5924021120063474
0.7822315750119231
0.8810021843867138
0.9298901336616135
0.959219752604559
0.9801226708926725
0.9972727864460857
1.0119144710785142
1.0245903911534149
1.0368611275553727
1.0478353273901002
1.0582821659565478
1.0671365905766637
1.0756572701426932
1.081744584357288
1.0863155521079404
1.0888237468782165
1.0900396812953186
1.088732644255037
1.0856919838834307
1.0798145183472967
1.0714371585504239
1.0597861059749563
1.0462004898497055
0.6269190027061603
0.8255748911765525
0.90442710355163
0.9426371575925473
0.9677785457861557
0.9864305440775772
1.0022704876262598
1.0162828666721564
1.0286608297727609
1.0393520768454676
1.0520614610454295
1.0633414200666889
1.0730662366534889
1.0804896691767465
1.0867569787572355
1.0915424155950701
1.0938805569113328
1.0940674713897043
1.0923334175684272
1.0880776680503392
1.0816533653684777
1.0726893529007853
1.0606801582406271
1.0461269020047075
0.6800440334984311
0.8628382309150608
0.9229137167172655
0.9541580313636635
0.9755070010627219
0.9928752079927406
1.0076089152261312
1.0211695566251562
1.033955794208684
1.0461069269145322
1.057426637154095
1.0682880330764273
1.0785619761848737
1.0864304635452309
1.0919581939328271
1.0959203931301658
1.0973155937049304
1.0967984056993394
1.0939900342462507
1.089175060190691
1.0821077411042999
1.072632221448422
1.059750190376349
1.0452625424701336
0.752005046875755
0.8904835056799898
0.9357249694111669
0.9628113391016783
0.9823320243104671
0.9991606534569335
1.0138954093921182
1.0266522776524736
1.0391639750675656
1.0523906906646516
1.0647487641084454
1.0748394527274474
1.0835675992536884
1.0912081653630705
1.0964437731370662
1.099038084772622
1.0996043472549684
1.0983009380862239
1.094555920687414
1.0889497110304878
1.081254912327229
1.0712597846858352
1.0583246838208753
1.0432641927006292
0.8304104413564878
0.905346766146167
0.942664278589855
0.968470917818612
0.9886319966804666
1.0045003099713332
1.0194218259786592
1.032305154412419
1.0459895374102663
1.0594396227172271
1.0719663311088483
1.0823908700816103
1.0897895406656322
1.0954638808846002
1.0993908576215057
1.101109055480243
1.100729492292113
1.098100864877919
1.0937835109212757
1.0874061502465928
1.07925668808072
1.0689063939477899
1.0556135792872243
1.0397806037428075
0.07608172190565857
0.15448737737893845
0.23891412620407276
0.2872221305767765
0.3561406004196534
0.45487494712994275
0.1079761903050981
0.18653934238939776
0.2610215075596818
0.3043161252941338
0.3641699528636057
0.42761699245030915
0.12376147401489827
0.19712825482992755
0.2635402172848241
0.30504902408652684
0.3653403774909355
0.4342984630483278
0.13765938162793245
0.2044005218186438
0.2631962595283236
0.30324419906039574
0.3661759702311352
0.44149086600195603
0.15170529771324548
0.2104047758759759
0.2617791615944555
0.30161805226956323
0.3655912734470056
0.4441645942460312
0.16505467407301763
0.21507219083544643
0.2593334141439871
0.2995454766115109
0.36353435111886073
0.44237613876403886
0.1769720503840773
0.21808147035139022
0.25713849006004413
0.29729382149766476
0.3603066455052686
0.4375570424532206
0.18686629483871708
0.21999431632517033
0.25516265296522056
0.29515534729783005
0.3565781324179161
0.4313029154792411
0.1950590094613854
0.22123581726728647
0.2530891042101595
0.2929054332392365
0.35285724173353344
0.4244486758683241
0.2015092307739249
0.22229105559010684
0.25126815807061675
0.29110971972335953
0.34954659869441573
0.41928502031101694
0.2060474840298292
0.2231767407975762
0.2515149444383096
0.2906064328806632
0.34830287825638095
0.4175742347361125
0.20840872992729603
0.22411799829321577
0.25278584696758055
0.2918569520122596
0.3488660424082502
0.41756999983019943
0.2087515108725708
0.22483644437196657
0.25485244542862734
0.29512107568812557
0.3523506646653929
0.4209013058956013
0.2067634480112326
0.22518397737129647
0.2572521912868888
0.29973507805547495
0.3584883371488458
0.4270459677961251
0.2024626754100225
0.2250889124503606
0.25991597698290436
0.30464896314706746
0.3648661896634148
0.43440396718387414
0.19619678901277846
0.22460433423677273
0.26277110902528084
0.30920749650367013
0.3712404643348803
0.44200630056356793
0.18814956219132503
0.2235394258580305
0.265444575736391
0.31296430358500643
0.37685195285324385
0.4491921114416683
0.1781578745979003
0.2214645804210341
0.26724320327603746
0.3160767832697822
0.38133202769181246