/*--------------------------------*- C++ -*----------------------------------*\
  =========                 |
  \\      /  F ield         | OpenFOAM: The Open Source CFD Toolbox
   \\    /   O peration     | Website:  https://openfoam.org
    \\  /    A nd           | Version:  11
     \\/     M anipulation  |
\*---------------------------------------------------------------------------*/
FoamFile
{
    format      ascii;
    class       surfaceScalarField;
    location    "0.06";
    object      meshPhi;
}
// * * * * * * * * * * * * * * * * * * * * * * * * * * * * * * * * * * * * * //

dimensions      [0 3 -1 0 0 0 0];

internalField   nonuniform List<scalar> 
5640
(
1.36913e-16
9.81747e-07
2.4203e-16
1.37445e-06
3.76941e-16
1.76715e-06
-1.3394e-15
2.15984e-06
-3.68159e-15
2.55254e-06
2.94524e-06
5.95121e-15
1.81496e-18
9.81747e-07
-3.88837e-16
1.37445e-06
-2.60419e-15
1.76715e-06
1.94355e-15
2.15984e-06
8.06615e-15
2.55254e-06
2.94524e-06
-9.02995e-15
-1.165e-16
9.81747e-07
1.8636e-16
1.37445e-06
-1.56243e-15
1.76715e-06
-4.21266e-15
2.15984e-06
-7.49846e-15
2.55254e-06
2.94524e-06
7.72212e-16
8.69271e-17
9.81747e-07
-1.01973e-16
1.37445e-06
2.6931e-15
1.76715e-06
7.44275e-15
2.15984e-06
3.25973e-15
2.55254e-06
2.94524e-06
-2.79806e-15
-4.83954e-17
9.81747e-07
3.94825e-17
1.37445e-06
1.94257e-16
1.76715e-06
-1.80614e-15
2.15984e-06
-4.20863e-15
2.55254e-06
2.94524e-06
5.01317e-15
-1.80122e-16
9.81747e-07
4.255e-18
1.37445e-06
-1.84786e-15
1.76715e-06
-3.88627e-15
2.15984e-06
3.15701e-15
2.55254e-06
2.94524e-06
4.9792e-16
2.53974e-16
9.81747e-07
2.55392e-16
1.37445e-06
2.06596e-15
1.76715e-06
4.504e-15
2.15984e-06
-2.31005e-15
2.55254e-06
2.94524e-06
5.40623e-16
2.1645e-17
9.81747e-07
-3.21724e-16
1.37445e-06
-1.14893e-15
1.76715e-06
-5.28576e-15
2.15984e-06
-3.76855e-16
2.55254e-06
2.94524e-06
-5.63993e-15
-1.43439e-16
9.81747e-07
1.6637e-16
1.37445e-06
4.19111e-15
1.76715e-06
6.34929e-15
2.15984e-06
-8.05751e-16
2.55254e-06
2.94524e-06
8.39043e-16
-6.88324e-17
9.81747e-07
-9.20853e-17
1.37445e-06
-2.76947e-15
1.76715e-06
-3.68934e-16
2.15984e-06
-1.45096e-15
2.55254e-06
2.94524e-06
-1.76875e-16
1.66312e-16
9.81747e-07
-8.87592e-17
1.37445e-06
5.69587e-16
1.76715e-06
-2.10362e-15
2.15984e-06
9.65989e-15
2.55254e-06
2.94524e-06
5.28998e-15
-1.77818e-16
9.81747e-07
-2.05299e-17
1.37445e-06
-3.45472e-16
1.76715e-06
-4.17278e-15
2.15984e-06
-2.62249e-15
2.55254e-06
2.94524e-06
5.36923e-15
1.77767e-16
9.81747e-07
2.04986e-17
1.37445e-06
3.45418e-16
1.76715e-06
4.17255e-15
2.15984e-06
2.62235e-15
2.55254e-06
2.94524e-06
-5.3695e-15
-1.66375e-16
9.81747e-07
8.86535e-17
1.37445e-06
-5.69792e-16
1.76715e-06
2.10343e-15
2.15984e-06
-9.66007e-15
2.55254e-06
2.94524e-06
-5.29025e-15
6.87717e-17
9.81747e-07
9.2004e-17
1.37445e-06
2.76928e-15
1.76715e-06
3.68708e-16
2.15984e-06
1.45083e-15
2.55254e-06
2.94524e-06
1.76394e-16
1.43386e-16
9.81747e-07
-1.66424e-16
1.37445e-06
-4.19121e-15
1.76715e-06
-6.34949e-15
2.15984e-06
8.05467e-16
2.55254e-06
2.94524e-06
-8.39367e-16
-2.16682e-17
9.81747e-07
3.21652e-16
1.37445e-06
1.14889e-15
1.76715e-06
5.28559e-15
2.15984e-06
3.76478e-16
2.55254e-06
2.94524e-06
5.63963e-15
-2.53995e-16
9.81747e-07
-2.55444e-16
1.37445e-06
-2.06605e-15
1.76715e-06
-4.50416e-15
2.15984e-06
2.30981e-15
2.55254e-06
2.94524e-06
-5.40782e-16
1.80085e-16
9.81747e-07
-4.34447e-18
1.37445e-06
1.84774e-15
1.76715e-06
3.8861e-15
2.15984e-06
-3.15725e-15
2.55254e-06
2.94524e-06
-4.98328e-16
4.83409e-17
9.81747e-07
-3.95817e-17
1.37445e-06
-1.94415e-16
1.76715e-06
1.80597e-15
2.15984e-06
4.20861e-15
2.55254e-06
2.94524e-06
-5.01354e-15
-8.69791e-17
9.81747e-07
1.01898e-16
1.37445e-06
-2.6933e-15
1.76715e-06
-7.44287e-15
2.15984e-06
-3.25988e-15
2.55254e-06
2.94524e-06
2.79789e-15
1.16438e-16
9.81747e-07
-1.86429e-16
1.37445e-06
1.56227e-15
1.76715e-06
4.21242e-15
2.15984e-06
7.49837e-15
2.55254e-06
2.94524e-06
-7.72525e-16
-1.8721e-18
9.81747e-07
3.88694e-16
1.37445e-06
2.60407e-15
1.76715e-06
-1.94376e-15
2.15984e-06
-8.0663e-15
2.55254e-06
2.94524e-06
9.02957e-15
-1.3698e-16
-2.42145e-16
-3.77077e-16
1.33918e-15
3.68164e-15
-5.95126e-15
-1.13363e-14
4.53785e-06
-4.53785e-06
-4.8132e-16
5.23599e-06
-5.23599e-06
-5.35756e-15
5.93412e-06
-5.93412e-06
-1.13039e-14
6.63225e-06
-6.63225e-06
4.86878e-15
7.33038e-06
-7.33038e-06
-1.1099e-15
8.02851e-06
-8.02851e-06
-8.15942e-15
8.72664e-06
-8.72664e-06
1.30429e-14
9.42478e-06
-9.42478e-06
5.94888e-15
1.01229e-05
-1.01229e-05
-1.99572e-15
1.0821e-05
-1.0821e-05
2.43865e-14
1.15192e-05
-1.15192e-05
1.61877e-14
1.22173e-05
-1.22173e-05
-3.27858e-14
1.29154e-05
-1.29154e-05
-3.05382e-15
1.36136e-05
-1.36136e-05
-1.44442e-14
1.43117e-05
-1.43117e-05
-2.69004e-14
1.50098e-05
-1.50098e-05
7.739e-15
1.5708e-05
-1.5708e-05
-4.43961e-15
1.64061e-05
-1.64061e-05
-1.79997e-14
1.71042e-05
-1.71042e-05
2.18177e-14
1.78024e-05
-1.78024e-05
8.20938e-15
1.85005e-05
-1.85005e-05
-6.08694e-15
1.91986e-05
-1.91986e-05
3.89164e-14
1.98967e-05
-1.98967e-05
2.05949e-05
-2.05949e-05
9.39888e-15
4.53785e-06
5.19786e-16
5.23599e-06
7.52789e-15
5.93412e-06
-4.4125e-15
6.63225e-06
3.78304e-15
7.33038e-06
1.33845e-14
8.02851e-06
-2.11098e-15
8.72664e-06
8.52746e-15
9.42478e-06
-1.00282e-14
1.01229e-05
1.86458e-15
1.0821e-05
-2.02034e-14
1.15192e-05
-7.01266e-15
1.22173e-05
7.51024e-15
1.29154e-05
2.36068e-14
1.36136e-05
-2.04333e-15
1.43117e-05
1.48349e-14
1.50098e-05
-1.38806e-14
1.5708e-05
2.38809e-15
1.64061e-05
2.04101e-14
1.71042e-05
-7.02018e-15
1.78024e-05
1.20664e-14
1.85005e-05
-2.59489e-14
1.91986e-05
1.84571e-15
1.98967e-05
2.05949e-05
-8.67635e-15
4.53785e-06
1.22923e-14
5.23599e-06
1.8826e-15
5.93412e-06
8.90184e-15
6.63225e-06
-5.10924e-15
7.33038e-06
-2.19909e-14
8.02851e-06
1.22639e-14
8.72664e-06
-5.37517e-15
9.42478e-06
4.45475e-15
1.01229e-05
-1.43062e-14
1.0821e-05
-7.3276e-15
1.15192e-05
7.03957e-15
1.22173e-05
2.39933e-14
1.29154e-05
-7.55514e-15
1.36136e-05
9.80011e-15
1.43117e-05
-1.62377e-14
1.50098e-05
4.0292e-14
1.5708e-05
1.44438e-14
1.64061e-05
-1.37074e-14
1.71042e-05
-7.90167e-15
1.78024e-05
-3.92561e-14
1.85005e-05
4.27477e-14
1.91986e-05
-8.85238e-15
1.98967e-05
2.05949e-05
5.98576e-15
4.53785e-06
2.19111e-16
5.23599e-06
-6.43585e-15
5.93412e-06
6.06377e-15
6.63225e-06
-2.09369e-15
7.33038e-06
1.61758e-14
8.02851e-06
-1.88316e-14
8.72664e-06
-2.35197e-15
9.42478e-06
9.17046e-15
1.01229e-05
-4.71129e-15
1.0821e-05
2.16254e-14
1.15192e-05
-2.96461e-14
1.22173e-05
-9.29021e-15
1.29154e-05
-1.89073e-14
1.36136e-05
4.4674e-15
1.43117e-05
3.01534e-14
1.50098e-05
-2.62207e-14
1.5708e-05
4.34294e-16
1.64061e-05
-2.11729e-14
1.71042e-05
1.87123e-14
1.78024e-05
-3.92488e-15
1.85005e-05
-2.91649e-14
1.91986e-05
1.523e-14
1.98967e-05
2.05949e-05
6.71468e-15
4.53785e-06
-7.3066e-15
5.23599e-06
1.11005e-14
5.93412e-06
-4.24112e-15
6.63225e-06
1.51016e-14
7.33038e-06
-5.20982e-15
8.02851e-06
1.70126e-14
8.72664e-06
-3.94107e-15
9.42478e-06
-2.96586e-16
1.01229e-05
6.61074e-15
1.0821e-05
1.37045e-14
1.15192e-05
1.01832e-14
1.22173e-05
1.82161e-14
1.29154e-05
1.43671e-14
1.36136e-05
2.3341e-14
1.43117e-05
-2.53453e-14
1.50098e-05
2.90709e-14
1.5708e-05
-7.83117e-15
1.64061e-05
3.54131e-14
1.71042e-05
-4.51474e-15
1.78024e-05
4.23649e-14
1.85005e-05
-5.90366e-16
1.91986e-05
-8.7388e-15
1.98967e-05
2.05949e-05
-4.63077e-15
4.53785e-06
5.79737e-15
5.23599e-06
-1.61512e-14
5.93412e-06
-5.97442e-15
6.63225e-06
-8.5557e-15
7.33038e-06
4.2229e-15
8.02851e-06
-8.18767e-15
8.72664e-06
6.99873e-15
9.42478e-06
-2.42309e-14
1.01229e-05
-7.76995e-15
1.0821e-05
-2.27662e-14
1.15192e-05
8.34771e-15
1.22173e-05
-7.40577e-15
1.29154e-05
2.82649e-14
1.36136e-05
-4.57109e-14
1.43117e-05
-8.22422e-15
1.50098e-05
-2.82301e-14
1.5708e-05
-2.34292e-15
1.64061e-05
-6.94839e-15
1.71042e-05
2.21478e-14
1.78024e-05
-3.4113e-14
1.85005e-05
-3.7426e-15
1.91986e-05
-3.23519e-14
1.98967e-05
2.05949e-05
-8.92521e-15
4.53785e-06
-2.28915e-15
5.23599e-06
-2.22469e-15
5.93412e-06
6.61604e-15
6.63225e-06
-3.38855e-15
7.33038e-06
-3.90742e-15
8.02851e-06
-6.41936e-15
8.72664e-06
-7.16001e-15
9.42478e-06
6.8085e-15
1.01229e-05
6.98192e-15
1.0821e-05
-9.06466e-15
1.15192e-05
6.75929e-15
1.22173e-05
-2.88893e-14
1.29154e-05
-1.22362e-14
1.36136e-05
4.8036e-15
1.43117e-05
2.50249e-14
1.50098e-05
3.86022e-15
1.5708e-05
3.6048e-15
1.64061e-05
-2.04846e-14
1.71042e-05
-2.17617e-14
1.78024e-05
3.46104e-15
1.85005e-05
2.90366e-14
1.91986e-05
-1.66481e-15
1.98967e-05
2.05949e-05
6.21546e-15
4.53785e-06
-3.87951e-15
5.23599e-06
1.54215e-14
5.93412e-06
-7.06549e-15
6.63225e-06
-2.21067e-15
7.33038e-06
1.42959e-15
8.02851e-06
-5.49365e-15
8.72664e-06
1.32253e-14
9.42478e-06
6.0455e-15
1.01229e-05
-1.74506e-14
1.0821e-05
2.08869e-14
1.15192e-05
-2.14467e-14
1.22173e-05
1.91332e-14
1.29154e-05
-7.31714e-15
1.36136e-05
3.84847e-14
1.43117e-05
-1.29242e-14
1.50098e-05
-1.88329e-15
1.5708e-05
5.71835e-15
1.64061e-05
-7.5902e-15
1.71042e-05
2.76584e-14
1.78024e-05
1.40932e-14
1.85005e-05
-5.31467e-14
1.91986e-05
3.90862e-14
1.98967e-05
2.05949e-05
-1.49876e-15
4.53785e-06
1.08969e-14
5.23599e-06
-6.59979e-15
5.93412e-06
7.26504e-15
6.63225e-06
6.17429e-15
7.33038e-06
2.48862e-15
8.02851e-06
-9.65289e-16
8.72664e-06
-4.3662e-15
9.42478e-06
-8.90285e-15
1.01229e-05
1.38619e-14
1.0821e-05
1.06905e-14
1.15192e-05
6.24986e-15
1.22173e-05
-1.28643e-16
1.29154e-05
-3.43741e-15
1.36136e-05
-1.1045e-14
1.43117e-05
-1.77661e-14
1.50098e-05
1.76785e-14
1.5708e-05
9.9545e-15
1.64061e-05
3.32832e-15
1.71042e-05
-3.29734e-14
1.78024e-05
-1.04262e-14
1.85005e-05
3.00608e-14
1.91986e-05
-5.99959e-14
1.98967e-05
2.05949e-05
5.16996e-15
4.53785e-06
-7.45593e-15
5.23599e-06
-7.57041e-16
5.93412e-06
6.8396e-15
6.63225e-06
-9.97496e-15
7.33038e-06
-1.66532e-15
8.02851e-06
9.21823e-15
8.72664e-06
-1.3461e-14
9.42478e-06
2.32194e-14
1.01229e-05
1.04714e-14
1.0821e-05
-1.7273e-14
1.15192e-05
-3.02817e-15
1.22173e-05
1.13959e-14
1.29154e-05
-1.98161e-14
1.36136e-05
-4.67904e-15
1.43117e-05
5.03048e-14
1.50098e-05
-2.40499e-14
1.5708e-05
-6.66126e-15
1.64061e-05
1.42564e-14
1.71042e-05
1.64523e-15
1.78024e-05
-6.81291e-15
1.85005e-05
1.44387e-14
1.91986e-05
5.07521e-14
1.98967e-05
2.05949e-05
-6.19778e-15
4.53785e-06
2.80789e-17
5.23599e-06
1.1511e-14
5.93412e-06
-2.06262e-14
6.63225e-06
5.3663e-15
7.33038e-06
1.221e-15
8.02851e-06
-4.84165e-17
8.72664e-06
1.23927e-14
9.42478e-06
-1.32282e-14
1.01229e-05
-1.88954e-14
1.0821e-05
-4.96579e-15
1.15192e-05
-7.15629e-15
1.22173e-05
-1.48882e-14
1.29154e-05
3.53376e-14
1.36136e-05
-2.12081e-18
1.43117e-05
-4.31401e-14
1.50098e-05
1.35585e-14
1.5708e-05
-2.82574e-14
1.64061e-05
2.45004e-15
1.71042e-05
-1.02431e-14
1.78024e-05
2.38006e-14
1.85005e-05
1.38703e-14
1.91986e-05
-4.55668e-14
1.98967e-05
2.05949e-05
-1.90682e-15
4.53785e-06
1.1305e-15
5.23599e-06
-2.16628e-14
5.93412e-06
9.62389e-15
6.63225e-06
1.51369e-14
7.33038e-06
-1.40661e-14
8.02851e-06
8.09106e-15
8.72664e-06
-2.69596e-14
9.42478e-06
-1.96617e-15
1.01229e-05
2.97156e-14
1.0821e-05
-1.17477e-14
1.15192e-05
1.98662e-14
1.22173e-05
-2.74469e-14
1.29154e-05
-2.06151e-14
1.36136e-05
1.60403e-14
1.43117e-05
-4.61622e-15
1.50098e-05
4.69023e-15
1.5708e-05
4.79658e-14
1.64061e-05
-1.37429e-14
1.71042e-05
3.23642e-14
1.78024e-05
-3.5189e-14
1.85005e-05
-2.49104e-14
1.91986e-05
7.19084e-14
1.98967e-05
2.05949e-05
1.90651e-15
4.53785e-06
-1.13053e-15
5.23599e-06
2.16616e-14
5.93412e-06
-9.62452e-15
6.63225e-06
-1.51378e-14
7.33038e-06
1.40645e-14
8.02851e-06
-8.0951e-15
8.72664e-06
2.69592e-14
9.42478e-06
1.96654e-15
1.01229e-05
-2.9718e-14
1.0821e-05
1.17438e-14
1.15192e-05
-1.98685e-14
1.22173e-05
2.74426e-14
1.29154e-05
2.06136e-14
1.36136e-05
-1.60406e-14
1.43117e-05
4.61103e-15
1.50098e-05
-4.69638e-15
1.5708e-05
-4.79705e-14
1.64061e-05
1.37371e-14
1.71042e-05
-3.23804e-14
1.78024e-05
3.51829e-14
1.85005e-05
2.49027e-14
1.91986e-05
-7.19197e-14
1.98967e-05
2.05949e-05
6.19699e-15
4.53785e-06
-2.87212e-17
5.23599e-06
-1.15122e-14
5.93412e-06
2.06252e-14
6.63225e-06
-5.36739e-15
7.33038e-06
-1.22171e-15
8.02851e-06
4.55365e-17
8.72664e-06
-1.23954e-14
9.42478e-06
1.32259e-14
1.01229e-05
1.88936e-14
1.0821e-05
4.96331e-15
1.15192e-05
7.15199e-15
1.22173e-05
1.48846e-14
1.29154e-05
-3.53431e-14
1.36136e-05
-3.05449e-18
1.43117e-05
4.31354e-14
1.50098e-05
-1.3565e-14
1.5708e-05
2.82531e-14
1.64061e-05
-2.45674e-15
1.71042e-05
1.02384e-14
1.78024e-05
-2.38085e-14
1.85005e-05
-1.38786e-14
1.91986e-05
4.55591e-14
1.98967e-05
2.05949e-05
-5.17073e-15
4.53785e-06
7.45516e-15
5.23599e-06
7.55988e-16
5.93412e-06
-6.84051e-15
6.63225e-06
9.97341e-15
7.33038e-06
1.66421e-15
8.02851e-06
-9.21973e-15
8.72664e-06
1.34582e-14
9.42478e-06
-2.32224e-14
1.01229e-05
-1.04733e-14
1.0821e-05
1.7271e-14
1.15192e-05
3.02395e-15
1.22173e-05
-1.14003e-14
1.29154e-05
1.98125e-14
1.36136e-05
4.67632e-15
1.43117e-05
-5.0309e-14
1.50098e-05
2.40432e-14
1.5708e-05
6.65684e-15
1.64061e-05
-1.42621e-14
1.71042e-05
-1.65222e-15
1.78024e-05
6.8082e-15
1.85005e-05
-1.44459e-14
1.91986e-05
-5.07619e-14
1.98967e-05
2.05949e-05
1.49806e-15
4.53785e-06
-1.08974e-14
5.23599e-06
6.59881e-15
5.93412e-06
-7.26595e-15
6.63225e-06
-6.17556e-15
7.33038e-06
-2.48921e-15
8.02851e-06
9.6448e-16
8.72664e-06
4.36308e-15
9.42478e-06
8.90097e-15
1.01229e-05
-1.38646e-14
1.0821e-05
-1.06922e-14
1.15192e-05
-6.252e-15
1.22173e-05
1.23378e-16
1.29154e-05
3.4357e-15
1.36136e-05
1.10441e-14
1.43117e-05
1.77634e-14
1.50098e-05
-1.76836e-14
1.5708e-05
-9.95683e-15
1.64061e-05
-3.33359e-15
1.71042e-05
3.29637e-14
1.78024e-05
1.04191e-14
1.85005e-05
-3.007e-14
1.91986e-05
5.99836e-14
1.98967e-05
2.05949e-05
-6.21599e-15
4.53785e-06
3.87916e-15
5.23599e-06
-1.54224e-14
5.93412e-06
7.06507e-15
6.63225e-06
2.21028e-15
7.33038e-06
-1.43045e-15
8.02851e-06
5.49263e-15
8.72664e-06
-1.32278e-14
9.42478e-06
-6.04622e-15
1.01229e-05
1.74494e-14
1.0821e-05
-2.08883e-14
1.15192e-05
2.14441e-14
1.22173e-05
-1.91371e-14
1.29154e-05
7.31454e-15
1.36136e-05
-3.84873e-14
1.43117e-05
1.29206e-14
1.50098e-05
1.88257e-15
1.5708e-05
-5.72181e-15
1.64061e-05
7.58443e-15
1.71042e-05
-2.76606e-14
1.78024e-05
-1.41029e-14
1.85005e-05
5.31368e-14
1.91986e-05
-3.9089e-14
1.98967e-05
2.05949e-05
8.92499e-15
4.53785e-06
2.28871e-15
5.23599e-06
2.22385e-15
5.93412e-06
-6.61688e-15
6.63225e-06
3.38753e-15
7.33038e-06
3.90699e-15
8.02851e-06
6.41782e-15
8.72664e-06
7.15855e-15
9.42478e-06
-6.8098e-15
1.01229e-05
-6.98464e-15
1.0821e-05
9.06451e-15
1.15192e-05
-6.76193e-15
1.22173e-05
2.88871e-14
1.29154e-05
1.22296e-14
1.36136e-05
-4.80875e-15
1.43117e-05
-2.50291e-14
1.50098e-05
-3.86653e-15
1.5708e-05
-3.61161e-15
1.64061e-05
2.04783e-14
1.71042e-05
2.17597e-14
1.78024e-05
-3.47575e-15
1.85005e-05
-2.90423e-14
1.91986e-05
1.66073e-15
1.98967e-05
2.05949e-05
4.62995e-15
4.53785e-06
-5.79765e-15
5.23599e-06
1.61506e-14
5.93412e-06
5.97398e-15
6.63225e-06
8.55409e-15
7.33038e-06
-4.22388e-15
8.02851e-06
8.18589e-15
8.72664e-06
-7.00033e-15
9.42478e-06
2.4228e-14
1.01229e-05
7.76744e-15
1.0821e-05
2.27637e-14
1.15192e-05
-8.35196e-15
1.22173e-05
7.40199e-15
1.29154e-05
-2.82683e-14
1.36136e-05
4.57059e-14
1.43117e-05
8.21888e-15
1.50098e-05
2.82223e-14
1.5708e-05
2.33636e-15
1.64061e-05
6.94233e-15
1.71042e-05
-2.21511e-14
1.78024e-05
3.41065e-14
1.85005e-05
3.73941e-15
1.91986e-05
3.23401e-14
1.98967e-05
2.05949e-05
-6.71553e-15
4.53785e-06
7.30613e-15
5.23599e-06
-1.1101e-14
5.93412e-06
4.24094e-15
6.63225e-06
-1.51034e-14
7.33038e-06
5.20911e-15
8.02851e-06
-1.70145e-14
8.72664e-06
3.9403e-15
9.42478e-06
2.93429e-16
1.01229e-05
-6.612e-15
1.0821e-05
-1.37075e-14
1.15192e-05
-1.01866e-14
1.22173e-05
-1.82194e-14
1.29154e-05
-1.43712e-14
1.36136e-05
-2.33406e-14
1.43117e-05
2.53409e-14
1.50098e-05
-2.90779e-14
1.5708e-05
7.82412e-15
1.64061e-05
-3.54187e-14
1.71042e-05
4.51129e-15
1.78024e-05
-4.23762e-14
1.85005e-05
5.85868e-16
1.91986e-05
8.72569e-15
1.98967e-05
2.05949e-05
-5.98635e-15
4.53785e-06
-2.19364e-16
5.23599e-06
6.43532e-15
5.93412e-06
-6.06399e-15
6.63225e-06
2.09151e-15
7.33038e-06
-1.61766e-14
8.02851e-06
1.883e-14
8.72664e-06
2.34941e-15
9.42478e-06
-9.17283e-15
1.01229e-05
4.70958e-15
1.0821e-05
-2.16278e-14
1.15192e-05
2.96443e-14
1.22173e-05
9.28848e-15
1.29154e-05
1.89031e-14
1.36136e-05
-4.46716e-15
1.43117e-05
-3.01572e-14
1.50098e-05
2.62135e-14
1.5708e-05
-4.40348e-16
1.64061e-05
2.11706e-14
1.71042e-05
-1.8715e-14
1.78024e-05
3.91796e-15
1.85005e-05
2.91548e-14
1.91986e-05
-1.5239e-14
1.98967e-05
2.05949e-05
8.67568e-15
4.53785e-06
-1.22925e-14
5.23599e-06
-1.88352e-15
5.93412e-06
-8.90239e-15
6.63225e-06
5.10766e-15
7.33038e-06
2.19908e-14
8.02851e-06
-1.22653e-14
8.72664e-06
5.37298e-15
9.42478e-06
-4.45709e-15
1.01229e-05
1.43041e-14
1.0821e-05
7.32347e-15
1.15192e-05
-7.04306e-15
1.22173e-05
-2.39989e-14
1.29154e-05
7.55358e-15
1.36136e-05
-9.80164e-15
1.43117e-05
1.62337e-14
1.50098e-05
-4.02973e-14
1.5708e-05
-1.44498e-14
1.64061e-05
1.37027e-14
1.71042e-05
7.89447e-15
1.78024e-05
3.92462e-14
1.85005e-05
-4.27496e-14
1.91986e-05
8.84406e-15
1.98967e-05
2.05949e-05
-9.3992e-15
4.53785e-06
-5.20696e-16
5.23599e-06
-7.52888e-15
5.93412e-06
4.41094e-15
6.63225e-06
-3.78386e-15
7.33038e-06
-1.33851e-14
8.02851e-06
2.10921e-15
8.72664e-06
-8.5293e-15
9.42478e-06
1.00268e-14
1.01229e-05
-1.86754e-15
1.0821e-05
2.02003e-14
1.15192e-05
7.0095e-15
1.22173e-05
-7.5133e-15
1.29154e-05
-2.36107e-14
1.36136e-05
2.04003e-15
1.43117e-05
-1.48339e-14
1.50098e-05
1.38753e-14
1.5708e-05
-2.39344e-15
1.64061e-05
-2.04153e-14
1.71042e-05
7.01367e-15
1.78024e-05
-1.20717e-14
1.85005e-05
2.59414e-14
1.91986e-05
-1.85186e-15
1.98967e-05
2.05949e-05
1.13358e-14
4.53785e-06
4.8097e-16
5.23599e-06
5.35696e-15
5.93412e-06
1.13029e-14
6.63225e-06
-4.8695e-15
7.33038e-06
1.10978e-15
8.02851e-06
8.15755e-15
8.72664e-06
-1.30451e-14
9.42478e-06
-5.94982e-15
1.01229e-05
1.99632e-15
1.0821e-05
-2.43877e-14
1.15192e-05
-1.61904e-14
1.22173e-05
3.27843e-14
1.29154e-05
3.04854e-15
1.36136e-05
1.4439e-14
1.43117e-05
2.68996e-14
1.50098e-05
-7.7401e-15
1.5708e-05
4.43912e-15
1.64061e-05
1.79978e-14
1.71042e-05
-2.18224e-14
1.78024e-05
-8.21808e-15
1.85005e-05
6.07959e-15
1.91986e-05
-3.8922e-14
1.98967e-05
2.05949e-05
1.36909e-16
9.81747e-07
2.42082e-16
1.37445e-06
3.76924e-16
1.76715e-06
-1.33942e-15
2.15984e-06
-3.68184e-15
2.55254e-06
2.94524e-06
5.9513e-15
1.81496e-18
9.81747e-07
-3.88837e-16
1.37445e-06
-2.60419e-15
1.76715e-06
1.94355e-15
2.15984e-06
8.06615e-15
2.55254e-06
2.94524e-06
-9.02995e-15
-1.165e-16
9.81747e-07
1.8636e-16
1.37445e-06
-1.56243e-15
1.76715e-06
-4.21266e-15
2.15984e-06
-7.49846e-15
2.55254e-06
2.94524e-06
7.72212e-16
8.69271e-17
9.81747e-07
-1.01973e-16
1.37445e-06
2.6931e-15
1.76715e-06
7.44275e-15
2.15984e-06
3.25973e-15
2.55254e-06
2.94524e-06
-2.79806e-15
-4.83954e-17
9.81747e-07
3.94825e-17
1.37445e-06
1.94257e-16
1.76715e-06
-1.80614e-15
2.15984e-06
-4.20863e-15
2.55254e-06
2.94524e-06
5.01317e-15
-1.80122e-16
9.81747e-07
4.255e-18
1.37445e-06
-1.84786e-15
1.76715e-06
-3.88627e-15
2.15984e-06
3.15701e-15
2.55254e-06
2.94524e-06
4.9792e-16
2.53974e-16
9.81747e-07
2.55392e-16
1.37445e-06
2.06596e-15
1.76715e-06
4.504e-15
2.15984e-06
-2.31005e-15
2.55254e-06
2.94524e-06
5.40623e-16
2.1645e-17
9.81747e-07
-3.21724e-16
1.37445e-06
-1.14893e-15
1.76715e-06
-5.28576e-15
2.15984e-06
-3.76855e-16
2.55254e-06
2.94524e-06
-5.63993e-15
-1.43439e-16
9.81747e-07
1.6637e-16
1.37445e-06
4.19111e-15
1.76715e-06
6.34929e-15
2.15984e-06
-8.05751e-16
2.55254e-06
2.94524e-06
8.39043e-16
-6.88324e-17
9.81747e-07
-9.20853e-17
1.37445e-06
-2.76947e-15
1.76715e-06
-3.68934e-16
2.15984e-06
-1.45096e-15
2.55254e-06
2.94524e-06
-1.76875e-16
1.66312e-16
9.81747e-07
-8.87592e-17
1.37445e-06
5.69587e-16
1.76715e-06
-2.10362e-15
2.15984e-06
9.65989e-15
2.55254e-06
2.94524e-06
5.28998e-15
-1.77818e-16
9.81747e-07
-2.05299e-17
1.37445e-06
-3.45472e-16
1.76715e-06
-4.17278e-15
2.15984e-06
-2.62249e-15
2.55254e-06
2.94524e-06
5.36923e-15
1.77767e-16
9.81747e-07
2.04986e-17
1.37445e-06
3.45418e-16
1.76715e-06
4.17255e-15
2.15984e-06
2.62235e-15
2.55254e-06
2.94524e-06
-5.3695e-15
-1.66375e-16
9.81747e-07
8.86535e-17
1.37445e-06
-5.69792e-16
1.76715e-06
2.10343e-15
2.15984e-06
-9.66007e-15
2.55254e-06
2.94524e-06
-5.29025e-15
6.87717e-17
9.81747e-07
9.2004e-17
1.37445e-06
2.76928e-15
1.76715e-06
3.68708e-16
2.15984e-06
1.45083e-15
2.55254e-06
2.94524e-06
1.76394e-16
1.43386e-16
9.81747e-07
-1.66424e-16
1.37445e-06
-4.19121e-15
1.76715e-06
-6.34949e-15
2.15984e-06
8.05467e-16
2.55254e-06
2.94524e-06
-8.39367e-16
-2.16682e-17
9.81747e-07
3.21652e-16
1.37445e-06
1.14889e-15
1.76715e-06
5.28559e-15
2.15984e-06
3.76478e-16
2.55254e-06
2.94524e-06
5.63963e-15
-2.53995e-16
9.81747e-07
-2.55444e-16
1.37445e-06
-2.06605e-15
1.76715e-06
-4.50416e-15
2.15984e-06
2.30981e-15
2.55254e-06
2.94524e-06
-5.40782e-16
1.80085e-16
9.81747e-07
-4.34447e-18
1.37445e-06
1.84774e-15
1.76715e-06
3.8861e-15
2.15984e-06
-3.15725e-15
2.55254e-06
2.94524e-06
-4.98328e-16
4.83409e-17
9.81747e-07
-3.95817e-17
1.37445e-06
-1.94415e-16
1.76715e-06
1.80597e-15
2.15984e-06
4.20861e-15
2.55254e-06
2.94524e-06
-5.01354e-15
-8.69791e-17
9.81747e-07
1.01898e-16
1.37445e-06
-2.6933e-15
1.76715e-06
-7.44287e-15
2.15984e-06
-3.25988e-15
2.55254e-06
2.94524e-06
2.79789e-15
1.16438e-16
9.81747e-07
-1.86429e-16
1.37445e-06
1.56227e-15
1.76715e-06
4.21242e-15
2.15984e-06
7.49837e-15
2.55254e-06
2.94524e-06
-7.72525e-16
-1.8721e-18
9.81747e-07
3.88694e-16
1.37445e-06
2.60407e-15
1.76715e-06
-1.94376e-15
2.15984e-06
-8.0663e-15
2.55254e-06
2.94524e-06
9.02957e-15
-1.3698e-16
-2.42145e-16
-3.76998e-16
1.33924e-15
3.6815e-15
-5.95132e-15
-1.13363e-14
4.53785e-06
-4.8123e-16
5.23599e-06
-5.35769e-15
5.93412e-06
-1.13036e-14
6.63225e-06
4.8685e-15
7.33038e-06
-1.10979e-15
8.02851e-06
-8.15956e-15
8.72664e-06
1.30431e-14
9.42478e-06
5.94887e-15
1.01229e-05
-1.99581e-15
1.0821e-05
2.43858e-14
1.15192e-05
1.61883e-14
1.22173e-05
-3.27863e-14
1.29154e-05
-3.05337e-15
1.36136e-05
-1.44421e-14
1.43117e-05
-2.69029e-14
1.50098e-05
7.73994e-15
1.5708e-05
-4.43914e-15
1.64061e-05
-1.80006e-14
1.71042e-05
2.18188e-14
1.78024e-05
8.21142e-15
1.85005e-05
-6.08307e-15
1.91986e-05
3.89207e-14
1.98967e-05
2.05949e-05
9.39888e-15
4.53785e-06
5.19786e-16
5.23599e-06
7.52789e-15
5.93412e-06
-4.4125e-15
6.63225e-06
3.78304e-15
7.33038e-06
1.33845e-14
8.02851e-06
-2.11098e-15
8.72664e-06
8.52746e-15
9.42478e-06
-1.00282e-14
1.01229e-05
1.86458e-15
1.0821e-05
-2.02034e-14
1.15192e-05
-7.01266e-15
1.22173e-05
7.51024e-15
1.29154e-05
2.36068e-14
1.36136e-05
-2.04333e-15
1.43117e-05
1.48349e-14
1.50098e-05
-1.38806e-14
1.5708e-05
2.38809e-15
1.64061e-05
2.04101e-14
1.71042e-05
-7.02018e-15
1.78024e-05
1.20664e-14
1.85005e-05
-2.59489e-14
1.91986e-05
1.84571e-15
1.98967e-05
2.05949e-05
-8.67635e-15
4.53785e-06
1.22923e-14
5.23599e-06
1.8826e-15
5.93412e-06
8.90184e-15
6.63225e-06
-5.10924e-15
7.33038e-06
-2.19909e-14
8.02851e-06
1.22639e-14
8.72664e-06
-5.37517e-15
9.42478e-06
4.45475e-15
1.01229e-05
-1.43062e-14
1.0821e-05
-7.3276e-15
1.15192e-05
7.03957e-15
1.22173e-05
2.39933e-14
1.29154e-05
-7.55514e-15
1.36136e-05
9.80011e-15
1.43117e-05
-1.62377e-14
1.50098e-05
4.0292e-14
1.5708e-05
1.44438e-14
1.64061e-05
-1.37074e-14
1.71042e-05
-7.90167e-15
1.78024e-05
-3.92561e-14
1.85005e-05
4.27477e-14
1.91986e-05
-8.85238e-15
1.98967e-05
2.05949e-05
5.98576e-15
4.53785e-06
2.19111e-16
5.23599e-06
-6.43585e-15
5.93412e-06
6.06377e-15
6.63225e-06
-2.09369e-15
7.33038e-06
1.61758e-14
8.02851e-06
-1.88316e-14
8.72664e-06
-2.35197e-15
9.42478e-06
9.17046e-15
1.01229e-05
-4.71129e-15
1.0821e-05
2.16254e-14
1.15192e-05
-2.96461e-14
1.22173e-05
-9.29021e-15
1.29154e-05
-1.89073e-14
1.36136e-05
4.4674e-15
1.43117e-05
3.01534e-14
1.50098e-05
-2.62207e-14
1.5708e-05
4.34294e-16
1.64061e-05
-2.11729e-14
1.71042e-05
1.87123e-14
1.78024e-05
-3.92488e-15
1.85005e-05
-2.91649e-14
1.91986e-05
1.523e-14
1.98967e-05
2.05949e-05
6.71468e-15
4.53785e-06
-7.3066e-15
5.23599e-06
1.11005e-14
5.93412e-06
-4.24112e-15
6.63225e-06
1.51016e-14
7.33038e-06
-5.20982e-15
8.02851e-06
1.70126e-14
8.72664e-06
-3.94107e-15
9.42478e-06
-2.96586e-16
1.01229e-05
6.61074e-15
1.0821e-05
1.37045e-14
1.15192e-05
1.01832e-14
1.22173e-05
1.82161e-14
1.29154e-05
1.43671e-14
1.36136e-05
2.3341e-14
1.43117e-05
-2.53453e-14
1.50098e-05
2.90709e-14
1.5708e-05
-7.83117e-15
1.64061e-05
3.54131e-14
1.71042e-05
-4.51474e-15
1.78024e-05
4.23649e-14
1.85005e-05
-5.90366e-16
1.91986e-05
-8.7388e-15
1.98967e-05
2.05949e-05
-4.63077e-15
4.53785e-06
5.79737e-15
5.23599e-06
-1.61512e-14
5.93412e-06
-5.97442e-15
6.63225e-06
-8.5557e-15
7.33038e-06
4.2229e-15
8.02851e-06
-8.18767e-15
8.72664e-06
6.99873e-15
9.42478e-06
-2.42309e-14
1.01229e-05
-7.76995e-15
1.0821e-05
-2.27662e-14
1.15192e-05
8.34771e-15
1.22173e-05
-7.40577e-15
1.29154e-05
2.82649e-14
1.36136e-05
-4.57109e-14
1.43117e-05
-8.22422e-15
1.50098e-05
-2.82301e-14
1.5708e-05
-2.34292e-15
1.64061e-05
-6.94839e-15
1.71042e-05
2.21478e-14
1.78024e-05
-3.4113e-14
1.85005e-05
-3.7426e-15
1.91986e-05
-3.23519e-14
1.98967e-05
2.05949e-05
-8.92521e-15
4.53785e-06
-2.28915e-15
5.23599e-06
-2.22469e-15
5.93412e-06
6.61604e-15
6.63225e-06
-3.38855e-15
7.33038e-06
-3.90742e-15
8.02851e-06
-6.41936e-15
8.72664e-06
-7.16001e-15
9.42478e-06
6.8085e-15
1.01229e-05
6.98192e-15
1.0821e-05
-9.06466e-15
1.15192e-05
6.75929e-15
1.22173e-05
-2.88893e-14
1.29154e-05
-1.22362e-14
1.36136e-05
4.8036e-15
1.43117e-05
2.50249e-14
1.50098e-05
3.86022e-15
1.5708e-05
3.6048e-15
1.64061e-05
-2.04846e-14
1.71042e-05
-2.17617e-14
1.78024e-05
3.46104e-15
1.85005e-05
2.90366e-14
1.91986e-05
-1.66481e-15
1.98967e-05
2.05949e-05
6.21546e-15
4.53785e-06
-3.87951e-15
5.23599e-06
1.54215e-14
5.93412e-06
-7.06549e-15
6.63225e-06
-2.21067e-15
7.33038e-06
1.42959e-15
8.02851e-06
-5.49365e-15
8.72664e-06
1.32253e-14
9.42478e-06
6.0455e-15
1.01229e-05
-1.74506e-14
1.0821e-05
2.08869e-14
1.15192e-05
-2.14467e-14
1.22173e-05
1.91332e-14
1.29154e-05
-7.31714e-15
1.36136e-05
3.84847e-14
1.43117e-05
-1.29242e-14
1.50098e-05
-1.88329e-15
1.5708e-05
5.71835e-15
1.64061e-05
-7.5902e-15
1.71042e-05
2.76584e-14
1.78024e-05
1.40932e-14
1.85005e-05
-5.31467e-14
1.91986e-05
3.90862e-14
1.98967e-05
2.05949e-05
-1.49876e-15
4.53785e-06
1.08969e-14
5.23599e-06
-6.59979e-15
5.93412e-06
7.26504e-15
6.63225e-06
6.17429e-15
7.33038e-06
2.48862e-15
8.02851e-06
-9.65289e-16
8.72664e-06
-4.3662e-15
9.42478e-06
-8.90285e-15
1.01229e-05
1.38619e-14
1.0821e-05
1.06905e-14
1.15192e-05
6.24986e-15
1.22173e-05
-1.28643e-16
1.29154e-05
-3.43741e-15
1.36136e-05
-1.1045e-14
1.43117e-05
-1.77661e-14
1.50098e-05
1.76785e-14
1.5708e-05
9.9545e-15
1.64061e-05
3.32832e-15
1.71042e-05
-3.29734e-14
1.78024e-05
-1.04262e-14
1.85005e-05
3.00608e-14
1.91986e-05
-5.99959e-14
1.98967e-05
2.05949e-05
5.16996e-15
4.53785e-06
-7.45593e-15
5.23599e-06
-7.57041e-16
5.93412e-06
6.8396e-15
6.63225e-06
-9.97496e-15
7.33038e-06
-1.66532e-15
8.02851e-06
9.21823e-15
8.72664e-06
-1.3461e-14
9.42478e-06
2.32194e-14
1.01229e-05
1.04714e-14
1.0821e-05
-1.7273e-14
1.15192e-05
-3.02817e-15
1.22173e-05
1.13959e-14
1.29154e-05
-1.98161e-14
1.36136e-05
-4.67904e-15
1.43117e-05
5.03048e-14
1.50098e-05
-2.40499e-14
1.5708e-05
-6.66126e-15
1.64061e-05
1.42564e-14
1.71042e-05
1.64523e-15
1.78024e-05
-6.81291e-15
1.85005e-05
1.44387e-14
1.91986e-05
5.07521e-14
1.98967e-05
2.05949e-05
-6.19778e-15
4.53785e-06
2.80789e-17
5.23599e-06
1.1511e-14
5.93412e-06
-2.06262e-14
6.63225e-06
5.3663e-15
7.33038e-06
1.221e-15
8.02851e-06
-4.84165e-17
8.72664e-06
1.23927e-14
9.42478e-06
-1.32282e-14
1.01229e-05
-1.88954e-14
1.0821e-05
-4.96579e-15
1.15192e-05
-7.15629e-15
1.22173e-05
-1.48882e-14
1.29154e-05
3.53376e-14
1.36136e-05
-2.12081e-18
1.43117e-05
-4.31401e-14
1.50098e-05
1.35585e-14
1.5708e-05
-2.82574e-14
1.64061e-05
2.45004e-15
1.71042e-05
-1.02431e-14
1.78024e-05
2.38006e-14
1.85005e-05
1.38703e-14
1.91986e-05
-4.55668e-14
1.98967e-05
2.05949e-05
-1.90682e-15
4.53785e-06
1.1305e-15
5.23599e-06
-2.16628e-14
5.93412e-06
9.62389e-15
6.63225e-06
1.51369e-14
7.33038e-06
-1.40661e-14
8.02851e-06
8.09106e-15
8.72664e-06
-2.69596e-14
9.42478e-06
-1.96617e-15
1.01229e-05
2.97156e-14
1.0821e-05
-1.17477e-14
1.15192e-05
1.98662e-14
1.22173e-05
-2.74469e-14
1.29154e-05
-2.06151e-14
1.36136e-05
1.60403e-14
1.43117e-05
-4.61622e-15
1.50098e-05
4.69023e-15
1.5708e-05
4.79658e-14
1.64061e-05
-1.37429e-14
1.71042e-05
3.23642e-14
1.78024e-05
-3.5189e-14
1.85005e-05
-2.49104e-14
1.91986e-05
7.19084e-14
1.98967e-05
2.05949e-05
1.90651e-15
4.53785e-06
-1.13053e-15
5.23599e-06
2.16616e-14
5.93412e-06
-9.62452e-15
6.63225e-06
-1.51378e-14
7.33038e-06
1.40645e-14
8.02851e-06
-8.0951e-15
8.72664e-06
2.69592e-14
9.42478e-06
1.96654e-15
1.01229e-05
-2.9718e-14
1.0821e-05
1.17438e-14
1.15192e-05
-1.98685e-14
1.22173e-05
2.74426e-14
1.29154e-05
2.06136e-14
1.36136e-05
-1.60406e-14
1.43117e-05
4.61103e-15
1.50098e-05
-4.69638e-15
1.5708e-05
-4.79705e-14
1.64061e-05
1.37371e-14
1.71042e-05
-3.23804e-14
1.78024e-05
3.51829e-14
1.85005e-05
2.49027e-14
1.91986e-05
-7.19197e-14
1.98967e-05
2.05949e-05
6.19699e-15
4.53785e-06
-2.87212e-17
5.23599e-06
-1.15122e-14
5.93412e-06
2.06252e-14
6.63225e-06
-5.36739e-15
7.33038e-06
-1.22171e-15
8.02851e-06
4.55365e-17
8.72664e-06
-1.23954e-14
9.42478e-06
1.32259e-14
1.01229e-05
1.88936e-14
1.0821e-05
4.96331e-15
1.15192e-05
7.15199e-15
1.22173e-05
1.48846e-14
1.29154e-05
-3.53431e-14
1.36136e-05
-3.05449e-18
1.43117e-05
4.31354e-14
1.50098e-05
-1.3565e-14
1.5708e-05
2.82531e-14
1.64061e-05
-2.45674e-15
1.71042e-05
1.02384e-14
1.78024e-05
-2.38085e-14
1.85005e-05
-1.38786e-14
1.91986e-05
4.55591e-14
1.98967e-05
2.05949e-05
-5.17073e-15
4.53785e-06
7.45516e-15
5.23599e-06
7.55988e-16
5.93412e-06
-6.84051e-15
6.63225e-06
9.97341e-15
7.33038e-06
1.66421e-15
8.02851e-06
-9.21973e-15
8.72664e-06
1.34582e-14
9.42478e-06
-2.32224e-14
1.01229e-05
-1.04733e-14
1.0821e-05
1.7271e-14
1.15192e-05
3.02395e-15
1.22173e-05
-1.14003e-14
1.29154e-05
1.98125e-14
1.36136e-05
4.67632e-15
1.43117e-05
-5.0309e-14
1.50098e-05
2.40432e-14
1.5708e-05
6.65684e-15
1.64061e-05