/*--------------------------------*- C++ -*----------------------------------*\
  =========                 |
  \\      /  F ield         | OpenFOAM: The Open Source CFD Toolbox
   \\    /   O peration     | Website:  https://openfoam.org
    \\  /    A nd           | Version:  11
     \\/     M anipulation  |
\*---------------------------------------------------------------------------*/
FoamFile
{
    format      ascii;
    class       volVectorField;
    location    "0.06";
    object      U;
}
// * * * * * * * * * * * * * * * * * * * * * * * * * * * * * * * * * * * * * //

dimensions      [0 1 -1 0 0 0 0];

internalField   nonuniform List<vector> 
2880
(
(-0.0345767 -0.0483406 1.20952e-20)
(-0.0297878 -0.0740631 -9.74301e-19)
(0.0412603 -0.0650147 1.61742e-20)
(0.0809582 -0.0777752 4.31238e-19)
(0.202531 -0.124456 0)
(0.767745 -0.134354 -2.15692e-19)
(-0.0179822 -0.0370396 7.48486e-19)
(0.0351862 -0.0610412 4.79873e-19)
(0.152439 -0.0383027 0)
(0.259167 -0.0383434 -2.24355e-19)
(0.458854 -0.046317 0)
(0.81707 -0.0491251 2.63816e-20)
(0.00169695 -0.0276053 -1.45061e-18)
(0.0964574 -0.0531618 0)
(0.240435 -0.0290143 -3.39655e-19)
(0.389853 -0.0300976 -2.724e-20)
(0.614902 -0.0505808 -1.48787e-20)
(0.887411 -0.111581 -9.68269e-20)
(0.024236 -0.0190461 7.38089e-19)
(0.151433 -0.0489513 -1.45016e-20)
(0.312544 -0.0296882 3.63775e-19)
(0.486679 -0.0351992 -3.25747e-20)
(0.715932 -0.0699684 0)
(0.938399 -0.15443 8.38534e-20)
(0.0563184 -0.0111404 -1.04683e-20)
(0.199652 -0.0485381 1.40349e-20)
(0.372205 -0.0363679 0)
(0.5595 -0.0482963 0)
(0.778073 -0.0909833 4.97096e-20)
(0.960924 -0.175717 -4.16285e-20)
(0.0828361 -0.00663757 3.23048e-20)
(0.240411 -0.0505598 4.00608e-19)
(0.421079 -0.0469012 -3.37963e-19)
(0.613052 -0.0661152 2.70315e-19)
(0.815501 -0.113391 2.21526e-19)
(0.969556 -0.191971 0)
(0.105858 -0.0062117 0)
(0.274049 -0.0544656 -8.10751e-19)
(0.459999 -0.0602121 3.0778e-19)
(0.650931 -0.0865338 -4.72895e-19)
(0.836897 -0.13665 -5.5798e-19)
(0.970291 -0.20744 4.73951e-20)
(0.125702 -0.00875871 -2.21595e-20)
(0.301076 -0.0600071 4.24284e-19)
(0.489618 -0.0755163 2.99594e-19)
(0.676399 -0.108451 3.04301e-19)
(0.847607 -0.160089 2.81598e-19)
(0.966439 -0.223407 1.4916e-19)
(0.142358 -0.0133906 1.14159e-20)
(0.321887 -0.0669676 0)
(0.510844 -0.0922593 -3.24878e-20)
(0.692121 -0.131254 3.52856e-20)
(0.851167 -0.183491 2.37614e-19)
(0.959943 -0.240262 -1.96271e-19)
(0.155761 -0.0194373 0)
(0.336837 -0.075148 0)
(0.524667 -0.110027 -3.34362e-19)
(0.700103 -0.154635 -2.85393e-19)
(0.849602 -0.207197 -2.3354e-19)
(0.951844 -0.258579 2.01897e-19)
(0.165794 -0.0264007 0)
(0.346331 -0.0843381 0)
(0.532012 -0.128458 0)
(0.701892 -0.17846 -6.62555e-21)
(0.844243 -0.231563 -5.82939e-20)
(0.942878 -0.278732 -1.98039e-19)
(0.172312 -0.0339386 0)
(0.350813 -0.0943122 0)
(0.533694 -0.147196 -3.01891e-19)
(0.698589 -0.202465 2.45518e-19)
(0.835964 -0.256583 0)
(0.933517 -0.300715 -4.86023e-20)
(0.175192 -0.0418276 0)
(0.350731 -0.104823 -4.60207e-19)
(0.530324 -0.16598 3.60423e-19)
(0.690909 -0.226512 0)
(0.82525 -0.282498 0)
(0.923808 -0.324899 0)
(0.174359 -0.0498922 -3.90368e-19)
(0.346531 -0.115591 4.32742e-19)
(0.52238 -0.184582 0)
(0.679204 -0.250643 0)
(0.812192 -0.309513 2.84149e-20)
(0.913592 -0.351598 2.12781e-20)
(0.169906 -0.0578451 3.90783e-19)
(0.338572 -0.126297 0)
(0.510191 -0.202716 0)
(0.663593 -0.274783 -1.44328e-19)
(0.796673 -0.337647 0)
(0.902552 -0.381034 -2.26584e-20)
(0.162073 -0.0650653 0)
(0.327137 -0.136456 0)
(0.493965 -0.219959 0)
(0.644021 -0.298697 1.61372e-19)
(0.778345 -0.366807 -1.51959e-20)
(0.890257 -0.413364 -2.18195e-20)
(0.15117 -0.0705175 2.09077e-19)
(0.312461 -0.145276 -1.10672e-20)
(0.473796 -0.235625 5.66146e-21)
(0.620249 -0.321885 7.32967e-20)
(0.756615 -0.396818 -5.77658e-20)
(0.876092 -0.448577 1.04031e-20)
(0.137549 -0.0726161 -2.01762e-19)
(0.294572 -0.151579 0)
(0.449607 -0.24872 0)
(0.591793 -0.343541 -7.37964e-20)
(0.730568 -0.427312 5.09563e-20)
(0.859197 -0.486422 4.90489e-21)
(0.121521 -0.0693078 -1.64603e-21)
(0.273184 -0.153786 -6.33902e-20)
(0.421043 -0.257944 1.44846e-21)
(0.557941 -0.36259 3.677e-20)
(0.698914 -0.457394 7.28951e-21)
(0.838204 -0.52675 -1.14089e-21)
(0.103263 -0.058619 2.09403e-19)
(0.247614 -0.150086 6.64276e-20)
(0.387377 -0.261722 0)
(0.517613 -0.37798 -2.97617e-20)
(0.660064 -0.485577 -7.91274e-21)
(0.810865 -0.56956 0)
(0.0829687 -0.0397814 -2.11298e-19)
(0.217017 -0.138717 3.00166e-19)
(0.347728 -0.258437 -2.24967e-19)
(0.469555 -0.388759 0)
(0.61205 -0.509896 -1.30896e-20)
(0.77436 -0.613583 2.63684e-20)
(0.0619986 -0.0146488 4.38449e-19)
(0.181276 -0.117924 -2.81555e-19)
(0.30183 -0.246293 2.11689e-19)
(0.413891 -0.393615 0)
(0.552443 -0.526785 -2.70325e-20)
(0.726219 -0.65729 2.3972e-20)
(0.0436896 0.0124155 -4.48188e-19)
(0.140476 -0.0844013 2.10239e-20)
(0.250355 -0.221452 1.58134e-20)
(0.352468 -0.389125 -2.586e-20)
(0.474372 -0.529635 0)
(0.660659 -0.708447 -6.80886e-20)
(0.0287393 0.0394119 -3.04941e-20)
(0.0881144 -0.0272816 -6.63496e-19)
(0.181726 -0.168889 -7.00515e-24)
(0.263401 -0.367876 4.31e-19)
(0.411517 -0.476116 3.29552e-20)
(0.534251 -0.811807 -1.06931e-19)
(0.847211 -0.504311 0)
(0.882414 -0.423485 -9.86494e-20)
(0.886836 -0.346095 8.78996e-20)
(0.901509 -0.281649 7.69505e-20)
(0.91512 -0.237297 -3.24419e-19)
(0.929238 -0.205079 1.16693e-19)
(0.94238 -0.180477 0)
(0.954243 -0.160688 0)
(0.964755 -0.144074 -1.7873e-21)
(0.973906 -0.129633 7.97894e-20)
(0.981747 -0.116719 1.44162e-19)
(0.988337 -0.104897 6.89245e-20)
(0.993737 -0.0938699 6.57851e-20)
(0.998022 -0.0834537 6.30798e-20)
(1.00128 -0.0735548 0)
(1.00363 -0.0641465 5.83599e-20)
(1.00516 -0.0552317 -1.09402e-19)
(1.00596 -0.046806 1.05389e-19)
(1.00612 -0.0388337 5.21131e-20)
(1.00576 -0.0312339 -2.48412e-19)
(1.00494 -0.0239143 1.61834e-22)
(1.00331 -0.0169747 3.71561e-19)
(0.999956 -0.0109168 -2.7154e-19)
(0.995897 -0.00565129 1.6332e-19)
(0.955771 -0.410721 1.69398e-20)
(0.95446 -0.406968 8.80165e-20)
(0.936224 -0.343142 -7.78469e-20)
(0.936142 -0.28581 -2.78192e-19)
(0.942062 -0.244356 2.56e-19)
(0.951316 -0.213343 0)
(0.961066 -0.189187 0)
(0.970421 -0.169496 -8.4824e-20)
(0.978974 -0.152784 -8.12028e-20)
(0.986524 -0.138119 0)
(0.993001 -0.124878 0)
(0.998385 -0.112639 1.72281e-21)
(1.00269 -0.101126 -1.26121e-19)
(1.00595 -0.0901692 0)
(1.00825 -0.0796901 0)
(1.00969 -0.0696732 0)
(1.01035 -0.0601312 3.23884e-19)
(1.01031 -0.0510705 -4.15142e-19)
(1.00966 -0.0424641 -9.84749e-20)
(1.0085 -0.0342278 9.75934e-20)
(1.00693 -0.026262 -2.77995e-19)
(1.00447 -0.0187336 -8.8924e-20)
(0.999909 -0.0123655 -8.8883e-20)
(0.99482 -0.0072951 -7.83271e-20)
(1.00393 -0.345204 -1.79758e-19)
(0.998347 -0.3771 1.47847e-19)
(0.973117 -0.332839 3.57447e-19)
(0.965487 -0.285058 5.33645e-19)
(0.966319 -0.24803 -1.09238e-19)
(0.97187 -0.219073 -5.56356e-21)
(0.978864 -0.195885 9.06905e-20)
(0.986123 -0.176643 0)
(0.992991 -0.160093 0)
(0.999132 -0.145403 0)
(1.00438 -0.132002 0)
(1.00865 -0.119497 2.53594e-19)
(1.01192 -0.107633 1.20901e-19)
(1.0142 -0.0962617 1.15407e-19)
(1.01556 -0.0853185 -2.24653e-19)
(1.01608 -0.0747985 0)
(1.01585 -0.0647236 0)
(1.01494 -0.0551111 1.01876e-19)
(1.01343 -0.0459432 9.82624e-20)
(1.01143 -0.0371305 -9.16603e-20)
(1.00904 -0.0285581 2.72049e-19)
(1.00572 -0.0204592 -2.63486e-19)
(0.999885 -0.0138502 3.36721e-19)
(0.993908 -0.00929628 1.53721e-19)
(1.02784 -0.309834 2.78753e-19)
(1.02394 -0.348916 -2.1826e-19)
(0.999281 -0.320704 -3.50941e-19)
(0.989318 -0.282048 -2.54978e-19)
(0.987477 -0.249678 2.22119e-19)
(0.990551 -0.223077 -1.06463e-20)
(0.995529 -0.201109 0)
(1.00116 -0.182504 1.55625e-19)
(1.00665 -0.166272 -1.37829e-21)
(1.01161 -0.15169 -1.36526e-19)
(1.01578 -0.138246 -1.27971e-19)
(1.01906 -0.125588 -1.91093e-21)
(1.02137 -0.113484 2.32982e-19)
(1.02272 -0.101805 -1.14095e-21)
(1.02317 -0.0905008 -1.00822e-21)
(1.02278 -0.079574 -2.08381e-19)
(1.02165 -0.0690552 0)
(1.01984 -0.0589723 0)
(1.01742 -0.0493175 2.78127e-19)
(1.01453 -0.0399956 -9.20163e-20)
(1.01127 -0.0308707 0)
(1.00707 -0.0222516 0)
(0.999998 -0.0155425 -3.25832e-19)
(0.993143 -0.011622 2.95834e-19)
(1.03709 -0.289863 -7.01709e-20)
(1.03804 -0.327155 3.2542e-19)
(1.01786 -0.309848 -6.48334e-20)
(1.00847 -0.278711 5.62336e-20)
(1.0057 -0.250477 0)
(1.00736 -0.226121 -1.84391e-19)
(1.01102 -0.205385 1.61952e-19)
(1.01547 -0.18746 -4.12072e-21)
(1.01991 -0.171596 -1.38619e-19)
(1.0239 -0.15718 2.61078e-19)
(1.02717 -0.143763 -1.23768e-19)
(1.02956 -0.131028 0)
(1.031 -0.118769 0)
(1.03149 -0.106871 0)
(1.03106 -0.0952919 -1.01582e-19)
(1.02979 -0.0840435 -1.01424e-19)
(1.02776 -0.0731616 3.85328e-19)
(1.02503 -0.0626848 -1.86274e-19)
(1.02169 -0.0526169 8.78355e-20)
(1.01788 -0.0428597 -2.61992e-19)
(1.01373 -0.0332643 8.2128e-20)
(1.00862 -0.0242507 0)
(1.00037 -0.0176708 -3.93178e-19)
(0.992265 -0.0142125 -1.12635e-19)
(1.03777 -0.279552 -6.89092e-20)
(1.0447 -0.3123 -2.02343e-19)
(1.03119 -0.301651 0)
(1.02396 -0.276226 0)
(1.02143 -0.251309 9.43806e-20)
(1.02253 -0.228842 -8.49804e-20)
(1.02547 -0.209168 1.51035e-19)
(1.02913 -0.191846 -7.05151e-21)
(1.03281 -0.176311 0)
(1.03604 -0.162057 0)
(1.03855 -0.148689 0)
(1.04017 -0.135922 0)
(1.04082 -0.123567 -1.05258e-19)
(1.0405 -0.111519 0)
(1.03924 -0.0997418 -9.68862e-20)
(1.03712 -0.088248 9.40469e-20)
(1.0342 -0.0770785 0)
(1.03057 -0.0662807 -2.65264e-19)
(1.0263 -0.0558693 1.72454e-19)
(1.02155 -0.0457435 -4.13493e-19)
(1.01646 -0.0357423 1.61327e-19)
(1.01039 -0.0264055 0)
(1.0009 -0.0200594 3.82426e-19)
(0.991497 -0.0171567 -4.53851e-19)
(1.03384 -0.276585 0)
(1.04697 -0.303962 0)
(1.04099 -0.296717 -1.13865e-19)
(1.03673 -0.275295 9.90227e-20)
(1.03523 -0.252782 8.91631e-20)
(1.03643 -0.231723 -8.06724e-20)
(1.03908 -0.212835 -1.51888e-19)
(1.0423 -0.195937 -3.76087e-21)
(1.04544 -0.180623 1.24138e-19)
(1.04808 -0.166473 -1.20239e-19)
(1.04995 -0.153138 0)
(1.0509 -0.140355 0)
(1.05085 -0.127943 1.05221e-19)
(1.04979 -0.115801 -1.96993e-19)
(1.04775 -0.103891 2.82673e-19)
(1.0448 -0.0922228 8.93517e-20)
(1.04103 -0.0808388 0)
(1.03649 -0.0697928 3.65021e-21)
(1.03129 -0.059109 8.37782e-20)
(1.02557 -0.0486838 -1.55947e-19)
(1.01951 -0.0383431 7.84938e-20)
(1.01241 -0.028744 -7.34048e-20)
(1.00169 -0.0227104 0)
(0.990955 -0.0204816 6.65646e-20)
(1.02825 -0.279241 0)
(1.04719 -0.301713 -1.6783e-19)
(1.04862 -0.295288 -5.26687e-20)
(1.04767 -0.276316 1.84154e-19)
(1.04769 -0.255316 0)
(1.04944 -0.235121 -1.49587e-19)
(1.05217 -0.216661 -2.78951e-19)
(1.05518 -0.199947 1.31282e-19)
(1.05795 -0.184692 -1.25587e-19)
(1.06012 -0.170547 1.1475e-19)
(1.06145 -0.157196 -2.16978e-19)
(1.06181 -0.144387 2.68185e-21)
(1.06113 -0.131941 0)
(1.05938 -0.119749 0)
(1.05661 -0.107764 -9.24915e-20)
(1.05289 -0.0959897 -8.90516e-20)
(1.04827 -0.0844629 8.20378e-20)
(1.04285 -0.0732411 8.29761e-20)
(1.03671 -0.0623561 8.02237e-20)
(1.03001 -0.0517011 -2.25114e-19)
(1.02292 -0.0410869 2.22218e-19)
(1.01476 -0.0312816 3.21159e-21)
(1.00282 -0.0256222 6.92879e-20)
(0.990723 -0.0241951 -6.68955e-20)
(1.0219 -0.286472 -6.56595e-20)
(1.04709 -0.303832 2.75565e-19)
(1.05512 -0.297271 1.98766e-19)
(1.05756 -0.279472 -9.44201e-20)
(1.05941 -0.259178 -2.36823e-19)
(1.06202 -0.239284 2.20196e-19)
(1.06504 -0.220856 2.10583e-19)
(1.06799 -0.204038 -2.4757e-19)
(1.0705 -0.188639 2.30898e-19)
(1.07227 -0.174366 -1.12885e-19)
(1.07313 -0.160923 1.03698e-19)
(1.07295 -0.148059 1.0078e-19)
(1.07169 -0.135585 9.11375e-20)
(1.06931 -0.123376 -8.72287e-20)
(1.06587 -0.11137 2.55496e-19)
(1.0614 -0.099554 8.03548e-20)
(1.05598 -0.0879563 -1.63658e-19)
(1.0497 -0.0766328 -1.5403e-19)
(1.04262 -0.0656198 1.49323e-19)
(1.03491 -0.0548071 0)
(1.02676 -0.0439895 3.51204e-19)
(1.01749 -0.0340347 -2.02157e-19)
(1.00437 -0.0287927 -6.92746e-20)
(0.990882 -0.0282929 -6.17741e-20)
(1.01573 -0.29766 0)
(1.04749 -0.310146 0)
(1.0612 -0.302506 -1.98225e-19)
(1.06705 -0.284865 8.511e-20)
(1.07092 -0.264542 8.10171e-20)
(1.07456 -0.2444 -1.44284e-19)
(1.078 -0.225584 1.33137e-19)
(1.08097 -0.208342 2.43489e-19)
(1.08326 -0.192565 -3.3901e-19)
(1.08466 -0.178 1.01832e-19)
(1.08507 -0.164364 -9.88011e-20)
(1.08439 -0.151394 9.08467e-20)
(1.08258 -0.138882 -1.77851e-19)
(1.07962 -0.126679 8.72785e-20)
(1.07554 -0.114697 -1.63011e-19)
(1.07038 -0.102903 -8.04762e-20)
(1.0642 -0.0913074 -3.02394e-19)
(1.05707 -0.0799596 1.46268e-19)
(1.04907 -0.0688959 -1.41121e-19)
(1.04036 -0.0580027 5.87129e-22)
(1.03111 -0.0470581 1.3254e-19)
(1.0207 -0.0370141 0)
(1.00642 -0.0322143 -2.58672e-19)
(0.991516 -0.0327634 3.05775e-19)
(1.01027 -0.31246 3.29774e-20)
(1.04855 -0.320741 0)
(1.06742 -0.310956 4.59735e-20)
(1.07671 -0.292577 3.99608e-20)
(1.0827 -0.271536 -7.32161e-20)
(1.08747 -0.250613 6.22127e-20)
(1.09136 -0.230983 3.23546e-23)
(1.09436 -0.21298 1.67619e-19)
(1.09641 -0.196564 1.06638e-19)
(1.09743 -0.181516 -9.98201e-20)
(1.09737 -0.167556 0)
(1.09619 -0.154405 -2.64214e-21)
(1.09385 -0.141824 2.50639e-21)
(1.09034 -0.129634 2.39175e-19)
(1.08566 -0.117714 7.9315e-20)
(1.07985 -0.106001 -2.20439e-19)
(1.07296 -0.0944836 7.34666e-20)
(1.06503 -0.083194 6.72067e-20)
(1.05613 -0.0721641 -1.33452e-19)
(1.04641 -0.0612751 2.5853e-19)
(1.03605 -0.0502885 -1.25392e-19)
(1.02447 -0.0402208 0)
(1.00905 -0.0358709 6.04254e-20)
(0.992713 -0.0375875 -5.68779e-20)
(1.00574 -0.330363 -2.15472e-19)
(1.05053 -0.334713 0)
(1.07435 -0.322544 0)
(1.08708 -0.302645 0)
(1.09521 -0.280258 6.88428e-20)
(1.10111 -0.258048 -1.93987e-19)
(1.10543 -0.23719 0)
(1.10841 -0.218081 -1.12224e-19)
(1.11015 -0.200741 9.74892e-20)
(1.11072 -0.184987 -9.14102e-20)
(1.11014 -0.17054 0)
(1.10842 -0.1571 -8.13402e-20)
(1.10555 -0.144395 -7.72501e-20)
(1.1015 -0.132206 -7.60057e-20)
(1.09626 -0.120372 -1.43387e-19)
(1.08985 -0.108794 2.12021e-19)
(1.08228 -0.0974278 -6.93798e-20)
(1.0736 -0.0862841 -6.70287e-20)
(1.06385 -0.0753817 -6.46335e-20)
(1.05315 -0.0645932 1.81506e-19)
(1.04167 -0.0536615 -1.18658e-19)
(1.0289 -0.0436433 1.15559e-19)
(1.01238 -0.0397332 -2.38044e-19)
(0.994559 -0.0427375 2.81117e-19)
(1.00213 -0.351374 9.73934e-20)
(1.05368 -0.352081 2.58945e-20)
(1.08248 -0.337133 0)
(1.09864 -0.315049 0)
(1.10887 -0.290754 -1.26739e-19)
(1.11584 -0.2668 2.91515e-22)
(1.12053 -0.24433 -5.24551e-20)
(1.12338 -0.223777 5.09343e-20)
(1.12471 -0.205217 -9.90398e-20)
(1.12472 -0.188504 1.82393e-19)
(1.12353 -0.17337 -4.01219e-20)
(1.12121 -0.159496 4.12649e-20)
(1.11775 -0.146577 -3.38954e-20)
(1.11314 -0.134347 3.9216e-20)
(1.10735 -0.122601 2.41165e-19)
(1.10037 -0.111198 -3.38959e-20)
(1.09218 -0.100053 -3.46708e-20)
(1.0828 -0.0891465 0)
(1.07225 -0.0784754 5.74166e-20)
(1.06062 -0.067899 -2.88795e-19)
(1.04805 -0.0571369 -3.58451e-22)
(1.03409 -0.0472517 2.48204e-19)
(1.0165 -0.0437495 -1.66447e-19)
(0.997139 -0.0481726 2.60493e-20)
(0.99935 -0.375699 1.02142e-21)
(1.05828 -0.372813 -2.49148e-20)
(1.09225 -0.354581 1.1371e-19)
(1.11184 -0.329703 -9.90113e-20)
(1.12409 -0.302993 6.28862e-20)
(1.13204 -0.276893 0)
(1.13698 -0.252481 5.31892e-20)
(1.13959 -0.230185 0)
(1.14037 -0.210114 -4.25483e-20)
(1.13967 -0.192171 -1.95781e-21)
(1.13773 -0.176112 1.59714e-19)
(1.13468 -0.161618 -1.13173e-19)
(1.13055 -0.14835 -6.83636e-20)
(1.12533 -0.136 1.02133e-19)
(1.11897 -0.124314 -6.44498e-20)
(1.11142 -0.113101 -6.18632e-20)
(1.10265 -0.102234 -5.95923e-20)
(1.09264 -0.0916532 -1.15209e-19)
(1.08136 -0.0813258 2.2283e-19)
(1.06887 -0.071092 -1.34251e-19)
(1.05527 -0.0606403 0)
(1.04016 -0.0509868 -5.15992e-20)
(1.02154 -0.0478221 0)
(1.00052 -0.053825 -1.2719e-21)
(0.9974 -0.403622 1.04473e-19)
(1.06464 -0.39689 1.09012e-19)
(1.10409 -0.374724 -7.58561e-20)
(1.12712 -0.346425 9.55344e-20)
(1.14126 -0.316824 -5.68356e-22)
(1.15006 -0.288233 -3.04728e-21)
(1.15512 -0.261618 4.65836e-20)
(1.15737 -0.237347 2.21148e-20)
(1.15745 -0.215523 4.36158e-20)
(1.15587 -0.196087 -3.27649e-21)
(1.153 -0.178846 -1.48064e-21)
(1.14904 -0.163499 0)
(1.1441 -0.149699 3.44979e-20)
(1.13815 -0.1371 0)
(1.13115 -0.1254 3.1329e-20)
(1.12303 -0.114356 -1.56271e-22)
(1.11369 -0.103794 8.45638e-20)
(1.10308 -0.0936098 -5.40451e-20)
(1.09115 -0.083737 5.22064e-20)
(1.07789 -0.073995 -2.4443e-20)
(1.06335 -0.0640327 4.91979e-20)
(1.04719 -0.0547335 -7.50077e-20)
(1.02762 -0.0517498 9.72674e-20)
(1.00474 -0.0595608 -2.51033e-20)
(0.996333 -0.435347 2.3272e-21)
(1.07314 -0.42424 -9.40507e-20)
(1.11849 -0.397311 1.73652e-20)
(1.14491 -0.364902 0)
(1.16078 -0.331929 2.43325e-20)
(1.17023 -0.300544 -9.24385e-20)
(1.17527 -0.271542 2.07945e-20)
(1.17703 -0.245158 0)
(1.17628 -0.221429 0)
(1.17366 -0.200301 -3.7528e-20)
(1.16965 -0.181632 -6.98605e-20)
(1.16458 -0.165178 3.20742e-20)
(1.15861 -0.150613 0)
(1.15178 -0.137575 0)
(1.14402 -0.125724 -2.83629e-20)
(1.13523 -0.114767 -1.18631e-21)
(1.12529 -0.10448 0)
(1.11411 -0.0947152 -5.06582e-20)
(1.10157 -0.0853742 4.88498e-20)
(1.08761 -0.0762733 0)
(1.07224 -0.0670349 0)
(1.05524 -0.0582598 0)
(1.03497 -0.0550539 4.7844e-20)
(1.00971 -0.0650272 -4.65101e-20)
(0.996206 -0.470958 -7.08482e-21)
(1.08424 -0.454646 0)
(1.13593 -0.421923 6.90037e-21)
(1.16565 -0.384636 -1.70755e-20)
(1.18299 -0.347794 0)
(1.19285 -0.313338 9.72106e-21)
(1.19768 -0.281829 -2.65519e-20)
(1.19883 -0.253299 8.57528e-21)
(1.19717 -0.227638 -7.73773e-21)
(1.19339 -0.204733 1.6223e-20)
(1.18807 -0.184468 -6.87323e-21)
(1.18165 -0.166669 -1.46424e-20)
(1.17441 -0.151075 0)
(1.16645 -0.13735 -6.50403e-21)
(1.15774 -0.125133 6.27152e-21)
(1.14815 -0.11409 0)
(1.13753 -0.103949 2.45348e-20)
(1.12573 -0.0945159 -5.44527e-21)
(1.11257 -0.0856694 -2.28267e-20)
(1.09792 -0.077273 -5.41285e-21)
(1.08175 -0.0690322 0)
(1.06405 -0.0610665 -5.17705e-21)
(1.04366 -0.0565102 0)
(1.01545 -0.0690844 -5.74323e-21)
(0.997061 -0.510394 -3.33842e-21)
(1.09843 -0.487645 0)
(1.15691 -0.447875 0)
(1.18975 -0.404885 1.09146e-20)
(1.20819 -0.36368 0)
(1.21812 -0.325904 0)
(1.22251 -0.291821 8.38127e-21)
(1.22291 -0.261195 -1.67009e-21)
(1.22028 -0.233704 9.44242e-21)
(1.21532 -0.209096 0)
(1.20861 -0.187209 1.4319e-20)
(1.20067 -0.16792 -5.00612e-21)
(1.19191 -0.151056 -6.57373e-21)
(1.18255 -0.136357 1.42739e-20)
(1.17262 -0.123482 -7.7999e-21)
(1.16205 -0.112075 1.3996e-21)
(1.15062 -0.101814 0)
(1.13811 -0.0924507 4.39532e-21)
(1.12429 -0.0838269 1.2942e-21)
(1.1089 -0.0758711 5.39793e-21)
(1.09173 -0.0685565 -1.02513e-20)
(1.0726 -0.0618634 1.51248e-20)
(1.0514 -0.0543141 0)
(1.02623 -0.0692312 7.09739e-21)
(0.998914 -0.55323 1.81832e-20)
(1.11616 -0.522383 0)
(1.18181 -0.474102 0)
(1.21747 -0.424599 0)
(1.23656 -0.378597 0)
(1.24612 -0.33731 0)
(1.24974 -0.300641 -1.55556e-21)
(1.24923 -0.268041 1.58202e-21)
(1.2456 -0.238923 -4.00405e-21)
(1.23949 -0.212832 -1.45439e-21)
(1.23145 -0.189485 -5.46101e-21)
(1.22197 -0.168734 -4.59716e-21)
(1.21154 -0.150476 2.84195e-21)
(1.20054 -0.134555 -1.50702e-21)
(1.18915 -0.120713 -3.77581e-21)
(1.17736 -0.108608 -1.41794e-21)
(1.16499 -0.0978822 0)
(1.15175 -0.0882332 -3.55548e-21)
(1.13729 -0.0794371 -1.2952e-21)
(1.1212 -0.071304 0)
(1.10299 -0.0636379 0)
(1.0821 -0.0569373 0)
(1.05861 -0.0542586 4.75159e-21)
(1.0355 -0.0634935 -3.56376e-21)
(1.0016 -0.598256 -4.35797e-20)
(1.13768 -0.557379 1.07762e-20)
(1.21077 -0.499001 0)
(1.24888 -0.442333 0)
(1.26807 -0.391265 3.19913e-21)
(1.27674 -0.346404 1.95407e-21)
(1.27918 -0.307234 1.1252e-20)
(1.27752 -0.272853 3.16504e-21)
(1.27283 -0.242384 1.0306e-20)
(1.26569 -0.215139 3.90254e-21)
(1.25651 -0.19066 1.44333e-20)
(1.24567 -0.168694 0)
(1.23363 -0.149137 0)
(1.22087 -0.131927 0)
(1.20778 -0.116937 5.31645e-21)
(1.19451 -0.103927 0)
(1.18098 -0.092584 0)
(1.16689 -0.0826123 4.92666e-21)
(1.15178 -0.0737766 -8.69577e-21)
(1.13509 -0.0658403 -8.48537e-21)
(1.11619 -0.0585998 0)
(1.09451 -0.0530046 0)
(1.07011 -0.0532296 1.30312e-20)
(1.04355 -0.0606802 -1.2783e-20)
(1.0049 -0.643818 -1.27139e-20)
(1.16281 -0.590292 -1.18983e-20)
(1.24339 -0.520331 1.90086e-21)
(1.28359 -0.456179 2.35401e-22)
(1.30234 -0.400084 -6.41152e-21)
(1.30956 -0.351815 2.42497e-21)
(1.31039 -0.310388 -6.72121e-21)
(1.3073 -0.274524 -7.44321e-21)
(1.30145 -0.24305 -1.05051e-20)
(1.29336 -0.215048 -8.58041e-21)
(1.2833 -0.189868 2.14312e-20)
(1.27146 -0.167112 1.63335e-20)
(1.25814 -0.146598 -3.20185e-20)
(1.24377 -0.128286 1.60257e-20)
(1.22886 -0.112172 1.62822e-20)
(1.21381 -0.0981845 1.63247e-20)
(1.19872 -0.0861467 0)
(1.18336 -0.0758363 0)
(1.16723 -0.0670374 8.74756e-21)
(1.14965 -0.0594985 2.36766e-20)
(1.12983 -0.0530227 -3.20092e-20)
(1.10717 -0.0486555 3.06275e-20)
(1.08167 -0.0505039 -1.6064e-20)
(1.05272 -0.0579132 4.52148e-20)
(1.01003 -0.688122 3.04101e-20)
(1.19029 -0.617598 3.20883e-20)
(1.27842 -0.53509 -3.78405e-21)
(1.32062 -0.463712 -1.69113e-21)
(1.3385 -0.403106 4.62371e-21)
(1.34378 -0.351952 -2.44062e-21)
(1.34257 -0.308762 -2.80109e-21)
(1.33777 -0.271875 -5.17161e-21)
(1.33064 -0.23984 1.66374e-20)
(1.32166 -0.211529 0)
(1.31097 -0.186128 -4.39235e-21)
(1.29856 -0.163096 -1.48095e-20)
(1.28449 -0.142138 3.02711e-20)
(1.26899 -0.123161 1.35537e-20)
(1.25249 -0.106213 -2.788e-20)
(1.23552 -0.0913775 -4.61292e-20)
(1.21846 -0.0786747 0)
(1.20132 -0.0680316 0)
(1.18369 -0.0592938 0)
(1.16486 -0.0522076 -2.86585e-20)
(1.14393 -0.046555 0)
(1.12021 -0.0433557 0)
(1.09368 -0.0464744 -1.55324e-20)
(1.06301 -0.0546016 -6.50179e-21)
(1.02577 -0.731544 3.0402e-21)
(1.21767 -0.637304 -4.15932e-20)
(1.31218 -0.540396 0)
(1.35723 -0.462424 0)
(1.37456 -0.398206 0)
(1.37786 -0.345079 5.33404e-21)
(1.37446 -0.300929 2.72066e-21)
(1.36779 -0.263696 -6.09567e-21)
(1.35929 -0.231678 -1.19752e-21)
(1.34947 -0.203581 0)
(1.33835 -0.178466 -9.34923e-21)
(1.32578 -0.155687 7.02798e-21)
(1.31157 -0.134852 -8.72407e-21)
(1.29565 -0.115793 -1.31613e-20)
(1.27819 -0.0985318 2.47876e-20)
(1.25962 -0.0832244 0)
(1.24048 -0.0700673 1.19419e-20)
(1.22113 -0.0591868 1.48342e-20)
(1.2015 -0.0505524 -6.59201e-20)
(1.18101 -0.0439399 7.45471e-20)
(1.15875 -0.0391039 0)
(1.13395 -0.0370128 -5.19231e-20)
(1.10647 -0.0412963 1.11732e-19)
(1.07441 -0.0505797 -5.30508e-20)
(1.04842 -0.81056 1.25963e-19)
(1.25491 -0.653421 4.19017e-20)
(1.34858 -0.538463 -3.74956e-20)
(1.39299 -0.451394 0)
(1.40875 -0.383799 0)
(1.40987 -0.32968 -3.15186e-20)
(1.40431 -0.285579 0)
(1.39579 -0.248865 0)
(1.38597 -0.217581 1.44669e-21)
(1.37538 -0.190303 -1.00373e-21)
(1.36403 -0.166011 -2.05662e-21)
(1.35164 -0.144001 8.39347e-21)
(1.33783 -0.123831 2.19735e-21)
(1.32228 -0.105278 2.54219e-20)
(1.30478 -0.0883187 -2.87061e-20)
(1.28543 -0.0731054 3.09414e-20)
(1.26464 -0.0599172 -3.28446e-20)
(1.24303 -0.0490519 1.22001e-20)
(1.22102 -0.0406518 -2.08147e-21)
(1.19845 -0.0345734 -2.16192e-20)
(1.1746 -0.0305692 0)
(1.14863 -0.0295517 9.73352e-21)
(1.12025 -0.0349494 -5.57842e-20)
(1.08701 -0.0456807 4.30136e-20)
(0.0478206 -0.0373902 3.20032e-20)
(0.086137 -0.11166 1.40011e-18)
(0.139886 -0.214955 5.43677e-19)
(0.179469 -0.282494 -9.49048e-19)
(0.235843 -0.387343 0)
(0.198505 -0.351715 -7.54951e-19)
(0.0501574 -0.0768288 -9.95234e-19)
(0.0836186 -0.157316 -6.82243e-19)
(0.125678 -0.238901 0)
(0.156157 -0.294717 4.63464e-19)
(0.200826 -0.357427 0)
(0.204915 -0.332045 4.92523e-19)
(0.0412665 -0.0997921 1.91993e-18)
(0.0720937 -0.173625 0)
(0.104771 -0.239387 5.04051e-19)
(0.129251 -0.283391 5.6237e-20)
(0.163161 -0.320735 5.4164e-20)
(0.18389 -0.305727 2.871e-19)
(0.0260747 -0.116424 -9.78062e-19)
(0.0565998 -0.179635 1.87579e-20)
(0.0817687 -0.232604 -5.25561e-19)
(0.101 -0.266045 5.02734e-20)
(0.128418 -0.286646 0)
(0.159641 -0.273021 -2.72444e-19)
(0.0082481 -0.126627 1.48998e-20)
(0.0390809 -0.179078 -1.79127e-20)
(0.0580296 -0.221299 0)
(0.0727265 -0.245476 0)
(0.0950614 -0.254604 -9.39391e-20)
(0.127616 -0.239766 8.58504e-20)
(-0.0103532 -0.132489 -4.47171e-20)
(0.0204518 -0.174267 -5.24324e-19)
(0.0340984 -0.207118 4.32696e-19)
(0.0446363 -0.223192 -3.83756e-19)
(0.0621062 -0.22415 -3.56312e-19)
(0.0916369 -0.206994 0)
(-0.0282023 -0.135831 0)
(0.00136585 -0.167018 1.0447e-18)
(0.0103135 -0.19146 -3.90165e-19)
(0.0169401 -0.200404 6.4607e-19)
(0.0295425 -0.195153 8.61311e-19)
(0.054117 -0.175269 -8.10566e-20)
(-0.0442325 -0.137504 3.00096e-20)
(-0.017552 -0.158554 -5.39639e-19)
(-0.0129451 -0.175371 -3.57414e-19)
(-0.0101223 -0.178039 -4.04549e-19)
(-0.002109 -0.167792 -4.20941e-19)
(0.0167445 -0.145216 -2.41218e-19)
(-0.05792 -0.137709 -1.49117e-20)
(-0.0357724 -0.149622 0)
(-0.0352729 -0.15955 4.82536e-20)
(-0.0360988 -0.15676 -4.33017e-20)
(-0.0323723 -0.142318 -3.27736e-19)
(-0.019167 -0.117458 3.12543e-19)
(-0.0691298 -0.136363 0)
(-0.0529037 -0.140663 0)
(-0.0563161 -0.144442 3.92963e-19)
(-0.0605885 -0.136896 3.48547e-19)
(-0.0608108 -0.119073 3.2152e-19)
(-0.0526818 -0.0925402 -3.01286e-19)
(-0.0778595 -0.133375 0)
(-0.0686458 -0.131927 0)
(-0.0758166 -0.130291 0)
(-0.0833229 -0.118653 5.09554e-23)
(-0.0870389 -0.0982854 7.94333e-20)
(-0.0832296 -0.07082 2.96685e-19)
(-0.0842047 -0.128703 0)
(-0.0828374 -0.123452 0)
(-0.0935958 -0.117176 3.39807e-19)
(-0.104092 -0.102152 -2.98797e-19)
(-0.110822 -0.0800307 0)
(-0.110541 -0.0524302 7.19081e-20)
(-0.0884689 -0.122317 0)
(-0.0953204 -0.115193 5.28724e-19)
(-0.109546 -0.105109 -4.12152e-19)
(-0.122785 -0.0873801 0)
(-0.132062 -0.0642697 0)
(-0.134557 -0.0373025 0)
(-0.0909217 -0.114169 4.8112e-19)
(-0.106016 -0.107129 -4.9765e-19)
(-0.12361 -0.0940331 0)
(-0.139368 -0.0742478 0)
(-0.150762 -0.0508652 -3.80423e-20)
(-0.155355 -0.0252152 -3.45265e-20)
(-0.0918244 -0.104315 -4.81848e-19)
(-0.114874 -0.0991766 0)
(-0.13578 -0.0838318 0)
(-0.15387 -0.062606 1.70448e-19)
(-0.167 -0.0396086 0)
(-0.173103 -0.0158462 3.4039e-20)
(-0.0913713 -0.0928828 0)
(-0.121878 -0.0911966 0)
(-0.146095 -0.0743461 0)
(-0.166366 -0.0522641 -1.94897e-19)
(-0.180905 -0.0302469 1.89214e-20)
(-0.188015 -0.00881872 3.38966e-20)
(-0.0896534 -0.0800634 -2.49583e-19)
(-0.127037 -0.0830048 1.22116e-20)
(-0.154632 -0.0653838 -6.35747e-21)
(-0.176967 -0.0430031 -8.82846e-20)
(-0.192638 -0.0225015 7.71537e-20)
(-0.200326 -0.0037338 -1.70351e-20)
(-0.086627 -0.0660756 2.4121e-19)
(-0.130373 -0.0743717 0)
(-0.161498 -0.0567292 0)
(-0.18579 -0.034587 9.12142e-20)
(-0.202374 -0.0160738 -6.94001e-20)
(-0.210283 -0.000118556 -8.62483e-21)
(-0.0821028 -0.0511361 1.94121e-21)
(-0.131898 -0.0650065 6.864e-20)
(-0.166812 -0.0481467 -1.75953e-21)
(-0.192932 -0.0267677 -4.59686e-20)
(-0.210256 -0.0106606 -1.02647e-20)
(-0.218138 0.00233368 2.21071e-21)
(-0.0757553 -0.0354253 -2.46396e-19)
(-0.131579 -0.0545451 -7.37284e-20)
(-0.170682 -0.0393955 0)
(-0.198419 -0.0192959 3.74698e-20)
(-0.216326 -0.00592942 1.07127e-20)
(-0.224188 0.00396275 0)
(-0.0671779 -0.0191195 2.49142e-19)
(-0.129258 -0.0425901 -3.36538e-19)
(-0.173139 -0.030298 2.68366e-19)
(-0.202102 -0.0119588 0)
(-0.220391 -0.00138342 2.28665e-20)
(-0.228884 0.00542073 -5.88735e-20)
(-0.0563797 -0.00252453 -5.15598e-19)
(-0.12432 -0.0288072 3.23902e-19)
(-0.173905 -0.0208295 -2.57843e-19)
(-0.20328 -0.00458289 0)
(-0.221581 0.00407463 4.91956e-20)
(-0.23283 0.00790498 -4.20319e-20)
(-0.0433422 0.0125822 5.28429e-19)
(-0.114614 -0.0124437 -2.42041e-20)
(-0.171538 -0.0103617 -1.94196e-20)
(-0.199946 0.0041035 3.08839e-20)
(-0.216796 0.0133929 0)
(-0.236077 0.0141123 1.40376e-19)
(-0.023724 0.0284891 1.14272e-18)
(-0.0908 0.014985 -2.54233e-20)
(-0.160449 0.0108936 4.11678e-20)
(-0.187812 0.0227248 -5.73617e-19)
(-0.195593 0.0208443 -4.63504e-19)
(-0.222001 0.00841363 -9.66648e-20)
(0.902528 -0.584114 -1.85457e-19)
(1.24358 -0.609074 0)
(1.3755 -0.512293 0)
(1.42441 -0.427256 0)
(1.43852 -0.358434 1.25758e-19)
(1.4376 -0.304684 6.54897e-20)
(1.43003 -0.261776 -3.07223e-20)
(1.41989 -0.226539 0)
(1.40893 -0.196785 -1.08719e-20)
(1.39776 -0.170985 -2.08933e-20)
(1.38638 -0.148073 7.50937e-21)
(1.37446 -0.12733 -3.07238e-21)
(1.36149 -0.108305 3.79891e-21)
(1.34696 -0.0907684 -1.55096e-20)
(1.33038 -0.0746773 2.98962e-20)
(1.31141 -0.0601632 -3.76964e-20)
(1.29006 -0.0475098 -1.47616e-20)
(1.26682 -0.037094 -2.14925e-20)
(1.24247 -0.0292098 2.50248e-20)
(1.21752 -0.0238321 1.0021e-20)
(1.19175 -0.020762 0)
(1.16448 -0.0208205 -9.8725e-21)
(1.13522 -0.0273071 1.76305e-20)
(1.10105 -0.0397028 0)
(0.551269 -0.299252 -6.47529e-20)
(1.14624 -0.495164 -8.52361e-20)
(1.36625 -0.459117 7.37961e-20)
(1.44224 -0.386978 2.27306e-19)
(1.45998 -0.320781 -1.28481e-19)
(1.45813 -0.269163 0)
(1.44923 -0.228793 0)
(1.4379 -0.196126 2.20565e-20)
(1.42618 -0.168775 7.75306e-21)
(1.41477 -0.145152 0)
(1.40364 -0.124186 0)
(1.39245 -0.105182 6.53042e-21)
(1.38066 -0.0877241 2.6953e-21)
(1.36763 -0.0716158 0)
(1.3527 -0.0568371 0)
(1.33525 -0.0435254 0)
(1.31479 -0.0319587 4.17539e-20)
(1.2913 -0.022522 -5.32621e-20)
(1.26545 -0.0155833 -1.24885e-20)
(1.23829 -0.011231 1.71883e-20)
(1.2104 -0.00931089 -4.09637e-20)
(1.18163 -0.0105383 -1.30912e-20)
(1.15155 -0.0181182 -1.79326e-20)
(1.11675 -0.0323327 -1.3296e-20)
(0.379735 -0.233796 3.95596e-19)
(0.879356 -0.332653 -2.33999e-19)
(1.28108 -0.375667 -4.4882e-19)
(1.42632 -0.326336 -5.05499e-19)
(1.46522 -0.268936 1.1733e-19)
(1.46733 -0.222094 -1.04899e-20)
(1.4587 -0.185936 -5.31103e-20)
(1.44721 -0.157147 0)
(1.43545 -0.133213 0)
(1.42431 -0.112529 0)
(1.41385 -0.0940909 0)
(1.40372 -0.0772802 -2.60025e-20)
(1.39339 -0.0617603 -4.07576e-21)
(1.3822 -0.0474074 5.06784e-21)
(1.36941 -0.0342624 -1.13293e-21)
(1.35426 -0.0225039 0)
(1.33598 -0.0124303 0)
(1.314 -0.0044317 1.17568e-20)
(1.28837 0.00109872 1.26542e-20)
(1.26004 0.00400049 -1.02079e-20)
(1.23029 0.00442826 3.50053e-20)
(1.19998 0.0017969 -3.73364e-20)
(1.16912 -0.00691095 4.79605e-20)
(1.13407 -0.0230482 2.4244e-20)
(0.289715 -0.21273 -5.59452e-19)
(0.629949 -0.218063 3.24965e-19)
(1.08722 -0.259542 4.60869e-19)
(1.34587 -0.241707 2.76888e-19)
(1.43643 -0.199228 -2.02261e-19)
(1.45635 -0.161232 -2.37065e-20)
(1.45321 -0.13205 0)
(1.44395 -0.108954 -7.28431e-20)
(1.43368 -0.0897426 1.51785e-20)
(1.42384 -0.0729226 4.88162e-20)
(1.41475 -0.0576565 2.56028e-20)
(1.40619 -0.0435 -7.48164e-21)
(1.39768 -0.0302585 -2.00138e-20)
(1.38859 -0.0179274 9.61425e-21)
(1.37823 -0.00664556 7.80575e-21)
(1.36582 0.00333623 1.14305e-21)
(1.35051 0.011675 0)