/*--------------------------------*- C++ -*----------------------------------*  =========                 |
  \      /  F ield         | OpenFOAM: The Open Source CFD Toolbox
   \    /   O peration     | Website:  https://openfoam.org
    \  /    A nd           | Version:  11
     \/     M anipulation  |
\*---------------------------------------------------------------------------*/
FoamFile
{
    format      ascii;
    class       volScalarField;
    object      U;
}
// * * * * * * * * * * * * * * * * * * * * * * * * * * * * * * * * * * * * * //

dimensions      [0 1 -1 0 0 0 0];

internalField   nonuniform List<scalar> 
2880
( 
0.05273043477251946
0.1424698976648472
0.23928763633813271
0.2875884544107443
0.30312582728298043
0.30470251434666096
0.09487524754210518
0.1917604761663445
0.2568675876860191
0.29315585073165973
0.30143732093389963
0.2868852713366264
0.1126310839668306
0.20903852697576789
0.26155462496801163
0.2810210517949595
0.2826760339550729
0.271721151205678
0.13185446379343613
0.218853734746175
0.2576294621258516
0.27096983898081994
0.26699169624583463
0.24148661332133387
0.15084265373245082
0.2223172615537297
0.2586511618234685
0.2627116055044736
0.25512770388900907
0.23664670802698148
0.17005768987570458
0.2327706853351758
0.2568952286551209
0.2598450206507028
0.2345186382112514
0.2280606425950751
0.18563831120342578
0.2397915743665895
0.25660580393720234
0.24856574295732647
0.23483600546815542
0.22553931733401655
0.20025074309398672
0.241634254559534
0.25734187541458864
0.24760348823726053
0.2432172650080855
0.22208811415445448
0.21313288615420847
0.2427684760539221
0.2501859196802462
0.2462875751540271
0.23297839558391092
0.21462945225682448
0.2166098386781424
0.2438280889251602
0.25455152158616307
0.2493948916373512
0.22897649467737177
0.21061608108571478
0.22474220216832255
0.24651372791609577
0.2614893918709274
0.24492616578774115
0.2464893882130985
0.21657530318996898
0.22539902907653336
0.24729774356474193
0.2605314604346984
0.25190652658866935
0.22939801725948433
0.22707962509275995
0.23142824451649519
0.25335850206844923
0.266430682103709
0.26019708832960614
0.24594927809056827
0.21386066201633142
0.22179073780885247
0.2444564691944776
0.26922470239828566
0.26111119879576855
0.24752278674325806
0.21368320574862193
0.22191963430432143
0.25207846030817793
0.26929875496461037
0.27075578655382115
0.2535576807947476
0.20907147474254215
0.21474495443241196
0.24260824522188104
0.27379252127417
0.27724285315444336
0.2577133560692751
0.2193398662802406
0.2089560437186447
0.24477433346415484
0.2770864426779261
0.2888513394866893
0.2657734860365054
0.22470310836482554
0.20439556084615573
0.23910481594476896
0.2834069669408486
0.2915458432934848
0.2729686127516385
0.23696179304823986
0.1911881827246537
0.2321939058372427
0.2823124819733973
0.3044987741887144
0.28898014640980646
0.23916803896187974
0.17321712384407473
0.22653555814282172
0.28245909172185923
0.3086907514331758
0.2998562717247063
0.24550976531197116
0.1518166985971325
0.21848897452820684
0.2812617741296947
0.31579677960422314
0.3244755739026115
0.25548731633369065
0.13245812677887525
0.19887236851974097
0.2704269641201549
0.3135614253719293
0.35169068527149
0.275391900025956
0.11232436141374641
0.17817577825833272
0.26874948325894027
0.3106142556437488
0.3903704653685355
0.29883395132348056
0.06506275799889709
0.13303522396674552
0.23218255410387975
0.26573244296244924
0.4060387933813162
0.2667468977856747
0.2842207373540905
0.2564012098994882
0.26236043393901154
0.26911305263225516
0.3078889430350453
0.3082909753033741
0.34386647921695745
0.3781888159979231
0.39427325973948013
0.41028697501769706
0.41730295814872054
0.4634543381408325
0.4835544950002024
0.5297665979005026
0.560419223270562
0.5907341541579874
0.6289543562578022
0.6717804525910505
0.7008945680303437
0.7394886041380229
0.7528834488929769
0.7616733837555539
0.7971644367417446
0.8270027805558897
0.2874321536743971
0.27194320584629617
0.24900826478806026
0.23687946124035608
0.2737874204924786
0.27287392821118206
0.279194622036847
0.3166904084462925
0.30976058975674514
0.35942657333313965
0.37548158878433413
0.3887287284719273
0.4204605615893007
0.4802801649322035
0.5083688303175139
0.5259994893719563
0.5727753259611856
0.600901981101981
0.6360904298402942
0.6347348459157155
0.6804335346448649
0.6954636780624031
0.7140772566521811
0.7581694524574265
0.2854565684567225
0.27079155643162456
0.2483516347307988
0.24005073196367055
0.23655290460844358
0.23614777911399476
0.2325519343063649
0.24900686717342713
0.24141630119076274
0.26795149521595674
0.31455990561862923
0.3441453682829442
0.3789158119080659
0.41767829357228303
0.4431696507211388
0.46463648125423074
0.5104975519544117
0.5492660271128241
0.5680233369891267
0.5972153772073158
0.5918619113044882
0.6472907438782634
0.6491739831272334
0.6761229285205863
0.2790972080420815
0.2793647397051367
0.25724330852908095
0.20617272345791904
0.20455925500973227
0.18190961675033734
0.17716912935573148
0.20921978616646442
0.22971132131212546
0.2306476510511074
0.27976171855813736
0.31634631450226924
0.33173594712423193
0.3675183681996297
0.4029761860062049
0.42677147577776353
0.4637827339437881
0.4983306694774876
0.5151979747868124
0.5383159389845937
0.5428280527806325
0.5692847052612288
0.5867489534623318
0.607190167626545
0.2664872962563117
0.2785646966372019
0.23681662904379552
0.22174494536183753
0.16637729209952234
0.13649993978446684
0.13293508288713263
0.15712968587964526
0.20545033872154905
0.23077600340675164
0.26511538503692134
0.3001675020796931
0.33160610083102593
0.36121986881841006
0.37933099023373273
0.41194983256088424
0.43708115384422697
0.44699809293254344
0.4650003238756141
0.5023522474611499
0.5223708170699177
0.5288439615493759
0.5385792099829261
0.5704010582198835
0.23734742915214385
0.25132325853233733
0.23404930911058497
0.190485553437863
0.13722668361276336
0.11997998487647732
0.14772130720545973
0.1909299894722325
0.22012835123102392
0.24771516637092172
0.29398794482848034
0.3254195655608141
0.33013082383255465
0.36344971523917535
0.3715899103981175
0.40197844154453044
0.4108368372624903
0.44095952179955855
0.453126521299665
0.47089938533491504
0.48758306525946504
0.5110134142058433
0.5246841282537563
0.5554519347763713
0.22983449388708127
0.21398839639900175
0.21250068253450827
0.16948469503750885
0.11639482835745263
0.11590240669702334
0.19568273668825809
0.23216373413819413
0.28760501828367724
0.32214380507690576
0.3499592238527336
0.3684774578245803
0.38128290037498647
0.39285776473978273
0.4157907224125754
0.419533800407377
0.4396293282607996
0.46179527136079523
0.4665633440580649
0.4937961184805716
0.5052277614795515
0.5186797553689468
0.542257322070147
0.5610399581812822
0.23210806208696438
0.19961034502153024
0.18504186608103423
0.14133680882688648
0.14520113537238633
0.181536298911964
0.23230874594043127
0.3392634607222109
0.4006271674206108
0.41387103859748287
0.40929599593842914
0.44242207759393326
0.4570710566666766
0.4631013329061979
0.46889291381800335
0.47918955039793987
0.48900879531391817
0.5028026807501222
0.5070808048958549
0.535176371293772
0.5411669053881007
0.5513365853482688
0.5793836600048092
0.6004855935771625
0.20650190969630328
0.19648518290233313
0.1496514545697306
0.13951476300014454
0.18250835759531636
0.2606635314425041
0.36352597104150197
0.4267759471871835
0.48795131140531056
0.5167216138444274
0.5150485312778252
0.5391855945307698
0.5615676936042345
0.5525806061746692
0.5491461297147805
0.5519528417759618
0.5794224435776724
0.5720430470751992
0.5785919051318216
0.5898761377153889
0.6100091069943231
0.6224881542797935
0.6455873080738377
0.6744110695672556
0.19373900045014247
0.17430387721415985
0.15663202260386277
0.15467231516108437
0.24320031815153276
0.36496584686343314
0.47596802732326665
0.5625911336679101
0.6156231035247111
0.6524219468558696
0.6611916872039154
0.6434833011599579
0.6768400206937193
0.675030321467996
0.6565344702649807
0.6424024254919265
0.6766645559488591
0.6656841098923372
0.6783352145565129
0.6985631316258987
0.6993118258340977
0.7315745469585715
0.7401817373024824
0.7698651625672357
0.1853959761077299
0.1493540632973983
0.12340411617888414
0.18832320015594028
0.33454266394566456
0.4964627776614972
0.6313439208661642
0.6994153891940604
0.7131269112221128
0.7626115122377879
0.7722614933315006
0.7534720307301754
0.7425712357856997
0.7707987847981346
0.7837807498140157
0.799000898838766
0.7747518167265997
0.780578373267647
0.7851451696735056
0.8005190508753788
0.8391240286273336
0.833303975753388
0.8689703018937752
0.893217992335776
0.17021448754487506
0.13063682613043165
0.12544856509154234
0.2823689845173363
0.4539990926553518
0.6339539382384254
0.7493169914497224
0.7997130741005206
0.8505442535312867
0.8749699892080626
0.8462198557558266
0.8900140520225567
0.8845595729746121
0.9262213411044652
0.8989670358007431
0.9069314451865573
0.9043465545501207
0.9052797381523783
0.9219641056652084
0.9518503900147622
0.9602059963276668
0.9657801361513481
0.9850901104642541
1.0115014280458492
0.17732538214350513
0.1158832913065092
0.15822358604508568
0.3666747185098637
0.5993433192042916
0.767751228203264
0.878447974031883
0.9169643319378947
0.9445968370987073
0.9643926058185082
0.991128594870618
0.978842046132439
0.987203612204687
1.0062310742905838
0.9705470311967943
0.9919375859381863
1.0296660695497095
1.0233023801054755
1.0519594976261377
1.0606063786172917
1.0686212862069282
1.0956963779245377
1.1126204735620973
1.1390819672458574
0.16421926299346085
0.13027318152070377
0.22117700151260705
0.4907849087423422
0.7554392388568485
0.8750164179946012
0.9590306369429671
1.0039793489289075
0.9998588887291144
1.0447647107236981
1.0353775231694875
1.0609307696141896
1.029626762096385
1.099578545285809
1.0982927270617928
1.113619585353954
1.1193867018754287
1.1706431533920707
1.1477483813743887
1.184650716444976
1.1970745320415364
1.2016110833768305
1.2053341632304462
1.2240357424619808
0.16052929299669305
0.1360588289527212
0.3211887835628789
0.6385944222925305
0.8775725163060952
0.9936015715826326
1.0634671387941277
1.0531408874088097
1.0974050187496003
1.0999757719253351
1.1213369637938346
1.1279785499241943
1.1473132597655642
1.1385794655542034
1.2077878070404793
1.1942895443380037
1.2224030730837732
1.2320297107248306
1.2603547556589718
1.2787875310038368
1.271794650600726
1.2753438369651118
1.2915611281763777
1.3043822282375552
0.16151455978336293
0.16617159573656753
0.46901425496030535
0.8110043229333768
0.9900631853319324
1.0983859857036133
1.112731055874404
1.1361010468627137
1.1586449405034596
1.1678431316698952
1.182558321367859
1.1908677350331094
1.2088522028669932
1.2019759765255125
1.2562341437019708
1.2773188249870846
1.2859834317202294
1.3191992915589617
1.3246298774408634
1.3322746390474345
1.3599089065333605
1.3284942564763753
1.3364968309865026
1.325708825321277
0.1411553594333042
0.2526382386347193
0.6418012279306586
0.952958109191279
1.1235752943337916
1.170849591076883
1.189631627460457
1.1837285083892892
1.2464218569215495
1.2303345473894052
1.2670421880878675
1.252115794191638
1.2839417385776701
1.2919861540497308
1.3205402814071479
1.3285398304608436
1.3511141263431032
1.3617476285896541
1.3708003616110829
1.37608795078508
1.3731944853396736
1.3611909748747724
1.3483714076975057
1.3321588177381556
0.13114433210890475
0.3513261445601478
0.8325770041101564
1.0611120745988531
1.1671190894713501
1.2330086575197627
1.2480003953017624
1.264573344893439
1.2732670545735172
1.2733880475847332
1.313386337599071
1.3169565111906354
1.3486744372010655
1.3654884084965597
1.3524918935059616
1.3631525705876268
1.3764204742685906
1.3892221940120266
1.3888274107825944
1.3809374908881975
1.3694113578858789
1.35295034818799
1.3411966276554466
1.3065904339895802
0.13298228496711967
0.5436090091012525
0.9759010379004334
1.178386861646253
1.2665071030941144
1.3006146797748062
1.3026577465329898
1.309298133979819
1.3188404499297965
1.3238381493420124
1.361468919145565
1.3704511449274497
1.3598825771339145
1.3734711229182084
1.4067644507396921
1.3899417302508839
1.3918477661990156
1.381835418168228
1.3695031570364153
1.3600472657035019
1.348113277253168
1.3279394041507728
1.2990285598868125
1.2723503416942723
0.1630653897423453
0.7342334538563909
1.1274264706930066
1.2686853064967671
1.30791042790056
1.3236232770417868
1.3538625735610414
1.369295190049777
1.3768091669747282
1.391502371308205
1.4176175962074469
1.4099554484796857
1.415482011801541
1.3904668079169382
1.3845224957869566
1.3785192222400975
1.37270614906341
1.3595223341090505
1.3459216946130328
1.3349068621027684
1.3196742272181172
1.2859421525510624
1.2584447464912534
1.2272098248866876
0.2513163447408035
0.9278373292222232
1.2358909447247106
1.3258533406485902
1.3551311714478165
1.3766263200179734
1.393718668402063
1.408705924417362
1.4147565392440793
1.4317061835510168
1.4352258059375884
1.409616712098967
1.3938943206744274
1.3893470694242067
1.3748976712997205
1.3611457683320063
1.3537333997165615
1.3359160890347646
1.3143878346817903
1.2969629728044283
1.2717043519374798
1.24580217051121
1.216231509268627
1.1786327751924062
0.4505454956547794
1.116665288658822
1.3087981346686057
1.3590262625852196
1.3815713264293057
1.4206844608576754
1.426510956404338
1.4377090457676036
1.4264661662061868
1.4281503568340685
1.41981739906734
1.409536497810973
1.3924177096370542
1.365474437841774
1.348977411774745
1.331188031052684
1.3133494656130298
1.292798799196487
1.2747526471401034
1.2586343600580727
1.2402418885104012
1.2104171013335356
1.1806826870166998
1.1450232475592046
0.7398143448463766
1.222753658704011
1.3578499521186607
1.394608630580244
1.4075334954736205
1.4255965448887742
1.4357168823399404
1.4339625026071448
1.4445147634361735
1.42048228952502
1.4081659696772433
1.3838247339559016
1.359574961686027
1.3360812761639673
1.3181801906938562
1.2963597764227066
1.2816408393463437
1.2574793947552756
1.2528387670064864
1.2179933528977114
1.2095745039402255
1.166208697664284
1.1490098321994864
1.1109850643514831
1.0585357956895676
1.2835556610312648
1.3516438086934337
1.417069314993992
1.4426127668565296
1.4241937116015784
1.4336852779756524
1.4345911628551282
1.4237533826026703
1.4057534263807443
1.3764303785108998
1.3523553588194193
1.3234043513632392
1.3010726317328827
1.2895267391855214
1.272697304846711
1.2416828322687539
1.2258579460159427
1.2207631317972603
1.1963575407011566
1.1664273651889419
1.1505987013945012
1.1173477379813153
1.0954228555878764
0.09266658475236608
0.15707888556138128
0.150345152381185
0.20125469430318932
0.2893892713033444
0.7687735679577741
0.1263452385148121
0.1464063513958055
0.1382610714821056
0.19898309172356296
0.3526108038372642
0.6863767800547418
0.1367272461491999
0.12765983288942637
0.13143041205770328
0.2252056582342236
0.41657512812663305
0.7109056474015771
0.14260482926364526
0.1184651620596843
0.1391505546054041
0.2532195443759741
0.4572091289370734
0.7384168248104225
0.1484576025475131
0.11049625879930958
0.15162733766019637
0.284528082897992
0.49864734276363154
0.7560377180023834
0.1535255755617673
0.11345011618973733
0.16572526976123128
0.3175345203054181
0.5408934883446774
0.7806971199969968
0.15640942624260828
0.10884259710767584
0.17752722221360806
0.343259394178831
0.5565721192538519
0.7988386551153795
0.1578158734294099
0.10905103240286121
0.18783116573404063
0.35937600859528535
0.5904205594169848
0.806832236478438
0.16003446002990035
0.10652019041635936
0.19533320752724287
0.37521215159599064
0.5971378251252393
0.8156497789731436
0.16130271007191907
0.10693019189134853
0.19819495480490001
0.38677650343452025
0.6055899250306882
0.8254654566307794
0.1625428372778269
0.10789413935513349
0.19823840057851394
0.38935847446123206
0.6157152301649275
0.8178986275413493
0.16283655961252952
0.10621112075347812
0.1939381857040605
0.3841765234917671
0.6151707652211693
0.835043717435068
0.16503990348208386
0.10326679700689345
0.1886807355649623
0.3783872735627217
0.6148411761029479
0.8275862461801756
0.16429485566880506
0.10625798822536796
0.1775063936510623
0.35979956545166625
0.5945222754520179
0.8141018713051651
0.1639152742673681
0.10617544067003751
0.1700983437059639
0.3463597153054219
0.5726462647576344
0.8012696017454038
0.16371351931956768
0.10894269678526486
0.1571787315529219
0.32320871855871974
0.5632214933100415
0.7891699599321779
0.16159911327860732
0.10656701040580695
0.13932567325311715
0.2930908964574329
0.5354752343425448
0.7683918994782897
0.15995773334654562
0.1062910724431396
0.13208316573480003
0.26326477546769017
0.48852572067145156
0.7320585551349196
0.15723931073578337
0.11082803417838692
0.1200168658504849
0.2208335728483721
0.4387396497406044
0.6905481106145479
0.15397928067226926
0.11743084928100793
0.11890420646132338
0.18296786529730288
0.37834452005215996
0.6643250579909696
0.14575214935402428
0.12105709608921142
0.12984075287517297
0.16084860964789507
0.3117183440491995
0.6060479065166935
0.13587498462002007
0.12976373152766307
0.14117293334269426
0.14595223715017333
0.23925767236873005
0.5292957014853831
0.12272220527341911
0.13734030827394597
0.1517351721853944
0.14667553635440922
0.2013952943002651
0.44244105867822514
0.08083529915531763
0.12111659773279927
0.1624980882992911
0.1465433868688135
0.25540237424884593
0.4018005629544327
1.2100292249033548
1.299071864578686
1.3615386451510618
1.3805967526242366
1.4126064849622668
1.421146473653525
1.4257576564548284
1.4038716589654925
1.3882657529909082
1.3671638377892752
1.340806046118872
1.315443622826709
1.2896179080012526
1.2657053798087006
1.2508005415221304
1.2384938928805826
1.2145978222743592
1.199809240724134
1.1854122978710953
1.1672201131436388
1.152500511463199
1.1281271756337592
1.0986723293291176
1.0750989453226965
1.1265065255868631
1.2820219228129164
1.3602927520773407
1.39348777026799
1.4278388993158804
1.4248647738757665
1.4105522830512827
1.381847114529609
1.3597362108874471
1.3335884557328017
1.299196844807685
1.2858436358685743
1.256876267308327
1.2529079188729504
1.2222687837034565
1.2190368517495138
1.1946914697382696
1.17421510359431
1.1620879992742605
1.14533446822452
1.129666179775319
1.1104693390518308
1.0841411465741906
1.0579913446870326
1.0766279691421552
1.2411872184409474
1.3436104399646043
1.384968506859346
1.3962867424834378
1.3850674895104838
1.3755201958349141
1.3450410318764752
1.3224229696453114
1.2934992958835752
1.2643677417812866
1.2510614044603057
1.2320426900616999
1.2092411470078006
1.2000790080553179
1.18743275025478
1.1655108613666638
1.1573103180301156
1.1571564351902235
1.131589891138362
1.1150326496748788
1.098834255026591
1.0662828062291985
1.0430185886927275
1.0534081723059676
1.210162801800481
1.3045090175233407
1.3590083228029515
1.3686200506732824
1.3644752881301534
1.3418731556418366
1.3188420039892677
1.2896951637324934
1.2604988519768863
1.227527230720685
1.2127455521833501
1.1994111454854692
1.189109276397129
1.1765388382886304
1.171937350786213
1.151060087971042
1.144094772281093
1.122233222778409
1.1118736409560073
1.1036946159073475
1.079270253329342
1.0594885301433645
1.0363121632000902
1.0415999446592292
1.2030025326527494
1.3001039283372244
1.342940041251251
1.3464141368444582
1.3269267705815635
1.303772733612318
1.269539527122328
1.2425953962558143
1.2228833503103709
1.2147523118855768
1.2070984388513089
1.1889516366716364
1.163992191004766
1.165890473653738
1.1517737075477927
1.1400947400534491
1.1302399102635998
1.1178006277596089
1.102188176395409
1.088428210399934
1.0664808186585553
1.0445251444718604
1.0248344606127675
1.0393775248027837
1.2013261546173446
1.2797003996874161
1.3051766736975747
1.3033884743548736
1.2813049210884704
1.264987081471514
1.227284470788389
1.2181210055683815
1.1929250813409162
1.1782462138796144
1.158891396581603
1.1582594451327575
1.1511670347761849
1.1411019609283783
1.137658972605443
1.1310986163597299
1.110710505561271
1.1029711180432897
1.0842903695102242
1.0698278748116365
1.05998071521198
1.0340949568586217
1.0129805046147429
1.0211215816580737
1.1911734952077009
1.2550355401331486
1.2783114359187118
1.2630627058863368
1.2373694571946559
1.2309247537659078
1.2001191537398483
1.1885233224240273
1.164423409528815
1.154059944064281
1.140958894479306
1.1416551768789294
1.145637708283565
1.1244470418152528
1.1149429588636617
1.1086272470120209
1.0945233609126996
1.0945941743697993
1.0744287283055893
1.0576616504057972
1.0471162596558952
1.02634574255795
1.0057013337219896
1.0287398531435579
1.1636614177843814
1.222211527816627
1.233302331929817
1.2230953295440763
1.205369144927411
1.186867865916404
1.1693681102092848
1.142312377044533
1.1491937369283238
1.134802616381105
1.1329619175092835
1.1233121758815594
1.1157827088366918
1.1199244834500248
1.1061878270762349
1.0971095986085042
1.0847037815995975
1.0816514642498773
1.0684114099399502
1.0456217572196793
1.0373220741215132
1.0180755521304046
1.0013927338130646
1.0278960345398758
1.1609194245602381
1.1982763528931915
1.2065821607879759
1.1903611894098654
1.1639747131844222
1.1594337475194225
1.1479495799060224
1.136297140733638
1.120126222275563
1.1207809849002388
1.112178612339673
1.1112018501197123
1.1044203895771711
1.0961168464753888
1.0925026296105727
1.0891902184366533
1.076447673457768
1.0740529133009447
1.0558153191026267
1.0429762393104525
1.0311458646729617
1.0142401508377337
0.9963167357689892
1.0204046909938516
1.1352916854687352
1.1713670816670627
1.167451463131063
1.1546630628737569
1.138012350097415
1.1240856089363493
1.1243550541382334
1.1109583244045362
1.1228895720788905
1.1007394037439964
1.0929224130436284
1.0971807146179637
1.0918600711925417
1.0802108996134936
1.0725022877038315
1.0711147019958205
1.0667006149545062
1.0551084256030705
1.0451606180892599
1.0320535960841433
1.0274478635793474
1.0085559039444374
0.9918163764923158
1.008656275312411
1.1109088769410045
1.1300894597149667
1.1338019662499936
1.1180358473252379
1.119060830509144
1.0838050077418933
1.1014621722356226
1.0883495172284798
1.0907687719607237
1.0796242195160002
1.086298553786596
1.0839006208891195
1.0742094626731014
1.0714247781946595
1.0727642931170296
1.0564197264431348
1.0509543181691512
1.05131613830284
1.0388374498694057
1.0326546487550443
1.0191949726875582
1.004594117361625
0.9898803945175715
1.0075105651502796
1.0966081798554657
1.1050269124867325
1.0837035887667446
1.0894436208266576
1.0788773161978353
1.063417967363193
1.0654857955760084
1.0649034664795969
1.0690390182643643
1.0679674435327717
1.0687764201158212
1.066381885082642
1.0657375350471938
1.060045387137803
1.0597123565669224
1.0557427024506456
1.0476227601657584
1.043995713778168
1.035280377841762
1.023646517832404
1.0112884263647661
1.0000804870656828
0.9865391469452361
0.9992084203495419
1.064211547734034
1.0717370235888732
1.064365089548458
1.0468456082072175
1.0580893557602011
1.0378607225783627
1.0517628803058277
1.0551558614391134
1.0578313306006395
1.0530229111950764
1.0576449498967417
1.060377695443642
1.0531190334478933
1.0516103238121106
1.0465201947830227
1.0463804493581033
1.0428274926538295
1.031718496834132
1.024825662237362
1.0212114823479286
1.0100344947947808
0.9966161179159803
0.9845077408975696
0.9840102360779703
1.029724564842104
1.0332124567389283
1.0347464506058845
1.034784154018031
1.0356566464907628
1.0186981101276202
1.034715205781706
1.0374498810467416
1.04198346209285
1.045365863782375
1.045504401696422
1.0440309097200782
1.0447389528917892
1.0415016977421225
1.03848262248637
1.0377865112335007
1.0345894602846748
1.0249927197348663
1.0170092049449804
1.0185760266362887
1.004351539389479
0.9956887515571458
0.984520341376954
0.9648474948445386
1.0010998418753563
1.013950773358501
1.0173152620888843
1.004191765373546
1.0163524656365366
1.0121984342783468
1.0156669392156046
1.0182684841099297
1.0204163316898416
1.0263229661307534
1.0319589028978908
1.0390063982828528
1.030596495211145
1.0341202421508604
1.0323379313495211
1.0245939123227765
1.0240367657187985
1.0180801712851695
1.0155215632639663
1.012796869583059
1.0039518588855332
0.9952161181036454
0.9841819738286667
0.94462671022873
0.963875175724584
0.9966462388483286
0.9759611295192981
0.9837969728905099
0.9941096711009311
0.9993964569612023
1.0053984700081615
0.999009907067745
1.013007280374447
1.0182415935005749
1.0220130184574445
1.0179445681519206
1.0235005633588294
1.022187643506427
1.0206835875631437
1.024771688775986
1.0206819525358
1.016827556075633
1.0128686897613932
1.0084909939364979
1.0012758198587524
0.992450145464827
0.9852166462191199
0.9159808184060731
0.9421537181963974
0.9380975680100357
0.9375939620915666
0.9573658909520649
0.9693494617888999
0.971795348453537
0.9894240443576048
0.9898260955965829
0.9944355843659343
1.0011750780716986
1.00794972018682
1.0162209259710517
1.014823302041262
1.013742413143971
1.0179521549461519
1.0139159402425457
1.0110560470086225
1.0104142207076854
1.0074739014862142
1.0038634836523392
1.0002255243211886
0.9919509387328637
0.9853960127789989
0.9010727485054146
0.9139006431983058
0.9246426275880082
0.934306652898706
0.9437756866953174
0.9461452469498615
0.9633252250950156
0.9680859097759624
0.9788028696052652
0.985156721518881
0.9975274799832667
0.9989016490897056
1.0053940452700336
1.0033069909154086
1.0082043666236782
1.0063604825181611
1.0080418616119466
1.0075204046034463
1.0064398577841873
1.002643745878916
1.000016531812748
0.9989705213036215
0.992275207493717
0.9856888931178666
0.8735002188015107
0.8985866553914833
0.901979250452287
0.9205888676164558
0.9238963726573692
0.9360073976175275
0.9400431552433123
0.9566206523316435
0.9667759888103603
0.9726807715251788
0.9782087094882267
0.986496822648643
0.992017702252002
0.9983939451748326
0.9993029820299749
1.0059227120089702
1.0019504534377637
1.0024891722923877
1.0026255797496377
1.0004687795298677
0.997556948447126
0.9962936940208403
0.9911008185593307
0.9873894990219834
0.8407000249290649
0.8655001683676742
0.8682118691867265
0.8892203541992203
0.9009159312867496
0.909352024512072
0.9289253660619241
0.9392862653505746
0.9539487155307281
0.9599712609424207
0.9734352949070036
0.9796676951688055
0.9830133031884744
0.9883835684056376
0.9963526990304685
0.9950877780356682
0.9964908640246755
0.9981597372680937
0.9999432972294161
0.9987140862175921
0.9965674434463713
0.9946859727938373
0.9915474421585326
0.9896735906238391
0.8045684683743565
0.8442640893767807
0.853696727775461
0.8653567377575886
0.8927230332298518
0.8992919115286829
0.9107052821819843
0.9279868667162858
0.9384342525293092
0.9534894115840377
0.9590572829241143
0.9711929610518842
0.9793410176757149
0.9841081848810186
0.9882509555158373
0.9897142337110694
0.9932686609147601
0.9941437766909109
0.9949691139053498
0.9960360350569062
0.9968426136446014
0.995861247661925
0.9934647133405508
0.9924629559512692
0.7633118762416258
0.8137384751419035
0.8290823776605263
0.8454216337323203
0.854806139260002
0.8825876786468821
0.8992409533932644
0.9169848694265114
0.9279319370458967
0.9434246205024469
0.9528715006422036
0.961663178151675
0.9705918563833651
0.9775569852009
0.9805713576663533
0.9855202022283429
0.9909702508342416
0.9908328991998196
0.9923347511773815
0.9951745315435332
0.994599150325916
0.9955683465945124
0.9936117493729704
0.9925206394804214
0.7155055811569222
0.7733652187365
0.7950816696492579
0.830089470815352
0.8460680655307196
0.8670520364463102
0.8855494014288623
0.9061997033340877
0.9200225572040566
0.9347576941231891
0.9439752133657453
0.9586140764769836
0.9651060460626657
0.9738728256308344
0.9788110778601238
0.9840801566811112
0.9851382906012316
0.9888318601945646
0.9931727946479956
0.9932019890528458
0.9930143739804866
0.9940698000217538
0.995472027860395
0.9938189445801129
0.6658628636569006
0.7328784176396268
0.7657864283071866
0.8040557028004844
0.8260637075105692
0.8500800908511873
0.8739367777600103
0.8945502564864147
0.9138669342749808
0.9283590581482769
0.9400715462307898
0.9501411052335313
0.9580153695025145
0.9651085281499658
0.9721914437556294
0.9772280532246718
0.9835605197514127
0.9886115901526605
0.9892164059075463
0.9902368323755169
0.9941044910735012
0.9943981789988772
0.9939427146195026
0.9953462234447198
0.06116571489524623
0.20040623404653396
0.363419608753224
0.4116695917123608
0.43816907982483283
0.31475417243612114
0.11497909220844285
0.27769051940834266
0.39055699619738177
0.42648357624160604
0.4240249688294441
0.327902587242729
0.1526806430645541
0.3079595803153219
0.389696566210735
0.41314263087615694
0.4080968647241787
0.3598476110183987
0.18641674766220173
0.3237790234401694
0.39124820797490156
0.40691039024977366
0.39876463109721133
0.38481306471779364
0.21905595265038147
0.34670959111907484
0.3919044575462291
0.4029252956733167
0.4058679344458559
0.3932888481354776
0.24582507633694228
0.3520460547568034
0.393301740188411
0.4083435401197551
0.4069615681593655
0.4187940209348929
0.2670051633894163
0.3666895442972419
0.4007060485267897
0.413170076726589
0.4158430409689842
0.4280755956959206
0.28924112792895973
0.3709313942482122
0.4093333072810923
0.4277203042023425
0.43635741655050353
0.4526218787651737
0.30824996715469877
0.3808967589347692
0.4166548329301806
0.43165352326719986
0.43684069138693027
0.4683610746422205
0.3240996245892398
0.38578169513005195
0.4211725971586807
0.4449165075117284
0.46415335305217287
0.49585748518192585
0.33463777457622745
0.38666171722273673
0.4286058798874166
0.45925967705629966
0.48034752295314914
0.5196451643373154
0.3392983442798878
0.3883124225351433
0.4409203910768307
0.47033297695566845
0.5079415084929972
0.5442655418904188
0.33765604981651054
0.39329917546675774
0.4456360226483909
0.4897137690225867
0.5285662102507689
0.5732758570618723
0.3381648240038533
0.3901845092668291
0.4499781440531122
0.49774159659476036
0.5545875023675639
0.605782312306735
0.32899715815505504
0.38651949685407405
0.4526192512286239
0.5194181435990106
0.5782487912700053
0.6348781995572461
0.317616797865646
0.38039441739257074
0.4572059619118391
0.5304564086656638
0.5999845614659075
0.6719210932792906
0.3026556545475514
0.38035067472616607
0.46609751381100406
0.5378167503150663