/*--------------------------------*- C++ -*----------------------------------*\
  =========                 |
  \\      /  F ield         | OpenFOAM: The Open Source CFD Toolbox
   \\    /   O peration     | Website:  https://openfoam.org
    \\  /    A nd           | Version:  11
     \\/     M anipulation  |
\*---------------------------------------------------------------------------*/
FoamFile
{
    format      ascii;
    class       volScalarField;
    location    "0.82";
    object      k;
}
// * * * * * * * * * * * * * * * * * * * * * * * * * * * * * * * * * * * * * //

dimensions      [0 2 -2 0 0 0 0];

internalField   nonuniform List<scalar> 
2880
(
0.00499059
0.0342361
0.0747993
0.119995
0.15494
0.197681
0.0179215
0.0689797
0.115806
0.163352
0.219515
0.327048
0.0264049
0.0858057
0.136359
0.187972
0.250524
0.340221
0.03322
0.0964597
0.14889
0.201933
0.262829
0.333913
0.0390648
0.104192
0.157114
0.209558
0.26594
0.322212
0.0439115
0.110122
0.162552
0.21313
0.264295
0.308928
0.0477734
0.114696
0.16596
0.213919
0.259737
0.295332
0.0506964
0.118087
0.167757
0.21288
0.253621
0.28209
0.0527448
0.120353
0.168191
0.210506
0.24676
0.269593
0.0539928
0.121528
0.167478
0.207198
0.239669
0.258061
0.054521
0.121642
0.165778
0.203253
0.232672
0.247619
0.054418
0.120757
0.163239
0.198887
0.225927
0.238364
0.0537866
0.118912
0.15998
0.19424
0.219547
0.230311
0.0526485
0.116163
0.15608
0.189379
0.213597
0.223439
0.0509057
0.11257
0.151571
0.184306
0.208076
0.217704
0.0485298
0.108164
0.146434
0.178962
0.202933
0.213057
0.0455108
0.102931
0.140587
0.173215
0.198046
0.20944
0.0418365
0.0968133
0.133877
0.166857
0.193196
0.206787
0.0374845
0.0896848
0.126056
0.159607
0.188003
0.205043
0.0324208
0.0813117
0.116736
0.150983
0.181882
0.204187
0.0266184
0.0712514
0.105285
0.140254
0.173844
0.203887
0.0237326
0.0585677
0.0905312
0.126234
0.162064
0.202442
0.0193152
0.0414974
0.0698122
0.106625
0.142441
0.191821
0.00496325
0.0160135
0.0407154
0.0794186
0.108147
0.120544
0.379407
0.383497
0.323588
0.251463
0.188632
0.138825
0.102063
0.0760916
0.0580515
0.0454436
0.0364489
0.0298651
0.0249217
0.0211221
0.0181382
0.0157462
0.0137879
0.0121475
0.0107364
0.00947936
0.00830486
0.00715996
0.00604397
0.0049101
0.412679
0.380076
0.309973
0.238403
0.176742
0.128845
0.0941717
0.0700273
0.0533893
0.0417807
0.0334779
0.0273752
0.0227748
0.0192284
0.0164397
0.0142058
0.0123832
0.0108672
0.00957787
0.00844902
0.00741908
0.0064467
0.00553835
0.00466451
0.395985
0.361506
0.292684
0.223259
0.164076
0.118857
0.086608
0.0643718
0.0491039
0.0384326
0.0307647
0.0251002
0.0208126
0.0174993
0.0148927
0.0128088
0.0111171
0.00972225
0.00855246
0.00754862
0.00665714
0.00584448
0.00511842
0.00445727
0.372982
0.339115
0.273438
0.207185
0.151312
0.109212
0.0795223
0.0591692
0.0451942
0.0353839
0.0282925
0.0230257
0.0190245
0.0159272
0.0134921
0.0115517
0.00998683
0.00871056
0.00765759
0.00677459
0.00601389
0.00534646
0.00477734
0.00428701
0.349575
0.315706
0.253645
0.191137
0.138992
0.100168
0.0730091
0.0544372
0.0416498
0.032618
0.0260464
0.0211407
0.0174023
0.0145064
0.0122336
0.010431
0.00898922
0.00782848
0.00688883
0.00612128
0.0054821
0.00494398
0.00450672
0.00415029
0.327344
0.293003
0.234417
0.175806
0.127481
0.0918759
0.0671085
0.0501709
0.038453
0.0301178
0.0240133
0.0194355
0.0159392
0.0132315
0.0111126
0.00944216
0.00811935
0.00707036
0.00623948
0.00558065
0.00505219
0.00462634
0.00429677
0.00404255
0.306745
0.271852
0.216416
0.1616
0.116975
0.0843983
0.0618192
0.0463492
0.0355819
0.0278662
0.0221809
0.0179013
0.0146284
0.0120968
0.0101235
0.00857924
0.00737052
0.00642857
0.00570075
0.00514247
0.00471248
0.00438135
0.00413718
0.00395899
0.287926
0.252708
0.19999
0.148724
0.107548
0.0777338
0.057113
0.0429414
0.0330123
0.0258461
0.0205372
0.016529
0.0134624
0.0110952
0.00925926
0.0078347
0.00673447
0.00589387
0.00526217
0.00479485
0.00445001
0.00419637
0.00401807
0.00389525
0.271053
0.235639
0.185272
0.137243
0.0991932
0.0718416
0.0529463
0.0399128
0.0307199
0.024041
0.0190703
0.0153095
0.012433
0.010219
0.0085118
0.00719991
0.0062018
0.00545588
0.0049121
0.00452495
0.00425153
0.00405945
0.00393079
0.00384756
0.256173
0.220607
0.172266
0.127127
0.0918503
0.0666593
0.0492689
0.0372276
0.0286807
0.0224345
0.0177682
0.0142328
0.0115314
0.00945944
0.00787219
0.00666548
0.00576245
0.00510359
0.00463843
0.0043199
0.00410456
0.00396011
0.00386819
0.0038128
0.243247
0.207531
0.1609
0.118291
0.0854326
0.062116
0.0460295
0.0348514
0.0268719
0.0210108
0.0166191
0.0132892
0.0107485
0.00880747
0.00733112
0.00622166
0.00540605
0.0048258
0.00442917
0.00416762
0.00399811
0.00388969
0.00382454
0.00378839
0.232207
0.196297
0.15106
0.110619
0.079841
0.0581379
0.0431783
0.0327516
0.0252722
0.019755
0.0156112
0.0124684
0.0100748
0.00825381
0.00687917
0.00585872
0.0051223
0.00461155
0.00427308
0.00405742
0.00392302
0.00384118
0.00379527
0.00377204
0.222978
0.186783
0.142613
0.103985
0.0749733
0.0546529
0.0406677
0.0308978
0.0238612
0.0186525
0.0147332
0.0117606
0.00950105
0.00778949
0.00650729
0.00556724
0.00490128
0.00445052
0.00416
0.00398025
0.00387194
0.00380905
0.00377685
0.00376168
0.215491
0.178864
0.135419
0.0982607
0.0707289
0.0515921
0.0384537
0.0292617
0.02262
0.0176897
0.0139743
0.0111566
0.00901876
0.00740619
0.00620715
0.00533863
0.00473402
0.00433361
0.00408145
0.00392895
0.00383943
0.00378994
0.00376604
0.00375552
0.2097
0.172427
0.129342
0.0933179
0.0670109
0.0488916
0.0364955
0.0278172
0.021531
0.0168535
0.0133239
0.0106473
0.00861986
0.00709634
0.00597129
0.00516532
0.00461281
0.00425332
0.0040307
0.00389804
0.0038214
0.00378023
0.00376078
0.0037525
0.205593
0.167378
0.124243
0.0890327
0.0637306
0.046493
0.0347558
0.02654
0.0205774
0.0161315
0.0127723
0.0102244
0.00829684
0.00685289
0.00579285
0.00504044
0.00453083
0.00420332
0.00400239
0.00388324
0.00381467
0.0037777
0.00375975
0.00375179
0.203202
0.163643
0.119986
0.0852819
0.0608017
0.0443413
0.0332
0.0254074
0.0197433
0.0155117
0.0123098
0.00987985
0.00804258
0.00666928
0.00566549
0.00495777
0.00448216
0.00417837
0.00399223
0.00388128
0.00381666
0.00378041
0.00376157
0.00375227
0.202615
0.161159
0.116422
0.0819371
0.0581391
0.042384
0.0317951
0.024398
0.0190136
0.0149829
0.0119275
0.00960609
0.00785053
0.00653956
0.00558367
0.0049121
0.00446213
0.00417447
0.00399706
0.00388976
0.00382559
0.0037878
0.00376609
0.00375373
0.203921
0.159852
0.113379
0.0788629
0.0556578
0.0405708
0.0305103
0.0234915
0.0183742
0.0145341
0.0116167
0.00939615
0.00771472
0.00645848
0.00554265
0.00489927
0.00446678
0.00418882
0.004015
0.00390744
0.00384073
0.00379904
0.00377281
0.00375601
0.207255
0.159602
0.110636
0.07591
0.0532731
0.0388538
0.0293169
0.0226693
0.0178118
0.0141556
0.0113699
0.00924375
0.00762994
0.00642161
0.0055386
0.0049151
0.0044942
0.00421993
0.00404508
0.00393382
0.00386189
0.00381414
0.00378169
0.00375918
0.212658
0.160069
0.107891
0.0729045
0.0508988
0.0371882
0.0281888
0.0219146
0.0173145
0.0138385
0.0111799
0.00914343
0.0075918
0.00642529
0.00556785
0.00495941
0.00454307
0.00426716
0.00408712
0.00396896
0.00388929
0.00383344
0.00379316
0.00376362
0.21944
0.160458
0.104724
0.0696467
0.0484518
0.0355354
0.0271051
0.0212139
0.0168729
0.013575
0.0110411
0.00909078
0.00759676
0.00646667
0.00563071
0.00503031
0.00461309
0.00433075
0.00414165
0.00401353
0.00392366
0.00385766
0.00380793
0.00376994
0.223871
0.159122
0.100513
0.0659242
0.0458657
0.0338702
0.0260524
0.0205587
0.0164806
0.0133613
0.0109506
0.00908291
0.00764282
0.00654532
0.00572505
0.00512773
0.00470481
0.00441176
0.00420996
0.00406885
0.00396621
0.00388794
0.00382702
0.00377893
0.21716
0.153499
0.0944774
0.0615623
0.0431156
0.0321903
0.02503
0.0199473
0.0161354
0.0131953
0.0109058
0.00911769
0.00772821
0.00665933
0.00585066
0.0052522
0.00481945
0.00451182
0.00429385
0.00413668
0.00401862
0.00392581
0.00385172
0.00379166
0.00501321
0.00982778
0.0194503
0.040206
0.0747142
0.12809
0.0180698
0.030483
0.0480273
0.0693478
0.0940898
0.129419
0.022081
0.0432273
0.0649672
0.0859912
0.106752
0.127811
0.0240184
0.0532074
0.0768469
0.0956063
0.110043
0.119623
0.0258161
0.0616873
0.0855681
0.100998
0.108256
0.110195
0.0297753
0.0686108
0.0917369
0.102908
0.105219
0.101537
0.0332091
0.0742702
0.0958195
0.103673
0.10231
0.0940103
0.0361385
0.0788454
0.098701
0.104253
0.0996648
0.0879758
0.038467
0.0825781
0.101052
0.104944
0.0977081
0.0835878
0.0401437
0.0856427
0.103269
0.106005
0.0967774
0.0808988
0.0411517
0.0881385
0.105575
0.10761
0.0969419
0.0799919
0.041501
0.09009
0.108052
0.109869
0.0983119
0.0804505
0.0412794
0.0914567
0.110658
0.112825
0.101131
0.0827115
0.0405238
0.0921527
0.113236
0.116397
0.105366
0.0868085
0.0394687
0.0920834
0.115541
0.120417
0.110914
0.092724
0.0382537
0.0910561
0.117316
0.124746
0.117495
0.100531
0.0366877
0.0889917
0.118299
0.12912
0.124738
0.110218
0.0346194
0.0858392
0.118219
0.133097
0.132301
0.121483
0.0319213
0.0815924
0.116825
0.135953
0.139978
0.133419
0.0285443
0.0762128
0.11362
0.136746
0.146781
0.145099
0.0250211
0.0694425
0.108044
0.134683
0.150401
0.155972
0.022713
0.0604586
0.0988253
0.127348
0.148068
0.163267
0.0185702
0.0474418
0.0828942
0.110679
0.135216
0.15889
0.00484567
0.0204271
0.0477823
0.0725578
0.0972569
0.116674
0.192908
0.139162
0.0859126
0.0565643
0.0402569
0.0305247
0.0240515
0.0193854
0.0158401
0.0130785
0.0109055
0.00919458
0.00785252
0.00680876
0.00600813
0.00540489
0.0049587
0.004633
0.00439555
0.00421933
0.00408313
0.00397325
0.00388301
0.00380901
0.163116
0.119032
0.0761224
0.051376
0.03744
0.0289306
0.0231426
0.0188862
0.0156011
0.0130128
0.010953
0.00931536
0.00801713
0.00699509
0.00619924
0.00558807
0.00512529
0.00477831
0.00451815
0.0043197
0.00416222
0.00403185
0.00392142
0.00383119
0.138439
0.100501
0.0666236
0.0464755
0.0348197
0.0274724
0.0223347
0.0184674
0.0154301
0.0130044
0.0110529
0.00948378
0.00822533
0.0072216
0.00642755
0.00580569
0.00532354
0.00495224
0.00466597
0.00444153
0.00425861
0.00410322
0.00396852
0.0038587
0.118471
0.0852274
0.0583397
0.0421657
0.032513
0.0262062
0.0216582
0.0181489
0.015344
0.0130655
0.0112129
0.00970573
0.00848231
0.00749328
0.00669822
0.00606324
0.00555921
0.00516055
0.00484437
0.00458943
0.0043761
0.00419108
0.00402951
0.00389469
0.102052
0.073101
0.0515615
0.0385779
0.0305876
0.0251724
0.0211388
0.0179464
0.015346
0.0132055
0.0114413
0.00998847
0.00879454
0.00781625
0.00701728
0.00636684
0.00583858
0.00540968
0.00505984
0.00476982
0.00452098
0.00430119
0.00410775
0.00394127
0.0889467
0.0637409
0.0462498
0.0357307
0.0290729
0.0243967
0.0207989
0.01788
0.0154586
0.0134366
0.011748
0.0103404
0.00916946
0.00819738
0.0073913
0.00672298
0.00616825
0.00570642
0.00531936
0.00498963
0.00469967
0.0044387
0.00420656
0.00399988
0.0787849
0.056724
0.0422548
0.033595
0.0279782
0.0238966
0.0206577
0.0179669
0.0156956
0.0137713
0.0121436
0.0107706
0.00961533
0.00864421
0.0078274
0.00713864
0.00655529
0.00605814
0.00563061
0.00525664
0.00491943
0.00460954
0.00433
0.00407241
0.0711999
0.0516714
0.039423
0.0321315
0.027305
0.023688
0.0207276
0.0182229
0.0160714
0.0142226
0.0126396
0.0112895
0.0101412
0.009165
0.00833328
0.00762123
0.00700712
0.00647253
0.00600167
0.00557915
0.00518832
0.00482067
0.00448316
0.00416127
0.0658752
0.04828
0.0376241
0.0313047
0.0270544
0.0237613
0.0210298
0.0186653
0.0166014
0.0148044
0.0132484
0.0119081
0.0107571
0.00976877
0.00891727
0.00817861
0.00753143
0.00695739
0.00644066
0.00596564
0.00551488
0.00507994
0.00467206
0.00426929
0.0625625
0.0463311
0.0367535
0.0310927
0.0271843
0.0241597
0.0215816
0.0193117
0.0173023
0.015532
0.0139839
0.0126387
0.0114741
0.0104656
0.00958846
0.00881919
0.00813619
0.00752051
0.00695553
0.00642441
0.0059077
0.00539563
0.00490335
0.00439951
0.0611161
0.0457297
0.0367268
0.0313794
0.0277664
0.0248916
0.0224034
0.0201825
0.0181929
0.0164227
0.0148618
0.0134957
0.012305
0.0112668
0.0103572
0.00955236
0.00883001
0.00817005
0.00755425
0.00696359
0.00637528
0.00577623
0.00518407
0.00455481
0.0612332
0.0461016
0.0374345
0.032317
0.0287977
0.0259805
0.0235196
0.0213012
0.0192956
0.017497
0.0159007
0.0144958
0.013265
0.0121864
0.011236
0.0103894
0.00962313
0.00891536
0.00824561
0.00759178
0.00692638
0.0062306
0.00552166
0.00473726
0.0628838
0.0477534
0.0390411
0.033864
0.0303064
0.0274586
0.0249617
0.0226973
0.0206374
0.0187797
0.0171233
0.0156597
0.0143731
0.0132418
0.012241
0.0113453
0.0105294
0.00976929
0.00904151
0.00832016
0.00757195
0.0067697
0.00592512
0.00494752
0.0663375
0.0506575
0.0415214
0.0360689
0.0323388
0.0293697
0.0267703
0.0244085
0.0222528
0.0203024
0.0185583
0.0170139
0.015654
0.0144562
0.0133946
0.0124419
0.0115703
0.0107529
0.00996246
0.00916848
0.00833113
0.00741247
0.00641052
0.0051858
0.0715636
0.0548825
0.0449679
0.0390111
0.0349631
0.0317738
0.0289994
0.0264835
0.0241861
0.0221051
0.0202425
0.0185926
0.0171398
0.0158611
0.0147286
0.0137123
0.0127813
0.0119046
0.0110501
0.0101808
0.0092494
0.00820528
0.00702039
0.00546307
0.0787335
0.060617
0.0495323
0.0428088
0.0382748
0.0347521
0.0317204
0.0289861
0.0264947
0.0242399
0.0222234
0.0204396
0.0188727
0.0174984
0.0162868
0.0152052
0.0142195
0.0132942
0.0123914
0.0114658
0.0104589
0.00929878
0.00790398
0.00590973
0.088041
0.0681038
0.0554203
0.0476221
0.042401
0.0384109
0.0350258
0.0319989
0.029253
0.0267739
0.0245616
0.0226105
0.0209049
0.0194196
0.0181236
0.0169828
0.0159622
0.0150255
0.0141348
0.0132453
0.0122959
0.0111985
0.0098871
0.00879422
0.0996127
0.0775894
0.0628699
0.0536462
0.0474998
0.0428834
0.0390325
0.035627
0.032556
0.0297926
0.0273338
0.025174
0.0232982
0.0216816
0.0202936
0.0191015
0.0180738
0.0171831
0.0164092
0.0157414
0.0151748
0.0147183
0.0145036
0.0150672
0.113432
0.0892195
0.0720923
0.0610843
0.0537484
0.048325
0.0438811
0.0399994
0.0365223
0.033404
0.0306363
0.0282143
0.0261244
0.0243439
0.0228441
0.0215955
0.0205728
0.0197599
0.0191549
0.0187719
0.0186355
0.0187928
0.0194069
0.0207078
0.128922
0.102811
0.0831442
0.0700811
0.0613081
0.0548946
0.0497257
0.0452656
0.0412948
0.0377416
0.0345903
0.0318372
0.0294726
0.0274772
0.0258266
0.0244967
0.0234699
0.0227413
0.0223215
0.0222337
0.0224847
0.0231332
0.0242963
0.0259807
0.144183
0.117545
0.0957264
0.0805956
0.0702478
0.0627079
0.0567054
0.0515781
0.0470322
0.0429625
0.0393446
0.0361773
0.0334577
0.0311741
0.0293091
0.0278465
0.0267784
0.0261103
0.0258605
0.0260302
0.0266282
0.0276972
0.0292694
0.0312497
0.155638
0.131984
0.108937
0.0921948
0.0804015
0.0717418
0.0648799
0.0590493
0.0538812
0.0492332
0.0450712
0.0414004
0.0382301
0.0355615
0.0333897
0.0317109
0.0305294
0.0298612
0.0297299
0.0300906
0.0309917
0.0324089
0.0343299
0.0365854
0.155736
0.140882
0.120278
0.103601
0.0911109
0.0816662
0.0741098
0.0676641
0.0619137
0.0566856
0.0519397
0.0476928
0.0439747
0.0408091
0.0382119
0.0361986
0.0347915
0.0340211
0.0339176
0.0343879
0.0355121
0.0372165
0.0394481
0.0419788
0.141017
0.138594
0.12748
0.113011
0.10113
0.0916928
0.0839118
0.0771521
0.0710184
0.065331
0.0600524
0.0552183
0.050889
0.0471229
0.0439694
0.0414747
0.0396894
0.038668
0.0384571
0.0389322
0.0401642
0.0420832
0.0445873
0.0473983
0.0041895
0.0103374
0.0206188
0.031872
0.0400386
0.0525144
0.0166818
0.0279201
0.0428594
0.0551492
0.0643927
0.0768066
0.0206727
0.0363035
0.0540022
0.0673805
0.0781373
0.0898788
0.0226833
0.0421759
0.0618489
0.0763062
0.0881517
0.0999592
0.0241067
0.0471774
0.0683202
0.0838253
0.0966663
0.108925
0.0250995
0.0518979
0.0740368
0.0905501
0.104371
0.117195
0.0266447
0.0563879
0.0792006
0.0967009
0.111511
0.124983
0.028628
0.0604397
0.0838475
0.102338
0.118157
0.132346
0.0302409
0.0639633
0.0879595
0.107461
0.124298
0.139238
0.0315258
0.0669067
0.0915128
0.112045
0.129893
0.145575
0.0324877
0.0692404
0.0944858
0.116054
0.134887
0.151265
0.0331468
0.0709371
0.0968541
0.119451
0.139225
0.156224
0.0335382
0.0719593
0.0985861
0.122189
0.142856
0.160389
0.033542
0.0722983
0.0996399
0.124221
0.145731
0.163718
0.0331214
0.0719405
0.0999418
0.125483
0.147804
0.166197
0.0322594
0.070832
0.0994542
0.125885
0.149026
0.167836
0.0309518
0.0689053
0.098061
0.125357
0.149328
0.16867
0.029199
0.0660658
0.095632
0.123745
0.148633
0.168737
0.0269662
0.0621709
0.0919844
0.120852
0.146753
0.167928
0.0250707
0.0569757
0.0868435
0.116375
0.143397
0.166075
0.0235219
0.0502643
0.0797512
0.109821
0.138034
0.162796
0.0213864
0.0415632
0.0698169
0.100291
0.129527
0.157048
0.0170595
0.0291263
0.054853
0.0858379
0.115599
0.144831
0.00420667
0.0107231
0.0318447
0.0633043
0.0930516
0.11531
0.132424
0.135397
0.130368
0.119489
0.109434
0.100819
0.0934706
0.0869052
0.0807823
0.0749343
0.0693297
0.0640242
0.0591139
0.0547025
0.0508874
0.0477604
0.0454154
0.0439478
0.0434386
0.0437868
0.0449607
0.0469921
0.0497122
0.052805
0.133163
0.144298
0.138285
0.126663
0.116601
0.108708
0.10205
0.0960889
0.0904556
0.0849005
0.0793605
0.0738864
0.0685947
0.0636309
0.0591461
0.0552906
0.0522175
0.0500827
0.0490246
0.0490853
0.0499835
0.0519505
0.0547972
0.0581653
0.127803
0.161977
0.158489
0.144347
0.129373
0.118402
0.110645
0.104687
0.0994562
0.0944428
0.0893787
0.0841759
0.0788973
0.0736827
0.068712
0.0641853
0.0603187
0.0573434
0.0554878
0.0549299
0.055436
0.0570345
0.0598489
0.0634544
0.127203
0.165839
0.179504
0.173688
0.157508
0.13943
0.125674
0.116088
0.109265
0.103832
0.0989257
0.0941254
0.0892211
0.0841836
0.079121
0.0742179
0.0697137
0.0658943
0.0630777
0.0615603
0.0615155
0.0624667
0.064897
0.0686586
0.130741
0.165354
0.190484
0.197511
0.191539
0.176281
0.157136
0.140086
0.126847
0.117211
0.110086
0.104361
0.0992757
0.0944113
0.0895523
0.0846779
0.0799229
0.0755331
0.0718491
0.0692717
0.0681811
0.068499
0.0701559
0.0738173
0.136308
0.166166
0.194579
0.212479
0.217109
0.212009
0.198735
0.180079
0.160958
0.143887
0.130108
0.119621
0.111674
0.105347
0.0999137
0.0949237
0.0901417
0.0855581
0.0813645
0.077914
0.0756577
0.0750863
0.0759331
0.0789377
0.142849
0.169163
0.196938
0.219804
0.233649
0.237492
0.233536
0.222514
0.205361
0.185793
0.166175
0.148425
0.133671
0.122111
0.113237
0.106268
0.100499
0.0954577
0.090914
0.0869148
0.0837486
0.0819428
0.0820669
0.0841685
0.149749
0.173607
0.199607
0.223669
0.242276
0.253565
0.257101
0.254166
0.245207
0.229988
0.211236
0.1908
0.170537
0.152058
0.136423
0.123948
0.114302
0.106829
0.100871
0.0959827
0.0919904
0.089046
0.0880489
0.089364
0.156577
0.178706
0.20274
0.226158
0.246372
0.261602
0.270947
0.274147
0.271979
0.264683
0.251469
0.23428
0.214433
0.193401
0.172751
0.153881
0.137765
0.124767
0.11468
0.106972
0.101089
0.0966431
0.0938994
0.0943818
0.163019
0.183809
0.205881
0.227779
0.247666
0.264186
0.276481
0.284148
0.286965
0.285311
0.279251
0.267915
0.252681
0.234355
0.214012
0.192907
0.172391
0.153686
0.137651
0.124638
0.114532
0.106951
0.101239
0.099911
0.168829
0.188411
0.208487
0.228361
0.246883
0.263028
0.276122
0.285723
0.291622
0.293768
0.292443
0.287521
0.27813
0.265054
0.24884
0.230233
0.210167
0.189716
0.170023
0.152111
0.13673
0.124211
0.11418
0.108974
0.173826
0.192148
0.210111
0.227626
0.244051
0.258719
0.271166
0.281092
0.28832
0.292726
0.294173
0.2928
0.288433
0.280912
0.270487
0.257164
0.241192
0.223298
0.20434
0.18528
0.167076
0.150506
0.136097
0.126173
0.177889
0.194781
0.210427
0.225313
0.239168
0.25166
0.262527
0.271601
0.278779
0.283981
0.287131
0.288138
0.286955
0.283351
0.277278
0.269072
0.258847
0.246421
0.231865
0.215635
0.198554
0.181439
0.165523
0.153544
0.180958
0.196197
0.209339
0.221352
0.232343
0.242261
0.251026
0.258589
0.264911
0.269959
0.273688
0.275989
0.276807
0.276013
0.273521
0.269159
0.26294
0.255037
0.245696
0.234877
0.222646
0.209326
0.196325
0.186727
0.183022
0.196373
0.206827
0.21583
0.223834
0.231036
0.23752
0.243334
0.248492
0.25297
0.256711
0.259621
0.261572
0.262443
0.262184
0.260652
0.257751
0.253402
0.247559
0.240471
0.232571
0.224585
0.217383
0.211952
0.184112
0.195363
0.203007
0.208979
0.214033
0.218582
0.222843
0.226951
0.230966
0.234856
0.238517
0.241786
0.244473
0.246411
0.247406
0.247501
0.246536
0.244457
0.241268
0.237057
0.232053
0.226747
0.221973
0.217324
0.184281
0.19326
0.198072
0.20112
0.203411
0.205521
0.207772
0.210379
0.213421
0.216856
0.220523
0.224144
0.227436
0.230151
0.232087
0.233094
0.233222
0.232333
0.230437
0.227596
0.223988
0.219948
0.215758
0.210547
0.183612
0.190183
0.192264
0.192636
0.192501
0.192522
0.193088
0.194425
0.196659
0.199737
0.203462
0.207469
0.21133
0.214688
0.217311
0.219049
0.21987
0.219762
0.21871
0.216733
0.213948
0.210472
0.206235
0.2011
0.182129
0.186301
0.185949
0.184027
0.181883
0.180277
0.179596
0.179886
0.181437
0.184184
0.187896
0.192176
0.196216
0.19959
0.202224
0.204082
0.205125
0.205377
0.204916
0.203754
0.201951
0.199506
0.196183
0.192563
0.179873
0.18193
0.17943
0.175798
0.172338
0.169737
0.168437
0.168337
0.170006
0.172853
0.175909
0.178747
0.181781
0.183551
0.184446
0.184717
0.184478
0.183834
0.182741
0.181171
0.179206
0.176824
0.174046
0.171719
0.176914
0.177167
0.173164
0.168667
0.164846
0.162423
0.161733
0.162954
0.165872
0.16935
0.171807
0.172334
0.170352
0.167803
0.164619
0.161386
0.158317
0.155346
0.152277
0.148896
0.14511
0.140847
0.136266
0.132599
0.173064
0.172213
0.16779
0.163608
0.160766
0.159849
0.160993
0.164333
0.168839
0.172588
0.174019
0.172015
0.165575
0.157157
0.149156
0.142179
0.136373
0.131413
0.12683
0.122309
0.117475
0.112176
0.106729
0.102992
0.167674
0.1676
0.164313
0.161961
0.161496
0.163304
0.167742
0.17399
0.18008
0.183482
0.182668
0.176565
0.164323
0.151733
0.140556
0.131606
0.124815
0.119516
0.114879
0.110306
0.105642
0.100789
0.0963446
0.0940804
0.160822
0.164654
0.164279
0.164768
0.167815
0.173851
0.182129
0.190819
0.197004
0.198018
0.193082
0.179309
0.162731
0.146952
0.134341
0.125143
0.118541
0.113488
0.109066
0.1048
0.100675
0.0967884
0.093797
0.0926569
0.00380131
0.00737987
0.018237
0.0381524
0.0704528
0.115442
0.0160737
0.0233761
0.0395832
0.0610554
0.0899341
0.126735
0.020144
0.0330518
0.0523812
0.0752877
0.103217
0.135381
0.0223253
0.0399959
0.0612541
0.0849648
0.112123
0.141691
0.0239373
0.0454445
0.0677846
0.0917891
0.118368
0.146867
0.0249873
0.0498334
0.0725759
0.096528
0.122676
0.150955
0.0255814
0.0533203
0.0759713
0.0996214
0.125404
0.153895
0.0266645
0.0558401
0.0782025
0.101344
0.126755
0.15565
0.0275709
0.057532
0.0794367
0.101881
0.126858
0.156225
0.0282005
0.0584896
0.0798016
0.10142
0.125818
0.155674
0.0285184
0.0587824
0.0794278
0.0999944
0.123722
0.154082
0.0285141
0.0584778
0.078337
0.0977397
0.120654
0.151547
0.0281836
0.0575786
0.0766267
0.0947446
0.11669
0.148154
0.0275506
0.0561124
0.0743556
0.0910955
0.111905
0.143953
0.0267099
0.0540612
0.0715731
0.0868801
0.106383
0.138988
0.0257548
0.0514232
0.0683213
0.0821907
0.100238
0.133364
0.0249638
0.0482721
0.0646463
0.0771226
0.0936273
0.127368
0.0248527
0.0448123
0.0606101
0.0717646
0.0867405
0.121312
0.0242518
0.0413685
0.0562799
0.0661753
0.0796599
0.115131
0.023154
0.0378566
0.051641
0.0603513
0.0723458
0.108669
0.0215842
0.0340695
0.0465051
0.0541799
0.0646023
0.101806
0.0195542
0.0295514
0.0403414
0.0472326
0.0558254
0.0936863
0.0157144
0.0228968
0.0315912
0.0381345
0.044295
0.0825946
0.00393009
0.00813892
0.0137262
0.0195394
0.0240086
0.0537497
0.157855
0.165634
0.168605
0.173293
0.181026
0.191403
0.202711
0.211897
0.215415
0.211789
0.198041
0.178592
0.15823
0.141231
0.12907
0.120779
0.114918
0.110372
0.106344
0.102508
0.0989107
0.096066
0.0941001
0.0940986
0.159963
0.171019
0.178568
0.188136
0.200461
0.214282
0.226556
0.233058
0.230883
0.218179
0.196804
0.172444
0.150971
0.135325
0.125006
0.117946
0.112608
0.108233
0.104311
0.100833
0.0980542
0.0963718
0.0961575
0.0971295
0.164854
0.18079
0.193353
0.207912
0.224188
0.239492
0.249501
0.248937
0.237942
0.215586
0.187724
0.161987
0.142762
0.130061
0.121564
0.115167
0.109961
0.105453
0.101615
0.098694
0.096965
0.0966605
0.0975863
0.0995126
0.171257
0.192736
0.211106
0.230531
0.249285
0.26298
0.265414
0.255955
0.234201
0.203331
0.173608
0.150937
0.135843
0.125764
0.118236
0.111971
0.106541
0.102001
0.09858
0.0964918
0.0958808
0.0964682
0.0981516
0.10036
0.177906
0.205416
0.229942
0.253455
0.272179
0.278917
0.271842
0.252135
0.219016
0.185756
0.159858
0.142425
0.130672
0.121786
0.114285
0.107708
0.10215
0.0978727
0.0950935
0.0939146
0.0941672
0.095472
0.0978773
0.100247
0.184125
0.217753
0.248177
0.274049
0.288157
0.284789
0.268471
0.235015
0.198702
0.169724
0.149927
0.136383
0.125993
0.11711
0.109227
0.102429
0.0969933
0.0931734
0.0910931
0.0907121
0.0915047
0.0935046
0.0962312
0.0986576
0.189462
0.229062
0.264494
0.289837
0.293886
0.282397
0.251586
0.212549
0.180643
0.158516
0.143135
0.131142
0.120764
0.111454
0.103266
0.0964711
0.0913512
0.0880797
0.0866545
0.0868274
0.0880885
0.0904885
0.093332
0.095719
0.193725
0.23904
0.277826
0.296701
0.292186
0.268115
0.227776
0.193176
0.168639
0.151285
0.137541
0.125517
0.114632
0.104926
0.0966464
0.0900695
0.0853964
0.0826812
0.0818059
0.0823195
0.0839748
0.0865276
0.089378
0.0916853
0.196916
0.247666
0.287211
0.2965
0.281474
0.244928
0.207782
0.180655
0.161189
0.145565
0.131734
0.1191
0.10772
0.0978389
0.0897036
0.0834987
0.0793071
0.07707
0.0765852
0.0773286
0.0791876
0.0817619
0.0845372
0.0867389
0.199181
0.254971
0.290407
0.28824
0.26304
0.224349
0.194741
0.17318
0.155629
0.139846
0.125249
0.111975
0.100317
0.0905114
0.0826988
0.0769355
0.0731882
0.0713138
0.0710649
0.0719246
0.0738306
0.0763291
0.0789729
0.0810538
0.200756
0.26105
0.288259
0.276124
0.242661
0.211064
0.187554
0.168125
0.1503
0.133527
0.118085
0.10439
0.092723
0.0831998
0.075815
0.0704954
0.0671126
0.065472
0.065316
0.066182
0.0680059
0.0703522
0.0728244
0.0747783
0.201834
0.26541
0.280123
0.261106
0.22903
0.20427
0.183327
0.163558
0.144463
0.126553
0.11047
0.0966338
0.0851905
0.0760867
0.069168
0.0642487
0.0611316
0.059599
0.0594077
0.0601755
0.061808
0.0639367
0.0662053
0.0680312
0.202462
0.266919
0.269442
0.247862
0.22305
0.201316
0.180011
0.158614
0.137969
0.119091
0.102661
0.0889468
0.0778977
0.069286
0.0628253
0.0582411
0.0552908
0.0537534
0.0534141
0.0539827
0.0553256
0.0571723
0.0592044
0.0609011
0.202415
0.265859
0.260756
0.241532
0.22138
0.199672
0.176451
0.152987
0.130912
0.111372
0.0948919
0.0815089
0.0709618
0.0628651
0.0568265
0.052508
0.049639
0.0480037
0.0474197
0.0476894
0.0486476
0.0501367
0.0518862
0.0534463
0.200972
0.262733
0.255754
0.240178
0.221771
0.198173
0.172264
0.146712
0.123491
0.103618
0.0873447
0.0744438
0.0644546
0.0568623
0.0511991
0.0470854
0.044234
0.0424344
0.0415305
0.0413961
0.0418785
0.0429015
0.0442861
0.0456812
0.197228
0.260364
0.25439
0.242423
0.223184
0.196239
0.16733
0.139911
0.115903
0.0960104
0.0801508
0.0678314
0.0584194
0.0513039
0.0459698
0.0420159
0.0391458
0.0371494
0.0358826
0.0352455
0.0351587
0.0355436
0.0363902
0.037525
0.19178
0.25918
0.256743
0.247743
0.224587
0.193493
0.161667
0.132747
0.108326
0.0886884
0.0733993
0.0617217
0.0528844
0.0462132
0.0411709
0.0373508
0.034454
0.032266
0.0306367
0.0294615
0.0286626
0.0281959
0.0281252
0.0286644
0.188077
0.260982
0.264302
0.254473
0.225505
0.189824
0.155375
0.12538
0.100899
0.0817477
0.0671438
0.0561411
0.0478669
0.0416127
0.0368393
0.0331474
0.0302431
0.0279075
0.025973
0.0243013
0.0227579
0.021201
0.019547
0.0182927
0.187892
0.268306
0.275302
0.261208
0.225111
0.185111
0.148555
0.117941
0.0937253
0.0752468
0.061408
0.0510952
0.0433709
0.0375172
0.0330079
0.0294613
0.0265962
0.024198
0.0220903
0.0201095
0.0180747
0.0157564
0.0128198
0.0081465
0.196475
0.281275
0.288102
0.265911
0.222828
0.179407
0.141334
0.11054
0.0868719
0.0692105
0.0561867
0.0465649
0.039377
0.0339163
0.0296815
0.0263162
0.0235614
0.0212209
0.0191365
0.0171669
0.0151683
0.0129823
0.0104064
0.00676587
0.212367
0.299387
0.301867
0.268621
0.219473
0.172922
0.133829
0.103253
0.0803726
0.0636353
0.0514503
0.0425065
0.0358354
0.0307579
0.0268048
0.0236491
0.0210562
0.0188519
0.0168987
0.0150763
0.0132617
0.0113227
0.00912291
0.00625858
0.235264
0.321937
0.315496
0.269477
0.214507
0.16557
0.126075
0.0961208
0.0742383
0.0584992
0.0471538
0.038861
0.0326775
0.0279627
0.024283
0.0213397
0.018921
0.0168702
0.015065
0.0133983
0.0117599
0.0100386
0.00815058
0.00585919
0.267037
0.347797
0.324142
0.266711
0.207658
0.157365
0.118132
0.0891827
0.0684702
0.0537719
0.0432477
0.0355688
0.0298369
0.0254566
0.0220305
0.0192869
0.0170335
0.0151291
0.0134633
0.0119405
0.0104635
0.00894364
0.00733817
0.00551049
0.314211
0.372404
0.327736
0.260897
0.19903
0.148408
0.110092
0.0824894
0.0630735
0.0494279
0.0396908
0.0325822
0.0272632
0.0231872
0.0199924
0.0174318
0.0153311
0.0135624
0.0120268
0.0106391
0.00931581
0.00798825
0.00664034
0.00519263
)
;

boundaryField
{
    rotor
    {
        type            kqRWallFunction;
        value           nonuniform List<scalar> 
144
(
0.00499059
0.0342361
0.0747993
0.119995
0.15494
0.197681
0.00499059
0.0179215
0.0264049
0.03322
0.0390648
0.0439115
0.0477734
0.0506964
0.0527448
0.0539928
0.054521
0.054418
0.0537866
0.0526485
0.0509057
0.0485298
0.0455108
0.0418365
0.0374845
0.0324208
0.0266184
0.0237326
0.0193152
0.00496325
0.00496325
0.0160135
0.0407154
0.0794186
0.108147
0.120544
0.00501321
0.00982778
0.0194503
0.040206
0.0747142
0.12809
0.00501321
0.0180698
0.022081
0.0240184
0.0258161
0.0297753
0.0332091
0.0361385
0.038467
0.0401437
0.0411517
0.041501
0.0412794
0.0405238
0.0394687
0.0382537
0.0366877
0.0346194
0.0319213
0.0285443
0.0250211
0.022713
0.0185702
0.00484567
0.00484567
0.0204271
0.0477823
0.0725578
0.0972569
0.116674
0.0041895
0.0103374
0.0206188
0.031872
0.0400386
0.0525144
0.0041895
0.0166818
0.0206727
0.0226833
0.0241067
0.0250995
0.0266447
0.028628
0.0302409
0.0315258
0.0324877
0.0331468
0.0335382
0.033542
0.0331214
0.0322594
0.0309518
0.029199
0.0269662
0.0250707
0.0235219
0.0213864
0.0170595
0.00420667
0.00420667
0.0107231
0.0318447
0.0633043
0.0930516
0.11531
0.00380131
0.00737987
0.018237
0.0381524
0.0704528
0.115442
0.00380131
0.0160737
0.020144
0.0223253
0.0239373
0.0249873
0.0255814
0.0266645
0.0275709
0.0282005
0.0285184
0.0285141
0.0281836
0.0275506
0.0267099
0.0257548
0.0249638
0.0248527
0.0242518
0.023154
0.0215842
0.0195542
0.0157144
0.00393009
0.00393009
0.00813892
0.0137262