/*--------------------------------*- C++ -*----------------------------------*\
  =========                 |
  \\      /  F ield         | OpenFOAM: The Open Source CFD Toolbox
   \\    /   O peration     | Website:  https://openfoam.org
    \\  /    A nd           | Version:  11
     \\/     M anipulation  |
\*---------------------------------------------------------------------------*/
FoamFile
{
    format      ascii;
    class       volScalarField;
    location    "0.82";
    object      nut;
}
// * * * * * * * * * * * * * * * * * * * * * * * * * * * * * * * * * * * * * //

dimensions      [0 2 -1 0 0 0 0];

internalField   nonuniform List<scalar> 
2880
(
9.647e-07
1.28051e-05
4.59796e-05
0.0001099
0.000199376
6.12872e-05
3.10899e-05
0.000115803
0.000234739
0.000386785
0.000496406
0.00057016
4.87429e-05
0.000239089
0.000453115
0.00069459
0.000921147
0.00112614
5.46861e-05
0.000342357
0.000648924
0.00096301
0.00127162
0.0015695
5.93123e-05
0.000422773
0.000812457
0.00118337
0.00154007
0.0018814
6.28905e-05
0.000485865
0.000942915
0.00135902
0.00174693
0.00210063
6.56015e-05
0.000535758
0.00104401
0.00149404
0.00190002
0.0022529
6.75812e-05
0.000575611
0.00111997
0.00159469
0.00200919
0.0023552
6.89354e-05
0.000607302
0.00117417
0.00166385
0.00208186
0.00241911
6.97492e-05
0.000631538
0.00120902
0.00170492
0.00212374
0.00245244
7.00931e-05
0.00064804
0.00122525
0.00172058
0.00213875
0.00245959
7.00309e-05
0.000656047
0.00122302
0.00171293
0.00212865
0.00244423
6.96275e-05
0.0006541
0.00120235
0.00168315
0.00209474
0.00240818
6.88913e-05
0.000641442
0.00116303
0.00163044
0.00203726
0.00235196
6.7747e-05
0.000618556
0.00110501
0.00155537
0.00195571
0.00227262
6.61533e-05
0.000585591
0.00103
0.00145889
0.00185332
0.00217375
6.40686e-05
0.000542389
0.000937662
0.00133941
0.00172636
0.00205001
6.14324e-05
0.000488717
0.000829051
0.00119702
0.00157241
0.00189715
5.815e-05
0.000424111
0.000705836
0.00103293
0.00138792
0.00170906
5.4074e-05
0.00034918
0.000570355
0.000849047
0.00116953
0.00147784
4.89838e-05
0.000264057
0.000425587
0.00064976
0.000916009
0.00119097
0.000190069
0.000170083
0.000275496
0.00044054
0.00063881
0.000836512
3.3534e-05
7.2032e-05
0.000128635
0.000234595
0.000361942
0.000436293
9.60487e-07
6.01111e-06
2.50966e-05
7.28855e-05
0.000138219
0.000210222
0.000538741
0.00138655
0.00200906
0.00228848
0.00244171
0.00256043
0.00270134
0.00289313
0.00314447
0.00344106
0.0037638
0.0040947
0.00441635
0.0047111
0.00496068
0.005147
0.00525413
0.00527072
0.00519193
0.00501988
0.00476228
0.00443051
0.00403905
0.00360182
0.00122199
0.00190365
0.00227273
0.00245924
0.00256666
0.00267025
0.00281204
0.00301355
0.00327699
0.0035811
0.00390308
0.00422495
0.00452983
0.00480076
0.00502039
0.0051721
0.00524224
0.0052228
0.00511321
0.00492045
0.00465687
0.00433765
0.00398007
0.00359832
0.00172356
0.00222286
0.00247012
0.00259412
0.00267359
0.00277158
0.00291911
0.00313214
0.00340678
0.00371499
0.00403227
0.00434136
0.00462613
0.0048703
0.00505741
0.00517222
0.00520346
0.00514661
0.00500576
0.00479302
0.0045254
0.00422129
0.00389982
0.0035754
0.00206491
0.00243486
0.0026158
0.00270062
0.00276629
0.00286567
0.00302267
0.00324809
0.00353237
0.00384101
0.00415006
0.00444327
0.00470529
0.00492042
0.00507293
0.00514898
0.00513976
0.00504474
0.00487323
0.00464298
0.00437541
0.00409116
0.00380947
0.00354312
0.00230191
0.00259236
0.0027256
0.00278593
0.00284801
0.00295377
0.00312266
0.00336042
0.00365225
0.00395782
0.00425571
0.0045307
0.00476803
0.00495243
0.00506876
0.00510459
0.00505399
0.00492113
0.00472141
0.00447841
0.00421721
0.00395879
0.00371987
0.00350904
0.00246782
0.00270686
0.00280739
0.00285466
0.00292089
0.0030365
0.00321864
0.00346808
0.00376487
0.00406449
0.00434909
0.00460423
0.00481558
0.00496807
0.00504707
0.00504176
0.00494978
0.00478105
0.00455779
0.00430914
0.00406191
0.00383468
0.00363896
0.00347765
0.00258369
0.00278653
0.00286696
0.00291033
0.00298634
0.00311396
0.00330992
0.00357022
0.00386857
0.00416059
0.00443056
0.00466488
0.00484949
0.00496931
0.00501025
0.00496358
0.0048315
0.00463084
0.004391
0.00414519
0.00391912
0.0037261
0.00357088
0.00345098
0.00266175
0.00283932
0.00290907
0.0029557
0.00304487
0.00318573
0.00339552
0.00366556
0.00396319
0.00424633
0.00450089
0.00471397
0.00487148
0.00495825
0.0049609
0.00487353
0.00470417
0.00447752
0.00422961
0.0039951
0.0037953
0.0036364
0.00351657
0.00342946
0.00270981
0.00287122
0.00293738
0.00299295
0.00309586
0.00325097
0.00347436
0.00375311
0.00404861
0.00432217
0.00456111
0.00475295
0.00488338
0.00493706
0.00490175
0.00477542
0.00457323
0.00432815
0.00408104
0.00386461
0.00369321
0.00356562
0.00347493
0.00341276
0.00273304
0.00288604
0.00295434
0.00302305
0.00313898
0.00330881
0.00354551
0.0038322
0.00412493
0.00438881
0.00461239
0.00478335
0.00488699
0.00490792
0.00483567
0.00467331
0.00444419
0.00418899
0.00395053
0.00375632
0.00361254
0.00351178
0.00344402
0.00340024
0.00273568
0.00288645
0.00296145
0.00304601
0.00317434
0.00335866
0.00360828
0.00390245
0.00419246
0.00444713
0.00465598
0.00480668
0.00488407
0.00487301
0.00476565
0.00457135
0.00432216
0.00406482
0.00384083
0.00367013
0.0035511
0.00347209
0.00342169
0.00339122
0.00272052
0.00287419
0.00295953
0.00306142
0.00320133
0.00339978
0.00366213
0.00396375
0.00425174
0.00449809
0.00469314
0.00482442
0.00487638
0.00483456
0.0046947
0.00447348
0.00421134
0.00395861
0.00375237
0.00360414
0.00350598
0.00344387
0.00340575
0.00338499
0.00268919
0.00285029
0.00294894
0.00306822
0.00321887
0.00343135
0.00370666
0.00401621
0.00430344
0.00454272
0.00472511
0.00483799
0.0048656
0.00479476
0.00462577
0.0043832
0.00411472
0.00387142
0.00368387
0.00355555
0.00347416
0.00342368
0.00339551
0.00338099
0.00264245
0.00281524
0.00292994
0.00306415
0.00322545
0.00345251
0.0037416
0.00406009
0.00434829
0.00458201
0.00475307
0.00484875
0.0048534
0.00475582
0.00456167
0.00430338
0.00403405
0.0038029
0.00363302
0.00352122
0.00345248
0.00341117
0.00338945
0.00337864
0.00258033
0.0027691
0.0029027
0.00304563
0.00321944
0.00346258
0.00376691
0.00409587
0.00438711
0.00461695
0.00477811
0.00485796
0.00484137
0.00471982
0.00450487
0.00423613
0.00397
0.00375181
0.00359741
0.00349867
0.0034391
0.00340407
0.003386
0.00337734
0.00250121
0.00271152
0.00286472
0.00301344
0.00320036
0.00346132
0.00378287
0.00412422
0.00442069
0.00464843
0.00480121
0.00486677
0.004831
0.00468867
0.00445737
0.00418277
0.00392235
0.00371651
0.00357473
0.00348546
0.00343208
0.00340115
0.00338501
0.00337696
0.00240731
0.00264252
0.00281303
0.00296639
0.00316767
0.00344884
0.00379003
0.00414597
0.0044499
0.00467727
0.00482322
0.00487617
0.00482356
0.00466393
0.00442063
0.00414382
0.00389027
0.00369516
0.00356304
0.0034804
0.00343099
0.00340186
0.00338574
0.00337722
0.00229601
0.00256245
0.002742
0.00290248
0.00312087
0.00342553
0.00378929
0.00416221
0.00447558
0.00470418
0.00484482
0.00488696
0.0048201
0.00464681
0.00439553
0.0041192
0.00387249
0.00368616
0.00356056
0.00348171
0.00343376
0.00340502
0.00338802
0.00337802
0.00216495
0.0024696
0.00264901
0.00282082
0.00306021
0.00339239
0.00378198
0.00417427
0.00449863
0.00472982
0.00486656
0.00489978
0.00482144
0.00463815
0.00438249
0.00410861
0.00386858
0.00368793
0.00356619
0.00348873
0.00344044
0.00341031
0.00339131
0.00337913
0.00201249
0.00235997
0.00253417
0.00272197
0.00298714
0.00335128
0.00377002
0.00418378
0.00452001
0.00475475
0.00488887
0.00491509
0.00482813
0.00463846
0.00438153
0.0041113
0.0038762
0.00369958
0.00357914
0.0035009
0.0034506
0.00341777
0.00339578
0.00338065
0.00183755
0.00222629
0.00239786
0.00260649
0.00290381
0.00330494
0.00375596
0.00419274
0.00454074
0.00477951
0.00491208
0.00493316
0.0048405
0.00464778
0.00439227
0.00412639
0.00389554
0.00372053
0.00359904
0.00351809
0.00346425
0.00342751
0.00340155
0.00338269
0.00163542
0.00206087
0.00224304
0.00247744
0.00281375
0.0032574
0.00374316
0.00420345
0.00456198
0.00480464
0.00493651
0.00495417
0.00485858
0.0046661
0.00441455
0.00415374
0.0039259
0.00375049
0.00362589
0.00354045
0.0034816
0.00343973
0.00340883
0.0033854
0.00138316
0.00187336
0.00208026
0.00234202
0.00272401
0.00321464
0.00373581
0.00421831
0.00458459
0.00483015
0.00496159
0.0049777
0.00488234
0.00469338
0.00444778
0.00419259
0.00396691
0.00378949
0.00365998
0.00356837
0.00350305
0.00345483
0.00341795
0.00338903
0.00109162
0.0017012
0.00192095
0.00221201
0.00264595
0.0031847
0.00373849
0.00423893
0.0046085
0.0048557
0.00498675
0.00500352
0.00491113
0.00472854
0.00449114
0.00424234
0.00401838
0.00383774
0.00370181
0.00360245
0.00352919
0.00347331
0.0034293
0.00339383
9.69849e-07
3.68253e-06
1.194e-05
3.65639e-05
9.50788e-05
4.95569e-05
3.13387e-05
6.04947e-05
8.79504e-05
0.000105943
0.000110173
0.000126539
0.000176639
0.000119787
0.000148351
0.000153394
0.000167924
0.000234683
0.000192124
0.000164895
0.000195926
0.000201476
0.000230778
0.000333495
4.81504e-05
0.00020217
0.000239306
0.000255913
0.000283977
0.000425234
5.1724e-05
0.000236087
0.000281549
0.000301785
0.000336262
0.000510001
5.46317e-05
0.000266504
0.000323126
0.000345038
0.000392344
0.000585134
5.69891e-05
0.000293419
0.000362241
0.000389356
0.000449912
0.000651643
5.87934e-05
0.000317441
0.000398599
0.00043527
0.000508842
0.000711055
6.00578e-05
0.000338257
0.00043246
0.000482928
0.000569192
0.000764651
6.08038e-05
0.000355331
0.000464521
0.00053097
0.000627924
0.000815649
6.10575e-05
0.000368213
0.000494588
0.000577698
0.000682756
0.00085298
6.08887e-05
0.000376422
0.000521681
0.000620968
0.000732939
0.000893733
6.03207e-05
0.000379493
0.000544985
0.000659439
0.000784362
0.000929307
5.95121e-05
0.000377061
0.000562568
0.000690597
0.00082389
0.000959256
5.85727e-05
0.00036844
0.000571984
0.000711961
0.000850553
0.000982372
5.73453e-05
0.000353855
0.000571475
0.000724388
0.000860338
0.000996325
5.56912e-05
0.0003344
0.000558789
0.000725061
0.000852229
0.000995495
5.34766e-05
0.000310166
0.000532038
0.000706451
0.000830161
0.000967732
5.06686e-05
0.000278574
0.000487254
0.000658587
0.000792664
0.000905867
0.000200715
0.000236093
0.000418581
0.000579613
0.000717877
0.000822814
0.000181326
0.000174537
0.000317283
0.000456637
0.000585229
0.000688243
3.21475e-05
8.83503e-05
0.000176987
0.000275059
0.000383049
0.000421053
9.35743e-07
7.63968e-06
2.93737e-05
6.64438e-05
0.000124192
0.000198049
0.000919126
0.00154445
0.00176239
0.00210506
0.00259675
0.00317616
0.00375547
0.0042642
0.00463339
0.00488029
0.00501137
0.00503089
0.00494434
0.00477101
0.00454389
0.00430248
0.00408023
0.00389563
0.00375203
0.00364347
0.0035608
0.00349586
0.00344325
0.00339998
0.000841218
0.0013967
0.00166278
0.00205118
0.00258287
0.00319224
0.00378813
0.004292
0.00465825
0.00490327
0.00503596
0.00505937
0.00498121
0.00481986
0.0046052
0.00437252
0.00415249
0.00396367
0.00381152
0.00369243
0.00359882
0.00352318
0.00346015
0.00340753
0.000873223
0.00132529
0.00161691
0.00203688
0.00260097
0.00323021
0.00383267
0.00432271
0.00468206
0.0049239
0.00505835
0.00508771
0.00502057
0.00487394
0.00467407
0.00445189
0.00423524
0.00404258
0.00388139
0.00375058
0.00364434
0.00355602
0.00348057
0.00341662
0.000907678
0.00128119
0.00159688
0.00205258
0.00264399
0.00328433
0.00388255
0.00435363
0.00470221
0.00494168
0.00507747
0.00511445
0.00506087
0.00493163
0.00474905
0.00453963
0.00432819
0.0041328
0.00396265
0.00381915
0.00369853
0.00359535
0.00350552
0.00342788
0.000930668
0.00125697
0.00159898
0.00209071
0.00270463
0.0033494
0.00392703
0.00438093
0.00471791
0.00495307
0.00509104
0.00513749
0.00509988
0.00499064
0.004828
0.00463398
0.00443026
0.00423402
0.00405574
0.00389915
0.00376266
0.0036425
0.00353584
0.00344155
0.000947119
0.00124932
0.00161985
0.00214494
0.0027751
0.00341552
0.00396525
0.00439792
0.00472491
0.00495517
0.00509631
0.00515403
0.00513466
0.00504786
0.00490781
0.00473215
0.00453923
0.00434487
0.00416022
0.00399092
0.00383761
0.00369843
0.0035721
0.00345757
0.000962076
0.00125647
0.00165605
0.00220964
0.00284874
0.00347232
0.0039937
0.00440549
0.00471911
0.00494466
0.00509007
0.00516072
0.00516153
0.00509934
0.00498442
0.00483021
0.0046516
0.00446261
0.00427434
0.00409377
0.00392349
0.00376357
0.00361457
0.00347569
0.000979521
0.0012768
0.00170376
0.00227847
0.00291787
0.00351395
0.00400531
0.00439636
0.00469664
0.00491804
0.0050688
0.00515377
0.00517628
0.00514045
0.0050529
0.0049231
0.00476252
0.00458292
0.00439468
0.00420538
0.00401901
0.00383738
0.00366294
0.00349531
0.001002
0.00130803
0.0017581
0.00234393
0.00297364
0.0035337
0.00399794
0.00436673
0.00465384
0.00487184
0.00502894
0.00512922
0.00517442
0.00516614
0.00510769
0.00500491
0.0048659
0.00469991
0.00451594
0.0043214
0.00412101
0.00391777
0.00371578
0.00351517
0.00103054
0.00134703
0.00181241
0.00239853
0.00300093
0.00353144
0.00396575
0.00431269
0.00458747
0.00480297
0.00496715
0.00508324
0.0051515
0.00517129
0.00514302
0.00506926
0.00495488
0.00480646
0.00463115
0.00443548
0.0042241
0.00400056
0.00377
0.00353288
0.00106485
0.00139065
0.00185538
0.00242866
0.00300435
0.00349987
0.00390502
0.00423142
0.00449512
0.00470903
0.00488069
0.00501254
0.00510354
0.00515119
0.00515342
0.00510989
0.00502247
0.00489498
0.00473241
0.00453979
0.00432102
0.00407942
0.0038204
0.0035445
0.00109291
0.00141815
0.00188671
0.0024372
0.00297483
0.0034358
0.00381362
0.00412143
0.00437553
0.0045886
0.00476771
0.00491466
0.00502743
0.00510202
0.0051343
0.00512139
0.00506239
0.00495839
0.00481196
0.0046262
0.00440363
0.00414662
0.00385995
0.00354418
0.00112454
0.00144374
0.00189288
0.00241144
0.00291014
0.0033383
0.00369138
0.00398286
0.00422877
0.0044414
0.00462743
0.00478827
0.00492123
0.00502121
0.00508245
0.00509988
0.00507003
0.00499132
0.00486371
0.004688
0.00446479
0.00419476
0.00388102
0.00352447
0.0011461
0.00145004
0.00186999
0.00235032
0.00281097
0.00320886
0.00354004
0.00381737
0.0040562
0.00426834
0.00446029
0.0046333
0.00478439
0.0049078
0.0049965
0.00504361
0.00504332
0.00499138
0.004885
0.00472224
0.00450117
0.00421981
0.00387803
0.00347749
0.00115766
0.0014354
0.00181789
0.00225669
0.00268083
0.00305116
0.00336308
0.00362804
0.00386039
0.00407151
0.00426789
0.00445096
0.00461784
0.00476252
0.00487718
0.0049535
0.00498363
0.00496075
0.0048791
0.00473345
0.00451827
0.0042271
0.00385299
0.00339752
0.00115945
0.0014033
0.00174203
0.00213704
0.00252575
0.00287068
0.00316531
0.00341902
0.00364493
0.003854
0.00405292
0.00424362
0.00442377
0.00458759
0.00472706
0.004833
0.00489607
0.0049073
0.0048581
0.00473943
0.00454028
0.0042451
0.00383208
0.00329244
0.00115218
0.00135857
0.00164993
0.00199959
0.00235323
0.00267397
0.00295241
0.00319528
0.00341419
0.00361973
0.00381892
0.00401453
0.00420519
0.00438601
0.0045495
0.00468654
0.00478741
0.00484236
0.00484152
0.0047735
0.00462192
0.00436337
0.0039941
0.00368199
0.00113556
0.00130552
0.00154915
0.00185287
0.00217125
0.00246801
0.00273048
0.00296224
0.00317314
0.00337327
0.0035701
0.00376747
0.00396541
0.00416055
0.00434677
0.00451617
0.00466011
0.00477017
0.00483872
0.00485868
0.00482304
0.00472846
0.00459689
0.00451201
0.00110841
0.00124633
0.00144547
0.00170433
0.00198723
0.00225957
0.00250561
0.00272552
0.00292708
0.00311968
0.00331121
0.00350668
0.00370785
0.00391335
0.0041192
0.00431954
0.00450746
0.00467566
0.00481674
0.00492316
0.0049881
0.0050118
0.00501731
0.00503798
0.00106239
0.00117843
0.00134106
0.00155894
0.00180708
0.00205452
0.0022834
0.00249056
0.00268141
0.00286438
0.00304754
0.00323704
0.00343648
0.00364684
0.00386682
0.00409331
0.00432159
0.0045451
0.00475465
0.00493831
0.00507603
0.00518856
0.00526781
0.00532557
0.000971168
0.00109143
0.00123255
0.00141766
0.00163411
0.00185709
0.00206844
0.00226221
0.00244132
0.00261288
0.00278486
0.00296428
0.00315645
0.00336475
0.00359091
0.00383509
0.00409548
0.00436677
0.0046381
0.00488467
0.00508886
0.00527633
0.00540204
0.00548235
0.000814039
0.000979152
0.00111301
0.00127694
0.00146801
0.00166901
0.00186359
0.0020441
0.00221119
0.00237038
0.00252912
0.00269492
0.0028744
0.00307311
0.0032957
0.00354592
0.00382562
0.00413201
0.00445392
0.00475167
0.00501921
0.00526769
0.00543651
0.00553599
0.000578144
0.000816289
0.000976579
0.00113567
0.00130902
0.00149122
0.00167038
0.00183848
0.00199416
0.00214113
0.00228586
0.00243577
0.00259825
0.00278042
0.00298937
0.00323222
0.00351504
0.00383914
0.00419566
0.00453596
0.00485448
0.00515607
0.00537068
0.00548926
0.000291988
0.000498229
0.000749244
0.000945056
0.00112985
0.00130991
0.0014823
0.00164279
0.00179015
0.00192705
0.00205895
0.00219277
0.00233608
0.00249681
0.00268361
0.00290621
0.00317469
0.00349585
0.00386622
0.00423741
0.00459594
0.00493659
0.00520203
0.00534188
8.0883e-07
3.86086e-06
1.26629e-05
2.91603e-05
5.10978e-05
8.91114e-05
2.88989e-05
6.56751e-05
0.00012292
0.000184552
0.000247443
0.000302556
0.000165199
0.000145217
0.000249082
0.000350947
0.000443576
0.0004947
0.000181337
0.000205383
0.000351678
0.000486071
0.000600475
0.000661606
0.000193238
0.000246464
0.000433546
0.000594552
0.000727681
0.000806464
4.75925e-05
0.000271613
0.000499153
0.000682134
0.000831063
0.000929754
4.86069e-05
0.000297507
0.000552454
0.0007534
0.000916352
0.0010322
5.06687e-05
0.000324173
0.000596654
0.00081198
0.000987561
0.00111849
5.20857e-05
0.000349483
0.000632993
0.000859831
0.00104693
0.00119125
5.3182e-05
0.000371927
0.000661636
0.000897753
0.00109559
0.00125196
5.39878e-05
0.000390155
0.000682171
0.000925976
0.0011339
0.00130135
5.4533e-05
0.000402811
0.000694088
0.000944233
0.00116177
0.00133966
5.48534e-05
0.000408457
0.000696859
0.000951963
0.0011787
0.00136673
5.48556e-05
0.000407296
0.000689824
0.000948337
0.0011838
0.00138203
5.45091e-05
0.000399367
0.00067205
0.000932269
0.00117578
0.00138463
5.37936e-05
0.00038424
0.000643317
0.000902194
0.0011528
0.00137312
5.26917e-05
0.000361426
0.000602674
0.000856933
0.00111222
0.00134537
5.1159e-05
0.000330392
0.00054954
0.000794456
0.00105117
0.00129905
4.88536e-05
0.000290588
0.000483547
0.000713007
0.000966211
0.00122441
4.75308e-05
0.000241427
0.00040469
0.000611459
0.000851495
0.00111111
0.000188759
0.000184004
0.00031347
0.000489473
0.000702292
0.000945077
0.000171014
0.000118964
0.000211253
0.000348478
0.000517481
0.000708602
2.95574e-05
5.00311e-05
0.00010256
0.000193909
0.000309176
0.000391801
8.1226e-07
4.01041e-06
1.95605e-05
5.7892e-05
0.000118586
0.000196525
0.000284166
0.000377061
0.000581767
0.000767978
0.000951174
0.0011287
0.00129778
0.00145452
0.00159734
0.00172771
0.00184982
0.00196971
0.0020945
0.00223212
0.00239171
0.00258427
0.0028228
0.00311956
0.003479
0.00386612
0.00424749
0.00461119
0.0049295
0.00509616
0.000338699
0.000396363
0.00046956
0.000620588
0.000783089
0.000952372
0.00111738
0.00127208
0.0014134
0.00154101
0.00165751
0.00176753
0.00187717
0.00199364
0.00212554
0.00228367
0.00248188
0.00273605
0.00305837
0.00344163
0.00382295
0.00420081
0.0045459
0.00475934
0.000477103
0.000500819
0.000512838
0.00055761
0.000664408
0.000799383
0.000947973
0.00109717
0.00123722
0.00136464
0.0014795
0.00158447
0.00168414
0.0017844
0.00189259
0.00201807
0.00217351
0.00237548
0.00264189
0.00298305
0.00335626
0.00372978
0.00407466
0.00433775
0.000658352
0.000609822
0.000634761
0.000641775
0.00066638
0.000727555
0.000823271
0.000943168
0.00107204
0.00119718
0.00131224
0.00141644
0.00151184
0.00160249
0.00169401
0.00179373
0.00191176
0.00206243
0.00226439
0.0025356
0.00288051
0.00322931
0.00355986
0.00384673
0.000828748
0.000777157
0.000771291
0.000790841
0.000792835
0.000801821
0.000829501
0.000881069
0.000958743
0.00105539
0.0011591
0.00126015
0.00135412
0.00144115
0.00152399
0.00160749
0.00169881
0.00180847
0.00195192
0.00214915
0.00241907
0.00274073
0.00304989
0.00332481
0.000978651
0.000955967
0.000947459
0.000957087
0.000970665
0.000968664
0.000964447
0.000966227
0.000979884
0.00101234
0.00106601
0.00113666
0.00121589
0.00129619
0.00137383
0.00144909
0.0015252
0.00160846
0.00170923
0.00184325
0.00203117
0.00229394
0.00258322
0.00281427
0.00110713
0.00112373
0.00112878
0.00114264
0.00115748
0.00116583
0.00116007
0.00114529
0.00112804
0.00111302
0.00110731
0.00111736
0.00114644
0.00119272
0.00125049
0.00131371
0.00137911
0.00144723
0.00152248
0.00161405
0.00173715
0.00191598
0.00216721
0.00236587
0.00121797
0.00126825
0.0012961
0.00132171
0.00134433
0.00135904
0.00136247
0.00135313
0.00133014
0.00129932
0.00126421
0.00123081
0.00120579
0.00119527
0.00120299
0.0012287
0.0012687
0.00131839
0.00137534
0.0014412
0.00152271
0.0016344
0.0018195
0.00199401
0.0013107
0.00138752
0.00143835
0.00147863
0.00151205
0.00153611
0.00154785
0.00154609
0.00153349
0.00150456
0.00146361
0.00141568
0.00136451
0.00131557
0.00127496
0.00124831
0.00123945
0.00124916
0.00127537
0.00131519
0.0013679
0.00143585
0.0015513
0.00170161
0.00138765
0.00148476
0.00155313
0.0016062
0.00164898
0.00168165
0.00170261
0.00171116
0.00170575
0.00169025
0.00165723
0.00160845
0.00155392
0.00149301
0.00143023
0.00137055
0.00131939
0.00128186
0.00126165
0.00126011
0.00127696
0.00130941
0.00136546
0.0014845
0.00145052
0.00156265
0.0016422
0.0017036
0.00175374
0.00179327
0.00182142
0.00183689
0.00183939
0.0018296
0.00181226
0.00177931
0.00172971
0.00167242
0.00160778
0.00153957
0.00147078
0.00140576
0.0013494
0.001306
0.0012794
0.00127048
0.00127848
0.00135109
0.0015003
0.00162265
0.00170849
0.00177397
0.00182733
0.00187058
0.00190361
0.00192573
0.00193655
0.00193579
0.00192293
0.0019012
0.00186567
0.00182127
0.00177155
0.00171133
0.00164299
0.00157188
0.00150241
0.00143774
0.00138103
0.00133612
0.00130371
0.00132857
0.00153756
0.00166661
0.00175439
0.00182013
0.00187306
0.00191682
0.00195213
0.00197874
0.00199623
0.00200419
0.00200228
0.0019904
0.00196941
0.00193593
0.00189366
0.0018503
0.00180395
0.00174963
0.00168499
0.00161523
0.0015468
0.00148516
0.00143473
0.00143003
0.00156254
0.00169591
0.00178274
0.00184478
0.00189375
0.0019348
0.00196965
0.00199857
0.00202133
0.00203745
0.00204646
0.00204718
0.00204021
0.00202451
0.00199999
0.00196719
0.0019287
0.00188729
0.00184678
0.00180327
0.00175301
0.0016957
0.00164403
0.00162763
0.00157511
0.00171129
0.00179453
0.00184957
0.00189101
0.00192569
0.00195651
0.00198456
0.00201006
0.00203274
0.00205215
0.00206697
0.00207603
0.00207865
0.00207321
0.00206038
0.00204021
0.00201303
0.00197892
0.0019421
0.00190824
0.00188336
0.00186729
0.00186399
0.00157482
0.00171341
0.00179074
0.00183557
0.00186551
0.00188914
0.0019106
0.00193208
0.00195472
0.00197876
0.00200534
0.00203141
0.00205642
0.0020785
0.0020929
0.00210299
0.00210614
0.00210114
0.00208795
0.00206812
0.00204394
0.00201888
0.00200004
0.00199247
0.00156071
0.00170237
0.00177228
0.00180372
0.00181792
0.00182477
0.00182955
0.00183572
0.00184588
0.00185944
0.00187483
0.00189357
0.00191771
0.00194682
0.00197517
0.00200381
0.00203303
0.00205851
0.00207783
0.00209047
0.00209712
0.0020991
0.00209794
0.00209801
0.00153041
0.00167828
0.00174037
0.00175543
0.00175009
0.00173436
0.00171461
0.00169513
0.00167729
0.0016641
0.00166103
0.00167106
0.00169317
0.00172454
0.00175914
0.00179619
0.00183657
0.00187704
0.00191533
0.00194858
0.00197585
0.00199707
0.00201189
0.00201955
0.00148149
0.00164098
0.00169853
0.00169551
0.00166595
0.00162387
0.00157487
0.00152001
0.00147097
0.00143786
0.00142305
0.00142674
0.00144167
0.0014656
0.00149905
0.00154204
0.00158688
0.00163257
0.00167877
0.00172324
0.00176408
0.0018002
0.00183041
0.00185571
0.00141119
0.00159379
0.00164741
0.00162718
0.0015753
0.00150589
0.00142818
0.00134822
0.00128383
0.00123503
0.00119954
0.00118077
0.00119066
0.0012097
0.00123416
0.00126362
0.00130029
0.00134275
0.00138738
0.00143108
0.00147244
0.00150969
0.00154245
0.0015752
0.0013171
0.00153473
0.0015898
0.00155658
0.00148848
0.00139993
0.00130661
0.00122045
0.0011516
0.00109998
0.00105988
0.00103234
0.00100695
0.00100671
0.00101541
0.00103678
0.00106816
0.00110553
0.00114462
0.00118147
0.00121222
0.00123381
0.00124372
0.00126148
0.00119394
0.0014627
0.0015285
0.00149287
0.00141574
0.00131955
0.00121925
0.00113388
0.00106912
0.00102144
0.000987792
0.000960385
0.000933589
0.000916883
0.000921757
0.000945186
0.000983989
0.00103288
0.00108617
0.00114283
0.00119321
0.00123369
0.00126671
0.0013294
0.00103534
0.00138265
0.00146906
0.00144485
0.0013696
0.00127055
0.00117769
0.00110468
0.00105206
0.00101383
0.000985716
0.000952912
0.000916656
0.000909231
0.000923556
0.000962274
0.0010237
0.00110189
0.00118848
0.00126859
0.00134496
0.00141711
0.00150015
0.00161929
0.000856261
0.00130851
0.00142746
0.00141137
0.00133791
0.00125127
0.00117493
0.00111689
0.00107366
0.00103962
0.00100402
0.000955048
0.00092913
0.000923711
0.000948041
0.00100197
0.00107889
0.00116967
0.00126603
0.00136621
0.00147417
0.0015957
0.00175245
0.0019288
7.33623e-07
2.75733e-06
1.11906e-05
3.48676e-05
8.98382e-05
0.000196545
2.78416e-05
4.77858e-05
8.52814e-05
0.000137768
0.000204486
0.000309412
0.00016096
0.000103789
0.000164098
0.000238569
0.000333422
0.000505901
0.0001784
0.000150965
0.000231058
0.000327231
0.000452159
0.000657595
0.000191579
0.00019074
0.000288642
0.000405366
0.00055379
0.000765488
0.000200105
0.000223579
0.000338062
0.000471398
0.000634839
0.000838981
4.78162e-05
0.000250802
0.000379724
0.000524988
0.000694543
0.000883386
4.88513e-05
0.000272584
0.000413728
0.000566174
0.000734372
0.000903167
4.96684e-05
0.00028903
0.000440136
0.000595396
0.00075651
0.000902899
5.02308e-05
0.000300122
0.000459087
0.000613975
0.000763304
0.000886114
5.05127e-05
0.000306342
0.000471185
0.000621971
0.000757013
0.000855999
5.05091e-05
0.000308079
0.000476073
0.000620886
0.00073974
0.00081523
5.02157e-05
0.000305073
0.000474483
0.000611773
0.000713322
0.000765875
4.96485e-05
0.000297572
0.000466877
0.000595621
0.000679314
0.000709367
4.8886e-05
0.000285538
0.000453805
0.000573276
0.000639
0.000647282
4.8017e-05
0.000270236
0.000435777
0.000545489
0.000594076
0.000582794
4.72263e-05
0.000254875
0.000413323
0.000513017
0.000546585
0.000520865
0.000198542
0.000246627
0.000386455
0.000476288
0.000498613
0.000465427
0.000193799
0.000232456
0.000354454
0.00043481
0.00045061
0.00041615
0.000185038
0.000210609
0.000314674
0.000386362
0.000400831
0.000370599
0.000172491
0.000176859
0.000262336
0.000325893
0.000344562
0.000326976
0.000156264
0.000126625
0.000191589
0.00024482
0.000271125
0.000276807
2.72202e-05
5.72794e-05
9.7203e-05
0.000136316
0.000163867
0.000208307
7.5844e-07
3.04063e-06
8.43503e-06
1.78941e-05
3.0672e-05
9.14421e-05
0.000830489
0.00126544
0.00139149
0.00138407
0.00132292
0.00125252
0.00119164
0.00114325
0.00110083
0.00106448
0.00100732
0.000964954
0.000941054
0.000950823
0.000999045
0.00107927
0.00118163
0.00129676
0.00141941
0.00154964
0.00169245
0.001866
0.00206492
0.00227258
0.000886055
0.00124456
0.0013655
0.00136397
0.0013146
0.00125784
0.00120723
0.00116066
0.0011148
0.00106369
0.00100475
0.000968481
0.000968025
0.00101297
0.00109913
0.00121387
0.00134755
0.00149604
0.00165951
0.00184399
0.00205964
0.00231744
0.00260777
0.00284232
0.000954615
0.00124745
0.00134607
0.00134438
0.00130303
0.00125456
0.00120864
0.00115332
0.00111009
0.00104019
0.000998638
0.000991254
0.00103194
0.00111886
0.00123801
0.00137691
0.00153218
0.00170717
0.00191175
0.00216014
0.00246549
0.00282729
0.00319272
0.0034786
0.0010159
0.00125065
0.00132515
0.00131858
0.0012813
0.00123572
0.00118059
0.00113934
0.00107078
0.00102457
0.00101092
0.00104752
0.00113391
0.00125495
0.00139677
0.00155508
0.00173515
0.00194877
0.00221167
0.00253924
0.00293793
0.00336997
0.0037791
0.00407187
0.00105943
0.00124353
0.00129588
0.00128306
0.00124573
0.00119005
0.00115275
0.00109472
0.00104215
0.00102588
0.0010616
0.00114856
0.00127025
0.00141209
0.00157006
0.00175012
0.00196559
0.00223446
0.00257514
0.00299843
0.00348582
0.00397903
0.00443399
0.00472617
0.00108061
0.00122244
0.00125466
0.00123494
0.00118882
0.00114865
0.00110637
0.00105093
0.00103674
0.00107259
0.00115863
0.00127828
0.00141727
0.00157187
0.00174745
0.00195638
0.00221708
0.00255126
0.00297635
0.00349311
0.00404646
0.0046025
0.0050772
0.00536588
0.00108096
0.00118613
0.00120053
0.00117562
0.00113076
0.00110471
0.00105268
0.00103744
0.00107352
0.00115987
0.00127908
0.00141649
0.00156783
0.00173727
0.00193559
0.00218013
0.00249374
0.00289913
0.00340755
0.00399887
0.00460574
0.00519752
0.00567169
0.00595128
0.00106251
0.00113547
0.00113563
0.00109921
0.00108703
0.00104418
0.00102861
0.00106591
0.00115341
0.00127267
0.0014085
0.00155602
0.00171854
0.00190531
0.00213142
0.0024181
0.00279026
0.0032679
0.0038523
0.00449546
0.0051457
0.0057454
0.00620613
0.00647656
0.00102812
0.00107334
0.00106547
0.0010496
0.0010239
0.00100634
0.00104872
0.00113849
0.00125884
0.00139409
0.00153847
0.0016945
0.00187023
0.00207837
0.00233688
0.00266898
0.00309905
0.00364134
0.00428537
0.00496295
0.00563431
0.00622592
0.00666661
0.00692341
0.000981247
0.00100403
0.000990622
0.000987099
0.000974332
0.00101753
0.00110907
0.00123317
0.00137139
0.00151545
0.00166671
0.00183253
0.00202419
0.00225664
0.00254939
0.00292591
0.00340766
0.00400125
0.00468489
0.00537828
0.00604963
0.00661976
0.00704179
0.00727411
0.000925652
0.000934127
0.000940429
0.000933927
0.000964936
0.00106183
0.00119422
0.00133951
0.00148637
0.00163507
0.00179275
0.00197015
0.00218039
0.00243929
0.00276613
0.0031824
0.00370468
0.00433152
0.00503228
0.00572285
0.00637488
0.00691337
0.00731184
0.00751807
0.000864176
0.000868239
0.000885022
0.00089848
0.000996045
0.0011387
0.0012948
0.00144902
0.00159931
0.00175203
0.00191773
0.00210897
0.00233953
0.00262476
0.00298208
0.00342913
0.00397645
0.00461552
0.00531029
0.00598019
0.00659529
0.007093
0.00746044
0.00764574
0.00079783
0.000810819
0.000836541
0.000899328
0.00105607
0.00122966
0.00139891
0.0015574
0.00171002
0.00186749
0.00204283
0.00224955
0.002501
0.00281067
0.00319237
0.00365831
0.00421256
0.00484127
0.00550675
0.00613838
0.00669993
0.00714877
0.00747841
0.00764263
0.000725299
0.000769931
0.000804127
0.000943905
0.00114087
0.00133076
0.00150502
0.00166432
0.00181879
0.00198224
0.00216899
0.00239236
0.00266411
0.00299453
0.00339249
0.00386372
0.00440591
0.00500172
0.00561506
0.00619024
0.00668191
0.00707264
0.0073543
0.00749543