/*--------------------------------*- C++ -*----------------------------------*\
  =========                 |
  \\      /  F ield         | OpenFOAM: The Open Source CFD Toolbox
   \\    /   O peration     | Website:  https://openfoam.org
    \\  /    A nd           | Version:  11
     \\/     M anipulation  |
\*---------------------------------------------------------------------------*/
FoamFile
{
    format      ascii;
    class       volScalarField;
    location    "0.82";
    object      p;
}
// * * * * * * * * * * * * * * * * * * * * * * * * * * * * * * * * * * * * * //

dimensions      [0 2 -2 0 0 0 0];

internalField   nonuniform List<scalar> 
2880
(
1.49139
1.52778
1.5595
1.59141
1.57381
1.48596
1.49141
1.52182
1.54446
1.56168
1.50277
1.36947
1.49143
1.51417
1.52532
1.52855
1.45609
1.30753
1.49121
1.50816
1.50908
1.49919
1.42171
1.28314
1.49057
1.50397
1.49645
1.47614
1.39907
1.27516
1.48938
1.50022
1.48623
1.4583
1.38369
1.27402
1.48753
1.49587
1.47725
1.44414
1.37287
1.27589
1.48498
1.49053
1.46891
1.43257
1.36511
1.27887
1.48188
1.48426
1.46103
1.42295
1.35934
1.28183
1.47841
1.4774
1.45373
1.41492
1.35485
1.28405
1.47474
1.47039
1.44721
1.40826
1.35123
1.28549
1.47106
1.46366
1.44166
1.40287
1.34823
1.28605
1.46751
1.45755
1.43718
1.39866
1.34571
1.28577
1.46419
1.45231
1.43382
1.39558
1.34363
1.28476
1.46115
1.44808
1.43156
1.39357
1.34209
1.28332
1.45842
1.44493
1.43032
1.3926
1.3413
1.28196
1.456
1.44279
1.42992
1.39262
1.34145
1.28134
1.45389
1.44152
1.4301
1.39352
1.34278
1.28233
1.45212
1.44081
1.43052
1.39521
1.34554
1.28625
1.45092
1.44015
1.43068
1.39733
1.35013
1.29592
1.45115
1.43867
1.42987
1.3991
1.35723
1.31864
1.45166
1.43528
1.42728
1.39983
1.36721
1.3669
1.44995
1.43055
1.4231
1.4017
1.37865
1.44706
1.44869
1.42764
1.42222
1.40911
1.38843
1.53551
0.283659
0.342239
0.361929
0.384792
0.407191
0.4215
0.428824
0.431382
0.43102
0.429158
0.426708
0.42416
0.421767
0.419664
0.41791
0.416521
0.415495
0.414813
0.41424
0.413033
0.411373
0.415957
0.437906
0.437283
0.613535
0.523176
0.499259
0.495623
0.497418
0.497046
0.493622
0.488016
0.481333
0.474538
0.468206
0.462573
0.457711
0.453629
0.450295
0.447649
0.445624
0.44414
0.442907
0.441153
0.439082
0.443224
0.463997
0.462475
0.803562
0.675815
0.620712
0.595574
0.580317
0.567189
0.554148
0.541148
0.528712
0.517426
0.507565
0.499131
0.492038
0.486177
0.481432
0.477671
0.474761
0.472565
0.470743
0.468518
0.466113
0.469786
0.489133
0.487025
0.917675
0.792831
0.722554
0.68248
0.654181
0.630638
0.609437
0.590028
0.57256
0.557327
0.544355
0.533451
0.524389
0.516967
0.510989
0.506257
0.502579
0.499761
0.497426
0.494809
0.492159
0.495363
0.513098
0.51066
1.00059
0.883432
0.80636
0.756383
0.718524
0.686798
0.658936
0.634173
0.612454
0.593865
0.578236
0.565211
0.554461
0.545704
0.538678
0.533125
0.528797
0.52545
0.52268
0.519755
0.516946
0.51969
0.535684
0.533127
1.06281
0.953725
0.874324
0.81817
0.773474
0.73553
0.702414
0.673327
0.648136
0.626787
0.608957
0.594168
0.582014
0.572152
0.564264
0.55804
0.55318
0.549396
0.54627
0.543119
0.54023
0.542523
0.55669
0.554178
1.10878
1.00781
0.928672
0.868909
0.819508
0.777003
0.739876
0.707413
0.679482
0.655942
0.636349
0.620145
0.606866
0.596125
0.587559
0.580811
0.575534
0.571403
0.567997
0.564696
0.561793
0.56364
0.575934
0.573583
1.14249
1.04873
0.971412
0.909776
0.857287
0.81157
0.771489
0.736483
0.706474
0.681265
0.660318
0.643025
0.628889
0.617486
0.608419
0.601287
0.595702
0.591306
0.587689
0.584303
0.581434
0.582839
0.593255
0.591139
1.16671
1.07938
1.00433
0.941927
0.887537
0.839673
0.797509
0.760674
0.729169
0.702752
0.680823
0.662745
0.647999
0.636139
0.626737
0.619351
0.613554
0.608968
0.6052
0.601781
0.59898
0.59995
0.608523
0.606681
1.18368
1.10171
1.0289
0.966413
0.910978
0.861785
0.818237
0.780171
0.747666
0.720447
0.697867
0.679278
0.664151
0.652023
0.642436
0.634912
0.628988
0.624273
0.620405
0.616994
0.614284
0.614836
0.621646
0.620083
1.19478
1.11714
1.04629
0.984136
0.928269
0.878361
0.833987
0.795182
0.762094
0.734421
0.711485
0.692632
0.677331
0.665104
0.655466
0.647903
0.641923
0.637132
0.633206
0.629836
0.627234
0.627408
0.632578
0.631246
1.20104
1.12671
1.05742
0.995833
0.939974
0.88981
0.845049
0.805909
0.77259
0.744765
0.721732
0.702837
0.687547
0.675372
0.665798
0.658278
0.652301
0.647478
0.643529
0.640223
0.637748
0.637611
0.641293
0.640022
1.20313
1.13116
1.06295
1.00208
0.946543
0.896468
0.851677
0.812538
0.77929
0.751577
0.728678
0.70994
0.694827
0.682836
0.673424
0.666014
0.660086
0.655267
0.651322
0.648087
0.64573
0.645323
0.647688
0.64642
1.20141
1.13096
1.06336
1.00326
0.948306
0.898597
0.854077
0.815233
0.782323
0.754961
0.732407
0.714005
0.699218
0.687525
0.678357
0.671113
0.665274
0.660493
0.656578
0.653421
0.65114
0.65044
0.651725
0.650727
1.19595
1.12634
1.05892
0.999661
0.945486
0.896382
0.852408
0.814133
0.781809
0.755022
0.733008
0.715109
0.700782
0.689489
0.680636
0.67361
0.667902
0.663201
0.659357
0.656303
0.65408
0.653081
0.653558
0.653039
1.18665
1.11732
1.04972
0.991417
0.938209
0.889952
0.846795
0.809356
0.777864
0.751867
0.730583
0.713343
0.699598
0.688795
0.680319
0.673558
0.668025
0.663443
0.659701
0.656759
0.654643
0.653509
0.653375
0.653098
1.17314
1.10374
1.0356
0.97852
0.926506
0.879374
0.837329
0.801007
0.770601
0.745614
0.725242
0.70881
0.69576
0.685526
0.677485
0.671033
0.665717
0.661296
0.657689
0.654877
0.65286
0.651665
0.651232
0.651131
1.15472
1.08516
1.0162
0.96079
0.910307
0.864664
0.824078
0.789188
0.760138
0.736389
0.717114
0.701631
0.68938
0.679788
0.672233
0.666134
0.661078
0.656859
0.653417
0.650741
0.648821
0.64765
0.647175
0.647159
1.13023
1.06082
0.990963
0.937918
0.889484
0.845815
0.80711
0.774012
0.746616
0.724341
0.706345
0.691948
0.680592
0.671707
0.664686
0.658982
0.654226
0.650245
0.646995
0.644459
0.642633
0.641569
0.641302
0.64125
1.09789
1.02938
0.95912
0.909493
0.863894
0.822836
0.786523
0.755628
0.730207
0.70965
0.693112
0.679927
0.669552
0.661431
0.654987
0.649718
0.645299
0.641589
0.638551
0.636157
0.634421
0.63355
0.633737
0.633561
1.05501
0.988435
0.919601
0.875033
0.833423
0.795794
0.762481
0.734244
0.711136
0.692539
0.677625
0.665764
0.656443
0.649135
0.643305
0.638504
0.634453
0.631041
0.628232
0.62598
0.624329
0.623724
0.624595
0.624202
0.997789
0.933867
0.871065
0.834134
0.798097
0.764891
0.735259
0.710161
0.689696
0.673279
0.660131
0.649684
0.641471
0.635011
0.629823
0.625516
0.621858
0.618764
0.616195
0.614082
0.612512
0.612242
0.614006
0.613307
0.911994
0.859335
0.812105
0.786826
0.758279
0.730569
0.705308
0.6838
0.666265
0.652198
0.640915
0.631938
0.624864
0.619271
0.614742
0.610945
0.607694
0.604931
0.60261
0.600631
0.599138
0.599271
0.602121
0.601027
0.745974
0.757036
0.743157
0.73417
0.714901
0.693632
0.673303
0.65572
0.6413
0.629672
0.620293
0.612799
0.606865
0.602138
0.598269
0.594986
0.592148
0.589719
0.587649
0.585803
0.584393
0.585007
0.589134
0.58747
0.323934
0.27927
0.244191
0.185035
0.11772
-0.267603
0.322401
0.2807
0.248341
0.195358
0.162974
0.037554
0.321577
0.283997
0.256651
0.212969
0.187219
0.148924
0.323487
0.289231
0.267712
0.234492
0.214672
0.202084
0.325406
0.295305
0.280058
0.257397
0.245908
0.246585
0.328067
0.301565
0.292983
0.279153
0.275374
0.28227
0.332063
0.308661
0.306041
0.298704
0.300456
0.308726
0.33702
0.316795
0.318828
0.316197
0.321085
0.327999
0.342619
0.325789
0.331082
0.331841
0.337818
0.342065
0.348616
0.335379
0.342717
0.345752
0.351208
0.352083
0.35482
0.34533
0.353716
0.358021
0.361779
0.358713
0.361082
0.355449
0.364048
0.3687
0.369855
0.362496
0.367278
0.365574
0.37366
0.377859
0.375679
0.363902
0.373297
0.37555
0.382517
0.385709
0.379529
0.363113
0.379023
0.385217
0.390675
0.392421
0.381664
0.360177
0.384324
0.394345
0.39813
0.398181
0.382409
0.355133
0.389062
0.402682
0.404994
0.403078
0.382118
0.348059
0.393126
0.409949
0.41143
0.407318
0.381086
0.339204
0.39639
0.415974
0.417617
0.411561
0.379491
0.328986
0.39867
0.420967
0.423993
0.417009
0.377938
0.317803
0.399083
0.42585
0.431859
0.425587
0.378897
0.306499
0.399021
0.432224
0.443499
0.440392
0.387193
0.29859
0.401458
0.439861
0.459363
0.462193
0.405919
0.297128
0.403265
0.445746
0.472482
0.479747
0.433514
0.284513
0.405552
0.637692
0.66963
0.678719
0.669652
0.655315
0.640154
0.626593
0.615316
0.606104
0.598595
0.592548
0.587722
0.583838
0.580613
0.577834
0.575401
0.573298
0.57147
0.569746
0.568394
0.569484
0.575079
0.572985
0.312215
0.534594
0.601374
0.625145
0.625082
0.617152
0.606875
0.597135
0.588833
0.581896
0.576149
0.571465
0.567685
0.564595
0.561981
0.559679
0.557625
0.555823
0.554213
0.552576
0.551196
0.552629
0.559823
0.557837
0.311232
0.475575
0.546448
0.577049
0.583266
0.580434
0.574343
0.567974
0.562309
0.55741
0.553255
0.549812
0.546985
0.544625
0.542571
0.540708
0.538997
0.53746
0.536031
0.534433
0.532941
0.534591
0.543409
0.54196
0.31805
0.442176
0.504317
0.535583
0.545186
0.54593
0.543139
0.53956
0.536102
0.532943
0.53017
0.527814
0.525831
0.524123
0.522576
0.52111
0.519711
0.518412
0.517139
0.515562
0.513968
0.515909
0.526297
0.524837
0.325887
0.419777
0.471229
0.500108
0.510959
0.513941
0.513558
0.512139
0.510436
0.508702
0.507086
0.505654
0.504397
0.503258
0.502161
0.501053
0.499938
0.498857
0.497727
0.496171
0.494502
0.496787
0.508761
0.507053
0.334592
0.403144
0.444491
0.469543
0.480261
0.48444
0.485675
0.485803
0.485425
0.484813
0.484132
0.483461
0.482814
0.482163
0.481461
0.480673
0.479816
0.478936
0.47794
0.476406
0.474668
0.477286
0.490811
0.488853
0.342468
0.390053
0.422456
0.442902
0.452612
0.457194
0.459385
0.460528
0.461095
0.461328
0.461376
0.461315
0.461171
0.460935
0.460578
0.46008
0.45946
0.45877
0.457906
0.456402
0.454604
0.457528
0.472537
0.470378
0.348444
0.379223
0.403623
0.419397
0.427485
0.431858
0.434464
0.436196
0.43739
0.438232
0.438831
0.439252
0.439522
0.43964
0.439589
0.439355
0.438962
0.438458
0.43773
0.436275
0.434437
0.437635
0.45403
0.451768
0.352162
0.370086
0.386761
0.398124
0.404269
0.408012
0.410619
0.412614
0.414193
0.415455
0.416468
0.417271
0.417886
0.418313
0.418541
0.418559
0.418388
0.418076
0.4175
0.416123
0.414274
0.417714
0.43537
0.43316
0.353722
0.361756
0.371073
0.378269
0.382347
0.38519
0.387516
0.38955
0.391336
0.392887
0.394217
0.395337
0.396256
0.396969
0.397464
0.397733
0.397792
0.397686
0.397286
0.396027
0.39421
0.397856
0.416615
0.414696
0.353099
0.35296
0.35598
0.359193
0.361138
0.362919
0.364798
0.366734
0.368623
0.370388
0.371986
0.373395
0.374605
0.375603
0.376376
0.37691
0.37722
0.377345
0.377154
0.376063
0.374331
0.378139
0.397798
0.396523
0.350333
0.343209
0.340884
0.340255
0.340071
0.340733
0.342098
0.343883
0.345841
0.347803
0.349666
0.351375
0.352895
0.354206
0.355286
0.35612
0.356717
0.357111
0.357172
0.35631
0.354723
0.358624
0.378911
0.378822
0.34558
0.332205
0.324908
0.320756
0.318572
0.318174
0.319056
0.320718
0.322775
0.324969
0.32714
0.329195
0.331079
0.332759
0.334205
0.335398
0.33634
0.33706
0.337434
0.336873
0.335494
0.339365
0.359885
0.361876
0.338595
0.319227
0.307304
0.300055
0.296118
0.294824
0.295336
0.296972
0.299215
0.301724
0.304286
0.306771
0.309105
0.31124
0.313141
0.314783
0.316159
0.317292
0.318067
0.317916
0.316817
0.320415
0.340521
0.346232
0.328907
0.303604
0.287488
0.277616
0.272263
0.2703
0.270637
0.272401
0.274965
0.277912
0.28098
0.28401
0.286907
0.289614
0.292091
0.294307
0.296249
0.297929
0.299259
0.299722
0.299051
0.301856
0.320201
0.333165
0.315944
0.284685
0.264899
0.252955
0.2466
0.244289
0.244695
0.246789
0.249844
0.25338
0.257095
0.260805
0.264399
0.267816
0.271013
0.273963
0.276645
0.279066
0.281188
0.282656
0.282847
0.284023
0.297665
0.325553
0.298959
0.261676
0.238914
0.22559
0.218759
0.216498
0.217276
0.219938
0.223681
0.227978
0.232494
0.237026
0.241456
0.24572
0.249784
0.25363
0.257252
0.260663
0.263889
0.266807
0.268792
0.270057
0.278277
0.317293
0.276989
0.233562
0.208803
0.195016
0.188382
0.18666
0.188169
0.191673
0.196322
0.201559
0.207029
0.21252
0.217907
0.223127
0.228153
0.232985
0.237645
0.242176
0.246577
0.250608
0.254126
0.26014
0.276691
0.283299
0.248898
0.199063
0.173743
0.1607
0.155113
0.154527
0.157188
0.161838
0.167624
0.173982
0.180554
0.187118
0.193547
0.199769
0.205751
0.21148
0.216967
0.222233
0.227201
0.231495
0.235287
0.24332
0.263318
0.254722
0.213369
0.156641
0.132874
0.12212
0.118611
0.119876
0.124173
0.130302
0.137464
0.145124
0.152936
0.16068
0.168222
0.175482
0.182411
0.188979
0.195175
0.201002
0.206368
0.210913
0.214961
0.223773
0.244734
0.230913
0.168647
0.10482
0.0855167
0.0788484
0.078601
0.0825323
0.0890026
0.0969643
0.105745
0.114884
0.124069
0.133092
0.141821
0.150166
0.158066
0.165471
0.172353
0.17871
0.184485
0.189403
0.193862
0.203174
0.224345
0.208769
0.112477
0.0427907
0.0314177
0.0306696
0.03496
0.0424335
0.0516277
0.0617684
0.0723994
0.0831835
0.0938675
0.10427
0.114266
0.123762
0.132684
0.140969
0.148573
0.155491
0.161721
0.167081
0.172021
0.181698
0.202743
0.187348
0.0394343
-0.0286476
-0.0287945
-0.0223209
-0.0122967
-0.000409239
0.0120467
0.0246938
0.0373842
0.049961
0.0622603
0.0741423
0.0854953
0.0962283
0.106259
0.115512
0.123927
0.131494
0.138253
0.144121
0.149585
0.159514
0.180191
0.166366
-0.0734899
-0.109372
-0.0932222
-0.0778542
-0.0621058
-0.0455724
-0.0295802
-0.0142073
0.000690009
0.0151695
0.0291795
0.0426354
0.0554472
0.0675271
0.0787882
0.0891424
0.0985139
0.106875
0.114286
0.120743
0.126773
0.136855
0.156939
0.145719
-0.36543
-0.356415
-0.361814
-0.374219
-0.395976
-0.442153
-0.367723
-0.359617
-0.36784
-0.383127
-0.406188
-0.453737
-0.372551
-0.364087
-0.375167
-0.391981
-0.412832
-0.442899
-0.376013
-0.367643
-0.380861
-0.397912
-0.416694
-0.437997
-0.377184
-0.369877
-0.384804
-0.401826
-0.419264
-0.436558
-0.37593
-0.371419
-0.38772
-0.40479
-0.421438
-0.43661
-0.373199
-0.37338
-0.390188
-0.407207
-0.423447
-0.437257
-0.372449
-0.376368
-0.392532
-0.409249
-0.425236
-0.438045
-0.373956
-0.379393
-0.39466
-0.411049
-0.426631
-0.438773
-0.375308
-0.38213
-0.396449
-0.412567
-0.42765
-0.439412
-0.376384
-0.384489
-0.397823
-0.413702
-0.428373
-0.439958
-0.377187
-0.386409
-0.398742
-0.414406
-0.428821
-0.440418
-0.377733
-0.387756
-0.399162
-0.414672
-0.428997
-0.440814
-0.378031
-0.38856
-0.399052
-0.414501
-0.428891
-0.441156
-0.378128
-0.388821
-0.398414
-0.413877
-0.428469
-0.441407
-0.378111
-0.388562
-0.397276
-0.412782
-0.427663
-0.441454
-0.378128
-0.38786
-0.395702
-0.411188
-0.426351
-0.44107
-0.378114
-0.386837
-0.393783
-0.409066
-0.424337
-0.439914
-0.375874
-0.385633
-0.39165
-0.406388
-0.421365
-0.437471
-0.371786
-0.384525
-0.389561
-0.403202
-0.417124
-0.432639
-0.369317
-0.384239
-0.388106
-0.39978
-0.411238
-0.422916
-0.371984
-0.385202
-0.387758
-0.396442
-0.403071
-0.40369
-0.376361
-0.386866
-0.388041
-0.392505
-0.391617
-0.370202
-0.378418
-0.387403
-0.386257
-0.385528
-0.376885
-0.326902
-0.255849
-0.19816
-0.160925
-0.133743
-0.111744
-0.0917869
-0.0727487
-0.0547539
-0.0376412
-0.0212126
-0.0054389
0.00966615
0.0240393
0.0375956
0.0502417
0.0618777
0.0724085
0.0817779
0.0900235
0.0971992
0.103868
0.11402
0.133281
0.125418
-0.334895
-0.275753
-0.227161
-0.190376
-0.161003
-0.137072
-0.115944
-0.096394
-0.0775068
-0.0592196
-0.041681
-0.024871
-0.00884354
0.00632714
0.0205404
0.0336802
0.0456297
0.0562958
0.0656518
0.0737723
0.0812158
0.0914128
0.109617
0.10553
-0.379662
-0.328602
-0.282422
-0.243947
-0.210893
-0.182993
-0.158606
-0.137509
-0.117837
-0.0986386
-0.0796779
-0.0611546
-0.0433793
-0.0264448
-0.010465
0.0044316
0.018106
0.0304236
0.0412854
0.0507116
0.0591754
0.0695107
0.086473
0.0862461
-0.408837
-0.366674
-0.325935
-0.290046
-0.258906
-0.229725
-0.203378
-0.179752
-0.157957
-0.138033
-0.118648
-0.0992059
-0.0798666
-0.0610112
-0.0430248
-0.0260859
-0.0103464
0.00403
0.0168874
0.0281206
0.0380435
0.0488484
0.0645775
0.0680409
-0.425179
-0.395168
-0.361281
-0.328963
-0.299468
-0.27305
-0.248704
-0.224259
-0.200928
-0.17885
-0.157581
-0.137488
-0.117632
-0.0975183
-0.0775328
-0.0582389
-0.0400374
-0.0231623
-0.00779331
0.00588794
0.0179535
0.0298553
0.0447514
0.0516205
-0.434127
-0.415617
-0.389136
-0.361212
-0.334188
-0.309631
-0.287105
-0.265817
-0.244792
-0.222363
-0.199667
-0.177424
-0.155469
-0.134257
-0.113338
-0.0922255
-0.0713988
-0.0515801
-0.0331516
-0.0163745
-0.00137837
0.0125704
0.0275903
0.0376761
-0.439512
-0.429123
-0.409768
-0.386596
-0.362679
-0.339956
-0.319007
-0.299565
-0.280645
-0.261742
-0.24201
-0.219978
-0.196482
-0.172725
-0.149162
-0.126181
-0.103741
-0.0814163
-0.0596461
-0.0392261
-0.0205182
-0.00335679
0.0131838
0.0265137
-0.443081
-0.437741
-0.424036
-0.405362
-0.384611
-0.363919
-0.344343
-0.326101
-0.308823
-0.291995
-0.274527
-0.255823
-0.235471
-0.212686
-0.187578
-0.16155
-0.135808
-0.110808
-0.0865534
-0.0628261
-0.0400526
-0.0187438
0.000799209
0.0178557
-0.445592
-0.443319
-0.433583
-0.418527
-0.400566
-0.381705
-0.363248
-0.345746
-0.329209
-0.31335
-0.29753
-0.281054
-0.263039
-0.24287
-0.220626
-0.196128
-0.169294
-0.141066
-0.112796
-0.0855478
-0.0594185
-0.0339824
-0.0101207
0.0116411
-0.447431
-0.44711
-0.440058
-0.427631
-0.411837
-0.394395
-0.376621
-0.359307
-0.342704
-0.326751
-0.31122
-0.295624
-0.279159
-0.261134
-0.241104
-0.218627
-0.193696
-0.166744
-0.138074
-0.108175
-0.0780456
-0.0487954
-0.0211178
0.00927594
-0.4489
-0.449937
-0.444792
-0.434257
-0.420081
-0.403639
-0.38612
-0.368387
-0.350946
-0.333964
-0.317379
-0.301044
-0.284505
-0.267104
-0.248292
-0.227624
-0.204804
-0.179708
-0.152357
-0.12306
-0.0923895
-0.0605602
-0.0295287
0.00262136
-0.45026
-0.452384
-0.448817
-0.439799
-0.426963
-0.411318
-0.393823
-0.3753
-0.356394
-0.337493
-0.318762
-0.300247
-0.281878
-0.263303
-0.244012
-0.22363
-0.201878
-0.178472
-0.153186
-0.125946
-0.096877
-0.0658081
-0.0341433
-0.000136437
-0.451753
-0.454863
-0.452913
-0.445479
-0.433975
-0.419243
-0.401906
-0.382641
-0.362065
-0.340697
-0.318945
-0.297114
-0.275429
-0.253958
-0.232491
-0.210709
-0.188372
-0.165305
-0.141348
-0.116308
-0.0900018
-0.0620589
-0.0328275
-0.00171027
-0.453664
-0.45784
-0.457638
-0.45215
-0.442399
-0.429038
-0.412387
-0.392842
-0.370904
-0.347131
-0.322095
-0.296311
-0.270243
-0.244397
-0.219057
-0.194258
-0.169911
-0.145877
-0.122007
-0.0981867
-0.0743583
-0.0503604
-0.0261505
-0.00250119
-0.45616
-0.461726
-0.463602
-0.460421
-0.45314
-0.441978
-0.426908
-0.407996
-0.385512
-0.35993
-0.331841
-0.301914
-0.271035
-0.240036
-0.209624
-0.18027
-0.152283
-0.125833
-0.100944
-0.0775196
-0.0553884
-0.0342457
-0.0141559
0.00287348
-0.459401
-0.466681
-0.471141
-0.470841
-0.466838
-0.458893
-0.446636
-0.429781
-0.408223
-0.381981
-0.351465
-0.317293
-0.281007
-0.244134
-0.207844
-0.17301
-0.140284
-0.110136
-0.0828235
-0.0584735
-0.0371424
-0.0167645
0.00329651
0.019596
-0.463537
-0.472821
-0.480384
-0.48359
-0.483736
-0.480251
-0.4724
-0.459269
-0.439832
-0.413256
-0.379876
-0.341676
-0.300237
-0.257246
-0.214471
-0.173449
-0.135295
-0.100772
-0.0703065
-0.044038
-0.0216595
-0.00268431
0.0185522
0.0352062
-0.468707
-0.480152
-0.491219
-0.498456
-0.503609
-0.50575
-0.50339
-0.494772
-0.478125
-0.452552
-0.418518
-0.377104
-0.330146
-0.280207
-0.230004
-0.181836
-0.13741
-0.0979234
-0.0641094
-0.0363728
-0.0147513
0.00161705
0.0142801
0.0173873
-0.475033
-0.488516
-0.503256
-0.514777
-0.525375
-0.533894
-0.538294
-0.535942
-0.524302
-0.50174
-0.467895
-0.423368
-0.370559
-0.313004
-0.25442
-0.19815
-0.146642
-0.101589
-0.0639151
-0.0341397
-0.012489
0.00088457
0.00536127
0.00117442
-0.482628
-0.497614
-0.515876
-0.531634
-0.547889
-0.56336
-0.575615
-0.581219
-0.576438
-0.558255
-0.525456
-0.478308
-0.419366
-0.353857
-0.286419
-0.221832
-0.163114
-0.112232
-0.0702363
-0.0375132
-0.0141024
-4.4237e-05
0.00449215
0.00159535
-0.491221
-0.507123
-0.528234
-0.547753
-0.569473
-0.592009
-0.612519
-0.626721
-0.629576
-0.617
-0.586191
-0.537821
-0.472531
-0.400455
-0.325593
-0.253819
-0.188984
-0.133264
-0.0875628
-0.0518877
-0.0257983
-0.00866061
0.0002691
0.00329499
-0.499597
-0.516598
-0.539392
-0.561591
-0.588001
-0.616855
-0.64476
-0.666707
-0.676279
-0.668775
-0.640191
-0.590776
-0.523813
-0.446634
-0.366617
-0.290357
-0.222022
-0.163625
-0.115694
-0.0777941
-0.0490028
-0.028018
-0.0131359
-0.00238049
-0.508142
-0.526152
-0.54817
-0.571699
-0.601384
-0.63494
-0.668084
-0.695678
-0.709807
-0.70458
-0.677077
-0.627331
-0.559242
-0.479939
-0.397941
-0.320442
-0.25138
-0.192366
-0.143777
-0.104687
-0.0736213
-0.0488059
-0.0282816
-0.0108515
-0.528501
-0.537736
-0.55391
-0.576809
-0.608038
-0.644241
-0.680172
-0.709496
-0.724653
-0.719655
-0.691543
-0.640893
-0.572219
-0.493144
-0.412309
-0.336606
-0.269201
-0.211209
-0.163335
-0.123952
-0.0914151
-0.0641292
-0.0406606
-0.0184499
-0.648499
-0.659129
-0.661924
-0.674195
-0.685471
-0.766278
-0.647437
-0.658024
-0.660498
-0.671976
-0.67803
-0.695694
-0.644886
-0.656164
-0.657861
-0.667477
-0.668149
-0.663306
-0.642427
-0.654163
-0.654867
-0.661855
-0.657999
-0.644896
-0.641094
-0.652523
-0.65213
-0.65627
-0.648768
-0.6315
-0.64223
-0.651323
-0.649866
-0.651297
-0.641042
-0.621268
-0.645448
-0.650437
-0.648102
-0.647072
-0.635122
-0.61391
-0.646974
-0.649561
-0.646674
-0.643561
-0.631028
-0.609146
-0.646601
-0.648548
-0.645475
-0.641012
-0.628528
-0.6067
-0.646102
-0.647391
-0.644473
-0.639637
-0.627462
-0.606329
-0.645697
-0.646079
-0.643744
-0.639217
-0.627733
-0.607824
-0.645278
-0.644626
-0.643324
-0.639497
-0.629188
-0.610885
-0.64475
-0.643051
-0.643163
-0.640362
-0.631572
-0.615212
-0.644037
-0.641337
-0.643188
-0.641721
-0.63461
-0.621311
-0.643077
-0.63939
-0.643339
-0.643537
-0.637984
-0.628034
-0.642009
-0.637099
-0.643607
-0.645835
-0.641461
-0.635315
-0.642328
-0.634932
-0.644058
-0.648633
-0.645063
-0.644132
-0.644661
-0.634401
-0.64479
-0.651904
-0.649126
-0.655959
-0.646127
-0.634843
-0.645633
-0.655553
-0.654117
-0.671327
-0.645714
-0.635136
-0.646236
-0.659358
-0.660483
-0.689778
-0.644522
-0.634655
-0.646041
-0.662728
-0.668117
-0.71104
-0.641347
-0.632789
-0.644484
-0.664409
-0.675774
-0.736046
-0.636801
-0.629867
-0.641925
-0.663326
-0.682154
-0.766543
-0.634599
-0.627833
-0.640637
-0.661806
-0.68795
-0.804471
-0.58564
-0.549699
-0.555707
-0.576401
-0.607465
-0.644014
-0.679998
-0.708312
-0.721576
-0.71426
-0.683799
-0.631724
-0.563425
-0.486723
-0.409708
-0.338471
-0.274514
-0.219484
-0.173547
-0.13487
-0.101963
-0.0735876
-0.0486366
-0.0234392
-0.595092
-0.555908
-0.553095
-0.570682
-0.600081
-0.635092
-0.668783
-0.693679
-0.702778
-0.690997
-0.657019
-0.603509
-0.536564
-0.46375
-0.392311
-0.326999
-0.268916
-0.218397
-0.175162
-0.138454
-0.10668
-0.0788168
-0.0539378
-0.0268707
-0.589181
-0.554257
-0.546673
-0.560688
-0.5872
-0.61902
-0.648491
-0.668064
-0.671049
-0.653495
-0.615636
-0.561241
-0.496844
-0.429312
-0.364684
-0.305874
-0.253949
-0.208521
-0.169051
-0.134885
-0.104939
-0.0784565
-0.0545262
-0.0272806
-0.583294
-0.549296
-0.537949
-0.547862
-0.570354
-0.597458
-0.621195
-0.633872
-0.629394
-0.605678
-0.564358
-0.510306
-0.449825
-0.388712
-0.330918
-0.278752
-0.232765
-0.192246
-0.156742
-0.125592
-0.0979912
-0.0733899
-0.0507241
-0.0245558
-0.578379
-0.543395
-0.528269
-0.533478
-0.550843
-0.572067
-0.588848
-0.593199
-0.580861
-0.551416
-0.507821
-0.455357
-0.3996
-0.3449
-0.29397
-0.247989
-0.207215
-0.171344
-0.139808
-0.111922
-0.0870614
-0.0646538
-0.0433829
-0.0192202
-0.574104
-0.537645
-0.518525
-0.518487
-0.52983
-0.544416
-0.552723
-0.548171
-0.528356
-0.494227
-0.44973
-0.399864
-0.349036
-0.300282
-0.255279
-0.214768
-0.178853
-0.147226
-0.119359
-0.0946283
-0.0724776
-0.0521538
-0.0321601
-0.0110604
-0.571118
-0.532624
-0.509275
-0.503385
-0.508448
-0.515044
-0.513985
-0.500826
-0.474356
-0.436882
-0.392607
-0.345766
-0.299566
-0.255998
-0.216116
-0.180338
-0.148667
-0.120808
-0.0962541
-0.0744506
-0.0548209
-0.0363767
-0.0174886
-0.000294281
-0.569797
-0.52865
-0.500745
-0.488837
-0.486802
-0.484086
-0.473914
-0.452686
-0.420684
-0.381068
-0.337733
-0.293906
-0.251764
-0.212581
-0.176998
-0.145239
-0.117232
-0.0926716
-0.0710542
-0.0518702
-0.0345384
-0.0177622
0.00028696
0.0129665
-0.570301
-0.525852
-0.492927
-0.474873
-0.464269
-0.452346
-0.433266
-0.404674
-0.368316
-0.327541
-0.285489
-0.244419
-0.205737
-0.170218
-0.138223
-0.109836
-0.0849295
-0.0631859
-0.0441084
-0.0272129
-0.0119315
0.00341047
0.0209039
0.0286306
-0.572529
-0.52416
-0.485942
-0.460717
-0.441097
-0.420059
-0.39219
-0.35721
-0.31764
-0.276399
-0.235737
-0.197112
-0.161362
-0.128906
-0.0998991
-0.0743219
-0.0520063
-0.0326242
-0.0156931
-0.000769536
0.0127073
0.0268466
0.0440011
0.0465188
-0.576569
-0.523035
-0.479265
-0.445777
-0.417377
-0.386668
-0.350568
-0.310394
-0.268624
-0.227388
-0.188123
-0.151668
-0.118433
-0.088564
-0.0620563
-0.0388114
-0.0186317
-0.00118925
0.0139651
0.0272134
0.0391204
0.0522668
0.0692483
0.0665068
-0.582033
-0.521632
-0.471662
-0.429911
-0.391858
-0.351399
-0.308225
-0.26411
-0.220944
-0.18006
-0.142214
-0.107745
-0.0767274
-0.0490888
-0.0246986
-0.00339624
0.0150349
0.0309104
0.0446233
0.0564725
0.0670307
0.0793694
0.0963488
0.0885613
-0.588154
-0.519098
-0.462312
-0.41219
-0.363344
-0.313848
-0.264938
-0.218007
-0.174142
-0.133939
-0.0975887
-0.0650252
-0.0360452
-0.0104014
0.0121422
0.0317982
0.0487956
0.0634254
0.0760027
0.0867185
0.0961463
0.107844
0.124995
0.11268
-0.59292
-0.515028
-0.450512
-0.390697
-0.330862
-0.273636
-0.220387
-0.171663
-0.127739
-0.0885696
-0.0538696
-0.0232322
0.00377382
0.0275422
0.0483975
0.0666001
0.0823905
0.0960311
0.107746
0.117593
0.126127
0.137341
0.154823
0.138873
-0.594507
-0.509629
-0.434391
-0.363421
-0.293786
-0.230435
-0.174173
-0.124615
-0.0812736
-0.0435415
-0.0107242
0.017869
0.0428567
0.0647531
0.0839593
0.100783
0.115482
0.128299
0.139373
0.148613
0.156528
0.167435
0.185402
0.167237
-0.591553
-0.503256
-0.412205
-0.329384
-0.25179
-0.183948
-0.125903
-0.0764309
-0.0343339
0.00150666
0.0321378
0.0584837
0.0813128
0.101233
0.11871
0.134098
0.147683
0.159706
0.170265
0.179163
0.186812
0.197636
0.216197
0.198203
-0.584448
-0.494918
-0.383304
-0.288244
-0.204438
-0.133731
-0.0751532
-0.0267162
0.0134367
0.0468854
0.0749733
0.0988072
0.119263
0.137013
0.152568
0.166317
0.178582
0.189627
0.199581
0.208285
0.216029
0.226721
0.24537
0.233259
-0.574038
-0.48089
-0.346743
-0.239388
-0.151127
-0.0793059
-0.0215507
0.0248462
0.0623221
0.0928516
0.118014
0.139043
0.156877
0.172213
0.185568
0.197338
0.20784
0.217346
0.226045
0.233905
0.240865
0.248935
0.263765
0.273641
-0.559422
-0.454755
-0.300058
-0.18189
-0.0913018
-0.020275
0.035184
0.0784745
0.112515
0.139593
0.161455
0.179409
0.194403
0.207118
0.218039
0.227514
0.235794
0.243076
0.249493
0.254902
0.258595
0.261222
0.27194
0.305237
-0.53761
-0.408991
-0.239978
-0.114786
-0.0244641
0.0436563
0.0952019
0.134253
0.164083
0.18719
0.205417
0.220083
0.23211
0.242137
0.2506
0.257801
0.263951
0.269211
0.273628
0.276779
0.278063
0.281093
0.298993
0.320217
-0.507037
-0.337931
-0.162902
-0.0369838
0.0497826
0.112558
0.158433
0.192067
0.216914
0.235569
0.249879
0.261113
0.270132
0.277507
0.283623
0.288742
0.293053
0.296712
0.299715
0.301538
0.301984
0.306522
0.328103
0.339159
-0.470416
-0.235391
-0.0643433
0.0527015
0.131439
0.18609
0.224474
0.251516
0.270672
0.284464
0.294648
0.302377
0.308403
0.313215
0.317134
0.320374
0.323096
0.325428
0.327314
0.328172
0.32803
0.333154
0.356044
0.361706
-0.416151
-0.086301
0.0605724
0.155033
0.219835
0.263358
0.292516
0.311888
0.324796
0.33344
0.339374
0.343585
0.346682
0.349048
0.350925
0.35247
0.353799
0.355003
0.355968
0.356054
0.355382
0.360568
0.38374
0.386379
-0.240106
0.123109
0.209726
0.268118
0.313044
0.342681
0.361188
0.372264
0.378543
0.381897
0.383578
0.384336
0.384612
0.384665
0.384651
0.384659
0.384749
0.38496
0.385119
0.384527
0.383343
0.388299
0.411083
0.411774
)
;

boundaryField
{
    rotor
    {
        type            zeroGradient;
    }
    freestream
    {
        type            freestreamPressure;
        freestreamValue uniform 0;
        supersonic      false;
        value           nonuniform List<scalar> 
96
(
0.315201
0.347359
0.379866
0.412293
0.444199
0.475137
0.504662
0.532344
0.557793
0.580659
0.600632
0.617375
0.630724
0.640819
0.647648
0.650885
0.650707
0.647125
0.640229
0.630223
0.617295
0.601679
0.583643
0.563432
0.541528
0.518327
0.493917
0.467996
0.441271
0.414114
0.386796
0.359568
0.332668
0.306314
0.280715
0.256077
0.232646
0.210796
0.191253
0.175488
0.160133
0.133672
0.111685
0.0935979
0.0778568
0.0639825
0.0517947
0.0411807
0.0320502
0.0243078
0.0178625
0.0126522
0.00861606
0.00565178
0.00358594
0.00218887
0.00130307
0.000960175
0.000253562
-1.24326e-05
-0.000145163
-0.0001859
0.000157793
0.00049565
2.15337e-05
0.000272321
5.08031e-05
9.907e-05
0.000243995
-0.000199555
-0.0010297
-0.00196657
-0.00275134
-0.00343374
-0.00380166
-0.00373499
-0.00319229
-0.00201037
-5.86192e-05
0.00283171
0.00685317
0.0121925
0.019055
0.0276747
0.0382988
0.0511783
0.0665935
0.0849596
0.107193
0.134191
0.158962
0.177514
0.199717
0.225371
0.25371
0.283828
)
;
    }
    frontAndBack
    {
        type            empty;
    }
}


// ************************************************************************* //
