/*--------------------------------*- C++ -*----------------------------------*\
  =========                 |
  \\      /  F ield         | OpenFOAM: The Open Source CFD Toolbox
   \\    /   O peration     | Website:  https://openfoam.org
    \\  /    A nd           | Version:  11
     \\/     M anipulation  |
\*---------------------------------------------------------------------------*/
FoamFile
{
    format      ascii;
    class       surfaceScalarField;
    location    "0.82";
    object      phi;
}
// * * * * * * * * * * * * * * * * * * * * * * * * * * * * * * * * * * * * * //

dimensions      [0 3 -1 0 0 0 0];

internalField   nonuniform List<scalar> 
5640
(
-2.10264e-07
2.10264e-07
1.68645e-07
-3.78909e-07
1.1459e-06
-9.77254e-07
2.66204e-06
-1.51614e-06
6.17497e-06
-3.51293e-06
-7.05934e-06
1.32343e-05
-5.16409e-08
2.61905e-07
5.1696e-07
-9.4751e-07
1.54801e-06
-2.00831e-06
3.18971e-06
-3.15784e-06
5.60018e-06
-5.9234e-06
-1.0676e-05
9.21681e-06
9.05202e-08
1.71385e-07
7.19495e-07
-1.57648e-06
1.72644e-06
-3.01525e-06
3.22483e-06
-4.65623e-06
5.08879e-06
-7.78736e-06
-1.26163e-05
7.02912e-06
2.06817e-07
-3.54325e-08
8.29603e-07
-2.19927e-06
1.75556e-06
-3.94121e-06
3.02656e-06
-5.92723e-06
4.40633e-06
-9.16713e-06
-1.36819e-05
5.47196e-06
2.88116e-07
-3.23549e-07
8.68889e-07
-2.78004e-06
1.67668e-06
-4.749e-06
2.68819e-06
-6.93874e-06
3.63638e-06
-1.01153e-05
-1.41713e-05
4.12577e-06
3.31071e-07
-6.5462e-07
8.48116e-07
-3.29709e-06
1.51733e-06
-5.41821e-06
2.2659e-06
-7.68731e-06
2.83298e-06
-1.06824e-05
-1.42327e-05
2.89438e-06
3.38038e-07
-9.92658e-07
7.7793e-07
-3.73698e-06
1.2998e-06
-5.94008e-06
1.79726e-06
-8.18476e-06
2.03333e-06
-1.09185e-05
-1.39604e-05
1.76103e-06
3.1401e-07
-1.30667e-06
6.69523e-07
-4.09249e-06
1.04338e-06
-6.31394e-06
1.30957e-06
-8.45096e-06
1.26229e-06
-1.08712e-05
-1.34214e-05
7.23232e-07
2.65956e-07
-1.57262e-06
5.33887e-07
-4.36042e-06
7.6486e-07
-6.54492e-06
8.23895e-07
-8.50999e-06
5.37159e-07
-1.05844e-05
-1.2666e-05
-2.18215e-07
2.01313e-07
-1.77394e-06
3.81286e-07
-4.5404e-06
4.78511e-07
-6.64214e-06
3.56295e-07
-8.38778e-06
-1.29908e-07
-1.00982e-05
-1.17364e-05
-1.05953e-06
1.26986e-07
-1.90092e-06
2.20757e-07
-4.63417e-06
1.96062e-07
-6.61745e-06
-8.10552e-08
-8.11066e-06
-7.30815e-07
-9.44849e-06
-1.0664e-05
-1.80317e-06
4.88958e-08
-1.94982e-06
5.98413e-08
-4.64511e-06
-7.33008e-08
-6.48431e-06
-4.79149e-07
-7.70481e-06
-1.25981e-06
-8.66783e-06
-9.47701e-06
-2.44682e-06
-2.80944e-08
-1.92172e-06
-9.54448e-08
-4.57776e-06
-3.22767e-07
-6.25698e-06
-8.31894e-07
-7.19568e-06
-1.71305e-06
-7.78667e-06
-8.20051e-06
-2.98954e-06
-1.00042e-07
-1.82168e-06
-2.40508e-07
-4.4373e-06
-5.4769e-07
-5.9498e-06
-1.13549e-06
-6.60789e-06
-2.08812e-06
-6.83404e-06
-6.85834e-06
-3.4303e-06
-1.63701e-07
-1.65798e-06
-3.71824e-07
-4.22917e-06
-7.45346e-07
-5.57628e-06
-1.38828e-06
-5.96495e-06
-2.38378e-06
-5.83854e-06
-5.47455e-06
-3.76757e-06
-2.16178e-07
-1.4418e-06
-4.86729e-07
-3.95862e-06
-9.14651e-07
-5.14836e-06
-1.59068e-06
-5.28893e-06
-2.59998e-06
-4.82923e-06
-4.07561e-06
-3.99892e-06
-2.54609e-07
-1.18719e-06
-5.83244e-07
-3.62999e-06
-1.05603e-06
-4.67557e-06
-1.7451e-06
-4.59986e-06
-2.73828e-06
-3.83605e-06
-2.69269e-06
-4.1212e-06
-2.76018e-07
-9.11176e-07
-6.59935e-07
-3.24607e-06
-1.1714e-06
-4.16411e-06
-1.8564e-06
-3.91486e-06
-2.80237e-06
-2.89009e-06
-1.3656e-06
-4.12945e-06
-2.77254e-07
-6.33922e-07
-7.15598e-07
-2.80773e-06
-1.26403e-06
-3.61568e-06
-1.93254e-06
-3.24634e-06
-2.79954e-06
-2.02309e-06
-1.49248e-07
-4.0159e-06
-2.54756e-07
-3.79166e-07
-7.48754e-07
-2.31373e-06
-1.33814e-06
-3.02629e-06
-1.98578e-06
-2.5987e-06
-2.74485e-06
-1.26401e-06
8.73254e-07
-3.76735e-06
-2.05357e-07
-1.73809e-07
-7.56946e-07
-1.76214e-06
-1.39803e-06
-2.3852e-06
-2.03309e-06
-1.96364e-06
-2.66736e-06
-6.29743e-07
1.56402e-06
-3.35813e-06
-1.47853e-07
-2.59562e-08
-7.36907e-07
-1.17308e-06
-1.44563e-06
-1.67648e-06
-2.08959e-06
-1.31969e-06
-2.60309e-06
-1.1624e-07
1.70475e-06
-2.74383e-06
-7.1749e-08
4.57928e-08
-6.81668e-07
-5.63166e-07
-1.47664e-06
-8.81505e-07
-2.13862e-06
-6.57706e-07
-2.50132e-06
2.46463e-07
1.07813e-06
-1.8747e-06
4.57928e-08
-5.17373e-07
-1.39888e-06
-2.05658e-06
-1.81012e-06
-7.31994e-07
8.77229e-06
-3.23324e-05
3.67944e-05
6.09561e-06
-3.95475e-05
4.22242e-05
3.88011e-06
-4.3064e-05
4.52795e-05
1.84555e-06
-4.48584e-05
4.6893e-05
-1.10213e-07
-4.57791e-05
4.77349e-05
-2.00156e-06
-4.63068e-05
4.81982e-05
-3.82482e-06
-4.6678e-05
4.85013e-05
-5.5789e-06
-4.70057e-05
4.87598e-05
-7.26802e-06
-4.73366e-05
4.90257e-05
-8.89984e-06
-4.76823e-05
4.93141e-05
-1.04827e-05
-4.80371e-05
4.962e-05
-1.2024e-05
-4.83915e-05
4.99327e-05
-1.35293e-05
-4.87365e-05
5.02419e-05
-1.50032e-05
-4.90651e-05
5.0539e-05
-1.64488e-05
-4.93711e-05
5.08167e-05
-1.78683e-05
-4.9649e-05
5.10685e-05
-1.92628e-05
-4.98933e-05
5.12879e-05
-2.06326e-05
-5.00988e-05
5.14686e-05
-2.19763e-05
-5.02605e-05
5.16043e-05
-2.32907e-05
-5.0374e-05
5.16883e-05
-2.457e-05
-5.04347e-05
5.1714e-05
-2.58052e-05
-5.04378e-05
5.1673e-05
-2.69807e-05
-5.03808e-05
5.15563e-05
-5.03867e-05
5.1475e-05
7.06668e-06
-3.01823e-05
4.87164e-06
-3.73525e-05
2.64398e-06
-4.08364e-05
4.48653e-07
-4.26631e-05
-1.67747e-06
-4.3653e-05
-3.72459e-06
-4.42597e-05
-5.69024e-06
-4.47124e-05
-7.57882e-06
-4.51171e-05
-9.39894e-06
-4.55165e-05
-1.11608e-05
-4.59204e-05
-1.2874e-05
-4.63239e-05
-1.45462e-05
-4.67194e-05
-1.61828e-05
-4.70999e-05
-1.77879e-05
-4.74601e-05
-1.93641e-05
-4.7795e-05
-2.09129e-05
-4.81001e-05
-2.24351e-05
-4.83712e-05
-2.39299e-05
-4.8604e-05
-2.53954e-05
-4.8795e-05
-2.68278e-05
-4.89416e-05
-2.82211e-05
-4.90415e-05
-2.95664e-05
-4.90925e-05
-3.08503e-05
-4.90969e-05
-4.91835e-05
5.69074e-06
-2.88439e-05
3.57098e-06
-3.52327e-05
1.28172e-06
-3.85471e-05
-1.02159e-06
-4.03598e-05
-3.26991e-06
-4.14047e-05
-5.43809e-06
-4.20916e-05
-7.5222e-06
-4.26282e-05
-9.52853e-06
-4.31108e-05
-1.14674e-05
-4.35777e-05
-1.33496e-05
-4.40381e-05
-1.51848e-05
-4.44887e-05
-1.69801e-05
-4.49241e-05
-1.87404e-05
-4.53396e-05
-2.0469e-05
-4.57314e-05
-2.21681e-05
-4.60959e-05
-2.38387e-05
-4.64296e-05
-2.54807e-05
-4.67291e-05
-2.70931e-05
-4.69915e-05
-2.86735e-05
-4.72147e-05
-3.02175e-05
-4.73976e-05
-3.1719e-05
-4.75399e-05
-3.31697e-05
-4.76418e-05
-3.4558e-05
-4.77086e-05
-4.78702e-05
4.2534e-06
-2.76254e-05
2.17843e-06
-3.31578e-05
-1.46976e-07
-3.62217e-05
-2.52396e-06
-3.79828e-05
-4.86045e-06
-3.90682e-05
-7.12337e-06
-3.98286e-05
-9.30676e-06
-4.04448e-05
-1.14166e-05
-4.1001e-05
-1.34629e-05
-4.15314e-05
-1.54561e-05
-4.2045e-05
-1.74046e-05
-4.25402e-05
-1.93147e-05
-4.3014e-05
-2.11906e-05
-4.34638e-05
-2.30347e-05
-4.38872e-05
-2.48487e-05
-4.42819e-05
-2.66329e-05
-4.46453e-05
-2.83871e-05
-4.49749e-05
-3.01097e-05
-4.52689e-05
-3.17978e-05
-4.55266e-05
-3.34469e-05
-4.57484e-05
-3.50509e-05
-4.5936e-05
-3.66018e-05
-4.60909e-05
-3.809e-05
-4.62205e-05
-4.64512e-05
2.84205e-06
-2.63416e-05
7.6588e-07
-3.10816e-05
-1.59136e-06
-3.38645e-05
-4.01898e-06
-3.55552e-05
-6.4218e-06
-3.66654e-05
-8.76133e-06
-3.74891e-05
-1.10296e-05
-3.81766e-05
-1.32313e-05
-3.87993e-05
-1.53751e-05
-3.93876e-05
-1.747e-05
-3.995e-05
-1.95233e-05
-4.04869e-05
-2.15397e-05
-4.09975e-05
-2.35226e-05
-4.14809e-05
-2.54739e-05
-4.1936e-05
-2.73944e-05
-4.23614e-05
-2.92843e-05
-4.27554e-05
-3.11427e-05
-4.31165e-05
-3.29679e-05
-4.34438e-05
-3.47565e-05
-4.37379e-05
-3.65039e-05
-4.4001e-05
-3.8204e-05
-4.42359e-05
-3.98497e-05
-4.44452e-05
-4.14329e-05
-4.46373e-05
-4.49315e-05
1.49219e-06
-2.49394e-05
-6.1508e-07
-2.89743e-05
-3.00389e-06
-3.14756e-05
-5.47447e-06
-3.30846e-05
-7.93097e-06
-3.42089e-05
-1.03349e-05
-3.50852e-05
-1.26772e-05
-3.58342e-05
-1.49611e-05
-3.65154e-05
-1.71935e-05
-3.71552e-05
-1.93816e-05
-3.77619e-05
-2.15309e-05
-3.83377e-05
-2.36451e-05
-3.88834e-05
-2.57264e-05
-3.93995e-05
-2.77762e-05
-3.98862e-05
-2.97949e-05
-4.03427e-05
-3.17821e-05
-4.07682e-05
-3.37368e-05
-4.11618e-05
-3.56567e-05
-4.15239e-05
-3.75383e-05
-4.18563e-05
-3.93768e-05
-4.21625e-05
-4.11664e-05
-4.24463e-05
-4.2901e-05
-4.27107e-05
-4.45743e-05
-4.29639e-05
-4.33161e-05
2.24676e-07
-2.34031e-05
-1.93347e-06
-2.68162e-05
-4.35793e-06
-2.90512e-05
-6.86682e-06
-3.05757e-05
-9.3694e-06
-3.17063e-05
-1.18295e-05
-3.26251e-05
-1.42377e-05
-3.3426e-05
-1.65957e-05
-3.41574e-05
-1.89085e-05
-3.48424e-05
-2.11813e-05
-3.54891e-05
-2.3418e-05
-3.61009e-05
-2.56212e-05
-3.66801e-05
-2.77924e-05
-3.72284e-05
-2.99321e-05
-3.77465e-05
-3.20404e-05
-3.82344e-05
-3.41165e-05
-3.8692e-05
-3.61592e-05
-3.91192e-05
-3.81657e-05
-3.95173e-05
-4.01325e-05
-3.98895e-05
-4.20546e-05
-4.02404e-05
-4.39269e-05
-4.0574e-05
-4.57442e-05
-4.08933e-05
-4.75025e-05
-4.12057e-05
-4.16106e-05
-9.53172e-07
-2.17267e-05
-3.16962e-06
-2.45997e-05
-5.633e-06
-2.65878e-05
-8.17828e-06
-2.80304e-05
-1.07225e-05
-2.91621e-05
-1.3233e-05
-3.01145e-05
-1.57006e-05
-3.09584e-05
-1.81254e-05
-3.17326e-05
-2.05108e-05
-3.24571e-05
-2.28601e-05
-3.31398e-05
-2.51758e-05
-3.37852e-05
-2.74593e-05
-3.43966e-05
-2.97115e-05
-3.49762e-05
-3.19324e-05
-3.55256e-05
-3.41217e-05
-3.60452e-05
-3.62783e-05
-3.65354e-05
-3.84004e-05
-3.69971e-05
-4.04853e-05
-3.74324e-05
-4.25291e-05
-3.78458e-05
-4.45272e-05
-3.82423e-05
-4.64751e-05
-3.86261e-05
-4.83692e-05
-3.89992e-05
-5.02067e-05
-3.93682e-05
-3.9821e-05
-2.02732e-06
-1.99176e-05
-4.30977e-06
-2.23173e-05
-6.81492e-06
-2.40827e-05
-9.39586e-06
-2.54495e-05
-1.1979e-05
-2.6579e-05
-1.45357e-05
-2.75579e-05
-1.7057e-05
-2.84371e-05
-1.95419e-05
-2.92476e-05
-2.19923e-05
-3.00067e-05
-2.44099e-05
-3.07222e-05
-2.6796e-05
-3.13992e-05
-2.91511e-05
-3.20414e-05
-3.14755e-05
-3.26518e-05
-3.37688e-05
-3.32322e-05
-3.60303e-05
-3.37837e-05
-3.82586e-05
-3.43071e-05
-4.04517e-05
-3.4804e-05
-4.26064e-05
-3.52777e-05
-4.4719e-05
-3.57332e-05
-4.67853e-05
-3.6176e-05
-4.88019e-05
-3.66094e-05
-5.07663e-05
-3.70347e-05
-5.2677e-05
-3.74576e-05
-3.79539e-05
-2.99499e-06
-1.79821e-05
-5.34574e-06
-1.99666e-05
-7.89437e-06
-2.1534e-05
-1.05105e-05
-2.28333e-05
-1.31306e-05
-2.39589e-05
-1.57297e-05
-2.49588e-05
-1.82994e-05
-2.58674e-05
-2.08379e-05
-2.67091e-05
-2.33458e-05
-2.74989e-05
-2.58235e-05
-2.82445e-05
-2.82713e-05
-2.89513e-05
-3.06893e-05
-2.96235e-05
-3.3077e-05
-3.02641e-05
-3.54338e-05
-3.08754e-05
-3.77586e-05
-3.14589e-05
-4.00498e-05
-3.20159e-05
-4.23049e-05
-3.25488e-05
-4.45209e-05
-3.30618e-05
-4.66939e-05
-3.35602e-05
-4.88208e-05
-3.40491e-05
-5.08992e-05
-3.45311e-05
-5.29273e-05
-3.50066e-05
-5.49045e-05
-3.54803e-05
-3.60164e-05
-3.8541e-06
-1.59312e-05
-6.2728e-06
-1.75479e-05
-8.8656e-06
-1.89412e-05
-1.15164e-05
-2.01825e-05
-1.41714e-05
-2.13039e-05
-1.68091e-05
-2.23211e-05
-1.94218e-05
-2.32547e-05
-2.20072e-05
-2.41237e-05
-2.45648e-05
-2.49412e-05
-2.70943e-05
-2.5715e-05
-2.95952e-05
-2.64504e-05
-3.20671e-05
-2.71517e-05
-3.45091e-05
-2.78221e-05
-3.69203e-05
-2.84642e-05
-3.92994e-05
-2.90798e-05
-4.16444e-05
-2.96709e-05
-4.39528e-05
-3.02404e-05
-4.62214e-05
-3.07932e-05
-4.84469e-05
-3.13346e-05
-5.06269e-05
-3.18691e-05
-5.27598e-05
-3.23983e-05
-5.48444e-05
-3.2922e-05
-5.68805e-05
-3.34442e-05
-3.40153e-05
-4.60356e-06
-1.37744e-05
-7.08866e-06
-1.50627e-05
-9.72546e-06
-1.63044e-05
-1.24098e-05
-1.74982e-05
-1.50971e-05
-1.86166e-05
-1.77693e-05
-1.96489e-05
-2.04194e-05
-2.06046e-05
-2.30447e-05
-2.14983e-05
-2.56443e-05
-2.23417e-05
-2.8217e-05
-2.31422e-05
-3.07622e-05
-2.39053e-05
-3.32788e-05
-2.46351e-05
-3.57659e-05
-2.5335e-05
-3.82224e-05
-2.60078e-05
-4.06466e-05
-2.66556e-05
-4.30363e-05
-2.72811e-05
-4.53889e-05
-2.78878e-05
-4.77015e-05
-2.84806e-05
-4.99716e-05
-2.90646e-05
-5.21973e-05
-2.96434e-05
-5.43776e-05
-3.0218e-05
-5.65113e-05
-3.07883e-05
-5.85979e-05
-3.13576e-05
-3.1958e-05
-5.24324e-06
-1.15207e-05
-7.79273e-06
-1.25133e-05
-1.04727e-05
-1.36245e-05
-1.31889e-05
-1.4782e-05
-1.59054e-05
-1.59e-05
-1.86075e-05
-1.69468e-05
-2.12888e-05
-1.79234e-05
-2.39467e-05
-1.88404e-05
-2.65799e-05
-1.97084e-05
-2.91872e-05
-2.05349e-05
-3.17675e-05
-2.1325e-05
-3.43197e-05
-2.20829e-05
-3.68427e-05
-2.2812e-05
-3.9335e-05
-2.35154e-05
-4.17949e-05
-2.41957e-05
-4.42201e-05
-2.4856e-05
-4.66079e-05
-2.55e-05
-4.89559e-05
-2.61326e-05
-5.12623e-05
-2.67582e-05
-5.3526e-05
-2.73796e-05
-5.57466e-05
-2.79975e-05
-5.7923e-05
-2.86119e-05
-6.0054e-05
-2.92265e-05
-2.98561e-05
-5.77373e-06
-9.17731e-06
-8.38573e-06
-9.90126e-06
-1.11073e-05
-1.09029e-05
-1.38533e-05
-1.2036e-05
-1.65954e-05
-1.31578e-05
-1.93219e-05
-1.42203e-05
-2.20276e-05
-1.52177e-05
-2.47102e-05
-1.61578e-05
-2.73686e-05
-1.705e-05
-3.00015e-05
-1.79021e-05
-3.26077e-05
-1.87188e-05
-3.51861e-05
-1.95044e-05
-3.77354e-05
-2.02626e-05
-4.02542e-05
-2.09966e-05
-4.27404e-05
-2.17095e-05
-4.51917e-05
-2.24047e-05
-4.76057e-05
-2.3086e-05
-4.99804e-05
-2.37579e-05
-5.23148e-05
-2.44238e-05
-5.46084e-05
-2.50859e-05
-5.68615e-05
-2.57444e-05
-5.90735e-05
-2.63999e-05
-6.12436e-05
-2.70563e-05
-2.77197e-05
-6.19605e-06
-6.74882e-06
-8.86949e-06
-7.22782e-06
-1.16309e-05
-8.14148e-06
-1.44041e-05
-9.26283e-06
-1.71675e-05
-1.03945e-05
-1.99122e-05
-1.14756e-05
-2.26347e-05
-1.24952e-05
-2.53337e-05
-1.34588e-05
-2.80082e-05
-1.43755e-05
-3.06573e-05
-1.5253e-05
-3.328e-05
-1.60962e-05
-3.58751e-05
-1.69093e-05
-3.84414e-05
-1.76963e-05
-4.09772e-05
-1.84608e-05
-4.34804e-05
-1.92063e-05
-4.59487e-05
-1.99363e-05
-4.83802e-05
-2.06546e-05
-5.07733e-05
-2.13648e-05
-5.31277e-05
-2.20695e-05
-5.54434e-05
-2.27702e-05
-5.77202e-05
-2.34676e-05
-5.9958e-05
-2.41621e-05
-6.21579e-05
-2.48564e-05
-2.55547e-05
-6.51132e-06
-4.23643e-06
-9.24686e-06
-4.49228e-06
-1.20467e-05
-5.34169e-06
-1.48439e-05
-6.46563e-06
-1.7623e-05
-7.61542e-06
-2.03788e-05
-8.71978e-06
-2.31099e-05
-9.76401e-06
-2.58162e-05
-1.07526e-05
-2.84974e-05
-1.16943e-05
-3.11531e-05
-1.25973e-05
-3.37826e-05
-1.34667e-05
-3.63848e-05
-1.43071e-05
-3.89584e-05
-1.51227e-05
-4.15019e-05
-1.59174e-05
-4.40129e-05
-1.66953e-05
-4.64895e-05
-1.74598e-05
-4.89298e-05
-1.82143e-05
-5.13331e-05
-1.89614e-05
-5.36993e-05
-1.97033e-05
-5.60286e-05
-2.0441e-05
-5.83209e-05
-2.11753e-05
-6.05762e-05
-2.19068e-05
-6.27954e-05
-2.26372e-05
-2.33696e-05
-6.72099e-06
-1.63664e-06
-9.52169e-06
-1.69158e-06
-1.23592e-05
-2.50421e-06
-1.51762e-05
-3.64857e-06
-1.79646e-05
-4.82709e-06
-2.07232e-05
-5.96108e-06
-2.34538e-05
-7.03347e-06
-2.61576e-05
-8.04869e-06
-2.88357e-05
-9.01622e-06
-3.14881e-05
-9.94488e-06
-3.41144e-05
-1.08404e-05
-3.67139e-05
-1.17076e-05
-3.92854e-05
-1.25512e-05
-4.1827e-05
-1.33758e-05
-4.43367e-05
-1.41856e-05
-4.68125e-05
-1.49839e-05
-4.92532e-05
-1.57736e-05
-5.16583e-05
-1.65564e-05
-5.40278e-05
-1.73337e-05
-5.63621e-05
-1.81067e-05
-5.86614e-05
-1.88761e-05
-6.09253e-05
-1.96429e-05
-6.31542e-05
-2.04083e-05
-2.11736e-05
-6.82732e-06
1.06123e-06
-9.69963e-06
1.18073e-06
-1.2575e-05
3.71174e-07
-1.54068e-05
-8.16775e-07
-1.81962e-05
-2.03772e-06
-2.09481e-05
-3.20916e-06
-2.36678e-05
-4.31381e-06
-2.63587e-05
-5.35771e-06
-2.90231e-05
-6.35183e-06
-3.16619e-05
-7.30614e-06
-3.4275e-05
-8.22726e-06
-3.6862e-05
-9.12065e-06
-3.94215e-05
-9.99169e-06
-4.19519e-05
-1.08454e-05
-4.44512e-05
-1.16863e-05
-4.69176e-05
-1.25175e-05
-4.935e-05
-1.33411e-05
-5.17483e-05
-1.41581e-05
-5.41127e-05
-1.49694e-05
-5.64434e-05
-1.57759e-05
-5.87405e-05
-1.6579e-05
-6.10036e-05
-1.73798e-05
-6.32331e-05
-1.81789e-05
-1.89755e-05
-6.8335e-06
3.87884e-06
-9.78953e-06
4.13676e-06
-1.27033e-05
3.28493e-06
-1.55428e-05
2.02277e-06
-1.83228e-05
7.4226e-07
-2.10565e-05
-4.75448e-07
-2.37537e-05
-1.61659e-06
-2.64205e-05
-2.69093e-06
-2.90603e-05
-3.71206e-06
-3.16748e-05
-4.69168e-06
-3.42644e-05
-5.63761e-06
-3.68288e-05
-6.55626e-06
-3.93667e-05
-7.45374e-06
-4.18765e-05
-8.33563e-06
-4.43563e-05
-9.20651e-06
-4.68045e-05
-1.00693e-05
-4.92202e-05
-1.09254e-05
-5.16031e-05
-1.17751e-05
-5.39537e-05
-1.26189e-05
-5.62719e-05
-1.34576e-05
-5.85579e-05
-1.4293e-05
-6.08112e-05
-1.51265e-05
-6.30322e-05
-1.59578e-05
-1.67845e-05
-6.74493e-06
6.85642e-06
-9.80543e-06
7.19726e-06
-1.27564e-05
6.23588e-06
-1.55931e-05
4.85949e-06
-1.83502e-05
3.49934e-06
-2.10521e-05
2.22646e-06
-2.37139e-05
1.04523e-06
-2.63443e-05
-6.05514e-08
-2.89479e-05
-1.10844e-06
-3.15272e-05
-2.1124e-06
-3.40829e-05
-3.08189e-06
-3.66147e-05
-4.02444e-06
-3.91215e-05
-4.947e-06
-4.16015e-05
-5.85567e-06
-4.40528e-05
-6.75515e-06
-4.64741e-05
-7.64808e-06
-4.88644e-05
-8.53514e-06
-5.12235e-05
-9.41604e-06
-5.35515e-05
-1.02909e-05
-5.58485e-05
-1.11606e-05
-5.81145e-05
-1.20271e-05
-6.0349e-05
-1.28919e-05
-6.25526e-05
-1.37543e-05
-1.461e-05
-6.57587e-06
1.00742e-05
-9.77048e-06
1.03919e-05
-1.27515e-05
9.21694e-06
-1.55683e-05
7.67624e-06
-1.82845e-05
6.21552e-06
-2.09383e-05
4.88028e-06
-2.35502e-05
3.65717e-06
-2.61312e-05
2.52039e-06
-2.86868e-05
1.44716e-06
-3.12198e-05
4.20633e-07
-3.37312e-05
-5.70503e-07
-3.62205e-05
-1.5351e-06
-3.86866e-05
-2.48094e-06
-4.11276e-05
-3.41464e-06
-4.35418e-05
-4.34097e-06
-4.59276e-05
-5.26227e-06
-4.82841e-05
-6.17863e-06
-5.06109e-05
-7.08926e-06
-5.29079e-05
-7.99389e-06
-5.5175e-05
-8.89346e-06
-5.74122e-05
-9.78991e-06
-5.96191e-05
-1.0685e-05
-6.17961e-05
-1.15773e-05
-1.24609e-05
-6.37101e-06
1.37013e-05
-9.72414e-06
1.3745e-05
-1.2712e-05
1.22048e-05
-1.54799e-05
1.04441e-05
-1.81312e-05
8.86681e-06
-2.07177e-05
7.46674e-06
-2.32638e-05
6.20333e-06
-2.57817e-05
5.03826e-06
-2.82772e-05
3.94266e-06
-3.0753e-05
2.89643e-06
-3.32098e-05
1.8863e-06
-3.5647e-05
9.02106e-07
-3.80632e-05
-6.47715e-08
-4.04564e-05
-1.02136e-06
-4.28249e-05
-1.97248e-06
-4.5167e-05
-2.92017e-06
-4.74816e-05
-3.86409e-06
-4.97678e-05
-4.803e-06
-5.20254e-05
-5.7363e-06
-5.42542e-05
-6.66473e-06
-5.64538e-05
-7.59026e-06
-5.86241e-05
-8.51471e-06
-6.07656e-05
-9.43589e-06
-1.03464e-05
-6.26512e-06
1.80918e-05
-9.74305e-06
1.72229e-05
-1.26658e-05
1.51276e-05
-1.53375e-05
1.31159e-05
-1.78932e-05
1.14225e-05
-2.03906e-05
9.9641e-06
-2.28544e-05
8.66709e-06
-2.52955e-05
7.47938e-06
-2.77191e-05
6.36624e-06
-3.0127e-05
5.30436e-06
-3.25194e-05
4.27868e-06
-3.48951e-05
3.27788e-06
-3.72526e-05
2.29266e-06
-3.95896e-05
1.31569e-06
-4.19043e-05
3.42166e-07
-4.41947e-05
-6.29737e-07
-4.64594e-05
-1.59937e-06
-4.86973e-05
-2.56512e-06
-5.09076e-05
-3.52603e-06
-5.30897e-05
-4.48258e-06
-5.52434e-05
-5.43662e-06
-5.73682e-05
-6.38992e-06
-5.94647e-05
-7.33933e-06
-8.27499e-06
-6.73157e-06
2.40913e-05
-9.92842e-06
2.04198e-05
-1.26321e-05
1.78312e-05
-1.5143e-05
1.56268e-05
-1.75679e-05
1.38474e-05
-1.99538e-05
1.235e-05
-2.23192e-05
1.10324e-05
-2.46708e-05
9.83103e-06
-2.70115e-05
8.70696e-06
-2.93417e-05
7.63454e-06
-3.16605e-05
6.59742e-06
-3.3966e-05
5.58347e-06
-3.62563e-05
4.58297e-06
-3.85291e-05
3.58844e-06
-4.07821e-05
2.59515e-06
-4.30132e-05
1.60142e-06
-4.52207e-05
6.08075e-07
-4.74028e-05
-3.83015e-07
-4.95583e-05
-1.37055e-06
-5.16862e-05
-2.35465e-06
-5.37858e-05
-3.33698e-06
-5.58563e-05
-4.31943e-06
-5.7897e-05
-5.29863e-06
-6.25376e-06
4.29089e-07
-4.29089e-07
5.73874e-07
-1.44784e-07
5.35547e-07
3.83263e-08
2.6501e-07
2.70538e-07
-2.24493e-06
2.50993e-06
6.09777e-06
-8.3427e-06
3.02769e-07
-7.31858e-07
1.72252e-07
-1.42677e-08
-3.98559e-07
6.09137e-07
-1.75217e-06
1.62415e-06
-4.3884e-06
5.14616e-06
1.02664e-05
-8.55704e-06
1.5536e-07
-8.87218e-07
-2.19207e-07
3.60299e-07
-1.17217e-06
1.5621e-06
-3.03449e-06
3.48647e-06
-5.65613e-06
7.76781e-06
1.31608e-05
-8.55049e-06
2.33046e-08
-9.10522e-07
-5.44991e-07
9.28595e-07
-1.7364e-06
2.75351e-06
-3.73055e-06
5.48062e-06
-6.16511e-06
1.02024e-05
1.53698e-05
-8.3741e-06
-9.88019e-08
-8.11721e-07
-7.98454e-07
1.62825e-06
-2.09437e-06
4.04942e-06
-4.03811e-06
7.42436e-06
-6.18022e-06
1.23445e-05
1.70509e-05
-7.8614e-06
-2.32234e-07
-5.79486e-07
-9.70763e-07
2.36678e-06
-2.26982e-06
5.34848e-06
-4.06082e-06
9.21535e-06
-5.86845e-06
1.41521e-05
1.83547e-05
-7.17219e-06
-3.23844e-07
-2.55642e-07
-1.06086e-06
3.10379e-06
-2.28945e-06
6.57707e-06
-3.86799e-06
1.07939e-05
-5.3444e-06
1.56285e-05
1.93804e-05
-6.37015e-06
-3.74806e-07
1.19164e-07
-1.07436e-06
3.80334e-06
-2.1804e-06
7.68311e-06
-3.51334e-06
1.21268e-05
-4.6815e-06
1.67967e-05
2.01841e-05
-5.48517e-06
-3.89205e-07
5.08369e-07
-1.01979e-06
4.43393e-06
-1.96707e-06
8.63039e-06
-3.0393e-06
1.31991e-05
-3.92528e-06
1.76827e-05
2.07931e-05
-4.53424e-06
-3.71433e-07
8.79802e-07
-9.06921e-07
4.96941e-06
-1.6707e-06
9.39417e-06
-2.4791e-06
1.40075e-05
-3.10462e-06
1.83082e-05
2.12206e-05
-3.53215e-06
-3.2617e-07
1.20597e-06
-7.45977e-07
5.38922e-06
-1.30992e-06
9.95812e-06
-1.85771e-06
1.45553e-05
-2.23906e-06
1.86895e-05
2.14724e-05
-2.49084e-06
-2.58368e-07
1.46434e-06
-5.47305e-07
5.67816e-06
-9.01394e-07
1.03122e-05
-1.19316e-06
1.4847e-05
-1.33981e-06
1.88362e-05
2.15475e-05
-1.41494e-06
-1.73282e-07
1.63762e-06
-3.21234e-07
5.82611e-06
-4.6018e-07
1.04512e-05
-4.99351e-07
1.48862e-05
-4.15321e-07
1.87521e-05
2.1442e-05
-3.09829e-07
-7.66077e-08
1.71423e-06
-7.82726e-08
5.82777e-06
-4.73514e-10
1.03734e-05
2.09257e-07
1.46765e-05
5.23708e-07
1.84377e-05
2.11466e-05
8.19082e-07
2.5633e-08
1.6886e-06
1.70414e-07
5.68299e-06
4.61602e-07
1.00822e-05
9.18812e-07
1.42193e-05
1.46864e-06
1.78879e-05
2.0647e-05
1.96828e-06
1.25507e-07
1.56309e-06
4.1411e-07
5.39439e-06
9.13989e-07
9.58229e-06
1.61696e-06
1.35163e-05
2.41183e-06
1.7093e-05
1.9924e-05
3.13486e-06
2.14881e-07
1.34821e-06
6.40889e-07
4.96838e-06
1.34155e-06
8.88163e-06
2.28887e-06
1.2569e-05
3.34308e-06
1.60388e-05
1.89525e-05
4.31453e-06
2.83791e-07
1.06442e-06
8.37401e-07
4.41477e-06
1.72747e-06
7.99155e-06
2.91711e-06
1.13793e-05
4.24809e-06
1.47078e-05
1.77001e-05
5.5005e-06
3.21177e-07
7.43242e-07
9.88547e-07
3.7474e-06
2.05301e-06
6.92709e-06
3.48173e-06
9.95061e-06
5.10635e-06
1.30832e-05
1.61227e-05
6.68378e-06
3.16427e-07
4.26815e-07
1.07835e-06
2.98548e-06
2.2986e-06
5.70684e-06
3.95911e-06
8.2901e-06
5.89222e-06
1.11501e-05
1.41616e-05
7.8533e-06
2.65807e-07
1.61008e-07
1.09168e-06
2.1596e-06
2.44342e-06
4.35511e-06
4.31999e-06
6.41353e-06
6.57374e-06
8.89633e-06
1.17428e-05
8.9925e-06
1.88478e-07
-2.747e-08
1.01654e-06
1.33153e-06
2.46406e-06
2.90759e-06
4.52869e-06
4.3489e-06
7.10619e-06
6.31883e-06
8.75114e-06
1.00979e-05
7.80666e-08
-1.05537e-07
8.38907e-07
5.70693e-07
2.32461e-06
1.42188e-06
4.51974e-06
2.15378e-06
7.45612e-06
3.38244e-06
4.94573e-06
1.12615e-05
-1.05537e-07
4.65156e-07
1.88704e-06
4.04082e-06
7.42326e-06
1.2369e-05
-7.87397e-06
2.36226e-05
-1.02825e-05
2.28283e-05
-1.26029e-05
2.01516e-05
-1.48825e-05
1.79064e-05
-1.71437e-05
1.61086e-05
-1.93995e-05
1.46059e-05
-2.16533e-05
1.32863e-05
-2.39049e-05
1.20826e-05
-2.61533e-05
1.09554e-05
-2.8397e-05
9.87818e-06
-3.06337e-05
8.83413e-06
-3.28609e-05
7.81075e-06
-3.50762e-05
6.79824e-06
-3.7277e-05
5.78918e-06
-3.94607e-05
4.77893e-06
-4.16252e-05
3.76589e-06
-4.37681e-05
2.75095e-06
-4.58872e-05
1.73611e-06
-4.79807e-05
7.22955e-07
-5.00471e-05
-2.88268e-07
-5.2085e-05
-1.29903e-06
-5.40929e-05
-2.31153e-06
-5.60681e-05
-3.32344e-06
-4.28825e-06
-9.11612e-06
2.41817e-05
-1.05833e-05
2.42955e-05
-1.24803e-05
2.20486e-05
-1.45131e-05
1.99392e-05
-1.66001e-05
1.81956e-05
-1.8717e-05
1.67227e-05
-2.0851e-05
1.54203e-05
-2.29947e-05
1.42264e-05
-2.51433e-05
1.31039e-05
-2.72928e-05
1.20277e-05
-2.944e-05
1.09813e-05
-3.15815e-05
9.95226e-06
-3.37143e-05
8.93108e-06
-3.58357e-05
7.91054e-06
-3.79429e-05
6.88613e-06
-4.00333e-05
5.85629e-06
-4.21042e-05
4.82186e-06
-4.4153e-05
3.78489e-06
-4.61772e-05
2.7472e-06
-4.81748e-05
1.70938e-06
-5.01441e-05
6.70249e-07
-5.20832e-05
-3.72482e-07
-5.39892e-05
-1.41743e-06
-2.38722e-06
-9.41559e-06
2.50468e-05
-1.05828e-05
2.54627e-05
-1.21841e-05
2.365e-05
-1.39991e-05
2.17542e-05
-1.59195e-05
2.0116e-05
-1.78969e-05
1.87001e-05
-1.99073e-05
1.74307e-05
-2.1938e-05
1.6257e-05
-2.39807e-05
1.51466e-05
-2.60298e-05
1.40769e-05
-2.80809e-05
1.30323e-05
-3.01299e-05
1.20013e-05
-3.21735e-05
1.09747e-05
-3.42085e-05
9.94558e-06
-3.62321e-05
8.90971e-06
-3.82413e-05
7.86547e-06
-4.02331e-05
6.81362e-06
-4.22043e-05
5.75617e-06
-4.41523e-05
4.69518e-06
-4.60746e-05
3.63169e-06
-4.79693e-05
2.5649e-06
-4.98347e-05
1.49289e-06
-5.16708e-05
4.18687e-07
-5.62784e-07
-9.25349e-06
2.59262e-05
-1.02751e-05
2.64842e-05
-1.16849e-05
2.50598e-05
-1.33244e-05
2.33937e-05
-1.50926e-05
2.18842e-05
-1.69342e-05
2.05417e-05
-1.88199e-05
1.93164e-05
-2.07341e-05
1.81712e-05
-2.26664e-05
1.70789e-05
-2.46099e-05
1.60203e-05
-2.65591e-05
1.49815e-05
-2.85097e-05
1.39519e-05
-3.04578e-05
1.29228e-05
-3.24002e-05
1.1888e-05
-3.43337e-05
1.08432e-05
-3.62553e-05
9.78702e-06
-3.81616e-05
8.7199e-06
-4.00492e-05
7.64382e-06
-4.19151e-05
6.56105e-06
-4.37565e-05
5.47313e-06
-4.55716e-05
4.37992e-06
-4.73589e-05
3.28027e-06
-4.91184e-05
2.17818e-06
1.17253e-06
-8.78303e-06
2.68478e-05
-9.72554e-06
2.74267e-05
-1.09955e-05
2.63297e-05
-1.24899e-05
2.48882e-05
-1.41187e-05
2.35131e-05
-1.58285e-05
2.22514e-05
-1.75895e-05
2.10774e-05
-1.93846e-05
1.99664e-05
-2.12027e-05
1.8897e-05
-2.30359e-05
1.78535e-05
-2.48783e-05
1.68239e-05
-2.67251e-05
1.57986e-05
-2.85722e-05
1.477e-05
-3.04163e-05
1.3732e-05
-3.22539e-05
1.26809e-05
-3.4082e-05
1.16151e-05
-3.58972e-05
1.0535e-05
-3.76957e-05
9.44234e-06
-3.94741e-05
8.33947e-06
-4.12293e-05
7.22831e-06
-4.29587e-05
6.10934e-06
-4.46604e-05
4.982e-06
-4.63329e-05
3.85065e-06
2.81724e-06
-8.08725e-06
2.77629e-05
-8.98106e-06
2.83205e-05
-1.01384e-05
2.7487e-05
-1.15047e-05
2.62545e-05
-1.30025e-05
2.50108e-05
-1.45832e-05
2.38321e-05
-1.62192e-05
2.27134e-05
-1.78932e-05
2.16403e-05
-1.95937e-05
2.05975e-05
-2.13125e-05
1.95724e-05
-2.30435e-05
1.85549e-05
-2.47816e-05
1.75367e-05
-2.65226e-05
1.6511e-05
-2.8263e-05
1.54724e-05
-2.99994e-05
1.44174e-05
-3.17287e-05
1.33443e-05
-3.34471e-05
1.22535e-05
-3.51512e-05
1.11463e-05
-3.68368e-05
1.00251e-05
-3.85004e-05
8.8919e-06
-4.01387e-05
7.74763e-06
-4.17489e-05
6.5922e-06
-4.33283e-05
5.43014e-06
4.36598e-06
-7.22608e-06
2.86188e-05
-8.07697e-06
2.91714e-05
-9.13512e-06
2.85452e-05
-1.03806e-05
2.75001e-05
-1.17513e-05
2.63814e-05
-1.32042e-05
2.5285e-05
-1.47142e-05
2.42234e-05
-1.62647e-05
2.31909e-05
-1.78445e-05
2.21773e-05
-1.94452e-05
2.11732e-05
-2.10606e-05
2.01703e-05
-2.26856e-05
1.91616e-05
-2.43157e-05
1.81411e-05
-2.59475e-05
1.71041e-05
-2.75776e-05
1.60475e-05
-2.92027e-05
1.49695e-05
-3.08193e-05
1.38701e-05
-3.24236e-05
1.27506e-05
-3.40113e-05
1.16128e-05
-3.55782e-05
1.04588e-05
-3.71204e-05
9.28981e-06
-3.86341e-05
8.10592e-06
-4.01157e-05
6.91169e-06
5.81323e-06
-6.24821e-06
2.93819e-05
-7.03943e-06
2.99626e-05
-8.00052e-06
2.95062e-05
-9.12928e-06
2.86288e-05
-1.0374e-05
2.76261e-05
-1.16988e-05
2.66099e-05
-1.30812e-05
2.56058e-05
-1.45058e-05
2.46155e-05
-1.59618e-05
2.36332e-05
-1.74409e-05
2.26523e-05
-1.89368e-05
2.16662e-05
-2.04442e-05
2.06691e-05
-2.1959e-05
1.96559e-05
-2.34775e-05
1.86226e-05
-2.49963e-05
1.75663e-05
-2.65124e-05
1.64855e-05
-2.80221e-05
1.53798e-05
-2.95215e-05
1.42501e-05
-3.10063e-05
1.30977e-05
-3.24719e-05
1.19244e-05
-3.39135e-05
1.07314e-05
-3.53264e-05
9.51888e-06
-3.67057e-05
8.29101e-06
7.15402e-06
-5.17865e-06
3.00263e-05
-5.88766e-06
3.06716e-05
-6.75246e-06
3.0371e-05
-7.76272e-06
2.96391e-05
-8.88019e-06
2.87436e-05
-1.00754e-05
2.78051e-05
-1.13281e-05
2.68586e-05
-1.26242e-05
2.59115e-05
-1.39532e-05
2.49622e-05
-1.53072e-05
2.40063e-05
-1.66798e-05
2.30388e-05
-1.80657e-05
2.20551e-05
-1.94608e-05
2.1051e-05
-2.08615e-05
2.00232e-05
-2.22644e-05
1.89693e-05
-2.36665e-05
1.78876e-05
-2.50644e-05
1.67777e-05
-2.64541e-05
1.56398e-05
-2.78313e-05
1.44748e-05
-2.91909e-05
1.3284e-05
-3.05277e-05
1.20682e-05
-3.18361e-05
1.08273e-05
-3.31095e-05
9.56443e-06
8.38397e-06
-4.04426e-06
3.05384e-05
-4.65079e-06
3.12782e-05
-5.40637e-06
3.11266e-05
-6.2925e-06
3.05252e-05
-7.2799e-06
2.9731e-05
-8.34294e-06
2.88681e-05
-9.46342e-06
2.79791e-05
-1.06282e-05
2.70763e-05
-1.18272e-05
2.61613e-05
-1.30528e-05
2.52318e-05
-1.42984e-05
2.42845e-05
-1.5559e-05
2.33157e-05
-1.68303e-05
2.23223e-05
-1.81087e-05
2.13017e-05
-1.93912e-05
2.02518e-05
-2.06747e-05
1.91711e-05
-2.1956e-05
1.80589e-05
-2.32313e-05
1.69151e-05
-2.44961e-05
1.57397e-05
-2.57455e-05
1.45334e-05
-2.69737e-05
1.32963e-05
-2.81741e-05
1.20277e-05
-2.93385e-05
1.07288e-05
9.49925e-06
-2.85333e-06
3.09009e-05
-3.34097e-06
3.17658e-05
-3.97259e-06
3.17582e-05
-4.72889e-06
3.12815e-05
-5.58264e-06
3.05847e-05
-6.51067e-06
2.97962e-05
-7.49623e-06
2.89646e-05
-8.52688e-06
2.81069e-05
-9.59299e-06
2.72274e-05
-1.06868e-05
2.63257e-05
-1.18021e-05
2.53997e-05
-1.29336e-05
2.44472e-05
-1.40772e-05
2.34659e-05
-1.52294e-05
2.24539e-05
-1.63871e-05
2.14095e-05
-1.75475e-05
2.03315e-05
-1.87075e-05
1.9219e-05
-1.98637e-05
1.80712e-05
-2.10117e-05
1.68877e-05
-2.21466e-05
1.56683e-05
-2.32623e-05
1.4412e-05
-2.43516e-05
1.3117e-05
-2.54043e-05
1.17816e-05
1.04963e-05
-1.60782e-06
3.10938e-05
-1.96011e-06
3.21181e-05
-2.46005e-06
3.22582e-05
-3.08131e-06
3.19028e-05
-3.79781e-06
3.13012e-05
-4.58794e-06
3.05863e-05
-5.43588e-06
2.98126e-05
-6.32969e-06
2.90007e-05
-7.25998e-06
2.81577e-05
-8.2191e-06
2.72848e-05
-9.20078e-06
2.63814e-05
-1.01999e-05
2.54463e-05
-1.12122e-05
2.44782e-05
-1.22344e-05
2.3476e-05
-1.32633e-05
2.24384e-05
-1.42964e-05
2.13645e-05
-1.53307e-05
2.02533e-05
-1.63631e-05
1.91036e-05
-1.73897e-05
1.79143e-05
-1.84057e-05
1.66843e-05
-1.94052e-05
1.54116e-05
-2.03805e-05
1.40924e-05
-2.13193e-05
1.27203e-05
1.13716e-05
-3.18894e-07
3.11028e-05
-5.20211e-07
3.23194e-05
-8.78421e-07
3.26164e-05
-1.359e-06
3.23833e-05
-1.93461e-06
3.18768e-05
-2.58394e-06
3.12356e-05
-3.29163e-06
3.05202e-05
-4.04602e-06
2.97551e-05
-4.83788e-06
2.89495e-05
-5.65963e-06
2.81065e-05
-6.505e-06
2.72268e-05
-7.36885e-06
2.63101e-05
-8.24693e-06
2.53563e-05
-9.13579e-06
2.43649e-05
-1.00325e-05
2.33351e-05
-1.09344e-05
2.22664e-05
-1.18388e-05
2.11577e-05
-1.27429e-05
2.00077e-05
-1.36434e-05
1.88148e-05
-1.45359e-05
1.75768e-05
-1.54152e-05
1.62908e-05
-1.62737e-05
1.49509e-05
-1.70966e-05
1.35432e-05
1.21208e-05