/*--------------------------------*- C++ -*----------------------------------*\
  =========                 |
  \\      /  F ield         | OpenFOAM: The Open Source CFD Toolbox
   \\    /   O peration     | Website:  https://openfoam.org
    \\  /    A nd           | Version:  11
     \\/     M anipulation  |
\*---------------------------------------------------------------------------*/
FoamFile
{
    format      ascii;
    class       surfaceVectorField;
    location    "0.82";
    object      Uf;
}
// * * * * * * * * * * * * * * * * * * * * * * * * * * * * * * * * * * * * * //

dimensions      [0 1 -1 0 0 0 0];

internalField   nonuniform List<vector> 
5640
(
(-0.0210683 -0.0588848 5.27014e-19)
(-0.0180408 -0.0658904 -1.46128e-18)
(-0.0528648 0.00192032 2.24213e-18)
(-0.0376761 -0.0141584 1.28429e-18)
(-0.106751 0.102763 -1.3918e-18)
(-0.0772742 0.0744196 6.36855e-19)
(-0.141737 0.232128 -2.10974e-18)
(-0.14195 0.203419 -1.35229e-18)
(-0.190991 0.507955 -7.03224e-19)
(-0.140097 0.332626 3.26423e-19)
(-0.238131 0.77046 1.96699e-19)
(-0.0749344 1.09736 -1.9854e-19)
(-0.0284578 -0.029234 -8.53333e-19)
(-0.0249574 -0.0532063 0)
(-0.0561283 0.058503 -2.84783e-19)
(-0.0405793 0.0315979 -8.52086e-19)
(-0.096607 0.162734 7.238e-19)
(-0.0702861 0.127338 -8.21669e-20)
(-0.124889 0.303893 9.71592e-19)
(-0.112455 0.24906 1.55154e-19)
(-0.104253 0.507264 1.0105e-18)
(-0.0967327 0.400259 1.02893e-18)
(-0.0611573 0.667654 -1.56374e-19)
(0.0528786 0.85164 8.86575e-20)
(-0.0333878 -0.0006111 5.04056e-20)
(-0.0335457 -0.0322189 0)
(-0.0519415 0.0977361 -6.7794e-19)
(-0.0385718 0.0658246 8.24437e-19)
(-0.0778002 0.202715 -6.63949e-19)
(-0.0580409 0.162612 -2.69162e-19)
(-0.0850767 0.340373 1.75991e-19)
(-0.0807169 0.277354 6.60695e-19)
(-0.0352917 0.515365 -9.23453e-20)
(-0.0515397 0.42222 -3.39103e-19)
(0.0269001 0.614697 -1.56374e-19)
(0.123615 0.737482 -3.18493e-19)
(-0.0361875 0.0251106 7.26467e-19)
(-0.0400417 -0.0112617 -2.05602e-20)
(-0.0440655 0.126769 1.27962e-18)
(-0.0343721 0.0917894 8.22446e-21)
(-0.0566443 0.228801 1.01389e-18)
(-0.0439704 0.186762 7.26756e-21)
(-0.0481239 0.354994 1.71345e-19)
(-0.050211 0.292887 5.21242e-19)
(0.0159331 0.503064 -3.84017e-19)
(-0.0102801 0.422081 -3.75026e-19)
(0.0813815 0.569067 0)
(0.162033 0.66103 2.16315e-19)
(-0.0363726 0.0462523 -7.4162e-19)
(-0.0428516 0.00651687 -4.09435e-20)
(-0.0345152 0.147725 -1.26597e-18)
(-0.0286248 0.110704 -8.06289e-19)
(-0.0353195 0.244266 -5.07215e-19)
(-0.0291858 0.202133 -4.60072e-19)
(-0.0140886 0.356238 0)
(-0.0220058 0.298256 9.51817e-20)
(0.0564813 0.478788 0)
(0.0259835 0.408922 -8.19051e-20)
(0.120241 0.522277 6.08825e-20)
(0.188691 0.595047 0)
(-0.0336573 0.0621621 -6.14578e-20)
(-0.0416648 0.0202207 -4.06133e-20)
(-0.0238925 0.161397 -1.45625e-20)
(-0.0213174 0.123376 -1.79759e-21)
(-0.0147533 0.25101 1.23566e-19)
(-0.0140394 0.210228 1.48127e-21)
(0.0161853 0.347925 1.76009e-20)
(0.00373586 0.295532 9.51817e-20)
(0.0894717 0.44709 -2.44456e-20)
(0.0573314 0.387503 2.22171e-19)
(0.150073 0.473883 -1.93919e-19)
(0.209328 0.532807 2.58402e-20)
(-0.0281609 0.0731576 1.68075e-20)
(-0.0367879 0.029873 -2.02301e-20)
(-0.012342 0.16884 1.40857e-20)
(-0.0125253 0.130817 4.05437e-20)
(0.00484159 0.250736 -3.00687e-20)
(0.00128443 0.212408 -2.9086e-20)
(0.0429023 0.33273 2.95551e-19)
(0.0271373 0.28653 0)
(0.116839 0.410981 6.26721e-20)
(0.0843054 0.360709 7.79721e-21)
(0.173907 0.424811 -4.9028e-21)
(0.226224 0.473083 2.52123e-20)
(-0.0202909 0.0798744 0)
(-0.0289621 0.0359568 1.29827e-18)
(-9.76429e-06 0.171288 0)
(-0.00249231 0.134134 0)
(0.0234274 0.245023 0)
(0.0165837 0.209959 0)
(0.066491 0.31266 -2.88179e-19)
(0.0483567 0.272845 4.24687e-20)
(0.139874 0.372377 -5.95859e-20)
(0.107533 0.330482 -2.63178e-19)
(0.193467 0.375853 1.86094e-19)
(0.240586 0.415587 2.98192e-19)
(-0.0106927 0.0831851 1.37317e-18)
(-0.0192138 0.0391556 -1.21032e-18)
(0.0128336 0.169921 0)
(0.00839095 0.134363 -6.18434e-19)
(0.0409472 0.235266 4.1034e-20)
(0.0316048 0.204046 0)
(0.0873219 0.289275 7.57326e-20)
(0.0675286 0.255832 4.24687e-20)
(0.159455 0.332542 -2.78354e-20)
(0.127558 0.298212 -3.63507e-20)
(0.209827 0.327534 5.92841e-20)
(0.253109 0.360197 -3.37331e-19)
(-0.000133652 0.0839047 -3.23555e-18)
(-0.00858954 0.0400928 -1.23717e-18)
(0.0258238 0.16578 -6.4475e-19)
(0.0196496 0.132369 -2.53606e-20)
(0.0573079 0.222649 0)
(0.0460674 0.195665 0)
(0.105698 0.26378 -6.77115e-20)
(0.0847559 0.236597 0)
(0.176212 0.292347 4.86536e-20)
(0.144825 0.264911 -6.96647e-20)
(0.223734 0.280244 1.23197e-19)
(0.264068 0.306905 1.06337e-19)
(0.0106512 0.0826719 1.90358e-18)
(0.00201693 0.0392284 6.265e-21)
(0.0385673 0.159708 6.18193e-19)
(0.0307991 0.128812 5.92961e-19)
(0.0723986 0.208129 0)
(0.0597148 0.185612 4.17864e-19)
(0.121852 0.237097 0)
(0.100117 0.216023 0)
(0.190622 0.252353 0)
(0.159685 0.231301 0)
(0.235625 0.234105 0)
(0.273968 0.255415 0)
(0.0210485 0.0799342 -1.3382e-18)
(0.0119262 0.0368622 2.06455e-20)
(0.0507037 0.152334 4.00083e-19)
(0.0414056 0.12414 -2.91679e-19)
(0.0861307 0.192449 4.31981e-19)
(0.0723486 0.174495 2.06594e-19)
(0.135963 0.209928 0)
(0.113694 0.194803 0)
(0.203008 0.212929 0)
(0.172416 0.197908 0)
(0.245805 0.189192 0)
(0.282894 0.205595 -1.36618e-19)
(0.030592 0.075974 1.08541e-18)
(0.0206599 0.0331804 1.26639e-18)
(0.0619418 0.144099 -5.0637e-19)
(0.0511163 0.118624 -2.81493e-19)
(0.0984604 0.176176 -2.18407e-19)
(0.0838425 0.162757 -4.24803e-19)
(0.148205 0.182798 0)
(0.125592 0.173472 0)
(0.213612 0.174332 0)
(0.183253 0.165137 1.4449e-19)
(0.25445 0.145534 -1.25813e-19)
(0.290942 0.157242 2.41184e-19)
(0.0389458 0.070956 -1.11007e-20)
(0.0278945 0.0283047 -3.9354e-20)
(0.0720761 0.135281 -1.9384e-19)
(0.0596487 0.112387 3.17677e-19)
(0.109403 0.159731 -2.20752e-19)
(0.0941476 0.150709 -2.13538e-19)
(0.158747 0.156128 1.40439e-19)
(0.135968 0.152456 0)
(0.222612 0.136766 2.51566e-20)
(0.192398 0.133334 1.52892e-20)
(0.261632 0.103156 -1.44229e-20)
(0.298152 0.110143 -4.56297e-19)
(0.0458701 0.0649807 2.69132e-19)
(0.0333829 0.0223345 2.96772e-19)
(0.0809614 0.126027 3.20589e-19)
(0.0667681 0.105434 1.55502e-19)
(0.119038 0.143423 0)
(0.103284 0.13855 1.38889e-20)
(0.167775 0.130264 -1.25556e-19)
(0.145029 0.132111 -2.25316e-20)
(0.230127 0.100404 -2.34689e-20)
(0.200052 0.10284 -1.94869e-19)
(0.267316 0.0621201 1.11342e-19)
(0.304492 0.0640705 3.38058e-19)
(0.0511449 0.0580787 1.91474e-19)
(0.036843 0.0153732 -1.43217e-21)
(0.088508 0.116384 -1.45172e-19)
(0.0722755 0.0976617 4.92824e-21)
(0.127502 0.12749 -7.49565e-21)
(0.111338 0.126375 1.38889e-20)
(0.175513 0.105552 -8.69707e-20)
(0.153033 0.112753 -2.25316e-20)
(0.236252 0.0654839 -6.72656e-20)
(0.206439 0.0740529 1.19327e-20)
(0.27136 0.0225869 0)
(0.309835 0.0188007 -8.68529e-20)
(0.0545121 0.0502317 -1.88402e-19)
(0.0378798 0.00752499 -3.17956e-19)
(0.0946762 0.10629 1.63631e-19)
(0.0760016 0.0888439 7.65864e-20)
(0.134999 0.112108 0)
(0.118475 0.114185 -2.87029e-21)
(0.182226 0.0823655 7.54343e-20)
(0.160318 0.0946786 1.55567e-21)
(0.241081 0.032358 7.94708e-20)
(0.211844 0.0474662 1.18009e-19)
(0.273488 -0.0151164 0)
(0.313982 -0.0258675 4.2401e-21)
(0.0556499 0.0413861 -7.57292e-20)
(0.0359716 -0.00112962 0)
(0.0994829 0.0955679 -8.65081e-20)
(0.0777981 0.0786171 5.58183e-21)
(0.14182 0.0973821 -1.44874e-21)
(0.124936 0.101877 -2.87029e-21)
(0.188265 0.0611153 4.08655e-20)
(0.167324 0.0781693 1.55567e-21)
(0.244715 0.00155413 4.13674e-20)
(0.216696 0.0237359 8.29848e-20)
(0.273192 -0.0503723 0)
(0.316565 -0.0701084 -2.12173e-21)
(0.054155 0.0314585 8.10254e-20)
(0.0305359 -0.0105495 -6.58769e-19)
(0.102991 0.0838958 8.96452e-20)
(0.0774842 0.0664561 8.59862e-20)
(0.148355 0.0833503 0)
(0.13102 0.0892243 0)
(0.194126 0.0423071 4.14091e-20)
(0.174657 0.063482 0)
(0.247329 -0.0260138 4.36249e-20)
(0.221727 0.00375347 -6.9784e-20)
(0.26962 -0.0820712 1.93081e-20)
(0.31695 -0.114003 0)
(0.0495069 0.0201851 -6.96775e-19)
(0.021265 -0.0206641 -5.95167e-20)
(0.105282 0.0707873 0)
(0.0746839 0.0516124 0)
(0.155097 0.0699546 0)
(0.137063 0.075836 0)
(0.200576 0.0265456 -1.09161e-19)
(0.183161 0.0507922 0)
(0.249388 -0.048828 -9.86754e-20)
(0.228272 -0.0112964 -1.60464e-19)
(0.261041 -0.108224 -1.05882e-19)
(0.313968 -0.157498 5.65811e-21)
(0.041652 0.00531563 6.35298e-19)
(0.0119408 -0.0303335 6.00646e-19)
(0.106382 0.0556692 0)
(0.0688377 0.0330784 0)
(0.162571 0.0570731 0)
(0.143343 0.0610803 0)
(0.20871 0.014504 -4.68033e-20)
(0.193913 0.0400817 -3.28646e-19)
(0.252023 -0.0646488 -1.81885e-19)
(0.238547 -0.019994 6.10967e-21)
(0.242579 -0.125595 5.78902e-20)
(0.305355 -0.200825 -1.45994e-19)
(0.03353 -0.00782328 0)
(0.004631 -0.0386535 3.95823e-20)
(0.106197 0.0382809 0)
(0.0596047 0.0105676 -2.98986e-20)
(0.171049 0.0446135 -3.17543e-19)
(0.149469 0.0438947 6.86297e-19)
(0.219362 0.00672389 -2.81736e-19)
(0.207656 0.0309952 -3.29158e-21)
(0.256228 -0.0704288 2.32323e-19)
(0.25472 -0.0210031 -4.80167e-19)
(0.199982 -0.13142 6.78945e-19)
(0.28756 -0.245729 1.15069e-19)
(0.0234324 -0.0222627 1.22834e-20)
(-0.00390256 -0.0456936 1.05827e-19)
(0.104072 0.0182448 6.25922e-19)
(0.0432125 -0.0178879 9.50911e-19)
(0.180375 0.0315604 1.0231e-18)
(0.149789 0.0207906 -9.3868e-20)
(0.230578 0.00186806 -1.87506e-19)
(0.219669 0.0217517 -3.01537e-19)
(0.254971 -0.0650968 -1.04746e-19)
(0.270389 -0.0140555 -3.20128e-20)
(0.0919374 -0.136789 -5.05669e-19)
(0.257478 -0.296546 8.63164e-19)
(0.00838655 -0.0430151 9.9268e-19)
(0.0922524 -0.0142696 2.69853e-19)
(0.18442 0.0042156 -1.41603e-18)
(0.232928 -0.0110418 -1.41518e-19)
(0.202269 -0.0698896 -5.3094e-19)
(0.216457 -0.360746 -1.4315e-18)
(0.60254 0.953233 -1.05057e-19)
(0.382656 1.03089 -3.25877e-20)
(0.550562 1.10276 -1.27708e-19)
(0.825484 0.814275 -8.57352e-20)
(0.709708 0.843559 2.91252e-20)
(0.818485 0.866787 -1.19773e-20)
(0.944707 0.704884 -7.64755e-20)
(0.864706 0.738034 -7.50794e-20)
(0.948473 0.756632 3.22629e-20)
(1.0127 0.612687 7.70638e-20)
(0.954564 0.643535 -1.26981e-19)
(1.02435 0.659882 2.5507e-20)
(1.05318 0.533199 6.42368e-20)
(1.00883 0.559227 1.9436e-19)
(1.06935 0.574386 -4.00817e-20)
(1.07833 0.465336 -1.28478e-19)
(1.04295 0.486982 7.48661e-20)
(1.09609 0.500999 -1.28417e-19)
(1.09463 0.408064 -1.5737e-19)
(1.06546 0.426033 -1.6925e-20)
(1.11239 0.438543 -5.21544e-21)
(1.10561 0.359987 -4.31172e-20)
(1.081 0.374974 3.61377e-20)
(1.12262 0.385809 -1.05593e-19)
(1.11312 0.319526 -3.56744e-21)
(1.09208 0.332193 1.57974e-19)
(1.12918 0.341418 3.06565e-20)
(1.11808 0.285142 -1.2008e-19)
(1.09999 0.29605 1.36967e-19)
(1.13327 0.303872 -3.60758e-21)
(1.1209 0.255493 -1.16146e-19)
(1.10536 0.265054 -1.83412e-19)
(1.13538 0.271736 -8.52222e-20)
(1.1218 0.229505 -4.96208e-20)
(1.10853 0.238022 2.47354e-21)
(1.13574 0.243819 5.65206e-20)
(1.1209 0.206351 -2.23973e-21)
(1.10969 0.214048 -5.25391e-20)
(1.13444 0.219187 -7.77624e-20)
(1.11828 0.185397 1.87931e-19)
(1.10897 0.192442 3.79462e-22)
(1.13153 0.197116 1.41884e-19)
(1.11397 0.166144 5.07828e-20)
(1.10647 0.172668 3.78219e-20)
(1.12703 0.177042 -1.39225e-20)
(1.10797 0.148192 -1.29393e-19)
(1.10222 0.154301 6.63395e-21)
(1.12095 0.158511 3.41337e-20)
(1.10027 0.131216 -2.12948e-21)
(1.09623 0.136999 -4.06014e-20)
(1.11325 0.14116 -1.85445e-20)
(1.09079 0.114953 1.83854e-21)
(1.08847 0.120498 3.90495e-20)
(1.10384 0.124702 -9.32746e-20)
(1.07946 0.0991928 3.71411e-20)
(1.07889 0.104573 -1.21491e-19)
(1.09263 0.108887 6.78972e-23)
(1.06617 0.0837791 -4.00366e-22)
(1.06752 0.0888827 1.57068e-19)
(1.07958 0.0933419 1.45913e-19)
(1.05078 0.0685977 3.51586e-20)
(1.05446 0.0729954 -7.38013e-20)
(1.06471 0.0775775 -7.3468e-20)
(1.03312 0.0535904 2.22324e-20)
(1.03897 0.0579232 -9.34014e-21)
(1.04726 0.0625735 7.31545e-21)
(1.01464 0.039638 -1.4397e-19)
(1.0178 0.0493732 4.57369e-20)
(1.02411 0.0543597 -1.42723e-19)
(0.994063 0.0493895 3.88184e-21)
(0.997625 0.0557246 6.77862e-20)
(0.530074 0.855251 5.46975e-20)
(0.351888 0.875935 -1.2465e-19)
(0.746273 0.770408 4.19633e-20)
(0.63792 0.789795 1.98896e-19)
(0.872698 0.677585 -1.2462e-19)
(0.794005 0.701361 4.04159e-20)
(0.949434 0.59049 -1.50592e-20)
(0.89054 0.613664 -3.01288e-21)
(0.997602 0.513867 2.08164e-19)
(0.951991 0.534147 2.21406e-21)
(1.02935 0.448525 1.89096e-19)
(0.992737 0.465604 9.18115e-20)
(1.05131 0.39365 1.77019e-19)
(1.02104 0.407878 5.19289e-20)
(1.0671 0.347745 2.36465e-19)
(1.04156 0.359624 3.24734e-20)
(1.07868 0.309146 2.98827e-19)
(1.05686 0.319207 7.78398e-20)
(1.08709 0.276284 7.70035e-20)
(1.06834 0.284987 6.38521e-20)
(1.09287 0.247835 -6.66175e-20)
(1.07676 0.255515 -1.37216e-19)
(1.09634 0.22277 0)
(1.08256 0.229673 -6.73692e-20)
(1.09771 0.200308 -5.0557e-20)
(1.08603 0.20662 6.25091e-20)
(1.09713 0.179857 -1.50217e-19)
(1.0874 0.185718 -5.10048e-20)
(1.09471 0.16095 -6.09964e-21)
(1.08681 0.166473 -9.96179e-20)
(1.09048 0.143217 9.57836e-20)
(1.08435 0.148491 1.47146e-19)
(1.08446 0.126359 0)
(1.08005 0.131459 9.63326e-20)
(1.07664 0.110136 -8.31645e-20)
(1.07394 0.11514 -4.52595e-20)
(1.06698 0.094369 -3.318e-21)
(1.06601 0.0993313 -4.04446e-20)
(1.05544 0.0789312 8.19484e-20)
(1.05636 0.0837331 -5.5122e-21)
(1.04196 0.0637408 -1.18698e-19)
(1.04515 0.0679743 -4.3281e-20)
(1.02648 0.048785 -5.56297e-21)
(1.03165 0.0530723 -2.02281e-19)
(1.01061 0.0351176 1.93829e-19)
(1.01254 0.0443209 1.54617e-19)
(0.99145 0.0432105 4.18356e-23)
(0.479802 0.78333 -8.25037e-20)
(0.333664 0.775584 5.36981e-20)
(0.683335 0.719495 1.96596e-19)
(0.582671 0.725805 -2.68022e-19)
(0.810282 0.637748 1.6412e-19)
(0.734512 0.652336 4.04159e-20)
(0.892068 0.557941 1.44053e-20)
(0.834067 0.573827 -3.81884e-20)
(0.94629 0.48668 -1.16639e-19)
(0.900619 0.501232 -1.14893e-19)
(0.983776 0.425708 -4.54683e-20)
(0.946772 0.438178 0)
(1.0108 0.374484 -9.32484e-20)
(0.980073 0.384939 -4.61102e-20)
(1.03096 0.331593 -1.27085e-19)
(1.00497 0.340343 -4.1729e-20)
(1.04625 0.295432 -1.57979e-19)
(1.02402 0.302874 1.14908e-20)
(1.05782 0.264507 -1.48794e-19)
(1.0387 0.270996 1.6656e-21)
(1.06632 0.237582 -1.38653e-19)
(1.04988 0.243371 6.30154e-21)
(1.07217 0.213712 -6.06391e-21)
(1.05808 0.218991 -6.91869e-20)
(1.07567 0.192188 6.30579e-20)
(1.06371 0.197102 2.58929e-19)
(1.07705 0.17247 0)
(1.06704 0.177131 -5.92679e-20)
(1.07643 0.154132 5.16695e-20)
(1.06826 0.158633 5.80959e-20)
(1.07392 0.136838 1.4808e-19)
(1.0675 0.141251 6.05027e-23)
(1.06956 0.120315 5.22262e-20)
(1.06486 0.124702 1.4891e-19)
(1.06339 0.104354 -2.57298e-21)
(1.06037 0.108775 -9.30613e-20)
(1.05542 0.0888049 -4.28927e-20)
(1.05409 0.0932995 8.94897e-20)
(1.04566 0.0735747 -1.30499e-19)
(1.04616 0.0780182 -3.97098e-20)
(1.0341 0.0586143 -1.26011e-19)
(1.0368 0.0626271 1.42776e-22)
(1.02079 0.0439534 -8.34689e-20)
(1.02527 0.0481253 -1.74266e-19)
(1.00736 0.030785 -3.81286e-20)
(1.00823 0.0393182 1.72452e-19)
(0.989714 0.0372944 -3.83491e-20)
(0.445286 0.707066 -1.45472e-19)
(0.324186 0.689453 2.59426e-19)
(0.632494 0.659091 -4.30036e-19)
(0.541669 0.656789 -4.39503e-19)
(0.757184 0.588981 -1.60431e-19)
(0.68601 0.595942 2.03469e-19)
(0.84172 0.517852 -1.66204e-19)
(0.785796 0.527267 8.20579e-20)
(0.900361 0.453488 0)
(0.855579 0.462689 7.9197e-20)
(0.942469 0.39809 0)
(0.9058 0.406157 -1.39045e-19)
(0.973768 0.351367 5.15745e-21)
(0.943129 0.358176 -2.41318e-19)
(0.997676 0.31208 9.64685e-20)
(0.971681 0.317789 1.13074e-20)
(1.01621 0.278782 1.71485e-19)
(0.993929 0.283666 -7.03905e-21)
(1.03058 0.250119 1.56886e-19)
(1.01138 0.254436 -6.64428e-21)
(1.04151 0.224988 7.66794e-20)
(1.02498 0.228912 1.59685e-19)
(1.04953 0.202554 1.92782e-19)
(1.03534 0.206223 6.92021e-20)
(1.05501 0.182192 1.39271e-19)
(1.04292 0.185712 6.30863e-20)
(1.0582 0.163421 -2.15089e-21)
(1.04805 0.166879 -2.46635e-19)
(1.0593 0.145862 6.83525e-21)
(1.05096 0.14933 2.38833e-19)
(1.05844 0.129213 -3.52486e-22)
(1.05183 0.132746 -1.65943e-19)
(1.05569 0.113232 5.39852e-21)
(1.05076 0.116877 1.0778e-19)
(1.05114 0.0977404 -2.26999e-21)
(1.04785 0.101542 -2.05542e-19)
(1.04483 0.0826234 9.35145e-20)
(1.04317 0.0866032 1.46582e-19)
(1.03684 0.0678226 9.07841e-20)
(1.03693 0.0718534 -9.78927e-20)
(1.02719 0.0533218 -4.67969e-20)
(1.02938 0.0570588 4.35318e-20)
(1.01598 0.0391871 4.31558e-20)
(1.01977 0.0431756 -8.89256e-20)
(1.0048 0.0267047 1.73444e-19)
(1.00481 0.034458 3.60883e-20)
(0.988762 0.0317259 1.71092e-19)
(0.423132 0.632756 -2.0609e-20)
(0.320088 0.610445 -4.19381e-20)
(0.593161 0.594621 1.7765e-19)
(0.511455 0.586644 2.18332e-19)
(0.713498 0.534921 4.47932e-19)
(0.64723 0.535912 9.03956e-22)
(0.798773 0.472889 3.28094e-19)
(0.745611 0.476764 2.4524e-19)
(0.860296 0.416083 -5.65322e-20)
(0.817058 0.42046 -7.65767e-20)
(0.905878 0.366866 -3.78939e-19)
(0.8701 0.370867 -1.47867e-19)
(0.940577 0.325114 -2.38448e-19)
(0.910492 0.328506 -2.42769e-19)
(0.967574 0.289786 -9.19628e-20)
(0.941947 0.292615 1.21303e-19)
(0.988841 0.259628 -1.85172e-19)
(0.966815 0.262071 -7.80481e-22)
(1.00561 0.233461 -5.75824e-21)
(0.986597 0.235685 -8.5965e-20)
(1.01868 0.210336 1.52964e-19)
(1.00228 0.212452 -2.94179e-22)
(1.02864 0.18954 -6.05213e-20)
(1.01453 0.191637 1.48355e-19)
(1.0359 0.170536 -3.20312e-19)
(1.02385 0.172688 -2.02492e-19)
(1.04076 0.152905 -9.97245e-21)
(1.0306 0.155173 -1.8748e-19)
(1.04346 0.136316 6.92233e-20)
(1.03507 0.138752 5.62436e-20)
(1.04415 0.120502 -5.99803e-20)
(1.03744 0.123146 5.68423e-21)
(1.04294 0.105253 -1.00836e-19)
(1.03786 0.108138 1.68413e-19)
(1.03995 0.0904264 -5.91361e-20)
(1.03645 0.0935784 -1.60695e-19)
(1.03526 0.0759438 -4.34586e-20)
(1.03331 0.0793678 -1.11304e-19)
(1.02898 0.0617842 -1.46147e-19)
(1.02869 0.0653538 -9.47009e-20)
(1.02117 0.0479609 2.0916e-21)
(1.02287 0.0513713 1.48488e-19)
(1.01197 0.0345647 -1.33435e-19)
(1.01509 0.038306 -2.39614e-19)
(1.00284 0.0229223 -1.05002e-19)
(1.00219 0.0298154 -1.8315e-19)
(0.988489 0.02657 1.71092e-19)
(0.408638 0.56082 1.88991e-19)
(0.319534 0.53675 3.44665e-19)
(0.563199 0.529074 4.51786e-20)
(0.48957 0.517371 -9.35587e-20)
(0.678195 0.478433 -2.05402e-19)
(0.616909 0.474639 -2.55255e-19)
(0.762963 0.425101 -1.53092e-19)
(0.712883 0.424254 5.00604e-20)
(0.826124 0.375931 -1.66691e-19)
(0.784846 0.376057 -2.38572e-19)
(0.874132 0.333078 -1.01992e-20)
(0.839654 0.333412 1.41204e-19)
(0.911396 0.296477 1.12796e-19)
(0.882231 0.296736 -6.88697e-20)
(0.940828 0.26527 2.14072e-19)
(0.915882 0.265426 1.15455e-19)
(0.964314 0.238402 9.9509e-20)
(0.942813 0.238556 9.84139e-20)
(0.983085 0.214884 -8.14168e-20)
(0.964488 0.215126 -9.69856e-20)
(0.997987 0.193924 -6.37871e-21)
(0.981908 0.194311 -8.2275e-20)
(1.00963 0.17493 9.58417e-21)
(0.995771 0.175513 7.5193e-20)
(1.01848 0.15745 -6.98922e-20)
(1.00661 0.158273 -2.19202e-19)
(1.02486 0.141128 -1.23353e-19)
(1.01481 0.142231 0)
(1.02902 0.125677 -6.91223e-21)
(1.02068 0.127094 -1.90775e-19)
(1.03114 0.110867 2.32844e-19)
(1.02442 0.112625 1.19491e-19)
(1.03138 0.0965249 1.11325e-19)
(1.02622 0.0986389 5.28302e-20)
(1.02986 0.0825437 -2.12815e-19)
(1.02621 0.0850233 -6.10754e-20)
(1.02672 0.0688862 -1.62635e-19)
(1.02452 0.0717202 -1.00518e-19)
(1.02206 0.0555675 1.98374e-19)
(1.02143 0.0586337 3.16945e-19)
(1.016 0.0426219 -9.89995e-20)
(1.01722 0.0456593 1.99162e-19)
(1.00867 0.0301487 -2.89895e-19)
(1.01116 0.0335837 -3.92957e-19)
(1.0014 0.0194634 -4.71551e-20)
(1.00027 0.0254473 -9.71416e-20)
(0.988775 0.0218736 -4.62137e-20)
(0.399454 0.491634 7.72654e-20)
(0.321357 0.467593 3.9326e-19)
(0.540851 0.464069 -3.90606e-19)
(0.474203 0.449942 -6.83988e-20)
(0.650359 0.421161 -6.10102e-21)
(0.593804 0.413591 -2.88045e-19)
(0.733778 0.375948 -3.05931e-20)
(0.686881 0.371122 5.00604e-20)
(0.797611 0.334175 6.3419e-20)
(0.758537 0.33061 -1.69088e-19)
(0.84716 0.297588 8.54251e-20)
(0.814265 0.294668 -4.55617e-21)
(0.886242 0.26611 -6.8404e-20)
(0.858273 0.263543 3.39403e-21)
(0.917504 0.239042 0)
(0.893489 0.236756 1.25003e-19)
(0.94273 0.215521 -9.59064e-20)
(0.921973 0.213556 1.07126e-19)
(0.963126 0.194738 -9.79972e-20)
(0.945135 0.193126 -1.00702e-19)
(0.979551 0.176054 -2.29174e-21)
(0.963964 0.17481 -8.84445e-20)
(0.992639 0.158988 -1.50822e-19)
(0.979172 0.15813 2.43601e-19)
(1.00286 0.143168 -1.51234e-19)
(0.9913 0.142716 -2.29831e-19)
(1.01058 0.128295 -6.5831e-20)
(1.00076 0.128271 -1.42239e-19)
(1.01605 0.114128 -6.6912e-20)
(1.00786 0.11455 6.77785e-20)
(1.01949 0.100473 -6.00171e-20)
(1.01284 0.101354 -1.28363e-19)
(1.02106 0.0871944 -1.18516e-19)
(1.01589 0.0885348 1.87299e-19)
(1.02091 0.0742259 5.1599e-20)
(1.01715 0.0760174 -1.76912e-19)
(1.0192 0.0615714 3.76549e-19)
(1.01681 0.0637877 2.85285e-19)
(1.01607 0.0492757 3.13476e-19)
(1.01513 0.051803 2.6651e-19)
(1.01162 0.0373815 -1.06214e-19)
(1.01239 0.0400053 5.07649e-20)
(1.006 0.0259808 -2.01965e-19)
(1.00789 0.029056 -1.49349e-19)
(1.00037 0.0163343 -9.6493e-20)
(0.998943 0.0213925 2.03827e-19)
(0.989501 0.0176661 -3.08139e-19)
(0.394472 0.42519 2.63495e-19)
(0.324708 0.402301 -3.08212e-19)
(0.524747 0.400532 3.75607e-20)
(0.464053 0.384913 5.37967e-19)
(0.62901 0.364241 -2.38801e-19)
(0.576808 0.353673 -2.98245e-19)
(0.710598 0.326472 -8.47698e-20)
(0.66684 0.318299 -1.57016e-19)
(0.774396 0.291678 -2.39661e-19)
(0.737638 0.284932 -8.62114e-20)
(0.824767 0.261084 -8.6669e-20)
(0.793637 0.255302 -8.08627e-20)
(0.865031 0.234567 1.95398e-19)
(0.838456 0.229477 -1.7631e-21)
(0.897591 0.21156 2.32342e-19)
(0.8747 0.207064 1.25003e-19)
(0.924119 0.191372 1.04732e-19)
(0.904284 0.187466 1.07126e-19)
(0.945785 0.173361 -9.12287e-20)
(0.928561 0.170032 -1.05998e-19)
(0.96344 0.157023 1.54186e-19)
(0.948491 0.154254 2.45363e-21)
(0.977723 0.141977 1.69182e-19)
(0.964782 0.139761 1.60028e-19)
(0.989117 0.127921 -2.21548e-19)
(0.977979 0.126259 -1.58402e-19)
(0.997989 0.114614 -1.04315e-20)
(0.988501 0.11351 -6.78919e-20)
(1.00462 0.101853 7.94362e-21)
(0.996666 0.101314 1.32278e-19)
(1.00922 0.0894843 1.16518e-19)
(1.00273 0.0895072 7.19402e-20)
(1.01199 0.0774103 1.31608e-19)
(1.00688 0.077981 1.83694e-19)
(1.01309 0.0656071 5.30399e-20)
(1.0093 0.0667007 -1.19737e-19)
(1.01269 0.0541162 1.75371e-19)
(1.01016 0.0556941 -4.46587e-21)
(1.01094 0.0430008 0)
(1.00975 0.0449614 -1.73828e-19)
(1.00796 0.0322982 1.63108e-21)
(1.00832 0.0344729 1.68709e-19)
(1.00388 0.0220815 2.54302e-19)
(1.00522 0.0247503 -5.18687e-20)
(0.999672 0.0135259 8.60357e-20)
(0.998106 0.0176725 2.54165e-19)
(0.990548 0.01396 -3.57818e-19)
(0.39243 0.361747 -5.30008e-20)
(0.329143 0.340397 -3.57419e-19)
(0.513742 0.338983 2.19095e-19)
(0.458037 0.322382 -5.61175e-23)
(0.613256 0.308374 -2.19944e-19)
(0.56497 0.295374 2.35087e-19)
(0.69279 0.277375 -1.59642e-19)
(0.652044 0.266368 -2.16297e-19)
(0.75606 0.249059 7.23535e-20)
(0.721644 0.23957 -9.08663e-20)
(0.806697 0.224098 2.76966e-21)
(0.777442 0.215809 3.99909e-19)
(0.847622 0.202305 -7.35935e-20)
(0.822577 0.194977 -7.15597e-20)
(0.881022 0.183221 0)
(0.8594 0.176742 6.55742e-20)
(0.908466 0.166308 -1.01191e-19)
(0.889694 0.160639 2.27734e-19)
(0.931076 0.151067 -1.34468e-20)
(0.914751 0.146163 -1.33643e-21)
(0.949684 0.137113 6.75133e-21)
(0.935495 0.132932 9.08981e-20)
(0.964923 0.124149 -1.64518e-19)
(0.952619 0.120666 -1.33166e-22)
(0.977279 0.111938 -5.60606e-21)
(0.966666 0.109137 -2.41691e-19)
(0.987122 0.100287 7.30861e-20)
(0.978054 0.0981582 -1.32885e-21)
(0.994739 0.0890344 1.968e-19)
(0.987108 0.0875716 2.13895e-19)
(1.00036 0.0780637 1.38226e-19)
(0.994084 0.077252 1.32514e-19)
(1.00418 0.0673191 -6.53663e-20)
(0.999195 0.0671289 -6.41983e-20)
(1.0064 0.0568169 -1.78145e-19)
(1.00262 0.0572081 1.2616e-19)
(1.00716 0.0466272 -3.52597e-19)
(1.00455 0.0475525 -3.02267e-19)
(1.00664 0.036818 -5.27601e-21)
(1.00525 0.0381914 -2.33867e-19)
(1.00494 0.0274101 1.16465e-19)
(1.00494 0.0291056 1.12162e-19)
(1.00221 0.018454 -5.39362e-20)
(1.00307 0.0206769 5.80658e-20)
(0.99923 0.011019 -9.48947e-20)
(0.997658 0.0142946 5.4023e-20)
(0.991806 0.0107521 -4.71099e-20)
(0.392721 0.301036 -3.12479e-19)
(0.334306 0.281334 -4.2246e-20)
(0.506946 0.27958 1.11387e-20)
(0.455375 0.262272 -2.75833e-19)
(0.602334 0.25394 2.462e-19)
(0.557529 0.238895 5.08096e-20)
(0.679772 0.229095 -1.49973e-19)
(0.641875 0.215657 3.7272e-19)
(0.742189 0.206745 2.29156e-19)
(0.710089 0.194878 1.46586e-21)
(0.792675 0.187032 3.31814e-19)
(0.765351 0.176545 2.40604e-19)
(0.833841 0.169697 6.59624e-20)
(0.81042 0.160389 -1.44277e-19)
(0.867698 0.154371 2.91374e-19)
(0.847453 0.14612 1.96418e-21)
(0.895719 0.140646 3.30211e-19)
(0.878122 0.133385 5.51236e-20)
(0.918976 0.128149 1.02049e-19)
(0.90366 0.121808 1.02721e-19)
(0.938277 0.11659 8.49684e-20)
(0.924952 0.111112 0)
(0.954244 0.105745 -7.5014e-20)
(0.942672 0.101089 8.58107e-20)
(0.967355 0.0954346 -2.39601e-19)
(0.957355 0.0915697 1.31534e-21)
(0.977983 0.0855086 1.37608e-19)
(0.969415 0.0824143 -7.56471e-20)
(0.986418 0.0758459 1.50252e-19)
(0.979179 0.0735034 2.15827e-19)
(0.992896 0.0663686 -6.83423e-20)
(0.986907 0.0647499 -1.37e-19)
(0.997624 0.0570609 1.26087e-19)
(0.992816 0.0561226 1.36062e-19)
(1.00079 0.0479738 5.37904e-21)
(0.997091 0.0476637 1.27008e-19)
(1.00257 0.0391943 -1.83941e-19)
(0.999922 0.0394602 -2.49454e-19)
(1.0031 0.0307825 -1.14896e-19)
(1.00156 0.0315549 6.22816e-20)
(1.00251 0.0227378 5.61022e-20)
(1.0022 0.0239283 -5.66094e-20)
(1.00093 0.0150906 1.66049e-19)
(1.00137 0.0168357 1.11683e-19)
(0.998982 0.00878888 1.02175e-19)
(0.997502 0.0112569 2.17805e-19)
(0.993168 0.00802356 -9.98171e-20)
(0.394881 0.242753 0)
(0.34 0.224665 -1.63847e-19)
(0.503686 0.222286 -2.43003e-19)
(0.455517 0.204377 1.42961e-19)
(0.595626 0.201096 1.7121e-19)
(0.553896 0.18425 3.12576e-22)
(0.671045 0.181879 5.30073e-19)
(0.635828 0.166316 2.14481e-19)
(0.732405 0.165022 9.26007e-21)
(0.702578 0.151073 -3.82894e-21)
(0.782433 0.150186 -2.30147e-19)
(0.757068 0.137766 -8.56874e-20)
(0.82351 0.137045 -2.09948e-19)
(0.801776 0.125986 -2.19623e-19)
(0.857502 0.125305 -2.34864e-19)
(0.838717 0.115476 6.27121e-22)
(0.885803 0.114671 -1.72785e-19)
(0.869472 0.105979 -1.15968e-19)
(0.909439 0.104872 1.75502e-21)
(0.895223 0.0972321 8.28034e-22)
(0.929191 0.0956993 0)
(0.916816 0.0890404 -1.94314e-19)
(0.945663 0.0869902 1.62988e-19)
(0.934907 0.0812573 9.08253e-20)
(0.959328 0.0786145 1.65958e-19)
(0.950018 0.0737653 8.1512e-20)
(0.970554 0.0704635 0)
(0.962558 0.0664661 0)
(0.979632 0.0624542 -6.8623e-20)
(0.972851 0.0592785 -3.76912e-20)
(0.986802 0.0545473 6.52068e-20)
(0.98116 0.0521529 -1.40394e-19)
(0.992271 0.0467637 1.37048e-19)
(0.987702 0.0450949 1.36062e-19)
(0.996228 0.0391801 -1.25048e-19)
(0.992663 0.0381758 0)
(0.998846 0.0318871 -5.10302e-21)
(0.996227 0.0314939 -1.25923e-19)
(1.00027 0.0249298 1.23053e-19)
(0.998623 0.0250935 9.10038e-20)
(1.0006 0.0182882 0)
(1.00003 0.0189519 3.01853e-20)
(0.999966 0.0119769 1.62768e-19)
(1.00007 0.0132251 1.16538e-19)
(0.998864 0.00680826 6.46689e-20)
(0.997556 0.00856329 5.32147e-20)
(0.994525 0.00572773 -1.97809e-19)
(0.398585 0.18656 -2.82402e-20)
(0.346083 0.169911 1.25476e-19)
(0.50348 0.166941 3.89e-19)
(0.458091 0.148404 -7.22092e-20)
(0.592654 0.149854 3.95484e-20)
(0.55364 0.131335 9.02297e-20)
(0.666205 0.135851 -3.1554e-19)
(0.633509 0.118384 -2.17353e-19)
(0.726391 0.124079 -9.76221e-20)
(0.698791 0.10828 -7.21971e-23)
(0.775735 0.113788 -7.32992e-20)
(0.752344 0.099655 0)
(0.816456 0.104599 -1.18769e-20)
(0.796458 0.0919878 -1.82286e-22)
(0.850312 0.0962818 1.20884e-19)
(0.833053 0.0850477 6.42371e-20)
(0.878633 0.0886358 5.63308e-20)
(0.863642 0.0786652 5.65781e-20)
(0.902402 0.0814795 -1.931e-19)
(0.889363 0.0726717 -8.8676e-22)
(0.922376 0.0746687 -1.06348e-19)
(0.911028 0.0669418 -1.45297e-19)
(0.939142 0.068094 9.43387e-21)
(0.929274 0.0613808 9.08253e-20)
(0.953162 0.0616691 -8.37314e-20)
(0.944612 0.0559161 -8.30026e-20)
(0.9648 0.0553243 -3.73768e-20)
(0.957441 0.0504888 -3.92323e-20)
(0.974345 0.0490144 -1.08666e-19)
(0.968084 0.045055 7.66903e-20)
(0.982034 0.042736 -7.17815e-20)
(0.976799 0.0396009 -7.12415e-20)
(0.988075 0.0365402 0)
(0.983802 0.0341645 3.52577e-20)
(0.992653 0.0305182 0)
(0.989275 0.0288357 -1.35105e-19)
(0.995937 0.0247544 -3.10564e-20)
(0.993397 0.0237122 1.3113e-19)
(0.998065 0.0192778 -1.47375e-21)
(0.996378 0.0188328 5.7816e-23)
(0.999145 0.0140583 1.4619e-19)
(0.998373 0.0141768 -1.21646e-19)
(0.999286 0.00910543 1.27083e-20)
(0.99911 0.0098359 2.34284e-19)
(0.998835 0.00504548 -1.60574e-19)
(0.997756 0.0062137 -2.23589e-19)
(0.995787 0.00380897 5.22284e-20)
(0.403631 0.132064 8.55821e-20)
(0.352473 0.116581 -8.20316e-20)
(0.506004 0.113305 -3.74519e-19)
(0.462882 0.0940066 -3.35692e-20)
(0.593072 0.100141 -1.60952e-19)
(0.556474 0.0799769 -1.27124e-19)
(0.66494 0.0910539 9.44174e-20)
(0.634631 0.0718323 -1.38301e-19)
(0.723895 0.0840382 9.74821e-20)
(0.698489 0.0665674 9.60231e-20)
(0.772383 0.078015 7.3083e-20)
(0.750981 0.0623512 0)
(0.812527 0.0725682 7.50668e-20)
(0.794309 0.0585781 7.41148e-20)
(0.846012 0.0675254 0)
(0.830337 0.0550464 6.46353e-20)
(0.874115 0.062769 0)
(0.86053 0.0516632 -1.27673e-21)
(0.897791 0.0581922 4.85056e-20)
(0.885994 0.0483449 0)
(0.917769 0.0537068 4.94979e-20)
(0.907514 0.0450245 5.15571e-23)
(0.934624 0.0492497 0)
(0.92571 0.0416534 -4.50017e-20)
(0.948807 0.0447753 -3.88879e-20)
(0.941079 0.0382003 8.56457e-20)
(0.960672 0.0402518 7.37726e-20)
(0.954012 0.0346445 -7.93624e-20)
(0.970505 0.0356698 1.15292e-19)
(0.964824 0.0309781 1.90791e-19)
(0.978539 0.0310579 3.49905e-20)
(0.97377 0.0272209 -7.41432e-20)
(0.984976 0.0264888 -9.86124e-20)
(0.981058 0.0234357 -1.22417e-22)
(0.989998 0.022057 -5.84935e-21)
(0.986865 0.0197197 -1.35105e-19)
(0.99377 0.0178356 1.63125e-19)
(0.991367 0.0161606 6.52506e-20)
(0.996431 0.0138425 -1.19343e-19)
(0.994756 0.0127897 9.51398e-20)
(0.998093 0.0100507 -3.5089e-20)
(0.997171 0.00958907 -2.912e-20)
(0.998859 0.00647824 6.06002e-21)
(0.99844 0.00661224 -1.49585e-19)
(0.998926 0.00347828 -2.48828e-20)
(0.998051 0.00411507 3.07851e-20)
(0.996971 0.00228748 7.60485e-20)
(0.409924 0.0788401 -2.03899e-19)
(0.359126 0.0641514 -1.21609e-19)
(0.511075 0.0610947 2.15453e-19)
(0.46982 0.0408089 1.81465e-19)
(0.596652 0.0518356 -1.04268e-19)
(0.562241 0.0299775 1.24814e-19)