/*--------------------------------*- C++ -*----------------------------------*\
  =========                 |
  \\      /  F ield         | OpenFOAM: The Open Source CFD Toolbox
   \\    /   O peration     | Website:  https://openfoam.org
    \\  /    A nd           | Version:  11
     \\/     M anipulation  |
\*---------------------------------------------------------------------------*/
FoamFile
{
    format      ascii;
    class       volScalarField;
    location    "0.46";
    object      epsilon;
}
// * * * * * * * * * * * * * * * * * * * * * * * * * * * * * * * * * * * * * //

dimensions      [0 2 -3 0 0 0 0];

internalField   nonuniform List<scalar> 
2880
(
1.52763
1.83388
2.86547
3.82239
4.69853
5.54702
0.736734
1.01694
1.46719
1.89487
2.38388
2.73613
0.209466
0.797146
1.08395
1.36736
1.69376
1.88825
0.237352
0.707376
0.924348
1.14261
1.37956
1.50821
0.259129
0.661514
0.839553
1.02338
1.21259
1.31371
0.274029
0.640219
0.789729
0.954045
1.11871
1.21353
1.19238
0.640815
0.759353
0.912333
1.06503
1.1679
1.23716
0.644896
0.740678
0.887303
1.03677
1.15449
1.28504
0.650431
0.729308
0.872764
1.02539
1.16118
1.31732
0.65593
0.722464
0.86466
1.02416
1.18128
1.33367
0.660668
0.718242
0.860101
1.02814
1.20923
1.33335
0.664316
0.715267
0.856909
1.03385
1.24034
1.31593
0.666989
0.712474
0.853342
1.03857
1.27047
1.28815
0.669546
0.708962
0.847915
1.0396
1.2961
1.25055
0.669088
0.70388
0.839443
1.035
1.31458
1.20725
0.661529
0.696048
0.827467
1.02345
1.32468
1.18996
0.637161
0.684515
0.812403
1.00484
1.32734
0.280913
0.584778
0.67057
0.795445
0.980824
1.33054
0.275902
0.545776
0.658789
0.779483
0.955943
1.34568
0.265563
0.524102
0.656413
0.771332
0.938954
1.38286
0.249611
0.529426
0.672954
0.782491
0.941886
1.44705
0.227877
0.586346
0.738071
0.842797
0.985141
1.54469
0.853578
0.845145
0.96953
1.07737
1.15953
1.73423
2.03403
2.1675
2.256
2.34548
2.07775
2.06996
2.15607
1.8509
1.89069
2.06964
2.26104
2.40537
2.48185
2.4883
2.43833
2.33648
2.20619
2.06166
1.91399
1.7713
1.63892
1.52012
1.41826
1.33446
1.2667
1.21281
1.17149
1.14154
1.12193
1.10759
1.72573
1.49173
1.49489
1.6144
1.75095
1.86325
1.93453
1.96416
1.95522
1.91448
1.85056
1.77458
1.69435
1.61618
1.5446
1.48253
1.43123
1.39216
1.36583
1.3512
1.34486
1.34146
1.3386
1.33551
1.47292
1.29207
1.28819
1.36943
1.45917
1.52778
1.56813
1.58393
1.57862
1.55665
1.52338
1.48495
1.44635
1.41138
1.3826
1.36131
1.34779
1.34207
1.34216
1.34612
1.3508
1.35269
1.35014
1.34578
1.31975
1.19938
1.20595
1.27361
1.3414
1.38479
1.40361
1.40224
1.38479
1.35744
1.32546
1.29333
1.26431
1.24062
1.22348
1.21321
1.20931
1.20992
1.2134
1.21715
1.21794
1.21427
1.20452
1.19259
1.23883
1.17173
1.19535
1.26462
1.32818
1.36386
1.37512
1.36578
1.34142
1.30874
1.2731
1.23847
1.2074
1.18126
1.16044
1.14447
1.13228
1.12248
1.11385
1.10557
1.09657
1.08619
1.0747
1.06525
1.2087
1.18924
1.24762
1.33681
1.41202
1.45295
1.46522
1.45351
1.42458
1.3859
1.34328
1.3008
1.26106
1.2254
1.19426
1.16751
1.14461
1.1249
1.10765
1.0921
1.07792
1.06529
1.05506
1.04823
1.21117
1.24941
1.35558
1.48193
1.58616
1.64805
1.67262
1.66814
1.6417
1.60173
1.55481
1.50556
1.457
1.41084
1.36793
1.32853
1.29262
1.25996
1.23033
1.20371
1.18058
1.16233
1.15109
1.14564
1.24221
1.34557
1.51354
1.69413
1.84164
1.93616
1.98115
1.98924
1.96969
1.93217
1.88409
1.83098
1.7765
1.72287
1.67137
1.62311
1.57865
1.53749
1.49918
1.4634
1.43023
1.40111
1.37917
1.36315
1.29541
1.47291
1.71858
1.96905
2.16947
2.29965
2.36556
2.38321
2.36722
2.33165
2.28019
2.22103
2.15887
2.09637
2.03507
1.97453
1.91383
1.8533
1.7926
1.73111
1.6687
1.60571
1.5485
1.48879
1.36546
1.62822
1.96904
2.30122
2.55433
2.70922
2.78121
2.7895
2.7517
2.677
2.58792
2.49541
2.40292
2.31206
2.22341
2.13756
2.05492
1.97417
1.89417
1.8138
1.73299
1.65023
1.57586
1.48768
1.44759
1.80946
2.26417
2.68142
2.96849
3.11363
3.12512
3.04387
2.92513
2.8029
2.68186
2.56336
2.44846
2.33764
2.23073
2.12677
2.02431
1.92226
1.81962
1.71509
1.61009
1.49706
1.40085
1.25673
1.53748
2.01655
2.60495
3.09255
3.36332
3.38398
3.26063
3.10009
2.92609
2.74697
2.57099
2.40339
2.24536
2.09626
1.95453
1.81848
1.6863
1.55537
1.42512
1.29405
1.16699
1.03252
0.923451
0.751825
1.63159
2.25402
2.99381
3.49943
3.62409
3.47107
3.21931
2.92755
2.63845
2.37062
2.12942
1.91376
1.72016
1.54357
1.37996
1.22681
1.07992
0.936078
0.800287
0.674524
0.561457
0.458583
0.381143
0.299486
1.72811
2.53638
3.43046
3.84533
3.71392
3.35251
2.88439
2.44682
2.06711
1.74693
1.47914
1.25337
1.05962
0.88679
0.735689
0.604524
0.494089
0.406414
0.335512
0.277777
0.230748
0.192336
0.162028
0.136113
1.82889
2.89505
3.89859
4.02875
3.65737
2.95353
2.33184
1.82771
1.43321
1.12765
0.890691
0.701799
0.55417
0.443844
0.358676
0.291822
0.238803
0.196526
0.162739
0.135764
0.114361
0.0975997
0.0847703
0.0774252
1.9428
3.38543
4.32511
4.09835
3.31382
2.45299
1.79556
1.31585
0.971605
0.724776
0.545756
0.41969
0.32747
0.258731
0.206712
0.166852
0.136009
0.111979
0.0932085
0.0786224
0.0674982
0.0592792
0.0537584
0.0525595
2.09319
4.05155
4.62603
4.08012
2.91622
2.02774
1.41094
0.99182
0.708749
0.516444
0.383956
0.290451
0.223225
0.174044
0.13752
0.110056
0.0892177
0.0733401
0.0612707
0.0522367
0.0457327
0.0413461
0.0391545
0.0399494
2.33077
4.83223
4.85051
3.86137
2.56844
1.69913
1.13115
0.766108
0.531392
0.377941
0.275261
0.204786
0.155115
0.119319
0.0931209
0.0737665
0.0594066
0.0487601
0.0409519
0.0354143
0.0317482
0.0296933
0.0294201
0.0308733
2.76585
5.51346
5.05955
3.54186
2.23194
1.39561
0.884299
0.575785
0.386892
0.267591
0.189722
0.137404
0.10153
0.0765618
0.0589822
0.0465015
0.0376015
0.0312822
0.0269029
0.0240562
0.0224662
0.0220316
0.0225921
0.0245249
3.56187
6.05759
5.14981
3.20491
1.8843
1.10897
0.672885
0.425873
0.280175
0.190478
0.133197
0.0955733
0.0703132
0.0530771
0.0411665
0.0328493
0.0270083
0.0229338
0.0201895
0.0185063
0.0177286
0.0177827
0.0185364
0.020448
4.91068
6.55786
5.07623
2.80948
1.52116
0.852109
0.504347
0.314488
0.204556
0.137744
0.0956817
0.0685043
0.0505624
0.0384711
0.0301617
0.0243624
0.0202891
0.0174621
0.0155969
0.0145237
0.0141497
0.0143565
0.0152016
0.0169332
7.04804
7.27562
4.67811
2.29083
1.16963
0.640436
0.375536
0.232318
0.149844
0.100188
0.0693086
0.0495811
0.036664
0.0280139
0.0221071
0.0180158
0.0151724
0.0132333
0.0119972
0.011348
0.0112272
0.0115232
0.0123681
0.0138484
9.71873
7.81353
3.72484
1.74411
0.874568
0.477762
0.279687
0.17234
0.110721
0.0739171
0.0512281
0.036833
0.0274468
0.0211677
0.016873
0.0138893
0.0118097
0.0103911
0.00949383
0.00904127
0.00899693
0.00928307
0.0100253
0.0112487
13.4933
7.66066
3.01645
1.31019
0.650144
0.357131
0.209529
0.12902
0.0829014
0.0554959
0.0386662
0.0280013
0.0210377
0.0163641
0.0131525
0.0109077
0.00933117
0.00824531
0.00754989
0.00719263
0.0071506
0.00738179
0.00798304
0.00897451
2.74008
7.39863
10.733
11.684
11.021
42.3094
0.962601
3.85533
5.83164
7.4589
9.09883
13.2465
1.30401
3.09029
4.69008
6.27147
7.56864
7.93142
1.74033
2.80905
4.21415
5.64046
6.3217
5.90567
2.09823
2.68471
3.9549
5.18897
5.42262
4.69084
2.38046
2.62912
3.79097
4.83661
4.78015
3.80552
2.59285
2.60597
3.67952
4.56358
4.32637
3.18611
2.74213
2.5954
3.60032
4.36342
3.99448
2.7643
2.83461
2.58387
3.54071
4.22253
3.75205
2.47235
2.8755
2.56199
3.49153
4.12577
3.58069
2.27048
2.87107
2.52332
3.44638
4.05989
3.47154
2.1341
2.82191
2.46378
3.39861
4.02002
3.42163
2.04842
2.73331
2.38143
3.34215
4.00459
3.42457
2.00775
2.61289
2.27608
3.2719
4.00378
3.47977
2.01201
2.46566
2.14817
3.18257
4.02309
3.587
2.06463
2.29256
1.9984
3.06616
4.05373
3.74684
2.17402
2.09427
1.82795
2.91148
4.08644
3.95928
2.35329
1.86941
1.63841
2.7036
4.10304
4.222
2.62519
1.60989
1.43109
2.43123
4.08392
4.53787
3.02596
1.29095
1.20055
2.11184
3.94548
4.90889
3.61738
0.273591
0.944302
1.78512
3.59358
5.3148
4.50949
0.251428
0.811345
1.48013
2.9366
5.55076
5.81461
0.956806
0.920074
1.32982
2.13898
5.16427
6.90244
2.48439
1.93042
2.16564
2.26875
3.28876
6.23249
17.0349
5.08276
1.94327
0.907714
0.477371
0.268182
0.158183
0.0975853
0.0629095
0.0423407
0.029705
0.0216763
0.0164104
0.0128556
0.0103959
0.0086619
0.00742974
0.00656544
0.00599345
0.00567626
0.00559923
0.00575056
0.00619858
0.00698286
7.6916
3.08203
1.40994
0.699833
0.368574
0.205589
0.120986
0.0748184
0.0484926
0.032866
0.023233
0.0170797
0.0130179
0.0102561
0.00832902
0.00695584
0.00596453
0.0052505
0.0047538
0.00444466
0.00431309
0.00436738
0.0046578
0.00525262
4.95818
2.26687
1.057
0.524244
0.278796
0.157271
0.0933542
0.0581611
0.0379798
0.0259377
0.018469
0.0136653
0.0104708
0.00828164
0.00674064
0.00563019
0.00481486
0.00421013
0.0037653
0.00345321
0.00326367
0.00320915
0.00334239
0.00375083
3.58443
1.66658
0.797022
0.405466
0.217932
0.123273
0.0733952
0.0459764
0.0302319
0.0207933
0.0149004
0.0110822
0.00852398
0.00675732
0.00550325
0.00459001
0.0039089
0.00338993
0.00298827
0.00267634
0.00243918
0.00227963
0.00224968
0.00246656
2.66326
1.27265
0.622818
0.319073
0.171847
0.0975739
0.0584558
0.0368896
0.0244361
0.016917
0.0121871
0.00909973
0.00701655
0.00556813
0.00453255
0.0037719
0.00319769
0.00275139
0.00239327
0.00209541
0.00183758
0.00160986
0.00143087
0.00140421
2.08898
1.01035
0.498225
0.255916
0.138069
0.07865
0.0473705
0.0300868
0.0200551
0.0139581
0.0100961
0.00755892
0.00583704
0.00463351
0.00376865
0.00312995
0.00264465
0.00226412
0.0019547
0.00169157
0.00145458
0.00122883
0.00101218
0.000741956
1.71297
0.828602
0.408225
0.2092
0.112811
0.0644331
0.0390061
0.0249191
0.0166981
0.0116694
0.00846447
0.00634786
0.00490535
0.0038938
0.00316512
0.00262609
0.00221624
0.00189525
0.00163536
0.0014162
0.00122097
0.00103704
0.000860089
0.00064715
1.45461
0.698174
0.34169
0.174268
0.0938476
0.0537054
0.0326487
0.0209551
0.0140969
0.00987852
0.00717681
0.00538577
0.00416206
0.0033028
0.00268368
0.00222609
0.00187889
0.00160801
0.00139004
0.00120772
0.00104663
0.000896497
0.000756179
0.000597015
1.27212
0.602863
0.292119
0.14803
0.0795257
0.0455411
0.0277688
0.0178822
0.0120596
0.00846226
0.0061501
0.00461384
0.00356328
0.00282585
0.0022953
0.00190412
0.00160832
0.00137856
0.00119473
0.00104205
0.000908271
0.000785403
0.000673951
0.000554119
1.14113
0.53256
0.255031
0.128274
0.068664
0.0392839
0.023992
0.0154785
0.010449
0.00733186
0.0053241
0.00398915
0.00307684
0.00243769
0.0019792
0.00164248
0.00138909
0.0011934
0.00103794
0.000909898
0.000798861
0.000698543
0.000609983
0.000518769
1.04771
0.481036
0.227555
0.113393
0.0603751
0.0344618
0.0210494
0.0135844
0.00916597
0.00642266
0.00465464
0.00348002
0.00267901
0.00211972
0.00172029
0.00142852
0.00121031
0.001043
0.000911196
0.000803708
0.000711603
0.000629838
0.000559444
0.000489696
0.98437
0.444346
0.207198
0.102165
0.0540497
0.0307396
0.0187472
0.0120838
0.00813779
0.00568701
0.00410887
0.00306277
0.00235196
0.001858
0.00150729
0.00125284
0.001064
0.000920474
0.000808507
0.000718226
0.000641884
0.000575321
0.000519315
0.00046585
0.944873
0.418979
0.192476
0.093823
0.049256
0.0278758
0.0169442
0.0108917
0.00731087
0.00508934
0.00366209
0.00271945
0.00208208
0.00164185
0.00133153
0.00110823
0.000944047
0.00082053
0.000725272
0.000649431
0.000586209
0.000532063
0.000487427
0.00044636
0.926075
0.40335
0.182431
0.0878176
0.0456881
0.0256914
0.0155373
0.00994562
0.00664524
0.00460284
0.00329545
0.00243622
0.00185881
0.00146292
0.00118621
0.000989013
0.000845582
0.000738964
0.000657806
0.000594092
0.000541774
0.000497739
0.000462077
0.000430478
0.926698
0.396337
0.17643
0.0837691
0.0431271
0.0240591
0.0144512
0.009199
0.00611083
0.0042071
0.00299444
0.00220232
0.00167386
0.00131459
0.0010659
0.00089062
0.000764705
0.000672384
0.00060314
0.00054961
0.000506341
0.000470518
0.000441942
0.000417594
0.948902
0.397207
0.174062
0.0814294
0.0414208
0.0228883
0.0136308
0.00861732
0.00568493
0.00388649
0.0027478
0.00200929
0.00152066
0.00119158
0.00096625
0.000809383
0.000698265
0.00061805
0.000558875
0.000513891
0.00047812
0.00044896
0.000425991
0.000407211
0.993259
0.407488
0.174848
0.080634
0.0404671
0.0221146
0.0130363
0.00817487
0.00535032
0.00362893
0.00254671
0.00185045
0.00139395
0.00108967
0.000883751
0.000742333
0.000643707
0.000573735
0.000523059
0.000485236
0.000455672
0.000431923
0.000413416
0.000398926
1.06335
0.426981
0.17962
0.081129
0.0401991
0.0216931
0.012639
0.00785254
0.00509395
0.00342516
0.00238431
0.00172053
0.00128956
0.00100544
0.000815567
0.000687067
0.000598958
0.000537629
0.000494107
0.000462273
0.000437847
0.000418511
0.000403585
0.000392406
1.16499
0.45712
0.188123
0.0829952
0.0404938
0.0215919
0.0124188
0.00763624
0.00490596
0.00326804
0.00225523
0.00161535
0.00120415
0.000936149
0.000759406
0.000641634
0.000562335
0.000508265
0.000470734
0.000443888
0.00042372
0.000408015
0.000395997
0.000387375
1.30665
0.49978
0.20083
0.0865328
0.0412861
0.0217468
0.0123629
0.00751552
0.00477899
0.0031522
0.00215536
0.00153166
0.00113506
0.000879606
0.000713415
0.000604449
0.00053247
0.000484452
0.000451902
0.000429186
0.000412542
0.000399855
0.000390249
0.000383602
1.49983
0.557094
0.217895
0.0914798
0.0426759
0.0221325
0.0124412
0.00748253
0.00470756
0.00307362
0.00208162
0.00146698
0.00108025
0.00083408
0.000676107
0.000574222
0.000508241
0.000465219
0.000436772
0.000417439
0.00040368
0.000393503
0.000385968
0.000380854
1.75645
0.630704
0.2392
0.0975031
0.0445325
0.0227271
0.0126363
0.00752222
0.00468761
0.00302947
0.00203182
0.00141953
0.00103822
0.000798262
0.000646325
0.000549925
0.000488735
0.000449765
0.00042466
0.000408069
0.000396632
0.000388492
0.000382754
0.000378845
2.07313
0.71888
0.261496
0.104024
0.0467179
0.0235304
0.0129352
0.00762545
0.00471174
0.00301775
0.00200451
0.00138814
0.00100797
0.000771263
0.000623262
0.000530815
0.000473274
0.000437492
0.000415067
0.000400701
0.000391144
0.000384609
0.000380244
0.000377348
2.39232
0.792967
0.280795
0.110348
0.0490718
0.0244921
0.0133421
0.0077886
0.00477554
0.00303441
0.00199891
0.00137219
0.000988952
0.000752574
0.000606438
0.000516438
0.000461431
0.000428001
0.000407628
0.000395013
0.000386969
0.000381724
0.000378392
0.000376336
2.91447
6.89706
10.0745
9.53539
7.86732
26.4992
1.02862
4.47434
5.7202
5.53753
5.35176
6.5085
1.48157
3.69183
4.28449
4.15583
3.94495
3.74934
2.0536
3.31471
3.62493
3.4767
3.20905
2.78743
2.57312
3.07864
3.24002
3.07856
2.78788
2.34401
3.03382
2.91399
2.98956
2.82862
2.53941
2.1147
3.43666
2.79946
2.81868
2.66947
2.3958
1.99601
3.77186
2.71955
2.70058
2.57151
2.32177
1.94572
4.03648
2.66452
2.62074
2.51795
2.29803
1.9449
4.23055
2.62775
2.57046
2.49848
2.3116
1.98283
4.35605
2.60519
2.54383
2.50547
2.35878
2.05893
4.41577
2.59494
2.53667
2.5343
2.4362
2.17086
4.41811
2.59829
2.5439
2.58362
2.54103
2.3195
4.38295
2.61587
2.5638
2.64803
2.67154
2.50691
4.30024
2.63943
2.59312
2.72332
2.82567
2.73573
4.16113
2.65916
2.62555
2.80467
3.00125
3.00747
3.9571
2.66347
2.65413
2.88713
3.19411
3.32797
3.6791
2.64566
2.67144
2.9669
3.39986
3.70649
3.31853
2.59487
2.67408
3.04343
3.61453
4.1597
2.86927
2.49767
2.6694
3.12625
3.83895
4.72828
2.33182
2.3664
2.69257
3.24658
4.0937
5.54692
1.72169
2.25826
2.84242
3.49774
4.48716
7.10834
1.1884
2.44823
3.47126
4.25441
5.37085
11.4108
3.26716
4.90543
6.99916
7.7939
8.56636
38.2903
2.73548
0.840262
0.295172
0.115916
0.051461
0.0255824
0.0138558
0.00802712
0.00488032
0.00307768
0.00201257
0.00137144
0.000980991
0.000741961
0.00059559
0.00050652
0.000452929
0.00042102
0.000402077
0.000390742
0.000383848
0.00037962
0.000377116
0.000375708
2.21797
0.814083
0.30057
0.120413
0.0538336
0.0267933
0.0144766
0.00834662
0.005041
0.0031533
0.00204533
0.00138392
0.000983656
0.000739397
0.000590612
0.000500899
0.000447572
0.000416341
0.000398214
0.000387708
0.000381616
0.000378136
0.00037626
0.000375331
1.8532
0.763539
0.300077
0.124035
0.0562541
0.0281458
0.0152125
0.00875009
0.0052593
0.00326942
0.00210516
0.0014128
0.000996274
0.000744152
0.00059138
0.000499552
0.0004453
0.000413855
0.000395917
0.000385777
0.000380135
0.000377166
0.000375743
0.00037513
1.63045
0.718987
0.298333
0.127495
0.0588833
0.0296855
0.0160749
0.00923832
0.00553539
0.00342593
0.00219376
0.00146258
0.00102371
0.000758538
0.000598337
0.000502446
0.000446065
0.000413586
0.00039518
0.000384923
0.000379397
0.000376666
0.000375463
0.000375045
1.48878
0.688736
0.298872
0.131693
0.0619295
0.0314664
0.0170871
0.00982534
0.00587639
0.00362553
0.00231143
0.00153233
0.00106518
0.000783091
0.000612671
0.000510571
0.000450435
0.000415755
0.000396145
0.000385263
0.000379469
0.000376636
0.00037542
0.000375028
1.40362
0.674836
0.30345
0.137369
0.0655905
0.0335739
0.0182914
0.0105325
0.00629477
0.00387608
0.00246323
0.00162529
0.00112262
0.000818785
0.000634835
0.000524207
0.000458682
0.000420649
0.000399002
0.000386901
0.000380334
0.000377062
0.000375606
0.000375081
1.36137
0.678145
0.313637
0.144988
0.0701162
0.0361231
0.0197419
0.0113872
0.00680637
0.00418739
0.00265548
0.00174563
0.00119889
0.000867604
0.000666245
0.000544385
0.00047155
0.000428786
0.000404121
0.000390101
0.000382256
0.000378108
0.000376122
0.000375258
1.35478
0.698631
0.330216
0.155208
0.0758134
0.0392533
0.0215058
0.0124242
0.00743102
0.00457168
0.0028961
0.00189867
0.00129764
0.000932121
0.000708745
0.000572448
0.00049002
0.000440875
0.000411999
0.0003952
0.00038547
0.00037993
0.00037707
0.000375695
1.38062
0.7362
0.354403
0.16878
0.0830478
0.0431362
0.0236671
0.0136867
0.00819352
0.00504422
0.00319501
0.00209111
0.00142353
0.00101563
0.000764725
0.000610166
0.000515416
0.000457904
0.000423362
0.000402718
0.000390313
0.000382874
0.00037869
0.000376488
1.43846
0.79241
0.387862
0.186658
0.0922824
0.0479907
0.0263327
0.0152299
0.00912498
0.00562402
0.00356452
0.00233129
0.00158237
0.00112231
0.000837243
0.000659826
0.00054948
0.000481203
0.000439218
0.000413404
0.00039733
0.000387255
0.000381263
0.000377809
1.52911
0.870128
0.432977
0.210121
0.10413
0.0541034
0.0296412
0.0171241
0.0102646
0.00633476
0.00401993
0.00262954
0.00178144
0.00125738
0.000930156
0.000724328
0.000594431
0.000512489
0.000460887
0.000428265
0.000407281
0.000393609
0.00038502
0.000379806
1.65528
0.973342
0.493311
0.240945
0.119422
0.0618586
0.0337754
0.0194605
0.0116623
0.00720613
0.00458015
0.00299864
0.00202969
0.00142737
0.00104829
0.000807326
0.000653088
0.000553968
0.000490097
0.000448624
0.000421121
0.000402549
0.000390319
0.000382652
1.82146
1.10753
0.573643
0.281577
0.139306
0.0717806
0.0389808
0.022359
0.013382
0.00827546
0.00526872
0.00345436
0.00233822
0.00164032
0.00119767
0.000913432
0.000729045
0.000608474
0.000529082
0.000476202
0.000440101
0.000414903
0.000397654
0.000386573
2.03396
1.28047
0.679579
0.335329
0.165374
0.0845933
0.0455914
0.0259793
0.0155071
0.0095902
0.00611497
0.00401615
0.00272066
0.00190621
0.00138583
0.00104846
0.000826872
0.000679643
0.000580735
0.000513249
0.000465879
0.000431791
0.000407769
0.000391907
2.30099
1.5018
0.818651
0.406741
0.19984
0.101303
0.0540654
0.030537
0.018147
0.0112112
0.00715572
0.00470805
0.00319373
0.00223728
0.00162204
0.00121964
0.000952301
0.000772064
0.00064873
0.000562658
0.000500654
0.000454822
0.000421747
0.000399146
2.63293
1.78342
1.00048
0.501995
0.245781
0.123308
0.0650358
0.0363272
0.0214477
0.0132171
0.00843747
0.00555987
0.00377794
0.00264842
0.00191763
0.00143582
0.0011124
0.000891442
0.000737688
0.000628157
0.000547376
0.000486184
0.000440935
0.00040883
3.03894
2.14017
1.23658
0.629539
0.307426
0.152547
0.0793734
0.0437618
0.0256065
0.0157114
0.0100196
0.00660876
0.00449836
0.00315769
0.00228622
0.00170768
0.00131573
0.00104477
0.000853356
0.000714455
0.000609809
0.000528671
0.000467083
0.000421625
3.52686
2.59129
1.54089
0.799252
0.390373
0.191668
0.0982648
0.0534164
0.03089
0.0188305
0.0119786
0.00790149
0.00538589
0.00378692
0.00274415
0.00204798
0.0015726
0.00124051
0.00100278
0.000827405
0.000692694
0.000585864
0.000502504
0.000438429
4.11254
3.15602
1.92804
1.02236
0.50174
0.24424
0.12336
0.0660294
0.0376563
0.0227565
0.0144145
0.00949764
0.00647894
0.0045627
0.00331098
0.00247187
0.0018952
0.00148878
0.00119447
0.000974178
0.00080194
0.000662331
0.000550233
0.000460435
4.83538
3.85166
2.41098
1.31013
0.649986
0.314858
0.156854
0.0826149
0.0463926
0.0277341
0.0174592
0.0114742
0.00782593
0.00551777
0.00401035
0.0029974
0.00229797
0.00180154
0.00143858
0.00116344
0.000944835
0.000763851
0.000614218
0.000489181
5.78732
4.69664
2.99814
1.67128
0.843941
0.409075
0.201573
0.104518
0.0577673
0.0340946
0.0212888
0.0139318
0.00948896
0.0066932
0.00487124
0.00364627
0.00279802
0.0021929
0.00174709
0.00140558
0.0011303
0.000897699
0.000699534
0.000526517
7.21223
5.73335
3.69201
2.10871
1.08996
0.532913
0.260968
0.133477
0.0726533
0.0422797
0.0261378
0.0170036
0.011549
0.00814159
0.00593002
0.00444513
0.00341596
0.00267955
0.0021341
0.00171279
0.00136899
0.00107294
0.0008132
0.000575075
10.173
7.03611
4.49823
2.61874
1.38969
0.691446
0.338952
0.171652
0.09215
0.0528689
0.0323186
0.0208671
0.0141131
0.00993174
0.00723355
0.00542768
0.00417728
0.00328173
0.00261642
0.00209962
0.0016739
0.00130107
0.000964083
0.000638115
18.3827
9.44365
5.52392
3.20501
1.74085
0.88668
0.439266
0.221591
0.117644
0.0666149
0.0402446
0.0257588
0.0173245
0.0121554
0.00884402
0.00663829
0.00511516
0.00402536
0.00321516
0.00258406
0.00206105
0.00159661
0.00116377
0.000719515
4.43779
3.97985
3.89072
3.03611
2.23309
2.15369
1.39591
2.23557
2.28735
1.9572
1.6184
2.12839
2.02023
2.23063
2.16114
1.86396
1.58574
1.98028
2.58224
2.43465
2.22348
1.9061
1.64336
1.94251
3.04428
2.59289
2.30717
1.99304
1.73735
1.94514
3.43431
2.6911
2.38379
2.09797
1.86325
1.99129
3.77127
2.74853
2.45767
2.21953
2.02342
2.0975
4.06448
2.78558
2.53644
2.35935
2.2173
2.26643
4.31863
2.81635
2.62473
2.51741
2.44192
2.49527
4.53702
2.85133
2.72404
2.69135
2.69215
2.78132
4.7234
2.89798
2.83335
2.87673
2.96052
3.11885
4.88286
2.96231
2.94984
3.06773
3.24071
3.48956
4.96945
3.03275
3.06997
3.25689
3.51817
3.86778
4.97362
3.10384
3.19035
3.43668
3.777
4.22379
4.89723
3.17309
3.30827
3.60055
4.00186
4.52844
4.73045
3.23951
3.42262
3.74424
4.18048
4.75398
4.4688
3.30373
3.53475
3.86712
4.30727
4.8724
4.11004
3.36886
3.64878
3.97557
4.38878
4.89238
3.65439
3.44224
3.77387
4.08531
4.44504
4.83577
3.10849
3.53954
3.92962
4.22375
4.51777
4.76477
2.49237
3.67735
4.15907
4.44418
4.68101
4.76596
1.8112
3.92938
4.57186
4.84807
5.08061
5.17954
1.20409
4.57355
5.6015
5.78036
6.00821
6.8781
3.41816
7.19712
9.51666
9.00079
7.58041
6.1912
14.5517
10.5507
6.40268
3.79569
2.1251
1.11582
0.563914
0.285905
0.150846
0.084484
0.0504593
0.0319942
0.0213754
0.0149366
0.0108461
0.00813791
0.00627567
0.00494671
0.00395989
0.00319101
0.00255222
0.00197941
0.00142912
0.000824878
10.2422
9.9896
7.09218
4.33699
2.51776
1.37124
0.71304
0.366726
0.193649
0.107675
0.0636688
0.0399917
0.0265238
0.0184432
0.0133559
0.0100121
0.00772563
0.00610081
0.0048978
0.00396194
0.0031846
0.00248391
0.00179126
0.000967406
7.06423
8.88435
7.21676
4.7325
2.88326
1.64008
0.884157
0.465426
0.247954
0.137605
0.0807689
0.0502986
0.0331112
0.022899
0.0165295
0.0123778
0.00956005
0.00757117
0.00610775
0.00497569
0.00403981
0.00319564
0.00233904
0.00124225
4.94376
7.81774
7.04009
4.99738
3.20055
1.90928
1.07289
0.582402
0.31554
0.175878
0.102863
0.063615
0.0415793
0.0285909
0.0205631
0.015379
0.0118941
0.00946114
0.00769628
0.00635908
0.00528684
0.00436248
0.00353833
0.00299316
3.75077
6.89543
6.66146
5.17601
3.46614
2.16746
1.27325
0.716778
0.397797
0.224188
0.131257
0.0808119
0.0524827
0.0358714
0.0256846
0.0191666
0.014833
0.0118537
0.00974817
0.00823095
0.00712889
0.0063445
0.00587764
0.00586017
3.16398
6.11714
6.13938
5.17003
3.65866
2.40159
1.47736
0.865937
0.495307
0.284117
0.167413
0.102941
0.0665103
0.045175
0.0321628
0.0239044
0.0184739
0.0148026
0.0122831
0.0105657
0.00944848
0.00882194
0.00865174
0.00888292
2.95391
5.45247
5.6684
5.07899
3.77971
2.6016
1.67718
1.02599
0.607663
0.356917
0.212855
0.131237
0.0845192
0.0570593
0.0403513
0.0298152
0.0229586
0.018399
0.015355
0.0133768
0.0121981
0.0116575
0.0116527
0.0119911
2.93597
4.95552
5.26995
4.90908
3.86587
2.76838
1.8653
1.19163
0.733138
0.443192
0.269013
0.167079
0.107561
0.0722487
0.0507276
0.0372089
0.0284861
0.0227654
0.0190262
0.0166724
0.0153392
0.0147901
0.0148482
0.0152405
3.0378
4.64666
4.9577
4.68354
3.86337
2.89097
2.03382
1.3565
0.868549
0.542566
0.336966
0.211901
0.136886
0.0916735
0.0639369
0.0465176
0.0353376
0.0280744
0.0233869
0.0204789
0.0188546
0.0181866
0.0182292
0.0186318
3.25528
4.53886
4.75114
4.49344
3.82279
2.97221
2.17788
1.51426
1.00987
0.653666
0.417245
0.267043
0.173902
0.116496
0.0808365
0.0583378
0.0439113
0.034578
0.0285827
0.024867
0.0227661
0.0218438
0.0217865
0.0221574
3.57805
4.60491
4.6946
4.3861
3.77371
3.02107
2.29478
1.65938
1.15165
0.773952
0.509603
0.333567
0.22009
0.148105
0.102535
0.0734806
0.054768
0.0426455
0.0348429
0.0299674
0.0271393
0.0257866
0.0255124
0.0258151
3.97781
4.79443
4.77102
4.38675
3.74119
3.0515
2.38739
1.78854
1.28849
0.899358
0.612547
0.411857
0.276773
0.188038
0.130405
0.0930244
0.0686932
0.0528189
0.0425236
0.0360018
0.0321027
0.030079
0.029432
0.0296077
4.41565
5.11274
5.01191
4.47602
3.75938
3.08637
2.4653
1.90223
1.41759
1.02534
0.723408
0.501342
0.344811
0.237805
0.166037
0.118353
0.0867706
0.0658906
0.0521757
0.0433345
0.0378844
0.0348529
0.0336083
0.0335636
4.85247
5.49908
5.40449
4.7388
3.8752
3.15722
2.5452
2.00679
1.53897
1.14922
0.838763
0.600343
0.424261
0.298597
0.211099
0.151143
0.110447
0.0830007
0.064642
0.0525587
0.0448785
0.0403582
0.0381968
0.0377434
5.24507
5.88517
5.85615
5.18702
4.15837
3.31467
2.6569
2.11612
1.65731
1.27174
0.956637
0.706648
0.514286
0.37099
0.267077
0.193247
0.141548
0.105735
0.0811892
0.0646231
0.0537542
0.0470371
0.0434638
0.0423252
5.53482
6.20293
6.28862
5.70636
4.60318
3.60825
2.84484
2.25807
1.78611
1.39749
1.07821
0.819387
0.613938
0.455003
0.335073
0.246498
0.182202
0.136178
0.103652
0.0810177
0.0656448
0.0556876
0.0499352
0.0476509
5.64693
6.37804
6.6034
6.16013
5.13045
4.04485
3.15369
2.47465
1.95351
1.54192
1.2102
0.940954
0.72365
0.550847
0.415948
0.312578
0.234697
0.176881
0.134542
0.103998
0.0824222
0.0677431
0.0586103
0.0543789
5.59891
6.36655
6.69324
6.4239
5.59696
4.546
3.58014
2.79923
2.19714
1.73366
1.37073
1.08131
0.848359
0.660985
0.511443
0.393455
0.30154
0.230832
0.177099
0.136793
0.107062
0.0857377
0.0714172
0.0638174
5.36139
6.10626
6.48963
6.41138
5.84303
4.96152
4.03683
3.21077
2.5347
2.00278
1.58776
1.26148
1.00209
0.794238
0.627237
0.493328
0.386521
0.301941
0.23551
0.183807
0.144019
0.113911
0.0920293
0.0785782
4.96782
5.57848
5.9872
6.08307
5.7695
5.13697
4.37431
3.60746
2.91998
2.34351
1.87661
1.50358
1.20609
0.968017
0.776628
0.622272
0.497646
0.397121
0.316249
0.251441
0.199802
0.158949
0.127135
0.103903
4.48728
4.82977
5.23197
5.4403
5.36618
5.00863
4.45777
3.84706
3.23821
2.68245
2.20162
1.79875
1.46706
1.19619
0.975536
0.79571
0.64894
0.528973
0.430836
0.350524
0.284925
0.231277
0.188236
0.150285
3.9878
3.97227
4.30411
4.57509
4.67361
4.56455
4.26249
3.82964
3.36387
2.90187
2.46833
2.08091
1.74495
1.45912
1.2187
1.01768
0.850095
0.710474
0.594162
0.497101
0.416362
0.34819
0.29424
0.238382
3.47647
3.13567
3.3489
3.62974
3.82446
3.87755
3.78482
3.56381
3.25423
2.91218
2.57332
2.2512
1.9544
1.68906
1.45645
1.25515
1.08234
0.934703
0.809076
0.702212
0.612102
0.534072
0.473555
0.406005
2.95618
2.41449
2.51387
2.75303
2.97637
3.11034
3.13711
3.06888
2.91648
2.71215
2.48077
2.24416
2.01696
1.80527
1.61305
1.44236
1.29271
1.16217
1.04979
0.954395
0.874603
0.806805
0.754839
0.700929
)
;

boundaryField
{
    rotor
    {
        type            epsilonWallFunction;
        value           nonuniform List<scalar> 
144
(
1.52763
1.83388
2.86547
3.82239
4.69853
5.54702
1.52763
0.736734
0.209466
0.237352
0.259129
0.274029
1.19238
1.23716
1.28504
1.31732
1.33367
1.33335
1.31593
1.28815
1.25055
1.20725
1.18996
0.280913
0.275902
0.265563
0.249611
0.227877
0.853578
2.03403
2.03403
2.1675
2.256
2.34548
2.07775
2.06996
2.74008
7.39863
10.733
11.684
11.021
42.3094
2.74008
0.962601
1.30401
1.74033
2.09823
2.38046
2.59285
2.74213
2.83461
2.8755
2.87107
2.82191
2.73331
2.61289
2.46566
2.29256
2.09427
1.86941
1.60989
1.29095
0.273591
0.251428
0.956806
2.48439
2.48439
1.93042
2.16564
2.26875
3.28876
6.23249
2.91447
6.89706
10.0745
9.53539
7.86732
26.4992
2.91447
1.02862
1.48157
2.0536
2.57312
3.03382
3.43666
3.77186
4.03648
4.23055
4.35605
4.41577
4.41811
4.38295
4.30024
4.16113
3.9571
3.6791
3.31853
2.86927
2.33182
1.72169
1.1884
3.26716
3.26716
4.90543
6.99916
7.7939
8.56636
38.2903
4.43779
3.97985
3.89072
3.03611
2.23309
2.15369
4.43779
1.39591
2.02023
2.58224
3.04428
3.43431
3.77127
4.06448
4.31863
4.53702
4.7234
4.88286
4.96945
4.97362
4.89723
4.73045
4.4688
4.11004
3.65439
3.10849
2.49237
1.8112
1.20409
3.41816
3.41816
7.19712
9.51666
9.00079
7.58041
6.1912
)
;
    }
    freestream
    {
        type            inletOutlet;
        inletValue      uniform 0.000375;
        value           nonuniform List<scalar> 
96
(
1.10759
1.33551
1.34578
1.19259
1.06525
1.04823
1.14564
1.36315
1.48879
1.48768
1.25673
0.751825
0.299486
0.136113
0.0774252
0.0525595
0.0399494
0.0308733
0.0245249
0.020448
0.0169332
0.0138484
0.0112487
0.00897451
0.00698286
0.00525262
0.00375083
0.00246656
0.00140421
0.000375
0.000375
0.000375
0.000375
0.000375
0.000375
0.000375
0.000375
0.000375
0.000375
0.000375
0.000375
0.000375
0.000375
0.000375
0.000375
0.000375
0.000375
0.000375
0.000375
0.000375
0.000375
0.000375
0.000375
0.000375
0.000375
0.000375
0.000375
0.000375
0.000375
0.000375
0.000375
0.000375
0.000375
0.000375
0.000375
0.000375
0.000375
0.000375
0.000375
0.000375
0.000375
0.000375
0.000375
0.000375
0.000375
0.00299316
0.00586017
0.00888292
0.0119911
0.0152405
0.0186318
0.0221574
0.0258151
0.0296077
0.0335636
0.0377434
0.0423252
0.0476509
0.0543789
0.0638174
0.0785782
0.103903
0.150285
0.238382
0.406005
0.700929
)
;
    }
    frontAndBack
    {
        type            empty;
    }
}


// ************************************************************************* //
