/*--------------------------------*- C++ -*----------------------------------*\
  =========                 |
  \\      /  F ield         | OpenFOAM: The Open Source CFD Toolbox
   \\    /   O peration     | Website:  https://openfoam.org
    \\  /    A nd           | Version:  11
     \\/     M anipulation  |
\*---------------------------------------------------------------------------*/
FoamFile
{
    format      ascii;
    class       surfaceScalarField;
    location    "0.46";
    object      meshPhi;
}
// * * * * * * * * * * * * * * * * * * * * * * * * * * * * * * * * * * * * * //

dimensions      [0 3 -1 0 0 0 0];

internalField   nonuniform List<scalar> 
5640
(
1.36974e-16
9.81747e-07
2.4207e-16
1.37445e-06
3.77006e-16
1.76715e-06
-1.33925e-15
2.15984e-06
-3.68136e-15
2.55254e-06
2.94524e-06
5.95121e-15
1.85593e-18
9.81747e-07
-3.88791e-16
1.37445e-06
-2.60415e-15
1.76715e-06
1.9437e-15
2.15984e-06
8.06624e-15
2.55254e-06
2.94524e-06
-9.02989e-15
-1.16455e-16
9.81747e-07
1.86427e-16
1.37445e-06
-1.5623e-15
1.76715e-06
-4.21248e-15
2.15984e-06
-7.49834e-15
2.55254e-06
2.94524e-06
7.72295e-16
8.69671e-17
9.81747e-07
-1.01905e-16
1.37445e-06
2.69324e-15
1.76715e-06
7.4429e-15
2.15984e-06
3.25984e-15
2.55254e-06
2.94524e-06
-2.79804e-15
-4.83768e-17
9.81747e-07
3.95375e-17
1.37445e-06
1.9437e-16
1.76715e-06
-1.80612e-15
2.15984e-06
-4.20852e-15
2.55254e-06
2.94524e-06
5.01351e-15
-1.80095e-16
9.81747e-07
4.308e-18
1.37445e-06
-1.84778e-15
1.76715e-06
-3.88614e-15
2.15984e-06
3.15718e-15
2.55254e-06
2.94524e-06
4.98192e-16
2.53987e-16
9.81747e-07
2.55443e-16
1.37445e-06
2.06597e-15
1.76715e-06
4.50415e-15
2.15984e-06
-2.30992e-15
2.55254e-06
2.94524e-06
5.40865e-16
2.16617e-17
9.81747e-07
-3.21635e-16
1.37445e-06
-1.14886e-15
1.76715e-06
-5.28552e-15
2.15984e-06
-3.7666e-16
2.55254e-06
2.94524e-06
-5.63965e-15
-1.4337e-16
9.81747e-07
1.66421e-16
1.37445e-06
4.19115e-15
1.76715e-06
6.34954e-15
2.15984e-06
-8.05549e-16
2.55254e-06
2.94524e-06
8.39258e-16
-6.87778e-17
9.81747e-07
-9.20756e-17
1.37445e-06
-2.76937e-15
1.76715e-06
-3.68834e-16
2.15984e-06
-1.45077e-15
2.55254e-06
2.94524e-06
-1.76559e-16
1.66337e-16
9.81747e-07
-8.87006e-17
1.37445e-06
5.6977e-16
1.76715e-06
-2.1035e-15
2.15984e-06
9.65994e-15
2.55254e-06
2.94524e-06
5.29027e-15
-1.77788e-16
9.81747e-07
-2.04873e-17
1.37445e-06
-3.45387e-16
1.76715e-06
-4.17249e-15
2.15984e-06
-2.62241e-15
2.55254e-06
2.94524e-06
5.36953e-15
1.77782e-16
9.81747e-07
2.05411e-17
1.37445e-06
3.45497e-16
1.76715e-06
4.17268e-15
2.15984e-06
2.62237e-15
2.55254e-06
2.94524e-06
-5.36947e-15
-1.66331e-16
9.81747e-07
8.87001e-17
1.37445e-06
-5.69639e-16
1.76715e-06
2.10358e-15
2.15984e-06
-9.65994e-15
2.55254e-06
2.94524e-06
-5.29018e-15
6.88265e-17
9.81747e-07
9.20468e-17
1.37445e-06
2.76941e-15
1.76715e-06
3.68853e-16
2.15984e-06
1.45083e-15
2.55254e-06
2.94524e-06
1.76709e-16
1.43432e-16
9.81747e-07
-1.66371e-16
1.37445e-06
-4.19111e-15
1.76715e-06
-6.34932e-15
2.15984e-06
8.05618e-16
2.55254e-06
2.94524e-06
-8.39098e-16
-2.16379e-17
9.81747e-07
3.21675e-16
1.37445e-06
1.1489e-15
1.76715e-06
5.28578e-15
2.15984e-06
3.76751e-16
2.55254e-06
2.94524e-06
5.63989e-15
-2.53953e-16
9.81747e-07
-2.5544e-16
1.37445e-06
-2.06599e-15
1.76715e-06
-4.50402e-15
2.15984e-06
2.30997e-15
2.55254e-06
2.94524e-06
-5.40844e-16
1.80123e-16
9.81747e-07
-4.30008e-18
1.37445e-06
1.84778e-15
1.76715e-06
3.88625e-15
2.15984e-06
-3.15698e-15
2.55254e-06
2.94524e-06
-4.98254e-16
4.83795e-17
9.81747e-07
-3.95335e-17
1.37445e-06
-1.94392e-16
1.76715e-06
1.80622e-15
2.15984e-06
4.20859e-15
2.55254e-06
2.94524e-06
-5.01341e-15
-8.69446e-17
9.81747e-07
1.01905e-16
1.37445e-06
-2.69317e-15
1.76715e-06
-7.44284e-15
2.15984e-06
-3.25974e-15
2.55254e-06
2.94524e-06
2.79808e-15
1.16461e-16
9.81747e-07
-1.86351e-16
1.37445e-06
1.56236e-15
1.76715e-06
4.21262e-15
2.15984e-06
7.49849e-15
2.55254e-06
2.94524e-06
-7.72225e-16
-1.83524e-18
9.81747e-07
3.88848e-16
1.37445e-06
2.6041e-15
1.76715e-06
-1.9436e-15
2.15984e-06
-8.06615e-15
2.55254e-06
2.94524e-06
9.02984e-15
-1.36919e-16
-2.42047e-16
-3.76972e-16
1.33936e-15
3.68172e-15
-5.95122e-15
-1.13361e-14
4.53785e-06
-4.53785e-06
-4.81194e-16
5.23599e-06
-5.23599e-06
-5.35679e-15
5.93412e-06
-5.93412e-06
-1.13037e-14
6.63225e-06
-6.63225e-06
4.86969e-15
7.33038e-06
-7.33038e-06
-1.10951e-15
8.02851e-06
-8.02851e-06
-8.15781e-15
8.72664e-06
-8.72664e-06
1.30449e-14
9.42478e-06
-9.42478e-06
5.95043e-15
1.01229e-05
-1.01229e-05
-1.99553e-15
1.0821e-05
-1.0821e-05
2.43875e-14
1.15192e-05
-1.15192e-05
1.61904e-14
1.22173e-05
-1.22173e-05
-3.27857e-14
1.29154e-05
-1.29154e-05
-3.05322e-15
1.36136e-05
-1.36136e-05
-1.4441e-14
1.43117e-05
-1.43117e-05
-2.69012e-14
1.50098e-05
-1.50098e-05
7.74111e-15
1.5708e-05
-1.5708e-05
-4.43805e-15
1.64061e-05
-1.64061e-05
-1.79972e-14
1.71042e-05
-1.71042e-05
2.18238e-14
1.78024e-05
-1.78024e-05
8.21488e-15
1.85005e-05
-1.85005e-05
-6.07964e-15
1.91986e-05
-1.91986e-05
3.89227e-14
1.98967e-05
-1.98967e-05
2.05949e-05
-2.05949e-05
9.39877e-15
4.53785e-06
5.20078e-16
5.23599e-06
7.52868e-15
5.93412e-06
-4.41168e-15
6.63225e-06
3.78336e-15
7.33038e-06
1.33852e-14
8.02851e-06
-2.11004e-15
8.72664e-06
8.52895e-15
9.42478e-06
-1.00269e-14
1.01229e-05
1.86632e-15
1.0821e-05
-2.02021e-14
1.15192e-05
-7.01115e-15
1.22173e-05
7.51195e-15
1.29154e-05
2.3607e-14
1.36136e-05
-2.04065e-15
1.43117e-05
1.48346e-14
1.50098e-05
-1.38776e-14
1.5708e-05
2.39158e-15
1.64061e-05
2.04137e-14
1.71042e-05
-7.0174e-15
1.78024e-05
1.20676e-14
1.85005e-05
-2.59415e-14
1.91986e-05
1.84799e-15
1.98967e-05
2.05949e-05
-8.67599e-15
4.53785e-06
1.22926e-14
5.23599e-06
1.88296e-15
5.93412e-06
8.90183e-15
6.63225e-06
-5.10843e-15
7.33038e-06
-2.19895e-14
8.02851e-06
1.22646e-14
8.72664e-06
-5.37446e-15
9.42478e-06
4.45556e-15
1.01229e-05
-1.43047e-14
1.0821e-05
-7.32439e-15
1.15192e-05
7.04152e-15
1.22173e-05
2.3995e-14
1.29154e-05
-7.55493e-15
1.36136e-05
9.80251e-15
1.43117e-05
-1.6234e-14
1.50098e-05
4.02942e-14
1.5708e-05
1.44481e-14
1.64061e-05
-1.37029e-14
1.71042e-05
-7.89528e-15
1.78024e-05
-3.92534e-14
1.85005e-05
4.2751e-14
1.91986e-05
-8.85414e-15
1.98967e-05
2.05949e-05
5.98593e-15
4.53785e-06
2.18931e-16
5.23599e-06
-6.43552e-15
5.93412e-06
6.06401e-15
6.63225e-06
-2.09196e-15
7.33038e-06
1.61771e-14
8.02851e-06
-1.88316e-14
8.72664e-06
-2.35019e-15
9.42478e-06
9.17058e-15
1.01229e-05
-4.71116e-15
1.0821e-05
2.16294e-14
1.15192e-05
-2.96444e-14
1.22173e-05
-9.28927e-15
1.29154e-05
-1.89051e-14
1.36136e-05
4.46451e-15
1.43117e-05
3.01587e-14
1.50098e-05
-2.62146e-14
1.5708e-05
4.31506e-16
1.64061e-05
-2.11731e-14
1.71042e-05
1.87119e-14
1.78024e-05
-3.92227e-15
1.85005e-05
-2.91546e-14
1.91986e-05
1.52301e-14
1.98967e-05
2.05949e-05
6.71518e-15
4.53785e-06
-7.30608e-15
5.23599e-06
1.11009e-14
5.93412e-06
-4.24135e-15
6.63225e-06
1.51027e-14
7.33038e-06
-5.20917e-15
8.02851e-06
1.70143e-14
8.72664e-06
-3.94047e-15
9.42478e-06
-2.93694e-16
1.01229e-05
6.61223e-15
1.0821e-05
1.37064e-14
1.15192e-05
1.01858e-14
1.22173e-05
1.82205e-14
1.29154e-05
1.43682e-14
1.36136e-05
2.33391e-14
1.43117e-05
-2.53423e-14
1.50098e-05
2.90753e-14
1.5708e-05
-7.82897e-15
1.64061e-05
3.54202e-14
1.71042e-05
-4.51227e-15
1.78024e-05
4.23743e-14
1.85005e-05
-5.83418e-16
1.91986e-05
-8.73379e-15
1.98967e-05
2.05949e-05
-4.63027e-15
4.53785e-06
5.79816e-15
5.23599e-06
-1.61505e-14
5.93412e-06
-5.97395e-15
6.63225e-06
-8.55467e-15
7.33038e-06
4.22407e-15
8.02851e-06
-8.18627e-15
8.72664e-06
6.9998e-15
9.42478e-06
-2.42293e-14
1.01229e-05
-7.76812e-15
1.0821e-05
-2.27647e-14
1.15192e-05
8.35052e-15
1.22173e-05
-7.40325e-15
1.29154e-05
2.82699e-14
1.36136e-05
-4.57094e-14
1.43117e-05
-8.22034e-15
1.50098e-05
-2.82248e-14
1.5708e-05
-2.33902e-15
1.64061e-05
-6.94459e-15
1.71042e-05
2.21512e-14
1.78024e-05
-3.41077e-14
1.85005e-05
-3.73536e-15
1.91986e-05
-3.23465e-14
1.98967e-05
2.05949e-05
-8.92496e-15
4.53785e-06
-2.28852e-15
5.23599e-06
-2.22371e-15
5.93412e-06
6.61638e-15
6.63225e-06
-3.38802e-15
7.33038e-06
-3.90685e-15
8.02851e-06
-6.41761e-15
8.72664e-06
-7.15885e-15
9.42478e-06
6.80958e-15
1.01229e-05
6.98403e-15
1.0821e-05
-9.06375e-15
1.15192e-05
6.75989e-15
1.22173e-05
-2.88885e-14
1.29154e-05
-1.22332e-14
1.36136e-05
4.80539e-15
1.43117e-05
2.50257e-14
1.50098e-05
3.86346e-15
1.5708e-05
3.60878e-15
1.64061e-05
-2.04832e-14
1.71042e-05
-2.17566e-14
1.78024e-05
3.46818e-15
1.85005e-05
2.90442e-14
1.91986e-05
-1.65898e-15
1.98967e-05
2.05949e-05
6.21598e-15
4.53785e-06
-3.879e-15
5.23599e-06
1.54223e-14
5.93412e-06
-7.06551e-15
6.63225e-06
-2.21063e-15
7.33038e-06
1.43004e-15
8.02851e-06
-5.49303e-15
8.72664e-06
1.32265e-14
9.42478e-06
6.04515e-15
1.01229e-05
-1.74493e-14
1.0821e-05
2.08884e-14
1.15192e-05
-2.14449e-14
1.22173e-05
1.91341e-14
1.29154e-05
-7.3175e-15
1.36136e-05
3.84875e-14
1.43117e-05
-1.2924e-14
1.50098e-05
-1.87915e-15
1.5708e-05
5.72017e-15
1.64061e-05
-7.58393e-15
1.71042e-05
2.76616e-14
1.78024e-05
1.41055e-14
1.85005e-05
-5.31399e-14
1.91986e-05
3.90856e-14
1.98967e-05
2.05949e-05
-1.4986e-15
4.53785e-06
1.08972e-14
5.23599e-06
-6.59913e-15
5.93412e-06
7.26559e-15
6.63225e-06
6.17488e-15
7.33038e-06
2.48817e-15
8.02851e-06
-9.6501e-16
8.72664e-06
-4.36464e-15
9.42478e-06
-8.90127e-15
1.01229e-05
1.38643e-14
1.0821e-05
1.06924e-14
1.15192e-05
6.25175e-15
1.22173e-05
-1.28072e-16
1.29154e-05
-3.43741e-15
1.36136e-05
-1.10444e-14
1.43117e-05
-1.77639e-14
1.50098e-05
1.76847e-14
1.5708e-05
9.95266e-15
1.64061e-05
3.33223e-15
1.71042e-05
-3.29661e-14
1.78024e-05
-1.04205e-14
1.85005e-05
3.00705e-14
1.91986e-05
-5.99927e-14
1.98967e-05
2.05949e-05
5.17023e-15
4.53785e-06
-7.45535e-15
5.23599e-06
-7.56705e-16
5.93412e-06
6.83935e-15
6.63225e-06
-9.97418e-15
7.33038e-06
-1.66414e-15
8.02851e-06
9.21981e-15
8.72664e-06
-1.34593e-14
9.42478e-06
2.32211e-14
1.01229e-05
1.04738e-14
1.0821e-05
-1.72711e-14
1.15192e-05
-3.02682e-15
1.22173e-05
1.13977e-14
1.29154e-05
-1.9816e-14
1.36136e-05
-4.67429e-15
1.43117e-05
5.03086e-14
1.50098e-05
-2.40478e-14
1.5708e-05
-6.65657e-15
1.64061e-05
1.42609e-14
1.71042e-05
1.65196e-15
1.78024e-05
-6.80784e-15
1.85005e-05
1.44414e-14
1.91986e-05
5.07585e-14
1.98967e-05
2.05949e-05
-6.19721e-15
4.53785e-06
2.84254e-17
5.23599e-06
1.15118e-14
5.93412e-06
-2.0626e-14
6.63225e-06
5.3669e-15
7.33038e-06
1.2219e-15
8.02851e-06
-4.65431e-17
8.72664e-06
1.23945e-14
9.42478e-06
-1.32258e-14
1.01229e-05
-1.88936e-14
1.0821e-05
-4.96403e-15
1.15192e-05
-7.15499e-15
1.22173e-05
-1.48853e-14
1.29154e-05
3.53416e-14
1.36136e-05
2.54242e-18
1.43117e-05
-4.31362e-14
1.50098e-05
1.35621e-14
1.5708e-05
-2.82535e-14
1.64061e-05
2.45426e-15
1.71042e-05
-1.0234e-14
1.78024e-05
2.38034e-14
1.85005e-05
1.38739e-14
1.91986e-05
-4.55603e-14
1.98967e-05
2.05949e-05
-1.90663e-15
4.53785e-06
1.13076e-15
5.23599e-06
-2.16616e-14
5.93412e-06
9.62432e-15
6.63225e-06
1.5137e-14
7.33038e-06
-1.40655e-14
8.02851e-06
8.09303e-15
8.72664e-06
-2.69593e-14
9.42478e-06
-1.96503e-15
1.01229e-05
2.97189e-14
1.0821e-05
-1.17453e-14
1.15192e-05
1.98682e-14
1.22173e-05
-2.74453e-14
1.29154e-05
-2.06135e-14
1.36136e-05
1.60427e-14
1.43117e-05
-4.61148e-15
1.50098e-05
4.69426e-15
1.5708e-05
4.79675e-14
1.64061e-05
-1.37376e-14
1.71042e-05
3.23721e-14
1.78024e-05
-3.51834e-14
1.85005e-05
-2.4903e-14
1.91986e-05
7.19171e-14
1.98967e-05
2.05949e-05
1.90653e-15
4.53785e-06
-1.13041e-15
5.23599e-06
2.16621e-14
5.93412e-06
-9.62363e-15
6.63225e-06
-1.51374e-14
7.33038e-06
1.40656e-14
8.02851e-06
-8.09278e-15
8.72664e-06
2.69589e-14
9.42478e-06
1.96688e-15
1.01229e-05
-2.97156e-14
1.0821e-05
1.17459e-14
1.15192e-05
-1.98666e-14
1.22173e-05
2.74467e-14
1.29154e-05
2.06162e-14
1.36136e-05
-1.604e-14
1.43117e-05
4.61532e-15
1.50098e-05
-4.6934e-15
1.5708e-05
-4.79675e-14
1.64061e-05
1.37427e-14
1.71042e-05
-3.23711e-14
1.78024e-05
3.51844e-14
1.85005e-05
2.49039e-14
1.91986e-05
-7.19104e-14
1.98967e-05
2.05949e-05
6.19738e-15
4.53785e-06
-2.86524e-17
5.23599e-06
-1.15116e-14
5.93412e-06
2.06261e-14
6.63225e-06
-5.3671e-15
7.33038e-06
-1.22124e-15
8.02851e-06
4.75243e-17
8.72664e-06
-1.23934e-14
9.42478e-06
1.32277e-14
1.01229e-05
1.88949e-14
1.0821e-05
4.96408e-15
1.15192e-05
7.15419e-15
1.22173e-05
1.48875e-14
1.29154e-05
-3.53374e-14
1.36136e-05
4.63381e-18
1.43117e-05
4.31371e-14
1.50098e-05
-1.35658e-14
1.5708e-05
2.82565e-14
1.64061e-05
-2.45272e-15
1.71042e-05
1.02422e-14
1.78024e-05
-2.38062e-14
1.85005e-05
-1.38732e-14
1.91986e-05
4.55657e-14
1.98967e-05
2.05949e-05
-5.17013e-15
4.53785e-06
7.45554e-15
5.23599e-06
7.5679e-16
5.93412e-06
-6.83938e-15
6.63225e-06
9.97435e-15
7.33038e-06
1.66505e-15
8.02851e-06
-9.2196e-15
8.72664e-06
1.34596e-14
9.42478e-06
-2.32211e-14
1.01229e-05
-1.04711e-14
1.0821e-05
1.72733e-14
1.15192e-05
3.02716e-15
1.22173e-05
-1.13972e-14
1.29154e-05
1.98166e-14
1.36136e-05
4.681e-15
1.43117e-05
-5.03079e-14
1.50098e-05
2.40465e-14
1.5708e-05
6.66021e-15
1.64061e-05
-1.426e-14
1.71042e-05
-1.64861e-15
1.78024e-05
6.81102e-15
1.85005e-05
-1.4441e-14
1.91986e-05
-5.07546e-14
1.98967e-05
2.05949e-05
1.49865e-15
4.53785e-06
-1.08969e-14
5.23599e-06
6.59964e-15
5.93412e-06
-7.26557e-15
6.63225e-06
-6.17482e-15
7.33038e-06
-2.48833e-15
8.02851e-06
9.64693e-16
8.72664e-06
4.36496e-15
9.42478e-06
8.90121e-15
1.01229e-05
-1.38638e-14
1.0821e-05
-1.069e-14
1.15192e-05
-6.2487e-15
1.22173e-05
1.27658e-16
1.29154e-05
3.43733e-15
1.36136e-05
1.10438e-14
1.43117e-05
1.77678e-14
1.50098e-05
-1.76809e-14
1.5708e-05
-9.95334e-15
1.64061e-05
-3.33004e-15
1.71042e-05
3.29686e-14
1.78024e-05
1.04237e-14
1.85005e-05
-3.00649e-14
1.91986e-05
5.99907e-14
1.98967e-05
2.05949e-05
-6.21562e-15
4.53785e-06
3.87926e-15
5.23599e-06
-1.54221e-14
5.93412e-06
7.06529e-15
6.63225e-06
2.21071e-15
7.33038e-06
-1.42915e-15
8.02851e-06
5.49393e-15
8.72664e-06
-1.32254e-14
9.42478e-06
-6.0464e-15
1.01229e-05
1.7451e-14
1.0821e-05
-2.08868e-14
1.15192e-05
2.14465e-14
1.22173e-05
-1.91333e-14
1.29154e-05
7.31648e-15
1.36136e-05
-3.84869e-14
1.43117e-05
1.29214e-14
1.50098e-05
1.88386e-15
1.5708e-05
-5.7166e-15
1.64061e-05
7.58664e-15
1.71042e-05
-2.76571e-14
1.78024e-05
-1.40989e-14
1.85005e-05
5.31435e-14
1.91986e-05
-3.90903e-14
1.98967e-05
2.05949e-05
8.92538e-15
4.53785e-06
2.28896e-15
5.23599e-06
2.22434e-15
5.93412e-06
-6.61608e-15
6.63225e-06
3.38837e-15
7.33038e-06
3.90734e-15
8.02851e-06
6.41903e-15
8.72664e-06
7.15891e-15
9.42478e-06
-6.80979e-15
1.01229e-05
-6.98201e-15
1.0821e-05
9.06561e-15
1.15192e-05
-6.75874e-15
1.22173e-05
2.88897e-14
1.29154e-05
1.22351e-14
1.36136e-05
-4.8034e-15
1.43117e-05
-2.50255e-14
1.50098e-05
-3.86046e-15
1.5708e-05
-3.60589e-15
1.64061e-05
2.04851e-14
1.71042e-05
2.17626e-14
1.78024e-05
-3.46675e-15
1.85005e-05
-2.90396e-14
1.91986e-05
1.65855e-15
1.98967e-05
2.05949e-05
4.63057e-15
4.53785e-06
-5.79762e-15
5.23599e-06
1.61506e-14
5.93412e-06
5.97464e-15
6.63225e-06
8.55535e-15
7.33038e-06
-4.2241e-15
8.02851e-06
8.18731e-15
8.72664e-06
-6.99953e-15
9.42478e-06
2.42304e-14
1.01229e-05
7.76821e-15
1.0821e-05
2.27654e-14
1.15192e-05
-8.34971e-15
1.22173e-05
7.40268e-15
1.29154e-05
-2.82662e-14
1.36136e-05
4.57106e-14
1.43117e-05
8.22464e-15
1.50098e-05
2.82278e-14
1.5708e-05
2.33963e-15
1.64061e-05
6.94301e-15
1.71042e-05
-2.21456e-14
1.78024e-05
3.4115e-14
1.85005e-05
3.74054e-15
1.91986e-05
3.23457e-14
1.98967e-05
2.05949e-05
-6.71492e-15
4.53785e-06
7.30679e-15
5.23599e-06
-1.11011e-14
5.93412e-06
4.2412e-15
6.63225e-06
-1.51022e-14
7.33038e-06
5.20913e-15
8.02851e-06
-1.70129e-14
8.72664e-06
3.94127e-15
9.42478e-06
2.9466e-16
1.01229e-05
-6.61097e-15
1.0821e-05
-1.37047e-14
1.15192e-05
-1.0184e-14
1.22173e-05
-1.82179e-14
1.29154e-05
-1.43676e-14
1.36136e-05
-2.33401e-14
1.43117e-05
2.5344e-14
1.50098e-05
-2.90718e-14
1.5708e-05
7.82705e-15
1.64061e-05
-3.5417e-14
1.71042e-05
4.51426e-15
1.78024e-05
-4.23668e-14
1.85005e-05
5.87011e-16
1.91986e-05
8.73277e-15
1.98967e-05
2.05949e-05
-5.98583e-15
4.53785e-06
-2.1895e-16
5.23599e-06
6.43545e-15
5.93412e-06
-6.06347e-15
6.63225e-06
2.09306e-15
7.33038e-06
-1.6177e-14
8.02851e-06
1.88318e-14
8.72664e-06
2.35123e-15
9.42478e-06
-9.17109e-15
1.01229e-05
4.71114e-15
1.0821e-05
-2.16262e-14
1.15192e-05
2.96454e-14
1.22173e-05
9.29041e-15
1.29154e-05
1.8908e-14
1.36136e-05
-4.4667e-15
1.43117e-05
-3.0154e-14
1.50098e-05
2.62169e-14
1.5708e-05
-4.38753e-16
1.64061e-05
2.11703e-14
1.71042e-05
-1.87103e-14
1.78024e-05
3.92555e-15
1.85005e-05
2.91594e-14
1.91986e-05
-1.52294e-14
1.98967e-05
2.05949e-05
8.67621e-15
4.53785e-06
-1.22923e-14
5.23599e-06
-1.88296e-15
5.93412e-06
-8.90186e-15
6.63225e-06
5.10883e-15
7.33038e-06
2.19905e-14
8.02851e-06
-1.22643e-14
8.72664e-06
5.37493e-15
9.42478e-06
-4.45653e-15
1.01229e-05
1.43052e-14
1.0821e-05
7.32704e-15
1.15192e-05
-7.04063e-15
1.22173e-05
-2.39955e-14
1.29154e-05
7.55556e-15
1.36136e-05
-9.79951e-15
1.43117e-05
1.62344e-14
1.50098e-05
-4.02944e-14
1.5708e-05
-1.44466e-14
1.64061e-05
1.37051e-14
1.71042e-05
7.89831e-15
1.78024e-05
3.92512e-14
1.85005e-05
-4.27493e-14
1.91986e-05
8.84923e-15
1.98967e-05
2.05949e-05
-9.39874e-15
4.53785e-06
-5.20643e-16
5.23599e-06
-7.52804e-15
5.93412e-06
4.41169e-15
6.63225e-06
-3.78343e-15
7.33038e-06
-1.33849e-14
8.02851e-06
2.10975e-15
8.72664e-06
-8.52787e-15
9.42478e-06
1.00278e-14
1.01229e-05
-1.86588e-15
1.0821e-05
2.02036e-14
1.15192e-05
7.01215e-15
1.22173e-05
-7.5099e-15
1.29154e-05
-2.36096e-14
1.36136e-05
2.04633e-15
1.43117e-05
-1.4837e-14
1.50098e-05
1.38818e-14
1.5708e-05
-2.39274e-15
1.64061e-05
-2.04094e-14
1.71042e-05
7.01655e-15
1.78024e-05
-1.20638e-14
1.85005e-05
2.59411e-14
1.91986e-05
-1.85069e-15
1.98967e-05
2.05949e-05
1.13362e-14
4.53785e-06
4.81021e-16
5.23599e-06
5.35711e-15
5.93412e-06
1.13026e-14
6.63225e-06
-4.86895e-15
7.33038e-06
1.10899e-15
8.02851e-06
8.15868e-15
8.72664e-06
-1.30435e-14
9.42478e-06
-5.9483e-15
1.01229e-05
1.99737e-15
1.0821e-05
-2.43864e-14
1.15192e-05
-1.619e-14
1.22173e-05
3.27863e-14
1.29154e-05
3.05036e-15
1.36136e-05
1.44447e-14
1.43117e-05
2.68979e-14
1.50098e-05
-7.73758e-15
1.5708e-05
4.43595e-15
1.64061e-05
1.80016e-14
1.71042e-05
-2.1819e-14
1.78024e-05
-8.21387e-15
1.85005e-05
6.08291e-15
1.91986e-05
-3.89197e-14
1.98967e-05
2.05949e-05
1.36955e-16
9.81747e-07
2.42108e-16
1.37445e-06
3.77055e-16
1.76715e-06
-1.33917e-15
2.15984e-06
-3.6815e-15
2.55254e-06
2.94524e-06
5.95106e-15
1.85593e-18
9.81747e-07
-3.88791e-16
1.37445e-06
-2.60415e-15
1.76715e-06
1.9437e-15
2.15984e-06
8.06624e-15
2.55254e-06
2.94524e-06
-9.02989e-15
-1.16455e-16
9.81747e-07
1.86427e-16
1.37445e-06
-1.5623e-15
1.76715e-06
-4.21248e-15
2.15984e-06
-7.49834e-15
2.55254e-06
2.94524e-06
7.72295e-16
8.69671e-17
9.81747e-07
-1.01905e-16
1.37445e-06
2.69324e-15
1.76715e-06
7.4429e-15
2.15984e-06
3.25984e-15
2.55254e-06
2.94524e-06
-2.79804e-15
-4.83768e-17
9.81747e-07
3.95375e-17
1.37445e-06
1.9437e-16
1.76715e-06
-1.80612e-15
2.15984e-06
-4.20852e-15
2.55254e-06
2.94524e-06
5.01351e-15
-1.80095e-16
9.81747e-07
4.308e-18
1.37445e-06
-1.84778e-15
1.76715e-06
-3.88614e-15
2.15984e-06
3.15718e-15
2.55254e-06
2.94524e-06
4.98192e-16
2.53987e-16
9.81747e-07
2.55443e-16
1.37445e-06
2.06597e-15
1.76715e-06
4.50415e-15
2.15984e-06
-2.30992e-15
2.55254e-06
2.94524e-06
5.40865e-16
2.16617e-17
9.81747e-07
-3.21635e-16
1.37445e-06
-1.14886e-15
1.76715e-06
-5.28552e-15
2.15984e-06
-3.7666e-16
2.55254e-06
2.94524e-06
-5.63965e-15
-1.4337e-16
9.81747e-07
1.66421e-16
1.37445e-06
4.19115e-15
1.76715e-06
6.34954e-15
2.15984e-06
-8.05549e-16
2.55254e-06
2.94524e-06
8.39258e-16
-6.87778e-17
9.81747e-07
-9.20756e-17
1.37445e-06
-2.76937e-15
1.76715e-06
-3.68834e-16
2.15984e-06
-1.45077e-15
2.55254e-06
2.94524e-06
-1.76559e-16
1.66337e-16
9.81747e-07
-8.87006e-17
1.37445e-06
5.6977e-16
1.76715e-06
-2.1035e-15
2.15984e-06
9.65994e-15
2.55254e-06
2.94524e-06
5.29027e-15
-1.77788e-16
9.81747e-07
-2.04873e-17
1.37445e-06
-3.45387e-16
1.76715e-06
-4.17249e-15
2.15984e-06
-2.62241e-15
2.55254e-06
2.94524e-06
5.36953e-15
1.77782e-16
9.81747e-07
2.05411e-17
1.37445e-06
3.45497e-16
1.76715e-06
4.17268e-15
2.15984e-06
2.62237e-15
2.55254e-06
2.94524e-06
-5.36947e-15
-1.66331e-16
9.81747e-07
8.87001e-17
1.37445e-06
-5.69639e-16
1.76715e-06
2.10358e-15
2.15984e-06
-9.65994e-15
2.55254e-06
2.94524e-06
-5.29018e-15
6.88265e-17
9.81747e-07
9.20468e-17
1.37445e-06
2.76941e-15
1.76715e-06
3.68853e-16
2.15984e-06
1.45083e-15
2.55254e-06
2.94524e-06
1.76709e-16
1.43432e-16
9.81747e-07
-1.66371e-16
1.37445e-06
-4.19111e-15
1.76715e-06
-6.34932e-15
2.15984e-06
8.05618e-16
2.55254e-06
2.94524e-06
-8.39098e-16
-2.16379e-17
9.81747e-07
3.21675e-16
1.37445e-06
1.1489e-15
1.76715e-06
5.28578e-15
2.15984e-06
3.76751e-16
2.55254e-06
2.94524e-06
5.63989e-15
-2.53953e-16
9.81747e-07
-2.5544e-16
1.37445e-06
-2.06599e-15
1.76715e-06
-4.50402e-15
2.15984e-06
2.30997e-15
2.55254e-06
2.94524e-06
-5.40844e-16
1.80123e-16
9.81747e-07
-4.30008e-18
1.37445e-06
1.84778e-15
1.76715e-06
3.88625e-15
2.15984e-06
-3.15698e-15
2.55254e-06
2.94524e-06
-4.98254e-16
4.83795e-17
9.81747e-07
-3.95335e-17
1.37445e-06
-1.94392e-16
1.76715e-06
1.80622e-15
2.15984e-06
4.20859e-15
2.55254e-06
2.94524e-06
-5.01341e-15
-8.69446e-17
9.81747e-07
1.01905e-16
1.37445e-06
-2.69317e-15
1.76715e-06
-7.44284e-15
2.15984e-06
-3.25974e-15
2.55254e-06
2.94524e-06
2.79808e-15
1.16461e-16
9.81747e-07
-1.86351e-16
1.37445e-06
1.56236e-15
1.76715e-06
4.21262e-15
2.15984e-06
7.49849e-15
2.55254e-06
2.94524e-06
-7.72225e-16
-1.83524e-18
9.81747e-07
3.88848e-16
1.37445e-06
2.6041e-15
1.76715e-06
-1.9436e-15
2.15984e-06
-8.06615e-15
2.55254e-06
2.94524e-06
9.02984e-15
-1.36934e-16
-2.42068e-16
-3.76923e-16
1.3393e-15
3.68172e-15
-5.9513e-15
-1.13361e-14
4.53785e-06
-4.80897e-16
5.23599e-06
-5.35667e-15
5.93412e-06
-1.13037e-14
6.63225e-06
4.86917e-15
7.33038e-06
-1.10981e-15
8.02851e-06
-8.15745e-15
8.72664e-06
1.30442e-14
9.42478e-06
5.95041e-15
1.01229e-05
-1.99592e-15
1.0821e-05
2.43875e-14
1.15192e-05
1.619e-14
1.22173e-05
-3.27847e-14
1.29154e-05
-3.05316e-15
1.36136e-05
-1.44398e-14
1.43117e-05
-2.69002e-14
1.50098e-05
7.74106e-15
1.5708e-05
-4.43922e-15
1.64061e-05
-1.79983e-14
1.71042e-05
2.18211e-14
1.78024e-05
8.21356e-15
1.85005e-05
-6.07679e-15
1.91986e-05
3.89243e-14
1.98967e-05
2.05949e-05
9.39877e-15
4.53785e-06
5.20078e-16
5.23599e-06
7.52868e-15
5.93412e-06
-4.41168e-15
6.63225e-06
3.78336e-15
7.33038e-06
1.33852e-14
8.02851e-06
-2.11004e-15
8.72664e-06
8.52895e-15
9.42478e-06
-1.00269e-14
1.01229e-05
1.86632e-15
1.0821e-05
-2.02021e-14
1.15192e-05
-7.01115e-15
1.22173e-05
7.51195e-15
1.29154e-05
2.3607e-14
1.36136e-05
-2.04065e-15
1.43117e-05
1.48346e-14
1.50098e-05
-1.38776e-14
1.5708e-05
2.39158e-15
1.64061e-05
2.04137e-14
1.71042e-05
-7.0174e-15
1.78024e-05
1.20676e-14
1.85005e-05
-2.59415e-14
1.91986e-05
1.84799e-15
1.98967e-05
2.05949e-05
-8.67599e-15
4.53785e-06
1.22926e-14
5.23599e-06
1.88296e-15
5.93412e-06
8.90183e-15
6.63225e-06
-5.10843e-15
7.33038e-06
-2.19895e-14
8.02851e-06
1.22646e-14
8.72664e-06
-5.37446e-15
9.42478e-06
4.45556e-15
1.01229e-05
-1.43047e-14
1.0821e-05
-7.32439e-15
1.15192e-05
7.04152e-15
1.22173e-05
2.3995e-14
1.29154e-05
-7.55493e-15
1.36136e-05
9.80251e-15
1.43117e-05
-1.6234e-14
1.50098e-05
4.02942e-14
1.5708e-05
1.44481e-14
1.64061e-05
-1.37029e-14
1.71042e-05
-7.89528e-15
1.78024e-05
-3.92534e-14
1.85005e-05
4.2751e-14
1.91986e-05
-8.85414e-15
1.98967e-05
2.05949e-05
5.98593e-15
4.53785e-06
2.18931e-16
5.23599e-06
-6.43552e-15
5.93412e-06
6.06401e-15
6.63225e-06
-2.09196e-15
7.33038e-06
1.61771e-14
8.02851e-06
-1.88316e-14
8.72664e-06
-2.35019e-15
9.42478e-06
9.17058e-15
1.01229e-05
-4.71116e-15
1.0821e-05
2.16294e-14
1.15192e-05
-2.96444e-14
1.22173e-05
-9.28927e-15
1.29154e-05
-1.89051e-14
1.36136e-05
4.46451e-15
1.43117e-05
3.01587e-14
1.50098e-05
-2.62146e-14
1.5708e-05
4.31506e-16
1.64061e-05
-2.11731e-14
1.71042e-05
1.87119e-14
1.78024e-05
-3.92227e-15
1.85005e-05
-2.91546e-14
1.91986e-05
1.52301e-14
1.98967e-05
2.05949e-05
6.71518e-15
4.53785e-06
-7.30608e-15
5.23599e-06
1.11009e-14
5.93412e-06
-4.24135e-15
6.63225e-06
1.51027e-14
7.33038e-06
-5.20917e-15
8.02851e-06
1.70143e-14
8.72664e-06
-3.94047e-15
9.42478e-06
-2.93694e-16
1.01229e-05
6.61223e-15
1.0821e-05
1.37064e-14
1.15192e-05
1.01858e-14
1.22173e-05
1.82205e-14
1.29154e-05
1.43682e-14
1.36136e-05
2.33391e-14
1.43117e-05
-2.53423e-14
1.50098e-05
2.90753e-14
1.5708e-05
-7.82897e-15
1.64061e-05
3.54202e-14
1.71042e-05
-4.51227e-15
1.78024e-05
4.23743e-14
1.85005e-05
-5.83418e-16
1.91986e-05
-8.73379e-15
1.98967e-05
2.05949e-05
-4.63027e-15
4.53785e-06
5.79816e-15
5.23599e-06
-1.61505e-14
5.93412e-06
-5.97395e-15
6.63225e-06
-8.55467e-15
7.33038e-06
4.22407e-15
8.02851e-06
-8.18627e-15
8.72664e-06
6.9998e-15
9.42478e-06
-2.42293e-14
1.01229e-05
-7.76812e-15
1.0821e-05
-2.27647e-14
1.15192e-05
8.35052e-15
1.22173e-05
-7.40325e-15
1.29154e-05
2.82699e-14
1.36136e-05
-4.57094e-14
1.43117e-05
-8.22034e-15
1.50098e-05
-2.82248e-14
1.5708e-05
-2.33902e-15
1.64061e-05
-6.94459e-15
1.71042e-05
2.21512e-14
1.78024e-05
-3.41077e-14
1.85005e-05
-3.73536e-15
1.91986e-05
-3.23465e-14
1.98967e-05
2.05949e-05
-8.92496e-15
4.53785e-06
-2.28852e-15
5.23599e-06
-2.22371e-15
5.93412e-06
6.61638e-15
6.63225e-06
-3.38802e-15
7.33038e-06
-3.90685e-15
8.02851e-06
-6.41761e-15
8.72664e-06
-7.15885e-15
9.42478e-06
6.80958e-15
1.01229e-05
6.98403e-15
1.0821e-05
-9.06375e-15
1.15192e-05
6.75989e-15
1.22173e-05
-2.88885e-14
1.29154e-05
-1.22332e-14
1.36136e-05
4.80539e-15
1.43117e-05
2.50257e-14
1.50098e-05
3.86346e-15
1.5708e-05
3.60878e-15
1.64061e-05
-2.04832e-14
1.71042e-05
-2.17566e-14
1.78024e-05
3.46818e-15
1.85005e-05
2.90442e-14
1.91986e-05
-1.65898e-15
1.98967e-05
2.05949e-05
6.21598e-15
4.53785e-06
-3.879e-15
5.23599e-06
1.54223e-14
5.93412e-06
-7.06551e-15
6.63225e-06
-2.21063e-15
7.33038e-06
1.43004e-15
8.02851e-06
-5.49303e-15
8.72664e-06
1.32265e-14
9.42478e-06
6.04515e-15
1.01229e-05
-1.74493e-14
1.0821e-05
2.08884e-14
1.15192e-05
-2.14449e-14
1.22173e-05
1.91341e-14
1.29154e-05
-7.3175e-15
1.36136e-05
3.84875e-14
1.43117e-05
-1.2924e-14
1.50098e-05
-1.87915e-15
1.5708e-05
5.72017e-15
1.64061e-05
-7.58393e-15
1.71042e-05
2.76616e-14
1.78024e-05
1.41055e-14
1.85005e-05
-5.31399e-14
1.91986e-05
3.90856e-14
1.98967e-05
2.05949e-05
-1.4986e-15
4.53785e-06
1.08972e-14
5.23599e-06
-6.59913e-15
5.93412e-06
7.26559e-15
6.63225e-06
6.17488e-15
7.33038e-06
2.48817e-15
8.02851e-06
-9.6501e-16
8.72664e-06
-4.36464e-15
9.42478e-06
-8.90127e-15
1.01229e-05
1.38643e-14
1.0821e-05
1.06924e-14
1.15192e-05
6.25175e-15
1.22173e-05
-1.28072e-16
1.29154e-05
-3.43741e-15
1.36136e-05
-1.10444e-14
1.43117e-05
-1.77639e-14
1.50098e-05
1.76847e-14
1.5708e-05
9.95266e-15
1.64061e-05
3.33223e-15
1.71042e-05
-3.29661e-14
1.78024e-05
-1.04205e-14
1.85005e-05
3.00705e-14
1.91986e-05
-5.99927e-14
1.98967e-05
2.05949e-05
5.17023e-15
4.53785e-06
-7.45535e-15
5.23599e-06
-7.56705e-16
5.93412e-06
6.83935e-15
6.63225e-06
-9.97418e-15
7.33038e-06
-1.66414e-15
8.02851e-06
9.21981e-15
8.72664e-06
-1.34593e-14
9.42478e-06
2.32211e-14
1.01229e-05
1.04738e-14
1.0821e-05
-1.72711e-14
1.15192e-05
-3.02682e-15
1.22173e-05
1.13977e-14
1.29154e-05
-1.9816e-14
1.36136e-05
-4.67429e-15
1.43117e-05
5.03086e-14
1.50098e-05
-2.40478e-14
1.5708e-05
-6.65657e-15
1.64061e-05
1.42609e-14
1.71042e-05
1.65196e-15
1.78024e-05
-6.80784e-15
1.85005e-05
1.44414e-14
1.91986e-05
5.07585e-14
1.98967e-05
2.05949e-05
-6.19721e-15
4.53785e-06
2.84254e-17
5.23599e-06
1.15118e-14
5.93412e-06
-2.0626e-14
6.63225e-06
5.3669e-15
7.33038e-06
1.2219e-15
8.02851e-06
-4.65431e-17
8.72664e-06
1.23945e-14
9.42478e-06
-1.32258e-14
1.01229e-05
-1.88936e-14
1.0821e-05
-4.96403e-15
1.15192e-05
-7.15499e-15
1.22173e-05
-1.48853e-14
1.29154e-05
3.53416e-14
1.36136e-05
2.54242e-18
1.43117e-05
-4.31362e-14
1.50098e-05
1.35621e-14
1.5708e-05
-2.82535e-14
1.64061e-05
2.45426e-15
1.71042e-05
-1.0234e-14
1.78024e-05
2.38034e-14
1.85005e-05
1.38739e-14
1.91986e-05
-4.55603e-14
1.98967e-05
2.05949e-05
-1.90663e-15
4.53785e-06
1.13076e-15
5.23599e-06
-2.16616e-14
5.93412e-06
9.62432e-15
6.63225e-06
1.5137e-14
7.33038e-06
-1.40655e-14
8.02851e-06
8.09303e-15
8.72664e-06
-2.69593e-14
9.42478e-06
-1.96503e-15
1.01229e-05
2.97189e-14
1.0821e-05
-1.17453e-14
1.15192e-05
1.98682e-14
1.22173e-05
-2.74453e-14
1.29154e-05
-2.06135e-14
1.36136e-05
1.60427e-14
1.43117e-05
-4.61148e-15
1.50098e-05
4.69426e-15
1.5708e-05
4.79675e-14
1.64061e-05
-1.37376e-14
1.71042e-05
3.23721e-14
1.78024e-05
-3.51834e-14
1.85005e-05
-2.4903e-14
1.91986e-05
7.19171e-14
1.98967e-05
2.05949e-05
1.90653e-15
4.53785e-06
-1.13041e-15
5.23599e-06
2.16621e-14
5.93412e-06
-9.62363e-15
6.63225e-06
-1.51374e-14
7.33038e-06
1.40656e-14
8.02851e-06
-8.09278e-15
8.72664e-06
2.69589e-14
9.42478e-06
1.96688e-15
1.01229e-05
-2.97156e-14
1.0821e-05
1.17459e-14
1.15192e-05
-1.98666e-14
1.22173e-05
2.74467e-14
1.29154e-05
2.06162e-14
1.36136e-05
-1.604e-14
1.43117e-05
4.61532e-15
1.50098e-05
-4.6934e-15
1.5708e-05
-4.79675e-14
1.64061e-05
1.37427e-14
1.71042e-05
-3.23711e-14
1.78024e-05
3.51844e-14
1.85005e-05
2.49039e-14
1.91986e-05
-7.19104e-14
1.98967e-05
2.05949e-05
6.19738e-15
4.53785e-06
-2.86524e-17
5.23599e-06
-1.15116e-14
5.93412e-06
2.06261e-14
6.63225e-06
-5.3671e-15
7.33038e-06
-1.22124e-15
8.02851e-06
4.75243e-17
8.72664e-06
-1.23934e-14
9.42478e-06
1.32277e-14
1.01229e-05
1.88949e-14
1.0821e-05
4.96408e-15
1.15192e-05
7.15419e-15
1.22173e-05
1.48875e-14
1.29154e-05
-3.53374e-14
1.36136e-05
4.63381e-18
1.43117e-05
4.31371e-14
1.50098e-05
-1.35658e-14
1.5708e-05
2.82565e-14
1.64061e-05
-2.45272e-15
1.71042e-05
1.02422e-14
1.78024e-05
-2.38062e-14
1.85005e-05
-1.38732e-14
1.91986e-05
4.55657e-14
1.98967e-05
2.05949e-05
-5.17013e-15
4.53785e-06
7.45554e-15
5.23599e-06
7.5679e-16
5.93412e-06
-6.83938e-15
6.63225e-06
9.97435e-15
7.33038e-06
1.66505e-15
8.02851e-06
-9.2196e-15
8.72664e-06
1.34596e-14
9.42478e-06
-2.32211e-14
1.01229e-05
-1.04711e-14
1.0821e-05
1.72733e-14
1.15192e-05
3.02716e-15
1.22173e-05
-1.13972e-14
1.29154e-05
1.98166e-14
1.36136e-05
4.681e-15
1.43117e-05
-5.03079e-14
1.50098e-05
2.40465e-14
1.5708e-05