/*--------------------------------*- C++ -*----------------------------------*\
  =========                 |
  \\      /  F ield         | OpenFOAM: The Open Source CFD Toolbox
   \\    /   O peration     | Website:  https://openfoam.org
    \\  /    A nd           | Version:  11
     \\/     M anipulation  |
\*---------------------------------------------------------------------------*/
FoamFile
{
    format      ascii;
    class       surfaceScalarField;
    location    "0.46";
    object      phi;
}
// * * * * * * * * * * * * * * * * * * * * * * * * * * * * * * * * * * * * * //

dimensions      [0 3 -1 0 0 0 0];

internalField   nonuniform List<scalar> 
5640
(
-3.56606e-07
3.56606e-07
-1.03568e-06
6.79074e-07
-1.75276e-06
7.17084e-07
-2.2235e-06
4.7074e-07
-2.1233e-06
-1.00207e-07
-1.09983e-06
-1.02347e-06
-5.08947e-07
8.65553e-07
-1.17246e-06
1.34259e-06
-1.74131e-06
1.28594e-06
-2.0825e-06
8.1193e-07
-1.98869e-06
-1.94016e-07
-1.8487e-06
-1.23982e-06
-5.29594e-07
1.39515e-06
-1.12984e-06
1.94283e-06
-1.62827e-06
1.78437e-06
-1.92387e-06
1.10753e-06
-1.91137e-06
-2.06513e-07
-2.19645e-06
-1.56363e-06
-5.27148e-07
1.9223e-06
-1.06474e-06
2.48042e-06
-1.51553e-06
2.23516e-06
-1.803e-06
1.39501e-06
-1.90086e-06
-1.08655e-07
-2.21121e-06
-1.8861e-06
-5.15741e-07
2.43804e-06
-9.92426e-07
2.9571e-06
-1.40912e-06
2.65185e-06
-1.71238e-06
1.69827e-06
-1.92351e-06
1.02469e-07
-1.98611e-06
-2.14861e-06
-5.00005e-07
2.93804e-06
-9.15151e-07
3.37225e-06
-1.30488e-06
3.04158e-06
-1.63413e-06
2.02752e-06
-1.94576e-06
4.14106e-07
-1.59818e-06
-2.33369e-06
-4.76846e-07
3.41489e-06
-8.31976e-07
3.72738e-06
-1.19667e-06
3.40627e-06
-1.55243e-06
2.38328e-06
-1.94518e-06
8.06848e-07
-1.10479e-06
-2.43856e-06
-4.30054e-07
3.84494e-06
-7.37222e-07
4.03455e-06
-1.07804e-06
3.74709e-06
-1.45456e-06
2.7598e-06
-1.90639e-06
1.25868e-06
-5.47222e-07
-2.46396e-06
-3.62137e-07
4.20708e-06
-6.27951e-07
4.30036e-06
-9.43668e-07
4.06281e-06
-1.3306e-06
3.14673e-06
-1.81797e-06
1.74605e-06
4.19122e-08
-2.4071e-06
-2.85302e-07
4.49238e-06
-5.04306e-07
4.51937e-06
-7.89786e-07
4.34829e-06
-1.17338e-06
3.53032e-06
-1.67264e-06
2.24531e-06
6.34196e-07
-2.26493e-06
-2.01183e-07
4.69356e-06
-3.66627e-07
4.68481e-06
-6.13783e-07
4.59545e-06
-9.78188e-07
3.89473e-06
-1.46599e-06
2.73311e-06
1.20354e-06
-2.03533e-06
-1.10705e-07
4.80427e-06
-2.15316e-07
4.78942e-06
-4.14245e-07
4.79438e-06
-7.42535e-07
4.22302e-06
-1.19604e-06
3.18662e-06
1.72506e-06
-1.71756e-06
-1.36401e-08
4.81791e-06
-5.15395e-08
4.82732e-06
-1.91132e-07
4.93397e-06
-4.6616e-07
4.49805e-06
-8.63467e-07
3.58393e-06
2.17468e-06
-1.31309e-06
8.58094e-08
4.7321e-06
1.23656e-07
4.78947e-06
5.42929e-08
5.00333e-06
-1.51118e-07
4.70346e-06
-4.71983e-07
3.90479e-06
2.53004e-06
-8.2735e-07
1.92224e-07
4.53988e-06
3.07716e-07
4.67398e-06
3.18934e-07
4.99211e-06
1.98201e-07
4.82419e-06
-2.8273e-08
4.13127e-06
2.77585e-06
-2.74082e-07
3.18846e-07
4.22103e-06
4.96882e-07
4.49594e-06
5.97947e-07
4.89105e-06
5.74858e-07
4.84728e-06
4.5584e-07
4.25028e-06
2.90035e-06
3.31342e-07
4.3976e-07
3.78127e-06
6.82514e-07
4.25319e-06
8.845e-07
4.68906e-06
9.69862e-07
4.76192e-06
9.66572e-07
4.25357e-06
2.89534e-06
9.71581e-07
5.16266e-07
3.265e-06
8.54326e-07
3.91513e-06
1.17083e-06
4.37256e-06
1.37396e-06
4.55879e-06
1.48394e-06
4.14359e-06
2.78307e-06
1.59622e-06
5.66262e-07
2.69874e-06
1.00715e-06
3.47425e-06
1.44855e-06
3.93116e-06
1.77862e-06
4.22872e-06
1.99041e-06
3.9318e-06
2.61092e-06
2.16255e-06
5.96418e-07
2.10232e-06
1.13658e-06
2.93409e-06
1.70848e-06
3.35925e-06
2.17785e-06
3.75935e-06
2.48242e-06
3.62724e-06
2.46695e-06
2.62639e-06
6.05509e-07
1.49682e-06
1.238e-06
2.30159e-06
1.94118e-06
2.65608e-06
2.56947e-06
3.13106e-06
2.99218e-06
3.20452e-06
2.43803e-06
3.0211e-06
5.92698e-07
9.04117e-07
1.30635e-06
1.58794e-06
2.13193e-06
1.83051e-06
2.94951e-06
2.31347e-06
3.60333e-06
2.5507e-06
2.18568e-06
3.85568e-06
5.46177e-07
3.5794e-07
1.32978e-06
8.04335e-07
2.24408e-06
9.16212e-07
3.2836e-06
1.27395e-06
4.34279e-06
1.49151e-06
1.38151e-06
5.14696e-06
3.5794e-07
1.16227e-06
2.07849e-06
3.35243e-06
4.84394e-06
6.22545e-06
-3.31705e-06
-1.20214e-05
1.4315e-05
-4.0457e-06
-1.26693e-05
1.3398e-05
-4.02259e-06
-1.16723e-05
1.16492e-05
-3.35172e-06
-1.03766e-05
9.70577e-06
-2.09901e-06
-9.05443e-06
7.80172e-06
-3.37501e-07
-7.79783e-06
6.03632e-06
1.84995e-06
-6.65516e-06
4.46772e-06
4.3765e-06
-5.66207e-06
3.13552e-06
7.15632e-06
-4.84504e-06
2.06522e-06
1.01116e-05
-4.22209e-06
1.26682e-06
1.31744e-05
-3.80119e-06
7.38389e-07
1.62882e-05
-3.58333e-06
4.69543e-07
1.94083e-05
-3.56341e-06
4.43272e-07
2.25015e-05
-3.73083e-06
6.37649e-07
2.55454e-05
-4.07146e-06
1.02755e-06
2.85285e-05
-4.56896e-06
1.58586e-06
3.14491e-05
-5.2057e-06
2.28507e-06
3.43129e-05
-5.96223e-06
3.09852e-06
3.71305e-05
-6.81807e-06
4.00041e-06
3.99183e-05
-7.75346e-06
4.96564e-06
4.2695e-05
-8.7489e-06
5.97222e-06
4.54808e-05
-9.77942e-06
6.99365e-06
4.82836e-05
-1.08236e-05
8.02077e-06
-1.18808e-05
9.05859e-06
-2.86935e-06
-1.03919e-05
-3.8893e-06
-1.16494e-05
-4.15539e-06
-1.14062e-05
-3.79945e-06
-1.07326e-05
-2.90856e-06
-9.94532e-06
-1.55396e-06
-9.15243e-06
1.91579e-07
-8.40071e-06
2.25317e-06
-7.72367e-06
4.55677e-06
-7.14864e-06
7.03158e-06
-6.6969e-06
9.61382e-06
-6.38343e-06
1.22484e-05
-6.21791e-06
1.48901e-05
-6.20507e-06
1.7503e-05
-6.34372e-06
2.00613e-05
-6.62977e-06
2.25493e-05
-7.05701e-06
2.49622e-05
-7.61856e-06
2.73051e-05
-8.30518e-06
2.9593e-05
-9.10595e-06
3.18484e-05
-1.00088e-05
3.40971e-05
-1.09977e-05
3.63634e-05
-1.20457e-05
3.8654e-05
-1.31142e-05
-1.41661e-05
-2.9017e-06
-9.05381e-06
-3.90693e-06
-1.06441e-05
-4.3121e-06
-1.10011e-05
-4.16179e-06
-1.08829e-05
-3.53219e-06
-1.05749e-05
-2.49311e-06
-1.01915e-05
-1.1111e-06
-9.78272e-06
5.48541e-07
-9.3833e-06
2.42162e-06
-9.02171e-06
4.44643e-06
-8.72171e-06
6.56533e-06
-8.50233e-06
8.72686e-06
-8.37944e-06
1.08884e-05
-8.36659e-06
1.3015e-05
-8.47033e-06
1.50812e-05
-8.69598e-06
1.7071e-05
-9.04684e-06
1.89791e-05
-9.52661e-06
2.0812e-05
-1.01381e-05
2.25876e-05
-1.08815e-05
2.43329e-05
-1.17541e-05
2.60798e-05
-1.27446e-05
2.78581e-05
-1.3824e-05
2.96821e-05
-1.49383e-05
-1.60056e-05
-3.06588e-06
-7.87403e-06
-4.00821e-06
-9.70181e-06
-4.46577e-06
-1.05435e-05
-4.43055e-06
-1.09181e-05
-3.96198e-06
-1.10435e-05
-3.12826e-06
-1.10252e-05
-1.99386e-06
-1.09171e-05
-6.19809e-07
-1.07574e-05
9.36528e-07
-1.05781e-05
2.62128e-06
-1.04065e-05
4.38468e-06
-1.02657e-05
6.1807e-06
-1.01755e-05
7.96899e-06
-1.01549e-05
9.72069e-06
-1.0222e-05
1.14162e-05
-1.03915e-05
1.30467e-05
-1.06773e-05
1.46119e-05
-1.10918e-05
1.61199e-05
-1.16461e-05
1.75867e-05
-1.23484e-05
1.90336e-05
-1.32011e-05
2.0484e-05
-1.41949e-05
2.19612e-05
-1.53013e-05
2.34792e-05
-1.64563e-05
-1.75247e-05
-3.2397e-06
-6.78294e-06
-4.12117e-06
-8.82034e-06
-4.57905e-06
-1.00856e-05
-4.58294e-06
-1.09142e-05
-4.18329e-06
-1.14431e-05
-3.44676e-06
-1.17618e-05
-2.43722e-06
-1.19267e-05
-1.21333e-06
-1.19812e-05
1.72308e-07
-1.19637e-05
1.67385e-06
-1.1908e-05
3.252e-06
-1.18439e-05
4.87471e-06
-1.17982e-05
6.5126e-06
-1.17928e-05
8.1417e-06
-1.18511e-05
9.74457e-06
-1.19944e-05
1.13103e-05
-1.2243e-05
1.28342e-05
-1.26157e-05
1.43174e-05
-1.31293e-05
1.57657e-05
-1.37966e-05
1.71876e-05
-1.4623e-05
1.85934e-05
-1.56007e-05
1.99919e-05
-1.66998e-05
2.1379e-05
-1.78434e-05
-1.88668e-05
-3.3734e-06
-5.74323e-06
-4.19817e-06
-7.99557e-06
-4.61287e-06
-9.67091e-06
-4.58884e-06
-1.09383e-05
-4.17063e-06
-1.18614e-05
-3.42645e-06
-1.25059e-05
-2.42201e-06
-1.29311e-05
-1.21504e-06
-1.31882e-05
1.45352e-07
-1.33241e-05
1.61867e-06
-1.33813e-05
3.17182e-06
-1.3397e-05
4.77722e-06
-1.34036e-05
6.41405e-06
-1.34296e-05
8.06559e-06
-1.35027e-05
9.71703e-06
-1.36458e-05
1.13567e-05
-1.38826e-05
1.29752e-05
-1.42343e-05
1.45654e-05
-1.47195e-05
1.61221e-05
-1.53533e-05
1.76431e-05
-1.61439e-05
1.91292e-05
-1.70868e-05
2.05851e-05
-1.81557e-05
2.20197e-05
-1.9278e-05
-2.03e-05
-3.44052e-06
-4.74127e-06
-4.202e-06
-7.23409e-06
-4.53588e-06
-9.33703e-06
-4.41781e-06
-1.10563e-05
-3.89542e-06
-1.23837e-05
-3.04295e-06
-1.33584e-05
-1.93098e-06
-1.40431e-05
-6.17807e-07
-1.45014e-05
8.50226e-07
-1.47921e-05
2.43714e-06
-1.49682e-05
4.11526e-06
-1.50752e-05
5.86374e-06
-1.51521e-05
7.66717e-06
-1.5233e-05
9.51236e-06
-1.53479e-05
1.13893e-05
-1.55228e-05
1.3289e-05
-1.57823e-05
1.52028e-05
-1.6148e-05
1.71221e-05
-1.66389e-05
1.9039e-05
-1.72703e-05
2.09474e-05
-1.80522e-05
2.28418e-05
-1.89812e-05
2.47253e-05
-2.00392e-05
2.66103e-05
-2.1163e-05
-2.22245e-05
-3.42414e-06
-3.7811e-06
-4.10557e-06
-6.55266e-06
-4.31742e-06
-9.12518e-06
-4.03392e-06
-1.13398e-05
-3.31745e-06
-1.31002e-05
-2.25557e-06
-1.44203e-05
-9.27771e-07
-1.53709e-05
6.04743e-07
-1.60339e-05
2.29743e-06
-1.64848e-05
4.119e-06
-1.67898e-05
6.04819e-06
-1.70044e-05
8.07084e-06
-1.71747e-05
1.01778e-05
-1.734e-05
1.23627e-05
-1.75328e-05
1.4621e-05
-1.77811e-05
1.69482e-05
-1.81094e-05
1.93391e-05
-1.8539e-05
2.17871e-05
-1.90869e-05
2.42834e-05
-1.97665e-05
2.68172e-05
-2.0586e-05
2.93814e-05
-2.15455e-05
3.19751e-05
-2.26329e-05
3.46095e-05
-2.37974e-05
-2.49409e-05
-3.31418e-06
-2.87402e-06
-3.89161e-06
-5.97522e-06
-3.92818e-06
-9.08862e-06
-3.39858e-06
-1.18694e-05
-2.39101e-06
-1.41078e-05
-1.01596e-06
-1.57953e-05
6.3274e-07
-1.70196e-05
2.48852e-06
-1.78897e-05
4.50781e-06
-1.85041e-05
6.6642e-06
-1.89462e-05
8.94258e-06
-1.92827e-05
1.13352e-05
-1.95673e-05
1.38389e-05
-1.98437e-05
1.64539e-05
-2.01478e-05
1.91815e-05
-2.05087e-05
2.2022e-05
-2.095e-05
2.49736e-05
-2.14905e-05
2.80312e-05
-2.21445e-05
3.11859e-05
-2.29212e-05
3.44263e-05
-2.38263e-05
3.77384e-05
-2.48576e-05
4.11143e-05
-2.60087e-05
4.45477e-05
-2.72309e-05
-2.84711e-05
-3.10236e-06
-2.03659e-06
-3.54371e-06
-5.53387e-06
-3.33986e-06
-9.29247e-06
-2.47083e-06
-1.27384e-05
-1.06449e-06
-1.55141e-05
7.34156e-07
-1.7594e-05
2.8108e-06
-1.90962e-05
5.08925e-06
-2.01681e-05
7.52393e-06
-2.09388e-05
1.00912e-05
-2.15135e-05
1.27814e-05
-2.19729e-05
1.55933e-05
-2.23791e-05
1.85305e-05
-2.2781e-05
2.15994e-05
-2.32167e-05
2.48055e-05
-2.37147e-05
2.81517e-05
-2.42962e-05
3.16374e-05
-2.49762e-05
3.52566e-05
-2.57637e-05
3.89983e-05
-2.66629e-05
4.28497e-05
-2.76777e-05
4.67923e-05
-2.88002e-05
5.08053e-05
-3.00217e-05
5.4851e-05
-3.12765e-05
-3.26344e-05
-2.78126e-06
-1.29066e-06
-3.04522e-06
-5.26991e-06
-2.52067e-06
-9.81703e-06
-1.20031e-06
-1.40588e-05
7.25985e-07
-1.74404e-05
3.05684e-06
-1.99248e-05
5.64476e-06
-2.16842e-05
8.39787e-06
-2.29212e-05
1.1273e-05
-2.38139e-05
1.42564e-05
-2.44969e-05
1.73493e-05
-2.50658e-05
2.05579e-05
-2.55878e-05
2.38917e-05
-2.61148e-05
2.73606e-05
-2.66855e-05
3.09717e-05
-2.73259e-05
3.47304e-05
-2.80549e-05
3.86378e-05
-2.88836e-05
4.26838e-05
-2.98098e-05
4.68516e-05
-3.08307e-05
5.11286e-05
-3.19547e-05
5.54947e-05
-3.31664e-05
5.99211e-05
-3.44481e-05
6.43884e-05
-3.57438e-05
-3.71353e-05
-2.34429e-06
-6.63925e-07
-2.3758e-06
-5.2384e-06
-1.42815e-06
-1.07647e-05
4.76048e-07
-1.5963e-05
3.01762e-06
-1.9982e-05
5.92974e-06
-2.28369e-05
9.03014e-06
-2.47846e-05
1.22352e-05
-2.61262e-05
1.55178e-05
-2.70965e-05
1.88755e-05
-2.78546e-05
2.23171e-05
-2.85074e-05
2.58549e-05
-2.91256e-05
2.95018e-05
-2.97616e-05
3.3272e-05
-3.04558e-05
3.71698e-05
-3.12237e-05
4.12001e-05
-3.20852e-05
4.5363e-05
-3.30465e-05
4.96526e-05
-3.40995e-05
5.40545e-05
-3.52325e-05
5.85026e-05
-3.64028e-05
6.29137e-05
-3.75774e-05
6.71777e-05
-3.87121e-05
7.13017e-05
-3.98677e-05
-4.1062e-05
-1.78568e-06
-1.91331e-07
-1.50726e-06
-5.51682e-06
2.84984e-08
-1.23004e-05
2.58836e-06
-1.85229e-05
5.79177e-06
-2.31854e-05
9.26843e-06
-2.63136e-05
1.28375e-05
-2.83536e-05
1.64311e-05
-2.97199e-05
2.00351e-05
-3.07006e-05
2.36602e-05
-3.14797e-05
2.73239e-05
-3.2171e-05
3.10442e-05
-3.28459e-05
3.48378e-05
-3.35553e-05
3.87246e-05
-3.43425e-05
4.27211e-05
-3.52202e-05
4.68024e-05
-3.61665e-05
5.0893e-05
-3.71371e-05
5.4904e-05
-3.81105e-05
5.87546e-05
-3.90831e-05
6.24012e-05
-4.00494e-05
6.58535e-05
-4.10298e-05
6.91167e-05
-4.19753e-05
7.22569e-05
-4.30079e-05
-4.39962e-05
-1.1016e-06
8.29201e-08
-4.03547e-07
-6.21487e-06
1.81316e-06
-1.45171e-05
5.16538e-06
-2.18751e-05
9.00158e-06
-2.70216e-05
1.29388e-05
-3.02508e-05
1.6817e-05
-3.22319e-05
2.06017e-05
-3.35045e-05
2.43085e-05
-3.44073e-05
2.79657e-05
-3.51369e-05
3.16012e-05
-3.58065e-05
3.52452e-05
-3.64899e-05
3.89248e-05
-3.72349e-05
4.25995e-05
-3.80172e-05
4.61856e-05
-3.88063e-05
4.96145e-05
-3.95954e-05
5.28758e-05
-4.03984e-05
5.59846e-05
-4.12193e-05
5.89609e-05
-4.20594e-05
6.18262e-05
-4.29147e-05
6.45918e-05
-4.37954e-05
6.72909e-05
-4.46744e-05
6.98608e-05
-4.55778e-05
-4.63394e-05
-2.96213e-07
1.05052e-07
9.88313e-07
-7.4994e-06
4.07512e-06
-1.7604e-05
8.15642e-06
-2.59564e-05
1.24305e-05
-3.12957e-05
1.65323e-05
-3.43526e-05
2.03895e-05
-3.6089e-05
2.40386e-05
-3.71537e-05
2.75297e-05
-3.78984e-05
3.09061e-05
-3.85133e-05
3.42028e-05
-3.91033e-05
3.74321e-05
-3.97192e-05
4.05499e-05
-4.03527e-05
4.35197e-05
-4.09869e-05
4.63578e-05
-4.16443e-05
4.90867e-05
-4.23243e-05
5.17198e-05
-4.30315e-05
5.42717e-05
-4.37712e-05
5.67718e-05
-4.45594e-05
5.92297e-05
-4.53726e-05
6.16168e-05
-4.61825e-05
6.39042e-05
-4.69618e-05
6.59381e-05
-4.76117e-05
-4.80844e-05
6.41881e-07
-2.05487e-07
2.71144e-06
-9.56896e-06
6.73087e-06
-2.16234e-05
1.12898e-05
-3.05153e-05
1.558e-05
-3.55859e-05
1.94234e-05
-3.8196e-05
2.2895e-05
-3.95607e-05
2.6103e-05
-4.03616e-05
2.91216e-05
-4.09171e-05
3.19975e-05
-4.13892e-05
3.4752e-05
-4.18578e-05
3.73842e-05
-4.23513e-05
3.9902e-05
-4.28705e-05
4.23341e-05
-4.34191e-05
4.46864e-05
-4.39965e-05
4.69764e-05
-4.46144e-05
4.923e-05
-4.52851e-05
5.1451e-05
-4.59922e-05
5.36057e-05
-4.67142e-05
5.56581e-05
-4.7425e-05
5.7578e-05
-4.81024e-05
5.93363e-05
-4.872e-05
6.0896e-05
-4.91715e-05
-4.93544e-05
1.70371e-06
-9.37613e-07
4.77186e-06
-1.26371e-05
9.52721e-06
-2.63787e-05
1.40805e-05
-3.50686e-05
1.79328e-05
-3.94381e-05
2.12037e-05
-4.1467e-05
2.40965e-05
-4.24535e-05
2.67556e-05
-4.30207e-05
2.92491e-05
-4.34105e-05
3.16208e-05
-4.37608e-05
3.38905e-05
-4.41275e-05
3.60678e-05
-4.45287e-05
3.81701e-05
-4.49728e-05
4.02175e-05
-4.54664e-05
4.22326e-05
-4.60116e-05
4.42215e-05
-4.66033e-05
4.6161e-05
-4.72246e-05
4.80241e-05
-4.78553e-05
4.97866e-05
-4.84767e-05
5.14357e-05
-4.90741e-05
5.29604e-05
-4.96272e-05
5.43432e-05
-5.01029e-05
5.55876e-05
-5.04159e-05
-5.0378e-05
2.88438e-06
-2.22577e-06
7.06769e-06
-1.68204e-05
1.2074e-05
-3.1385e-05
1.61377e-05
-3.91324e-05
1.93214e-05
-4.26217e-05
2.19568e-05
-4.41024e-05
2.42947e-05
-4.47913e-05
2.6458e-05
-4.5184e-05
2.84934e-05
-4.54459e-05
3.04412e-05
-4.57087e-05
3.23224e-05
-4.60087e-05
3.41526e-05
-4.63589e-05
3.59419e-05
-4.67622e-05
3.76968e-05
-4.72213e-05
3.94155e-05
-4.77303e-05
4.10836e-05
-4.82714e-05
4.26863e-05
-4.88273e-05
4.42154e-05
-4.93844e-05
4.56662e-05
-4.99275e-05
4.70308e-05
-5.04387e-05
4.8296e-05
-5.08924e-05
4.94424e-05
-5.12493e-05
5.04557e-05
-5.14292e-05
-5.12468e-05
4.21783e-06
-4.28105e-06
9.38168e-06
-2.19843e-05
1.40596e-05
-3.60629e-05
1.73987e-05
-4.24715e-05
1.9909e-05
-4.5132e-05
2.19772e-05
-4.61706e-05
2.38438e-05
-4.6658e-05
2.55694e-05
-4.69096e-05
2.72121e-05
-4.70887e-05
2.88014e-05
-4.7298e-05
3.03543e-05
-4.75616e-05
3.1881e-05
-4.78856e-05
3.33857e-05
-4.82668e-05
3.48615e-05
-4.86972e-05
3.62972e-05
-4.9166e-05
3.76862e-05
-4.96604e-05
3.90255e-05
-5.01666e-05
4.03102e-05
-5.0669e-05
4.15326e-05
-5.11499e-05
4.26819e-05
-5.1588e-05
4.37433e-05
-5.19538e-05
4.47003e-05
-5.22063e-05
4.55422e-05
-5.22711e-05
-5.20029e-05
5.69308e-06
-7.34773e-06
1.14414e-05
-2.77326e-05
1.5398e-05
-4.00195e-05
1.79751e-05
-4.50485e-05
1.98624e-05
-4.70194e-05
2.14566e-05
-4.77648e-05
2.29049e-05
-4.81063e-05
2.42476e-05
-4.82523e-05
2.55536e-05
-4.83947e-05
2.68386e-05
-4.8583e-05
2.81106e-05
-4.88336e-05
2.93713e-05
-4.91463e-05
3.06184e-05
-4.95138e-05
3.18464e-05
-4.99252e-05
3.30489e-05
-5.03685e-05
3.42186e-05
-5.08302e-05
3.53479e-05
-5.12959e-05
3.64285e-05
-5.17496e-05
3.7452e-05
-5.21734e-05
3.84095e-05
-5.25455e-05
3.92922e-05
-5.28365e-05
4.00942e-05
-5.30082e-05
4.08197e-05
-5.29966e-05
-5.26836e-05
7.4264e-06
-1.1753e-05
1.30219e-05
-3.33281e-05
1.61156e-05
-4.31133e-05
1.79815e-05
-4.69144e-05
1.93453e-05
-4.83832e-05
2.05176e-05
-4.89371e-05
2.15742e-05
-4.91629e-05
2.26092e-05
-4.92874e-05
2.36374e-05
-4.94229e-05
2.46673e-05
-4.96129e-05
2.57006e-05
-4.98669e-05
2.67343e-05
-5.018e-05
2.77623e-05
-5.05418e-05
2.87774e-05
-5.09403e-05
2.97716e-05
-5.13627e-05
3.07371e-05
-5.17957e-05
3.16667e-05
-5.22254e-05
3.25536e-05
-5.26366e-05
3.33921e-05
-5.30119e-05
3.41764e-05
-5.33298e-05
3.4903e-05
-5.35631e-05
3.5572e-05
-5.36772e-05
3.61927e-05
-5.36173e-05
-5.32866e-05
9.53541e-06
-1.74328e-05
1.40762e-05
-3.78689e-05
1.62761e-05
-4.53131e-05
1.7519e-05
-4.81573e-05
1.84305e-05
-4.92947e-05
1.92315e-05
-4.97381e-05
1.99956e-05
-4.9927e-05
2.07642e-05
-5.00559e-05
2.1551e-05
-5.02096e-05
2.23571e-05
-5.04191e-05
2.31782e-05
-5.0688e-05
2.40067e-05
-5.10085e-05
2.4834e-05
-5.13692e-05
2.56516e-05
-5.17578e-05
2.64514e-05
-5.21624e-05
2.72265e-05
-5.25708e-05
2.79711e-05
-5.297e-05
2.86802e-05
-5.33457e-05
2.93498e-05
-5.36815e-05
2.99771e-05
-5.3957e-05
3.05614e-05
-5.41474e-05
3.1106e-05
-5.42219e-05
3.16223e-05
-5.41336e-05
-5.3806e-05
1.18165e-05
-2.41023e-05
1.47343e-05
-4.07867e-05
1.59665e-05
-4.65454e-05
1.66671e-05
-4.88579e-05
1.72047e-05
-4.98323e-05
1.77063e-05
-5.02397e-05
1.82185e-05
-5.04392e-05
1.87608e-05
-5.05983e-05
1.9338e-05
-5.07869e-05
1.99455e-05
-5.10265e-05
2.05741e-05
-5.13166e-05
2.12137e-05
-5.16481e-05
2.18544e-05
-5.20099e-05
2.24876e-05
-5.2391e-05
2.31057e-05
-5.27806e-05
2.37028e-05
-5.31678e-05
2.4274e-05
-5.35413e-05
2.48162e-05
-5.38878e-05
2.5327e-05
-5.41923e-05
2.58061e-05
-5.44361e-05
2.62556e-05
-5.45969e-05
2.66811e-05
-5.46474e-05
2.7096e-05
-5.45484e-05
-5.4241e-05
1.37193e-05
-3.15962e-05
1.48128e-05
-4.18802e-05
1.51863e-05
-4.69189e-05
1.54767e-05
-4.91484e-05
1.57301e-05
-5.00856e-05
1.59924e-05
-5.0502e-05
1.62927e-05
-5.07395e-05
1.66408e-05
-5.09463e-05
1.70335e-05
-5.11796e-05
1.74612e-05
-5.14542e-05
1.79124e-05
-5.17677e-05
1.83757e-05
-5.21115e-05
1.88414e-05
-5.24756e-05
1.9301e-05
-5.28506e-05
1.97476e-05
-5.32272e-05
2.01762e-05
-5.35964e-05
2.0583e-05
-5.39481e-05
2.09663e-05
-5.42711e-05
2.13255e-05
-5.45516e-05
2.16626e-05
-5.47732e-05
2.19815e-05
-5.49158e-05
2.22896e-05
-5.49555e-05
2.26011e-05
-5.486e-05
-5.45854e-05
-5.8753e-07
5.8753e-07
-8.44718e-07
2.57188e-07
-2.08432e-07
-6.36286e-07
1.4435e-06
-1.65193e-06
5.58842e-06
-4.14492e-06
-7.25057e-06
1.2839e-05
-6.15217e-07
1.20275e-06
-6.15816e-07
2.57787e-07
2.52416e-07
-1.50452e-06
2.21063e-06
-3.61015e-06
5.44807e-06
-7.38236e-06
-1.23143e-05
1.05118e-05
-5.46211e-07
1.74896e-06
-3.94959e-07
1.06534e-07
5.47974e-07
-2.44745e-06
2.50448e-06
-5.56665e-06
5.40641e-06
-1.02843e-05
-1.60593e-05
9.15138e-06
-4.64295e-07
2.21325e-06
-2.31163e-07
-1.26599e-07
7.13545e-07
-3.39216e-06
2.53693e-06
-7.39003e-06
5.06546e-06
-1.28128e-05
-1.89081e-05
7.91432e-06
-3.83208e-07
2.59646e-06
-1.17578e-07
-3.92229e-07
7.69444e-07
-4.27918e-06
2.39192e-06
-9.01251e-06
4.52132e-06
-1.49422e-05
-2.1076e-05
6.68912e-06
-3.0942e-07
2.90588e-06
-4.79272e-08
-6.53721e-07
7.37998e-07
-5.06511e-06
2.1228e-06
-1.03973e-05
3.87169e-06
-1.66911e-05
-2.27003e-05
5.49607e-06
-2.45841e-07
3.15172e-06
-1.60531e-08
-8.83509e-07
6.3824e-07
-5.7194e-06
1.76825e-06
-1.15273e-05
3.15976e-06
-1.80826e-05
-2.3881e-05
4.34039e-06
-1.92991e-07
3.34471e-06
-1.5229e-08
-1.06127e-06
4.86957e-07
-6.22158e-06
1.35708e-06
-1.23974e-05
2.41285e-06
-1.91384e-05
-2.4688e-05
3.21992e-06
-1.49728e-07
3.49444e-06
-3.80224e-08
-1.17298e-06
2.99018e-07
-6.55862e-06
9.09607e-07
-1.3008e-05
1.65178e-06
-1.98805e-05
-2.51725e-05
2.13626e-06
-1.13779e-07
3.60822e-06
-7.64613e-08
-1.2103e-06
8.90723e-08
-6.72416e-06
4.41043e-07
-1.336e-05
8.8906e-07
-2.03286e-05
-2.53746e-05
1.09117e-06
-8.21239e-08
3.69035e-06
-1.22226e-07
-1.17019e-06
-1.31971e-07
-6.71441e-06
-3.3132e-08
-1.34588e-05
1.31586e-07
-2.04933e-05
-2.53212e-05
7.81237e-08
-5.13534e-08
3.7417e-06
-1.66814e-07
-1.05473e-06
-3.49568e-07
-6.53166e-06
-5.04528e-07
-1.33039e-05
-6.0017e-07
-2.03976e-05
-2.50472e-05
-8.7414e-07
-1.79472e-08
3.75965e-06
-2.01921e-07
-8.70758e-07
-5.50765e-07
-6.18281e-06
-9.55173e-07
-1.28995e-05
-1.30684e-06
-2.0046e-05
-2.4566e-05
-1.78806e-06
2.10476e-08
3.7386e-06
-2.19632e-07
-6.30079e-07
-7.23079e-07
-5.67937e-06
-1.37288e-06
-1.22497e-05
-1.9775e-06
-1.94414e-05
-2.38929e-05
-2.6506e-06
6.84426e-08
3.67016e-06
-2.12683e-07
-3.48954e-07
-8.53852e-07
-5.0382e-06
-1.7432e-06
-1.13603e-05
-2.60174e-06
-1.85828e-05
-2.30378e-05
-3.45683e-06
1.26145e-07
3.54401e-06
-1.7479e-07
-4.80179e-08
-9.30308e-07
-4.28268e-06
-2.04999e-06
-1.02406e-05
-3.16778e-06
-1.7465e-05
-2.20034e-05
-4.20218e-06
1.95818e-07
3.34819e-06
-1.01035e-07
2.48835e-07
-9.39091e-07
-3.44463e-06
-2.2742e-06
-8.90554e-06
-3.66074e-06
-1.60785e-05
-2.07825e-05
-4.88164e-06
2.7847e-07
3.06972e-06
1.12975e-08
5.16007e-07
-8.66915e-07
-2.56641e-06
-2.39332e-06
-7.37913e-06
-4.0594e-06
-1.44124e-05
-1.93518e-05
-5.49005e-06
3.73821e-07
2.6959e-06
1.61613e-07
7.28215e-07
-7.02532e-07
-1.70227e-06
-2.38068e-06
-5.70099e-06
-4.33298e-06
-1.24601e-05
-1.76633e-05
-6.02149e-06
4.77579e-07
2.21832e-06
3.42154e-07
8.6364e-07
-4.41016e-07
-9.19098e-07
-2.2027e-06
-3.93931e-06
-4.43957e-06
-1.02232e-05
-1.56367e-05
-6.46614e-06
5.40882e-07
1.67744e-06
5.35634e-07
8.68888e-07
-9.21832e-08
-2.9128e-07
-1.8149e-06
-2.21659e-06
-4.32631e-06
-7.71183e-06
-1.31719e-05
-6.79117e-06
5.84664e-07
1.09278e-06
7.27077e-07
7.26474e-07
3.36111e-07
9.96865e-08
-1.1488e-06
-7.31678e-07
-3.89462e-06
-4.96601e-06
-1.01639e-05
-6.90258e-06
6.11557e-07
4.8122e-07
8.9734e-07
4.40691e-07
7.92635e-07
2.04391e-07
-1.76071e-09
6.27184e-08
-2.82127e-06
-2.1465e-06
-6.07078e-06
-6.91441e-06
4.8122e-07
9.21911e-07
1.1263e-06
1.18902e-06
-9.57484e-07
-7.02827e-06
1.32662e-05
-3.20234e-05
1.38309e-05
-4.24448e-05
1.39887e-05
-4.70767e-05
1.40323e-05
-4.9192e-05
1.40677e-05
-5.0121e-05
1.41372e-05
-5.05715e-05
1.42603e-05
-5.08626e-05
1.44387e-05
-5.11247e-05
1.46641e-05
-5.1405e-05
1.49248e-05
-5.17149e-05
1.52086e-05
-5.20516e-05
1.55047e-05
-5.24076e-05
1.58037e-05
-5.27746e-05
1.60978e-05
-5.31447e-05
1.63812e-05
-5.35106e-05
1.66493e-05
-5.38645e-05
1.68993e-05
-5.41982e-05
1.71305e-05
-5.45022e-05
1.73439e-05
-5.4765e-05
1.75428e-05
-5.49721e-05
1.77329e-05
-5.51059e-05
1.79223e-05
-5.51449e-05
1.81263e-05
-5.5064e-05
-5.48329e-05
1.19287e-05
-3.34402e-05
1.24674e-05
-4.29836e-05
1.25303e-05
-4.71395e-05
1.2404e-05
-4.90657e-05
1.22704e-05
-4.99874e-05
1.21838e-05
-5.04849e-05
1.21547e-05
-5.08335e-05
1.21796e-05
-5.11496e-05
1.2249e-05
-5.14744e-05
1.23514e-05
-5.18173e-05
1.24754e-05
-5.21756e-05
1.26111e-05
-5.25433e-05
1.27502e-05
-5.29137e-05
1.2886e-05
-5.32805e-05
1.30132e-05
-5.36377e-05
1.31279e-05
-5.39791e-05
1.32279e-05
-5.42982e-05
1.33129e-05
-5.45873e-05
1.3385e-05
-5.4837e-05
1.34484e-05
-5.50355e-05
1.35097e-05
-5.51673e-05
1.35783e-05
-5.52134e-05
1.36706e-05
-5.51563e-05
-5.49795e-05
1.07407e-05
-3.50296e-05
1.10291e-05
-4.3272e-05
1.09111e-05
-4.70215e-05
1.06561e-05
-4.88107e-05
1.03948e-05
-4.97261e-05
1.01736e-05
-5.02637e-05
1.00041e-05
-5.0664e-05
9.88385e-06
-5.10294e-05
9.804e-06
-5.13946e-05
9.7539e-06
-5.17672e-05
9.72352e-06
-5.21452e-05
9.70432e-06
-5.25241e-05
9.68927e-06
-5.28987e-05
9.6727e-06
-5.3264e-05
9.65011e-06
-5.36151e-05
9.61821e-06
-5.39472e-05
9.57508e-06
-5.42551e-05
9.52054e-06
-5.45327e-05
9.45663e-06
-5.47731e-05
9.38787e-06
-5.49668e-05
9.32088e-06
-5.51003e-05
9.26445e-06
-5.5157e-05
9.23742e-06
-5.51293e-05
-5.50236e-05
9.29523e-06
-3.64105e-05
9.44051e-06
-4.34173e-05
9.20768e-06
-4.67887e-05
8.8491e-06
-4.84522e-05
8.47248e-06
-4.93494e-05
8.1263e-06
-4.99175e-05
7.82481e-06
-5.03625e-05
7.56602e-06
-5.07706e-05
7.34202e-06
-5.11706e-05
7.14377e-06
-5.15689e-05
6.96303e-06
-5.19645e-05
6.79294e-06
-5.2354e-05
6.62796e-06
-5.27337e-05
6.46369e-06
-5.30997e-05
6.29667e-06
-5.34481e-05
6.12438e-06
-5.3775e-05
5.94528e-06
-5.4076e-05
5.75914e-06
-5.43466e-05
5.56751e-06
-5.45815e-05
5.37424e-06
-5.47735e-05
5.18493e-06
-5.49109e-05
5.00127e-06
-5.49733e-05
4.82217e-06
-5.49502e-05
-5.4979e-05
7.77551e-06
-3.74969e-05
7.81387e-06
-4.34556e-05
7.478e-06
-4.64528e-05
7.01646e-06
-4.79906e-05
6.53072e-06
-4.88637e-05
6.06584e-06
-4.94526e-05
5.63639e-06
-4.99331e-05
5.2419e-06
-5.03761e-05
4.87628e-06
-5.0805e-05
4.53242e-06
-5.1225e-05
4.20393e-06
-5.1636e-05
3.88561e-06
-5.20357e-05
3.57341e-06
-5.24215e-05
3.26429e-06
-5.27906e-05
2.95606e-06
-5.31399e-05
2.64731e-06
-5.34662e-05
2.33753e-06
-5.37662e-05
2.0272e-06
-5.40363e-05
1.71795e-06
-5.42722e-05
1.41306e-06
-5.44686e-05
1.12121e-06
-5.46191e-05
8.67856e-07
-5.472e-05
6.80908e-07
-5.47633e-05
-5.46343e-05
6.2746e-06
-3.82754e-05
6.18698e-06
-4.3368e-05
5.7493e-06
-4.60151e-05
5.18544e-06
-4.74268e-05
4.59096e-06
-4.82692e-05
4.00838e-06
-4.887e-05
3.45242e-06
-4.93771e-05
2.92388e-06
-4.98476e-05
2.41846e-06
-5.02995e-05
1.93091e-06
-5.07375e-05
1.45654e-06
-5.11616e-05
9.91634e-07
-5.15708e-05
5.33454e-07
-5.19633e-05
8.01013e-08
-5.23372e-05
-3.69556e-07
-5.26902e-05
-8.15906e-07
-5.30199e-05
-1.25856e-06
-5.33235e-05
-1.69634e-06
-5.35985e-05
-2.12715e-06
-5.38414e-05
-2.54721e-06
-5.40485e-05
-2.94925e-06
-5.42171e-05
-3.32578e-06
-5.43434e-05
-3.69018e-06
-5.43989e-05
-5.43205e-05
4.82089e-06
-3.87559e-05
4.59053e-06
-4.31377e-05
4.0443e-06
-4.54689e-05
3.37441e-06
-4.67569e-05
2.66936e-06
-4.75642e-05
1.96859e-06
-4.81693e-05
1.28644e-06
-4.8695e-05
6.24688e-07
-4.91858e-05
-1.92435e-08
-4.96556e-05
-6.48982e-07
-5.01078e-05
-1.26772e-06
-5.05429e-05
-1.87796e-06
-5.09605e-05
-2.4815e-06
-5.13598e-05
-3.07951e-06
-5.17392e-05
-3.67261e-06
-5.20971e-05
-4.26087e-06
-5.24316e-05
-4.84388e-06
-5.27405e-05
-5.42075e-06
-5.30216e-05
-5.98993e-06
-5.32722e-05
-6.54915e-06
-5.34893e-05
-7.09642e-06
-5.36698e-05
-7.63391e-06
-5.38059e-05
-8.15896e-06
-5.38738e-05
-5.38842e-05
3.42068e-06
-3.89567e-05
3.03835e-06
-4.27553e-05
2.3767e-06
-4.48073e-05
1.59694e-06
-4.59771e-05
7.7915e-07
-4.67464e-05
-4.07208e-08
-4.73494e-05
-8.49479e-07
-4.78862e-05
-1.64379e-06
-4.83915e-05
-2.42498e-06
-4.88744e-05
-3.1952e-06
-4.93375e-05
-3.95648e-06
-4.97816e-05
-4.71036e-06
-5.02067e-05
-5.45791e-06
-5.06122e-05
-6.19983e-06
-5.09973e-05
-6.93642e-06
-5.13605e-05
-7.66766e-06
-5.17004e-05
-8.39319e-06
-5.2015e-05
-9.11222e-06
-5.23026e-05
-9.82348e-06
-5.2561e-05
-1.05252e-05
-5.27877e-05
-1.12155e-05
-5.29794e-05
-1.18921e-05
-5.31294e-05
-1.25431e-05
-5.32228e-05
-5.33019e-05
2.0758e-06
-3.88962e-05
1.53912e-06
-4.22186e-05
7.57512e-07
-4.40256e-05
-1.34907e-07
-4.50847e-05
-1.06867e-06
-4.58126e-05
-2.00928e-06
-4.64088e-05
-2.94417e-06
-4.69513e-05
-3.87005e-06
-4.74656e-05
-4.78685e-06
-4.79576e-05
-5.69551e-06
-4.84289e-05
-6.597e-06
-4.88801e-05
-7.49208e-06
-4.93116e-05
-8.38126e-06
-4.9723e-05
-9.2648e-06
-5.01137e-05
-1.01428e-05
-5.04826e-05
-1.10149e-05
-5.08282e-05
-1.18808e-05
-5.11491e-05
-1.27395e-05
-5.1444e-05
-1.35893e-05
-5.17111e-05
-1.44283e-05
-5.19487e-05
-1.52534e-05
-5.21543e-05
-1.60603e-05
-5.23225e-05
-1.68386e-05
-5.24446e-05
-5.25816e-05
7.88555e-07
-3.85936e-05
9.99228e-08
-4.153e-05
-8.05854e-07
-4.31199e-05
-1.81489e-06
-4.40757e-05
-2.86467e-06
-4.47629e-05
-3.92607e-06
-4.53474e-05
-4.98689e-06
-4.58905e-05
-6.04301e-06
-4.64095e-05
-7.09338e-06
-4.69073e-05
-8.1379e-06
-4.73844e-05
-9.17669e-06
-4.78413e-05
-1.02098e-05
-4.82784e-05
-1.12373e-05
-4.86955e-05
-1.22591e-05
-4.9092e-05
-1.32749e-05
-4.94668e-05
-1.42843e-05
-4.98187e-05
-1.52866e-05
-5.01468e-05
-1.62806e-05
-5.045e-05
-1.72644e-05
-5.07273e-05
-1.82355e-05
-5.09777e-05
-1.91902e-05
-5.11995e-05
-2.01236e-05
-5.13891e-05
-2.10266e-05
-5.15416e-05
-5.1731e-05
-4.3937e-07
-3.80761e-05
-1.27746e-06
-4.06919e-05
-2.30667e-06
-4.20907e-05
-3.43247e-06
-4.29499e-05
-4.59979e-06
-4.35955e-05
-5.78197e-06
-4.41652e-05
-6.96766e-06
-4.47048e-05
-8.15216e-06
-4.5225e-05
-9.33353e-06
-4.57259e-05
-1.05108e-05
-4.6207e-05
-1.16835e-05
-4.66687e-05
-1.28509e-05
-4.7111e-05
-1.40128e-05
-4.75337e-05
-1.51686e-05
-4.79362e-05
-1.63179e-05
-4.83175e-05
-1.74601e-05
-4.86766e-05
-1.85941e-05
-4.90128e-05
-1.97185e-05
-4.93255e-05
-2.08312e-05
-4.96146e-05
-2.19292e-05
-4.98797e-05
-2.30087e-05
-5.012e-05
-2.40646e-05
-5.03332e-05
-2.50888e-05
-5.05174e-05
-5.07551e-05
-1.60418e-06
-3.7346e-05
-2.58634e-06
-3.97098e-05
-3.73881e-06
-4.09382e-05
-4.98153e-06
-4.17071e-05
-6.26611e-06
-4.23109e-05
-7.56826e-06
-4.2863e-05
-8.87713e-06
-4.33959e-05
-1.01875e-05
-4.39146e-05
-1.14968e-05
-4.44166e-05
-1.28033e-05
-4.49005e-05
-1.41059e-05
-4.53661e-05
-1.54034e-05
-4.58134e-05
-1.66952e-05
-4.62419e-05
-1.79805e-05
-4.66509e-05
-1.92585e-05
-4.70394e-05
-2.05285e-05
-4.74066e-05
-2.17892e-05
-4.77521e-05
-2.30389e-05
-4.80758e-05
-2.42753e-05
-4.83782e-05
-2.54952e-05
-4.86598e-05
-2.66947e-05
-4.89206e-05
-2.78688e-05
-4.91591e-05
-2.90104e-05
-4.93757e-05
-4.96579e-05
-2.70471e-06
-3.64294e-05
-3.82395e-06
-3.85905e-05
-5.09713e-06
-3.9665e-05
-6.45566e-06
-4.03486e-05
-7.85637e-06
-4.09102e-05
-9.27683e-06
-4.14426e-05
-1.07065e-05
-4.19663e-05
-1.21397e-05
-4.24813e-05
-1.35733e-05
-4.2983e-05
-1.5005e-05
-4.34688e-05
-1.64331e-05
-4.39381e-05
-1.78561e-05
-4.43904e-05
-1.9273e-05
-4.4825e-05
-2.06828e-05
-4.52411e-05
-2.20844e-05
-4.56377e-05
-2.3477e-05
-4.60141e-05
-2.4859e-05
-4.63701e-05
-2.62287e-05
-4.67061e-05
-2.75834e-05
-4.70234e-05
-2.89199e-05
-4.73233e-05
-3.02344e-05
-4.76061e-05
-3.15223e-05
-4.78712e-05
-3.27774e-05
-4.81206e-05
-4.84437e-05
-3.73811e-06
-3.53419e-05
-4.98637e-06
-3.73423e-05
-6.37663e-06
-3.82748e-05
-7.84881e-06
-3.88764e-05
-9.36368e-06
-3.93954e-05
-1.09001e-05
-3.99062e-05
-1.24475e-05
-4.04189e-05
-1.39999e-05
-4.09289e-05
-1.55537e-05
-4.14292e-05
-1.71061e-05
-4.19165e-05
-1.8655e-05
-4.23892e-05