/*--------------------------------*- C++ -*----------------------------------*\
  =========                 |
  \\      /  F ield         | OpenFOAM: The Open Source CFD Toolbox
   \\    /   O peration     | Website:  https://openfoam.org
    \\  /    A nd           | Version:  11
     \\/     M anipulation  |
\*---------------------------------------------------------------------------*/
FoamFile
{
    format      ascii;
    class       surfaceVectorField;
    location    "0.46";
    object      Uf;
}
// * * * * * * * * * * * * * * * * * * * * * * * * * * * * * * * * * * * * * //

dimensions      [0 1 -1 0 0 0 0];

internalField   nonuniform List<vector> 
5640
(
(-0.0589247 0.0698024 -4.84912e-19)
(-0.0397563 0.0619486 1.23721e-19)
(-0.137422 0.111206 -2.37013e-19)
(-0.119002 0.105959 -1.15619e-19)
(-0.189525 0.134948 -6.13237e-21)
(-0.179679 0.134899 -9.10102e-20)
(-0.201136 0.139143 -7.06377e-20)
(-0.205719 0.145753 1.65214e-21)
(-0.163594 0.118566 -1.74146e-20)
(-0.201946 0.137788 -1.11311e-19)
(-0.0635564 0.087062 6.67447e-20)
(-0.0910992 -0.0494782 1.96251e-19)
(-0.0900431 0.0964325 5.04602e-19)
(-0.0594654 0.0816272 2.29531e-19)
(-0.161048 0.131152 2.64493e-20)
(-0.137814 0.126152 1.35397e-19)
(-0.193105 0.144445 -8.76932e-20)
(-0.18377 0.145253 2.61618e-20)
(-0.193759 0.135483 -3.85e-20)
(-0.197066 0.143586 1.64693e-20)
(-0.16012 0.101038 -4.26177e-20)
(-0.187613 0.117733 3.45391e-20)
(-0.101378 0.0564497 -4.18603e-21)
(-0.101623 -0.0373694 -9.97581e-20)
(-0.0984862 0.111879 -1.31727e-19)
(-0.0700483 0.0990747 -1.24298e-19)
(-0.160864 0.141692 1.37688e-19)
(-0.140213 0.140608 8.45524e-20)
(-0.187004 0.145856 1.29845e-19)
(-0.179669 0.152163 6.48756e-20)
(-0.185653 0.126259 8.66078e-20)
(-0.189091 0.141299 5.74465e-21)
(-0.160617 0.078865 6.60337e-20)
(-0.179701 0.103873 3.0785e-20)
(-0.128171 0.0370509 9.53821e-21)
(-0.122907 -0.0338104 -5.41892e-23)
(-0.104636 0.125766 7.99329e-20)
(-0.0803211 0.115327 5.05582e-20)
(-0.159388 0.151014 1.24256e-20)
(-0.141545 0.152721 4.19432e-20)
(-0.182029 0.147991 -5.71646e-20)
(-0.176415 0.158253 -3.08271e-20)
(-0.181059 0.120055 -5.06475e-20)
(-0.184266 0.140272 -1.30597e-21)
(-0.164567 0.0657685 -2.15794e-20)
(-0.177399 0.0959031 -2.15309e-20)
(-0.148747 0.0278051 -2.03151e-20)
(-0.144799 -0.0292415 6.17219e-21)
(-0.111232 0.139954 1.30788e-20)
(-0.0916818 0.130212 7.46497e-21)
(-0.158696 0.159525 1.78704e-21)
(-0.143408 0.162854 7.09842e-21)
(-0.178954 0.150931 2.40266e-20)
(-0.174287 0.164013 -9.05041e-21)
(-0.179691 0.1174 2.8358e-20)
(-0.1819 0.140934 1.12224e-20)
(-0.170728 0.0602452 -1.98461e-20)
(-0.178649 0.0929178 -8.09168e-23)
(-0.164794 0.0259408 -5.18931e-20)
(-0.16334 -0.0227846 -2.87154e-20)
(-0.118969 0.151147 1.3703e-21)
(-0.103734 0.143608 -1.13671e-21)
(-0.158892 0.166974 -3.1841e-21)
(-0.14593 0.171012 -1.32998e-19)
(-0.17734 0.154652 -2.25367e-20)
(-0.172916 0.169678 -1.81068e-20)
(-0.180324 0.117862 -1.68444e-20)
(-0.181067 0.143413 -1.17002e-20)
(-0.177497 0.0603068 -3.10459e-20)
(-0.181596 0.0940168 7.60695e-20)
(-0.177183 0.0292088 -8.01907e-20)
(-0.177795 -0.0144436 -6.71775e-20)
(-0.126889 0.160555 -1.28033e-19)
(-0.113094 0.155965 2.70101e-19)
(-0.159588 0.173403 -1.53095e-19)
(-0.148225 0.177416 1.52937e-19)
(-0.176546 0.159229 -7.43283e-21)
(-0.171745 0.175407 6.85494e-21)
(-0.181875 0.12105 7.88367e-20)
(-0.180954 0.147714 9.46592e-20)
(-0.183795 0.0644101 3.04572e-20)
(-0.184911 0.0985035 -9.16917e-20)
(-0.186414 0.0361073 -7.32916e-20)
(-0.188387 -0.00454029 -1.54606e-20)
(-0.131969 0.171015 5.57965e-19)
(-0.117838 0.167551 1.8551e-20)
(-0.159769 0.179325 3.19099e-19)
(-0.149219 0.182972 4.12339e-19)
(-0.175912 0.164776 1.05962e-19)
(-0.17027 0.181465 2.53818e-19)
(-0.18348 0.126668 -7.04243e-20)
(-0.180872 0.153812 2.44235e-20)
(-0.18885 0.0715875 -1.96047e-19)
(-0.187649 0.105887 7.62403e-20)
(-0.192605 0.0458131 3.48754e-20)
(-0.195416 0.00661275 -1.42758e-20)
(-0.133907 0.179627 -1.47548e-19)
(-0.120616 0.177622 -2.53834e-19)
(-0.158911 0.185207 3.53888e-19)
(-0.148725 0.188354 -1.69463e-19)
(-0.174913 0.171415 1.80015e-19)
(-0.168183 0.188098 1.6312e-20)
(-0.184462 0.134507 1.70012e-19)
(-0.180272 0.161664 -7.02307e-20)
(-0.192063 0.0814139 3.07671e-19)
(-0.189154 0.115812 6.02564e-20)
(-0.195652 0.0579318 7.35791e-20)
(-0.198839 0.0191168 4.30464e-20)
(-0.134722 0.186314 -2.80707e-19)
(-0.123079 0.185554 -2.47685e-20)
(-0.156989 0.191348 -5.14884e-19)
(-0.146865 0.193659 -2.79561e-19)
(-0.173185 0.179222 -2.31018e-19)
(-0.165275 0.195444 3.88863e-21)
(-0.184323 0.144403 -1.83332e-19)
(-0.178735 0.17121 -1.95984e-19)
(-0.193038 0.0935893 -1.74251e-19)
(-0.188975 0.128038 -1.8862e-19)
(-0.195451 0.0722912 1.9145e-20)
(-0.198515 0.0331198 -1.54362e-19)
(-0.134719 0.19215 -8.57198e-21)
(-0.124791 0.19127 -1.65264e-20)
(-0.153961 0.197853 2.2715e-19)
(-0.143694 0.198914 -9.26996e-21)
(-0.170446 0.188221 4.56756e-20)
(-0.161357 0.203572 -1.86762e-19)
(-0.182702 0.156226 -2.01479e-19)
(-0.175955 0.182373 1.75786e-19)
(-0.191505 0.107959 0)
(-0.186815 0.142402 0)
(-0.191925 0.0888454 0)
(-0.194302 0.0488318 1.78856e-19)
(-0.133668 0.196963 -1.72924e-20)
(-0.125327 0.194767 5.35503e-19)
(-0.14973 0.204742 -4.16024e-19)
(-0.139193 0.204126 -3.13828e-19)
(-0.166478 0.19839 -6.89974e-20)
(-0.156284 0.212498 -4.16292e-19)
(-0.179359 0.169866 3.82194e-19)
(-0.171728 0.195062 1.70764e-19)
(-0.187301 0.124444 0)
(-0.182512 0.158771 1.86131e-19)
(-0.185053 0.107596 0)
(-0.186085 0.0664786 0)
(-0.131045 0.200722 2.87967e-19)
(-0.124133 0.196152 -6.8602e-22)
(-0.144255 0.211984 -3.10144e-19)
(-0.133385 0.209311 2.21676e-20)
(-0.161148 0.209677 -1.96482e-19)
(-0.149956 0.222179 2.17975e-19)
(-0.17417 0.185206 -2.5736e-20)
(-0.165955 0.209151 -2.01012e-19)
(-0.180375 0.142976 1.90593e-19)
(-0.176032 0.177001 1.89801e-19)
(-0.174915 0.128514 2.24452e-19)
(-0.173806 0.0862252 0)
(-0.127146 0.20315 -2.67398e-19)
(-0.120293 0.196114 2.04377e-20)
(-0.137422 0.219567 5.42791e-19)
(-0.126248 0.214321 3.0831e-19)
(-0.15439 0.221986 2.27573e-19)
(-0.142341 0.232534 2.50553e-19)
(-0.167131 0.202095 3.46652e-21)
(-0.158651 0.224464 -5.30492e-20)
(-0.170819 0.163439 2.22723e-19)
(-0.167477 0.196909 -1.66285e-19)
(-0.161762 0.151472 4.24787e-20)
(-0.157534 0.108074 2.39109e-19)
(-0.121057 0.205363 5.78732e-19)
(-0.110641 0.197407 5.62477e-19)
(-0.129311 0.227438 1.91816e-20)
(-0.118003 0.219102 -3.19747e-19)
(-0.146257 0.235147 -2.00369e-20)
(-0.133506 0.243387 3.07778e-19)
(-0.158359 0.220322 -2.20082e-19)
(-0.149944 0.240734 -2.98279e-19)
(-0.158884 0.185676 -3.51851e-19)
(-0.157066 0.218233 -1.6999e-19)
(-0.146184 0.176283 -1.82153e-19)
(-0.137683 0.131632 -2.12423e-19)
(-0.110077 0.209079 -2.81164e-19)
(-0.0957855 0.199632 -4.2786e-19)
(-0.120243 0.235573 -5.78533e-20)
(-0.109668 0.223623 2.49262e-20)
(-0.136896 0.248888 4.95102e-20)
(-0.12367 0.254363 1.15234e-20)
(-0.148105 0.239577 -2.52106e-19)
(-0.140029 0.257607 1.99469e-19)
(-0.145123 0.20932 0)
(-0.145193 0.240654 -2.07904e-19)
(-0.129072 0.202391 -2.48397e-19)
(-0.114442 0.15628 -5.69117e-20)
(-0.0970065 0.210549 -1.48883e-19)
(-0.0833428 0.195396 -4.25582e-19)
(-0.110842 0.243179 9.55385e-20)
(-0.102007 0.226749 3.24173e-19)
(-0.126514 0.262754 1.54969e-19)
(-0.113043 0.264772 -2.65711e-19)
(-0.136703 0.259445 2.55072e-19)
(-0.129067 0.274696 2.1761e-19)
(-0.130145 0.233888 -4.5533e-19)
(-0.132387 0.263728 -2.1015e-19)
(-0.1116 0.228652 -2.51022e-19)
(-0.0876811 0.181146 -2.67658e-19)
(-0.0888667 0.206315 2.94031e-21)
(-0.0749487 0.183096 3.25384e-20)
(-0.101529 0.24902 -1.04703e-20)
(-0.0942596 0.22685 -4.106e-20)
(-0.115229 0.276165 -2.19367e-19)
(-0.101562 0.27376 2.82131e-19)
(-0.12449 0.279548 -2.35739e-19)
(-0.117166 0.291544 -2.27037e-19)
(-0.115029 0.258618 -5.09543e-21)
(-0.119273 0.28724 -5.9699e-20)
(-0.0959285 0.253855 4.6391e-19)
(-0.0586166 0.203529 -3.14712e-21)
(-0.0813191 0.197887 -9.79943e-21)
(-0.0667443 0.167032 4.50739e-19)
(-0.0916859 0.252203 2.35996e-19)
(-0.085734 0.223409 -5.2422e-20)
(-0.102997 0.288438 2.91662e-19)
(-0.0889541 0.280627 2.46853e-20)
(-0.111785 0.299619 -5.59332e-20)
(-0.104425 0.307431 -2.1354e-19)
(-0.101222 0.283189 3.95169e-19)
(-0.106247 0.311648 3.63361e-19)
(-0.0847865 0.276611 1.96008e-19)
(-0.0276673 0.221169 7.89726e-19)
(-0.0721924 0.186035 4.3584e-19)
(-0.0576529 0.14898 -4.30138e-19)
(-0.080663 0.252214 -2.71073e-19)
(-0.076016 0.216163 -3.70379e-19)
(-0.0896155 0.298812 -4.72961e-19)
(-0.0748745 0.28483 -2.57921e-19)
(-0.0987592 0.319584 1.8924e-19)
(-0.0907002 0.321343 3.91635e-20)
(-0.0901764 0.308404 1.71935e-19)
(-0.0930785 0.338355 4.22026e-19)
(-0.0813269 0.296666 -2.64904e-19)
(0.00584041 0.231249 -7.76563e-19)
(-0.0617147 0.171284 -1.24227e-18)
(-0.0477582 0.129578 6.92062e-20)
(-0.0681519 0.248849 -3.63823e-19)
(-0.0647342 0.204879 -1.15936e-20)
(-0.0747888 0.306579 2.44979e-19)
(-0.0590006 0.285864 5.77891e-20)
(-0.0849269 0.33944 2.62634e-19)
(-0.0755168 0.331647 2.21004e-19)
(-0.0817096 0.337219 2.08642e-21)
(-0.0779085 0.369743 -1.74996e-19)
(-0.0862306 0.317872 1.26565e-19)
(0.0449832 0.236858 2.4606e-19)
(-0.0520077 0.154875 1.30169e-18)
(-0.0377368 0.108371 6.68737e-19)
(-0.0545086 0.242157 4.04147e-19)
(-0.0518149 0.188799 1.24153e-19)
(-0.0586946 0.31066 2.96837e-20)
(-0.0414715 0.282656 3.67504e-20)
(-0.0689822 0.358743 -2.06581e-19)
(-0.0584691 0.334281 -5.19022e-20)
(-0.069576 0.374485 -1.63029e-20)
(-0.0562441 0.407371 -1.80772e-19)
(-0.0845392 0.339953 -4.99057e-21)
(0.119243 0.269395 2.31642e-19)
(-0.0424668 0.133925 -4.69997e-19)
(-0.0317751 0.0750978 -2.54111e-19)
(-0.0400021 0.230867 -2.41605e-19)
(-0.040637 0.155812 1.99113e-19)
(-0.0423241 0.307423 -4.14368e-20)
(-0.02612 0.264887 1.1857e-20)
(-0.0497945 0.374198 -1.46914e-20)
(-0.0418271 0.313335 1.27464e-21)
(-0.0462865 0.420499 -1.94744e-19)
(-0.0248653 0.443439 -1.69733e-19)
(-0.0702958 0.341155 -1.57223e-19)
(0.23352 0.333465 -3.66367e-19)
(-0.0326729 0.0855152 3.85076e-19)
(-0.0256513 0.192518 4.56114e-19)
(-0.0239446 0.271699 5.52065e-20)
(-0.0219783 0.362211 -1.56762e-19)
(-0.0177122 0.445818 -1.71089e-19)
(0.341124 0.395941 1.27245e-19)
(-0.266081 -0.196005 1.336e-20)
(-0.191019 -0.192521 1.10364e-20)
(-0.302347 -0.225199 2.40975e-19)
(-0.271194 -0.151691 -9.10942e-20)
(-0.267129 -0.176675 -4.23881e-20)
(-0.312214 -0.172639 1.33189e-20)
(-0.230503 -0.0927389 6.18192e-20)
(-0.252872 -0.127611 -5.24818e-20)
(-0.263048 -0.109474 3.75226e-20)
(-0.165375 -0.0358742 6.40439e-20)
(-0.207358 -0.0753074 4.94952e-20)
(-0.192178 -0.0458535 -1.00642e-19)
(-0.08604 0.0160858 7.96402e-20)
(-0.142906 -0.0257548 -2.36132e-20)
(-0.105387 0.0124598 0)
(0.000672111 0.0624812 5.07977e-20)
(-0.0677967 0.0197907 4.18507e-20)
(-0.0100106 0.0642746 5.92722e-20)
(0.0897217 0.103048 -5.82674e-20)
(0.0124338 0.0608955 -3.975e-22)
(0.0884231 0.109209 -5.00446e-20)
(0.177383 0.137631 -2.68817e-20)
(0.0936622 0.0972466 -2.65649e-20)
(0.185605 0.147142 -1.0033e-22)
(0.26097 0.166182 0)
(0.172852 0.128607 0)
(0.278365 0.178099 2.00799e-20)
(0.338735 0.188808 -1.22482e-20)
(0.247842 0.154832 0)
(0.364628 0.202303 -1.89001e-20)
(0.409651 0.205756 -2.13527e-20)
(0.317248 0.17594 -6.24415e-21)
(0.443204 0.220119 -2.19264e-23)
(0.473249 0.217355 -7.48028e-22)
(0.380266 0.192051 -2.1898e-20)
(0.513524 0.232014 -2.06446e-20)
(0.529485 0.224027 8.56428e-21)
(0.436546 0.203387 1.64957e-20)
(0.575547 0.238526 8.48974e-21)
(0.578628 0.226266 -7.13098e-21)
(0.486105 0.210267 -7.40912e-21)
(0.629609 0.240248 6.34455e-21)
(0.621171 0.224608 4.30152e-21)
(0.529218 0.213073 -2.63005e-21)
(0.676288 0.23781 -7.19095e-21)
(0.657769 0.219594 5.44191e-21)
(0.566349 0.212215 1.03868e-20)
(0.71633 0.231859 6.4141e-21)
(0.689184 0.21175 -7.79678e-21)
(0.598112 0.208116 -4.20477e-21)
(0.750596 0.223028 -1.46497e-21)
(0.716212 0.201615 -1.16683e-21)
(0.625232 0.201234 -4.95467e-21)
(0.779971 0.211914 2.36248e-21)
(0.739648 0.189744 0)
(0.648491 0.192046 1.41226e-21)
(0.805294 0.199101 -1.95508e-21)
(0.760268 0.176652 0)
(0.668694 0.181004 3.12882e-22)
(0.827432 0.185144 0)
(0.778801 0.162887 -1.11963e-21)
(0.686593 0.168563 -3.58229e-22)
(0.846981 0.170571 0)
(0.795894 0.148891 -1.42903e-22)
(0.703027 0.155326 -1.17292e-21)
(0.865214 0.155876 -2.86841e-22)
(0.811808 0.134618 6.77386e-22)
(0.718171 0.141915 1.0838e-21)
(0.881234 0.141573 8.71418e-22)
(0.73158 0.128432 -5.65884e-22)
(0.901265 0.125909 2.68522e-23)
(-0.217151 -0.174941 -6.51859e-20)
(-0.164764 -0.156964 -1.1385e-19)
(-0.249201 -0.153411 -4.05358e-21)
(-0.2419 -0.164532 1.02911e-19)
(-0.231321 -0.111063 -6.60132e-20)
(-0.24488 -0.135727 -2.62331e-20)
(-0.186459 -0.0661472 -3.69393e-20)
(-0.216219 -0.097742 1.5389e-20)
(-0.126191 -0.0228982 -6.27174e-20)
(-0.168296 -0.0586544 -3.40016e-22)
(-0.0573718 0.0174849 -8.82932e-21)
(-0.109318 -0.0207345 -3.93432e-20)
(0.0152473 0.0544901 3.19048e-20)
(-0.0445549 0.0152411 3.15001e-20)
(0.088196 0.0877101 0)
(0.0222288 0.0487156 0)
(0.158948 0.116797 0)
(0.0882856 0.0791954 0)
(0.225707 0.141519 6.44505e-21)
(0.151607 0.10628 -6.58264e-21)
(0.287304 0.161778 -6.25227e-21)
(0.210795 0.129687 1.82362e-20)
(0.343067 0.177592 -5.26776e-21)
(0.26496 0.149231 -1.27281e-20)
(0.392723 0.189088 7.32128e-22)
(0.313601 0.16483 8.74362e-21)
(0.436292 0.196487 -3.00899e-21)
(0.356568 0.176537 -4.04856e-23)
(0.474023 0.200057 3.22106e-21)
(0.393953 0.184465 2.40653e-21)
(0.506349 0.20011 2.03038e-21)
(0.426058 0.188766 -3.97213e-22)
(0.533862 0.197003 6.90194e-22)
(0.453314 0.189595 3.45417e-21)
(0.557259 0.191105 -1.36707e-21)
(0.47633 0.187158 -3.53004e-21)
(0.577314 0.182767 1.73247e-21)
(0.495826 0.181697 2.47077e-21)
(0.594828 0.172366 -9.27914e-23)
(0.51261 0.173479 3.12882e-22)
(0.610578 0.160444 -5.465e-22)
(0.527532 0.162889 -6.24746e-22)
(0.625238 0.147724 1.64503e-22)
(0.541319 0.150647 -1.58413e-22)
(0.63912 0.134868 6.88088e-21)
(0.553775 0.137946 6.45319e-23)
(0.561592 0.126309 -5.50834e-22)
(-0.203822 -0.148405 5.2564e-20)
(-0.167327 -0.126475 -6.00282e-21)
(-0.237762 -0.147934 8.43185e-20)
(-0.231332 -0.149759 5.4947e-20)
(-0.231318 -0.123037 5.51573e-20)
(-0.239798 -0.139041 2.64384e-20)
(-0.199533 -0.0909847 5.25067e-20)
(-0.220642 -0.115569 3.07902e-20)
(-0.152816 -0.0572769 2.3815e-20)
(-0.183251 -0.0873988 2.20731e-20)
(-0.0977034 -0.0237593 0)
(-0.135435 -0.0575345 -1.1007e-21)
(-0.0385671 0.00872496 0)
(-0.0821108 -0.0272115 0)
(0.0215065 0.0395147 0)
(-0.0266752 0.00271408 -1.27045e-21)
(0.080281 0.0680442 -6.50939e-21)
(0.028443 0.0315205 2.02914e-22)
(0.136147 0.0938487 5.15271e-21)
(0.0814996 0.0585899 -6.05763e-21)
(0.187983 0.116557 1.26683e-20)
(0.131275 0.0834175 1.20087e-20)
(0.235074 0.1359 1.2337e-21)
(0.176955 0.105572 -5.9632e-22)
(0.277078 0.151722 8.37605e-21)
(0.217984 0.124675 1.59697e-21)
(0.313904 0.163971 5.68803e-21)
(0.25421 0.14054 7.87214e-21)
(0.345687 0.172653 -8.03181e-22)
(0.285687 0.153004 -2.05417e-21)
(0.372739 0.177771 1.38971e-21)
(0.31267 0.161953 8.23243e-22)
(0.395529 0.179331 -4.12414e-22)
(0.335576 0.167253 5.31546e-22)
(0.414684 0.177419 9.431e-22)
(0.354947 0.168791 -3.78176e-22)
(0.430947 0.172184 1.3306e-21)
(0.371419 0.166523 1.34786e-21)
(0.445117 0.163877 -1.34748e-22)
(0.385722 0.160493 1.83914e-23)
(0.457988 0.153036 1.19637e-22)
(0.398641 0.151 -1.49212e-22)
(0.470253 0.140671 -7.81365e-22)
(0.410716 0.13888 -1.05836e-22)
(0.482312 0.128178 -6.52758e-21)
(0.421134 0.125803 -2.48427e-23)
(0.426869 0.114394 5.37054e-22)
(-0.203676 -0.127318 -2.3546e-21)
(-0.177749 -0.101952 2.85428e-21)
(-0.232898 -0.141384 -2.32423e-21)
(-0.228041 -0.13637 -2.21701e-20)
(-0.230475 -0.132014 2.0742e-21)
(-0.236038 -0.140761 1.87085e-22)
(-0.20567 -0.112429 5.02303e-22)
(-0.220594 -0.130893 -8.54506e-21)
(-0.167127 -0.088182 -2.49046e-21)
(-0.188465 -0.113373 -1.88859e-20)
(-0.120912 -0.0615691 -1.11603e-21)
(-0.146938 -0.091445 1.72439e-20)
(-0.071084 -0.0338203 -1.25413e-21)
(-0.100597 -0.0667716 -1.03724e-20)
(-0.0204321 -0.00586785 -1.08048e-21)
(-0.0525452 -0.0405297 1.1324e-21)
(0.0291092 0.0215131 7.20709e-22)
(-0.00493506 -0.0137068 -2.05001e-21)
(0.076187 0.0476673 5.30489e-22)
(0.0407791 0.012865 3.74388e-21)
(0.119876 0.072019 -1.13224e-21)
(0.0836498 0.0384812 -5.23812e-22)
(0.15955 0.0940082 -3.15573e-22)
(0.123079 0.0625474 -4.60517e-21)
(0.19485 0.113199 1.00085e-21)
(0.158714 0.0844831 2.06039e-21)
(0.225755 0.1293 2.35736e-22)
(0.190423 0.103746 -2.01229e-21)
(0.252449 0.142025 -4.50596e-22)
(0.218284 0.119897 8.70575e-22)
(0.275304 0.151109 -3.22992e-23)
(0.242534 0.132524 -1.49407e-21)
(0.294802 0.156302 5.72381e-22)
(0.263566 0.141253 1.12269e-21)
(0.311501 0.157386 6.34096e-23)
(0.281818 0.14576 -4.40804e-22)
(0.326016 0.154242 4.45238e-23)
(0.29779 0.145802 4.94331e-22)
(0.338967 0.146991 5.00259e-24)
(0.312024 0.141314 3.73972e-23)
(0.350926 0.136192 -1.15929e-22)
(0.325054 0.132578 -3.61166e-23)
(0.362404 0.123143 -2.22468e-22)
(0.337136 0.120458 -1.21987e-22)
(0.373724 0.11049 1.35795e-22)
(0.347515 0.10686 1.19629e-22)
(0.354945 0.095827 -4.00149e-23)
(-0.207603 -0.110393 -1.63613e-20)
(-0.188752 -0.0819051 -3.86355e-20)
(-0.230521 -0.135751 -2.01714e-20)
(-0.227219 -0.125125 6.25982e-23)
(-0.227424 -0.139848 -1.0186e-20)
(-0.231474 -0.142512 -3.3319e-20)
(-0.20459 -0.132101 -2.78629e-20)
(-0.21498 -0.145183 3.03196e-20)
(-0.169455 -0.116946 4.49856e-22)
(-0.183546 -0.137701 1.48564e-20)
(-0.127611 -0.0969883 8.28268e-21)
(-0.14385 -0.123263 1.75488e-20)
(-0.0828382 -0.0738306 -8.13364e-21)
(-0.100245 -0.103903 -1.09181e-20)
(-0.0376638 -0.0487094 1.93866e-22)
(-0.055601 -0.081145 1.14598e-20)
(0.00625114 -0.0226716 9.05972e-22)
(-0.0118013 -0.0562807 -1.07371e-20)
(0.0478592 0.0033877 2.75372e-21)
(0.0299845 -0.0304223 3.21979e-21)
(0.0865395 0.028706 -3.92529e-21)
(0.0690891 -0.00451408 3.21199e-21)
(0.121996 0.0526516 -2.29842e-21)
(0.105162 0.0206096 -2.53013e-21)
(0.154065 0.0745705 -9.20316e-22)
(0.138127 0.0442841 -1.37068e-21)
(0.182747 0.0937952 -1.44829e-21)
(0.167955 0.0658018 -2.16501e-21)
(0.208187 0.109765 -1.77912e-22)
(0.194776 0.0845356 7.46765e-22)
(0.230638 0.121977 -3.53068e-22)
(0.218795 0.0998887 -9.38059e-22)
(0.250438 0.129988 8.55077e-23)
(0.240279 0.111313 2.01425e-21)
(0.267979 0.133444 -7.67383e-23)
(0.259533 0.118329 -7.88699e-22)
(0.283668 0.132154 4.15837e-22)
(0.276875 0.120576 1.0867e-23)
(0.29789 0.126218 -4.9742e-24)
(0.292625 0.117916 8.21932e-23)
(0.310977 0.116248 -3.58422e-23)
(0.307057 0.110603 -8.33031e-23)
(0.323146 0.103857 -6.26646e-23)
(0.32033 0.0995491 5.91828e-22)
(0.334287 0.0925455 -2.4835e-23)
(0.332514 0.087072 -1.26478e-23)
(0.34416 0.0781727 -1.21846e-23)
(-0.211756 -0.0961452 -2.30672e-20)
(-0.197802 -0.064677 1.78072e-20)
(-0.227658 -0.131552 -1.23105e-20)
(-0.225918 -0.115775 3.93457e-20)
(-0.220243 -0.147824 6.00036e-21)
(-0.223804 -0.145085 -8.51812e-20)
(-0.195156 -0.150957 7.31921e-20)
(-0.202284 -0.159271 -4.11364e-20)
(-0.159113 -0.14428 3.20648e-20)
(-0.167344 -0.161115 -8.9868e-21)
(-0.117448 -0.130479 -1.52778e-21)
(-0.125365 -0.153518 2.27026e-21)
(-0.0737545 -0.111525 8.39023e-21)
(-0.0806003 -0.138876 2.49368e-20)
(-0.0303157 -0.0890038 7.34491e-22)
(-0.0357276 -0.119126 -1.59835e-21)
(0.0114797 -0.0642757 -8.57861e-21)
(0.00765567 -0.0959133 -1.47187e-20)
(0.0508547 -0.0385046 3.69683e-21)
(0.0486783 -0.0706545 -1.27182e-20)
(0.0874267 -0.012681 4.66487e-21)
(0.0869398 -0.0445303 -7.89736e-22)
(0.121048 0.0123396 -1.64834e-21)
(0.122323 -0.0185377 6.81383e-21)
(0.151776 0.0358061 -2.5944e-21)
(0.154904 0.00646557 -5.41373e-21)
(0.17976 0.0570184 0)
(0.18486 0.0296698 1.66157e-21)
(0.205176 0.075303 0)
(0.212403 0.0504061 9.94921e-22)
(0.228241 0.0900249 1.04042e-21)
(0.237775 0.067997 -9.50843e-22)
(0.24919 0.100605 8.70761e-22)
(0.261212 0.0818325 6.97758e-22)
(0.268256 0.106561 -6.03436e-22)
(0.282943 0.0913763 1.12928e-22)
(0.285665 0.107584 -3.23252e-22)
(0.303171 0.0962037 -5.3918e-22)
(0.301629 0.103687 1.55912e-22)
(0.322073 0.0960929 -3.32242e-22)
(0.316322 0.095436 -5.93084e-23)
(0.339747 0.0911914 -4.29242e-23)
(0.32983 0.0844482 3.86207e-23)
(0.356371 0.0823223 -2.54827e-22)
(0.342048 0.0744148 0)
(0.372772 0.0718018 -2.08431e-22)
(0.391013 0.0645852 8.38742e-22)
(-0.214079 -0.0836277 7.98772e-20)
(-0.203916 -0.0490214 7.17109e-20)
(-0.221852 -0.128749 -3.07497e-20)
(-0.222009 -0.107831 3.93666e-20)
(-0.207085 -0.156433 -1.33116e-19)
(-0.210937 -0.148569 -7.12628e-20)
(-0.175825 -0.169534 -1.23891e-19)
(-0.18065 -0.173517 -5.2579e-20)
(-0.134843 -0.170568 -3.82522e-20)
(-0.138067 -0.183872 1.82888e-21)
(-0.0895151 -0.162171 2.86306e-20)
(-0.0898883 -0.182239 -1.51021e-20)
(-0.0433339 -0.146736 1.5113e-20)
(-0.0404043 -0.171444 2.54802e-20)
(0.00166751 -0.126275 -1.69426e-20)
(0.00790178 -0.153957 -4.40911e-20)
(0.0444115 -0.102498 -1.89051e-20)
(0.0537707 -0.131844 9.72842e-21)
(0.0844179 -0.0768423 -1.74458e-20)
(0.0966831 -0.106839 -6.36801e-22)
(0.121565 -0.0505083 1.21176e-21)
(0.136561 -0.0803494 2.5192e-21)
(0.155948 -0.0245068 3.21869e-21)
(0.173573 -0.0535404 2.65689e-21)
(0.187788 0.000292531 -1.21988e-21)
(0.208015 -0.0273961 -1.347e-21)
(0.217329 0.0231057 2.66205e-21)
(0.240217 -0.00275902 -1.98501e-21)
(0.244854 0.0432209 1.76643e-22)
(0.270521 0.019636 2.44284e-21)
(0.270623 0.0599886 -1.306e-21)
(0.299251 0.0391111 -9.50843e-22)
(0.294871 0.072831 -2.33936e-22)
(0.326685 0.0550562 -4.59374e-22)
(0.317795 0.0812626 -1.25518e-23)
(0.353052 0.0669426 3.87982e-22)
(0.339556 0.0849417 -5.4955e-22)
(0.378525 0.0743334 -1.18877e-22)
(0.360291 0.0837829 1.81161e-22)
(0.403203 0.0769418 1.3756e-21)
(0.380044 0.0781882 -2.37134e-22)
(0.427061 0.0748715 2.19988e-21)
(0.398809 0.0695709 -1.71797e-21)
(0.450277 0.0687104 -2.9778e-21)
(0.416375 0.0611277 -1.14583e-20)
(0.473717 0.0605821 -2.08431e-22)
(0.500928 0.055152 8.38742e-22)
(-0.213198 -0.0722639 3.19758e-20)
(-0.206598 -0.0341124 -1.22615e-20)
(-0.211201 -0.126878 1.53987e-21)
(-0.213981 -0.100755 4.20049e-20)
(-0.185968 -0.165495 9.27869e-21)
(-0.19099 -0.152719 5.09243e-20)
(-0.144467 -0.187947 7.35437e-20)
(-0.147813 -0.187899 2.94138e-20)
(-0.09451 -0.195777 2.5131e-20)
(-0.0932869 -0.205761 4.31859e-20)
(-0.0418641 -0.191785 -1.84212e-20)
(-0.0350654 -0.208877 1.4435e-20)
(0.0100186 -0.178919 -3.30063e-20)
(0.0224006 -0.200696 2.36093e-20)
(0.0593967 -0.159729 -1.79865e-20)
(0.0768929 -0.184388 -3.04799e-20)
(0.105575 -0.136319 2.77363e-20)
(0.12758 -0.162535 2.83518e-20)
(0.148457 -0.110408 1.85448e-20)
(0.174409 -0.137216 2.08035e-20)
(0.188265 -0.0833874 3.46181e-21)
(0.217718 -0.110061 1.4541e-20)
(0.225375 -0.0563977 -2.28301e-21)
(0.258013 -0.0823716 -6.73857e-21)
(0.260218 -0.0303834 -2.11045e-21)
(0.295845 -0.0552123 5.02774e-21)
(0.293215 -0.00614663 -2.1309e-21)
(0.331743 -0.0294495 -4.33117e-21)
(0.32476 0.0156035 1.45942e-21)
(0.366217 -0.00581272 -2.77269e-22)
(0.355196 0.034232 7.46378e-23)
(0.399692 0.0150509 -1.15461e-21)
(0.384795 0.0491847 7.57533e-23)
(0.432501 0.0325785 7.5208e-23)
(0.413756 0.060001 0)
(0.464888 0.0462988 0)
(0.442194 0.0663368 1.79631e-21)
(0.496992 0.0558403 -1.2109e-21)
(0.470138 0.0680387 3.15914e-21)
(0.528854 0.0609553 -9.82453e-22)
(0.497592 0.0653296 -1.71783e-21)
(0.560357 0.0616114 4.84131e-21)
(0.524445 0.059271 -2.29363e-21)
(0.591689 0.0582345 -5.03675e-21)
(0.550409 0.0524066 0)
(0.622995 0.0524472 5.36714e-21)
(0.660599 0.0490755 -1.87615e-21)
(-0.208239 -0.0613595 -2.87634e-21)
(-0.205424 -0.0192365 -2.36408e-19)
(-0.194261 -0.125604 9.13958e-20)
(-0.200728 -0.0939952 6.49923e-20)
(-0.154714 -0.174906 7.16235e-20)
(-0.16207 -0.157216 1.82045e-19)
(-0.0985357 -0.205866 0)
(-0.10116 -0.202046 -1.1838e-19)
(-0.0354711 -0.219176 3.21079e-20)
(-0.0300904 -0.226062 0)
(0.0279642 -0.218081 5.63378e-20)
(0.0419933 -0.232207 -1.79857e-22)
(0.0883573 -0.206353 2.65938e-20)
(0.110444 -0.224898 -2.11576e-22)
(0.144387 -0.187264 1.54292e-20)
(0.173436 -0.208245 4.84092e-20)
(0.195882 -0.163405 2.13176e-20)
(0.230694 -0.185475 -3.25552e-20)
(0.243246 -0.136769 1.63253e-20)
(0.282773 -0.159045 8.46342e-21)
(0.287108 -0.108887 4.39156e-21)
(0.330508 -0.130785 2.05736e-21)
(0.328161 -0.0809775 -9.18251e-22)
(0.374824 -0.102072 -1.4352e-21)
(0.367082 -0.0540304 2.63713e-21)
(0.416572 -0.0740022 3.17514e-21)
(0.404492 -0.0288445 -2.60213e-21)
(0.456545 -0.0474366 6.15659e-22)
(0.440926 -0.00608656 -2.19345e-21)
(0.495425 -0.0230592 2.20158e-21)
(0.476806 0.0136765 -1.16337e-21)
(0.533723 -0.00144408 3.03353e-21)
(0.512438 0.029969 0)
(0.571815 0.0169437 -9.7096e-21)
(0.548008 0.0424102 -1.20248e-21)
(0.609937 0.0317364 6.01118e-21)
(0.583588 0.0507197 -4.32823e-21)
(0.648166 0.0426616 -3.2517e-21)
(0.619151 0.0547781 8.63428e-22)
(0.686518 0.0495496 -1.24447e-21)
(0.65457 0.054685 -2.46219e-23)
(0.724705 0.0523658 6.75997e-21)
(0.689606 0.0512504 1.57318e-21)
(0.763184 0.0514764 -3.10094e-21)
(0.723741 0.0462751 3.88118e-20)
(0.80018 0.0478074 3.58143e-21)
(0.84804 0.0473764 -3.16834e-21)
(-0.198434 -0.0502946 -1.75108e-19)
(-0.200025 -0.00373899 2.31183e-21)
(-0.169516 -0.124462 1.52703e-19)
(-0.181172 -0.0869917 4.29025e-20)
(-0.110974 -0.184188 -2.37127e-21)
(-0.122025 -0.161581 -4.01657e-20)
(-0.0351054 -0.222496 -1.20359e-19)
(-0.037607 -0.215194 -2.73382e-20)
(0.0454114 -0.23947 -3.24401e-20)
(0.0550389 -0.243437 -6.64418e-20)
(0.123048 -0.239354 -5.69119e-20)
(0.144735 -0.250243 -3.29405e-20)
(0.194523 -0.227062 2.09551e-20)
(0.226583 -0.241558 -2.38447e-20)
(0.259045 -0.206665 1.61869e-21)
(0.299299 -0.222733 9.49064e-22)
(0.317078 -0.181238 -4.57114e-20)
(0.363519 -0.197705 -2.82933e-20)
(0.369642 -0.153094 -5.73767e-21)
(0.420715 -0.169283 1.53162e-20)
(0.417898 -0.123932 -3.90736e-21)
(0.47244 -0.139437 -9.95824e-21)
(0.462952 -0.0950151 2.61546e-21)
(0.520139 -0.10957 9.81178e-21)
(0.505799 -0.0673096 1.64063e-21)
(0.565038 -0.0807561 1.77687e-21)
(0.547279 -0.041556 5.29116e-21)
(0.608196 -0.0537889 -1.24003e-21)
(0.588052 -0.0183337 8.04191e-21)
(0.65042 -0.0292527 9.88232e-22)
(0.628593 0.00189714 -5.14127e-21)
(0.692279 -0.00759423 -2.55821e-21)
(0.669204 0.0187917 -2.8085e-21)
(0.734181 0.0108698 -1.0093e-20)
(0.710012 0.0321065 4.23477e-21)
(0.776311 0.0259249 9.54866e-21)
(0.75101 0.0416598 -2.22173e-22)
(0.8186 0.0374059 1.03341e-20)
(0.792122 0.0474096 5.67783e-21)
(0.86116 0.0452305 2.77741e-21)
(0.833136 0.0494213 3.76962e-21)
(0.903325 0.0493741 -4.04449e-21)
(0.87355 0.0484736 -4.15365e-21)
(0.946383 0.0506721 -3.44246e-22)
(0.912574 0.0454222 -4.25697e-21)
(0.984305 0.0486895 -4.56657e-21)
(1.04248 0.0519842 4.723e-23)
(-0.183029 -0.0384577 2.19644e-19)
(-0.190099 0.012953 2.14502e-19)
(-0.135279 -0.122874 -1.4934e-19)
(-0.154131 -0.0791668 -4.74742e-20)
(-0.0519202 -0.192633 -6.48645e-20)
(-0.0681865 -0.165081 -1.0959e-19)
(0.04954 -0.236689 3.0799e-20)
(0.0467353 -0.226059 9.22217e-20)
(0.152096 -0.254881 -6.74513e-20)
(0.166118 -0.255856 2.51396e-20)
(0.246716 -0.253094 0)
(0.275864 -0.260363 0)
(0.330333 -0.237742 -4.45712e-20)
(0.371186 -0.24779 -2.53644e-20)
(0.403088 -0.214097 -2.92107e-20)
(0.452355 -0.224822 -3.82967e-20)
(0.466682 -0.185933 3.13797e-20)
(0.521806 -0.196204 -2.42815e-20)
(0.523163 -0.155732 1.13592e-20)
(0.582285 -0.16508 1.53162e-20)
(0.574419 -0.125145 1.60566e-21)
(0.636194 -0.133444 -7.19039e-21)
(0.622029 -0.0953691 8.38163e-21)
(0.685491 -0.102566 9.44746e-21)
(0.667288 -0.0672905 -2.36135e-21)
(0.731757 -0.0733895 1.73983e-21)
(0.711208 -0.0415279 -5.94973e-21)
(0.776261 -0.0465775 -1.00581e-20)
(0.754515 -0.0185261 -1.00096e-20)
(0.819863 -0.0225621 7.52757e-21)
(0.797735 0.0013982 -7.45087e-21)
(0.863186 -0.00166824 -8.15123e-21)
(0.841174 0.0180719 4.44599e-21)
(0.906675 0.0159572 8.92011e-22)
(0.88482 0.0314149 1.63522e-20)
(0.950261 0.0303529 1.14361e-20)
(0.928542 0.0413167 1.18618e-20)
(0.993829 0.0415547 1.72091e-20)
(0.972266 0.0477927 -9.85808e-21)
(1.03782 0.0495041 -1.77011e-20)
(1.01574 0.0509478 -8.15614e-21)
(1.08019 0.053688 3.85522e-21)
(1.05827 0.0515992 -1.68068e-21)
(1.12311 0.0557887 0)
(1.10008 0.0489703 1.12751e-24)
(1.15604 0.0523656 6.37062e-22)
(1.21491 0.0588554 1.28155e-21)
(-0.161228 -0.0252747 -4.63361e-20)
(-0.175398 0.0312904 0)
(-0.0893948 -0.120169 -5.00721e-21)
(-0.118163 -0.0699654 -9.76954e-20)
(0.0261529 -0.199087 4.37436e-20)
(0.00304902 -0.166559 8.8375e-20)
(0.159783 -0.246138 9.14146e-20)
(0.156566 -0.232617 1.33821e-19)
(0.287135 -0.262238 9.43818e-20)
(0.306001 -0.259987 2.31671e-19)
(0.398448 -0.255664 -2.50113e-20)
(0.434849 -0.258959 2.78262e-20)
(0.491987 -0.235101 -1.90508e-20)
(0.540611 -0.23996 -2.30346e-20)
(0.570298 -0.206946 -3.27057e-20)
(0.626863 -0.211381 -1.7043e-20)
(0.636899 -0.17529 -4.15934e-20)
(0.698306 -0.178616 6.31151e-22)
(0.694955 -0.142719 -2.99869e-21)
(0.759002 -0.144808 2.46187e-21)
(0.747011 -0.110787 -1.66009e-21)
(0.812175 -0.111782 -6.52439e-22)
(0.795033 -0.0804947 4.04829e-21)
(0.860244 -0.0805705 2.6704e-21)
(0.840559 -0.0525864 -6.66084e-21)
(0.90507 -0.0518941 1.83653e-22)
(0.884775 -0.0275031 5.13511e-21)
(0.948241 -0.0262242 -6.90675e-21)
(0.928361 -0.00554602 1.03009e-20)
(0.990346 -0.00375648 1.08356e-21)
(0.97186 0.013088 3.24255e-23)
(1.03248 0.0154674 -4.06891e-21)
(1.01556 0.0283416 7.95374e-21)
(1.07431 0.031033 1.11213e-20)
(1.05952 0.0402224 1.48905e-20)
(1.11503 0.0427502 -8.1166e-21)
(1.10367 0.0486821 -6.35661e-21)
(1.15397 0.0506215 4.63216e-21)
(1.14678 0.053892 -4.54545e-21)
(1.19026 0.0556228 -9.1346e-21)
(1.18722 0.0564415 5.35951e-21)
(1.22232 0.0579794 7.2203e-22)
(1.22319 0.0566945 2.31395e-21)
(1.25189 0.0602499 0)
(1.25568 0.0541587 1.91378e-21)
(1.27209 0.0562526 -6.49377e-22)
(1.3157 0.0647504 -4.29889e-22)
(-0.132077 -0.0102911 -4.90173e-20)
(-0.155754 0.0514921 -3.10274e-20)
(-0.0288432 -0.11555 -4.79862e-21)
(-0.0713338 -0.0589565 -1.03282e-19)
(0.129237 -0.200353 1.77607e-19)
(0.0973328 -0.164812 9.34138e-20)
(0.298164 -0.247473 2.72441e-19)
(0.295765 -0.229933 1.42761e-21)
(0.450151 -0.257714 1.63417e-19)
(0.47497 -0.251513 4.11603e-20)
(0.574766 -0.2436 2.91786e-20)
(0.618086 -0.242004 -4.05398e-20)
(0.674226 -0.216187 -2.25993e-20)
(0.728442 -0.215342 4.71173e-20)
(0.754168 -0.182849 1.38141e-20)