/*--------------------------------*- C++ -*----------------------------------*\
  =========                 |
  \\      /  F ield         | OpenFOAM: The Open Source CFD Toolbox
   \\    /   O peration     | Website:  https://openfoam.org
    \\  /    A nd           | Version:  11
     \\/     M anipulation  |
\*---------------------------------------------------------------------------*/
FoamFile
{
    format      ascii;
    class       volScalarField;
    location    "0.24";
    object      epsilon;
}
// * * * * * * * * * * * * * * * * * * * * * * * * * * * * * * * * * * * * * //

dimensions      [0 2 -3 0 0 0 0];

internalField   nonuniform List<scalar> 
2880
(
2.66736
3.74121
4.4151
4.00296
3.12388
2.72099
1.01769
1.91228
2.28024
2.24903
1.95208
2.22466
1.35109
1.78951
2.01223
1.97988
1.80506
2.02011
1.799
1.89454
2.00237
1.95887
1.8248
1.97611
2.19552
2.02867
2.06482
2.01753
1.91761
2.02128
2.53905
2.1406
2.14341
2.10413
2.04283
2.12299
2.83244
2.22379
2.21835
2.2006
2.18035
2.25881
3.07916
2.28155
2.28529
2.29904
2.31803
2.41298
3.28264
2.3209
2.34528
2.39439
2.44963
2.56998
3.44677
2.34886
2.40043
2.48335
2.57097
2.71611
3.57683
2.37188
2.45193
2.56398
2.67615
2.84067
3.66887
2.3927
2.5004
2.63542
2.76163
2.93483
3.69726
2.40871
2.54682
2.69808
2.82649
2.99441
3.66967
2.41973
2.59266
2.75376
2.87264
3.01669
3.5748
2.42667
2.63997
2.80566
2.90562
3.0137
3.4137
2.4299
2.69135
2.85846
2.93317
2.98929
3.1872
2.4301
2.74888
2.91959
2.96619
2.95589
2.89746
2.42797
2.81283
2.99723
3.02421
2.93498
2.54958
2.42377
2.8859
3.10716
3.13143
2.94043
2.14827
2.42067
2.97107
3.26898
3.32292
3.04051
1.70133
2.42722
3.07473
3.51096
3.66132
3.35784
1.22515
2.4706
3.23917
3.87962
4.25538
4.20249
0.916716
2.69949
3.68062
4.49591
5.31792
6.59791
2.1056
4.33381
5.71481
6.4327
6.43073
26.5089
11.4465
8.86624
5.9785
3.98773
2.57019
1.56619
0.903672
0.503335
0.278811
0.158155
0.0936994
0.0584624
0.0384259
0.0265106
0.019106
0.0143134
0.0110936
0.00885258
0.00723535
0.00601765
0.00504564
0.00420392
0.00343651
0.00292346
7.85997
8.24213
6.61048
4.58083
3.06928
1.95381
1.17607
0.677432
0.382434
0.217748
0.128087
0.078944
0.0512179
0.0349385
0.0249649
0.0186017
0.0143909
0.0115156
0.00950304
0.00807344
0.00705705
0.00635704
0.00597933
0.00609863
4.99255
7.26954
6.54467
4.95357
3.50447
2.34591
1.48151
0.88967
0.517347
0.298829
0.175915
0.107558
0.0689692
0.0464882
0.0328765
0.0243082
0.0187241
0.0149877
0.0124586
0.0107725
0.00972127
0.00919624
0.00917816
0.00961574
3.45094
6.48999
6.28313
5.22115
3.86671
2.71712
1.80356
1.13454
0.685222
0.40567
0.241241
0.147261
0.0936096
0.0623693
0.0435946
0.0319086
0.0244014
0.0194765
0.016245
0.0142041
0.0130614
0.0126453
0.0128421
0.0134617
2.96308
5.74979
5.83492
5.22911
4.09847
3.03195
2.11872
1.40035
0.883586
0.540849
0.328045
0.201538
0.127643
0.0842347
0.058178
0.0420803
0.0318618
0.0252697
0.0210463
0.0184723
0.0171158
0.0167033
0.0170095
0.01775
2.80101
5.06614
5.51533
5.14276
4.2485
3.28261
2.4064
1.67109
1.10487
0.703704
0.439163
0.27397
0.174089
0.114261
0.0780922
0.0557871
0.0417362
0.0327776
0.0271205
0.0237252
0.0219555
0.0214033
0.0217264
0.0225354
2.77184
4.52593
5.30141
5.00744
4.28246
3.45038
2.64724
1.92889
1.33739
0.889654
0.575161
0.367465
0.236186
0.155124
0.105289
0.0743715
0.0549245
0.0425924
0.034847
0.0301952
0.0277157
0.0268221
0.0270561
0.0278664
2.82158
4.16018
5.14614
4.91844
4.27756
3.54379
2.8279
2.15501
1.56559
1.08946
0.733022
0.483109
0.316728
0.209769
0.142196
0.0996292
0.0726817
0.0555621
0.0447826
0.0382368
0.0346146
0.0330883
0.0330891
0.0338019
2.91938
3.94918
5.01524
4.88628
4.29601
3.59254
2.95047
2.33797
1.7744
1.29098
0.905973
0.619135
0.417113
0.280852
0.191526
0.13381
0.0966945
0.0728799
0.0577388
0.0483839
0.0429955
0.0404196
0.0398967
0.0404539
3.0375
3.8595
4.89225
4.88636
4.38005
3.63833
3.02997
2.47418
1.95136
1.48058
1.08369
0.770109
0.536169
0.36981
0.255751
0.179432
0.129083
0.0961631
0.0748748
0.0614271
0.0533726
0.049128
0.0476798
0.0479362
3.15326
3.84226
4.76867
4.91279
4.51935
3.72031
3.09365
2.57228
2.09212
1.6476
1.2551
0.927913
0.669735
0.47593
0.33631
0.238824
0.172241
0.127468
0.0977896
0.0785264
0.0665358
0.0597274
0.0567567
0.0564305
3.24436
3.84935
4.65505
4.9401
4.66525
3.88169
3.18091
2.65308
2.20182
1.78708
1.40988
1.08293
0.811373
0.596159
0.432958
0.313514
0.228467
0.169172
0.128566
0.10133
0.0836813
0.0730283
0.067656
0.0662279
3.28932
3.84442
4.55256
4.93876
4.78707
4.11648
3.32947
2.75062
2.29847
1.90437
1.54603
1.22656
0.952551
0.724835
0.543094
0.403411
0.299295
0.223579
0.169647
0.132036
0.106575
0.0902959
0.0811928
0.0778675
3.28898
3.80381
4.44512
4.8959
4.86201
4.37462
3.55692
2.90158
2.41152
2.01536
1.66857
1.35879
1.08715
0.855004
0.661718
0.506116
0.384618
0.292181
0.22339
0.173258
0.137657
0.113494
0.0987441
0.0922338
3.24191
3.71374
4.30913
4.79256
4.87915
4.57886
3.84466
3.13256
2.57831
2.14872
1.79352
1.48589
1.21729
0.983971
0.784495
0.618037
0.482628
0.375058
0.29139
0.227561
0.179901
0.145505
0.12259
0.110862
3.15319
3.57066
4.12621
4.62235
4.82684
4.67202
4.12704
3.43161
2.82593
2.34142
1.95188
1.62847
1.35341
1.11627
0.911856
0.737661
0.591675
0.471521
0.374332
0.296982
0.236421
0.190049
0.156344
0.136384
3.0332
3.37871
3.88936
4.38462
4.6756
4.6504
4.3159
3.7315
3.13586
2.6119
2.17637
1.81808
1.52027
1.26865
1.05385
0.870262
0.714259
0.582955
0.473655
0.383683
0.310442
0.251551
0.205313
0.173329
2.89703
3.1486
3.60225
4.08222
4.41848
4.52049
4.35334
3.94538
3.43567
2.92756
2.46943
2.07673
1.74625
1.46817
1.23288
1.03293
0.862814
0.718384
0.596268
0.493549
0.40765
0.336209
0.277274
0.22961
2.76161
2.89643
3.27834
3.72069
4.07966
4.26314
4.23723
4.0044
3.63118
3.20289
2.77484
2.37979
2.03073
1.72871
1.46964
1.24807
1.05874
0.897063
0.759139
0.641614
0.541694
0.456667
0.385472
0.319857
2.63819
2.64231
2.93912
3.32618
3.67658
3.90236
3.97768
3.88856
3.65507
3.3429
2.9951
2.64506
2.3146
2.01417
1.74709
1.51277
1.30876
1.13192
0.97905
0.847009
0.733191
0.634448
0.55184
0.46965
2.53453
2.4086
2.60905
2.92843
3.24015
3.47877
3.60106
3.60933
3.50131
3.29871
3.04699
2.77452
2.4996
2.23532
1.99002
1.76743
1.56847
1.39246
1.23802
1.10251
0.983887
0.879564
0.791995
0.704113
2.48895
2.20436
2.31022
2.55886
2.81632
3.03147
3.16569
3.2175
3.18404
3.07546
2.91266
2.7179
2.51003
2.30214
2.10222
1.91565
1.7458
1.59381
1.45922
1.34149
1.23906
1.14969
1.07374
1.00072
2.5141
2.03413
2.05968
2.24421
2.44479
2.61744
2.73392
2.78838
2.78623
2.72531
2.62091
2.48809
2.34002
2.18696
2.03645
1.8935
1.76096
1.64062
1.53342
1.43956
1.35871
1.29006
1.232
1.18062
2.62352
1.89305
1.86684
2.00185
2.15515
2.28496
2.36842
2.40608
2.40243
2.3551
2.27599
2.1759
2.06432
1.94897
1.83565
1.72835
1.6296
1.54077
1.46237
1.39411
1.33504
1.28351
1.23703
1.1958
1.67571
2.40924
4.97941
6.37017
6.49132
6.21418
0.768813
1.73405
2.97119
3.51409
3.72466
3.8175
0.219343
1.52691
2.22374
2.47842
2.53774
2.39709
0.24796
1.3891
1.84011
1.96954
1.974
1.85044
0.268512
1.27329
1.59245
1.6678
1.6619
1.59448
1.18972
1.18216
1.41526
1.46848
1.46993
1.45354
1.26772
1.10635
1.28035
1.32673
1.34137
1.36053
1.35291
1.04365
1.17404
1.21926
1.24708
1.2922
1.41419
0.991831
1.08822
1.13288
1.17217
1.23606
1.45296
0.948924
1.01691
1.0605
1.10828
1.18538
1.46846
0.91316
0.956674
0.99773
1.0507
1.13676
1.46498
0.883598
0.905368
0.941817
0.996894
1.08914
1.44291
0.860768
0.861448
0.891039
0.945709
1.04322
1.40986
0.844296
0.823395
0.844603
0.896896
1.00113
1.36385
0.830006
0.789488
0.802177
0.850995
0.966297
1.30319
0.811015
0.757772
0.763302
0.809257
0.943289
1.22171
0.776537
0.726157
0.727576
0.772906
0.937724
1.18767
0.70713
0.693455
0.69519
0.743268
0.954726
0.274832
0.623062
0.662821
0.668255
0.722276
1.00205
0.264415
0.571679
0.642775
0.651996
0.713685
1.08931
0.248822
0.556368
0.645408
0.657006
0.723891
1.20275
0.227675
0.598852
0.691777
0.70624
0.768477
1.32099
0.856019
0.849745
0.89086
0.904456
0.921544
1.53362
2.0908
2.13321
2.02293
1.94517
1.65082
1.69541
2.30329
1.76319
1.73005
1.84119
1.97074
2.07466
2.13206
2.1521
2.13388
2.0804
2.00286
1.91081
1.81213
1.71292
1.61753
1.52875
1.44818
1.37646
1.31352
1.25878
1.21122
1.1694
1.1317
1.09953
1.95746
1.65548
1.6494
1.76464
1.89465
1.99539
2.04803
2.06373
2.04069
1.98401
1.90516
1.81381
1.71765
1.62237
1.5318
1.44829
1.37295
1.30605
1.24719
1.19561
1.15052
1.11127
1.07759
1.04987
1.72978
1.58111
1.61809
1.74869
1.89442
2.01474
2.08358
2.10876
2.09296
2.03962
1.96144
1.86911
1.77097
1.67311
1.5796
1.49285
1.41407
1.34356
1.28102
1.22591
1.1778
1.13689
1.1038
1.07705
1.59376
1.5409
1.62309
1.79085
1.97994
2.14605
2.25795
2.31
2.31587
2.27523
2.20264
2.11022
2.00797
1.90329
1.80113
1.70486
1.61664
1.53645
1.46404
1.39903
1.34131
1.29162
1.25108
1.21734
1.5099
1.52814
1.66325
1.88627
2.14183
2.37666
2.55191
2.64763
2.67975
2.65435
2.58753
2.49003
2.37659
2.25713
2.13744
2.02023
1.90792
1.80232
1.70388
1.61245
1.52795
1.45065
1.38369
1.32143
1.45327
1.53552
1.72941
2.02438
2.3676
2.689
2.93178
3.0692
3.11416
3.07115
2.9556
2.8063
2.64429
2.48015
2.32107
2.17241
2.03448
1.90685
1.78884
1.67948
1.57831
1.48416
1.40279
1.31928
1.41565
1.55441
1.81258
2.19471
2.64174
3.05108
3.33477
3.44742
3.39423
3.2553
3.082
2.89035
2.69301
2.49927
2.31449
2.14051
1.97826
1.82754
1.68783
1.55695
1.43509
1.3158
1.21643
1.08831
1.38659
1.57732
1.90585
2.391
2.95047
3.41251
3.63672
3.59637
3.45036
3.21873
2.94856
2.67026
2.4025
2.15317
1.92583
1.72044
1.53512
1.36767
1.21542
1.07167
0.941319
0.814056
0.718537
0.582864
1.35974
1.59964
2.00809
2.62046
3.29236
3.72414
3.74549
3.56256
3.181
2.75573
2.35011
1.98526
1.66834
1.39116
1.15706
0.961073
0.797299
0.660104
0.545688
0.453809
0.380283
0.318778
0.272457
0.222551
1.33168
1.62084
2.12956
2.91463
3.66461
3.91068
3.7123
3.16103
2.51913
1.96882
1.51419
1.15932
0.891721
0.698885
0.555113
0.446038
0.362209
0.297036
0.245852
0.205222
0.172836
0.146717
0.126142
0.108897
1.30185
1.64618
2.29909
3.32447
4.06276
3.96415
3.38542
2.49908
1.80981
1.31073
0.967249
0.72817
0.554493
0.426738
0.332374
0.262244
0.209707
0.169987
0.139664
0.116309
0.0982291
0.0842676
0.0737204
0.0676005
1.27279
1.68931
2.57454
3.89414
4.31133
3.87634
2.80916
1.93868
1.37175
0.994722
0.734844
0.546686
0.409359
0.309312
0.236472
0.183323
0.144341
0.115537
0.094081
0.078009
0.0660007
0.0572171
0.0512197
0.049372
1.25112
1.78013
3.05127
4.53213
4.40473
3.47346
2.29581
1.58675
1.13119
0.816925
0.59031
0.427404
0.311808
0.230332
0.172891
0.132161
0.103012
0.0819356
0.0665807
0.0554105
0.0474492
0.0420993
0.0391572
0.0392701
1.2489
1.96953
3.83477
4.92242
4.37484
2.93909
1.94607
1.33799
0.923692
0.635116
0.437057
0.303201
0.213691
0.153832
0.113469
0.0858873
0.0667591
0.0533341
0.0438843
0.0373477
0.0330843
0.0307104
0.0302236
0.0312652
1.28051
2.33786
4.85532
5.05201
3.96581
2.49509
1.64457
1.09122
0.720326
0.476464
0.317902
0.216164
0.15074
0.108104
0.0798006
0.0606559
0.0475083
0.0384152
0.0321844
0.0280912
0.0256843
0.0247293
0.0250441
0.0264889
1.37147
3.04541
5.55104
5.07588
3.39161
2.13463
1.36699
0.869415
0.554141
0.357155
0.235694
0.160172
0.112274
0.0811707
0.0605016
0.0464899
0.0368585
0.030222
0.0257394
0.0229056
0.0214017
0.0210618
0.0216201
0.0231812
1.55586
4.22985
5.75997
4.73678
2.89171
1.79211
1.10048
0.673145
0.415706
0.263356
0.172357
0.116789
0.0819412
0.05949
0.0446641
0.0346755
0.0278669
0.0232439
0.020212
0.0184134
0.0176273
0.0177062
0.0184592
0.0200121
1.86915
5.59086
5.75875
4.21699
2.50708
1.47695
0.86253
0.508402
0.308582
0.194522
0.127556
0.0869049
0.0614152
0.0449597
0.0340703
0.0267299
0.021742
0.0183909
0.0162498
0.0150614
0.014669
0.0149067
0.0157554
0.0171665
2.40816
6.44933
5.75958
3.62823
2.07087
1.16238
0.654205
0.379156
0.229313
0.145121
0.095894
0.0659581
0.047101
0.0348563
0.0267044
0.021181
0.0174181
0.0148971
0.0133101
0.012472
0.0122697
0.0125612
0.0133817
0.0146182
3.40868
6.76145
5.48781
3.12109
1.69145
0.900433
0.491958
0.282578
0.171372
0.109255
0.0728303
0.0505575
0.036446
0.0272326
0.0210678
0.0168722
0.014005
0.0120838
0.0108831
0.0102695
0.0101615
0.0104522
0.0111902
0.0122594
4.98896
6.86096
5.05719
2.63937
1.31541
0.670802
0.363331
0.210201
0.128921
0.0831251
0.0560043
0.0392684
0.028577
0.0215434
0.016804
0.013557
0.0113236
0.00981737
0.00887001
0.00838408
0.00830102
0.00855017
0.00917466
0.0100865
7.35577
7.28837
4.50691
2.07751
0.979311
0.494177
0.270014
0.158234
0.0982447
0.0640465
0.0435828
0.0308397
0.0226322
0.0171914
0.0134979
0.0109473
0.00917573
0.00796453
0.0071855
0.0067662
0.00666541
0.00684536
0.00734018
0.00810574
9.67633
7.66243
3.47402
1.52397
0.708825
0.361982
0.201429
0.120017
0.0755463
0.0498153
0.0342299
0.0244251
0.0180539
0.0137966
0.0108838
0.00885463
0.00742827
0.00643385
0.0057705
0.0053819
0.0052388
0.00532897
0.00568246
0.00630746
12.5511
7.13127
2.71007
1.09985
0.510839
0.267035
0.151915
0.0920686
0.0587263
0.0391391
0.0271293
0.0194965
0.0144929
0.0111229
0.0087993
0.00716588
0.00600245
0.00517237
0.0045928
0.00421616
0.00401801
0.0039993
0.00419564
0.00467048
2.73218
5.68433
8.0818
8.6606
9.07555
35.2619
1.03835
2.88203
4.40395
5.59509
6.46249
10.2561
0.271112
2.36327
3.56827
4.64791
5.28004
5.66878
1.25535
2.2202
3.20433
4.04493
4.20614
3.85361
1.48305
2.16233
2.98402
3.5418
3.40612
2.75083
1.65935
2.1354
2.82617
3.13819
2.82501
2.04208
1.79199
2.11932
2.70551
2.83966
2.39604
1.60582
1.88207
2.10495
2.61039
2.62887
2.07995
1.32108
1.93429
2.08555
2.53357
2.48146
1.84748
1.12415
1.95427
2.05646
2.47163
2.37327
1.67857
0.983825
1.94737
2.01657
2.42076
2.29465
1.55773
0.881735
1.91866
1.96702
2.37745
2.24102
1.47619
0.807826
1.87116
1.90821
2.34102
2.21224
1.4253
0.756305
1.80123
1.83925
2.31205
2.20902
1.40191
0.722819
1.70829
1.7592
2.28961
2.22782
1.4059
0.704879
1.59164
1.66624
2.27194
2.26916
1.43923
0.701482
1.45161
1.55682
2.25645
2.33053
1.5061
0.712961
1.29366
1.42676
2.23513
2.4116
1.6138
0.741248
0.280555
1.27053
2.19608
2.5102
1.77413
0.791298
0.268379
1.10553
2.12392
2.62191
2.00595
0.87348
0.252316
0.960652
2.00006
2.73894
2.33848
1.01234
0.229942
0.857549
1.81775
2.85569
2.8127
1.27131
0.861833
0.883513
1.63232
3.01317
3.43851
1.90111
2.03642
1.62159
2.09567
3.58676
4.27989
3.72009
15.4603
4.53891
1.6494
0.725063
0.363251
0.198354
0.11575
0.0713694
0.0461129
0.0310399
0.0216819
0.0156733
0.0117004
0.00900392
0.0071306
0.00580194
0.00484306
0.0041426
0.00362985
0.00326065
0.0030082
0.00286653
0.00288333
0.00317211
6.27303
2.49952
1.09993
0.524606
0.270449
0.15062
0.0894729
0.0559894
0.036595
0.0248499
0.0174719
0.0126892
0.00950146
0.00732246
0.00579792
0.00470769
0.00391148
0.00331775
0.00286538
0.00251193
0.0022256
0.00198529
0.00180314
0.00180455
3.61844
1.6757
0.771939
0.377615
0.201265
0.115377
0.0699811
0.0444352
0.0293474
0.0200801
0.0141958
0.010349
0.00776703
0.00599135
0.00474174
0.00384239
0.00318006
0.00267982
0.00229034
0.00197428
0.00170146
0.0014475
0.00120071
0.000867725
2.37988
1.14022
0.545113
0.278744
0.153648
0.0901312
0.0555613
0.0356969
0.0237813
0.0163755
0.01163
0.0085054
0.00639634
0.00493932
0.00391017
0.00316715
0.00261851
0.00220343
0.00188035
0.00161903
0.00139481
0.00118808
0.000987843
0.000730593
1.61473
0.799556
0.399077
0.211492
0.119674
0.0715355
0.0447044
0.0290096
0.0194676
0.0134761
0.00960709
0.00704479
0.00530793
0.00410451
0.00325294
0.00263771
0.0021837
0.00184105
0.00157565
0.00136244
0.00118028
0.0010128
0.000854676
0.000664191
1.17004
0.589724
0.302842
0.164694
0.0950836
0.0576936
0.0364548
0.0238484
0.0160979
0.0111901
0.00800109
0.00587975
0.00443758
0.00343667
0.002728
0.00221621
0.00183904
0.00155504
0.00133579
0.00116026
0.00101067
0.000874236
0.000749439
0.000608103
0.893741
0.453189
0.237066
0.131347
0.0769913
0.0472617
0.0301225
0.0198299
0.0134449
0.00937471
0.00671737
0.00494421
0.00373664
0.00289808
0.0023046
0.00187654
0.0015617
0.00132529
0.00114344
0.000998507
0.000875639
0.000765017
0.000667024
0.000561485
0.713751
0.361354
0.191014
0.107132
0.0634817
0.039307
0.0252148
0.0166752
0.0113409
0.00792346
0.00568494
0.0041885
0.00316878
0.00246102
0.00196081
0.00160081
0.00133682
0.00113931
0.000988137
0.00086839
0.000767706
0.000678532
0.00060198
0.000523076
0.590893
0.297391
0.157962
0.0892232
0.0532563
0.0331767
0.0213779
0.0141801
0.00966132
0.00675659
0.00485026
0.00357512
0.00270668
0.00210486
0.00168058
0.00137624
0.00115397
0.000988533
0.000862718
0.000763868
0.000681633
0.000610121
0.000550542
0.000491602
0.504335
0.251733
0.133781
0.0757761
0.0454265
0.0284083
0.0183549
0.0121937
0.00831303
0.00581378
0.00417258
0.00307543
0.00232947
0.00181389
0.00145174
0.00119314
0.00100532
0.000866458
0.000761715
0.00068024
0.0006133
0.000556201
0.000509931
0.00046595
0.44232
0.2186
0.115762
0.0655539
0.0393737
0.0246704
0.0159577
0.0106037
0.00722565
0.00504901
0.00362057
0.00266729
0.00202092
0.00157587
0.00126476
0.00104392
0.000884653
0.000767887
0.000680684
0.000613639
0.000559311
0.000513856
0.00047793
0.000445138
0.397628
0.194095
0.102179
0.0577188
0.0346612
0.021723
0.0140475
0.00932561
0.00634566
0.00442692
0.00316992
0.00233336
0.00176827
0.00138107
0.00111203
0.000922443
0.000786904
0.000688537
0.00061593
0.000560829
0.000516832
0.000480705
0.00045277
0.00042834
0.365255
0.175879
0.0918872
0.0516908
0.0309766
0.0193905
0.0125207
0.00829585
0.00563211
0.00392008
0.00280158
0.00205993
0.00156132
0.00122167
0.000987377
0.000823715
0.000707914
0.00062487
0.00056438
0.000519125
0.000483537
0.000454834
0.000433061
0.000414885
0.342309
0.162438
0.0841093
0.047055
0.0280942
0.0175437
0.0113
0.00746595
0.00505344
0.00350715
0.00250056
0.00183613
0.00139191
0.00109138
0.000885796
0.000743642
0.000644257
0.000573951
0.000523491
0.000486312
0.000457537
0.000434722
0.000417712
0.000404221
0.326992
0.152766
0.0783093
0.0435174
0.0258506
0.0160873
0.0103273
0.00679901
0.00458529
0.00317142
0.002255
0.00165325
0.00125346
0.000985069
0.000803193
0.000678864
0.000593109
0.000533361
0.000491167
0.000460585
0.000437311
0.000419169
0.000405863
0.00039589
0.318241
0.146199
0.0741166
0.0408711
0.0241279
0.014951
0.00955892
0.00626691
0.00420881
0.00289981
0.00205553
0.00150434
0.00114069
0.000898595
0.000736231
0.000626631
0.000552151
0.000501116
0.0004657
0.000440485
0.00042165
0.00040723
0.000396833
0.000389504
0.315528
0.142318
0.0712808
0.0389717
0.0228415
0.0140833
0.0089623
0.00584826
0.00390948
0.00268211
0.00189471
0.00138387
0.00104932
0.000828593
0.00068219
0.000584696
0.000519494
0.000475603
0.000445713
0.000424848
0.000409594
0.000398161
0.000390072
0.000384728
0.318458
0.140865
0.0696395
0.0377215
0.0219325
0.0134472
0.00851344
0.00552701
0.00367621
0.00251041
0.00176676
0.00128744
0.000975945
0.000772348
0.000638864
0.00055123
0.000493599
0.000455523
0.000430105
0.000412744
0.000400379
0.000391363
0.000385131
0.000381272
0.328248
0.141548
0.0690933
0.0370585
0.0213621
0.0130169
0.00819517
0.00529139
0.00350069
0.0023787
0.00166718
0.00121163
0.000917879
0.000727695
0.00060447
0.000524748
0.000473221
0.00043983
0.000417999
0.000403441
0.000393389
0.000386331
0.000381621
0.000378875
0.345988
0.144929
0.0695198
0.0369501
0.0211069
0.012776
0.00799588
0.0051331
0.00337692
0.00228253
0.00159263
0.00115383
0.000873052
0.000692948
0.000577606
0.000504063
0.000457356
0.000427681
0.000408696
0.000396354
0.000388123
0.000382616
0.000379177
0.000377264
0.374208
0.150928
0.0710927
0.0373366
0.0211473
0.0127155
0.00790824
0.00504675
0.00330084
0.0022188
0.0015407
0.00111217
0.00083996
0.00066687
0.000557228
0.000488285
0.000445239
0.00041843
0.000401663
0.000391063
0.00038426
0.000379944
0.000377463
0.000376177
0.417121
0.159766
0.0737735
0.0383439
0.0214997
0.0128146
0.00792499
0.00502932
0.00326997
0.00218555
0.00150987
0.00108542
0.000817597
0.000648627
0.000542634
0.000476813
0.000436357
0.000411633
0.000396519
0.000387243
0.00038154
0.000378128
0.000376345
0.000375512
0.480374
0.171246
0.0774867
0.039905
0.022192
0.0131136
0.00804566
0.00507268
0.00328108
0.00218181
0.00149933
0.00107286
0.000805372
0.000637711
0.000533377
0.000469257
0.000430365
0.000406984
0.000392982
0.000384623
0.000379698
0.00037699
0.000375703
0.000375167
0.549672
0.182801
0.0820818
0.0420273
0.0232018
0.0136002
0.00828922
0.00519159
0.00333491
0.00220409
0.00150737
0.00107399
0.00080306
0.000633889
0.000529208
0.000465369
0.000427035
0.000404278
0.000390868
0.000383043
0.000378596
0.000376343
0.000375356
0.000375034
2.50469
4.74501
6.97902
6.34491
5.15031
4.05537
0.970588
3.35891
4.10185
3.43834
2.44508
1.42112
0.28094
2.82702
3.0431
2.34473
1.57049
0.922579
1.50725
2.58606
2.54248
1.86545
1.24072
0.775694
1.98277
2.42973
2.24366
1.62494
1.10213
0.728047
2.40873
2.3111
2.05394
1.50227
1.05074
0.72546
2.7664
2.21597
1.93319
1.44723
1.0478
0.748236
3.05335
2.15173
1.86023
1.43578
1.07418
0.792641
3.27245
2.11095
1.82266
1.4515
1.12734
0.855741
3.42845
2.08888
1.81354
1.49435
1.20213
0.938177
3.52635
2.08235
1.82414
1.55752
1.29779
1.04207
3.57025
2.09027
1.85629
1.6391
1.41479
1.17062
3.56919
2.11407
1.90573
1.7379
1.55423
1.32789
3.55009
2.15806
1.97027
1.85275
1.71721
1.51854
3.50449
2.21622
2.04725
1.98165
1.90402
1.74744
3.42414
2.28056
2.13296
2.12094
2.11294
2.01862
3.3004
2.34014
2.22255
2.26439
2.34287
2.33159
3.12344
2.38026
2.30782
2.40478
2.58575
2.69469
2.88112
2.38227
2.37758
2.53641
2.83138
3.11562
2.55823
2.34604
2.42124
2.66115
3.06958
3.61028
2.14174
2.24343
2.46068
2.79347
3.30273
4.24974
1.63012
2.11513
2.56208
3.0036
3.61026
5.36207
1.16619
2.20951
3.00281
3.58469
4.26258
8.42387
3.27704
4.14899
5.68371
6.37361
6.71623
28.3001
0.560179
0.192035
0.0873484
0.0446841
0.0245289
0.0142758
0.00864788
0.00538578
0.00344059
0.00226074
0.00153659
0.00108838
0.000809689
0.000636636
0.00052994
0.000465059
0.000426273
0.00040342
0.00039009
0.000382422
0.000378203
0.00037613
0.000375256
0.000375002
0.470536
0.196207
0.0929167
0.04781
0.0261683
0.0151484
0.00912831
0.00565669
0.0035958
0.0023508
0.0015894
0.00111958
0.000828144
0.000647387
0.000536069
0.000468475
0.000428144
0.00040444
0.000390663
0.000382767
0.000378416
0.000376259
0.000375325
0.000375023
0.429726
0.201481
0.0989981
0.0514016
0.0281298
0.016232
0.00974151
0.00601203
0.00380575
0.00247698
0.00166643
0.00116726
0.000857998
0.000666192
0.000547931
0.000475953
0.00043287
0.00040747
0.000392655
0.000384112
0.000379294
0.000376782
0.000375599
0.000375108
0.418256
0.209609
0.105968
0.0555539
0.0304577
0.0175533
0.0105048
0.00646315
0.0040779
0.00264425
0.00177107
0.00123384
0.000900977
0.000694239
0.000566343
0.000488069
0.000440877
0.000412816
0.000396284
0.0003866
0.000380971
0.000377778
0.000376124
0.000375323
0.426323
0.221674
0.114325
0.0604563
0.0332403
0.0191563
0.0114438
0.00702603
0.00442255
0.00285943
0.00190797
0.00132249
0.000959321
0.000733127
0.00059247
0.000505693
0.000452806
0.000420948
0.000401884
0.000390468
0.000383577
0.000379418
0.00037704
0.00037576
0.44684
0.238627
0.12466
0.0663776
0.0366139
0.0211058
0.0125949
0.00772252
0.00485351
0.0031316
0.00208321
0.00143744
0.00103601
0.000785012
0.000627914
0.000530033
0.000469576
0.000432561
0.000409981
0.000396117
0.000387429
0.000381902
0.000378533
0.000376529
0.478043
0.261004
0.137664
0.0736831
0.040752
0.0234917
0.0140076
0.00858187
0.00538902
0.00347259
0.00230476
0.00158418
0.00113493
0.000852721
0.000674779
0.000562691
0.000492421
0.000448602
0.000421296
0.000404091
0.000392936
0.000385538
0.00038081
0.000377802
0.5206
0.289982
0.154292
0.0828544
0.0458891
0.0264355
0.0157483
0.00964277
0.00605289
0.00389777
0.00258291
0.0017698
0.00126111
0.000939896
0.000735774
0.000605728
0.000522933
0.000470305
0.000436784
0.000415135
0.00040068
0.000390747
0.000384067
0.000379714
0.57635
0.327407
0.175724
0.094544
0.052345
0.0301019
0.0179061
0.0109563
0.00687619
0.004427
0.00293087
0.0020034
0.001421
0.00105123
0.000814394
0.000661813
0.00056319
0.000499307
0.000457726
0.000430229
0.000411367
0.000397975
0.000388579
0.000382393
0.648105
0.375835
0.203571
0.109623
0.0605614
0.0347161
0.0206009
0.0125903
0.00789958
0.00508597
0.00336567
0.0022967
0.00162291
0.00119279
0.0009152
0.000734457
0.000615956
0.000537806
0.000485859
0.000450695
0.000425931
0.00040783
0.000394819
0.000386113
0.739684
0.438701
0.240073
0.129316
0.0711587
0.0405909
0.0239965
0.0146355
0.00917658
0.00590813
0.00390925
0.00266474
0.00187754
0.00137244
0.00104413
0.000828261
0.000684868
0.000588702
0.000523473
0.000478291
0.000445679
0.000421299
0.00040354
0.000391296
0.856048
0.520602
0.288359
0.155368
0.0850225
0.0481674
0.0283199
0.0172152
0.0107784
0.00693723
0.00459004
0.00312688
0.00219865
0.00160028
0.00120881
0.000949135
0.000774593
0.000655732
0.000573572
0.000515416
0.00047249
0.000439765
0.000415588
0.000398344
1.00347
0.627636
0.352787
0.190287
0.103433
0.0580782
0.0338903
0.0204991
0.012801
0.00823104
0.00544496
0.00370802
0.00260375
0.00188914
0.00141894
0.00110458
0.000891067
0.000743669
0.000640032
0.000565208
0.000508825
0.000465004
0.000432062
0.000407727
1.1897
0.767783
0.43938
0.237679
0.128262
0.0712435
0.0411644
0.0247241
0.0153753
0.0098667
0.00652238
0.00444023
0.00311523
0.00225528
0.00168676
0.0013041
0.00104182
0.000858603
0.000727842
0.000631743
0.00055792
0.000499388
0.000454457
0.000420072
1.42409
0.951264
0.556318
0.302694
0.162252
0.0890172
0.0508055
0.0302274
0.0186827
0.0119486
0.00788632
0.00536521
0.00376174
0.00271933
0.00202771
0.00155962
0.00123636
0.00100826
0.000843364
0.000720266
0.000623995
0.000546093
0.000484835
0.000436237
1.71791
1.19073
0.714354
0.392543
0.209406
0.113404
0.0637895
0.0374958
0.0229793
0.0146201
0.00962266
0.00653769
0.0045802
0.00330749
0.00246123
0.00188615
0.00148659
0.00120235
0.000994645
0.00083747
0.000712517
0.000609319
0.000525995
0.000457386
2.08272
1.50131
0.926947
0.51697
0.275468
0.147365
0.0815635
0.0472422
0.0286321
0.0180822
0.0118486
0.00803065
0.00561881
0.00405339
0.00301194
0.00230246
0.00180741
0.001453
0.00119179
0.000991828
0.000830499
0.000694569
0.000581689
0.000485069
2.52134
1.90253
1.20994
0.688404
0.36841
0.195212
0.106276
0.0605213
0.0361751
0.0226204
0.0147271
0.00994307
0.00694152
0.00500073
0.00371127
0.00283226
0.00221739
0.00177532
0.00144737
0.00119399
0.000986888
0.000809004
0.00065691
0.000521312
3.03889
2.41097
1.57956
0.921317
0.498676
0.263057
0.141093
0.0788992
0.0463944
0.0286478
0.0184886
0.0124119
0.00863492
0.00620746
0.00460013
0.00350582
0.00273998
0.00218815
0.00177705
0.00145724
0.00119303
0.000961941
0.000758311
0.000568699
3.65303
3.03815
2.04855
1.23002
0.678665
0.359126
0.190546
0.104686
0.060453
0.0367691
0.0234645
0.0156304
0.0108188
0.00775226
0.00573305
0.00436284
0.00340535
0.00271541
0.0022005
0.00179828
0.00146332
0.00116555
0.000894897
0.000630494
4.42547
3.78523
2.62123
1.62446
0.920717
0.493431
0.260855
0.141226
0.0800673
0.0478749
0.0301377
0.0198758
0.0136621
0.00974457
0.00718485
0.0054571
0.00425397
0.00338875
0.00274341
0.00223866
0.00181646
0.00143608
0.00107921
0.000710735
5.52281
4.68857
3.29505
2.10574
1.23332
0.676249
0.359787
0.193154
0.107727
0.0632755
0.0392165
0.0255505
0.0174078
0.01234
0.00906121
0.00686431
0.00534269
0.00425268
0.00344176
0.00280834
0.00227814
0.00179649
0.00133105
0.000816227
7.82007
5.80407
4.07239
2.66726
1.61765
0.915304
0.495692
0.266392
0.146905
0.0848697
0.0517384
0.0332428
0.0224078
0.0157626
0.0115142
0.00869415
0.00675531
0.00537452
0.00435191
0.00355587
0.00289138
0.00228624
0.00168489
0.000960973
14.5793
8.02956
5.11658
3.32632
2.07271
1.2142
0.675885
0.367688
0.202146
0.115322
0.0692022
0.0438081
0.0291726
0.0203355
0.0147624
0.0111057
0.00861657
0.00685973
0.00556949
0.00457326
0.00374839
0.00299923
0.0022331
0.00123267
)
;

boundaryField
{
    rotor
    {
        type            epsilonWallFunction;
        value           nonuniform List<scalar> 
144
(
2.66736
3.74121
4.4151
4.00296
3.12388
2.72099
2.66736
1.01769
1.35109
1.799
2.19552
2.53905
2.83244
3.07916
3.28264
3.44677
3.57683
3.66887
3.69726
3.66967
3.5748
3.4137
3.1872
2.89746
2.54958
2.14827
1.70133
1.22515
0.916716
2.1056
2.1056
4.33381
5.71481
6.4327
6.43073
26.5089
1.67571
2.40924
4.97941
6.37017
6.49132
6.21418
1.67571
0.768813
0.219343
0.24796
0.268512
1.18972
1.26772
1.35291
1.41419
1.45296
1.46846
1.46498
1.44291
1.40986
1.36385
1.30319
1.22171
1.18767
0.274832
0.264415
0.248822
0.227675
0.856019
2.0908
2.0908
2.13321
2.02293
1.94517
1.65082
1.69541
2.73218
5.68433
8.0818
8.6606
9.07555
35.2619
2.73218
1.03835
0.271112
1.25535
1.48305
1.65935
1.79199
1.88207
1.93429
1.95427
1.94737
1.91866
1.87116
1.80123
1.70829
1.59164
1.45161
1.29366
0.280555
0.268379
0.252316
0.229942
0.861833
2.03642
2.03642
1.62159
2.09567
3.58676
4.27989
3.72009
2.50469
4.74501
6.97902
6.34491
5.15031
4.05537
2.50469
0.970588
0.28094
1.50725
1.98277
2.40873
2.7664
3.05335
3.27245
3.42845
3.52635
3.57025
3.56919
3.55009
3.50449
3.42414
3.3004
3.12344
2.88112
2.55823
2.14174
1.63012
1.16619
3.27704
3.27704
4.14899
5.68371
6.37361
6.71623
28.3001
)
;
    }
    freestream
    {
        type            inletOutlet;
        inletValue      uniform 0.000375;
        value           nonuniform List<scalar> 
96
(
0.00292346
0.00609863
0.00961574
0.0134617
0.01775
0.0225354
0.0278664
0.0338019
0.0404539
0.0479362
0.0564305
0.0662279
0.0778675
0.0922338
0.110862
0.136384
0.173329
0.22961
0.319857
0.46965
0.704113
1.00072
1.18062
1.1958
1.09953
1.04987
1.07705
1.21734
1.32143
1.31928
1.08831
0.582864
0.222551
0.108897
0.0676005
0.049372
0.0392701
0.0312652
0.0264889
0.0231812
0.0200121
0.0171665
0.0146182
0.0122594
0.0100865
0.00810574
0.00630746
0.00467048
0.00317211
0.00180455
0.000375
0.000375
0.000375
0.000375
0.000375
0.000375
0.000375
0.000375
0.000375
0.000375
0.000375
0.000375
0.000375
0.000375
0.000375
0.000375
0.000375
0.000375
0.000375
0.000375
0.000375
0.000375
0.000375
0.000375
0.000375
0.000375
0.000375
0.000375
0.000375
0.000375
0.000375
0.000375
0.000375
0.000375
0.000375
0.000375
0.000375
0.000375
0.000375
0.000375
0.000375
0.000375
0.000375
0.000375
0.000375
0.000375
)
;
    }
    frontAndBack
    {
        type            empty;
    }
}

