/*--------------------------------*- C++ -*----------------------------------*\
  =========                 |
  \\      /  F ield         | OpenFOAM: The Open Source CFD Toolbox
   \\    /   O peration     | Website:  https://openfoam.org
    \\  /    A nd           | Version:  11
     \\/     M anipulation  |
\*---------------------------------------------------------------------------*/
FoamFile
{
    format      ascii;
    class       volScalarField;
    location    "0.24";
    object      k;
}
// * * * * * * * * * * * * * * * * * * * * * * * * * * * * * * * * * * * * * //

dimensions      [0 2 -2 0 0 0 0];

internalField   nonuniform List<scalar> 
2880
(
0.00569587
0.0155211
0.0301409
0.0407517
0.0443682
0.0513999
0.0195355
0.0399825
0.0593952
0.0690943
0.0700888
0.0776265
0.0271646
0.0530536
0.0750217
0.0847956
0.0861321
0.091296
0.0328843
0.0632906
0.0866282
0.0967233
0.0987932
0.103426
0.0375607
0.0721636
0.0962292
0.106897
0.110217
0.114846
0.0413884
0.0799096
0.104416
0.115936
0.120847
0.125902
0.044522
0.0865635
0.111403
0.124022
0.130721
0.136686
0.0470737
0.0921493
0.117292
0.131187
0.139764
0.147143
0.0491264
0.0967004
0.122149
0.137404
0.147843
0.156863
0.0507506
0.100248
0.126022
0.14263
0.154816
0.165452
0.0520186
0.10281
0.128941
0.146819
0.160558
0.172641
0.0529056
0.104413
0.130923
0.149934
0.164977
0.178259
0.0531763
0.105127
0.131967
0.151946
0.168015
0.182205
0.0529094
0.104969
0.132045
0.152765
0.169598
0.184376
0.0519915
0.103923
0.131177
0.152522
0.169809
0.184834
0.0504152
0.101938
0.129281
0.151109
0.168753
0.18387
0.0481576
0.0989303
0.126261
0.148481
0.166378
0.181461
0.0451912
0.0947742
0.121968
0.144537
0.162681
0.177767
0.0414964
0.0892834
0.11618
0.139084
0.157597
0.172904
0.0370176
0.0821952
0.108559
0.131783
0.150893
0.16685
0.0316854
0.0730922
0.0985821
0.122064
0.142041
0.159312
0.0254558
0.0611811
0.0853369
0.108942
0.129963
0.149201
0.0176073
0.0443045
0.0666184
0.090508
0.112474
0.133341
0.00450287
0.0179213
0.0388446
0.0652295
0.0910897
0.116543
0.166233
0.254077
0.267449
0.250132
0.211178
0.168553
0.130499
0.100161
0.0777359
0.0617902
0.0505204
0.0424266
0.0364574
0.0319237
0.0283794
0.0255295
0.0231713
0.0211572
0.0193715
0.0177114
0.0160712
0.0143448
0.0125476
0.0112833
0.119086
0.217768
0.254541
0.248864
0.222689
0.183441
0.145328
0.112983
0.0879553
0.0696667
0.0566192
0.0472865
0.0404845
0.0353981
0.0314908
0.028411
0.0259255
0.0238776
0.0221636
0.020717
0.0194968
0.018499
0.0178618
0.0179863
0.110183
0.186563
0.234034
0.242886
0.228188
0.195577
0.159296
0.126212
0.0991551
0.0786001
0.0636232
0.0528543
0.0450528
0.0392932
0.0349441
0.0315903
0.0289652
0.0269035
0.0253129
0.0241522
0.0234102
0.0231014
0.0232895
0.0239848
0.118725
0.16828
0.213343
0.231125
0.226048
0.204235
0.171524
0.139162
0.11097
0.0884886
0.0715678
0.0592039
0.0502257
0.0436462
0.0387487
0.0350529
0.0322548
0.0301753
0.0287207
0.0278469
0.0275263
0.0277166
0.0283858
0.0293465
0.132461
0.162455
0.19754
0.217936
0.220197
0.208095
0.18133
0.151125
0.122898
0.0990931
0.0804061
0.0663786
0.0560654
0.0485045
0.0429275
0.0387956
0.0357646
0.0336319
0.0322852
0.0316539
0.031668
0.0321969
0.0331937
0.0343
0.143279
0.165111
0.189109
0.205333
0.211277
0.206158
0.188048
0.161324
0.134278
0.110001
0.0899649
0.0743583
0.0626171
0.0539239
0.0475204
0.0428325
0.0394769
0.0372188
0.0359127
0.0354486
0.03568
0.0364706
0.0376838
0.0388943
0.152356
0.172572
0.189657
0.196497
0.202201
0.201376
0.19092
0.169099
0.144447
0.120688
0.0999365
0.0830281
0.0698839
0.0599548
0.0525813
0.047197
0.0433935
0.0409008
0.0395329
0.0391336
0.0394819
0.0404415
0.0418058
0.0430981
0.161203
0.182463
0.194124
0.194138
0.194535
0.194378
0.189242
0.174182
0.152766
0.13052
0.109863
0.0921431
0.0777886
0.0666161
0.0581638
0.0519388
0.0475385
0.0446686
0.0431042
0.042645
0.0430097
0.044039
0.0454971
0.0468528
0.170189
0.190961
0.202312
0.197548
0.190727
0.188441
0.185497
0.175898
0.158763
0.13895
0.11923
0.10134
0.0861465
0.0738615
0.0642991
0.057114
0.051959
0.0485427
0.046617
0.0459477
0.0462226
0.0472063
0.0486955
0.0500918
0.178917
0.198336
0.210837
0.205966
0.192443
0.184508
0.181086
0.174706
0.161966
0.14536
0.127437
0.11013
0.094639
0.0815407
0.0709608
0.0627646
0.0567187
0.0525778
0.0501012
0.0490402
0.0491074
0.0499066
0.0513484
0.0527553
0.186786
0.205059
0.218758
0.215869
0.198992
0.185034
0.177762
0.172678
0.163055
0.149658
0.134065
0.118032
0.102859
0.0893899
0.0780336
0.0688888
0.0618815
0.056861
0.0536371
0.0519838
0.0516442
0.0521634
0.0534216
0.0547963
0.193271
0.211044
0.22558
0.225316
0.210832
0.189144
0.177792
0.170682
0.162804
0.152055
0.138887
0.124644
0.110404
0.0970841
0.0853184
0.0754196
0.0674877
0.0614985
0.0573528
0.0548897
0.0538942
0.0540343
0.0549186
0.0561957
0.198007
0.215827
0.230956
0.233881
0.223648
0.199154
0.180932
0.17109
0.162784
0.153445
0.142287
0.129806
0.116912
0.104265
0.0925372
0.0822034
0.073517
0.0665845
0.061416
0.0579495
0.0560553
0.055543
0.0559583
0.0569886
0.200707
0.218867
0.234682
0.240942
0.23457
0.213219
0.189768
0.174585
0.164334
0.155005
0.144984
0.133946
0.122329
0.110656
0.099385
0.0890055
0.0798591
0.0721521
0.0659923
0.0614187
0.0584136
0.0569019
0.0567348
0.0572751
0.201331
0.21969
0.236265
0.245665
0.243164
0.227552
0.203687
0.183598
0.169361
0.158396
0.148209
0.137842
0.127195
0.116405
0.105766
0.0956465
0.0863653
0.0781599
0.0711904
0.0655619
0.0613465
0.058598
0.0573466
0.0573863
0.20026
0.218584
0.235737
0.247457
0.249049
0.239665
0.219313
0.197965
0.180154
0.166006
0.154042
0.143092
0.132568
0.122217
0.112058
0.102264
0.0930472
0.0846024
0.0770819
0.070602
0.0652624
0.0611804
0.0585526
0.0576719
0.197443
0.215347
0.232778
0.246274
0.251888
0.247723
0.23374
0.214607
0.195674
0.178915
0.164462
0.151788
0.140307
0.129568
0.119346
0.109598
0.100379
0.0917799
0.0838933
0.0767983
0.0705675
0.0652883
0.0611682
0.0589055
0.193148
0.210216
0.227389
0.242223
0.250873
0.251574
0.244135
0.229827
0.212874
0.195753
0.179754
0.165288
0.152261
0.140386
0.129407
0.119167
0.109591
0.10066
0.092382
0.0847723
0.0778526
0.071646
0.0662283
0.0623016
0.187712
0.203603
0.220005
0.235272
0.246218
0.250959
0.24883
0.240477
0.22764
0.212738
0.197337
0.18243
0.168465
0.155541
0.143602
0.132552
0.122306
0.112796
0.103977
0.095811
0.0882767
0.0813453
0.0750141
0.0695347
0.181498
0.196045
0.211225
0.226103
0.238346
0.245773
0.247883
0.244574
0.236649
0.225542
0.212728
0.199285
0.185938
0.17309
0.160933
0.149535
0.138899
0.128997
0.119789
0.11123
0.103282
0.0958896
0.0890996
0.0826661
0.174871
0.188127
0.201839
0.215712
0.228021
0.237102
0.241723
0.242137
0.238405
0.231294
0.221932
0.211233
0.199941
0.188579
0.177486
0.166868
0.156832
0.147416
0.138624
0.130433
0.12282
0.115736
0.109286
0.103151
0.168169
0.180435
0.192632
0.205171
0.216816
0.226191
0.232103
0.23448
0.233544
0.229574
0.223281
0.21547
0.206767
0.197683
0.188606
0.17981
0.171471
0.163661
0.156423
0.149771
0.143695
0.138186
0.133311
0.128946
0.161506
0.173501
0.184259
0.195482
0.2062
0.215115
0.22121
0.224156
0.224551
0.222325
0.218062
0.212379
0.205817
0.198819
0.191742
0.184864
0.178409
0.172566
0.167391
0.16289
0.159036
0.155764
0.152967
0.150579
0.155711
0.167674
0.177104
0.187339
0.197333
0.205696
0.211428
0.214261
0.214893
0.213267
0.209868
0.205257
0.199921
0.194267
0.188613
0.183196
0.178172
0.173637
0.169689
0.166354
0.163593
0.161294
0.159267
0.157471
0.00359617
0.0100213
0.0340767
0.0648573
0.0921104
0.11792
0.0148006
0.0231893
0.0507023
0.079435
0.10432
0.129234
0.0194819
0.0347312
0.0625758
0.0883289
0.11067
0.131473
0.0220231
0.0425667
0.0695688
0.092931
0.112896
0.130324
0.0238105
0.0480091
0.0737373
0.0951253
0.11303
0.128017
0.0249571
0.0519147
0.0760937
0.0957999
0.112004
0.125163
0.0261304
0.0545783
0.0772153
0.0954764
0.110166
0.121887
0.0272604
0.0562331
0.0774442
0.0943582
0.107752
0.118253
0.0280781
0.0571048
0.0770374
0.0926665
0.104886
0.114315
0.0285891
0.0573382
0.076087
0.0905255
0.101662
0.110135
0.0287916
0.0570534
0.0747186
0.0880279
0.0981561
0.105789
0.0287458
0.0562907
0.0729995
0.0852428
0.0944372
0.101365
0.0284564
0.0550822
0.0709703
0.0822203
0.090563
0.0969523
0.0280203
0.0534334
0.06865
0.0789927
0.0865795
0.0926371
0.0274074
0.05135
0.0660403
0.0755758
0.0825192
0.0884953
0.0265885
0.0488022
0.0631324
0.071974
0.0783978
0.0845849
0.0254509
0.0457764
0.0599246
0.0681875
0.0742138
0.0809533
0.0249303
0.0425094
0.0564523
0.0642162
0.0699451
0.0776954
0.0244095
0.0394055
0.052774
0.0600489
0.065536
0.0747885
0.0234806
0.0364517
0.0488737
0.0556317
0.0608967
0.0717569
0.022094
0.0333645
0.0445408
0.0507942
0.0559056
0.0679197
0.0202162
0.0296274
0.0392149
0.0450924
0.0499401
0.0626505
0.0164767
0.0237636
0.0312639
0.0371895
0.0409435
0.0563505
0.00448522
0.00885017
0.0137918
0.019744
0.0233654
0.0319334
0.152405
0.162855
0.171239
0.180996
0.19077
0.19901
0.204731
0.207532
0.208159
0.206638
0.20344
0.199132
0.194194
0.189022
0.183916
0.179093
0.174698
0.170812
0.167455
0.164602
0.162189
0.160109
0.158224
0.156563
0.150258
0.158614
0.166516
0.176331
0.186546
0.19544
0.201832
0.205059
0.205932
0.204662
0.201673
0.197542
0.192756
0.187711
0.182706
0.17795
0.173574
0.169642
0.166163
0.163107
0.160432
0.1581
0.156095
0.154427
0.147292
0.154745
0.162644
0.172985
0.184169
0.194142
0.201548
0.205829
0.207468
0.206961
0.204583
0.200912
0.196435
0.191554
0.186571
0.1817
0.177075
0.17277
0.168817
0.165227
0.162029
0.159295
0.157112
0.155385
0.143819
0.151066
0.159263
0.170395
0.182787
0.194159
0.203151
0.209105
0.21202
0.212648
0.211262
0.208388
0.204491
0.199981
0.19517
0.190275
0.185439
0.180748
0.176252
0.171987
0.168011
0.164452
0.161495
0.15913
0.140105
0.147371
0.15598
0.167958
0.181605
0.194468
0.204899
0.212122
0.216027
0.217309
0.216456
0.214
0.210284
0.205821
0.200917
0.195797
0.190614
0.185467
0.180422
0.175532
0.170873
0.166583
0.1629
0.159807
0.136126
0.143459
0.152429
0.165116
0.179786
0.193671
0.204763
0.212282
0.21629
0.217521
0.216624
0.214115
0.210235
0.20557
0.20041
0.194961
0.189357
0.183679
0.177977
0.172276
0.166605
0.160999
0.155791
0.150668
0.131873
0.139196
0.148358
0.161458
0.176571
0.190336
0.200429
0.206275
0.208493
0.207888
0.205436
0.201291
0.19605
0.190182
0.18393
0.177457
0.170853
0.16417
0.157443
0.150636
0.143782
0.136713
0.130113
0.122184
0.127345
0.134546
0.143726
0.156912
0.17161
0.183274
0.1894
0.190433
0.187632
0.182651
0.17618
0.168998
0.161509
0.153924
0.146365
0.138861
0.131407
0.12401
0.116637
0.109123
0.101688
0.0940522
0.0873975
0.0785302
0.12258
0.129614
0.138825
0.152026
0.165484
0.172509
0.171619
0.164689
0.154428
0.143743
0.133284
0.123333
0.11418
0.105722
0.0978289
0.0904127
0.0834479
0.0769192
0.070872
0.0654662
0.0607058
0.0564731
0.053016
0.049784
0.117672
0.124673
0.134398
0.148649
0.15942
0.159868
0.150372
0.133845
0.118254
0.105177
0.0949574
0.0866947
0.0794637
0.0729799
0.0671646
0.0619913
0.057424
0.0534212
0.0499461
0.0469666
0.0444738
0.0424712
0.0410698
0.0403347
0.112768
0.120157
0.131763
0.147749
0.154405
0.147758
0.127989
0.108279
0.0948265
0.0857938
0.0783397
0.071657
0.0655893
0.0601449
0.0553323
0.0511323
0.0475106
0.0444302
0.0418591
0.0397812
0.0382046
0.0371821
0.0368078
0.0370642
0.108055
0.116577
0.131724
0.149617
0.149536
0.13455
0.109312
0.0939915
0.0848222
0.0776288
0.0711488
0.0651148
0.0595511
0.0545372
0.0501138
0.0462837
0.0430268
0.0403148
0.0381262
0.0364599
0.035344
0.0348581
0.0349957
0.0358517
0.103744
0.114664
0.135633
0.151201
0.144173
0.118177
0.0979639
0.0877977
0.0805584
0.0740297
0.0676263
0.0614402
0.0557265
0.0506434
0.0462492
0.0425369
0.039472
0.037021
0.0351717
0.0339416
0.0333686
0.0334388
0.0339938
0.0354286
0.10007
0.115386
0.143263
0.150841
0.133845
0.105714
0.0930497
0.0852924
0.0782637
0.0710971
0.0639872
0.0573421
0.0514577
0.0464238
0.0422205
0.0387879
0.036066
0.0340164
0.0326295
0.031919
0.0318883
0.0323207
0.0334615
0.0352483
0.0973395
0.119756
0.149553
0.145967
0.11894
0.100446
0.091309
0.0835954
0.0755084
0.0674443
0.0598613
0.053178
0.0475044
0.0427986
0.0389686
0.0359223
0.0335913
0.0319379
0.0309539
0.0306483
0.0308774
0.0316663
0.0331266
0.0350114
0.0959347
0.128045
0.150906
0.136795
0.110446
0.0985894
0.0901848
0.0812189
0.0721184
0.06348
0.0558648
0.0494153
0.04408
0.0397396
0.0362697
0.0335685
0.0315671
0.0302301
0.0295461
0.0295095
0.0299378
0.0309836
0.0325717
0.0344511
0.0961025
0.137295
0.145453
0.123839
0.107836
0.0982119
0.0884142
0.0780786
0.0681524
0.0594165
0.0520413
0.0459547
0.0410057
0.0370345
0.0339028
0.0315071
0.0297811
0.0286911
0.0282233
0.0283241
0.0289085
0.030074
0.0316815
0.0334954
0.0980745
0.140706
0.135826
0.118762
0.107492
0.0970072
0.0853816
0.0739935
0.0639305
0.0554483
0.0484677
0.0428022
0.0382501
0.0346315
0.0318031
0.0296626
0.0281468
0.0272234
0.026878
0.0270458
0.0276959
0.0288569
0.0304147
0.0321355
0.101511
0.139855
0.128802
0.118022
0.107633
0.0947096
0.0814674
0.069667
0.0597641
0.0516713
0.0451369
0.0398963
0.0357171
0.0324111
0.029836
0.0278933
0.0265233
0.0256958
0.0253977
0.0255742
0.0262054
0.0272984
0.028761
0.0303752
0.10119
0.134438
0.126754
0.119927
0.10651
0.0909298
0.0768456
0.0651394
0.0556718
0.0480824
0.0420201
0.0371885
0.0333482
0.0303128
0.0279445
0.0261493
0.0248702
0.0240794
0.023766
0.023897
0.0244414
0.025416
0.0267498
0.0282515
0.0965371
0.131835
0.128922
0.121095
0.103528
0.0861435
0.0719539
0.0606946
0.0517815
0.0447152
0.0391053
0.0346473
0.0311047
0.0282977
0.0260942
0.0244039
0.0231721
0.0223718
0.0219947
0.0220315
0.0224373
0.0232512
0.0244295
0.0258159
0.105948
0.134512
0.135388
0.121496
0.098481
0.0806097
0.0669477
0.0563649
0.0480741
0.0415346
0.0363536
0.0322353
0.028954
0.0263399
0.0242678
0.0226512
0.0214355
0.0205935
0.0201181
0.0200114
0.0202471
0.0208522
0.0218463
0.0231128
0.125237
0.147978
0.139558
0.114581
0.0916443
0.07475
0.0620273
0.0522287
0.0445732
0.0385391
0.0337536
0.0299387
0.0268848
0.0244336
0.0224676
0.020903
0.0196844
0.0187816
0.0181846
0.0178972
0.0179238
0.0182727
0.0190334
0.0201629
0.145861
0.161029
0.139579
0.106868
0.0846832
0.0689972
0.0573031
0.0483112
0.0412787
0.0357216
0.0312977
0.0277538
0.0248986
0.0225868
0.0207088
0.0191836
0.0179542
0.0169843
0.0162566
0.015769
0.0155296
0.015572
0.0160045
0.0169463
0.00584546
0.0235033
0.0549718
0.0877657
0.128257
0.142695
0.0199466
0.050745
0.088248
0.124987
0.160789
0.2064
0.0240243
0.0638646
0.102778
0.138792
0.168221
0.190961
0.0258686
0.0720571
0.10945
0.141405
0.159966
0.164359
0.0288989
0.0770364
0.111821
0.138032
0.145834
0.14193
0.0311431
0.0799923
0.111925
0.131813
0.132438
0.124377
0.0327802
0.0815862
0.110706
0.125172
0.12218
0.111179
0.0338706
0.0822386
0.108867
0.119408
0.114332
0.101937
0.0344961
0.0821897
0.106828
0.114812
0.108374
0.0953791
0.0347357
0.0815686
0.104786
0.111255
0.103875
0.0905823
0.0346566
0.0804415
0.102803
0.108487
0.100523
0.0869881
0.0343184
0.0788418
0.100868
0.106256
0.0980873
0.0842866
0.0337545
0.0767588
0.098932
0.104434
0.0963556
0.0822848
0.0329129
0.0741666
0.0969253
0.102913
0.0951777
0.0808698
0.0317746
0.0710305
0.0947446
0.101565
0.0944421
0.0799693
0.0303141
0.0673147
0.0922453
0.100243
0.094045
0.0795283
0.0285095
0.0629751
0.0892291
0.0987845
0.0938683
0.0795036
0.0263507
0.057957
0.0854246
0.0969779
0.0937547
0.0798707
0.0250283
0.0521871
0.0804501
0.0945394
0.093437
0.0805365
0.0238916
0.0458681
0.073754
0.0910731
0.0924408
0.0812655
0.022402
0.0390389
0.0647461
0.0857567
0.0901603
0.0818281
0.0204077
0.031392
0.0528853
0.0769274
0.0854753
0.0813399
0.016576
0.0218866
0.0369095
0.0612249
0.0756696
0.0764002
0.00436016
0.00672844
0.0143179
0.0364642
0.0604071
0.0698164
0.184474
0.167292
0.127176
0.0972729
0.0774497
0.0633843
0.0528184
0.0446381
0.0382012
0.0330853
0.0289891
0.025687
0.0230072
0.0208175
0.0190163
0.0175258
0.016287
0.0152569
0.0144062
0.0137175
0.0131837
0.0128306
0.0128062
0.0134105
0.199284
0.154719
0.113279
0.0874714
0.0704109
0.0580815
0.0486463
0.041238
0.0353498
0.030634
0.0268328
0.0237484
0.0212272
0.0191493
0.0174209
0.015968
0.0147312
0.0136622
0.0127201
0.0118678
0.0110684
0.0103006
0.00963565
0.00948147
0.173543
0.130467
0.0992338
0.078546
0.0641409
0.0533322
0.0448702
0.0381327
0.0327276
0.0283682
0.0248328
0.0219473
0.0195742
0.0176049
0.0159533
0.0145502
0.0133388
0.0122703
0.0113006
0.0103836
0.00946459
0.00848103
0.00738419
0.00583397
0.146354
0.11259
0.087899
0.0709659
0.0586378
0.0490804
0.0414493
0.0352983
0.0303217
0.026282
0.0229883
0.020287
0.0180554
0.0161957
0.0146295
0.0132938
0.0121369
0.0111152
0.0101902
0.00932329
0.00846902
0.0075788
0.00661782
0.00534546
0.123073
0.0976529
0.07849
0.064524
0.0538333
0.0452966
0.0383669
0.032723
0.0281234
0.0243689
0.0212942
0.0187634
0.0166669
0.0149161
0.0134403
0.0121822
0.0110952
0.0101407
0.00928513
0.00849445
0.00772711
0.00694152
0.00612397
0.00511029
0.106387
0.086529
0.070999
0.059099
0.0496498
0.0419391
0.0355988
0.030391
0.0261209
0.0226195
0.0197421
0.0173679
0.015398
0.013752
0.0123654
0.0111859
0.0101709
0.00928542
0.00849915
0.00778137
0.00709435
0.00640449
0.00571247
0.00490342
0.0948659
0.0781711
0.0649492
0.05451
0.046012
0.0389688
0.0331208
0.0282854
0.0243017
0.0210235
0.0183229
0.016091
0.014238
0.0126903
0.0113886
0.0102846
0.00933898
0.00851967
0.00779913
0.00714959
0.00653754
0.00593691
0.00535664
0.00471275
0.0866103
0.0717485
0.0600159
0.0506169
0.04285
0.036346
0.030908
0.0263895
0.0226535
0.0195714
0.0170281
0.0149247
0.0131786
0.0117221
0.0104999
0.00946725
0.00858772
0.00783164
0.00717389
0.00658943
0.00604878
0.00553182
0.00505076
0.00454202
0.0804891
0.0666979
0.0559494
0.0473039
0.0401033
0.0340349
0.0289375
0.0246875
0.0211649
0.0182541
0.0158504
0.0138625
0.0122138
0.0108414
0.00969351
0.00872837
0.00791196
0.00721674
0.0066196
0.00609774
0.00562497
0.0051853
0.00479084
0.00439235
0.0758075
0.0626557
0.0525735
0.0444815
0.0377209
0.032004
0.0271883
0.0231648
0.0198253
0.0170639
0.0147834
0.012899
0.011339
0.010044
0.00896571
0.00806459
0.00730876
0.00667236
0.00613381
0.00567189
0.00526287
0.00489326
0.00457299
0.00426348
0.0721543
0.0593875
0.0497638
0.0420798
0.0356603
0.0302255
0.0256416
0.0218082
0.018625
0.0159932
0.0138214
0.0120296
0.01055
0.00932656
0.00831334
0.00747305
0.00677539
0.00619579
0.00571357
0.00530843
0.00495826
0.00465079
0.00439284
0.00415421
0.0692817
0.056741
0.0474299
0.040043
0.0338853
0.028675
0.0242804
0.0206056
0.0175553
0.0150354
0.0129591
0.0112498
0.00984309
0.00868546
0.00773315
0.00695055
0.0063086
0.00578348
0.00535482
0.00500262
0.00470573
0.00445221
0.00424568
0.00406285
0.0670357
0.0546115
0.0455034
0.0383262
0.0323656
0.0273317
0.0230902
0.0195463
0.016608
0.0141842
0.012191
0.0105551
0.00921419
0.008117
0.00722151
0.00649339
0.00590441
0.00543099
0.00505251
0.00474878
0.00449913
0.00429155
0.00412687
0.00398754
0.0653152
0.0529242
0.0439319
0.0368933
0.0310765
0.0261781
0.0220581
0.0186209
0.0157757
0.0134334
0.0115123
0.009941
0.00865917
0.00761716
0.00677434
0.0060973
0.00555817
0.00513313
0.00480086
0.00454063
0.00433209
0.00416303
0.00403209
0.00392644
0.0640535
0.0516253
0.0426758
0.0357164
0.0299978
0.0251997
0.0211733
0.017821
0.0150517
0.0127776
0.010918
0.00940304
0.00817373
0.00718168
0.00638724
0.00575757
0.00526474
0.00488424
0.00459373
0.00437183
0.00419847
0.00406132
0.00395747
0.00387778
0.0632069
0.0506769
0.0417063
0.0347742
0.029114
0.0243847
0.020427
0.0171394
0.0144302
0.0122116
0.0104035
0.00893679
0.00775353
0.00680614
0.0060556
0.00546927
0.00501875
0.0046785
0.00442501
0.00423629
0.00409263
0.00398173
0.00389962
0.00383988
0.0627508
0.0500548
0.0410042
0.0340521
0.0284137
0.0237244
0.019812
0.0165704
0.0139061
0.0117307
0.00996428
0.00853797
0.00739426
0.00648609
0.00577474
0.00522738
0.00481482
0.00451025
0.00428895
0.00412846
0.00400961
0.00392024
0.00385562
0.00381113
0.0626809
0.0497469
0.040559
0.0335413
0.0278896
0.0232124
0.0193229
0.0161091
0.0134749
0.0113309
0.0095965
0.00820262
0.00709184
0.00621723
0.00554007
0.00502702
0.0046478
0.0043742
0.00418033
0.00404349
0.00394514
0.00387342
0.00382295
0.00379006
0.0630143
0.0497523
0.0403689
0.033239
0.027538
0.0228451
0.0189561
0.0157521
0.0131335
0.0110089
0.00929675
0.00792721
0.00684251
0.00599553
0.00534724
0.00486354
0.00451288
0.00426555
0.00409461
0.00397722
0.00389557
0.00383824
0.00379933
0.00377527
0.0638004
0.0500835
0.0404398
0.0331481
0.0273588
0.0226212
0.0187096
0.0154971
0.0128793
0.0107621
0.00906234
0.00770885
0.0066431
0.00581747
0.00519236
0.00473276
0.00440573
0.00418006
0.00402787
0.00392619
0.00385786
0.00381197
0.00378258
0.00376521
0.0651206
0.0507751
0.0407871
0.0332775
0.0273546
0.0225418
0.0185826
0.0153429
0.0127106
0.0105888
0.0088913
0.00754538
0.00649121
0.00568033
0.00507236
0.00463128
0.00432278
0.00411426
0.00397694
0.00388774
0.00382992
0.00379288
0.00377069
0.00375836
0.0670798
0.0518841
0.0414424
0.0336431
0.0275331
0.0226013
0.018575
0.015289
0.0126265
0.0104878
0.00878247
0.00743546
0.0063853
0.00558227
0.00498511
0.00455673
0.00426154
0.00406566
0.0039395
0.00385979
0.00381004
0.00377973
0.00376268
0.00375409
0.0697538
0.0534984
0.0424455
0.0342644
0.0279039
0.0228166
0.0186835
0.0153293
0.0126262
0.0104588
0.00873523
0.00737837
0.00632455
0.00552229
0.00492932
0.00450758
0.00422032
0.00403253
0.00391381
0.00384064
0.00379657
0.00377108
0.00375795
0.00375182
0.0732036
0.0557162
0.0438354
0.0351513
0.028469
0.0231824
0.0189186
0.0154737
0.0127049
0.0104964
0.00874758
0.0073739
0.00630889
0.00550001
0.0049043
0.00448285
0.004198
0.00401369
0.00389874
0.0038292
0.00378847
0.00376616
0.00375538
0.00375086
0.00537807
0.0196102
0.047413
0.0641654
0.0726194
0.0760523
0.0189232
0.0389635
0.0646464
0.0780753
0.0839003
0.0852974
0.0249617
0.0564244
0.0784183
0.0883153
0.0913015
0.0901386
0.0291179
0.068572
0.087828
0.0955053
0.0970423
0.0940967
0.0351066
0.0771292
0.0949851
0.101456
0.102191
0.0981113
0.0399773
0.0835004
0.100828
0.106858
0.107219
0.102426
0.0438431
0.0883849
0.105843
0.11204
0.112367
0.107171
0.0468251
0.0921887
0.110293
0.117173
0.117778
0.112457
0.0490397
0.0951686
0.114321
0.122338
0.123547
0.118397
0.0505867
0.0974805
0.117997
0.127563
0.129752
0.125098
0.0515458
0.0992104
0.121338
0.132833
0.136444
0.13266
0.0519726
0.100379
0.124326
0.138088
0.143638
0.14117
0.0519619
0.100907
0.126921
0.143221
0.151295
0.150686
0.0517763
0.100706
0.129023
0.148109
0.159279
0.161206
0.0513323
0.0996504
0.130437
0.152559
0.167363
0.172639
0.0505455
0.09766
0.130894
0.156231
0.175207
0.184798
0.049322
0.0945802
0.130185
0.158668
0.18228
0.197317
0.047545
0.0902283
0.127753
0.159263
0.187801
0.209454
0.0450559
0.0844474
0.123298
0.157652
0.19069
0.220217
0.0416271
0.0771035
0.116454
0.152637
0.189715
0.228191
0.0369805
0.0681213
0.106884
0.143553
0.183241
0.231327
0.0308313
0.0573437
0.0940226
0.129201
0.168028
0.227511
0.0224289
0.0435559
0.0759861
0.107231
0.140257
0.208085
0.00702159
0.0171941
0.0387208
0.0646911
0.0950278
0.123226
0.0766017
0.058597
0.0456094
0.0362921
0.029222
0.0236959
0.0192746
0.0157209
0.0128754
0.0106112
0.00882139
0.00741918
0.00633488
0.00551344
0.00490923
0.00448222
0.00419416
0.00400862
0.00389374
0.00382499
0.00378538
0.0037644
0.00375453
0.0037506
0.0793933
0.0615983
0.0476408
0.0376415
0.0301461
0.0243509
0.0197495
0.0160693
0.0131326
0.0108015
0.00896258
0.00752372
0.00641147
0.00556801
0.00494664
0.00450663
0.0042093
0.0040176
0.00389895
0.00382805
0.00378727
0.00376551
0.00375511
0.00375077
0.0821037
0.0644321
0.0497843
0.0391477
0.0312227
0.0251411
0.0203421
0.01652
0.0134785
0.0110688
0.00917019
0.00768517
0.00653641
0.00566335
0.00501762
0.00455775
0.00424486
0.00404168
0.00391506
0.00383881
0.00379437
0.00376967
0.00375723
0.00375141
0.0848823
0.0671797
0.0520038
0.0407901
0.0324433
0.0260646
0.0210537
0.0170757
0.0139166
0.0114167
0.00944789
0.00790728
0.00671348
0.0058029
0.00512528
0.00463835
0.00430324
0.00408282
0.00394355
0.00385827
0.00380728
0.0037776
0.00376127
0.00375294
0.0879382
0.0700098
0.0543431
0.0425828
0.0338143
0.0271265
0.0218892
0.0177413
0.0144518
0.01185
0.00980037
0.00819459
0.00694701
0.00599084
0.00527365
0.00475226
0.00438792
0.00414396
0.00398675
0.0038882
0.0038273
0.00379007
0.00376819
0.00375588
0.0914212
0.0730927
0.0568852
0.044565
0.0353555
0.0283389
0.0228574
0.0185242
0.0150906
0.0123747
0.0102333
0.00855245
0.00724217
0.00623218
0.00546768
0.00490432
0.00450348
0.00422918
0.00404806
0.00393132
0.00385657
0.0038087
0.00377899
0.00376093
0.0954567
0.0765859
0.0597313
0.0467918
0.0370975
0.0297203
0.0239711
0.0194342
0.0158413
0.012998
0.0107532
0.00898707
0.00760486
0.00653271
0.00571311
0.00510028
0.0046555
0.00434362
0.00413191
0.00399121
0.00389783
0.00383555
0.00379515
0.00376913
0.100172
0.080639
0.0629917
0.0493301
0.0390802
0.0312954
0.0252469
0.0204834
0.0167134
0.0137284
0.0113678
0.00950544
0.00804172
0.00689883
0.00601629
0.0053465
0.00485032
0.00449332
0.00424376
0.00407255
0.00395492
0.00387344
0.00381803
0.0037813
0.105707
0.0854067
0.0667892
0.0522589
0.0413525
0.0330949
0.0267049
0.0216863
0.0177184
0.0145752
0.0120853
0.0101153
0.00856004
0.00733762
0.00638424
0.00565008
0.00509513
0.00468543
0.00439029
0.00418111
0.00403235
0.00392539
0.00384951
0.00379823
0.112213
0.0910595
0.0712654
0.0556744
0.0439746
0.0351565
0.0283698
0.02306
0.0188692
0.0155491
0.0129151
0.0108251
0.00916794
0.00785699
0.00682484
0.00601906
0.00539823
0.00492834
0.00457956
0.00432401
0.00413569
0.00399531
0.00389263
0.00382158
0.119854
0.0977916
0.0765881
0.0596947
0.0470216
0.0375271
0.0302714
0.0246247
0.0201805
0.0166619
0.0138674
0.0116443
0.00987435
0.00846569
0.00734687
0.00646238
0.00576881
0.00523142
0.00482078
0.00450965
0.00427209
0.00408903
0.00395187
0.00385376
0.128805
0.105826
0.0829603
0.0644673
0.0505888
0.0402652
0.0324463
0.0264043
0.0216692
0.0179265
0.0149531
0.0125828
0.0106887
0.00917303
0.00795959
0.00698939
0.00621643
0.0056045
0.00512392
0.00474783
0.00445054
0.00421395
0.00403205
0.00389698
0.139237
0.115415
0.0906272
0.0701784
0.0547981
0.0434459
0.0349401
0.0284278
0.023355
0.0193576
0.016184
0.0136509
0.0116208
0.00998844
0.00867236
0.00760945
0.00675059
0.00605744
0.00549927
0.00504901
0.00468101
0.00437841
0.00413879
0.00395359
0.151303
0.126833
0.0998787
0.0770609
0.0598065
0.0471658
0.0378112
0.0307309
0.0252609
0.0209714
0.0175726
0.0148593
0.0126802
0.0109211
0.00949422
0.00833166
0.00738059
0.0065999
0.00595704
0.00542391
0.00497412
0.00459175
0.0042788
0.00402645
0.165099
0.140361
0.111042
0.0853987
0.0658143
0.0515505
0.0411347
0.0333588
0.0274151
0.0227864
0.0191324
0.0162186
0.0138762
0.0119797
0.0104337
0.00916453
0.00811515
0.00724101
0.00650698
0.00588287
0.00534053
0.00486392
0.00445969
0.00411889
0.180554
0.156276
0.124455
0.0955205
0.0730709
0.0567622
0.0450084
0.0363694
0.0298528
0.024825
0.0208784
0.01774
0.0152179
0.0131723
0.0114983
0.0101157
0.0089622
0.00798912
0.00715797
0.0064355
0.00579039
0.00520493
0.00468958
0.0042345
0.197434
0.174723
0.140394
0.107769
0.0818712
0.0630055
0.0495591
0.0398382
0.0326187
0.0271146
0.0228284
0.0194356
0.0167143
0.0145064
0.0126951
0.011192
0.00992859
0.00885147
0.00791783
0.00709029
0.0063329
0.00562419
0.0049765
0.00437674
0.215574
0.195361
0.158956
0.122437
0.0925348
0.0705284
0.0549492
0.0438636
0.0357715
0.0296905
0.0250043
0.0213198
0.0183755
0.0159896
0.0140302
0.012399
0.0110201
0.0098341
0.00879316
0.00785458
0.0069762
0.0061303
0.00532789
0.00454825
0.234311
0.217431
0.180001
0.139674
0.105357
0.0796096
0.061379
0.0485727
0.0393881
0.0325991
0.0274346
0.0234107
0.0202135
0.0176304
0.0155103
0.0137423
0.0122417
0.0109421
0.00978947
0.00873463
0.00772755
0.00673125
0.0057507
0.00475027
0.25241
0.239591
0.203029
0.159345
0.120513
0.0905198
0.0690788
0.0541237
0.0435681
0.0359018
0.0301575
0.0257327
0.0222447
0.0194402
0.0171438
0.0152287
0.0135993
0.0121809
0.0109122
0.00973641
0.00859402
0.00743526
0.00625221
0.00498229
0.268055
0.260039
0.226687
0.180797
0.137897
0.103438
0.0782816
0.0607021
0.048437
0.0396786
0.0332239
0.0283192
0.0244919
0.0214359
0.0189438
0.016869
0.0151023
0.0135591
0.0121695
0.0108682
0.00958484
0.00825316
0.0068423
0.00524195
0.278511
0.276129
0.248732
0.202707
0.156941
0.118317
0.0891581
0.0685018
0.0541437
0.044031
0.0367011
0.0312158
0.0269877
0.0236423
0.0209313
0.0186821
0.0167688
0.0150945
0.013579
0.0121473
0.0107176
0.00920469
0.00754313
0.0055321
0.276399
0.284572
0.265752
0.223351
0.176568
0.134745
0.101716
0.0776788
0.0608482
0.0490809
0.0406744
0.0344822
0.0297763
0.0260954
0.0231384
0.0207001
0.018633
0.0168249
0.0151829
0.0136204
0.0120427
0.0103443
0.00840787
0.00587492
0.233406
0.278409
0.271856
0.240485
0.195233
0.151879
0.115687
0.088278
0.0686896
0.054961
0.0452455
0.0381925
0.0329135
0.028841
0.0256081
0.0229688
0.0207495
0.0188197
0.017072
0.0154058
0.0137113
0.011857
0.00965147
0.00652288
)
;

boundaryField
{
    rotor
    {
        type            kqRWallFunction;
        value           nonuniform List<scalar> 
144
(
0.00569587
0.0155211
0.0301409
0.0407517
0.0443682
0.0513999
0.00569587
0.0195355
0.0271646
0.0328843
0.0375607
0.0413884
0.044522
0.0470737
0.0491264
0.0507506
0.0520186
0.0529056
0.0531763
0.0529094
0.0519915
0.0504152
0.0481576
0.0451912
0.0414964
0.0370176
0.0316854
0.0254558
0.0176073
0.00450287
0.00450287
0.0179213
0.0388446
0.0652295
0.0910897
0.116543
0.00359617
0.0100213
0.0340767
0.0648573
0.0921104
0.11792
0.00359617
0.0148006
0.0194819
0.0220231
0.0238105
0.0249571
0.0261304
0.0272604
0.0280781
0.0285891
0.0287916
0.0287458
0.0284564
0.0280203
0.0274074
0.0265885
0.0254509
0.0249303
0.0244095
0.0234806
0.022094
0.0202162
0.0164767
0.00448522
0.00448522
0.00885017
0.0137918
0.019744
0.0233654
0.0319334
0.00584546
0.0235033
0.0549718
0.0877657
0.128257
0.142695
0.00584546
0.0199466
0.0240243
0.0258686
0.0288989
0.0311431
0.0327802
0.0338706
0.0344961
0.0347357
0.0346566
0.0343184
0.0337545
0.0329129
0.0317746
0.0303141
0.0285095
0.0263507
0.0250283
0.0238916
0.022402
0.0204077
0.016576
0.00436016
0.00436016
0.00672844
0.0143179
0.0364642
0.0604071
0.0698164
0.00537807
0.0196102
0.047413
0.0641654
0.0726194
0.0760523