/*--------------------------------*- C++ -*----------------------------------*\
  =========                 |
  \\      /  F ield         | OpenFOAM: The Open Source CFD Toolbox
   \\    /   O peration     | Website:  https://openfoam.org
    \\  /    A nd           | Version:  11
     \\/     M anipulation  |
\*---------------------------------------------------------------------------*/
FoamFile
{
    format      ascii;
    class       volScalarField;
    location    "0.24";
    object      nut;
}
// * * * * * * * * * * * * * * * * * * * * * * * * * * * * * * * * * * * * * //

dimensions      [0 2 -1 0 0 0 0];

internalField   nonuniform List<scalar> 
2880
(
1.09466e-06
5.79532e-06
1.85188e-05
3.73382e-05
5.67141e-05
8.73855e-05
3.37502e-05
7.52369e-05
0.00013924
0.000191043
0.000226486
0.00024378
4.91547e-05
0.00014156
0.000251733
0.000326852
0.000369897
0.000371339
5.40989e-05
0.000190291
0.000337301
0.000429833
0.000481371
0.00048718
5.78325e-05
0.000231029
0.000403621
0.000509746
0.000570134
0.000587283
6.07196e-05
0.000268476
0.000457799
0.000574915
0.000643403
0.000671983
6.29844e-05
0.000303262
0.000503512
0.000629071
0.000705356
0.000744411
6.4769e-05
0.000334963
0.000541799
0.000673714
0.000758428
0.000807548
6.61682e-05
0.000362613
0.00057257
0.000709653
0.000803055
0.000861696
6.72532e-05
0.000385071
0.000595451
0.000737268
0.000839024
0.000907061
6.80866e-05
0.00040107
0.000610263
0.000756645
0.00086695
0.000944297
6.86616e-05
0.000410076
0.00061697
0.000767705
0.000886996
0.000974452
6.88332e-05
0.000412941
0.000615423
0.000770136
0.000898853
0.00099782
6.86565e-05
0.000409827
0.000605263
0.000762721
0.00090116
0.0010142
6.80542e-05
0.00040055
0.000586622
0.000746231
0.000893151
0.00102025
6.70102e-05
0.000384881
0.000558911
0.00071894
0.000873789
0.00101788
6.54882e-05
0.000362474
0.000521944
0.000679612
0.000839918
0.00100259
6.34355e-05
0.000332951
0.000475982
0.000627306
0.000787602
0.000969037
6.07849e-05
0.000296001
0.000420947
0.000560313
0.000713826
0.000915047
5.74077e-05
0.000251188
0.000356998
0.000478138
0.000616686
0.000824038
5.31094e-05
0.000198096
0.000284466
0.000381934
0.000495943
0.000680263
4.76022e-05
0.000136356
0.000202341
0.000275325
0.000357224
0.000476735
3.04366e-05
6.5442e-05
0.00010852
0.000163983
0.000214096
0.000242527
8.66653e-07
6.66978e-06
2.37631e-05
5.95301e-05
0.000116124
4.61129e-05
0.000217271
0.000655292
0.0010768
0.00141207
0.00156163
0.00163257
0.00169609
0.00179383
0.00195063
0.0021727
0.00245154
0.00277105
0.00311307
0.00345978
0.00379383
0.00409812
0.00435584
0.00455083
0.00466777
0.00469162
0.00460704
0.00440533
0.0041233
0.0039194
0.000162384
0.000517834
0.000882115
0.00121681
0.00145413
0.00155008
0.00161625
0.00169591
0.00182058
0.00200604
0.0022525
0.00254916
0.00288004
0.00322774
0.00357504
0.00390539
0.00420347
0.00445594
0.00465223
0.00478451
0.0048478
0.0048449
0.0048022
0.00477411
0.00021885
0.00043091
0.000753206
0.00107184
0.00133723
0.00146746
0.00154151
0.00161144
0.00171037
0.00186066
0.00207095
0.00233754
0.00264869
0.00298907
0.00334275
0.00369486
0.00403267
0.00434634
0.00462868
0.00487351
0.00507375
0.00522287
0.00531874
0.00538434
0.000367611
0.000392702
0.000651965
0.000920815
0.00118933
0.00138164
0.00146813
0.00153626
0.00161742
0.00173718
0.00191084
0.00214218
0.00242535
0.00274893
0.00309973
0.00346563
0.00383722
0.00420761
0.00456997
0.00491341
0.00522092
0.00546755
0.00564686
0.0057578
0.000532938
0.0004131
0.000601889
0.000817468
0.00106474
0.00128542
0.00139671
0.00146785
0.00153844
0.001634
0.00177373
0.00196762
0.00221633
0.00251371
0.00285072
0.00321906
0.0036131
0.00402852
0.00445732
0.00488177
0.00527336
0.00558559
0.00582989
0.00596531
0.000659621
0.000484301
0.000583573
0.000737843
0.000945606
0.00116527
0.00132255
0.00140166
0.00146873
0.00154755
0.00165868
0.00181635
0.00202702
0.00229038
0.00260253
0.00295975
0.00336059
0.00380354
0.00427997
0.00476685
0.00521853
0.00559302
0.00588252
0.00604156
0.000753686
0.000592207
0.000610647
0.000693965
0.000859244
0.00105777
0.00123923
0.00133419
0.0014041
0.00147349
0.00156279
0.0016884
0.00186099
0.0020855
0.00236332
0.00269565
0.0030855
0.00353488
0.00403641
0.00456462
0.00506188
0.00548788
0.00581368
0.00599897
0.000828893
0.000720245
0.00065905
0.000689658
0.000796241
0.000959548
0.00113976
0.00126707
0.00134157
0.0014073
0.00148193
0.0015817
0.00171944
0.00190397
0.00214122
0.00243691
0.00279839
0.00323197
0.00373398
0.00428052
0.00480968
0.00527524
0.00563022
0.00584484
0.000892931
0.000831046
0.000734504
0.0007188
0.000762083
0.000889594
0.0010496
0.00119104
0.00127846
0.001346
0.00141221
0.00149286
0.00160127
0.00174824
0.00194279
0.00219401
0.00251282
0.00290993
0.00338738
0.00392707
0.00447228
0.00496192
0.00534912
0.00558234
0.000948485
0.000917302
0.000817767
0.000781357
0.000760973
0.00084211
0.000974033
0.00111027
0.00120991
0.0012844
0.00134874
0.00141743
0.00150342
0.00161813
0.00177199
0.00197593
0.00224297
0.00258725
0.00301719
0.00352361
0.00406648
0.00456278
0.00497693
0.0052253
0.000995793
0.000984949
0.000903178
0.000853679
0.000788561
0.000828257
0.000919281
0.00104328
0.00114373
0.00122346
0.00128883
0.00135124
0.00142174
0.00151104
0.00162955
0.00178839
0.00200091
0.00228281
0.00264777
0.00309716
0.0036077
0.00410016
0.00452542
0.00478885
0.00103621
0.00104136
0.000983825
0.000924891
0.000857513
0.000829486
0.000894366
0.000988253
0.0010834
0.00116439
0.00123135
0.00129116
0.00135205
0.00142291
0.00151315
0.00163288
0.00179419
0.00201207
0.00230264
0.002676
0.00312391
0.00359824
0.00401214
0.00429148
0.00107275
0.00109049
0.00105449
0.000996817
0.000940375
0.000867153
0.00088491
0.000957767
0.00103759
0.00111275
0.00117858
0.00123635
0.00129143
0.00134984
0.00141906
0.00150756
0.00162525
0.00178467
0.00200105
0.00228902
0.00265352
0.00307492
0.003471
0.00375372
0.00110232
0.0011334
0.00111511
0.00106718
0.00101852
0.000935309
0.000911201
0.000945412
0.00100787
0.00107296
0.0011338
0.00118837
0.00123883
0.00128891
0.00134342
0.00140873
0.00149232
0.00160357
0.00175454
0.00195952
0.00223086
0.00256758
0.0029338
0.00320098
0.00112529
0.00116964
0.00116588
0.00113334
0.00109068
0.00101776
0.000971209
0.000968457
0.00100123
0.00105087
0.00110226
0.00115085
0.00119615
0.00123938
0.00128336
0.00133219
0.00139094
0.00146592
0.00156535
0.0017
0.00188273
0.00212388
0.00241437
0.00267348
0.00114467
0.00120429
0.00121212
0.00119228
0.0011565
0.00110649
0.00104889
0.00102783
0.00103364
0.00105927
0.00109413
0.00113161
0.00116866
0.00120432
0.00123938
0.00127593
0.00131694
0.00136618
0.00142853
0.00151059
0.00162137
0.00177256
0.00197357
0.00219487
0.00115671
0.00123529
0.00125385
0.00124494
0.00122129
0.00118764
0.0011393
0.00111082
0.00109889
0.00110301
0.00111851
0.00114052
0.00116541
0.00119097
0.00121642
0.00124222
0.00126961
0.00130048
0.00133732
0.00138348
0.00144368
0.00152506
0.00164013
0.0018017
0.00115897
0.00126315
0.00129184
0.00129353
0.00128197
0.00126005
0.0012322
0.00120491
0.00118707
0.00117803
0.00117761
0.00118398
0.00119485
0.00120813
0.00122247
0.00123732
0.00125278
0.00126941
0.00128818
0.00131045
0.00133814
0.00137409
0.00142371
0.00152142
0.00114832
0.00128809
0.00132878
0.00133894
0.00133739
0.0013296
0.00131512
0.00129972
0.00128438
0.00127172
0.00126306
0.00125862
0.00125779
0.00125954
0.00126285
0.00126701
0.00127159
0.00127646
0.00128172
0.00128766
0.00129473
0.00130409
0.00131382
0.00136047
0.00112378
0.00130909
0.0013662
0.00138328
0.00139064
0.0013931
0.00139029
0.00138444
0.00137897
0.00136954
0.00135982
0.00135132
0.00134432
0.00133872
0.00133419
0.00133031
0.00132672
0.00132307
0.00131908
0.0013146
0.00130941
0.00130434
0.00129474
0.00130955
0.00108588
0.00132246
0.00140531
0.00143006
0.0014442
0.00145441
0.00146032
0.00146196
0.00146098
0.00145957
0.00145482
0.00144737
0.00143938
0.00143182
0.00142467
0.00141791
0.00141135
0.00140459
0.00139697
0.00138879
0.00137986
0.00137061
0.00135721
0.00136001
0.00102262
0.00132923
0.0014456
0.00148057
0.00150224
0.00151894
0.00153157
0.00153793
0.00154171
0.00154233
0.00154049
0.00153739
0.00153294
0.00152775
0.00152291
0.00151898
0.00151576
0.0015125
0.00150911
0.00150491
0.00149981
0.00149481
0.00148961
0.00149536
0.000933766
0.00133189
0.00148355
0.00153247
0.00156523
0.00159113
0.0016109
0.00162178
0.00162875
0.00163232
0.00163287
0.00163154
0.00162924
0.00162674
0.00162482
0.00162436
0.00162678
0.0016336
0.00164454
0.00165884
0.00167536
0.00169264
0.00170934
0.00172847
0.000831754
0.00133663
0.00151215
0.00157786
0.00162617
0.00166655
0.00169867
0.00171719
0.00172997
0.00173812
0.00174167
0.0017426
0.00174253
0.00174274
0.00174421
0.0017476
0.00175323
0.00176111
0.00177211
0.00178654
0.00180417
0.00182423
0.0018455
0.00186633
6.94582e-07
3.75151e-06
2.09884e-05
5.94305e-05
0.000117632
0.000201389
2.56437e-05
2.79097e-05
7.78695e-05
0.000161604
0.000262961
0.000393749
0.000155733
7.10996e-05
0.000158479
0.000283318
0.000434367
0.000648983
0.000176043
0.000117395
0.000236716
0.000394638
0.000581099
0.000826063
0.000190027
0.000162915
0.000307292
0.000488304
0.000691875
0.000925035
4.71178e-05
0.000205186
0.000368216
0.000562477
0.000768087
0.000969989
4.84742e-05
0.00024232
0.000419104
0.000618374
0.000814311
0.000982762
4.94355e-05
0.000272692
0.000459766
0.000657213
0.000837908
0.000973951
5.01728e-05
0.000295904
0.000490829
0.00068219
0.000844671
0.0009515
5.0628e-05
0.000311816
0.000512369
0.000695462
0.000839279
0.000920953
5.0806e-05
0.000320818
0.000525214
0.000698988
0.000825273
0.000886048
5.07647e-05
0.000322746
0.000529733
0.000694371
0.000805156
0.000849049
5.05085e-05
0.000317233
0.00052622
0.000682816
0.000780524
0.000810927
5.012e-05
0.00030435
0.000515128
0.000664912
0.000752196
0.000771474
4.95692e-05
0.000285918
0.000497181
0.000640823
0.000720154
0.00072941
4.88228e-05
0.000264297
0.000473379
0.000610797
0.000683541
0.000682627
4.77178e-05
0.000242865
0.000445064
0.00057514
0.000641336
0.00062898
4.70982e-05
0.000229992
0.000413607
0.00053386
0.000592395
0.000569055
0.000195117
0.000224297
0.000378169
0.000485634
0.000535179
0.00050237
0.000187662
0.000209183
0.000334452
0.00042721
0.000467653
0.000425418
0.000176565
0.000180074
0.000276646
0.000353428
0.00038858
0.000345189
0.000161557
0.00013192
0.000200068
0.000259117
0.000292086
0.000267418
2.85429e-05
5.98107e-05
9.87457e-05
0.000137625
0.000163718
0.000186347
8.6596e-07
3.30454e-06
8.46265e-06
1.80366e-05
2.97639e-05
5.41325e-05
0.000907599
0.00135377
0.00152542
0.00160133
0.00166202
0.00171809
0.00176935
0.00180114
0.00182753
0.0018472
0.0018598
0.0018677
0.00187295
0.00187728
0.00188205
0.00188827
0.00189667
0.00190773
0.00192134
0.00193715
0.00195462
0.00197292
0.00199092
0.00200638
0.00103806
0.00136773
0.00151297
0.00158578
0.00165305
0.00172283
0.00179014
0.00183378
0.0018703
0.00190008
0.00192135
0.00193627
0.00194681
0.00195468
0.00196132
0.00196783
0.00197496
0.00198313
0.00199241
0.00200262
0.00201341
0.00202434
0.002035
0.00204434
0.00112879
0.00136306
0.00147136
0.00154009
0.00161138
0.00168369
0.00175464
0.00180813
0.00185091
0.00189004
0.00192046
0.00194366
0.00196097
0.00197378
0.00198328
0.00199038
0.00199565
0.00199951
0.00200225
0.00200423
0.00200613
0.00200875
0.00201266
0.00201754
0.00116802
0.00133292
0.00140647
0.00145913
0.00151873
0.00158094
0.001645
0.00170357
0.00174696
0.0017887
0.00182364
0.00185209
0.00187427
0.0018911
0.00190336
0.00191125
0.0019144
0.00191369
0.00190968
0.00190287
0.00189403
0.00188446
0.00187619
0.00187213
0.00117005
0.0012791
0.0013165
0.00134599
0.00138584
0.00143209
0.00148066
0.00152953
0.00156734
0.00160117
0.00162965
0.00165525
0.00167456
0.00168914
0.00169974
0.00170787
0.00171393
0.00171769
0.00171942
0.00171977
0.00171981
0.00172163
0.00172603
0.00173936
0.00114757
0.00120626
0.00120915
0.00121208
0.00122869
0.0012554
0.00128711
0.00132143
0.001352
0.00138658
0.00142893
0.00147029
0.00150433
0.00153351
0.00155738
0.0015747
0.00158617
0.00159236
0.00159368
0.00159044
0.00158279
0.00157185
0.00155716
0.00154862
0.00110561
0.00112183
0.00109287
0.00106901
0.00106217
0.00106864
0.00108417
0.00111082
0.00115261
0.00119484
0.00123243
0.00126166
0.00128451
0.00130248
0.00131551
0.00132407
0.00132803
0.00132729
0.00132177
0.00131168
0.0012965
0.00127843
0.00125255
0.00123459
0.0010526
0.00103292
0.000975498
0.000926781
0.000898336
0.000885875
0.000887752
0.000907531
0.000918314
0.000932825
0.000947423
0.000962618
0.000977169
0.000990323
0.00100115
0.0010087
0.00101236
0.00101199
0.00100737
0.00100004
0.000988651
0.000977972
0.000956735
0.000952246
0.000994554
0.00094521
0.000863771
0.000793776
0.0007486
0.000719185
0.000707727
0.000685184
0.000674728
0.000674806
0.00068032
0.000689579
0.000703291
0.000723102
0.000744422
0.0007655
0.000786053
0.000806676
0.000828414
0.000849969
0.000872158
0.000900405
0.000928452
0.00100229
0.000935805
0.000863073
0.000763377
0.000682314
0.000624168
0.000588187
0.000548193
0.00051006
0.000499603
0.000505684
0.000535945
0.00058348
0.000637311
0.000685872
0.000731378
0.000775411
0.000819351
0.000864692
0.000913213
0.00096738
0.00102995
0.0011065
0.00120344
0.00134458
0.000879129
0.000789342
0.000679632
0.000590978
0.000528131
0.000495672
0.000435485
0.000422233
0.000447165
0.000505408
0.000571042
0.000634639
0.000698252
0.000762921
0.000829033
0.000897278
0.000968751
0.00104516
0.00112911
0.00122458
0.00133731
0.00147655
0.001654
0.00182895
0.000825604
0.000724032
0.000606553
0.000517363
0.000466789
0.000420326
0.000382828
0.000410122
0.000472048
0.000545238
0.000619986
0.000698014
0.000779681
0.000865431
0.000955821
0.00105167
0.00115433
0.00126605
0.00139055
0.00153366
0.00170344
0.00191128
0.00215196
0.00234305
0.000774229
0.000664723
0.000542614
0.000453996
0.000424707
0.000361863
0.000376218
0.000437221
0.000516333
0.000603772
0.000697259
0.000794894
0.000896351
0.00100215
0.00111347
0.00123217
0.00136123
0.00150545
0.00167217
0.00187118
0.00211198
0.00239039
0.00265601
0.00287665
0.000721635
0.000608398
0.000481695
0.000416011
0.000368542
0.00034221
0.000400417
0.000489339
0.00059681
0.000716297
0.000843122
0.000976019
0.00111521
0.00126089
0.00141388
0.00157654
0.00175359
0.0019526
0.0021835
0.00245515
0.00276619
0.0030614
0.00333417
0.00357649
0.000665945
0.000552098
0.000414587
0.000379567
0.000321046
0.000363935
0.000456266
0.000576361
0.000712367
0.000859218
0.00101448
0.0011774
0.00134735
0.00152496
0.00171263
0.00191469
0.0021376
0.00238975
0.00267934
0.00300944
0.00334084
0.00364944
0.00394359
0.00416484
0.00060396
0.000484533
0.000369216
0.000331796
0.000323693
0.000409809
0.000535483
0.000682857
0.000844722
0.00101545
0.00119171
0.00137208
0.00155756
0.00175102
0.00195688
0.00218146
0.00243318
0.00272143
0.00305242
0.00342156
0.00376906
0.00410213
0.00441638
0.004608
0.000534245
0.000401076
0.000330574
0.00029139
0.000361922
0.000484403
0.0006393
0.000815075
0.00100558
0.00120646
0.0014142
0.00162742
0.00184684
0.00207497
0.00231609
0.00257653
0.00286442
0.00318732
0.00354689
0.00392121
0.00426685
0.00459726
0.00489373
0.00504566
0.000463138
0.000318705
0.000288323
0.000301022
0.000414786
0.000573437
0.000760671
0.000969219
0.00119203
0.0014225
0.00165748
0.00189727
0.00214403
0.00240084
0.00267181
0.00296254
0.00327945
0.00362679
0.00400119
0.00437094
0.00470624
0.00502759
0.00528422
0.00541415
0.00038511
0.000272949
0.000259236
0.000345519
0.000503479
0.000694517
0.000913053
0.00115207
0.00140183
0.00165581
0.00191212
0.0021719
0.00243761
0.00271237
0.00300014
0.00330595
0.00363494
0.00398902
0.00436164
0.00471965
0.0050372
0.0053393
0.00556336
0.00568052
0.000270353
0.000240575
0.000263493
0.000414732
0.000603617
0.000826425
0.00108032
0.00135142
0.0016277
0.00190447
0.00218195
0.00246192
0.00274622
0.00303671
0.00333593
0.00364745
0.00397485
0.00431848
0.00467093
0.00500472
0.00529101
0.00556226
0.00575501
0.00585947
0.000168121
0.000227991
0.000295793
0.000500026
0.000733328
0.00099562
0.00128247
0.00157728
0.00187184
0.00216482
0.00245749
0.0027513
0.00304705
0.00334526
0.00364685
0.00395365
0.00426764
0.00458827
0.00490856
0.00521043
0.00545826
0.00569062
0.00585439
0.00594667
0.00013734
0.000223426
0.000366033
0.000639479
0.000891305
0.00118341
0.00149392
0.00180701
0.00211717
0.00242419
0.00272912
0.00303245
0.00333376
0.00363209
0.0039268
0.00421811
0.0045068
0.00479227
0.00506942
0.00532664
0.00553529
0.00571678
0.00585185
0.00593135
0.000145881
0.000257199
0.00050457
0.00077534
0.00106639
0.00138924
0.00171904
0.00204559
0.00236688
0.00268339
0.00299554
0.00330272
0.00360317
0.00389444
0.00417422
0.00444108
0.00469463
0.0049344
0.00515748
0.00535643
0.00551916
0.00563902
0.0057377
0.00580087
0.000152559
0.000327254
0.000647
0.000934549
0.00126343
0.00160449
0.00194535
0.00228153
0.00261133
0.00293422
0.0032496
0.00355576
0.0038498
0.00412793
0.00438635
0.00462206
0.00483333
0.00501936
0.00517876
0.00530803
0.00540197
0.00545692
0.00549451
0.00553392
1.12557e-06
8.74623e-06
3.36523e-05
8.00468e-05
0.000163129
5.19703e-05
3.44854e-05
8.04138e-05
0.000159151
0.000251285
0.000360044
0.000373834
0.0001916
0.000155328
0.00026643
0.000373002
0.000482356
0.00057895
4.7976e-05
0.000210477
0.000336459
0.000444896
0.000547536
0.0006309
5.06813e-05
0.000247009
0.000377126
0.000484148
0.000561949
0.00065906
5.2605e-05
0.000269686
0.000398931
0.000498286
0.000558793
0.000681795
5.39674e-05
0.00028267
0.000407691
0.000496579
0.000560721
0.000692768
5.48597e-05
0.000289169
0.000408632
0.000488138
0.000565617
0.00070791
5.53683e-05
0.000291512
0.000405398
0.000478091
0.000572155
0.000728326
5.55659e-05
0.000291185
0.000399821
0.000469393
0.000578529
0.000750605
5.55093e-05
0.000288795
0.000392916
0.000461621
0.000583829
0.000772368
5.52458e-05
0.000284412
0.000385158
0.000453419
0.000586578
0.000791483
5.48018e-05
0.000277889
0.00037628
0.000443702
0.000586258
0.000805721
5.41257e-05
0.000269165
0.000365696
0.000431505
0.000581558
0.000814303
5.31915e-05
0.000258117
0.000352849
0.000416723
0.000570977
0.000816535
5.19623e-05
0.000244752
0.000337082
0.000398554
0.000553077
0.000811464
5.03931e-05
0.000229267
0.000317562
0.000376848
0.000526535
0.000797903
4.83067e-05
0.000211887
0.000293836
0.000350981
0.000490208
0.000774557
0.000200949
0.000192923
0.000265244
0.000320449
0.000442888
0.000737714
0.000191418
0.000171274
0.000230503
0.000284712
0.000383399
0.000680459
0.000179008
0.000142781
0.000188637
0.000241655
0.000312853
0.000595279
0.000163009
0.000103424
0.000138477
0.000186506
0.000233776
0.000468379
2.86932e-05
4.87963e-05
7.51129e-05
0.000111963
0.00014987
0.000276328
8.40192e-07
2.51264e-06
8.80394e-06
3.33637e-05
7.67336e-05
0.000117924
0.000198104
0.000554937
0.000882524
0.00117449
0.00148619
0.00182291
0.00216917
0.00251271
0.00284822
0.0031739
0.0034883
0.00378886
0.00407166
0.00433181
0.00456426
0.00476456
0.00492951
0.00505708
0.00514577
0.00519382
0.00520012
0.00516869
0.00511906
0.00510249
0.000569786
0.000861928
0.00104997
0.00131263
0.00164982
0.00201575
0.00238041
0.00273358
0.00307322
0.00339879
0.00370881
0.00400015
0.00426813
0.00450706
0.00471101
0.00487454
0.00499316
0.00506336
0.0050821
0.00504631
0.00495407
0.00480996
0.00463422
0.00448359
0.000749095
0.000914214
0.0011481
0.00147042
0.00183969
0.00221872
0.00258928
0.00294517
0.00328474
0.00360694
0.00390962
0.00418896
0.0044397
0.00465569
0.00483064
0.00495884
0.00503545
0.0050565
0.00501812
0.00491505
0.00473831
0.00447219
0.00408705
0.00353012
0.000810019
0.00100058
0.00127563
0.00162606
0.00201404
0.00240538
0.00278295
0.00314136
0.00347948
0.00379633
0.00408955
0.00435495
0.00458698
0.00477941
0.00492615
0.00502199
0.00506296
0.00504634
0.00497011
0.00483198
0.00462798
0.00435108
0.00399011
0.00351995
0.00084425
0.00107341
0.00138936
0.0017717
0.00217944
0.00258138
0.00296352
0.00332206
0.00365651
0.00396597
0.00424787
0.0044978
0.00471006
0.00487858
0.00499784
0.00506366
0.00507364
0.00502708
0.00492445
0.00476647
0.00455293
0.00428183
0.00394918
0.00353867
0.000870598
0.00114266
0.00149806
0.00190864
0.0023333
0.0027438
0.00312866
0.00348557
0.00381461
0.00411502
0.00438409
0.0046172
0.00480864
0.00495264
0.00504445
0.00508125
0.00506255
0.00499004
0.00486694
0.00469677
0.00448185
0.00422262
0.00391881
0.00355847
0.000906256
0.00121354
0.00160148
0.00203599
0.00247482
0.00289179
0.00327757
0.00363118
0.00395329
0.00424322
0.0044981
0.00471316
0.00488267
0.00500126
0.0050651
0.0050729
0.00502623
0.00492922
0.00478762
0.00460737
0.00439285
0.0041466
0.00387157
0.00356003
0.000945878
0.00128214
0.00169711
0.00215236
0.00260313
0.00302471
0.0034098
0.00375867
0.00407255
0.00435081
0.00459036
0.00478623
0.00493276
0.00502503
0.00506032
0.00503905
0.00496509
0.00484512
0.00468742
0.00450012
0.00428927
0.0040589
0.00381394
0.00354957
0.000986753
0.00134629
0.00178353
0.00225714
0.00271789
0.00314239
0.00352534
0.00386828
0.00417289
0.00443851
0.00466182
0.00483763
0.00496033
0.00502561
0.00503206
0.00498214
0.00488222
0.00474169
0.00457127
0.00438089
0.00417764
0.00396621
0.00375212
0.00353201
0.00102553
0.00140354
0.00185944
0.00235001
0.00281902
0.00324495
0.00362457
0.00396063
0.00425521
0.00450753
0.00471397
0.0048691
0.00496746
0.0050055
0.00498337
0.00490587
0.00478217
0.00462439
0.0044454
0.00425635
0.00406457
0.00387443
0.00369089
0.003511
0.00105933
0.00145205
0.00192533
0.00243103
0.00290674
0.00333282
0.00370817
0.00403669
0.00432075
0.00455941
0.00474867
0.00488288
0.00495678
0.0049678
0.00491796
0.00481472
0.00467022
0.00449924
0.0043163
0.00413297
0.00395593
0.00378839
0.00363386
0.0034892
0.00108643
0.00149287
0.00198146
0.00250022
0.0029814
0.00340666
0.00377707
0.00409765
0.00437101
0.00459594
0.00476805
0.00488147
0.00493126
0.00491601
0.00483994
0.00471348
0.00455184
0.00437214
0.00418988
0.00401613
0.00385609
0.00371121
0.0035831
0.00346829
0.00110728
0.00152615
0.00202804
0.00255753
0.00304352
0.00346727
0.00383237
0.00414489
0.00440763
0.00461908
0.00477442
0.00486758
0.00489402
0.00485376
0.00475352
0.0046069
0.00443216
0.00424826
0.00407086
0.00390961
0.00376763
0.00364434
0.00353945
0.00344926
0.00112164
0.0015519
0.00206518
0.00260335
0.00309378
0.0035156
0.00387524
0.00417984
0.00443232
0.00463085
0.00477015
0.00484395
0.00484825
0.00478469
0.00466275
0.00449939
0.00431566
0.00413174
0.00396253
0.00381557
0.00369157
0.00358797
0.00350289
0.0034326
0.00112925
0.00157015
0.00209311
0.00263824
0.00313292
0.00355263
0.00390692
0.00420397
0.00444682
0.00463326
0.00475757
0.00481329
0.00479703
0.00471225
0.0045714
0.00439479
0.00420594
0.00402546
0.00386674
0.00373473
0.00362773
0.0035415
0.00347294
0.0034185
0.00112984
0.00158095
0.00211218
0.00266281
0.00316173
0.00357938
0.00392865
0.00421873
0.00445277
0.00462823
0.00473889
0.00477814
0.00474325
0.00463959
0.00448274
0.00429625
0.00410559
0.00393114
0.00378413
0.00366675
0.00357517
0.00350386
0.00344889
0.00340695
0.00112316
0.00158444
0.00212288
0.00267782
0.00318107
0.00359688
0.00394165
0.00422552
0.00445176
0.00461754
0.00471618
0.00474085
0.00468949
0.00456949
0.00439949
0.00420611
0.00401627
0.00384946
0.0037144
0.00361065
0.00353259
0.00347384
0.00342995
0.00339779
0.00111035
0.00158114
0.00212599
0.0026842
0.00319182
0.00360621
0.00394712
0.00422565
0.00444524
0.00460284
0.00469127
0.00470348
0.00463804
0.00450426
0.00432379
0.00412601
0.0039388
0.00378032
0.0036567
0.00356512
0.00349861
0.00345025
0.00341532
0.00339079
0.00108873
0.00157385
0.00212276
0.00268319
0.00319495
0.00360845
0.00394624
0.00422037
0.00443454
0.00458555
0.00466575
0.00466782
0.00459079
0.00444578
0.00425722
0.00405692
0.00387335
0.00372312
0.00360987
0.00352877
0.00347187
0.003432
0.00340427
0.00338566
0.00105884
0.00155767
0.00211715
0.00267636
0.00319162
0.00360477
0.0039401
0.00421081
0.00442082
0.00456691
0.00464098
0.00463532
0.0045493
0.00439552
0.00420089
0.00399933
0.00381965
0.00367695
0.00357266
0.00350028
0.00345117
0.00341805
0.00339607
0.00338202
0.00101992
0.00153735
0.00210603
0.00266937
0.00318456
0.00359654
0.00392985
0.00419804
0.00440505
0.00454795
0.00461801
0.00460715
0.00451477
0.00435459
0.00415555
0.0039534
0.00377724
0.00364086
0.00354388
0.00347849
0.00343555
0.00340769
0.00339007
0.00337945
0.000970876
0.00151645
0.00209523
0.00265668
0.00317337
0.0035876
0.00391835
0.00418302
0.00438798
0.00452948
0.00459764
0.00458416
0.00448813
0.00432384
0.00412178
0.00391923
0.0037457
0.00361406
0.00352258
0.00346247
0.00342422
0.00340036
0.00338571
0.00337776
0.000911589
0.0015042
0.00209256
0.00264789
0.00315772
0.0035729
0.00390479
0.00416917
0.0043729
0.00451219
0.00458031
0.0045669
0.00446998
0.00430385
0.00409998
0.00389689
0.00372475
0.00359601
0.00350809
0.00345154
0.00341654
0.00339504
0.00338299
0.00337678
0.000877411
0.00152836
0.00210691
0.00264603
0.00314388
0.00355644
0.00388603
0.00415078
0.00435611
0.00449878
0.00456875
0.00455655
0.00446067
0.00429493
0.00409043
0.00388645
0.00371419
0.00358633
0.00349995
0.00344517
0.00341189
0.003392
0.00338149
0.00337625
1.0393e-06
7.29408e-06
2.89896e-05
5.84008e-05
9.21541e-05
0.000128362
3.32046e-05
4.0678e-05
9.16961e-05
0.000159559
0.000259105
0.000460768
0.000199608
0.000101355
0.00018187
0.000299379
0.000477709
0.000792611
5.06264e-05
0.000163643
0.000273056
0.000440063
0.00068311
0.00102731
5.59431e-05
0.000220354
0.000361907
0.000570113
0.00085278
0.00118993
5.97147e-05
0.00027152
0.000445471
0.000684085
0.000984681
0.00130152
6.2536e-05
0.000317275
0.00052154
0.000780644
0.00108454
0.00138152
6.46282e-05
0.000355476
0.000588533
0.000860613
0.00116223
0.00143595
6.61401e-05
0.000386147
0.000645341
0.000928002
0.00121857
0.00147429
6.71767e-05
0.000409415
0.000690961
0.00098002
0.00126044
0.00150126
6.78115e-05
0.000425406
0.000726411
0.00101959
0.00129106
0.00151993
6.80916e-05
0.000433837
0.000749411
0.001047
0.00131246
0.00153219
6.80837e-05
0.000433476
0.000760767
0.00106225
0.00132548
0.00153895
6.79618e-05
0.000422949
0.000760418
0.00106559
0.00132965
0.00154021
6.76705e-05
0.000403262
0.000747946
0.00105703
0.001324
0.00153503
6.71517e-05
0.000376387
0.000722937
0.00103574
0.00130754
0.00152259
6.6337e-05
0.000344034
0.000686301
0.00100063
0.00127635
0.00150287
6.51357e-05
0.000307825
0.000636481
0.00094929
0.00122758
0.00146524
6.34141e-05
0.000269417
0.000575466
0.000881902
0.00115585
0.00140087
6.09614e-05
0.000228064
0.000504095
0.000787936
0.00105527
0.00129807
5.74675e-05
0.000186164
0.00041784
0.000663934
0.000914991
0.00113327
5.24815e-05
0.000139919
0.000310537
0.000500188
0.00070383
0.000868789
3.88228e-05
7.72754e-05
0.000173055
0.000288693
0.000415356
0.000462607
1.35404e-06
6.41301e-06
2.37411e-05
5.90942e-05
0.000121009
4.82901e-05
0.000942741
0.00160921
0.00214336
0.00265286
0.00313317
0.00353989
0.00386637
0.00412996
0.00433644
0.00448248
0.00455785
0.00455171
0.00446068
0.00429731
0.00409301
0.00388796
0.00371403
0.00358489
0.00349794
0.00344318
0.00340986
0.00339075
0.00338085
0.00337607
0.00120564
0.00174046
0.0021984
0.00266721
0.00312557
0.00352296
0.00384561
0.00410841
0.00431665
0.00446677
0.00454857
0.00455044
0.00446737
0.00431002
0.00410811
0.00390175
0.00372455
0.00359189
0.00350216
0.00344559
0.00341135
0.00339159
0.00338127
0.00337618
0.00141181
0.00185444
0.0022532
0.00268336
0.00311901
0.00350461
0.00382304
0.00408545
0.00429621
0.00445167
0.00454165
0.00455386
0.00448162
0.00433301
0.00413534
0.00392808
0.00374637
0.00360804
0.00351324
0.00345285
0.00341623
0.00339438
0.00338262
0.00337656
0.00155037
0.0019378
0.00229689
0.00269548
0.00311025
0.00348327
0.00379764
0.00406025
0.00427438
0.00443632
0.00453603
0.00456077
0.00450219
0.0043654
0.00417445
0.00396724
0.00378022
0.00363418
0.00353192
0.0034655
0.00342436
0.00339967
0.00338517
0.00337738
0.00163252
0.00198997
0.00232483
0.00269941
0.00309584
0.00345717
0.00376818
0.00403183
0.00425025
0.00441976
0.00453061
0.00456986
0.00452767
0.00440594
0.00422473
0.00401935
0.00382691
0.00367151
0.00355941
0.00348461
0.00343697
0.00340737
0.00338938
0.00337875
0.00168339
0.00201498
0.00233622
0.00269283
0.00307263
0.00342457
0.00373337
0.0039991
0.00422281
0.00440093
0.00452417
0.00457967
0.00455634
0.00445294
0.00428497
0.00408412
0.00388717
0.00372141
0.00359727
0.00351153
0.00345504
0.00341856
0.0033954
0.00338092
0.00171549
0.00202252
0.00233252
0.00267433
0.00303937
0.00338403
0.00369194
0.00396089
0.00419095
0.00437868
0.00451539
0.00458855
0.00458622
0.00450425
0.00435337
0.00416065
0.00396131
0.00378516
0.00364718
0.00354792
0.00347991
0.00343424
0.00340402
0.00338423
0.00173474
0.00201819
0.00231455
0.00264332
0.00299535
0.00333438
0.00364269
0.00391601
0.00415347
0.00435174
0.00450283
0.00459477
0.00461515
0.00455737
0.00442747
0.00424722
0.0040489
0.00386365
0.00371089
0.00359572
0.00351335
0.00345574
0.00341597
0.00338897
0.00174488
0.00200511
0.00228467
0.00259974
0.00294016
0.00327469
0.00358446
0.00386322
0.00410909
0.00431878
0.004485
0.00459652
0.00464088
0.00460953
0.00450429
0.00434127
0.00414857
0.00395707
0.00378986
0.003657
0.00355737
0.0034846
0.00343222
0.00339543
0.00174857
0.00198562
0.00224535
0.0025448
0.00287376
0.00320423
0.00351617
0.00380126
0.00405646
0.00427837
0.00446035
0.00459201
0.00466115
0.00465792
0.00458048
0.0044395
0.00425791
0.0040646
0.00388491
0.00373364
0.0036141
0.00352261
0.00345407
0.00340419
0.00174784
0.0019619
0.00219898
0.00248006
0.00279646
0.00312251
0.00343684
0.00372887
0.00399417
0.00422902
0.00442728
0.00457944
0.00467379
0.00469973
0.00465256
0.00453795
0.00437329
0.00418394
0.0039956
0.0038268
0.00368554
0.00357185
0.00348307
0.00341591
0.00174424
0.00193608
0.00214808
0.00240746
0.00270905
0.00302935
0.00334565
0.00364485
0.00392079
0.00416917
0.00438417
0.00455703
0.00467671
0.0047323
0.00471699
0.00463226
0.00449004
0.00431112
0.00411964
0.00393617
0.0037729
0.00363414
0.00352071
0.00343115
0.00173879
0.00191012
0.00209531
0.00232938
0.00261284
0.002925
0.00324202
0.0035481
0.00383492
0.00409725
0.0043293
0.00452297
0.00466785
0.00475307
0.00477038
0.00471792
0.00460273
0.0044406
0.00425256
0.00405926
0.00387573
0.00371039
0.00356816
0.0034503
0.00173182
0.00188567