/*--------------------------------*- C++ -*----------------------------------*\
  =========                 |
  \\      /  F ield         | OpenFOAM: The Open Source CFD Toolbox
   \\    /   O peration     | Website:  https://openfoam.org
    \\  /    A nd           | Version:  11
     \\/     M anipulation  |
\*---------------------------------------------------------------------------*/
FoamFile
{
    format      ascii;
    class       volVectorField;
    location    "0.24";
    object      U;
}
// * * * * * * * * * * * * * * * * * * * * * * * * * * * * * * * * * * * * * //

dimensions      [0 1 -1 0 0 0 0];

internalField   nonuniform List<vector> 
2880
(
(0.0295357 -0.0453656 -1.59489e-19)
(0.0296344 -0.128779 1.20707e-19)
(0.0328167 -0.266568 -9.52575e-20)
(0.0368689 -0.344075 0)
(0.050078 -0.486528 -4.44138e-21)
(0.0492874 -0.353118 -6.54905e-20)
(0.0146896 -0.0825265 -1.02743e-20)
(0.00417635 -0.17859 0)
(0.00669549 -0.295412 -9.08907e-20)
(0.0124493 -0.36701 6.79186e-20)
(0.0366397 -0.455099 -5.52989e-20)
(0.0533747 -0.374031 0)
(-0.00314065 -0.0991294 9.92811e-21)
(-0.0176145 -0.19257 -2.24234e-19)
(-0.0177774 -0.292623 2.34267e-19)
(-0.0103587 -0.355658 9.33759e-20)
(0.0226395 -0.411631 9.73945e-20)
(0.054243 -0.364719 -2.91141e-20)
(-0.023606 -0.106943 9.83077e-21)
(-0.0387831 -0.194473 6.09473e-19)
(-0.0414238 -0.281177 -1.62124e-19)
(-0.0318024 -0.336435 -1.41425e-19)
(0.00817169 -0.37712 0)
(0.0655666 -0.355474 0)
(-0.0443796 -0.108133 1.96532e-20)
(-0.0591906 -0.189211 -4.11822e-19)
(-0.0644148 -0.265158 0)
(-0.053296 -0.314424 2.79545e-19)
(-0.0089005 -0.346241 2.52671e-19)
(0.0640203 -0.342431 0)
(-0.0639738 -0.105201 0)
(-0.0787443 -0.179516 0)
(-0.0869549 -0.246536 0)
(-0.0756198 -0.291188 -2.71801e-19)
(-0.0300108 -0.318357 -2.46522e-19)
(0.0496273 -0.323765 0)
(-0.0817815 -0.100252 1.22169e-18)
(-0.097513 -0.167383 7.92499e-19)
(-0.109259 -0.226721 6.51988e-19)
(-0.0992609 -0.267701 -3.30734e-20)
(-0.0550684 -0.292735 0)
(0.0263467 -0.302455 0)
(-0.097214 -0.094379 -1.25601e-18)
(-0.115374 -0.154095 -7.47441e-19)
(-0.131298 -0.206662 -1.20557e-18)
(-0.124208 -0.244598 6.80276e-20)
(-0.0835118 -0.268728 -6.01749e-20)
(-0.00458967 -0.280674 0)
(-0.109855 -0.0879512 -1.26699e-18)
(-0.132067 -0.140406 -7.43744e-19)
(-0.15285 -0.186901 5.95326e-19)
(-0.150135 -0.222199 -5.32982e-19)
(-0.114722 -0.245921 -3.65661e-19)
(-0.0415057 -0.259046 -5.70118e-19)
(-0.119471 -0.0809884 1.22384e-18)
(-0.147296 -0.126733 7.52563e-19)
(-0.173581 -0.167691 0)
(-0.176552 -0.200606 5.94525e-19)
(-0.147965 -0.224067 7.88136e-19)
(-0.0827446 -0.237794 2.23858e-19)
(-0.125978 -0.0733916 0)
(-0.160769 -0.113281 4.61747e-20)
(-0.193102 -0.149105 -3.65799e-20)
(-0.202876 -0.179792 -5.95682e-19)
(-0.182394 -0.20303 -5.46847e-19)
(-0.126787 -0.217067 5.63887e-19)
(-0.129409 -0.0650546 1.27672e-18)
(-0.172176 -0.100114 0)
(-0.210989 -0.131121 -7.55624e-20)
(-0.228459 -0.159656 5.9088e-19)
(-0.217159 -0.182728 0)
(-0.172209 -0.197052 0)
(-0.129884 -0.0559065 -1.29623e-18)
(-0.181175 -0.0872431 -6.86056e-19)
(-0.226777 -0.113643 -3.68522e-20)
(-0.252628 -0.140067 0)
(-0.25135 -0.163111 0)
(-0.217747 -0.177925 -1.14613e-19)
(-0.127543 -0.0459276 -1.30398e-18)
(-0.187423 -0.0746631 7.34265e-19)
(-0.239925 -0.0965411 7.64649e-20)
(-0.27479 -0.120912 -1.99616e-19)
(-0.284027 -0.144055 1.18031e-19)
(-0.262223 -0.159806 -1.1391e-19)
(-0.12254 -0.0352106 1.28573e-18)
(-0.190582 -0.0623245 4.70276e-20)
(-0.249902 -0.0796894 3.97069e-20)
(-0.294237 -0.101867 -6.55858e-20)
(-0.314333 -0.125544 -1.22046e-19)
(-0.304539 -0.142775 -4.48356e-19)
(-0.114995 -0.0239529 0)
(-0.190325 -0.0501412 0)
(-0.256224 -0.0629162 -6.21357e-19)
(-0.30994 -0.0827571 6.83492e-20)
(-0.341617 -0.107521 4.20474e-19)
(-0.343659 -0.126654 4.43428e-19)
(-0.104972 -0.0124657 -4.1219e-20)
(-0.186344 -0.0379987 8.45151e-19)
(-0.258376 -0.0460265 5.94965e-19)
(-0.320903 -0.0634693 6.95024e-20)
(-0.365224 -0.0894194 -1.02584e-18)
(-0.378549 -0.111444 1.11311e-19)
(-0.0924554 -0.00114597 4.14705e-20)
(-0.178355 -0.0257618 -8.67491e-19)
(-0.255829 -0.0288907 4.03076e-20)
(-0.326133 -0.0436999 5.62923e-19)
(-0.383653 -0.0706272 9.85233e-19)
(-0.408958 -0.0973052 -1.1034e-19)
(-0.0773628 0.00956253 -1.31877e-18)
(-0.166088 -0.0132912 -8.73537e-19)
(-0.247994 -0.0114438 4.16818e-20)
(-0.324785 -0.0232128 -5.05655e-19)
(-0.395246 -0.0507182 -1.07454e-18)
(-0.435042 -0.0826007 0)
(-0.0596146 0.0192404 1.32894e-18)
(-0.149263 -0.000474581 1.28601e-18)
(-0.234215 0.006284 3.5215e-19)
(-0.315302 -0.00177066 2.25513e-19)
(-0.398371 -0.0290076 3.9137e-19)
(-0.455781 -0.0666192 5.73909e-20)
(-0.039404 0.027543 -4.26321e-20)
(-0.127538 0.0126651 -4.24214e-19)
(-0.213835 0.0239958 4.80875e-20)
(-0.295651 0.0205379 -1.17186e-19)
(-0.390578 -0.00458265 1.35182e-19)
(-0.470294 -0.0477037 -5.88519e-20)
(-0.0179086 0.0337687 -2.17469e-20)
(-0.100277 0.0256808 1.48732e-20)
(-0.185989 0.0408899 -3.91047e-19)
(-0.262747 0.043294 -3.32493e-19)
(-0.367037 0.0243537 2.89979e-19)
(-0.476152 -0.0181904 0)
(0.00358097 0.0373934 -1.15103e-20)
(-0.0649962 0.037739 3.10911e-19)
(-0.147861 0.055976 -5.24152e-20)
(-0.210657 0.0659263 2.17388e-20)
(-0.314445 0.0611166 1.94817e-19)
(-0.469213 0.03711 1.75866e-19)
(0.0229509 0.0379032 -1.84628e-19)
(-0.0125058 0.0490459 -1.55589e-19)
(-0.088132 0.0712616 -1.4472e-20)
(-0.128375 0.0873672 2.29867e-20)
(-0.192432 0.0815351 -1.64162e-19)
(-0.453864 0.030236 -1.53003e-19)
(0.793821 -0.970875 0)
(1.11279 -0.949338 0)
(1.25975 -0.825912 0)
(1.33331 -0.713157 0)
(1.36922 -0.61204 8.47941e-22)
(1.37938 -0.520916 1.44838e-22)
(1.37371 -0.441612 1.86195e-23)
(1.36003 -0.374638 5.2665e-21)
(1.34342 -0.319305 -5.62067e-21)
(1.32645 -0.274061 0)
(1.30994 -0.237006 5.85465e-21)
(1.29389 -0.206369 -5.81616e-21)
(1.27807 -0.180715 -1.39602e-22)
(1.26221 -0.158953 5.20156e-21)
(1.24609 -0.140266 8.21124e-23)
(1.22952 -0.124037 -4.85023e-21)
(1.21229 -0.109798 -5.23687e-21)
(1.19418 -0.0972033 -5.00664e-21)
(1.17491 -0.0860115 4.44121e-21)
(1.15414 -0.0760382 -9.52974e-21)
(1.13141 -0.0670137 0)
(1.10594 -0.0588157 -1.36362e-22)
(1.07642 -0.0531788 -4.73315e-21)
(1.0412 -0.063824 0)
(0.641234 -0.621714 0)
(1.13269 -0.845823 0)
(1.31778 -0.782384 0)
(1.39757 -0.68734 -1.83712e-20)
(1.43399 -0.59424 1.1418e-20)
(1.44269 -0.507743 -6.69207e-21)
(1.43339 -0.430144 -3.39822e-21)
(1.41438 -0.363264 -6.68353e-23)
(1.39166 -0.307213 -6.68091e-22)
(1.36867 -0.261065 1.1027e-21)
(1.34682 -0.223291 0)
(1.32628 -0.192241 6.75065e-21)
(1.30677 -0.166467 5.81615e-22)
(1.28789 -0.144811 -3.08893e-21)
(1.2693 -0.126386 -3.80036e-21)
(1.25068 -0.11052 -4.27021e-21)
(1.23173 -0.09671 4.0493e-21)
(1.21213 -0.0845911 1.40382e-22)
(1.19148 -0.073918 0)
(1.16927 -0.0644968 0)
(1.14477 -0.0561352 0)
(1.11702 -0.0493799 1.34083e-22)
(1.08529 -0.047557 -1.37571e-22)
(1.04987 -0.0551609 3.75875e-21)
(0.446684 -0.398853 -1.62823e-20)
(1.07672 -0.710427 1.01909e-19)
(1.33881 -0.714141 9.76856e-20)
(1.44579 -0.644154 1.86866e-20)
(1.48997 -0.562609 -1.15504e-20)
(1.50124 -0.482967 -1.67735e-20)
(1.49097 -0.409276 -7.34181e-21)
(1.46841 -0.344302 6.68074e-21)
(1.44053 -0.288948 -2.49484e-21)
(1.41184 -0.242891 -3.01298e-21)
(1.38454 -0.205052 2.95132e-21)
(1.35927 -0.174026 4.62279e-21)
(1.33582 -0.14844 -8.38089e-21)
(1.31376 -0.127126 3.49228e-21)
(1.2926 -0.109169 1.33142e-20)
(1.2719 -0.093873 -1.25595e-20)
(1.25127 -0.0807368 1.41786e-20)
(1.23023 -0.0694254 -1.34606e-20)
(1.20828 -0.0597362 0)
(1.18475 -0.051504 0)
(1.15877 -0.0446031 -6.39912e-21)
(1.12941 -0.0398851 -1.46734e-20)
(1.09603 -0.0408421 4.27386e-20)
(1.0579 -0.0477976 -3.1614e-20)
(0.340665 -0.322434 0)
(0.951963 -0.565593 -1.66625e-19)
(1.31589 -0.631172 7.99926e-21)
(1.4712 -0.588057 -3.45566e-20)
(1.5333 -0.51896 -9.63264e-20)
(1.55173 -0.446952 4.84745e-20)
(1.54379 -0.378787 -7.87323e-21)
(1.52004 -0.317263 -8.81847e-21)
(1.48859 -0.263992 1.43278e-20)
(1.45502 -0.219134 6.33548e-21)
(1.42254 -0.18204 -6.5564e-21)
(1.39247 -0.151612 -2.67728e-21)
(1.36493 -0.126633 1.61432e-21)
(1.33951 -0.105994 0)
(1.31564 -0.0887942 9.48365e-21)
(1.29277 -0.074355 1.52535e-21)
(1.27034 -0.0622039 1.23994e-20)
(1.24776 -0.0520509 -5.38706e-20)
(1.22438 -0.0437377 2.19738e-20)
(1.19943 -0.037124 2.3667e-20)
(1.17199 -0.0321066 -1.62348e-20)
(1.14119 -0.0295354 -1.06407e-20)
(1.10643 -0.0325532 3.52537e-20)
(1.06629 -0.0403546 -2.34219e-20)
(0.274884 -0.300326 0)
(0.797962 -0.43818 0)
(1.2509 -0.538575 0)
(1.46919 -0.521027 0)
(1.56041 -0.464894 2.18465e-19)
(1.59113 -0.400927 0)
(1.58915 -0.338919 2.39664e-20)
(1.567 -0.281999 1.03664e-20)
(1.53405 -0.232007 -1.02768e-19)
(1.49696 -0.189457 3.32208e-20)
(1.46001 -0.154021 -6.76948e-21)
(1.42538 -0.124892 0)
(1.39371 -0.101055 2.27446e-21)
(1.3648 -0.0815166 -7.18539e-21)
(1.33809 -0.0654383 6.75574e-21)
(1.3129 -0.0521893 1.39536e-20)
(1.28854 -0.041345 8.5924e-21)
(1.26428 -0.0326584 -1.61837e-20)
(1.23939 -0.0259967 1.65236e-20)
(1.21303 -0.0212257 -7.84021e-21)
(1.18429 -0.0182516 0)
(1.15231 -0.0178338 -2.12588e-20)
(1.1165 -0.0227589 -1.18004e-20)
(1.07499 -0.0320943 3.02697e-20)
(0.223502 -0.290418 3.22545e-19)
(0.65185 -0.346177 0)
(1.14892 -0.442999 0)
(1.43557 -0.445527 1.89534e-19)
(1.56704 -0.402141 -6.16494e-20)
(1.61663 -0.345967 -1.62595e-19)
(1.62421 -0.290053 1.57589e-20)
(1.60677 -0.23851 9.42002e-22)
(1.57478 -0.192779 3.11013e-20)
(1.53604 -0.153576 3.00135e-20)
(1.49581 -0.120759 0)
(1.45722 -0.0937348 1.73266e-20)
(1.42164 -0.071688 1.12331e-21)
(1.38925 -0.0537705 -3.38083e-21)
(1.35961 -0.0392455 -3.05565e-21)
(1.33198 -0.0275578 2.16175e-21)
(1.30556 -0.0183428 -1.55065e-20)
(1.27955 -0.0113931 -1.46138e-21)
(1.25314 -0.00658731 0)
(1.22549 -0.00379146 2.42341e-21)
(1.19568 -0.00291928 5.88808e-21)
(1.16283 -0.0046458 -8.4424e-21)
(1.12628 -0.0114659 3.1301e-20)
(1.08384 -0.0226943 -2.91723e-20)
(0.179292 -0.28218 -9.66002e-19)
(0.528369 -0.290263 1.42008e-19)
(1.0183 -0.353234 -2.45671e-19)
(1.36762 -0.365032 -5.07012e-19)
(1.54858 -0.332254 0)
(1.62488 -0.283182 4.69644e-19)
(1.64619 -0.233185 -9.8944e-20)
(1.63665 -0.187157 -1.49076e-20)
(1.60838 -0.146367 6.35986e-20)
(1.57023 -0.111377 8.77815e-20)
(1.52839 -0.0820879 0)
(1.48692 -0.058014 -2.96715e-20)
(1.44799 -0.0384838 9.88836e-21)
(1.41234 -0.0227898 -2.28819e-20)
(1.3798 -0.010312 -1.14284e-20)
(1.3497 -0.000588934 1.03711e-21)
(1.32118 0.00667379 7.92283e-21)
(1.29341 0.011643 9.6657e-21)
(1.26554 0.0144297 -1.16112e-20)
(1.23676 0.0151623 5.49526e-21)
(1.20612 0.0139134 -2.69336e-20)
(1.17269 0.0100597 1.99991e-20)
(1.13571 0.0013573 -2.40906e-20)
(1.0927 -0.0119526 4.05134e-20)
(0.13622 -0.271441 7.20846e-19)
(0.425512 -0.256707 -7.44654e-20)
(0.872827 -0.27655 0)
(1.26572 -0.284271 5.2745e-19)
(1.50058 -0.257455 -9.44486e-20)
(1.61168 -0.214151 -2.56012e-19)
(1.65201 -0.169396 -2.21792e-19)
(1.65368 -0.128599 7.05351e-20)
(1.63214 -0.0930948 -1.9417e-19)
(1.59714 -0.0629577 -2.72882e-19)
(1.55581 -0.037976 0)
(1.51301 -0.0176561 -5.31429e-20)
(1.47172 -0.00139383 6.7525e-20)
(1.43336 0.0114212 -2.00614e-20)
(1.3982 0.0213073 3.04786e-20)
(1.36574 0.0286315 0)
(1.33521 0.0336122 -1.29656e-21)
(1.30574 0.0363691 3.29269e-21)
(1.27652 0.0369933 2.05696e-22)
(1.24677 0.0355966 2.10858e-21)
(1.21553 0.0322273 -3.84966e-21)
(1.18182 0.0262891 -1.64091e-20)
(1.1447 0.0157513 1.56814e-20)
(1.10148 0.000295769 -2.74847e-20)
(0.0888891 -0.256736 0)
(0.336681 -0.232307 1.51477e-19)
(0.727509 -0.216693 -1.38454e-19)
(1.13484 -0.20823 0)
(1.41985 -0.180572 -1.82408e-19)
(1.57239 -0.140609 1.66201e-19)
(1.63798 -0.0999675 2.2335e-19)
(1.65476 -0.0640019 0)
(1.64304 -0.0337154 2.8924e-21)
(1.61407 -0.00877054 1.18707e-19)
(1.57575 0.0113581 1.5973e-19)
(1.5336 0.0272621 3.95916e-20)
(1.4914 0.0395625 -1.38034e-19)
(1.45131 0.0488436 0)
(1.41411 0.0555706 -4.01967e-20)
(1.37968 0.0600389 6.50015e-20)
(1.34737 0.0623959 -2.92426e-20)
(1.31641 0.0627072 4.13826e-21)
(1.28602 0.0610303 -2.08691e-22)
(1.25547 0.0574465 4.57873e-23)
(1.22387 0.0519722 1.83603e-21)
(1.19014 0.0440201 2.28866e-21)
(1.15318 0.0317388 0)
(1.11012 0.0141875 1.22452e-20)
(0.0364899 -0.238736 -5.6746e-19)
(0.254084 -0.210898 -7.70023e-19)
(0.590857 -0.172262 -5.72068e-19)
(0.984588 -0.141511 2.38806e-19)
(1.30608 -0.105411 -4.1647e-19)
(1.5027 -0.0651837 -1.26938e-20)
(1.59977 -0.0268864 -2.22602e-20)
(1.63641 0.00513612 7.45334e-20)
(1.63797 0.0305423 -8.49992e-21)
(1.61799 0.0502797 1.27528e-19)
(1.58542 0.0653409 0)
(1.54634 0.0764459 0)
(1.50516 0.0842343 4.90196e-20)
(1.46476 0.0893865 7.25225e-20)
(1.42655 0.0924034 -1.2237e-19)
(1.39084 0.0935564 7.56075e-20)
(1.35726 0.0929408 -1.31513e-20)
(1.32517 0.0905685 1.36324e-20)
(1.2939 0.0864497 -2.55801e-20)
(1.2628 0.0806232 5.04488e-21)
(1.23107 0.0730654 -2.11128e-21)
(1.19759 0.0632067 -9.94155e-21)
(1.16109 0.0493139 5.58495e-21)
(1.11857 0.029827 -4.9469e-21)
(-0.0201083 -0.219078 4.81852e-19)
(0.173235 -0.190232 1.45217e-19)
(0.463884 -0.138908 7.07322e-19)
(0.825928 -0.0863081 3.88662e-19)
(1.16309 -0.0366381 0)
(1.40005 0.00859743 1.81658e-19)
(1.53291 0.0472744 1.55877e-19)
(1.59461 0.0768086 0)
(1.61304 0.0983734 -1.44299e-19)
(1.60585 0.113018 2.13389e-20)
(1.5824 0.12276 1.09277e-19)
(1.54862 0.12899 0)
(1.51064 0.132057 0)
(1.47182 0.132697 5.05709e-20)
(1.43407 0.131572 0)
(1.39818 0.129012 2.43533e-20)
(1.36415 0.125103 -4.67832e-20)
(1.33158 0.11982 -1.31974e-20)
(1.29992 0.113124 2.14999e-20)
(1.26863 0.105004 1.95872e-20)
(1.23705 0.0953895 -1.34309e-20)
(1.20411 0.0837563 -2.74094e-21)
(1.1684 0.0684343 1.25433e-21)
(1.12679 0.0472704 0)
(-0.0794468 -0.199269 -6.48429e-19)
(0.0922213 -0.17 1.07121e-18)
(0.344311 -0.112058 -2.90299e-19)
(0.667626 -0.0429361 -6.45142e-19)
(0.99868 0.0217555 -2.16653e-19)
(1.26487 0.0767228 2.00124e-19)
(1.43413 0.118931 -2.85266e-19)
(1.52527 0.148316 1.5089e-20)
(1.56527 0.167108 -1.61302e-19)
(1.57136 0.178356 1.58756e-19)
(1.56259 0.182196 -2.22093e-19)
(1.5388 0.18362 -9.18421e-20)
(1.50582 0.181993 0)
(1.4705 0.178018 -5.08155e-20)
(1.43494 0.172553 -4.34424e-20)
(1.40031 0.166034 2.42685e-20)
(1.36699 0.158601 -5.50265e-20)
(1.33488 0.150231 -1.96551e-20)
(1.30359 0.140855 -2.49789e-21)
(1.27269 0.13041 -3.08701e-20)
(1.24166 0.118785 3.13186e-20)
(1.20962 0.105511 -7.849e-21)
(1.17507 0.089004 1.05959e-20)
(1.13477 0.066511 0)
(-0.139822 -0.18035 -8.46535e-20)
(0.0109711 -0.150807 -3.06248e-19)
(0.22998 -0.0894647 7.12886e-19)
(0.514117 -0.0103504 -2.61214e-19)
(0.823623 0.0680014 2.39411e-19)
(1.10143 0.134855 3.88456e-19)
(1.30248 0.183789 1.27619e-19)
(1.42518 0.215668 -2.63077e-19)
(1.49067 0.233877 4.39423e-20)
(1.51701 0.241677 2.86199e-20)
(1.51898 0.241969 3.58565e-19)
(1.5102 0.239557 -1.30332e-20)
(1.48785 0.233302 0)
(1.45831 0.224582 4.65359e-20)
(1.42701 0.214671 -1.40215e-19)
(1.39539 0.204079 1.12662e-19)
(1.36427 0.192996 -2.82718e-20)
(1.33385 0.181438 -1.79463e-20)
(1.30399 0.16933 5.08338e-20)
(1.27436 0.156569 3.00598e-20)
(1.24456 0.143012 -3.87661e-20)
(1.21393 0.128235 0)
(1.181 0.110827 0)
(1.14256 0.0874556 -4.32819e-22)
(-0.199534 -0.162942 5.54534e-19)
(-0.0693972 -0.133634 -4.91099e-21)
(0.12018 -0.0708937 1.38718e-19)
(0.367368 0.0132819 0)
(0.647196 0.101602 -6.75861e-19)
(0.919041 0.17942 2.04389e-19)
(1.14026 0.237342 0)
(1.2928 0.27453 0)
(1.38605 0.294443 -3.97356e-19)
(1.43574 0.301306 2.91684e-20)
(1.45629 0.299353 1.41693e-19)
(1.4589 0.292556 1.81598e-19)
(1.4508 0.284124 -1.71826e-19)
(1.43147 0.271143 1.22012e-19)
(1.40729 0.256979 0)
(1.38094 0.242369 -6.83564e-20)
(1.35386 0.227637 9.36399e-20)
(1.32671 0.212879 1.79915e-20)
(1.29964 0.198053 -3.89784e-20)
(1.27248 0.183042 0)
(1.24496 0.167677 -9.48052e-21)
(1.2165 0.151573 0)
(1.18594 0.133543 -9.95626e-21)
(1.15013 0.109878 9.75058e-21)
(-0.257137 -0.147577 7.72192e-20)
(-0.147133 -0.119309 -1.49049e-19)
(0.015576 -0.0567873 1.3591e-19)
(0.228734 0.0291351 0)
(0.475873 0.12288 0)
(0.729182 0.208607 1.99218e-19)
(0.955338 0.275705 4.76137e-19)
(1.12979 0.320355 -2.83987e-19)
(1.24992 0.344556 -1.95269e-19)
(1.32488 0.353017 1.59655e-20)
(1.36691 0.350694 0)
(1.387 0.342703 0)
(1.39227 0.330656 -8.03822e-20)
(1.38593 0.314913 -1.14263e-19)
(1.37203 0.297486 1.09148e-19)
(1.35367 0.279469 1.08044e-19)
(1.33291 0.26144 -6.67138e-20)
(1.31094 0.243678 -1.88505e-20)
(1.2883 0.22626 8.19734e-21)
(1.26513 0.209131 -1.67912e-20)
(1.24125 0.192136 5.47754e-20)
(1.21625 0.174953 -2.18006e-20)
(1.18912 0.156595 1.35914e-20)
(1.15708 0.133234 1.08356e-20)
(-0.311193 -0.134615 0)
(-0.220303 -0.108517 0)
(-0.0824358 -0.0475025 0)
(0.0995995 0.0376687 -7.19219e-19)
(0.314163 0.132664 -4.15483e-19)
(0.54205 0.222598 5.39314e-21)
(0.759526 0.296816 3.16483e-19)
(0.943655 0.349157 -1.39407e-19)
(1.08444 0.379843 -2.07175e-19)
(1.18352 0.39254 2.19831e-21)
(1.24853 0.392402 1.29806e-19)
(1.28854 0.384463 1.95695e-19)
(1.31059 0.371161 -8.50741e-21)
(1.3191 0.353816 -2.38604e-19)
(1.31785 0.334211 1.08574e-19)
(1.31002 0.313644 -3.82699e-20)
(1.29797 0.292939 -5.32421e-20)
(1.2833 0.272591 3.20158e-20)
(1.26696 0.252855 3.91341e-20)
(1.24944 0.233808 0)
(1.23082 0.21539 0)
(1.21087 0.197364 -2.68646e-20)
(1.18877 0.179042 1.25435e-20)
(1.1624 0.156652 0)
(-0.360502 -0.12405 -5.32251e-19)
(-0.287198 -0.101692 -2.81288e-19)
(-0.172158 -0.0432979 6.39376e-19)
(-0.0184465 0.0390896 2.46329e-19)
(0.16514 0.132198 2.1138e-19)
(0.365188 0.222836 -1.95264e-19)
(0.564804 0.300705 -4.59522e-19)
(0.746338 0.359279 -4.81397e-19)
(0.897589 0.396933 4.26386e-19)
(1.01498 0.415772 1.64257e-19)
(1.10106 0.420136 -2.55128e-19)
(1.16157 0.414587 -1.93189e-19)
(1.2022 0.402145 8.67506e-20)
(1.22741 0.384824 -4.84155e-20)
(1.24095 0.36448 1.98604e-20)
(1.24597 0.342576 8.1118e-20)
(1.24496 0.320158 0)
(1.23979 0.297937 1.59298e-20)
(1.23174 0.276371 -2.29612e-20)
(1.22165 0.255716 -2.72142e-20)
(1.20994 0.236085 7.66124e-21)
(1.1967 0.21738 2.40145e-20)
(1.18141 0.199328 -1.09731e-20)
(1.16336 0.17851 6.8722e-22)
(-0.404205 -0.115508 6.81869e-19)
(-0.346327 -0.0988867 0)
(-0.252025 -0.0440652 -5.07914e-19)
(-0.12387 0.0340378 1.71961e-20)
(0.031021 0.122961 1.92038e-19)
(0.20329 0.21112 1.56893e-19)
(0.380746 0.289283 1.59963e-19)
(0.550415 0.351372 6.06387e-19)
(0.701481 0.394712 0)
(0.828151 0.420027 0)
(0.929385 0.430326 1.25074e-19)
(1.00748 0.429287 1.8001e-19)
(1.06595 0.419926 -8.26282e-20)
(1.1083 0.404587 -4.82933e-20)
(1.13778 0.385262 9.84681e-20)
(1.15726 0.363559 3.15745e-20)
(1.16918 0.340714 -4.49269e-20)
(1.17549 0.31764 6.04307e-20)
(1.17768 0.294994 1.49695e-20)
(1.17684 0.273225 0)
(1.17366 0.252649 -1.91859e-20)
(1.16867 0.233325 2.82452e-20)
(1.16159 0.215488 -1.75678e-20)
(1.15452 0.196344 -8.5099e-22)
(-0.441189 -0.109502 7.48544e-20)
(-0.396438 -0.099836 6.65379e-20)
(-0.32067 -0.0492537 -1.21463e-19)
(-0.215514 0.0234795 3.34134e-19)
(-0.0867493 0.106443 4.65539e-19)
(0.059161 0.189644 -1.71629e-19)
(0.213341 0.265298 1.441e-19)
(0.366109 0.327889 -1.2668e-19)
(0.508812 0.374553 7.85676e-20)
(0.63565 0.405118 1.41406e-19)
(0.74389 0.421348 0)
(0.833442 0.425872 -1.12029e-20)
(0.905753 0.421241 -7.71619e-20)
(0.962931 0.409701 -1.52515e-19)
(1.0073 0.393215 7.40095e-21)
(1.04115 0.373436 -3.15291e-20)
(1.06658 0.35171 0)
(1.08539 0.3291 -4.50386e-20)
(1.09909 0.306429 1.66978e-20)
(1.10888 0.284313 0)
(1.11561 0.263264 0)
(1.1202 0.243477 -5.71493e-21)
(1.12217 0.225603 1.08879e-21)
(1.12756 0.207356 7.50877e-23)
(-0.47128 -0.106095 -2.96486e-19)
(-0.4366 -0.104011 -6.59772e-20)
(-0.377166 -0.0579399 -2.2954e-19)
(-0.292556 0.00856948 -9.99751e-20)
(-0.187257 0.0842919 -3.60568e-19)
(-0.0656049 0.160747 -8.9201e-20)
(0.0658829 0.231545 -2.59875e-19)
(0.199941 0.292028 0)
(0.329646 0.339481 -1.76251e-19)
(0.449835 0.373227 -1.40541e-19)
(0.557472 0.394157 -9.71595e-20)
(0.65127 0.403994 -2.24647e-20)
(0.731285 0.404642 1.2778e-19)
(0.798408 0.39796 -3.92343e-21)
(0.853992 0.385676 2.086e-20)
(0.899598 0.369325 0)
(0.936814 0.350229 2.33051e-20)
(0.967142 0.329496 -2.47638e-20)
(0.991916 0.308038 9.85274e-21)
(1.01231 0.286587 0)
(1.02917 0.265781 0)
(1.04371 0.245971 2.3568e-21)
(1.05508 0.227948 6.67663e-22)
(1.07205 0.209378 0)
(-0.493521 -0.105775 2.21195e-19)
(-0.466216 -0.110944 6.47356e-20)
(-0.420943 -0.0690409 4.50468e-19)
(-0.354451 -0.00924203 -9.52399e-20)
(-0.269902 0.0583319 6.53145e-21)
(-0.170041 0.126661 7.53663e-20)
(-0.0597117 0.190778 1.23762e-19)
(0.0555847 0.247037 0)
(0.170371 0.292999 0)
(0.280121 0.327777 0)
(0.381798 0.351695 4.46207e-20)
(0.473747 0.365723 -2.76007e-21)
(0.555317 0.37118 5.12621e-20)
(0.626592 0.369471 -4.88103e-20)
(0.688172 0.361965 1.66144e-20)
(0.740976 0.349944 0)
(0.786091 0.334576 1.52905e-20)
(0.824658 0.316896 -9.98606e-21)
(0.857781 0.297794 -9.05778e-21)
(0.886505 0.278034 1.29183e-20)
(0.911654 0.258291 -5.00828e-21)
(0.934409 0.239079 6.45035e-22)
(0.954255 0.220972 1.90509e-21)
(0.979133 0.201612 -1.71764e-21)
(-0.504354 -0.108818 0)
(-0.483922 -0.119549 0)
(-0.451743 -0.0814329 -2.72688e-19)
(-0.401014 -0.0284948 2.34119e-19)
(-0.334393 0.0302894 -1.58171e-19)
(-0.253544 0.0894831 1.96897e-19)
(-0.162098 0.145579 4.97113e-20)
(-0.0643849 0.195918 8.50237e-20)
(0.0351889 0.238518 -8.71133e-21)
(0.132813 0.272442 5.29642e-20)
(0.225635 0.297567 -6.58458e-21)
(0.311797 0.314382 -6.42271e-20)
(0.390303 0.323698 7.75045e-20)
(0.46081 0.326452 2.99374e-20)
(0.523429 0.323635 -1.90416e-20)
(0.5786 0.316232 0)
(0.626984 0.305168 -6.89526e-21)
(0.669389 0.29128 1.37145e-20)
(0.706695 0.275329 -5.65137e-21)
(0.739802 0.258005 -6.33163e-22)
(0.769531 0.239931 1.45075e-21)
(0.796865 0.221684 -6.13e-22)
(0.822108 0.203566 6.41667e-22)
(0.849537 0.184403 0)
(-0.502305 -0.118237 -3.90326e-20)
(-0.489613 -0.126911 5.88364e-20)
(-0.468789 -0.0930522 -1.05525e-19)
(-0.432587 -0.0476093 -2.31469e-19)
(-0.380945 0.00171477 1.20585e-19)
(-0.315853 0.0510099 -1.61053e-19)
(-0.240301 0.0981237 -1.0882e-19)
(-0.157906 0.141324 3.9657e-20)
(-0.0723301 0.179102 -7.65584e-20)
(0.0131436 0.210561 1.93208e-20)
(0.0959941 0.235384 -1.26891e-19)
(0.174392 0.253653 8.16237e-20)
(0.247178 0.265723 -6.30419e-20)
(0.313751 0.272134 -1.81998e-20)
(0.373936 0.273523 -7.11054e-21)
(0.427876 0.270541 4.02335e-21)
(0.475934 0.263823 8.73863e-21)
(0.518628 0.253976 -1.18544e-20)
(0.556602 0.241566 1.93239e-21)
(0.590586 0.22712 -1.85857e-21)
(0.621341 0.211133 -3.50045e-22)
(0.649695 0.194105 1.29778e-21)
(0.676299 0.176516 -1.8888e-21)
(0.702296 0.159296 -1.43528e-22)
(-0.481643 -0.137528 1.83911e-20)
(-0.482351 -0.131262 -1.57128e-20)
(-0.473885 -0.101333 1.27173e-19)
(-0.450393 -0.0650392 -4.37786e-20)
(-0.410649 -0.0260603 1.79659e-20)
(-0.357513 0.0126712 5.9091e-20)
(-0.294047 0.050127 -2.23107e-21)
(-0.223611 0.0853807 0)
(-0.149442 0.117336 1.56111e-20)
(-0.0744622 0.14519 0)
(-0.000888744 0.168472 -2.66309e-20)
(0.069607 0.186981 3.85902e-20)
(0.135875 0.200738 1.13004e-20)
(0.197222 0.209929 0)
(0.253321 0.214847 -1.54584e-20)
(0.304137 0.215843 -1.21403e-21)
(0.349851 0.213286 3.34117e-21)
(0.390799 0.207516 5.287e-21)
(0.427426 0.198846 -1.74e-21)
(0.460286 0.187609 0)
(0.489967 0.174131 1.45409e-22)
(0.516985 0.158799 0)
(0.541869 0.142506 -1.1842e-22)
(0.565163 0.127867 1.43239e-22)
(-0.0421261 0.0424211 -1.66919e-19)
(-0.166931 0.0808041 -1.35637e-19)
(-0.327341 0.107105 0)
(-0.413269 0.117295 -8.23294e-20)
(-0.422011 0.11754 -4.04941e-21)
(-0.34868 0.0820473 -4.67777e-20)
(-0.0879677 0.0762234 -1.03313e-20)
(-0.240182 0.118834 0)
(-0.355246 0.138473 -9.8155e-20)
(-0.40147 0.138847 6.80368e-20)
(-0.409779 0.133821 -5.12437e-20)
(-0.355191 0.0850591 0)
(-0.108654 0.0968372 8.85173e-21)
(-0.251202 0.145062 -2.52475e-19)
(-0.344615 0.155251 2.55545e-19)
(-0.378357 0.1492 9.35433e-20)
(-0.384297 0.13047 9.04347e-20)
(-0.354393 0.073225 -2.53115e-20)
(-0.127329 0.116656 8.23214e-21)
(-0.25219 0.168282 6.83076e-19)
(-0.329827 0.171876 -1.77317e-19)
(-0.357791 0.159122 -1.4303e-19)
(-0.361796 0.132226 0)
(-0.346343 0.0730532 0)
(-0.148048 0.135158 1.69324e-20)
(-0.252476 0.188246 -4.56578e-19)
(-0.316083 0.187976 0)
(-0.33887 0.170299 2.76132e-19)
(-0.342464 0.138586 2.30528e-19)
(-0.335312 0.0812522 0)
(-0.168459 0.151012 0)
(-0.253942 0.203589 0)
(-0.303365 0.202816 0)
(-0.321253 0.182369 -2.67437e-19)
(-0.32462 0.148522 -2.24987e-19)
(-0.322119 0.0946066 0)
(-0.18466 0.170979 1.2932e-18)
(-0.254032 0.215444 8.51383e-19)
(-0.2911 0.216324 6.79153e-19)
(-0.304526 0.195149 -3.27131e-20)
(-0.307114 0.161332 0)
(-0.306528 0.111745 0)
(-0.19368 0.188162 -1.33155e-18)
(-0.251586 0.225131 -8.01786e-19)
(-0.278903 0.22874 -1.25004e-18)
(-0.2883 0.208547 6.55423e-20)
(-0.289317 0.176364 -5.62048e-20)
(-0.288343 0.131541 0)
(-0.199565 0.200031 -1.33801e-18)
(-0.246972 0.233451 -7.88296e-19)
(-0.266667 0.240316 6.15049e-19)
(-0.272302 0.222397 -5.20661e-19)
(-0.270939 0.192974 -3.4284e-19)
(-0.267619 0.153098 -5.20033e-19)
(-0.203805 0.209867 1.29525e-18)
(-0.240615 0.240724 8.02434e-19)
(-0.254326 0.25127 0)
(-0.256375 0.236475 5.83308e-19)
(-0.251943 0.210537 7.47076e-19)
(-0.244657 0.175589 2.06763e-19)
(-0.20639 0.217416 0)
(-0.232823 0.247108 4.88355e-20)
(-0.241723 0.261741 -3.78354e-20)
(-0.240476 0.250559 -5.87948e-19)
(-0.232502 0.228459 -5.23779e-19)
(-0.220016 0.198172 5.34618e-19)
(-0.206896 0.222181 1.34765e-18)
(-0.223751 0.252707 0)
(-0.228818 0.271833 -7.71466e-20)
(-0.224688 0.264457 5.8798e-19)
(-0.212979 0.246198 0)
(-0.194514 0.220009 0)
(-0.204902 0.224152 -1.36942e-18)
(-0.213492 0.257639 -7.29901e-19)
(-0.215647 0.281584 -3.79341e-20)
(-0.209197 0.278008 0)
(-0.193902 0.263304 0)
(-0.169162 0.240327 -1.12227e-19)
(-0.200158 0.223584 -1.37063e-18)
(-0.202058 0.261945 7.87807e-19)
(-0.202327 0.291074 7.79962e-20)
(-0.194253 0.291097 -2.00336e-19)
(-0.175906 0.279416 1.19059e-19)
(-0.145172 0.258443 -1.13533e-19)
(-0.192618 0.221132 1.35141e-18)
(-0.189521 0.265622 5.05943e-20)
(-0.189042 0.300301 4.04583e-20)
(-0.180101 0.303698 -6.66426e-20)
(-0.159674 0.294323 -1.23052e-19)
(-0.1238 0.273927 -4.55389e-19)
(-0.182367 0.220151 0)
(-0.176256 0.268793 0)
(-0.175875 0.309229 -6.35319e-19)
(-0.167143 0.315751 6.89075e-20)
(-0.145906 0.307989 4.31353e-19)
(-0.106365 0.286629 4.58692e-19)
(-0.155509 0.226697 -3.87639e-20)
(-0.163229 0.271014 9.01739e-19)
(-0.163078 0.317568 6.06069e-19)
(-0.155645 0.327169 6.9823e-20)
(-0.135205 0.32056 -1.0576e-18)
(-0.0944232 0.29679 1.15955e-19)
(-0.134301 0.222435 3.41742e-20)
(-0.151692 0.26982 -9.11207e-19)
(-0.150765 0.324482 4.03918e-20)
(-0.145708 0.337788 5.62568e-19)
(-0.127951 0.332487 1.00764e-18)
(-0.0893111 0.304976 -1.16522e-19)
(-0.120981 0.207956 -1.04676e-18)
(-0.140822 0.264849 -8.94834e-19)
(-0.138542 0.329197 4.13158e-20)
(-0.137176 0.34745 -5.00766e-19)
(-0.124048 0.344596 -1.08564e-18)
(-0.0922979 0.311564 0)
(-0.104164 0.188896 1.06009e-18)
(-0.128683 0.255815 1.28374e-18)
(-0.12568 0.331305 3.4621e-19)
(-0.129669 0.355887 2.22898e-19)
(-0.122718 0.358236 3.92627e-19)
(-0.106176 0.316035 5.83754e-20)
(-0.085371 0.167698 -3.33726e-20)
(-0.114669 0.242752 -4.13613e-19)
(-0.111528 0.330709 4.49682e-20)
(-0.121647 0.362165 -1.15152e-19)
(-0.123182 0.377078 1.33772e-19)
(-0.131944 0.315977 -6.14612e-20)
(-0.0700297 0.146669 -1.78771e-20)
(-0.0993639 0.225823 1.45706e-20)
(-0.096122 0.327351 -3.78156e-19)
(-0.112446 0.363848 -3.22737e-19)
(-0.120579 0.406059 2.81328e-19)
(-0.157112 0.316872 0)
(-0.0555701 0.121447 -1.02718e-20)
(-0.0824476 0.202383 2.94414e-19)
(-0.0798036 0.318782 -5.01652e-20)
(-0.102024 0.353573 2.09615e-20)
(-0.109642 0.445948 1.87916e-19)
(-0.156684 0.32123 1.67498e-19)
(-0.0346608 0.0606227 1.12362e-20)
(-0.0616181 0.140445 -3.99006e-19)
(-0.0589811 0.277866 2.69718e-20)
(-0.0805572 0.297826 8.08081e-22)
(-0.0817414 0.468361 -1.74603e-19)
(-0.139059 0.273581 -7.24089e-20)
(-0.406042 -0.119825 0)
(-0.46063 -0.125909 0)
(-0.469852 -0.105568 0)
(-0.456774 -0.0797567 0)
(-0.425435 -0.0522465 2.79449e-20)
(-0.380086 -0.0246945 7.88205e-21)
(-0.324315 0.00272433 -2.52782e-20)
(-0.261619 0.0296537 -5.91077e-22)
(-0.195088 0.0553401 -1.55162e-20)
(-0.1275 0.0789837 0)
(-0.0608374 0.0999749 9.25822e-21)
(0.00341433 0.11789 -6.99374e-21)
(0.0642145 0.132477 1.50713e-22)
(0.12091 0.143621 3.16448e-21)
(0.17316 0.151318 -5.14815e-21)
(0.220866 0.155643 6.3224e-22)
(0.264113 0.156713 2.31751e-22)
(0.303107 0.154647 7.23155e-22)
(0.338085 0.149485 -6.07502e-22)
(0.369392 0.14136 2.42567e-22)
(0.39743 0.130571 7.08944e-23)
(0.422607 0.117581 -7.03881e-23)
(0.445407 0.103576 1.21391e-22)
(0.46741 0.0922582 -2.37567e-24)
(-0.383036 -0.087772 0)
(-0.443051 -0.111119 0)
(-0.459644 -0.104627 0)
(-0.454045 -0.0914979 -4.21618e-20)
(-0.427171 -0.0767124 3.52937e-20)
(-0.385405 -0.0609551 -2.89027e-20)
(-0.332872 -0.0437961 -2.24633e-20)
(-0.273454 -0.0252814 5.89693e-22)
(-0.210335 -0.00588419 -7.64623e-21)
(-0.146269 0.0134599 -6.19742e-21)
(-0.0831556 0.0319409 0)
(-0.0223183 0.0489105 -1.1677e-20)
(0.0353451 0.0638613 1.09496e-21)
(0.0892973 0.0764163 4.15039e-21)
(0.139279 0.0863133 2.68627e-21)
(0.185242 0.0933875 1.33998e-21)
(0.227291 0.0975545 -1.28356e-21)
(0.265634 0.0988071 -2.05973e-23)
(0.300563 0.0972432 0)
(0.332278 0.0929269 0)
(0.360845 0.0860092 0)
(0.386449 0.0770954 2.10536e-24)
(0.410127 0.0676863 -4.08049e-24)
(0.434498 0.0611615 2.81283e-22)
(-0.374081 -0.0575872 -1.63088e-20)
(-0.428313 -0.0930559 9.90959e-20)
(-0.44633 -0.0995392 1.23325e-19)
(-0.443206 -0.10058 4.23671e-20)
(-0.416874 -0.0994667 -3.54405e-20)
(-0.374495 -0.09605 -2.86688e-20)
(-0.320722 -0.0893346 -1.41719e-21)
(-0.260056 -0.0791745 3.26195e-20)
(-0.196048 -0.0658645 -2.66063e-20)
(-0.131497 -0.050539 2.21263e-20)
(-0.068335 -0.0343343 -3.3518e-20)
(-0.00774573 -0.0181868 -1.55753e-20)
(0.0495255 -0.00287849 1.79331e-20)
(0.103094 0.0109583 -3.17033e-21)
(0.152825 0.0228291 -7.06892e-21)
(0.198748 0.0323698 6.7594e-21)
(0.240991 0.0393254 -2.82108e-21)
(0.279734 0.043536 2.70721e-21)
(0.315186 0.0449499 0)
(0.347529 0.0436426 0)
(0.376852 0.0398925 -1.78229e-22)
(0.40345 0.0343821 -9.15702e-22)
(0.428891 0.0286335 3.36062e-21)
(0.45672 0.025229 -2.72963e-21)
(-0.365562 -0.0322245 0)