/*--------------------------------*- C++ -*----------------------------------*\
  =========                 |
  \\      /  F ield         | OpenFOAM: The Open Source CFD Toolbox
   \\    /   O peration     | Website:  https://openfoam.org
    \\  /    A nd           | Version:  11
     \\/     M anipulation  |
\*---------------------------------------------------------------------------*/
FoamFile
{
    format      ascii;
    class       surfaceVectorField;
    location    "0.24";
    object      Uf;
}
// * * * * * * * * * * * * * * * * * * * * * * * * * * * * * * * * * * * * * //

dimensions      [0 1 -1 0 0 0 0];

internalField   nonuniform List<vector> 
5640
(
(0.0297484 -0.0791482 -2.74739e-20)
(0.0240823 -0.0639409 -8.48167e-20)
(0.0310666 -0.197772 1.73196e-20)
(0.0192363 -0.153678 6.03534e-20)
(0.0346823 -0.30707 -4.92378e-20)
(0.0228372 -0.280982 -9.30741e-20)
(0.0434984 -0.406328 -2.15843e-21)
(0.0284581 -0.355533 3.39593e-20)
(0.0481566 -0.472411 -3.42342e-20)
(0.0466505 -0.470805 -2.99791e-20)
(0.0528563 -0.36357 -3.27453e-20)
(0.36155 -0.548929 -3.81869e-20)
(0.00957549 -0.12324 -5.43355e-21)
(0.00586047 -0.0908221 -1.73115e-22)
(0.00543463 -0.235995 -4.35115e-20)
(-0.00609955 -0.185538 -1.12117e-19)
(0.00954959 -0.332105 -1.41686e-20)
(-0.00483559 -0.293969 7.13141e-20)
(0.0240601 -0.405711 8.72998e-21)
(0.00128116 -0.361318 8.07724e-20)
(0.0459059 -0.446628 -2.83123e-20)
(0.0292904 -0.433389 2.12331e-20)
(0.0491478 -0.369693 -1.45571e-20)
(0.296973 -0.435267 0)
(-0.0102608 -0.140181 -1.00902e-19)
(-0.0139055 -0.103108 9.87944e-21)
(-0.0175808 -0.241572 -4.73881e-21)
(-0.0284625 -0.193557 1.92901e-19)
(-0.0140089 -0.3249 1.6546e-19)
(-0.0297437 -0.286919 3.59186e-20)
(0.00551991 -0.381299 9.53289e-20)
(-0.0212804 -0.346073 -2.42379e-20)
(0.0395928 -0.403869 4.44452e-20)
(0.0156622 -0.394341 4.86973e-20)
(0.0611793 -0.359925 -1.45571e-20)
(0.215588 -0.356528 -2.37644e-20)
(-0.0311042 -0.146112 2.91647e-19)
(-0.0341966 -0.107579 1.4742e-20)
(-0.039884 -0.236954 2.40091e-19)
(-0.0491819 -0.191882 9.8404e-20)
(-0.0365435 -0.309256 -1.52124e-19)
(-0.0530926 -0.273203 -8.10622e-20)
(-0.0124971 -0.355484 -7.2695e-20)
(-0.0426986 -0.32546 6.906e-20)
(0.0372009 -0.372633 0)
(0.000177892 -0.361571 1.26336e-19)
(0.0656559 -0.348778 0)
(0.179128 -0.334967 0)
(-0.0517026 -0.144872 -1.84144e-19)
(-0.0541426 -0.106657 9.82662e-21)
(-0.0614949 -0.226403 -2.14673e-19)
(-0.0689838 -0.184368 -2.05911e-19)
(-0.0588183 -0.289913 1.3505e-19)
(-0.0757309 -0.255859 0)
(-0.0317851 -0.329613 2.66485e-19)
(-0.0644769 -0.302811 3.83006e-21)
(0.0271209 -0.346225 1.29364e-19)
(-0.0192485 -0.332243 3.52905e-21)
(0.0570686 -0.333031 0)
(0.152278 -0.326344 0)
(-0.0712269 -0.139255 0)
(-0.0728378 -0.102713 6.10843e-19)
(-0.0824744 -0.212255 0)
(-0.0880973 -0.173439 3.9625e-19)
(-0.0812808 -0.268754 -1.31309e-19)
(-0.0980996 -0.236626 3.25994e-19)
(-0.053443 -0.30443 -2.59516e-19)
(-0.0874255 -0.279439 -1.52437e-19)
(0.00893797 -0.321271 -1.26216e-19)
(-0.0425015 -0.305533 -1.23261e-19)
(0.0381782 -0.313044 0)
(0.122911 -0.312454 1.34472e-19)
(-0.0893892 -0.131365 1.01984e-18)
(-0.0894954 -0.0973145 -1.71513e-20)
(-0.102959 -0.196257 7.25233e-19)
(-0.106422 -0.16073 2.26287e-20)
(-0.104259 -0.246965 3.21415e-19)
(-0.120267 -0.216687 -2.7674e-19)
(-0.0777273 -0.280017 -1.70003e-20)
(-0.111721 -0.256144 1.74771e-20)
(-0.015396 -0.297322 0)
(-0.0692795 -0.280727 -3.00875e-20)
(0.0110063 -0.291511 0)
(0.0908042 -0.295829 -4.02736e-19)
(-0.105826 -0.122391 -1.0164e-18)
(-0.103564 -0.0911795 -1.2615e-18)
(-0.122865 -0.17955 -9.6676e-19)
(-0.123714 -0.147248 -7.45592e-19)
(-0.127729 -0.225304 -5.90286e-19)
(-0.14207 -0.19678 -3.05143e-19)
(-0.104357 -0.256485 5.96061e-21)
(-0.137165 -0.233396 -2.32477e-19)
(-0.0450944 -0.274344 -3.08087e-20)
(-0.099112 -0.257323 -2.12918e-19)
(-0.0229819 -0.269827 -2.85059e-19)
(0.0545974 -0.277881 3.00527e-19)
(-0.120205 -0.112879 -1.02046e-18)
(-0.114719 -0.0845026 -2.12971e-20)
(-0.141944 -0.162797 -1.027e-19)
(-0.139684 -0.133571 4.42148e-21)
(-0.151415 -0.204183 5.02312e-20)
(-0.163219 -0.177298 2.97663e-19)
(-0.132852 -0.233863 -4.51667e-19)
(-0.163343 -0.211402 3.07696e-20)
(-0.0790708 -0.252178 -4.65827e-19)
(-0.131348 -0.234996 2.11258e-19)
(-0.062114 -0.248413 -1.73185e-19)
(0.0131461 -0.25862 -3.3243e-19)
(-0.132295 -0.102998 1.00143e-18)
(-0.122805 -0.0772444 6.1192e-19)
(-0.15988 -0.146339 3.92293e-19)
(-0.154037 -0.12001 3.99369e-19)
(-0.174907 -0.183767 2.8722e-19)
(-0.183352 -0.158405 -1.829e-20)
(-0.162594 -0.212111 6.88782e-19)
(-0.189716 -0.190201 -5.78568e-22)
(-0.116182 -0.230694 5.12956e-19)
(-0.165195 -0.213559 1.20568e-19)
(-0.104782 -0.227441 3.93953e-19)
(-0.0328634 -0.23846 -1.05397e-19)
(-0.141955 -0.0927615 2.17554e-20)
(-0.12778 -0.0692899 6.3836e-19)
(-0.176321 -0.130329 6.43171e-21)
(-0.166489 -0.10671 2.30874e-20)
(-0.197724 -0.164069 -3.06687e-19)
(-0.202057 -0.140121 -5.60711e-20)
(-0.192867 -0.191162 -5.72076e-19)
(-0.215677 -0.169732 -2.35061e-21)
(-0.155269 -0.209864 -4.74687e-21)
(-0.199794 -0.192893 -2.73423e-19)
(-0.149523 -0.207079 2.81943e-19)
(-0.0821917 -0.218072 5.29686e-19)
(-0.148874 -0.0824027 6.75188e-19)
(-0.129742 -0.0605651 -1.02949e-20)
(-0.190909 -0.114772 -3.61735e-20)
(-0.176688 -0.0936892 -3.43028e-19)
(-0.219338 -0.145016 2.4617e-19)
(-0.218889 -0.122387 -5.62073e-20)
(-0.222917 -0.170929 3.03723e-19)
(-0.240574 -0.149889 2.9544e-19)
(-0.195209 -0.189735 0)
(-0.234262 -0.172926 0)
(-0.195012 -0.187519 -5.73064e-20)
(-0.133427 -0.198108 -2.70336e-19)
(-0.153136 -0.0716414 -1.00874e-18)
(-0.128806 -0.0510104 -1.3001e-18)
(-0.203225 -0.0996484 -3.75591e-19)
(-0.184311 -0.0809654 2.41779e-20)
(-0.23919 -0.126489 -1.90486e-20)
(-0.233357 -0.105098 1.98063e-20)
(-0.25195 -0.151326 0)
(-0.263744 -0.130525 -9.98081e-20)
(-0.234917 -0.170376 -5.59327e-20)
(-0.267702 -0.153596 5.90156e-20)
(-0.24002 -0.168901 -1.14261e-19)
(-0.185172 -0.179029 -1.02381e-19)
(-0.154626 -0.0605191 -3.43652e-19)
(-0.125123 -0.0406625 -8.60085e-21)
(-0.212836 -0.0848765 4.19361e-19)
(-0.189017 -0.0685101 3.90647e-19)
(-0.256691 -0.108387 -5.67406e-20)
(-0.244931 -0.0881352 5.80859e-20)
(-0.279241 -0.132195 -4.53865e-20)
(-0.284521 -0.111398 -1.32601e-19)
(-0.273304 -0.151819 4.84075e-21)
(-0.299234 -0.134861 -2.00763e-21)
(-0.283407 -0.151321 -2.81133e-19)
(-0.236007 -0.161188 1.6455e-19)
(-0.153271 -0.0490686 7.02109e-19)
(-0.118832 -0.0296668 6.42864e-19)
(-0.219318 -0.0703612 4.30811e-20)
(-0.19047 -0.0562546 2.35138e-20)
(-0.271187 -0.0905126 -1.08825e-20)
(-0.253083 -0.0713288 -2.90825e-19)
(-0.304055 -0.113332 -9.30246e-20)
(-0.302085 -0.0923079 1.3817e-21)
(-0.309374 -0.134099 -2.81823e-19)
(-0.328051 -0.116633 1.49214e-19)
(-0.324124 -0.134748 -2.2886e-21)
(-0.284708 -0.144833 -2.29416e-19)
(-0.148992 -0.037357 0)
(-0.110029 -0.0182778 -2.06095e-20)
(-0.22226 -0.0559808 -2.97458e-19)
(-0.188354 -0.0440989 4.22576e-19)
(-0.281948 -0.0726625 -2.88154e-19)
(-0.257317 -0.0544965 -1.30681e-20)
(-0.325495 -0.0946773 2.39209e-19)
(-0.315436 -0.0731358 6.89258e-20)
(-0.34235 -0.117046 4.31675e-19)
(-0.353448 -0.098512 -3.02895e-19)
(-0.361189 -0.119177 2.77369e-19)
(-0.330052 -0.130024 2.58558e-19)
(-0.141684 -0.0255014 3.75108e-19)
(-0.0987393 -0.00685022 1.25747e-22)
(-0.221237 -0.0415885 7.24894e-19)
(-0.182372 -0.0319204 -1.13656e-20)
(-0.288283 -0.0546386 3.4111e-19)
(-0.25712 -0.0374882 3.17637e-19)
(-0.342604 -0.0759804 -4.63071e-19)
(-0.323555 -0.0536497 3.16213e-19)
(-0.371522 -0.100295 -4.70895e-19)
(-0.374442 -0.0800286 -2.02781e-20)
(-0.393876 -0.104589 4.85676e-22)
(-0.370854 -0.116805 -1.5659e-19)
(-0.131201 -0.0136605 -3.85473e-19)
(-0.0849189 0.00418836 -6.38651e-19)
(-0.215844 -0.027047 -4.32448e-19)
(-0.172252 -0.0195889 -8.70514e-19)
(-0.289453 -0.0362257 2.92787e-19)
(-0.251933 -0.0202116 4.09947e-20)
(-0.35413 -0.0567626 7.68158e-19)
(-0.325497 -0.0335355 2.82607e-20)
(-0.395918 -0.083691 4.50578e-19)
(-0.389502 -0.060781 -4.51627e-20)
(-0.422109 -0.0901763 -5.51699e-20)
(-0.406736 -0.105022 2.19389e-19)
(-0.117355 -0.00202023 -1.109e-18)
(-0.0684989 0.0143767 5.19978e-21)
(-0.205672 -0.0122385 -4.34986e-19)
(-0.157719 -0.00698869 2.0672e-19)
(-0.284703 -0.0173045 -2.22741e-19)
(-0.241131 -0.00264519 1.96916e-19)
(-0.358962 -0.0366094 -7.82024e-19)
(-0.320065 -0.0125445 -1.40071e-19)
(-0.414461 -0.0663696 -5.50148e-19)
(-0.396866 -0.0400031 -3.40941e-19)
(-0.44549 -0.0748001 2.86954e-20)
(-0.437595 -0.0938204 3.12075e-20)
(-0.0999207 0.00923011 1.30872e-18)
(-0.0495473 0.023279 6.43156e-19)
(-0.190296 0.00289681 8.38949e-19)
(-0.138449 0.00595028 4.30574e-19)
(-0.272916 0.00221639 2.90971e-19)
(-0.224043 0.0150879 2.00003e-19)
(-0.355572 -0.0150444 3.05973e-19)
(-0.305462 0.00942511 5.42558e-20)
(-0.4255 -0.0476941 2.29479e-19)
(-0.394456 -0.0167403 2.63153e-19)
(-0.462944 -0.0568831 -7.30499e-22)
(-0.463099 -0.0827572 -9.19924e-20)
(-0.0787503 0.0198787 -2.23949e-19)
(-0.0286817 0.0305599 -3.21895e-20)
(-0.169288 0.0182209 -1.98112e-19)
(-0.113902 0.0191935 -2.0467e-19)
(-0.252789 0.0221535 -3.12749e-20)
(-0.19986 0.0326394 -1.71049e-19)
(-0.341749 0.00831925 5.41023e-21)
(-0.279108 0.0322594 -2.24087e-19)
(-0.426867 -0.0264117 4.36449e-20)
(-0.378761 0.0100632 2.12191e-19)
(-0.473456 -0.0338266 -2.94259e-20)
(-0.482734 -0.0710858 5.79024e-20)
(-0.0540533 0.0293444 -5.41455e-21)
(-0.00710872 0.0358618 -1.66286e-20)
(-0.142076 0.0331383 -1.7945e-19)
(-0.0825008 0.0324028 1.62892e-19)
(-0.222413 0.0418996 -3.62759e-19)
(-0.166783 0.0491609 -2.21731e-19)
(-0.313486 0.0341022 -2.99834e-20)
(-0.236589 0.0551864 -1.55377e-19)
(-0.4146 0.00228148 1.48465e-19)
(-0.340997 0.0414322 2.42398e-19)
(-0.475049 -0.00260398 8.7933e-20)
(-0.493501 -0.0546854 0)
(-0.0255876 0.037046 1.39327e-19)
(0.0133824 0.0385513 -9.80692e-20)
(-0.106506 0.0467684 1.36036e-19)
(-0.0385987 0.0445736 7.8922e-20)
(-0.177716 0.0607046 -1.67887e-20)
(-0.118095 0.0628552 -3.34436e-20)
(-0.262124 0.0637559 1.05852e-19)
(-0.169606 0.0759476 2.23627e-20)
(-0.376781 0.0472584 1.93292e-19)
(-0.252809 0.0762056 2.0537e-20)
(-0.46017 0.044284 2.27594e-20)
(-0.493617 -0.0259328 7.54059e-20)
(0.00758622 0.0430246 -1.70946e-19)
(-0.0519407 0.0599908 -8.72126e-20)
(-0.110564 0.0793289 4.83959e-21)
(-0.174077 0.0859296 -6.79639e-20)
(-0.280312 0.052695 -1.58716e-19)
(-0.507867 -0.0356404 -8.15472e-20)
(0.948896 -0.979796 0)
(0.677991 -0.796398 0)
(0.833624 -1.08766 0)
(1.18464 -0.891898 0)
(1.13441 -0.89755 0)
(1.08578 -0.970264 7.65138e-22)
(1.29582 -0.771597 0)
(1.29307 -0.804137 0)
(1.22442 -0.830831 -4.79919e-21)
(1.35096 -0.663627 4.16881e-22)
(1.36672 -0.700245 -9.18559e-21)
(1.29871 -0.715788 7.80312e-22)
(1.37422 -0.567198 4.93989e-22)
(1.40218 -0.603139 6.13297e-21)
(1.33559 -0.613288 2.10478e-21)
(1.37658 -0.481996 8.26074e-23)
(1.41144 -0.514328 -3.27362e-21)
(1.34745 -0.521794 -9.78359e-21)
(1.36695 -0.408784 2.60885e-21)
(1.40383 -0.435877 -1.69676e-21)
(1.34434 -0.442964 9.30976e-24)
(1.35182 -0.347498 -1.12167e-22)
(1.3874 -0.36895 2.59496e-21)
(1.33374 -0.376906 3.66683e-21)
(1.33503 -0.297077 -2.8416e-21)
(1.36768 -0.313258 -3.14438e-21)
(1.3203 -0.322583 -1.03761e-20)
(1.31828 -0.255818 2.89679e-21)
(1.34766 -0.267563 5.5135e-22)
(1.30622 -0.278193 6.52625e-21)
(1.30199 -0.221892 7.65234e-23)
(1.32845 -0.230148 2.92732e-21)
(1.29217 -0.241741 6.85901e-21)
(1.28605 -0.193692 -3.00419e-21)
(1.31014 -0.199305 4.6725e-22)
(1.27817 -0.211465 -2.01403e-20)
(1.27021 -0.169949 2.50753e-21)
(1.29246 -0.173591 2.21914e-22)
(1.26404 -0.185977 -7.1621e-21)
(1.25422 -0.149701 2.6555e-21)
(1.27507 -0.151882 1.05632e-21)
(1.24958 -0.164236 8.59658e-21)
(1.23787 -0.132225 -2.36957e-21)
(1.25771 -0.133326 -1.85887e-21)
(1.23465 -0.145464 1.83526e-20)
(1.22097 -0.116978 -5.04208e-21)
(1.2401 -0.117279 -4.56022e-21)
(1.21909 -0.129074 -1.91891e-20)
(1.2033 -0.103551 -5.12259e-21)
(1.22199 -0.103254 -5.93781e-22)
(1.20274 -0.114618 2.22395e-20)
(1.18461 -0.0916395 -3.18979e-22)
(1.20311 -0.0908973 -2.43419e-21)
(1.1854 -0.101762 -1.32438e-20)
(1.16459 -0.0810296 -2.48381e-21)
(1.18312 -0.0799649 2.22061e-21)
(1.16684 -0.0902611 -5.87577e-21)
(1.14285 -0.0715886 -4.79543e-21)
(1.16161 -0.0702678 -4.76487e-21)
(1.14674 -0.0798932 1.84e-20)
(1.11874 -0.0633167 -6.77599e-23)
(1.13796 -0.0615748 0)
(1.12471 -0.0703167 -4.78137e-21)
(1.09126 -0.0564706 -2.42107e-21)
(1.11114 -0.0540987 -9.8093e-24)
(1.10022 -0.0614637 -6.81809e-23)
(1.05912 -0.0513147 -2.38018e-21)
(1.07987 -0.0503705 -2.41104e-21)
(1.07196 -0.0555902 -1.99715e-22)
(1.04649 -0.05949 1.87937e-21)
(1.03444 -0.0659076 5.61376e-21)
(0.881867 -0.75353 0)
(0.527594 -0.511399 -8.14113e-21)
(1.22307 -0.808206 0)
(1.10131 -0.778357 5.09546e-20)
(1.35695 -0.736211 -9.01479e-21)
(1.32883 -0.748226 4.88428e-20)
(1.41549 -0.642154 -3.72567e-21)
(1.42233 -0.665702 -3.62587e-22)
(1.43828 -0.551882 2.50054e-21)
(1.46242 -0.578395 2.80338e-22)
(1.43811 -0.469662 -5.06807e-21)
(1.4723 -0.495332 -1.20022e-20)
(1.42402 -0.397386 -1.75393e-21)
(1.46245 -0.419692 -5.58285e-21)
(1.40316 -0.335811 -3.63878e-22)
(1.4416 -0.353769 3.30695e-21)
(1.3803 -0.284581 2.82434e-22)
(1.41625 -0.29807 -1.70454e-21)
(1.35786 -0.242502 5.57101e-22)
(1.39037 -0.25197 -9.55139e-22)
(1.33665 -0.207998 3.3422e-21)
(1.36577 -0.214165 1.47566e-21)
(1.31662 -0.179523 3.66163e-21)
(1.34284 -0.183129 5.63451e-21)
(1.29742 -0.155765 -1.25729e-21)
(1.32134 -0.15745 -3.89964e-21)
(1.27868 -0.135696 -3.45435e-21)
(1.30086 -0.135966 2.31065e-22)
(1.26007 -0.118532 -4.03342e-21)
(1.28098 -0.117775 4.7569e-21)
(1.24128 -0.10368 -1.35109e-22)
(1.26132 -0.102195 -8.41486e-21)
(1.222 -0.0907014 2.10901e-21)
(1.24152 -0.0887218 9.11394e-21)
(1.20187 -0.0792843 7.06786e-23)
(1.22121 -0.0770061 -6.66013e-21)
(1.18045 -0.0692394 0)
(1.19993 -0.0668238 0)
(1.15711 -0.0605049 0)
(1.17709 -0.0579948 0)
(1.131 -0.0531308 6.66276e-23)
(1.15191 -0.0503598 -3.19956e-21)
(1.1012 -0.0471441 -9.35255e-25)
(1.12343 -0.0446182 -7.26968e-21)
(1.06737 -0.042384 1.79939e-21)
(1.09093 -0.0441806 2.13005e-20)
(1.05394 -0.051476 -1.39657e-20)
(0.755861 -0.567824 3.4027e-20)
(0.39724 -0.360164 -8.14113e-21)
(1.20405 -0.702658 1.0715e-19)
(1.00409 -0.639387 -4.87876e-20)
(1.39117 -0.678483 5.89206e-20)
(1.32564 -0.672886 5.01106e-20)
(1.46754 -0.604389 3.82088e-21)
(1.45863 -0.616087 -7.93503e-21)
(1.49555 -0.523632 -1.41223e-20)
(1.51193 -0.540745 -5.39384e-20)
(1.49619 -0.446788 -1.21233e-20)
(1.52673 -0.464926 1.5456e-20)
(1.47986 -0.377438 -2.02719e-22)
(1.51763 -0.393998 -8.00142e-21)
(1.45467 -0.317214 2.37298e-21)
(1.49443 -0.330755 -7.40132e-22)
(1.42637 -0.266396 -3.10968e-21)
(1.46473 -0.276448 5.91648e-21)
(1.39835 -0.22433 1.85105e-22)
(1.43356 -0.230995 1.45199e-21)
(1.37204 -0.189799 3.77885e-21)
(1.40365 -0.193532 -1.96654e-21)
(1.34766 -0.16142 -1.91147e-21)
(1.37595 -0.162809 8.44147e-22)
(1.32489 -0.137919 -2.49642e-21)
(1.35044 -0.137528 -3.28143e-21)
(1.30327 -0.11825 8.36227e-21)
(1.32668 -0.116553 1.74614e-21)
(1.28233 -0.1016 4.38145e-22)
(1.30416 -0.0989756 1.13989e-20)
(1.26166 -0.0873661 7.08177e-22)
(1.28238 -0.0841089 -5.51708e-21)
(1.24083 -0.0751232 4.56878e-22)
(1.26084 -0.0714654 1.3289e-20)
(1.21933 -0.0645985 -6.77709e-21)
(1.23904 -0.0607329 -3.36656e-20)
(1.1966 -0.0556582 0)
(1.21638 -0.051731 1.09869e-20)
(1.17187 -0.0482886 -3.17904e-21)
(1.19214 -0.0443076 1.18335e-20)
(1.14421 -0.0425522 -1.05107e-20)
(1.16544 -0.0383477 -1.12314e-20)
(1.11263 -0.0385261 1.0665e-20)
(1.13537 -0.0347004 -1.26571e-20)
(1.07627 -0.0363364 3.25705e-20)
(1.10133 -0.0366836 3.89961e-20)
(1.06209 -0.0440767 -2.7518e-20)
(0.639239 -0.442606 -8.13153e-20)
(0.306347 -0.311668 0)
(1.12964 -0.594896 -7.68352e-20)
(0.870005 -0.502887 -8.33125e-20)
(1.39152 -0.60655 -1.7621e-20)
(1.2823 -0.585094 3.99963e-21)
(1.50164 -0.553525 -6.4925e-20)
(1.47033 -0.554514 -1.72783e-20)
(1.54237 -0.483476 -2.50259e-20)
(1.54712 -0.491872 6.01895e-20)
(1.54783 -0.413449 2.09075e-20)
(1.57166 -0.423893 2.42372e-20)
(1.5321 -0.348591 -8.33978e-21)
(1.56669 -0.358809 8.04659e-21)
(1.50455 -0.291194 2.61665e-21)
(1.54372 -0.299591 7.73948e-22)
(1.47203 -0.242054 9.9802e-21)
(1.51149 -0.247965 -4.36699e-20)
(1.43898 -0.200973 -4.32266e-23)
(1.47613 -0.204267 1.97782e-20)
(1.40768 -0.167112 -4.63587e-21)
(1.44139 -0.168007 -7.03574e-21)
(1.37884 -0.139328 -5.51366e-22)
(1.40902 -0.138233 -1.33864e-21)
(1.35234 -0.11646 8.14248e-22)
(1.3794 -0.113829 2.19379e-21)
(1.32768 -0.0974998 4.70228e-21)
(1.35222 -0.0937424 -3.5927e-21)
(1.3043 -0.081652 5.48907e-21)
(1.32692 -0.0771053 8.1197e-21)
(1.28164 -0.0683361 6.89745e-21)
(1.30289 -0.0632627 7.73948e-21)
(1.25913 -0.0571636 -2.04926e-20)
(1.27948 -0.0517659 1.04959e-20)
(1.23615 -0.0479079 -1.62747e-20)
(1.25606 -0.0423468 -3.49004e-20)
(1.21199 -0.0404711 2.28148e-20)
(1.23192 -0.0348599 1.92487e-20)
(1.18583 -0.034846 3.03176e-21)
(1.20626 -0.0291685 7.91341e-21)
(1.15673 -0.0310768 -1.3455e-20)
(1.17817 -0.0251742 -8.11739e-21)
(1.12361 -0.0292472 1.21698e-20)
(1.14677 -0.0236805 -1.58825e-20)
(1.08531 -0.0295256 2.95257e-20)
(1.11149 -0.0276501 1.16319e-20)
(1.07068 -0.0362162 3.42388e-21)
(0.528684 -0.361371 0)
(0.246375 -0.296135 1.61272e-19)
(1.02053 -0.490907 0)
(0.72504 -0.392142 0)
(1.35695 -0.525446 0)
(1.19944 -0.490913 0)
(1.51365 -0.491813 1.07406e-19)
(1.45251 -0.48324 9.47668e-20)
(1.57542 -0.432911 1.10892e-19)
(1.564 -0.433442 7.93226e-20)
(1.59015 -0.370316 1.18164e-20)
(1.60414 -0.373377 -8.12975e-20)
(1.57824 -0.310927 1.74499e-20)
(1.6069 -0.314427 1.98626e-20)
(1.55077 -0.257512 -4.47748e-20)
(1.5871 -0.260197 5.65419e-21)
(1.51577 -0.211212 -3.63388e-20)
(1.5546 -0.212343 -3.64402e-20)
(1.47873 -0.172137 1.41012e-20)
(1.51665 -0.171474 3.16172e-20)
(1.4429 -0.139761 -3.41796e-21)
(1.47804 -0.137355 -3.38474e-21)
(1.40972 -0.113195 1.12669e-21)
(1.4414 -0.109284 8.66331e-21)
(1.3794 -0.0914425 -2.41394e-21)
(1.40776 -0.0863474 1.69888e-21)
(1.35157 -0.0735869 -6.14798e-23)
(1.3771 -0.0676231 -5.28311e-21)
(1.3256 -0.0588903 1.03261e-20)
(1.34891 -0.0523245 1.85004e-21)
(1.30082 -0.0468205 1.1238e-20)
(1.32249 -0.0398587 8.05768e-21)
(1.2765 -0.0370348 -3.71299e-21)
(1.29709 -0.029831 -3.61398e-21)
(1.25192 -0.0293412 1.69683e-23)
(1.27195 -0.0220145 -8.95939e-21)
(1.2263 -0.0236522 4.42293e-21)
(1.2463 -0.0162822 8.26178e-21)
(1.1988 -0.0199449 -3.94525e-21)
(1.21929 -0.0125004 -2.60842e-21)
(1.16845 -0.0182516 -1.05637e-20)
(1.19001 -0.010579 2.94404e-21)
(1.13413 -0.0186805 -2.79663e-20)
(1.15759 -0.0112347 -1.49125e-20)
(1.09447 -0.0214871 -3.15593e-20)
(1.12141 -0.0171061 9.75031e-21)
(1.07947 -0.0273798 7.25192e-22)
(0.431249 -0.313408 1.65138e-19)
(0.200394 -0.286642 -3.25095e-19)
(0.896287 -0.397188 0)
(0.591103 -0.31788 7.10041e-20)
(1.2884 -0.440378 9.30046e-20)
(1.08292 -0.398355 -1.22836e-19)
(1.49946 -0.42175 6.60422e-20)
(1.40156 -0.405291 -1.58849e-19)
(1.59113 -0.373415 -1.13815e-19)
(1.55811 -0.367097 -3.08247e-20)
(1.62027 -0.318087 -7.46595e-20)
(1.62106 -0.314468 1.52488e-19)
(1.61561 -0.264636 8.35494e-21)
(1.63546 -0.261532 -4.07354e-20)
(1.59101 -0.216065 1.58418e-20)
(1.62193 -0.212757 -7.73657e-21)
(1.55569 -0.173621 3.05634e-20)
(1.59178 -0.169504 4.73499e-20)
(1.5162 -0.137563 1.51633e-20)
(1.5533 -0.132418 5.94703e-20)
(1.47676 -0.107563 8.57828e-21)
(1.51224 -0.101375 0)
(1.43963 -0.0829463 1.00488e-20)
(1.47219 -0.0758336 -6.17244e-21)
(1.40561 -0.0628955 -6.41207e-22)
(1.43491 -0.0550515 5.84296e-21)
(1.37457 -0.0466218 -3.2196e-21)
(1.40088 -0.038251 -1.28458e-20)
(1.34591 -0.0334782 -3.21676e-22)
(1.36977 -0.024754 -7.24201e-21)
(1.31887 -0.0230016 -6.60543e-21)
(1.3409 -0.0140524 1.8052e-21)
(1.29265 -0.0148993 -8.5078e-21)
(1.31342 -0.00581679 -3.79186e-21)
(1.26643 -0.00900456 -7.35765e-22)
(1.28652 0.000139755 4.24747e-21)
(1.23942 -0.0052274 1.20362e-21)
(1.25937 0.00393343 -5.80559e-21)
(1.21074 -0.00352998 4.14463e-21)
(1.23115 0.00569535 4.05683e-21)
(1.17941 -0.00395316 -1.23291e-21)
(1.20092 0.00550494 -1.06002e-20)
(1.14424 -0.00666245 1.1311e-20)
(1.16777 0.00271322 5.77836e-21)
(1.10365 -0.0120503 3.62313e-20)
(1.13102 -0.00504697 3.60524e-21)
(1.08832 -0.0173043 5.85848e-21)
(0.34945 -0.285607 -4.25278e-19)
(0.157663 -0.276849 -1.21942e-19)
(0.768554 -0.322007 -4.47952e-20)
(0.47713 -0.273406 3.37714e-20)
(1.18891 -0.356917 -3.67836e-19)
(0.945149 -0.315066 -1.22836e-19)
(1.45552 -0.346109 -2.57745e-19)
(1.31659 -0.324684 1.0755e-20)
(1.5855 -0.306386 2.31254e-19)
(1.52489 -0.294726 -4.72243e-20)
(1.63512 -0.257842 1.86326e-19)
(1.61862 -0.248525 1.09155e-19)
(1.64144 -0.210348 -5.79402e-20)
(1.64939 -0.201169 -1.60368e-19)
(1.62272 -0.167089 2.38774e-20)
(1.6454 -0.157778 2.78138e-20)
(1.58959 -0.129256 7.48999e-20)
(1.62048 -0.119639 -6.37794e-20)
(1.54961 -0.0971056 4.43485e-20)
(1.58388 -0.0870887 -9.125e-20)
(1.50793 -0.0703667 -1.46901e-20)
(1.54226 -0.0599663 0)
(1.46769 -0.0484915 -1.09524e-20)
(1.50009 -0.0377803 -4.14072e-20)
(1.43036 -0.0308109 -5.77773e-21)
(1.45996 -0.0198926 3.79446e-20)
(1.39623 -0.0166696 -1.72029e-20)
(1.42295 -0.00564527 -2.14717e-20)
(1.36488 -0.00552863 -5.24513e-21)
(1.38908 0.00553053 8.98226e-21)
(1.33556 0.0029919 4.67093e-21)
(1.35779 0.0140489 5.18557e-22)
(1.3074 0.00912831 8.67901e-21)
(1.32825 0.0201659 3.69127e-21)
(1.27957 0.0130223 -9.36726e-22)
(1.29962 0.0240247 6.47919e-21)
(1.25125 0.0147646 -3.11502e-21)
(1.27107 0.0257264 -5.70274e-21)
(1.22159 0.0143951 -1.06152e-20)
(1.24179 0.0253913 3.80192e-21)
(1.18956 0.0118468 -2.44604e-21)
(1.21085 0.0230796 -1.53916e-20)
(1.15388 0.00686996 -1.91445e-21)
(1.17727 0.0181815 1.795e-21)
(1.11275 -0.00110106 -2.17511e-20)
(1.14022 0.00856295 -4.20459e-21)
(1.09714 -0.00580439 6.11834e-21)
(0.278181 -0.265965 3.3599e-19)
(0.112485 -0.264123 3.60423e-19)
(0.644134 -0.26565 -3.80125e-20)
(0.380778 -0.244665 3.85058e-20)
(1.06531 -0.279649 2.58821e-19)
(0.800244 -0.246584 -6.9227e-20)
(1.37999 -0.268457 2.14684e-19)
(1.20028 -0.24625 2.63725e-19)
(1.55425 -0.233871 -1.74003e-19)
(1.46052 -0.218859 -1.38428e-19)
(1.63105 -0.19096 -2.39141e-19)
(1.59241 -0.177192 -4.49057e-20)
(1.65268 -0.148923 -7.75062e-20)
(1.64534 -0.134512 -1.64223e-21)
(1.64304 -0.111068 -6.02027e-20)
(1.6545 -0.0961605 3.52676e-20)
(1.6149 -0.0783342 -2.3209e-19)
(1.63783 -0.0632863 -9.73353e-20)
(1.57679 -0.0508013 -1.37864e-19)
(1.60581 -0.0357635 -7.85249e-20)
(1.53471 -0.0281174 -2.63106e-20)
(1.56594 -0.0132281 7.98652e-20)
(1.49263 -0.00976647 6.63182e-21)
(1.52344 0.00487124 -7.75039e-21)
(1.45276 0.00483516 2.41163e-20)
(1.48168 0.0191428 -3.44195e-20)
(1.41596 0.0162409 4.55948e-21)
(1.44243 0.0301818 -1.00307e-20)
(1.38212 0.0248886 1.53603e-20)
(1.40624 0.0384803 -4.85909e-21)
(1.35061 0.0310709 -6.43367e-22)
(1.37278 0.0443697 3.25007e-20)
(1.32059 0.0349614 9.81424e-22)
(1.34135 0.0480325 -1.52696e-20)
(1.29124 0.0366685 1.75992e-21)
(1.31112 0.0495611 4.04333e-21)
(1.26176 0.0362724 1.15079e-21)
(1.28131 0.0490299 2.57407e-22)
(1.23131 0.0338 -8.51432e-22)
(1.25115 0.0465356 8.76623e-22)
(1.19884 0.0291452 -1.00906e-20)
(1.21972 0.0421106 -8.5206e-22)
(1.16296 0.0219524 -7.32526e-21)
(1.186 0.0351629 -7.06022e-21)
(1.12167 0.0114535 -5.77757e-21)
(1.14896 0.0237553 7.84068e-21)
(1.10586 0.00726987 -7.2163e-21)
(0.211031 -0.247076 7.39229e-20)
(0.0626406 -0.247765 -2.8373e-19)
(0.527647 -0.224002 7.26993e-21)
(0.294953 -0.221852 -3.09273e-19)
(0.927265 -0.212314 -7.05143e-20)
(0.659298 -0.194411 -3.55261e-19)
(1.27382 -0.192516 -8.96789e-20)
(1.0598 -0.174819 1.19403e-19)
(1.49359 -0.158351 1.98697e-21)
(1.36321 -0.14285 -2.99439e-19)
(1.60388 -0.119004 1.94378e-19)
(1.53794 -0.102664 7.67536e-20)
(1.64593 -0.0816065 1.13109e-19)
(1.61924 -0.0632104 1.00545e-19)
(1.64891 -0.0489344 1.42895e-21)
(1.6459 -0.0292489 3.72667e-20)
(1.62876 -0.0214669 5.95297e-20)
(1.64076 -0.00143875 -2.80376e-21)
(1.59521 0.00100575 1.37744e-19)
(1.61625 0.0208805 1.23118e-19)
(1.55498 0.0190381 1.01508e-19)
(1.58077 0.038456 7.98652e-20)
(1.51279 0.0331841 -4.73494e-20)
(1.54011 0.0519381 1.97958e-20)
(1.4716 0.0440258 -6.96232e-20)
(1.4984 0.0619696 -4.54083e-20)
(1.43292 0.0520807 -1.99307e-20)
(1.45814 0.0691745 3.62612e-20)
(1.39707 0.0577212 1.12935e-20)
(1.42042 0.0740362 -8.12833e-20)
(1.36367 0.0611652 1.86703e-20)
(1.38533 0.0768385 7.03045e-20)
(1.33202 0.0625226 -1.29402e-20)
(1.35237 0.0777019 -2.0773e-20)
(1.30133 0.0618579 1.97989e-21)
(1.32083 0.0766649 8.54304e-21)
(1.27086 0.0592255 -8.23008e-23)
(1.29 0.0737614 -1.28944e-20)
(1.23983 0.0546267 8.53742e-23)
(1.25917 0.0690515 2.54533e-21)
(1.20717 0.0479063 2.06094e-21)
(1.22749 0.0625313 -1.37629e-22)
(1.17141 0.0385927 1.15114e-21)
(1.19388 0.0536226 -3.94283e-21)
(1.13034 0.0256894 6.0874e-21)
(1.15715 0.0405371 2.79248e-21)
(1.1144 0.0220375 3.26607e-21)
(0.14391 -0.22712 -6.5826e-19)
(0.00816658 -0.228923 -4.26184e-20)
(0.419042 -0.19214 -6.73118e-19)
(0.213408 -0.200734 -3.10478e-19)
(0.783961 -0.157012 -1.7417e-19)
(0.527272 -0.155651 6.83812e-20)
(1.14162 -0.122119 -9.27622e-20)
(0.905347 -0.11385 3.13734e-19)
(1.40138 -0.0831693 -2.04983e-19)
(1.23471 -0.0709374 -2.08235e-19)
(1.54934 -0.0443506 -2.6719e-20)
(1.45173 -0.0280558 8.17784e-20)
(1.61728 -0.0101717 2.1511e-20)
(1.56671 0.0104419 6.68085e-20)
(1.63701 0.0179522 3.13488e-20)
(1.61582 0.04118 3.72667e-20)
(1.6281 0.0402838 5.87574e-20)
(1.62578 0.0646452 -7.4265e-20)
(1.60198 0.0575564 6.44293e-20)
(1.61208 0.0817587 7.56827e-20)
(1.56617 0.0706738 0)
(1.58408 0.0941646 5.46386e-20)
(1.52604 0.0801428 2.42826e-20)
(1.54766 0.102843 0)
(1.48523 0.0866404 6.06678e-20)
(1.50804 0.108241 2.45098e-20)
(1.44589 0.0907679 -2.28002e-20)
(1.4684 0.111116 6.15467e-20)
(1.40889 0.0928946 -2.5048e-20)
(1.4304 0.112047 -6.1185e-20)
(1.37421 0.0931952 3.15645e-20)
(1.39458 0.111331 5.05158e-20)
(1.34135 0.0917254 1.43457e-22)
(1.36076 0.10906 -2.99673e-20)
(1.30966 0.0885 -5.61404e-21)
(1.32842 0.105225 -1.31006e-22)
(1.27847 0.0835317 -1.03697e-20)
(1.29695 0.0998113 -2.3183e-21)
(1.24708 0.0767899 2.18233e-21)
(1.26575 0.0928328 1.2316e-20)
(1.2145 0.0680662 -6.00224e-21)
(1.23408 0.0842412 -7.615e-21)
(1.17916 0.0567724 -9.92516e-21)
(1.20087 0.0734912 -6.34125e-21)
(1.13868 0.0416569 3.49304e-22)
(1.16476 0.058885 3.54341e-21)
(1.12273 0.0385795 -2.47345e-21)
(0.0753151 -0.206484 3.11228e-19)
(-0.0497977 -0.209189 -8.32884e-20)
(0.316041 -0.165837 4.20384e-19)
(0.132612 -0.180205 6.09145e-19)
(0.641566 -0.113133 5.51075e-19)
(0.403893 -0.125641 2.08512e-19)
(0.990733 -0.0605612 1.9758e-19)
(0.746733 -0.0646564 -1.28597e-19)
(1.27828 -0.0123006 8.94489e-20)
(1.08094 -0.00739435 -1.08326e-19)
(1.46401 0.0298138 1.79652e-19)
(1.33268 0.0428303 1.90891e-19)
(1.56249 0.0630669 7.89398e-20)
(1.48385 0.0833545 -6.46942e-20)
(1.60341 0.0878901 -7.12893e-20)
(1.56024 0.112791 7.54452e-21)
(1.60943 0.105695 -6.17572e-20)
(1.58933 0.132874 -1.51413e-19)
(1.59437 0.117671 6.48495e-20)
(1.58885 0.145871 9.00474e-20)
(1.56578 0.125705 5.51749e-20)
(1.57269 0.15263 -5.48225e-20)
(1.52989 0.130392 0)
(1.54386 0.156418 -4.5921e-20)
(1.49151 0.132221 2.50634e-20)
(1.50833 0.157104 0)
(1.4532 0.13201 2.54963e-20)
(1.47125 0.155429 6.1575e-22)
(1.41633 0.130208 1.208e-20)
(1.43458 0.152121 -2.17212e-20)
(1.38134 0.127004 -1.02035e-20)
(1.3993 0.14757 2.43109e-20)
(1.34802 0.122432 -3.01121e-20)
(1.36562 0.14189 -5.09049e-20)
(1.31588 0.116463 3.71419e-21)
(1.33327 0.135056 -1.64263e-20)
(1.2844 0.109065 2.05499e-20)
(1.30179 0.127015 9.23889e-21)
(1.25298 0.100169 3.72269e-21)
(1.27069 0.117727 -5.43494e-21)
(1.22075 0.089521 -8.11893e-21)
(1.23937 0.107102 8.94383e-21)
(1.18615 0.0764288 -7.55204e-22)
(1.20688 0.0946434 -5.39518e-21)
(1.14666 0.0593653 6.3077e-22)
(1.17174 0.0787287 5.82604e-21)
(1.13082 0.0569203 0)
(0.0052001 -0.186041 1.90781e-19)
(-0.109663 -0.189835 -3.66296e-19)
(0.216379 -0.142548 4.01128e-19)
(0.0515155 -0.160475 3.818e-19)
(0.50318 -0.0784033 -4.635e-19)
(0.286935 -0.100947 2.13079e-19)
(0.829588 -0.0101656 -4.3448e-19)
(0.59067 -0.0268207 -4.53178e-19)
(1.12834 0.0505276 -1.67084e-21)
(0.911122 0.0448521 1.13791e-20)
(1.34662 0.0995977 -3.91922e-20)
(1.1832 0.105833 2.9429e-19)
(1.47794 0.134862 -1.23202e-19)
(1.36851 0.15154 -7.88234e-20)
(1.54444 0.158321 -7.20547e-20)
(1.47549 0.182224 -1.2622e-19)
(1.5683 0.172649 -3.22686e-21)
(1.52828 0.200758 -5.61239e-20)
(1.56708 0.180196 -2.96823e-20)
(1.54434 0.210148 9.3688e-20)
(1.55082 0.182893 -1.57607e-19)
(1.54084 0.212126 6.78206e-20)
(1.52256 0.1827 -4.63467e-20)
(1.52457 0.21165 -5.30266e-20)
(1.48844 0.17987 -2.51847e-20)
(1.49697 0.207767 0)
(1.45299 0.175169 -4.71597e-20)
(1.46449 0.20137 -2.1398e-21)
(1.41785 0.169214 -9.8558e-21)
(1.43104 0.193665 -9.2334e-20)
(1.38384 0.162267 -1.41775e-20)
(1.3979 0.1851 6.80513e-20)
(1.3511 0.154387 -3.74691e-20)
(1.36567 0.175833 -4.16492e-20)
(1.31937 0.145534 -1.11361e-20)
(1.3344 0.165862 -1.90672e-20)
(1.28827 0.135637 -1.65894e-20)
(1.30381 0.155115 2.39539e-20)
(1.25731 0.12459 -8.40618e-22)
(1.27354 0.143507 -2.33445e-22)
(1.2258 0.112114 1.18557e-20)
(1.24313 0.130912 -3.72379e-21)
(1.19234 0.0974416 3.74311e-21)
(1.21178 0.11688 -3.9245e-21)
(1.15425 0.0787648 5.3284e-21)
(1.17804 0.0999223 5.29794e-21)
(1.13869 0.0770108 -2.16409e-22)
(-0.0655247 -0.166685 -1.96377e-19)
(-0.169763 -0.171732 2.35707e-19)
(0.118971 -0.121616 1.96139e-19)
(-0.0292722 -0.14228 -1.55579e-19)
(0.369755 -0.0510128 2.37631e-19)
(0.174896 -0.0803639 4.25802e-19)
(0.665785 0.0286992 -1.50875e-20)
(0.440478 0.00120034 -1.30607e-19)
(0.959073 0.102346 3.21444e-19)
(0.735207 0.0845977 -2.20051e-19)
(1.19887 0.160768 2.49927e-19)
(1.01011 0.157008 2.96422e-19)
(1.36162 0.201033 -8.06993e-20)
(1.22137 0.21057 6.38094e-20)
(1.45675 0.225499 -1.03447e-19)
(1.35911 0.245217 -1.31538e-19)
(1.50357 0.237867 3.7553e-20)
(1.43849 0.264292 -1.75523e-19)
(1.51802 0.241788 1.9159e-19)
(1.47652 0.271641 2.88942e-20)
(1.5146 0.240804 1.74363e-19)
(1.48782 0.270847 2.50129e-19)
(1.49924 0.23634 -6.57701e-21)
(1.4846 0.266104 8.42822e-20)
(1.47329 0.228893 2.30636e-20)
(1.46933 0.25872 -8.59132e-20)
(1.44293 0.219516 -4.40272e-20)
(1.44494 0.247915 8.38053e-20)