/*--------------------------------*- C++ -*----------------------------------*\
  =========                 |
  \\      /  F ield         | OpenFOAM: The Open Source CFD Toolbox
   \\    /   O peration     | Website:  https://openfoam.org
    \\  /    A nd           | Version:  11
     \\/     M anipulation  |
\*---------------------------------------------------------------------------*/
FoamFile
{
    format      ascii;
    class       volScalarField;
    location    "1";
    object      epsilon;
}
// * * * * * * * * * * * * * * * * * * * * * * * * * * * * * * * * * * * * * //

dimensions      [0 2 -3 0 0 0 0];

internalField   nonuniform List<scalar> 
2880
(
2.58901
3.82539
5.67044
5.16069
4.22029
3.36199
1.01127
2.79064
3.39789
2.77895
1.94242
1.09007
0.273031
2.39326
2.54885
1.85968
1.20005
0.662278
1.35583
2.23367
2.13748
1.46326
0.92939
0.546016
1.78026
2.12374
1.88805
1.26979
0.820647
0.514971
2.16155
2.03278
1.72908
1.17576
0.784245
0.518828
2.48474
1.95476
1.62901
1.13836
0.787385
0.544074
2.7462
1.90071
1.57063
1.1376
0.816437
0.586428
2.94743
1.86763
1.54376
1.16106
0.867481
0.644298
3.092
1.85184
1.54253
1.2071
0.937296
0.718471
3.18379
1.85085
1.55986
1.27135
1.0256
0.810987
3.22572
1.8638
1.59749
1.3526
1.1332
0.924855
3.22429
1.89174
1.65181
1.45028
1.2615
1.0639
3.20791
1.93933
1.7213
1.56392
1.41202
1.23258
3.16886
2.00137
1.8038
1.69242
1.5858
1.4357
3.09925
2.0706
1.89594
1.83339
1.78241
1.67752
2.99092
2.13693
1.99279
1.98239
1.99858
1.95999
2.83468
2.1866
2.08821
2.13101
2.23201
2.28574
2.61929
2.20183
2.17246
2.27322
2.47216
2.66566
2.33064
2.17738
2.23334
2.41068
2.70947
3.1137
1.95581
2.09505
2.28739
2.55455
2.9452
3.68292
1.4925
1.98281
2.39826
2.76768
3.24925
4.6054
1.09676
2.07545
2.82149
3.32247
3.88582
6.62501
3.00437
3.88913
5.33756
5.9525
6.14706
6.19826
0.411733
0.14047
0.0684927
0.0375482
0.0218997
0.0132143
0.00815506
0.00513768
0.00331041
0.00219111
0.00149909
0.0010681
0.000798735
0.000630714
0.000526835
0.000463552
0.000425624
0.000403169
0.000390013
0.000382416
0.000378211
0.000376137
0.00037526
0.000375004
0.329217
0.140553
0.0719355
0.0398735
0.0232744
0.0139974
0.00860558
0.00540093
0.00346665
0.00228514
0.00155635
0.00110336
0.000820602
0.000644254
0.000535112
0.000468504
0.000428527
0.000404877
0.000391043
0.000383067
0.000378618
0.000376388
0.000375403
0.000375056
0.295323
0.144211
0.0766871
0.0429792
0.0250728
0.0150292
0.0092074
0.00575886
0.00368349
0.00241881
0.00164012
0.00115666
0.000854915
0.000666475
0.000549488
0.000477758
0.000434474
0.000408736
0.000393602
0.000384798
0.000379769
0.000377076
0.000375784
0.000375222
0.288356
0.152022
0.083008
0.0469098
0.0273373
0.0163395
0.00998062
0.00622478
0.00396982
0.00259808
0.00175439
0.00123073
0.0009036
0.00069878
0.000571006
0.000492088
0.000444024
0.000415148
0.000397967
0.000387798
0.000381794
0.000378314
0.000376498
0.000375614
0.296543
0.16415
0.0912185
0.0517736
0.0301397
0.0179736
0.010954
0.00681721
0.00433778
0.00283105
0.00190464
0.00132934
0.000969321
0.000743095
0.000601088
0.000512556
0.000457975
0.000424708
0.000404583
0.000392398
0.000384932
0.000380356
0.000377751
0.000376352
0.31696
0.180633
0.101521
0.057765
0.0335942
0.0199983
0.0121679
0.0075615
0.00480374
0.00312856
0.0020982
0.00145755
0.00105564
0.000801986
0.000641623
0.000540583
0.000477403
0.000438234
0.000414071
0.000399086
0.000389586
0.000383476
0.000379737
0.000377582
0.34685
0.201851
0.114392
0.0651848
0.0378685
0.0225082
0.013678
0.0084918
0.00538949
0.00350494
0.00234477
0.00162207
0.00116729
0.000878866
0.000695132
0.000578073
0.000503771
0.000456858
0.000427315
0.00040855
0.000396272
0.000388016
0.000382617
0.000379402
0.386344
0.228788
0.130564
0.0744633
0.0431982
0.0256342
0.0155598
0.00965379
0.00612387
0.00397909
0.00265708
0.00183173
0.00131055
0.000978294
0.000765013
0.000627621
0.000539099
0.000482162
0.000445529
0.000421683
0.000405599
0.000394383
0.000386819
0.000382104
0.436819
0.26298
0.151083
0.0862021
0.0499108
0.0295558
0.0179157
0.0111085
0.007045
0.00457581
0.00305188
0.00209815
0.0014937
0.00110633
0.000855805
0.000692707
0.000586103
0.00051627
0.000470359
0.000439735
0.000418508
0.000403312
0.000392869
0.000386041
0.500612
0.30659
0.177405
0.101242
0.058463
0.034521
0.0208847
0.0129377
0.00820337
0.0053277
0.00355104
0.00243652
0.00172759
0.00127092
0.000973467
0.00077789
0.000648331
0.000561976
0.000504003
0.000464416
0.000436303
0.000415745
0.000401386
0.00039155
0.581005
0.362569
0.211553
0.120765
0.0694978
0.0408759
0.0246582
0.0152521
0.00966624
0.0062777
0.00418319
0.00286664
0.00202635
0.00148243
0.00112575
0.000889102
0.000730404
0.000622937
0.000549373
0.000498023
0.000460734
0.000432919
0.000413162
0.000399044
0.682316
0.434894
0.256339
0.146451
0.0839317
0.0491094
0.0295024
0.0182029
0.011524
0.00748269
0.00498582
0.00341427
0.00240831
0.00175426
0.00132274
0.00103407
0.000838366
0.000703953
0.000610318
0.000543623
0.000494164
0.000456524
0.00042928
0.000409051
0.810052
0.528854
0.315667
0.180696
0.103085
0.0599227
0.0357936
0.0219998
0.0138997
0.00901868
0.00600837
0.00411306
0.00289727
0.00210382
0.0015775
0.00122284
0.000980096
0.000811312
0.000691907
0.000605293
0.00053978
0.000488884
0.000451233
0.000422265
0.971034
0.65137
0.394897
0.226914
0.128876
0.0743339
0.0440714
0.0269382
0.0169629
0.0109885
0.00731654
0.00500709
0.00352413
0.00255358
0.0019069
0.00146842
0.00116584
0.000953217
0.000800784
0.00068841
0.000601842
0.000533164
0.000481088
0.000439616
1.17348
0.811285
0.501261
0.289933
0.164094
0.0938353
0.0551207
0.0334404
0.0209511
0.013533
0.00899867
0.00615469
0.00432925
0.00313268
0.00233272
0.00178758
0.00140883
0.00114032
0.000945615
0.000800041
0.000686005
0.000593636
0.000521685
0.00046236
1.42715
1.01948
0.644183
0.376432
0.212762
0.120623
0.0700967
0.0421201
0.0262028
0.0168488
0.0111753
0.00763392
0.00536581
0.003879
0.00288308
0.0022019
0.00172611
0.00138636
0.00113766
0.000949437
0.00079975
0.000676034
0.000576894
0.000492175
1.74359
1.28893
0.835328
0.495293
0.280571
0.157913
0.0907098
0.0538806
0.0332088
0.0212149
0.0140139
0.00955091
0.00670471
0.00484229
0.00359442
0.00273916
0.00213955
0.00170902
0.00139146
0.00114865
0.00095295
0.000788041
0.000651974
0.000531263
2.12784
1.63571
1.08826
0.657644
0.375261
0.210334
0.119489
0.0700633
0.0426899
0.0270342
0.0177513
0.0120527
0.00844225
0.00608887
0.0045146
0.00343537
0.00267727
0.00213097
0.00172573
0.00141334
0.00115862
0.000939997
0.000754109
0.000582441
2.58151
2.07506
1.41678
0.876148
0.506713
0.284318
0.160124
0.0926625
0.055718
0.0348986
0.0227294
0.0153474
0.010712
0.00770901
0.00570767
0.00433802
0.00337593
0.00268151
0.00216462
0.00176384
0.00143397
0.00114596
0.00089332
0.000649274
3.11801
2.61677
1.8314
1.16284
0.686218
0.388234
0.217821
0.124611
0.0738901
0.045687
0.0294497
0.0197351
0.0137033
0.00982864
0.00726162
0.0055115
0.00428467
0.0033996
0.00274001
0.00222697
0.00180203
0.00142547
0.00108415
0.000736419
3.78385
3.26391
2.33533
1.5254
0.924377
0.53183
0.299486
0.170098
0.0995671
0.0607111
0.038657
0.0256569
0.0176908
0.0126281
0.00930115
0.00704643
0.00547239
0.00433975
0.00349653
0.00284031
0.00229535
0.00180716
0.00134948
0.000850887
4.69477
4.03665
2.92467
1.96337
1.22752
0.724418
0.413351
0.234769
0.136147
0.0819141
0.051463
0.0337682
0.0230792
0.0163708
0.0120079
0.00907521
0.00704097
0.00558426
0.00450342
0.00366395
0.00296764
0.00234063
0.00173258
0.00101046
6.36091
4.96628
3.60074
2.47003
1.59511
0.972075
0.567638
0.325529
0.188271
0.112107
0.0695151
0.0450456
0.0304692
0.021446
0.0156496
0.0117947
0.0091456
0.00726444
0.00587947
0.00481212
0.00393453
0.00314657
0.00235701
0.00135315
9.4627
6.74829
4.49233
3.0597
2.02521
1.27661
0.768756
0.449731
0.261784
0.155174
0.0952009
0.0609315
0.0407498
0.0284254
0.0206154
0.0154887
0.0120104
0.00957496
0.00781391
0.00649324
0.00545448
0.00459089
0.00390117
0.00367154
2.59357
3.63703
4.36265
4.20222
3.4076
3.0544
1.03168
1.71509
2.16256
2.23403
2.05299
2.32202
0.269163
1.47262
1.81466
1.86508
1.81912
2.06294
1.29649
1.53844
1.75111
1.78757
1.77769
1.98171
1.6804
1.63862
1.76076
1.79071
1.8038
1.97756
1.99703
1.72921
1.7993
1.82875
1.86004
2.01901
2.25521
1.79997
1.84217
1.87756
1.92571
2.08026
2.46384
1.84984
1.88073
1.92626
1.9897
2.14474
2.62926
1.88067
1.91268
1.96987
2.04578
2.20188
2.75605
1.89732
1.93843
2.00651
2.09033
2.24494
2.8489
1.90554
1.95942
2.03614
2.12169
2.2687
2.90968
1.90944
1.97741
2.06004
2.14074
2.27278
2.9211
1.90854
1.99438
2.08048
2.15037
2.26126
2.8857
1.90267
2.01267
2.10052
2.15469
2.23702
2.79742
1.89282
2.03484
2.1238
2.1591
2.20571
2.65681
1.88016
2.06308
2.15522
2.17023
2.17406
2.46535
1.86552
2.09899
2.20108
2.19667
2.15121
2.22626
1.84896
2.14538
2.26944
2.25195
2.14364
1.9408
1.83072
2.20547
2.36981
2.3538
2.16542
1.61315
1.81229
2.28213
2.51755
2.5273
2.25763
1.25364
1.79815
2.37847
2.74224
2.82366
2.50062
0.264575
1.80308
2.51847
3.09986
3.35033
3.09675
1.01246
1.99539
2.85199
3.75808
4.38623
4.76144
2.43975
3.3086
4.40327
5.60455
6.23451
6.15275
8.73866
7.32724
5.21244
3.64747
2.49052
1.62969
1.01833
0.613495
0.363176
0.216112
0.131843
0.0835086
0.0552164
0.0381325
0.0274496
0.0205349
0.0159152
0.0127439
0.0105233
0.00895682
0.00786574
0.00715861
0.00689316
0.00731011
7.04493
7.01125
5.77176
4.17981
2.95521
2.01373
1.31137
0.819679
0.498409
0.300699
0.183782
0.115677
0.075719
0.0517397
0.036905
0.0274272
0.0211919
0.0170006
0.0141675
0.0123001
0.0111746
0.0106844
0.010846
0.0116709
4.81247
6.59637
5.88418
4.52756
3.35629
2.39383
1.63228
1.06494
0.670871
0.414528
0.256158
0.161256
0.104832
0.0709153
0.050055
0.036864
0.0283057
0.0226657
0.0189729
0.0166745
0.0154484
0.0151168
0.0155786
0.016712
3.45956
6.25683
5.84726
4.75566
3.67216
2.74025
1.95965
1.33927
0.879529
0.561491
0.354216
0.224867
0.145974
0.0979901
0.0684375
0.0498546
0.0379261
0.0301898
0.0252434
0.0222769
0.0207999
0.0205146
0.0211722
0.0225581
2.94032
5.65681
5.71794
4.97043
3.91767
3.0335
2.26866
1.62557
1.11697
0.741645
0.48188
0.311329
0.203319
0.136074
0.0942105
0.0678528
0.0510247
0.0402212
0.0334066
0.0293804
0.027396
0.0269874
0.027739
0.0293287
2.72163
4.87976
5.63542
5.1346
4.10072
3.26305
2.53854
1.90329
1.36975
0.949729
0.639975
0.42448
0.281306
0.188992
0.130261
0.0929022
0.0690037
0.0537057
0.0440903
0.0383939
0.0355005
0.0347102
0.0354286
0.0371527
2.62515
4.22027
5.48997
5.24033
4.34023
3.46141
2.76232
2.15288
1.61946
1.17405
0.824163
0.565279
0.383466
0.260796
0.180127
0.127726
0.093827
0.0720073
0.0582184
0.0499309
0.045515
0.043946
0.0444489
0.046189
2.58722
3.76799
5.19854
5.25419
4.65532
3.67879
2.95582
2.36641
1.84937
1.39915
1.02472
0.730237
0.510809
0.354711
0.247524
0.17563
0.128094
0.0970319
0.0771265
0.0648974
0.05804
0.0550799
0.0550894
0.0566451
2.57778
3.48724
4.78971
5.23514
4.9017
3.97444
3.15595
2.551
2.04954
1.60943
1.22777
0.910655
0.660139
0.471548
0.335317
0.240024
0.174922
0.131287
0.102682
0.0846106
0.0739773
0.0687242
0.067599
0.0688714
2.57735
3.30956
4.39998
5.12311
5.02229
4.34907
3.41717
2.73885
2.22584
1.79592
1.41955
1.09424
0.823572
0.60821
0.444015
0.323387
0.237431
0.177734
0.137328
0.110906
0.0946128
0.0857176
0.0825449
0.0832319
2.56896
3.18416
4.08512
4.89304
5.02705
4.67133
3.77163
2.97387
2.40219
1.96238
1.592
1.269
0.990239
0.757443
0.570429
0.425791
0.317648
0.239183
0.183872
0.146174
0.121748
0.107318
0.10074
0.100255
2.5432
3.07716
3.83632
4.61446
4.96981
4.82239
4.17942
3.29899
2.62354
2.13272
1.75055
1.42895
1.14976
0.909675
0.708005
0.544087
0.415312
0.317289
0.244889
0.193137
0.157744
0.135325
0.123487
0.120624
2.49775
2.96856
3.6259
4.34088
4.82965
4.85063
4.50844
3.69793
2.93011
2.34956
1.91976
1.58256
1.30005
1.05633
0.847989
0.672204
0.52735
0.411598
0.321811
0.254268
0.20535
0.17209
0.152441
0.14548
2.43433
2.84884
3.42963
4.08161
4.61769
4.81171
4.66041
4.10376
3.32709
2.65781
2.14544
1.75905
1.45462
1.2019
0.986292
0.80283
0.647771
0.518615
0.413684
0.330663
0.266984
0.220415
0.189927
0.176365
2.3572
2.71542
3.23197
3.82725
4.36978
4.69205
4.68778
4.39425
3.74561
3.06052
2.4716
2.00823
1.64993
1.36585
1.13341
0.938768
0.773919
0.634432
0.517563
0.421262
0.343591
0.282883
0.238864
0.215391
2.2721
2.56994
3.02562
3.56689
4.09455
4.48484
4.62531
4.50635
4.09649
3.49526
2.89437
2.36779
1.93734
1.59446
1.32094
1.09927
0.916259
0.76302
0.63399
0.525607
0.435355
0.36131
0.302657
0.265489
2.18577
2.41665
2.80973
3.29442
3.79167
4.20912
4.45527
4.47303
4.28103
3.8519
3.33209
2.80958
2.33514
1.9307
1.59774
1.32728
1.10728
0.926698
0.776997
0.651959
0.547184
0.459482
0.386269
0.331649
2.10587
2.26142
2.5882
3.01056
3.4625
3.87491
4.17545
4.30999
4.26214
4.03661
3.66067
3.2224
2.77371
2.35177
1.97713
1.65652
1.38782
1.16472
0.979885
0.826376
0.698427
0.591298
0.501321
0.424723
2.03883
2.1114
2.36853
2.72301
3.11541
3.49424
3.8072
4.00496
4.06557
3.98909
3.77764
3.46885
3.1112
2.73839
2.37679
2.0432
1.74591
1.4871
1.2652
1.07659
0.917179
0.78213
0.669732
0.565588
1.98903
1.97479
2.16062
2.44544
2.76837
3.09098
3.37631
3.59051
3.70619
3.72114
3.63785
3.45934
3.21775
2.93883
2.64437
2.3516
2.07256
1.81489
1.58246
1.37591
1.19467
1.03571
0.901502
0.771708
1.96475
1.85952
1.97485
2.19488
2.44697
2.70073
2.93131
3.11689
3.2376
3.28984
3.27242
3.18822
3.04595
2.86428
2.65722
2.4377
2.2164
2.0012
1.79785
1.60995
1.4387
1.28367
1.1491
1.01782
1.98003
1.76569
1.81993
1.98774
2.17838
2.36511
2.53093
2.6626
2.74931
2.78991
2.78735
2.73997
2.6548
2.54069
2.40589
2.25795
2.10337
1.94746
1.79415
1.64659
1.50798
1.38012
1.26756
1.16906
2.05874
1.69201
1.70146
1.83571
1.98556
2.1249
2.23646
2.31063
2.34728
2.35293
2.32573
2.27107
2.19566
2.10554
2.00584
1.90077
1.7938
1.6878
1.58506
1.48726
1.3956
1.3111
1.23617
1.17344
2.15155
1.62865
1.62173
1.74922
1.88808
2.01222
2.10026
2.14461
2.15625
2.12965
2.07125
1.99075
1.89645
1.79513
1.69195
1.59065
1.49382
1.40319
1.31995
1.24504
1.17925
1.12354
1.0792
1.04651
1.89143
3.01892
6.05567
6.83792
6.62685
6.22837
0.823641
2.32499
3.56555
3.82758
3.62317
3.14985
0.233006
2.02468
2.63368
2.68296
2.43382
2.05119
0.260637
1.82796
2.1802
2.13091
1.89649
1.63468
0.280798
1.67884
1.89596
1.80592
1.61149
1.45196
1.2853
1.56526
1.69291
1.5933
1.44257
1.35502
1.40694
1.45995
1.53746
1.4427
1.33408
1.28857
1.50255
1.36945
1.41345
1.32938
1.2547
1.23464
1.56984
1.29217
1.31144
1.2392
1.18849
1.18559
1.60986
1.22553
1.22547
1.1637
1.12783
1.13738
1.62214
1.16795
1.15152
1.09719
1.07024
1.0884
1.61315
1.1187
1.08715
1.03652
1.01492
1.03942
1.58491
1.07893
1.03065
0.980143
0.96179
0.992518
1.54626
1.04865
0.980834
0.927339
0.911263
0.950993
1.49531
1.02466
0.936464
0.87775
0.864257
0.918697
1.43054
1.00189
0.895833
0.83116
0.821798
0.900194
1.34898
0.970576
0.856298
0.78746
0.784493
0.900622
1.22735
0.910891
0.814209
0.747106
0.752569
0.924259
0.278867
0.780553
0.766728
0.711837
0.727517
0.979409
0.268238
0.685804
0.723278
0.684688
0.711857
1.07083
0.252586
0.633357
0.701801
0.674287
0.711984
1.1789
0.231543
0.65163
0.726155
0.702051
0.739784
1.28666
0.874281
0.880794
0.894111
0.858811
0.853657
1.49804
2.20406
2.1266
1.92812
1.74571
1.4594
1.55344
1.95663
1.56012
1.5794
1.71628
1.8615
1.99142
2.0805
2.12177
2.12878
2.09214
2.02202
1.92988
1.8252
1.71548
1.60619
1.50106
1.40248
1.31185
1.22983
1.15675
1.09288
1.03873
0.995235
0.962461
1.69494
1.4985
1.56607
1.72365
1.89744
2.0597
2.18062
2.24285
2.26055
2.22748
2.15268
2.05109
1.9349
1.81332
1.6928
1.57749
1.4699
1.37134
1.28233
1.20286
1.1328
1.07235
1.02193
0.981578
1.52925
1.46141
1.5769
1.76968
1.9912
2.20882
2.38641
2.49221
2.53388
2.521
2.45195
2.3481
2.2256
2.09583
1.96635
1.84184
1.72496
1.617
1.51835
1.42897
1.34865
1.27722
1.2138
1.15883
1.43516
1.44695
1.60474
1.83985
2.12157
2.40859
2.64668
2.79476
2.85241
2.81785
2.72308
2.59785
2.45891
2.31743
2.18048
2.05202
1.93386
1.82647
1.72949
1.64225
1.56397
1.49386
1.42963
1.36646
1.37687
1.44793
1.63932
1.91886
2.26567
2.62153
2.89406
3.02046
3.0087
2.92426
2.80348
2.66023
2.50888
2.35957
2.21834
2.08829
1.97045
1.86459
1.76983
1.68502
1.60916
1.5414
1.48035
1.41388
1.33936
1.45236
1.67227
1.99685
2.41224
2.82467
3.06542
3.10543
3.02158
2.85856
2.66437
2.4678
2.28246
2.11502
1.96768
1.84006
1.73017
1.6354
1.55316
1.48079
1.41687
1.35886
1.31165
1.24964
1.31157
1.45361
1.70004
2.07729
2.57891
3.01668
3.20094
3.09649
2.8023
2.46072
2.15191
1.88552
1.66186
1.47432
1.32199
1.20002
1.10204
1.02246
0.957048
0.90116
0.854451
0.807834
0.77819
0.725699
1.28474
1.44843
1.72556
2.18174
2.80901
3.25976
3.26918
2.93202
2.37606
1.90979
1.54284
1.25062
1.0179
0.83988
0.702481
0.595918
0.513192
0.448545
0.397583
0.356485
0.323739
0.294036
0.274229
0.24553
1.25404
1.43705
1.75858
2.3518
3.1552
3.52787
3.3033
2.63113
1.97976
1.51441
1.17369
0.917222
0.720855
0.567562
0.448773
0.357595
0.28843
0.236247
0.19661
0.166065
0.142599
0.123664
0.109952
0.0960537
1.21864
1.42432
1.81984
2.65455
3.62851
3.74092
3.21669
2.29941
1.68951
1.27917
0.984138
0.757474
0.579061
0.440187
0.33361
0.253106
0.193287
0.149543
0.117995
0.0950358
0.078091
0.0655013
0.0564825
0.0501894
1.18114
1.4229
1.95547
3.176
4.10982
3.85084
2.89478
2.01609
1.46823
1.09094
0.814616
0.605188
0.447347
0.330815
0.245921
0.184209
0.139065
0.105832
0.0813853
0.0635518
0.0507074
0.041795
0.0362809
0.0338296
1.14747
1.45636
2.24382
3.94917
4.43067
3.82582
2.54909
1.75825
1.25644
0.902313
0.645043
0.456494
0.322157
0.228807
0.164742
0.120895
0.0907008
0.0696002
0.0545734
0.043721
0.0358787
0.0304867
0.0274023
0.0267977
1.12707
1.56483
2.83018
4.75355
4.55517
3.38558
2.19891
1.50722
1.04756
0.72731
0.50088
0.343851
0.237407
0.165819
0.117611
0.084993
0.0628319
0.0477513
0.0375119
0.0306393
0.0262019
0.0236454
0.0227407
0.0231987
1.1321
1.80113
3.85235
5.12709
4.47871
2.89852
1.88383
1.26729
0.853743
0.570718
0.380751
0.256611
0.175959
0.123186
0.0881558
0.064515
0.0483391
0.037209
0.0296243
0.0246373
0.0216344
0.0202077
0.0201607
0.0209721
1.17916
2.24742
5.08814
5.21321
3.97098
2.44057
1.58558
1.03851
0.674338
0.436303
0.285268
0.189959
0.129398
0.0904096
0.0649145
0.0479788
0.036581
0.0288702
0.023719
0.0204452
0.0186259
0.0180021
0.0183129
0.0193717
1.29804
3.07696
5.7245
5.14326
3.33039
2.08028
1.32122
0.830984
0.520482
0.330158
0.214031
0.142367
0.097292
0.0683509
0.0494186
0.0368537
0.0284527
0.0228635
0.0192505
0.0170969
0.0160722
0.015974
0.0165249
0.0176974
1.51741
4.43446
5.86449
4.67504
2.82741
1.74561
1.06658
0.647449
0.39757
0.249852
0.161659
0.107888
0.07427
0.0527224
0.0386069
0.0292106
0.0229169
0.0187474
0.0161021
0.0146076
0.0140189
0.014144
0.0148289
0.0159525
1.8625
5.83512
5.77578
4.11239
2.45145
1.44786
0.846425
0.499399
0.302226
0.18921
0.122766
0.0824623
0.0572603
0.0410732
0.030446
0.0233625
0.0186214
0.0154976
0.0135498
0.0125043
0.0121819
0.0124122
0.013136
0.0141673
2.42104
6.53693
5.72429
3.54033
2.03945
1.15509
0.654794
0.38037
0.229478
0.144207
0.094215
0.0638204
0.0447348
0.0324205
0.024302
0.0188737
0.0152366
0.0128477
0.011377
0.0106209
0.0104462
0.0107144
0.0114078
0.0123369
3.41124
6.7609
5.38576
3.09296
1.69748
0.915224
0.503957
0.290037
0.175275
0.110831
0.0729815
0.0498658
0.0352782
0.0258191
0.0195526
0.0153427
0.01251
0.0106439
0.00949608
0.00891527
0.00880289
0.00905742
0.00967556
0.0104991
5.00604
6.82536
5.00764
2.64172
1.34462
0.698134
0.381433
0.22069
0.134524
0.0858104
0.0569821
0.0392588
0.0280101
0.0206781
0.0157958
0.0124973
0.0102624
0.00877613
0.00784927
0.00736839
0.00726224
0.00746549
0.00798034
0.00869844
7.45912
7.29343
4.47477
2.12525
1.03209
0.529422
0.290294
0.169319
0.104105
0.0669541
0.0448073
0.0311029
0.0223548
0.0166225
0.0127847
0.0101751
0.00839013
0.00718426
0.00640972
0.00597939
0.00584189
0.00596317
0.00635166
0.00696169
9.6066
7.60309
3.53521
1.61344
0.771407
0.397764
0.220813
0.1304
0.0810239
0.0525682
0.0354452
0.0247698
0.0179127
0.0133943
0.0103519
0.00826835
0.00682702
0.0058328
0.00516651
0.00475723
0.00456441
0.0045746
0.00480739
0.00529393
12.271
7.07244
2.81304
1.19723
0.569936
0.298961
0.168886
0.101114
0.0634936
0.0415404
0.0282023
0.0198225
0.0144052
0.0108147
0.00838263
0.00670417
0.00552869
0.00469865
0.00411464
0.0037141
0.00345787
0.00333091
0.00337121
0.00368204
2.4006
4.8173
7.07762
7.68837
7.98724
32.9009
0.976805
2.40275
3.81532
4.89056
5.67055
9.65871
0.26058
1.97739
3.10443
4.05232
4.59589
5.26968
0.280407
1.87491
2.80693
3.52034
3.68097
3.5126
1.24946
1.86954
2.63237
3.07526
2.96843
2.50333
1.38929
1.87408
2.506
2.71508
2.43938
1.84147
1.50498
1.88164
2.40541
2.4438
2.03479
1.43024
1.59044
1.88574
2.32041
2.24633
1.73232
1.15667
1.6472
1.88198
2.24831
2.092
1.51042
0.967312
1.67879
1.86788
2.18713
1.96897
1.34671
0.832267
1.68955
1.84315
2.13474
1.87383
1.22631
0.733849
1.6851
1.80903
2.08941
1.8058
1.13928
0.661599
1.66825
1.76669
2.05164
1.76397
1.07843
0.609241
1.62904
1.71647
2.02315
1.74744
1.04013
0.572748
1.56267
1.65845
2.00358
1.75225
1.02344
0.549355
1.46988
1.59178
1.99244
1.78085
1.02924
0.537718
1.35764
1.51407
1.98671
1.83246
1.06056
0.537679
1.23969
1.42089
1.98276
1.90652
1.12341
0.550461
0.280412
1.30401
1.97708
2.0016
1.22848
0.579516
0.268917
1.17361
1.96332
2.11636
1.39439
0.632904
0.251988
1.04332
1.92229
2.25244
1.65381
0.730396
0.228765
0.944166
1.83908
2.41469
2.06367
0.929087
0.852166
0.952499
1.75313
2.65275
2.69827
1.46093
1.95671
1.65812
2.16588
3.36118
3.62854
3.19847
14.9337
4.67371
1.81634
0.824691
0.415208
0.225289
0.129965
0.0789398
0.0500966
0.0330412
0.0225743
0.0159461
0.0116329
0.00875712
0.00679685
0.00543315
0.00446614
0.00376759
0.00325319
0.00286517
0.00256068
0.00230978
0.0021179
0.00211653
6.22538
2.6411
1.22038
0.596129
0.309941
0.171927
0.100933
0.0621338
0.0398297
0.0264693
0.0181892
0.0129057
0.00944578
0.0071257
0.00553489
0.0044202
0.00362155
0.00303485
0.00259002
0.00223684
0.00193538
0.00165277
0.00136891
0.000966222
3.59499
1.79181
0.867768
0.435241
0.232829
0.132356
0.0791314
0.0493498
0.0319318
0.0213683
0.014762
0.0105174
0.00772242
0.00583932
0.00454241
0.00362954
0.00297224
0.00248681
0.00211702
0.00182272
0.00157198
0.00133896
0.00110566
0.000793508
2.37659
1.23151
0.616987
0.321644
0.177618
0.103305
0.0627578
0.039583
0.0258236
0.0173885
0.0120713
0.00863446
0.00636091
0.00482353
0.00376166
0.00301257
0.00247244
0.00207351
0.00177023
0.00152969
0.0013248
0.00113386
0.000946763
0.000713295
1.61262
0.863127
0.450207
0.243293
0.137994
0.0817891
0.0503543
0.0320667
0.0210697
0.0142654
0.00994691
0.00714135
0.00527837
0.00401509
0.0031408
0.00252322
0.00207757
0.00174836
0.0014981
0.00129953
0.0011299
0.000972177
0.000822043
0.000646873
1.15798
0.630659
0.339196
0.188452
0.109148
0.0656781
0.0408798
0.0262426
0.017347
0.0118
0.00825932
0.00594943
0.00441096
0.00336556
0.00264106
0.00212886
0.00175906
0.00148581
0.00127809
0.00111327
0.00097255
0.000842966
0.000723497
0.000591729
0.872016
0.479064
0.263288
0.149295
0.0878536
0.0534908
0.0335846
0.0216989
0.0144137
0.00984205
0.00691049
0.00499174
0.00371097
0.0028395
0.00223514
0.00180778
0.0014993
0.00127147
0.00109849
0.000961547
0.0008452
0.000739633
0.000645411
0.000546474
0.685307
0.377313
0.210147
0.12083
0.0719221
0.0441786
0.0279224
0.0181302
0.0120881
0.00827804
0.00582632
0.00421794
0.00314291
0.00241107
0.00190363
0.00154511
0.00128665
0.00109615
0.000951986
0.000838427
0.000742743
0.000657449
0.000583663
0.000509597
0.558729
0.306784
0.172017
0.099765
0.0598487
0.0369939
0.0234936
0.0153088
0.0102337
0.00702214
0.00495066
0.00358993
0.00268007
0.00206096
0.00163225
0.00132996
0.00111267
0.000953132
0.000833046
0.000739166
0.000660924
0.000592503
0.000535014
0.000479719
0.47
0.256475
0.144054
0.0839264
0.0505912
0.0314005
0.0200042
0.0130646
0.00874728
0.006009
0.00424056
0.00307851
0.00230198
0.00177441
0.00140999
0.00115394
0.000970725
0.000836999
0.000737101
0.000659755
0.000596101
0.000541507
0.000496823
0.000455617
0.406266
0.219772
0.123173
0.0718542
0.0434191
0.0270107
0.0172372
0.0112699
0.00755029
0.00518854
0.00366291
0.00266108
0.00199268
0.00153978
0.00122813
0.00101026
0.000855353
0.000743185
0.000660189
0.000596652
0.000545071
0.000501656
0.000466931
0.000436263
0.359732
0.192539
0.107363
0.0625499
0.0378142
0.0235418
0.0150307
0.00982811
0.00658286
0.00452218
0.00319199
0.00231988
0.00173953
0.00134777
0.00107957
0.000893306
0.000761965
0.00066779
0.000598892
0.000546804
0.000505115
0.000470643
0.000443619
0.000420819
0.325486
0.172098
0.0952809
0.0553183
0.0334047
0.0207862
0.013264
0.00866614
0.00579901
0.00397998
0.00280763
0.00204087
0.00153242
0.00119084
0.000958481
0.000798426
0.000686685
0.000607489
0.000550287
0.000507622
0.00047397
0.000446607
0.000425533
0.000408612
0.300423
0.156689
0.0860108
0.0496675
0.0299205
0.0185903
0.0118463
0.00772825
0.0051633
0.00353862
0.00249394
0.00181287
0.00136319
0.00106284
0.000860065
0.000721721
0.00062625
0.000559471
0.000511913
0.000476952
0.000449797
0.000428074
0.000411615
0.000399089
0.282546
0.145152
0.0788913
0.0452449
0.0271645
0.0168397
0.010709
0.0069719
0.00464836
0.00317988
0.00223838
0.00162692
0.00122524
0.000958725
0.000780337
0.000659942
0.000577927
0.000521388
0.000481733
0.000453036
0.00043112
0.000413884
0.000401032
0.000391793
0.270594
0.136687
0.0734629
0.0417974
0.024992
0.0154497
0.00980064
0.00636463
0.00423305
0.0028895
0.002031
0.00147586
0.00111322
0.000874369
0.000716008
0.000610393
0.000539453
0.000491305
0.000458084
0.000434458
0.000416768
0.000403126
0.000393121
0.000386337
0.263846
0.130747
0.0693986
0.0391435
0.0232972
0.0143574
0.00908251
0.00588181
0.00390114
0.00265639
0.00186397
0.00135396
0.00102281
0.000806396
0.000664368
0.000570846
0.000508963
0.000467648
0.000439632
0.000420089
0.000405803
0.000395066
0.000387347
0.000382389
0.262045
0.12697
0.0664614
0.0371559
0.0220035
0.0135168
0.00852602
0.00550496
0.00364023
0.00247201
0.00173119
0.00125671
0.000950542
0.00075208
0.000623204
0.000539467
0.000484925
0.000449134
0.000425304
0.000409028
0.000397463
0.000389074
0.000383235
0.000379645
0.265439
0.125137
0.0644804
0.035745
0.0210571
0.0128957
0.00811068
0.00522052
0.00344111
0.00232987
0.00162796
0.00118061
0.000893728
0.000709268
0.00059075
0.000514781
0.000466096
0.000434722
0.000414237
0.000400561
0.000391141
0.000384606
0.000380336
0.000377768
0.274961
0.125143
0.0633507
0.0348343
0.0204232
0.012473
0.00782261
0.00501902
0.00329716
0.00222526
0.00155084
0.00112304
0.000850342
0.000676345
0.000565681
0.000495677
0.000451538
0.000423627
0.000405791
0.000394193
0.000386482
0.000381371
0.000378242
0.000376475
0.292588
0.126741
0.0629915
0.0343852
0.0200844
0.0122373
0.00765364
0.00489437
0.0032039
0.00215489
0.00149736
0.00108215
0.000818929
0.000652155
0.00054706
0.000481382
0.000440606
0.000415299
0.00039949
0.000389507
0.00038314
0.000379139
0.000376844
0.000375688
0.321936
0.130021
0.0633062
0.0343845
0.0200406
0.0121863
0.00760036
0.0048433
0.00315869
0.00211676
0.00146596
0.00105669
0.000798492
0.00063589
0.000534218
0.000471336
0.000432825
0.000409333
0.000394972
0.000386168
0.000380798
0.000377636
0.000376012
0.000375266
0.368261
0.134365
0.0642686
0.0348604
0.0203048
0.0123164
0.00765489
0.00486194
0.00316017
0.00211002
0.00145586
0.00104595
0.000788411
0.000627026
0.000526701
0.000465137
0.000427841
0.000405419
0.00039197
0.000383942
0.000379244
0.000376712
0.00037553
0.000375076
0.423457
0.138671
0.0659906
0.0358936
0.0209149
0.0126573
0.00784048
0.00495907
0.00320807
0.0021322
0.00146545
0.00104924
0.000788451
0.000625344
0.000524294
0.000462582
0.000425457
0.000403375
0.00039032
0.000382685
0.000378371
0.00037622
0.000375293
0.000375009
)
;

boundaryField
{
    rotor
    {
        type            epsilonWallFunction;
        value           nonuniform List<scalar> 
144
(
2.58901
3.82539
5.67044
5.16069
4.22029
3.36199
2.58901
1.01127
0.273031
1.35583
1.78026
2.16155
2.48474
2.7462
2.94743
3.092
3.18379
3.22572
3.22429
3.20791
3.16886
3.09925
2.99092
2.83468
2.61929
2.33064
1.95581
1.4925
1.09676
3.00437
3.00437
3.88913
5.33756
5.9525
6.14706
6.19826
2.59357
3.63703
4.36265
4.20222
3.4076
3.0544
2.59357
1.03168
0.269163
1.29649
1.6804
1.99703
2.25521
2.46384
2.62926
2.75605
2.8489
2.90968
2.9211
2.8857
2.79742
2.65681
2.46535
2.22626
1.9408
1.61315
1.25364
0.264575
1.01246
2.43975
2.43975
3.3086
4.40327
5.60455
6.23451
6.15275
1.89143
3.01892
6.05567
6.83792
6.62685
6.22837
1.89143
0.823641
0.233006
0.260637
0.280798
1.2853
1.40694
1.50255
1.56984
1.60986
1.62214
1.61315
1.58491
1.54626
1.49531
1.43054
1.34898
1.22735
0.278867
0.268238
0.252586
0.231543
0.874281
2.20406
2.20406
2.1266
1.92812
1.74571
1.4594
1.55344
2.4006
4.8173
7.07762
7.68837
7.98724
32.9009
2.4006
0.976805
0.26058
0.280407
1.24946
1.38929
1.50498
1.59044
1.6472
1.67879
1.68955
1.6851
1.66825
1.62904
1.56267
1.46988
1.35764
1.23969
0.280412
0.268917
0.251988
0.228765
0.852166
1.95671
1.95671
1.65812
2.16588
3.36118
3.62854
3.19847
)
;
    }
    freestream
    {
        type            inletOutlet;
        inletValue      uniform 0.000375;
        value           nonuniform List<scalar> 
96
(
0.000375
0.000375
0.000375
0.000375
0.000375
0.000375
0.000375
0.000375
0.000375
0.000375
0.000375
0.000375
0.000375
0.000375
0.000375
0.000375
0.000375
0.000375
0.000375
0.000375
0.000375
0.000375
0.000375
0.00367154
0.00731011
0.0116709
0.016712
0.0225581
0.0293287
0.0371527
0.046189
0.0566451
0.0688714
0.0832319
0.100255
0.120624
0.14548
0.176365
0.215391
0.265489
0.331649
0.424723
0.565588
0.771708
1.01782
1.16906
1.17344
1.04651
0.962461
0.981578
1.15883
1.36646
1.41388
1.24964
0.725699
0.24553
0.0960537
0.0501894
0.0338296
0.0267977
0.0231987
0.0209721
0.0193717
0.0176974
0.0159525
0.0141673
0.0123369
0.0104991
0.00869844
0.00696169
0.00529393
0.00368204
0.00211653
0.000375
0.000375
0.000375
0.000375
0.000375
0.000375
0.000375
0.000375
0.000375
0.000375
0.000375
0.000375
0.000375
0.000375
0.000375
0.000375
0.000375
0.000375
0.000375
0.000375
0.000375
0.000375
0.000375
)
;
    }
    frontAndBack
    {
        type            empty;
    }
}


// ************************************************************************* //
