/*--------------------------------*- C++ -*----------------------------------*\
  =========                 |
  \\      /  F ield         | OpenFOAM: The Open Source CFD Toolbox
   \\    /   O peration     | Website:  https://openfoam.org
    \\  /    A nd           | Version:  11
     \\/     M anipulation  |
\*---------------------------------------------------------------------------*/
FoamFile
{
    format      ascii;
    class       volScalarField;
    location    "1";
    object      k;
}
// * * * * * * * * * * * * * * * * * * * * * * * * * * * * * * * * * * * * * //

dimensions      [0 2 -2 0 0 0 0];

internalField   nonuniform List<scalar> 
2880
(
0.00554014
0.015791
0.0384832
0.0521874
0.0595337
0.0631099
0.0194342
0.0330968
0.0545881
0.0654706
0.069896
0.0706025
0.0242078
0.0495087
0.0678126
0.0755044
0.0774808
0.0753784
0.0272534
0.0611554
0.0770012
0.0826941
0.0833219
0.0795423
0.0326807
0.069438
0.0840439
0.0887258
0.0885398
0.0838397
0.037195
0.0756707
0.0898456
0.0942228
0.0936192
0.0884571
0.0408163
0.080515
0.0948935
0.0994501
0.0988195
0.0934809
0.0436325
0.0843482
0.0994381
0.104588
0.104273
0.0989909
0.0457397
0.0874086
0.103606
0.109753
0.110058
0.105071
0.0472245
0.0898434
0.107438
0.115009
0.116238
0.11181
0.0481555
0.0917396
0.110969
0.120331
0.122861
0.119293
0.048578
0.093121
0.114186
0.125659
0.129942
0.1276
0.0485635
0.0939323
0.11705
0.130896
0.137448
0.136781
0.0483992
0.0940282
0.119468
0.135925
0.145256
0.146838
0.0480064
0.0933467
0.12126
0.140564
0.153166
0.157689
0.0473018
0.0917735
0.122173
0.144502
0.160872
0.169183
0.0461944
0.0891505
0.121947
0.14731
0.167883
0.180975
0.0445729
0.0852928
0.120163
0.148416
0.173476
0.192401
0.0422871
0.0800336
0.116402
0.147407
0.176648
0.202536
0.039122
0.0732423
0.110324
0.143305
0.176145
0.210076
0.0348077
0.0648329
0.101573
0.135222
0.170669
0.213137
0.0290684
0.0546464
0.0895723
0.122055
0.157052
0.209665
0.0210903
0.0415177
0.0725113
0.101427
0.131961
0.190793
0.00643522
0.0161246
0.0363884
0.0604532
0.0870227
0.118064
0.0646479
0.0524114
0.0430223
0.0351741
0.0286933
0.0233734
0.0190437
0.0155493
0.0127491
0.0105194
0.00875517
0.00737134
0.00630032
0.00548861
0.00489215
0.00447136
0.00418796
0.00400544
0.00389224
0.00382437
0.00378521
0.00376438
0.00375455
0.00375062
0.066127
0.0543557
0.044451
0.0362146
0.0294518
0.0239342
0.0194645
0.0158691
0.0129946
0.0107092
0.00890295
0.00748668
0.00638981
0.00555671
0.00494217
0.00450636
0.00421118
0.00402019
0.00390146
0.00383013
0.00378882
0.00376648
0.00375567
0.003751
0.0686612
0.0567773
0.0462551
0.0375355
0.0304272
0.024669
0.0200285
0.0163084
0.0133407
0.0109845
0.00912341
0.00766374
0.00653136
0.00566817
0.00502758
0.00456942
0.00425594
0.00405099
0.00392231
0.00384415
0.00379806
0.00377195
0.00375856
0.00375217
0.0717801
0.0595262
0.048356
0.039104
0.0316078
0.0255754
0.0207371
0.0168704
0.0137915
0.0113493
0.00942047
0.00790629
0.00672869
0.00582674
0.00515209
0.00466408
0.00432539
0.00410042
0.00395677
0.00386779
0.00381378
0.00378174
0.00376393
0.00375476
0.0753493
0.0625712
0.0507265
0.0409084
0.032992
0.026656
0.021595
0.0175604
0.0143523
0.0118088
0.0097992
0.00821919
0.00698652
0.00603701
0.00532025
0.00479479
0.00442368
0.00417208
0.00400782
0.00390345
0.00383789
0.00379713
0.00377309
0.00375953
0.0793604
0.0659508
0.0533892
0.0429639
0.034591
0.0279204
0.0226104
0.0183862
0.0150304
0.0123698
0.0102659
0.00860839
0.00731047
0.00630445
0.00553744
0.00496683
0.00455586
0.0042706
0.00407942
0.00395439
0.00387307
0.00382024
0.00378715
0.00376734
0.0838705
0.0697451
0.0563995
0.0453065
0.0364283
0.0293849
0.0237961
0.0193582
0.015835
0.0130407
0.0108282
0.00908095
0.00770724
0.00663548
0.00580997
0.00518649
0.00472812
0.0044018
0.00417679
0.00402502
0.00392276
0.00385338
0.00380736
0.00377882
0.0889636
0.0740569
0.059836
0.0479896
0.0385389
0.0310732
0.025169
0.0204898
0.0167772
0.0138312
0.0114951
0.00964528
0.00818476
0.00703776
0.00614537
0.00546134
0.00494806
0.00457305
0.00430659
0.00412083
0.00399101
0.00389937
0.00383646
0.00379571
0.0947492
0.0790099
0.0637987
0.051083
0.0409689
0.0330159
0.0267509
0.0217973
0.0178703
0.014753
0.012277
0.0103111
0.00875227
0.00752021
0.00655243
0.00580014
0.00522446
0.00479298
0.00447685
0.00424881
0.00408356
0.00396282
0.00387769
0.00382006
0.101357
0.0847502
0.0684102
0.0546747
0.0437769
0.0352521
0.0285685
0.0233005
0.0191302
0.0158193
0.0131859
0.0110894
0.00942018
0.00809282
0.00704085
0.00621246
0.00556688
0.00507111
0.00469683
0.00441746
0.00420767
0.00404936
0.0039348
0.00385375
0.108933
0.0914491
0.0738205
0.0588754
0.0470377
0.0378308
0.0306549
0.025023
0.0205747
0.017045
0.0142348
0.0119922
0.0101998
0.00876634
0.007621
0.00670844
0.00598542
0.00541765
0.00497672
0.00463656
0.00437201
0.00416577
0.00401234
0.00389898
0.117633
0.0993044
0.0802127
0.0638246
0.0508463
0.0408144
0.0330513
0.026993
0.0222249
0.0184468
0.0154379
0.0130322
0.0111029
0.00955212
0.0083038
0.00729871
0.00649061
0.00584327
0.00532742
0.00491692
0.00458657
0.00432021
0.0041159
0.00395838
0.127611
0.108539
0.0878068
0.069697
0.0553246
0.0442823
0.035809
0.0292451
0.024105
0.0200432
0.0168104
0.0142229
0.012142
0.0104618
0.00910049
0.00799423
0.00709331
0.0063589
0.00576013
0.0052699
0.0048623
0.00452215
0.00425227
0.00403503
0.139003
0.119393
0.0968599
0.0767092
0.0606279
0.0483369
0.0389938
0.0318218
0.0262441
0.0218554
0.018369
0.0155782
0.0133295
0.0115072
0.0100224
0.00880607
0.00780444
0.00697551
0.00628601
0.00570692
0.00521056
0.00478193
0.00442923
0.00413248
0.151887
0.13211
0.107656
0.0851202
0.066952
0.0531101
0.04269
0.0347769
0.0286776
0.0239077
0.0201318
0.0171128
0.0146783
0.0127
0.0110807
0.00974512
0.00863478
0.00770386
0.00691592
0.00623909
0.0056426
0.00511019
0.00465518
0.00425453
0.166167
0.146927
0.120478
0.0952208
0.0745354
0.0587699
0.0470068
0.0381797
0.0314496
0.0262298
0.0221197
0.0188425
0.0162012
0.0140517
0.0122861
0.0108219
0.00959471
0.00855434
0.00766036
0.00687703
0.00616915
0.0055173
0.00493858
0.0044048
0.181679
0.163895
0.135531
0.107299
0.0836514
0.0655243
0.0520845
0.0421198
0.0346172
0.0288584
0.0243576
0.0207853
0.0179121
0.0155738
0.0136491
0.0120462
0.010694
0.00953681
0.00852932
0.00763091
0.0068005
0.00601319
0.00528743
0.004586
0.198289
0.182627
0.152845
0.121575
0.0945812
0.0736182
0.0580998
0.0467138
0.0382548
0.0318413
0.0268769
0.0229627
0.019827
0.017279
0.0151804
0.013428
0.0119422
0.0106607
0.00953242
0.00851065
0.0075468
0.00660773
0.00570942
0.0047991
0.215333
0.202408
0.172243
0.138115
0.107557
0.083313
0.0652652
0.0521101
0.0424595
0.0352412
0.0297186
0.0254026
0.0219656
0.0191822
0.0168923
0.0149779
0.0133492
0.0119358
0.0106796
0.00952662
0.00841901
0.00731198
0.00621293
0.00504283
0.231652
0.222043
0.19311
0.156672
0.122655
0.0948346
0.0738139
0.0584903
0.0473571
0.0391414
0.032938
0.0281425
0.0243546
0.0213036
0.018801
0.0167101
0.0149282
0.0133748
0.0119836
0.0106919
0.00943112
0.00814086
0.0068102
0.00531441
0.245517
0.239833
0.214096
0.176506
0.139646
0.108277
0.0839576
0.0660587
0.0531032
0.0436502
0.0366088
0.0312337
0.0270313
0.0236724
0.0209312
0.0186471
0.0167008
0.0149995
0.0134666
0.0120293
0.0106073
0.00912071
0.00752558
0.00561359
0.254068
0.253225
0.233012
0.196261
0.157839
0.123465
0.0958046
0.0750089
0.0598761
0.0489034
0.0408279
0.0347452
0.0300475
0.0263304
0.0233204
0.0208257
0.0187061
0.0168532
0.0151771
0.0135931
0.0120074
0.0103179
0.00842628
0.00596959
0.250465
0.258967
0.246214
0.214294
0.17607
0.139835
0.109245
0.0854583
0.0678512
0.0550578
0.045716
0.038767
0.0334718
0.0293346
0.0260215
0.0233017
0.0210092
0.0190169
0.0172198
0.0155196
0.0138092
0.0119608
0.00979534
0.00674688
0.211505
0.251409
0.24853
0.227842
0.192643
0.156378
0.123847
0.0973561
0.07715
0.0622719
0.0514126
0.0434077
0.0373881
0.032753
0.0290961
0.0261398
0.0236885
0.0215982
0.0197558
0.0180651
0.0164387
0.0148227
0.0133633
0.0127799
0.0055537
0.0150796
0.0297406
0.0426974
0.0483066
0.0576362
0.0198241
0.0379484
0.0573442
0.0696861
0.0737215
0.0831794
0.0238584
0.0494428
0.0716212
0.0839687
0.089019
0.0967184
0.0264371
0.0582814
0.0816975
0.0943056
0.100441
0.108428
0.0314178
0.0658018
0.0897278
0.102755
0.110145
0.118832
0.0352495
0.0722763
0.0963743
0.109943
0.118624
0.128115
0.0382279
0.0777642
0.101886
0.116082
0.12601
0.136403
0.0405525
0.0822836
0.106363
0.121226
0.132299
0.143563
0.0423484
0.0858555
0.109865
0.125392
0.137466
0.14948
0.0436987
0.0885054
0.112444
0.128598
0.141507
0.154105
0.0446732
0.0902588
0.114152
0.130877
0.144451
0.157454
0.0453052
0.0911384
0.115032
0.132277
0.146364
0.1596
0.0454229
0.0912061
0.115113
0.132823
0.147332
0.160657
0.0450538
0.090525
0.114457
0.132631
0.147443
0.160766
0.0441288
0.0890915
0.113052
0.131702
0.146839
0.160113
0.0426363
0.086886
0.11087
0.130041
0.145566
0.158813
0.0405622
0.0838559
0.107842
0.127611
0.143661
0.156982
0.0378963
0.0799064
0.103836
0.124303
0.141105
0.154694
0.0345848
0.0749009
0.0986372
0.119905
0.137783
0.151973
0.0305764
0.0686143
0.0919054
0.114052
0.133426
0.148741
0.0258493
0.0606552
0.0831039
0.106119
0.127503
0.144713
0.0234454
0.0502693
0.0713152
0.095032
0.118999
0.139126
0.0194466
0.0361556
0.0544392
0.0787645
0.105808
0.129607
0.00521889
0.0136794
0.0299556
0.0569049
0.0883758
0.11669
0.157719
0.226469
0.242806
0.232619
0.205922
0.171851
0.13887
0.110419
0.0877772
0.0706696
0.0580597
0.0487884
0.0418887
0.0366536
0.0325948
0.0293804
0.0267846
0.0246536
0.0228862
0.0214206
0.0202264
0.0193282
0.0189407
0.0195153
0.122419
0.194733
0.228271
0.229041
0.214568
0.185003
0.153356
0.124108
0.0995575
0.0802892
0.0657749
0.0550299
0.0470684
0.0410987
0.0365488
0.0330263
0.0302719
0.0281227
0.0264892
0.025334
0.0246503
0.0244666
0.0248904
0.0260122
0.1189
0.175573
0.208785
0.220453
0.214142
0.194445
0.166187
0.137652
0.112097
0.091028
0.0746122
0.0622359
0.0530231
0.0461547
0.0409908
0.0370789
0.0341229
0.0319456
0.0304563
0.0296147
0.0293949
0.0297517
0.0307212
0.0321439
0.129868
0.17293
0.194634
0.208961
0.209976
0.199451
0.176582
0.150215
0.124804
0.1026
0.0845138
0.0704636
0.0598407
0.0518962
0.0459658
0.0415504
0.0383163
0.0360645
0.0346867
0.0341163
0.0342671
0.0350328
0.0363974
0.0380135
0.141777
0.175855
0.192656
0.199147
0.202253
0.197993
0.183422
0.160776
0.136864
0.11449
0.0952479
0.0796743
0.0675744
0.0583982
0.051534
0.0464698
0.0428437
0.0404293
0.0390879
0.0387122
0.0391196
0.0402195
0.041873
0.0436443
0.149719
0.18189
0.19737
0.196806
0.195644
0.194027
0.185855
0.168521
0.147418
0.126005
0.106386
0.0896825
0.0761998
0.0657116
0.0577618
0.0518856
0.0477183
0.045011
0.0435897
0.0433003
0.0438622
0.045203
0.0470818
0.0489897
0.156122
0.187283
0.206483
0.201492
0.193997
0.189798
0.184557
0.172748
0.155542
0.136274
0.117268
0.100094
0.0855504
0.0738158
0.0646957
0.0578555
0.052976
0.0498084
0.0481524
0.0478119
0.0484199
0.049896
0.051943
0.053974
0.161853
0.19079
0.214188
0.211929
0.198387
0.188598
0.182408
0.173717
0.160718
0.14451
0.127128
0.110326
0.0952764
0.0825625
0.0723178
0.0644216
0.0586669
0.0548488
0.0527686
0.052206
0.0527404
0.0542228
0.0563731
0.0585103
0.166903
0.193266
0.218618
0.222003
0.210226
0.191854
0.181864
0.173409
0.163252
0.15024
0.135224
0.119657
0.104832
0.0916246
0.0804889
0.0715679
0.0648331
0.0601821
0.0574649
0.056472
0.0567995
0.058125
0.0602935
0.0625077
0.171042
0.195182
0.220245
0.230393
0.223693
0.202332
0.184629
0.173805
0.164266
0.153635
0.141143
0.127436
0.113571
0.100503
0.0889059
0.0791667
0.0714676
0.0658606
0.0623004
0.0606356
0.0606066
0.0615766
0.0636387
0.0658877
0.174082
0.196541
0.220461
0.235573
0.234078
0.218592
0.193705
0.176979
0.165505
0.155567
0.14501
0.133317
0.120932
0.108626
0.0971126
0.0869366
0.0784582
0.0718976
0.0673566
0.0648097
0.0641021
0.0646697
0.066367
0.0685861
0.175949
0.197165
0.219871
0.237616
0.241595
0.233023
0.209649
0.185888
0.169577
0.157884
0.147772
0.137507
0.12665
0.115526
0.104626
0.0944853
0.0855672
0.07822
0.0726857
0.069089
0.0674095
0.0674342
0.0685164
0.0705944
0.17664
0.196895
0.218559
0.23742
0.246503
0.24323
0.226977
0.201278
0.179315
0.163299
0.151336
0.141097
0.131151
0.12106
0.111065
0.101421
0.0924842
0.0846619
0.0782885
0.0736147
0.0707868
0.0698397
0.0703212
0.0719285
0.176361
0.19568
0.216445
0.235747
0.248516
0.250077
0.241394
0.219665
0.195176
0.17449
0.15863
0.146306
0.135829
0.126074
0.116612
0.107512
0.0988924
0.0909672
0.0840612
0.078471
0.0744514
0.0722045
0.0718911
0.0727854
0.175213
0.193548
0.21343
0.232809
0.247877
0.254392
0.251109
0.237121
0.214755
0.191991
0.172209
0.15623
0.143306
0.132328
0.12252
0.113458
0.104967
0.0970689
0.0899008
0.0836736
0.0786285
0.0750419
0.0733071
0.0735229
0.173366
0.190599
0.209486
0.22864
0.245135
0.255515
0.257167
0.25046
0.234091
0.213241
0.192131
0.17302
0.156687
0.142945
0.131257
0.121072
0.111971
0.103705
0.0961866
0.0894447
0.0835882
0.0788007
0.0754558
0.0745334
0.170991
0.186977
0.204671
0.223249
0.24044
0.253432
0.259763
0.258437
0.2496
0.233826
0.21498
0.19548
0.176995
0.160389
0.145898
0.133365
0.122472
0.112893
0.104386
0.0967979
0.0900661
0.0841981
0.0793345
0.0767672
0.16824
0.18285
0.199129
0.216729
0.233899
0.24839
0.25802
0.261467
0.258568
0.249456
0.235381
0.218657
0.200909
0.183426
0.167057
0.152217
0.139
0.127313
0.11699
0.107855
0.0997616
0.0925952
0.0862525
0.0817091
0.165226
0.178394
0.193079
0.209323
0.225767
0.240611
0.252131
0.258889
0.260439
0.256966
0.248554
0.236392
0.221924
0.206276
0.190412
0.175037
0.160586
0.147279
0.135186
0.124279
0.114491
0.105714
0.0978387
0.0912368
0.162036
0.173772
0.186797
0.201429
0.216569
0.230763
0.242629
0.251062
0.25532
0.255503
0.251761
0.244244
0.233999
0.221874
0.208622
0.194928
0.181321
0.168165
0.155696
0.144039
0.133249
0.123301
0.114279
0.106203
0.158727
0.169092
0.180562
0.193541
0.207082
0.219932
0.23097
0.23937
0.244481
0.246428
0.245226
0.241058
0.234293
0.22562
0.215622
0.204803
0.19361
0.182399
0.171394
0.160782
0.150693
0.141136
0.132247
0.124276
0.155224
0.164421
0.174588
0.186119
0.198137
0.209458
0.21909
0.226366
0.230834
0.232728
0.232231
0.229375
0.224551
0.21819
0.210688
0.202395
0.193608
0.184596
0.175627
0.16689
0.158561
0.15085
0.144046
0.138567
0.151148
0.15977
0.168969
0.179444
0.190336
0.20046
0.208837
0.214796
0.217941
0.218951
0.217819
0.214766
0.210225
0.20458
0.198175
0.1913
0.184206
0.177101
0.17016
0.163511
0.157259
0.151507
0.146561
0.142944
0.146443
0.155052
0.163688
0.17355
0.183856
0.193416
0.201223
0.206386
0.208787
0.209223
0.207478
0.203933
0.199069
0.193294
0.18697
0.180393
0.1738
0.167381
0.161292
0.155673
0.150654
0.146385
0.143051
0.140751
0.00406023
0.0125366
0.0413398
0.0695138
0.0939797
0.117754
0.0158596
0.0257761
0.0579299
0.0822392
0.102878
0.121133
0.0206949
0.0383839
0.0695943
0.0904244
0.107597
0.121452
0.0232044
0.0471101
0.0763095
0.094774
0.109366
0.120509
0.0249898
0.0532078
0.0801635
0.0968546
0.109505
0.118799
0.0263106
0.0574797
0.0821655
0.0974548
0.10869
0.116609
0.027987
0.0601892
0.082904
0.0970853
0.107097
0.114025
0.0292436
0.0617424
0.082766
0.0958798
0.104934
0.111094
0.0301109
0.0623924
0.081915
0.0940703
0.102298
0.107848
0.0306201
0.0623425
0.0805335
0.0917757
0.09926
0.104322
0.0307751
0.061696
0.0787257
0.0890828
0.0958832
0.100564
0.0306601
0.0605545
0.0765579
0.086057
0.0922226
0.0966361
0.0302997
0.0589487
0.074069
0.0827463
0.0883302
0.092616
0.0298037
0.0569002
0.0712816
0.0791853
0.0842539
0.088596
0.029144
0.0544375
0.0682
0.0753978
0.0800361
0.0846749
0.028295
0.0515478
0.0648138
0.0713993
0.075709
0.0809434
0.0272078
0.0481755
0.0611085
0.0671997
0.0712942
0.0775249
0.025545
0.0442879
0.0570944
0.0628057
0.0668029
0.0745317
0.0247675
0.0403481
0.0528498
0.0582142
0.0622478
0.071866
0.023823
0.0367879
0.0484445
0.0533886
0.0575462
0.0691038
0.0224326
0.0333522
0.0437424
0.0482046
0.0524699
0.0654592
0.0205636
0.029491
0.0382263
0.0423147
0.0463909
0.0599973
0.0168313
0.0237271
0.0303383
0.0345864
0.0374573
0.0540093
0.0047286
0.00882404
0.0131486
0.0177246
0.0206619
0.0292748
0.141575
0.150312
0.158691
0.168316
0.17856
0.18825
0.196315
0.201883
0.204608
0.205225
0.203728
0.200336
0.195561
0.189883
0.183685
0.177271
0.170878
0.164689
0.158839
0.153439
0.148602
0.144455
0.141153
0.138767
0.13738
0.145695
0.153871
0.163432
0.173932
0.184202
0.193035
0.199547
0.203157
0.204432
0.203643
0.201061
0.19715
0.192283
0.186797
0.18102
0.175174
0.169431
0.163917
0.158732
0.153967
0.149734
0.146142
0.143279
0.133733
0.141307
0.149034
0.158429
0.169182
0.180091
0.189785
0.197257
0.202004
0.204146
0.204338
0.202803
0.200082
0.196589
0.19263
0.188365
0.18397
0.17957
0.175249
0.171064
0.167068
0.163313
0.159829
0.156723
0.130259
0.136996
0.143965
0.152858
0.163496
0.174578
0.184485
0.192113
0.197208
0.200038
0.201068
0.200616
0.199084
0.196636
0.193605
0.190264
0.186788
0.1833
0.179883
0.176592
0.173467
0.170521
0.167643
0.164694
0.126849
0.132625
0.138539
0.146471
0.156349
0.166585
0.175097
0.180871
0.184293
0.186029
0.186571
0.186298
0.185534
0.184339
0.182716
0.18085
0.178848
0.176754
0.174603
0.172423
0.170245
0.168102
0.165918
0.163238
0.123392
0.12817
0.132858
0.139502
0.148055
0.156323
0.161223
0.162118
0.160625
0.158332
0.15612
0.154336
0.152903
0.151702
0.150635
0.149644
0.148696
0.147755
0.146781
0.145732
0.144602
0.143374
0.142169
0.140204
0.119833
0.123732
0.127331
0.132922
0.14054
0.145883
0.146022
0.139474
0.131021
0.123225
0.117262
0.112967
0.109695
0.107094
0.105013
0.103349
0.101984
0.100808
0.099717
0.0985881
0.0974393
0.0959381
0.0948076
0.092314
0.116169
0.119495
0.122624
0.128707
0.137202
0.140323
0.134869
0.120496
0.107348
0.0985351
0.0928227
0.0880112
0.0833652
0.0788064
0.074466
0.0704562
0.0668493
0.0636575
0.0608391
0.0582948
0.056027
0.05376
0.051999
0.0495434
0.112431
0.115648
0.119308
0.127645
0.137965
0.138579
0.127794
0.108307
0.0952305
0.0879097
0.0827327
0.0777265
0.0724884
0.0671685
0.0620055
0.0571836
0.0528186
0.0489578
0.0456018
0.0426967
0.0402118
0.0380094
0.0363383
0.0349055
0.108667
0.112367
0.117969
0.130672
0.142152
0.13844
0.119327
0.0994305
0.0890344
0.0832206
0.0782884
0.0731313
0.0675684
0.0618837
0.0563803
0.0512796
0.0466958
0.0426738
0.0392271
0.0363472
0.0340389
0.0322157
0.0311121
0.0306705
0.104946
0.10986
0.11928
0.138231
0.145934
0.13587
0.1096
0.093527
0.0864812
0.0813972
0.0764103
0.0706637
0.0644535
0.0583151
0.0525968
0.0474713
0.0429925
0.0391574
0.0359486
0.0333422
0.0312967
0.0299707
0.0295763
0.0298071
0.101364
0.108484
0.124246
0.148108
0.147189
0.12725
0.101484
0.0915892
0.0858474
0.0805399
0.0744555
0.0675988
0.0606824
0.0542333
0.0484911
0.0435294
0.0393436
0.0359004
0.0331669
0.031122
0.0297314
0.029231
0.0293516
0.0300276
0.0980625
0.108767
0.133413
0.15326
0.144742
0.115012
0.0985591
0.0914167
0.0857002
0.0791521
0.0716213
0.0638998
0.0566941
0.0503062
0.0448174
0.0402126
0.0364456
0.0334714
0.0312622
0.0298169
0.029174
0.0292011
0.0297471
0.0309754
0.0952878
0.1115
0.145401
0.154059
0.133879
0.107987
0.0980835
0.0916845
0.0847709
0.0766037
0.068098
0.0601215
0.0530362
0.0469508
0.0418501
0.0376746
0.0343634
0.0318724
0.0301771
0.0292619
0.0291035
0.0294914
0.0305373
0.0320469
0.093478
0.118016
0.152566
0.148076
0.120938
0.106284
0.0985181
0.0912831
0.0824844
0.0731087
0.0642561
0.0563818
0.0496222
0.0439579
0.03931
0.0355923
0.0327355
0.0306935
0.0294371
0.0289393
0.0290947
0.0298142
0.0311487
0.0326934
0.0929385
0.128297
0.153776
0.137243
0.116166
0.10663
0.0988222
0.089472
0.0791322
0.0692342
0.0604029
0.052826
0.0464807
0.0412657
0.0370649
0.0337772
0.0313275
0.0296651
0.0287529
0.0285537
0.0289068
0.0298421
0.031258
0.0328101
0.0937524
0.138441
0.147263
0.127778
0.115764
0.107477
0.0977738
0.0863746
0.0752019
0.0651843
0.0566127
0.0494574
0.0435766
0.0388116
0.0350233
0.0321045
0.0299801
0.0285991
0.0279217
0.0279064
0.0283904
0.0294465
0.0308981
0.0324172
0.0958325
0.142709
0.138393
0.124964
0.118119
0.107887
0.0952682
0.0824746
0.0709461
0.0611222
0.0529646
0.0462808
0.0408582
0.0365087
0.0330822
0.0304681
0.0285909
0.0274004
0.0268587
0.0269151
0.027457
0.0285131
0.0299188
0.031374
0.0980642
0.143126
0.134573
0.126937
0.119811
0.106287
0.0914811
0.0780098
0.0665847
0.0571628
0.0494853
0.0432709
0.0382723
0.0342887
0.0311654
0.0287908
0.0270892
0.0260116
0.0255235
0.0255815
0.0260953
0.0270779
0.0283935
0.0297723
0.0947966
0.139922
0.134274
0.132001
0.120681
0.10303
0.086868
0.0733188
0.0622697
0.0533424
0.0461564
0.0403876
0.0357738
0.0321088
0.0292366
0.0270448
0.0254578
0.0244279
0.0239248
0.0239216
0.0243363
0.0251893
0.0263789
0.0276737
0.0914124
0.138549
0.141221
0.135739
0.117929
0.0981546
0.0817719
0.0685928
0.0580668
0.0496663
0.0429595
0.037605
0.0333362
0.029947
0.0272819
0.0252284
0.02371
0.0226791
0.0221087
0.0219806
0.0222467
0.0229098
0.023936
0.0251386
0.108345
0.146085
0.151045
0.137192
0.112814
0.0925492
0.0765087
0.0639133
0.0539871
0.046128
0.0398843
0.0349135
0.0309531
0.0278022
0.0253084
0.0233598
0.0218779
0.0208125
0.020136
0.0198347
0.0198936
0.0203041
0.0211106
0.0222014
0.129933
0.161917
0.156513
0.132417
0.106491
0.0865082
0.0711934
0.0593361
0.0500569
0.0427389
0.0369367
0.032319
0.0286342
0.0256901
0.0233398
0.0214727
0.0200081
0.0188903
0.0180854
0.0175764
0.0173574
0.0174445
0.0179223
0.018848
0.153347
0.17697
0.158143
0.124452
0.0990761
0.08021
0.0659193
0.0549019
0.0462955
0.0395112
0.0341289
0.0298374
0.0264011
0.023639
0.0214118
0.0196118
0.0181565
0.0169835
0.0160474
0.0153165
0.0147711
0.0144251
0.0144121
0.015008
0.00514499
0.0199392
0.0481963
0.0780133
0.112987
0.136364
0.0187981
0.0454086
0.0810137
0.115736
0.14908
0.206763
0.0231299
0.0575179
0.0951474
0.129784
0.158466
0.192732
0.0248863
0.0650588
0.101997
0.132901
0.153234
0.167518
0.0258228
0.0702577
0.104861
0.130518
0.141631
0.1448
0.0276998
0.0735628
0.105451
0.125274
0.129461
0.127573
0.0292116
0.0756936
0.104886
0.11937
0.119249
0.114503
0.0303071
0.0770122
0.103587
0.113804
0.111276
0.104603
0.031026
0.077686
0.101898
0.109018
0.104866
0.0972072
0.031424
0.0777831
0.0999945
0.105015
0.0997228
0.0915626
0.0315611
0.0773342
0.0979564
0.101655
0.0956248
0.0871594
0.0315093
0.0763581
0.0958137
0.0987677
0.0923916
0.08368
0.0313037
0.0748511
0.093583
0.0962646
0.0898405
0.0809132
0.0308163
0.0728065
0.0912822
0.0940666
0.0878254
0.0787158
0.0299778
0.0702104
0.088876
0.0920706
0.0862358
0.0769885
0.0287828
0.0670281
0.0862737
0.0901496
0.0849707
0.0756571
0.0273003
0.0631968
0.0833284
0.0881558
0.0839212
0.0746623
0.0256835
0.0586271
0.0798199
0.0859027
0.0829456
0.0739501
0.0249585
0.0532032
0.0754216
0.0831471
0.0818287
0.0734598
0.0239128
0.0470934
0.0696444
0.0795651
0.0802088
0.0730949
0.0223732
0.0402592
0.0617246
0.074643
0.0775066
0.0726282
0.0203092
0.0324284
0.0509106
0.0669596
0.0728268
0.071338
0.0163987
0.0224644
0.0356129
0.0536744
0.0642394
0.0665444
0.00419432
0.00687611
0.0147565
0.0340595
0.0512533
0.060125
0.194141
0.183982
0.148423
0.114924
0.0912458
0.0739092
0.0607949
0.0506657
0.0427344
0.0364669
0.0314811
0.0274921
0.0242828
0.0216856
0.0195695
0.0178314
0.0163891
0.015175
0.0141317
0.0132068
0.0123481
0.0115188
0.010777
0.0105411
0.209699
0.175376
0.133413
0.104066
0.0832215
0.0677584
0.055915
0.0466809
0.0394034
0.0336257
0.0290113
0.0253045
0.0223079
0.0198671
0.017861
0.0161927
0.0147831
0.0135653
0.0124785
0.0114607
0.0104397
0.00933087
0.00805313
0.00619258
0.184375
0.151397
0.118238
0.0937443
0.075757
0.0620708
0.0514058
0.0429973
0.0363231
0.0309984
0.0267292
0.023287
0.0204931
0.0182072
0.0163182
0.0147376
0.0133933
0.0122253
0.0111806
0.0102078
0.00924789
0.00823654
0.00711464
0.00558907
0.159106
0.131551
0.104908
0.0845607
0.0690438
0.056906
0.0472841
0.039618
0.0334925
0.0285832
0.024633
0.0214381
0.0188375
0.0167041
0.014937
0.0134562
0.012197
0.0111063
0.0101383
0.00924798
0.0083821
0.00748491
0.00652489
0.00530645
0.136457
0.11448
0.0935306
0.0765895
0.0630952
0.0522611
0.0435443
0.0365367
0.0309048
0.0263725
0.0227142
0.019748
0.0173286
0.0153408
0.0136931
0.0123129
0.0111417
0.0101318
0.00924226
0.00843265
0.00765457
0.00686201
0.00604372
0.00506709
0.118472
0.101171
0.0841933
0.069765
0.0578619
0.0481098
0.0401708
0.0337417
0.0285491
0.0243555
0.0209615
0.0182039
0.0159513
0.014099
0.0125637
0.0112791
0.010192
0.00925906
0.00844354
0.00770909
0.00701283
0.00631857
0.00562819
0.00484829
0.105205
0.0908591
0.0765342
0.0639342
0.0532778
0.0444185
0.0371428
0.0312172
0.0264121
0.0225201
0.0193631
0.0167941
0.0146934
0.0129656
0.0115344
0.0103391
0.00933115
0.0084712
0.00772617
0.00706361
0.00644604
0.00584551
0.00527055
0.00465299
0.0954167
0.082807
0.0702275
0.0589536
0.0492732
0.0411485
0.0344355
0.0289452
0.0244797
0.0208543
0.0179088
0.015509
0.0135459
0.0119319
0.010597
0.00948543
0.00855268
0.00776292
0.00708624
0.00649356
0.00595194
0.00543941
0.00496655
0.00448216
0.0880166
0.0764172
0.0649942
0.0546921
0.04578
0.0382598
0.0320227
0.0269074
0.0227378
0.0193472
0.0165893
0.0143412
0.0125027
0.0109929
0.00974735
0.00871477
0.0078541
0.00713246
0.00652244
0.00599748
0.00552816
0.0050964
0.00471185
0.00433535
0.0822777
0.0712619
0.060619
0.0510395
0.0427363
0.0357142
0.0298789
0.0250853
0.021173
0.0179885
0.0153969
0.0132846
0.0115588
0.0101447
0.0089826
0.00802496
0.00723371
0.00657825
0.0060329
0.00557274
0.00517084
0.00481136
0.00450144
0.00421108
0.0777316
0.0670483
0.0569405
0.0479053
0.0400875
0.0334763
0.0279799
0.023462
0.0197726
0.0167687
0.0143243
0.0123335
0.01071
0.00938396
0.00829997
0.00741356
0.00668907
0.00609747
0.00561407
0.00521477
0.00487429
0.00457791
0.0043298
0.00410729
0.0740781
0.0635759
0.0538375
0.0452157
0.0377865
0.0315146
0.0263037
0.0220215
0.018525
0.015679
0.0133647
0.0114827
0.00995195
0.00870712
0.00769616
0.00687728
0.00621657
0.0056859
0.00526081
0.00491745
0.00463162
0.00438913
0.00419141
0.00402178
0.0711212
0.0607037
0.0512176
0.0429105
0.0357928
0.0298011
0.0248304
0.0207493
0.0174194
0.0147111
0.0125117
0.010727
0.00928028
0.00811007
0.0071672
0.00641193
0.00581148
0.00533802
0.00496675
0.0046737
0.00443549
0.00423821
0.00408111
0.0039524
0.0687276
0.0583291
0.0490086
0.0409402
0.0340723
0.0283117
0.0235427
0.0196327
0.0164459
0.0138575
0.0117591
0.010061
0.00869015
0.00758824
0.00670842
0.00601248
0.0054682
0.0050475
0.00472489
0.00447615
0.00427868
0.00411886
0.00399433
0.0038971
0.066803
0.0563748
0.0471542
0.0392647
0.0325965
0.027026
0.0224257
0.0186602
0.0155959
0.0131109
0.0111008
0.00947931
0.00817653
0.00713664
0.00631465
0.00567333
0.00518056
0.00480758
0.00452807
0.00431763
0.00415454
0.00402552
0.00392708
0.00385396
0.065278
0.0547806
0.0456092
0.0378514
0.031342
0.0259271
0.0214666
0.0178224
0.0148615
0.0124649
0.0105312
0.0089767
0.00773427
0.00675004
0.00598038
0.00538859
0.0049422
0.00461154
0.00436947
0.00419158
0.00405718
0.00395342
0.00387592
0.0038212
0.0641009
0.053498
0.0443379
0.0366743
0.0302905
0.0250016
0.0206555
0.0171111
0.0142362
0.0119138
0.0100448
0.00854805
0.00735825
0.00642312
0.00569998
0.00515228
0.00474687
0.00445301
0.00424286
0.00409221
0.00398151
0.00389847
0.00383792
0.00379716
0.0632344
0.0524871
0.0433123
0.035714
0.0294283
0.0242396
0.0199847
0.0165201
0.0137145
0.0114525
0.00963708
0.00818871
0.00704363
0.00615075
0.00546799
0.00495863
0.00458862
0.00432616
0.00414275
0.00401455
0.00392315
0.00385699
0.00381035
0.00378024
0.0626568
0.0517146
0.0425126
0.0349583
0.0287473
0.0236348
0.019449
0.0160449
0.0132922
0.0110772
0.00930407
0.00789462
0.00678614
0.00592832
0.0052794
0.0048023
0.00446204
0.00422573
0.00406435
0.0039544
0.00387846
0.00382573
0.00379058
0.00376852
0.0623663
0.0511545
0.0419272
0.0344026
0.0282449
0.0231849
0.0190456
0.0156823
0.0129664
0.0107848
0.00904267
0.00766255
0.0065823
0.00575205
0.00513012
0.00467897
0.0043627
0.00414749
0.0040039
0.00390867
0.00384512
0.00380284
0.00377621
0.00376039
0.0623816
0.0507911
0.0415565
0.0340517
0.0279241
0.0228907
0.0187737
0.0154311
0.0127351
0.0105732
0.00885064
0.00749009
0.00642954
0.00561914
0.00501712
0.00458544
0.0042874
0.00408835
0.00395848
0.00387474
0.00382092
0.00378676
0.0037664
0.00375533
0.0627231
0.0506274
0.041419
0.0339219
0.027794
0.0227561
0.0186344
0.015291
0.0125978
0.0104413
0.00872648
0.00737552
0.00632595
0.00552752
0.00493814
0.00451934
0.00423372
0.00404598
0.00392592
0.00385052
0.00380387
0.00377581
0.00376023
0.00375253
0.0633493
0.0507177
0.0415589
0.0340403
0.0278671
0.0227836
0.0186297
0.0152632
0.0125546
0.0103884
0.00866925
0.00731772
0.00627026
0.00547573
0.00489155
0.00447887
0.00419983
0.0040186
0.00390456
0.00383454
0.00379266
0.00376874
0.00375663
0.00375118
0.0640895
0.0512136
0.0420588
0.0344458
0.0281624
0.0229885
0.0187644
0.0153457
0.0126004
0.0104116
0.00867778
0.00731643
0.00626207
0.00546312
0.00487655
0.00446314
0.00418474
0.00400515
0.00389338
0.00382582
0.00378637
0.00376502
0.00375481
0.00375067
)
;

boundaryField
{
    rotor
    {
        type            kqRWallFunction;
        value           nonuniform List<scalar> 
144
(
0.00554014
0.015791
0.0384832
0.0521874
0.0595337
0.0631099
0.00554014
0.0194342
0.0242078
0.0272534
0.0326807
0.037195
0.0408163
0.0436325
0.0457397
0.0472245
0.0481555
0.048578
0.0485635
0.0483992
0.0480064
0.0473018
0.0461944
0.0445729
0.0422871
0.039122
0.0348077
0.0290684
0.0210903
0.00643522
0.00643522
0.0161246
0.0363884
0.0604532
0.0870227
0.118064
0.0055537
0.0150796
0.0297406
0.0426974
0.0483066
0.0576362
0.0055537
0.0198241
0.0238584
0.0264371
0.0314178
0.0352495
0.0382279
0.0405525
0.0423484
0.0436987
0.0446732
0.0453052
0.0454229
0.0450538
0.0441288
0.0426363
0.0405622
0.0378963
0.0345848
0.0305764
0.0258493
0.0234454
0.0194466
0.00521889
0.00521889
0.0136794
0.0299556
0.0569049
0.0883758
0.11669
0.00406023
0.0125366
0.0413398
0.0695138
0.0939797
0.117754
0.00406023
0.0158596
0.0206949
0.0232044
0.0249898
0.0263106
0.027987
0.0292436
0.0301109
0.0306201
0.0307751
0.0306601
0.0302997
0.0298037
0.029144
0.028295
0.0272078
0.025545
0.0247675
0.023823
0.0224326
0.0205636
0.0168313
0.0047286
0.0047286
0.00882404
0.0131486
0.0177246
0.0206619
0.0292748
0.00514499
0.0199392
0.0481963
0.0780133
0.112987
0.136364
0.00514499
0.0187981