/*--------------------------------*- C++ -*----------------------------------*\
  =========                 |
  \\      /  F ield         | OpenFOAM: The Open Source CFD Toolbox
   \\    /   O peration     | Website:  https://openfoam.org
    \\  /    A nd           | Version:  11
     \\/     M anipulation  |
\*---------------------------------------------------------------------------*/
FoamFile
{
    format      ascii;
    class       surfaceScalarField;
    location    "1";
    object      meshPhi;
}
// * * * * * * * * * * * * * * * * * * * * * * * * * * * * * * * * * * * * * //

dimensions      [0 3 -1 0 0 0 0];

internalField   nonuniform List<scalar> 
5640
(
1.3692e-16
9.81747e-07
2.42097e-16
1.37445e-06
3.76963e-16
1.76715e-06
-1.33931e-15
2.15984e-06
-3.68145e-15
2.55254e-06
2.94524e-06
5.95143e-15
1.83029e-18
9.81747e-07
-3.88825e-16
1.37445e-06
-2.60419e-15
1.76715e-06
1.94366e-15
2.15984e-06
8.06629e-15
2.55254e-06
2.94524e-06
-9.02999e-15
-1.16472e-16
9.81747e-07
1.86352e-16
1.37445e-06
-1.56229e-15
1.76715e-06
-4.21258e-15
2.15984e-06
-7.49848e-15
2.55254e-06
2.94524e-06
7.7225e-16
8.69541e-17
9.81747e-07
-1.01928e-16
1.37445e-06
2.69324e-15
1.76715e-06
7.44277e-15
2.15984e-06
3.25996e-15
2.55254e-06
2.94524e-06
-2.79771e-15
-4.83576e-17
9.81747e-07
3.94958e-17
1.37445e-06
1.94305e-16
1.76715e-06
-1.80613e-15
2.15984e-06
-4.20845e-15
2.55254e-06
2.94524e-06
5.01314e-15
-1.80101e-16
9.81747e-07
4.29554e-18
1.37445e-06
-1.84782e-15
1.76715e-06
-3.88612e-15
2.15984e-06
3.1571e-15
2.55254e-06
2.94524e-06
4.98121e-16
2.53964e-16
9.81747e-07
2.55434e-16
1.37445e-06
2.06596e-15
1.76715e-06
4.5041e-15
2.15984e-06
-2.31002e-15
2.55254e-06
2.94524e-06
5.40876e-16
2.1658e-17
9.81747e-07
-3.21662e-16
1.37445e-06
-1.14889e-15
1.76715e-06
-5.28562e-15
2.15984e-06
-3.76811e-16
2.55254e-06
2.94524e-06
-5.63973e-15
-1.43408e-16
9.81747e-07
1.66416e-16
1.37445e-06
4.19104e-15
1.76715e-06
6.34935e-15
2.15984e-06
-8.05627e-16
2.55254e-06
2.94524e-06
8.3949e-16
-6.88201e-17
9.81747e-07
-9.20775e-17
1.37445e-06
-2.7695e-15
1.76715e-06
-3.68798e-16
2.15984e-06
-1.45085e-15
2.55254e-06
2.94524e-06
-1.76678e-16
1.66309e-16
9.81747e-07
-8.86871e-17
1.37445e-06
5.69625e-16
1.76715e-06
-2.10355e-15
2.15984e-06
9.66e-15
2.55254e-06
2.94524e-06
5.29011e-15
-1.77797e-16
9.81747e-07
-2.05102e-17
1.37445e-06
-3.45481e-16
1.76715e-06
-4.17267e-15
2.15984e-06
-2.62246e-15
2.55254e-06
2.94524e-06
5.36939e-15
1.77805e-16
9.81747e-07
2.04944e-17
1.37445e-06
3.45451e-16
1.76715e-06
4.17262e-15
2.15984e-06
2.62237e-15
2.55254e-06
2.94524e-06
-5.36949e-15
-1.66331e-16
9.81747e-07
8.86677e-17
1.37445e-06
-5.69635e-16
1.76715e-06
2.10346e-15
2.15984e-06
-9.66004e-15
2.55254e-06
2.94524e-06
-5.29029e-15
6.88047e-17
9.81747e-07
9.20378e-17
1.37445e-06
2.7694e-15
1.76715e-06
3.68766e-16
2.15984e-06
1.45076e-15
2.55254e-06
2.94524e-06
1.76592e-16
1.43402e-16
9.81747e-07
-1.66399e-16
1.37445e-06
-4.19114e-15
1.76715e-06
-6.34941e-15
2.15984e-06
8.05756e-16
2.55254e-06
2.94524e-06
-8.39324e-16
-2.16476e-17
9.81747e-07
3.21642e-16
1.37445e-06
1.14893e-15
1.76715e-06
5.28564e-15
2.15984e-06
3.76824e-16
2.55254e-06
2.94524e-06
5.63965e-15
-2.53966e-16
9.81747e-07
-2.55501e-16
1.37445e-06
-2.06598e-15
1.76715e-06
-4.50402e-15
2.15984e-06
2.31008e-15
2.55254e-06
2.94524e-06
-5.41017e-16
1.80118e-16
9.81747e-07
-4.28328e-18
1.37445e-06
1.84776e-15
1.76715e-06
3.88618e-15
2.15984e-06
-3.15706e-15
2.55254e-06
2.94524e-06
-4.98223e-16
4.83628e-17
9.81747e-07
-3.95251e-17
1.37445e-06
-1.94329e-16
1.76715e-06
1.8061e-15
2.15984e-06
4.20841e-15
2.55254e-06
2.94524e-06
-5.01316e-15
-8.69453e-17
9.81747e-07
1.01884e-16
1.37445e-06
-2.69321e-15
1.76715e-06
-7.44282e-15
2.15984e-06
-3.2598e-15
2.55254e-06
2.94524e-06
2.7979e-15
1.16483e-16
9.81747e-07
-1.86401e-16
1.37445e-06
1.56232e-15
1.76715e-06
4.21252e-15
2.15984e-06
7.49833e-15
2.55254e-06
2.94524e-06
-7.72204e-16
-1.79887e-18
9.81747e-07
3.8879e-16
1.37445e-06
2.60415e-15
1.76715e-06
-1.94364e-15
2.15984e-06
-8.06619e-15
2.55254e-06
2.94524e-06
9.03002e-15
-1.36955e-16
-2.4209e-16
-3.77003e-16
1.33927e-15
3.68153e-15
-5.95104e-15
-1.1336e-14
4.53785e-06
-4.53785e-06
-4.81241e-16
5.23599e-06
-5.23599e-06
-5.35758e-15
5.93412e-06
-5.93412e-06
-1.13033e-14
6.63225e-06
-6.63225e-06
4.86923e-15
7.33038e-06
-7.33038e-06
-1.10863e-15
8.02851e-06
-8.02851e-06
-8.15824e-15
8.72664e-06
-8.72664e-06
1.30449e-14
9.42478e-06
-9.42478e-06
5.94871e-15
1.01229e-05
-1.01229e-05
-1.99732e-15
1.0821e-05
-1.0821e-05
2.43869e-14
1.15192e-05
-1.15192e-05
1.61898e-14
1.22173e-05
-1.22173e-05
-3.27867e-14
1.29154e-05
-1.29154e-05
-3.05106e-15
1.36136e-05
-1.36136e-05
-1.44406e-14
1.43117e-05
-1.43117e-05
-2.69026e-14
1.50098e-05
-1.50098e-05
7.73978e-15
1.5708e-05
-1.5708e-05
-4.43693e-15
1.64061e-05
-1.64061e-05
-1.80017e-14
1.71042e-05
-1.71042e-05
2.18215e-14
1.78024e-05
-1.78024e-05
8.21321e-15
1.85005e-05
-1.85005e-05
-6.08418e-15
1.91986e-05
-1.91986e-05
3.89242e-14
1.98967e-05
-1.98967e-05
2.05949e-05
-2.05949e-05
9.39875e-15
4.53785e-06
5.2054e-16
5.23599e-06
7.52886e-15
5.93412e-06
-4.41198e-15
6.63225e-06
3.78244e-15
7.33038e-06
1.33843e-14
8.02851e-06
-2.10915e-15
8.72664e-06
8.52814e-15
9.42478e-06
-1.00286e-14
1.01229e-05
1.86578e-15
1.0821e-05
-2.02034e-14
1.15192e-05
-7.01175e-15
1.22173e-05
7.5084e-15
1.29154e-05
2.36067e-14
1.36136e-05
-2.04098e-15
1.43117e-05
1.48326e-14
1.50098e-05
-1.38785e-14
1.5708e-05
2.39045e-15
1.64061e-05
2.04114e-14
1.71042e-05
-7.01595e-15
1.78024e-05
1.20667e-14
1.85005e-05
-2.5946e-14
1.91986e-05
1.84662e-15
1.98967e-05
2.05949e-05
-8.67634e-15
4.53785e-06
1.22924e-14
5.23599e-06
1.88337e-15
5.93412e-06
8.90199e-15
6.63225e-06
-5.1085e-15
7.33038e-06
-2.19907e-14
8.02851e-06
1.22643e-14
8.72664e-06
-5.37585e-15
9.42478e-06
4.45636e-15
1.01229e-05
-1.43055e-14
1.0821e-05
-7.32683e-15
1.15192e-05
7.04024e-15
1.22173e-05
2.39948e-14
1.29154e-05
-7.55644e-15
1.36136e-05
9.8008e-15
1.43117e-05
-1.62385e-14
1.50098e-05
4.02918e-14
1.5708e-05
1.44457e-14
1.64061e-05
-1.37066e-14
1.71042e-05
-7.8979e-15
1.78024e-05
-3.92493e-14
1.85005e-05
4.27485e-14
1.91986e-05
-8.8493e-15
1.98967e-05
2.05949e-05
5.98599e-15
4.53785e-06
2.19131e-16
5.23599e-06
-6.43584e-15
5.93412e-06
6.06399e-15
6.63225e-06
-2.09321e-15
7.33038e-06
1.61768e-14
8.02851e-06
-1.8832e-14
8.72664e-06
-2.35077e-15
9.42478e-06
9.17254e-15
1.01229e-05
-4.71073e-15
1.0821e-05
2.16259e-14
1.15192e-05
-2.96451e-14
1.22173e-05
-9.28968e-15
1.29154e-05
-1.89088e-14
1.36136e-05
4.46791e-15
1.43117e-05
3.01544e-14
1.50098e-05
-2.62159e-14
1.5708e-05
4.38408e-16
1.64061e-05
-2.11725e-14
1.71042e-05
1.87108e-14
1.78024e-05
-3.9237e-15
1.85005e-05
-2.91588e-14
1.91986e-05
1.52315e-14
1.98967e-05
2.05949e-05
6.71524e-15
4.53785e-06
-7.30683e-15
5.23599e-06
1.11011e-14
5.93412e-06
-4.2411e-15
6.63225e-06
1.51025e-14
7.33038e-06
-5.21002e-15
8.02851e-06
1.70139e-14
8.72664e-06
-3.94045e-15
9.42478e-06
-2.94821e-16
1.01229e-05
6.61077e-15
1.0821e-05
1.37043e-14
1.15192e-05
1.01846e-14
1.22173e-05
1.82177e-14
1.29154e-05
1.4371e-14
1.36136e-05
2.33422e-14
1.43117e-05
-2.53447e-14
1.50098e-05
2.90741e-14
1.5708e-05
-7.82662e-15
1.64061e-05
3.54163e-14
1.71042e-05
-4.51377e-15
1.78024e-05
4.23686e-14
1.85005e-05
-5.83758e-16
1.91986e-05
-8.73107e-15
1.98967e-05
2.05949e-05
-4.63041e-15
4.53785e-06
5.79733e-15
5.23599e-06
-1.61505e-14
5.93412e-06
-5.9745e-15
6.63225e-06
-8.55499e-15
7.33038e-06
4.22337e-15
8.02851e-06
-8.18781e-15
8.72664e-06
6.99971e-15
9.42478e-06
-2.42305e-14
1.01229e-05
-7.77038e-15
1.0821e-05
-2.27657e-14
1.15192e-05
8.34934e-15
1.22173e-05
-7.40265e-15
1.29154e-05
2.82673e-14
1.36136e-05
-4.57091e-14
1.43117e-05
-8.22084e-15
1.50098e-05
-2.82265e-14
1.5708e-05
-2.34182e-15
1.64061e-05
-6.94703e-15
1.71042e-05
2.2149e-14
1.78024e-05
-3.41089e-14
1.85005e-05
-3.74236e-15
1.91986e-05
-3.23431e-14
1.98967e-05
2.05949e-05
-8.92513e-15
4.53785e-06
-2.28912e-15
5.23599e-06
-2.22438e-15
5.93412e-06
6.61622e-15
6.63225e-06
-3.38776e-15
7.33038e-06
-3.90703e-15
8.02851e-06
-6.41846e-15
8.72664e-06
-7.1588e-15
9.42478e-06
6.81042e-15
1.01229e-05
6.98159e-15
1.0821e-05
-9.06437e-15
1.15192e-05
6.75816e-15
1.22173e-05
-2.88892e-14
1.29154e-05
-1.22337e-14
1.36136e-05
4.80257e-15
1.43117e-05
2.50288e-14
1.50098e-05
3.86007e-15
1.5708e-05
3.60652e-15
1.64061e-05
-2.04849e-14
1.71042e-05
-2.17574e-14
1.78024e-05
3.46858e-15
1.85005e-05
2.90443e-14
1.91986e-05
-1.6641e-15
1.98967e-05
2.05949e-05
6.21591e-15
4.53785e-06
-3.87946e-15
5.23599e-06
1.54218e-14
5.93412e-06
-7.06492e-15
6.63225e-06
-2.21046e-15
7.33038e-06
1.42954e-15
8.02851e-06
-5.49298e-15
8.72664e-06
1.32262e-14
9.42478e-06
6.04457e-15
1.01229e-05
-1.74516e-14
1.0821e-05
2.08858e-14
1.15192e-05
-2.14463e-14
1.22173e-05
1.9134e-14
1.29154e-05
-7.31624e-15
1.36136e-05
3.84869e-14
1.43117e-05
-1.29232e-14
1.50098e-05
-1.88058e-15
1.5708e-05
5.71818e-15
1.64061e-05
-7.58735e-15
1.71042e-05
2.76599e-14
1.78024e-05
1.40975e-14
1.85005e-05
-5.3139e-14
1.91986e-05
3.90846e-14
1.98967e-05
2.05949e-05
-1.49834e-15
4.53785e-06
1.0897e-14
5.23599e-06
-6.59961e-15
5.93412e-06
7.26512e-15
6.63225e-06
6.17498e-15
7.33038e-06
2.489e-15
8.02851e-06
-9.63822e-16
8.72664e-06
-4.36467e-15
9.42478e-06
-8.9015e-15
1.01229e-05
1.38628e-14
1.0821e-05
1.06887e-14
1.15192e-05
6.25206e-15
1.22173e-05
-1.26939e-16
1.29154e-05
-3.43978e-15
1.36136e-05
-1.10435e-14
1.43117e-05
-1.77631e-14
1.50098e-05
1.7684e-14
1.5708e-05
9.95599e-15
1.64061e-05
3.33115e-15
1.71042e-05
-3.29634e-14
1.78024e-05
-1.04241e-14
1.85005e-05
3.00709e-14
1.91986e-05
-5.99925e-14
1.98967e-05
2.05949e-05
5.17022e-15
4.53785e-06
-7.45534e-15
5.23599e-06
-7.56843e-16
5.93412e-06
6.8395e-15
6.63225e-06
-9.97417e-15
7.33038e-06
-1.66449e-15
8.02851e-06
9.21914e-15
8.72664e-06
-1.34591e-14
9.42478e-06
2.32213e-14
1.01229e-05
1.0473e-14
1.0821e-05
-1.72739e-14
1.15192e-05
-3.02737e-15
1.22173e-05
1.13975e-14
1.29154e-05
-1.98167e-14
1.36136e-05
-4.67798e-15
1.43117e-05
5.03064e-14
1.50098e-05
-2.40472e-14
1.5708e-05
-6.65794e-15
1.64061e-05
1.42625e-14
1.71042e-05
1.64814e-15
1.78024e-05
-6.81007e-15
1.85005e-05
1.44424e-14
1.91986e-05
5.07562e-14
1.98967e-05
2.05949e-05
-6.19728e-15
4.53785e-06
2.89241e-17
5.23599e-06
1.15115e-14
5.93412e-06
-2.06265e-14
6.63225e-06
5.36666e-15
7.33038e-06
1.22115e-15
8.02851e-06
-4.74654e-17
8.72664e-06
1.23942e-14
9.42478e-06
-1.32261e-14
1.01229e-05
-1.88936e-14
1.0821e-05
-4.96371e-15
1.15192e-05
-7.1544e-15
1.22173e-05
-1.48866e-14
1.29154e-05
3.53366e-14
1.36136e-05
-1.75824e-18
1.43117e-05
-4.31396e-14
1.50098e-05
1.35637e-14
1.5708e-05
-2.82562e-14
1.64061e-05
2.45509e-15
1.71042e-05
-1.02408e-14
1.78024e-05
2.38022e-14
1.85005e-05
1.38777e-14
1.91986e-05
-4.55611e-14
1.98967e-05
2.05949e-05
-1.90679e-15
4.53785e-06
1.13066e-15
5.23599e-06
-2.16619e-14
5.93412e-06
9.62372e-15
6.63225e-06
1.51369e-14
7.33038e-06
-1.40657e-14
8.02851e-06
8.09262e-15
8.72664e-06
-2.69601e-14
9.42478e-06
-1.96593e-15
1.01229e-05
2.97173e-14
1.0821e-05
-1.17458e-14
1.15192e-05
1.9865e-14
1.22173e-05
-2.74458e-14
1.29154e-05
-2.06159e-14
1.36136e-05
1.60429e-14
1.43117e-05
-4.6126e-15
1.50098e-05
4.69215e-15
1.5708e-05
4.79691e-14
1.64061e-05
-1.37396e-14
1.71042e-05
3.23705e-14
1.78024e-05
-3.51851e-14
1.85005e-05
-2.49049e-14
1.91986e-05
7.19157e-14
1.98967e-05
2.05949e-05
1.90646e-15
4.53785e-06
-1.13072e-15
5.23599e-06
2.16619e-14
5.93412e-06
-9.62389e-15
6.63225e-06
-1.51373e-14
7.33038e-06
1.4065e-14
8.02851e-06
-8.0927e-15
8.72664e-06
2.69589e-14
9.42478e-06
1.96526e-15
1.01229e-05
-2.97179e-14
1.0821e-05
1.17451e-14
1.15192e-05
-1.98675e-14
1.22173e-05
2.74445e-14
1.29154e-05
2.06169e-14
1.36136e-05
-1.60417e-14
1.43117e-05
4.61453e-15
1.50098e-05
-4.6944e-15
1.5708e-05
-4.79657e-14
1.64061e-05
1.374e-14
1.71042e-05
-3.23708e-14
1.78024e-05
3.51871e-14
1.85005e-05
2.49044e-14
1.91986e-05
-7.19168e-14
1.98967e-05
2.05949e-05
6.19718e-15
4.53785e-06
-2.88994e-17
5.23599e-06
-1.15116e-14
5.93412e-06
2.06262e-14
6.63225e-06
-5.36658e-15
7.33038e-06
-1.22151e-15
8.02851e-06
4.76079e-17
8.72664e-06
-1.23941e-14
9.42478e-06
1.32258e-14
1.01229e-05
1.88938e-14
1.0821e-05
4.96436e-15
1.15192e-05
7.15346e-15
1.22173e-05
1.48865e-14
1.29154e-05
-3.53396e-14
1.36136e-05
-1.91286e-19
1.43117e-05
4.31383e-14
1.50098e-05
-1.35639e-14
1.5708e-05
2.82563e-14
1.64061e-05
-2.45404e-15
1.71042e-05
1.02403e-14
1.78024e-05
-2.38072e-14
1.85005e-05
-1.38748e-14
1.91986e-05
4.55591e-14
1.98967e-05
2.05949e-05
-5.17029e-15
4.53785e-06
7.45555e-15
5.23599e-06
7.56616e-16
5.93412e-06
-6.83964e-15
6.63225e-06
9.97421e-15
7.33038e-06
1.66452e-15
8.02851e-06
-9.21842e-15
8.72664e-06
1.34591e-14
9.42478e-06
-2.32205e-14
1.01229e-05
-1.0473e-14
1.0821e-05
1.72731e-14
1.15192e-05
3.02646e-15
1.22173e-05
-1.13976e-14
1.29154e-05
1.98168e-14
1.36136e-05
4.67914e-15
1.43117e-05
-5.03042e-14
1.50098e-05
2.40449e-14
1.5708e-05
6.65808e-15
1.64061e-05
-1.42612e-14
1.71042e-05
-1.65351e-15
1.78024e-05
6.80687e-15
1.85005e-05
-1.44428e-14
1.91986e-05
-5.07566e-14
1.98967e-05
2.05949e-05
1.49859e-15
4.53785e-06
-1.08968e-14
5.23599e-06
6.59936e-15
5.93412e-06
-7.26582e-15
6.63225e-06
-6.17473e-15
7.33038e-06
-2.48898e-15
8.02851e-06
9.64359e-16
8.72664e-06
4.36485e-15
9.42478e-06
8.9015e-15
1.01229e-05
-1.38625e-14
1.0821e-05
-1.06913e-14
1.15192e-05
-6.25119e-15
1.22173e-05
1.27493e-16
1.29154e-05
3.43909e-15
1.36136e-05
1.10448e-14
1.43117e-05
1.77638e-14
1.50098e-05
-1.76809e-14
1.5708e-05
-9.9559e-15
1.64061e-05
-3.33022e-15
1.71042e-05
3.29643e-14
1.78024e-05
1.04205e-14
1.85005e-05
-3.0069e-14
1.91986e-05
5.99953e-14
1.98967e-05
2.05949e-05
-6.21569e-15
4.53785e-06
3.87941e-15
5.23599e-06
-1.5422e-14
5.93412e-06
7.06489e-15
6.63225e-06
2.21005e-15
7.33038e-06
-1.43022e-15
8.02851e-06
5.49288e-15
8.72664e-06
-1.32258e-14
9.42478e-06
-6.04565e-15
1.01229e-05
1.74505e-14
1.0821e-05
-2.08865e-14
1.15192e-05
2.14455e-14
1.22173e-05
-1.91342e-14
1.29154e-05
7.31602e-15
1.36136e-05
-3.84848e-14
1.43117e-05
1.29228e-14
1.50098e-05
1.88211e-15
1.5708e-05
-5.72089e-15
1.64061e-05
7.58992e-15
1.71042e-05
-2.76638e-14
1.78024e-05
-1.40992e-14
1.85005e-05
5.31327e-14
1.91986e-05
-3.90846e-14
1.98967e-05
2.05949e-05
8.92523e-15
4.53785e-06
2.2892e-15
5.23599e-06
2.22408e-15
5.93412e-06
-6.61678e-15
6.63225e-06
3.38775e-15
7.33038e-06
3.90728e-15
8.02851e-06
6.41882e-15
8.72664e-06
7.1585e-15
9.42478e-06
-6.81058e-15
1.01229e-05
-6.98202e-15
1.0821e-05
9.06473e-15
1.15192e-05
-6.75932e-15
1.22173e-05
2.8888e-14
1.29154e-05
1.22347e-14
1.36136e-05
-4.80469e-15
1.43117e-05
-2.50246e-14
1.50098e-05
-3.86151e-15
1.5708e-05
-3.60809e-15
1.64061e-05
2.04832e-14
1.71042e-05
2.17573e-14
1.78024e-05
-3.47204e-15
1.85005e-05
-2.90365e-14
1.91986e-05
1.66619e-15
1.98967e-05
2.05949e-05
4.63053e-15
4.53785e-06
-5.7977e-15
5.23599e-06
1.61506e-14
5.93412e-06
5.97465e-15
6.63225e-06
8.55487e-15
7.33038e-06
-4.22329e-15
8.02851e-06
8.18689e-15
8.72664e-06
-6.99983e-15
9.42478e-06
2.42287e-14
1.01229e-05
7.76897e-15
1.0821e-05
2.2765e-14
1.15192e-05
-8.3491e-15
1.22173e-05
7.4017e-15
1.29154e-05
-2.82661e-14
1.36136e-05
4.57083e-14
1.43117e-05
8.22129e-15
1.50098e-05
2.82271e-14
1.5708e-05
2.33912e-15
1.64061e-05
6.945e-15
1.71042e-05
-2.21535e-14
1.78024e-05
3.41069e-14
1.85005e-05
3.74101e-15
1.91986e-05
3.23437e-14
1.98967e-05
2.05949e-05
-6.7152e-15
4.53785e-06
7.30672e-15
5.23599e-06
-1.11007e-14
5.93412e-06
4.24158e-15
6.63225e-06
-1.51025e-14
7.33038e-06
5.20973e-15
8.02851e-06
-1.70129e-14
8.72664e-06
3.9399e-15
9.42478e-06
2.95114e-16
1.01229e-05
-6.61096e-15
1.0821e-05
-1.37051e-14
1.15192e-05
-1.01852e-14
1.22173e-05
-1.8218e-14
1.29154e-05
-1.4369e-14
1.36136e-05
-2.33404e-14
1.43117e-05
2.53442e-14
1.50098e-05
-2.90731e-14
1.5708e-05
7.82554e-15
1.64061e-05
-3.54162e-14
1.71042e-05
4.50993e-15
1.78024e-05
-4.23687e-14
1.85005e-05
5.85363e-16
1.91986e-05
8.7324e-15
1.98967e-05
2.05949e-05
-5.98602e-15
4.53785e-06
-2.18761e-16
5.23599e-06
6.43553e-15
5.93412e-06
-6.06415e-15
6.63225e-06
2.09237e-15
7.33038e-06
-1.61765e-14
8.02851e-06
1.88313e-14
8.72664e-06
2.35092e-15
9.42478e-06
-9.17125e-15
1.01229e-05
4.71033e-15
1.0821e-05
-2.16267e-14
1.15192e-05
2.96456e-14
1.22173e-05
9.28921e-15
1.29154e-05
1.89054e-14
1.36136e-05
-4.46679e-15
1.43117e-05
-3.01537e-14
1.50098e-05
2.62149e-14
1.5708e-05
-4.37586e-16
1.64061e-05
2.11734e-14
1.71042e-05
-1.87134e-14
1.78024e-05
3.92231e-15
1.85005e-05
2.91562e-14
1.91986e-05
-1.52316e-14
1.98967e-05
2.05949e-05
8.67619e-15
4.53785e-06
-1.22926e-14
5.23599e-06
-1.88307e-15
5.93412e-06
-8.90265e-15
6.63225e-06
5.10814e-15
7.33038e-06
2.19913e-14
8.02851e-06
-1.22645e-14
8.72664e-06
5.37405e-15
9.42478e-06
-4.45646e-15
1.01229e-05
1.43047e-14
1.0821e-05
7.32557e-15
1.15192e-05
-7.03991e-15
1.22173e-05
-2.39945e-14
1.29154e-05
7.55357e-15
1.36136e-05
-9.80488e-15
1.43117e-05
1.62372e-14
1.50098e-05
-4.02961e-14
1.5708e-05
-1.44457e-14
1.64061e-05
1.3705e-14
1.71042e-05
7.89749e-15
1.78024e-05
3.92526e-14
1.85005e-05
-4.27499e-14
1.91986e-05
8.84765e-15
1.98967e-05
2.05949e-05
-9.3987e-15
4.53785e-06
-5.20357e-16
5.23599e-06
-7.52821e-15
5.93412e-06
4.41184e-15
6.63225e-06
-3.78369e-15
7.33038e-06
-1.33841e-14
8.02851e-06
2.11014e-15
8.72664e-06
-8.5285e-15
9.42478e-06
1.0028e-14
1.01229e-05
-1.86673e-15
1.0821e-05
2.0203e-14
1.15192e-05
7.01181e-15
1.22173e-05
-7.50873e-15
1.29154e-05
-2.36095e-14
1.36136e-05
2.03989e-15
1.43117e-05
-1.48366e-14
1.50098e-05
1.38765e-14
1.5708e-05
-2.38954e-15
1.64061e-05
-2.04111e-14
1.71042e-05
7.01592e-15
1.78024e-05
-1.20713e-14
1.85005e-05
2.59423e-14
1.91986e-05
-1.84981e-15
1.98967e-05
2.05949e-05
1.13362e-14
4.53785e-06
4.81179e-16
5.23599e-06
5.35706e-15
5.93412e-06
1.13034e-14
6.63225e-06
-4.8693e-15
7.33038e-06
1.10976e-15
8.02851e-06
8.15848e-15
8.72664e-06
-1.30441e-14
9.42478e-06
-5.94974e-15
1.01229e-05
1.9966e-15
1.0821e-05
-2.43874e-14
1.15192e-05
-1.61898e-14
1.22173e-05
3.27874e-14
1.29154e-05
3.05257e-15
1.36136e-05
1.44395e-14
1.43117e-05
2.68998e-14
1.50098e-05
-7.7395e-15
1.5708e-05
4.43903e-15
1.64061e-05
1.80008e-14
1.71042e-05
-2.18241e-14
1.78024e-05
-8.21664e-15
1.85005e-05
6.08555e-15
1.91986e-05
-3.89216e-14
1.98967e-05
2.05949e-05
1.36941e-16
9.81747e-07
2.42097e-16
1.37445e-06
3.76987e-16
1.76715e-06
-1.33928e-15
2.15984e-06
-3.68131e-15
2.55254e-06
2.94524e-06
5.95135e-15
1.83029e-18
9.81747e-07
-3.88825e-16
1.37445e-06
-2.60419e-15
1.76715e-06
1.94366e-15
2.15984e-06
8.06629e-15
2.55254e-06
2.94524e-06
-9.02999e-15
-1.16472e-16
9.81747e-07
1.86352e-16
1.37445e-06
-1.56229e-15
1.76715e-06
-4.21258e-15
2.15984e-06
-7.49848e-15
2.55254e-06
2.94524e-06
7.7225e-16
8.69541e-17
9.81747e-07
-1.01928e-16
1.37445e-06
2.69324e-15
1.76715e-06
7.44277e-15
2.15984e-06
3.25996e-15
2.55254e-06
2.94524e-06
-2.79771e-15
-4.83576e-17
9.81747e-07
3.94958e-17
1.37445e-06
1.94305e-16
1.76715e-06
-1.80613e-15
2.15984e-06
-4.20845e-15
2.55254e-06
2.94524e-06
5.01314e-15
-1.80101e-16
9.81747e-07
4.29554e-18
1.37445e-06
-1.84782e-15
1.76715e-06
-3.88612e-15
2.15984e-06
3.1571e-15
2.55254e-06
2.94524e-06
4.98121e-16
2.53964e-16
9.81747e-07
2.55434e-16
1.37445e-06
2.06596e-15
1.76715e-06
4.5041e-15
2.15984e-06
-2.31002e-15
2.55254e-06
2.94524e-06
5.40876e-16
2.1658e-17
9.81747e-07
-3.21662e-16
1.37445e-06
-1.14889e-15
1.76715e-06
-5.28562e-15
2.15984e-06
-3.76811e-16
2.55254e-06
2.94524e-06
-5.63973e-15
-1.43408e-16
9.81747e-07
1.66416e-16
1.37445e-06
4.19104e-15
1.76715e-06
6.34935e-15
2.15984e-06
-8.05627e-16
2.55254e-06
2.94524e-06
8.3949e-16
-6.88201e-17
9.81747e-07
-9.20775e-17
1.37445e-06
-2.7695e-15
1.76715e-06
-3.68798e-16
2.15984e-06
-1.45085e-15
2.55254e-06
2.94524e-06
-1.76678e-16
1.66309e-16
9.81747e-07
-8.86871e-17
1.37445e-06
5.69625e-16
1.76715e-06
-2.10355e-15
2.15984e-06
9.66e-15
2.55254e-06
2.94524e-06
5.29011e-15
-1.77797e-16
9.81747e-07
-2.05102e-17
1.37445e-06
-3.45481e-16
1.76715e-06
-4.17267e-15
2.15984e-06
-2.62246e-15
2.55254e-06
2.94524e-06
5.36939e-15
1.77805e-16
9.81747e-07
2.04944e-17
1.37445e-06
3.45451e-16
1.76715e-06
4.17262e-15
2.15984e-06
2.62237e-15
2.55254e-06
2.94524e-06
-5.36949e-15
-1.66331e-16
9.81747e-07
8.86677e-17
1.37445e-06
-5.69635e-16
1.76715e-06
2.10346e-15
2.15984e-06
-9.66004e-15
2.55254e-06
2.94524e-06
-5.29029e-15
6.88047e-17
9.81747e-07
9.20378e-17
1.37445e-06
2.7694e-15
1.76715e-06
3.68766e-16
2.15984e-06
1.45076e-15
2.55254e-06
2.94524e-06
1.76592e-16
1.43402e-16
9.81747e-07
-1.66399e-16
1.37445e-06
-4.19114e-15
1.76715e-06
-6.34941e-15
2.15984e-06
8.05756e-16
2.55254e-06
2.94524e-06
-8.39324e-16
-2.16476e-17
9.81747e-07
3.21642e-16
1.37445e-06
1.14893e-15
1.76715e-06
5.28564e-15
2.15984e-06
3.76824e-16
2.55254e-06
2.94524e-06
5.63965e-15
-2.53966e-16
9.81747e-07
-2.55501e-16
1.37445e-06
-2.06598e-15
1.76715e-06
-4.50402e-15
2.15984e-06
2.31008e-15
2.55254e-06
2.94524e-06
-5.41017e-16
1.80118e-16
9.81747e-07
-4.28328e-18
1.37445e-06
1.84776e-15
1.76715e-06
3.88618e-15
2.15984e-06
-3.15706e-15
2.55254e-06
2.94524e-06
-4.98223e-16
4.83628e-17
9.81747e-07
-3.95251e-17
1.37445e-06
-1.94329e-16
1.76715e-06
1.8061e-15
2.15984e-06
4.20841e-15
2.55254e-06
2.94524e-06
-5.01316e-15
-8.69453e-17
9.81747e-07
1.01884e-16
1.37445e-06
-2.69321e-15
1.76715e-06
-7.44282e-15
2.15984e-06
-3.2598e-15
2.55254e-06
2.94524e-06
2.7979e-15
1.16483e-16
9.81747e-07
-1.86401e-16
1.37445e-06
1.56232e-15
1.76715e-06
4.21252e-15
2.15984e-06
7.49833e-15
2.55254e-06
2.94524e-06
-7.72204e-16
-1.79887e-18
9.81747e-07
3.8879e-16
1.37445e-06
2.60415e-15
1.76715e-06
-1.94364e-15
2.15984e-06
-8.06619e-15
2.55254e-06
2.94524e-06
9.03002e-15
-1.36955e-16
-2.42109e-16
-3.76979e-16
1.33921e-15
3.68153e-15
-5.9512e-15
-1.13361e-14
4.53785e-06
-4.81342e-16
5.23599e-06
-5.35713e-15
5.93412e-06
-1.13038e-14
6.63225e-06
4.86867e-15
7.33038e-06
-1.10863e-15
8.02851e-06
-8.15857e-15
8.72664e-06
1.30445e-14
9.42478e-06
5.94947e-15
1.01229e-05
-1.99691e-15
1.0821e-05
2.43882e-14
1.15192e-05
1.61902e-14
1.22173e-05
-3.27857e-14
1.29154e-05
-3.05207e-15
1.36136e-05
-1.44406e-14
1.43117e-05
-2.69037e-14
1.50098e-05
7.73862e-15
1.5708e-05
-4.43451e-15
1.64061e-05
-1.80004e-14
1.71042e-05
2.18202e-14
1.78024e-05
8.21321e-15
1.85005e-05
-6.08277e-15
1.91986e-05
3.89213e-14
1.98967e-05
2.05949e-05
9.39875e-15
4.53785e-06
5.2054e-16
5.23599e-06
7.52886e-15
5.93412e-06
-4.41198e-15
6.63225e-06
3.78244e-15
7.33038e-06
1.33843e-14
8.02851e-06
-2.10915e-15
8.72664e-06
8.52814e-15
9.42478e-06
-1.00286e-14
1.01229e-05
1.86578e-15
1.0821e-05
-2.02034e-14
1.15192e-05
-7.01175e-15
1.22173e-05
7.5084e-15
1.29154e-05
2.36067e-14
1.36136e-05
-2.04098e-15
1.43117e-05
1.48326e-14
1.50098e-05
-1.38785e-14
1.5708e-05
2.39045e-15
1.64061e-05
2.04114e-14
1.71042e-05
-7.01595e-15
1.78024e-05
1.20667e-14
1.85005e-05
-2.5946e-14
1.91986e-05
1.84662e-15
1.98967e-05
2.05949e-05
-8.67634e-15
4.53785e-06
1.22924e-14
5.23599e-06
1.88337e-15
5.93412e-06
8.90199e-15
6.63225e-06
-5.1085e-15
7.33038e-06
-2.19907e-14
8.02851e-06
1.22643e-14
8.72664e-06
-5.37585e-15
9.42478e-06
4.45636e-15
1.01229e-05
-1.43055e-14
1.0821e-05
-7.32683e-15
1.15192e-05
7.04024e-15
1.22173e-05
2.39948e-14
1.29154e-05
-7.55644e-15
1.36136e-05
9.8008e-15
1.43117e-05
-1.62385e-14
1.50098e-05
4.02918e-14
1.5708e-05
1.44457e-14
1.64061e-05
-1.37066e-14
1.71042e-05
-7.8979e-15
1.78024e-05
-3.92493e-14
1.85005e-05
4.27485e-14
1.91986e-05
-8.8493e-15
1.98967e-05
2.05949e-05
5.98599e-15
4.53785e-06
2.19131e-16
5.23599e-06
-6.43584e-15
5.93412e-06
6.06399e-15
6.63225e-06
-2.09321e-15
7.33038e-06
1.61768e-14
8.02851e-06
-1.8832e-14
8.72664e-06
-2.35077e-15
9.42478e-06
9.17254e-15
1.01229e-05
-4.71073e-15
1.0821e-05
2.16259e-14
1.15192e-05
-2.96451e-14
1.22173e-05
-9.28968e-15
1.29154e-05
-1.89088e-14
1.36136e-05
4.46791e-15
1.43117e-05
3.01544e-14
1.50098e-05
-2.62159e-14
1.5708e-05
4.38408e-16
1.64061e-05
-2.11725e-14
1.71042e-05
1.87108e-14
1.78024e-05
-3.9237e-15
1.85005e-05
-2.91588e-14
1.91986e-05
1.52315e-14
1.98967e-05
2.05949e-05
6.71524e-15
4.53785e-06
-7.30683e-15
5.23599e-06
1.11011e-14
5.93412e-06
-4.2411e-15
6.63225e-06
1.51025e-14
7.33038e-06
-5.21002e-15
8.02851e-06
1.70139e-14
8.72664e-06
-3.94045e-15
9.42478e-06
-2.94821e-16
1.01229e-05
6.61077e-15
1.0821e-05
1.37043e-14
1.15192e-05
1.01846e-14
1.22173e-05
1.82177e-14
1.29154e-05
1.4371e-14
1.36136e-05
2.33422e-14
1.43117e-05
-2.53447e-14
1.50098e-05
2.90741e-14
1.5708e-05
-7.82662e-15
1.64061e-05
3.54163e-14
1.71042e-05
-4.51377e-15
1.78024e-05
4.23686e-14
1.85005e-05
-5.83758e-16
1.91986e-05
-8.73107e-15
1.98967e-05
2.05949e-05
-4.63041e-15
4.53785e-06
5.79733e-15
5.23599e-06
-1.61505e-14
5.93412e-06
-5.9745e-15
6.63225e-06
-8.55499e-15
7.33038e-06
4.22337e-15
8.02851e-06
-8.18781e-15
8.72664e-06
6.99971e-15
9.42478e-06
-2.42305e-14
1.01229e-05
-7.77038e-15
1.0821e-05
-2.27657e-14
1.15192e-05
8.34934e-15
1.22173e-05
-7.40265e-15
1.29154e-05
2.82673e-14
1.36136e-05
-4.57091e-14
1.43117e-05
-8.22084e-15
1.50098e-05
-2.82265e-14
1.5708e-05
-2.34182e-15
1.64061e-05
-6.94703e-15
1.71042e-05
2.2149e-14
1.78024e-05
-3.41089e-14
1.85005e-05
-3.74236e-15
1.91986e-05
-3.23431e-14
1.98967e-05
2.05949e-05
-8.92513e-15
4.53785e-06
-2.28912e-15
5.23599e-06
-2.22438e-15
5.93412e-06
6.61622e-15
6.63225e-06
-3.38776e-15
7.33038e-06
-3.90703e-15
8.02851e-06
-6.41846e-15
8.72664e-06
-7.1588e-15
9.42478e-06
6.81042e-15
1.01229e-05
6.98159e-15
1.0821e-05
-9.06437e-15
1.15192e-05
6.75816e-15
1.22173e-05
-2.88892e-14
1.29154e-05
-1.22337e-14
1.36136e-05
4.80257e-15
1.43117e-05
2.50288e-14
1.50098e-05
3.86007e-15
1.5708e-05
3.60652e-15
1.64061e-05
-2.04849e-14
1.71042e-05
-2.17574e-14
1.78024e-05
3.46858e-15
1.85005e-05
2.90443e-14
1.91986e-05
-1.6641e-15
1.98967e-05
2.05949e-05
6.21591e-15
4.53785e-06
-3.87946e-15
5.23599e-06
1.54218e-14
5.93412e-06
-7.06492e-15
6.63225e-06
-2.21046e-15
7.33038e-06
1.42954e-15
8.02851e-06
-5.49298e-15
8.72664e-06
1.32262e-14
9.42478e-06
6.04457e-15
1.01229e-05
-1.74516e-14
1.0821e-05
2.08858e-14
1.15192e-05
-2.14463e-14
1.22173e-05
1.9134e-14
1.29154e-05
-7.31624e-15
1.36136e-05
3.84869e-14
1.43117e-05
-1.29232e-14
1.50098e-05
-1.88058e-15
1.5708e-05
5.71818e-15
1.64061e-05
-7.58735e-15
1.71042e-05
2.76599e-14
1.78024e-05
1.40975e-14
1.85005e-05
-5.3139e-14
1.91986e-05
3.90846e-14
1.98967e-05
2.05949e-05
-1.49834e-15
4.53785e-06
1.0897e-14
5.23599e-06
-6.59961e-15
5.93412e-06
7.26512e-15
6.63225e-06
6.17498e-15
7.33038e-06
2.489e-15
8.02851e-06
-9.63822e-16
8.72664e-06
-4.36467e-15
9.42478e-06
-8.9015e-15
1.01229e-05
1.38628e-14
1.0821e-05
1.06887e-14
1.15192e-05
6.25206e-15
1.22173e-05
-1.26939e-16
1.29154e-05
-3.43978e-15
1.36136e-05
-1.10435e-14
1.43117e-05
-1.77631e-14
1.50098e-05
1.7684e-14
1.5708e-05
9.95599e-15
1.64061e-05
3.33115e-15
1.71042e-05
-3.29634e-14
1.78024e-05
-1.04241e-14
1.85005e-05
3.00709e-14
1.91986e-05
-5.99925e-14
1.98967e-05
2.05949e-05
5.17022e-15
4.53785e-06
-7.45534e-15
5.23599e-06
-7.56843e-16
5.93412e-06
6.8395e-15
6.63225e-06
-9.97417e-15
7.33038e-06
-1.66449e-15
8.02851e-06
9.21914e-15
8.72664e-06
-1.34591e-14
9.42478e-06
2.32213e-14
1.01229e-05
1.0473e-14
1.0821e-05
-1.72739e-14
1.15192e-05
-3.02737e-15
1.22173e-05
1.13975e-14
1.29154e-05
-1.98167e-14
1.36136e-05
-4.67798e-15
1.43117e-05
5.03064e-14
1.50098e-05
-2.40472e-14
1.5708e-05
-6.65794e-15
1.64061e-05
1.42625e-14
1.71042e-05
1.64814e-15
1.78024e-05
-6.81007e-15
1.85005e-05
1.44424e-14
1.91986e-05
5.07562e-14
1.98967e-05
2.05949e-05
-6.19728e-15
4.53785e-06
2.89241e-17
5.23599e-06
1.15115e-14
5.93412e-06
-2.06265e-14
6.63225e-06
5.36666e-15
7.33038e-06
1.22115e-15
8.02851e-06
-4.74654e-17
8.72664e-06
1.23942e-14
9.42478e-06
-1.32261e-14
1.01229e-05
-1.88936e-14
1.0821e-05
-4.96371e-15
1.15192e-05
-7.1544e-15
1.22173e-05
-1.48866e-14
1.29154e-05
3.53366e-14
1.36136e-05
-1.75824e-18
1.43117e-05
-4.31396e-14
1.50098e-05
1.35637e-14
1.5708e-05
-2.82562e-14
1.64061e-05
2.45509e-15
1.71042e-05
-1.02408e-14
1.78024e-05
2.38022e-14
1.85005e-05
1.38777e-14
1.91986e-05
-4.55611e-14
1.98967e-05
2.05949e-05
-1.90679e-15
4.53785e-06
1.13066e-15
5.23599e-06
-2.16619e-14
5.93412e-06
9.62372e-15
6.63225e-06
1.51369e-14
7.33038e-06
-1.40657e-14
8.02851e-06
8.09262e-15
8.72664e-06
-2.69601e-14
9.42478e-06
-1.96593e-15
1.01229e-05
2.97173e-14
1.0821e-05
-1.17458e-14
1.15192e-05
1.9865e-14
1.22173e-05
-2.74458e-14
1.29154e-05
-2.06159e-14
1.36136e-05
1.60429e-14
1.43117e-05
-4.6126e-15
1.50098e-05
4.69215e-15
1.5708e-05
4.79691e-14
1.64061e-05
-1.37396e-14
1.71042e-05
3.23705e-14
1.78024e-05
-3.51851e-14
1.85005e-05
-2.49049e-14
1.91986e-05
7.19157e-14
1.98967e-05
2.05949e-05
1.90646e-15
4.53785e-06
-1.13072e-15
5.23599e-06
2.16619e-14
5.93412e-06
-9.62389e-15
6.63225e-06
-1.51373e-14
7.33038e-06
1.4065e-14
8.02851e-06
-8.0927e-15
8.72664e-06
2.69589e-14
9.42478e-06
1.96526e-15
1.01229e-05
-2.97179e-14
1.0821e-05
1.17451e-14
1.15192e-05
-1.98675e-14
1.22173e-05
2.74445e-14
1.29154e-05
2.06169e-14
1.36136e-05
-1.60417e-14
1.43117e-05
4.61453e-15
1.50098e-05
-4.6944e-15
1.5708e-05
-4.79657e-14
1.64061e-05
1.374e-14
1.71042e-05
-3.23708e-14
1.78024e-05
3.51871e-14
1.85005e-05
2.49044e-14
1.91986e-05
-7.19168e-14
1.98967e-05
2.05949e-05
6.19718e-15
4.53785e-06
-2.88994e-17
5.23599e-06
-1.15116e-14
5.93412e-06
2.06262e-14
6.63225e-06
-5.36658e-15
7.33038e-06
-1.22151e-15
8.02851e-06
4.76079e-17
8.72664e-06
-1.23941e-14
9.42478e-06
1.32258e-14
1.01229e-05
1.88938e-14
1.0821e-05
4.96436e-15
1.15192e-05
7.15346e-15
1.22173e-05
1.48865e-14
1.29154e-05
-3.53396e-14
1.36136e-05
-1.91286e-19
1.43117e-05
4.31383e-14
1.50098e-05
-1.35639e-14
1.5708e-05
2.82563e-14
1.64061e-05
-2.45404e-15
1.71042e-05
1.02403e-14
1.78024e-05
-2.38072e-14
1.85005e-05
-1.38748e-14
1.91986e-05
4.55591e-14
1.98967e-05
2.05949e-05
-5.17029e-15
4.53785e-06
7.45555e-15
5.23599e-06
7.56616e-16
5.93412e-06
-6.83964e-15
6.63225e-06
9.97421e-15
7.33038e-06
1.66452e-15
8.02851e-06
-9.21842e-15
8.72664e-06
1.34591e-14
9.42478e-06
-2.32205e-14
1.01229e-05
-1.0473e-14
1.0821e-05
1.72731e-14
1.15192e-05
3.02646e-15
1.22173e-05
-1.13976e-14
1.29154e-05
1.98168e-14
1.36136e-05
4.67914e-15
1.43117e-05
-5.03042e-14
1.50098e-05
2.40449e-14
1.5708e-05
6.65808e-15