/*--------------------------------*- C++ -*----------------------------------*\
  =========                 |
  \\      /  F ield         | OpenFOAM: The Open Source CFD Toolbox
   \\    /   O peration     | Website:  https://openfoam.org
    \\  /    A nd           | Version:  11
     \\/     M anipulation  |
\*---------------------------------------------------------------------------*/
FoamFile
{
    format      ascii;
    class       volScalarField;
    location    "1";
    object      nut;
}
// * * * * * * * * * * * * * * * * * * * * * * * * * * * * * * * * * * * * * //

dimensions      [0 2 -1 0 0 0 0];

internalField   nonuniform List<scalar> 
2880
(
1.06697e-06
5.86661e-06
2.35055e-05
4.7497e-05
7.55832e-05
0.00010662
3.3613e-05
3.53274e-05
7.89276e-05
0.000138821
0.000226362
0.000411554
0.00019317
9.21755e-05
0.000162375
0.000275897
0.000450225
0.000772141
4.93039e-05
0.000150693
0.000249652
0.0004206
0.000672299
0.00104288
5.39935e-05
0.000204331
0.000336699
0.000557968
0.000859732
0.00122846
5.7603e-05
0.000253517
0.000420167
0.000679573
0.00100582
0.00135733
6.03433e-05
0.00029847
0.0004975
0.000781938
0.0011162
0.00144554
6.23923e-05
0.000336883
0.000566596
0.000865398
0.00119857
0.0015039
6.38832e-05
0.00036818
0.000625792
0.00093373
0.00125668
0.00154214
6.49139e-05
0.000392293
0.000673481
0.000986189
0.00129736
0.001566
6.55525e-05
0.000409247
0.000710492
0.00102502
0.00132462
0.00157928
6.58407e-05
0.000418735
0.000734571
0.00105066
0.00134102
0.00158441
6.58307e-05
0.000419768
0.000746485
0.00106326
0.00134782
0.00158267
6.57199e-05
0.000410305
0.000746256
0.00106323
0.00134484
0.00157436
6.54542e-05
0.000391844
0.000733656
0.00105071
0.00133143
0.00155878
6.49743e-05
0.000366085
0.000708541
0.00102503
0.00130675
0.00153563
6.4212e-05
0.000334735
0.000671618
0.000985187
0.00126922
0.00150393
6.30782e-05
0.000299431
0.000622311
0.000930283
0.00121346
0.00145757
6.14432e-05
0.00026182
0.000561318
0.000860274
0.00113601
0.00138497
5.91029e-05
0.000221734
0.000490486
0.000766698
0.00103063
0.00127561
5.57527e-05
0.000180568
0.000405933
0.000644206
0.000890097
0.00111011
5.09529e-05
0.000135545
0.000301088
0.000484439
0.000683195
0.000859067
3.65002e-05
7.47478e-05
0.000167716
0.000278669
0.000403322
0.000494516
1.24055e-06
6.01686e-06
2.23268e-05
5.52563e-05
0.000110877
0.000202399
0.000913558
0.00175999
0.00243212
0.00296551
0.00338349
0.00372084
0.00400236
0.00423541
0.00441895
0.00454525
0.00460197
0.0045785
0.00447265
0.00429867
0.00408853
0.00388171
0.0037087
0.00358142
0.00349593
0.00344213
0.00340948
0.00339064
0.00338085
0.00337608
0.00119541
0.00189188
0.00247208
0.00296024
0.00335419
0.00368327
0.00396232
0.00419643
0.00438389
0.00451696
0.00458356
0.00457196
0.00447802
0.00431341
0.00410802
0.00390104
0.00372454
0.00359263
0.00350325
0.00344664
0.00341232
0.00339217
0.00338158
0.0033763
0.00143671
0.00201184
0.00251096
0.00295033
0.00332325
0.00364426
0.00392103
0.0041565
0.00434854
0.00448954
0.00456753
0.00457
0.00449083
0.00433855
0.00414002
0.0039333
0.00375206
0.00361345
0.00351778
0.00345629
0.00341859
0.00339583
0.00338336
0.00337691
0.00160813
0.00209774
0.00253527
0.00293374
0.0032891
0.00360287
0.00387776
0.004115
0.00431216
0.00446194
0.00455261
0.00457114
0.00450949
0.00437273
0.00418377
0.00397862
0.00379217
0.00364499
0.0035406
0.00347187
0.00342867
0.00340231
0.0033866
0.00337803
0.00172311
0.0021466
0.00253881
0.00290911
0.00325028
0.00355795
0.00383156
0.00407105
0.00427386
0.00443307
0.00453743
0.00457367
0.00453207
0.00441409
0.00423808
0.00403683
0.00384563
0.00368857
0.00357315
0.00349472
0.00344384
0.00341165
0.00339182
0.00337998
0.00178832
0.00216713
0.00252692
0.00287597
0.00320556
0.00350827
0.00378132
0.00402365
0.00423259
0.00440176
0.00452053
0.00457574
0.00455634
0.00446036
0.00430111
0.00410713
0.0039129
0.00374553
0.00361713
0.00352642
0.00346537
0.00342519
0.00339927
0.00338299
0.00182524
0.0021689
0.00250264
0.00283411
0.00315387
0.00345263
0.00372589
0.00397168
0.00418726
0.00436679
0.00450044
0.00457547
0.00457994
0.00450884
0.00437042
0.00418801
0.00399381
0.003817
0.00367435
0.0035689
0.00349489
0.00344411
0.00340979
0.00338731
0.00184371
0.00215744
0.002468
0.00278352
0.0030944
0.00338996
0.00366412
0.00391399
0.00413669
0.00432691
0.0044757
0.004571
0.00460045
0.00455661
0.00444294
0.00427704
0.00408736
0.00390357
0.00374657
0.00362432
0.00353436
0.00346987
0.00342449
0.00339349
0.00184966
0.0021364
0.00242465
0.00272444
0.0030266
0.0033193
0.00359488
0.0038494
0.00407969
0.00428089
0.0044449
0.00456055
0.00461553
0.00460064
0.00451515
0.00437089
0.00419132
0.00400475
0.00383494
0.00369477
0.00358604
0.00350437
0.00344461
0.00340211
0.00184692
0.00210847
0.0023742
0.0026574
0.0029502
0.00323988
0.00351713
0.00377672
0.00401503
0.00422742
0.00440664
0.00454244
0.00462297
0.00463791
0.00458322
0.00446531
0.00430199
0.00411842
0.00393929
0.00378164
0.00365205
0.00354967
0.00347158
0.00341367
0.00183815
0.00207592
0.00231834
0.00258327
0.00286525
0.00315114
0.0034299
0.0036948
0.00394143
0.0041652
0.00435951
0.00451509
0.0046207
0.00466559
0.00464326
0.00455548
0.00441436
0.00424053
0.00405753
0.00388495
0.00373384
0.00360766
0.00350685
0.00342865
0.00182521
0.00204078
0.00225899
0.00250337
0.00277227
0.00305284
0.00333243
0.00360251
0.0038576
0.00409285
0.00430211
0.00447692
0.00460684
0.00468109
0.00469159
0.00463644
0.00452252
0.00436526
0.00418525
0.0040025
0.00383131
0.00367949
0.00355167
0.00344747
0.00180929
0.00200483
0.00219821
0.00241949
0.00267228
0.00294517
0.0032242
0.00349888
0.00376229
0.00400898
0.00423296
0.00442642
0.00457966
0.00468219
0.00472501
0.00470356
0.00462031
0.00448558
0.00431578
0.00412935
0.00394193
0.00376466
0.00360648
0.00347018
0.00179084
0.00196956
0.00213819
0.00233387
0.00256693
0.00282887
0.00310511
0.00338316
0.00365433
0.0039122
0.00415058
0.00436205
0.00453755
0.00466696
0.00474087
0.00475288
0.00470206
0.00459412
0.00444096
0.00425793
0.00406003
0.00386001
0.00367007
0.00349615
0.00176931
0.00193616
0.00208093
0.00224911
0.00245854
0.00270539
0.00297563
0.00325502
0.00353282
0.00380123
0.00405351
0.00428231
0.00447898
0.00463378
0.0047371
0.00478136
0.00476306
0.00468418
0.00455228
0.00437897
0.00417709
0.0039591
0.00373859
0.00352342
0.00174126
0.00190575
0.00202792
0.0021678
0.00235003
0.00257705
0.00283704
0.00311471
0.00339723
0.00367504
0.00394042
0.00418575
0.00440251
0.0045812
0.00471211
0.00478682
0.00479995
0.00475048
0.00464225
0.0044831
0.00428292
0.00405254
0.00380496
0.00354793
0.00170376
0.00187563
0.00197908
0.00209205
0.00224464
0.00244698
0.00269157
0.00296335
0.00324769
0.00353303
0.00381025
0.00407107
0.00430682
0.00450798
0.00466471
0.00476789
0.00481066
0.00478961
0.00470544
0.00456254
0.00436772
0.00412956
0.00385924
0.00356288
0.00166304
0.00183513
0.00193202
0.00202275
0.00214545
0.00231902
0.00254251
0.00280312
0.00308523
0.00337528
0.00366243
0.00393734
0.0041908
0.00441308
0.004594
0.00472378
0.00479425
0.00479997
0.0047389
0.00461233
0.00442411
0.00418043
0.00389038
0.00355885
0.00161655
0.00177693
0.00188462
0.00195949
0.00205473
0.00219717
0.00239413
0.00263743
0.00291204
0.00320284
0.00349713
0.00378412
0.00405376
0.00429576
0.00449944
0.00465426
0.00475074
0.00478154
0.00474213
0.00463086
0.00444861
0.00419896
0.00388891
0.00352503
0.00154895
0.0016957
0.00183262
0.0018998
0.0019731
0.00208489
0.00225122
0.00247088
0.00273166
0.00301802
0.00331555
0.00361185
0.00389564
0.00415582
0.00438098
0.00455965
0.00468101
0.00473579
0.00471697
0.00461993
0.00444229
0.00418434
0.00385011
0.00345166
0.00143375
0.00158607
0.00176649
0.00183814
0.00189868
0.00198401
0.00211829
0.00230889
0.00254899
0.00282454
0.00312022
0.00342203
0.00371731
0.00399385
0.00423931
0.00444116
0.0045871
0.00466588
0.00466786
0.0045852
0.00441169
0.00414289
0.00377707
0.00333313
0.00123745
0.00142966
0.00167079
0.00176566
0.00182658
0.00189384
0.00199846
0.00215688
0.00236996
0.00262761
0.00291515
0.00321755
0.00352078
0.00381144
0.00407613
0.00430116
0.00447276
0.00457764
0.0046034
0.00453867
0.00437253
0.00409349
0.00368826
0.00317402
0.000887603
0.00121535
0.00151522
0.00167324
0.00174914
0.00181041
0.00189225
0.00201911
0.00220076
0.0024336
0.00270583
0.00300271
0.00330932
0.00361123
0.00389406
0.00414316
0.00434359
0.00448042
0.00453899
0.00450471
0.00436204
0.00409187
0.00366369
0.00302762
0.00042547
0.000842964
0.00123746
0.00152696
0.00164923
0.001724
0.00179566
0.00189678
0.00204631
0.0022491
0.00249885
0.00278313
0.00308733
0.00339655
0.00369589
0.00397039
0.00420495
0.00438471
0.00449533
0.00452339
0.00445889
0.00430728
0.00411981
0.00400361
1.07031e-06
5.62701e-06
1.8247e-05
3.90451e-05
6.1632e-05
9.7883e-05
3.42834e-05
7.5569e-05
0.000136853
0.000195635
0.000238256
0.000268169
0.000190331
0.000149402
0.000254408
0.000340237
0.000392054
0.000408106
4.85177e-05
0.000198711
0.000343041
0.000447769
0.000510753
0.000533935
5.28669e-05
0.000237816
0.000411524
0.000530669
0.000605324
0.000642656
5.59971e-05
0.000271885
0.000464582
0.000594873
0.000680869
0.000731646
5.83199e-05
0.000302369
0.000507157
0.000645915
0.000742097
0.000804953
6.00709e-05
0.000329408
0.000541373
0.000686622
0.00079171
0.000864869
6.1388e-05
0.00035275
0.000567962
0.000718358
0.000831332
0.000913308
6.23579e-05
0.000371572
0.000587039
0.000741764
0.000862146
0.000952079
6.30461e-05
0.000384771
0.000598519
0.000757118
0.000885123
0.000983503
6.34882e-05
0.000391507
0.000602258
0.000764428
0.000900634
0.00100868
6.3569e-05
0.000392274
0.000597974
0.000763177
0.000908497
0.00102729
6.33073e-05
0.00038763
0.000585806
0.000753716
0.000908045
0.00103983
6.26512e-05
0.000377404
0.000565285
0.000735039
0.000898778
0.00104604
6.15801e-05
0.000361365
0.00053624
0.000706174
0.000878739
0.0010441
6.0063e-05
0.000339241
0.000498664
0.000665863
0.000845581
0.00103101
5.80578e-05
0.000310798
0.000452306
0.000612759
0.00079573
0.0010047
5.54668e-05
0.000275799
0.00039703
0.000546015
0.000725879
0.000959913
5.21605e-05
0.0002338
0.000333107
0.000465015
0.000633967
0.00088197
4.79697e-05
0.000184142
0.000261329
0.000369593
0.00051817
0.000753717
0.000186987
0.000126134
0.000181748
0.000262205
0.000380398
0.000562538
3.36165e-05
5.89612e-05
9.3523e-05
0.000148572
0.000229714
0.000317511
1.00474e-06
5.09017e-06
1.8341e-05
5.19996e-05
0.000112747
0.000199179
0.000256191
0.00062997
0.00101794
0.00133519
0.00153236
0.00163095
0.0017044
0.00178862
0.00190936
0.00207984
0.0023011
0.00256534
0.00286001
0.00317088
0.00348339
0.00378325
0.00405695
0.00429241
0.00447958
0.00461056
0.00468102
0.00469674
0.00468399
0.00468886
0.000191454
0.000486774
0.000812524
0.00112957
0.00140212
0.00152968
0.00161404
0.00169121
0.0017898
0.00192941
0.00211866
0.0023561
0.00263327
0.00293816
0.00325764
0.00357917
0.0038918
0.0041869
0.00445745
0.00469616
0.00489386
0.00504244
0.00514089
0.00521783
0.000264385
0.000420586
0.000666735
0.000966077
0.00122967
0.00142148
0.0015228
0.00160135
0.00168574
0.00179903
0.00195593
0.00216176
0.00241367
0.00270355
0.00302111
0.00335656
0.0037022
0.00405226
0.00440012
0.00473374
0.00503387
0.00526995
0.00545243
0.0055643
0.000438759
0.000430161
0.000583081
0.00082635
0.00108059
0.00130654
0.00143204
0.00151636
0.00159386
0.00168732
0.0018148
0.00198722
0.00220781
0.00247361
0.00277855
0.00311664
0.00348395
0.00387742
0.00428962
0.00470232
0.00508084
0.00538429
0.00563142
0.00576523
0.000615261
0.000492017
0.000584209
0.000718121
0.000939737
0.00116305
0.00133467
0.00143113
0.00150932
0.00159067
0.00169439
0.0018351
0.00202129
0.00225561
0.00253706
0.00286428
0.00323769
0.00365747
0.0041162
0.00459072
0.00502741
0.00539454
0.00568878
0.00584528
0.000741253
0.000610188
0.000622125
0.000678912
0.000840069
0.00103835
0.00122464
0.00134291
0.00142792
0.0015046
0.00159165
0.0017053
0.00185768
0.00205628
0.0023052
0.00260801
0.00296989
0.00339516
0.00387853
0.00439503
0.00487741
0.0052981
0.00563113
0.00581383
0.000835639
0.000747992
0.000698938
0.000697266
0.000780407
0.000936642
0.00110976
0.00124752
0.00134452
0.00142357
0.00150171
0.00159513
0.00171775
0.00188035
0.00209129
0.00235859
0.00269199
0.00310078
0.00358441
0.00412045
0.00463592
0.00509864
0.00546305
0.0056764
0.000911284
0.000869449
0.000794238
0.00076934
0.000760883
0.000870183
0.00101311
0.00114773
0.00125703
0.00134331
0.00141946
0.00150015
0.00159939
0.00172955
0.00190158
0.00212669
0.00241825
0.00279037
0.0032493
0.00377969
0.00431322
0.00480412
0.0051918
0.00543933
0.000972576
0.000963988
0.000898061
0.000847291
0.000811464
0.0008335
0.000943203
0.0010609
0.00117032
0.00126224
0.00134039
0.00141502
0.00149828
0.00160229
0.00173884
0.00192055
0.00216268
0.00248287
0.00289436
0.00339222
0.00392494
0.00442444
0.00483997
0.00510589
0.00102158
0.00103598
0.00099221
0.000932494
0.000896695
0.000847182
0.000897798
0.000992651
0.00109105
0.00118287
0.00126303
0.00133572
0.00140953
0.00149468
0.00160216
0.00174424
0.00193608
0.00219646
0.00254369
0.00298363
0.00349408
0.0039811
0.00441565
0.0046942
0.00106169
0.00109182
0.00107078
0.00102074
0.000980959
0.000920603
0.000895352
0.000947905
0.00102626
0.00110992
0.00118876
0.00126052
0.00132918
0.00140203
0.00148796
0.00159754
0.00174411
0.00194509
0.00222069
0.00258615
0.00303757
0.00350728
0.00393502
0.00422289
0.00109555
0.00113697
0.00113413
0.00110121
0.00105701
0.00101339
0.000946479
0.00094268
0.000986478
0.00105192
0.00112268
0.0011909
0.00125558
0.00132043
0.00139149
0.00147673
0.00158666
0.00173549
0.00194165
0.00222431
0.00259258
0.0030243
0.00342145
0.00371834
0.00112427
0.00117535
0.00118568
0.00116869
0.00113233
0.00109769
0.00102844
0.000986002
0.000987627
0.00102147
0.00107369
0.00113218
0.00119075
0.00124867
0.00130921
0.00137721
0.00145975
0.00156727
0.0017141
0.00191814
0.0021961
0.00255089
0.00291954
0.00320067
0.00114992
0.00120967
0.00122939
0.00122547
0.00120372
0.00116974
0.00112531
0.00105823
0.00103046
0.001031
0.00105559
0.00109519
0.00114151
0.00119021
0.00124086
0.00129579
0.00135877
0.00143604
0.00153732
0.001676
0.00186854
0.00212878
0.0024491
0.00270345
0.00117214
0.00124161
0.00126849
0.00127455
0.00126548
0.00124133
0.00121059
0.00115159
0.00110817
0.00108395
0.00107988
0.00109384
0.00112022
0.00115383
0.00119198
0.0012341
0.00128131
0.00133665
0.00140542
0.00149578
0.00161943
0.00179161
0.00202481
0.00225871
0.00119054
0.00127222
0.00130538
0.00131904
0.00132083
0.00131018
0.00128686
0.00125283
0.00120392
0.00117086
0.00114785
0.00113787
0.00114053
0.00115336
0.00117383
0.00120012
0.0012315
0.00126855
0.00131338
0.00136991
0.00144441
0.00154676
0.00169308
0.00188321
0.00120389
0.00130199
0.00134181
0.00136157
0.00137222
0.00137332
0.00136309
0.00134385
0.00130974
0.00127748
0.00124831
0.00122407
0.0012074
0.00119916
0.00119904
0.00120605
0.00121915
0.00123777
0.00126213
0.00129346
0.00133423
0.00138861
0.00146648
0.00159924
0.00120968
0.00133061
0.00137884
0.0014042
0.00142203
0.00143301
0.00143499
0.00142758
0.00141177
0.00138744
0.00136214
0.00133534
0.00130972
0.00128757
0.00127039
0.00125885
0.00125297
0.00125246
0.00125709
0.0012669
0.00128247
0.00130501
0.00133558
0.00141474
0.00120509
0.00135654
0.00141656
0.00144819
0.00147247
0.00149114
0.00150276
0.00150616
0.00150152
0.00148977
0.00147185
0.00144985
0.0014247
0.00139844
0.0013729
0.00134956
0.00132935
0.00131276
0.00130002
0.00129118
0.00128626
0.00128595
0.00128636
0.00132459
0.00118802
0.00137619
0.00145347
0.00149324
0.0015248
0.00155052
0.00156923
0.00157997
0.00158301
0.00157892
0.00156811
0.00155202
0.00153151
0.00150758
0.00148129
0.0014542
0.00142769
0.00140237
0.00137868
0.0013571
0.0013376
0.00132111
0.00130379
0.00131541
0.00115408
0.00138385
0.0014858
0.00153595
0.00157725
0.0016119
0.00163792
0.00165448
0.00166153
0.00166131
0.00165389
0.00164036
0.00162196
0.00159949
0.00157471
0.00154859
0.00152213
0.00149622
0.00147056
0.00144513
0.00142056
0.00139658
0.00136979
0.00136568
0.00109519
0.00137798
0.00150736
0.00156843
0.00162196
0.0016695
0.0017069
0.00173204
0.00174429
0.00174723
0.00174136
0.00172818
0.00170939
0.0016864
0.00166053
0.00163278
0.00160388
0.00157478
0.00154727
0.00152236
0.0015005
0.00148393
0.00147325
0.00147818
0.000998721
0.00135777
0.0015102
0.00157869
0.0016421
0.001702
0.00175508
0.00179707
0.00182119
0.00183369
0.001836
0.00182786
0.00181154
0.00178899
0.00176215
0.00173279
0.00170246
0.0016725
0.00164403
0.00161789
0.00159482
0.00157569
0.00156386
0.00156715
0.000897075
0.00132851
0.00148696
0.0015497
0.00161131
0.00167321
0.0017351
0.00178754
0.00181949
0.00184992
0.00187049
0.00188019
0.00188066
0.0018732
0.00185951
0.00184122
0.00181989
0.00179697
0.00177383
0.00175179
0.00173218
0.0017165
0.00170656
0.00170374
7.84429e-07
4.68546e-06
2.5399e-05
6.36005e-05
0.000119951
0.000200363
2.74846e-05
2.57191e-05
8.47075e-05
0.000159029
0.000262908
0.000419255
0.000165425
6.54915e-05
0.000165511
0.000274283
0.000428111
0.000647208
0.000185929
0.000109271
0.000240383
0.000379363
0.000567616
0.000799559
0.000200159
0.000151769
0.000305046
0.000467502
0.000669699
0.00087481
4.84728e-05
0.00018997
0.000358911
0.000536477
0.000737038
0.000903148
5.01051e-05
0.000223327
0.000402336
0.000587994
0.00077377
0.000908112
5.12243e-05
0.000250532
0.000436181
0.000622368
0.00078983
0.000899677
5.19795e-05
0.000271134
0.000460491
0.000642698
0.000792458
0.00088295
5.24164e-05
0.000285422
0.000476314
0.000651415
0.000786229
0.000861179
5.25476e-05
0.000293314
0.0004844
0.000650951
0.000773121
0.00083626
5.24464e-05
0.000295001
0.000485215
0.000643037
0.000754196
0.000808595
5.21333e-05
0.000289868
0.000479075
0.00062871
0.000730097
0.000777814
5.17011e-05
0.00027787
0.000466232
0.000608546
0.000701099
0.000742837
5.11221e-05
0.000260292
0.000447013
0.000582894
0.00066707
0.000702393
5.03686e-05
0.000238695
0.000422037
0.000552008
0.000627729
0.000655042
4.93882e-05
0.000215212
0.000392483
0.000516119
0.000583125
0.000600596
4.78504e-05
0.000193797
0.000360324
0.000475181
0.000533688
0.000540918
0.000197975
0.000187709
0.00032786
0.00042847
0.000479345
0.000474597
0.000190421
0.000177604
0.000292029
0.000374669
0.00041868
0.000401354
0.000179304
0.000158068
0.000245377
0.000310152
0.000348011
0.00032712
0.000164365
0.000120122
0.000181108
0.000229539
0.00026182
0.000251793
2.91626e-05
5.7525e-05
9.26478e-05
0.000125359
0.000147922
0.00017525
9.13025e-07
3.29526e-06
8.06986e-06
1.61966e-05
2.63273e-05
4.96518e-05
0.000921945
0.00130338
0.001435
0.00148561
0.00154152
0.00160158
0.00166718
0.0017288
0.00176992
0.00181182
0.00184739
0.00187168
0.0018858
0.0018916
0.00189056
0.00188416
0.00187378
0.00186075
0.00184633
0.0018318
0.00181853
0.00180803
0.00180177
0.00180066
0.00100215
0.00127489
0.00136064
0.00139465
0.00143495
0.00148261
0.00153792
0.00159784
0.00164321
0.0016886
0.00173381
0.00177384
0.0018079
0.00183506
0.00185515
0.0018695
0.00187887
0.001884
0.00188578
0.0018852
0.00188341
0.00188169
0.00188091
0.00188227
0.00105255
0.00122969
0.00126768
0.00127649
0.00129371
0.00132149
0.00135838
0.00140515
0.00144935
0.00148782
0.0015326
0.00157643
0.00161887
0.0016596
0.00169835
0.00173377
0.00176587
0.00179475
0.00182046
0.00184306
0.00186264
0.00187938
0.00189412
0.00190762
0.00106404
0.00116735
0.00116239
0.00114297
0.00113397
0.00113883
0.00115734
0.00118854
0.00122709
0.00127806
0.00133619
0.00139431
0.00145068
0.00150163
0.00154712
0.00158771
0.00162374
0.00165561
0.00168385
0.00170902
0.0017316
0.00175182
0.00176925
0.00178649
0.00105177
0.00109331
0.00105372
0.00100625
0.000971041
0.000952704
0.000953435
0.000974786
0.00101598
0.0010651
0.00111746
0.00117419
0.00123484
0.00129612
0.00135446
0.00140958
0.00146098
0.00150798
0.00155029
0.00158791
0.00162103
0.00164995
0.00167364
0.00169618
0.0010231
0.00101799
0.000949977
0.000877125
0.000817838
0.000778612
0.000763147
0.000761701
0.000768483
0.000789282
0.00082331
0.000868692
0.000921867
0.000979293
0.00103786
0.00109529
0.00115015
0.00120144
0.00124844
0.00129081
0.00132819
0.00136146
0.00138687
0.00141573
0.00098538
0.000947891
0.000858317
0.000765496
0.000689294
0.000634924
0.000599515
0.000565408
0.000551323
0.000555363
0.000575088
0.00060913
0.000651656
0.000700132
0.000750751
0.000801052
0.000849395
0.00089451
0.000935077
0.00097071
0.00100005
0.00102542
0.00103955
0.00105687
0.000945385
0.000887242
0.000784263
0.000683353
0.000603127
0.000543641
0.000500756
0.000445678
0.000436487
0.000457549
0.000502607
0.000557433
0.000614481
0.000665499
0.000710435
0.000749713
0.000783713
0.000813083
0.000837876
0.000857949
0.000872655
0.000884628
0.000887401
0.000899726
0.000907196
0.000837627
0.000728478
0.000623516
0.000542938
0.000489918
0.000444955
0.000401245
0.000412271
0.000459277
0.000524862
0.000592797
0.000656043
0.000715418
0.000771037
0.000822988
0.000870513
0.000913104
0.000951924
0.000987987
0.00102055
0.00105143
0.00108085
0.00114161
0.000872096
0.000797842
0.000688249
0.000578916
0.00050121
0.000461092
0.000398393
0.000386959
0.000422278
0.000487276
0.000560507
0.00063545
0.000709588
0.000782993
0.000857546
0.000935036
0.0010153
0.00109597
0.00117368
0.00125111
0.00133535
0.00142603
0.00154237
0.00168683
0.000839213
0.000763383
0.000654825
0.000541468
0.000466372
0.000431453
0.00037346
0.000390488
0.000458451
0.000546587
0.00064505
0.000742583
0.00083578
0.000925167
0.00101243
0.00110101
0.00119622
0.00130393
0.00142909
0.00157436
0.00173847
0.00193424
0.00216996
0.00236366
0.000805877
0.000727277
0.000619178
0.000499911
0.000440074
0.00038092
0.00036362
0.000429389
0.000527902
0.000647004
0.000773476
0.000900918
0.00102873
0.00115692
0.00128458
0.00141058
0.00153596
0.0016666
0.00181414
0.00199383
0.00221736
0.00252243
0.00282956
0.00302822
0.000767887
0.000680412
0.000566008
0.000444715
0.000413933
0.000351639
0.000397584
0.00049902
0.000630998
0.000775261
0.000921708
0.00106874
0.0012185
0.00137357
0.00153705
0.00171232
0.00190262
0.00211156
0.00234483
0.0026115
0.00292348
0.00324561
0.00350209
0.00372231
0.000721826
0.000621225
0.000493913
0.000416625
0.000360175
0.000362085
0.000459614
0.000596977
0.000757546
0.000925381
0.00109615
0.00126773
0.00143872
0.00161052
0.00178807
0.00198007
0.00219855
0.0024571
0.00276662
0.00312792
0.0035236
0.00387361
0.00416291
0.00440728
0.000666945
0.000557755
0.000411717
0.000378537
0.000331492
0.000416571
0.000550918
0.000722126
0.000908046
0.00110253
0.00130262
0.00150612
0.00171264
0.00192354
0.00214243
0.00237632
0.00263648
0.00293687
0.00328803
0.00368662
0.00409026
0.0044439
0.00476831
0.00496588
0.000598889
0.000481454
0.000371774
0.000329595
0.000364675
0.000491903
0.000665239
0.00086701
0.00108279
0.00130666
0.0015342
0.00176412
0.00199853
0.00224221
0.00250194
0.00278617
0.00310434
0.0034641
0.00386513
0.0042919
0.00467915
0.0050175
0.00532139
0.00547454
0.000521319
0.000388985
0.000332813
0.000314319
0.00042658
0.000595558
0.000806664
0.00103707
0.00128023
0.00153055
0.00178432
0.00204048
0.0023011
0.0025714
0.00285951
0.00317567
0.00352983
0.00392649
0.00435755
0.00479811
0.00517454
0.00551745
0.00579422
0.00592876
0.000443784
0.00031412
0.000298443
0.000341757
0.000512222
0.000723526
0.00096505
0.00122585
0.00149888
0.00177704
0.00205654
0.0023377
0.0026239
0.00292064
0.0032352
0.00357613
0.0039508
0.00436003
0.0047916
0.00521404
0.00556971
0.00589501
0.0061329
0.0062531
0.000357488
0.000282035
0.000284733
0.000409615
0.000633469
0.000880209
0.00115027
0.00143991
0.0017388
0.00203932
0.00233924
0.00264043
0.0029469
0.0032638
0.00359706
0.0039527
0.00433458
0.0047397
0.00515342
0.0055454
0.00586691
0.0061589
0.00636032
0.00646637
0.000237092
0.00026062
0.000301285
0.000507016
0.000772175
0.00104385
0.00134762
0.00166809
0.00199103
0.0023106
0.0026272
0.00294399
0.00326487
0.00359376
0.00393453
0.00429049
0.00466257
0.00504564
0.00542493
0.00577681
0.00605517
0.0063048
0.00647261
0.00656483
0.000150231
0.00025312
0.000358433
0.000627718
0.000930855
0.00124201
0.00157773
0.00191874
0.00225579
0.00258718
0.00291489
0.00324188
0.00357076
0.00390336
0.00424084
0.00458359
0.00493011
0.00527461
0.00560454
0.00590131
0.0061334
0.0063274
0.00646138
0.0065386
0.000141635
0.000263345
0.000458865
0.000797064
0.00110981
0.00145608
0.00181479
0.00217129
0.00251972
0.00286019
0.0031952
0.00352718
0.00385726
0.00418507
0.00450901
0.00482662
0.00513433
0.00542635
0.0056931
0.00592155
0.00609699
0.00622207
0.00631477
0.0063722
0.000158165
0.000310338
0.000623628
0.000978079
0.00132308
0.00169329
0.00206585
0.00242997
0.00278328
0.00312727
0.00346419
0.0037952
0.00411958
0.00443461
0.00473603
0.00501878
0.00527743
0.00550609
0.00569776
0.00584451
0.00594054
0.00598696
0.00601339
0.00603944
0.000172471
0.000398542
0.000800138
0.0011643
0.00155008
0.0019368
0.00231566
0.00268292
0.00303802
0.0033823
0.00371708
0.0040421
0.0043548
0.00465035
0.00492229
0.00516334
0.0053664
0.0055249
0.00563276
0.00568473
0.00567882
0.00562235
0.00554515
0.00550557
9.92412e-07
7.42768e-06
2.95381e-05
7.12436e-05
0.000143846
5.08671e-05
3.25585e-05
7.72342e-05
0.00015482
0.000246502
0.000352741
0.000398354
0.000184778
0.000150576
0.000262455
0.000374092
0.000491751
0.000634407
0.00019878
0.000203177
0.00033357
0.000451557
0.000574107
0.000719015
4.80317e-05
0.000237627
0.000375946
0.000498544
0.000608185
0.000753813
4.97054e-05
0.000259879
0.000399358
0.000520213
0.000618355
0.000795415
5.10295e-05
0.000274046
0.000411615
0.000524769
0.000628976
0.000825019
5.19774e-05
0.000283061
0.000416184
0.0005189
0.000643304
0.000851382
5.25953e-05
0.00028861
0.000415638
0.000511302
0.000655264
0.000879171
5.29382e-05
0.000291517
0.000411453
0.000504084
0.000664598
0.000906601
5.3061e-05
0.000292028
0.000404541
0.000496326
0.000671093
0.000931675
5.30268e-05
0.000290074
0.000395434
0.000486185
0.000674337
0.000952558
5.28658e-05
0.000285416
0.00038418
0.000472809
0.000673589
0.000967146
5.24651e-05
0.000277938
0.000370669
0.000455734
0.000667417
0.00097365
5.17578e-05
0.000267511
0.000354817
0.000435401
0.000653968
0.000971048
5.07254e-05
0.000254023
0.000336213
0.000410716
0.000631338
0.000958047
4.94074e-05
0.000237404
0.000314553
0.000381689
0.000597653
0.000933087
4.78894e-05
0.00021771
0.000289197
0.00034835
0.000551178
0.000894116
0.000199932
0.00019536
0.000258946
0.000310856
0.000490552
0.000838064
0.000191375
0.000170074
0.000222344
0.000269215
0.000415243
0.000759765
0.000178779
0.000139815
0.000178378
0.000222622
0.000326914
0.000649971
0.000162271
0.000100241
0.000126841
0.000167111
0.000231305
0.000492978
2.84012e-05
4.76833e-05
6.51093e-05
9.77419e-05
0.000137645
0.000272796
8.09168e-07
2.56634e-06
9.04846e-06
3.10618e-05
6.5156e-05
0.000101721
0.000227148
0.000651824
0.00109156
0.00144137
0.00180469
0.00218222
0.00255946
0.00292667
0.00328087
0.00362231
0.00395119
0.00426581
0.00456196
0.00483307
0.00507099
0.00526701
0.0054128
0.00550095
0.0055249
0.00547881
0.00535905
0.00516991
0.00493554
0.00472483
0.000635728
0.00104809
0.00131264
0.001635
0.0020111
0.00240339
0.00278784
0.00315641
0.00350835
0.00384452
0.0041645
0.00446538
0.00474155
0.00498522
0.00518734
0.00533873
0.00543102
0.00545715
0.00541081
0.00528484
0.00506817
0.00474104
0.00426378
0.00357197
0.000851036
0.00115129
0.00144995
0.0018172
0.00221846
0.00261983
0.00300551
0.00337162
0.00371864
0.00404716
0.00435579
0.00464044
0.00489445
0.00510934
0.00527594
0.00538572
0.0054317
0.00540899
0.00531435
0.00514499
0.00489643
0.00456
0.00412028
0.00354299
0.000958648
0.00126471
0.00160539
0.0020008
0.00241548
0.00282121
0.00320631
0.00356877
0.0039095
0.00422866
0.00452399
0.00479049
0.00502079
0.00520621
0.00533813
0.00540939
0.0054153
0.00535394
0.00522568
0.0050319
0.00477307
0.00444691
0.00404713
0.00355289
0.00103921
0.00136654
0.00174879
0.00216996
0.00259642
0.00300542
0.00338897
0.00374669
0.00407977
0.00438794
0.00466821
0.00491483
0.00512
0.00527522
0.00537284
0.00540761
0.00537758
0.00528424
0.00513165
0.00492477
0.00466709
0.00435913
0.00399905
0.00357224
0.00109088
0.0014607
0.00188082
0.00232443
0.00276064
0.00317168
0.00355267
0.00390453
0.00422865
0.00452431
0.00478787
0.00501298
0.00519163
0.00531575
0.005379
0.00537833
0.00531471
0.00519295
0.00502032
0.00480452
0.00455111
0.00426255
0.00394043
0.00357516
0.00114232
0.00155091
0.00200227
0.00246412
0.00290787
0.00331964
0.00369703
0.00404194
0.00435586
0.00463762
0.00488299
0.00508512
0.005236
0.00532823
0.00535705
0.00532184
0.00522668
0.00507958
0.00489075
0.00467009
0.00442456
0.00415787
0.00387364
0.00356563
0.00119566
0.00163559
0.0021122
0.00258874
0.0030381
0.00344935
0.0038221
0.00415905
0.00446165
0.00472833
0.00495426
0.00513227
0.00525446
0.00531439
0.00530913
0.0052408
0.00511667
0.0049479
0.00474727
0.0045263
0.00429261
0.00405027
0.00380355
0.00354805
0.00124787
0.00171314
0.00221014
0.00269844
0.00315166
0.00356121
0.00392835
0.00425641
0.00454679
0.00479745
0.00500306
0.00515621
0.00524931
0.00527708
0.00523876
0.00513943
0.00498965
0.00480361
0.00459614
0.00437963
0.00416152
0.00394529
0.00373474
0.00352618
0.00129631
0.00178202
0.00229581
0.00279355
0.00324909
0.00365584
0.00401651
0.00433497
0.00461247
0.00484652
0.00503135
0.00515938
0.00522354
0.00521993
0.00515026
0.00502278
0.00485142
0.00465305
0.00444393
0.00423641
0.00403688
0.00384746
0.00367065
0.00350291
0.00133853
0.00184097
0.00236902
0.00287447
0.00333104
0.00373408
0.00408761
0.00439596
0.00466022
0.00487747
0.0050415
0.00514469
0.00518061
0.00514703
0.00504837
0.00489626
0.00470791
0.00450242
0.00429664
0.00410197
0.00392294
0.00375985
0.00361347
0.0034802
0.00137291
0.00188934
0.00242972
0.00294168
0.00339828
0.00379687
0.00414281
0.00444084
0.00469185
0.00489248
0.00503616
0.00511528
0.00512421
0.00506263
0.00493789
0.00476514
0.00456466
0.00435713
0.00415909
0.00398007
0.00382225
0.0036839
0.00356412
0.00345926
0.00139865
0.00192707
0.00247784
0.00299571
0.00345165
0.00384531
0.00418345
0.0044712
0.00470927
0.00489388
0.0050181
0.0050744
0.0050581
0.00497094
0.00482345
0.00463431
0.00442648
0.00422148
0.00403458
0.00387279
0.00373573
0.00361978
0.00352263
0.00344075
0.00141505
0.00195422
0.00251324
0.00303719
0.00349202
0.00388052