/*--------------------------------*- C++ -*----------------------------------*\
  =========                 |
  \\      /  F ield         | OpenFOAM: The Open Source CFD Toolbox
   \\    /   O peration     | Website:  https://openfoam.org
    \\  /    A nd           | Version:  11
     \\/     M anipulation  |
\*---------------------------------------------------------------------------*/
FoamFile
{
    format      ascii;
    class       volScalarField;
    location    "1";
    object      p;
}
// * * * * * * * * * * * * * * * * * * * * * * * * * * * * * * * * * * * * * //

dimensions      [0 2 -2 0 0 0 0];

internalField   nonuniform List<scalar> 
2880
(
1.06746
1.03976
1.00932
0.976514
0.968975
0.979415
1.07508
1.04317
1.01413
0.981073
0.970246
0.972721
1.08468
1.0493
1.02056
0.987474
0.972485
0.964504
1.07987
1.05446
1.02553
0.993061
0.974677
0.958974
1.07347
1.05684
1.02823
0.996651
0.97513
0.953908
1.07112
1.05735
1.0292
0.998428
0.973791
0.948429
1.06928
1.05699
1.02908
0.998824
0.971192
0.942564
1.06667
1.05624
1.02827
0.998203
0.967733
0.936342
1.06364
1.05551
1.02711
0.996855
0.963616
0.92969
1.06088
1.05517
1.0259
0.995009
0.95896
0.922497
1.05894
1.05552
1.02492
0.992856
0.953845
0.914623
1.0582
1.0568
1.02433
0.990571
0.948301
0.905896
1.05891
1.05914
1.02429
0.988314
0.942328
0.896118
1.06119
1.06241
1.02502
0.986185
0.935913
0.885057
1.06491
1.06684
1.0265
0.984347
0.929033
0.87244
1.06983
1.07226
1.02876
0.982909
0.92168
0.857952
1.07558
1.07831
1.03175
0.981965
0.913902
0.841171
1.08166
1.08453
1.03531
0.981555
0.905796
0.821688
1.08749
1.09039
1.0392
0.981708
0.897426
0.79931
1.09249
1.09539
1.04319
0.982732
0.889059
0.774216
1.09626
1.09941
1.04762
0.985815
0.882091
0.747696
1.09914
1.10335
1.05409
0.992926
0.879932
0.722625
1.1023
1.10819
1.06358
1.00308
0.88477
0.694746
1.10551
1.11172
1.07018
1.00479
0.885376
0.678123
0.954167
0.903445
0.862341
0.825486
0.793532
0.765879
0.741937
0.72126
0.70353
0.688483
0.67589
0.665512
0.65706
0.650192
0.644551
0.639842
0.635882
0.632584
0.629918
0.627861
0.626394
0.625516
0.625198
0.625195
0.938716
0.894768
0.85643
0.821075
0.789901
0.762737
0.739127
0.718694
0.701138
0.686209
0.673691
0.663356
0.654933
0.648092
0.642484
0.637814
0.633891
0.630626
0.62798
0.625924
0.624449
0.623635
0.623557
0.623494
0.929959
0.889194
0.851428
0.816586
0.785707
0.758741
0.735281
0.714968
0.697497
0.68262
0.670122
0.659784
0.651348
0.644498
0.638896
0.634245
0.630347
0.627104
0.624467
0.622391
0.620886
0.620207
0.620603
0.620378
0.923446
0.883969
0.846264
0.811567
0.780741
0.753788
0.730346
0.710052
0.692592
0.677708
0.665182
0.6548
0.646313
0.639423
0.633799
0.629147
0.625259
0.622028
0.619391
0.617274
0.615725
0.615257
0.616358
0.615859
0.917301
0.87812
0.840379
0.805704
0.774809
0.747763
0.724245
0.703896
0.686388
0.671452
0.65886
0.648399
0.639831
0.632871
0.627201
0.622526
0.618635
0.615408
0.612761
0.61059
0.608992
0.608825
0.610868
0.609897
0.910847
0.871457
0.833575
0.798815
0.767764
0.740549
0.716891
0.696433
0.678836
0.663815
0.651132
0.64057
0.631897
0.624843
0.619103
0.614386
0.610474
0.607239
0.604571
0.602325
0.600634
0.600748
0.603971
0.602769
0.903891
0.863947
0.825757
0.79077
0.759477
0.732033
0.708189
0.687588
0.669876
0.654751
0.641963
0.631288
0.622498
0.615333
0.609504
0.604726
0.600775
0.597512
0.594802
0.592442
0.590573
0.590862
0.595426
0.594526
0.896329
0.855498
0.816794
0.781434
0.749815
0.722093
0.698032
0.677269
0.659433
0.644203
0.63131
0.620524
0.611615
0.604335
0.598408
0.593555
0.589552
0.586249
0.583482
0.580986
0.57892
0.57944
0.585427
0.584456
0.887979
0.845929
0.806501
0.770636
0.738623
0.71059
0.6863
0.665375
0.647424
0.632102
0.619122
0.60824
0.599226
0.59184
0.585815
0.580886
0.576828
0.573482
0.570657
0.568021
0.565764
0.566578
0.574115
0.572862
0.878609
0.834996
0.79464
0.758166
0.725715
0.697362
0.672853
0.651788
0.633752
0.618371
0.605338
0.594394
0.585304
0.577832
0.571726
0.566729
0.562621
0.559238
0.556358
0.553583
0.551134
0.552257
0.56142
0.559841
0.867947
0.822386
0.780907
0.743755
0.710861
0.682214
0.657527
0.636373
0.618305
0.602921
0.589889
0.578933
0.569812
0.562293
0.556135
0.551091
0.546949
0.54354
0.540617
0.537715
0.535076
0.536507
0.547332
0.545411
0.855656
0.807706
0.764918
0.727066
0.693779
0.664913
0.64013
0.618973
0.600958
0.585653
0.572699
0.561803
0.552715
0.545204
0.539037
0.53398
0.52983
0.526418
0.523473
0.520465
0.517649
0.519378
0.531862
0.52961
0.841309
0.790454
0.746191
0.707677
0.674119
0.645176
0.620439
0.599408
0.581569
0.566458
0.553687
0.542946
0.533975
0.526543
0.520427
0.515406
0.511286
0.507902
0.504967
0.501887
0.498919
0.500931
0.515033
0.512496
0.824347
0.769998
0.724117
0.685063
0.651453
0.622666
0.598188
0.577476
0.559983
0.545217
0.532766
0.522301
0.513555
0.506296
0.500309
0.495386
0.491346
0.488033
0.485147
0.482042
0.478963
0.481242
0.496883
0.494151
0.80403
0.745549
0.697937
0.658572
0.62526
0.596981
0.573073
0.552945
0.536028
0.521807
0.509851
0.499815
0.491427
0.484456
0.478694
0.473949
0.470054
0.466864
0.464076
0.461003
0.457868
0.4604
0.477457
0.474672
0.779336
0.716106
0.666676
0.627402
0.59491
0.567647
0.544745
0.525562
0.50952
0.496098
0.484855
0.475439
0.467573
0.461031
0.455615
0.451146
0.447474
0.444471
0.44184
0.438864
0.435742
0.438509
0.456813
0.454176
0.748919
0.680331
0.629085
0.590573
0.559668
0.53412
0.512811
0.495049
0.480267
0.467962
0.457701
0.449136
0.441992
0.43605
0.431124
0.427052
0.423702
0.420963
0.418556
0.415752
0.412719
0.415694
0.435017
0.4328
0.710991
0.636233
0.583681
0.546956
0.5187
0.495798
0.476848
0.461114
0.448075
0.437276
0.428323
0.420883
0.414698
0.409561
0.405302
0.401774
0.398867
0.396491
0.394388
0.391839
0.388975
0.392113
0.412152
0.410726
0.662971
0.581031
0.528785
0.495342
0.471122
0.452046
0.436414
0.423464
0.412755
0.403932
0.396667
0.390678
0.38573
0.381639
0.378256
0.375455
0.373143
0.371253
0.369555
0.367359
0.364749
0.367966
0.388319
0.388236
0.601266
0.511219
0.462568
0.434479
0.41605
0.402246
0.391087
0.38182
0.37414
0.367838
0.362706
0.358535
0.355144
0.352381
0.350124
0.348268
0.346743
0.3455
0.344344
0.342625
0.340363
0.343508
0.363627
0.365813
0.521572
0.422585
0.383052
0.363181
0.352684
0.345861
0.340507
0.335954
0.332097
0.328936
0.326431
0.324491
0.323013
0.321896
0.321053
0.320409
0.319912
0.319531
0.319111
0.318059
0.31627
0.31907
0.338103
0.344338
0.417614
0.310585
0.288284
0.280576
0.280483
0.282541
0.284443
0.285721
0.286552
0.287206
0.287862
0.288597
0.289414
0.290289
0.291186
0.292064
0.292895
0.293668
0.294283
0.29423
0.293175
0.295106
0.31136
0.325403
0.271141
0.171277
0.176286
0.18615
0.199249
0.212208
0.222853
0.231099
0.237508
0.242673
0.247045
0.250906
0.254409
0.25763
0.260604
0.263343
0.265854
0.26815
0.270279
0.27181
0.272203
0.273022
0.283972
0.311992
0.0407279
0.0137306
0.0510556
0.0816547
0.110002
0.135385
0.156014
0.17225
0.185074
0.195425
0.20405
0.211472
0.218024
0.223911
0.229263
0.234168
0.238696
0.242925
0.246921
0.25049
0.253122
0.256179
0.267895
0.288823
-0.541015
-0.525824
-0.527687
-0.543474
-0.570251
-0.643188
-0.544388
-0.530395
-0.536247
-0.55521
-0.57959
-0.64175
-0.549482
-0.536472
-0.545967
-0.566071
-0.584581
-0.610673
-0.547278
-0.541092
-0.553601
-0.574037
-0.590322
-0.608059
-0.547291
-0.54518
-0.559713
-0.580329
-0.597154
-0.612143
-0.549659
-0.549582
-0.565168
-0.585986
-0.604408
-0.619214
-0.552354
-0.554315
-0.570275
-0.59124
-0.61122
-0.627748
-0.555055
-0.559174
-0.575037
-0.596047
-0.617327
-0.636143
-0.5577
-0.563947
-0.579368
-0.60031
-0.622621
-0.643634
-0.560212
-0.568465
-0.58318
-0.603937
-0.627016
-0.649906
-0.562519
-0.572595
-0.586421
-0.60686
-0.630454
-0.654829
-0.564584
-0.576219
-0.589072
-0.609038
-0.632916
-0.658358
-0.566395
-0.579305
-0.591153
-0.610494
-0.63439
-0.660512
-0.567972
-0.581822
-0.592674
-0.611371
-0.63485
-0.661408
-0.569351
-0.583759
-0.593664
-0.611817
-0.634401
-0.66118
-0.570567
-0.585137
-0.594213
-0.611846
-0.633347
-0.660034
-0.571652
-0.586021
-0.594461
-0.61148
-0.631925
-0.658203
-0.572645
-0.586519
-0.594563
-0.610862
-0.630278
-0.656159
-0.57357
-0.586786
-0.594708
-0.610337
-0.628777
-0.654447
-0.57424
-0.587085
-0.595159
-0.610333
-0.627964
-0.653867
-0.573651
-0.587961
-0.596289
-0.611242
-0.628424
-0.655213
-0.572996
-0.590288
-0.59847
-0.613281
-0.630384
-0.658338
-0.574763
-0.593071
-0.601407
-0.616089
-0.63343
-0.663575
-0.576043
-0.595034
-0.602708
-0.615967
-0.637364
-0.701497
-0.298047
-0.165094
-0.0860401
-0.0301196
0.0152494
0.0534469
0.0846663
0.109594
0.129501
0.145624
0.158983
0.170347
0.180248
0.189037
0.19695
0.20415
0.21076
0.216881
0.222514
0.227364
0.231263
0.237415
0.25309
0.251492
-0.425757
-0.329383
-0.221202
-0.142743
-0.0818601
-0.0316819
0.00992268
0.0437803
0.0711831
0.0935155
0.112001
0.127618
0.141089
0.152917
0.163439
0.172879
0.181381
0.189029
0.195754
0.201191
0.205475
0.212906
0.229986
0.218056
-0.503244
-0.431433
-0.334496
-0.249242
-0.17811
-0.117862
-0.0669104
-0.024393
0.0106216
0.0394292
0.0633296
0.0834455
0.100661
0.115622
0.128775
0.140406
0.150686
0.1597
0.167387
0.173439
0.178225
0.186329
0.203579
0.188786
-0.565215
-0.494258
-0.424944
-0.346374
-0.271259
-0.203664
-0.144659
-0.0941254
-0.0516404
-0.0162512
0.013261
0.0380727
0.0591833
0.0773698
0.0931897
0.107009
0.119047
0.129423
0.138134
0.145001
0.150562
0.15924
0.176234
0.161692
-0.602153
-0.54881
-0.499012
-0.432867
-0.359844
-0.288111
-0.222511
-0.164748
-0.115092
-0.0731249
-0.0378678
-0.00819098
0.0169645
0.0384823
0.0570329
0.0730784
0.0869126
0.0987175
0.108574
0.116452
0.122983
0.132225
0.148834
0.136244
-0.623958
-0.598442
-0.560698
-0.508265
-0.442418
-0.37009
-0.299687
-0.235558
-0.179165
-0.130726
-0.0896514
-0.0549638
-0.0256104
-0.000633445
0.0207438
0.0390919
0.0548008
0.0681389
0.0792837
0.0883417
0.0959772
0.105803
0.12202
0.112449
-0.640547
-0.63799
-0.612824
-0.573632
-0.517412
-0.448136
-0.37516
-0.305757
-0.243174
-0.18848
-0.14159
-0.101783
-0.0680846
-0.0395043
-0.0151759
0.00558195
0.02327
0.0382591
0.0508292
0.0612047
0.0700438
0.0804892
0.0963406
0.0904337
-0.654528
-0.666729
-0.656376
-0.629916
-0.583664
-0.520395
-0.44749
-0.37427
-0.306221
-0.245626
-0.193031
-0.148068
-0.109913
-0.0775926
-0.0501783
-0.0268872
-0.00710496
0.00964975
0.0237623
0.0355597
0.0456756
0.0567904
0.0723021
0.0703367
-0.666337
-0.687307
-0.690877
-0.676523
-0.640625
-0.584707
-0.514696
-0.439569
-0.367084
-0.301127
-0.243095
-0.193063
-0.150429
-0.114287
-0.083674
-0.0577334
-0.0357474
-0.0171265
-0.00137976
0.0119122
0.0233565
0.0351775
0.0503935
0.052375
-0.676002
-0.702353
-0.716407
-0.712699
-0.687393
-0.639322
-0.574267
-0.499551
-0.424093
-0.353614
-0.290626
-0.235803
-0.188816
-0.148872
-0.115016
-0.0863512
-0.0620814
-0.0415212
-0.0240814
-0.00926482
0.00354435
0.0161196
0.0311219
0.0368005
-0.683497
-0.713203
-0.733878
-0.738618
-0.722487
-0.682781
-0.623628
-0.551583
-0.475059
-0.401299
-0.334143
-0.27504
-0.224031
-0.180532
-0.143505
-0.112115
-0.0855377
-0.0630183
-0.0438786
-0.027539
-0.0133639
1.45046e-05
0.0149045
0.0237935
-0.688811
-0.720364
-0.744475
-0.754764
-0.745338
-0.71349
-0.660564
-0.592769
-0.517324
-0.441983
-0.37172
-0.309367
-0.255091
-0.208067
-0.168265
-0.134348
-0.105556
-0.0811432
-0.0603601
-0.0425473
-0.0270738
-0.0128424
0.00204509
0.0134351
-0.69203
-0.724134
-0.749227
-0.762015
-0.756644
-0.730506
-0.683589
-0.62065
-0.548097
-0.473217
-0.401665
-0.336719
-0.280057
-0.230984
-0.188331
-0.152156
-0.121465
-0.0953992
-0.0731579
-0.0540276
-0.0373756
-0.0223072
-0.00734887
0.00578086
-0.693368
-0.724893
-0.749096
-0.761673
-0.757706
-0.734513
-0.692261
-0.633931
-0.565277
-0.492593
-0.421611
-0.356001
-0.297872
-0.246804
-0.2026
-0.165019
-0.132743
-0.105375
-0.0819994
-0.0618196
-0.0441968
-0.028409
-0.0133123
0.000856357
-0.693194
-0.723189
-0.744995
-0.755181
-0.750171
-0.727512
-0.687689
-0.633008
-0.568234
-0.498762
-0.429829
-0.365124
-0.306819
-0.25552
-0.210753
-0.17187
-0.138924
-0.110896
-0.0868013
-0.0659354
-0.0476732
-0.0313598
-0.0161565
-0.00162421
-0.691997
-0.719776
-0.738075
-0.744369
-0.736239
-0.712058
-0.672459
-0.619956
-0.558289
-0.492173
-0.426081
-0.363489
-0.306469
-0.255877
-0.211528
-0.173086
-0.14004
-0.111805
-0.0875212
-0.0664723
-0.0480308
-0.0315493
-0.016461
-0.00211165
-0.69051
-0.715599
-0.729623
-0.730981
-0.71823
-0.691
-0.649966
-0.597979
-0.538345
-0.475076
-0.411949
-0.352039
-0.29724
-0.248359
-0.205406
-0.168067
-0.135835
-0.108144
-0.084308
-0.0636591
-0.0455923
-0.0294553
-0.0148834
-0.00112486
-0.689477
-0.711827
-0.721063
-0.716897
-0.698792
-0.667436
-0.623596
-0.570766
-0.512058
-0.450835
-0.390319
-0.333096
-0.280819
-0.234192
-0.193239
-0.157632
-0.126885
-0.100442
-0.0776945
-0.0580327
-0.0409044
-0.0256637
-0.0121404
0.000654909
-0.689538
-0.709757
-0.713902
-0.703975
-0.680067
-0.643192
-0.596433
-0.541913
-0.483065
-0.423017
-0.364518
-0.309674
-0.259826
-0.215543
-0.176804
-0.143259
-0.114409
-0.089691
-0.0685301
-0.0503572
-0.0346711
-0.0208431
-0.00886391
0.00253134
-0.691747
-0.710275
-0.709711
-0.693969
-0.664411
-0.622622
-0.571663
-0.514606
-0.454743
-0.394939
-0.337714
-0.284727
-0.236994
-0.194898
-0.158334
-0.126909
-0.100088
-0.0772989
-0.0579789
-0.041591
-0.0276778
-0.015668
-0.00555332
0.00388006
-0.696971
-0.714513
-0.709652
-0.688337
-0.65355
-0.606897
-0.551726
-0.491612
-0.429976
-0.369631
-0.312773
-0.260903
-0.214744
-0.174479
-0.139881
-0.110471
-0.085653
-0.0648092
-0.0473688
-0.0328261
-0.0207562
-0.0107089
-0.0025831
0.0042799
-0.70586
-0.724011
-0.714315
-0.688331
-0.648843
-0.597645
-0.5384
-0.475019
-0.411103
-0.34946
-0.292184
-0.240595
-0.195267
-0.15623
-0.123131
-0.0954002
-0.0723734
-0.0533715
-0.0377764
-0.0250805
-0.0148681
-0.0067361
-0.000461511
0.00386886
-0.721346
-0.739602
-0.724904
-0.694852
-0.651006
-0.595551
-0.532289
-0.465423
-0.398809
-0.335328
-0.276983
-0.224998
-0.179822
-0.141398
-0.109237
-0.0826947
-0.061033
-0.0435011
-0.0294172
-0.0182525
-0.00959001
-0.00305005
0.00165413
0.00410713
-0.757942
-0.762175
-0.741721
-0.707864
-0.66018
-0.600765
-0.533313
-0.462474
-0.392533
-0.326576
-0.266549
-0.213602
-0.168062
-0.129675
-0.0979253
-0.0720911
-0.0513782
-0.0349951
-0.022264
-0.0125573
-0.00530089
4.33396e-05
0.00403295
0.00604947
-0.830885
-0.847034
-0.865525
-0.883229
-0.878477
-0.853473
-0.824442
-0.845291
-0.863267
-0.882963
-0.881348
-0.857234
-0.811767
-0.841265
-0.858534
-0.878873
-0.88097
-0.866658
-0.805159
-0.837802
-0.85486
-0.875117
-0.880196
-0.874609
-0.811259
-0.83661
-0.853465
-0.873353
-0.881166
-0.882324
-0.824139
-0.837291
-0.853891
-0.873169
-0.883734
-0.890446
-0.83215
-0.83841
-0.855079
-0.873847
-0.8871
-0.898462
-0.834641
-0.839457
-0.856491
-0.874897
-0.890523
-0.905629
-0.836549
-0.840211
-0.857843
-0.875963
-0.893431
-0.911301
-0.838622
-0.840543
-0.858871
-0.876719
-0.895403
-0.914963
-0.840418
-0.840323
-0.859389
-0.876907
-0.896146
-0.916265
-0.841439
-0.839423
-0.859342
-0.876388
-0.895516
-0.915069
-0.841383
-0.837953
-0.858568
-0.875161
-0.893524
-0.911464
-0.84016
-0.835762
-0.857329
-0.87332
-0.890333
-0.905743
-0.837842
-0.832889
-0.855706
-0.871015
-0.886227
-0.898343
-0.83461
-0.829452
-0.853828
-0.86846
-0.881579
-0.889738
-0.831007
-0.825543
-0.851919
-0.865945
-0.876827
-0.880536
-0.830735
-0.82185
-0.850353
-0.863897
-0.872493
-0.872173
-0.835718
-0.820241
-0.849487
-0.862862
-0.869404
-0.867088
-0.838517
-0.819861
-0.848957
-0.863178
-0.868921
-0.867752
-0.835589
-0.819003
-0.848103
-0.864535
-0.872365
-0.882511
-0.827546
-0.816567
-0.84636
-0.866487
-0.87902
-0.920178
-0.816603
-0.812864
-0.844327
-0.868358
-0.886408
-0.966194
-0.811372
-0.810435
-0.844157
-0.871046
-0.893217
-0.992039
-0.812561
-0.78866
-0.763099
-0.726838
-0.676642
-0.613628
-0.541599
-0.465928
-0.391579
-0.322075
-0.259446
-0.20477
-0.158223
-0.119406
-0.0876476
-0.06216
-0.0421384
-0.0268329
-0.015492
-0.00731684
-0.0015871
0.00261669
0.0070424
0.0101889
-0.833535
-0.812879
-0.78789
-0.751868
-0.700696
-0.634335
-0.557072
-0.475342
-0.395116
-0.320587
-0.254134
-0.196773
-0.148525
-0.108789
-0.0766446
-0.0511437
-0.0313286
-0.0162939
-0.00520279
0.00262885
0.00782049
0.0114046
0.0147844
0.0148396
-0.850763
-0.83602
-0.815685
-0.782909
-0.732337
-0.663064
-0.579826
-0.490639
-0.403014
-0.322048
-0.250552
-0.189544
-0.138907
-0.0976618
-0.0647553
-0.0390259
-0.0193729
-0.00482211
0.00544765
0.0120858
0.0156429
0.0168851
0.0166917
0.0124264
-0.867121
-0.859573
-0.846393
-0.819507
-0.77154
-0.700087
-0.610238
-0.512244
-0.415714
-0.326912
-0.249352
-0.184136
-0.130747
-0.0879072
-0.0541922
-0.0282025
-0.00867679
0.00543761
0.0149702
0.0205494
0.0226376
0.0217286
0.0181396
0.0108439
-0.883041
-0.883709
-0.879484
-0.860926
-0.817719
-0.744979
-0.647708
-0.538912
-0.431257
-0.333062
-0.248776
-0.179202
-0.123338
-0.0793923
-0.0454429
-0.019729
-0.000752284
0.012696
0.0215172
0.026369
0.0276666
0.0259032
0.0210131
0.0131829
-0.898423
-0.907775
-0.913756
-0.905618
-0.869243
-0.796232
-0.690796
-0.56948
-0.449516
-0.341607
-0.250278
-0.176272
-0.118051
-0.0732264
-0.0393454
-0.0142465
0.00383457
0.0164043
0.0245415
0.0289882
0.0301283
0.0287191
0.0237819
0.0173526
-0.912767
-0.93063
-0.94729
-0.950938
-0.923092
-0.85109
-0.7379
-0.604864
-0.474606
-0.358619
-0.261746
-0.184313
-0.124159
-0.0783441
-0.0441004
-0.0190942
-0.00156308
0.010351
0.0182214
0.0227109
0.024177
0.0237088
0.0193326
0.0165498
-0.925274
-0.950749
-0.977404
-0.992817
-0.97376
-0.902635
-0.783688
-0.64196
-0.504326
-0.38352
-0.284
-0.205473
-0.14487
-0.0986262
-0.0635414
-0.0371917
-0.0173724
-0.00292764
0.00658592
0.0123991
0.0157474
0.0172231
0.0163409
0.0176617
-0.935021
-0.966403
-1.00108
-1.0262
-1.01262
-0.941387
-0.817084
-0.669798
-0.528582
-0.40667
-0.307543
-0.23031
-0.170682
-0.124627
-0.0889123
-0.0609455
-0.0391753
-0.0224917
-0.00994651
-0.000855595
0.00573195
0.0104506
0.0135905
0.019468
-0.941164
-0.976164
-1.01645
-1.04651
-1.03286
-0.95829
-0.829065
-0.67983
-0.539783
-0.420404
-0.323876
-0.249009
-0.190623
-0.144701
-0.108454
-0.0796842
-0.0566777
-0.0382755
-0.0235295
-0.0117852
-0.0025484
0.00518611
0.0128109
0.0211193
-0.943129
-0.979257
-1.02187
-1.05038
-1.03172
-0.950103
-0.817558
-0.670637
-0.535982
-0.421869
-0.330538
-0.258838
-0.202179
-0.156824
-0.120269
-0.0906981
-0.066672
-0.0470444
-0.030851
-0.0173493
-0.0063046
0.00397098
0.015524
0.0236901
-0.940677
-0.975406
-1.01707
-1.03711
-1.00928
-0.91872
-0.785151
-0.644282
-0.51764
-0.412474
-0.327636
-0.259656
-0.205365
-0.161377
-0.125359
-0.0956891
-0.0710914
-0.0505347
-0.0331764
-0.0182715
-0.00522409
0.00665522
0.0198667
0.0285301
-0.933908
-0.965204
-1.00184
-1.00844
-0.967572
-0.86868
-0.736688
-0.604332
-0.488638
-0.393134
-0.314966
-0.251503
-0.199914
-0.157633
-0.122676
-0.0935811
-0.0691759
-0.048489
-0.0307383
-0.0153596
-0.00183354
0.0113307
0.0270489
0.0355696
-0.92331
-0.949891
-0.974905
-0.967117
-0.910686
-0.805118
-0.677662
-0.555399
-0.451236
-0.365057
-0.29383
-0.235172
-0.186772
-0.146576
-0.112955
-0.0846599
-0.0606907
-0.0402085
-0.022528
-0.00715184
0.0064666
0.020322
0.0378367
0.0449109
-0.909878
-0.930913
-0.936735
-0.914759
-0.842879
-0.73246
-0.611663
-0.501202
-0.407608
-0.329941
-0.265432
-0.211694
-0.16681
-0.129128
-0.0972776
-0.0701773
-0.0469678
-0.0269542
-0.00959215
0.00550717
0.0189008
0.0330261
0.0516204
0.0561511
-0.894827
-0.909533
-0.890894
-0.852184
-0.766415
-0.65421
-0.541914
-0.442678
-0.359234
-0.28963
-0.231338
-0.182319
-0.140962
-0.105921
-0.0760727
-0.0505022
-0.0284709
-0.00937997
0.00722659
0.0216602
0.0345089
0.0486527
0.0679585
0.0692833
-0.878654
-0.880204
-0.842681
-0.781073
-0.682995
-0.572748
-0.469954
-0.381514
-0.307299
-0.24508
-0.192639
-0.148214
-0.110415
-0.0781117
-0.0503841
-0.0264899
-0.00582745
0.0121012
0.0276801
0.0411583
0.0531733
0.0670408
0.0867457
0.0844173
-0.863539
-0.834138
-0.790069
-0.70289
-0.595
-0.489465
-0.396605
-0.318173
-0.252456
-0.197138
-0.150258
-0.110301
-0.0760745
-0.0466218
-0.0211764
0.000867432
0.0199949
0.0366114
0.0510291
0.0634243
0.0744565
0.087829
0.107673
0.101504
-0.85022
-0.780003
-0.722912
-0.616286
-0.503734
-0.404953
-0.322113
-0.253092
-0.195315
-0.146549
-0.105052
-0.0694971
-0.0388561
-0.012323
0.0107314
0.0307945
0.0482548
0.0634409
0.0765939
0.087812
0.0977502
0.110481
0.130359
0.120547
-0.824581
-0.732643
-0.640582
-0.520109
-0.409342
-0.319343
-0.246495
-0.186536
-0.136437
-0.0940652
-0.0578672
-0.0266892
0.000342969
0.0238985
0.0444877
0.0624966
0.0782306
0.0919491
0.103817
0.113831
0.122638
0.134662
0.154529
0.141551
-0.770601
-0.680088
-0.54496
-0.414852
-0.311421
-0.232218
-0.169762
-0.118862
-0.0763853
-0.0403606
-0.0094347
0.0173641
0.0407558
0.0612816
0.0793477
0.0952557
0.109241
0.1215
0.13212
0.140978
0.148686
0.159969
0.179795
0.164497
-0.692559
-0.584331
-0.426461
-0.299484
-0.209348
-0.143292
-0.0921532
-0.0506214
-0.0158442
0.01384
0.0395143
0.0619396
0.0816737
0.0991356
0.114638
0.128413
0.14064
0.151462
0.160895
0.168705
0.175418
0.185939
0.205662
0.189457
-0.610172
-0.425547
-0.276857
-0.174154
-0.104089
-0.0534957
-0.0144832
0.0174333
0.0444834
0.067865
0.0883314
0.106409
0.122488
0.136867
0.149771
0.161373
0.171811
0.181191
0.189487
0.196403
0.202335
0.212073
0.231457
0.216956
-0.465441
-0.214445
-0.103516
-0.0419893
0.00226424
0.0355984
0.0620467
0.0843394
0.103788
0.121018
0.136405
0.150225
0.162697
0.173996
0.184267
0.193626
0.202173
0.21
0.217103
0.223231
0.22857
0.237023
0.255072
0.250098
1.24023
1.2644
1.28278
1.28663
1.22201
0.975043
1.24049
1.26032
1.26713
1.25953
1.16023
0.966157
1.24024
1.25467
1.25201
1.23492
1.13633
0.968113
1.23958
1.2497
1.24122
1.21765
1.1267
0.982504
1.24007
1.24616
1.23436
1.20681
1.12443
0.998426
1.24026
1.24385
1.22978
1.20029
1.12485
1.01219
1.23966
1.24214
1.22649
1.19635
1.1259
1.02426
1.23875
1.24054
1.22407
1.19374
1.12742
1.03524
1.23769
1.23884
1.22229
1.19194
1.12948
1.04535
1.23654
1.237
1.221
1.19092
1.1321
1.05465
1.23534
1.23506
1.22011
1.19075
1.13529
1.06316
1.23412
1.23308
1.21962
1.19138
1.13903
1.07117
1.23289
1.23115
1.21954
1.19275
1.14332
1.07873
1.23163
1.22941
1.21984
1.19479
1.14813
1.08593
1.2304
1.2279
1.22048
1.1974
1.15342
1.09285
1.22924
1.22662
1.22138
1.20044
1.15912
1.09951
1.22831
1.22558
1.22241
1.20377
1.16513
1.10593
1.22835
1.22478
1.22338
1.20717
1.17123
1.11204
1.22892
1.22424
1.22402
1.21039
1.17705
1.11766
1.22819
1.22362
1.22385
1.21302
1.18203
1.12245
1.22655
1.22242
1.22249
1.21438
1.18559
1.12627
1.22562
1.22048
1.21976
1.21367
1.18754
1.12901
1.226
1.2182
1.21619
1.2109
1.18748
1.12603
1.22646
1.21638
1.21315
1.20761
1.18117
1.08168
0.00630604
0.00998075
0.0638596
0.0872798
0.10541
0.121508
0.135837
0.149011
0.161282
0.172686
0.183236
0.19297
0.201942
0.210207
0.21782
0.224825
0.231269
0.237218
0.242712
0.24758
0.251467
0.255893
0.268526
0.294997
0.340786
0.209418
0.208958
0.203742
0.20061
0.20182
0.20551
0.210561
0.216332
0.222388
0.228453
0.234366
0.240033
0.245397
0.250415
0.255046
0.259256
0.263041
0.266375
0.268899
0.269876
0.271321
0.284909
0.312882
0.543806
0.37846
0.334677
0.305624
0.28643
0.275803
0.270532
0.268514
0.268523
0.269783
0.271796
0.274238
0.276896
0.279617
0.282276
0.284768
0.287006
0.288942
0.290453
0.290969
0.289976
0.291742
0.30904
0.323202
0.675364
0.509574
0.439324
0.393776
0.362966
0.343131
0.330492
0.322489
0.317533
0.314613
0.313064
0.312446
0.312453
0.312855
0.313471
0.314145
0.314761
0.31525
0.315436
0.314677
0.312781
0.315283
0.334564
0.340715
0.763711
0.609687
0.525832
0.469467
0.430402
0.403647
0.385189
0.37229
0.363178
0.356706
0.352107
0.348861
0.346594
0.345024
0.343922
0.343095
0.342404
0.34176
0.340949
0.339297
0.336806
0.339578
0.359514
0.361393
0.825441
0.685303
0.596252
0.533811
0.489307
0.457582
0.434677
0.417883
0.405381
0.395965
0.388816
0.383365
0.379195
0.375985
0.373469
0.371427
0.369695
0.36817
0.366612
0.364328
0.361427
0.364254
0.384207
0.383618
0.870491
0.743108
0.653642
0.588361
0.540528
0.505351
0.47916
0.459353
0.444155
0.432355
0.423123
0.415865
0.410137
0.405591
0.401932
0.398915
0.39636
0.394146
0.392014
0.389265
0.386081
0.38886
0.408424
0.40635
0.904558
0.788196
0.700672
0.634577
0.584907
0.547471
0.518931
0.496862
0.479573
0.465893
0.455
0.446296
0.439323
0.433712
0.429148
0.425364
0.422165
0.419418
0.416853
0.413773
0.41042
0.413103
0.431968
0.429026
0.931116
0.824052
0.739459
0.673738
0.623274
0.584471
0.554328
0.530618
0.511758
0.496635
0.484454
0.474624
0.466684
0.460248
0.454984
0.450611
0.446919
0.44377
0.440885
0.437589
0.434167
0.436718
0.454629
0.451244
0.952402
0.85303
0.771636
0.706942
0.656379
0.616863
0.5857
0.560853
0.540857
0.524666
0.51152
0.500844
0.492175
0.485121
0.479335
0.474523
0.470467
0.467023
0.463916
0.4605
0.457092
0.459482
0.476226
0.472698
0.969947
0.876754
0.798443
0.735092
0.684876
0.645119
0.613383
0.587805
0.567031
0.550086
0.53625
0.524966
0.515776
0.508281
0.502123
0.496997
0.492684
0.489037
0.485788
0.482331
0.479005
0.481202
0.496607
0.493151
0.984627
0.896344
0.820818
0.758918
0.709322
0.669661
0.637692
0.611704
0.590445
0.573006
0.558709
0.547018
0.53748
0.529692
0.523287
0.517955
0.513472
0.509696
0.50637
0.502937
0.499743
0.501717
0.515648
0.512409
0.997048
0.912589
0.839464
0.779
0.730182
0.690853
0.65891
0.632765
0.611256
0.593537
0.578969
0.567036
0.557294
0.549335
0.542786
0.537333
0.532754
0.528908
0.525557
0.522199
0.519171
0.520892
0.533255
0.530326
1.00762
0.926031
0.854899
0.79579
0.747835
0.709007
0.677288
0.651185
0.629615
0.611788
0.597102
0.585062
0.575232
0.567201
0.560592
0.555087
0.550468
0.5466
0.543264
0.540016
0.537178
0.538623
0.549361
0.546793
1.01658
0.937019
0.86749
0.809632
0.762589
0.724385
0.693042
0.667139
0.645659
0.627862
0.613181
0.601142
0.591316
0.583291
0.576685
0.571182
0.566567
0.562713
0.559422
0.556311
0.553675
0.554827
0.563926
0.561735
1.02405
0.945748
0.877479
0.820777
0.774686
0.737206
0.706364
0.680787
0.659516
0.641857
0.627276
0.615321
0.605569
0.597609
0.591056
0.585594
0.581017
0.577203
0.573978
0.571021
0.568592
0.569445
0.576935
0.575111
1.03002
0.952278
0.885002
0.829398
0.784317
0.747654
0.717418
0.69227
0.671302
0.653865
0.639457
0.627647
0.61802
0.610167
0.603701
0.598311
0.593794
0.590038
0.586894
0.584099
0.581879
0.582455
0.588415
0.586888
1.03439
0.956539
0.890108
0.835614
0.791638
0.755891
0.726356
0.70172
0.681128
0.663973
0.64979
0.638167
0.6287
0.620982
0.614626
0.609325
0.604884
0.601198
0.59814
0.595509
0.593507
0.593869
0.598407
0.596931
1.03689
0.958339
0.892783
0.839514
0.796791
0.762068
0.73332
0.709262
0.689097
0.672268
0.658342
0.646931
0.637643
0.630073
0.623839
0.618636
0.614274
0.610656
0.607677
0.605188
0.603378
0.603548
0.606738
0.605106
1.03722
0.957397
0.89297
0.841194
0.799924
0.766345
0.738452
0.715018
0.695314
0.678834
0.66518
0.65399
0.644886
0.637469
0.631358
0.626252
0.621968
0.61841
0.615495
0.613116
0.611417
0.611291
0.613306
0.612016
1.0352
0.953346
0.890612
0.840787
0.801219
0.768893
0.741899
0.719112
0.69988
0.683753
0.670371
0.659398
0.650472
0.643203
0.637213
0.632203
0.627994
0.624495
0.621642
0.61936
0.617736
0.617307
0.618387
0.617605
1.03021
0.945656
0.8857
0.838508
0.800907
0.769912
0.743827
0.721675
0.702899
0.687107
0.67398
0.663207
0.654444
0.647311
0.641433
0.636515
0.632379
0.628939
0.626146
0.62395
0.622392
0.621744
0.622125
0.62169
1.01853
0.933721
0.878499
0.834747
0.799286
0.769611
0.744388
0.722825
0.704468
0.688978
0.676073
0.66547
0.656844
0.649826
0.644046
0.639212
0.635142
0.631756
0.629015
0.626887
0.625379
0.624585
0.624498
0.624309
0.990461
0.918041
0.870064
0.830152
0.79671
0.768203
0.743716
0.722658
0.704656
0.689419
0.676696
0.666228
0.657708
0.650779
0.645079
0.640314
0.636304
0.632966
0.630267
0.628186
0.62671
0.625839
0.625518
0.625473
)
;

boundaryField
{
    rotor
    {
        type            zeroGradient;
    }
    freestream
    {
        type            freestreamPressure;
        freestreamValue uniform 0;
        supersonic      false;
        value           nonuniform List<scalar> 
96
(
0.625027
0.621993
0.616235
0.607813
0.59676
0.583437
0.567996
0.549884
0.529548
0.507244
0.48317
0.457552
0.430642
0.402717
0.374071
0.345011
0.315855
0.286947
0.258678
0.231536
0.206187
0.183591
0.165298
0.143472
0.116861
0.0944034
0.0758423
0.0600544
0.0466219
0.0353387
0.0260232
0.018484
0.0125404
0.00801218
0.00470263
0.002407
0.000937467
0.000125477
-0.000214435
-0.000250104
-0.000118678
6.09042e-05
0.000204453
0.000266418
0.000241578
0.000169722
0.000126372
0.000102331
4.84018e-05
6.05806e-07
8.14981e-05
0.000184803
0.000359002
0.000630287
0.000770686
0.00106995
0.00152116
0.00207801
0.00283237
0.00401964
0.005778
0.00829827
0.0116778
0.0160922
0.0217685
0.0288994
0.0377017
0.0484027
0.0612197
0.0763968
0.0943673
0.116811
0.147252
0.165971
0.182519
0.204159
0.228846
0.255678
0.283941
0.313132
0.342798
0.372521
0.401901
0.430566
0.458167
0.484391
0.508958
0.531624
0.552171
0.570293
0.5857
0.598834
0.609536
0.617538
0.622806
0.625305
)
;
    }
    frontAndBack
    {
        type            empty;
    }
}


// ************************************************************************* //
