/*--------------------------------*- C++ -*----------------------------------*\
  =========                 |
  \\      /  F ield         | OpenFOAM: The Open Source CFD Toolbox
   \\    /   O peration     | Website:  https://openfoam.org
    \\  /    A nd           | Version:  11
     \\/     M anipulation  |
\*---------------------------------------------------------------------------*/
FoamFile
{
    format      ascii;
    class       surfaceScalarField;
    location    "1";
    object      phi;
}
// * * * * * * * * * * * * * * * * * * * * * * * * * * * * * * * * * * * * * //

dimensions      [0 3 -1 0 0 0 0];

internalField   nonuniform List<scalar> 
5640
(
-5.36524e-07
5.36524e-07
-1.91688e-06
1.38035e-06
-3.63919e-06
1.72231e-06
-5.36044e-06
1.72126e-06
-6.94665e-06
1.5862e-06
1.06965e-06
-8.0163e-06
-8.75973e-07
1.4125e-06
-2.34059e-06
2.84497e-06
-3.91508e-06
3.29679e-06
-5.43031e-06
3.23649e-06
-6.82844e-06
2.98433e-06
2.27076e-06
-8.02954e-06
-9.68941e-07
2.38144e-06
-2.36388e-06
4.23991e-06
-3.821e-06
4.75391e-06
-5.21993e-06
4.63541e-06
-6.55085e-06
4.31525e-06
3.56367e-06
-7.84375e-06
-1.0186e-06
3.40004e-06
-2.29425e-06
5.51556e-06
-3.62393e-06
6.0836e-06
-4.93262e-06
5.9441e-06
-6.2225e-06
5.60513e-06
4.8885e-06
-7.54734e-06
-1.02312e-06
4.42315e-06
-2.16417e-06
6.65662e-06
-3.36749e-06
7.28691e-06
-4.59491e-06
7.17152e-06
-5.8446e-06
6.85483e-06
6.21528e-06
-7.17137e-06
-9.79864e-07
5.40302e-06
-1.98701e-06
7.66376e-06
-3.06588e-06
8.36578e-06
-4.21028e-06
8.31592e-06
-5.41321e-06
8.05776e-06
7.52435e-06
-6.72229e-06
-9.01413e-07
6.30443e-06
-1.77089e-06
8.53325e-06
-2.72473e-06
9.31961e-06
-3.77949e-06
9.37068e-06
-4.92562e-06
9.2039e-06
8.799e-06
-6.20027e-06
-7.95315e-07
7.09975e-06
-1.52259e-06
9.26052e-06
-2.34712e-06
1.01441e-05
-3.30261e-06
1.03262e-05
-4.3796e-06
1.02809e-05
1.00235e-05
-5.60408e-06
-6.66031e-07
7.76578e-06
-1.24643e-06
9.84092e-06
-1.9353e-06
1.0833e-05
-2.77956e-06
1.11704e-05
-3.77317e-06
1.12745e-05
1.11823e-05
-4.93195e-06
-5.17438e-07
8.28322e-06
-9.45814e-07
1.02693e-05
-1.49118e-06
1.13784e-05
-2.21053e-06
1.18898e-05
-3.10461e-06
1.21686e-05
1.22595e-05
-4.18183e-06
-3.5299e-07
8.63621e-06
-6.2433e-07
1.05406e-05
-1.01701e-06
1.1771e-05
-1.59614e-06
1.24689e-05
-2.37262e-06
1.2945e-05
1.32385e-05
-3.35167e-06
-1.76066e-07
8.81227e-06
-2.85896e-07
1.06505e-05
-5.15667e-07
1.20008e-05
-9.37734e-07
1.2891e-05
-1.57653e-06
1.35838e-05
1.41015e-05
-2.43945e-06
1.24426e-08
8.79983e-06
6.4726e-08
1.05982e-05
9.70244e-09
1.20558e-05
-2.37565e-07
1.31383e-05
-7.16463e-07
1.40627e-05
1.48283e-05
-1.44336e-06
1.9916e-07
8.60067e-06
4.2482e-07
1.03725e-05
5.53419e-07
1.19272e-05
5.00988e-07
1.31907e-05
2.06489e-07
1.43572e-05
1.53969e-05
-3.62036e-07
3.89204e-07
8.21147e-06
7.87083e-07
9.97464e-06
1.11031e-06
1.1604e-05
1.27261e-06
1.30284e-05
1.18989e-06
1.444e-05
1.57809e-05
8.05864e-07
5.75029e-07
7.63644e-06
1.14548e-06
9.40419e-06
1.67181e-06
1.10777e-05
2.06937e-06
1.26308e-05
2.22904e-06
1.42803e-05
1.59496e-05
2.06034e-06
7.50648e-07
6.88579e-06
1.49148e-06
8.66336e-06
2.22695e-06
1.03422e-05
2.87953e-06
1.19782e-05
3.31525e-06
1.38446e-05
1.58653e-05
3.3995e-06
9.08667e-07
5.97712e-06
1.81422e-06
7.75781e-06
2.76125e-06
9.39519e-06
3.68641e-06
1.10531e-05
4.4339e-06
1.30971e-05
1.54821e-05
4.81711e-06
1.03894e-06
4.93819e-06
2.09962e-06
6.69713e-06
3.25511e-06
8.2397e-06
4.46617e-06
9.84204e-06
5.56246e-06
1.20008e-05
1.47434e-05
6.30118e-06
1.12699e-06
3.8112e-06
2.32907e-06
5.49505e-06
3.68239e-06
6.88638e-06
5.18657e-06
8.33786e-06
6.66694e-06
1.05204e-05
1.35769e-05
7.83342e-06
1.15387e-06
2.65733e-06
2.47803e-06
4.17089e-06
4.01025e-06
5.35415e-06
5.80436e-06
6.54375e-06
7.69736e-06
8.6274e-06
1.18808e-05
9.39353e-06
1.10104e-06
1.5563e-06
2.51716e-06
2.75476e-06
4.19973e-06
3.67158e-06
6.26295e-06
4.48054e-06
8.59067e-06
6.29968e-06
9.48e-06
1.09914e-05
9.52267e-07
6.04031e-07
2.4047e-06
1.30233e-06
4.19781e-06
1.87848e-06
6.46302e-06
2.21532e-06
9.28224e-06
3.48045e-06
5.92542e-06
1.28368e-05
6.04031e-07
1.90636e-06
3.78483e-06
6.00016e-06
9.48061e-06
1.5406e-05
-1.02296e-05
-1.16869e-06
3.38201e-06
-1.25252e-05
-2.72044e-06
5.01605e-06
-1.49041e-05
-3.73172e-06
6.11065e-06
-1.73397e-05
-4.54338e-06
6.97896e-06
-1.98134e-05
-5.25789e-06
7.73161e-06
-2.23116e-05
-5.93071e-06
8.42882e-06
-2.48235e-05
-6.58921e-06
9.10119e-06
-2.73413e-05
-7.24563e-06
9.76342e-06
-2.98586e-05
-7.90514e-06
1.04225e-05
-3.23705e-05
-8.56997e-06
1.10818e-05
-3.48726e-05
-9.24107e-06
1.17432e-05
-3.73614e-05
-9.91883e-06
1.24077e-05
-3.98336e-05
-1.06033e-05
1.30754e-05
-4.22859e-05
-1.12941e-05
1.37465e-05
-4.47156e-05
-1.19907e-05
1.44205e-05
-4.71207e-05
-1.26919e-05
1.5097e-05
-4.94997e-05
-1.33968e-05
1.57758e-05
-5.1852e-05
-1.41044e-05
1.64567e-05
-5.41774e-05
-1.48145e-05
1.71398e-05
-5.64758e-05
-1.55268e-05
1.78253e-05
-5.87472e-05
-1.62418e-05
1.85132e-05
-6.09912e-05
-1.69597e-05
1.92038e-05
-6.32087e-05
-1.768e-05
1.98974e-05
-1.84008e-05
2.05942e-05
-1.01347e-05
9.36493e-07
-1.24104e-05
-4.44789e-07
-1.47762e-05
-1.3659e-06
-1.72024e-05
-2.11721e-06
-1.96682e-05
-2.79204e-06
-2.21589e-05
-3.44002e-06
-2.46636e-05
-4.08452e-06
-2.71742e-05
-4.73507e-06
-2.96843e-05
-5.39501e-06
-3.2189e-05
-6.06529e-06
-3.4684e-05
-6.74602e-06
-3.71658e-05
-7.43704e-06
-3.9631e-05
-8.13809e-06
-4.20765e-05
-8.84862e-06
-4.44996e-05
-9.56764e-06
-4.68979e-05
-1.02936e-05
-4.92699e-05
-1.10247e-05
-5.16149e-05
-1.17595e-05
-5.39325e-05
-1.24969e-05
-5.62227e-05
-1.32366e-05
-5.84855e-05
-1.3979e-05
-6.07208e-05
-1.47244e-05
-6.29293e-05
-1.54715e-05
-1.62166e-05
-9.9179e-06
3.01064e-06
-1.21754e-05
1.81275e-06
-1.45259e-05
9.84597e-07
-1.69376e-05
2.94452e-07
-1.93887e-05
-3.40918e-07
-2.18644e-05
-9.64385e-07
-2.43538e-05
-1.59505e-06
-2.68491e-05
-2.23977e-06
-2.9344e-05
-2.90013e-06
-3.18335e-05
-3.57584e-06
-3.43134e-05
-4.26613e-06
-3.67801e-05
-4.9703e-06
-3.92304e-05
-5.68774e-06
-4.16613e-05
-6.41771e-06
-4.407e-05
-7.15898e-06
-4.6454e-05
-7.90963e-06
-4.88115e-05
-8.66725e-06
-5.11414e-05
-9.42954e-06
-5.34434e-05
-1.01949e-05
-5.57174e-05
-1.09627e-05
-5.79632e-05
-1.17332e-05
-6.0181e-05
-1.25067e-05
-6.23715e-05
-1.3281e-05
-1.40507e-05
-9.60397e-06
5.06728e-06
-1.18353e-05
4.04408e-06
-1.41617e-05
3.31096e-06
-1.655e-05
2.68282e-06
-1.89778e-05
2.0868e-06
-2.14298e-05
1.4877e-06
-2.38957e-05
8.70857e-07
-2.63675e-05
2.32024e-07
-2.8839e-05
-4.28673e-07
-3.13051e-05
-1.10972e-06
-3.37618e-05
-1.80947e-06
-3.62055e-05
-2.5266e-06
-3.86331e-05
-3.26017e-06
-4.10416e-05
-4.00922e-06
-4.34281e-05
-4.77241e-06
-4.57902e-05
-5.54756e-06
-4.81257e-05
-6.33177e-06
-5.04332e-05
-7.12206e-06
-5.27119e-05
-7.91614e-06
-5.49617e-05
-8.71291e-06
-5.71823e-05
-9.51252e-06
-5.93738e-05
-1.03153e-05
-6.15369e-05
-1.11178e-05
-1.19118e-05
-9.20111e-06
7.09701e-06
-1.13966e-05
6.23957e-06
-1.36885e-05
5.60285e-06
-1.60433e-05
5.03759e-06
-1.8438e-05
4.4815e-06
-2.08575e-05
3.90724e-06
-2.32912e-05
3.3046e-06
-2.57312e-05
2.67196e-06
-2.8171e-05
2.01115e-06
-3.06057e-05
1.32495e-06
-3.30311e-05
6.15947e-07
-3.54438e-05
-1.13916e-07
-3.78407e-05
-8.63266e-07
-4.02189e-05
-1.63098e-06
-4.25757e-05
-2.41563e-06
-4.49083e-05
-3.21493e-06
-4.72144e-05
-4.02569e-06
-4.94921e-05
-4.84436e-06
-5.17403e-05
-5.66797e-06
-5.39583e-05
-6.49486e-06
-5.61459e-05
-7.32496e-06
-5.83024e-05
-8.15872e-06
-6.04275e-05
-8.99274e-06
-9.80761e-06
-8.71186e-06
9.08658e-06
-1.08614e-05
8.38915e-06
-1.31084e-05
7.84986e-06
-1.54194e-05
7.34856e-06
-1.77715e-05
6.83364e-06
-2.01495e-05
6.28524e-06
-2.25425e-05
5.69757e-06
-2.49422e-05
5.07167e-06
-2.73422e-05
4.41115e-06
-2.97374e-05
3.72012e-06
-3.21236e-05
3.00212e-06
-3.44973e-05
2.25982e-06
-3.68556e-05
1.49504e-06
-3.91957e-05
7.09127e-07
-4.15149e-05
-9.64437e-08
-4.38104e-05
-9.19426e-07
-4.60796e-05
-1.75653e-06
-4.83201e-05
-2.60384e-06
-5.05303e-05
-3.45778e-06
-5.27091e-05
-4.31609e-06
-5.48556e-05
-5.17837e-06
-5.69691e-05
-6.04526e-06
-5.90475e-05
-6.91435e-06
-7.74438e-06
-8.13602e-06
1.10223e-05
-1.02296e-05
1.04827e-05
-1.24221e-05
1.00423e-05
-1.46799e-05
9.60636e-06
-1.69804e-05
9.13419e-06
-1.93082e-05
8.61301e-06
-2.1652e-05
8.04136e-06
-2.40033e-05
7.42296e-06
-2.63554e-05
6.76329e-06
-2.87031e-05
6.06782e-06
-3.10422e-05
5.34116e-06
-3.33691e-05
4.58673e-06
-3.56809e-05
3.80687e-06
-3.7975e-05
3.0032e-06
-4.02486e-05
2.17722e-06
-4.24991e-05
1.33107e-06
-4.47236e-05
4.67912e-07
-4.69192e-05
-4.08184e-07
-4.90838e-05
-1.29316e-06
-5.12158e-05
-2.1841e-06
-5.3314e-05
-3.08019e-06
-5.53774e-05
-3.98192e-06
-5.7406e-05
-4.88568e-06
-5.73227e-06
-7.47228e-06
1.28905e-05
-9.50018e-06
1.25106e-05
-1.16294e-05
1.21715e-05
-1.38257e-05
1.18026e-05
-1.60664e-05
1.13749e-05
-1.83358e-05
1.08824e-05
-2.06224e-05
1.03279e-05
-2.29173e-05
9.7179e-06
-2.52137e-05
9.05973e-06
-2.75062e-05
8.3603e-06
-2.97904e-05
7.62534e-06
-3.20628e-05
6.85909e-06
-3.43204e-05
6.06447e-06
-3.65606e-05
5.24342e-06
-3.87809e-05
4.39752e-06
-4.09785e-05
3.52872e-06
-4.31506e-05
2.63996e-06
-4.5294e-05
1.73521e-06
-4.7406e-05
8.18853e-07
-4.94845e-05
-1.05541e-07
-5.15283e-05
-1.03644e-06
-5.35365e-05
-1.97369e-06
-5.55098e-05
-2.9124e-06
-3.78502e-06
-6.71894e-06
1.46775e-05
-8.67203e-06
1.44637e-05
-1.07303e-05
1.42298e-05
-1.28578e-05
1.39301e-05
-1.50313e-05
1.35484e-05
-1.72349e-05
1.3086e-05
-1.94567e-05
1.25497e-05
-2.16877e-05
1.19489e-05
-2.39209e-05
1.12929e-05
-2.61507e-05
1.059e-05
-2.83725e-05
9.84716e-06
-3.05828e-05
9.06941e-06
-3.27787e-05
8.26033e-06
-3.49575e-05
7.42226e-06
-3.71169e-05
6.55688e-06
-3.92542e-05
5.66601e-06
-4.13664e-05
4.75225e-06
-4.34505e-05
3.81929e-06
-4.55032e-05
2.87157e-06
-4.75219e-05
1.91316e-06
-4.95047e-05
9.46317e-07
-5.14503e-05
-2.81006e-08
-5.33582e-05
-1.00449e-06
-1.9072e-06
-5.87401e-06
1.63697e-05
-7.74377e-06
1.63335e-05
-9.72458e-06
1.62107e-05
-1.17771e-05
1.59826e-05
-1.38771e-05
1.56484e-05
-1.60082e-05
1.52171e-05
-1.81584e-05
1.46999e-05
-2.03185e-05
1.4109e-05
-2.24813e-05
1.34557e-05
-2.46411e-05
1.27499e-05
-2.67933e-05
1.19994e-05
-2.89344e-05
1.12105e-05
-3.10613e-05
1.03872e-05
-3.31715e-05
9.53245e-06
-3.52627e-05
8.64802e-06
-3.73323e-05
7.73565e-06
-3.93776e-05
6.79757e-06
-4.13954e-05
5.83705e-06
-4.33821e-05
4.85827e-06
-4.53344e-05
3.8655e-06
-4.72497e-05
2.86158e-06
-4.91258e-05
1.84799e-06
-5.09613e-05
8.31017e-07
-1.05449e-07
-4.93524e-06
1.79533e-05
-6.71374e-06
1.8112e-05
-8.61172e-06
1.81086e-05
-1.05846e-05
1.79555e-05
-1.2606e-05
1.76698e-05
-1.46589e-05
1.727e-05
-1.67313e-05
1.67723e-05
-1.88139e-05
1.61917e-05
-2.08996e-05
1.55414e-05
-2.29827e-05
1.48329e-05
-2.50585e-05
1.40753e-05
-2.71234e-05
1.32754e-05
-2.91744e-05
1.24382e-05
-3.1209e-05
1.1567e-05
-3.32249e-05
1.06639e-05
-3.52199e-05
9.73059e-06
-3.71912e-05
8.76888e-06
-3.91357e-05
7.78152e-06
-4.10496e-05
6.7722e-06
-4.29291e-05
5.74502e-06
-4.47706e-05
4.70311e-06
-4.65711e-05
3.64844e-06
-4.8328e-05
2.58791e-06
1.61349e-06
-3.90004e-06
1.94139e-05
-5.57988e-06
1.97918e-05
-7.39094e-06
1.99197e-05
-9.28087e-06
1.98454e-05
-1.122e-05
1.96089e-05
-1.31903e-05
1.92403e-05
-1.51796e-05
1.87616e-05
-1.7179e-05
1.81911e-05
-1.91815e-05
1.75439e-05
-2.11814e-05
1.68328e-05
-2.31742e-05
1.60681e-05
-2.51564e-05
1.52575e-05
-2.71248e-05
1.44067e-05
-2.90771e-05
1.35194e-05
-3.10111e-05
1.25979e-05
-3.29246e-05
1.16441e-05
-3.4815e-05
1.06593e-05
-3.66794e-05
9.64585e-06
-3.85138e-05
8.60665e-06
-4.03141e-05
7.54533e-06
-4.20759e-05
6.4649e-06
-4.3795e-05
5.36757e-06
-4.54677e-05
4.26055e-06
3.24332e-06
-2.76565e-06
2.07361e-05
-4.33974e-06
2.13659e-05
-6.06107e-06
2.1641e-05
-7.86653e-06
2.16509e-05
-9.72132e-06
2.14637e-05
-1.16059e-05
2.11248e-05
-1.35081e-05
2.06638e-05
-1.54193e-05
2.01023e-05
-1.7333e-05
1.94576e-05
-1.92438e-05
1.87437e-05
-2.11475e-05
1.79718e-05
-2.30405e-05
1.71506e-05
-2.49201e-05
1.62862e-05
-2.67837e-05
1.5383e-05
-2.86292e-05
1.44435e-05
-3.04547e-05
1.34695e-05
-3.22577e-05
1.24623e-05
-3.40353e-05
1.14234e-05
-3.57837e-05
1.03551e-05
-3.74985e-05
9.26015e-06
-3.91747e-05
8.14111e-06
-4.08071e-05
6.99997e-06
-4.23904e-05
5.84377e-06
4.77831e-06
-1.52932e-06
2.19034e-05
-2.99058e-06
2.28272e-05
-4.62053e-06
2.3271e-05
-6.3418e-06
2.33721e-05
-8.11217e-06
2.32341e-05
-9.90959e-06
2.29222e-05
-1.17218e-05
2.2476e-05
-1.35409e-05
2.19215e-05
-1.53611e-05
2.12777e-05
-1.71774e-05
2.056e-05
-1.89862e-05
1.97805e-05
-2.07841e-05
1.89484e-05
-2.25685e-05
1.80706e-05
-2.43371e-05
1.71516e-05
-2.6088e-05
1.61944e-05
-2.78192e-05
1.52007e-05
-2.95285e-05
1.41715e-05
-3.1213e-05
1.31079e-05
-3.28691e-05
1.20113e-05
-3.44924e-05
1.08834e-05
-3.60773e-05
9.72604e-06
-3.76178e-05
8.54051e-06
-3.91069e-05
7.33287e-06
6.21327e-06
-1.88707e-07
2.2898e-05
-1.52977e-06
2.41682e-05
-3.06766e-06
2.48089e-05
-4.70673e-06
2.50112e-05
-6.39459e-06
2.4922e-05
-8.10533e-06
2.4633e-05
-9.82634e-06
2.4197e-05
-1.15506e-05
2.36457e-05
-1.32732e-05
2.30004e-05
-1.49904e-05
2.22772e-05
-1.66989e-05
2.1489e-05
-1.8396e-05
2.06455e-05
-2.00794e-05
1.9754e-05
-2.1747e-05
1.88193e-05
-2.33972e-05
1.78446e-05
-2.5028e-05
1.68315e-05
-2.66374e-05
1.57809e-05
-2.82228e-05
1.46933e-05
-2.97807e-05
1.35692e-05
-3.13066e-05
1.24093e-05
-3.27948e-05
1.12143e-05
-3.42386e-05
9.98427e-06
-3.56292e-05
8.72348e-06
7.54348e-06
1.25693e-06
2.37014e-05
4.43465e-08
2.53808e-05
-1.40148e-06
2.62547e-05
-2.96167e-06
2.65714e-05
-4.57077e-06
2.65311e-05
-6.19726e-06
2.62595e-05
-7.82748e-06
2.58273e-05
-9.45544e-06
2.52737e-05
-1.10777e-05
2.46227e-05
-1.26918e-05
2.38913e-05
-1.42953e-05
2.30926e-05
-1.58863e-05
2.22366e-05
-1.7463e-05
2.13307e-05
-1.90238e-05
2.03801e-05
-2.05673e-05
1.9388e-05
-2.20917e-05
1.8356e-05
-2.35954e-05
1.72846e-05
-2.50759e-05
1.61738e-05
-2.65299e-05
1.50232e-05
-2.7953e-05
1.38324e-05
-2.93393e-05
1.26006e-05
-3.06817e-05
1.13266e-05
-3.19697e-05
1.00115e-05
8.76455e-06
2.80778e-06
2.42931e-05
1.72988e-06
2.64587e-05
3.76656e-07
2.76079e-05
-1.10813e-06
2.80562e-05
-2.64337e-06
2.80663e-05
-4.18975e-06
2.78058e-05
-5.73146e-06
2.7369e-05
-7.2633e-06
2.68055e-05
-8.78364e-06
2.6143e-05
-1.02916e-05
2.53992e-05
-1.17861e-05
2.45871e-05
-1.32663e-05
2.37167e-05
-1.47311e-05
2.27954e-05
-1.61794e-05
2.18284e-05
-1.76102e-05
2.08188e-05
-1.90224e-05
1.97681e-05
-2.04145e-05
1.86767e-05
-2.17843e-05
1.75436e-05
-2.31289e-05
1.63678e-05
-2.4444e-05
1.51475e-05
-2.57238e-05
1.38804e-05
-2.69604e-05
1.25632e-05
-2.8142e-05
1.1193e-05
9.8722e-06
4.4608e-06
2.46494e-05
3.52081e-06
2.73987e-05
2.26073e-06
2.8868e-05
8.49665e-07
2.94672e-05
-6.1628e-07
2.95322e-05
-2.08774e-06
2.92773e-05
-3.54479e-06
2.8826e-05
-4.98233e-06
2.8243e-05
-6.40053e-06
2.75612e-05
-7.80052e-06
2.67992e-05
-9.18307e-06
2.59697e-05
-1.05484e-05
2.50821e-05
-1.18965e-05
2.41435e-05
-1.32271e-05
2.3159e-05
-1.45397e-05
2.21314e-05
-1.58337e-05
2.10622e-05
-1.71082e-05
1.99512e-05
-1.83616e-05
1.8797e-05
-1.95913e-05
1.75975e-05
-2.07933e-05
1.63495e-05
-2.1962e-05
1.50491e-05
-2.3089e-05
1.36903e-05
-2.41606e-05
1.22646e-05
1.0862e-05
6.20455e-06
2.47461e-05
5.40241e-06
2.82008e-05
4.23878e-06
3.00316e-05
2.903e-06
3.0803e-05
1.50405e-06
3.09312e-05
1.02773e-07
3.06786e-05
-1.27448e-06
3.02033e-05
-2.62106e-06
2.95896e-05
-3.93851e-06
2.88787e-05
-5.23016e-06
2.80909e-05
-6.4988e-06
2.72383e-05
-7.7463e-06
2.63296e-05
-8.97378e-06
2.5371e-05
-1.01819e-05
2.43671e-05
-1.13711e-05
2.33206e-05
-1.25414e-05
2.22324e-05
-1.36924e-05
2.11022e-05
-1.48233e-05
1.99279e-05
-1.59321e-05
1.87063e-05
-1.70156e-05
1.7433e-05
-1.80685e-05
1.6102e-05
-1.90824e-05
1.47042e-05
-2.00412e-05
1.32233e-05
1.17293e-05
8.01487e-06
2.45646e-05
7.34738e-06
2.88683e-05
6.28805e-06
3.10909e-05
5.03543e-06
3.20556e-05
3.70641e-06
3.22602e-05
2.37332e-06
3.20117e-05
1.07152e-06
3.15051e-05
-1.88413e-07
3.08495e-05
-1.40803e-06
3.00983e-05
-2.59254e-06
2.92754e-05
-3.74692e-06
2.83927e-05
-4.87492e-06
2.74576e-05
-5.9791e-06
2.64752e-05
-7.06125e-06
2.54493e-05
-8.12259e-06
2.43819e-05
-9.16397e-06
2.32738e-05
-1.01858e-05
2.2124e-05
-1.1188e-05
2.09301e-05
-1.21696e-05
1.96879e-05
-1.31284e-05
1.83917e-05
-1.40602e-05
1.70338e-05
-1.49574e-05
1.56013e-05
-1.58011e-05
1.40671e-05
1.24685e-05
9.85334e-06
2.41048e-05
9.31081e-06
2.94109e-05
8.37087e-06
3.20309e-05
7.21846e-06
3.3208e-05
5.97151e-06
3.35072e-05
4.71117e-06
3.3272e-05
3.48337e-06
3.27329e-05
2.30607e-06
3.20269e-05
1.18026e-06
3.12241e-05
1.00014e-07
3.03556e-05
-9.41579e-07
2.94343e-05
-1.95026e-06
2.84663e-05
-2.93024e-06
2.74552e-05
-3.88452e-06
2.64035e-05
-4.81529e-06
2.53127e-05
-5.72414e-06
2.41827e-05
-6.6122e-06
2.30121e-05
-7.48012e-06
2.1798e-05
-8.32781e-06
2.05356e-05
-9.15426e-06
1.92182e-05
-9.95743e-06
1.7837e-05
-1.07326e-05
1.63765e-05
-1.14604e-05
1.47949e-05
1.30734e-05
1.16625e-05
2.34338e-05
1.12284e-05
2.98449e-05
1.04302e-05
3.28291e-05
9.40805e-06
3.42302e-05
8.26845e-06
3.46468e-05
7.0962e-06
3.44443e-05
5.94762e-06
3.38815e-05
4.85156e-06
3.31229e-05
3.81548e-06
3.22602e-05
2.83524e-06
3.13358e-05
1.90296e-06
3.03666e-05
1.01113e-06
2.93581e-05
1.53786e-07
2.83125e-05
-6.73457e-07
2.72308e-05
-1.47381e-06
2.6113e-05
-2.24957e-06
2.49584e-05
-3.00238e-06
2.37649e-05
-3.73324e-06
2.25289e-05
-4.44238e-06
2.12447e-05
-5.12907e-06
1.99049e-05
-5.79196e-06
1.84999e-05
-6.43182e-06
1.70164e-05
-7.043e-06
1.54061e-05
1.35429e-05
1.33514e-05
2.29192e-05
1.30215e-05
3.01747e-05
1.2389e-05
3.34616e-05
1.15414e-05
3.50778e-05
1.05517e-05
3.56365e-05
9.49788e-06
3.5498e-05
8.44468e-06
3.49347e-05
7.43455e-06
3.41331e-05
6.48618e-06
3.32085e-05
5.60119e-06
3.22208e-05
4.77297e-06
3.11948e-05
3.99303e-06
3.0138e-05
3.25373e-06
2.90518e-05
2.54909e-06
2.79354e-05
1.87458e-06
2.67875e-05
1.22696e-06
2.56061e-05
6.04089e-07
2.43878e-05
4.87966e-09
2.31281e-05
-5.70745e-07
2.18204e-05
-1.12081e-06
2.04549e-05
-1.63927e-06
1.90183e-05
-2.11263e-06
1.74897e-05
-2.53965e-06
1.58331e-05
1.39587e-05
1.49164e-05
2.34089e-05
1.47105e-05
3.03806e-05
1.41966e-05
3.39756e-05
1.35548e-05
3.57196e-05
1.27677e-05
3.64237e-05
1.18761e-05
3.63896e-05
1.09473e-05
3.58635e-05
1.00372e-05
3.50431e-05
9.1795e-06
3.40662e-05
8.38638e-06
3.3014e-05
7.65613e-06
3.1925e-05
6.98105e-06
3.08131e-05
6.35235e-06
2.96805e-05
5.76217e-06
2.85256e-05
5.20407e-06
2.73457e-05
4.673e-06
2.61371e-05
4.1653e-06
2.48955e-05
3.67894e-06
2.36145e-05
3.21385e-06
2.22855e-05
2.77282e-06
2.0896e-05
2.36591e-06
1.94253e-05
2.01761e-06
1.7838e-05
1.75058e-06
1.61002e-05
1.43021e-05
1.91245e-07
-1.91245e-07
8.36378e-07
-6.45133e-07
1.80974e-06
-9.7336e-07
3.155e-06
-1.34526e-06
4.70922e-06
-1.55423e-06
-2.00682e-06
6.71605e-06
3.59639e-07
-5.50884e-07
1.04978e-06
-1.33528e-06
2.02143e-06
-1.94501e-06
3.17332e-06
-2.49715e-06
4.34781e-06
-2.72871e-06
-2.8144e-06
5.15538e-06
4.20647e-07
-9.7153e-07
1.09076e-06
-2.00539e-06
1.9918e-06
-2.84604e-06
2.97388e-06
-3.47923e-06
3.83517e-06
-3.59e-06
-3.14497e-06
4.16574e-06
4.51114e-07
-1.42264e-06
1.07249e-06
-2.62676e-06
1.87922e-06
-3.65278e-06
2.73577e-06
-4.33578e-06
3.51212e-06
-4.36635e-06
-3.60929e-06
3.97644e-06
4.39501e-07
-1.86215e-06
1.00189e-06
-3.18915e-06
1.71597e-06
-4.36686e-06
2.47854e-06
-5.09835e-06
3.222e-06
-5.10981e-06
-4.25252e-06
3.86523e-06
3.95628e-07
-2.25777e-06
8.91044e-07
-3.68457e-06
1.51582e-06
-4.99164e-06
2.20072e-06
-5.78325e-06
2.91852e-06
-5.82761e-06
-4.99442e-06
3.66042e-06
3.30416e-07
-2.58819e-06
7.51781e-07
-4.10593e-06
1.28752e-06
-5.52737e-06
1.89904e-06
-6.39477e-06
2.58722e-06
-6.51579e-06
-5.78777e-06
3.38057e-06
2.51875e-07
-2.84007e-06
5.93109e-07
-4.44717e-06
1.0378e-06
-5.97206e-06
1.57272e-06
-6.9297e-06
2.2172e-06
-7.16027e-06
-6.5888e-06
3.01823e-06
1.65727e-07
-3.00579e-06
4.22138e-07
-4.70358e-06
7.72202e-07
-6.32212e-06
1.22272e-06
-7.38022e-06
1.80402e-06
-7.74156e-06
-7.35461e-06
2.56983e-06
7.63837e-08
-3.08218e-06
2.44595e-07
-4.87179e-06
4.95615e-07
-6.57314e-06
8.51526e-07
-7.73613e-06
1.34843e-06
-8.23846e-06
-8.04631e-06
2.04012e-06
-1.31198e-08
-3.06906e-06
6.53137e-08
-4.95022e-06
2.1265e-07
-6.72048e-06
4.63078e-07
-7.98656e-06
8.55065e-07
-8.63045e-06
-8.63017e-06
1.43892e-06
-9.82731e-08
-2.97078e-06
-1.11392e-07
-4.9371e-06
-7.2029e-08
-6.75984e-06
6.2433e-08
-8.12102e-06
3.31287e-07
-8.89931e-06
-9.07827e-06
7.79391e-07
-1.77404e-07
-2.79338e-06
-2.8134e-07
-4.83317e-06
-3.5337e-07
-6.68781e-06
-3.44071e-07
-8.13032e-06
-2.13427e-07
-9.02995e-06
-9.36836e-06
7.66618e-08
-2.47398e-07
-2.54598e-06
-4.40096e-07
-4.64047e-06
-6.25835e-07
-6.50208e-06
-7.49472e-07
-8.00668e-06
-7.67628e-07
-9.01179e-06
-9.48459e-06
-6.51399e-07
-3.05406e-07
-2.24058e-06
-5.83109e-07
-4.36276e-06
-8.83234e-07
-6.20195e-06
-1.14563e-06
-7.74428e-06
-1.31931e-06
-8.83812e-06
-9.41703e-06
-1.38687e-06
-3.48594e-07
-1.89198e-06
-7.05745e-07
-4.00561e-06
-1.11865e-06
-5.78904e-06
-1.52348e-06
-7.33946e-06
-1.85726e-06
-8.50434e-06
-9.16422e-06
-2.11007e-06
-3.74121e-07
-1.51786e-06
-8.03198e-07
-3.57654e-06
-1.32448e-06
-5.26776e-06
-1.87191e-06
-6.79202e-06
-2.37022e-06
-8.00603e-06
-8.72989e-06
-2.80455e-06
-3.792e-07
-1.13866e-06
-8.70525e-07
-3.08521e-06
-1.49253e-06
-4.64575e-06
-2.17819e-06
-6.10637e-06
-2.84395e-06
-7.34027e-06
-8.11666e-06
-3.45718e-06
-3.61244e-07
-7.77417e-07
-9.02641e-07
-2.54381e-06
-1.61448e-06
-3.93391e-06
-2.43086e-06
-5.28999e-06
-3.26029e-06
-6.51085e-06
-7.32492e-06
-4.05203e-06
-3.17791e-07
-4.59625e-07
-8.9419e-07
-1.96741e-06
-1.6795e-06
-3.1486e-06
-2.6165e-06
-4.35299e-06
-3.60743e-06
-5.51992e-06
-6.35785e-06
-4.57449e-06
-2.4783e-07
-2.11796e-07
-8.39675e-07
-1.37557e-06
-1.6744e-06
-2.31388e-06
-2.71502e-06
-3.31236e-06
-3.87062e-06
-4.36432e-06
-5.21395e-06
-5.01452e-06
-1.7421e-07
-3.75853e-08
-7.33933e-07
-8.15847e-07
-1.58077e-06
-1.46704e-06
-2.69459e-06
-2.19854e-06
-4.02873e-06
-3.03018e-06
-3.87836e-06
-5.36433e-06
-8.47726e-08
4.71874e-08
-5.683e-07
-3.3232e-07
-1.36359e-06
-6.71749e-07
-2.49347e-06
-1.06866e-06
-4.01478e-06
-1.50887e-06
-2.29467e-06
-5.59847e-06
4.71874e-08
-2.85132e-07
-9.56881e-07
-2.02554e-06
-3.53441e-06
-5.82908e-06
1.4487e-05
1.56379e-05
1.56243e-05
2.92434e-05
1.56666e-05
3.39332e-05
1.53738e-05
3.60124e-05
1.48637e-05
3.69338e-05
1.41888e-05
3.70645e-05
1.34238e-05
3.66285e-05
1.26377e-05
3.58293e-05
1.18807e-05
3.48232e-05
1.11797e-05
3.37149e-05
1.05423e-05
3.25625e-05
9.96445e-06
3.13909e-05
9.43768e-06
3.02073e-05
8.95256e-06
2.90107e-05
8.50046e-06
2.77977e-05
8.07411e-06
2.65635e-05
7.66785e-06
2.53017e-05
7.27837e-06
2.40039e-05
6.90587e-06
2.2658e-05
6.55561e-06
2.12462e-05
6.23791e-06
1.97429e-05
5.96152e-06
1.81144e-05
5.72846e-06
1.63332e-05
1.43932e-05
1.1572e-05
9.22129e-06
1.54113e-05
2.54041e-05
1.66608e-05
3.26837e-05
1.6928e-05
3.57453e-05
1.67891e-05
3.70726e-05
1.6395e-05
3.74586e-05
1.58401e-05
3.71834e-05
1.52102e-05
3.64591e-05
1.45721e-05
3.54613e-05
1.39696e-05
3.43175e-05
1.34232e-05
3.31089e-05
1.29368e-05
3.18773e-05
1.25047e-05
3.06394e-05
1.21176e-05
2.93978e-05
1.17659e-05
2.81494e-05
1.14415e-05
2.68879e-05
1.11384e-05
2.56049e-05
1.08539e-05
2.42884e-05
1.05896e-05
2.29222e-05
1.03515e-05
2.14844e-05
1.01481e-05
1.99463e-05
9.98894e-06
1.82736e-05
9.88894e-06
1.64332e-05
1.43913e-05
9.00808e-06
4.37895e-06
1.45046e-05
1.99075e-05
1.71377e-05
3.00506e-05
1.81797e-05
3.47032e-05
1.85088e-05
3.67436e-05
1.84567e-05
3.75107e-05
1.81613e-05
3.74788e-05
1.77258e-05
3.68947e-05
1.72326e-05
3.59544e-05
1.67421e-05
3.4808e-05
1.62906e-05
3.35604e-05
1.58933e-05
3.22746e-05
1.55511e-05
3.09816e-05
1.52573e-05
2.96917e-05
1.50031e-05
2.84036e-05
1.47806e-05
2.71104e-05
1.45847e-05
2.58008e-05
1.44134e-05
2.44597e-05
1.42682e-05
2.30674e-05
1.41533e-05
2.15993e-05
1.40742e-05
2.00254e-05
1.40373e-05
1.83105e-05
1.40546e-05
1.64159e-05
1.42934e-05
7.30162e-06
1.05377e-06
1.30825e-05
1.41266e-05
1.70472e-05
2.60859e-05
1.90577e-05
3.26927e-05
1.99776e-05
3.58237e-05
2.03354e-05
3.71528e-05
2.03509e-05
3.74633e-05
2.01513e-05
3.70943e-05
1.98354e-05
3.62703e-05
1.94786e-05
3.51648e-05
1.91332e-05
3.39059e-05
1.88282e-05
3.25796e-05
1.85745e-05
3.12353e-05
1.83713e-05
2.98949e-05
1.82125e-05
2.85624e-05
1.80917e-05
2.72312e-05
1.80043e-05
2.58881e-05
1.79486e-05
2.45155e-05
1.79246e-05
2.30914e-05
1.79334e-05
2.15905e-05
1.79766e-05
1.99823e-05
1.80573e-05
1.82298e-05
1.81845e-05
1.62887e-05
1.40973e-05
6.20812e-06
-1.28912e-06
1.13932e-05
8.94151e-06
1.63585e-05
2.11207e-05
1.94606e-05
2.95906e-05
2.11231e-05
3.41613e-05
2.1974e-05
3.63019e-05
2.23569e-05
3.70803e-05
2.24413e-05
3.70099e-05
2.23428e-05
3.63688e-05
2.21508e-05
3.53569e-05
2.19319e-05
3.41248e-05
2.17302e-05
3.27813e-05
2.15692e-05
3.13963e-05
2.14568e-05
3.00072e-05
2.13923e-05
2.86269e-05
2.13718e-05
2.72517e-05
2.13918e-05
2.58682e-05
2.14499e-05
2.44574e-05
2.15442e-05
2.2997e-05
2.16724e-05
2.14623e-05
2.18325e-05
1.98222e-05
2.20247e-05
1.80376e-05
2.22559e-05
1.60576e-05
1.38064e-05
5.55262e-06
-3.18132e-06
9.81389e-06
4.68024e-06
1.51386e-05
1.5796e-05
1.92804e-05
2.54488e-05
2.18324e-05
3.16093e-05
2.32952e-05
3.48391e-05
2.41174e-05
3.62582e-05
2.45402e-05
3.6587e-05
2.47062e-05
3.62029e-05
2.47186e-05
3.53445e-05
2.46568e-05
3.41865e-05
2.4579e-05
3.28591e-05
2.45222e-05
3.14531e-05
2.45058e-05
3.00236e-05
2.45367e-05
2.8596e-05
2.46152e-05
2.71731e-05
2.47395e-05
2.57439e-05
2.4907e-05
2.42899e-05
2.5114e-05
2.279e-05
2.53555e-05
2.12209e-05
2.56259e-05
1.95517e-05
2.59228e-05
1.77406e-05
2.62511e-05
1.57293e-05
1.34273e-05
5.09106e-06
-4.89181e-06
8.50945e-06
1.26185e-06
1.35843e-05
1.07211e-05
1.84605e-05
2.05726e-05
2.19728e-05
2.80969e-05
2.41875e-05
3.26245e-05
2.5547e-05
3.48987e-05
2.63751e-05
3.57589e-05
2.68605e-05
3.57174e-05
2.71259e-05
3.50791e-05
2.72626e-05
3.40498e-05
2.73405e-05
3.27813e-05
2.74096e-05
3.13839e-05
2.75019e-05
2.99313e-05
2.7634e-05
2.84639e-05
2.78123e-05
2.69948e-05
2.8038e-05
2.55182e-05
2.83095e-05
2.40184e-05
2.86225e-05
2.24769e-05
2.89701e-05
2.08733e-05
2.93438e-05
1.9178e-05
2.97381e-05
1.73464e-05
3.01554e-05
1.5312e-05
1.29684e-05
4.62271e-06
-6.4963e-06
7.44739e-06
-1.56283e-06
1.19407e-05
6.2278e-06
1.70605e-05
1.54529e-05
2.1431e-05
2.37264e-05
2.4507e-05
2.95484e-05
2.65281e-05
3.28776e-05
2.78514e-05
3.44356e-05
2.87238e-05
3.4845e-05
2.93001e-05
3.45028e-05
2.96866e-05
3.36634e-05
2.99635e-05
3.25043e-05
3.01922e-05
3.11552e-05
3.04163e-05
2.97072e-05
3.06633e-05
2.8217e-05
3.09476e-05
2.67105e-05
3.12753e-05
2.51905e-05
3.1647e-05
2.36467e-05
3.20596e-05
2.20644e-05
3.25059e-05
2.0427e-05
3.29755e-05
1.87084e-05
3.34595e-05
1.68624e-05
3.3957e-05
1.48144e-05
1.24404e-05
4.06778e-06
-7.99424e-06
6.4971e-06
-3.99215e-06
1.03506e-05
2.3743e-06
1.52731e-05
1.05304e-05
2.01774e-05
1.88221e-05
2.41124e-05
2.56135e-05
2.69106e-05
3.00794e-05
2.88432e-05
3.25031e-05
3.01905e-05
3.34976e-05
3.11483e-05
3.3545e-05
3.18461e-05
3.29655e-05
3.2377e-05
3.19735e-05
3.28113e-05
3.07209e-05
3.3203e-05
2.93156e-05
3.35901e-05
2.78299e-05
3.39961e-05
2.63044e-05
3.44333e-05
2.47533e-05
3.49064e-05
2.31736e-05
3.5415e-05
2.15557e-05
3.59542e-05
1.98878e-05
3.65128e-05
1.81497e-05
3.70792e-05
1.62961e-05
3.76482e-05
1.42454e-05
1.18546e-05
3.40281e-06
-9.35693e-06
5.53427e-06
-6.1236e-06
8.82782e-06
-9.19251e-07
1.33004e-05
6.05774e-06
1.83018e-05
1.38208e-05
2.29117e-05
2.10036e-05
2.65356e-05
2.64554e-05
2.91918e-05
2.98469e-05
3.11224e-05
3.1567e-05
3.25507e-05
3.21167e-05
3.36358e-05
3.18805e-05
3.44872e-05
3.1122e-05
3.51856e-05
3.00225e-05
3.57943e-05
2.87069e-05
3.63606e-05
2.72637e-05
3.69169e-05
2.57482e-05
3.74826e-05
2.41876e-05
3.80675e-05
2.25887e-05
3.86755e-05
2.09478e-05
3.93053e-05
1.9258e-05
3.99488e-05
1.75063e-05
4.05915e-05
1.56534e-05
4.12236e-05
1.36132e-05
1.12223e-05
2.62689e-06
-1.05449e-05
4.48618e-06
-7.9829e-06
7.30857e-06
-3.74165e-06
1.12442e-05
2.12216e-06
1.59988e-05
9.06608e-06
2.09262e-05
1.60762e-05
2.52756e-05
2.2106e-05
2.8723e-05
2.63995e-05
3.13497e-05
2.89403e-05
3.3356e-05
3.01104e-05
3.49226e-05
3.03139e-05
3.61787e-05
2.98659e-05
3.72106e-05
2.89905e-05
3.80977e-05
2.78198e-05
3.88956e-05
2.64657e-05
3.9646e-05
2.49977e-05
4.03747e-05
2.34589e-05
4.10963e-05
2.1867e-05
4.18191e-05
2.0225e-05
4.25465e-05
1.85306e-05
4.32756e-05
1.67771e-05
4.39928e-05
1.49362e-05
4.46828e-05
1.29232e-05
1.05531e-05
1.75169e-06
-1.15172e-05
3.32726e-06
-9.55846e-06
5.72732e-06
-6.14171e-06
9.12378e-06
-1.2743e-06
1.34461e-05
4.7438e-06
1.83083e-05
1.12139e-05
2.3105e-05
1.73093e-05
2.72886e-05
2.2216e-05
3.06848e-05
2.5544e-05
3.33772e-05
2.74181e-05
3.55221e-05
2.8169e-05
3.728e-05
2.8108e-05
3.87665e-05
2.75041e-05
4.00135e-05
2.65728e-05
4.10987e-05
2.53805e-05
4.20976e-05
2.39989e-05
4.30376e-05
2.25189e-05
4.39371e-05
2.09675e-05
4.48068e-05
1.93553e-05
4.56535e-05
1.76839e-05
4.64803e-05
1.59504e-05
4.72783e-05
1.41382e-05
4.80278e-05
1.21736e-05
9.8532e-06
7.97488e-07
-1.2238e-05
2.06321e-06
-1.08242e-05
4.05637e-06
-8.13487e-06
6.93362e-06
-4.15156e-06
1.07366e-05
9.40872e-07
1.5271e-05
6.67946e-06
2.01527e-05
1.24276e-05
2.48437e-05
1.7525e-05
2.89688e-05
2.14189e-05
3.24206e-05
2.39663e-05
3.52605e-05
2.5329e-05
3.76008e-05
2.57677e-05
3.95961e-05
2.55088e-05
4.13515e-05
2.48174e-05
4.28571e-05
2.38749e-05
4.41668e-05
2.26892e-05
4.53767e-05
2.1309e-05
4.65079e-05
1.98363e-05
4.7573e-05
1.82902e-05
4.85802e-05
1.66767e-05
4.95348e-05
1.49958e-05
5.04348e-05
1.32381e-05
5.12595e-05
1.1349e-05
9.11787e-06
-2.09816e-07
-1.26796e-05
7.21134e-07
-1.17551e-05
2.30358e-06
-9.71732e-06
4.67833e-06
-6.52631e-06
7.9293e-06
-2.31009e-06
1.19928e-05
2.61599e-06
1.66461e-05
7.77431e-06
2.15107e-05
1.26604e-05
2.61606e-05
1.6769e-05
3.03259e-05
1.9801e-05
3.39219e-05
2.1733e-05
3.69855e-05
2.27041e-05
3.95907e-05
2.29036e-05
4.18612e-05
2.25468e-05
4.38708e-05
2.18652e-05
4.56462e-05
2.09138e-05
4.72282e-05
1.9727e-05
4.86722e-05
1.83923e-05
5.00041e-05
1.69584e-05
5.12363e-05
1.54445e-05
5.2375e-05
1.38571e-05
5.34218e-05
1.21913e-05
5.43588e-05
1.0412e-05
8.32085e-06
-1.24067e-06
-1.28258e-05
-6.61927e-07
-1.23339e-05
5.03788e-07
-1.0883e-05
2.38731e-06
-8.40983e-06
5.0835e-06
-5.00628e-06
8.60448e-06
-9.04983e-07
1.28346e-05
3.54423e-06
1.75486e-05
7.94639e-06
2.24005e-05