/*--------------------------------*- C++ -*----------------------------------*\
  =========                 |
  \\      /  F ield         | OpenFOAM: The Open Source CFD Toolbox
   \\    /   O peration     | Website:  https://openfoam.org
    \\  /    A nd           | Version:  11
     \\/     M anipulation  |
\*---------------------------------------------------------------------------*/
FoamFile
{
    format      ascii;
    class       volVectorField;
    location    "1";
    object      U;
}
// * * * * * * * * * * * * * * * * * * * * * * * * * * * * * * * * * * * * * //

dimensions      [0 1 -1 0 0 0 0];

internalField   nonuniform List<vector> 
2880
(
(0.0448974 -0.0400542 2.62605e-19)
(0.19599 -0.0748068 -1.86854e-19)
(0.406458 -0.0978012 1.49852e-19)
(0.515663 -0.108982 -7.0764e-21)
(0.580231 -0.115778 1.04896e-19)
(0.604304 -0.113134 7.02574e-20)
(0.108594 -0.0795662 -6.94699e-19)
(0.288115 -0.11617 1.91423e-19)
(0.459036 -0.130697 -4.2449e-19)
(0.543216 -0.135894 -2.63447e-20)
(0.59293 -0.136974 -2.15763e-20)
(0.616517 -0.121395 -1.10449e-19)
(0.138072 -0.0935595 4.41405e-19)
(0.319411 -0.149815 -7.28345e-19)
(0.467416 -0.15944 2.89537e-19)
(0.540581 -0.159208 4.97131e-20)
(0.588038 -0.155147 -4.0891e-20)
(0.614732 -0.135988 -6.58018e-20)
(0.16357 -0.110791 -9.05334e-19)
(0.343208 -0.177869 6.06768e-19)
(0.467313 -0.187005 3.0974e-20)
(0.534151 -0.181871 4.67196e-20)
(0.580286 -0.173372 -3.81938e-20)
(0.609917 -0.152119 2.47817e-19)
(0.193224 -0.149905 1.02482e-18)
(0.359147 -0.203701 -3.87478e-20)
(0.464312 -0.213162 0)
(0.52702 -0.204832 -3.57067e-19)
(0.572367 -0.193427 0)
(0.604751 -0.17146 -4.14382e-19)
(0.215983 -0.17336 0)
(0.368998 -0.226937 7.23306e-20)
(0.459938 -0.237664 -5.586e-20)
(0.519539 -0.228078 3.3971e-19)
(0.564647 -0.215249 -6.73961e-20)
(0.599798 -0.193573 2.86391e-19)
(0.235399 -0.194625 -1.82727e-18)
(0.374524 -0.247433 -1.15873e-18)
(0.454546 -0.260777 0)
(0.511714 -0.251754 -6.53199e-19)
(0.55712 -0.238781 0)
(0.59512 -0.21806 -1.0911e-19)
(0.252132 -0.214535 4.95371e-21)
(0.376815 -0.265609 2.16971e-18)
(0.448167 -0.282854 8.09774e-19)
(0.503474 -0.276039 6.23778e-22)
(0.54968 -0.264037 -6.38818e-19)
(0.590654 -0.244781 1.10673e-19)
(0.266008 -0.231983 3.72627e-18)
(0.376213 -0.28189 -1.05522e-18)
(0.440688 -0.304182 -9.01994e-22)
(0.494684 -0.301029 1.30737e-18)
(0.542163 -0.291078 6.18976e-20)
(0.586299 -0.273739 -4.00379e-21)
(0.276802 -0.246265 -1.88481e-18)
(0.372782 -0.296611 -6.36982e-20)
(0.431917 -0.325014 -7.15875e-19)
(0.485166 -0.326792 -6.03681e-19)
(0.534369 -0.319977 6.17659e-19)
(0.581911 -0.305011 -6.32225e-19)
(0.28408 -0.257136 2.88595e-20)
(0.36661 -0.310058 0)
(0.421667 -0.345527 9.22172e-20)
(0.474692 -0.353386 -7.54322e-20)
(0.526056 -0.350788 0)
(0.577331 -0.338735 4.19472e-19)
(0.287466 -0.264676 0)
(0.357777 -0.322434 0)
(0.409751 -0.365847 6.48552e-19)
(0.463009 -0.380832 7.46494e-20)
(0.516955 -0.38357 0)
(0.572387 -0.375101 0)
(0.286525 -0.269079 -1.84706e-18)
(0.346408 -0.333893 0)
(0.39597 -0.386045 -8.25451e-19)
(0.449833 -0.40913 6.56503e-19)
(0.506766 -0.418364 0)
(0.566886 -0.414323 -9.95408e-20)
(0.280929 -0.270723 1.84763e-18)
(0.332496 -0.344481 0)
(0.380182 -0.406116 -9.02815e-20)
(0.434845 -0.438227 -5.08039e-19)
(0.495148 -0.455187 0)
(0.560608 -0.456638 9.81341e-20)
(0.270572 -0.269928 -2.90236e-20)
(0.31598 -0.354174 -6.40394e-20)
(0.362262 -0.42596 -6.94946e-19)
(0.417725 -0.467965 5.82589e-19)
(0.481704 -0.493995 0)
(0.553273 -0.502285 -4.9277e-19)
(0.255435 -0.266944 1.81511e-18)
(0.296963 -0.362874 3.34408e-20)
(0.342112 -0.445306 1.50507e-18)
(0.398157 -0.498042 -5.87841e-19)
(0.465981 -0.534604 -4.72242e-19)
(0.54452 -0.551456 7.88753e-19)
(0.235672 -0.261927 -3.76494e-18)
(0.275613 -0.370241 1.10982e-18)
(0.319711 -0.463645 -7.67861e-19)
(0.375826 -0.527929 -6.66934e-19)
(0.44747 -0.576568 6.57908e-20)
(0.533889 -0.604126 -3.93401e-19)
(0.211721 -0.254772 1.8336e-18)
(0.252143 -0.375585 -1.1091e-18)
(0.295085 -0.480149 0)
(0.350397 -0.556753 6.06894e-19)
(0.425555 -0.619093 4.80273e-19)
(0.52078 -0.659912 0)
(0.184403 -0.244721 9.60255e-19)
(0.226809 -0.377717 0)
(0.268254 -0.493514 -3.61293e-19)
(0.321554 -0.583088 2.71622e-19)
(0.399444 -0.660811 0)
(0.504201 -0.718082 0)
(0.154897 -0.229779 -1.02612e-18)
(0.199712 -0.374755 3.89367e-20)
(0.239241 -0.501625 4.28035e-19)
(0.288836 -0.604989 -7.64208e-20)
(0.368118 -0.699457 -1.81109e-19)
(0.482513 -0.777455 0)
(0.124322 -0.20682 0)
(0.170715 -0.363837 -6.94174e-19)
(0.208069 -0.501448 2.90383e-20)
(0.251748 -0.620207 -2.99849e-19)
(0.330519 -0.731341 2.23329e-19)
(0.453076 -0.836554 0)
(0.0947386 -0.173784 -4.987e-19)
(0.140393 -0.341425 3.0062e-19)
(0.175183 -0.489112 -2.13417e-19)
(0.210528 -0.626359 0)
(0.28602 -0.751102 0)
(0.412115 -0.895634 0)
(0.070045 -0.130966 5.42189e-19)
(0.110509 -0.302166 3.57718e-19)
(0.142971 -0.457872 1.32343e-19)
(0.167034 -0.620831 7.78537e-20)
(0.233623 -0.746831 2.00546e-20)
(0.344804 -0.967405 0)
(0.0503567 -0.0646333 1.2696e-20)
(0.0745178 -0.21165 -6.134e-21)
(0.100087 -0.370345 1.46186e-19)
(0.0995766 -0.586779 -1.12083e-19)
(0.163442 -0.670975 -9.18092e-21)
(0.224768 -1.0871 1.18284e-20)
(0.650092 -0.050669 1.06044e-20)
(0.696481 -0.0186521 -4.212e-22)
(0.741071 -0.00625404 -6.90617e-21)
(0.779132 -0.00066742 0)
(0.812099 0.00150587 -1.96142e-20)
(0.840612 0.0020535 2.67419e-20)
(0.865281 0.00188056 -2.37678e-20)
(0.886631 0.00141359 1.46484e-20)
(0.905124 0.000850999 0)
(0.921143 0.000291971 1.21234e-20)
(0.935009 -0.000212179 -2.28443e-20)
(0.946988 -0.000633203 -1.06172e-20)
(0.9573 -0.000957785 2.02569e-20)
(0.966127 -0.00118529 -1.95381e-20)
(0.973622 -0.00132669 0)
(0.979914 -0.00139954 -3.5722e-20)
(0.985125 -0.00142081 3.446e-20)
(0.989372 -0.00140029 1.65167e-20)
(0.992766 -0.00133906 -6.37566e-20)
(0.99541 -0.00123191 8.62237e-23)
(0.997389 -0.00106945 -1.47154e-20)
(0.998761 -0.000841656 1.43248e-20)
(0.999566 -0.00055147 1.38298e-20)
(0.99993 -0.000222081 -6.69686e-24)
(0.650174 -0.0700748 0)
(0.696688 -0.0418259 -1.59832e-19)
(0.740298 -0.0292076 1.5977e-19)
(0.778291 -0.0228929 -2.32856e-20)
(0.81139 -0.0197244 3.91469e-20)
(0.840113 -0.0180339 -3.59935e-20)
(0.864983 -0.0169941 6.33765e-20)
(0.886511 -0.0162234 -2.84942e-20)
(0.905154 -0.0155487 2.71791e-20)
(0.921294 -0.0148839 9.78181e-22)
(0.935256 -0.0141811 9.11639e-20)
(0.947305 -0.0134102 -2.17125e-20)
(0.957665 -0.0125527 0)
(0.966521 -0.0116037 7.71636e-20)
(0.974027 -0.010574 7.36891e-20)
(0.980316 -0.0094896 5.29409e-20)
(0.98551 -0.00838211 -8.59951e-20)
(0.989724 -0.00727595 -1.64301e-20)
(0.993071 -0.00618009 6.36587e-20)
(0.995658 -0.00508784 -6.11071e-20)
(0.997574 -0.00398095 1.03232e-19)
(0.998857 -0.00284564 4.2661e-20)
(0.999488 -0.00171388 -1.23887e-19)
(0.999635 -0.000657723 2.21902e-19)
(0.648387 -0.0911175 1.68122e-21)
(0.69558 -0.0652567 2.20148e-19)
(0.739225 -0.0526151 -1.59909e-19)
(0.777711 -0.0455518 0)
(0.811258 -0.0413241 -3.90347e-20)
(0.840357 -0.0384239 1.05363e-19)
(0.865523 -0.0361164 -1.27955e-19)
(0.887281 -0.034065 0)
(0.906093 -0.0321188 5.21722e-20)
(0.922354 -0.0302026 9.6975e-20)
(0.93639 -0.028272 8.99797e-20)
(0.948477 -0.0262947 -1.70729e-19)
(0.95884 -0.0242468 0)
(0.96767 -0.0221167 3.80504e-20)
(0.975124 -0.0199128 -1.10368e-19)
(0.98134 -0.0176659 -3.55125e-20)
(0.98644 -0.0154206 -1.35929e-19)
(0.990541 -0.0132166 1.63925e-19)
(0.993757 -0.0110731 -1.26049e-19)
(0.996205 -0.00898403 2.4329e-19)
(0.997976 -0.00692392 -2.05198e-19)
(0.999064 -0.00488269 -8.52928e-20)
(0.999327 -0.00293883 1.37117e-19)
(0.999047 -0.00119659 -1.71325e-19)
(0.646092 -0.113551 0)
(0.694282 -0.0896303 -6.05666e-20)
(0.738517 -0.0767744 -2.06378e-19)
(0.77774 -0.0688334 2.26019e-19)
(0.811894 -0.0634176 0)
(0.841464 -0.0592058 0)
(0.866985 -0.0555528 -1.88012e-19)
(0.889002 -0.0521611 5.81004e-20)
(0.907992 -0.0488968 -2.08924e-19)
(0.924361 -0.0456933 7.23732e-22)
(0.938448 -0.0425081 8.93741e-20)
(0.950534 -0.0393065 -3.55055e-22)
(0.960853 -0.0360584 -7.95803e-20)
(0.9696 -0.0327442 -6.92794e-22)
(0.976939 -0.0293663 2.18693e-19)
(0.983009 -0.0259559 -2.10508e-19)
(0.987939 -0.0225669 6.71138e-20)
(0.991845 -0.0192537 -6.52221e-20)
(0.994845 -0.0160483 6.22194e-20)
(0.997067 -0.0129468 -5.99415e-20)
(0.998608 -0.00991809 1.16166e-19)
(0.999389 -0.00697083 -2.81266e-19)
(0.999092 -0.00426385 3.81124e-19)
(0.998185 -0.00190857 -1.46519e-19)
(0.643919 -0.137564 -3.74688e-20)
(0.693377 -0.115018 2.43185e-19)
(0.738555 -0.101745 3.10253e-19)
(0.778633 -0.0927813 -2.72074e-19)
(0.813464 -0.0860503 -7.94035e-20)
(0.843554 -0.0804231 -7.12313e-20)
(0.869461 -0.0753412 2.4998e-19)
(0.891749 -0.070542 -1.15519e-19)
(0.910911 -0.0659063 0)
(0.927369 -0.0613737 0)
(0.941475 -0.0569031 -1.77157e-19)
(0.953519 -0.052457 2.45937e-21)
(0.963744 -0.0479985 3.96091e-19)
(0.972349 -0.0434991 -1.52255e-19)
(0.979505 -0.0389517 -7.15795e-20)
(0.985357 -0.0343829 6.95732e-20)
(0.990037 -0.0298501 -6.69593e-20)
(0.993664 -0.0254206 6.37197e-20)
(0.996361 -0.0211402 -1.23518e-19)
(0.998268 -0.0170092 -1.78036e-19)
(0.999491 -0.0129944 -1.14484e-19)
(0.999851 -0.00914116 2.22265e-19)
(0.998795 -0.00572842 5.41977e-20)
(0.997078 -0.00285 -1.89735e-19)
(0.642072 -0.163156 7.03361e-20)
(0.69312 -0.141456 -3.04212e-19)
(0.739495 -0.127551 -1.01038e-19)
(0.780526 -0.117405 4.46762e-19)
(0.816093 -0.109238 8.04176e-20)
(0.846738 -0.102095 7.08193e-20)
(0.873047 -0.0954992 -1.22977e-19)
(0.895605 -0.0892218 -2.21415e-19)
(0.914924 -0.0831573 2.0665e-19)
(0.931443 -0.0772503 9.26961e-20)
(0.945529 -0.0714608 0)
(0.957484 -0.0657482 1.64249e-19)
(0.967558 -0.0600693 -1.57129e-19)
(0.97596 -0.0543855 -2.21844e-19)
(0.982863 -0.048678 7.13808e-20)
(0.988419 -0.0429631 1.35755e-19)
(0.992765 -0.0372958 -1.31493e-19)
(0.996023 -0.031751 6.31759e-20)
(0.99832 -0.0263873 -1.82703e-19)
(0.999811 -0.0212089 2.3436e-19)
(1.00061 -0.0161765 -1.6975e-19)
(1.00045 -0.0113729 0)
(0.998443 -0.00722377 1.0479e-19)
(0.995903 -0.00417686 0)
(0.640604 -0.190386 7.25886e-20)
(0.693574 -0.169039 0)
(0.74139 -0.154248 3.07222e-19)
(0.783502 -0.142737 -2.66077e-19)
(0.819878 -0.133 0)
(0.851114 -0.124233 0)
(0.877837 -0.116032 0)
(0.900657 -0.108202 2.25219e-19)
(0.920109 -0.100647 -2.01945e-19)
(0.936653 -0.0933175 -1.85507e-19)
(0.950673 -0.0861734 -1.72862e-19)
(0.962485 -0.0791712 1.64349e-19)
(0.972349 -0.0722613 0)
(0.98048 -0.0653951 2.91943e-19)
(0.987056 -0.0585404 -1.3988e-19)
(0.992236 -0.0516988 0)
(0.996157 -0.0449155 -1.27342e-19)
(0.998947 -0.0382663 2.47603e-19)
(1.00073 -0.0318193 0)
(1.00169 -0.0255805 1.14098e-19)
(1.00196 -0.0194999 0)
(1.00119 -0.0137083 0)
(0.998122 -0.00886644 1.01742e-19)
(0.994767 -0.00591695 -5.40937e-19)
(0.639503 -0.21934 5.57236e-19)
(0.694756 -0.197917 -3.55905e-19)
(0.74428 -0.181944 -5.13194e-19)
(0.787633 -0.168841 -1.72736e-19)
(0.82491 -0.157368 1.57703e-19)
(0.856782 -0.146848 1.34511e-19)
(0.883929 -0.13694 -1.24542e-19)
(0.906997 -0.127472 0)
(0.926551 -0.118361 1.99784e-19)
(0.943078 -0.109557 3.35155e-21)
(0.956979 -0.101021 1.73385e-19)
(0.968589 -0.0927046 0)
(0.978177 -0.0845523 0)
(0.985966 -0.0765057 1.41356e-19)
(0.99214 -0.0685183 4.06184e-19)
(0.996859 -0.0605742 -2.62291e-19)
(1.00027 -0.0527023 -2.48032e-19)
(1.00249 -0.0449723 3.62266e-19)
(1.00367 -0.0374571 -2.34221e-19)
(1.00399 -0.0301641 -2.36909e-21)
(1.00363 -0.0230401 0)
(1.00215 -0.0163101 0)
(0.997949 -0.0109805 4.03375e-19)
(0.99343 -0.00795761 -3.6679e-19)
(0.638748 -0.250191 -7.6654e-20)
(0.696696 -0.228302 5.70145e-21)
(0.748226 -0.2108 -9.86872e-20)
(0.793008 -0.195818 2.60653e-19)
(0.831293 -0.182392 -1.56309e-19)
(0.863849 -0.169956 1.33002e-19)
(0.891428 -0.158215 -3.62517e-19)
(0.914724 -0.147013 2.15956e-19)
(0.934345 -0.136271 -2.00435e-19)
(0.950803 -0.125939 0)
(0.964528 -0.11597 3.33775e-19)
(0.97587 -0.106314 -1.57893e-19)
(0.985113 -0.0969073 1.44631e-19)
(0.992486 -0.0876821 -4.22021e-19)
(0.998181 -0.0785776 -1.34375e-19)
(1.00236 -0.069559 -1.25753e-19)
(1.00517 -0.0606348 2.44624e-19)
(1.00673 -0.0518609 2.35354e-19)
(1.0072 -0.0433078 -1.13508e-19)
(1.00678 -0.0349791 -3.31423e-19)
(1.00568 -0.0268182 -4.24737e-19)
(1.00337 -0.0191661 4.11736e-19)
(0.997873 -0.0134344 -9.78888e-20)
(0.992048 -0.0104171 -3.33255e-19)
(0.638324 -0.283174 -4.80475e-19)
(0.699452 -0.26045 4.69129e-19)
(0.753324 -0.241017 3.96352e-19)
(0.799744 -0.223795 -3.42765e-19)
(0.839151 -0.208136 0)
(0.872438 -0.193575 -1.31234e-19)
(0.900451 -0.179846 3.6206e-19)
(0.923951 -0.166796 -4.29082e-19)
(0.943591 -0.154339 -3.85525e-19)
(0.959923 -0.142415 1.81045e-19)
(0.973405 -0.130973 -3.30018e-19)
(0.984407 -0.119951 1.55449e-19)
(0.99323 -0.109278 -2.86312e-19)
(1.00011 -0.0988771 4.1035e-19)
(1.00525 -0.0886728 -2.60108e-19)
(1.00881 -0.0786115 1.25244e-19)
(1.01093 -0.0686789 -1.20321e-19)
(1.01176 -0.0589113 -1.15514e-19)
(1.01142 -0.0493673 3.3354e-19)
(1.01015 -0.0400382 0)
(1.00818 -0.0308591 0)
(1.0049 -0.0223013 -9.87897e-20)
(0.997998 -0.0162478 9.78786e-20)
(0.99073 -0.013348 3.20474e-19)
(0.63823 -0.318585 0)
(0.703124 -0.294671 -1.12399e-19)
(0.759719 -0.272839 -2.9728e-19)
(0.808 -0.252931 3.45179e-19)
(0.84864 -0.234679 -1.48554e-19)
(0.882696 -0.217725 -5.14969e-21)
(0.911135 -0.201814 -1.19365e-19)
(0.934798 -0.186777 2.13237e-19)
(0.954401 -0.172507 5.06986e-21)
(0.970539 -0.158925 1.7241e-19)
(0.983701 -0.145964 1.64271e-19)
(0.994285 -0.133551 -2.98926e-19)
(1.00261 -0.121603 -1.38157e-19)
(1.00892 -0.11003 -2.5918e-19)
(1.01342 -0.0987452 2.52389e-19)
(1.01628 -0.0876761 3.56706e-19)
(1.01764 -0.0767852 -3.4398e-19)
(1.01763 -0.0660847 -4.46156e-22)
(1.0164 -0.0556128 -3.19495e-19)
(1.01417 -0.045338 -4.11861e-19)
(1.0112 -0.0351775 3.01866e-19)
(1.00683 -0.0257386 2.97633e-21)
(0.998418 -0.0194393 3.76641e-19)
(0.989577 -0.0167854 -3.46645e-19)
(0.63849 -0.35677 0)
(0.70786 -0.331322 -1.10759e-19)
(0.767613 -0.306552 1.00224e-19)
(0.817988 -0.28341 -1.64587e-19)
(0.859959 -0.262112 4.47396e-19)
(0.894801 -0.242427 -1.26758e-19)
(0.923634 -0.224093 1.1705e-19)
(0.947404 -0.2069 0)
(0.966895 -0.190701 1.89413e-19)
(0.982755 -0.175386 -1.73087e-19)
(0.995512 -0.160861 3.14977e-19)
(1.00559 -0.147032 7.94418e-22)
(1.01332 -0.133801 -1.32195e-19)
(1.01898 -0.121065 1.33336e-19)
(1.02276 -0.108722 2.44146e-19)
(1.02485 -0.0966834 -2.31232e-19)
(1.02537 -0.084888 1.12656e-19)
(1.02444 -0.0733227 -1.04354e-19)
(1.02222 -0.0619996 4.67614e-21)
(1.01892 -0.0508536 1.99445e-19)
(1.01483 -0.0397718 9.77426e-20)
(1.00923 -0.0294928 9.53063e-20)
(0.999235 -0.0230188 0)
(0.988689 -0.020746 -2.9157e-19)
(0.63916 -0.398119 6.8448e-20)
(0.713873 -0.370797 -1.08744e-19)
(0.777281 -0.342475 9.86002e-20)
(0.829986 -0.31544 0)
(0.873358 -0.290538 0)
(0.908968 -0.267699 1.23935e-19)
(0.938131 -0.246641 -3.34799e-19)
(0.96192 -0.227087 4.01702e-19)
(0.981203 -0.208826 1.79368e-19)
(0.996685 -0.191693 -1.66714e-19)
(1.00893 -0.175554 -4.65423e-21)
(1.01841 -0.160288 4.18427e-19)
(1.02546 -0.145772 -1.3643e-19)
(1.03037 -0.131888 1.21334e-19)
(1.03335 -0.118516 -2.3289e-19)
(1.03457 -0.105549 2.27957e-19)
(1.03416 -0.0929073 1.04469e-19)
(1.03225 -0.0805509 1.00419e-19)
(1.02895 -0.0684632 1.97435e-19)
(1.02449 -0.0565388 -3.80471e-19)
(1.01914 -0.0446216 9.07602e-20)
(1.01219 -0.0335667 4.48127e-19)
(1.00055 -0.0269846 0)
(0.98818 -0.0252326 2.75679e-19)
(0.640337 -0.443049 -5.7953e-19)
(0.721455 -0.41351 0)
(0.78909 -0.380947 -3.67241e-19)
(0.844354 -0.349248 0)
(0.889156 -0.320063 -4.11935e-19)
(0.92546 -0.293551 3.66817e-19)
(0.95484 -0.269403 0)
(0.97852 -0.247244 -3.89517e-19)
(0.997464 -0.226761 0)
(1.01244 -0.207715 1.63496e-19)
(1.02406 -0.189912 1.39751e-19)
(1.03282 -0.173189 -2.76468e-19)
(1.03908 -0.157394 -1.29411e-19)
(1.04314 -0.142383 -1.20858e-21)
(1.04523 -0.128018 -2.26151e-19)
(1.0455 -0.114174 -1.0377e-19)
(1.0441 -0.100749 1.00815e-19)
(1.04111 -0.0876806 -1.99501e-19)
(1.03666 -0.0749226 9.30642e-20)
(1.03095 -0.0623267 3.63477e-19)
(1.02424 -0.049684 -4.43673e-19)
(1.01582 -0.0379433 -3.63246e-21)
(1.00249 -0.0313186 0)
(0.988168 -0.0302321 0)
(0.642174 -0.491975 9.57404e-19)
(0.731003 -0.459856 1.10704e-19)
(0.803514 -0.422297 1.03128e-19)
(0.861552 -0.385049 -3.85793e-19)
(0.907747 -0.350786 4.1016e-19)
(0.944596 -0.31998 -7.14098e-19)
(0.974007 -0.292303 1.07567e-19)
(0.997393 -0.267245 1.92405e-19)
(1.01583 -0.244357 3.33083e-19)
(1.03014 -0.223291 -3.0718e-19)
(1.04099 -0.203772 -6.65407e-21)
(1.0489 -0.185578 2.57414e-19)
(1.05425 -0.168517 -1.22801e-19)
(1.05736 -0.152411 -1.10145e-19)
(1.05845 -0.137101 2.16412e-19)
(1.0577 -0.12244 9.95873e-20)
(1.05521 -0.108304 -1.94078e-19)
(1.05109 -0.0946096 -9.43037e-20)
(1.04542 -0.0812825 9.26212e-20)
(1.03838 -0.0681326 -1.7294e-19)
(1.03021 -0.0548936 1.68322e-19)
(1.02022 -0.0425821 -8.40689e-20)
(1.00517 -0.0359831 0)
(0.988778 -0.0357131 -2.41776e-19)
(0.644871 -0.54533 -5.01673e-19)
(0.743039 -0.510121 9.91928e-20)
(0.82116 -0.466773 1.81746e-19)
(0.88216 -0.423004 5.31484e-19)
(0.92962 -0.382769 -1.34085e-19)
(0.96676 -0.346956 2.34579e-19)
(0.995922 -0.315236 0)
(1.01875 -0.286939 1.7529e-19)
(1.03645 -0.261435 -1.66898e-19)
(1.0499 -0.238229 8.02374e-21)
(1.05981 -0.216939 -4.7945e-21)
(1.06671 -0.197265 -3.7861e-19)
(1.07103 -0.178958 2.35071e-19)
(1.07307 -0.161804 -2.19159e-19)
(1.07307 -0.14561 1.04232e-19)
(1.07119 -0.130205 -2.94739e-19)
(1.06755 -0.115444 0)
(1.06222 -0.10122 -8.63171e-20)
(1.05526 -0.0874338 4.69585e-22)
(1.04684 -0.0738569 8.49852e-20)
(1.03714 -0.0601652 3.96358e-19)
(1.02549 -0.0474186 -3.11084e-19)
(1.0087 -0.0409173 -7.64862e-20)
(0.990132 -0.0416231 0)
(0.648695 -0.603622 0)
(0.758231 -0.564386 0)
(0.842776 -0.514405 0)
(0.906877 -0.463119 1.38731e-19)
(0.955359 -0.415987 -1.27353e-19)
(0.992405 -0.374394 0)
(1.02092 -0.338059 0)
(1.04284 -0.306138 -1.7702e-19)
(1.05949 -0.277781 0)
(1.07183 -0.252303 2.80777e-19)
(1.08058 -0.229185 0)
(1.08631 -0.208026 0)
(1.08944 -0.188506 1.1359e-19)
(1.09029 -0.17036 0)
(1.08908 -0.153358 -1.87749e-19)
(1.086 -0.1373 2.74129e-19)
(1.08112 -0.122014 2.59627e-19)
(1.07453 -0.107372 -1.63445e-19)
(1.06624 -0.0932496 -8.28471e-20)
(1.05638 -0.079384 4.39328e-21)
(1.04509 -0.0653965 -7.71367e-20)
(1.03172 -0.0523655 0)
(1.01318 -0.0460348 3.82866e-21)
(0.992339 -0.0478853 -1.37449e-19)
(0.654002 -0.667167 0)
(0.7774 -0.622514 0)
(0.869272 -0.564856 0)
(0.936489 -0.505135 0)
(0.985622 -0.450246 1.07719e-19)
(1.02204 -0.402116 4.31014e-21)
(1.04937 -0.360571 1.81119e-19)
(1.06991 -0.324612 -1.5757e-19)
(1.08512 -0.293144 -2.17985e-19)
(1.09604 -0.265255 1.24487e-19)
(1.10338 -0.24025 1.20402e-19)
(1.10773 -0.217606 -1.1309e-19)
(1.1095 -0.196914 -1.00514e-19)
(1.10901 -0.177846 -1.90964e-19)
(1.1065 -0.160126 1.86658e-19)
(1.10211 -0.14352 -1.73296e-19)
(1.09594 -0.127829 7.94486e-20)
(1.08803 -0.112897 -1.53384e-19)
(1.07838 -0.0985782 0)
(1.06705 -0.0845781 -7.03106e-20)
(1.05413 -0.0704671 1.41668e-19)
(1.039 -0.0573142 -1.42378e-19)
(1.01871 -0.0512183 7.90512e-22)
(0.995492 -0.0543938 -1.22674e-19)
(0.661301 -0.735652 0)
(0.801605 -0.683952 1.59449e-19)
(0.901633 -0.617229 -6.81493e-20)
(0.97179 -0.548376 1.21692e-19)
(1.02108 -0.485084 -2.25286e-19)
(1.05622 -0.429787 4.43114e-20)
(1.08169 -0.382484 -1.67521e-19)
(1.10024 -0.342079 1.58852e-19)
(1.11353 -0.307236 6.87425e-20)
(1.12262 -0.27679 -1.2874e-19)
(1.12825 -0.249842 0)
(1.13097 -0.225717 1.54464e-19)
(1.13119 -0.2039 3.03047e-21)
(1.12922 -0.183989 9.45796e-20)
(1.12528 -0.165655 0)
(1.1195 -0.148622 -3.60642e-20)
(1.11196 -0.13266 7.75633e-20)
(1.10269 -0.117586 7.64715e-20)
(1.09165 -0.10323 0)
(1.07885 -0.0892716 1.3643e-19)
(1.06431 -0.0752317 -1.32708e-19)
(1.04741 -0.0621318 0)
(1.02539 -0.0563072 6.87807e-20)
(0.999651 -0.061006 0)
(0.671249 -0.808028 -4.56255e-20)
(0.832093 -0.747348 -1.20095e-19)
(0.940747 -0.669809 0)
(1.01345 -0.59156 9.80913e-20)
(1.06233 -0.519625 0)
(1.09545 -0.456827 0)
(1.11827 -0.403377 1.45654e-19)
(1.13411 -0.358185 -6.92595e-20)
(1.14487 -0.319727 6.16744e-20)
(1.15168 -0.286587 -5.73882e-20)
(1.15523 -0.257642 0)
(1.15604 -0.232043 -5.07117e-20)
(1.15449 -0.209153 9.01213e-20)
(1.15087 -0.188483 -1.2569e-19)
(1.14536 -0.169642 3.82916e-20)
(1.13809 -0.152311 7.56481e-20)
(1.12912 -0.136225 -1.06567e-19)
(1.11845 -0.121173 3.34213e-20)
(1.10601 -0.10696 -9.77677e-20)
(1.09176 -0.0932449 2.86201e-19)
(1.07563 -0.0795044 -2.77598e-19)
(1.05701 -0.06665 1.50405e-19)
(1.03332 -0.0610675 3.02473e-20)
(1.00484 -0.0675256 -2.95912e-20)
(0.685055 -0.882778 -3.9579e-20)
(0.870047 -0.8102 -1.04685e-19)
(0.987132 -0.719839 2.02042e-21)
(1.06182 -0.632579 -1.55325e-19)
(1.10969 -0.552411 -7.23109e-20)
(1.14007 -0.482285 0)
(1.15944 -0.422629 -3.84542e-20)
(1.17178 -0.372476 -9.11584e-20)
(1.17934 -0.330235 5.90878e-22)
(1.18329 -0.294293 3.51376e-21)
(1.18433 -0.263307 -4.75105e-20)
(1.18291 -0.236245 4.44911e-20)
(1.17935 -0.212334 3.93428e-20)
(1.17387 -0.190985 4.08685e-20)
(1.16665 -0.171742 -3.85341e-20)
(1.15779 -0.154237 -3.65143e-20)
(1.14731 -0.13817 3.47716e-20)
(1.1352 -0.123303 -2.5935e-21)
(1.12136 -0.109423 3.19896e-20)
(1.10568 -0.0961812 -9.00491e-20)
(1.08803 -0.0830195 5.9722e-20)
(1.06782 -0.0706375 -1.73144e-19)
(1.04259 -0.0651224 8.34293e-20)
(1.01101 -0.0736563 9.91645e-20)
(0.705734 -0.95835 -1.58711e-20)
(0.916537 -0.868842 1.63428e-19)
(1.04072 -0.763385 0)
(1.11668 -0.668377 8.03146e-20)
(1.163 -0.581298 7.28088e-20)
(1.19009 -0.504741 -3.0168e-20)
(1.20533 -0.439334 5.2989e-20)
(1.21343 -0.384353 0)
(1.21704 -0.338312 2.22781e-20)
(1.21754 -0.299526 9.42469e-20)
(1.21558 -0.266482 1.02646e-22)
(1.21155 -0.237974 -3.98193e-20)
(1.20569 -0.213086 -3.97244e-20)
(1.19815 -0.191126 -1.67474e-20)
(1.18907 -0.171562 -1.59563e-20)
(1.17849 -0.153978 -4.7393e-20)
(1.16643 -0.13804 -3.0825e-20)
(1.15282 -0.123486 7.30622e-20)
(1.13756 -0.110096 5.473e-23)
(1.12046 -0.0975547 -5.50369e-20)
(1.10135 -0.0853125 1.48535e-20)
(1.0797 -0.0737011 1.46667e-20)
(1.05322 -0.0677551 1.29603e-20)
(1.01809 -0.0787978 -1.35152e-20)
(0.738508 -1.03715 0)
(0.969167 -0.917469 -3.82889e-20)
(1.09892 -0.795528 -1.61181e-21)
(1.17625 -0.694826 -1.41519e-20)
(1.22104 -0.603404 -1.19127e-20)
(1.24482 -0.522228 1.10207e-20)
(1.25567 -0.452227 -2.52286e-20)
(1.259 -0.393013 1.08248e-20)
(1.25804 -0.343416 -4.16675e-20)
(1.25445 -0.301868 0)
(1.24898 -0.266802 -1.85914e-20)
(1.24193 -0.23688 1.73915e-20)
(1.23346 -0.211054 -9.03884e-21)
(1.22364 -0.188524 1.67153e-20)
(1.21253 -0.168681 6.45782e-22)
(1.20012 -0.151053 8.19104e-21)
(1.18638 -0.135269 3.45315e-20)
(1.17122 -0.121044 2.06046e-20)
(1.15448 -0.108168 0)
(1.13594 -0.0964033 0)
(1.11534 -0.0853171 3.76485e-20)
(1.09214 -0.0747549 -1.16032e-20)
(1.06456 -0.0674281 -1.90211e-20)
(1.0277 -0.081276 1.35974e-20)
(0.780271 -1.13734 -2.11415e-21)
(1.03845 -0.951934 -2.80202e-22)
(1.16396 -0.814264 9.35973e-21)
(1.23894 -0.708665 5.98916e-21)
(1.28186 -0.615856 -3.93444e-22)
(1.30278 -0.532551 5.5834e-21)
(1.30956 -0.459759 4.62796e-22)
(1.30807 -0.39744 -3.82267e-21)
(1.30217 -0.344886 1.32991e-20)
(1.29399 -0.300859 -3.84798e-21)
(1.2845 -0.263901 -3.92345e-21)
(1.27401 -0.232634 1.12576e-20)
(1.26261 -0.205913 -1.4944e-20)
(1.25028 -0.182837 -7.06276e-21)
(1.23699 -0.162712 2.02993e-20)
(1.22266 -0.144999 -1.25703e-20)
(1.20721 -0.129281 -6.80184e-21)
(1.19049 -0.115243 1.20228e-20)
(1.17228 -0.102667 -1.18894e-20)
(1.15229 -0.0913655 -1.17789e-20)
(1.13003 -0.0809963 1.14039e-20)
(1.10465 -0.0714294 0)
(1.07505 -0.0651428 -6.02096e-21)
(1.04073 -0.0782117 1.76366e-20)
(0.0397147 -0.0173987 -1.39062e-19)
(0.0418336 -0.0690604 9.35992e-20)
(0.0527534 -0.185705 -7.1184e-20)
(0.0589257 -0.251617 -7.86468e-21)
(0.0732131 -0.409821 -5.4884e-20)
(0.0551206 -0.313454 -5.03049e-20)
(0.0249852 -0.0454945 3.51623e-19)
(0.0244884 -0.107523 -9.34054e-20)
(0.0309729 -0.211763 2.16327e-19)
(0.0336315 -0.278207 1.49716e-20)
(0.0509698 -0.376119 1.14206e-20)
(0.0524207 -0.317513 7.24639e-20)
(0.0178543 -0.0562 -2.23835e-19)
(0.00803091 -0.122433 3.53352e-19)
(0.00920169 -0.214534 -1.45166e-19)
(0.0109315 -0.275432 -2.84247e-20)
(0.0301961 -0.335837 2.42951e-20)
(0.0462711 -0.304036 4.2068e-20)
(0.00876133 -0.0642349 4.60767e-19)
(-0.00799199 -0.131818 -2.95323e-19)
(-0.012062 -0.211332 -1.53867e-20)
(-0.0102515 -0.265694 -2.73561e-20)
(0.0133548 -0.308301 2.37304e-20)
(0.0525108 -0.295177 -1.77486e-19)
(-0.00905486 -0.0694651 -5.21775e-19)
(-0.0238533 -0.134174 1.92008e-20)
(-0.0322518 -0.204454 0)
(-0.0304239 -0.253365 2.11391e-19)
(-0.00454315 -0.286391 0)
(0.0467191 -0.285211 3.0536e-19)
(-0.0209362 -0.0690351 0)
(-0.0392269 -0.131467 -3.78943e-20)
(-0.0516035 -0.195076 2.90896e-20)
(-0.0502856 -0.239889 -2.05624e-19)
(-0.0236472 -0.267915 4.73364e-20)
(0.0318156 -0.273 -2.13812e-19)
(-0.0337362 -0.0664627 9.50772e-19)
(-0.054278 -0.12584 6.07472e-19)
(-0.0704811 -0.184205 0)
(-0.0704842 -0.226013 4.09808e-19)
(-0.0447737 -0.25171 0)
(0.0110428 -0.26007 8.64178e-20)
(-0.0457645 -0.0626336 4.71841e-21)
(-0.068895 -0.118539 -1.15518e-18)
(-0.0889772 -0.172607 -4.61551e-19)
(-0.0911867 -0.212187 3.07909e-21)
(-0.0678273 -0.236841 4.64015e-19)
(-0.0146781 -0.247135 -8.42291e-20)
(-0.0561841 -0.0579295 -1.96294e-18)
(-0.0828176 -0.110363 5.68461e-19)
(-0.106987 -0.160781 -3.20827e-21)
(-0.112263 -0.198632 -8.55854e-19)
(-0.0924794 -0.222743 -4.54294e-20)
(-0.0441056 -0.234134 -2.68629e-21)
(-0.0646475 -0.0525342 9.96896e-19)
(-0.0957463 -0.10179 3.58373e-20)
(-0.124291 -0.148994 4.25246e-19)
(-0.133426 -0.1854 3.99921e-19)
(-0.118258 -0.209065 -4.58505e-19)
(-0.0761197 -0.220884 5.1424e-19)
(-0.0710072 -0.0465018 -1.54098e-20)
(-0.107401 -0.0930727 0)
(-0.140615 -0.137344 -5.77666e-20)
(-0.154315 -0.172422 4.92092e-20)
(-0.144616 -0.19555 0)
(-0.109738 -0.207242 -3.4073e-19)
(-0.0752074 -0.039828 0)
(-0.117509 -0.0842953 0)
(-0.155657 -0.125808 -3.98523e-19)
(-0.174537 -0.159548 -4.92686e-20)
(-0.17102 -0.181976 0)
(-0.144047 -0.19311 0)
(-0.0772573 -0.0325167 9.93361e-19)
(-0.125782 -0.0754625 0)
(-0.169102 -0.114283 5.1555e-19)
(-0.193705 -0.146586 -4.51559e-19)
(-0.196923 -0.168139 0)
(-0.178257 -0.178406 8.70942e-20)
(-0.0771839 -0.0245964 -9.94015e-19)
(-0.131916 -0.0665502 0)
(-0.180598 -0.102614 5.86808e-20)
(-0.211469 -0.133328 3.53478e-19)
(-0.221775 -0.153871 0)
(-0.211658 -0.163054 -8.70016e-20)
(-0.075011 -0.0161709 1.56146e-20)
(-0.135597 -0.0574923 3.64854e-20)
(-0.189783 -0.0906108 4.39616e-19)
(-0.2274 -0.119497 -4.06407e-19)
(-0.24516 -0.13908 0)
(-0.243604 -0.146964 4.26243e-19)
(-0.0707193 -0.00742022 -9.73138e-19)
(-0.136511 -0.0481753 -1.81506e-20)
(-0.196314 -0.078055 -9.52672e-19)
(-0.240944 -0.104871 4.11205e-19)
(-0.266819 -0.123522 3.65404e-19)
(-0.273535 -0.130113 -6.77478e-19)
(-0.0642281 0.00139394 2.01859e-18)
(-0.13435 -0.0384487 -6.01294e-19)
(-0.199822 -0.0647069 4.86657e-19)
(-0.251517 -0.0892369 4.70984e-19)
(-0.28621 -0.106959 -4.62125e-20)
(-0.301278 -0.112369 3.36926e-19)
(-0.0554108 0.00989513 -9.82762e-19)
(-0.128805 -0.0281297 5.978e-19)
(-0.19991 -0.0503461 0)
(-0.258542 -0.0723015 -4.27693e-19)
(-0.302403 -0.0891148 -3.76022e-19)
(-0.326806 -0.0937274 0)
(-0.0441406 0.017543 -5.1202e-19)
(-0.119557 -0.0170022 0)
(-0.196128 -0.0347564 2.25779e-19)
(-0.261603 -0.0538265 -1.9254e-19)
(-0.314769 -0.0696421 0)
(-0.348939 -0.0739498 0)
(-0.0302328 0.023827 5.48459e-19)
(-0.106247 -0.00482868 -2.0516e-20)
(-0.187916 -0.0177441 -2.6884e-19)
(-0.259735 -0.0334792 5.74986e-20)
(-0.322827 -0.0481121 1.48812e-19)
(-0.367593 -0.0525977 0)
(-0.012981 0.0323955 0)
(-0.0883612 0.00846388 3.72219e-19)
(-0.174603 0.000708922 -1.75092e-20)
(-0.251559 -0.0110229 2.07465e-19)
(-0.325172 -0.0238918 -1.79923e-19)
(-0.383056 -0.0289696 0)
(-0.00390951 0.0358135 2.28665e-19)
(-0.0656533 0.0219464 -1.61606e-19)
(-0.155189 0.0201302 1.31301e-19)
(-0.234799 0.0136598 0)
(-0.318958 0.004121 0)
(-0.395398 -0.000601347 0)
(0.00465438 0.0377622 -2.64503e-19)
(-0.0389283 0.035569 -1.94012e-19)
(-0.126647 0.0394621 -7.92536e-20)
(-0.204724 0.0402521 -4.96462e-20)
(-0.296614 0.0389811 -1.41069e-20)
(-0.403064 0.0399106 0)
(0.0188316 0.0416605 4.47827e-21)
(-0.00218515 0.0484969 -3.25081e-21)
(-0.078454 0.0622063 -7.85169e-20)
(-0.150826 0.0736079 6.56646e-20)
(-0.242061 0.0750515 7.98019e-21)
(-0.403255 0.0500778 -6.7762e-21)
(0.786948 -0.900426 2.03885e-22)
(1.08522 -0.904104 2.43557e-21)
(1.22603 -0.80441 -1.08455e-21)
(1.30027 -0.705862 1.08499e-21)
(1.34242 -0.616006 -6.19202e-22)
(1.36168 -0.533842 1.40024e-21)
(1.36544 -0.460448 -3.3157e-21)
(1.35973 -0.396539 2.27757e-21)
(1.34898 -0.341976 3.01069e-21)
(1.33597 -0.295997 -2.81023e-21)
(1.32206 -0.257421 0)
(1.30774 -0.224955 9.39142e-22)
(1.2931 -0.197419 -5.8751e-21)
(1.27804 -0.173837 -6.08089e-21)
(1.26244 -0.153437 1.16903e-20)
(1.24617 -0.135612 -1.09316e-20)
(1.22904 -0.119898 -4.72756e-22)
(1.21083 -0.105956 5.85563e-21)
(1.19122 -0.0935563 -5.335e-21)
(1.16975 -0.0824991 1.06881e-20)
(1.14569 -0.0725275 -4.67657e-21)
(1.11807 -0.0642774 -1.50489e-20)
(1.08632 -0.06198 -5.07258e-21)
(1.05127 -0.0719539 9.56423e-21)
(0.591775 -0.531022 0)
(1.07788 -0.794909 7.88647e-20)
(1.2658 -0.760528 -5.96499e-20)
(1.35263 -0.683768 6.09671e-21)
(1.39794 -0.602492 -3.42576e-21)
(1.41838 -0.524858 3.13824e-21)
(1.4211 -0.45313 -2.89688e-21)
(1.41251 -0.3893 -2.7117e-21)
(1.39763 -0.333915 -1.11827e-21)
(1.37994 -0.286749 -1.68674e-21)
(1.36145 -0.247008 1.71723e-20)
(1.34301 -0.213606 -3.27179e-21)
(1.32484 -0.185421 0)
(1.30683 -0.161454 1.86392e-20)
(1.28879 -0.140884 1.94675e-20)
(1.2705 -0.123067 1.52464e-20)
(1.2517 -0.107521 -2.42898e-20)
(1.23203 -0.0939213 -5.55582e-21)
(1.21106 -0.0820691 1.87011e-20)
(1.18817 -0.0717816 -1.88879e-20)
(1.16249 -0.0628828 3.15089e-20)
(1.13309 -0.0564158 1.33671e-20)
(1.09953 -0.0569253 -4.09667e-20)
(1.06144 -0.0656839 5.95797e-20)
(0.3784 -0.318769 -5.06451e-21)
(0.978434 -0.641172 -1.23505e-19)
(1.26135 -0.688897 7.27716e-20)
(1.3855 -0.644536 0)
(1.44358 -0.576325 9.03321e-21)
(1.46944 -0.505161 -1.85137e-20)
(1.474 -0.437152 1.24148e-20)
(1.46454 -0.374963 0)
(1.44684 -0.320008 -7.28545e-21)