/*--------------------------------*- C++ -*----------------------------------*\
  =========                 |
  \\      /  F ield         | OpenFOAM: The Open Source CFD Toolbox
   \\    /   O peration     | Website:  https://openfoam.org
    \\  /    A nd           | Version:  11
     \\/     M anipulation  |
\*---------------------------------------------------------------------------*/
FoamFile
{
    format      ascii;
    class       surfaceVectorField;
    location    "1";
    object      Uf;
}
// * * * * * * * * * * * * * * * * * * * * * * * * * * * * * * * * * * * * * //

dimensions      [0 1 -1 0 0 0 0];

internalField   nonuniform List<vector> 
5640
(
(0.11123 -0.0565869 5.08407e-20)
(0.0764862 -0.055848 -2.13945e-19)
(0.295896 -0.0858426 -2.56645e-20)
(0.241992 -0.0945674 1.79619e-21)
(0.448529 -0.103553 7.29576e-20)
(0.432568 -0.111526 -1.35874e-19)
(0.550073 -0.112186 4.73401e-20)
(0.529338 -0.120883 -1.67106e-20)
(0.610658 -0.113876 9.06918e-20)
(0.586651 -0.127454 4.10881e-20)
(0.61065 -0.120916 -2.2033e-20)
(0.615697 -0.0873436 4.53875e-20)
(0.188924 -0.0972313 -2.77919e-19)
(0.12253 -0.0804647 -1.33159e-19)
(0.371522 -0.122969 -1.03026e-19)
(0.303407 -0.130289 -2.68461e-19)
(0.494119 -0.133758 -2.32143e-19)
(0.463 -0.14335 -6.93112e-20)
(0.569319 -0.136227 -2.46856e-20)
(0.541746 -0.146394 1.16842e-20)
(0.611838 -0.128643 -6.06518e-20)
(0.59043 -0.145654 -3.12337e-20)
(0.615715 -0.12938 -8.81252e-20)
(0.62638 -0.10041 -6.44015e-20)
(0.220017 -0.120641 -1.09727e-19)
(0.151776 -0.106973 -2.31964e-19)
(0.391588 -0.154204 -2.41739e-19)
(0.331162 -0.163102 -6.23866e-20)
(0.499837 -0.159811 1.73676e-19)
(0.46732 -0.172997 1.60256e-19)
(0.564916 -0.157024 6.55051e-21)
(0.53731 -0.170258 4.82164e-20)
(0.603784 -0.145348 -5.30478e-20)
(0.584093 -0.16391 -3.95424e-20)
(0.612249 -0.143673 9.10075e-20)
(0.626854 -0.117596 -3.57106e-20)
(0.246411 -0.142814 -1.92901e-19)
(0.179223 -0.133432 6.65052e-20)
(0.402502 -0.18227 3.31183e-19)
(0.351287 -0.191195 2.8401e-19)
(0.498031 -0.184891 3.85808e-20)
(0.465865 -0.200279 1.5487e-20)
(0.557401 -0.177548 6.02695e-21)
(0.530604 -0.193418 -1.55174e-19)
(0.59589 -0.162734 1.01383e-19)
(0.576325 -0.183392 -1.90969e-20)
(0.607304 -0.161677 -8.30367e-20)
(0.623924 -0.13629 1.445e-19)
(0.27104 -0.17536 5.23465e-19)
(0.20376 -0.159146 5.12412e-19)
(0.408829 -0.208432 -2.01983e-20)
(0.364177 -0.215625 1.67914e-20)
(0.493731 -0.209403 -1.72502e-19)
(0.462179 -0.225571 -2.793e-20)
(0.549586 -0.199129 -1.83539e-19)
(0.523307 -0.216535 -8.50088e-21)
(0.58871 -0.182543 -2.02224e-19)
(0.568527 -0.204395 -3.3698e-20)
(0.602273 -0.182512 -6.40046e-20)
(0.620395 -0.157536 -2.57968e-19)
(0.288074 -0.198604 3.40789e-20)
(0.225322 -0.183101 -9.13635e-19)
(0.41188 -0.232318 1.02573e-20)
(0.371811 -0.237306 -5.43199e-19)
(0.488256 -0.233213 1.35243e-19)
(0.457276 -0.249302 -2.793e-20)
(0.54176 -0.221731 1.41864e-19)
(0.515647 -0.239967 -1.56745e-19)
(0.582067 -0.204571 1.04928e-19)
(0.560898 -0.227049 -3.3698e-20)
(0.597458 -0.205813 8.86402e-20)
(0.616961 -0.181066 1.96315e-19)
(0.301072 -0.219449 -1.51219e-18)
(0.243832 -0.204715 -9.10522e-19)
(0.412232 -0.254093 -6.04018e-19)
(0.375708 -0.256599 5.05861e-19)
(0.481932 -0.256523 -3.15566e-19)
(0.451381 -0.271866 4.04887e-19)
(0.53391 -0.245391 -3.35757e-19)
(0.50761 -0.263929 -3.26135e-19)
(0.575795 -0.228609 -5.32473e-20)
(0.553406 -0.251421 -3.19409e-19)
(0.592882 -0.231409 7.81262e-22)
(0.613753 -0.206672 -3.26262e-20)
(0.31119 -0.238432 1.02489e-18)
(0.259259 -0.223585 1.8672e-18)
(0.410381 -0.274181 1.51868e-18)
(0.376547 -0.273808 5.56959e-19)
(0.47481 -0.279602 4.18867e-19)
(0.444449 -0.293556 4.0425e-19)
(0.525936 -0.270203 -3.10133e-19)
(0.499091 -0.288554 6.54096e-19)
(0.569737 -0.254607 -2.73216e-19)
(0.545924 -0.277561 -2.88442e-19)
(0.588469 -0.259247 5.33345e-20)
(0.610768 -0.234309 2.96849e-19)
(0.318474 -0.25516 1.47345e-18)
(0.271567 -0.239367 9.19493e-19)
(0.406463 -0.292944 -5.50495e-19)
(0.374526 -0.289294 -5.5946e-19)
(0.466803 -0.302641 6.31136e-19)
(0.43632 -0.314623 -3.58519e-19)
(0.517675 -0.296245 7.01964e-19)
(0.489934 -0.313924 3.51778e-19)
(0.563727 -0.282601 2.98057e-20)
(0.538266 -0.305528 3.39779e-19)
(0.584095 -0.28936 -3.18114e-19)
(0.607956 -0.264052 -3.47912e-20)
(0.322784 -0.269441 -1.02678e-18)
(0.280556 -0.251851 -9.27973e-19)
(0.40044 -0.310675 -3.75101e-19)
(0.369721 -0.303368 -3.18491e-20)
(0.457741 -0.325802 -6.61673e-19)
(0.426803 -0.335285 -3.11829e-19)
(0.508932 -0.323584 -1.01324e-20)
(0.479937 -0.340099 -3.39556e-19)
(0.557579 -0.312667 7.72367e-21)
(0.530209 -0.335378 3.0883e-19)
(0.579608 -0.321856 -1.06465e-19)
(0.605237 -0.296045 -5.68479e-19)
(0.323901 -0.281302 1.52622e-20)
(0.285862 -0.261008 1.44297e-20)
(0.39228 -0.327602 4.41465e-20)
(0.362211 -0.316266 0)
(0.447427 -0.349206 1.15255e-20)
(0.415717 -0.355696 3.70385e-19)
(0.499467 -0.352277 -3.87736e-20)
(0.468856 -0.367116 -3.91432e-22)
(0.55108 -0.344905 2.04708e-19)
(0.5215 -0.367173 0)
(0.574843 -0.356899 2.09736e-19)
(0.602525 -0.330495 2.4459e-19)
(0.321628 -0.29092 0)
(0.287076 -0.266958 -9.23529e-19)
(0.381944 -0.343886 3.10477e-19)
(0.35208 -0.328151 0)
(0.435655 -0.372923 3.70908e-19)
(0.402874 -0.37596 -8.85302e-20)
(0.489013 -0.382362 3.83712e-20)
(0.456422 -0.394982 3.65576e-19)
(0.544005 -0.379439 0)
(0.511853 -0.400959 0)
(0.569616 -0.394691 -4.97704e-20)
(0.599731 -0.367659 0)
(0.315416 -0.298893 -9.76809e-19)
(0.283718 -0.269893 2.32203e-22)
(0.369455 -0.359585 -3.95163e-19)
(0.33949 -0.33922 0)
(0.422158 -0.39702 -1.09901e-19)
(0.388072 -0.396077 -4.57866e-19)
(0.477276 -0.413858 3.37455e-19)
(0.442343 -0.423682 7.42076e-20)
(0.536103 -0.416395 -4.85773e-20)
(0.500946 -0.436766 0)
(0.56372 -0.435456 -7.03352e-22)
(0.596769 -0.407833 -2.87681e-20)
(0.306445 -0.303989 9.7711e-19)
(0.275723 -0.270304 9.09302e-19)
(0.354539 -0.374945 -4.32199e-20)
(0.324227 -0.349319 -3.20197e-20)
(0.406799 -0.421375 -2.92635e-19)
(0.37122 -0.416037 -3.92614e-19)
(0.463918 -0.446754 -2.61141e-19)
(0.426285 -0.453095 3.7275e-20)
(0.527091 -0.455899 4.78908e-20)
(0.488413 -0.474581 0)
(0.556906 -0.479434 -1.97318e-19)
(0.593554 -0.451331 -1.8533e-19)
(0.293311 -0.307745 -4.55214e-20)
(0.262932 -0.268388 8.93045e-19)
(0.337313 -0.389688 -3.64641e-19)
(0.306435 -0.3585 -1.52993e-20)
(0.389278 -0.445944 -7.77584e-20)
(0.352178 -0.435627 4.05018e-19)
(0.448579 -0.480948 2.99462e-19)
(0.407938 -0.483001 -2.61165e-21)
(0.516631 -0.498041 -2.40479e-19)
(0.47383 -0.514291 -2.36121e-19)
(0.548848 -0.526837 1.47741e-19)
(0.589961 -0.498511 1.13127e-19)
(0.27642 -0.309859 9.7386e-19)
(0.245427 -0.264362 -9.74294e-19)
(0.317725 -0.403706 7.37945e-19)
(0.286231 -0.366525 5.71631e-19)
(0.369426 -0.4704 4.93968e-19)
(0.330893 -0.454464 3.68697e-19)
(0.430879 -0.516196 -5.31662e-19)
(0.386983 -0.51298 -6.27388e-19)
(0.504317 -0.542817 1.43141e-19)
(0.456712 -0.555578 -2.03294e-19)
(0.539147 -0.577757 1.97961e-19)
(0.585864 -0.549695 2.50762e-19)
(0.255948 -0.310233 -1.46818e-18)
(0.223525 -0.258265 -9.66476e-19)
(0.295857 -0.416577 2.10931e-19)
(0.263799 -0.372874 7.31548e-22)
(0.347078 -0.494219 -7.19103e-19)
(0.307365 -0.471881 -3.83931e-19)
(0.410409 -0.552005 -3.10174e-19)
(0.3631 -0.542336 -3.00723e-20)
(0.489659 -0.589988 -1.58301e-19)
(0.43649 -0.597819 2.72924e-19)
(0.527278 -0.631991 -1.967e-19)
(0.581103 -0.605132 -2.29388e-19)
(0.232221 -0.308481 4.44757e-19)
(0.197873 -0.249668 1.39693e-18)
(0.27184 -0.427541 -5.7815e-19)
(0.239388 -0.376615 -5.54552e-19)
(0.322086 -0.51654 2.93195e-19)
(0.281635 -0.486817 -1.80647e-19)
(0.386706 -0.587527 5.45359e-19)
(0.335992 -0.569927 4.39258e-19)
(0.472052 -0.638956 2.45893e-19)
(0.412487 -0.639946 2.40137e-19)
(0.512442 -0.688977 0)
(0.575466 -0.664825 0)
(0.205791 -0.30364 5.07827e-19)
(0.169545 -0.237215 -3.27005e-20)
(0.245823 -0.435349 -1.7296e-19)
(0.213245 -0.376231 1.94684e-20)
(0.294312 -0.53597 -5.48199e-20)
(0.253799 -0.497587 3.34852e-20)
(0.359219 -0.621361 1.39619e-19)
(0.305318 -0.59408 9.73266e-20)
(0.450627 -0.688602 0)
(0.383873 -0.680165 -9.05544e-20)
(0.493365 -0.747771 0)
(0.568562 -0.728424 0)
(0.177326 -0.293753 -5.27369e-19)
(0.139962 -0.218394 -5.13062e-19)
(0.217867 -0.438023 2.25207e-19)
(0.1855 -0.369373 -3.27619e-19)
(0.263557 -0.550388 1.84328e-19)
(0.223944 -0.501614 2.28537e-19)
(0.327206 -0.651427 -1.26553e-19)
(0.270557 -0.612669 -1.88715e-19)
(0.424095 -0.737024 -9.27253e-20)
(0.34965 -0.715488 2.18371e-20)
(0.467953 -0.807047 0)
(0.55967 -0.795243 -1.90217e-20)
(0.147353 -0.27577 -3.27063e-19)
(0.110522 -0.190499 -2.4935e-19)
(0.187912 -0.432655 -3.46429e-19)
(0.155999 -0.352719 -1.95817e-19)
(0.229607 -0.556952 -1.2985e-19)
(0.191904 -0.495335 -9.21896e-20)
(0.289896 -0.674788 -4.59905e-20)
(0.230992 -0.623254 -1.49925e-19)
(0.390657 -0.781279 1.14341e-19)
(0.308511 -0.74127 1.11664e-19)
(0.43239 -0.866053 0)
(0.54772 -0.864704 -1.65009e-20)
(0.117245 -0.246736 -1.22097e-19)
(0.0823382 -0.152368 2.16875e-20)
(0.156457 -0.415702 5.63708e-20)
(0.124249 -0.321637 3.27886e-19)
(0.192788 -0.552209 -1.10314e-19)
(0.157124 -0.473234 -4.26235e-20)
(0.247131 -0.687492 0)
(0.18586 -0.623211 3.89268e-20)
(0.348188 -0.817809 0)
(0.258563 -0.748801 1.00273e-20)
(0.378658 -0.931545 0)
(0.531687 -0.938985 -6.6168e-21)
(0.0898789 -0.20382 4.56597e-19)
(0.0571701 -0.0976012 2.77443e-19)
(0.125565 -0.381622 2.49826e-19)
(0.0904709 -0.256774 1.75792e-19)
(0.155152 -0.530958 1.06019e-19)
(0.119006 -0.413943 1.37926e-19)
(0.199473 -0.681267 4.94942e-20)
(0.135796 -0.603968 -1.84363e-20)
(0.289016 -0.842945 1.02677e-20)
(0.195387 -0.708697 5.43683e-21)
(0.288243 -1.02748 5.91418e-21)
(0.505117 -1.03533 0)
(0.0620261 -0.125171 4.56028e-21)
(0.0865394 -0.294311 6.67852e-20)
(0.100124 -0.466232 2.1414e-20)
(0.131 -0.615896 -6.20747e-20)
(0.194658 -0.834695 -4.6165e-21)
(0.453594 -1.19262 -4.68123e-21)
(0.671471 -0.0350856 4.95072e-21)
(0.650023 -0.0586871 5.3022e-21)
(0.642354 -0.0346754 5.3022e-21)
(0.718566 -0.0125745 -3.54702e-21)
(0.696567 -0.0299728 -8.01267e-20)
(0.694559 -0.0065982 3.90836e-21)
(0.759719 -0.0035136 -3.5173e-21)
(0.74068 -0.017667 7.64319e-20)
(0.740966 0.00529587 2.04432e-20)
(0.795349 0.000401356 -9.64312e-21)
(0.77871 -0.011761 -1.16428e-20)
(0.779546 0.0104014 2.30712e-20)
(0.826151 0.00177594 3.20469e-21)
(0.811744 -0.00910375 9.76633e-21)
(0.812669 0.0120369 -1.96265e-20)
(0.852783 0.00196851 1.8408e-21)
(0.840362 -0.00798886 -4.6258e-21)
(0.841192 0.0120093 2.67507e-20)
(0.875823 0.00165021 -4.80837e-21)
(0.865132 -0.00755687 1.98044e-20)
(0.865824 0.0112365 -8.08593e-21)
(0.89577 0.00113573 7.41152e-21)
(0.886571 -0.00740557 -6.92293e-21)
(0.887117 0.0101595 1.05859e-24)
(0.913046 0.000574656 5.99423e-21)
(0.905139 -0.00734987 1.35895e-20)
(0.905549 0.00898631 1.32248e-20)
(0.928006 4.26231e-05 -5.17696e-21)
(0.921219 -0.0072972 6.55078e-21)
(0.921508 0.00782223 1.21216e-20)
(0.940946 -0.00042042 -1.6793e-20)
(0.935132 -0.00719797 3.41598e-20)
(0.935319 0.00672153 -1.15201e-20)
(0.952107 -0.000793649 4.67676e-21)
(0.947147 -0.00702296 -1.61638e-20)
(0.947248 0.00571057 -1.07219e-20)
(0.961688 -0.00107012 5.42299e-22)
(0.957483 -0.0067565 1.01284e-20)
(0.957515 0.00479949 1.00819e-20)
(0.969854 -0.00125503 -9.85053e-21)
(0.966324 -0.00639575 2.88127e-20)
(0.9663 0.00398672 -1.95485e-20)
(0.976749 -0.00136264 -1.77191e-20)
(0.973824 -0.00595163 3.68445e-20)
(0.973757 0.00326274 0)
(0.982499 -0.00141011 -8.96722e-22)
(0.980115 -0.00544582 8.61042e-21)
(0.980016 0.00261527 -1.78409e-20)
(0.987229 -0.00141076 2.55534e-20)
(0.985318 -0.00490266 -2.57685e-20)
(0.985199 0.00203502 1.72652e-20)
(0.991052 -0.00137005 -2.33461e-20)
(0.989548 -0.00433928 4.42468e-23)
(0.989422 0.00151883 8.24874e-21)
(0.994075 -0.001286 -3.20434e-20)
(0.992919 -0.00376075 -4.8917e-23)
(0.992797 0.00106857 -5.5786e-20)
(0.996388 -0.00115139 -7.26177e-21)
(0.995534 -0.00316114 -3.05104e-20)
(0.995428 0.000688043 3.07565e-20)
(0.998067 -0.000956383 -2.81522e-22)
(0.997482 -0.00252658 4.42595e-20)
(0.997397 0.000381499 -3.6967e-20)
(0.999176 -0.00069693 1.40788e-20)
(0.998809 -0.00184496 2.84939e-20)
(0.998759 0.000155437 2.14627e-20)
(0.999786 -0.000386456 6.98373e-21)
(0.999527 -0.00113314 -5.5028e-20)
(0.999559 1.98167e-05 2.76368e-20)
(0.999782 -0.000435342 1.10948e-19)
(0.999927 -2.12651e-05 -7.10831e-24)
(0.672508 -0.0563249 -7.80003e-20)
(0.649225 -0.0801754 8.40611e-22)
(0.718141 -0.0356386 -3.45722e-21)
(0.696106 -0.0533321 2.98229e-20)
(0.758894 -0.0261136 6.9912e-20)
(0.739752 -0.0408388 4.67804e-23)
(0.794557 -0.0213358 7.40863e-21)
(0.777997 -0.0341947 -1.16428e-20)
(0.825541 -0.0188912 2.15595e-21)
(0.811323 -0.0305125 5.61009e-23)
(0.852381 -0.0175206 1.29998e-20)
(0.840234 -0.0282236 3.46846e-20)
(0.875612 -0.0166133 1.80312e-20)
(0.865253 -0.0265527 -3.2285e-20)
(0.895723 -0.0158898 -9.91377e-22)
(0.886896 -0.025143 -1.42471e-20)
(0.913136 -0.0152198 1.4222e-20)
(0.905623 -0.0238333 3.96764e-20)
(0.928205 -0.0145359 4.55968e-20)
(0.921824 -0.0225432 4.89766e-20)
(0.941227 -0.0137989 3.52878e-20)
(0.935823 -0.0212268 9.05718e-20)
(0.952447 -0.0129845 -1.09569e-20)
(0.947891 -0.019853 -9.62206e-20)
(0.962067 -0.0120811 3.8243e-20)
(0.958253 -0.0184006 0)
(0.970254 -0.011092 7.54546e-20)
(0.967095 -0.0168613 5.76053e-20)
(0.977153 -0.0100355 6.34115e-20)
(0.974576 -0.0152446 -1.83413e-20)
(0.982893 -0.00894006 -1.60007e-20)
(0.980828 -0.013579 8.71222e-21)
(0.987598 -0.00783342 -5.14648e-20)
(0.985975 -0.0119026 -1.10962e-19)
(0.991381 -0.00673225 2.33448e-20)
(0.990132 -0.0102474 7.37457e-20)
(0.99435 -0.00563814 1.69192e-21)
(0.993414 -0.00862762 -3.11953e-20)
(0.996597 -0.00453919 2.05593e-20)
(0.995931 -0.00703698 9.10916e-20)
(0.998199 -0.00341797 7.31337e-20)
(0.997775 -0.00545419 -5.09855e-20)
(0.999225 -0.00227775 -4.01169e-20)
(0.998961 -0.00386771 -2.13216e-20)
(0.99975 -0.00117026 4.73793e-20)
(0.999408 -0.00232882 6.61929e-21)
(0.99934 -0.000917294 2.53046e-20)
(0.671305 -0.0785157 1.08395e-19)
(0.647204 -0.102155 8.40611e-22)
(0.716924 -0.0590718 3.40666e-20)
(0.694918 -0.0773771 7.97909e-20)
(0.758065 -0.0491566 -8.14411e-20)
(0.738864 -0.0646587 -1.83143e-19)
(0.794191 -0.0434755 -1.9191e-20)
(0.777722 -0.0571736 1.1301e-19)
(0.825592 -0.0398952 3.20613e-20)
(0.811574 -0.0523598 -1.95174e-20)
(0.85277 -0.0372854 -9.6615e-21)
(0.840909 -0.0488085 5.26814e-20)
(0.876266 -0.0351033 -6.47991e-20)
(0.866253 -0.0458308 -1.57983e-19)
(0.896577 -0.0331032 2.5775e-20)
(0.888141 -0.0431107 2.90502e-20)
(0.914134 -0.0311711 7.43243e-20)
(0.907042 -0.0405065 -7.83715e-20)
(0.929301 -0.029247 9.35138e-20)
(0.923357 -0.0379472 4.88517e-20)
(0.942379 -0.0272922 -3.90805e-20)
(0.937419 -0.0353898 8.96769e-20)
(0.953619 -0.0252788 -8.61556e-20)
(0.949505 -0.0328008 -8.55412e-20)
(0.963228 -0.0231891 1.88582e-20)
(0.959847 -0.0301532 -3.97901e-20)
(0.971377 -0.0210221 -3.55398e-20)
(0.968635 -0.0274314 1.86758e-20)
(0.978214 -0.0187972 -7.32375e-20)
(0.976032 -0.0246407 5.41663e-20)
(0.983871 -0.0165517 -8.534e-20)
(0.982175 -0.0218122 -1.2301e-19)
(0.988472 -0.014327 1.29235e-20)
(0.987189 -0.0189951 -3.44075e-20)
(0.992135 -0.0121527 1.99454e-20)
(0.991193 -0.0162365 4.93471e-20)
(0.994966 -0.0100367 5.74168e-20)
(0.994302 -0.013562 -3.1915e-20)
(0.997058 -0.00796505 2.03822e-20)
(0.996636 -0.0109669 9.16744e-20)
(0.99849 -0.00591407 -1.45615e-19)
(0.998293 -0.00842362 -4.45074e-20)
(0.999334 -0.00389352 2.476e-20)
(0.999227 -0.00593214 -1.83297e-19)
(0.999679 -0.00199151 -1.62171e-20)
(0.99921 -0.00360541 2.59121e-19)
(0.998613 -0.00153625 -1.58975e-19)
(0.669615 -0.101876 -2.95573e-20)
(0.644989 -0.125495 -1.87344e-20)
(0.715862 -0.0833542 -1.3183e-19)
(0.693827 -0.102313 9.13094e-20)
(0.757721 -0.0728876 5.85886e-21)
(0.738533 -0.0892472 5.18971e-20)
(0.794515 -0.0661746 1.14899e-19)
(0.778184 -0.0807966 -2.2992e-20)
(0.826457 -0.061343 0)
(0.812677 -0.0747254 -3.97017e-20)
(0.854051 -0.0574037 -9.26973e-20)
(0.842507 -0.0698081 -3.56157e-20)
(0.877856 -0.0538778 -6.6544e-20)
(0.868222 -0.0654426 3.09694e-20)
(0.898386 -0.0505478 -7.38197e-20)
(0.890375 -0.0613485 -2.87094e-20)
(0.916087 -0.0473125 -1.05272e-19)
(0.909451 -0.0573996 -1.04462e-19)
(0.931333 -0.0441168 4.45866e-20)
(0.925865 -0.0535323 3.61866e-22)
(0.944436 -0.0409219 4.49631e-20)
(0.939961 -0.049705 -4.38917e-20)
(0.955654 -0.0376956 -3.96005e-20)
(0.952027 -0.0458817 1.05215e-21)
(0.9652 -0.0344132 -4.04829e-20)
(0.962299 -0.0420289 1.58257e-19)
(0.97325 -0.0310668 1.08085e-19)
(0.970975 -0.0381225 -7.64764e-20)
(0.979957 -0.027673 5.82935e-21)
(0.978222 -0.0341601 7.35567e-20)
(0.985456 -0.0242739 -7.27494e-20)
(0.984184 -0.0301707 -7.04631e-20)
(0.989876 -0.0209227 1.42563e-21)
(0.988988 -0.0262098 7.29539e-23)
(0.993334 -0.0176623 -1.94412e-21)
(0.992755 -0.0223383 -7.51202e-22)
(0.995939 -0.0145102 1.54635e-21)
(0.995603 -0.0185951 -3.06521e-20)
(0.997784 -0.0114534 2.75474e-20)
(0.997667 -0.0149785 -1.18987e-19)
(0.998948 -0.0084647 -8.13229e-20)
(0.99905 -0.0114561 8.41474e-22)
(0.999509 -0.00556309 4.60538e-20)
(0.999619 -0.00805425 -2.95003e-20)
(0.999575 -0.00287532 1.25237e-19)
(0.998942 -0.00499217 2.17648e-19)
(0.997628 -0.00236668 -1.68127e-19)
(0.668107 -0.126545 9.94942e-20)
(0.64299 -0.150342 1.64336e-20)
(0.715408 -0.108546 2.76017e-19)
(0.693248 -0.128235 -3.05063e-20)
(0.758182 -0.0973581 2.43937e-20)
(0.739023 -0.114642 1.04607e-19)
(0.795738 -0.0894779 -1.7735e-19)
(0.779577 -0.105085 8.73439e-20)
(0.828281 -0.0832794 -7.53789e-20)
(0.814776 -0.0976369 4.81877e-22)
(0.856331 -0.0779163 8.71385e-20)
(0.845144 -0.0912528 -2.05994e-22)
(0.880466 -0.0729711 6.95941e-20)
(0.871253 -0.0854153 6.35013e-20)
(0.901219 -0.0682509 -5.84484e-20)
(0.893676 -0.0798784 -1.68467e-19)
(0.919051 -0.0636646 0)
(0.912917 -0.0745293 1.03325e-19)
(0.934351 -0.0591611 -8.76548e-20)
(0.929406 -0.0693104 4.6348e-20)
(0.947442 -0.0547006 -8.82546e-20)
(0.943501 -0.064181 -8.85787e-20)
(0.958592 -0.0502462 1.9741e-19)
(0.955501 -0.0591023 8.33543e-20)
(0.968019 -0.0457655 1.2438e-19)
(0.965651 -0.0540342 1.19481e-19)
(0.975908 -0.0412412 -1.12253e-19)
(0.974155 -0.0489431 -1.87052e-19)
(0.982415 -0.0366833 -1.56368e-21)
(0.981184 -0.043816 -9.55391e-23)
(0.987681 -0.0321331 1.82446e-21)
(0.986889 -0.0386743 1.02664e-19)
(0.991837 -0.0276514 -2.09359e-21)
(0.991401 -0.0335743 -9.92261e-20)
(0.995005 -0.0232948 -2.92486e-20)
(0.994844 -0.0285868 6.34443e-20)
(0.997294 -0.0190926 -1.50595e-19)
(0.997341 -0.0237641 -1.53109e-19)
(0.998799 -0.0150377 -1.4587e-19)
(0.999039 -0.0191083 2.81624e-20)
(0.999597 -0.0111018 5.33984e-20)
(1.00005 -0.0145835 -1.42123e-19)
(0.999766 -0.00731151 1.38732e-19)
(1.00015 -0.0102538 1.11133e-19)
(0.999423 -0.0038479 -6.70672e-20)
(0.998616 -0.00646887 7.9494e-20)
(0.996484 -0.0034941 -9.48673e-20)
(0.667049 -0.152542 -1.12329e-19)
(0.641333 -0.17676 7.14624e-20)
(0.715741 -0.13468 -2.04753e-19)
(0.693344 -0.15524 -1.52106e-19)
(0.759593 -0.122586 1.67872e-19)
(0.740439 -0.14089 1.03092e-19)
(0.797991 -0.113398 2.66653e-19)
(0.78201 -0.130062 9.04027e-20)
(0.831181 -0.105722 7.56963e-20)
(0.817982 -0.121111 4.02088e-20)
(0.859713 -0.0988418 -2.47301e-20)
(0.848923 -0.113157 3.54097e-20)
(0.884186 -0.0923992 -1.71581e-19)
(0.87544 -0.105761 -6.14887e-20)
(0.905153 -0.0862245 -9.94705e-21)
(0.898129 -0.0987078 1.87457e-21)
(0.923094 -0.0802358 1.50315e-19)
(0.917515 -0.0918993 2.35283e-21)
(0.938415 -0.0743849 4.68315e-20)
(0.934047 -0.085282 -4.63922e-20)
(0.951451 -0.0686311 8.13185e-20)
(0.9481 -0.0788159 -8.6431e-20)
(0.962481 -0.0629326 5.08687e-21)
(0.959984 -0.0724592 1.64299e-19)
(0.971731 -0.0572489 -1.89202e-19)
(0.969954 -0.0661655 -7.85643e-20)
(0.979392 -0.0515518 -7.64542e-20)
(0.97822 -0.0598911 3.50554e-20)
(0.985626 -0.0458406 1.03312e-19)
(0.98496 -0.0536106 -3.42497e-20)
(0.990578 -0.04015 3.15574e-21)
(0.990328 -0.0473328 6.78776e-20)
(0.994384 -0.0345429 -3.48642e-20)
(0.994462 -0.0411079 -1.29417e-19)
(0.997169 -0.029086 -5.8868e-20)
(0.997486 -0.0350111 1.55406e-19)
(0.999044 -0.0238215 2.44379e-20)
(0.999529 -0.0291058 -9.13514e-20)
(1.0001 -0.0187488 3.27535e-20)
(1.00075 -0.0233974 1.74229e-19)
(1.00042 -0.0138325 -8.5399e-20)
(1.00129 -0.0178443 -8.48749e-20)
(1.00006 -0.00908167 5.20831e-20)
(1.00083 -0.0125573 0)
(0.999239 -0.00493429 5.26964e-20)
(0.998287 -0.00805719 1.03183e-19)
(0.995318 -0.00500426 -2.70469e-19)
(0.666521 -0.179938 3.71644e-20)
(0.640045 -0.204846 3.14912e-19)
(0.716909 -0.161831 1.50394e-19)
(0.694158 -0.183463 -1.77953e-19)
(0.762021 -0.148614 2.60013e-20)
(0.742829 -0.168083 -1.02893e-19)
(0.801363 -0.13796 -1.35263e-19)
(0.785562 -0.155778 -2.19406e-19)
(0.835255 -0.128685 0)
(0.82239 -0.145175 7.88515e-20)
(0.864293 -0.120188 0)
(0.853945 -0.135533 6.72556e-20)
(0.889105 -0.112165 1.11163e-19)
(0.88088 -0.12648 -6.22712e-20)
(0.910271 -0.104468 1.41841e-20)
(0.903824 -0.117832 1.1261e-19)
(0.928292 -0.0970218 -1.93837e-19)
(0.923329 -0.109501 -1.08046e-21)
(0.943592 -0.0897816 -1.7925e-19)
(0.939864 -0.101435 -9.10929e-20)
(0.956524 -0.0827051 -5.93252e-21)
(0.953825 -0.0935959 2.61373e-22)
(0.967377 -0.0757457 8.29364e-20)
(0.965537 -0.0859374 8.21747e-20)
(0.976387 -0.0688546 1.4469e-19)
(0.975263 -0.078407 0)
(0.98375 -0.0619921 7.78816e-20)
(0.983223 -0.0709513 2.1665e-19)
(0.989632 -0.0551436 -7.04956e-20)
(0.989599 -0.0635309 1.33152e-19)
(0.994184 -0.0483315 -6.31883e-20)
(0.994548 -0.0561387 -1.31145e-19)
(0.997545 -0.0416136 5.8771e-20)
(0.998213 -0.0488116 -1.87667e-19)
(0.999843 -0.0350613 1.24662e-19)
(1.00072 -0.0416225 3.04911e-19)
(1.00119 -0.028728 5.66685e-20)
(1.0022 -0.0346418 -1.1711e-19)
(1.00169 -0.022621 5.74149e-20)
(1.00284 -0.0278764 5.58351e-20)
(1.0014 -0.0167015 0)
(1.0028 -0.0212765 0)
(1.0004 -0.0109683 5.05682e-20)
(1.00167 -0.015021 0)
(0.99912 -0.00619246 -1.98158e-19)
(0.998041 -0.00993439 2.52559e-19)
(0.994089 -0.00691748 -4.53864e-19)
(0.666533 -0.20885 1.11611e-19)
(0.639114 -0.234744 2.40445e-19)
(0.718936 -0.190132 -4.33121e-19)
(0.695714 -0.21309 -1.75246e-19)
(0.765523 -0.175531 -3.4613e-19)
(0.746243 -0.196355 -3.05941e-19)
(0.805937 -0.163213 -1.01528e-20)
(0.790312 -0.182316 4.39587e-20)
(0.840599 -0.152191 1.46283e-19)
(0.828095 -0.169869 6.96782e-22)
(0.870169 -0.141962 6.79818e-21)
(0.860311 -0.158393 1.33757e-19)
(0.895319 -0.132264 -6.30711e-20)
(0.887675 -0.147571 -2.4353e-19)
(0.916662 -0.122968 9.87007e-20)
(0.910858 -0.137238 1.07978e-19)
(0.934726 -0.114006 1.02661e-19)
(0.930446 -0.127313 -3.00078e-22)
(0.949959 -0.105332 8.74633e-20)
(0.946939 -0.117746 1.67577e-21)
(0.962731 -0.0969019 8.75433e-20)
(0.960753 -0.108494 2.5358e-19)
(0.973344 -0.0886635 0)
(0.972229 -0.0995087 -7.89463e-20)
(0.982045 -0.0805604 7.00577e-20)
(0.981645 -0.09073 7.23153e-20)
(0.989036 -0.0725408 2.72666e-19)
(0.989227 -0.0820948 -1.40339e-19)
(0.994488 -0.0645741 7.46726e-20)
(0.995161 -0.0735495 1.35893e-19)
(0.998553 -0.0566662 -2.55215e-19)
(0.999611 -0.0650688 -1.94022e-19)
(1.00137 -0.0488627 5.48578e-20)
(1.00272 -0.0566712 -1.68412e-21)
(1.00309 -0.041234 6.62112e-20)
(1.00461 -0.0484197 2.9881e-19)
(1.00381 -0.0338437 -1.19068e-19)
(1.00543 -0.0403856 -1.73864e-19)
(1.00364 -0.0267137 -1.19214e-21)
(1.00539 -0.0325748 -1.6692e-19)
(1.00266 -0.0198188 0)
(1.00466 -0.0249333 -2.12368e-19)
(1.00097 -0.0131776 2.00487e-19)
(1.00276 -0.0177448 2.05868e-19)
(0.999112 -0.00765519 7.22778e-20)
(0.997912 -0.01221 1.52743e-19)
(0.992724 -0.00916138 -3.50023e-19)
(0.667092 -0.239468 -3.64634e-20)
(0.63852 -0.266658 -2.78379e-19)
(0.721867 -0.219768 -4.53998e-20)
(0.698058 -0.244352 2.3723e-19)
(0.770172 -0.203466 7.77322e-20)
(0.750761 -0.225887 1.48833e-19)
(0.811808 -0.189231 5.553e-20)
(0.796364 -0.20979 -4.10557e-20)
(0.847318 -0.176272 -1.38513e-20)
(0.835213 -0.195251 -7.81547e-20)
(0.877449 -0.164166 -1.11298e-19)
(0.868137 -0.181755 8.84042e-22)
(0.902931 -0.152683 -7.69963e-20)
(0.895934 -0.169023 -2.86583e-22)
(0.924422 -0.141704 1.02431e-20)
(0.919334 -0.156899 -1.06522e-19)
(0.942486 -0.13116 -1.01333e-19)
(0.938965 -0.145301 -2.9298e-19)
(0.957597 -0.121004 1.65147e-19)
(0.955362 -0.134174 9.05227e-20)
(0.970147 -0.111187 9.03755e-20)
(0.968966 -0.12347 1.88894e-21)
(0.980453 -0.101651 -8.00437e-21)
(0.980138 -0.113132 -1.22559e-21)
(0.988774 -0.0923312 -1.36131e-19)
(0.989171 -0.103093 -7.08407e-20)
(0.995318 -0.0831631 -2.79397e-19)
(0.9963 -0.0932805 -5.83579e-21)
(1.00026 -0.0741002 -1.30098e-19)
(1.00172 -0.0836268 -1.97241e-19)
(1.00376 -0.0651284 5.80314e-20)
(1.00559 -0.0740874 -2.37938e-22)
(1.00595 -0.0562757 2.40022e-19)
(1.00805 -0.0646596 6.21304e-20)
(1.00698 -0.047604 6.22896e-20)
(1.00925 -0.0553892 5.99197e-20)
(1.00698 -0.039182 -2.21897e-19)
(1.00931 -0.0463408 1.10041e-19)
(1.00604 -0.0310465 -3.77781e-19)
(1.00847 -0.037512 -1.65712e-19)
(1.00425 -0.0231886 -4.37551e-21)
(1.00693 -0.0288432 -2.12368e-19)
(1.00172 -0.0156427 1.58441e-19)
(1.00414 -0.0207417 1.56473e-19)
(0.999122 -0.00935673 -2.14895e-19)
(0.997938 -0.014845 2.4544e-23)
(0.991369 -0.0118528 -6.39073e-21)
(0.66822 -0.272038 -1.70549e-20)
(0.638255 -0.300851 -2.40237e-19)
(0.72578 -0.250969 4.33503e-19)
(0.701266 -0.277531 1.78365e-19)
(0.776078 -0.232584 3.36659e-20)
(0.756502 -0.256902 4.97464e-20)
(0.819096 -0.216112 -1.74248e-19)
(0.803856 -0.238342 1.03855e-21)
(0.855536 -0.20097 -6.46202e-20)
(0.843883 -0.221391 -7.4277e-20)
(0.886252 -0.186804 1.11968e-19)
(0.877558 -0.205638 -6.8192e-20)
(0.912056 -0.173401 -2.84299e-20)
(0.905786 -0.190822 1.21347e-19)
(0.933659 -0.160638 -4.07563e-19)
(0.92937 -0.176781 -1.0797e-19)
(0.951671 -0.14844 -1.05426e-19)
(0.948993 -0.163419 -1.9026e-19)
(0.966597 -0.136751 -7.18212e-20)
(0.965229 -0.150668 1.76728e-19)
(0.978855 -0.125514 -8.96669e-20)
(0.978552 -0.138467 -8.28843e-20)
(0.988782 -0.114661 -6.33839e-20)
(0.989346 -0.126751 -7.17384e-20)
(0.996647 -0.104119 5.88901e-20)
(0.997919 -0.115441 -2.12235e-19)
(1.00267 -0.0938127 7.79966e-20)
(1.00452 -0.104455 7.55934e-20)
(1.00702 -0.0836779 -6.89624e-20)
(1.00934 -0.0937107 -3.85917e-21)
(1.00987 -0.0736801 3.39209e-21)
(1.01255 -0.0831461 2.40975e-19)
(1.01135 -0.0638251 -1.17935e-19)
(1.01429 -0.0727349 -2.3215e-19)
(1.01161 -0.0541587 1.07261e-19)
(1.0147 -0.0625013 -5.80065e-20)
(1.01077 -0.0447466 1.67882e-19)
(1.01391 -0.0524936 7.02242e-21)
(1.00895 -0.0356365 0)
(1.01216 -0.0426918 -2.05931e-19)
(1.00623 -0.0268364 -4.90898e-20)
(1.00969 -0.0330233 1.50933e-19)
(1.00272 -0.0183959 -1.04109e-21)
(1.00587 -0.0240288 -4.78359e-20)
(0.999234 -0.0113313 2.08536e-19)
(0.998212 -0.0178484 2.3726e-19)
(0.990131 -0.0150369 -1.30856e-20)
(0.669966 -0.30686 -5.48521e-20)
(0.63833 -0.337643 0)
(0.730796 -0.284012 -2.02771e-19)
(0.705461 -0.312961 -1.11579e-19)
(0.783391 -0.263086 1.79765e-20)
(0.763638 -0.289664 -9.85279e-20)
(0.827961 -0.243973 1.02441e-19)
(0.812972 -0.268145 9.02961e-20)
(0.865403 -0.226335 -7.79736e-20)
(0.854282 -0.248376 1.4926e-19)
(0.89672 -0.209878 -6.14494e-20)
(0.888736 -0.230062 -6.59537e-20)
(0.92282 -0.194388 4.47999e-20)
(0.917376 -0.212944 -1.15762e-21)
(0.944489 -0.179722 1.10395e-19)
(0.941095 -0.196832 1.06619e-19)
(0.962385 -0.165787 8.7809e-20)
(0.960644 -0.181599 9.72063e-20)
(0.977055 -0.152509 1.68383e-19)
(0.976645 -0.167153 -3.17843e-22)
(0.988944 -0.139816 -6.50301e-20)
(0.989605 -0.153411 2.39614e-19)
(0.998411 -0.127629 -2.19287e-19)
(0.999937 -0.140291 -1.49067e-19)
(1.00574 -0.115863 -1.98137e-19)
(1.00797 -0.127702 -1.35171e-19)
(1.01116 -0.10443 -5.60146e-21)
(1.01395 -0.115549 -6.29112e-20)
(1.01485 -0.0932503 3.04133e-19)
(1.0181 -0.103736 2.48268e-19)
(1.01696 -0.0822688 9.06219e-21)
(1.02057 -0.0921822 6.27162e-20)
(1.01765 -0.0714667 -1.73458e-19)
(1.02151 -0.0808395 -1.15637e-19)
(1.01704 -0.0608674 -1.58636e-19)
(1.02104 -0.0697071 -5.23717e-20)
(1.01527 -0.0505243 -3.6537e-19)
(1.01931 -0.0588098 -1.57379e-19)
(1.01245 -0.0404877 -5.26388e-20)
(1.01655 -0.0480997 -1.06208e-19)
(1.00867 -0.03078 1.53344e-19)
(1.01302 -0.0374798 1.99848e-19)
(1.00404 -0.0214653 1.88696e-19)
(1.00803 -0.0276246 4.92165e-20)
(0.999512 -0.0136153 1.12159e-19)
(0.998831 -0.0212343 1.8832e-19)
(0.989108 -0.0187368 -3.19108e-19)
(0.672416 -0.344283 -5.40521e-20)
(0.638783 -0.377402 3.4224e-20)
(0.737089 -0.319217 -7.38639e-21)
(0.710823 -0.351016 -1.09751e-19)
(0.79232 -0.295207 -2.97194e-20)
(0.772409 -0.324475 9.94121e-20)
(0.838607 -0.272954 1.36393e-19)
(0.823957 -0.299395 -8.22935e-20)
(0.87711 -0.252424 1.64681e-19)
(0.866636 -0.276303 2.23698e-19)
(0.909019 -0.233385 -6.56636e-21)
(0.901869 -0.255047 -1.41152e-21)
(0.935372 -0.215601 5.92766e-20)
(0.930872 -0.235356 -1.08875e-19)
(0.95704 -0.198891 9.35772e-20)
(0.954655 -0.216987 2.00851e-19)
(0.974742 -0.183124 1.01799e-20)
(0.974045 -0.199759 1.8439e-19)
(0.989071 -0.168195 6.83995e-20)
(0.989718 -0.183537 -1.69901e-19)
(1.0005 -0.154011 1.59454e-19)
(1.00222 -0.168207 1.55161e-19)
(1.00942 -0.140474 -6.50838e-20)
(1.012 -0.15366 2.09611e-19)
(1.01613 -0.127485 -6.55115e-22)
(1.01939 -0.139787 -1.34312e-19)
(1.02086 -0.11494 1.88212e-19)
(1.02467 -0.126478 1.27335e-19)
(1.0238 -0.102746 8.34467e-21)
(1.02806 -0.113621 5.62798e-21)
(1.02511 -0.0908271 -6.05916e-20)
(1.02971 -0.101119 -1.61334e-21)
(1.02492 -0.0791388 4.93749e-21)
(1.02977 -0.0889008 1.08562e-19)
(1.02336 -0.0676786 -5.04763e-20)
(1.02835 -0.0769404 -1.96766e-21)
(1.02056 -0.0564795 1.01589e-19)
(1.02558 -0.0652352 1.0109e-19)
(1.01663 -0.045585 1.4892e-19)
(1.02171 -0.0537003 -9.05135e-20)
(1.01166 -0.0350243 9.6532e-20)
(1.01699 -0.0422019 9.42514e-20)
(1.00576 -0.024873 4.79369e-20)
(1.01072 -0.0315385 2.71717e-19)
(1.00002 -0.016241 -1.44947e-19)
(0.9999 -0.0250071 0)
(0.988407 -0.022962 -7.94563e-21)
(0.675704 -0.384697 -1.8024e-20)
(0.639689 -0.420532 -2.55541e-19)
(0.744905 -0.356941 -7.20793e-21)
(0.717607 -0.392103 -5.43718e-20)
(0.803142 -0.329211 5.02168e-20)
(0.783134 -0.361666 -1.3432e-19)
(0.851299 -0.303209 0)
(0.837129 -0.332309 0)
(0.890889 -0.279296 6.10258e-20)
(0.881228 -0.305275 -2.05968e-19)
(0.92335 -0.257313 -1.02221e-19)
(0.917194 -0.280607 2.45376e-19)
(0.94988 -0.236983 2.86478e-20)
(0.946472 -0.25801 -1.674e-19)