/*--------------------------------*- C++ -*----------------------------------*\
  =========                 |
  \\      /  F ield         | OpenFOAM: The Open Source CFD Toolbox
   \\    /   O peration     | Website:  https://openfoam.org
    \\  /    A nd           | Version:  11
     \\/     M anipulation  |
\*---------------------------------------------------------------------------*/
FoamFile
{
    format      ascii;
    class       volScalarField;
    location    "1.68";
    object      k;
}
// * * * * * * * * * * * * * * * * * * * * * * * * * * * * * * * * * * * * * //

dimensions      [0 2 -2 0 0 0 0];

internalField   nonuniform List<scalar> 
2880
(
0.00605102
0.0247285
0.0677154
0.11658
0.152742
0.142703
0.0190612
0.0493764
0.0981959
0.148795
0.197281
0.231815
0.0249316
0.0654764
0.11527
0.167332
0.215968
0.243068
0.0285149
0.0759363
0.125669
0.177124
0.220704
0.239276
0.0323
0.083113
0.132293
0.181893
0.22007
0.229333
0.0354133
0.0881038
0.136401
0.183621
0.216459
0.218578
0.0378466
0.0914579
0.13869
0.183566
0.211858
0.209301
0.0396343
0.0934792
0.139595
0.182526
0.207343
0.20175
0.0408268
0.0943382
0.139384
0.180956
0.203384
0.195716
0.0414698
0.0941377
0.138212
0.17907
0.200027
0.191022
0.0415971
0.0929063
0.136156
0.17694
0.197138
0.187535
0.0412429
0.0906798
0.133229
0.174504
0.194584
0.185174
0.040489
0.087471
0.129406
0.171607
0.192305
0.18381
0.0394355
0.0833072
0.124638
0.168062
0.190193
0.183409
0.0380591
0.0782635
0.118873
0.163605
0.188068
0.18374
0.0363467
0.0724233
0.112046
0.157884
0.185713
0.184746
0.0342834
0.065882
0.104087
0.150419
0.18286
0.186135
0.0318243
0.0587544
0.0949581
0.140713
0.178803
0.187716
0.0288472
0.051195
0.0846723
0.128394
0.172403
0.189052
0.0250918
0.0434825
0.0733795
0.11325
0.162141
0.189537
0.023069
0.0362563
0.0613598
0.0952211
0.14568
0.188528
0.0211902
0.0296433
0.0488812
0.0745058
0.121326
0.17982
0.0174319
0.0220886
0.0348891
0.0515524
0.0871563
0.150264
0.00499319
0.00772923
0.0138646
0.0233122
0.0423234
0.12168
0.199452
0.18291
0.154843
0.129552
0.108507
0.0914135
0.0775106
0.0661337
0.0568222
0.0492564
0.0431795
0.0383571
0.0345742
0.0316447
0.0294193
0.0277907
0.0266926
0.026094
0.0259854
0.0262665
0.0269972
0.0281579
0.0297525
0.0317465
0.222049
0.184084
0.148374
0.121061
0.100059
0.0835334
0.0702439
0.0594801
0.0508112
0.0439098
0.0384809
0.0342517
0.0309813
0.0284709
0.0265686
0.0251694
0.0242102
0.0236625
0.0235204
0.0237309
0.0243209
0.0252983
0.026682
0.0284413
0.223885
0.176392
0.139516
0.112691
0.0924562
0.0765693
0.063856
0.0537004
0.0456828
0.039433
0.0346046
0.0308894
0.0280323
0.0258352
0.0241538
0.0228903
0.0219863
0.0214156
0.0211746
0.0212539
0.021641
0.022386
0.0235275
0.0250535
0.214946
0.166475
0.130856
0.105179
0.0856984
0.0703677
0.0582191
0.0486938
0.0413301
0.0356929
0.0313902
0.0280965
0.0255588
0.0235899
0.0220561
0.0208669
0.0199663
0.0193277
0.0189481
0.0188389
0.0189935
0.0194553
0.0203233
0.0216146
0.202482
0.156627
0.123063
0.0985161
0.0796517
0.0648362
0.0532731
0.0443911
0.0376537
0.0325636
0.0287023
0.0257445
0.0234497
0.0216451
0.020208
0.0190539
0.0181277
0.0173995
0.0168619
0.016526
0.0164145
0.0165623
0.0171007
0.0181415
0.190455
0.147892
0.116293
0.0926179
0.0742422
0.0599311
0.0489693
0.0407168
0.0345521
0.0299324
0.0264316
0.0237366
0.0216246
0.0199378
0.0185645
0.017425
0.0164636
0.0156448
0.014952
0.0143878
0.0139737
0.0137674
0.0139187
0.0146394
0.180114
0.140612
0.110508
0.0874082
0.069428
0.0556192
0.0452551
0.0375921
0.0319314
0.0277044
0.0244921
0.0220009
0.0200267
0.0184267
0.0170986
0.0159675
0.0149772
0.0140863
0.0132665
0.0125043
0.0118051
0.011212
0.0108565
0.0110405
0.171938
0.134763
0.105599
0.0828261
0.0651791
0.0518646
0.0420715
0.0349398
0.0297091
0.0258027
0.0228188
0.0204853
0.0186168
0.0170839
0.0157929
0.0146741
0.0136725
0.0127437
0.0118504
0.0109611
0.0100526
0.00911655
0.00808339
0.00645489
0.165807
0.130181
0.101468
0.0788305
0.0614681
0.0486254
0.0393576
0.0326892
0.0278163
0.0241673
0.0213623
0.0191513
0.0173656
0.0158877
0.0146323
0.013535
0.0125447
0.0116191
0.0107206
0.00981246
0.00885503
0.00781383
0.00668669
0.00523782
0.161427
0.126695
0.0980425
0.0753909
0.0582655
0.045856
0.0370542
0.0307784
0.0261966
0.0227508
0.0200847
0.0179684
0.0162485
0.0148176
0.0135978
0.0125299
0.0115677
0.0106734
0.00981479
0.00896146
0.0080801
0.00714119
0.00613835
0.00494547
0.158555
0.124179
0.0952739
0.0724831
0.055539
0.0435099
0.0351075
0.0291556
0.0248055
0.0215168
0.0189563
0.0169126
0.0152447
0.0138538
0.0126677
0.0116319
0.0107034
0.00984819
0.0090375
0.00824479
0.00744141
0.0066052
0.00574179
0.00477087
0.157006
0.122556
0.0931359
0.0700854
0.0532548
0.0415431
0.0334713
0.0277786
0.0236076
0.0204368
0.0179544
0.0159648
0.0143372
0.0129797
0.0118245
0.01082
0.00992626
0.00911119
0.00834875
0.00761527
0.00688609
0.00614511
0.00540397
0.00460968
0.156666
0.121763
0.0916147
0.0681774
0.0513799
0.0399165
0.0321069
0.0266138
0.0225755
0.019489
0.0170616
0.0151106
0.0135137
0.0121837
0.0110561
0.0100818
0.00922232
0.00844739
0.00773276
0.00705701
0.00639881
0.00574648
0.00511356
0.00446381
0.157423
0.12179
0.0907163
0.0667418
0.0498854
0.0385969
0.0309829
0.0256344
0.0216877
0.0186567
0.0162646
0.0143394
0.0127648
0.0114574
0.0103549
0.00940947
0.00858379
0.00784877
0.00718142
0.00656202
0.0059717
0.00540156
0.00486451
0.00433542
0.1593
0.122748
0.0904391
0.0657646
0.0487458
0.0375558
0.030073
0.0248187
0.0209273
0.0179268
0.0155533
0.013643
0.012084
0.0107953
0.00971558
0.00879792
0.00800563
0.00731025
0.00668957
0.00612496
0.00559918
0.00510473
0.00465233
0.00422436
0.162315
0.12461
0.0906981
0.0652383
0.0479392
0.0367692
0.0293558
0.0241494
0.0202809
0.0172892
0.01492
0.0130153
0.0114663
0.0101928
0.0091341
0.00824337
0.00748407
0.00682798
0.00625322
0.00574164
0.00527686
0.00485157
0.00447343
0.00412984
0.166542
0.127498
0.0918064
0.0651592
0.0474463
0.0362167
0.0288137
0.0236123
0.0197379
0.0167359
0.0143586
0.0124517
0.0109076
0.00964654
0.00860732
0.00774267
0.00701587
0.00639854
0.00586871
0.00540816
0.00500058
0.00463792
0.0043243
0.00405047
0.172056
0.131509
0.0935165
0.0653798
0.0472436
0.0358807
0.0284311
0.0231957
0.0192895
0.0162604
0.0138641
0.0119482
0.010405
0.00915376
0.00813246
0.00729298
0.00659801
0.0060187
0.00553254
0.00512068
0.00476621
0.00445962
0.0042014
0.00398459
0.178957
0.13681
0.095943
0.0659862
0.0473029
0.0357433
0.0281938
0.022889
0.0189281
0.0158571
0.0134324
0.0115015
0.00995553
0.00871191
0.00770706
0.00689169
0.00622763
0.00568527
0.00524114
0.00487525
0.00456951
0.00431245
0.00410124
0.00393054
0.18734
0.14356
0.0991146
0.0670839
0.0475618
0.0357736
0.0280869
0.0226823
0.0186468
0.0155212
0.01306
0.011109
0.00955695
0.00831876
0.00732878
0.00653626
0.00590191
0.00539505
0.00499087
0.00466778
0.00440611
0.00419228
0.00402054
0.00388675
0.197294
0.15194
0.102971
0.0684986
0.0480122
0.0359237
0.0280936
0.0225655
0.0184391
0.0152482
0.0127437
0.0107682
0.00920712
0.00797222
0.00699541
0.00622423
0.00561805
0.0051448
0.00477799
0.00449408
0.00427165
0.00409515
0.00395636
0.00385186
0.209638
0.162091
0.107344
0.0700865
0.0486212
0.0361889
0.0281804
0.022528
0.0182986
0.0150343
0.0124808
0.0104771
0.00890417
0.00767036
0.00670483
0.00595318
0.00537325
0.00493129
0.00459876
0.00434999
0.00416189
0.00401734
0.0039061
0.0038247
0.22554
0.173764
0.111333
0.0716802
0.0493383
0.036549
0.0283425
0.0225563
0.0182194
0.0148758
0.0122692
0.010234
0.00864661
0.00741149
0.00645499
0.00572068
0.00516466
0.00475124
0.00444949
0.0042315
0.00407271
0.00395504
0.00386715
0.00380394
0.246178
0.184238
0.114527
0.07314
0.0501026
0.0369757
0.0285663
0.0226384
0.0181968
0.0147703
0.0121076
0.0100381
0.00843352
0.00719439
0.00624419
0.00552446
0.00498947
0.00460134
0.0043266
0.00413499
0.00400067
0.00390504
0.0038366
0.00378785
0.0068706
0.0326723
0.078297
0.125915
0.150685
0.138172
0.0216661
0.0628117
0.106704
0.15113
0.189621
0.239249
0.031273
0.0836719
0.126801
0.169053
0.20885
0.248859
0.0388131
0.0976908
0.140602
0.181098
0.217785
0.24598
0.0451012
0.107955
0.150751
0.189568
0.222055
0.24159
0.0503159
0.115755
0.15849
0.19584
0.224378
0.237918
0.0545822
0.121754
0.164492
0.200668
0.22598
0.235463
0.0579915
0.126322
0.169159
0.204479
0.227516
0.234335
0.0606091
0.129679
0.172747
0.207584
0.229307
0.234537
0.0624781
0.131952
0.175418
0.210186
0.231513
0.236043
0.063626
0.133211
0.177266
0.212399
0.234204
0.238887
0.0640852
0.133477
0.178324
0.214263
0.237366
0.243029
0.0640358
0.132721
0.178572
0.215747
0.240913
0.248441
0.0634965
0.130916
0.177936
0.216752
0.244685
0.255074
0.0623946
0.128042
0.176295
0.217111
0.248446
0.262826
0.0606473
0.124055
0.173486
0.21654
0.251929
0.271483
0.0581705
0.118892
0.169312
0.214676
0.254711
0.280745
0.0548749
0.1125
0.163565
0.211077
0.256149
0.290174
0.050659
0.104831
0.156026
0.205214
0.255447
0.299105
0.0454129
0.0958256
0.146441
0.196409
0.251209
0.306544
0.0390385
0.0853193
0.134382
0.183721
0.241597
0.31086
0.0314774
0.0727404
0.118866
0.16563
0.223751
0.308803
0.0221726
0.05588
0.0969928
0.139072
0.19308
0.288365
0.00650684
0.0244901
0.0570154
0.0947817
0.147394
0.175716
0.265161
0.190108
0.116778
0.0743835
0.0508555
0.03744
0.028838
0.0227699
0.0182237
0.014716
0.0119956
0.00988944
0.0082649
0.00701865
0.00607147
0.00536291
0.00484541
0.00447883
0.00422706
0.00405763
0.00394345
0.00386547
0.00381231
0.00377533
0.269257
0.189676
0.11761
0.0752782
0.0515504
0.037918
0.0291455
0.0229455
0.018297
0.0147139
0.0119344
0.00978934
0.00814175
0.00688481
0.00593677
0.0052353
0.00473104
0.00438163
0.00414844
0.00399693
0.00389901
0.00383512
0.00379359
0.00376617
0.25899
0.184356
0.117097
0.0758123
0.0521686
0.0383989
0.0294824
0.0231636
0.0184182
0.0147602
0.0119265
0.00974006
0.0080659
0.00679408
0.00584064
0.00514146
0.00464549
0.00430825
0.00408882
0.00395083
0.00386533
0.00381236
0.00377989
0.00375992
0.246137
0.178172
0.115953
0.0761332
0.0527424
0.0388918
0.0298613
0.0234312
0.0185909
0.0148592
0.0119704
0.00974417
0.00803989
0.00674805
0.0057839
0.00508141
0.00458801
0.0042574
0.0040466
0.00391769
0.00384091
0.00379591
0.0037702
0.00375578
0.23488
0.172731
0.11485
0.0764346
0.0533355
0.0394457
0.0303166
0.0237793
0.0188377
0.0150207
0.0120689
0.00979817
0.00806261
0.00674841
0.00576775
0.00505548
0.00455822
0.00422821
0.00402067
0.00389634
0.00382468
0.00378484
0.00376378
0.00375321
0.226368
0.168657
0.114159
0.076887
0.0540297
0.0401041
0.0308664
0.0242173
0.0191726
0.0152673
0.0122432
0.00991532
0.00813657
0.00679102
0.0057895
0.00506295
0.00455615
0.00422047
0.00401057
0.00388616
0.00381583
0.00377851
0.00376022
0.00375187
0.2206
0.166139
0.114109
0.0776256
0.0549294
0.0408993
0.0315243
0.0247495
0.0195947
0.0155961
0.0124952
0.0101051
0.00827675
0.00689181
0.00585894
0.0051081
0.00458326
0.00423494
0.00401678
0.00388753
0.00381486
0.00377703
0.00375903
0.00375141
0.217332
0.165197
0.114798
0.0788208
0.0560765
0.041847
0.0322929
0.0253748
0.0201009
0.0160026
0.0128188
0.0103603
0.00847554
0.00704431
0.00597342
0.00519143
0.00464133
0.00427322
0.00404045
0.00390114
0.00382194
0.00378015
0.00376012
0.00375159
0.216341
0.165827
0.116413
0.0805091
0.057492
0.0429669
0.0331891
0.0261048
0.0206998
0.0164938
0.0132199
0.0106857
0.00873734
0.00725255
0.00613633
0.00531568
0.00473271
0.00433743
0.00408341
0.00392853
0.00383846
0.00378879
0.00376394
0.00375254
0.217413
0.16803
0.118983
0.0827482
0.0592297
0.0442922
0.0342322
0.0269522
0.0214004
0.0170764
0.0137041
0.0110863
0.00906662
0.00752065
0.00635149
0.00548452
0.00486091
0.00443077
0.00414835
0.00397166
0.00386557
0.00380431
0.0037712
0.00375469
0.22049
0.171848
0.122607
0.0856224
0.0613446
0.0458554
0.0354415
0.0279293
0.0222111
0.017757
0.0142769
0.0115672
0.00946817
0.00785321
0.00662337
0.00570229
0.00503017
0.00455727
0.00423878
0.00403334
0.0039053
0.00382777
0.00378307
0.00375885
0.225514
0.177353
0.127396
0.0892224
0.0638958
0.0476913
0.0368369
0.0290477
0.0231397
0.0185415
0.0149434
0.0121332
0.0099468
0.00825504
0.00695682
0.00597394
0.00524551
0.00472187
0.00435932
0.00411757
0.00396087
0.0038615
0.00380101
0.00376564
0.23249
0.184655
0.133484
0.0936523
0.0669504
0.0498383
0.0384396
0.0303195
0.0241937
0.0194353
0.0157083
0.0127888
0.0105072
0.00873103
0.00735695
0.00630485
0.00551255
0.00493031
0.00451552
0.00422927
0.00403626
0.00390843
0.00382684
0.00377599
0.241448
0.193882
0.141029
0.0990374
0.0705879
0.0523408
0.0402737
0.0317573
0.0253799
0.020443
0.0165755
0.0135379
0.0111535
0.00928584
0.00782891
0.00670056
0.00583725
0.00518884
0.00471365
0.00437426
0.00413636
0.0039722
0.00386294
0.00379115
0.252424
0.205173
0.150204
0.105522
0.0749014
0.0552508
0.0423657
0.0333744
0.0267054
0.0215687
0.0175481
0.0143836
0.0118893
0.00992357
0.00837741
0.00716643
0.00622549
0.00550385
0.00496039
0.0045591
0.00426702
0.00405743
0.00391198
0.00381233
0.265434
0.218662
0.161183
0.11326
0.0799952
0.0586274
0.0447459
0.0351854
0.0281768
0.0228155
0.0186278
0.0153277
0.0127169
0.0106474
0.00900646
0.00770723
0.00668282
0.0058816
0.00526258
0.00479087
0.00443486
0.00416926
0.00397705
0.00384072
0.280431
0.234455
0.174118
0.122402
0.0859797
0.0625356
0.0474479
0.037206
0.0298004
0.0241854
0.0198153
0.0163707
0.0136373
0.0114593
0.00971911
0.00832705
0.00721429
0.006328
0.00562691
0.00507666
0.0046467
0.00431339
0.00406221
0.00387799
0.297247
0.2526
0.189103
0.133072
0.09296
0.0670428
0.0505075
0.0394527
0.0315826
0.0256798
0.0211099
0.0175116
0.0146503
0.0123599
0.0105172
0.00902903
0.0078242
0.0068484
0.00605958
0.00542333
0.00490954
0.00449623
0.00417228
0.00392614
0.315425
0.273101
0.206109
0.145324
0.101017
0.0722111
0.0539608
0.041943
0.0335292
0.0272989
0.0225096
0.0187479
0.015754
0.0133485
0.0114013
0.00981502
0.00851569
0.00744709
0.00656593
0.00583706
0.00523016
0.00472442
0.00431265
0.00398746
0.334571
0.295341
0.224867
0.159086
0.110176
0.0780848
0.057839
0.0446939
0.0356463
0.0290424
0.0240115
0.020076
0.0169448
0.0144225
0.0123702
0.0106852
0.00929029
0.00812691
0.00714996
0.00632296
0.00561456
0.00500438
0.00448893
0.00406444
0.353827
0.318204
0.24476
0.174089
0.120368
0.0846717
0.0621618
0.0477187
0.0379392
0.03091
0.0256121
0.0214914
0.0182183
0.015578
0.0134208
0.0116378
0.0101477
0.00888893
0.00781412
0.00688479
0.00606773
0.00534186
0.00470656
0.00415958
0.370995
0.339511
0.264741
0.189766
0.131373
0.0919152
0.0669259
0.0510223
0.0404112
0.0329013
0.0273083
0.0229891
0.0195689
0.0168096
0.0145486
0.0126693
0.0110856
0.00973231
0.0085591
0.00752479
0.00659335
0.0057417
0.00497038
0.0042751
0.378558
0.356118
0.283282
0.205168
0.142754
0.0996587
0.0720893
0.0545972
0.0430616
0.0350153
0.0290969
0.0245644
0.0209913
0.0181117
0.015748
0.0137748
0.0121
0.0106543
0.00938371
0.0082435
0.00719375
0.00620761
0.00528441
0.00441263
0.343417
0.35871
0.297889
0.218928
0.153834
0.107623
0.0775588
0.0584175
0.0458847
0.03725
0.0309756
0.0262136
0.0224802
0.0194784
0.0170131
0.0149484
0.0131857
0.0116507
0.0102851
0.00903986
0.00786987
0.00674233
0.00565184
0.00457291
0.0112082
0.0163702
0.0197446
0.0211885
0.022072
0.0439549
0.0295347
0.0401034
0.0437242
0.0431111
0.0441868
0.0705895
0.038235
0.0505183
0.0568471
0.0564735
0.0588516
0.0854413
0.0440603
0.0591179
0.0675536
0.0674348
0.0707163
0.0972735
0.0482372
0.0671346
0.0769674
0.0772156
0.0811492
0.107271
0.0515351
0.074587
0.0854765
0.0862874
0.0907912
0.116259
0.0543086
0.0815054
0.0933109
0.0949325
0.0999931
0.124049
0.0567023
0.0879761
0.100646
0.103366
0.108974
0.13106
0.0587827
0.0940178
0.107614
0.111749
0.117844
0.137814
0.0605897
0.0996039
0.114291
0.120083
0.126825
0.144769
0.062154
0.104704
0.12071
0.128405
0.13613
0.152369
0.0635068
0.109257
0.12687
0.136749
0.145959
0.161055
0.0646328
0.113173
0.132728
0.145107
0.156373
0.171324
0.0650472
0.116546
0.138194
0.153408
0.167404
0.183537
0.0648888
0.119283
0.143106
0.16147
0.178914
0.197807
0.0639355
0.12119
0.147233
0.168973
0.190471
0.213537
0.0621501
0.121879
0.150271
0.175442
0.201312
0.229478
0.059452
0.121296
0.151685
0.180257
0.210375
0.243873
0.0556685
0.118827
0.151341
0.182428
0.216295
0.254581
0.0507119
0.11385
0.148517
0.18158
0.217636
0.259083
0.044601
0.105358
0.142504
0.176444
0.212862
0.25513
0.0367081
0.0920589
0.13226
0.165741
0.199718
0.239877
0.0261788
0.0712306
0.115756
0.14743
0.174573
0.207009
0.0105588
0.0441522
0.0915649
0.119324
0.13219
0.126375
0.281079
0.348488
0.303412
0.229354
0.163814
0.115449
0.0831973
0.0624399
0.0488696
0.0396035
0.0329431
0.0279347
0.0240326
0.0209056
0.0183387
0.0161848
0.0143374
0.0127167
0.0112595
0.00991162
0.00862152
0.00734783
0.00607539
0.00475585
0.234347
0.325747
0.300657
0.236066
0.172196
0.122829
0.0888617
0.0666136
0.0520034
0.0420747
0.0350009
0.0297282
0.0256479
0.0223915
0.0197226
0.0174809
0.0155516
0.0138488
0.0123038
0.0108566
0.00944836
0.00802605
0.0065581
0.00496077
0.203827
0.301575
0.293732
0.239864
0.178892
0.12959
0.094441
0.0708915
0.055274
0.0446644
0.0371529
0.0315981
0.027329
0.0239384
0.0211664
0.0188383
0.0168299
0.0150483
0.0134192
0.0118764
0.0103528
0.00878127
0.00710538
0.00518746
0.185311
0.280141
0.281873
0.239874
0.183775
0.135622
0.0998627
0.075238
0.0586721
0.0473757
0.0394056
0.033551
0.0290824
0.0255529
0.0226776
0.0202657
0.0181826
0.0163274
0.0146192
0.0129849
0.0113489
0.00962833
0.00773217
0.00543957
0.175499
0.261763
0.269309
0.237812
0.187098
0.140901
0.105079
0.0796318
0.0621927
0.0502125
0.0417662
0.0355945
0.0309158
0.027244
0.024268
0.0217797
0.0196324
0.0177161
0.0159416
0.0142274
0.0124875
0.010622
0.00849353
0.00574737
0.170775
0.246312
0.257007
0.234576
0.189161
0.145454
0.110055
0.0840515
0.0658328
0.0531793
0.0442404
0.0377337
0.032834
0.0290178
0.0259475
0.0233972
0.0212082
0.0192611
0.0174581
0.0157079
0.0139132
0.0119546
0.00964339
0.00644082
0.169349
0.233546
0.245381
0.229753
0.19029
0.149342
0.114771
0.0884756
0.069586
0.0562775
0.0468304
0.0399682
0.0348332
0.0308681
0.0277103
0.0251172
0.0229204
0.0209958
0.019245
0.0175821
0.0159267
0.0142261
0.0125732
0.011459
0.170016
0.223243
0.234644
0.223509
0.190165
0.152488
0.119186
0.0928758
0.073442
0.0595058
0.0495347
0.0422906
0.0368982
0.0327722
0.0295265
0.0269045
0.0247329
0.0228928
0.0213031
0.0199115
0.0186911
0.0176589
0.0169413
0.0167927
0.171663
0.215198
0.225005
0.216963
0.189273
0.154937
0.123259
0.0972181
0.0773851
0.0628605
0.0523499
0.0446913
0.0390102
0.0347004
0.0313559
0.0287078
0.0265801
0.0248609
0.0234845
0.0224194
0.0216579
0.0212134
0.0211284
0.0213839
0.174214
0.209322
0.216654
0.210534
0.187826
0.156771
0.126935
0.101455
0.0813906
0.0663349
0.0552756
0.0471662
0.0411568
0.0366315
0.0331685
0.0304884
0.028412
0.0268293
0.0256776
0.0249228
0.0245414
0.0245086
0.024775
0.0252254
0.178112
0.205693
0.209787
0.204625
0.186031
0.158074
0.130191
0.105537
0.0854288
0.0699223
0.0583168
0.0497209
0.0433377
0.0385561
0.0349446
0.0322143
0.0301793
0.0287238
0.0277757
0.0272832
0.0271951
0.0274314
0.0279308
0.0284888
0.183909
0.204994
0.204935
0.199632
0.183878
0.158886
0.133036
0.109413
0.0894625
0.0736133
0.061484
0.0523727
0.0455669
0.0404791
0.0366762
0.0338606
0.0318361
0.0304745
0.0296859
0.0293961
0.0295146
0.0299513
0.0306073
0.031245
0.191888
0.206567
0.20351
0.19609
0.181406
0.159279
0.135476
0.113037
0.0934552
0.0773983
0.0647931
0.055151
0.0478742
0.0424216
0.0383698
0.0354154
0.03335
0.0320287
0.0313409
0.0311899
0.031441
0.0320279
0.032798
0.0335026
0.20275
0.211196
0.204824
0.194773
0.179759
0.159601
0.137646
0.116424
0.0973788
0.0812679
0.0682637
0.0580949
0.0503051
0.0444232
0.040051
0.0368858
0.0347084
0.0333568
0.0327
0.0326204
0.0329447
0.0336303
0.0344848
0.035249
0.216838
0.220885
0.209766
0.195852
0.179707
0.160354
0.139786
0.119689
0.10125
0.0852233
0.0719177
0.0612517
0.0529202
0.0465447
0.0417697
0.0383048
0.0359259
0.0344574
0.0337506
0.0336699
0.0340105
0.0347415
0.035652
0.0364685
0.234089
0.236462
0.220817
0.200572
0.181684
0.162117
0.142267
0.123014
0.105152
0.0892959
0.0757877
0.0646763
0.0557955
0.0488704
0.0436063
0.0397398
0.037053
0.0353642
0.0345125
0.0343478
0.034645
0.0353587
0.0362914
0.0371495
0.253632
0.257247
0.23819
0.211567
0.187669
0.166029
0.145769
0.126783
0.10928
0.0935793
0.079935
0.0684389
0.0590228
0.0515098
0.0456764
0.0413011
0.0381859
0.0361556
0.0350457
0.0346962
0.0348827
0.0354967
0.0364061
0.0372895
0.273412
0.280617
0.260318
0.228733
0.199125
0.173585
0.151402
0.131713
0.114056
0.0983088
0.0844978
0.0726478
0.0627189
0.0546001
0.0481337
0.043148
0.039478
0.0369686
0.035466
0.0348093
0.0348188
0.0352539
0.0360858
0.0369647
0.290177
0.302005
0.283207
0.24998
0.215968
0.185957
0.160548
0.138943
0.12028
0.103995
0.0897918
0.0775145
0.067059
0.0583195
0.0511748
0.0454944
0.0411495
0.0380162
0.0359669
0.0348595
0.0345345
0.0347251
0.0353418
0.0361749
0.299845
0.31598
0.301158
0.270377
0.235415
0.202525
0.173893
0.149617
0.129059
0.111515
0.0964428
0.0834725
0.0723612
0.0629368
0.0550623
0.0486177
0.0434962
0.0396016
0.0368396
0.0351042
0.0342456
0.0340981
0.0343817
0.035066
0.298482
0.31742
0.308257
0.283654
0.25202
0.219787
0.189943
0.163671
0.141074
0.121787
0.105326
0.0912448
0.0791929
0.0689065
0.06019
0.0528949
0.046906
0.0421335
0.0385031
0.0359379
0.0343669
0.033604
0.0335259
0.033857
0.282741
0.302762
0.300853
0.284067
0.25956
0.232185
0.204588
0.178665
0.155305
0.134759
0.116918
0.101522
0.0882701
0.0768894
0.0671495
0.0588671
0.0519007
0.0461443
0.0415201
0.0379611
0.0354111
0.0338288
0.0330397
0.032977
0.250516
0.271161
0.276825
0.270262
0.254933
0.234649
0.212681
0.190214
0.168531
0.14842
0.13024
0.114071
0.0998387
0.0873968
0.0765769
0.0672179
0.0591802
0.0523489
0.0466371
0.0419775
0.038297
0.0355848
0.033812
0.0329657
0.1993
0.2261
0.238858
0.241545
0.2374
0.226644
0.211191
0.194257
0.176743
0.159304
0.142633
0.127113
0.112925
0.100118
0.0886663
0.078503
0.069549
0.0617239
0.0549553
0.0491851
0.0443711
0.0404457
0.0374579
0.0352499
0.0034196
0.00768215
0.0157105
0.0252566
0.0376914
0.0645782
0.0147862
0.022452
0.0339527
0.0452278
0.0592837
0.0818514
0.0188802
0.03017
0.0434114
0.0560737
0.0703897
0.089229
0.0211415
0.0353361
0.0498339
0.0634467
0.0776281
0.0934074
0.0229357
0.0393534
0.054817
0.0690565
0.0829315
0.0964702
0.0242246
0.0426871
0.0589014
0.0735504
0.0871127
0.0991712
0.0249608
0.0455415
0.0623148
0.0772405
0.0905758
0.101758
0.0250641
0.0480242
0.0651608
0.0802966
0.0935314
0.104307
0.0251743
0.0500531
0.0674839
0.0828155
0.0960915
0.106839
0.0254425
0.0516028
0.0693076
0.0848518
0.0983136
0.109349
0.0257399
0.0526913
0.0706456
0.0864322
0.100218
0.111812
0.0259536
0.0533255
0.0715028
0.0875617
0.101795
0.114184
0.0260079
0.0535037
0.0718751
0.0882254
0.103004
0.116392
0.0258698
0.0532168
0.0717515
0.0883893
0.103777
0.118324
0.025556
0.0524461
0.0711012
0.0879996
0.104014
0.119827
0.0251908
0.0511608
0.0698888
0.0869839
0.103589
0.120695
0.0250559
0.0493397
0.0680649
0.0852531
0.102353
0.120667
0.0249274
0.0469576
0.0655721
0.0827044
0.100135
0.119425
0.0245631
0.0441542
0.0623466
0.0792205
0.0967399
0.116618
0.0236006
0.0408738
0.0582838
0.0746478
0.0919197
0.111855
0.022081
0.0369235
0.0531574
0.0687274
0.0853529
0.10485
0.0200396
0.0318603
0.0464208
0.0608818
0.0763964
0.094983
0.016136
0.0242631
0.0364048
0.0494107
0.0631344
0.0812741
0.00405585
0.00855385
0.0165144
0.0273619
0.0387154
0.0587484
0.143456
0.178014
0.195803
0.206019
0.209727
0.207678
0.201043
0.190309
0.177819
0.164721
0.151371
0.138272
0.125751
0.113999
0.10312
0.0931529
0.0841016
0.0759477
0.068667
0.0622201
0.0566233
0.0517438
0.0479016
0.0440706
0.118882
0.142941
0.16004
0.172979
0.181107
0.184378
0.183564
0.179675
0.172964
0.164711
0.155786
0.146572
0.1374
0.12851
0.120066
0.112169
0.104874
0.0982024
0.0921626
0.0867266
0.0819242
0.0775798
0.074149
0.0703037
0.109758
0.124566
0.137544
0.149108
0.158086
0.163835
0.166533
0.166617
0.164973
0.161552
0.157384
0.152816
0.14815
0.143651
0.139486
0.135776
0.132585
0.129935
0.12781
0.126186
0.124979
0.124098
0.123535
0.123174
0.107041
0.116864
0.126586
0.135792
0.143601
0.149557
0.153706
0.156244
0.157536
0.157827
0.157697
0.157434
0.157273
0.157398
0.157948
0.159024
0.16063
0.162712
0.165145
0.167726
0.17022
0.172434
0.174213
0.175521
0.106928
0.114646
0.122626
0.130163
0.136738
0.142084
0.146293
0.149599
0.152289
0.154638
0.156883
0.159143
0.161685
0.164598
0.167863
0.171434
0.175208
0.179039
0.182751
0.186144
0.189003
0.191127
0.192414
0.193042
0.108291
0.115122
0.122184
0.128874
0.134713
0.139534
0.143472
0.146777
0.149718
0.152544
0.155441
0.158541
0.16189
0.165508
0.169341
0.173269
0.177195
0.18098
0.184469
0.187499
0.189897
0.191476
0.19214
0.192199
0.110464
0.117324
0.124136
0.130421
0.135804
0.1402
0.143782
0.146812
0.14955
0.152199
0.154898
0.157713
0.160635
0.163587
0.166534
0.169436
0.172175
0.174668
0.176784
0.178401
0.179415
0.179695
0.179308
0.178597
0.113142
0.120594
0.127754
0.134219
0.139668
0.144055
0.147551
0.1504
0.152833
0.155035
0.157131
0.159185
0.161209
0.163182
0.165022
0.166627
0.167898
0.168752
0.169205
0.169278
0.169025
0.168484
0.167823
0.167215
0.116194
0.124656
0.132663
0.139828
0.145852
0.150706
0.15455
0.1576
0.160058
0.162083
0.163781
0.165215
0.166408
0.167359
0.168049
0.168467
0.168593
0.168443
0.168008
0.167322
0.166478
0.165657
0.165103
0.16478
0.119557
0.12941
0.138719
0.147048
0.154096
0.159849
0.164461
0.168136
0.171056
0.173362
0.175155
0.176498
0.177425
0.177954
0.178091
0.177895
0.177303
0.17633
0.174993
0.173333
0.171454
0.169665
0.1684
0.167826
0.123189
0.134814
0.145836
0.155702
0.164101
0.171046
0.176708
0.181299
0.184994
0.187932
0.190222
0.191916
0.193047
0.193642
0.193726
0.193453
0.192642
0.1912
0.189132
0.1864
0.182906
0.178734
0.174563
0.171397
0.127043
0.140816
0.153881
0.1655
0.175357
0.183525
0.190221
0.195695
0.200116
0.203664
0.206461
0.208488
0.209767
0.210348
0.210121
0.209036
0.206964
0.203868
0.199826
0.194817
0.189025
0.182731
0.176527
0.171226
0.131039
0.14731
0.162596
0.17593
0.187025
0.196072
0.203378
0.209248
0.213809
0.217145
0.219185
0.220174
0.220204
0.219385
0.217674
0.215074
0.211602
0.207184
0.201791
0.195405
0.18806
0.179662
0.170857
0.161283
0.135043
0.154098
0.171533
0.186183
0.197888
0.207006
0.213748
0.218277
0.221198
0.222825
0.22354
0.223233
0.222085
0.21987
0.21643
0.211831
0.206062
0.199137
0.191082
0.181944
0.171894
0.160836
0.149914
0.1367
0.138866
0.160855
0.179989
0.195109
0.206103
0.213279
0.217839
0.220701
0.22197
0.221647
0.220059
0.217105
0.212773
0.207236
0.200523
0.192677
0.183744
0.173803
0.162947
0.151323
0.139261
0.126843
0.115327
0.102235
0.142234
0.167091
0.18697
0.200693
0.209164
0.214296
0.216493
0.216053
0.213845
0.209764
0.204128
0.197232
0.189196
0.180131
0.17014
0.159314
0.147792
0.135741
0.123483
0.111376
0.0999055
0.089312
0.0800427
0.0727186
0.144769
0.172124
0.190729
0.201928
0.207638
0.208791
0.206705
0.202078
0.195162
0.186765
0.177193
0.166714
0.155545
0.143857
0.131801
0.119606
0.107609
0.0962429
0.0859195
0.0768219
0.0692817
0.0637254
0.0602614
0.0589568
0.145873
0.174885
0.190934
0.198307
0.199232
0.196021
0.18912
0.179667
0.168748
0.156897
0.144543
0.132019
0.119556
0.107379
0.0958288
0.0853165
0.0761391
0.0684362
0.0622057
0.0575613
0.0543395
0.0524891
0.0519493
0.0527659
0.145158
0.174939
0.186638
0.188852
0.185616
0.177559
0.166177
0.153372
0.139948
0.12652
0.113537
0.101252
0.0899397
0.0799076
0.0713833
0.0643651
0.0587285
0.0543138
0.0509907
0.0486858
0.0474096
0.0472064
0.0476917
0.0494919
0.142317
0.171839
0.178218
0.176363
0.16916
0.156787
0.142813
0.128452
0.114534
0.101602
0.0899056
0.0796542
0.070977
0.0638308
0.0580137
0.0532998
0.0495205
0.0465759
0.0444434
0.0431732
0.0428249
0.0431199
0.0441423
0.0465383
0.139562
0.166875
0.168713
0.164302
0.152749
0.137978
0.122871
0.108514
0.0955247
0.0841362
0.074412
0.0662978
0.0595848
0.0540273
0.0494289
0.0456692
0.0426861
0.0404677
0.0390513
0.0385076
0.0386849
0.0394359
0.0410397
0.0437093
0.138972
0.16444
0.163219
0.154473
0.138892
0.122716
0.107458
0.0938563
0.0821271
0.0722088
0.0639204
0.0570033
0.0512326
0.0464531
0.0425647
0.0394901
0.0371838
0.0356371
0.0348649
0.0348583
0.0353286
0.0364789
0.0383355
0.0409427
0.145921
0.165793
0.16107
0.145962
0.127603
0.110533
0.0955438
0.0827823
0.072068
0.0631258
0.0556746
0.0494984
0.0444399
0.0403657
0.037155
0.0347123
0.032976
0.0319192
0.0315406
0.031719
0.0324069
0.0337102
0.0355666
0.0380042
0.164465
0.175219
0.160246
0.13778
0.117627
0.100313
0.085823
0.0737975
0.0638345
0.0555998
0.0488441
0.0433682
0.0389902
0.0355427
0.0328847
0.0309112
0.0295568
0.0287928
0.0286135
0.0288875
0.029663
0.0309415
0.0327032
0.0349303
)
;

boundaryField
{
    rotor
    {
        type            kqRWallFunction;
        value           nonuniform List<scalar> 
144
(
0.00605102
0.0247285
0.0677154
0.11658
0.152742
0.142703
0.00605102
0.0190612
0.0249316
0.0285149
0.0323
0.0354133
0.0378466
0.0396343
0.0408268
0.0414698
0.0415971
0.0412429
0.040489
0.0394355
0.0380591
0.0363467
0.0342834
0.0318243
0.0288472
0.0250918
0.023069
0.0211902
0.0174319
0.00499319
0.00499319
0.00772923
0.0138646
0.0233122
0.0423234
0.12168
0.0068706
0.0326723
0.078297
0.125915
0.150685
0.138172
0.0068706
0.0216661
0.031273
0.0388131
0.0451012
0.0503159
0.0545822
0.0579915
0.0606091
0.0624781
0.063626
0.0640852
0.0640358
0.0634965
0.0623946
0.0606473
0.0581705
0.0548749
0.050659
0.0454129
0.0390385
0.0314774
0.0221726
0.00650684
0.00650684
0.0244901
0.0570154
0.0947817
0.147394
0.175716
0.0112082
0.0163702
0.0197446
0.0211885
0.022072
0.0439549
0.0112082
0.0295347
0.038235
0.0440603
0.0482372
0.0515351
0.0543086
0.0567023
0.0587827
0.0605897
0.062154
0.0635068
0.0646328
0.0650472
0.0648888
0.0639355
0.0621501
0.059452
0.0556685
0.0507119
0.044601
0.0367081
0.0261788
0.0105588
0.0105588
0.0441522
0.0915649
0.119324
0.13219
0.126375
0.0034196
0.00768215
0.0157105
0.0252566
0.0376914
0.0645782
0.0034196
0.0147862
0.0188802
0.0211415
0.0229357
0.0242246
0.0249608
0.0250641
0.0251743
0.0254425
0.0257399
0.0259536
0.0260079
0.0258698
0.025556
0.0251908
0.0250559
0.0249274
0.0245631
0.0236006
0.022081
0.0200396
0.016136
0.00405585
0.00405585