/*--------------------------------*- C++ -*----------------------------------*\
  =========                 |
  \\      /  F ield         | OpenFOAM: The Open Source CFD Toolbox
   \\    /   O peration     | Website:  https://openfoam.org
    \\  /    A nd           | Version:  11
     \\/     M anipulation  |
\*---------------------------------------------------------------------------*/
FoamFile
{
    format      ascii;
    class       surfaceScalarField;
    location    "1.68";
    object      meshPhi;
}
// * * * * * * * * * * * * * * * * * * * * * * * * * * * * * * * * * * * * * //

dimensions      [0 3 -1 0 0 0 0];

internalField   nonuniform List<scalar> 
5640
(
1.37007e-16
9.81747e-07
2.42183e-16
1.37445e-06
3.77174e-16
1.76715e-06
-1.33907e-15
2.15984e-06
-3.68152e-15
2.55254e-06
2.94524e-06
5.95177e-15
1.90377e-18
9.81747e-07
-3.88727e-16
1.37445e-06
-2.60399e-15
1.76715e-06
1.94382e-15
2.15984e-06
8.06633e-15
2.55254e-06
2.94524e-06
-9.02943e-15
-1.16415e-16
9.81747e-07
1.86427e-16
1.37445e-06
-1.56215e-15
1.76715e-06
-4.21228e-15
2.15984e-06
-7.49814e-15
2.55254e-06
2.94524e-06
7.72886e-16
8.701e-17
9.81747e-07
-1.01794e-16
1.37445e-06
2.69334e-15
1.76715e-06
7.44294e-15
2.15984e-06
3.26002e-15
2.55254e-06
2.94524e-06
-2.79743e-15
-4.83065e-17
9.81747e-07
3.96089e-17
1.37445e-06
1.94455e-16
1.76715e-06
-1.80583e-15
2.15984e-06
-4.20831e-15
2.55254e-06
2.94524e-06
5.01359e-15
-1.80047e-16
9.81747e-07
4.38803e-18
1.37445e-06
-1.84762e-15
1.76715e-06
-3.88591e-15
2.15984e-06
3.15724e-15
2.55254e-06
2.94524e-06
4.9849e-16
2.54036e-16
9.81747e-07
2.55549e-16
1.37445e-06
2.06614e-15
1.76715e-06
4.50436e-15
2.15984e-06
-2.30961e-15
2.55254e-06
2.94524e-06
5.4142e-16
2.17279e-17
9.81747e-07
-3.21511e-16
1.37445e-06
-1.14872e-15
1.76715e-06
-5.28538e-15
2.15984e-06
-3.76325e-16
2.55254e-06
2.94524e-06
-5.63943e-15
-1.43353e-16
9.81747e-07
1.66519e-16
1.37445e-06
4.19127e-15
1.76715e-06
6.34966e-15
2.15984e-06
-8.05247e-16
2.55254e-06
2.94524e-06
8.39618e-16
-6.87478e-17
9.81747e-07
-9.19171e-17
1.37445e-06
-2.76922e-15
1.76715e-06
-3.68573e-16
2.15984e-06
-1.45054e-15
2.55254e-06
2.94524e-06
-1.76308e-16
1.66411e-16
9.81747e-07
-8.85926e-17
1.37445e-06
5.69864e-16
1.76715e-06
-2.10333e-15
2.15984e-06
9.66027e-15
2.55254e-06
2.94524e-06
5.29049e-15
-1.77714e-16
9.81747e-07
-2.03822e-17
1.37445e-06
-3.4534e-16
1.76715e-06
-4.1724e-15
2.15984e-06
-2.622e-15
2.55254e-06
2.94524e-06
5.36991e-15
1.77843e-16
9.81747e-07
2.06384e-17
1.37445e-06
3.45595e-16
1.76715e-06
4.17295e-15
2.15984e-06
2.62274e-15
2.55254e-06
2.94524e-06
-5.3691e-15
-1.66257e-16
9.81747e-07
8.87992e-17
1.37445e-06
-5.69466e-16
1.76715e-06
2.10379e-15
2.15984e-06
-9.65962e-15
2.55254e-06
2.94524e-06
-5.28968e-15
6.88663e-17
9.81747e-07
9.2204e-17
1.37445e-06
2.76958e-15
1.76715e-06
3.69095e-16
2.15984e-06
1.45117e-15
2.55254e-06
2.94524e-06
1.77159e-16
1.43447e-16
9.81747e-07
-1.66282e-16
1.37445e-06
-4.19096e-15
1.76715e-06
-6.3491e-15
2.15984e-06
8.05916e-16
2.55254e-06
2.94524e-06
-8.38898e-16
-2.16159e-17
9.81747e-07
3.21768e-16
1.37445e-06
1.14904e-15
1.76715e-06
5.28587e-15
2.15984e-06
3.77063e-16
2.55254e-06
2.94524e-06
5.64023e-15
-2.53921e-16
9.81747e-07
-2.55344e-16
1.37445e-06
-2.06581e-15
1.76715e-06
-4.50387e-15
2.15984e-06
2.31031e-15
2.55254e-06
2.94524e-06
-5.40419e-16
1.80166e-16
9.81747e-07
-4.22275e-18
1.37445e-06
1.84797e-15
1.76715e-06
3.88637e-15
2.15984e-06
-3.15672e-15
2.55254e-06
2.94524e-06
-4.97886e-16
4.84239e-17
9.81747e-07
-3.94268e-17
1.37445e-06
-1.94201e-16
1.76715e-06
1.8064e-15
2.15984e-06
4.20872e-15
2.55254e-06
2.94524e-06
-5.01294e-15
-8.68938e-17
9.81747e-07
1.02018e-16
1.37445e-06
-2.69298e-15
1.76715e-06
-7.44257e-15
2.15984e-06
-3.25945e-15
2.55254e-06
2.94524e-06
2.79842e-15
1.16511e-16
9.81747e-07
-1.86305e-16
1.37445e-06
1.56258e-15
1.76715e-06
4.21274e-15
2.15984e-06
7.49865e-15
2.55254e-06
2.94524e-06
-7.71821e-16
-1.76793e-18
9.81747e-07
3.88887e-16
1.37445e-06
2.60432e-15
1.76715e-06
-1.94338e-15
2.15984e-06
-8.06591e-15
2.55254e-06
2.94524e-06
9.0302e-15
-1.36879e-16
-2.42017e-16
-3.76798e-16
1.33955e-15
3.68174e-15
-5.95094e-15
-1.13354e-14
4.53785e-06
-4.53785e-06
-4.80222e-16
5.23599e-06
-5.23599e-06
-5.35653e-15
5.93412e-06
-5.93412e-06
-1.13023e-14
6.63225e-06
-6.63225e-06
4.87e-15
7.33038e-06
-7.33038e-06
-1.10762e-15
8.02851e-06
-8.02851e-06
-8.15643e-15
8.72664e-06
-8.72664e-06
1.3048e-14
9.42478e-06
-9.42478e-06
5.95321e-15
1.01229e-05
-1.01229e-05
-1.99345e-15
1.0821e-05
-1.0821e-05
2.4392e-14
1.15192e-05
-1.15192e-05
1.61934e-14
1.22173e-05
-1.22173e-05
-3.27825e-14
1.29154e-05
-1.29154e-05
-3.04792e-15
1.36136e-05
-1.36136e-05
-1.44394e-14
1.43117e-05
-1.43117e-05
-2.68983e-14
1.50098e-05
-1.50098e-05
7.74723e-15
1.5708e-05
-1.5708e-05
-4.42886e-15
1.64061e-05
-1.64061e-05
-1.79903e-14
1.71042e-05
-1.71042e-05
2.18309e-14
1.78024e-05
-1.78024e-05
8.22152e-15
1.85005e-05
-1.85005e-05
-6.07588e-15
1.91986e-05
-1.91986e-05
3.89308e-14
1.98967e-05
-1.98967e-05
2.05949e-05
-2.05949e-05
9.39967e-15
4.53785e-06
5.20873e-16
5.23599e-06
7.52931e-15
5.93412e-06
-4.41037e-15
6.63225e-06
3.78394e-15
7.33038e-06
1.33867e-14
8.02851e-06
-2.10757e-15
8.72664e-06
8.53235e-15
9.42478e-06
-1.00239e-14
1.01229e-05
1.86747e-15
1.0821e-05
-2.0197e-14
1.15192e-05
-7.00908e-15
1.22173e-05
7.51372e-15
1.29154e-05
2.36157e-14
1.36136e-05
-2.03813e-15
1.43117e-05
1.48376e-14
1.50098e-05
-1.3871e-14
1.5708e-05
2.39889e-15
1.64061e-05
2.04194e-14
1.71042e-05
-7.01064e-15
1.78024e-05
1.20786e-14
1.85005e-05
-2.59273e-14
1.91986e-05
1.85539e-15
1.98967e-05
2.05949e-05
-8.67546e-15
4.53785e-06
1.22931e-14
5.23599e-06
1.88435e-15
5.93412e-06
8.90346e-15
6.63225e-06
-5.10732e-15
7.33038e-06
-2.19896e-14
8.02851e-06
1.22664e-14
8.72664e-06
-5.37154e-15
9.42478e-06
4.45922e-15
1.01229e-05
-1.43029e-14
1.0821e-05
-7.32106e-15
1.15192e-05
7.04546e-15
1.22173e-05
2.39989e-14
1.29154e-05
-7.55017e-15
1.36136e-05
9.80481e-15
1.43117e-05
-1.62307e-14
1.50098e-05
4.03011e-14
1.5708e-05
1.44527e-14
1.64061e-05
-1.36959e-14
1.71042e-05
-7.89148e-15
1.78024e-05
-3.92405e-14
1.85005e-05
4.27614e-14
1.91986e-05
-8.83536e-15
1.98967e-05
2.05949e-05
5.98651e-15
4.53785e-06
2.19798e-16
5.23599e-06
-6.43461e-15
5.93412e-06
6.06541e-15
6.63225e-06
-2.09113e-15
7.33038e-06
1.61786e-14
8.02851e-06
-1.88297e-14
8.72664e-06
-2.34827e-15
9.42478e-06
9.17374e-15
1.01229e-05
-4.7089e-15
1.0821e-05
2.16303e-14
1.15192e-05
-2.96418e-14
1.22173e-05
-9.28238e-15
1.29154e-05
-1.89011e-14
1.36136e-05
4.47137e-15
1.43117e-05
3.01628e-14
1.50098e-05
-2.62117e-14
1.5708e-05
4.41171e-16
1.64061e-05
-2.11621e-14
1.71042e-05
1.87229e-14
1.78024e-05
-3.91075e-15
1.85005e-05
-2.91523e-14
1.91986e-05
1.52433e-14
1.98967e-05
2.05949e-05
6.71547e-15
4.53785e-06
-7.30587e-15
5.23599e-06
1.11021e-14
5.93412e-06
-4.2395e-15
6.63225e-06
1.5103e-14
7.33038e-06
-5.20766e-15
8.02851e-06
1.70147e-14
8.72664e-06
-3.93851e-15
9.42478e-06
-2.90629e-16
1.01229e-05
6.61289e-15
1.0821e-05
1.371e-14
1.15192e-05
1.01882e-14
1.22173e-05
1.82228e-14
1.29154e-05
1.43748e-14
1.36136e-05
2.33452e-14
1.43117e-05
-2.53382e-14
1.50098e-05
2.90805e-14
1.5708e-05
-7.82146e-15
1.64061e-05
3.54219e-14
1.71042e-05
-4.50414e-15
1.78024e-05
4.238e-14
1.85005e-05
-5.79202e-16
1.91986e-05
-8.71728e-15
1.98967e-05
2.05949e-05
-4.63003e-15
4.53785e-06
5.79822e-15
5.23599e-06
-1.61492e-14
5.93412e-06
-5.97279e-15
6.63225e-06
-8.55437e-15
7.33038e-06
4.22619e-15
8.02851e-06
-8.18462e-15
8.72664e-06
7.0016e-15
9.42478e-06
-2.42264e-14
1.01229e-05
-7.76592e-15
1.0821e-05
-2.27601e-14
1.15192e-05
8.3542e-15
1.22173e-05
-7.4008e-15
1.29154e-05
2.82713e-14
1.36136e-05
-4.5703e-14
1.43117e-05
-8.21602e-15
1.50098e-05
-2.82215e-14
1.5708e-05
-2.33388e-15
1.64061e-05
-6.93768e-15
1.71042e-05
2.21592e-14
1.78024e-05
-3.41012e-14
1.85005e-05
-3.73201e-15
1.91986e-05
-3.23353e-14
1.98967e-05
2.05949e-05
-8.9246e-15
4.53785e-06
-2.28806e-15
5.23599e-06
-2.22303e-15
5.93412e-06
6.61768e-15
6.63225e-06
-3.38702e-15
7.33038e-06
-3.90571e-15
8.02851e-06
-6.4159e-15
8.72664e-06
-7.15669e-15
9.42478e-06
6.81252e-15
1.01229e-05
6.98688e-15
1.0821e-05
-9.06181e-15
1.15192e-05
6.76233e-15
1.22173e-05
-2.88845e-14
1.29154e-05
-1.22285e-14
1.36136e-05
4.80909e-15
1.43117e-05
2.50319e-14
1.50098e-05
3.8701e-15
1.5708e-05
3.61368e-15
1.64061e-05
-2.04769e-14
1.71042e-05
-2.17534e-14
1.78024e-05
3.47473e-15
1.85005e-05
2.90486e-14
1.91986e-05
-1.65664e-15
1.98967e-05
2.05949e-05
6.2161e-15
4.53785e-06
-3.87828e-15
5.23599e-06
1.54231e-14
5.93412e-06
-7.06377e-15
6.63225e-06
-2.20881e-15
7.33038e-06
1.43096e-15
8.02851e-06
-5.49112e-15
8.72664e-06
1.32282e-14
9.42478e-06
6.04884e-15
1.01229e-05
-1.74484e-14
1.0821e-05
2.08918e-14
1.15192e-05
-2.14418e-14
1.22173e-05
1.91374e-14
1.29154e-05
-7.30977e-15
1.36136e-05
3.84916e-14
1.43117e-05
-1.29175e-14
1.50098e-05
-1.87518e-15
1.5708e-05
5.72386e-15
1.64061e-05
-7.57749e-15
1.71042e-05
2.76663e-14
1.78024e-05
1.41061e-14
1.85005e-05
-5.31311e-14
1.91986e-05
3.90904e-14
1.98967e-05
2.05949e-05
-1.4981e-15
4.53785e-06
1.08981e-14
5.23599e-06
-6.5987e-15
5.93412e-06
7.26745e-15
6.63225e-06
6.1766e-15
7.33038e-06
2.49007e-15
8.02851e-06
-9.63326e-16
8.72664e-06
-4.36319e-15
9.42478e-06
-8.89743e-15
1.01229e-05
1.38649e-14
1.0821e-05
1.06939e-14
1.15192e-05
6.2535e-15
1.22173e-05
-1.22616e-16
1.29154e-05
-3.43331e-15
1.36136e-05
-1.10391e-14
1.43117e-05
-1.77618e-14
1.50098e-05
1.76897e-14
1.5708e-05
9.96028e-15
1.64061e-05
3.33936e-15
1.71042e-05
-3.29576e-14
1.78024e-05
-1.04121e-14
1.85005e-05
3.0078e-14
1.91986e-05
-5.99806e-14
1.98967e-05
2.05949e-05
5.17093e-15
4.53785e-06
-7.45457e-15
5.23599e-06
-7.55671e-16
5.93412e-06
6.84114e-15
6.63225e-06
-9.97238e-15
7.33038e-06
-1.66338e-15
8.02851e-06
9.22116e-15
8.72664e-06
-1.3457e-14
9.42478e-06
2.32229e-14
1.01229e-05
1.04752e-14
1.0821e-05
-1.727e-14
1.15192e-05
-3.02268e-15
1.22173e-05
1.1402e-14
1.29154e-05
-1.98105e-14
1.36136e-05
-4.67262e-15
1.43117e-05
5.03121e-14
1.50098e-05
-2.4037e-14
1.5708e-05
-6.65353e-15
1.64061e-05
1.42676e-14
1.71042e-05
1.66027e-15
1.78024e-05
-6.80042e-15
1.85005e-05
1.44531e-14
1.91986e-05
5.07651e-14
1.98967e-05
2.05949e-05
-6.1966e-15
4.53785e-06
2.92791e-17
5.23599e-06
1.15126e-14
5.93412e-06
-2.06253e-14
6.63225e-06
5.36828e-15
7.33038e-06
1.22284e-15
8.02851e-06
-4.56211e-17
8.72664e-06
1.23947e-14
9.42478e-06
-1.32242e-14
1.01229e-05
-1.88914e-14
1.0821e-05
-4.96083e-15
1.15192e-05
-7.15102e-15
1.22173e-05
-1.48805e-14
1.29154e-05
3.53441e-14
1.36136e-05
4.37916e-18
1.43117e-05
-4.31311e-14
1.50098e-05
1.35658e-14
1.5708e-05
-2.8248e-14
1.64061e-05
2.46155e-15
1.71042e-05
-1.02334e-14
1.78024e-05
2.381e-14
1.85005e-05
1.38881e-14
1.91986e-05
-4.55555e-14
1.98967e-05
2.05949e-05
-1.9061e-15
4.53785e-06
1.13129e-15
5.23599e-06
-2.16608e-14
5.93412e-06
9.62455e-15
6.63225e-06
1.51384e-14
7.33038e-06
-1.40636e-14
8.02851e-06
8.09468e-15
8.72664e-06
-2.69575e-14
9.42478e-06
-1.96317e-15
1.01229e-05
2.97194e-14
1.0821e-05
-1.17404e-14
1.15192e-05
1.98702e-14
1.22173e-05
-2.744e-14
1.29154e-05
-2.0612e-14
1.36136e-05
1.60482e-14
1.43117e-05
-4.60728e-15
1.50098e-05
4.69653e-15
1.5708e-05
4.79734e-14
1.64061e-05
-1.37314e-14
1.71042e-05
3.23787e-14
1.78024e-05
-3.5175e-14
1.85005e-05
-2.4898e-14
1.91986e-05
7.19265e-14
1.98967e-05
2.05949e-05
1.90736e-15
4.53785e-06
-1.13009e-15
5.23599e-06
2.16627e-14
5.93412e-06
-9.62282e-15
6.63225e-06
-1.51362e-14
7.33038e-06
1.40668e-14
8.02851e-06
-8.0909e-15
8.72664e-06
2.69618e-14
9.42478e-06
1.96831e-15
1.01229e-05
-2.97151e-14
1.0821e-05
1.17495e-14
1.15192e-05
-1.98649e-14
1.22173e-05
2.74483e-14
1.29154e-05
2.06204e-14
1.36136e-05
-1.60374e-14
1.43117e-05
4.61681e-15
1.50098e-05
-4.68727e-15
1.5708e-05
-4.79606e-14
1.64061e-05
1.37466e-14
1.71042e-05
-3.23636e-14
1.78024e-05
3.51947e-14
1.85005e-05
2.49132e-14
1.91986e-05
-7.19092e-14
1.98967e-05
2.05949e-05
6.19786e-15
4.53785e-06
-2.79942e-17
5.23599e-06
-1.15107e-14
5.93412e-06
2.06273e-14
6.63225e-06
-5.36577e-15
7.33038e-06
-1.21949e-15
8.02851e-06
4.97403e-17
8.72664e-06
-1.23895e-14
9.42478e-06
1.32292e-14
1.01229e-05
1.88975e-14
1.0821e-05
4.96643e-15
1.15192e-05
7.15754e-15
1.22173e-05
1.48904e-14
1.29154e-05
-3.53358e-14
1.36136e-05
6.42155e-18
1.43117e-05
4.31431e-14
1.50098e-05
-1.35551e-14
1.5708e-05
2.82633e-14
1.64061e-05
-2.44711e-15
1.71042e-05
1.02469e-14
1.78024e-05
-2.37959e-14
1.85005e-05
-1.38629e-14
1.91986e-05
4.55695e-14
1.98967e-05
2.05949e-05
-5.16967e-15
4.53785e-06
7.45631e-15
5.23599e-06
7.57748e-16
5.93412e-06
-6.83806e-15
6.63225e-06
9.97568e-15
7.33038e-06
1.66627e-15
8.02851e-06
-9.21729e-15
8.72664e-06
1.34618e-14
9.42478e-06
-2.32193e-14
1.01229e-05
-1.0469e-14
1.0821e-05
1.72749e-14
1.15192e-05
3.03099e-15
1.22173e-05
-1.13929e-14
1.29154e-05
1.98222e-14
1.36136e-05
4.68372e-15
1.43117e-05
-5.0303e-14
1.50098e-05
2.40511e-14
1.5708e-05
6.66506e-15
1.64061e-05
-1.42529e-14
1.71042e-05
-1.64308e-15
1.78024e-05
6.82028e-15
1.85005e-05
-1.44332e-14
1.91986e-05
-5.07505e-14
1.98967e-05
2.05949e-05
1.49917e-15
4.53785e-06
-1.08964e-14
5.23599e-06
6.60063e-15
5.93412e-06
-7.26424e-15
6.63225e-06
-6.17399e-15
7.33038e-06
-2.4876e-15
8.02851e-06
9.66598e-16
8.72664e-06
4.36777e-15
9.42478e-06
8.90275e-15
1.01229e-05
-1.38602e-14
1.0821e-05
-1.06875e-14
1.15192e-05
-6.2477e-15
1.22173e-05
1.31864e-16
1.29154e-05
3.44133e-15
1.36136e-05
1.10486e-14
1.43117e-05
1.77676e-14
1.50098e-05
-1.76761e-14
1.5708e-05
-9.95038e-15
1.64061e-05
-3.32341e-15
1.71042e-05
3.29749e-14
1.78024e-05
1.04286e-14
1.85005e-05
-3.00625e-14
1.91986e-05
5.99996e-14
1.98967e-05
2.05949e-05
-6.21496e-15
4.53785e-06
3.8801e-15
5.23599e-06
-1.54208e-14
5.93412e-06
7.06595e-15
6.63225e-06
2.21205e-15
7.33038e-06
-1.42819e-15
8.02851e-06
5.49565e-15
8.72664e-06
-1.32242e-14
9.42478e-06
-6.04307e-15
1.01229e-05
1.74534e-14
1.0821e-05
-2.08839e-14
1.15192e-05
2.14485e-14
1.22173e-05
-1.91304e-14
1.29154e-05
7.31958e-15
1.36136e-05
-3.8479e-14
1.43117e-05
1.29273e-14
1.50098e-05
1.88856e-15
1.5708e-05
-5.71276e-15
1.64061e-05
7.59185e-15
1.71042e-05
-2.76536e-14
1.78024e-05
-1.40901e-14
1.85005e-05
5.31487e-14
1.91986e-05
-3.90761e-14
1.98967e-05
2.05949e-05
8.92558e-15
4.53785e-06
2.28971e-15
5.23599e-06
2.22508e-15
5.93412e-06
-6.61529e-15
6.63225e-06
3.38909e-15
7.33038e-06
3.90849e-15
8.02851e-06
6.42113e-15
8.72664e-06
7.1603e-15
9.42478e-06
-6.80745e-15
1.01229e-05
-6.97964e-15
1.0821e-05
9.06867e-15
1.15192e-05
-6.75577e-15
1.22173e-05
2.88918e-14
1.29154e-05
1.22382e-14
1.36136e-05
-4.79908e-15
1.43117e-05
-2.50192e-14
1.50098e-05
-3.85351e-15
1.5708e-05
-3.60074e-15
1.64061e-05
2.04885e-14
1.71042e-05
2.17675e-14
1.78024e-05
-3.4569e-15
1.85005e-05
-2.90322e-14
1.91986e-05
1.67327e-15
1.98967e-05
2.05949e-05
4.63111e-15
4.53785e-06
-5.79682e-15
5.23599e-06
1.61516e-14
5.93412e-06
5.97597e-15
6.63225e-06
8.55644e-15
7.33038e-06
-4.22271e-15
8.02851e-06
8.18916e-15
8.72664e-06
-6.99711e-15
9.42478e-06
2.42326e-14
1.01229e-05
7.77137e-15
1.0821e-05
2.27691e-14
1.15192e-05
-8.34526e-15
1.22173e-05
7.40602e-15
1.29154e-05
-2.82611e-14
1.36136e-05
4.57156e-14
1.43117e-05
8.22734e-15
1.50098e-05
2.82303e-14
1.5708e-05
2.34563e-15
1.64061e-05
6.95065e-15
1.71042e-05
-2.21417e-14
1.78024e-05
3.41178e-14
1.85005e-05
3.74726e-15
1.91986e-05
3.23526e-14
1.98967e-05
2.05949e-05
-6.71429e-15
4.53785e-06
7.30724e-15
5.23599e-06
-1.10998e-14
5.93412e-06
4.24231e-15
6.63225e-06
-1.51006e-14
7.33038e-06
5.21031e-15
8.02851e-06
-1.70114e-14
8.72664e-06
3.94299e-15
9.42478e-06
2.9702e-16
1.01229e-05
-6.60788e-15
1.0821e-05
-1.37027e-14
1.15192e-05
-1.01807e-14
1.22173e-05
-1.82135e-14
1.29154e-05
-1.43633e-14
1.36136e-05
-2.33374e-14
1.43117e-05
2.53507e-14
1.50098e-05
-2.90677e-14
1.5708e-05
7.83321e-15
1.64061e-05
-3.54105e-14
1.71042e-05
4.52178e-15
1.78024e-05
-4.23615e-14
1.85005e-05
5.9539e-16
1.91986e-05
8.74409e-15
1.98967e-05
2.05949e-05
-5.9854e-15
4.53785e-06
-2.18209e-16
5.23599e-06
6.43671e-15
5.93412e-06
-6.06321e-15
6.63225e-06
2.09398e-15
7.33038e-06
-1.61748e-14
8.02851e-06
1.88328e-14
8.72664e-06
2.35333e-15
9.42478e-06
-9.17042e-15
1.01229e-05
4.71296e-15
1.0821e-05
-2.16244e-14
1.15192e-05
2.96492e-14
1.22173e-05
9.29298e-15
1.29154e-05
1.89116e-14
1.36136e-05
-4.46211e-15
1.43117e-05
-3.01495e-14
1.50098e-05
2.62231e-14
1.5708e-05
-4.28359e-16
1.64061e-05
2.11789e-14
1.71042e-05
-1.8705e-14
1.78024e-05
3.9274e-15
1.85005e-05
2.91667e-14
1.91986e-05
-1.52242e-14
1.98967e-05
2.05949e-05
8.67674e-15
4.53785e-06
-1.22916e-14
5.23599e-06
-1.88215e-15
5.93412e-06
-8.90108e-15
6.63225e-06
5.10969e-15
7.33038e-06
2.19933e-14
8.02851e-06
-1.22627e-14
8.72664e-06
5.37698e-15
9.42478e-06
-4.45355e-15
1.01229e-05
1.43084e-14
1.0821e-05
7.32972e-15
1.15192e-05
-7.03668e-15
1.22173e-05
-2.399e-14
1.29154e-05
7.55952e-15
1.36136e-05
-9.79458e-15
1.43117e-05
1.62425e-14
1.50098e-05
-4.02875e-14
1.5708e-05
-1.44404e-14
1.64061e-05
1.37109e-14
1.71042e-05
7.90359e-15
1.78024e-05
3.92577e-14
1.85005e-05
-4.27431e-14
1.91986e-05
8.86289e-15
1.98967e-05
2.05949e-05
-9.39827e-15
4.53785e-06
-5.19364e-16
5.23599e-06
-7.52748e-15
5.93412e-06
4.41272e-15
6.63225e-06
-3.78226e-15
7.33038e-06
-1.33831e-14
8.02851e-06
2.11154e-15
8.72664e-06
-8.52688e-15
9.42478e-06
1.00299e-14
1.01229e-05
-1.86238e-15
1.0821e-05
2.02052e-14
1.15192e-05
7.01664e-15
1.22173e-05
-7.50711e-15
1.29154e-05
-2.36042e-14
1.36136e-05
2.0475e-15
1.43117e-05
-1.48281e-14
1.50098e-05
1.38876e-14
1.5708e-05
-2.38483e-15
1.64061e-05
-2.0403e-14
1.71042e-05
7.02535e-15
1.78024e-05
-1.20605e-14
1.85005e-05
2.59513e-14
1.91986e-05
-1.84183e-15
1.98967e-05
2.05949e-05
1.13365e-14
4.53785e-06
4.82033e-16
5.23599e-06
5.35793e-15
5.93412e-06
1.1305e-14
6.63225e-06
-4.86805e-15
7.33038e-06
1.11106e-15
8.02851e-06
8.16036e-15
8.72664e-06
-1.30423e-14
9.42478e-06
-5.94674e-15
1.01229e-05
2.00006e-15
1.0821e-05
-2.4383e-14
1.15192e-05
-1.6187e-14
1.22173e-05
3.27907e-14
1.29154e-05
3.05557e-15
1.36136e-05
1.44455e-14
1.43117e-05
2.69076e-14
1.50098e-05
-7.73108e-15
1.5708e-05
4.44423e-15
1.64061e-05
1.80065e-14
1.71042e-05
-2.18097e-14
1.78024e-05
-8.203e-15
1.85005e-05
6.09207e-15
1.91986e-05
-3.89125e-14
1.98967e-05
2.05949e-05
1.37033e-16
9.81747e-07
2.42169e-16
1.37445e-06
3.77161e-16
1.76715e-06
-1.33907e-15
2.15984e-06
-3.68144e-15
2.55254e-06
2.94524e-06
5.95169e-15
1.90377e-18
9.81747e-07
-3.88727e-16
1.37445e-06
-2.60399e-15
1.76715e-06
1.94382e-15
2.15984e-06
8.06633e-15
2.55254e-06
2.94524e-06
-9.02943e-15
-1.16415e-16
9.81747e-07
1.86427e-16
1.37445e-06
-1.56215e-15
1.76715e-06
-4.21228e-15
2.15984e-06
-7.49814e-15
2.55254e-06
2.94524e-06
7.72886e-16
8.701e-17
9.81747e-07
-1.01794e-16
1.37445e-06
2.69334e-15
1.76715e-06
7.44294e-15
2.15984e-06
3.26002e-15
2.55254e-06
2.94524e-06
-2.79743e-15
-4.83065e-17
9.81747e-07
3.96089e-17
1.37445e-06
1.94455e-16
1.76715e-06
-1.80583e-15
2.15984e-06
-4.20831e-15
2.55254e-06
2.94524e-06
5.01359e-15
-1.80047e-16
9.81747e-07
4.38803e-18
1.37445e-06
-1.84762e-15
1.76715e-06
-3.88591e-15
2.15984e-06
3.15724e-15
2.55254e-06
2.94524e-06
4.9849e-16
2.54036e-16
9.81747e-07
2.55549e-16
1.37445e-06
2.06614e-15
1.76715e-06
4.50436e-15
2.15984e-06
-2.30961e-15
2.55254e-06
2.94524e-06
5.4142e-16
2.17279e-17
9.81747e-07
-3.21511e-16
1.37445e-06
-1.14872e-15
1.76715e-06
-5.28538e-15
2.15984e-06
-3.76325e-16
2.55254e-06
2.94524e-06
-5.63943e-15
-1.43353e-16
9.81747e-07
1.66519e-16
1.37445e-06
4.19127e-15
1.76715e-06
6.34966e-15
2.15984e-06
-8.05247e-16
2.55254e-06
2.94524e-06
8.39618e-16
-6.87478e-17
9.81747e-07
-9.19171e-17
1.37445e-06
-2.76922e-15
1.76715e-06
-3.68573e-16
2.15984e-06
-1.45054e-15
2.55254e-06
2.94524e-06
-1.76308e-16
1.66411e-16
9.81747e-07
-8.85926e-17
1.37445e-06
5.69864e-16
1.76715e-06
-2.10333e-15
2.15984e-06
9.66027e-15
2.55254e-06
2.94524e-06
5.29049e-15
-1.77714e-16
9.81747e-07
-2.03822e-17
1.37445e-06
-3.4534e-16
1.76715e-06
-4.1724e-15
2.15984e-06
-2.622e-15
2.55254e-06
2.94524e-06
5.36991e-15
1.77843e-16
9.81747e-07
2.06384e-17
1.37445e-06
3.45595e-16
1.76715e-06
4.17295e-15
2.15984e-06
2.62274e-15
2.55254e-06
2.94524e-06
-5.3691e-15
-1.66257e-16
9.81747e-07
8.87992e-17
1.37445e-06
-5.69466e-16
1.76715e-06
2.10379e-15
2.15984e-06
-9.65962e-15
2.55254e-06
2.94524e-06
-5.28968e-15
6.88663e-17
9.81747e-07
9.2204e-17
1.37445e-06
2.76958e-15
1.76715e-06
3.69095e-16
2.15984e-06
1.45117e-15
2.55254e-06
2.94524e-06
1.77159e-16
1.43447e-16
9.81747e-07
-1.66282e-16
1.37445e-06
-4.19096e-15
1.76715e-06
-6.3491e-15
2.15984e-06
8.05916e-16
2.55254e-06
2.94524e-06
-8.38898e-16
-2.16159e-17
9.81747e-07
3.21768e-16
1.37445e-06
1.14904e-15
1.76715e-06
5.28587e-15
2.15984e-06
3.77063e-16
2.55254e-06
2.94524e-06
5.64023e-15
-2.53921e-16
9.81747e-07
-2.55344e-16
1.37445e-06
-2.06581e-15
1.76715e-06
-4.50387e-15
2.15984e-06
2.31031e-15
2.55254e-06
2.94524e-06
-5.40419e-16
1.80166e-16
9.81747e-07
-4.22275e-18
1.37445e-06
1.84797e-15
1.76715e-06
3.88637e-15
2.15984e-06
-3.15672e-15
2.55254e-06
2.94524e-06
-4.97886e-16
4.84239e-17
9.81747e-07
-3.94268e-17
1.37445e-06
-1.94201e-16
1.76715e-06
1.8064e-15
2.15984e-06
4.20872e-15
2.55254e-06
2.94524e-06
-5.01294e-15
-8.68938e-17
9.81747e-07
1.02018e-16
1.37445e-06
-2.69298e-15
1.76715e-06
-7.44257e-15
2.15984e-06
-3.25945e-15
2.55254e-06
2.94524e-06
2.79842e-15
1.16511e-16
9.81747e-07
-1.86305e-16
1.37445e-06
1.56258e-15
1.76715e-06
4.21274e-15
2.15984e-06
7.49865e-15
2.55254e-06
2.94524e-06
-7.71821e-16
-1.76793e-18
9.81747e-07
3.88887e-16
1.37445e-06
2.60432e-15
1.76715e-06
-1.94338e-15
2.15984e-06
-8.06591e-15
2.55254e-06
2.94524e-06
9.0302e-15
-1.36878e-16
-2.42013e-16
-3.76809e-16
1.33948e-15
3.68185e-15
-5.95094e-15
-1.13353e-14
4.53785e-06
-4.79922e-16
5.23599e-06
-5.3563e-15
5.93412e-06
-1.13023e-14
6.63225e-06
4.86995e-15
7.33038e-06
-1.10755e-15
8.02851e-06
-8.15678e-15
8.72664e-06
1.30479e-14
9.42478e-06
5.95315e-15
1.01229e-05
-1.99344e-15
1.0821e-05
2.43911e-14
1.15192e-05
1.61934e-14
1.22173e-05
-3.27833e-14
1.29154e-05
-3.04652e-15
1.36136e-05
-1.44384e-14
1.43117e-05
-2.68982e-14
1.50098e-05
7.74759e-15
1.5708e-05
-4.4302e-15
1.64061e-05
-1.79919e-14
1.71042e-05
2.18283e-14
1.78024e-05
8.22529e-15
1.85005e-05
-6.07299e-15
1.91986e-05
3.89262e-14
1.98967e-05
2.05949e-05
9.39967e-15
4.53785e-06
5.20873e-16
5.23599e-06
7.52931e-15
5.93412e-06
-4.41037e-15
6.63225e-06
3.78394e-15
7.33038e-06
1.33867e-14
8.02851e-06
-2.10757e-15
8.72664e-06
8.53235e-15
9.42478e-06
-1.00239e-14
1.01229e-05
1.86747e-15
1.0821e-05
-2.0197e-14
1.15192e-05
-7.00908e-15
1.22173e-05
7.51372e-15
1.29154e-05
2.36157e-14
1.36136e-05
-2.03813e-15
1.43117e-05
1.48376e-14
1.50098e-05
-1.3871e-14
1.5708e-05
2.39889e-15
1.64061e-05
2.04194e-14
1.71042e-05
-7.01064e-15
1.78024e-05
1.20786e-14
1.85005e-05
-2.59273e-14
1.91986e-05
1.85539e-15
1.98967e-05
2.05949e-05
-8.67546e-15
4.53785e-06
1.22931e-14
5.23599e-06
1.88435e-15
5.93412e-06
8.90346e-15
6.63225e-06
-5.10732e-15
7.33038e-06
-2.19896e-14
8.02851e-06
1.22664e-14
8.72664e-06
-5.37154e-15
9.42478e-06
4.45922e-15
1.01229e-05
-1.43029e-14
1.0821e-05
-7.32106e-15
1.15192e-05
7.04546e-15
1.22173e-05
2.39989e-14
1.29154e-05
-7.55017e-15
1.36136e-05
9.80481e-15
1.43117e-05
-1.62307e-14
1.50098e-05
4.03011e-14
1.5708e-05
1.44527e-14
1.64061e-05
-1.36959e-14
1.71042e-05
-7.89148e-15
1.78024e-05
-3.92405e-14
1.85005e-05
4.27614e-14
1.91986e-05
-8.83536e-15
1.98967e-05
2.05949e-05
5.98651e-15
4.53785e-06
2.19798e-16
5.23599e-06
-6.43461e-15
5.93412e-06
6.06541e-15
6.63225e-06
-2.09113e-15
7.33038e-06
1.61786e-14
8.02851e-06
-1.88297e-14
8.72664e-06
-2.34827e-15
9.42478e-06
9.17374e-15
1.01229e-05
-4.7089e-15
1.0821e-05
2.16303e-14
1.15192e-05
-2.96418e-14
1.22173e-05
-9.28238e-15
1.29154e-05
-1.89011e-14
1.36136e-05
4.47137e-15
1.43117e-05
3.01628e-14
1.50098e-05
-2.62117e-14
1.5708e-05
4.41171e-16
1.64061e-05
-2.11621e-14
1.71042e-05
1.87229e-14
1.78024e-05
-3.91075e-15
1.85005e-05
-2.91523e-14
1.91986e-05
1.52433e-14
1.98967e-05
2.05949e-05
6.71547e-15
4.53785e-06
-7.30587e-15
5.23599e-06
1.11021e-14
5.93412e-06
-4.2395e-15
6.63225e-06
1.5103e-14
7.33038e-06
-5.20766e-15
8.02851e-06
1.70147e-14
8.72664e-06
-3.93851e-15
9.42478e-06
-2.90629e-16
1.01229e-05
6.61289e-15
1.0821e-05
1.371e-14
1.15192e-05
1.01882e-14
1.22173e-05
1.82228e-14
1.29154e-05
1.43748e-14
1.36136e-05
2.33452e-14
1.43117e-05
-2.53382e-14
1.50098e-05
2.90805e-14
1.5708e-05
-7.82146e-15
1.64061e-05
3.54219e-14
1.71042e-05
-4.50414e-15
1.78024e-05
4.238e-14
1.85005e-05
-5.79202e-16
1.91986e-05
-8.71728e-15
1.98967e-05
2.05949e-05
-4.63003e-15
4.53785e-06
5.79822e-15
5.23599e-06
-1.61492e-14
5.93412e-06
-5.97279e-15
6.63225e-06
-8.55437e-15
7.33038e-06
4.22619e-15
8.02851e-06
-8.18462e-15
8.72664e-06
7.0016e-15
9.42478e-06
-2.42264e-14
1.01229e-05
-7.76592e-15
1.0821e-05
-2.27601e-14
1.15192e-05
8.3542e-15
1.22173e-05
-7.4008e-15
1.29154e-05
2.82713e-14
1.36136e-05
-4.5703e-14
1.43117e-05
-8.21602e-15
1.50098e-05
-2.82215e-14
1.5708e-05
-2.33388e-15
1.64061e-05
-6.93768e-15
1.71042e-05
2.21592e-14
1.78024e-05
-3.41012e-14
1.85005e-05
-3.73201e-15
1.91986e-05
-3.23353e-14
1.98967e-05
2.05949e-05
-8.9246e-15
4.53785e-06
-2.28806e-15
5.23599e-06
-2.22303e-15
5.93412e-06
6.61768e-15
6.63225e-06
-3.38702e-15
7.33038e-06
-3.90571e-15
8.02851e-06
-6.4159e-15
8.72664e-06
-7.15669e-15
9.42478e-06
6.81252e-15
1.01229e-05
6.98688e-15
1.0821e-05
-9.06181e-15
1.15192e-05
6.76233e-15
1.22173e-05
-2.88845e-14
1.29154e-05
-1.22285e-14
1.36136e-05
4.80909e-15
1.43117e-05
2.50319e-14
1.50098e-05
3.8701e-15
1.5708e-05
3.61368e-15
1.64061e-05
-2.04769e-14
1.71042e-05
-2.17534e-14
1.78024e-05
3.47473e-15
1.85005e-05
2.90486e-14
1.91986e-05
-1.65664e-15
1.98967e-05
2.05949e-05
6.2161e-15
4.53785e-06
-3.87828e-15
5.23599e-06
1.54231e-14
5.93412e-06
-7.06377e-15
6.63225e-06
-2.20881e-15
7.33038e-06
1.43096e-15
8.02851e-06
-5.49112e-15
8.72664e-06
1.32282e-14
9.42478e-06
6.04884e-15
1.01229e-05
-1.74484e-14
1.0821e-05
2.08918e-14
1.15192e-05
-2.14418e-14
1.22173e-05
1.91374e-14
1.29154e-05
-7.30977e-15
1.36136e-05
3.84916e-14
1.43117e-05
-1.29175e-14
1.50098e-05
-1.87518e-15
1.5708e-05
5.72386e-15
1.64061e-05
-7.57749e-15
1.71042e-05
2.76663e-14
1.78024e-05
1.41061e-14
1.85005e-05
-5.31311e-14
1.91986e-05
3.90904e-14
1.98967e-05
2.05949e-05
-1.4981e-15
4.53785e-06
1.08981e-14
5.23599e-06
-6.5987e-15
5.93412e-06
7.26745e-15
6.63225e-06
6.1766e-15
7.33038e-06
2.49007e-15
8.02851e-06
-9.63326e-16
8.72664e-06
-4.36319e-15
9.42478e-06
-8.89743e-15
1.01229e-05
1.38649e-14
1.0821e-05
1.06939e-14
1.15192e-05
6.2535e-15
1.22173e-05
-1.22616e-16
1.29154e-05
-3.43331e-15
1.36136e-05
-1.10391e-14
1.43117e-05
-1.77618e-14
1.50098e-05
1.76897e-14
1.5708e-05
9.96028e-15
1.64061e-05
3.33936e-15
1.71042e-05
-3.29576e-14
1.78024e-05
-1.04121e-14
1.85005e-05
3.0078e-14
1.91986e-05
-5.99806e-14
1.98967e-05
2.05949e-05
5.17093e-15
4.53785e-06
-7.45457e-15
5.23599e-06
-7.55671e-16
5.93412e-06
6.84114e-15
6.63225e-06
-9.97238e-15
7.33038e-06
-1.66338e-15
8.02851e-06
9.22116e-15
8.72664e-06
-1.3457e-14
9.42478e-06
2.32229e-14
1.01229e-05
1.04752e-14
1.0821e-05
-1.727e-14
1.15192e-05
-3.02268e-15
1.22173e-05
1.1402e-14
1.29154e-05
-1.98105e-14
1.36136e-05
-4.67262e-15
1.43117e-05
5.03121e-14
1.50098e-05
-2.4037e-14
1.5708e-05
-6.65353e-15
1.64061e-05
1.42676e-14
1.71042e-05
1.66027e-15
1.78024e-05
-6.80042e-15
1.85005e-05
1.44531e-14
1.91986e-05
5.07651e-14
1.98967e-05
2.05949e-05
-6.1966e-15
4.53785e-06
2.92791e-17
5.23599e-06
1.15126e-14
5.93412e-06
-2.06253e-14
6.63225e-06
5.36828e-15
7.33038e-06
1.22284e-15
8.02851e-06
-4.56211e-17
8.72664e-06
1.23947e-14
9.42478e-06
-1.32242e-14
1.01229e-05
-1.88914e-14
1.0821e-05
-4.96083e-15
1.15192e-05
-7.15102e-15
1.22173e-05
-1.48805e-14
1.29154e-05
3.53441e-14
1.36136e-05
4.37916e-18
1.43117e-05
-4.31311e-14
1.50098e-05
1.35658e-14
1.5708e-05
-2.8248e-14
1.64061e-05
2.46155e-15
1.71042e-05
-1.02334e-14
1.78024e-05
2.381e-14
1.85005e-05
1.38881e-14
1.91986e-05
-4.55555e-14
1.98967e-05
2.05949e-05
-1.9061e-15
4.53785e-06
1.13129e-15
5.23599e-06
-2.16608e-14
5.93412e-06
9.62455e-15
6.63225e-06
1.51384e-14
7.33038e-06
-1.40636e-14
8.02851e-06
8.09468e-15
8.72664e-06
-2.69575e-14
9.42478e-06
-1.96317e-15
1.01229e-05
2.97194e-14
1.0821e-05
-1.17404e-14
1.15192e-05
1.98702e-14
1.22173e-05
-2.744e-14
1.29154e-05
-2.0612e-14
1.36136e-05
1.60482e-14
1.43117e-05
-4.60728e-15
1.50098e-05
4.69653e-15
1.5708e-05
4.79734e-14
1.64061e-05
-1.37314e-14
1.71042e-05
3.23787e-14
1.78024e-05
-3.5175e-14
1.85005e-05
-2.4898e-14
1.91986e-05
7.19265e-14
1.98967e-05
2.05949e-05
1.90736e-15
4.53785e-06
-1.13009e-15
5.23599e-06
2.16627e-14
5.93412e-06
-9.62282e-15
6.63225e-06
-1.51362e-14
7.33038e-06
1.40668e-14
8.02851e-06
-8.0909e-15
8.72664e-06
2.69618e-14
9.42478e-06
1.96831e-15
1.01229e-05
-2.97151e-14
1.0821e-05
1.17495e-14
1.15192e-05
-1.98649e-14
1.22173e-05
2.74483e-14
1.29154e-05
2.06204e-14
1.36136e-05
-1.60374e-14
1.43117e-05
4.61681e-15
1.50098e-05
-4.68727e-15
1.5708e-05
-4.79606e-14
1.64061e-05
1.37466e-14
1.71042e-05
-3.23636e-14
1.78024e-05
3.51947e-14
1.85005e-05
2.49132e-14
1.91986e-05
-7.19092e-14
1.98967e-05
2.05949e-05
6.19786e-15
4.53785e-06
-2.79942e-17
5.23599e-06
-1.15107e-14
5.93412e-06
2.06273e-14
6.63225e-06
-5.36577e-15
7.33038e-06
-1.21949e-15
8.02851e-06
4.97403e-17
8.72664e-06
-1.23895e-14
9.42478e-06
1.32292e-14
1.01229e-05
1.88975e-14
1.0821e-05
4.96643e-15
1.15192e-05
7.15754e-15
1.22173e-05
1.48904e-14
1.29154e-05
-3.53358e-14
1.36136e-05
6.42155e-18
1.43117e-05
4.31431e-14
1.50098e-05
-1.35551e-14
1.5708e-05
2.82633e-14
1.64061e-05
-2.44711e-15
1.71042e-05
1.02469e-14
1.78024e-05
-2.37959e-14
1.85005e-05
-1.38629e-14
1.91986e-05
4.55695e-14
1.98967e-05
2.05949e-05
-5.16967e-15
4.53785e-06
7.45631e-15
5.23599e-06
7.57748e-16
5.93412e-06
-6.83806e-15
6.63225e-06
9.97568e-15
7.33038e-06
1.66627e-15
8.02851e-06
-9.21729e-15
8.72664e-06
1.34618e-14
9.42478e-06
-2.32193e-14
1.01229e-05
-1.0469e-14
1.0821e-05
1.72749e-14
1.15192e-05
3.03099e-15
1.22173e-05
-1.13929e-14
1.29154e-05
1.98222e-14
1.36136e-05
4.68372e-15
1.43117e-05
-5.0303e-14
1.50098e-05
2.40511e-14
1.5708e-05
6.66506e-15