/*--------------------------------*- C++ -*----------------------------------*\
  =========                 |
  \\      /  F ield         | OpenFOAM: The Open Source CFD Toolbox
   \\    /   O peration     | Website:  https://openfoam.org
    \\  /    A nd           | Version:  11
     \\/     M anipulation  |
\*---------------------------------------------------------------------------*/
FoamFile
{
    format      ascii;
    class       volScalarField;
    location    "1.68";
    object      nut;
}
// * * * * * * * * * * * * * * * * * * * * * * * * * * * * * * * * * * * * * //

dimensions      [0 2 -1 0 0 0 0];

internalField   nonuniform List<scalar> 
2880
(
1.16518e-06
9.26101e-06
4.16516e-05
0.000106746
0.000195583
5.22457e-05
3.26082e-05
6.65246e-05
0.000165217
0.000291494
0.000400403
0.00040389
4.71895e-05
0.000146828
0.000290931
0.000451877
0.000590898
0.000663707
5.09632e-05
0.000219928
0.000390745
0.000561944
0.000696567
0.000781272
5.39825e-05
0.000279598
0.00046383
0.000628992
0.000744246
0.000802817
5.64787e-05
0.000325012
0.000513573
0.000663273
0.000754335
0.000785661
5.83632e-05
0.000356903
0.000544275
0.000674627
0.000742586
0.000759444
5.97142e-05
0.000377028
0.000560162
0.000672075
0.000720885
0.000733284
6.05994e-05
0.00038751
0.00056484
0.000661007
0.000696773
0.00070971
6.10703e-05
0.00039019
0.00056117
0.000644055
0.000672448
0.000689123
6.11607e-05
0.000386221
0.000551196
0.000623566
0.000647841
0.000670952
6.08971e-05
0.000376546
0.00053636
0.000600934
0.000623629
0.000654054
6.03345e-05
0.000361555
0.000517719
0.000576731
0.000599408
0.000637161
5.95412e-05
0.000341529
0.000496011
0.000550947
0.000574554
0.000619674
5.84898e-05
0.000317213
0.000471812
0.000523179
0.000548435
0.000599845
5.71561e-05
0.000289594
0.00044516
0.000492801
0.000520458
0.000577099
5.55082e-05
0.00025961
0.000415932
0.000458928
0.000489968
0.000549225
5.34844e-05
0.00022837
0.000383868
0.000421274
0.000454414
0.00051534
5.09455e-05
0.0001975
0.000348216
0.00038116
0.000410012
0.000474135
4.74313e-05
0.000169845
0.000307721
0.000339112
0.000357184
0.000423083
0.000184333
0.000152652
0.000258264
0.000290523
0.000290538
0.000360743
0.000169304
0.000116755
0.00019451
0.000227999
0.000215935
0.000270981
3.01913e-05
5.36285e-05
0.000101348
0.000139286
0.000140125
0.00014025
9.63703e-07
2.88624e-06
8.52529e-06
2.13485e-05
5.39856e-05
4.8149e-05
0.000294322
0.000607266
0.000752754
0.000815615
0.000859892
0.000907458
0.000963871
0.0010318
0.00111478
0.00121699
0.00134211
0.00149269
0.0016702
0.00187559
0.00210983
0.00237429
0.00267016
0.00299658
0.00334717
0.00368154
0.00399485
0.00428406
0.00452413
0.00464853
0.000605011
0.000769971
0.000807834
0.000840397
0.000885869
0.000944155
0.00101468
0.00110009
0.00120493
0.00133372
0.00148974
0.00167437
0.00188702
0.00212553
0.00238711
0.00266952
0.00297146
0.00329107
0.00362206
0.00393341
0.00421358
0.00447076
0.00467344
0.00478035
0.000770946
0.00080026
0.000818516
0.000859223
0.000917736
0.000989455
0.00107546
0.00118063
0.00131049
0.00146898
0.0016574
0.00187423
0.00211577
0.00237722
0.00265381
0.00294171
0.00323812
0.00354
0.00384114
0.00412367
0.00436371
0.00457958
0.0047491
0.00484113
0.000812354
0.000808627
0.000833772
0.000886936
0.000957486
0.0010423
0.00114531
0.00127299
0.00143047
0.0016197
0.00183914
0.00208454
0.00234979
0.00262786
0.00291176
0.00319555
0.00347487
0.00374645
0.00400622
0.00424662
0.00444678
0.00460996
0.00474813
0.0048264
0.000809146
0.000811218
0.000851927
0.000919005
0.00100183
0.00110098
0.00122337
0.00137613
0.00156281
0.00178257
0.00203089
0.00230081
0.00258388
0.002871
0.00315339
0.00342358
0.00367625
0.00390837
0.00411818
0.00430319
0.00445864
0.00457111
0.00466471
0.00473371
0.000795057
0.000816517
0.000875722
0.000955982
0.00105074
0.00116543
0.00130941
0.00148914
0.00170546
0.0019541
0.00222758
0.00251667
0.00281123
0.00310079
0.00337527
0.00362599
0.00384664
0.00403395
0.00418763
0.00430956
0.00440253
0.00446902
0.00451039
0.0045528
0.000780828
0.000827471
0.000904167
0.000996033
0.00110279
0.00123463
0.00140219
0.00160996
0.00185509
0.00212983
0.00242422
0.00272745
0.00302829
0.00331542
0.00357801
0.0038065
0.00399366
0.00413531
0.00423099
0.00428463
0.00430528
0.00430494
0.00428658
0.00425246
0.000772957
0.000844284
0.00093607
0.00103823
0.00115743
0.00130796
0.00150052
0.00173641
0.00200857
0.002306
0.00261692
0.00292963
0.00323242
0.00351371
0.00376242
0.00396875
0.00412494
0.00422583
0.0042693
0.00425727
0.00419729
0.00409783
0.00390907
0.00338839
0.000772373
0.000865983
0.00097022
0.00108164
0.00121382
0.00138426
0.00160255
0.00186587
0.00216259
0.00247901
0.00280227
0.00312041
0.0034218
0.00369503
0.00392932
0.0041153
0.0042456
0.00431509
0.00432068
0.00426086
0.00413556
0.00394741
0.00370003
0.00336433
0.000777717
0.000891143
0.00100553
0.00112548
0.00127108
0.00146211
0.00170625
0.00199578
0.00231428
0.00264599
0.00297773
0.00329785
0.00359516
0.00385872
0.00407842
0.0042458
0.0043547
0.00440142
0.0043845
0.00430412
0.00416164
0.00396015
0.00370681
0.00342207
0.000787532
0.000918526
0.00104109
0.00116894
0.00132806
0.00153977
0.00180947
0.0021238
0.0024612
0.00280465
0.0031414
0.00346053
0.00375147
0.00400389
0.00420844
0.00435774
0.00444704
0.00447442
0.00444047
0.00434754
0.0041991
0.00399991
0.00375706
0.00348092
0.000800629
0.000947143
0.00107613
0.00121119
0.00138333
0.00161544
0.00191007
0.00224802
0.00260149
0.00295339
0.00329206
0.00360757
0.00389008
0.00412984
0.0043182
0.00444878
0.00451824
0.00452644
0.00447592
0.004371
0.00421675
0.00401888
0.00378446
0.00351832
0.000816105
0.000975685
0.00110978
0.00125109
0.00143596
0.00168849
0.00200706
0.00236717
0.00273385
0.00309119
0.00342905
0.00373867
0.00401088
0.00423642
0.00440723
0.00451782
0.0045662
0.00455394
0.00448549
0.00436705
0.00420533
0.00400729
0.00378089
0.00352999
0.00083245
0.00100301
0.00114147
0.00128838
0.00148575
0.00175847
0.00209979
0.00248026
0.00285747
0.00321755
0.00355224
0.003854
0.00411424
0.00432405
0.00447584
0.00456502
0.004591
0.00455723
0.00447029
0.00433846
0.00417017
0.00397361
0.00375759
0.00352642
0.000847832
0.00103037
0.00117067
0.00132291
0.00153253
0.00182508
0.00218777
0.00258663
0.00297193
0.00333243
0.00366196
0.00395416
0.00420096
0.00439364
0.00452498
0.00459133
0.0045937
0.0045377
0.00443234
0.00428813
0.00411525
0.00392299
0.00372074
0.00351348
0.000860214
0.00105816
0.00119507
0.00135494
0.00157644
0.00188836
0.0022709
0.00268586
0.00307722
0.00343617
0.00375885
0.00404009
0.00427217
0.00444646
0.00455606
0.00459836
0.00457626
0.00449792
0.00437506
0.00422057
0.00404618
0.00386181
0.00367671
0.00349588
0.000869778
0.00108171
0.00122293
0.00138462
0.00161797
0.0019487
0.00234953
0.00277771
0.00317366
0.00352942
0.00384382
0.00411294
0.00432928
0.00448412
0.00457091
0.00458829
0.00454141
0.00444142
0.00430301
0.00414133
0.00396919
0.00379634
0.00363089
0.00347692
0.000875849
0.00110609
0.0012515
0.00140708
0.00165786
0.00200687
0.00242409
0.00286284
0.00326196
0.00361302
0.00391798
0.00417406
0.00437385
0.00450845
0.00457171
0.00456374
0.00449244
0.00437233
0.00422119
0.00405607
0.00389
0.00373165
0.00358703
0.00345863
0.000877259
0.00112944
0.00127283
0.00142778
0.00169627
0.00206375
0.00249527
0.00294219
0.00334292
0.00368792
0.00398247
0.00422486
0.00440758
0.00452148
0.00456085
0.00452766
0.00443298
0.00429503
0.00413458
0.00396988
0.00381327
0.00367131
0.00354735
0.00344208
0.000872533
0.00115414
0.00129655
0.00145692
0.00173176
0.00211931
0.00256409
0.00301674
0.00341741
0.00375512
0.00403852
0.0042668
0.00443222
0.00452529
0.00454089
0.00448314
0.00436675
0.00421381
0.00404769
0.00388696
0.00374227
0.00361743
0.00351292
0.00342774
0.000860018
0.00118172
0.00132687
0.00148888
0.00176723
0.00217166
0.00263146
0.00308756
0.0034863
0.00381557
0.00408726
0.00430128
0.00444949
0.00452201
0.00451441
0.00443333
0.0042974
0.00413258
0.00396423
0.00381031
0.00367893
0.00357089
0.00348396
0.00341572
0.000844483
0.00121381
0.00136767
0.00152337
0.0018074
0.00222465
0.00269507
0.00315558
0.00355034
0.00387014
0.00412978
0.00432964
0.00446105
0.00451369
0.00448396
0.00438122
0.00422823
0.00405463
0.003887
0.00374177
0.00362405
0.00353169
0.00346018
0.00340597
0.000833096
0.00126678
0.00140499
0.00156182
0.00185431
0.00228091
0.00275788
0.00322042
0.00361011
0.00391957
0.00416702
0.00435308
0.00446843
0.00450229
0.00445191
0.00432954
0.00416212
0.00398252
0.00381783
0.00368223
0.00357762
0.00349924
0.00344099
0.00339823
0.00087552
0.0013336
0.00144299
0.00160853
0.00190951
0.00234198
0.00282105
0.00328164
0.00366612
0.00396439
0.00419979
0.0043727
0.00447307
0.00448963
0.00442047
0.00428074
0.00410138
0.00391808
0.00375771
0.0036318
0.00353914
0.00347279
0.00342561
0.0033921
1.326e-06
1.21989e-05
4.80961e-05
0.000115108
0.00019196
5.1113e-05
3.75204e-05
7.69004e-05
0.000161055
0.00028663
0.000410998
0.000427991
5.2903e-05
0.000170622
0.000301138
0.000473502
0.000648929
0.000778123
5.8937e-05
0.000260997
0.000435232
0.00064586
0.000862398
0.00104455
6.35316e-05
0.000341897
0.000557181
0.00079757
0.0010404
0.0012402
6.71031e-05
0.000410466
0.000664698
0.000930282
0.00118218
0.00138577
6.98892e-05
0.000466406
0.000757396
0.00104308
0.00129464
0.00149535
7.20383e-05
0.000510418
0.000835204
0.00113605
0.00138426
0.00157922
7.36459e-05
0.000543364
0.000898347
0.00121045
0.00145571
0.00164412
7.47729e-05
0.00056604
0.000947221
0.00126786
0.00151219
0.00169435
7.5457e-05
0.000579004
0.000982258
0.00130975
0.0015558
0.00173368
7.57289e-05
0.00058226
0.00100381
0.00133741
0.00158845
0.00176443
7.56997e-05
0.000575542
0.00101211
0.00135205
0.00160923
0.00178561
7.53814e-05
0.000559296
0.00100727
0.00135405
0.00161694
0.00179813
7.47269e-05
0.000535242
0.00098934
0.00134188
0.00161094
0.00180097
7.36767e-05
0.000504582
0.000958283
0.0013144
0.00158984
0.00179149
7.21609e-05
0.000468271
0.000913755
0.0012693
0.00155068
0.001766
7.00919e-05
0.000427602
0.000854805
0.00120308
0.00148839
0.00171783
6.7351e-05
0.000382599
0.000779193
0.00111095
0.00139711
0.00163638
6.37738e-05
0.000331911
0.000682895
0.0009865
0.00126597
0.00150542
5.91341e-05
0.000272819
0.000559216
0.000821753
0.00108279
0.00129822
5.31043e-05
0.000198355
0.000400849
0.000607794
0.00083063
0.000973344
3.84167e-05
0.000101031
0.000209603
0.000343876
0.000506459
0.00051447
1.25658e-06
9.13464e-06
3.49759e-05
8.66151e-05
0.00018784
5.77359e-05
0.000947813
0.00139025
0.00150163
0.00167344
0.00197683
0.00240861
0.00288453
0.00333966
0.00371669
0.00400479
0.00422874
0.0043895
0.00447631
0.00447741
0.00439167
0.00423696
0.0040479
0.00386251
0.00370701
0.00359017
0.00350795
0.00345165
0.0034134
0.00338724
0.00119234
0.00152036
0.00160507
0.00176092
0.00205473
0.00247861
0.00294642
0.00339302
0.00376027
0.00404115
0.00425442
0.00440439
0.00447942
0.00446727
0.00436745
0.00420016
0.0040033
0.00381673
0.00366584
0.00355683
0.00348328
0.00343512
0.00340389
0.00338354
0.00136608
0.00163268
0.00170924
0.00185209
0.0021347
0.00254761
0.00300552
0.00344283
0.00379815
0.00406973
0.00427706
0.00441813
0.00448354
0.0044607
0.00434954
0.0041721
0.00396892
0.00378139
0.00363415
0.00353126
0.00346443
0.00342256
0.00339675
0.00338088
0.00149031
0.00172349
0.00179896
0.00193633
0.00220989
0.00261132
0.00306114
0.00348921
0.00383267
0.00409575
0.00429535
0.00443084
0.00448964
0.00445897
0.00433942
0.00415421
0.00394582
0.00375698
0.00361186
0.00351302
0.00345082
0.00341343
0.00339156
0.00337904
0.00158507
0.00179383
0.00187375
0.0020093
0.00227644
0.00267099
0.00311553
0.0035372
0.00386934
0.00412242
0.00431409
0.00444356
0.00449769
0.00446305
0.00433829
0.00414766
0.0039348
0.00374382
0.00359891
0.00350183
0.00344208
0.00340738
0.00338796
0.00337783
0.00166177
0.00184538
0.00193438
0.00206994
0.00233313
0.00272587
0.00316714
0.00358551
0.00391039
0.00415774
0.00434382
0.00446694
0.00451483
0.00447472
0.00434654
0.00415258
0.00393635
0.00374222
0.00359537
0.00349769
0.00343788
0.0034038
0.00338605
0.00337716
0.00172414
0.00188523
0.00198326
0.00211886
0.00238415
0.00277437
0.00321143
0.00362392
0.00394049
0.00418374
0.00436707
0.00448859
0.00453616
0.00449632
0.00436746
0.00417132
0.00395129
0.00375252
0.00360126
0.00350026
0.00343803
0.00340335
0.00338554
0.00337695
0.00177502
0.00191649
0.00202101
0.00216165
0.00242598
0.00280854
0.00323883
0.00364697
0.00395866
0.00420004
0.00438293
0.00450531
0.00455541
0.00451963
0.00439506
0.00420116
0.00397937
0.00377537
0.00361756
0.00351068
0.00344417
0.00340628
0.00338668
0.00337716
0.00181684
0.00194112
0.00205191
0.00219265
0.00245108
0.00282639
0.00325225
0.0036582
0.00397
0.00421291
0.00439797
0.00452354
0.00457851
0.00454948
0.00443215
0.00424307
0.00402091
0.00381114
0.00364464
0.00352911
0.00345638
0.00341277
0.00338954
0.00337784
0.00185066
0.00195997
0.00207357
0.00221238
0.00246406
0.00283213
0.00325439
0.0036599
0.00397476
0.00422176
0.00441134
0.00454232
0.00460449
0.0045848
0.00447768
0.00429634
0.00407577
0.00386039
0.00368355
0.00355671
0.00347415
0.00342388
0.00339457
0.00337921
0.00187944
0.00197411
0.00208761
0.0022224
0.0024657
0.00282561
0.00324442
0.0036517
0.0039723
0.00422593
0.00442237
0.00456095
0.00463249
0.00462452
0.00453039
0.00435984
0.00414344
0.00392346
0.00373532
0.00359479
0.00349956
0.00343907
0.0034025
0.00338146
0.00190222
0.0019845
0.00209424
0.00222312
0.00245627
0.0028068
0.00322194
0.00363288
0.00396176
0.00422456
0.0044302
0.00457854
0.00466149
0.00466739
0.00458877
0.00443205
0.00422288
0.00400029
0.00380084
0.00364471
0.00353392
0.0034602
0.0034134
0.00338485
0.00192029
0.00199264
0.00209243
0.00221486
0.00243627
0.00277599
0.00318678
0.00360235
0.00394211
0.00421661
0.00443379
0.00459401
0.00469031
0.00471195
0.00465104
0.004511
0.00431245
0.00409017
0.00388056
0.00370776
0.00357874
0.00348855
0.00342845
0.00338979
0.00193357
0.0019987
0.00208391
0.00219878
0.00240666
0.00273378
0.00313929
0.00355872
0.00391224
0.0042009
0.00443192
0.00460609
0.00471756
0.0047566
0.00471521
0.00459438
0.00440988
0.00419158
0.00397424
0.00378488
0.00363557
0.00352563
0.00344872
0.00339671
0.00194124
0.00200214
0.00207108
0.00217641
0.0023687
0.00268098
0.00307952
0.00350218
0.00387126
0.00417618
0.00442317
0.00461331
0.00474166
0.00479957
0.00477918
0.00467961
0.00451236
0.0043021
0.00408061
0.00387626
0.00370564
0.00357298
0.0034753
0.00340605
0.00194154
0.00200218
0.00205522
0.00214911
0.00232383
0.00261878
0.00300806
0.0034327
0.00381826
0.00414111
0.00440602
0.004614
0.00476089
0.00483897
0.00484073
0.004764
0.0046167
0.00441851
0.00419726
0.00398093
0.0037894
0.00363177
0.00350932
0.00341824
0.0019314
0.00199734
0.00203675
0.00211785
0.00227351
0.00254862
0.00292587
0.00335048
0.00375248
0.00409438
0.00437883
0.0046064
0.00477337
0.00487282
0.00489767
0.00484491
0.00471963
0.00453706
0.00432067
0.00409651
0.00388606
0.00370249
0.00355169
0.00343375
0.00190719
0.00198492
0.00201511
0.00208304
0.00221905
0.00247217
0.00283434
0.00325616
0.00367334
0.00403473
0.00433997
0.00458865
0.00477716
0.00489912
0.00494785
0.0049198
0.00481795
0.0046538
0.00444653
0.00421923
0.00399325
0.0037844
0.00360277
0.00345292
0.00186306
0.00195986
0.00198838
0.00204439
0.00216146
0.00239123
0.00273526
0.00315088
0.00358046
0.00396102
0.00428787
0.00455894
0.00477029
0.00491583
0.00498914
0.0049863
0.00490871
0.00476487
0.00457014
0.00434421
0.00410694
0.00387512
0.00366182
0.00347573
0.00178908
0.00191394
0.00195323
0.00200079
0.00210131
0.00230754
0.00263086
0.00303676
0.00347297
0.00387229
0.00422116
0.00451554
0.00475084
0.00492094
0.00501948
0.00504219
0.00498925
0.00486679
0.00468692
0.00446605
0.00422179
0.00397047
0.00372657
0.00350152
0.00166435
0.00183902
0.00190539
0.00195057
0.00203865
0.00222258
0.00252335
0.00291593
0.00335232
0.00376859
0.00413901
0.00445706
0.00471707
0.00491252
0.00503687
0.0050854
0.00505723
0.00495657
0.00479288
0.00457959
0.00433189
0.00406481
0.0037929
0.00352853
0.00145114
0.00172471
0.00184023
0.00189228
0.00197313
0.00213746
0.00241482
0.00279049
0.00322205
0.00365117
0.00404133
0.00438257
0.00466751
0.00488882
0.00503942
0.00511401
0.00511064
0.00503186
0.00488486
0.00468052
0.00443171
0.00415193
0.00385513
0.00355359
0.00106977
0.00154158
0.00174767
0.00182183
0.00190332
0.0020526
0.00230717
0.00266306
0.00308512
0.00352179
0.00392866
0.00429167
0.0046011
0.00484835
0.00502548
0.00512633
0.0051478
0.00509086
0.00496066
0.00476578
0.00451694
0.00422615
0.00390681
0.00357196
0.000498239
0.00118484
0.00159973
0.00173019
0.00182606
0.00196762
0.00220189
0.00253629
0.00294454
0.00338271
0.00380219
0.00418454
0.00451727
0.00479004
0.00499369
0.00512093
0.00516737
0.00513232
0.00501894
0.00483363
0.00458496
0.00428339
0.00394202
0.00357769
2.16383e-06
6.11822e-06
1.21442e-05
1.94209e-05
2.81942e-05
7.43864e-05
5.11724e-05
6.53904e-05
8.70011e-05
0.000111124
0.000120775
0.000165633
5.85389e-05
0.000101931
0.000150731
0.000191689
0.000203675
0.000236855
6.28484e-05
0.000126949
0.000207989
0.000258891
0.00027458
0.000300012
6.57675e-05
0.000156587
0.000262358
0.000319971
0.000338753
0.000358713
6.79848e-05
0.00018952
0.00031568
0.000377002
0.000398528
0.00041641
6.97955e-05
0.000224333
0.000366622
0.000430119
0.000454048
0.000468391
7.13214e-05
0.00025977
0.000413637
0.000479353
0.000504959
0.00051395
7.26218e-05
0.000294486
0.000455658
0.000524949
0.000550835
0.00055466
7.37327e-05
0.00032659
0.00049198
0.000566161
0.000592564
0.000591409
7.46813e-05
0.000353953
0.000522223
0.000602841
0.000631206
0.000626145
7.54922e-05
0.000374441
0.000546222
0.000634946
0.000667996
0.000662671
7.61564e-05
0.000386405
0.000563848
0.000662086
0.000703316
0.000703862
7.63962e-05
0.00039233
0.000575205
0.000684069
0.000737166
0.000749924
7.62999e-05
0.00039233
0.000579634
0.000700221
0.000768426
0.000798924
7.57319e-05
0.000385753
0.00057589
0.000708915
0.000794489
0.000847571
7.46604e-05
0.000370801
0.000562267
0.000707695
0.000811275
0.000888987
7.30151e-05
0.000348025
0.000535596
0.00069338
0.000813662
0.000915863
7.06451e-05
0.000314837
0.000496216
0.00066024
0.000794893
0.000920145
6.74168e-05
0.000270118
0.000440577
0.000607147
0.00074728
0.000890578
6.32136e-05
0.000212654
0.000366425
0.000526674
0.000661139
0.000813003
5.73377e-05
0.000143352
0.000272364
0.000413636
0.000523202
0.000657543
4.53443e-05
6.84308e-05
0.00015897
0.00026677
0.000344156
0.0003666
2.03559e-06
1.64678e-05
5.61697e-05
0.000109054
0.000168453
4.89296e-05
0.000403468
0.000979751
0.0014397
0.00162846
0.00174341
0.00188324
0.00210036
0.00241256
0.00280326
0.00323657
0.00366365
0.00406199
0.00441603
0.00471331
0.00494313
0.0050968
0.00516841
0.00515551
0.0050592
0.0048836
0.00463497
0.0043218
0.00395668
0.00356448
0.000371518
0.000877513
0.00131463
0.00153739
0.00166372
0.00180114
0.00200369
0.00229368
0.00266381
0.00308611
0.00351524
0.0039254
0.00429798
0.00461818
0.00487347
0.00505348
0.00515058
0.00516039
0.00508179
0.00491643
0.00466792
0.00434201
0.0039496
0.00352701
0.000354865
0.00080467
0.00119764
0.00145857
0.00158994
0.00172299
0.00191179
0.00218035
0.00252788
0.00293377
0.0033593
0.00377656
0.0041643
0.00450533
0.00478509
0.00499133
0.00511446
0.00514797
0.00508833
0.00493444
0.00468679
0.00434738
0.00392318
0.00346233
0.000355196
0.000769857
0.00110173
0.00138028
0.00152094
0.00165073
0.00182457
0.00207186
0.00239604
0.0027817
0.00319819
0.00361755
0.00401662
0.00437605
0.00467919
0.00491175
0.00506202
0.00512111
0.0050828
0.00494291
0.00469819
0.00434557
0.00388484
0.00337138
0.000370855
0.000741983
0.00102394
0.00131198
0.00145748
0.00158422
0.00174391
0.00196881
0.00226796
0.00263097
0.00303383
0.00345038
0.00385676
0.00423199
0.00455754
0.00481714
0.0049969
0.00508544
0.00507361
0.00495366
0.00471773
0.00435576
0.00385528
0.00326481
0.000395091
0.000720041
0.00095931
0.00125331
0.00139938
0.00152292
0.0016696
0.00187237
0.00214503
0.00248293
0.00286796
0.00327688
0.00368636
0.00407463
0.00442185
0.00471017
0.00492393
0.00504964
0.00507567
0.00499105
0.00478357
0.00443666
0.00392354
0.00323082
0.000425668
0.000703935
0.000911403
0.00119811
0.00134876
0.00146671
0.00160115
0.00178268
0.00202833
0.00233892
0.00270213
0.00309858
0.00350657
0.00390465
0.00427259
0.00459193
0.00484644
0.00502236
0.00510822
0.00509462
0.00497628
0.00476422
0.00451865
0.00435658
0.000460564
0.000693796
0.000874536
0.00114029
0.00129797
0.00141358
0.00153768
0.00169945
0.00191833
0.00219999
0.00253775
0.00291674
0.00331806
0.00372172
0.00410833
0.00446021
0.00476244
0.0050036
0.00517629
0.00527734
0.00530929
0.00528596
0.00524011
0.00521384
0.000496308
0.000689563
0.000844807
0.0010861
0.00125049
0.00136333
0.00147847
0.00162225
0.00181523
0.00206698
0.00237611
0.00273266
0.00312147
0.00352522
0.00392658
0.00430986
0.00466231
0.00497484
0.00524198
0.00546099
0.00563089
0.00575324
0.00583418
0.00588143
0.00053334
0.000691469
0.000821017
0.00103722
0.00120631
0.0013157
0.00142279
0.00155053
0.00171899
0.00194063
0.00221862
0.00254799
0.00291807
0.00331523
0.00372535
0.00413561
0.00453547
0.00491657
0.00527135
0.00559118
0.00586553
0.00608397
0.0062329
0.00632734
0.000574319
0.000700207
0.000802688
0.000994758
0.00116517
0.00127057
0.00137018
0.00148373
0.00162947
0.00182154
0.00206677
0.00236486
0.00270994
0.00309286
0.0035036
0.00393278
0.00437199
0.00481229
0.0052417
0.00564342
0.00599725
0.00627622
0.00648027
0.00659788
0.000621235
0.000719871
0.000792022
0.000961041
0.00112458
0.00122716
0.0013202
0.00142124
0.00154641
0.00171025
0.00192215
0.00218581
0.00250005
0.00286053
0.00326184
0.00369853
0.00416444
0.00464992
0.0051384
0.00560557
0.00601794
0.00634956
0.00659386
0.00673004
0.000673146
0.00074342
0.000798442
0.00093733
0.001082
0.00118434
0.00127224
0.00136249
0.00146948
0.0016071
0.00178624
0.00201361
0.00229213
0.00262213
0.00300287
0.00343319
0.00390979
0.00442328
0.00495394
0.00547153
0.00592821
0.00630762
0.00658486
0.00674002
0.000736543
0.000773095
0.000810142
0.000925717
0.00104739
0.00114424
0.00122659
0.00130721
0.00139831
0.00151227
0.0016603
0.00185102
0.00209045
0.00238288
0.00273198
0.00314093
0.00361014
0.00413221
0.00468675
0.00523987
0.00573217
0.00615254
0.00645871
0.00663518
0.000807249
0.000823888
0.000837051
0.000924134
0.0010247
0.00110994
0.00118463
0.00125589
0.00133282
0.00142581
0.00154527
0.00170048
0.00189936
0.00214907
0.00245678
0.00282976
0.00327278
0.00378246
0.00434082
0.00491338
0.00543323
0.00588717
0.00622115
0.0064198
0.000879335
0.000890404
0.000887506
0.000935978
0.00101145
0.00108328
0.00114807
0.00120938
0.0012733
0.0013478
0.00144173
0.00156392
0.0017229
0.00192731
0.00218659
0.00251113
0.00291011
0.00338576
0.00392573
0.00449874
0.00503667
0.00551524
0.00587854
0.00609607
0.000948405
0.000965755
0.000955544
0.000974402
0.00101788
0.00106939
0.0011201
0.00116957
0.00122063
0.00127856
0.00135007
0.00144266
0.00156434
0.00172384
0.00193133
0.00219884
0.00253892
0.00295988
0.00345751
0.00400782
0.00455076
0.00504093
0.00543204
0.00566771
0.00100589
0.00103939
0.00103239
0.00103141
0.00104649
0.00107306
0.0011051
0.00113971
0.00117688
0.00121916
0.00127088
0.00133762
0.00142598
0.00154366
0.00170013
0.00190722
0.00217893
0.00252828
0.00296005
0.00346139
0.003994
0.00448467
0.00490192
0.00515492
0.00104237
0.00109657
0.00110328
0.00109571
0.00109108
0.00109491
0.00110646
0.00112365
0.00114526
0.00117181
0.00120546
0.00124971
0.00130927
0.00139012
0.00149994
0.00164886
0.00184993
0.00211803
0.00246515
0.0028917
0.00337717
0.00385605
0.00427445
0.00455071
0.0010486
0.00112582
0.00115301
0.00115121
0.00113901
0.00112809
0.00112242
0.0011226
0.00112813
0.00113887
0.00115557
0.00118002
0.00121511
0.00126486
0.00133476
0.00143235
0.00156794
0.00175493
0.00200804
0.00233787
0.0027388
0.00318185
0.00358412
0.00387481
0.00101795
0.00112083
0.00117009
0.00118419
0.00117506
0.00115996
0.00114468
0.00113228
0.00112402
0.00112033
0.00112166
0.00112886
0.00114345
0.00116779
0.00120534
0.001261
0.00134176
0.00145739
0.00162052
0.00184446
0.0021403
0.0024946
0.00287301
0.0031537
0.000938818
0.00108037
0.00115227
0.00118518
0.00118736
0.00117773
0.00116192
0.00114422
0.0011273
0.00111277
0.00110159
0.00109453
0.00109249
0.00109676
0.00110926
0.00113283
0.00117161
0.00123152
0.00132091
0.0014501
0.00163078
0.00187405
0.00216467
0.00243967
0.000802674
0.00101189
0.00110241
0.00115221
0.00117372
0.00117414
0.00116458
0.00114934
0.00113056
0.00111076
0.00109162
0.00107431
0.00105978
0.00104892
0.00104285
0.00104308
0.00105181
0.00107215
0.00110859
0.00116717
0.00125432
0.00138094
0.00155463
0.00177306
0.000625652
0.000925342
0.00103502
0.00109405
0.00113203
0.00115131
0.00115218
0.00114285
0.0011281
0.00110911
0.00108783
0.00106574
0.00104396
0.00102343
0.00100498
0.000989516
0.000978172
0.000972445
0.000974328
0.000986669
0.00101235
0.0010552
0.00111693
0.00123615
6.59823e-07
2.86874e-06
9.65318e-06
2.3142e-05
4.82332e-05
0.00010993
2.56044e-05
5.49836e-05
0.000101575
0.000159152
0.000237586
0.000343053
0.000150854
0.000133205
0.000220097
0.000318956
0.000433256
0.000559667
0.000168939
0.000204265
0.000326279
0.000456029
0.000592273
0.000729667
0.000183314
0.00026226
0.000414544
0.000566084
0.000714823
0.00085585
0.000193705
0.000306337
0.000485364
0.000651975
0.000806577
0.00094661
0.000199602
0.000336881
0.000540491
0.000717384
0.000874251
0.00101057
4.72906e-05
0.000354025
0.000581882
0.000764997
0.000921029
0.00105259
4.75123e-05
0.00036796
0.000611558
0.000797278
0.000949664
0.00107458
4.77543e-05
0.000378045
0.000631044
0.0008162
0.000962561
0.00107908
4.80289e-05
0.000384155
0.000641461
0.000823337
0.000961671
0.00106817
4.82211e-05
0.000386229
0.000643639
0.000819976
0.000948638
0.00104372
4.82645e-05
0.00038428
0.000638199
0.000807187
0.000924922
0.00100747
4.81298e-05
0.000378326
0.00062565
0.000785873
0.000891839
0.000961037
4.78321e-05
0.000368275
0.0006062
0.000756759
0.000850556
0.000905831
4.75023e-05
0.000354091
0.000580017
0.00072036
0.000802102
0.000843033
0.000201129
0.000338249
0.000546972
0.000676879
0.000747261
0.000773604
4.70681e-05
0.000317707
0.000506324
0.000626019
0.000686542
0.000698446
0.000196346
0.000295801
0.000456551
0.000566654
0.000619874
0.000618611
0.000188627
0.000260002
0.000395401
0.000496268
0.000545984
0.000535166
0.000176472
0.000209506
0.000319471
0.000410536
0.000460827
0.000448034
0.000160162
0.000142799
0.000224386
0.000302014
0.00035551
0.000352837
2.7957e-05
6.12916e-05
0.000109081
0.000163318
0.000214985
0.000241197
7.83393e-07
3.19595e-06
1.01359e-05
2.50036e-05
4.92518e-05
9.91979e-05
0.000609043
0.000869579
0.000977142
0.00104225
0.0010853
0.00111002
0.00112803
0.00112994
0.00112192
0.00110799
0.00108985
0.00106901
0.00104649
0.00102316
0.000999753
0.000976908
0.000955222
0.000935428
0.000918194
0.000904396
0.000894406
0.00089165
0.000889082
0.000915172
0.000688262
0.000874807
0.000963273
0.00102075
0.00106185
0.00109193
0.00110713
0.00112006
0.00112164
0.0011167
0.00110667
0.00109302
0.00107683
0.00105899
0.00104028
0.00102121
0.0010022
0.000983607
0.000965592
0.000948834
0.000932518
0.000919532
0.000904478
0.000898221
0.000807053
0.000944251
0.00101113
0.00105274
0.00108561
0.00111135
0.00113048
0.00114097
0.00115123
0.00115409
0.00115513
0.00115398
0.00115035
0.00114554
0.00114131
0.0011384
0.00113684
0.00113691
0.00113883
0.00114329
0.00114998
0.00115936
0.00116926
0.00118471
0.000924251
0.00104155
0.00110372
0.00113943
0.00116268
0.00118122
0.00119737
0.00121062
0.00122382
0.00123287
0.00124422
0.00125812
0.00127451
0.00129328
0.00131333
0.00133624
0.00136347
0.00139538
0.0014317
0.00147128
0.00151294
0.00155402
0.00159134
0.00162183
0.00101837
0.00113224
0.00120342
0.00124741
0.0012762
0.00129471
0.00130788
0.00131927
0.00133189
0.00134622
0.00136362
0.00138344
0.0014083
0.00143878
0.00147474
0.00151534
0.00155936
0.00160574
0.00165327
0.0017006
0.00174646
0.00178773
0.00182026
0.00184565
0.00109076
0.00120051
0.00127988
0.00133849
0.00138202
0.00141382
0.00143688
0.00145446
0.00146901
0.00148385
0.00150124
0.0015228
0.00154916
0.0015812
0.00161839
0.00165947
0.00170406
0.0017511
0.00179921
0.00184681
0.00189268
0.00193228
0.00196571
0.00199204
0.00114517
0.00125591
0.0013416
0.00140886
0.00146163
0.00150332
0.00153736
0.00156556
0.00159061
0.00161494
0.00164035
0.0016678
0.00169737
0.00172829
0.00176167
0.00179866
0.00183825
0.00187968
0.001921
0.0019592
0.00199325
0.00202111
0.00204259
0.00205361
0.0011798
0.00129101
0.00138414
0.0014633
0.00152966
0.0015841
0.00162816
0.00166445
0.00169538
0.00172319
0.00174976
0.00177661
0.00180479
0.00183495
0.00186623
0.00189642
0.00192329
0.00194451
0.00195966
0.00196804
0.00196983
0.00196516
0.00195735
0.00195021
0.00119405
0.00130347
0.0014005
0.00148763
0.00156453
0.00163115
0.0016883
0.00173727
0.00177939
0.00181593
0.00184794
0.00187615
0.00190101
0.0019225
0.00194027
0.00195416
0.00196331
0.00196732
0.00196485
0.00195545
0.00193997
0.00192089
0.00190332
0.00188984
0.0011895
0.00129464
0.0013923
0.00148355
0.00156695
0.00164168
0.00170783
0.00176592
0.00181657
0.00186031
0.00189756
0.00192852
0.00195316
0.00197124
0.0019823
0.00198701
0.00198344
0.00197147
0.00195072
0.0019217
0.00188661
0.00185058
0.00181947
0.00179456
0.00116801
0.00126691
0.00136297
0.00145544
0.00154174
0.00162043
0.00169112
0.00175397
0.00180908
0.00185657
0.00189656
0.00192871
0.00195268
0.00196789
0.0019741
0.00197436
0.00196544
0.00194588
0.00191365
0.00187229
0.0018236
0.00177025
0.00172201
0.00169781
0.00113166
0.00122327
0.00131684
0.00140897
0.00149571
0.00157511
0.00164655
0.00171012
0.00176554
0.00181318
0.0018532
0.00188444
0.0019065
0.00191702
0.00191573
0.00190354
0.00187952
0.0018454
0.0018098
0.00177152
0.00173236
0.00169707
0.00166586
0.00164667
0.00108253
0.0011668
0.00125808
0.0013493
0.00143485
0.00151242
0.00158155
0.00164207
0.00169342
0.00173226
0.00175735
0.00177362
0.00178177
0.00178718
0.00178898
0.0017862
0.00177857
0.00176525
0.0017421
0.00170984
0.00166923
0.00162099
0.00156355
0.00152107
0.00102247
0.0011
0.00118979
0.00127993
0.00136309
0.00143621
0.00149574
0.00153865
0.00157294
0.00160564
0.00163691
0.00166427
0.00168789
0.00170072
0.00169993