/*--------------------------------*- C++ -*----------------------------------*\
  =========                 |
  \\      /  F ield         | OpenFOAM: The Open Source CFD Toolbox
   \\    /   O peration     | Website:  https://openfoam.org
    \\  /    A nd           | Version:  11
     \\/     M anipulation  |
\*---------------------------------------------------------------------------*/
FoamFile
{
    format      ascii;
    class       volScalarField;
    location    "1.68";
    object      p;
}
// * * * * * * * * * * * * * * * * * * * * * * * * * * * * * * * * * * * * * //

dimensions      [0 2 -2 0 0 0 0];

internalField   nonuniform List<scalar> 
2880
(
0.233657
0.238581
0.270583
0.329904
0.380209
0.342137
0.235677
0.238816
0.262614
0.302037
0.312336
0.286199
0.236916
0.238892
0.254516
0.280498
0.278811
0.237058
0.235794
0.237393
0.246564
0.263677
0.256801
0.21362
0.233034
0.234507
0.239262
0.251237
0.243844
0.207914
0.22975
0.231025
0.23304
0.242403
0.23686
0.209539
0.226433
0.227517
0.227966
0.236234
0.23338
0.213568
0.222769
0.224135
0.223872
0.231869
0.231799
0.218369
0.218899
0.220898
0.220515
0.228684
0.231289
0.223441
0.215127
0.217823
0.217678
0.226246
0.231464
0.228685
0.211699
0.214937
0.215198
0.224217
0.232107
0.234173
0.208796
0.212277
0.212958
0.222454
0.233069
0.239803
0.20652
0.209907
0.210835
0.220721
0.234148
0.244875
0.204925
0.207933
0.208744
0.218724
0.23518
0.249421
0.20401
0.206421
0.206699
0.216312
0.236024
0.253335
0.203777
0.205465
0.204621
0.213219
0.236412
0.256478
0.204265
0.205105
0.202526
0.209102
0.235937
0.258542
0.205468
0.205363
0.200388
0.20371
0.234228
0.258635
0.20703
0.206088
0.197926
0.197066
0.230948
0.25516
0.205679
0.206585
0.194965
0.188979
0.225565
0.246343
0.200655
0.206177
0.191419
0.179332
0.218142
0.230416
0.20173
0.206097
0.187632
0.16888
0.210752
0.202539
0.210271
0.20678
0.18433
0.158685
0.207074
0.133457
0.214882
0.206889
0.181209
0.149005
0.186792
-0.0747304
-0.14074
-0.126375
-0.0815245
-0.043126
-0.00977361
0.0179422
0.0402897
0.0582314
0.072682
0.0843368
0.0937426
0.101341
0.107489
0.112457
0.116446
0.119605
0.122047
0.123875
0.125193
0.125993
0.126659
0.130953
0.144524
0.132945
-0.0465871
-0.0741433
-0.0431483
-0.0124053
0.0155441
0.0396915
0.059627
0.0758308
0.0889873
0.099688
0.108408
0.115528
0.121359
0.126144
0.130067
0.133262
0.135831
0.137859
0.139405
0.140392
0.141204
0.14589
0.160325
0.147662
0.0139672
-0.0215915
-0.00392895
0.019522
0.0424757
0.0630393
0.0804239
0.094758
0.106507
0.116141
0.124061
0.130597
0.136018
0.140536
0.144311
0.147459
0.15007
0.152217
0.153913
0.155005
0.155871
0.160758
0.175744
0.162665
0.0638467
0.0270168
0.0341006
0.0512953
0.0699281
0.0872046
0.102115
0.114576
0.124883
0.133402
0.140464
0.146351
0.151293
0.155471
0.159028
0.162066
0.164664
0.166877
0.168672
0.169811
0.170644
0.175529
0.190755
0.178189
0.104784
0.0691218
0.069685
0.0821256
0.0971922
0.111606
0.124248
0.134926
0.143827
0.151233
0.157418
0.162619
0.167031
0.17081
0.174081
0.176934
0.17944
0.181644
0.183483
0.184653
0.185431
0.190127
0.205224
0.194552
0.136946
0.104805
0.10227
0.111491
0.123793
0.135831
0.146485
0.155535
0.163112
0.169445
0.174762
0.17926
0.183103
0.186425
0.189334
0.191915
0.194236
0.196344
0.198177
0.199433
0.200287
0.204621
0.218911
0.212669
0.161833
0.134939
0.13181
0.13918
0.149491
0.15964
0.168609
0.176214
0.182578
0.187903
0.192382
0.196177
0.199424
0.202235
0.204704
0.206906
0.208906
0.210758
0.212455
0.213801
0.214769
0.217738
0.228462
0.23662
0.18139
0.160605
0.158564
0.165195
0.17421
0.182921
0.190496
0.196846
0.202124
0.206522
0.210208
0.213318
0.215961
0.218229
0.220191
0.221904
0.22341
0.224753
0.225965
0.226954
0.227359
0.226535
0.220431
0.270406
0.197252
0.182822
0.182944
0.189691
0.197996
0.205659
0.212104
0.217378
0.221696
0.225256
0.22821
0.230671
0.232731
0.23446
0.23591
0.237114
0.238097
0.23889
0.239478
0.239501
0.238311
0.23799
0.248806
0.267799
0.210594
0.202412
0.205404
0.212914
0.220977
0.227912
0.233448
0.237804
0.241279
0.24409
0.246376
0.24824
0.24976
0.250993
0.25198
0.25274
0.253289
0.253653
0.253757
0.253123
0.251502
0.253079
0.268186
0.274575
0.222136
0.220005
0.226409
0.235161
0.24334
0.249789
0.254587
0.258155
0.260888
0.263025
0.264706
0.266025
0.267054
0.267847
0.268434
0.26883
0.26905
0.269117
0.268923
0.267969
0.266261
0.268696
0.284897
0.286097
0.232385
0.236136
0.246437
0.256773
0.265288
0.27143
0.275617
0.278488
0.280552
0.282076
0.283199
0.284016
0.284598
0.284996
0.285237
0.285331
0.28529
0.285129
0.284726
0.283569
0.281784
0.284534
0.300986
0.299818
0.242049
0.251396
0.265944
0.278078
0.28708
0.293011
0.296656
0.298882
0.300316
0.301259
0.301853
0.302195
0.302358
0.302394
0.302326
0.302159
0.301898
0.301554
0.300989
0.299686
0.297837
0.300687
0.316984
0.314606
0.251085
0.266338
0.285364
0.299404
0.308969
0.314723
0.317836
0.319421
0.320226
0.320592
0.320661
0.320535
0.320292
0.319981
0.319624
0.319216
0.318758
0.318251
0.317547
0.31613
0.314239
0.317086
0.332951
0.329977
0.259586
0.281371
0.305051
0.321099
0.331227
0.336763
0.339297
0.340193
0.34033
0.340089
0.339612
0.339005
0.338348
0.337691
0.337049
0.336411
0.335765
0.335106
0.334278
0.332775
0.330871
0.33365
0.348857
0.345648
0.267676
0.296845
0.325439
0.343575
0.354147
0.359337
0.361172
0.361279
0.360666
0.359755
0.358685
0.357562
0.356468
0.355451
0.354518
0.353646
0.352815
0.352008
0.351065
0.349499
0.347611
0.350273
0.364642
0.361424
0.275487
0.313215
0.347082
0.367252
0.378036
0.382646
0.383588
0.382747
0.381259
0.379583
0.377849
0.376157
0.374588
0.373184
0.371942
0.370828
0.369806
0.36885
0.367799
0.36619
0.364342
0.366847
0.380227
0.377152
0.28322
0.331243
0.370567
0.39256
0.403213
0.406885
0.406649
0.404645
0.402116
0.399548
0.397056
0.394726
0.39263
0.390804
0.38923
0.387857
0.386636
0.385527
0.384369
0.382733
0.380944
0.383256
0.395527
0.392691
0.291344
0.351995
0.39656
0.420041
0.430004
0.432228
0.430426
0.426984
0.423211
0.419601
0.41624
0.413188
0.410506
0.408213
0.406278
0.404629
0.403196
0.401929
0.400665
0.399012
0.397294
0.399381
0.410449
0.407908
0.300641
0.376693
0.425905
0.450243
0.458662
0.45879
0.454935
0.449725
0.444479
0.439659
0.435305
0.431441
0.428108
0.425304
0.422977
0.42103
0.419373
0.417938
0.416566
0.414903
0.413261
0.415094
0.424893
0.422673
0.311588
0.406813
0.459665
0.483652
0.48935
0.486589
0.480122
0.472769
0.465804
0.4596
0.454129
0.449362
0.445312
0.441952
0.439201
0.436937
0.435042
0.433429
0.431944
0.430273
0.428708
0.430269
0.438767
0.436861
0.324813
0.446486
0.499556
0.520691
0.522095
0.515495
0.505825
0.495946
0.48701
0.479259
0.472552
0.4668
0.461973
0.458016
0.454814
0.452213
0.450065
0.448266
0.446661
0.444981
0.4435
0.444805
0.45201
0.4503
0.352956
0.506494
0.547825
0.561428
0.556584
0.545154
0.531733
0.51899
0.507865
0.498423
0.490386
0.48358
0.47793
0.473341
0.469665
0.466709
0.464296
0.462297
0.460561
0.458864
0.457479
0.458578
0.464474
0.462609
0.451173
0.595033
0.604329
0.604856
0.591983
0.574934
0.557367
0.541528
0.528068
0.516838
0.507408
0.499506
0.493001
0.487759
0.483591
0.480266
0.477572
0.475355
0.473468
0.471728
0.470404
0.471262
0.475847
0.47382
1.10066
1.09099
1.10036
1.12819
1.16357
1.37546
1.10299
1.09393
1.10011
1.11784
1.14183
1.27183
1.10479
1.0984
1.10154
1.11231
1.11923
1.17243
1.10504
1.1009
1.10157
1.10678
1.10148
1.10958
1.10425
1.10105
1.09961
1.0998
1.08722
1.07443
1.10283
1.09983
1.0964
1.09232
1.07535
1.05376
1.10089
1.09802
1.09262
1.08513
1.06528
1.03986
1.09855
1.09606
1.08868
1.07846
1.05653
1.02933
1.09601
1.09419
1.08483
1.0723
1.04871
1.02055
1.09354
1.0926
1.08128
1.0666
1.04149
1.01251
1.09138
1.09144
1.07816
1.06136
1.03458
1.00449
1.08973
1.09084
1.07556
1.05656
1.02777
0.995962
1.0887
1.09086
1.07355
1.05225
1.02087
0.986484
1.08836
1.09148
1.07217
1.04844
1.01376
0.975734
1.08867
1.09267
1.0714
1.04516
1.00639
0.963476
1.08955
1.09428
1.07119
1.04245
0.998805
0.949519
1.09081
1.09605
1.07145
1.04039
0.991148
0.933637
1.09224
1.09769
1.07202
1.03913
0.983706
0.915807
1.0936
1.09891
1.0728
1.039
0.977005
0.896435
1.09466
1.0996
1.074
1.04072
0.971895
0.876269
1.09532
1.1002
1.07653
1.0458
0.969843
0.857402
1.09587
1.10194
1.0819
1.05581
0.973746
0.846245
1.09704
1.10539
1.08974
1.06808
0.988029
0.85886
1.09857
1.1081
1.09424
1.07142
1.01821
0.905865
0.676164
0.684157
0.66245
0.648527
0.626906
0.60393
0.582094
0.563095
0.547262
0.534216
0.523376
0.514367
0.507
0.501097
0.49643
0.492727
0.48974
0.48729
0.48523
0.483418
0.482084
0.48259
0.485937
0.484144
0.785942
0.75925
0.715558
0.68909
0.659604
0.631094
0.605205
0.583182
0.565063
0.550257
0.53804
0.52795
0.519737
0.513184
0.508023
0.503944
0.500663
0.497976
0.495742
0.493844
0.492456
0.492558
0.494845
0.493597
0.854581
0.814461
0.759653
0.724243
0.688638
0.655491
0.626059
0.601318
0.581113
0.564676
0.551163
0.540048
0.531031
0.523855
0.518218
0.513775
0.510208
0.507294
0.504891
0.502911
0.501472
0.501234
0.502631
0.501776
0.898242
0.85247
0.794098
0.753168
0.713259
0.676535
0.644213
0.617156
0.595128
0.577234
0.562542
0.550481
0.540715
0.532954
0.526867
0.522079
0.518241
0.515111
0.512549
0.510486
0.508995
0.508473
0.509143
0.508607
0.926022
0.878167
0.820111
0.776009
0.733288
0.69399
0.659434
0.630493
0.606927
0.587767
0.572026
0.559109
0.548653
0.540348
0.533839
0.528726
0.524635
0.521305
0.518595
0.516449
0.514902
0.514153
0.514271
0.513981
0.943348
0.895408
0.839116
0.793289
0.74888
0.707828
0.671605
0.641174
0.61634
0.596106
0.579456
0.565785
0.554714
0.545913
0.539014
0.533599
0.529276
0.525765
0.52292
0.520691
0.519086
0.51817
0.517923
0.517804
0.953865
0.906616
0.852297
0.805627
0.760289
0.718059
0.680607
0.649014
0.623161
0.602048
0.584643
0.570339
0.558742
0.549511
0.542268
0.536586
0.532058
0.528389
0.525427
0.523116
0.52145
0.520432
0.520019
0.51999
0.959535
0.912962
0.860508
0.813511
0.767689
0.724684
0.686352
0.653881
0.62724
0.605442
0.587446
0.572641
0.56062
0.551034
0.543501
0.537591
0.53289
0.529092
0.526032
0.523644
0.521914
0.520864
0.52049
0.520469
0.961291
0.915429
0.864368
0.817249
0.771202
0.727743
0.688836
0.655752
0.628544
0.606241
0.587808
0.572627
0.560281
0.550415
0.542645
0.536547
0.531706
0.527808
0.524671
0.522211
0.52042
0.519409
0.519276
0.51918
0.959653
0.91422
0.864183
0.817026
0.770957
0.727319
0.688099
0.65463
0.627045
0.604405
0.58568
0.570244
0.557672
0.547601
0.539653
0.533409
0.528463
0.524493
0.521301
0.518776
0.516924
0.51602
0.516327
0.516076
0.95489
0.909476
0.860094
0.812949
0.767018
0.723425
0.684119
0.650472
0.622687
0.599871
0.580998
0.565433
0.552738
0.542546
0.534483
0.528144
0.52313
0.51912
0.515897
0.513316
0.511406
0.510675
0.511609
0.511123
0.947005
0.90114
0.852055
0.804959
0.75931
0.71598
0.676814
0.6432
0.615399
0.592573
0.573704
0.558144
0.545439
0.535219
0.527115
0.520735
0.515696
0.511681
0.508452
0.505828
0.503867
0.503368
0.505102
0.504308
0.93577
0.888936
0.839808
0.792845
0.747649
0.704832
0.666064
0.632718
0.605103
0.582449
0.563749
0.548337
0.535747
0.525601
0.517538
0.511183
0.506169
0.502188
0.498982
0.49633
0.49433
0.494122
0.496812
0.495636
0.920735
0.872356
0.822921
0.776254
0.731761
0.689768
0.651708
0.618905
0.591712
0.569434
0.551087
0.535983
0.523643
0.513687
0.50576
0.499504
0.494573
0.490669
0.487522
0.484867
0.482845
0.482993
0.486787
0.485106
0.901153
0.85062
0.800761
0.754687
0.711267
0.670507
0.633544
0.601621
0.575131
0.553467
0.535681
0.521065
0.509127
0.499488
0.491802
0.485729
0.480946
0.477169
0.474118
0.471482
0.469443
0.469949
0.474979
0.472935
0.875889
0.822647
0.772439
0.727467
0.685683
0.646703
0.611331
0.58071
0.555265
0.534495
0.517508
0.50358
0.492214
0.483033
0.475704
0.469907
0.465343
0.461747
0.45883
0.456238
0.454174
0.455009
0.461342
0.459104
0.843355
0.787013
0.736771
0.693729
0.654411
0.617949
0.584801
0.556004
0.53202
0.512478
0.496563
0.483548
0.472941
0.464374
0.45753
0.452112
0.447846
0.444489
0.441751
0.439231
0.437147
0.438292
0.445961
0.443601
0.801267
0.741761
0.692233
0.65242
0.616766
0.583802
0.553676
0.527341
0.505324
0.487401
0.472868
0.46102
0.451378
0.443594
0.437373
0.432445
0.428566
0.425515
0.423007
0.4206
0.418519
0.419966
0.428964
0.426524
0.747204
0.683465
0.636896
0.602326
0.572007
0.543818
0.517701
0.494592
0.475135
0.459285
0.446482
0.436078
0.427627
0.420809
0.415361
0.411043
0.407644
0.404973
0.402754
0.400513
0.398474
0.400226
0.410502
0.408
0.676554
0.609128
0.568624
0.542153
0.519417
0.497615
0.476691
0.457694
0.441472
0.428204
0.417512
0.408853
0.401834
0.396176
0.391656
0.388074
0.385256
0.383044
0.381178
0.379162
0.377221
0.379288
0.390757
0.388191
0.584257
0.51429
0.485038
0.470691
0.45842
0.444958
0.43059
0.416699
0.404447
0.394305
0.386129
0.37953
0.374192
0.369894
0.366463
0.363747
0.361613
0.359943
0.358497
0.356772
0.354994
0.357391
0.369935
0.367307
0.459661
0.393076
0.383911
0.387011
0.388735
0.385868
0.379547
0.37181
0.364289
0.35783
0.352583
0.348361
0.344951
0.342212
0.340031
0.338311
0.336965
0.335918
0.334961
0.333595
0.332052
0.334791
0.348262
0.345601
0.265978
0.237541
0.26347
0.290646
0.310552
0.320736
0.323983
0.323427
0.321372
0.319131
0.317209
0.315663
0.314418
0.313426
0.31265
0.31205
0.311594
0.311252
0.310852
0.309911
0.308673
0.311759
0.325985
0.323358
-0.0457058
0.0531093
0.125819
0.182974
0.225017
0.250498
0.264668
0.272189
0.276233
0.278675
0.280427
0.28182
0.282949
0.283876
0.284646
0.285286
0.285818
0.286258
0.28648
0.28603
0.285162
0.288583
0.30337
0.300893
-0.812573
-0.864022
-0.951481
-0.993448
-1.00824
-1.05816
-0.824955
-0.876502
-0.962997
-1.00453
-1.00915
-1.02793
-0.836583
-0.889512
-0.976969
-1.01959
-1.01685
-1.02051
-0.848998
-0.903447
-0.992879
-1.03812
-1.03364
-1.03221
-0.86385
-0.918771
-1.00965
-1.05811
-1.05774
-1.05484
-0.88001
-0.93478
-1.02625
-1.07769
-1.08468
-1.08288
-0.895652
-0.95075
-1.0416
-1.09549
-1.10977
-1.11095
-0.909667
-0.965851
-1.0546
-1.11038
-1.13071
-1.13426
-0.921507
-0.978545
-1.06465
-1.12148
-1.14613
-1.15052
-0.930397
-0.988029
-1.07139
-1.12818
-1.15514
-1.15872
-0.935752
-0.993853
-1.0746
-1.1301
-1.15725
-1.15827
-0.937203
-0.995856
-1.07422
-1.12714
-1.15236
-1.149
-0.934666
-0.994251
-1.07009
-1.11947
-1.14075
-1.13131
-0.928309
-0.989436
-1.06266
-1.10758
-1.12333
-1.10609
-0.918739
-0.98179
-1.0523
-1.09219
-1.10109
-1.07489
-0.906802
-0.971834
-1.03954
-1.07421
-1.07555
-1.03974
-0.893509
-0.96025
-1.02502
-1.0547
-1.04848
-1.00301
-0.879927
-0.947843
-1.00949
-1.0348
-1.02178
-0.967501
-0.867095
-0.935525
-0.99374
-1.0156
-0.997332
-0.936303
-0.855927
-0.92439
-0.978669
-0.997939
-0.97687
-0.912464
-0.847243
-0.916002
-0.965436
-0.981737
-0.96188
-0.897715
-0.842179
-0.911619
-0.955439
-0.966607
-0.951808
-0.892177
-0.842405
-0.90956
-0.947528
-0.947936
-0.943511
-0.904937
-0.847437
-0.902683
-0.92708
-0.92359
-0.940686
-0.977683
-0.510401
-0.162959
-0.0268654
0.0682078
0.134799
0.176827
0.202793
0.218996
0.229579
0.237045
0.242736
0.247275
0.250946
0.253936
0.256378
0.258366
0.259977
0.261276
0.262182
0.262283
0.261842
0.265571
0.2807
0.278551
-0.698455
-0.372934
-0.178545
-0.0454088
0.0440298
0.102181
0.139937
0.164972
0.18226
0.194913
0.204691
0.212506
0.218838
0.224002
0.22822
0.231653
0.234432
0.236665
0.238319
0.23903
0.239062
0.243041
0.258271
0.256722
-0.790273
-0.530799
-0.310216
-0.151011
-0.0434116
0.0290248
0.077795
0.111316
0.135179
0.15299
0.166873
0.178004
0.187055
0.194466
0.200543
0.205511
0.209546
0.212796
0.215271
0.216656
0.2172
0.221334
0.236374
0.235863
-0.866693
-0.64755
-0.419281
-0.245923
-0.124976
-0.0407215
0.0178393
0.0591616
0.089183
0.111962
0.129835
0.144234
0.156
0.165689
0.173687
0.180273
0.185663
0.190036
0.193434
0.195593
0.1967
0.200821
0.215244
0.216546
-0.935281
-0.738179
-0.510262
-0.32988
-0.199333
-0.10564
-0.038809
0.00939685
0.0450916
0.072455
0.0940638
0.111601
0.126013
0.137964
0.147917
0.1562
0.163061
0.168701
0.173197
0.176333
0.178161
0.18201
0.194955
0.199588
-0.991624
-0.809633
-0.586564
-0.403078
-0.26572
-0.164849
-0.0912281
-0.0371488
0.00348579
0.0349502
0.0600152
0.0804396
0.0973422
0.111479
0.123374
0.133401
0.141854
0.148958
0.154846
0.15941
0.162536
0.166219
0.176375
0.186958
-1.03543
-0.86525
-0.649566
-0.465616
-0.323665
-0.21783
-0.138751
-0.07985
-0.0350741
-8.4037e-05
0.0279827
0.0509827
0.0701426
0.0862938
0.100021
0.111755
0.121827
0.130507
0.137988
0.144248
0.149161
0.154175
0.163879
0.170841
-1.06826
-0.907149
-0.69987
-0.517412
-0.373032
-0.264191
-0.180861
-0.118239
-0.0701679
-0.0323005
-0.00174572
0.023425
0.044506
0.0623839
0.0776857
0.0908709
0.102288
0.1122
0.120735
0.127768
0.133316
0.139709
0.150799
0.144298
-1.09053
-0.936333
-0.737783
-0.558532
-0.414107
-0.303067
-0.217228
-0.151996
-0.101473
-0.0614135
-0.0289299
-0.0020593
0.0205313
0.0397585
0.056264
0.0705049
0.0828092
0.0933997
0.102342
0.109463
0.11495
0.1216
0.132714
0.122069
-1.10174
-0.953042
-0.763449
-0.589095
-0.446366
-0.334027
-0.247882
-0.18092
-0.128748
-0.0871892
-0.0533556
-0.0252796
-0.00161361
0.0185705
0.0359161
0.0508691
0.0637375
0.074723
0.0838864
0.0911008
0.0966757
0.10347
0.11441
0.103678
-1.10153
-0.957427
-0.776896
-0.608971
-0.469429
-0.357853
-0.272357
-0.204788
-0.151812
-0.109432
-0.0748213
-0.0460311
-0.0217178
-0.000953466
0.0169022
0.0322876
0.0455018
0.0567459
0.0661065
0.0735295
0.0794073
0.0864499
0.0972379
0.0876771
-1.08997
-0.949833
-0.778346
-0.61813
-0.483517
-0.374943
-0.289979
-0.223572
-0.17058
-0.127997
-0.0931539
-0.0641183
-0.0395623
-0.0185673
-0.000496743
0.0150857
0.0284803
0.0398977
0.049455
0.0571645
0.063459
0.0708069
0.0815195
0.0737156
-1.06776
-0.93068
-0.768279
-0.616892
-0.488842
-0.385008
-0.301463
-0.237068
-0.18489
-0.142772
-0.10822
-0.0793738
-0.0549463
-0.0340364
-0.0160133
-0.000438036
0.0129965
0.0245128
0.0342526
0.0422766
0.0490164
0.0566878
0.0674134
0.0616714
-1.03616
-0.900992
-0.747412
-0.605776
-0.48549
-0.387726
-0.308013
-0.245037
-0.194698
-0.15373
-0.119947
-0.0916798
-0.0677099
-0.0471639
-0.0294197
-0.0140357
-0.000695886
0.0108328
0.0207084
0.0290226
0.0361782
0.0441558
0.0549568
0.0514037
-0.996728
-0.862685
-0.71721
-0.585773
-0.474255
-0.383187
-0.308868
-0.248529
-0.200345
-0.160972
-0.128354
-0.100993
-0.0777565
-0.0578096
-0.0405448
-0.0255199
-0.0124109
-0.000976146
0.0089527
0.0174851
0.0249845
0.033217
0.0441089
0.0427432
-0.951094
-0.817869
-0.679913
-0.558452
-0.45627
-0.372479
-0.303846
-0.247666
-0.202097
-0.164651
-0.133517
-0.107333
-0.0850544
-0.0658975
-0.0492791
-0.0347626
-0.022019
-0.0108002
-0.000930041
0.0077109
0.0154415
0.0238337
0.0347801
0.0355073
-0.900944
-0.76868
-0.637797
-0.525847
-0.432974
-0.356795
-0.294109
-0.242478
-0.200051
-0.164921
-0.135564
-0.110781
-0.0896378
-0.0714193
-0.0555785
-0.0416941
-0.0294391
-0.0185606
-0.00887476
-0.000255276
0.00757234
0.0159914
0.0268848
0.0295094
-0.848838
-0.716332
-0.592714
-0.489983
-0.406029
-0.337353
-0.28065
-0.233648
-0.194647
-0.162098
-0.134724
-0.111502
-0.0916205
-0.074443
-0.0594711
-0.0463099
-0.034643
-0.0242181
-0.014846
-0.00640001
0.00136251
0.00963057
0.0202829
0.0245399
-0.796945
-0.662164
-0.546094
-0.452493
-0.377037
-0.315477
-0.264523
-0.222044
-0.186514
-0.156635
-0.131336
-0.109756
-0.0911995
-0.0751156
-0.061061
-0.0486762
-0.0376648
-0.0277832
-0.0188434
-0.0107178
-0.00319122
0.00472279
0.0148314
0.0203332
-0.747368
-0.607481
-0.499094
-0.41468
-0.347394
-0.292484
-0.246861
-0.208616
-0.176399
-0.149111
-0.125852
-0.105896
-0.0886583
-0.0736641
-0.0605282
-0.0489316
-0.0386043
-0.0293174
-0.0208883
-0.013187
-0.00603952
0.00132466
0.0105049
0.0167086
-0.702253
-0.553739
-0.452992
-0.377724
-0.318309
-0.269574
-0.22878
-0.194345
-0.165131
-0.140212
-0.118833
-0.100385
-0.0843749
-0.0704006
-0.0581314
-0.0472888
-0.0376328
-0.0289526
-0.0210744
-0.0138759
-0.00721219
-0.000533033
0.00735409
0.0136269
-0.663467
-0.50198
-0.40921
-0.342859
-0.290951
-0.247849
-0.211332
-0.180214
-0.153593
-0.130713
-0.110948
-0.093791
-0.0788309
-0.0657325
-0.0542165
-0.0440438
-0.0349995
-0.0268957
-0.0196149
-0.0130768
-0.00701848
-0.00101867
0.0054237
0.0111139
-0.62911
-0.449888
-0.368968
-0.311405
-0.266411
-0.228336
-0.195525
-0.167201
-0.142714
-0.121476
-0.102979
-0.0868106
-0.0726375
-0.0601883
-0.0492397
-0.0396032
-0.031117
-0.0236135
-0.0169397
-0.0108909
-0.00541321
-0.000288458
0.00459137
0.00934105
-0.577692
-0.390648
-0.333147
-0.284761
-0.245688
-0.211854
-0.182184
-0.156186
-0.133421
-0.113437
-0.0958415
-0.080315
-0.0666004
-0.0544915
-0.0438233
-0.0344602
-0.0262854
-0.0191952
-0.013025
-0.00759882
-0.00290033
0.00136183
0.00491276
0.00892928
-0.29551
-0.284667
-0.269617
-0.245962
-0.240655
-0.183673
-0.294794
-0.284821
-0.271123
-0.250241
-0.247518
-0.207478
-0.293619
-0.285346
-0.27365
-0.256029
-0.256412
-0.22998
-0.293349
-0.28641
-0.2766
-0.261833
-0.263288
-0.244981
-0.294096
-0.288035
-0.279789
-0.267921
-0.267765
-0.254032
-0.295362
-0.290168
-0.283247
-0.273483
-0.271449
-0.260903
-0.297735
-0.292788
-0.287053
-0.278831
-0.275444
-0.266718
-0.301025
-0.29584
-0.291242
-0.284242
-0.279926
-0.271685
-0.303781
-0.299155
-0.295749
-0.289857
-0.284944
-0.276522
-0.30604
-0.302634
-0.300502
-0.295763
-0.290587
-0.281784
-0.308331
-0.306221
-0.305435
-0.302016
-0.296961
-0.287918
-0.31064
-0.309799
-0.310483
-0.308653
-0.304151
-0.295241
-0.312898
-0.313235
-0.315582
-0.315687
-0.312201
-0.303882
-0.315005
-0.316399
-0.32067
-0.323113
-0.321143
-0.314069
-0.316876
-0.319165
-0.325691
-0.330909
-0.330969
-0.325993
-0.318501
-0.321453
-0.330585
-0.339029
-0.341613
-0.339834
-0.320476
-0.32341
-0.335275
-0.347392
-0.352895
-0.355832
-0.322959
-0.325776
-0.339786
-0.355843
-0.364424
-0.374461
-0.324999
-0.328305
-0.343957
-0.364154
-0.375863
-0.396274
-0.326215
-0.330399
-0.347495
-0.371997
-0.388164
-0.41997
-0.326795
-0.331634
-0.349921
-0.378646
-0.400446
-0.445338
-0.325655
-0.331618
-0.350685
-0.382736
-0.41155
-0.473546
-0.323094
-0.330668
-0.350003
-0.383286
-0.419801
-0.502173
-0.321762
-0.330107
-0.349722
-0.383252
-0.424999
-0.523174
-0.402606
-0.333111
-0.303495
-0.264029
-0.229607
-0.199077
-0.171917
-0.147809
-0.126444
-0.10745
-0.0904891
-0.0753188
-0.0617559
-0.0496596
-0.0389304
-0.0294978
-0.0213057
-0.0142933
-0.00839514
-0.00346077
0.000491494
0.0038246
0.00574108
0.00837677
-0.343057
-0.305026
-0.28357
-0.24956
-0.218324
-0.19016
-0.164929
-0.142383
-0.1222
-0.104064
-0.0876354
-0.0727092
-0.0591473
-0.0468576
-0.0358027
-0.0259876
-0.0174401
-0.0101815
-0.00423049
0.000492765
0.00390416
0.00645369
0.00697801
0.00743566
-0.318859
-0.288883
-0.269968
-0.239557
-0.210673
-0.184293
-0.160584
-0.139376
-0.12033
-0.103074
-0.0872715
-0.0726962
-0.0592326
-0.0468347
-0.035504
-0.0252896
-0.0162956
-0.0086476
-0.00246771
0.00218033
0.00523441
0.00687322
0.00690782
0.00553675
-0.30207
-0.276325
-0.259174
-0.231728
-0.204759
-0.179827
-0.157376
-0.137313
-0.119334
-0.103048
-0.0881171
-0.0742468
-0.0612828
-0.0491934
-0.0380216
-0.0278646
-0.018866
-0.0112039
-0.00506803
-0.000617494
0.00203058
0.00285057
0.00175029
-0.000934358
-0.290172
-0.26582
-0.249706
-0.224309
-0.198901
-0.17507
-0.153513
-0.1343
-0.11716
-0.101742
-0.0877006
-0.0747435
-0.0626723
-0.0513937
-0.0409246
-0.0313572
-0.0228153
-0.0154616
-0.00948857
-0.00509305
-0.00249253
-0.00214207
-0.00490805
-0.00852194
-0.280411
-0.259315
-0.241301
-0.216896
-0.192261
-0.168995
-0.147852
-0.129008
-0.112299
-0.0974045
-0.0840172
-0.0718737
-0.0607493
-0.0505039
-0.0410988
-0.0325581
-0.0249124
-0.0182731
-0.0128021
-0.008662
-0.00607145
-0.00575599
-0.0091558
-0.0126548
-0.274044
-0.254102
-0.234083
-0.209544
-0.184825
-0.161463
-0.140245
-0.121399
-0.104825
-0.0903105
-0.0775559
-0.0662553
-0.0562211
-0.047336
-0.0395614
-0.0327698
-0.0268628
-0.0218488
-0.0177071
-0.0143993
-0.0119589
-0.0107136
-0.0108433
-0.00857562
-0.270773
-0.250188
-0.228088
-0.202532
-0.176968
-0.152896
-0.131112
-0.111847
-0.0950137
-0.080431
-0.0678575
-0.0570623
-0.0478543
-0.0400545
-0.0334494
-0.0279281
-0.0234328
-0.0197388
-0.0165668
-0.0136116
-0.0105376
-0.00675822
-0.00124708
0.00452868
-0.269924
-0.247783
-0.223261
-0.195968
-0.168888
-0.143487
-0.120512
-0.100214
-0.0825931
-0.0675182
-0.0547898
-0.0442196
-0.0356234
-0.0288219
-0.023624
-0.0198272
-0.0171554
-0.0152402
-0.0136298
-0.0118126
-0.00915479
-0.00454012
0.00305355
0.0103588
-0.271062
-0.246939
-0.219541
-0.189886
-0.160709
-0.133508
-0.109053
-0.0876212
-0.0692313
-0.0537748
-0.041092
-0.0309994
-0.0233179
-0.01786
-0.0144066
-0.0126671
-0.0122652
-0.0127316
-0.0134753
-0.0137944
-0.0128614
-0.00944709
-0.00175711
0.00715065
-0.274031
-0.24754
-0.216878
-0.184324
-0.152578
-0.123216
-0.0970604
-0.0743969
-0.055248
-0.0395075
-0.0270132
-0.0175679
-0.0109489
-0.00690903
-0.00515445
-0.00531705
-0.00694917
-0.00949441
-0.0122203
-0.0142302
-0.0145206
-0.0118026
-0.00488168
0.00523749
-0.27876
-0.24951
-0.215198
-0.179297
-0.144622
-0.112894
-0.0849384
-0.0610469
-0.041216
-0.0252891
-0.0130808
-0.00436158
0.00115271
0.00379075
0.00395036
0.0020869
-0.00125409
-0.00535945
-0.00937203
-0.0123397
-0.0132468
-0.0107121
-0.00406061
0.00733274
-0.285191
-0.252844
-0.214409
-0.174758
-0.136939
-0.102765
-0.0730558
-0.0480569
-0.0277545
-0.0119401
-0.000304825
0.00750344
0.0118968
0.0133197
0.0122501
0.00924588
0.00498356
0.000251178
-0.00412618
-0.00720557
-0.00819345
-0.00574945
-7.14379e-05
0.0121283
-0.293287
-0.257364
-0.214311
-0.170556
-0.12953
-0.0930244
-0.0619198
-0.0363095
-0.0159418
-0.000492456
0.0104789
0.0174683
0.0209928
0.0215744
0.0197976
0.0163221
0.0118483
0.00705901
0.00259052
-0.00036243
-0.0015108
-0.000264128
0.00198222
0.0136688
-0.302958
-0.262802
-0.214448
-0.166526
-0.122436
-0.0841103
-0.0520445
-0.0261285
-0.00594387
0.00900253
0.0192733
0.025506
0.0283388
0.0284036
0.0264311
0.022985
0.0189254
0.0147166
0.0101513
0.00675639
0.0065575
0.0104172
0.0139899
0.0209904
-0.313996
-0.268686
-0.214391
-0.162326
-0.11559
-0.0758054
-0.0431995
-0.0174348
0.00212624
0.01626
0.0257566
0.0313989
0.0339538
0.0339601
0.0323964
0.0292545
0.0255178
0.0230015
0.0226137
0.0228037
0.0225426
0.0233392
0.0242944
0.0280655
-0.325987
-0.274228
-0.213588
-0.157493
-0.108522
-0.0679285
-0.0355877
-0.010589
0.00809215
0.0214119
0.0302822
0.0355586
0.0382199
0.0384115
0.0374767
0.037495
0.0373525
0.0363354
0.0350807
0.0344195
0.0333196
0.0311069
0.0295499
0.0348109
-0.338084
-0.278658
-0.21122
-0.151499
-0.101176
-0.0606967
-0.0292036
-0.00528428
0.0124077
0.0249696
0.0333722
0.0385224
0.0417655
0.0448911
0.046711
0.0469468
0.0467845
0.0464099
0.0451456
0.0432839
0.0414146
0.0397149
0.039446
0.0424132
-0.348563
-0.281295
-0.206831
-0.144215
-0.0935433
-0.0539645
-0.023767
-0.000944303
0.0159842
0.0281409
0.0367501
0.0434321
0.0485122
0.0518379
0.0542214
0.0554531
0.0554041
0.054864
0.0544543
0.0535724
0.0520005
0.0504607
0.0508103
0.0488711
-0.35527
-0.281582
-0.200321
-0.135671
-0.085542
-0.0474016
-0.0184144
0.00363691
0.0202557
0.0327301
0.0424605
0.0501286
0.0558489
0.0598315
0.0621118
0.0634221
0.0645757
0.0650393
0.0647236
0.0637528
0.0621294
0.060971
0.0630051
0.0587012
-0.35626
-0.277828
-0.191604
-0.125643
-0.0766294
-0.0399741
-0.0119344
0.00966917
0.0263335
0.039527
0.049989
0.0581169
0.0638432
0.0677002
0.0708251
0.0731866
0.074646
0.0753289
0.0752544
0.0744585
0.0732049
0.0732819
0.0784355
0.0732483
-0.349811
-0.263973
-0.177994
-0.112883
-0.0656674
-0.030413
-0.00323026
0.0179913
0.0347712
0.0481533
0.0586418
0.0664119
0.0724298
0.0772665
0.0808618
0.0835189
0.0853238
0.086339
0.0866375
0.0863214
0.0857568
0.0873365
0.0955664
0.0889695
-0.332674
-0.231075
-0.154169
-0.0952026
-0.0511626
-0.0176612
0.0083899
0.0289364
0.0452929
0.0582661
0.0684981
0.0765736
0.0829042
0.0878985
0.0917672
0.0946853
0.0967759
0.0981222
0.0988222
0.0989535
0.0988883
0.101528
0.111895
0.103524
-0.282998
-0.178582
-0.119467
-0.0714504
-0.0323642
-0.00140541
0.0230225
0.0424392
0.0579728
0.070407
0.0803523
0.0882843
0.0946099
0.0996507
0.103632
0.10671
0.108995
0.110579
0.111574
0.112036
0.112377
0.115976
0.128198
0.118144
)
;

boundaryField
{
    rotor
    {
        type            zeroGradient;
    }
    freestream
    {
        type            freestreamPressure;
        freestreamValue uniform 0;
        supersonic      false;
        value           nonuniform List<scalar> 
96
(
0.0371751
0.0457767
0.0555555
0.0666411
0.0792164
0.0937664
0.11242
0.137669
0.145308
0.158475
0.174919
0.193362
0.213166
0.234
0.25562
0.277809
0.300356
0.323042
0.345637
0.367902
0.389592
0.410411
0.429861
0.447818
0.46434
0.479324
0.492263
0.502979
0.511273
0.516979
0.519963
0.52013
0.51742
0.511815
0.503339
0.492062
0.478099
0.461583
0.442876
0.422128
0.399517
0.375337
0.349913
0.3236
0.296791
0.269896
0.243326
0.217483
0.192749
0.169485
0.148033
0.128732
0.111972
0.098677
0.0847503
0.0670397
0.0528781
0.0416845
0.0325695
0.0251818
0.0192785
0.0146279
0.011011
0.00823052
0.00611425
0.00451128
0.00328791
0.00235193
0.001648
0.00113482
0.000785847
0.000598995
0.000431722
0.000292221
0.000179662
-2.81923e-05
-0.00024672
-0.000312123
-0.000120133
1.47211e-05
1.08919e-05
6.90376e-05
0.000107946
0.000223515
0.000488674
0.000700022
0.00132807
0.00216199
0.00320868
0.00463531
0.00627578
0.00878234
0.0126456
0.017532
0.0230817
0.0296011
)
;
    }
    frontAndBack
    {
        type            empty;
    }
}


// ************************************************************************* //
