/*--------------------------------*- C++ -*----------------------------------*\
  =========                 |
  \\      /  F ield         | OpenFOAM: The Open Source CFD Toolbox
   \\    /   O peration     | Website:  https://openfoam.org
    \\  /    A nd           | Version:  11
     \\/     M anipulation  |
\*---------------------------------------------------------------------------*/
FoamFile
{
    format      ascii;
    class       surfaceScalarField;
    location    "1.68";
    object      phi;
}
// * * * * * * * * * * * * * * * * * * * * * * * * * * * * * * * * * * * * * //

dimensions      [0 3 -1 0 0 0 0];

internalField   nonuniform List<scalar> 
5640
(
-6.7705e-07
6.7705e-07
-1.41127e-06
7.34215e-07
-1.48947e-06
7.82059e-08
-5.9202e-07
-8.97451e-07
2.27582e-06
-2.86784e-06
-5.38481e-06
7.66063e-06
-7.75714e-07
1.45276e-06
-1.25321e-06
1.21171e-06
-1.04043e-06
-1.34576e-07
1.50058e-07
-2.08794e-06
2.45139e-06
-5.16917e-06
-9.45533e-06
6.52191e-06
-7.41806e-07
2.19457e-06
-1.03065e-06
1.50055e-06
-6.60965e-07
-5.04262e-07
5.87836e-07
-3.33674e-06
2.74323e-06
-7.32456e-06
-1.25974e-05
5.88532e-06
-6.89786e-07
2.88436e-06
-8.42413e-07
1.65318e-06
-3.94209e-07
-9.52465e-07
8.22973e-07
-4.55392e-06
2.79921e-06
-9.30079e-06
-1.51424e-05
5.34415e-06
-6.18018e-07
3.50237e-06
-6.86064e-07
1.72123e-06
-2.17072e-07
-1.42146e-06
9.05644e-07
-5.67663e-06
2.65525e-06
-1.10504e-05
-1.72659e-05
4.77882e-06
-5.36894e-07
4.03927e-06
-5.56353e-07
1.74069e-06
-1.11916e-07
-1.86589e-06
8.76518e-07
-6.66507e-06
2.3833e-06
-1.25572e-05
-1.9052e-05
4.16935e-06
-4.53263e-07
4.49253e-06
-4.50439e-07
1.73786e-06
-6.43327e-08
-2.252e-06
7.64903e-07
-7.4943e-06
2.03058e-06
-1.38229e-05
-2.05439e-05
3.52246e-06
-3.70785e-07
4.86332e-06
-3.64645e-07
1.73172e-06
-6.15415e-08
-2.5551e-06
5.92418e-07
-8.14826e-06
1.6214e-06
-1.48518e-05
-2.17667e-05
2.84428e-06
-2.90384e-07
5.1537e-06
-2.94526e-07
1.73586e-06
-9.14312e-08
-2.7582e-06
3.76205e-07
-8.6159e-06
1.16971e-06
-1.56453e-05
-2.27358e-05
2.13874e-06
-2.11705e-07
5.36541e-06
-2.35023e-07
1.75918e-06
-1.42829e-07
-2.85039e-06
1.30182e-07
-8.88891e-06
6.85917e-07
-1.62011e-05
-2.34603e-05
1.41047e-06
-1.33749e-07
5.49915e-06
-1.80652e-07
1.80608e-06
-2.05024e-07
-2.82602e-06
-1.33564e-07
-8.96037e-06
1.80032e-07
-1.65147e-05
-2.39464e-05
6.66063e-07
-5.50858e-08
5.55424e-06
-1.257e-07
1.8767e-06
-2.67569e-07
-2.68415e-06
-4.02013e-07
-8.82593e-06
-3.37802e-07
-1.65789e-05
-2.41919e-05
-9.22187e-08
2.56577e-08
5.52858e-06
-6.44644e-08
1.96682e-06
-3.19046e-07
-2.42957e-06
-6.60927e-07
-8.48405e-06
-8.52835e-07
-1.6387e-05
-2.4211e-05
-8.33786e-07
1.08933e-07
5.41965e-06
8.03295e-09
2.06772e-06
-3.48062e-07
-2.07348e-06
-8.95657e-07
-7.93645e-06
-1.35122e-06
-1.59314e-05
-2.3992e-05
-1.57025e-06
1.96419e-07
5.22323e-06
9.89724e-08
2.16517e-06
-3.43191e-07
-1.63131e-06
-1.09021e-06
-7.18943e-06
-1.81742e-06
-1.52042e-05
-2.35264e-05
-2.28297e-06
2.88443e-07
4.93479e-06
2.09892e-07
2.24372e-06
-2.93337e-07
-1.12808e-06
-1.22666e-06
-6.25611e-06
-2.23281e-06
-1.41981e-05
-2.28004e-05
-2.95886e-06
3.85265e-07
4.54952e-06
3.4389e-07
2.28509e-06
-1.88417e-07
-5.95776e-07
-1.2844e-06
-5.16012e-06
-2.5745e-06
-1.2908e-05
-2.17909e-05
-3.58401e-06
4.8708e-07
4.06244e-06
5.00974e-07
2.2712e-06
-2.49954e-08
-6.98061e-08
-1.23956e-06
-3.94556e-06
-2.81246e-06
-1.13351e-05
-2.04595e-05
-4.14386e-06
5.92631e-07
3.46981e-06
6.77482e-07
2.18635e-06
2.15644e-07
3.92032e-07
-1.06448e-06
-2.66543e-06
-2.90682e-06
-9.49273e-06
-1.8745e-05
-4.62132e-06
6.92754e-07
2.77706e-06
8.60886e-07
2.01822e-06
5.18189e-07
7.3473e-07
-7.28653e-07
-1.41859e-06
-2.80433e-06
-7.41705e-06
-1.65604e-05
-4.98893e-06
7.3893e-07
2.03813e-06
1.03259e-06
1.72455e-06
8.70927e-07
8.96396e-07
-1.8698e-07
-3.60685e-07
-2.43429e-06
-5.16975e-06
-1.37943e-05
-5.20031e-06
7.58793e-07
1.27933e-06
1.19053e-06
1.29282e-06
1.24474e-06
8.42179e-07
5.20538e-07
3.63522e-07
-1.70329e-06
-2.94592e-06
-1.03022e-05
-5.1954e-06
7.47082e-07
5.32252e-07
1.32066e-06
7.19241e-07
1.60479e-06
5.58049e-07
1.41907e-06
5.4924e-07
-5.72679e-07
-9.54175e-07
-5.84872e-06
-5.02617e-06
5.32252e-07
1.25149e-06
1.80954e-06
2.35878e-06
1.40461e-06
-4.44412e-06
8.6948e-06
-2.56342e-05
2.46001e-05
1.06194e-05
-3.42891e-05
3.23645e-05
1.25719e-05
-3.93827e-05
3.74302e-05
1.44881e-05
-4.27053e-05
4.07892e-05
1.62392e-05
-4.48665e-05
4.31154e-05
1.7785e-05
-4.63069e-05
4.47612e-05
1.91463e-05
-4.73207e-05
4.59594e-05
2.03622e-05
-4.80941e-05
4.68781e-05
2.14693e-05
-4.87407e-05
4.76336e-05
2.2494e-05
-4.93256e-05
4.8301e-05
2.34544e-05
-4.98833e-05
4.89228e-05
2.43629e-05
-5.04294e-05
4.95209e-05
2.52255e-05
-5.09686e-05
5.0106e-05
2.60443e-05
-5.14995e-05
5.06808e-05
2.68193e-05
-5.2018e-05
5.1243e-05
2.75502e-05
-5.25175e-05
5.17866e-05
2.82362e-05
-5.2989e-05
5.2303e-05
2.88766e-05
-5.34208e-05
5.27804e-05
2.94707e-05
-5.37976e-05
5.32035e-05
3.00186e-05
-5.41003e-05
5.35524e-05
3.05225e-05
-5.43052e-05
5.38013e-05
3.09886e-05
-5.43819e-05
5.39158e-05
3.14328e-05
-5.42855e-05
5.38414e-05
-5.39424e-05
5.34824e-05
8.3689e-06
-2.74812e-05
1.02368e-05
-3.61571e-05
1.20477e-05
-4.11936e-05
1.3664e-05
-4.43217e-05
1.50588e-05
-4.62613e-05
1.62545e-05
-4.75026e-05
1.72951e-05
-4.83612e-05
1.82235e-05
-4.90224e-05
1.90727e-05
-4.959e-05
1.98653e-05
-5.01183e-05
2.06144e-05
-5.06324e-05
2.13262e-05
-5.11412e-05
2.20027e-05
-5.16451e-05
2.26438e-05
-5.21407e-05
2.32487e-05
-5.26229e-05
2.38162e-05
-5.3085e-05
2.43454e-05
-5.35182e-05
2.4836e-05
-5.39114e-05
2.52887e-05
-5.42503e-05
2.57056e-05
-5.45171e-05
2.60912e-05
-5.46908e-05
2.64541e-05
-5.47448e-05
2.68114e-05
-5.46427e-05
-5.43302e-05
7.96887e-06
-2.95648e-05
9.71941e-06
-3.79076e-05
1.12776e-05
-4.27517e-05
1.25723e-05
-4.56164e-05
1.36356e-05
-4.73246e-05
1.45241e-05
-4.83911e-05
1.52893e-05
-4.91264e-05
1.59715e-05
-4.97047e-05
1.65988e-05
-5.02172e-05
1.71877e-05
-5.07072e-05
1.77464e-05
-5.11912e-05
1.82778e-05
-5.16726e-05
1.87816e-05
-5.21489e-05
1.92563e-05
-5.26154e-05
1.97001e-05
-5.30667e-05
2.01115e-05
-5.34964e-05
2.04899e-05
-5.38966e-05
2.08358e-05
-5.42573e-05
2.11512e-05
-5.45657e-05
2.144e-05
-5.4806e-05
2.17086e-05
-5.49593e-05
2.19665e-05
-5.50028e-05
2.22315e-05
-5.49077e-05
-5.46366e-05
7.39752e-06
-3.16181e-05
8.98966e-06
-3.94997e-05
1.02706e-05
-4.40326e-05
1.12626e-05
-4.66085e-05
1.20358e-05
-4.80977e-05
1.26595e-05
-4.90148e-05
1.31864e-05
-4.96533e-05
1.36529e-05
-5.01712e-05
1.40821e-05
-5.06463e-05
1.44857e-05
-5.11108e-05
1.48685e-05
-5.15739e-05
1.52307e-05
-5.20348e-05
1.55707e-05
-5.24889e-05
1.58862e-05
-5.29309e-05
1.61752e-05
-5.33557e-05
1.64361e-05
-5.37573e-05
1.66686e-05
-5.41292e-05
1.6874e-05
-5.44627e-05
1.70553e-05
-5.4747e-05
1.72177e-05
-5.49684e-05
1.73686e-05
-5.51102e-05
1.75183e-05
-5.51526e-05
1.76851e-05
-5.50745e-05
-5.48541e-05
6.69144e-06
-3.35308e-05
8.07905e-06
-4.08873e-05
9.08552e-06
-4.50391e-05
9.80229e-06
-4.73252e-05
1.03202e-05
-4.86157e-05
1.07117e-05
-4.94063e-05
1.10273e-05
-4.99689e-05
1.12997e-05
-5.04436e-05
1.15471e-05
-5.08937e-05
1.17778e-05
-5.13415e-05
1.19937e-05
-5.17899e-05
1.21938e-05
-5.22349e-05
1.23759e-05
-5.2671e-05
1.25376e-05
-5.30927e-05
1.26769e-05
-5.34949e-05
1.27922e-05
-5.38727e-05
1.28835e-05
-5.42205e-05
1.29522e-05
-5.45313e-05
1.30019e-05
-5.47966e-05
1.30384e-05
-5.50049e-05
1.30698e-05
-5.51416e-05
1.31068e-05
-5.51896e-05
1.31688e-05
-5.51365e-05
-5.49766e-05
5.87892e-06
-3.52403e-05
7.02876e-06
-4.20372e-05
7.77393e-06
-4.57843e-05
8.2424e-06
-4.77937e-05
8.533e-06
-4.89063e-05
8.71662e-06
-4.95899e-05
8.84072e-06
-5.0093e-05
8.93386e-06
-5.05367e-05
9.01053e-06
-5.09704e-05
9.07606e-06
-5.1407e-05
9.13094e-06
-5.18447e-05
9.1736e-06
-5.22776e-05
9.20191e-06
-5.26993e-05
9.21376e-06
-5.31045e-05
9.20739e-06
-5.34885e-05
9.18162e-06
-5.3847e-05
9.13625e-06
-5.41751e-05
9.07254e-06
-5.44676e-05
8.99383e-06
-5.47179e-05
8.90583e-06
-5.49169e-05
8.81594e-06
-5.50517e-05
8.73308e-06
-5.51067e-05
8.67889e-06
-5.50823e-05
-5.50022e-05
4.9846e-06
-3.67025e-05
5.88053e-06
-4.29331e-05
6.3803e-06
-4.62841e-05
6.62335e-06
-4.80368e-05
6.70785e-06
-4.89908e-05
6.70148e-06
-4.95835e-05
6.64794e-06
-5.00395e-05
6.57196e-06
-5.04607e-05
6.48491e-06
-5.08833e-05
6.39023e-06
-5.13123e-05
6.28769e-06
-5.17422e-05
6.17579e-06
-5.21657e-05
6.05288e-06
-5.25764e-05
5.9175e-06
-5.29691e-05
5.76851e-06
-5.33396e-05
5.60526e-06
-5.36837e-05
5.42771e-06
-5.39976e-05
5.23691e-06
-5.42768e-05
5.03548e-06
-5.45165e-05
4.8284e-06
-5.47099e-05
4.62276e-06
-5.48461e-05
4.41979e-06
-5.49037e-05
4.19339e-06
-5.48559e-05
-5.49501e-05
4.02985e-06
-3.7888e-05
4.66948e-06
-4.35727e-05
4.93997e-06
-4.65546e-05
4.97597e-06
-4.80728e-05
4.8704e-06
-4.88852e-05
4.68691e-06
-4.94001e-05
4.46538e-06
-4.98179e-05
4.22704e-06
-5.02224e-05
3.98082e-06
-5.06371e-05
3.72905e-06
-5.10605e-05
3.47128e-06
-5.14844e-05
3.20645e-06
-5.19008e-05
2.93354e-06
-5.23035e-05
2.6519e-06
-5.26875e-05
2.36128e-06
-5.30489e-05
2.06187e-06
-5.33843e-05
1.75445e-06
-5.36901e-05
1.44071e-06
-5.39631e-05
1.12344e-06
-5.41992e-05
8.07002e-07
-5.43934e-05
5.01756e-07
-5.45408e-05
2.43145e-07
-5.46451e-05
1.13721e-07
-5.47265e-05
-5.45303e-05
3.03454e-06
-3.87838e-05
3.42423e-06
-4.39624e-05
3.4806e-06
-4.66109e-05
3.32413e-06
-4.79163e-05
3.04052e-06
-4.86016e-05
2.68923e-06
-4.90488e-05
2.3064e-06
-4.94351e-05
1.91026e-06
-4.98263e-05
1.50798e-06
-5.02348e-05
1.10125e-06
-5.06538e-05
6.89744e-07
-5.10729e-05
2.72823e-07
-5.14839e-05
-1.499e-07
-5.18807e-05
-5.78436e-07
-5.22589e-05
-1.01241e-06
-5.2615e-05
-1.45102e-06
-5.29457e-05
-1.89302e-06
-5.32481e-05
-2.33659e-06
-5.35195e-05
-2.77911e-06
-5.37567e-05
-3.21593e-06
-5.39566e-05
-3.63874e-06
-5.4118e-05
-4.04467e-06
-5.42392e-05
-4.48241e-06
-5.42888e-05
-5.42316e-05
2.01634e-06
-3.93897e-05
2.16778e-06
-4.41139e-05
2.02393e-06
-4.64671e-05
1.68665e-06
-4.7579e-05
1.2341e-06
-4.81491e-05
7.2178e-07
-4.85365e-05
1.82436e-07
-4.88958e-05
-3.68173e-07
-4.92756e-05
-9.24072e-07
-4.96789e-05
-1.48392e-06
-5.0094e-05
-2.04779e-06
-5.05091e-05
-2.61592e-06
-5.09158e-05
-3.18824e-06
-5.13084e-05
-3.76439e-06
-5.16828e-05
-4.34372e-06
-5.20356e-05
-4.9253e-06
-5.23641e-05
-5.50787e-06
-5.26656e-05
-6.08984e-06
-5.29375e-05
-6.669e-06
-5.31775e-05
-7.24239e-06
-5.33832e-05
-7.80772e-06
-5.35527e-05
-8.36645e-06
-5.36805e-05
-8.9072e-06
-5.3748e-05
-5.37837e-05
9.90546e-07
-3.97142e-05
9.18802e-07
-4.40421e-05
5.87534e-07
-4.61358e-05
7.88898e-08
-4.70704e-05
-5.35717e-07
-4.75344e-05
-1.204e-06
-4.78682e-05
-1.89618e-06
-4.82036e-05
-2.59847e-06
-4.85734e-05
-3.30575e-06
-4.89717e-05
-4.01674e-06
-4.9383e-05
-4.73122e-06
-4.97946e-05
-5.44902e-06
-5.0198e-05
-6.16974e-06
-5.05877e-05
-6.89276e-06
-5.09598e-05
-7.61729e-06
-5.13111e-05
-8.34236e-06
-5.1639e-05
-9.06677e-06
-5.19412e-05
-9.78899e-06
-5.22153e-05
-1.0507e-05
-5.24595e-05
-1.12181e-05
-5.26721e-05
-1.19195e-05
-5.28513e-05
-1.26068e-05
-5.29931e-05
-1.32664e-05
-5.30884e-05
-5.31898e-05
-2.5544e-08
-3.97809e-05
-3.05894e-07
-4.37618e-05
-8.14272e-07
-4.56274e-05
-1.48693e-06
-4.63977e-05
-2.25782e-06
-4.67636e-05
-3.07794e-06
-4.7048e-05
-3.91985e-06
-4.73617e-05
-4.77123e-06
-4.7722e-05
-5.6275e-06
-4.81154e-05
-6.48731e-06
-4.85232e-05
-7.35007e-06
-4.89318e-05
-8.21522e-06
-4.93328e-05
-9.08205e-06
-4.97209e-05
-9.9497e-06
-5.00921e-05
-1.08172e-05
-5.04436e-05
-1.16835e-05
-5.07727e-05
-1.25473e-05
-5.10774e-05
-1.3407e-05
-5.13557e-05
-1.42603e-05
-5.16062e-05
-1.51044e-05
-5.1828e-05
-1.59357e-05
-5.202e-05
-1.67488e-05
-5.218e-05
-1.75334e-05
-5.23039e-05
-5.24597e-05
-1.02561e-06
-3.9589e-05
-1.49656e-06
-4.32908e-05
-2.16937e-06
-4.49546e-05
-2.99956e-06
-4.55675e-05
-3.92228e-06
-4.58408e-05
-4.89071e-06
-4.60796e-05
-5.87944e-06
-4.6373e-05
-6.87725e-06
-4.67242e-05
-7.87989e-06
-4.71127e-05
-8.88577e-06
-4.75173e-05
-9.89394e-06
-4.79236e-05
-1.09035e-05
-4.83233e-05
-1.19133e-05
-4.8711e-05
-1.29224e-05
-4.90831e-05
-1.39295e-05
-4.94364e-05
-1.49336e-05
-4.97686e-05
-1.59332e-05
-5.00778e-05
-1.69266e-05
-5.03623e-05
-1.79114e-05
-5.06214e-05
-1.88846e-05
-5.08547e-05
-1.98425e-05
-5.10622e-05
-2.07797e-05
-5.12428e-05
-2.16877e-05
-5.13958e-05
-5.15999e-05
-1.98945e-06
-3.91698e-05
-2.63658e-06
-4.26437e-05
-3.46761e-06
-4.41236e-05
-4.44979e-06
-4.45853e-05
-5.52015e-06
-4.47705e-05
-6.63361e-06
-4.49662e-05
-7.76628e-06
-4.52403e-05
-8.90771e-06
-4.55827e-05
-1.00538e-05
-4.59667e-05
-1.12026e-05
-4.63685e-05
-1.23528e-05
-4.67734e-05
-1.35032e-05
-4.7173e-05
-1.46523e-05
-4.75619e-05
-1.5799e-05
-4.79364e-05
-1.69419e-05
-4.82935e-05
-1.80797e-05
-4.86308e-05
-1.9211e-05
-4.89465e-05
-2.0334e-05
-4.92393e-05
-2.14463e-05
-4.95091e-05
-2.25448e-05
-4.97562e-05
-2.36258e-05
-4.99812e-05
-2.46844e-05
-5.01842e-05
-2.57135e-05
-5.03667e-05
-5.06146e-05
-2.90851e-06
-3.85443e-05
-3.71574e-06
-4.18365e-05
-4.69966e-06
-4.31397e-05
-5.82871e-06
-4.34563e-05
-7.043e-06
-4.35562e-05
-8.29843e-06
-4.37107e-05
-9.57213e-06
-4.39666e-05
-1.08542e-05
-4.43007e-05
-1.21404e-05
-4.46805e-05
-1.34286e-05
-4.50802e-05
-1.47171e-05
-4.54849e-05
-1.60044e-05
-4.58857e-05
-1.72887e-05
-4.62775e-05
-1.85688e-05
-4.66564e-05
-1.98431e-05
-4.70192e-05
-2.11104e-05
-4.73635e-05
-2.23691e-05
-4.76877e-05
-2.36175e-05
-4.7991e-05
-2.48532e-05
-4.82735e-05
-2.60731e-05
-4.85362e-05
-2.72737e-05
-4.87806e-05
-2.84504e-05
-4.90074e-05
-2.95972e-05
-4.922e-05
-4.95081e-05
-3.77193e-06
-3.77312e-05
-4.72342e-06
-4.0885e-05
-5.85529e-06
-4.20078e-05
-7.12753e-06
-4.2184e-05
-8.48284e-06
-4.22009e-05
-9.87742e-06
-4.23162e-05
-1.12892e-05
-4.25548e-05
-1.27086e-05
-4.28813e-05
-1.41314e-05
-4.32576e-05
-1.55552e-05
-4.36565e-05
-1.69779e-05
-4.40622e-05
-1.83977e-05
-4.4466e-05
-1.98128e-05
-4.48624e-05
-2.12217e-05
-4.52474e-05
-2.2623e-05
-4.56179e-05
-2.40151e-05
-4.59714e-05
-2.53968e-05
-4.63061e-05
-2.6766e-05
-4.66217e-05
-2.81207e-05
-4.69188e-05
-2.94578e-05
-4.71992e-05
-3.07738e-05
-4.74646e-05
-3.20648e-05
-4.77164e-05
-3.33255e-05
-4.79592e-05
-4.82845e-05
-4.56769e-06
-3.67475e-05
-5.64885e-06
-3.98038e-05
-6.9237e-06
-4.07329e-05
-8.33799e-06
-4.07697e-05
-9.83226e-06
-4.07066e-05
-1.13634e-05
-4.0785e-05
-1.29103e-05
-4.10079e-05
-1.44636e-05
-4.13279e-05
-1.60192e-05
-4.17021e-05
-1.75742e-05
-4.21015e-05
-1.91266e-05
-4.25098e-05
-2.06743e-05
-4.29183e-05
-2.22154e-05
-4.33212e-05
-2.37484e-05
-4.37145e-05
-2.52717e-05
-4.40947e-05
-2.67839e-05
-4.44591e-05
-2.82836e-05
-4.48064e-05
-2.9769e-05
-4.51363e-05
-3.12379e-05
-4.54499e-05
-3.26874e-05
-4.57496e-05
-3.41143e-05
-4.60376e-05
-3.55152e-05
-4.63156e-05
-3.68857e-05
-4.65887e-05
-4.69481e-05
-5.28014e-06
-3.56112e-05
-6.47928e-06
-3.86047e-05
-7.89602e-06
-3.93162e-05
-9.45271e-06
-3.92131e-05
-1.10845e-05
-3.90749e-05
-1.27498e-05
-3.91197e-05
-1.44287e-05
-3.93289e-05
-1.61124e-05
-3.96443e-05
-1.77965e-05
-4.0018e-05
-1.94783e-05
-4.04197e-05
-2.11555e-05
-4.08326e-05
-2.28261e-05
-4.12477e-05
-2.44881e-05
-4.16592e-05
-2.614e-05
-4.20627e-05
-2.77801e-05
-4.24545e-05
-2.94072e-05
-4.28321e-05
-3.10198e-05
-4.31938e-05
-3.26161e-05
-4.35399e-05
-3.4194e-05
-4.3872e-05
-3.57509e-05
-4.41928e-05
-3.72837e-05
-4.45048e-05
-3.87895e-05
-4.48098e-05
-4.02651e-05
-4.51131e-05
-4.55039e-05
-5.88981e-06
-3.43428e-05
-7.19971e-06
-3.72948e-05
-8.76239e-06
-3.77535e-05
-1.04638e-05
-3.75117e-05
-1.22331e-05
-3.73055e-05
-1.40308e-05
-3.7322e-05
-1.58388e-05
-3.7521e-05
-1.76488e-05
-3.78343e-05
-1.94569e-05
-3.82099e-05
-2.12605e-05
-3.86161e-05
-2.30574e-05
-3.90357e-05
-2.48455e-05
-3.94595e-05
-2.6623e-05
-3.98817e-05
-2.83882e-05
-4.02974e-05
-3.01397e-05
-4.0703e-05
-3.18762e-05
-4.10956e-05
-3.35961e-05
-4.14739e-05
-3.52977e-05
-4.18382e-05
-3.6979e-05
-4.21907e-05
-3.86375e-05
-4.25343e-05
-4.02707e-05
-4.28716e-05
-4.18762e-05
-4.32043e-05
-4.34518e-05
-4.35375e-05
-4.39574e-05
-6.3696e-06
-3.29621e-05
-7.79533e-06
-3.58691e-05
-9.51316e-06
-3.60357e-05
-1.13642e-05
-3.56606e-05
-1.32732e-05
-3.53965e-05
-1.52021e-05
-3.53931e-05
-1.71357e-05
-3.55874e-05
-1.90677e-05
-3.59022e-05
-2.09949e-05
-3.62827e-05
-2.29149e-05
-3.66961e-05
-2.48258e-05
-3.71248e-05
-2.67256e-05
-3.75597e-05
-2.86127e-05
-3.79946e-05
-3.04854e-05
-3.84247e-05
-3.23424e-05
-3.88461e-05
-3.41822e-05
-3.92558e-05
-3.60035e-05
-3.96526e-05
-3.78045e-05
-4.00372e-05
-3.95831e-05
-4.04121e-05
-4.13373e-05
-4.07802e-05
-4.30649e-05
-4.1144e-05
-4.47643e-05
-4.15048e-05
-4.64343e-05
-4.18675e-05
-4.23143e-05
-6.68285e-06
-3.14796e-05
-8.25112e-06
-3.43008e-05
-1.0139e-05
-3.41478e-05
-1.21498e-05
-3.36499e-05
-1.42014e-05
-3.33449e-05
-1.62603e-05
-3.33342e-05
-1.8316e-05
-3.35317e-05
-2.03651e-05
-3.38531e-05
-2.24057e-05
-3.42421e-05
-2.44362e-05
-3.46656e-05
-2.64549e-05
-3.51061e-05
-2.84602e-05
-3.55543e-05
-3.04506e-05
-3.60043e-05
-3.24244e-05
-3.64509e-05
-3.43804e-05
-3.68901e-05
-3.63172e-05
-3.73189e-05
-3.82335e-05
-3.77364e-05
-4.01275e-05
-3.81433e-05
-4.19971e-05
-3.85424e-05
-4.38406e-05
-3.89367e-05
-4.56563e-05
-3.93283e-05
-4.74433e-05
-3.97178e-05
-4.92013e-05
-4.01094e-05
-4.05805e-05
-6.77611e-06
-2.98988e-05
-8.54327e-06
-3.25336e-05
-1.06322e-05
-3.20589e-05
-1.28192e-05
-3.14629e-05
-1.50168e-05
-3.11474e-05
-1.72038e-05
-3.11472e-05
-1.93772e-05
-3.13583e-05
-2.15378e-05
-3.16924e-05
-2.36857e-05
-3.20943e-05
-2.582e-05
-3.25313e-05
-2.79398e-05
-3.29863e-05
-3.00437e-05
-3.34504e-05
-3.21303e-05
-3.39176e-05
-3.41984e-05
-3.43829e-05
-3.62466e-05
-3.48419e-05
-3.82736e-05
-3.52919e-05
-4.02781e-05
-3.57319e-05
-4.22583e-05
-3.61631e-05
-4.42124e-05
-3.65883e-05
-4.61387e-05
-3.70105e-05
-4.80358e-05
-3.74313e-05
-4.99029e-05
-3.78507e-05
-5.17407e-05
-3.82716e-05
-3.87607e-05
-6.5128e-06
-2.84122e-05
-8.6377e-06
-3.04087e-05
-1.09962e-05
-2.97004e-05
-1.3378e-05
-2.9081e-05
-1.57222e-05
-2.88032e-05
-1.80331e-05
-2.88363e-05
-2.03185e-05
-2.90728e-05
-2.2584e-05
-2.9427e-05
-2.48319e-05
-2.98464e-05
-2.70628e-05
-3.03004e-05
-2.92762e-05
-3.07729e-05
-3.14712e-05
-3.12555e-05
-3.36466e-05
-3.17422e-05
-3.58014e-05
-3.22281e-05
-3.79343e-05
-3.2709e-05
-4.00441e-05
-3.3182e-05
-4.21295e-05
-3.36465e-05
-4.41888e-05
-3.41038e-05
-4.62204e-05
-3.45567e-05
-4.82228e-05
-3.5008e-05
-5.01949e-05
-3.54591e-05
-5.21358e-05
-3.59098e-05
-5.4045e-05
-3.63625e-05
-3.68625e-05
-5.55668e-06
-2.72996e-05
-8.54724e-06
-2.74182e-05
-1.12632e-05
-2.69844e-05
-1.3841e-05
-2.65032e-05
-1.63247e-05
-2.63194e-05
-1.87513e-05
-2.64098e-05
-2.11406e-05
-2.66836e-05
-2.35027e-05
-2.70649e-05
-2.58424e-05
-2.75067e-05
-2.81616e-05
-2.79811e-05
-3.04605e-05
-2.8474e-05
-3.27384e-05
-2.89775e-05
-3.49946e-05
-2.9486e-05
-3.7228e-05
-2.99946e-05
-3.94376e-05
-3.04994e-05
-4.16222e-05
-3.09975e-05
-4.37804e-05
-3.14883e-05
-4.59109e-05
-3.19733e-05
-4.80124e-05
-3.24552e-05
-5.00839e-05
-3.29366e-05
-5.21246e-05
-3.34184e-05
-5.41338e-05
-3.39007e-05
-5.61098e-05
-3.43865e-05
-3.48975e-05
-4.58989e-07
4.58989e-07
-1.39449e-06
9.35498e-07
-2.33515e-06
9.40663e-07
-2.7529e-06
4.17754e-07
-1.93666e-06
-8.1624e-07
-1.98391e-06
4.72412e-08
-6.18044e-07
1.07703e-06
-1.47029e-06
1.78774e-06
-2.20688e-06
1.67725e-06
-2.6319e-06
8.42775e-07
-2.55875e-06
-8.89384e-07
-3.25675e-06
-1.28591e-06
-6.65098e-07
1.74213e-06
-1.39857e-06
2.52121e-06
-2.02891e-06
2.3076e-06
-2.45389e-06
1.26775e-06
-2.60527e-06
-7.38006e-07
-3.6391e-06
-2.22292e-06
-6.68616e-07
2.41075e-06
-1.3016e-06
3.1542e-06
-1.8623e-06
2.8683e-06
-2.30384e-06
1.70929e-06
-2.64825e-06
-3.93596e-07
-3.33068e-06
-2.95667e-06
-6.4262e-07
3.05337e-06
-1.19268e-06
3.70426e-06
-1.70833e-06
3.38395e-06
-2.19006e-06
2.19102e-06
-2.72193e-06
1.38274e-07
-2.57395e-06
-3.47865e-06
-5.94941e-07
3.64831e-06
-1.07404e-06
4.18336e-06
-1.55903e-06
3.86893e-06
-2.09159e-06
2.72359e-06
-2.78627e-06
8.32948e-07
-1.53814e-06
-3.82208e-06
-5.30795e-07
4.17911e-06
-9.45677e-07
4.59824e-06
-1.40589e-06
4.32915e-06
-1.98582e-06
3.30352e-06
-2.80809e-06
1.65522e-06
-3.29448e-07
-4.01678e-06
-4.53491e-07
4.6326e-06
-8.06655e-07
4.9514e-06
-1.24147e-06
4.76396e-06
-1.85533e-06
3.91738e-06
-2.76675e-06
2.56664e-06
9.82393e-07
-4.07859e-06
-3.6553e-07
4.99813e-06
-6.55916e-07
5.24179e-06
-1.0595e-06
5.16754e-06
-1.68798e-06
4.54586e-06
-2.65121e-06
3.52987e-06
2.34761e-06
-4.01643e-06
-2.68754e-07
5.26688e-06
-4.92793e-07
5.46583e-06
-8.55311e-07
5.53006e-06
-1.47564e-06
5.16619e-06
-2.45532e-06
4.50955e-06
3.72812e-06
-3.83583e-06
-1.64556e-07
5.43144e-06
-3.17262e-07
5.61853e-06
-6.25977e-07
5.83878e-06
-1.2133e-06
5.75351e-06
-2.17584e-06
5.47209e-06
5.09255e-06
-3.54027e-06
-5.42412e-08
5.48568e-06
-1.30037e-07
5.69433e-06
-3.70317e-07
6.07906e-06
-8.98481e-07
6.28168e-06
-1.81132e-06
6.38493e-06
6.41308e-06
-3.13185e-06
5.99591e-08
5.42572e-06
6.72869e-08
5.687e-06
-8.89526e-08
6.2353e-06
-5.30964e-07
6.72369e-06
-1.3619e-06
7.21586e-06
7.66314e-06
-2.61196e-06
1.757e-07
5.25002e-06
2.72272e-07
5.59043e-06
2.15457e-07
6.29211e-06
-1.12989e-07
7.05213e-06
-8.2913e-07
7.932e-06
8.81535e-06
-1.98134e-06
2.907e-07
4.95932e-06
4.80919e-07
5.40021e-06
5.38169e-07
6.23486e-06
3.50726e-07
7.23958e-06
-2.16136e-07
8.49887e-06
9.83974e-06
-1.24053e-06
4.01226e-07
4.55809e-06
6.87967e-07
5.11347e-06
8.71963e-07
6.05087e-06
8.5232e-07
7.25922e-06
4.7173e-07
8.87946e-06
1.07025e-05
-3.90984e-07
5.02683e-07
4.05541e-06
8.86495e-07
4.72965e-06
1.20691e-06
5.73046e-06
1.38041e-06
7.08571e-06
1.22616e-06
9.0337e-06
1.13617e-05
5.6695e-07
5.8919e-07
3.46622e-06
1.06783e-06
4.25101e-06
1.53018e-06
5.2681e-06
1.91936e-06
6.69654e-06
2.03427e-06
8.9188e-06
1.17647e-05
1.63119e-06
6.53301e-07
2.81292e-06
1.22159e-06
3.68272e-06
1.82613e-06
4.66356e-06
2.44849e-06
6.07417e-06
2.87656e-06
8.49073e-06
1.18471e-05
2.79422e-06
6.86134e-07
2.12678e-06
1.33603e-06
3.03283e-06
2.07658e-06
3.92301e-06
2.9415e-06
5.20926e-06
3.72485e-06
7.70738e-06
1.15211e-05
4.05084e-06
6.78432e-07
1.44835e-06
1.39873e-06
2.31253e-06
2.26145e-06
3.06029e-06
3.36535e-06
4.10536e-06
4.53872e-06
6.534e-06
1.06582e-05
5.40166e-06
6.2342e-07
8.24933e-07
1.39755e-06
1.53839e-06
2.35898e-06
2.09886e-06
3.67544e-06
2.78891e-06
5.26063e-06
4.94881e-06
9.01205e-06
6.90675e-06
5.15776e-07
3.09156e-07
1.31445e-06
7.39718e-07
2.34002e-06
1.07329e-06
3.79206e-06
1.33687e-06
5.81473e-06
2.92614e-06
5.92807e-06
8.89871e-06
3.09156e-07
1.04887e-06
2.12217e-06
3.45904e-06
6.38518e-06
1.23132e-05
-5.08272e-06
-2.21697e-05
-8.50991e-06
-2.3991e-05
-1.14878e-05
-2.40065e-05
-1.42289e-05
-2.37621e-05
-1.68338e-05
-2.37145e-05
-1.93627e-05
-2.38808e-05
-2.18448e-05
-2.42016e-05
-2.42937e-05
-2.4616e-05
-2.67159e-05
-2.50845e-05
-2.91143e-05
-2.55827e-05
-3.14897e-05
-2.60986e-05
-3.38419e-05
-2.66254e-05
-3.61702e-05
-2.71577e-05
-3.84738e-05
-2.7691e-05
-4.07517e-05
-2.82215e-05
-4.30026e-05
-2.87465e-05
-4.52254e-05
-2.92656e-05
-4.74188e-05
-2.97798e-05
-4.95821e-05
-3.02919e-05
-5.17147e-05
-3.08039e-05
-5.38168e-05
-3.13164e-05
-5.5888e-05
-3.18294e-05
-5.7928e-05
-3.23465e-05
-3.28771e-05
-5.15099e-06
-1.83046e-05
-8.63959e-06
-2.05024e-05
-1.17217e-05
-2.09244e-05
-1.45616e-05
-2.09222e-05
-1.72581e-05
-2.10179e-05
-1.98714e-05
-2.12676e-05
-2.24327e-05
-2.16403e-05
-2.4957e-05
-2.20917e-05
-2.74513e-05
-2.25902e-05
-2.9919e-05
-2.3115e-05
-3.23614e-05
-2.36562e-05
-3.47786e-05
-2.42082e-05
-3.71701e-05
-2.47662e-05
-3.95352e-05
-2.53259e-05
-4.18728e-05
-2.58839e-05
-4.41816e-05
-2.64377e-05
-4.64605e-05
-2.69866e-05
-4.87087e-05
-2.75316e-05
-5.09258e-05
-2.80749e-05
-5.31117e-05
-2.8618e-05
-5.52668e-05
-2.91613e-05
-5.73915e-05
-2.97047e-05
-5.94871e-05
-3.02509e-05
-3.08067e-05
-5.55834e-06
-1.49692e-05
-8.88024e-06
-1.71805e-05
-1.19588e-05
-1.78459e-05
-1.48441e-05
-1.80369e-05
-1.76018e-05
-1.82603e-05
-2.02794e-05
-1.85899e-05
-2.29047e-05
-1.90149e-05
-2.54917e-05
-1.95048e-05
-2.80469e-05
-2.00349e-05
-3.05737e-05
-2.05883e-05
-3.30732e-05
-2.11567e-05
-3.55458e-05
-2.17355e-05
-3.79913e-05
-2.23207e-05
-4.04088e-05
-2.29084e-05
-4.27974e-05
-2.34954e-05
-4.51556e-05
-2.40794e-05
-4.74826e-05
-2.46597e-05
-4.97775e-05
-2.52367e-05
-5.20403e-05
-2.58121e-05
-5.42714e-05
-2.63869e-05
-5.64713e-05
-2.69614e-05
-5.86407e-05
-2.75352e-05
-6.07808e-05
-2.81108e-05
-2.86932e-05
-5.97346e-06
-1.19524e-05
-9.13245e-06
-1.40215e-05
-1.21697e-05
-1.48086e-05
-1.50681e-05
-1.51386e-05
-1.78623e-05
-1.54661e-05
-2.05857e-05
-1.58665e-05
-2.32599e-05
-1.63408e-05
-2.58963e-05
-1.68683e-05
-2.85007e-05
-1.74305e-05
-3.10758e-05
-1.80133e-05
-3.36224e-05
-1.86101e-05
-3.61408e-05
-1.92171e-05
-3.86308e-05
-1.98307e-05
-4.10917e-05
-2.04475e-05
-4.35223e-05
-2.10648e-05
-4.59213e-05
-2.16804e-05
-4.82878e-05
-2.22932e-05
-5.06211e-05
-2.29034e-05
-5.29214e-05
-2.35118e-05
-5.51892e-05
-2.41191e-05
-5.74254e-05
-2.47252e-05
-5.96304e-05
-2.53302e-05
-6.18056e-05
-2.59356e-05
-2.65454e-05
-6.31057e-06
-9.12047e-06
-9.33826e-06
-1.09938e-05
-1.23266e-05
-1.18203e-05
-1.52206e-05
-1.22445e-05
-1.80341e-05
-1.26527e-05
-2.07874e-05
-1.31132e-05
-2.34959e-05
-1.36322e-05
-2.61688e-05
-1.41955e-05
-2.88105e-05
-1.47888e-05
-3.14228e-05
-1.54009e-05
-3.40062e-05
-1.60267e-05
-3.65607e-05
-1.66626e-05
-3.90858e-05
-1.73056e-05
-4.15808e-05
-1.79526e-05
-4.40445e-05
-1.86011e-05
-4.64755e-05
-1.92493e-05
-4.88729e-05
-1.98958e-05
-5.12361e-05
-2.05402e-05
-5.35653e-05
-2.11826e-05
-5.58613e-05
-2.1823e-05
-5.81249e-05
-2.24617e-05
-6.03567e-05
-2.30983e-05
-6.2558e-05
-2.37343e-05
-2.43722e-05
-6.53977e-06
-6.40278e-06
-9.46881e-06
-8.06477e-06
-1.24092e-05
-8.87991e-06
-1.52898e-05
-9.36393e-06
-1.81098e-05
-9.83268e-06
-2.08795e-05
-1.03434e-05
-2.36098e-05
-1.0902e-05
-2.6307e-05
-1.14982e-05
-2.89746e-05
-1.21213e-05
-3.16133e-05
-1.27622e-05
-3.4223e-05
-1.34169e-05
-3.68035e-05
-1.40821e-05
-3.93541e-05
-1.47549e-05
-4.18739e-05
-1.54328e-05
-4.43616e-05
-1.61134e-05
-4.68158e-05
-1.67951e-05
-4.92354e-05
-1.74763e-05
-5.16198e-05
-1.81558e-05
-5.39694e-05
-1.8833e-05
-5.62849e-05
-1.95076e-05
-5.85671e-05
-2.01795e-05
-6.08167e-05
-2.08487e-05
-6.30349e-05
-2.15161e-05
-2.21827e-05
-6.65196e-06
-3.7676e-06
-9.50675e-06
-5.20999e-06
-1.24031e-05
-5.98358e-06
-1.5265e-05
-6.50205e-06
-1.80816e-05
-7.01604e-06
-2.08568e-05
-7.56816e-06
-2.35977e-05
-8.16112e-06
-2.63087e-05
-8.78716e-06
-2.89917e-05
-9.43829e-06
-3.16465e-05
-1.01075e-05
-3.42724e-05
-1.0791e-05
-3.68689e-05
-1.14857e-05
-3.94351e-05
-1.21887e-05
-4.19701e-05
-1.28978e-05
-4.44724e-05
-1.36111e-05
-4.69407e-05
-1.43268e-05
-4.93737e-05
-1.50433e-05
-5.17707e-05
-1.57588e-05
-5.41319e-05
-1.64718e-05
-5.64581e-05
-1.71814e-05
-5.875e-05
-1.78875e-05
-6.10085e-05
-1.85903e-05
-6.32346e-05
-1.92899e-05
-1.99862e-05
-6.64702e-06
-1.19918e-06
-9.44235e-06
-2.41466e-06
-1.22981e-05
-3.12787e-06
-1.51373e-05
-3.66283e-06
-1.7943e-05
-4.2103e-06
-2.07151e-05
-4.7961e-06
-2.34573e-05
-5.41884e-06
-2.61724e-05
-6.07212e-06
-2.88608e-05
-6.74986e-06
-3.15217e-05
-7.44663e-06
-3.41538e-05
-8.1588e-06
-3.67564e-05
-8.88307e-06
-3.93285e-05
-9.61662e-06
-4.1869e-05
-1.03573e-05
-4.43766e-05
-1.11035e-05
-4.68497e-05
-1.18537e-05
-4.9287e-05
-1.2606e-05
-5.16878e-05
-1.33581e-05
-5.40519e-05
-1.41076e-05
-5.63801e-05
-1.48532e-05
-5.8673e-05
-1.55946e-05
-6.09313e-05
-1.6332e-05
-6.31563e-05
-1.70649e-05
-1.77917e-05
-6.52557e-06
1.30996e-06
-9.26927e-06
3.29046e-07
-1.20866e-05
-3.10558e-07
-1.49007e-05
-8.48716e-07
-1.76906e-05
-1.42044e-06
-2.04523e-05
-2.03433e-06
-2.31875e-05
-2.68367e-06
-2.58973e-05
-3.36236e-06
-2.85814e-05
-4.0657e-06
-3.12385e-05
-4.78956e-06
-3.38671e-05
-5.53022e-06
-3.6466e-05
-6.28412e-06
-3.90343e-05
-7.04834e-06
-4.15708e-05
-7.82082e-06
-4.40741e-05
-8.60017e-06
-4.65428e-05
-9.38501e-06
-4.89755e-05
-1.01734e-05
-5.13711e-05
-1.09625e-05
-5.37293e-05
-1.17494e-05
-5.60506e-05
-1.25319e-05
-5.83357e-05
-1.33096e-05
-6.05851e-05
-1.40825e-05
-6.28001e-05
-1.48499e-05
-1.56085e-05
-6.28724e-06
3.76138e-06
-8.98368e-06
3.02548e-06
-1.17644e-05
2.47018e-06
-1.45522e-05
1.93906e-06
-1.73221e-05
1.34946e-06
-2.00672e-05
7.10786e-07
-2.27873e-05
3.64658e-08
-2.5483e-05
-6.66672e-07
-2.81536e-05
-1.39513e-06
-3.07974e-05
-2.1458e-06
-3.34127e-05
-2.91487e-06
-3.59984e-05
-3.69845e-06
-3.85533e-05
-4.49346e-06
-4.10762e-05
-5.29785e-06
-4.3566e-05
-6.11039e-06
-4.60211e-05
-6.92987e-06
-4.84402e-05
-7.75436e-06
-5.08218e-05
-8.58081e-06
-5.31655e-05
-9.40564e-06
-5.54714e-05
-1.02261e-05
-5.77398e-05
-1.10411e-05
-5.99715e-05
-1.18509e-05
-6.21675e-05
-1.26539e-05
-1.34457e-05
-5.93143e-06
6.15253e-06
-8.58288e-06
5.67693e-06
-1.13289e-05
5.2162e-06
-1.40898e-05
4.69996e-06
-1.68364e-05
4.09609e-06
-1.95593e-05
3.43362e-06
-2.22571e-05
2.73431e-06
-2.49303e-05
2.00656e-06
-2.75784e-05
1.2529e-06
-3.01995e-05
4.75359e-07
-3.27922e-05
-3.22184e-07
-3.53551e-05
-1.13554e-06
-3.78872e-05
-1.96142e-06
-4.03872e-05
-2.79778e-06
-4.28542e-05
-3.64347e-06
-4.52866e-05
-4.49746e-06
-4.7683e-05
-5.35796e-06
-5.00419e-05
-6.22185e-06
-5.23625e-05
-7.0851e-06
-5.46443e-05
-7.94429e-06
-5.68875e-05
-8.79789e-06
-5.90926e-05
-9.64579e-06
-6.12607e-05
-1.04858e-05
-1.13122e-05
-5.45746e-06
8.47814e-06
-8.06497e-06
8.28445e-06
-1.07785e-05
7.9297e-06
-1.35127e-05
7.43414e-06
-1.62335e-05
6.8169e-06
-1.89291e-05
6.12929e-06
-2.15981e-05
5.40324e-06
-2.42409e-05
4.64945e-06
-2.68578e-05
3.86976e-06
-2.94473e-05
3.0649e-06
-3.20081e-05
2.2386e-06
-3.4539e-05
1.39529e-06
-3.70388e-05
5.38416e-07
-3.95067e-05
-3.29921e-07
-4.19415e-05
-1.20864e-06
-4.4342e-05
-2.09692e-06
-4.67068e-05
-2.99317e-06
-4.90343e-05
-3.89438e-06
-5.1323e-05
-4.79634e-06
-5.35723e-05
-5.69506e-06
-5.57818e-05
-6.58841e-06
-5.79517e-05
-7.4758e-06
-6.00832e-05
-8.35437e-06
-9.21692e-06
-4.86455e-06
1.07307e-05
-7.4284e-06
1.08483e-05
-1.01124e-05
1.06137e-05
-1.2821e-05
1.01427e-05
-1.55143e-05
9.5102e-06
-1.81787e-05
8.79365e-06
-2.08126e-05
8.03718e-06
-2.34177e-05
7.25457e-06
-2.59951e-05
6.44716e-06
-2.85442e-05
5.61398e-06
-3.1064e-05
4.75836e-06
-3.35535e-05
3.8848e-06
-3.60119e-05
2.99681e-06
-3.84383e-05
2.09651e-06
-4.08319e-05
1.18492e-06
-4.31915e-05
2.62673e-07
-4.55157e-05
-6.68943e-07
-4.78029e-05
-1.6072e-06
-5.00513e-05
-2.54792e-06
-5.22596e-05