/*--------------------------------*- C++ -*----------------------------------*\
  =========                 |
  \\      /  F ield         | OpenFOAM: The Open Source CFD Toolbox
   \\    /   O peration     | Website:  https://openfoam.org
    \\  /    A nd           | Version:  11
     \\/     M anipulation  |
\*---------------------------------------------------------------------------*/
FoamFile
{
    format      ascii;
    class       volVectorField;
    location    "1.68";
    object      U;
}
// * * * * * * * * * * * * * * * * * * * * * * * * * * * * * * * * * * * * * //

dimensions      [0 1 -1 0 0 0 0];

internalField   nonuniform List<vector> 
2880
(
(-0.0805004 -0.0560636 4.43605e-19)
(-0.149263 -0.164052 1.03192e-20)
(-0.151413 -0.179082 -2.89301e-19)
(-0.100885 -0.0912588 -2.91991e-19)
(-0.000911202 0.0255269 3.37048e-20)
(0.191304 0.39668 -2.95926e-20)
(-0.125701 -0.0890584 -1.39294e-20)
(-0.158762 -0.156077 9.80635e-21)
(-0.127353 -0.14594 1.38536e-19)
(-0.046339 -0.0478556 0)
(0.0822968 0.0740406 0)
(0.313667 0.287356 -5.72081e-20)
(-0.144097 -0.096704 0)
(-0.154458 -0.13919 1.46101e-19)
(-0.0933047 -0.115161 1.20414e-19)
(0.0172946 -0.0212632 -2.63189e-20)
(0.182057 0.0960555 2.24243e-20)
(0.415278 0.256437 7.44943e-20)
(-0.161857 -0.0986558 2.20562e-19)
(-0.148089 -0.125401 -1.40545e-19)
(-0.0618008 -0.0906665 1.06282e-19)
(0.0733993 -0.00267854 9.23277e-20)
(0.26077 0.108947 1.82066e-20)
(0.500925 0.240104 -1.62455e-20)
(-0.184195 -0.0947737 -2.09923e-19)
(-0.140506 -0.113152 -6.3115e-20)
(-0.0334723 -0.0713081 -5.2279e-20)
(0.122336 0.0108598 -1.32697e-19)
(0.327146 0.115115 0)
(0.57194 0.229241 0)
(-0.199591 -0.0914034 -5.07444e-20)
(-0.13279 -0.101639 6.05497e-20)
(-0.00876449 -0.0558877 -4.80358e-20)
(0.164091 0.0210447 6.29008e-20)
(0.382821 0.118678 2.20143e-20)
(0.630781 0.222796 -3.82905e-21)
(-0.212017 -0.0885324 5.09109e-20)
(-0.125769 -0.0911688 -2.24153e-22)
(0.0119043 -0.0435127 0)
(0.198817 0.0288247 -2.10537e-20)
(0.429348 0.12158 -1.72807e-20)
(0.679717 0.220835 0)
(-0.222786 -0.0866154 7.685e-22)
(-0.120109 -0.0818351 5.70153e-20)
(0.0282121 -0.0335625 -4.53892e-20)
(0.226664 0.0348053 0)
(0.467704 0.124482 -3.53524e-20)
(0.720211 0.222664 0)
(-0.231768 -0.0857786 -1.5202e-21)
(-0.116225 -0.073598 -5.30769e-20)
(0.0399398 -0.025611 4.38768e-20)
(0.247749 0.0393424 0)
(0.498459 0.127505 3.56165e-20)
(0.753086 0.227075 -3.15847e-20)
(-0.238677 -0.085814 -5.9537e-21)
(-0.11437 -0.0663361 1.00034e-20)
(0.0469368 -0.0193395 1.00488e-22)
(0.26214 0.0425257 -4.78749e-21)
(0.521917 0.130445 8.07821e-20)
(0.778894 0.23287 8.14418e-21)
(-0.243466 -0.0863356 1.90937e-19)
(-0.114699 -0.059877 -3.28223e-21)
(0.0490875 -0.0144742 -7.42384e-20)
(0.269845 0.0443294 -9.30995e-21)
(0.538189 0.132878 -9.06461e-20)
(0.798 0.239092 1.64597e-20)
(-0.246252 -0.0868805 -1.85186e-19)
(-0.117295 -0.0540127 1.31971e-20)
(0.0462778 -0.0107709 7.51918e-20)
(0.2706 0.0446565 1.32223e-19)
(0.547148 0.134437 -6.88455e-22)
(0.810732 0.244998 1.67669e-20)
(-0.247019 -0.0868806 -3.59105e-19)
(-0.122199 -0.0485332 0)
(0.0384068 -0.00797154 -1.7001e-19)
(0.264352 0.0435693 -1.57319e-19)
(0.548493 0.134837 1.49027e-19)
(0.817652 0.25005 3.47173e-20)
(-0.24592 -0.0859266 7.78924e-21)
(-0.129367 -0.0432593 0)
(0.0253936 -0.00579676 3.42509e-19)
(0.250662 0.0409397 1.56122e-19)
(0.541763 0.133678 -3.01146e-19)
(0.818631 0.253665 0)
(-0.243065 -0.0833425 3.61683e-19)
(-0.138561 -0.0379935 -2.15072e-19)
(0.00718473 -0.00396377 -3.43871e-19)
(0.229204 0.0367264 -1.57989e-19)
(0.526259 0.130574 1.52213e-19)
(0.813441 0.255253 -1.83294e-19)
(-0.238771 -0.0786709 -1.13356e-20)
(-0.14949 -0.0325444 4.46832e-19)
(-0.0161814 -0.00217848 1.73764e-19)
(0.199595 0.0309005 -2.0652e-20)
(0.501014 0.125217 1.72341e-19)
(0.801641 0.25411 1.47265e-19)
(-0.233406 -0.0713387 0)
(-0.161783 -0.026759 -5.65358e-23)
(-0.044487 -0.000172517 -1.73199e-19)
(0.161519 0.0235358 0)
(0.464681 0.117481 -3.10626e-19)
(0.782483 0.249288 1.503e-19)
(-0.22793 -0.0609113 -3.62519e-19)
(-0.174939 -0.0206065 -2.46537e-19)
(-0.0772064 0.00221505 3.62317e-19)
(0.114819 0.0148824 -1.72915e-19)
(0.415224 0.107376 1.75166e-19)
(0.754987 0.239547 -1.5145e-19)
(-0.224372 -0.0481955 3.64315e-19)
(-0.188184 -0.0143404 -1.47161e-20)
(-0.113136 0.0050859 -1.67159e-19)
(0.0595761 0.00542879 1.54941e-19)
(0.350094 0.0951389 0)
(0.717329 0.22315 0)
(-0.214003 -0.0244136 5.41273e-21)
(-0.199105 -0.0085762 2.4638e-19)
(-0.150048 0.00854804 0)
(-0.00308044 -0.00384385 0)
(0.26627 0.081933 1.94111e-19)
(0.666273 0.197382 -3.52787e-20)
(-0.197518 -0.0122824 9.5567e-21)
(-0.204918 -0.00410433 -2.59937e-19)
(-0.185122 0.0127937 -2.19042e-20)
(-0.0697331 -0.0116512 1.79074e-19)
(0.158766 0.0698777 -3.26361e-19)
(0.596685 0.157604 0)
(-0.180682 -0.00757711 -3.14506e-19)
(-0.207098 0.000661743 0)
(-0.216026 0.019074 2.20613e-20)
(-0.132683 -0.0171108 -1.62977e-19)
(0.0182126 0.0633254 1.55937e-19)
(0.499102 0.0918157 -1.04022e-19)
(-0.157114 -0.000860301 7.56919e-19)
(-0.202347 0.00640521 -2.72239e-19)
(-0.243159 0.02705 -2.04439e-19)
(-0.182136 -0.0204912 0)
(-0.172581 0.0653647 1.46504e-19)
(0.378215 -0.00942802 1.0715e-19)
(-0.0925064 -0.00136431 -4.17104e-19)
(-0.160417 0.00371397 2.942e-19)
(-0.24502 0.0351376 2.24642e-19)
(-0.202437 -0.00417952 -3.7405e-20)
(-0.373592 0.11013 -1.23091e-19)
(0.275595 -0.00259157 -9.73877e-21)
(0.800071 0.324295 -2.02638e-19)
(1.01239 0.216587 1.06253e-19)
(1.14348 0.188296 -9.62605e-21)
(1.22878 0.183998 8.68338e-21)
(1.27891 0.182093 7.28931e-22)
(1.30474 0.178154 3.80307e-21)
(1.31503 0.17189 6.20338e-21)
(1.31605 0.163898 3.2993e-22)
(1.31196 0.154914 3.62664e-20)
(1.30525 0.145457 3.07582e-20)
(1.29733 0.135859 -2.88071e-20)
(1.28896 0.126352 -2.88091e-20)
(1.28041 0.117056 -1.63494e-20)
(1.27169 0.108029 -3.08082e-20)
(1.2627 0.099306 2.90679e-20)
(1.25325 0.090933 2.71548e-20)
(1.24308 0.0829845 -5.58124e-20)
(1.23185 0.0755782 5.28415e-20)
(1.21916 0.0688903 0)
(1.20439 0.0630235 0)
(1.18675 0.0580469 2.20543e-20)
(1.16578 0.0553307 -3.63579e-20)
(1.14205 0.0599513 3.36862e-20)
(1.11357 0.0737725 2.10141e-20)
(0.815953 0.30596 2.23199e-20)
(1.04208 0.24535 0)
(1.17489 0.223987 -4.27894e-21)
(1.25334 0.216283 4.05962e-21)
(1.29368 0.208255 -4.74807e-21)
(1.31034 0.198167 -9.83465e-21)
(1.31354 0.186762 -1.49375e-20)
(1.30961 0.174808 -1.38362e-20)
(1.30221 0.162857 2.19659e-21)
(1.29339 0.151256 -3.46791e-20)
(1.28416 0.140182 0)
(1.2749 0.129676 3.56101e-20)
(1.26565 0.119716 8.8681e-22)
(1.25635 0.110263 -1.63251e-20)
(1.24681 0.101288 -8.92871e-22)
(1.23683 0.0927839 3.11574e-20)
(1.22612 0.0847845 -4.5268e-20)
(1.21435 0.0773747 4.26681e-20)
(1.20108 0.0706914 -1.47644e-20)
(1.18575 0.064806 1.41511e-20)
(1.16766 0.0597346 -1.35832e-20)
(1.14637 0.0568266 -1.21147e-20)
(1.12241 0.0611486 1.28126e-20)
(1.09415 0.0738832 1.52127e-20)
(0.833686 0.301337 -1.47738e-20)
(1.06816 0.270495 9.16311e-22)
(1.19755 0.254586 0)
(1.26623 0.242834 0)
(1.29732 0.229201 6.80392e-22)
(1.30698 0.214099 1.43022e-20)
(1.30544 0.198704 7.26375e-21)
(1.29854 0.183752 1.67596e-20)
(1.28944 0.169629 2.03093e-20)
(1.2797 0.156496 -2.17864e-20)
(1.26997 0.14435 0)
(1.26039 0.133107 0)
(1.25089 0.122651 2.088e-21)
(1.24132 0.112875 -3.69141e-20)
(1.23147 0.103694 1.87581e-20)
(1.22112 0.0950587 -1.66779e-20)
(1.21002 0.0869672 1.7095e-20)
(1.19783 0.0794751 3.19572e-20)
(1.18418 0.0726818 1.46283e-20)
(1.16854 0.0666266 -8.85967e-20)
(1.15028 0.0612859 1.24607e-20)
(1.12901 0.0579618 4.05267e-20)
(1.10515 0.0617204 -4.13757e-20)
(1.07751 0.0733977 5.1657e-20)
(0.863401 0.297416 1.45992e-20)
(1.08981 0.289844 1.52886e-20)
(1.21035 0.278232 1.89756e-20)
(1.26917 0.26317 -2.92091e-21)
(1.29277 0.24531 9.81053e-21)
(1.29753 0.226535 -3.17732e-20)
(1.29308 0.208235 0)
(1.28465 0.191114 -2.33535e-20)
(1.27492 0.175439 -2.60295e-20)
(1.26502 0.161214 4.27567e-20)
(1.25532 0.148308 2.25261e-20)
(1.2458 0.136536 1.63196e-21)
(1.2363 0.125712 -1.9795e-20)
(1.22665 0.115677 1.91763e-20)
(1.21664 0.10631 -1.85277e-20)
(1.20606 0.0975303 -1.78723e-20)
(1.1947 0.0893063 -1.88317e-20)
(1.18226 0.0816664 1.83026e-20)
(1.1684 0.0746778 -3.3237e-20)
(1.15266 0.0683418 -1.40232e-21)
(1.13449 0.0626074 0)
(1.1135 0.0587111 -4.91029e-20)
(1.08999 0.0616959 2.94246e-20)
(1.06328 0.0724919 -1.40353e-20)
(0.894556 0.295775 0)
(1.106 0.304825 -1.61917e-20)
(1.21525 0.295831 -9.97397e-21)
(1.26508 0.278416 -1.1311e-20)
(1.28278 0.257569 5.57463e-21)
(1.28418 0.236183 2.26652e-20)
(1.27809 0.215828 -1.35828e-20)
(1.26913 0.197194 1.25424e-20)
(1.25947 0.180447 2.41062e-20)
(1.24989 0.16547 -1.33651e-20)
(1.24054 0.152029 1.29014e-20)
(1.2313 0.139867 -2.24314e-20)
(1.22198 0.128753 2.29919e-20)
(1.21238 0.118499 -1.01893e-20)
(1.20233 0.108958 1.02221e-20)
(1.19164 0.100027 -2.00575e-20)
(1.18013 0.0916501 3.82524e-20)
(1.16756 0.0838261 -1.86464e-20)
(1.15363 0.076592 0)
(1.13797 0.0699105 1.67254e-20)
(1.12009 0.0636958 -8.73353e-21)
(1.09958 0.0591067 -8.60058e-21)
(1.07664 0.061074 1.66386e-20)
(1.05118 0.0712988 8.37695e-21)
(0.923784 0.296747 -2.84827e-21)
(1.11723 0.316115 2.55064e-21)
(1.21426 0.308617 4.02913e-21)
(1.25613 0.289671 -3.63828e-21)
(1.26925 0.266791 4.0189e-21)
(1.26841 0.243604 -3.67609e-21)
(1.26157 0.221849 0)
(1.25273 0.202205 -3.1676e-22)
(1.24358 0.184749 -1.44628e-20)
(1.23461 0.169265 2.74472e-20)
(1.22581 0.155443 -1.98042e-20)
(1.21699 0.142982 0)
(1.20796 0.131628 -6.43303e-21)
(1.19853 0.121176 -1.13045e-20)
(1.18854 0.111467 -5.32256e-22)
(1.17785 0.102384 1.64397e-20)
(1.16629 0.0938487 0)
(1.15369 0.0858334 0)
(1.1398 0.078342 -5.0464e-21)
(1.12434 0.0713125 0)
(1.10685 0.0646104 8.75143e-21)
(1.08692 0.0592135 -9.89088e-21)
(1.06468 0.0596649 1.31682e-20)
(1.0411 0.0698324 -1.30254e-20)
(0.949389 0.299956 -8.75616e-22)
(1.12395 0.32472 7.80732e-22)
(1.20903 0.317906 0)
(1.24397 0.297955 0)
(1.2535 0.273694 0)
(1.25121 0.249283 -1.15523e-21)
(1.24424 0.226608 2.17387e-21)
(1.23593 0.20632 9.00554e-21)
(1.22754 0.188409 -1.97257e-21)
(1.21934 0.172582 -9.22801e-21)
(1.21119 0.158478 8.77461e-21)
(1.20289 0.145773 0)
(1.19425 0.134202 3.02219e-21)
(1.18509 0.123556 3.14443e-21)
(1.17529 0.113675 0)
(1.16471 0.104435 -5.60058e-21)
(1.15323 0.0957468 0)
(1.1407 0.0875591 -2.706e-21)
(1.12695 0.0798506 7.63347e-21)
(1.11173 0.0725604 2.52948e-21)
(1.09466 0.0655321 -2.4401e-21)
(1.07524 0.0592612 0)
(1.05349 0.0566609 4.7679e-21)
(1.03257 0.0676844 2.32891e-21)
(0.970452 0.304707 1.78676e-20)
(1.12666 0.3315 -3.34343e-21)
(1.20074 0.324787 2.98753e-21)
(1.22971 0.304106 -1.19792e-20)
(1.2364 0.278864 0)
(1.23325 0.253617 -1.60979e-20)
(1.22653 0.23035 4.78723e-21)
(1.21898 0.209665 -4.70489e-21)
(1.2115 0.191469 -4.55428e-21)
(1.20414 0.175403 1.69593e-20)
(1.19672 0.161076 0)
(1.18901 0.148152 0)
(1.18084 0.136364 0)
(1.17207 0.125509 -7.02096e-21)
(1.16258 0.115429 0)
(1.15226 0.106005 0)
(1.14102 0.0971476 -1.1922e-20)
(1.12873 0.0887998 -6.51342e-23)
(1.11527 0.0809413 1.1042e-20)
(1.10046 0.0735558 5.51272e-21)
(1.08408 0.0665685 -5.32566e-21)
(1.06589 0.0601165 0)
(1.04593 0.0525063 0)
(1.02272 0.0665327 -1.16892e-20)
(0.986491 0.310395 -8.89634e-21)
(1.12586 0.337114 -1.55803e-20)
(1.19024 0.330104 1.37584e-20)
(1.21408 0.308784 5.66456e-21)
(1.21852 0.282768 1.23023e-20)
(1.2149 0.256917 -4.15845e-22)
(1.20867 0.233265 1.0926e-20)
(1.20203 0.212339 1.04863e-20)
(1.19552 0.19396 -1.89301e-20)
(1.18905 0.177715 -8.62347e-21)
(1.18239 0.163193 1.70546e-20)
(1.17533 0.150054 -3.2037e-20)
(1.16771 0.138034 1.51119e-20)
(1.15942 0.126934 6.96045e-21)
(1.15035 0.116601 1.42098e-20)
(1.14044 0.106918 -1.35712e-20)
(1.12959 0.097796 0)
(1.11771 0.089179 0)
(1.10471 0.0810422 -1.20596e-20)
(1.09051 0.0732965 1.70756e-20)
(1.07507 0.0656135 -1.65766e-20)
(1.05837 0.0581031 0)
(1.03935 0.0545343 0)
(1.01312 0.0673529 -1.31485e-20)
(0.997469 0.316503 1.04342e-20)
(1.12202 0.342052 1.69633e-20)
(1.17806 0.334487 4.89567e-20)
(1.1975 0.312489 0)
(1.20015 0.285763 -8.3515e-20)
(1.19636 0.25942 2.47844e-20)
(1.1908 0.235493 -4.92731e-20)
(1.18513 0.21441 -6.81412e-20)
(1.17961 0.195902 2.04555e-20)
(1.17405 0.17951 -3.87931e-20)
(1.16818 0.164805 3.61031e-20)
(1.16181 0.151447 0)
(1.1548 0.139178 0)
(1.14706 0.1278 -3.0695e-20)
(1.13852 0.117162 -1.42149e-20)
(1.1291 0.107144 4.12996e-20)
(1.11875 0.0976533 -5.34178e-20)
(1.10739 0.08863 7.77448e-20)
(1.09494 0.0800292 -3.74178e-20)
(1.08135 0.0716833 4.78461e-20)
(1.06663 0.0631884 0)
(1.05056 0.0551281 -4.65359e-20)
(1.03146 0.0527359 6.84287e-20)
(1.00804 0.0628016 -1.07496e-19)
(1.00368 0.32265 -2.0833e-20)
(1.11554 0.346684 -5.72711e-20)
(1.16453 0.3384 6.0619e-21)
(1.1802 0.315589 -6.54579e-20)
(1.18144 0.288107 1.1733e-19)
(1.1777 0.261294 -2.76654e-20)
(1.17292 0.23713 2.10334e-20)
(1.16826 0.215925 4.55434e-20)
(1.16376 0.19731 -4.58096e-20)
(1.15911 0.180781 4.13527e-20)
(1.15406 0.165899 -3.8498e-20)
(1.14841 0.152324 1.15837e-21)
(1.14206 0.139801 1.02854e-19)
(1.13494 0.128136 -6.48425e-20)
(1.12699 0.117175 0)
(1.11815 0.106796 0)
(1.10837 0.0969038 0)
(1.09759 0.0874342 -2.63687e-20)
(1.08576 0.0783307 0)
(1.07286 0.0693974 0)
(1.05893 0.0602541 -9.7918e-20)
(1.04363 0.051757 7.07235e-20)
(1.02513 0.0494817 9.74707e-20)
(1.00368 0.0573256 -1.35497e-20)
(1.00554 0.328593 6.7193e-20)
(1.10672 0.351323 9.45744e-20)
(1.14979 0.342187 -3.25475e-20)
(1.16224 0.31834 1.02678e-19)
(1.1624 0.289974 -6.10085e-20)
(1.15893 0.262645 6.15282e-20)
(1.15501 0.238235 -2.37207e-21)
(1.1514 0.216905 1.03015e-19)
(1.14792 0.198185 9.25878e-20)
(1.1442 0.181522 -8.76173e-20)
(1.13998 0.166468 4.08991e-20)
(1.1351 0.152683 3.97753e-20)
(1.12947 0.139917 -7.2481e-20)
(1.12302 0.127977 0)
(1.11572 0.116709 0)
(1.10751 0.10599 6.23186e-20)
(1.09837 0.0957222 -5.9711e-20)
(1.08824 0.0858422 0)
(1.0771 0.0762906 -2.8461e-20)
(1.06496 0.0668682 -1.06442e-19)
(1.05189 0.0572287 -1.71232e-22)
(1.03749 0.0483432 9.94711e-20)
(1.01978 0.0457333 2.52958e-20)
(0.999913 0.0517044 2.55242e-20)
(1.00331 0.334147 4.99709e-20)
(1.09562 0.356246 2.02354e-20)
(1.13387 0.346079 1.61373e-19)
(1.14358 0.320892 -2.22811e-19)
(1.14299 0.291457 1.42261e-19)
(1.13995 0.263525 2.72723e-21)
(1.137 0.238828 -2.38207e-19)
(1.13447 0.217351 1.63816e-21)
(1.13203 0.198515 -1.03222e-19)
(1.12928 0.181715 -9.29571e-20)
(1.12593 0.166494 -1.34816e-22)
(1.12186 0.152515 -2.51461e-21)
(1.11699 0.139529 0)
(1.11128 0.127344 0)
(1.10469 0.115806 -7.09088e-20)
(1.09719 0.104789 0)
(1.08875 0.0941953 0)
(1.07934 0.0839628 0)
(1.06895 0.0740331 2.84487e-20)
(1.05764 0.0642121 -1.1251e-19)
(1.04552 0.0541858 2.18848e-19)
(1.03212 0.0449679 -8.05967e-20)
(1.01528 0.0418701 -5.60299e-20)
(0.996859 0.0462111 -2.53629e-20)
(0.997343 0.339471 6.54647e-21)
(1.08242 0.361688 1.7886e-19)
(1.11677 0.350187 -1.18097e-19)
(1.12412 0.323313 1.13284e-19)
(1.12309 0.292586 -6.7517e-20)
(1.12068 0.263939 -2.07479e-19)
(1.1188 0.238894 1.20425e-19)
(1.11741 0.217234 1.18235e-19)
(1.11606 0.198264 1.02433e-19)
(1.1143 0.181324 0)
(1.11188 0.16595 -9.42117e-20)
(1.10867 0.1518 8.33131e-20)
(1.10463 0.138628 0)
(1.0997 0.126239 0)
(1.09389 0.114479 7.0692e-20)
(1.08715 0.103219 -1.38647e-19)
(1.07948 0.0923605 1.33104e-19)
(1.07086 0.0818423 -1.27831e-19)
(1.06129 0.0716092 1.23597e-19)
(1.05088 0.0614773 0)
(1.03975 0.0511655 1.15668e-19)
(1.02742 0.0416909 -1.1266e-19)
(1.01152 0.0380565 2.84402e-19)
(0.994503 0.040946 -2.17632e-19)
(0.988001 0.344748 2.99578e-20)
(1.06706 0.367794 -1.78039e-19)
(1.09824 0.354566 0)
(1.1037 0.325601 -2.592e-19)
(1.10255 0.293339 7.71053e-20)
(1.101 0.263842 1.39538e-19)
(1.1003 0.238378 -1.36376e-19)
(1.10013 0.216496 -1.17396e-19)
(1.09993 0.197375 0)
(1.09923 0.1803 1.06384e-19)
(1.09779 0.164791 -2.60286e-21)
(1.09551 0.150504 9.0332e-20)
(1.09235 0.137189 1.72136e-19)
(1.08829 0.124648 -8.04824e-20)
(1.0833 0.112723 0)
(1.07739 0.101281 0)
(1.07055 0.0902245 0)
(1.06278 0.0794918 6.91272e-20)
(1.0541 0.0690326 0)
(1.04463 0.0586779 6.44292e-20)
(1.03455 0.0481811 6.22878e-20)
(1.02331 0.0385363 0)
(1.00843 0.0343669 0)
(0.992803 0.0359607 0)
(0.97541 0.350147 -1.95264e-19)
(1.04948 0.374677 0)
(1.07792 0.359252 0)
(1.08209 0.3277 1.7328e-19)
(1.08121 0.293632 -1.72405e-19)
(1.08076 0.263142 8.13316e-20)
(1.08141 0.237187 2.75138e-19)
(1.08258 0.215047 1.95326e-19)
(1.0836 0.195767 -1.14076e-19)
(1.08404 0.178571 3.11108e-21)
(1.08365 0.162959 -1.03939e-19)
(1.08237 0.148578 1.91881e-19)
(1.08016 0.135172 -1.76305e-19)
(1.07702 0.122539 8.65335e-20)
(1.07294 0.110515 8.22774e-20)
(1.06792 0.0989618 0)
(1.06196 0.0877794 -1.47138e-19)
(1.05508 0.0769091 -6.88863e-20)
(1.04733 0.0663064 2.73898e-19)
(1.03886 0.055821 -1.97269e-19)
(1.02985 0.0452432 1.94505e-19)
(1.01973 0.0355223 6.07967e-21)
(1.00593 0.0308475 -3.10421e-19)
(0.991696 0.0312911 1.80397e-19)
(0.959442 0.355906 2.06125e-19)
(1.02949 0.38243 -5.30962e-20)
(1.05536 0.364217 4.75927e-20)
(1.05902 0.329481 0)
(1.05887 0.293308 1.71721e-19)
(1.05984 0.261691 -1.57292e-19)
(1.06205 0.235184 1.52024e-19)
(1.06468 0.212766 -2.65013e-19)
(1.06705 0.193336 -1.23256e-19)
(1.06871 0.176048 0)
(1.06947 0.160376 2.09402e-19)
(1.06926 0.145957 -2.95603e-19)
(1.06807 0.132526 -2.05407e-21)
(1.06591 0.119872 -3.53644e-19)
(1.06279 0.107822 2.98979e-22)
(1.05871 0.0962353 -8.23559e-20)
(1.05369 0.0850077 7.53543e-20)
(1.04776 0.0740838 -1.4921e-19)
(1.04098 0.0634274 0)
(1.03353 0.0529099 -2.77557e-19)
(1.0256 0.0423591 5.39849e-19)
(1.01661 0.0326596 -3.30146e-19)
(1.00395 0.0275276 -2.6609e-21)
(0.99111 0.0269627 1.3186e-19)
(0.939651 0.36237 -4.16587e-19)
(1.00653 0.391259 0)
(1.03021 0.369261 -5.48493e-20)
(1.03414 0.330677 4.94165e-20)
(1.03534 0.292113 0)
(1.03812 0.259281 -8.58168e-20)
(1.04213 0.232189 -2.286e-19)
(1.04642 0.2095 1.41776e-19)
(1.05026 0.18995 1.29966e-19)
(1.05326 0.172622 7.57343e-22)
(1.05524 0.156954 6.75243e-22)
(1.05618 0.142568 -1.05781e-19)
(1.05609 0.129189 9.35847e-20)
(1.05498 0.116595 9.04769e-20)
(1.05286 0.104605 8.61505e-20)
(1.04977 0.0930703 8.2443e-20)
(1.04573 0.0818863 -8.25283e-20)
(1.04079 0.0710013 1.56421e-19)
(1.03502 0.0603889 7.35502e-20)
(1.02861 0.0499446 -4.37363e-19)
(1.02177 0.0395313 2.82936e-19)
(1.01389 0.0299512 6.75618e-20)
(1.00243 0.0244252 -2.74322e-19)
(0.990969 0.022993 3.1515e-19)
(0.915126 0.37005 4.86262e-19)
(0.979864 0.401231 8.42231e-21)
(1.0018 0.374036 2.99323e-19)
(1.00708 0.330886 -2.15334e-19)
(1.01043 0.289737 -1.4342e-21)
(1.01551 0.255637 9.05276e-20)
(1.02163 0.227978 -1.68522e-19)
(1.02778 0.205063 3.0021e-19)
(1.03325 0.185461 -4.07596e-19)
(1.0377 0.16817 1.2454e-19)
(1.04101 0.15259 2.18524e-21)
(1.04318 0.138328 1.06096e-19)
(1.04424 0.125093 2.04135e-19)
(1.04423 0.112654 -9.86541e-20)
(1.04318 0.100818 -8.97502e-20)
(1.04112 0.0894314 8.66523e-20)
(1.0381 0.0783893 0)
(1.03417 0.0676449 2.46409e-19)
(1.02942 0.0571828 -3.18882e-19)
(1.02406 0.0469226 4.57595e-19)
(1.0183 0.0367582 -2.95931e-19)
(1.01152 0.0273937 2.92444e-19)
(1.0013 0.0215507 -4.91906e-19)
(0.991198 0.0193928 2.61703e-19)
(0.884104 0.379815 -2.16472e-19)
(0.948574 0.412201 -3.11768e-19)
(0.969404 0.37797 -3.03037e-19)
(0.977536 0.329576 1.1284e-19)
(0.983994 0.285753 0)
(0.991985 0.250405 1.97633e-19)
(1.00057 0.222279 -3.66783e-21)
(1.00881 0.199245 1.59548e-19)
(1.01607 0.1797 1.40998e-19)
(1.02211 0.162559 0)
(1.02684 0.147177 -1.18411e-19)
(1.03031 0.133148 -2.25293e-19)
(1.03258 0.120166 -1.02627e-19)
(1.03372 0.107989 9.98546e-20)
(1.03377 0.0964145 -9.30173e-20)
(1.03277 0.0852831 1.80548e-19)
(1.03079 0.0744911 0)
(1.0279 0.0639981 -1.70383e-19)
(1.02419 0.0538002 -8.3616e-20)
(1.01988 0.0438392 2.40681e-19)
(1.01516 0.0340339 0)
(1.00944 0.0249783 0)
(1.00048 0.0189083 0)
(0.99172 0.0161657 0)
(0.843704 0.393451 0)
(0.911603 0.423796 2.47155e-19)
(0.932304 0.380212 0)
(0.945271 0.325959 0)
(0.955956 0.279555 0)
(0.967593 0.243171 -1.9678e-19)
(0.979046 0.214791 1.85842e-19)
(0.989622 0.191823 0)
(0.998844 0.172496 -1.44644e-19)
(1.00657 0.155651 1.35184e-19)
(1.0128 0.140608 -1.42146e-21)
(1.01763 0.126943 -1.18206e-19)
(1.02117 0.114341 -1.12592e-19)
(1.02349 0.102547 0)
(1.02466 0.0913516 9.73942e-20)
(1.02475 0.0805922 -5.67809e-22)
(1.02383 0.0701677 1.83436e-19)
(1.02198 0.0600452 -3.99208e-22)
(1.01931 0.0502312 8.71643e-20)
(1.01603 0.0406869 3.33642e-19)
(1.01232 0.0313487 -2.39487e-19)
(1.00763 0.0226945 7.93288e-20)
(0.999931 0.0164997 0)
(0.992459 0.0133056 0)
(0.789715 0.415184 0)
(0.86677 0.434339 2.25308e-19)
(0.889623 0.379318 6.69619e-20)
(0.910071 0.31893 -1.33395e-19)
(0.926447 0.270413 2.49025e-19)
(0.942495 0.233485 -6.44051e-21)
(0.957246 0.205203 -4.75489e-19)
(0.970392 0.182568 0)
(0.981716 0.163681 -1.52971e-19)
(0.991229 0.147321 1.42528e-19)
(0.99903 0.132784 0)
(1.00527 0.119637 2.45506e-19)
(1.01009 0.107557 -1.19249e-19)
(1.01361 0.0962802 0)
(1.01592 0.0855929 1.01586e-19)
(1.0171 0.0753315 -9.73848e-20)
(1.01723 0.0653994 -9.68459e-20)
(1.01641 0.0557715 -1.83934e-19)
(1.01477 0.0464635 -1.77733e-19)
(1.0125 0.0374521 -1.71739e-19)
(1.00976 0.0286865 -8.16583e-20)
(1.00603 0.0205302 -4.05162e-19)
(0.999561 0.014328 -1.91303e-21)
(0.993319 0.01079 3.56729e-19)
(0.712462 0.450183 -3.76608e-19)
(0.80956 0.438446 -2.32077e-19)
(0.840397 0.372583 2.46789e-19)
(0.87215 0.306957 7.06329e-20)
(0.895897 0.257537 -2.47354e-19)
(0.917059 0.220881 1.07713e-19)
(0.935462 0.193216 2.94385e-19)
(0.951373 0.171283 -1.75336e-19)
(0.964904 0.153112 -1.411e-21)
(0.976269 0.137463 1.45454e-19)
(0.985676 0.123626 -2.74413e-19)
(0.993342 0.11117 -1.26828e-19)
(0.999458 0.0997677 1.15268e-19)
(1.00417 0.0891541 1.10744e-19)
(1.0076 0.0791128 -1.51101e-21)
(1.00985 0.0694827 -3.09529e-19)
(1.01102 0.060173 1.97157e-19)
(1.01122 0.0511665 9.37303e-20)
(1.01057 0.0424855 2.74088e-19)
(1.00926 0.0341194 -9.04822e-20)
(1.00744 0.0260303 4.30746e-19)
(1.00463 0.0184892 -5.84295e-19)
(0.999377 0.0124649 -1.41268e-21)
(0.994152 0.00856286 2.20664e-19)
(0.589331 0.486223 2.88664e-19)
(0.732617 0.426298 0)
(0.785698 0.355411 -2.38411e-19)
(0.832729 0.288441 -7.6614e-20)
(0.865162 0.240232 0)
(0.891877 0.204985 0)
(0.914122 0.178603 -1.02183e-19)
(0.932896 0.157815 1.84412e-19)
(0.948679 0.140686 7.87761e-20)
(0.96191 0.126004 1.54214e-19)
(0.972923 0.113084 -4.54901e-21)
(0.982001 0.101506 -1.23601e-21)
(0.989389 0.0909487 1.23045e-19)
(0.99527 0.0811512 0)
(0.99979 0.0719004 -2.19674e-19)
(1.00307 0.0630403 4.23265e-19)
(1.00523 0.0544871 -3.03251e-19)
(1.00639 0.0462296 1.96717e-19)
(1.00668 0.0382947 0)
(1.00628 0.0306813 -1.82723e-19)
(1.00532 0.0233629 1.79343e-19)
(1.00339 0.0165385 -2.57042e-19)
(0.999359 0.010882 1.65663e-19)
(0.995003 0.00660948 0)
(0.0173472 -0.0620301 2.08616e-18)
(0.120848 -0.133772 1.68822e-18)
(0.210355 -0.187502 -1.4269e-18)
(0.240732 -0.193647 -8.63204e-19)
(0.256451 -0.181571 0)
(-0.0999321 -0.0239143 -1.07264e-18)
(0.0448369 -0.0919129 -6.45216e-20)
(0.143333 -0.171462 4.51283e-20)
(0.201701 -0.205063 5.50968e-19)
(0.225535 -0.200392 0)
(0.238888 -0.151913 0)
(0.0848499 -0.0282652 -2.04838e-19)
(0.060441 -0.116197 0)
(0.14409 -0.189015 6.57421e-19)
(0.188889 -0.210884 5.05438e-19)
(0.210653 -0.193747 -1.03611e-19)
(0.223671 -0.133926 8.72195e-20)
(0.160044 -0.0174881 3.35192e-19)
(0.0706919 -0.140056 1.02309e-18)
(0.140857 -0.202955 -6.21564e-19)
(0.178025 -0.216419 4.66174e-19)
(0.199217 -0.191205 3.81112e-19)
(0.215881 -0.125613 8.08061e-20)
(0.204027 -0.0181057 -7.10766e-20)
(0.0774011 -0.161831 -9.66671e-19)
(0.136744 -0.214618 -2.80951e-19)
(0.169145 -0.222582 -2.18424e-19)
(0.191416 -0.193356 -5.36991e-19)
(0.21412 -0.127642 0)
(0.232272 -0.0315621 0)
(0.0816863 -0.180956 -2.39104e-19)
(0.132582 -0.22443 2.65365e-19)
(0.161667 -0.229356 -2.05473e-19)
(0.186213 -0.199468 2.53804e-19)
(0.215647 -0.137762 8.90642e-20)
(0.251933 -0.0543879 -1.58614e-20)
(0.0844089 -0.197665 2.39539e-19)
(0.128389 -0.232875 -9.89843e-22)
(0.155067 -0.236891 0)
(0.182486 -0.209009 -8.33901e-20)
(0.218377 -0.15396 -6.69619e-20)
(0.266364 -0.0833011 0)
(0.0861898 -0.212029 3.68718e-21)
(0.123905 -0.240344 2.51504e-19)
(0.148933 -0.245286 -1.9269e-19)
(0.179354 -0.221523 0)
(0.221039 -0.174745 -1.32725e-19)
(0.276987 -0.116273 0)
(0.0874135 -0.223953 -7.32237e-21)
(0.118902 -0.247086 -2.30452e-19)
(0.142847 -0.25452 1.81359e-19)
(0.176156 -0.236535 0)
(0.222899 -0.199017 1.30245e-19)
(0.284653 -0.152023 -1.14485e-19)
(0.0881345 -0.233275 -2.91805e-20)
(0.113213 -0.253238 4.36088e-20)
(0.136439 -0.264491 -2.65007e-22)
(0.172378 -0.253567 -1.84902e-20)
(0.223507 -0.22598 2.84471e-19)
(0.289878 -0.189885 2.94657e-20)
(0.0881012 -0.239836 9.59199e-19)
(0.10674 -0.258861 -1.44261e-20)
(0.129402 -0.275036 -3.03006e-19)
(0.167609 -0.272167 -3.6338e-20)
(0.222558 -0.255044 -3.11838e-19)
(0.292973 -0.229521 5.63446e-20)
(0.0870034 -0.24359 -9.2947e-19)
(0.0994189 -0.263952 5.71423e-20)
(0.121501 -0.285938 2.99589e-19)
(0.161513 -0.291902 4.97616e-19)
(0.219811 -0.285738 1.81345e-21)
(0.294086 -0.270761 5.55633e-20)
(0.0845249 -0.244548 -1.85567e-18)
(0.0912176 -0.268452 0)
(0.112573 -0.296931 -6.80341e-19)
(0.153815 -0.312337 -5.65114e-19)
(0.215045 -0.317661 4.84239e-19)
(0.29327 -0.313545 1.05494e-19)
(0.080421 -0.242777 2.90371e-20)
(0.0821497 -0.272236 0)
(0.102534 -0.307688 1.36287e-18)
(0.144306 -0.33299 5.60719e-19)
(0.208048 -0.350431 -9.63173e-19)
(0.290476 -0.357862 0)
(0.0745567 -0.238363 1.86024e-18)
(0.0723072 -0.275109 -9.53921e-19)
(0.0913839 -0.317799 -1.37268e-18)
(0.132848 -0.3533 -5.62904e-19)
(0.198593 -0.383601 4.80582e-19)
(0.285541 -0.403671 -5.1879e-19)
(0.0669522 -0.231377 -5.84537e-20)
(0.0618895 -0.276776 1.9839e-18)
(0.0792261 -0.32674 6.95769e-19)
(0.119359 -0.372578 -6.92563e-20)
(0.186428 -0.416584 5.36988e-19)
(0.278188 -0.450877 4.17449e-19)
(0.0578563 -0.221813 0)
(0.051198 -0.276798 1.56794e-21)
(0.0662727 -0.33384 -7.10323e-19)
(0.103813 -0.389953 0)
(0.171263 -0.44856 -9.57771e-19)
(0.267989 -0.499215 4.05681e-19)
(0.0478342 -0.209494 -1.85861e-18)
(0.0406353 -0.274537 -1.10422e-18)
(0.0528331 -0.338235 1.50716e-18)
(0.0862202 -0.404332 -6.56042e-19)
(0.152773 -0.478377 5.46898e-19)
(0.254294 -0.54813 -4.09756e-19)
(0.0378147 -0.193937 1.87017e-18)
(0.0306628 -0.269095 -6.68482e-20)
(0.039271 -0.338852 -7.1009e-19)
(0.0665915 -0.414394 6.03521e-19)
(0.130614 -0.504412 0)
(0.23614 -0.596679 0)
(0.0289923 -0.174267 2.99742e-20)
(0.0216985 -0.259281 1.13234e-18)
(0.0259493 -0.334433 0)
(0.0449112 -0.418657 0)
(0.10444 -0.524423 6.26692e-19)
(0.211875 -0.643438 -1.07275e-19)
(0.0224594 -0.149437 6.07462e-20)
(0.0141211 -0.243737 -1.23466e-18)
(0.01328 -0.323698 -1.05341e-19)
(0.0213023 -0.415755 8.4546e-19)
(0.0740684 -0.535198 -1.13646e-18)
(0.178235 -0.68653 0)
(0.0191704 -0.119596 -1.97578e-18)
(0.00859291 -0.221264 0)
(0.00207975 -0.305555 1.16205e-19)
(-0.00341155 -0.40479 -8.32679e-19)
(0.0402442 -0.531744 5.75989e-19)
(0.127423 -0.725849 -4.46727e-19)
(0.0204466 -0.0868267 4.17972e-18)
(0.00671221 -0.189744 -1.38618e-18)
(-0.00567927 -0.278068 -1.13203e-18)
(-0.0272319 -0.384244 0)
(0.00552606 -0.503648 6.5768e-19)
(0.0416287 -0.775655 4.94463e-19)
(0.0285346 -0.0455871 -2.14585e-18)
(0.0116341 -0.132738 3.1113e-18)
(-0.0106406 -0.224293 1.18585e-18)
(-0.0577121 -0.339433 1.15218e-19)
(0.000376422 -0.4371 -1.58085e-18)
(-0.11988 -0.909607 0)
(0.395045 0.492126 2.94774e-19)
(0.645878 0.391417 5.23463e-20)
(0.732434 0.324111 0)
(0.79447 0.262553 0)
(0.835541 0.21819 1.45848e-19)
(0.867726 0.185636 4.97189e-21)
(0.893758 0.161265 1.09796e-19)
(0.915348 0.142103 9.71016e-20)
(0.933348 0.126366 0)
(0.948401 0.112922 -1.5387e-19)
(0.960973 0.101144 1.41922e-19)
(0.971417 0.0906378 0)
(0.980027 0.0810972 -6.36315e-20)
(0.987023 0.0722719 0)
(0.992577 0.0639579 0)
(0.996835 0.0560079 -1.07237e-19)
(0.999926 0.0483443 0)
(1.00198 0.0409597 -2.01231e-19)
(1.00313 0.0338807 1.95039e-19)
(1.00355 0.0271101 0)
(1.00337 0.0206257 -2.71105e-19)
(1.00226 0.0145632 2.20182e-19)
(0.999418 0.00939053 -2.14448e-19)
(0.995983 0.00498221 1.54736e-19)
(0.338609 0.376659 -3.49604e-19)
(0.587593 0.33152 0)
(0.688296 0.281618 9.66233e-20)
(0.760278 0.23023 -3.4893e-21)
(0.808453 0.191721 -2.99878e-19)
(0.845443 0.162963 -1.90944e-19)
(0.874929 0.141271 -1.13455e-19)
(0.899138 0.124193 -9.98096e-20)
(0.919225 0.110189 -2.57779e-21)
(0.936001 0.0982547 -1.62942e-19)
(0.950037 0.0878398 0)
(0.961763 0.078594 1.36383e-19)
(0.971516 0.0702365 -1.11672e-21)
(0.97955 0.0625346 -5.96588e-20)
(0.986066 0.0552993 1.05661e-21)
(0.991225 0.0483938 1.11714e-19)
(0.995171 0.0417467 -1.59532e-19)
(0.998036 0.03535 1.54935e-19)
(0.999964 0.0292258 -5.02555e-20)
(1.00112 0.0233758 4.84808e-20)
(1.00162 0.017774 -4.67996e-20)
(1.00125 0.0124904 -4.44489e-20)
(0.999445 0.00782526 4.32914e-20)
(0.99706 0.00374046 1.52595e-19)
(0.336963 0.279551 -2.96975e-19)
(0.551227 0.267108 2.48603e-19)
(0.654956 0.233618 0)
(0.731803 0.193357 0)
(0.784946 0.161631 7.55507e-20)
(0.825731 0.137375 1.32619e-19)
(0.858136 0.118862 5.41643e-20)
(0.884639 0.104245 9.96763e-20)
(0.906597 0.0922728 8.93786e-20)
(0.924942 0.0820928 -8.55489e-20)
(0.940314 0.073247 0)
(0.953204 0.0654364 0)
(0.963994 0.0584154 1.29968e-21)
(0.972968 0.0519771 -1.24277e-19)
(0.980351 0.0459514 5.97351e-20)
(0.986322 0.0402144 -5.59348e-20)
(0.991033 0.0346995 5.55347e-20)
(0.994624 0.0293948 1.05249e-19)
(0.997239 0.0243149 5.03227e-20)
(0.999033 0.0194591 -2.93496e-19)
(1.00012 0.0148014 4.71542e-20)
(1.00039 0.0103677 1.36868e-19)
(0.999475 0.00633754 -1.32718e-19)
(0.998014 0.00273849 4.32919e-20)
(0.345403 0.1983 2.90383e-19)
(0.528181 0.20423 9.38304e-21)
(0.630691 0.183696 2.68972e-19)
(0.709214 0.153766 -4.74101e-20)
(0.765475 0.128904 7.71836e-20)
(0.809033 0.109425 -2.0754e-19)
(0.843751 0.0943874 0)
(0.872152 0.0825004 -1.01732e-19)
(0.895704 0.0727927 -9.04443e-20)
(0.915415 0.0645731 1.6856e-19)
(0.931964 0.0574752 7.63641e-20)
(0.945883 0.0512544 -2.30849e-22)
(0.957583 0.0457071 -6.63813e-20)
(0.96738 0.0406565 6.27308e-20)
(0.975519 0.0359568 -5.97626e-20)
(0.982194 0.0314992 -5.72887e-20)
(0.987566 0.0272204 -5.58967e-20)
(0.991778 0.023102 5.36723e-20)