/*--------------------------------*- C++ -*----------------------------------*\
  =========                 |
  \\      /  F ield         | OpenFOAM: The Open Source CFD Toolbox
   \\    /   O peration     | Website:  https://openfoam.org
    \\  /    A nd           | Version:  11
     \\/     M anipulation  |
\*---------------------------------------------------------------------------*/
FoamFile
{
    format      ascii;
    class       surfaceVectorField;
    location    "1.68";
    object      Uf;
}
// * * * * * * * * * * * * * * * * * * * * * * * * * * * * * * * * * * * * * //

dimensions      [0 1 -1 0 0 0 0];

internalField   nonuniform List<vector> 
5640
(
(-0.110937 -0.102395 2.428e-19)
(-0.100241 -0.0736847 2.14838e-19)
(-0.149858 -0.170241 -1.33116e-19)
(-0.15358 -0.160234 1.00628e-20)
(-0.129505 -0.142458 -2.906e-19)
(-0.142653 -0.161226 -6.05023e-20)
(-0.0554363 -0.041778 -1.33709e-19)
(-0.0805168 -0.0668442 -1.45995e-19)
(0.0818796 0.181114 3.49594e-20)
(0.0341244 0.0523645 1.68524e-20)
(0.240998 0.346531 -4.34003e-20)
(0.473829 0.43312 -1.01737e-19)
(-0.140292 -0.117864 -7.63961e-22)
(-0.132142 -0.093761 -6.96471e-21)
(-0.144018 -0.152046 7.14322e-20)
(-0.155786 -0.147896 7.79538e-20)
(-0.0898165 -0.103059 7.16081e-20)
(-0.110223 -0.130584 1.29238e-19)
(0.0158882 0.0105755 0)
(-0.0140924 -0.0346966 -1.31595e-20)
(0.188781 0.160066 -2.79183e-20)
(0.136562 0.0836487 1.12122e-20)
(0.360519 0.273158 1.74305e-20)
(0.538158 0.337529 -1.15103e-19)
(-0.148494 -0.115011 6.88362e-20)
(-0.15505 -0.0971651 1.10281e-19)
(-0.125323 -0.128182 1.33804e-19)
(-0.151352 -0.132276 2.60609e-21)
(-0.040631 -0.0724715 4.95259e-20)
(-0.0776108 -0.102899 1.13348e-19)
(0.0970769 0.0347306 -4.06131e-21)
(0.0455219 -0.0120144 3.30044e-20)
(0.293458 0.165806 4.78352e-20)
(0.2221 0.102331 2.03154e-20)
(0.459411 0.247945 2.91244e-20)
(0.5963 0.298384 3.72776e-20)
(-0.155213 -0.110523 5.01721e-20)
(-0.174482 -0.0964528 2.18669e-21)
(-0.106787 -0.108802 -2.23833e-20)
(-0.144504 -0.11924 -1.0183e-19)
(0.00313152 -0.0499535 9.95403e-20)
(-0.047681 -0.0809793 2.69057e-20)
(0.164251 0.0506019 5.63062e-20)
(0.0980314 0.00406111 -1.98319e-20)
(0.377182 0.169279 5.73679e-21)
(0.294408 0.11195 9.10329e-21)
(0.537897 0.234409 -8.12274e-21)
(0.654927 0.27747 -3.38605e-21)
(-0.163595 -0.103326 -1.40754e-19)
(-0.191042 -0.0931847 -1.30334e-19)
(-0.0892343 -0.0929004 -5.79276e-20)
(-0.136756 -0.107383 -1.1683e-21)
(0.04161 -0.0329091 -9.11295e-20)
(-0.0211056 -0.0635994 -5.01438e-20)
(0.221763 0.0607966 -6.82086e-20)
(0.143369 0.0159346 -3.5064e-20)
(0.446347 0.169021 0)
(0.355291 0.116862 1.10071e-20)
(0.60202 0.225944 -1.91452e-21)
(0.707685 0.265473 0)
(-0.168123 -0.0962912 1.69222e-21)
(-0.205308 -0.0899913 -1.79773e-22)
(-0.0733908 -0.0794187 8.56727e-21)
(-0.12929 -0.0964033 3.01628e-20)
(0.074665 -0.0197003 5.55857e-21)
(0.00161043 -0.0497021 -2.40179e-20)
(0.270346 0.0679499 4.30307e-20)
(0.181585 0.0249285 2.09929e-20)
(0.503748 0.168474 9.69656e-21)
(0.406295 0.120119 2.47836e-21)
(0.655446 0.221806 -1.91452e-21)
(0.753391 0.259304 -3.42015e-21)
(-0.171383 -0.0898962 2.6821e-20)
(-0.217403 -0.0875739 2.58397e-20)
(-0.0598564 -0.0679795 -1.16846e-22)
(-0.122928 -0.0865017 2.83956e-20)
(0.102192 -0.00933723 -1.01712e-20)
(0.0201037 -0.0385367 -2.26946e-20)
(0.310844 0.0734582 -1.92388e-20)
(0.212831 0.0318166 -1.05269e-20)
(0.551523 0.169394 -8.8475e-21)
(0.448634 0.123033 -2.63166e-20)
(0.699999 0.22175 0)
(0.792203 0.257764 -3.65053e-22)
(-0.174399 -0.0845588 2.72694e-20)
(-0.227386 -0.0862062 -3.75848e-22)
(-0.0491258 -0.0583065 7.93876e-21)
(-0.118158 -0.0777158 1.979e-21)
(0.124119 -0.00119152 -2.34613e-20)
(0.0341135 -0.0295836 -7.96103e-22)
(0.343825 0.0780006 -1.71806e-20)
(0.237266 0.0370788 0)
(0.590953 0.171965 -1.81e-20)
(0.483123 0.125997 8.74648e-23)
(0.736627 0.224868 -1.57923e-20)
(0.824393 0.259732 7.44919e-21)
(-0.177297 -0.0803201 -2.58589e-20)
(-0.235276 -0.0858043 -3.73695e-21)
(-0.0415182 -0.0501744 -6.66288e-21)
(-0.115292 -0.0699661 -2.15367e-20)
(0.140403 0.00517747 2.26796e-20)
(0.043466 -0.0224711 2.19887e-20)
(0.369629 0.0818463 1.7309e-20)
(0.254989 0.0409407 -2.39375e-21)
(0.622764 0.175722 2.82142e-21)
(0.510207 0.128978 5.81993e-20)
(0.765944 0.229965 -1.16712e-20)
(0.850136 0.264024 -2.21257e-20)
(-0.180045 -0.0769857 1.44503e-21)
(-0.241083 -0.0860773 9.24916e-20)
(-0.0372352 -0.0433688 5.02156e-21)
(-0.114531 -0.0631057 3.36059e-21)
(0.150999 0.0100274 -2.04677e-21)
(0.0480332 -0.0169022 -3.70689e-20)
(0.388442 0.0849529 3.67977e-20)
(0.266016 0.0434327 -7.04872e-21)
(0.647402 0.180015 4.55777e-20)
(0.530061 0.131663 -4.91538e-21)
(0.788431 0.235977 1.2302e-20)
(0.86968 0.269588 1.10023e-20)
(-0.1827 -0.0742532 9.95632e-20)
(-0.244836 -0.0866015 2.92573e-21)
(-0.0364095 -0.0376696 -3.72506e-20)
(-0.115999 -0.0569454 4.95741e-21)
(0.155844 0.0135105 -4.25172e-20)
(0.0477027 -0.0126168 4.32619e-22)
(0.400327 0.087078 -4.88378e-20)
(0.270252 0.0445013 6.14566e-20)
(0.665108 0.184204 -3.89819e-20)
(0.542684 0.133662 -4.56673e-20)
(0.804474 0.242076 1.66133e-20)
(0.883327 0.275597 9.12041e-22)
(-0.185375 -0.0717605 -9.1717e-20)
(-0.246593 -0.0868653 -2.72146e-19)
(-0.0391385 -0.0328492 4.23836e-20)
(-0.119756 -0.0512764 6.59853e-21)
(0.154756 0.0156794 1.02744e-19)
(0.042357 -0.00936596 -4.74092e-20)
(0.405094 0.0879915 6.72099e-20)
(0.267511 0.0441255 -1.23904e-20)
(0.676014 0.18767 6.95206e-21)
(0.547833 0.134642 7.41692e-20)
(0.814159 0.247512 2.57421e-20)
(0.89158 0.280996 3.779e-20)
(-0.188085 -0.0691273 -1.89911e-19)
(-0.246423 -0.0863833 -1.75873e-19)
(-0.0454865 -0.028679 -8.13879e-20)
(-0.125789 -0.0458988 0)
(0.14765 0.0167103 -1.63879e-19)
(0.0319041 -0.00688244 8.62315e-20)
(0.402588 0.0875492 -8.4407e-21)
(0.25753 0.0422648 -5.98463e-22)
(0.68019 0.190198 9.32422e-20)
(0.545137 0.134262 -7.60173e-20)
(0.818142 0.251858 1.73587e-20)
(0.894347 0.286897 3.71899e-20)
(-0.190851 -0.0661489 4.11931e-21)
(-0.244473 -0.0846245 1.84643e-19)
(-0.055437 -0.0249938 1.63967e-19)
(-0.133973 -0.0406314 -1.07536e-19)
(0.134258 0.0167075 2.52464e-19)
(0.016304 -0.00487261 -6.1017e-22)
(0.392377 0.0854919 -6.61015e-20)
(0.239973 0.0388536 -7.43339e-22)
(0.677309 0.191326 -1.54183e-19)
(0.534033 0.132137 -7.45704e-20)
(0.816052 0.254467 -9.16472e-20)
(0.892251 0.291303 2.72928e-21)
(-0.193656 -0.0622833 8.99424e-20)
(-0.240934 -0.0810161 1.75174e-19)
(-0.0690525 -0.0212305 -2.76731e-19)
(-0.144029 -0.0352711 1.15898e-19)
(0.114381 0.0158076 -2.5407e-19)
(-0.00449449 -0.00306879 -8.50726e-20)
(0.373982 0.0815917 -7.23678e-21)
(0.214454 0.0338461 -8.93207e-20)
(0.666884 0.190564 -1.15192e-20)
(0.513687 0.127926 1.62277e-19)
(0.807585 0.254708 -1.82316e-20)
(0.88518 0.294421 -9.00866e-20)
(-0.196514 -0.0572347 2.04294e-19)
(-0.236081 -0.0749996 -5.66778e-21)
(-0.0860112 -0.017484 3.16108e-19)
(-0.155639 -0.0296534 2.23376e-19)
(0.0878342 0.0141535 7.984e-20)
(-0.03032 -0.00116563 2.82649e-22)
(0.346771 0.0756685 7.14227e-20)
(0.1806 0.0272483 -1.0326e-20)
(0.648168 0.187434 1.60103e-19)
(0.48291 0.121392 -6.88245e-20)
(0.79219 0.251788 1.48783e-19)
(0.872936 0.295927 4.46122e-21)
(-0.199432 -0.0506417 -2.66371e-23)
(-0.23039 -0.0659033 -1.8126e-19)
(-0.106058 -0.013458 -8.29437e-20)
(-0.168325 -0.0236536 -1.23099e-19)
(0.0545646 0.0119142 -8.9525e-20)
(-0.0607726 0.00108037 9.41577e-20)
(0.309971 0.0676857 -1.50959e-19)
(0.138155 0.0191985 -8.64577e-20)
(0.620043 0.181441 -8.56878e-20)
(0.440016 0.112479 -6.80729e-20)
(0.768973 0.244607 7.10011e-22)
(0.855072 0.295332 1.73574e-19)
(-0.202669 -0.0422672 -3.07874e-19)
(-0.224512 -0.053062 -8.48719e-21)
(-0.128688 -0.00905225 4.57713e-20)
(-0.181397 -0.0173236 -1.30627e-19)
(0.0151145 0.00886073 1.03742e-19)
(-0.0951407 0.00367815 9.77536e-20)
(0.262566 0.0577712 -7.40504e-21)
(0.0872712 0.0102227 -9.40952e-21)
(0.580815 0.172133 1.5773e-20)
(0.382753 0.101343 8.75831e-20)
(0.736441 0.231606 -7.5725e-20)
(0.83098 0.291922 -2.61988e-19)
(-0.206907 -0.0326714 1.85733e-19)
(-0.21905 -0.0361622 1.84864e-19)
(-0.152985 -0.00429116 -8.66373e-20)
(-0.193497 -0.0113051 1.15832e-19)
(-0.0310227 0.00661567 -1.15496e-20)
(-0.131554 0.00685565 -8.35793e-20)
(0.203346 0.0463674 7.96426e-20)
(0.0282813 0.000827159 7.74705e-20)
(0.527932 0.159028 0)
(0.308167 0.0885207 9.70553e-20)
(0.692133 0.210609 -1.76394e-20)
(0.799612 0.28458 2.02727e-19)
(-0.206148 -0.0177064 1.18945e-19)
(-0.208038 -0.0210429 7.48471e-21)
(-0.176699 0.000595569 1.28432e-19)
(-0.202318 -0.0067022 -8.7857e-21)
(-0.0812436 0.00454478 0)
(-0.167621 0.0106277 -1.09521e-20)
(0.131319 0.0346823 9.43341e-20)
(-0.0365575 -0.00792591 8.95369e-20)
(0.457767 0.141623 7.06112e-20)
(0.212152 0.0754722 -6.85271e-20)
(0.63241 0.178595 -1.76394e-20)
(0.758918 0.271789 -1.1082e-19)
(-0.199513 -0.00960872 -1.16134e-19)
(-0.189373 -0.0102992 -1.52475e-19)
(-0.197011 0.00522579 -1.45985e-19)
(-0.206116 -0.00186743 -1.29969e-19)
(-0.132802 0.00369179 8.22546e-20)
(-0.200689 0.0157783 7.85772e-23)
(0.0444383 0.0255 -6.1187e-20)
(-0.101368 -0.0145971 6.91075e-21)
(0.364821 0.118741 -1.67092e-19)
(0.0876232 0.0654289 -7.90383e-20)
(0.552726 0.131253 -5.20108e-20)
(0.705286 0.251492 0)
(-0.191223 -0.00500838 -1.66325e-19)
(-0.166547 -0.000556219 2.02774e-19)
(-0.213442 0.0109029 1.05613e-20)
(-0.204217 0.00432042 -1.36119e-19)
(-0.181155 0.00530973 -7.79295e-20)
(-0.229455 0.0232767 -9.11891e-20)
(-0.052508 0.0172635 -7.99082e-21)
(-0.15745 -0.0188635 -8.14884e-20)
(0.239995 0.0861187 2.90734e-20)
(-0.0754089 0.0671104 1.5122e-19)
(0.450886 0.0602395 -9.42891e-20)
(0.632502 0.218194 -6.06541e-20)
(-0.17644 0.00137814 2.73586e-19)
(-0.12441 -0.000388508 1.73411e-19)
(-0.224402 0.0177903 -2.42746e-19)
(-0.181564 0.00472901 1.25804e-20)
(-0.222785 0.00951645 -1.05673e-19)
(-0.24509 0.0292864 1.88487e-20)
(-0.16141 0.0116364 7.11984e-20)
(-0.194462 -0.0162676 -1.87025e-20)
(0.0809088 0.0379982 1.27299e-19)
(-0.277216 0.0802823 -2.44228e-20)
(0.309073 -0.0382457 4.87057e-20)
(0.545855 0.165307 -9.45331e-20)
(-0.12194 -0.000281473 -8.19706e-20)
(-0.204312 0.0204917 2.60901e-19)
(-0.236934 0.0225257 7.5356e-20)
(-0.252322 0.0343538 -1.29462e-19)
(-0.0986375 0.076517 -1.76434e-19)
(0.468087 0.169665 1.14668e-19)
(0.888683 0.236938 -5.18947e-20)
(0.804367 0.31656 -1.02601e-19)
(0.785489 0.255685 -3.54951e-19)
(1.07503 0.19918 4.9527e-20)
(1.02721 0.230979 5.31267e-20)
(0.986252 0.184443 1.05269e-20)
(1.18538 0.186276 -9.04194e-22)
(1.15913 0.206163 -6.9525e-21)
(1.1217 0.164543 4.50118e-20)
(1.25335 0.18289 4.77266e-21)
(1.24132 0.200039 6.3715e-21)
(1.20973 0.164147 -2.32698e-21)
(1.29161 0.180117 2.24265e-21)
(1.28653 0.195081 -1.19669e-21)
(1.26463 0.166105 -1.80378e-21)
(1.30985 0.175143 5.32844e-21)
(1.30771 0.188093 -2.42523e-21)
(1.29591 0.165801 2.23147e-21)
(1.31558 0.168033 3.30438e-21)
(1.31442 0.179275 -4.36706e-21)
(1.31101 0.162652 -1.54539e-21)
(1.31406 0.159525 1.83326e-20)
(1.31293 0.169313 -6.40607e-21)
(1.31574 0.157171 -1.58163e-21)
(1.30867 0.150292 3.3543e-20)
(1.30716 0.158855 1.92315e-20)
(1.31432 0.150102 1.97161e-20)
(1.30135 0.140756 9.67124e-22)
(1.29938 0.148333 -1.96043e-21)
(1.30955 0.142142 1.53791e-20)
(1.2932 0.13119 -2.88081e-20)
(1.29079 0.138002 -1.44036e-20)
(1.30303 0.133646 -2.26359e-21)
(1.28473 0.121773 -2.2637e-20)
(1.28196 0.128 3.4005e-21)
(1.29557 0.124849 1.29992e-20)
(1.2761 0.112599 -2.35153e-20)
(1.27306 0.118375 -7.82555e-21)
(1.28765 0.115986 -8.17469e-21)
(1.26724 0.103715 -1.06129e-21)
(1.26404 0.109138 -2.35666e-20)
(1.27944 0.107219 -1.54041e-20)
(1.25802 0.0951599 2.8119e-20)
(1.25477 0.10029 1.40875e-20)
(1.27089 0.0986441 1.45339e-20)
(1.2482 0.0869952 -1.40143e-20)
(1.24506 0.0918513 2.91561e-20)
(1.26186 0.0903386 1.1996e-20)
(1.23751 0.079315 -1.81666e-21)
(1.23462 0.0838768 -5.05402e-20)
(1.2521 0.0823944 -3.97581e-20)
(1.22555 0.0722552 2.66044e-20)
(1.22312 0.0764684 4.77548e-20)
(1.24127 0.074941 2.64208e-20)
(1.21183 0.0660057 0)
(1.21014 0.0697836 -7.38219e-21)
(1.22897 0.0681749 0)
(1.19574 0.0608275 1.09564e-20)
(1.19508 0.0639091 7.07557e-21)
(1.21459 0.0622221 0)
(1.1765 0.0570929 -6.97143e-21)
(1.17721 0.0588874 4.23555e-21)
(1.19732 0.0571841 -1.01577e-20)
(1.15301 0.0553755 -1.85483e-20)
(1.15608 0.0560779 -2.42294e-20)
(1.17667 0.0544178 -2.78779e-20)
(1.12352 0.0566866 2.73866e-20)
(1.13223 0.0605505 2.32545e-20)
(1.15322 0.0590219 1.68431e-20)
(1.10388 0.0738203 1.81134e-20)
(1.12492 0.0733472 -4.67394e-22)
(0.918715 0.255034 1.14275e-20)
(0.81991 0.305215 3.77307e-21)
(1.10522 0.229611 -2.09466e-21)
(1.05596 0.257656 4.58156e-22)
(1.21328 0.219904 6.77887e-22)
(1.18667 0.239144 -2.13947e-21)
(1.27311 0.212144 2.24118e-22)
(1.2601 0.22946 2.02981e-21)
(1.30185 0.20318 -7.00041e-21)
(1.29574 0.21865 -2.85154e-21)
(1.31193 0.192569 -1.23506e-20)
(1.30884 0.206077 2.23376e-21)
(1.31162 0.180926 -1.43939e-20)
(1.30962 0.192693 -4.25425e-21)
(1.30597 0.168963 -6.1311e-21)
(1.30416 0.17925 1.15097e-21)
(1.29786 0.15717 -1.62027e-20)
(1.29589 0.16622 1.12529e-20)
(1.28884 0.145817 -1.75204e-20)
(1.2866 0.153858 -2.84197e-20)
(1.27958 0.135012 1.76303e-20)
(1.2771 0.142253 0)
(1.27033 0.124765 1.82791e-20)
(1.26767 0.131382 1.78051e-20)
(1.26105 0.115047 -7.64357e-21)
(1.2583 0.121176 1.56722e-21)
(1.25162 0.105823 -8.62152e-21)
(1.24885 0.111563 -2.65541e-20)
(1.24186 0.0970762 1.50375e-20)
(1.23916 0.102486 8.93261e-21)
(1.23152 0.0888202 -6.76559e-21)
(1.22899 0.0939172 7.23973e-21)
(1.22028 0.08111 -1.587e-21)
(1.21808 0.0858729 -1.40554e-20)
(1.20776 0.0740493 1.41514e-20)
(1.2061 0.0784229 3.72916e-20)
(1.19348 0.0677966 -4.03054e-22)
(1.19263 0.0716853 -8.13062e-23)
(1.17687 0.0625752 3.72933e-22)
(1.17715 0.0657155 -3.72142e-20)
(1.15722 0.0586921 -1.28535e-20)
(1.15897 0.0605096 -5.67341e-22)
(1.13362 0.0565999 2.74715e-22)
(1.13769 0.0573939 1.4206e-20)
(1.10465 0.0570423 1.40057e-20)
(1.11378 0.0614339 -1.42816e-20)
(1.08585 0.0736349 3.34349e-20)
(0.944819 0.27466 -7.11679e-21)
(0.848022 0.299506 1.61996e-21)
(1.13032 0.258542 4.67751e-22)
(1.0795 0.280042 9.78135e-21)
(1.23106 0.248159 0)
(1.20425 0.266334 9.48781e-21)
(1.28144 0.235867 3.34507e-22)
(1.2679 0.252953 -1.46046e-21)
(1.30204 0.221627 7.07246e-21)
(1.29521 0.237212 5.24546e-21)
(1.30622 0.206498 1.08543e-20)
(1.30239 0.220283 -8.73549e-21)
(1.30204 0.191366 1.19507e-20)
(1.29936 0.203444 3.63188e-21)
(1.29405 0.176822 1.85133e-20)
(1.29167 0.187414 -3.29692e-21)
(1.28463 0.163176 -6.42201e-22)
(1.28224 0.172519 -2.8601e-21)
(1.27489 0.15052 -1.10068e-20)
(1.2724 0.158844 1.03371e-20)
(1.26523 0.13881 0)
(1.26268 0.146321 1.12631e-20)
(1.25569 0.127947 1.03433e-21)
(1.25312 0.134815 8.1598e-22)
(1.24615 0.117819 -1.72418e-20)
(1.24362 0.124176 -8.78575e-21)
(1.23644 0.108331 -9.31019e-21)
(1.234 0.114272 -8.92314e-21)
(1.22634 0.0994163 1.1808e-21)
(1.22407 0.104999 1.60546e-22)
(1.21561 0.0910483 1.01881e-22)
(1.2136 0.0962914 -1.72346e-20)
(1.20397 0.0832482 2.44722e-20)
(1.20237 0.0881338 -8.68369e-22)
(1.19105 0.0760898 2.33529e-20)
(1.19006 0.0805679 2.51679e-20)
(1.17642 0.0697014 -3.66399e-20)
(1.1763 0.0736771 -9.30436e-21)
(1.15955 0.0642704 -3.60868e-20)
(1.16061 0.0674821 -4.50278e-20)
(1.13983 0.0600468 2.94916e-20)
(1.14239 0.0619452 6.23036e-21)
(1.11646 0.0573778 -1.80649e-22)
(1.12126 0.0583353 -4.30292e-21)
(1.08837 0.0568016 -6.97537e-20)
(1.09758 0.0617069 -5.95931e-21)
(1.07041 0.0729423 1.88427e-20)
(0.972537 0.287394 1.49356e-20)
(0.878825 0.296623 7.29958e-21)
(1.14818 0.281193 1.70935e-20)
(1.09792 0.297332 -4.03483e-22)
(1.23902 0.26995 9.45955e-21)
(1.21295 0.287004 4.98698e-21)
(1.2807 0.254043 3.33836e-21)
(1.26726 0.270768 -7.11593e-21)
(1.29508 0.235916 -1.03295e-20)
(1.2879 0.251417 7.69258e-21)
(1.29533 0.217484 -1.61077e-20)
(1.29096 0.231341 -4.88273e-21)
(1.28892 0.19981 -1.15267e-20)
(1.28566 0.212017 -6.79138e-21)
(1.27985 0.183407 -2.45448e-20)
(1.27695 0.194143 -5.40553e-21)
(1.27003 0.16844 8.09308e-21)
(1.26724 0.177934 -1.11488e-21)
(1.26022 0.154856 3.27469e-20)
(1.25749 0.163336 1.46958e-20)
(1.25061 0.142501 1.21192e-20)
(1.24796 0.150164 1.77138e-20)
(1.2411 0.13119 -8.98224e-21)
(1.23857 0.138197 -1.03289e-20)
(1.23152 0.12075 -4.80466e-22)
(1.22916 0.127229 1.59845e-21)
(1.22168 0.11104 4.81527e-22)
(1.21953 0.117085 4.4935e-21)
(1.21139 0.10196 -1.82026e-20)
(1.20949 0.107632 -4.15281e-21)
(1.20042 0.093453 -1.83484e-20)
(1.19886 0.0987766 -1.89649e-20)
(1.18852 0.0855107 -3.99207e-22)
(1.18742 0.090476 9.67217e-21)
(1.17537 0.0781785 -7.2145e-21)
(1.17492 0.0827442 -1.71892e-22)
(1.16059 0.071556 -1.74258e-20)
(1.16102 0.075633 -1.66185e-20)
(1.1437 0.0657958 -7.05656e-22)
(1.14532 0.0691249 7.63888e-21)
(1.12415 0.0610992 -2.43998e-20)
(1.12729 0.0631513 -4.36677e-21)
(1.10129 0.0577274 -2.75685e-20)
(1.10654 0.0589086 -2.88517e-20)
(1.07436 0.0560691 7.81961e-21)
(1.08332 0.0613836 2.3008e-20)
(1.05722 0.0718981 -2.82916e-21)
(0.997272 0.296976 -7.90177e-21)
(0.908825 0.2963 -1.42414e-21)
(1.15917 0.298288 -1.31479e-20)
(1.11145 0.310488 -6.82052e-21)
(1.23956 0.286348 -9.35262e-21)
(1.21479 0.30222 -2.97242e-21)
(1.27373 0.267785 -3.47715e-21)
(1.26068 0.284036 -7.47462e-21)
(1.28345 0.246891 1.39901e-20)
(1.27609 0.262172 4.79676e-21)
(1.28117 0.226114 4.79354e-21)
(1.27636 0.239886 9.49457e-21)
(1.27367 0.206646 -6.57977e-22)
(1.26989 0.218832 -6.79138e-21)
(1.26436 0.188949 1.82554e-20)
(1.26098 0.199694 6.11282e-21)
(1.25474 0.173069 5.57903e-21)
(1.25156 0.182594 4.82171e-21)
(1.24527 0.158842 -3.68853e-22)
(1.24228 0.167364 6.99656e-21)
(1.23597 0.146025 -4.59159e-21)
(1.2332 0.153733 -3.41678e-21)
(1.22669 0.134374 6.97657e-23)
(1.22416 0.141423 -1.12157e-20)
(1.21722 0.12368 6.52287e-21)
(1.21498 0.130189 8.27945e-21)
(1.2074 0.113775 -6.87216e-23)
(1.20546 0.119836 -1.07286e-20)
(1.19703 0.104533 -4.80857e-21)
(1.19544 0.110211 4.82878e-21)
(1.18593 0.0958735 8.87642e-21)
(1.18475 0.101204 -1.80892e-21)
(1.17389 0.0877616 1.00197e-20)
(1.17322 0.0927482 1.91262e-20)
(1.16064 0.0802123 -9.38796e-21)
(1.16063 0.0848283 -9.32318e-21)
(1.14586 0.0732936 8.30691e-21)
(1.14673 0.0774653 -2.5232e-21)
(1.12913 0.0671242 4.07756e-21)
(1.13117 0.0706097 8.36269e-21)
(1.10996 0.0618623 -8.66747e-21)
(1.11349 0.0641508 -2.32649e-23)
(1.08783 0.0577033 3.94384e-21)
(1.09329 0.0591547 -9.32227e-21)
(1.06235 0.0549445 1.25315e-20)
(1.07075 0.0603594 1.49034e-20)
(1.046 0.0705815 -2.54918e-21)
(1.01808 0.304791 -8.25608e-22)
(0.936169 0.298371 -1.86194e-21)
(1.16461 0.310887 3.27441e-21)
(1.12037 0.320428 1.66569e-21)
(1.23474 0.298457 8.50772e-22)
(1.21161 0.313263 2.01456e-21)
(1.26255 0.278051 1.26286e-22)
(1.25007 0.293812 -1.81914e-21)
(1.26882 0.255238 3.05115e-22)
(1.26141 0.270241 2.00945e-21)
(1.26503 0.232848 -1.86363e-21)
(1.25985 0.246442 -2.41566e-21)
(1.25721 0.212166 -1.56345e-22)
(1.25294 0.224227 1.08693e-21)
(1.24821 0.193605 -7.32611e-21)
(1.24436 0.204261 4.31898e-21)
(1.23915 0.177116 6.27734e-21)
(1.23558 0.186578 -8.2177e-21)
(1.23026 0.162444 4.06792e-21)
(1.22699 0.170922 9.12591e-21)
(1.22144 0.149287 -9.99931e-21)
(1.21851 0.15696 -5.52754e-21)
(1.21252 0.137368 -3.1867e-21)
(1.20995 0.144377 0)
(1.20328 0.126456 -8.8474e-21)
(1.20111 0.132915 -1.71283e-21)
(1.19358 0.116368 -5.96332e-21)
(1.19182 0.122366 -4.08005e-21)
(1.18324 0.106966 7.89178e-21)
(1.18192 0.112571 -2.66128e-22)
(1.17211 0.0981519 8.28215e-21)
(1.17129 0.103409 5.42349e-21)
(1.16003 0.0898659 0)
(1.15977 0.0947975 0)
(1.14679 0.0820926 -2.50567e-21)
(1.1472 0.0866958 -1.353e-21)
(1.13212 0.0748641 -2.54003e-21)
(1.13339 0.0790955 1.27992e-21)
(1.11567 0.0682603 4.34765e-21)
(1.11807 0.0719349 1.26474e-21)
(1.09698 0.06239 -5.12158e-22)
(1.10082 0.0650679 3.15567e-21)
(1.0757 0.0573687 -2.02856e-21)
(1.08123 0.05923 -4.94544e-21)
(1.05206 0.0534546 1.46689e-22)
(1.05948 0.0581443 8.65471e-21)
(1.03661 0.0687691 -5.168e-21)
(1.03457 0.31159 -1.16177e-22)
(0.959559 0.302325 8.49602e-21)
(1.16558 0.32024 3.98541e-22)
(1.12509 0.328106 -1.28135e-21)
(1.22616 0.307381 0)
(1.20481 0.321345 1.49377e-21)
(1.24865 0.285697 0)
(1.23683 0.30103 -5.98961e-21)
(1.25237 0.261559 -5.68841e-22)
(1.24496 0.276279 0)
(1.24778 0.238082 4.83423e-22)
(1.24225 0.251451 -8.62659e-21)
(1.24014 0.216607 5.54427e-21)
(1.23541 0.228479 3.48055e-21)
(1.23178 0.197492 3.57742e-21)
(1.22747 0.207993 2.15033e-21)
(1.22348 0.180602 -5.55992e-21)
(1.21954 0.18994 -3.26342e-21)
(1.2153 0.165618 -3.17847e-22)
(1.21175 0.173993 3.86566e-21)
(1.20708 0.152199 4.43037e-21)
(1.20397 0.159778 4.3873e-21)
(1.19861 0.14005 1.49709e-21)
(1.19596 0.146963 0)
(1.18971 0.128932 3.08482e-21)
(1.18755 0.135283 1.5111e-21)
(1.18023 0.118662 1.58533e-21)
(1.17858 0.124533 -1.93826e-21)
(1.17004 0.109096 -2.77805e-21)
(1.16893 0.114552 0)
(1.15902 0.100128 -2.82152e-21)
(1.15848 0.10522 -2.80029e-21)
(1.14701 0.0916823 -1.34319e-21)
(1.14711 0.096447 -5.96099e-21)
(1.13387 0.083718 2.42437e-21)
(1.1347 0.0881791 -1.38557e-21)
(1.11939 0.0762305 5.0985e-21)
(1.12108 0.0803955 9.33771e-21)
(1.10325 0.0692594 1.61396e-23)
(1.10607 0.0730577 4.0211e-21)
(1.08502 0.0628765 -1.22758e-21)
(1.08934 0.0660498 -3.88288e-21)
(1.06442 0.0570458 2.36975e-21)
(1.07024 0.0596828 0)
(1.04294 0.0512801 3.55541e-21)
(1.04795 0.0545513 2.38395e-21)
(1.0296 0.0671444 -4.68012e-21)
(1.04668 0.31775 7.51635e-21)
(0.978203 0.307529 4.27124e-21)
(1.16297 0.32736 -5.68182e-22)
(1.12608 0.334292 -9.46188e-21)
(1.21499 0.314044 -4.35669e-21)
(1.19541 0.327438 8.37297e-21)
(1.23301 0.291421 -6.08978e-21)
(1.22186 0.306442 -3.12931e-21)
(1.23485 0.266344 -7.92668e-21)
(1.22745 0.280816 6.15116e-21)
(1.22993 0.242136 -5.80524e-21)
(1.22408 0.255268 -8.26146e-21)
(1.2228 0.220157 1.02136e-22)
(1.21761 0.231808 7.8566e-21)
(1.21528 0.200696 -4.62198e-21)
(1.21052 0.211003 2.89068e-21)
(1.20786 0.183541 6.09545e-21)
(1.20352 0.192716 -1.17422e-20)
(1.20047 0.168326 8.5681e-21)
(1.19661 0.17656 4.17649e-21)
(1.1929 0.154686 0)
(1.18956 0.162136 8.52728e-21)
(1.18496 0.142319 0)
(1.18218 0.149103 -1.60185e-20)
(1.17649 0.130988 -3.47966e-21)
(1.17428 0.137199 7.55595e-21)
(1.16736 0.120514 -3.53976e-21)
(1.16574 0.126221 -3.185e-23)
(1.15746 0.110757 0)
(1.15647 0.116015 7.10489e-21)
(1.14668 0.101612 -5.9158e-21)
(1.14635 0.106461 -6.7856e-21)
(1.13492 0.0930051 -6.03541e-21)
(1.13529 0.0974709 -5.96099e-21)
(1.12205 0.0848875 5.43936e-21)
(1.1232 0.088988 -3.25671e-23)
(1.10791 0.0772376 8.29577e-21)
(1.10997 0.0809896 -5.08807e-22)
(1.09232 0.0700607 1.28284e-22)
(1.09543 0.0734217 1.12518e-20)
(1.07504 0.06346 -2.67928e-21)
(1.07947 0.066082 -1.08657e-20)
(1.05589 0.0579372 0)
(1.06217 0.0591135 0)
(1.03464 0.0546652 -5.81097e-21)
(1.04407 0.0536399 0)
(1.01604 0.0667844 -1.24188e-20)
(1.0545 0.323505 -1.22197e-20)
(0.991804 0.313423 7.68927e-22)
(1.15745 0.333026 -1.71955e-21)
(1.1238 0.339562 6.91487e-22)
(1.20199 0.319177 1.01023e-20)
(1.18406 0.332282 3.13576e-20)
(1.21628 0.295777 8.92794e-21)
(1.20574 0.310629 2.83228e-21)
(1.21674 0.269981 6.10456e-21)
(1.20931 0.284263 -3.56063e-20)
(1.21183 0.245262 5.17612e-21)
(1.20562 0.258168 1.21843e-20)
(1.20539 0.222959 1.06878e-20)
(1.19974 0.234379 -1.91736e-20)
(1.19881 0.203278 -4.08024e-21)
(1.19359 0.213376 -2.88275e-20)
(1.19232 0.185941 -1.38341e-20)
(1.18758 0.194932 7.62676e-22)
(1.18575 0.170539 4.08163e-21)
(1.18156 0.178614 -2.37083e-20)
(1.17889 0.156694 -7.25923e-21)
(1.17529 0.164 2.65788e-20)
(1.17155 0.144104 -8.67527e-21)
(1.16857 0.150751 -1.60185e-20)
(1.1636 0.132535 1.1072e-20)
(1.16126 0.138607 7.55595e-21)
(1.15492 0.121812 1.05549e-20)
(1.15324 0.127368 -1.18673e-20)
(1.14544 0.111799 4.29621e-22)
(1.14444 0.116882 2.14525e-24)
(1.13505 0.102393 -6.83704e-21)
(1.13477 0.107032 1.38613e-20)
(1.12369 0.0935162 0)
(1.12417 0.0977248 -2.67089e-20)
(1.11126 0.0851134 -5.98788e-21)
(1.11255 0.0889046 3.88724e-20)
(1.09766 0.0771495 2.41085e-21)
(1.09982 0.0805354 -2.47353e-20)
(1.08282 0.0696308 7.33021e-23)
(1.08592 0.0724888 3.24608e-20)
(1.06668 0.0626286 -8.33949e-21)
(1.07085 0.0644013 -8.2883e-21)
(1.04895 0.0560829 0)
(1.05452 0.0566241 -2.32679e-20)
(1.02772 0.0489303 -6.53647e-21)
(1.0353 0.0536184 3.42143e-20)
(1.01066 0.0650886 -6.02007e-20)
(1.05825 0.328974 1.36205e-20)
(1.00045 0.319549 -5.1994e-21)
(1.14955 0.337813 3.34519e-20)
(1.11866 0.344341 -2.01539e-20)
(1.18766 0.323339 2.49335e-20)
(1.1712 0.336424 2.72106e-20)
(1.19883 0.299189 -4.10592e-20)
(1.18879 0.314027 -3.2729e-20)
(1.19829 0.272765 -3.02486e-20)
(1.19077 0.28693 1.69873e-20)
(1.19361 0.247645 -1.17289e-20)
(1.18702 0.260355 -1.44052e-21)
(1.18799 0.225115 -5.8586e-20)
(1.18186 0.236311 -1.41182e-20)
(1.1824 0.205286 -2.43377e-20)
(1.1767 0.215168 -1.13112e-20)
(1.17686 0.187809 -8.83918e-21)
(1.17169 0.196607 -1.26771e-20)
(1.17114 0.172241 -1.71278e-21)
(1.16659 0.180147 1.27976e-21)
(1.16502 0.158196 1.82287e-20)
(1.16112 0.165353 -1.19744e-21)
(1.15833 0.145373 0)
(1.15511 0.151887 5.79187e-22)
(1.15096 0.133541 -1.52127e-20)
(1.14844 0.139491 5.1427e-20)
(1.14283 0.122526 -2.25232e-20)
(1.14101 0.127969 -4.77687e-20)
(1.13385 0.112193 1.33213e-20)
(1.13276 0.11717 -7.10744e-21)
(1.12397 0.102435 -5.7001e-21)
(1.12363 0.106972 2.06498e-20)
(1.11311 0.0931679 1.16603e-20)
(1.11357 0.0972801 -2.67089e-20)
(1.10121 0.0843261 2.05636e-20)
(1.1025 0.0880341 2.5718e-20)
(1.08819 0.0758627 4.84533e-21)
(1.09036 0.0791827 -1.87089e-20)
(1.07398 0.0677514 2.40765e-20)
(1.07712 0.0705447 2.3923e-20)
(1.0585 0.0599522 -2.31242e-20)
(1.06281 0.0617277 -4.8959e-20)
(1.04136 0.0523114 4.8656e-21)
(1.04711 0.0534457 1.20938e-20)
(1.02218 0.0448927 2.47006e-20)
(1.02826 0.0511 8.30802e-20)
(1.00596 0.060085 -6.08425e-20)
(1.05831 0.334213 -3.89117e-20)
(1.00443 0.32557 2.318e-20)
(1.13964 0.342152 -2.62678e-20)
(1.11101 0.348969 1.90494e-20)
(1.17228 0.326957 -2.90331e-20)
(1.15708 0.34027 -1.35156e-20)
(1.18083 0.301978 2.44076e-20)
(1.17117 0.31695 1.87815e-20)
(1.1796 0.274908 4.59337e-20)
(1.17189 0.289032 2.80625e-20)
(1.17534 0.249418 -3.57576e-21)
(1.1683 0.261965 1.69314e-20)
(1.17061 0.226699 3.3131e-20)
(1.16397 0.237682 9.34264e-21)
(1.16603 0.206748 4.11587e-22)
(1.15983 0.216415 7.42793e-20)
(1.16146 0.189148 -2.71343e-21)
(1.15584 0.197749 2.33755e-20)
(1.15661 0.173424 1.82349e-21)
(1.15166 0.181153 -2.31323e-20)
(1.15126 0.159183 -1.88644e-20)
(1.14703 0.166185 1.20055e-21)
(1.14526 0.146123 5.15423e-20)
(1.14176 0.152505 2.04877e-20)
(1.13853 0.134021 1.97359e-20)
(1.13577 0.139861 1.51865e-20)
(1.131 0.122701 -3.26916e-20)
(1.12899 0.128058 -3.24212e-20)
(1.1226 0.112027 0)
(1.12136 0.116944 0)
(1.11329 0.101888 0)
(1.11284 0.106395 3.11593e-20)
(1.10302 0.0921953 -1.30887e-20)
(1.10338 0.0963152 -2.98555e-20)
(1.09172 0.0828798 -1.32759e-20)
(1.09292 0.0866407 -1.31843e-20)
(1.07935 0.0738903 0)
(1.08144 0.0773135 -1.42305e-20)
(1.06586 0.0651925 -4.8645e-20)
(1.06892 0.0681362 -5.3221e-20)
(1.05115 0.05675 -8.79098e-21)
(1.05542 0.0587448 -4.90446e-20)
(1.03497 0.0485117 8.40175e-20)
(1.04056 0.0500499 8.50998e-20)
(1.01766 0.0407271 1.29661e-19)
(1.02244 0.0476041 6.1422e-20)
(1.00182 0.0545233 5.98725e-21)
(1.05498 0.339499 8.02147e-20)
(1.00442 0.331368 5.85648e-20)
(1.12794 0.346433 3.23446e-20)
(1.10104 0.353739 5.74049e-20)
(1.15595 0.330324 3.42635e-20)
(1.14174 0.3441 6.44127e-20)
(1.16234 0.304339 2.22034e-20)
(1.15286 0.319598 -6.02376e-20)
(1.16068 0.276549 -6.71021e-22)
(1.15267 0.290705 4.06263e-20)
(1.15698 0.250663 3.00228e-20)
(1.14942 0.26308 3.20788e-20)
(1.15322 0.227748 4.98057e-20)
(1.146 0.23853 -1.2029e-19)
(1.14967 0.207678 9.78636e-20)
(1.14294 0.217128 5.23281e-20)
(1.14608 0.189956 3.45442e-21)
(1.13998 0.198351 -5.31705e-21)
(1.14211 0.174079 -2.40102e-20)
(1.13675 0.18162 -9.02872e-20)
(1.13757 0.159647 4.03427e-20)
(1.13297 0.166483 2.03821e-20)
(1.13231 0.146361 -1.58468e-20)
(1.12849 0.152601 1.86303e-20)
(1.12627 0.134 -3.65587e-20)
(1.12324 0.139725 -3.62405e-20)
(1.1194 0.12239 0)
(1.11716 0.127663 0)
(1.11165 0.111392 3.09118e-20)
(1.11021 0.11626 -3.54544e-20)
(1.10298 0.100895 1.76622e-21)
(1.10236 0.105392 3.11593e-20)
(1.09335 0.0908093 -3.0072e-20)
(1.09357 0.0949616 -2.98555e-20)
(1.08272 0.0810658 -1.41316e-20)
(1.0838 0.0849055 0)
(1.07107 0.0716161 -6.71914e-20)
(1.07304 0.0751652 -3.80434e-23)
(1.05835 0.0624306 -5.08901e-20)
(1.06131 0.0655439 -1.09476e-19)
(1.04452 0.0534875 5.44375e-20)
(1.04871 0.0557109 1.09338e-19)
(1.02942 0.0447692 6.26043e-20)
(1.03481 0.0466579 9.41595e-21)
(1.01381 0.0366225 2.54093e-20)
(1.01753 0.0438031 -1.5367e-20)
(0.998384 0.0489571 7.42632e-23)
(1.04855 0.344458 3.45754e-20)
(1.00028 0.336789 2.79434e-20)
(1.11457 0.350692 8.93263e-20)
(1.08893 0.358928 9.95478e-20)
(1.13867 0.333642 -2.71469e-20)
(1.12525 0.348104 2.11763e-20)
(1.14329 0.306417 -4.33272e-20)
(1.1338 0.32208 -5.44154e-20)
(1.14147 0.277762 7.35542e-20)
(1.13301 0.292009 3.71664e-20)
(1.13847 0.251416 -1.16355e-19)
(1.1303 0.263726 -1.02376e-19)
(1.13573 0.228274 -1.19638e-19)
(1.12789 0.238859 -5.88564e-20)
(1.13326 0.208067 -5.01666e-20)
(1.12594 0.217293 5.99368e-20)
(1.13067 0.190217 -9.81466e-20)
(1.12405 0.198391 -4.17513e-22)
(1.12762 0.174189 -4.69924e-20)
(1.12179 0.181522 -4.64786e-20)
(1.12392 0.159577 -1.28838e-21)
(1.11891 0.166224 -4.71732e-20)
(1.11945 0.146085 -1.26896e-21)
(1.11527 0.15216 4.03558e-20)
(1.11416 0.133491 0)
(1.11082 0.139081 0)
(1.10801 0.121623 -3.51587e-20)
(1.1055 0.126795 0)
(1.10097 0.110341 -3.5736e-20)
(1.09929 0.115145 -1.55406e-22)
(1.093 0.0995321 0)
(1.09217 0.104007 -6.93235e-20)
(1.08408 0.0891072 0)
(1.08412 0.093281 6.65522e-20)
(1.0742 0.0789995 1.41255e-20)
(1.0751 0.0829058 -6.39154e-20)
(1.06333 0.0691655 -4.15604e-20)
(1.06513 0.0728244 7.60228e-20)
(1.05148 0.0595823 5.49286e-20)
(1.05427 0.0628481 -5.62548e-20)
(1.03861 0.050238 6.51543e-20)
(1.04264 0.052679 1.67258e-19)
(1.02467 0.0411314 -6.83864e-20)
(1.02978 0.0433325 -9.66286e-20)
(1.01062 0.0327241 -4.07846e-20)
(1.01341 0.039966 1.14143e-19)
(0.995668 0.0435728 -1.21498e-19)
(1.03915 0.349713 9.0638e-20)
(0.992624 0.342085 1.79065e-20)
(1.09955 0.355398 3.3491e-20)
(1.07466 0.364699 -1.64732e-22)
(1.12037 0.337013 -4.59755e-21)