/*--------------------------------*- C++ -*----------------------------------*  =========                 |
  \      /  F ield         | OpenFOAM: The Open Source CFD Toolbox
   \    /   O peration     | Website:  https://openfoam.org
    \  /    A nd           | Version:  11
     \/     M anipulation  |
\*---------------------------------------------------------------------------*/
FoamFile
{
    format      ascii;
    class       volScalarField;
    object      U;
}
// * * * * * * * * * * * * * * * * * * * * * * * * * * * * * * * * * * * * * //

dimensions      [0 1 -1 0 0 0 0];

internalField   nonuniform List<scalar> 
2880
( 
0.0714939480869572
0.1401047365507784
0.2193805998465206
0.26828737913240513
0.3384535493877529
0.4496637088251213
0.09984214384750434
0.16960480207826178
0.24217077765462147
0.28685130160762096
0.34928500165767956
0.41970665211043845
0.1131778499930291
0.18021535553691498
0.2462039857724585
0.2896183970633022
0.3529699666895775
0.42612368809793705
0.12516862971638573
0.18799164464123697
0.24725770150090276
0.28996908887818756
0.3553044248325484
0.4331572491664241
0.13782806016378893
0.19448591371462023
0.24753875232370026
0.2898272349771639
0.3558884834357934
0.4353910520002401
0.14996816458102108
0.19971244512539893
0.2464360666179397
0.28926649336260507
0.3548015227670037
0.433819197791951
0.16094471507595015
0.2032928208332502
0.24525606236320896
0.2884261606265731
0.3524356827662674
0.4292321517606882
0.16972045904108066
0.20566643919988853
0.24432910417143197
0.2873606102239912
0.3499441111534412
0.4236187668673045
0.17703951751786334
0.20734764853203466
0.2432281560629308
0.28611633125762925
0.34712919609965015
0.417872272920417
0.1827734511262201
0.20857417323019867
0.2420085441367595
0.28533830227924417
0.34528031611237137
0.4139655470337004
0.18675732383404225
0.209600277333079
0.24260017304452247
0.2855408581329783
0.3450406568030917
0.4125505871551948
0.18898570525232825
0.21079680642259926
0.244309323380232
0.2874263102353023
0.3462124756082794
0.4120229280899809
0.189216694314307
0.2115390819270745
0.2467218272878933
0.29073454056102255
0.349147110717254
0.4141021714148527
0.1876312347416064
0.2120499222495639
0.2491655230523896
0.2951298531493305
0.35441937325616923
0.41955649602796047
0.18380916510874026
0.21194724435677928
0.2514651025968001
0.2996367042678275
0.3602184733458429
0.4257889465834853
0.17832645771187375
0.2112833448931885
0.25368275095130005
0.3036000949666162
0.36585268970283347
0.43241488844976705
0.17139859775260707
0.21002535094377653
0.255832930985206
0.3063404117460038
0.37082412698819334
0.4390326802062789
0.1623557034585355
0.20765831029520226
0.25675797878270407
0.3085498036592667
0.37469031285242266
0.44478203821045276
0.15139707375314507
0.2033970292907715
0.2571707432819881
0.30932514471014644
0.3767994871724377
0.44932411349100354
0.13831952886263993
0.19658149716580983
0.256321533960261
0.308071446028469
0.3773187069303917
0.4515055281635557
0.12354725951266607
0.18750477614938488
0.25375419257574866
0.30603007631426826
0.37555398177623067
0.45020595743584735
0.10884829896524544
0.17572544641303756
0.24894927665905797
0.3020870182170484
0.3721720006088193
0.4439395247969862
0.09285535544658162
0.16093523824476788
0.239947667860318
0.29397034747860123
0.3688211339373325
0.4345116518327041
0.06363659932450147
0.12804370370156676
0.2134079430086494
0.26819055684490034
0.36079519921616376
0.4356212865072291
0.8225113987840263
0.9053207966267265
0.9472836424050417
0.9720422670153509
0.9882956166310671
0.999740485081762
1.011395752570755
1.0259237961132925
1.0420257924787013
1.0583416933783092
1.0731369941661135
1.0864750343318406
1.096170886566429
1.1024063439369858
1.1057605239110113
1.106333535687615
1.1045438962837508
1.1006010833403475
1.0951551246485323
1.0879429222641863
1.0793610991973555
1.0677759504221143
1.053824315107946
1.038407268442811
0.7219424012051217
0.8683752982843284
0.9287906140215803
0.9598828985650572
0.981353684494106
0.9966956630207897
1.0105113522481102
1.0289571196654976
1.049232063260704
1.0672961625182646
1.0821044179255686
1.0939723242888428
1.1027923589392523
1.107796173898361
1.108591225667662
1.1077485153801774
1.1045880963781398
1.1000383069051984
1.093513806500589
1.0858337523020016
1.0768521009848595
1.0652785743516358
1.0508704256938086
1.0353965884954122
0.6543999560933441
0.8175543905385444
0.8938625988128559
0.9381082443517801
0.9663348499847272
0.9883634801766871
1.0080848539341236
1.0318435752301542
1.0540927525917758
1.0742635579166095
1.0901303433600855
1.1002604753470258
1.1066113229367482
1.1089903932385727
1.1093870906291012
1.1072759104372871
1.1032193717507608
1.0979898664016243
1.0905526789118825
1.0826644616819667
1.0725517372962572
1.0606066592954908
1.046686961723135
1.0307481588131728
0.6121547842247107
0.7644760256265041
0.8514293649043692
0.9061653864605059
0.9435015555897102
0.9736484096866888
1.0037169795793228
1.0323428863889725
1.057367062677002
1.0779838191611644
1.0935577422737968
1.102641993503628
1.1069171330688687
1.1081159775026228
1.1070599059462787
1.1043423860260824
1.0988979602331863
1.093341614500906
1.0859903507018307
1.0770902082951979
1.0669899299489392
1.0554305056548972
1.0411375019884288
1.0257435128936114
0.5831777387098716
0.7192322703082089
0.8098608294810574
0.8718155255902913
0.9163995958940838
0.9555391393712873
0.9940840808904368
1.028615749753614
1.0567980721013945
1.077347546699514
1.0917323473947251
1.0998643038493872
1.1030949860907702
1.1037131983273076
1.1020016992073722
1.098435215643903
1.093399634319531
1.0875992340468634
1.080030903982791
1.0712813673331274
1.0615170414752246
1.0504284819795817
1.0361064396968223
1.020841862607776
0.5603600590814735
0.6824535081760293
0.7716495937635195
0.8387738629892049
0.8908365436143028
0.9384598336462744
0.9836890662863758
1.0223084265096918
1.0525564719119955
1.0732718405654935
1.085808885692982
1.0926738135534235
1.0959791399961654
1.0955650388443623
1.094156695702207
1.0904731295602568
1.086241868176339
1.080012285768989
1.0727423802020992
1.06427159675575
1.0552447753800207
1.0444665253685013
1.0303741874656476
1.0153225767668161
0.5405200903857101
0.6523706071589762
0.7401346647733485
0.8101209871741888
0.8695007603453638
0.926079064400154
0.9754532683392433
1.0161736641714971
1.045658251236433
1.065333892891202
1.0772166474866816
1.0832345667577699
1.086232706823131
1.0865600791706618
1.085418649409058
1.0822185098899268
1.0779057646216643
1.072395140602727
1.065620316463344
1.057914510030945
1.0492574976865765
1.0386556051735933
1.0252214118821839
1.011821904098765
0.5241395960972423
0.6277130176963778
0.7143412768972056
0.7878052801774029
0.8536855368789913
0.9163054723019154
0.9690972649649242
1.0102224792434171
1.0386675719695244
1.0558545261574768
1.0674101625377275
1.0730890432152538
1.0763507473232312
1.0767251157043602
1.0760085897472211
1.0731847047365222
1.0692648557589532
1.0647819123911901
1.0586991121599054
1.0514377980958964
1.0438589901718336
1.0341501062414007
1.0215872768479515
1.0083700178366606
0.5108608132899596
0.609281098172964
0.6961624591391808
0.771101184231231
0.8446521811200249
0.9110973883715737
0.9657098200889183
1.0056656250721037
1.0309471394364287
1.0471980578344577
1.0571736438737918
1.062866058214948
1.0661486243491298
1.06706621967893
1.0662160472083864
1.0640972383629252
1.061705515523548
1.0574100332886065
1.0520601042365754
1.0461925135350674
1.0387606567529017
1.0303895480081333
1.018869533684391
1.0078311144634313
0.502172211154099
0.5969483720310536
0.6843100681914295
0.7641271644483489
0.8431367608411888
0.9112327687825608
0.9638059965937245
0.9996172000938494
1.022753924613342
1.037239097115173
1.0471596669931833
1.0524782547343356
1.0559907176659342
1.0575009288351627
1.056977052299786
1.0558764990774934
1.0537973374282092
1.0502473634693865
1.0468435236988114
1.041474593782186
1.036007609701396
1.0289070688445237
1.0191817303572732
1.0093494255091584
0.49710488775136297
0.5919436886686095
0.6796663437644452
0.7645813866152992
0.8468595326070998
0.9146492851929473
0.9634246451892928
0.9952199040621775
1.0158729941645175
1.0293121510542493
1.0381194793597497
1.0440289841136994
1.0473654283678207
1.0488839406707982
1.0493006265480018
1.0485731182272433
1.047082171886718
1.044782974446746
1.0420018079230429
1.0390213427459847
1.0347821827202477
1.0292786301386052
1.0213523734875718
1.01265296108596
0.4955744823050282
0.5916766242426095
0.6813856650741544
0.7734098112717401
0.8571014651760532
0.9212509881898572
0.9641384390171468
0.9918948168471051
1.0104990985374147
1.0229232539748236
1.0307189175726714
1.0366042400315232
1.040171018519668
1.0424554485931883
1.0429306654787798
1.0427647086837495
1.0419356820896992
1.0409106052441177
1.03995903807713
1.0384157684378246
1.0364877849492968
1.0324594010022792
1.0255617619129578
1.0177112349963473
0.49798346216903894
0.5950715329662901
0.6916598807385497
0.7891291814995418
0.8713273881799298
0.9292711035191297
0.9665833056824287
0.9904269374937834
1.0063940499693564
1.0182821651894396
1.0259400908079672
1.0316111463032132
1.0355486557260039
1.0373184775985431
1.0378798668487283
1.0388686486322891
1.0399949411794722
1.04049659749034
1.0409907056218206
1.0411662851983465
1.0395654809576014
1.036980222660565
1.0309673854321348
1.0239255231596907
0.5033296895053428
0.6025969984180636
0.7071714354315806
0.8089591495829861
0.8864497423054803
0.9368355458906911
0.9693769417688131
0.9898895212817009
1.0046153555517037
1.0158124600756357
1.022605358719947
1.0273760578851057
1.0312579694436583
1.0347850156975056
1.0371461989269932
1.0392479653356497
1.0407008882984967
1.042195133054533
1.0438361747077296
1.0453206718353598
1.0452466326740129
1.0428580123107962
1.037468119592405
1.0299033060534566
0.5121682428701713
0.6157389016957419
0.7296438838392506
0.8317463496345844
0.9015631419903996
0.9450967691760874
0.972278223954772
0.9913941099136687
1.0048154001351575
1.0139488626243542
1.0212818033375033
1.0266429317373176
1.0310449304256157
1.0333996968179022
1.036270107805769
1.0399232291039906
1.0438484647468609
1.0470736726748933
1.04923967333198
1.0506409876936964
1.050203443960532
1.0482351897164672
1.0427989087421288
1.035279127433258
0.5234219138279882
0.6365025275927155
0.7580831782732083
0.8544778606611606
0.9154680985462609
0.9524767052147979
0.97660705520839
0.992830147326136
1.0047793356205328
1.014309750256428
1.020493671475684
1.0254778519588863
1.0297760087383185
1.0347875432817681
1.0396832024463605
1.0440886063036388
1.0478214783331088
1.0518736931838812
1.0548614690895515
1.0570403357928917
1.0568613230862116
1.0544205803383149
1.0481905538768908
1.040033111367981
0.5360213591702878
0.6633902281029769
0.7908815867671856
0.8780828944503782
0.9294071521574652
0.9600324001880557
0.9811555447013564
0.9958726872826157
1.0063398925903642
1.0143402078425006
1.0206921221059286
1.026604856332101
1.0318259478936265
1.0381591333509421
1.0440919625685052
1.0498351707215428
1.0548823000194982
1.0585418747439366
1.0612377790067768
1.0630182839421345
1.0623058285345006
1.0590721287578548
1.0522876153845337
1.0434442742934897
0.5499229079975513
0.6972314209630103
0.8253350722282055
0.899289632082021
0.9409507664802363
0.9675803458085671
0.9854715194577708
0.9986559343331615
1.0084367911188086
1.0162563983366633
1.0232042905997232
1.0294277338958964
1.0369856638614907
1.0438154048302801
1.0500506066369464
1.0555331441703923
1.0610147229293014
1.0653200825144589
1.0680624879712226
1.0680170010183705
1.066854858524411
1.062594951092161
1.0544089152282943
1.0442193287452473
0.5680752674890949
0.738810022635254
0.8565137728535116
0.9180117414919261
0.9523241652000413
0.9746421364250775
0.9899555402914807
1.0013230490843716
1.0100681143070622
1.018733131581963
1.025294976913329
1.0333257194010068
1.041390864840636
1.0498696763071869
1.0566824880783783
1.0631829365003804
1.0674319202662896
1.071530137833953
1.0734102142129613
1.073397747496169
1.070041271024224
1.0647327533929172
1.0556734292942658
1.0441728430223123
0.5921130787473275
0.7840219258490216
0.8847835067523812
0.9338662983050453
0.9616159139738213
0.9802920111808503
0.993382965816063
1.003934930376567
1.0123331473223012
1.020463316100248
1.0298312827018652
1.0401536235244702
1.0488231418351857
1.05700499674496
1.063856613210351
1.0698405575875605
1.0746104022661738
1.0778232146240248
1.0782154556276393
1.0771770420812168
1.0726694030410118
1.0656616912416628
1.0558887066586538
1.0436090207333668
0.626774525060561
0.8278922785917318
0.9090162541907286
0.948064871808521
0.9699429200144508
0.985352723610539
0.9967554618461949
1.0063881583455345
1.015642311521817
1.0260362888630674
1.0359440027046396
1.0463741031529354
1.0564176704245005
1.064899628436412
1.072004954706564
1.0772596251766569
1.081053840994897
1.0829073179607636
1.0821770505259773
1.07979724182094
1.073784070228459
1.0657924378699435
1.0549767195930206
1.0415848876426579
0.6802911909678704
0.8653218145305985
0.9278953902905547
0.9581142130125638
0.9762107612117085
0.9891568123143287
0.9995892239481141
1.0094508913265035
1.0192678866419982
1.0301426010240262
1.0427426331609113
1.054904831685122
1.0645893183431694
1.0725629144775064
1.0796251901426248
1.0840652573506466
1.0865732330379951
1.08727781206326
1.0852235534118844
1.0809527235493368
1.074758296254505
1.0653316088647211
1.054061497837126
1.0402077797608362
0.7525581074470734
0.8939695731694295
0.9407706210864217
0.9651989054870243
0.9804458049965187
0.9926010538835597
1.0020234742948897
1.012020149637448
1.024516771098078
1.037607560301412
1.0508444494442588
1.0631685276062026
1.0734949377564555
1.0816174250765267
1.087075252337132
1.0902536676969512
1.0920723947983133
1.090493832683847
1.08764448432271
1.0819700355283826
1.0750803842316896
1.0653502618871549
1.0528522439901131
1.037990595102324
0.8332355243926036
0.9108359731972102
0.9464294810483276
0.9686612224179728
0.9829119688534533
0.9944897462810017
1.004080720725809
1.0162229955299569
1.0306077250411414
1.0454452532456602
1.0593064270887536
1.0717599041796873
1.0818123298467113
1.088936987263001
1.093812292540378
1.096017958134228
1.0955981990473866
1.0933367800943188
1.0890237415232649
1.0826583200522328
1.0747732763386815
1.064488212498273
1.0510857210999065
1.0369186305248186
0.07329075736278659
0.147079180617123
0.22953784168309474
0.2784714844771668
0.34864627110483076
0.45406334628874084
0.10485992074150713
0.17913135908671005
0.2533010694827652
0.29659563728677346
0.3581114979963994
0.42661097487363947
0.11954548665540299
0.19004881302513812
0.2571345976420801
0.2991200983133208
0.3627542897048636
0.43602707285107445
0.1323110780477291
0.19798186431435533
0.2575447262193228
0.2994370394557682
0.3652263932311469
0.4448587450074249
0.1456624635157961
0.20429595750538984
0.256797912057506
0.2991708762528673
0.3660087911194764
0.4482265599754958
0.1585873132697177
0.20898229077684163
0.2559143291567186
0.2984536885820306
0.36565164120620874
0.4474304153011455
0.1705861885543689
0.2121825436834096
0.254185415318395
0.2974088902214473
0.36386512143805416
0.44384297071534284
0.18043721762069306
0.21500936924347555
0.2523609231445057
0.2959628127195828
0.3613580982532259
0.43845779760614956
0.18846965826318737
0.2170750942195364
0.25155266483923655
0.29450239619655877
0.3584736025391673
0.43247456540157453
0.19468836555396035
0.2186262039423774
0.25142171044479666
0.2940633613989226
0.35642063357350673
0.4281416765129279
0.19919613515381532
0.2198062007761339
0.2517717782487399
0.29412746320178257
0.35572016717442434
0.42648097920125516
0.20134724263355308
0.22070805789065948
0.2531157576906463
0.295202721703947
0.35670024879030465
0.4264783808430643
0.20143732000066247
0.22135682249788138
0.2550074340357911
0.2983506985741534
0.3599715385812414
0.4281717897641762
0.19950360949514803
0.22166376195437643
0.25747805374289306
0.3027624824284637
0.3645785690782056
0.4322724521926612
0.19528700485095124
0.22160338333097726
0.25995075754817903
0.3072873545779267
0.36984685473961054
0.4378521226817137
0.18931476763770907
0.22081664220166528
0.2620604958944222
0.3113316660667785
0.3749673542587592
0.44378591829221126
0.18176893811485892
0.219343135845984
0.26346658848052
0.3144492129091516
0.3792760664970192
0.4492770806891919
0.1721140523124295
0.2165710660077528
0.2649712719557347
0.3163231874277258
0.3827555484838185
0.4541028069390557
0.16042877089254284
0.2123398431409284
0.2652770395298346
0.3163988470311497
0.3845140333753221
0.45775150946277093
0.1465939521396853
0.2059033046315199
0.26468991101029726
0.3158330007887643
0.38438556180354677
0.4585940427524011
0.1303894727388627
0.19647977710735173
0.26233543875440585
0.3133416410024438
0.3821637892911326
0.4563110065250797
0.11456687420646175
0.18435360447770657
0.25740491860546183
0.3093558929165383
0.3784212772320464
0.44927998309634787
0.09727811858350002
0.16913600689673094
0.24844005735908084
0.3012750175715656
0.37461189859847593
0.43925252189514297
0.06473173103355734
0.13412690248054376
0.22062244356729832
0.27428728518676676
0.3664121858217239
0.43756865518234966
0.8231543607059248
0.9052939798188595
0.9434835295826243
0.9674058027655782
0.9825043636621177
0.9945898068898005
1.0071936825680727
1.0207077142916288
1.0373792804095734
1.0542463242977216
1.0687818550757682
1.0811961160400607
1.0899356670780245
1.096402377930632
1.0990847439632605
1.1002219786502725
1.0988528450614237
1.0951800868560848
1.08986373209932
1.0827339186251046
1.0738715190688484
1.0635070438572296
1.0498999895455685
1.034632490440312
0.7286612198889112
0.8733127317140531
0.9293023194923289
0.9596445461964547
0.9784456914222858
0.9932296109436671
1.0083690469868676
1.02701779018131
1.0453601570329747
1.0624803013923338
1.0783322540152638
1.08935683156632
1.0977952325260705
1.1021979266864217
1.1039343384290154
1.1031591891203174
1.1006631684408412
1.0955882996503892
1.0894611791795825
1.0821138740225584
1.0729531642930539
1.061908656177729
1.0484101952365057
1.0331157167643945
0.6661424794256301
0.8278675543021777
0.90107358213525
0.9422340216143152
0.9682956685802853
0.9876379323958839
1.0091013310513937
1.0315587552623007
1.0523934769138896
1.0710269584334697
1.0858939693960492
1.0963247296282779
1.1028437434755576
1.1060039328830091
1.1062323929446358
1.1045793411296878
1.1008718250185234
1.0954275410853664
1.0888633404740018
1.0813250213777206
1.0718601045550906
1.0603672617222735
1.0467153635933162
1.031016394818303
0.6268570051450653
0.7812753089499738
0.8653161182156068
0.9167002473135937
0.9510128765778191
0.9799536863042606
1.0066862808338672
1.0334978536803654
1.0573404460189517
1.077095756549331
1.0912079449913392
1.1002795191893553
1.105677734186954
1.1073832741574734
1.1064960122582725
1.1038435444148222
1.0996591469159172
1.0941709874106202
1.0872034665852852
1.0786949028008699
1.0689061613735336
1.0581000845968094
1.0437752089872332
1.0289481241069869
0.5998323264061042
0.7399672938502595
0.8294328518063651
0.8882891005584342
0.9315379969932079
0.9672260573057194
1.002066493480522
1.0330510281092864
1.0594073855341315
1.0791325650437917
1.0930470068138853
1.1010139566365365
1.1047231946949045
1.1056373758875668
1.104472636549208
1.1009993375589824
1.0962680124849549
1.0904959794079871
1.0839352851044137
1.075216634194507
1.0656109175965578
1.0545106219903604
1.0406012184397775
1.0258945271818545
0.5781316784163898
0.7047297647751867
0.79598590199653
0.861650120075831
0.9115149458455175
0.9559153029436924
0.9966451422805287
1.0313087550259576
1.0591753235842278
1.0785018675579643
1.0911229322875655
1.0978521840122337
1.1004832016734851
1.10113386454758
1.0993367389413098
1.0960894703839352
1.0915396126858055
1.0861470483319373
1.0795343212505046
1.0714423093342196
1.062123537599386
1.0519566037715455
1.0375849896307363
1.0235751331400555
0.5595412748655345
0.6764675552240962
0.7673830024964188
0.8380378901133336
0.8949539200194705
0.9464237159844721
0.9920651302494949
1.0293411615999601
1.0566605106002167
1.0749405246191477
1.0859306677999487
1.0922256021456196
1.0948290288886484
1.0948181560323431
1.0930435744292795
1.090076114341254
1.0863824249042422
1.0803945387990075
1.0740414029682344
1.0669412208731939
1.0581578712472817
1.0476344915371223
1.034114170056921
1.0205758854319271
0.5435710751528054
0.6533682420309698
0.744226151650365
0.8188520488493024
0.8823605678920421
0.9409776926202055
0.9896921379096807
1.0275397966766504
1.0544999794183352
1.0707325923142985
1.0795981721081156
1.0852735118602803
1.0877754827314388
1.087682377217734
1.0862055817639593
1.0833561569089802
1.0797277207353313
1.0749529955985033
1.068918812302689
1.0622854895533094
1.0543830686020381
1.0448055964991998
1.031951029464043
1.018079568126448
0.5302639239583071
0.6349702394305281
0.7268319134860598
0.8047802614847731
0.8756718966380856
0.9390130888804515
0.9896022207358596
1.0266779396850532
1.0501561085566442
1.064639386865653
1.0734308675399682
1.0782818457301926
1.0804232793003838
1.0802886510856542
1.0799612976845345
1.0777347651294842
1.0750100151627786
1.0702227315898711
1.0651310707411301
1.0581078712673613
1.0506100607804691
1.0415966805240302
1.0297835366096717
1.0169610274296585
0.5211213128726436
0.6232133241394479
0.7158076347934245
0.7971903143302248
0.8747860032407372
0.941620650004816
0.9920108024416476
1.0258566013288886
1.0465093329915902
1.0594995309665867
1.0675634670330183
1.0725686662745428
1.07401448864156
1.0744685726855723
1.0747322560502277
1.072931592555508
1.0698131887080193
1.0661205556865962
1.0613820553527376
1.0552068889673063
1.048012385688915
1.0399618306070977
1.0287546639720127
1.016631240181493
0.5166518381978689
0.6183250454147403
0.7107694953525087
0.7979400374741984
0.8804869553582294
0.9473785738567594
0.9942825316011742
1.0244077963663751
1.043277352149308
1.055019594210576
1.0623752977105803
1.0668458895286606
1.0694920411694209
1.0702110150129984
1.0696266112781279
1.068671039733754
1.0666056649808882
1.062961876417325
1.05902583388195
1.0540701723869208
1.0477864759218751
1.0401431258010474
1.0297436217561855
1.0184118024409863
0.5150352816657628
0.617375327105857
0.7131076112986566
0.807387597157987
0.8911540993379716
0.954684514340877
0.9967243087600194
1.0237106030713423
1.0406580279475024
1.0515431992775004
1.05874217125919
1.0634471806290464
1.0657761011334943
1.0669915136459491
1.067445962484043
1.066092958280785
1.064189217475154
1.0615954228260518
1.0580637391026169
1.0539822827470897
1.0486293619444547
1.041704521174893
1.0319079403801983
1.020647707638782
0.5154993281784981
0.6198667201143814
0.7208621351006642
0.8215082582524952
0.9043018076871833
0.9630611732289541
0.999844676846339
1.023134633895614
1.0387706376977608
1.0498744055788267
1.0564380437890994
1.0614378948839671
1.0640488485879032
1.0659330338121216
1.066189451628052
1.0657646882137637
1.0637346092847528
1.0613091820220089
1.059312449534809
1.0560654296773186
1.0515650888818284
1.0449012941821398
1.035472290093335
1.0247864548915993
0.520906024279399
0.6261356394154722
0.7347500995557132
0.8390888303426158
0.9178938536207643
0.96969082089324
1.0019226904770997
1.023043142956703
1.0380594349951746
1.0481600999576284
1.0553172737768095
1.0604525483443745
1.0639396654245472
1.0657523368871684
1.066067439481872
1.0660168101657972
1.065371615661045
1.0644463061690188
1.062640175598411
1.059571834610481
1.0553888217930278
1.0496296165349113
1.040159800193369
1.028903283783269
0.529015955015623
0.6376809108222163
0.7542863314714905
0.8578892483732766
0.929781109633912
0.974568591386689
1.0037808438591842
1.0229910847041384
1.037139234302656
1.0475821663109985
1.0550023894751441
1.06021289642136
1.0635450808697915
1.0667042328799166
1.067900881888312
1.0685721430724207
1.069517172137808
1.0687628594696041
1.067470626780496
1.064950219143035
1.0610655048243363
1.0545846591591852
1.0450871613605637
1.0338622871563894
0.5388652478231523
0.6559048509078003
0.7798112539307424
0.8779652412805022
0.939372840423527
0.9788065741556248
1.0040895389255333
1.0225331976018
1.0360929088472206
1.0464829870302592
1.0545664740901546
1.0608827007194337
1.0655998084572509
1.0685800726737598
1.070792128666623
1.0725479302233902
1.0739214866192905
1.0745234392691658
1.0732501560431833
1.0706545057716519
1.0659980009471937
1.059661881664902
1.0502011405085165
1.038430111878749
0.5497462064822245
0.6808848181550903
0.8101226873720346
0.8965036428124755
0.9486201393085517
0.9815365049358158
1.0048729259362899
1.0226490216492363
1.0357492442649059
1.0465167273807268
1.054954277282075
1.0615133756524335
1.066654891537177
1.0709661108329414
1.0753107267407513
1.077931431202649
1.079582668648309
1.0801685394142473
1.0791471900283691
1.076811526871964
1.0720036956008616
1.0647182925065772
1.0548097501182405
1.0422336820698597
0.562634783134406
0.7131163907836124
0.8401166600820129
0.9138209403011145
0.9571281809282324
0.9849180229360212
1.0050537682211256
1.0222887799764453
1.0354178327530241
1.0462984662193484
1.055605254092142
1.063054783322069
1.0696601492663482
1.0749027829752944
1.0797824703567684
1.0833789199021913
1.085781287713244
1.086258323931846
1.0850588341737193
1.0823773504346437
1.0768864335123014
1.069602946497328
1.0589894374942337
1.0454550584096243
0.5795341691397413
0.7519123176360223
0.8681434028470912
0.92938703132452
0.9643673018005453
0.9888541946647204
1.0065427743989483
1.0219714233419845
1.0353806061225412
1.0462890231767605
1.056238514596726
1.0648587696646918
1.0731953891535428
1.079871555815427
1.0845642903506905
1.087778445566372
1.0910918456652008
1.0914928983647907
1.0901859085406589
1.0871139555590743
1.0812521110265123
1.0736167573809583
1.0616316160997294
1.0475508575084485
0.6023478691780707
0.7944803406835977
0.8934201302918164
0.9424930406877914
0.97174576953312
0.9922547400275241
1.0095639596974961
1.0235165738999425
1.0359223497844001
1.0475441216948183
1.0582548518021764
1.0677664511633678
1.0759664970450162
1.0841400705570818
1.0894256847335921
1.0932194558941304
1.0950026144352736
1.096047859652095
1.094063541135833
1.0910058614272005
1.084432842648178
1.0757396100196586
1.0634647331786935
1.0495328378676387
0.6355675117476329
0.8357181229755821
0.9147716471086891
0.9529264887363904
0.9783703528411848
0.9966431985193716
1.0124760703951718
1.026121983362113
1.0382076007337713
1.0483555603115684
1.0605115050624119
1.0711216812588147
1.0803674482413932
1.0869787634667492
1.0930832224536178
1.0975133843897438
1.099281602906317
1.0990956663535476
1.0969890980023158
1.09231878228965
1.0856593153238634
1.0766740664349876
1.0645442739610562
1.0492744134842473
0.687571314811222
0.8709477734480818
0.9307108451769802
0.9624618566628917
0.983362567414611
1.0013744615834324
1.0154685620596429
1.0290460031334996
1.0414036823547954
1.0533747369577753
1.0643243791555388
1.0744171362865083
1.0843259597803254
1.091704693484217
1.0967990607103084
1.1002436346375073
1.1016916237790908
1.1009204969037347
1.0981415221764217
1.0928789537782762
1.0858050061846294
1.0760628432135086
1.063441128437893
1.0485750014426434
0.7572650715086301
0.8961266868767677
0.9413496916061593
0.9687261274497686
0.9882010158051794
1.0056129591983196
1.0198351072540444
1.032178921352031
1.0446992961655561
1.0575404861760824
1.0693818005949993
1.0792569066331208
1.0878719665146719
1.0951066941157146
1.10011007674099
1.1024541846423248
1.1026989684586859
1.1018804064470193
1.097960472321835
1.091884814881101
1.0847064261053527
1.0745976874001564
1.0619715812575448
1.0466984937491073
0.832497579769101
0.9079095203663492
0.9458524762588303
0.972046245153362
0.9924377924655842
1.008339070748755
1.0233766936274524
1.0361082483568735
1.0499677359368873
1.0629844074269532
1.0751596510551187
1.0851651328453067
1.0925601045121272
1.0980487372467387
1.1019135750389861
1.1036299801592877
1.1030140283063035
1.1008783877837156
1.0963552430622587
1.0903942543109129
1.082307439144386
1.0722479442285737
1.0589790593416049
1.0432196667588751
0.07488203154192137
0.15159271670313992
0.23549949821404795
0.2850548699939276
0.353881377933585
0.45606751995015554
0.10595096171696373
0.1831627079761373
0.25759977512834636
0.30203985669702815
0.36188843994848996
0.4260014743227876
0.12136677936311144
0.1938175572332368
0.26038453517099336
0.302731666973511
0.3627734765461184
0.43099053584279
0.13505565400575037
0.20130440624038212
0.260478126513621
0.3008640115720542
0.363056479161776
0.43672670707843925
0.14878801918404364
0.20762492260465285
0.25931987623666247
0.2991929942024697
0.3618045363160669
0.4380072519834879
0.1620171070596846
0.21239621916418047
0.2571479514323764
0.2971588468969405
0.3592873928747304
0.4355766410412475
0.17365146886940477
0.21554021194243664
0.25518270215823163
0.29479523268010593
0.35566641682994365
0.42997253863017715
0.18329212440968398
0.21750380441347822
0.25330668847027277
0.29254001364065657
0.35174803043019276
0.42308522269651505
0.19136743590584235
0.21877093551303858
0.2513022465975642
0.2902067582163312
0.34781890971428486
0.4162701919367016
0.19764453414211727
0.21978973013408498
0.24950785294309086
0.28855496734780267
0.3443902297109638
0.4109076977359121
0.20198637449787385
0.22069549925568616
0.2498124688120831
0.2882309873718739
0.34352347082027246
0.4095960006347717
0.20428768208971468
0.22173257827175208
0.2511574544357517
0.28960083897733413
0.34436136984718874
0.4099750699634413
0.20472654493181472
0.2223053294755976
0.2532113415847538
0.29294317364183303
0.34812548729708487
0.41373497299321704
0.20278779995266116
0.22268046810991388
0.25563420148215027
0.29773962158923667
0.3544589167868921
0.42030973972607555
0.19861484457752102
0.22270256794274795
0.2583629280786606
0.3027894750182104
0.36118870668383407
0.42811096535432114
0.19249533384129258
0.2221084446776798
0.26108972228662564
0.3073478165824497
0.36784756960703496
0.43633637652667556
0.18463727675366592
0.22093171349925017
0.2635969243950558
0.31119570140959324
0.37400011457250265
0.4439584340388215
0.1748276703130569
0.21875952059564727
0.2653392704030109
0.31433928191910304
0.37874411094997384
0.45073047358412405