/*--------------------------------*- C++ -*----------------------------------*  =========                 |
  \      /  F ield         | OpenFOAM: The Open Source CFD Toolbox
   \    /   O peration     | Website:  https://openfoam.org
    \  /    A nd           | Version:  11
     \/     M anipulation  |
\*---------------------------------------------------------------------------*/
FoamFile
{
    format      ascii;
    class       volScalarField;
    object      U;
}
// * * * * * * * * * * * * * * * * * * * * * * * * * * * * * * * * * * * * * //

dimensions      [0 1 -1 0 0 0 0];

internalField   nonuniform List<scalar> 
2880
( 
0.07252678513347743
0.1425603014692103
0.22220715315181955
0.2697843495405948
0.34015153298641315
0.4481981579362282
0.1016654704263408
0.17258556303832737
0.2450976494376172
0.28865900813955564
0.35112001751140276
0.4210278926046712
0.11527287978803287
0.1830571117239357
0.2488589735637369
0.2914138825571711
0.3550969110373649
0.42933339411477384
0.12746167143271184
0.19062852834028696
0.24965307673264722
0.2917954477392876
0.35820309659166316
0.43784654515428295
0.1403304416506412
0.19693678433309664
0.24959561582721718
0.29186263194890627
0.35945086846132385
0.44153574450727984
0.15266044482339364
0.201927419937532
0.24828120145910232
0.2914859187168171
0.35899095826483857
0.44083484398754286
0.1638852204963551
0.20544823171574922
0.24699053845905697
0.29071681834757457
0.35714221624212256
0.43701477346412887
0.1729350537093834
0.20784660523868212
0.2459529434554814
0.2897546667197326
0.3549234973861655
0.43191139076661383
0.18043352213527014
0.20944883544654347
0.24470549711403525
0.2885742500797244
0.3523239178967613
0.42646817170994145
0.18630303277887467
0.21064861131356355
0.24347582217479385
0.28771450279427624
0.3505332953088736
0.42259426127181543
0.19045606079338578
0.21172191222258666
0.24400013739990456
0.2879521640867784
0.35002304712276583
0.4206952190157723
0.1926072830738936
0.21287112286792997
0.24573136443846197
0.2895600622848936
0.3507971318800704
0.4197545204682046
0.1929208200214604
0.21368806865824527
0.2480466050586868
0.2927302959452783
0.3533982792659433
0.42130085596327027
0.191185290866163
0.21413913708759982
0.2504529061894392
0.29708783886636025
0.3583593720538573
0.42614563981774706
0.18730550325383596
0.214122935168046
0.2527609942177037
0.30149179820092376
0.3639102874354698
0.43197896525739593
0.18169269769821572
0.21342770077804923
0.2550693375316849
0.30529031582251587
0.36906438473791237
0.43808032372913736
0.17452088718886302
0.21232243573555487
0.2572371812004333
0.30803815355435815
0.3736541430094278
0.4440120962102849
0.16539485925356437
0.21010854514597332
0.2583428938659812
0.309975675875325
0.37704127816359806
0.4490721431174092
0.1541598065873519
0.20588045942673644
0.2589807600690034
0.31064899867197426
0.3787304468104586
0.45281203042364787
0.1408169053570853
0.1992721847284827
0.2583044036816671
0.3092498081065459
0.3786669685651682
0.45403618747386937
0.12579810893456062
0.19022395726722643
0.25601775084900913
0.3073960229227011
0.37645304011653874
0.4517273079475945
0.11082586837463317
0.1785892307910842
0.2515627269995292
0.30356067830593836
0.3728282597559755
0.4444516346647361
0.09449288338969446
0.16378455221700727
0.24270815185140274
0.29574638793965924
0.3697511718494148
0.43378221823226837
0.06435311677764227
0.13045424372384154
0.21644071597222359
0.2698174454213781
0.36266495647217845
0.4328008436751278
0.8244282982736622
0.9063145834171984
0.946780109597055
0.9705262289500834
0.9864466464535309
0.9976034455559604
1.008373864526909
1.0232013470416998
1.0397307514043692
1.056204743039372
1.0717357379027945
1.0853883713854338
1.095423790220872
1.101548536956186
1.1045742063218151
1.1051767447166385
1.103252087399459
1.0990852084932667
1.0933683431047152
1.0858619082547294
1.0766038733066636
1.0651977658399263
1.0511006108686016
1.035105886987171
0.7274426001500925
0.8727513543698321
0.9309548089939593
0.961092504465561
0.9814208248032894
0.9962169240892165
1.0101546134572874
1.0283239397916157
1.0488140029769664
1.0672290705489678
1.0826861926337732
1.094659466537572
1.1032225643422418
1.1080536292095398
1.1089535866693692
1.107556386390774
1.104386345921316
1.099485046543697
1.0925583634146567
1.0845087859303701
1.0747092141210617
1.0629332014499075
1.0483312749483706
1.0322798360808358
0.6616705550441344
0.8247791912832815
0.8990946318830727
0.942127834138086
0.969229706417111
0.9904477102059609
1.01018749223813
1.033784570257993
1.0566342077921138
1.0766285544134837
1.0924255609779565
1.102682098527333
1.1087043563585168
1.1108338374040754
1.1107532997389642
1.1081804052921844
1.103799734556115
1.0978007755663866
1.0903824719988007
1.0815809519909028
1.0715285535393388
1.0593169927786592
1.0447874630322944
1.0284117829073485
0.6211084078760343
0.7743771980187344
0.8600205036213723
0.9131473816752228
0.9492599227707612
0.9785473397667166
1.0087255430797142
1.0370851295767511
1.0619050594772748
1.0827102757403937
1.097737336953309
1.1065809615516469
1.1105340675750113
1.1113057993608857
1.1096547218201112
1.1060330539744554
1.1006491825068667
1.09420451142116
1.0863516439459804
1.0774428867508734
1.0666984683662986
1.054937458525898
1.0399184623872564
1.024015897102774
0.593153476065848
0.7309647463041035
0.820815979386834
0.8815194399610433
0.9255276690365669
0.9638072849141625
1.001720531284077
1.0359113341717463
1.0641395517411196
1.084552668185906
1.097994043053589
1.1056428429629233
1.1083552308751512
1.1082529475789744
1.105870443860364
1.1017461728821791
1.0962613531711458
1.0895355998400467
1.081597061340758
1.0725079649990947
1.0623387190550788
1.0505786702100606
1.035605243308925
1.0196812257411907
0.5710708002973154
0.6954990600646872
0.7849007812024438
0.8513821195251416
0.9027202143500952
0.9497209456132908
0.9943971790603978
1.0327544057468412
1.0621462467428875
1.082412537695958
1.094076598646577
1.1000569327271534
1.1024187937387016
1.1017708428570054
1.0991878808416315
1.0950430667120266
1.0895766483854226
1.0834198843170877
1.07546390655209
1.066500328293518
1.0565860587944496
1.044957510159903
1.0304575952127488
1.0150424766872161
0.5522429659908601
0.6663488540625536
0.7548589796367411
0.8248521666029545
0.8840581939182853
0.9396408603039951
0.9886085160043645
1.0285490174489704
1.058024772241847
1.0764393654551276
1.0872950486500803
1.0925581657280132
1.0945785466878213
1.0939572956110124
1.0916812673845215
1.087645050802729
1.0827806148117225
1.076622764515189
1.0692216835562796
1.060911032237718
1.051605457316318
1.0403190350954832
1.0261374196445565
1.0121328875537405
0.5360928791268912
0.6424633231156193
0.7305426457832165
0.8042294480520126
0.8702187763929997
0.9322720941868409
0.9847503410747906
1.0250967300697817
1.052428089908287
1.0689631700157796
1.0791179647449767
1.083806906267485
1.0858007005473906
1.0853887942588607
1.0835044839528984
1.07990352461162
1.0757262949882818
1.070270451499748
1.0635247429873564
1.0554468083593092
1.0468058967718687
1.036291897629705
1.0232736263749858
1.0095627934316267
0.5231094022054892
0.6247598348840718
0.7133074019425892
0.7893268300310103
0.8626793945712742
0.9292155905391908
0.9829115096211575
1.0211567871754674
1.0457028758110791
1.0610673246716935
1.069813087418998
1.0743101137064248
1.076491859212442
1.0763832858425921
1.0749623095420413
1.0720887540144932
1.0684132397661825
1.063068529704828
1.0573783105462362
1.0505853188357848
1.0427329172879864
1.0334559657181088
1.0210755513192291
1.0087494005738613
0.5145077393578248
0.6128144703864069
0.7021011788519383
0.783121098029528
0.8620992775791047
0.9299816282148072
0.9819067543085406
1.016528110697016
1.0385134253361061
1.0520959889064845
1.0605367582968617
1.0648972593264936
1.0672350457280158
1.0677621070139278
1.0663659051556105
1.064156627785101
1.0612240704202882
1.0573000717848877
1.0524596648717448
1.0466550813131932
1.0401587140430695
1.0320521458420429
1.0214415088330673
1.01031810461887
0.5090198210648964
0.6074774195548684
0.6977354557495141
0.7843045803164777
0.8665995806479819
0.9340465381961667
0.9816595450897508
1.0122792404143448
1.031919041149751
1.0443361375669489
1.0519598066728075
1.0565985101433937
1.0589618295588328
1.0597239954496904
1.0590273744271728
1.0576369374380288
1.0551745795238907
1.0522469236789784
1.0483101615572774
1.0442603339044931
1.0391276741735413
1.0326002152856468
1.0235692524868911
1.0136117426778564
0.5069774224650073
0.606976015953052
0.6994882590858604
0.7928529079670644
0.8766274458968534
0.9401694996314278
0.982493637845758
1.009276516167915
1.0264437489833618
1.037563953010556
1.0444881571745996
1.0492148124172502
1.0519246205371202
1.0530509143878684
1.0529711525384404
1.0516918822345607
1.05011659178763
1.048350991732951
1.0464043677047727
1.0438483623281758
1.0402629608049803
1.0353605658849856
1.02736620646551
1.0182070663921545
0.5088558053438005
0.6101714114338206
0.7091244811478341
0.8079174991012993
0.8901760379647707
0.9473470869151596
0.9842292698267252
1.0069657099388347
1.0220485624153544
1.0323483043567112
1.0393228177508937
1.043773159939364
1.046905794690594
1.0478191127847587
1.047811249867425
1.047724960972577
1.0478400588829648
1.0475432613628042
1.0470619498246918
1.04593600606142
1.0433801612192934
1.0392804548776706
1.0321575081582024
1.0236710429669817
0.5138711086409643
0.6172781141878839
0.7243631581180063
0.8268671181400382
0.9041189225967622
0.9543846873555083
0.9855722146249732
1.005688414062624
1.019253971490116
1.0292052816787791
1.0355038640669283
1.0391616346315826
1.0422494478472992
1.044641751337301
1.0462903753108563
1.0476003451794857
1.0478944728512003
1.0483171071731872
1.0492112517517123
1.0491742397582964
1.047833819151514
1.0443856398321425
1.03757274508427
1.0292778047856008
0.5220915531217537
0.6295459679690292
0.7455900827223771
0.8481399969257017
0.9175642884397572
0.9605797686936629
0.9872687211396552
1.005716503627439
1.017971018635284
1.026039294847133
1.0326652575921111
1.0373681791976304
1.040952111660866
1.0429692988820514
1.0447427287113757
1.0476292331090047
1.050045758009003
1.0524324233005984
1.053623859223169
1.0538711256188689
1.0524898845799397
1.0491965571502924
1.042732110454863
1.034177780756935
0.5326237479338216
0.6495151414203555
0.7730548161043109
0.8693731796432526
0.9302372632612482
0.9667392990482478
0.9902133483575105
1.0054829884197714
1.017100523346806
1.025543311175348
1.0311021479029931
1.0353257359397472
1.0390341915672006
1.0428117043656557
1.047041268702959
1.0505850702934358
1.0532387771982434
1.055964893196972
1.0582529962177376
1.058940009428644
1.0578212120072032
1.054362104674567
1.0469877280701267
1.0381422376882001
0.5446881788721403
0.675707801891103
0.8041464815688227
0.8911939171679328
0.9420712436524924
0.9723086262481492
0.9929958023174849
1.0073706396306001
1.0171713700739493
1.0242402282243912
1.0299848897892312
1.0352327988072643
1.0400204091914846
1.045013603779314
1.0498648973145825
1.0548643907576474
1.0589205894013753
1.061491732210759
1.0632135895656967
1.0639528498346442
1.062162971564563
1.0580988740209043
1.050449344493008
1.0406565095874667
0.5581098791626651
0.7082730038171852
0.8366590278302186
0.9107431606266471
0.9521258667705393
0.9785107718634853
0.995824390054435
1.0081172905274831
1.0175181584756208
1.0246506806676847
1.0308887968721883
1.0369447489809525
1.043233607109693
1.0490284799620062
1.0544537475521476
1.0593010740733175
1.0635715769195009
1.0668612783997236
1.0685867748146032
1.0682965390239878
1.0662305137535568
1.0609896548863411
1.0521274862795522
1.041464527163627
0.5754174145560902
0.7482237844806681
0.8660546025126526
0.927104040905731
0.9612779625368818
0.9829811373297213
0.9980575661504053
1.0092872153679162
1.0178802592491638
1.0253978873086067
1.0317132451762234
1.0390456582466312
1.0460426736278794
1.053513110596097
1.0599583116100677
1.065312055534726
1.0686752402902868
1.0720061649460124
1.0733179549382705
1.0725772265544953
1.068865076848798
1.0628094796710181
1.052958132246613
1.0409003532118217
0.5983685344318848
0.7914893490733443
0.891881135398647
0.9410194932948764
0.968830102336638
0.9869168847757831
0.9997412105781414
1.0099698243856996
1.018052467428301
1.0256009226726788
1.0345592885954802
1.0434805416095512
1.0517927305803354
1.059231918801997
1.0653158651493098
1.070924297472038
1.0744895149479783
1.076778948878716
1.0771312770341517
1.075142912878677
1.0705821842950827
1.0633007480340293
1.05304049576689
1.040175272545887
0.6318719747045045
0.8333206415192501
0.9136599968815938
0.9522169788841452
0.9745521799209867
0.9900138436596354
1.001341840197074
1.0104497189182895
1.019534414035071
1.029251365281789
1.0387694327300112
1.0483580110432502
1.0575005038702239
1.0653913337539234
1.07167912658858
1.0760635539987677
1.0795647070380212
1.0809823424404066
1.0802827690592844
1.076993696473339
1.0713170983945524
1.0629723363538286
1.051862128989639
1.0381656525407308
0.6833626535865233
0.8681573007409513
0.9302250925539072
0.9604116313037789
0.978780857014102
0.991715842231397
1.0021434978705999
1.0116648939016377
1.0211994288309718
1.0315759936035716
1.0436226811158122
1.0546676613244728
1.063701932140455
1.071350885242786
1.0775655076009982
1.0816435110025078
1.0842591278633558
1.0843723626645327
1.0824113280123284
1.0779271577233025
1.0715872988156407
1.0621957756316784
1.0508565718325482
1.0368478860463277
0.7532808432513873
0.8939790459189321
0.9404571978436476
0.9651323807946756
0.9809705639465841
0.9927317352680178
1.0026769603314563
1.0123023871175056
1.0239629267616346
1.0368166442951898
1.049331565632644
1.0610989216638
1.0712043074792168
1.0785055720706918
1.08328330553692
1.0867164034922503
1.0879801372925553
1.0866734405720808
1.0837731112377988
1.0782580655718825
1.071156244979276
1.0614690464208723
1.0490816266845693
1.0347029322364205
0.8301825564970056
0.9077857758945678
0.9433726258513747
0.966247477721445
0.981128121774431
0.9927991091108622
1.002408060406038
1.014673687479741
1.028362133763034
1.042643880714088
1.056046771252579
1.0676617323711308
1.0775944581272987
1.0845003789055752
1.088784420389703
1.091186054417247
1.0909955275438923
1.0885667036983826
1.0844754517266708
1.0782332222241295
1.0705741342928838
1.0605003106088395
1.0475231542919925
1.033262143194441
0.07183543477823473
0.1438368259802264
0.2253148269971215
0.2752225393097714
0.3446144702276822
0.452499325368572
0.10246067509126325
0.17517204694140873
0.24879711110014138
0.29299417865200517
0.3540580877639463
0.4225255217694396
0.11679810350021597
0.1861673782194498
0.2528464341214249
0.2954363409402043
0.35812973255871283
0.4299873419899416
0.12933312836040559
0.1942462899221004
0.2536084607907754
0.2956333553175879
0.359823727107957
0.43745449118144347
0.1424115102890944
0.20068442408435125
0.25304572254950397
0.295163982760406
0.3600395490313155
0.43944810963385195
0.15504024001505654
0.20549177572175883
0.2523739551354094
0.29438595646282567
0.35914878517382154
0.43769682040920754
0.16673623658756334
0.20881276306302413
0.2509381739073612
0.29320934216515016
0.3569942705438543
0.4333487153669959
0.176328692939361
0.21163391041260596
0.2491908480046399
0.29163107608785294
0.35412321601231816
0.42749473627675916
0.18408787047052105
0.21369398825502198
0.24846934709449078
0.2902757682740083
0.3511869028641422
0.42144565863744654
0.19017256250329895
0.21519429292219738
0.2483887202432582
0.2898153298054043
0.3491517667917996
0.4172107782092664
0.19448169496402806
0.2163822152478344
0.24888760438896482
0.2900256421584211
0.3486372958245649
0.4156948526673856
0.19662666603385173
0.21730408026773496
0.25017677137320743
0.2913421158479598
0.35000912251526195
0.4160494241653564
0.19674627287622548
0.21796398848700554
0.2521292213983116
0.2946633156092141
0.3534448148784454
0.4182538015144396
0.1948266905050826
0.21829275589692995
0.2545312876565658
0.299030196878857
0.35833780961155165
0.4229209877324747
0.19082521702723423
0.218093846678439
0.25695420821333953
0.30350823035693913
0.3639046570205356
0.4288520005933294
0.18500590670425626
0.21726554997077613
0.2589778191620821
0.307665670350632
0.36932997087581576
0.4352513204463511
0.17763714532510014
0.21567814269160715
0.26031022252094116
0.3109275141902761
0.37408923984559544
0.44144217786836876
0.16824773092940493
0.21289748758434995
0.26172046596347875
0.3128343955172856
0.3778892757987316
0.44692791903141027
0.15678819975538177
0.20863023540236517
0.26188551606465094
0.3131518990134788
0.3801506532741015
0.4511543000059851
0.1432572270879119
0.20210923408411074
0.2609820864209656
0.31248126835527074
0.3803427829446803
0.45294596342014015
0.1274340361935009
0.19256107951378337
0.2584672248631405
0.30998877247530193
0.37865782464508585
0.45163431607380283
0.11194435902155918
0.1804631322542011
0.25321646762169625
0.305845191012075
0.3751958157937332
0.4458603296168566
0.09507957167311884
0.1652763670642553
0.24405360039881877
0.2976149969127148
0.3712934059118811
0.4371568208964099
0.06360939186127187
0.13098368024405047
0.2163513909681944
0.270855036990043
0.36223301757142884
0.43751041773983207
0.8158599592843775
0.8988895756255066
0.9380317488554109
0.9627001497451942
0.9781689016806873
0.9909262158686708
1.0032759633976853
1.0166571411079919
1.0328671779864598
1.0492774530878373
1.0636444077839786
1.0752837641060522
1.0837061822361447
1.0899972761300298
1.0935545710315058
1.0944324674350308
1.093061311455759
1.0894946831852597
1.0846879434533248
1.0777784745310601
1.069439044559256
1.0591559022982622
1.0460371349704407
1.0314081951044796
0.7184081315625858
0.863536022314971
0.9210590821198558
0.9524931059534981
0.9719749823031736
0.9870656378047818
1.0022287200429807
1.0205634719435281
1.038648437478631
1.0555925886930424
1.070874269498707
1.0816500138549683
1.0899275551439829
1.0947286976725614
1.096597166772343
1.0963205868691128
1.093938078079972
1.089535639696168
1.0836335103561934
1.0766787004239422
1.06781817867972
1.0570351878422257
1.0440910388048852
1.0293675718011566
0.6544478683800417
0.8152066221892695
0.8900431070577838
0.9322919227814678
0.9593565579413159
0.9791370428199109
1.000609455681016
1.0227194527789418
1.043532914637861
1.0617232817793267
1.076344619216225
1.0867986866404233
1.0936656353692753
1.0971846299334262
1.0980018420660091
1.0966516899542764
1.093283222537987
1.088441744355949
1.0821892076717516
1.075028623931805
1.0659989335765176
1.0550382101902123
1.0418750413652915
1.0274629723804414
0.6142461863705456
0.7665467469436287
0.8513583753231413
0.9038942883114123
0.9392211432995452
0.9682798259405014
0.9953873142605568
1.0220710749180748
1.046020497725231
1.0656566993209953
1.0798699669164475
1.0895312115431766
1.0950994218347725
1.0973563532971404
1.0972773911995963
1.0948862527276677
1.0910836450185424
1.0861131182133825
1.0798433013808537
1.072095723234428
1.0625678538904535
1.052173913591319
1.0387233281334953
1.0243116096477072
0.5861924808964675
0.7238990148305058
0.8130955560831645
0.8729433424913015
0.9165018943709312
0.9529161510636314
0.9881203273157569
1.0192341487779457
1.0453127087861223
1.0654932831078687
1.0797000581790135
1.088253117215176
1.092701813435664
1.0941520450926028
1.0933165990457994
1.0907364274895262
1.0866656011749674
1.0815377661415104
1.0752841689458923
1.0675985444167342
1.058780111289841
1.0482345862738978
1.0348318580132239
1.021065016983114
0.5636562620688408
0.6873779044651064
0.7781522993072706
0.8439150709156114
0.8939248494417671
0.938711379603021
0.9794203088468653
1.0145782969115869
1.042433421870359
1.06281529857428
1.0758680477737774
1.0834955145991862
1.0871582695134727
1.0883198112159722
1.0872868002373537
1.084803956252503
1.0810906622184526
1.0763515188691735
1.070166952813971
1.0627574008973608
1.054282125076894
1.044499324142901
1.0313096446224925
1.0178942926383596
0.5446591534931383
0.6582551517825403
0.747871465243008
0.8181496235948043
0.8751086584915166
0.9266300212469025
0.9724528900594491
1.0102407088078185
1.038463672241399
1.0574235317732177
1.069364468337416
1.0763697296423769
1.0799516997167244
1.080737197068994
1.0799937846721481
1.0779561516115412
1.0745131485333543
1.0697514615623358
1.0640257885251545
1.0574162105992375
1.0494695403054193
1.039633795696073
1.0272343439743177
1.0145541351960021
0.5282722222522518
0.6345977471934049
0.7235126461164533
0.7970913966565794
0.8604002478023816
0.9189826679174348
0.9680628795747228
1.006822270796489
1.0340342185692957
1.0513321376178595
1.0617721233260706
1.0683086364395322
1.0713626817086617
1.0726521421413038
1.0720440334999715
1.070305142445577
1.0672654176417498
1.0634952278985352
1.058348811276679
1.052268944280657
1.0448236055286704
1.0361555664511874
1.024127837187571
1.0117516412801462
0.5145733548545107
0.6155960089143742
0.7051667146672498
0.781549553922843
0.8519802170656672
0.9155368143447075
0.9665973523426924
1.0043096035684471
1.0289112810815084
1.044590807790138
1.054292609743467
1.060261730720684
1.063311758926065
1.0646725194608548
1.0648617128664568
1.0636590568152582
1.0615624590256691
1.0579975915856925
1.0535055428185103
1.0476795776290801
1.0411769609404846
1.0326412600609927
1.02156956198655
1.0100003082662734
0.5056571970361028
0.6035772098689769
0.6931329419987413
0.7727922172072037
0.850070389322869
0.9169811477007738
0.967825801238349
1.0025825131597699
1.0245510375676004
1.0387530895476143
1.047976668952876
1.053630774408459
1.0569475876693863
1.0583819656846176
1.058993480136257
1.0581126719058018
1.0560385552328133
1.0530338633190295
1.0493398812376444
1.0443868668769871
1.0381372531102477
1.030913860298535
1.0205027294631752
1.0096636744366179
0.5015002852553236
0.5984783927519208
0.6879589675210414
0.7734252037058997
0.8549530946175434
0.9220942968233886
0.9697124193744673
1.001071152574048
1.0209164270544444
1.0339748666992836
1.0423960146192106
1.0480034734066894
1.05173546870631
1.0536469400850101
1.0539224561010432
1.0538748529262691
1.052445224175199
1.0501167263666507
1.0470064233446301
1.042707895953429
1.0375018687298563
1.0311076077604908
1.021683714118986
1.0113493911728313
0.5002653469319874
0.5979241620180593
0.6902016609069885
0.7826864493908311
0.8659824769500074
0.9297147631003507
0.9727280024259802
1.0003409550957518
1.018482709702221
1.030587995793732
1.0387922995382963
1.0444490149743564
1.0482062702568606
1.0503951211029114
1.0518185760013896
1.051456701645709
1.0503162190845807
1.0485789341810883
1.0460665772886037
1.0429821716703749
1.0386096723571558
1.032981204918525
1.0242291812739617
1.0142967217272156
0.5012203336200437
0.6007116237551032
0.6983173151227254
0.7974802382229863
0.8796347409915699
0.9385498617332451
0.9763814591660106
1.0005463720383219
1.0171561168092922
1.0293062371705248
1.0372006520761943
1.0428745157309223
1.0466816945212387
1.0492950353709476
1.0508079524568517
1.0512368999069803
1.0502158216641992
1.0486791078902915
1.0472797064637362
1.045422562492749
1.0417573484469522
1.036663567090218
1.0282912805360434
1.0188209300336237
0.5070296462207113
0.6073334454670816
0.7128477879071401
0.8157053675318564
0.8943363553385955
0.9462849298281795
0.9794916971725502
1.0018954686878363
1.0174678352541842
1.0283540674793152
1.0365284429938173
1.0425352911036057
1.0471630600139858
1.049950831823103
1.0512250588217869
1.0517133845918432
1.052204000629965
1.0526040749977326
1.051584952738958
1.049881738119948
1.046730533065539
1.041723667320953
1.0332260178440587
1.0233731214672883
0.5156046437669378
0.619562006426922
0.7331942811151982
0.8358249472753893
0.9076655271438654
0.9527338987406783
0.9824325894574865
1.0026395892610085
1.017412228103453
1.0287914023383602
1.0375248428706156
1.043416457499162
1.0478606442092528
1.0513733589096041
1.053783132304256
1.0557479282532498
1.0570801680943374
1.0574423940015303
1.057189594281751
1.0558204254086057
1.0528147489666044
1.0475967071631445
1.0390027755957527
1.0287769864637701
0.5257656342243803
0.6383687217946774
0.759806381928971
0.8573528918157329
0.918764129138458
0.9584398785490228
0.9844283997542073
1.0036402872853025
1.018142596426407
1.0292144851200444
1.0377607784444123
1.0452123154996835
1.050701454108631
1.0544786929281427
1.057702627267527
1.0602587009240751
1.0627813060640454
1.0642196328953606
1.0639157426016588
1.062445125305641
1.0590050473834909
1.0535908516906467
1.044665981267701
1.0338406084311746
0.5371687556858278
0.6642954431568607
0.7914477018155379
0.8774776805731964
0.9295729353099695
0.9628209691782376
0.9866448165480948
1.0047640799201707
1.0187791779889546
1.0306545626125065
1.039886122929398
1.046977910973797
1.0530182953791887
1.058309358588481
1.0634898932975407
1.0667728319477023
1.0692131851933073
1.0707398530198886
1.0709000349064641
1.0691047792246566
1.0655980849529882
1.059263043079514
1.049653776974017
1.0384421801115444
0.550774963212379
0.6974166199390031
0.8232661790828085
0.8967259166490367
0.9401290336742806
0.9681389521031991
0.9887363043504053
1.0063871913900775
1.0202371790967861
1.031561679786044
1.0416797586502058
1.0497116304389582
1.0570720654345078
1.0634602085378122
1.0690607128354215
1.073475591397427
1.076808324138242
1.0779785918014133
1.0775971702375706
1.0758509282741775
1.0710869469505588
1.0644966202330082
1.054187195641343
1.0420920039144037
0.5684148364660672
0.7374770392343536
0.85314696589551
0.914403917092469
0.9494202763590593
0.9738642751368614
0.9920421910090599
1.0078346311166093
1.0217169069948242
1.033603267650262
1.043950180602953
1.0532511787893355
1.062184961084846
1.069670838699671
1.0752565961724636
1.0792368325701582
1.0832231927672518
1.0843242982134091
1.083827581514814
1.0812276492525374
1.0761881123040529
1.068670765617893
1.0575186853222773
1.044368682421812
0.5919940688075755
0.7817298711416466
0.8804949284686078
0.9293758824057107
0.9587091869082184
0.9796289624082791
0.9967726705789233
1.0114434975995181
1.0241309513091241
1.0364291101432155
1.0474145369071044
1.0579007813125876
1.0667828020471344
1.075318179467264
1.0814392280055998
1.0860428781804896
1.0885815344462386
1.0898046499519767
1.0885260108934942
1.0854860170314018
1.0796376445828302
1.0712734074945691
1.0596483478779202
1.046077048741305
0.6265659320120038
0.8251622133607738
0.9040072135532783
0.942220182629054
0.9673492727572026
0.9860174722129853
1.0018579605294846
1.0158859357645749
1.028276359401395
1.0389905700096
1.051723375319572
1.0630316147866372
1.0727766843800661
1.080234309253712
1.0865085501194574
1.0913089690813405
1.093671060735135
1.093873622814726
1.092155172394087
1.087916751258864
1.0815022153721277
1.0725389536051497
1.0605346311228303
1.0460112154082764
0.6797388409575642
0.8625114693754202
0.9226010046858582
0.9538245478094621
0.9751926605787741
0.9925341306348442
1.0072949062222691
1.0208550550648745
1.0336594750033992
1.045818353990528
1.05715376939068
1.068047587159645
1.0783370114186912
1.086226171854334
1.0917721725407368
1.0957561531247149
1.0971491605611083
1.0966426196260886
1.0938329707213108
1.0890367021388776
1.0819695505122087
1.072505070718421
1.0596119151584225
1.0451399212101558
0.7517961143459391
0.8902606645439446
0.9355036112594847
0.96257823404999
0.9821011465571247
0.9989055636058508
1.0136620590913807
1.0264364586970474
1.0389479879372703
1.0521910871495792
1.06457103710673
1.074670929494916
1.0834039577669337
1.091061672337772
1.096307106168725
1.0989119568742072
1.0994917173350356
1.0981679437705967
1.0944302071603342
1.0888436075476002
1.0811270200028582
1.0711365029171778
1.05818823420674
1.0431364277049213
0.8303358695916103
0.9052534111945464
0.9425452646594669
0.9683360642038199
0.9884877884148828
1.0043549669959917
1.0192718448686402
1.032161743408602
1.0458389933796446
1.0593074751698908
1.071849127037094
1.0822914127166177
1.0896903543641063
1.0953725756484431
1.0993022212035717
1.1010205211907453
1.100650870829001
1.0980015167271673
1.0936927300584656
1.0872977987255998
1.0791455803023255
1.0687829222761693
1.0554888953752952
1.039652584386149
0.07613325180556287
0.15461125531078299
0.23906114381702193
0.28731756564427924
0.35624097338944416
0.45483203032029856
0.10806285889262275
0.18668394565211896
0.2611691694594559
0.30441640197359615
0.36427138686504484
0.42769147512730915
0.1238638924322779
0.19727025722681912
0.2636767552652622
0.3051510362997601
0.3654538045835542
0.4344440631341924
0.1377707886141719
0.2045336343222911
0.2633144327443093
0.3033488193476538
0.36631259686049467
0.44169768159371886
0.15183008111523152
0.2105247121674755
0.26188645147952433
0.301724529843235
0.3657558882877338
0.44442990910037344
0.16518471377246635
0.21518784138692143
0.25942917624582273
0.2996503092922805
0.36371824443608275
0.44266837018845945
0.17711415187281682
0.21819151551377203
0.25722458073124055
0.29740331667637465
0.36050698974248585
0.4378821369432931
0.18701919175040305
0.22010226213956605
0.2552445241474227
0.29526970755433984
0.3567863852742594
0.4316544803792029
0.19521696085211046
0.22134270709204013
0.253168043225864
0.2930232552325925
0.35307417356866777
0.4247984882481954
0.20167454734328769
0.2223994911017917
0.25134595444023733
0.291221474662544
0.34976843146894804
0.4196430950181682
0.20622111306896318
0.22328434746583634
0.2515903181706137
0.290710656297113
0.3485088744052383
0.4179155370670146
0.20858491092841272
0.2242215990698043
0.2528581321055618
0.29195618787004496
0.34906051961475754
0.41789521880845604
0.20892366568497134
0.2249461696953406
0.2549252962895846
0.2952170809594275
0.35253346893675935
0.4212085932895336
0.20693350233400978
0.22529254981584712
0.25732410987085524
0.29982350023840654
0.35866302364962577
0.42733530439156936
0.20262729922778988
0.22519256722189693
0.2599852123868608
0.3047317571033802
0.3650262088910256
0.4346748214120863
0.19635517284889878
0.22471257788494312
0.26284577414095217
0.30929036989122105
0.37138864217481743
0.4422511297543036
0.18829988252964494
0.2236523448686044
0.26552625911044353
0.31304341421739834
0.3769775160619103
0.4494187484301952
0.17830039842332276
0.22158155160008638
0.26732727636511583
0.3161546376639348
0.38144658701752865
0.4553149314211694
0.1662616565784291