/*--------------------------------*- C++ -*----------------------------------*\
  =========                 |
  \\      /  F ield         | OpenFOAM: The Open Source CFD Toolbox
   \\    /   O peration     | Website:  https://openfoam.org
    \\  /    A nd           | Version:  11
     \\/     M anipulation  |
\*---------------------------------------------------------------------------*/
FoamFile
{
    format      ascii;
    class       volScalarField;
    location    "1.14";
    object      epsilon;
}
// * * * * * * * * * * * * * * * * * * * * * * * * * * * * * * * * * * * * * //

dimensions      [0 2 -3 0 0 0 0];

internalField   nonuniform List<scalar> 
2880
(
4.0429
3.01185
2.1232
1.72165
1.9987
5.2729
1.29133
1.62536
1.37962
1.34801
2.12401
6.29908
1.77627
1.65664
1.42095
1.5272
2.77834
7.54498
2.2161
1.82621
1.60827
1.82992
3.46664
8.28389
2.5613
1.96646
1.80351
2.15708
4.07986
8.6303
2.84802
2.07394
1.98485
2.48472
4.59369
8.65104
3.09577
2.16373
2.15231
2.80386
4.98586
8.48113
3.31163
2.24437
2.31397
3.10281
5.25178
8.16052
3.49774
2.31666
2.47617
3.37179
5.40593
7.77634
3.65472
2.38431
2.63811
3.60447
5.4712
7.36992
3.78314
2.45165
2.79623
3.79443
5.47475
6.97537
3.88419
2.52369
2.94605
3.9426
5.43617
6.61481
3.96021
2.60728
3.08276
4.05617
5.373
6.29777
3.97895
2.69352
3.20706
4.14554
5.30101
6.02814
3.9499
2.78213
3.32326
4.22181
5.23459
5.81
3.8558
2.87791
3.43842
4.29693
5.18738
5.64913
3.69703
2.98976
3.56246
4.38236
5.17545
5.55517
3.46766
3.1311
3.70929
4.49014
5.20907
5.54338
3.16125
3.32277
3.90002
4.63749
5.30397
5.60706
2.7706
3.59275
4.17059
4.85017
5.49604
5.79765
2.28797
3.96791
4.59353
5.17605
5.83158
6.20208
1.70625
4.58687
5.34857
5.7445
6.38196
7.06942
1.15813
5.93702
7.10386
7.0011
7.34971
9.62522
4.12923
9.76749
13.0971
11.6811
9.31316
26.323
17.8494
8.67377
3.48334
1.42155
0.569508
0.235443
0.105411
0.0522161
0.0284854
0.0169067
0.0107417
0.00718724
0.005017
0.00363278
0.00271766
0.00209312
0.00165381
0.00133528
0.00109691
0.000912139
0.000762973
0.000638353
0.000533211
0.000443456
14.8118
8.42942
3.63749
1.51825
0.615473
0.255738
0.114451
0.0565531
0.0307999
0.0182818
0.0116471
0.00783238
0.00550331
0.00401384
0.00302421
0.00234401
0.00186117
0.00150713
0.00123852
0.00102686
0.000852648
0.000703824
0.000575073
0.000461662
12.7411
7.95561
3.6251
1.57194
0.651285
0.273998
0.123237
0.0609536
0.0332048
0.0197312
0.0126075
0.00851987
0.0060244
0.00442513
0.00335805
0.00262013
0.00209213
0.00170107
0.00140068
0.00116035
0.000958874
0.000782906
0.00062664
0.000484013
11.2576
7.26496
3.53538
1.58994
0.677629
0.29018
0.131741
0.0654171
0.035706
0.0212602
0.0136265
0.00925188
0.00658159
0.00486748
0.00371987
0.00292219
0.00234753
0.00191821
0.00158481
0.00131436
0.00108369
0.000877775
0.000689838
0.000511412
10.1225
6.61062
3.41836
1.58512
0.696952
0.304818
0.140105
0.0699986
0.0383311
0.0228835
0.0147123
0.0100333
0.00717786
0.00534287
0.00411111
0.0032514
0.00262857
0.00215985
0.00179241
0.00149069
0.00122923
0.000990817
0.000766886
0.000544928
9.20456
6.03502
3.28034
1.56981
0.711898
0.3186
0.148558
0.0747937
0.0411267
0.0246248
0.0158786
0.0108722
0.00781834
0.00585485
0.00453448
0.00361006
0.00293733
0.002428
0.00202552
0.00169153
0.00139797
0.00112478
0.000860435
0.000585834
8.43517
5.53708
3.12813
1.54854
0.724378
0.332171
0.157361
0.079926
0.0441557
0.0265172
0.0171437
0.0117799
0.00851057
0.00640898
0.00499458
0.00400229
0.00327773
0.00272646
0.00228786
0.00192052
0.00159353
0.00128343
0.00097407
0.000635767
7.77294
5.10901
2.96475
1.52469
0.735886
0.346119
0.166791
0.0855396
0.0474959
0.0286024
0.0185318
0.012771
0.00926448
0.00701299
0.00549827
0.00443487
0.00365681
0.00306263
0.00258707
0.00218527
0.0018233
0.00147391
0.00111434
0.000697561
7.2001
4.74484
2.81638
1.50114
0.747663
0.361095
0.177167
0.0918005
0.0512408
0.0309319
0.0200719
0.0138632
0.0100919
0.00767617
0.00605427
0.00491721
0.00408556
0.0034496
0.00293851
0.00250321
0.00210612
0.00171562
0.00129989
0.000782159
6.70274
4.43879
2.68689
1.48034
0.760625
0.377661
0.188951
0.098979
0.05552
0.0335713
0.0218001
0.0150772
0.0110058
0.0084078
0.00667103
0.00545903
0.00457678
0.00390509
0.0033668
0.0029081
0.00248721
0.00206724
0.00160602
0.00098782
6.27466
4.1847
2.57763
1.46419
0.775719
0.396208
0.202387
0.107279
0.0604718
0.0366014
0.0237609
0.0164373
0.0120192
0.00921521
0.00735325
0.0060649
0.00513753
0.00444212
0.0038964
0.00344522
0.00305077
0.00269439
0.00240051
0.00226854
5.91198
3.97769
2.4894
1.45422
0.793837
0.417209
0.217817
0.116952
0.0662647
0.0401247
0.0260126
0.0179753
0.0131484
0.0101051
0.00810196
0.00673269
0.00576488
0.00506013
0.00453378
0.00413382
0.00383014
0.00361479
0.00351733
0.00359037
5.61254
3.81552
2.42344
1.45073
0.81568
0.441181
0.235652
0.128316
0.0731189
0.0442794
0.0286367
0.0197377
0.014419
0.0110906
0.00892241
0.00746253
0.00645513
0.00575113
0.0052629
0.00493995
0.00475469
0.004697
0.00477237
0.00497359
5.37551
3.69754
2.3775
1.45474
0.842063
0.468714
0.256395
0.141778
0.0813281
0.0492565
0.0317511
0.021796
0.0158746
0.0121988
0.00983184
0.00826561
0.00721517
0.00651732
0.00607835
0.00584482
0.00578512
0.00587221
0.00609815
0.00640959
5.20132
3.62574
2.36236
1.47143
0.874474
0.500599
0.280673
0.157864
0.0912867
0.0553234
0.0355268
0.0242583
0.0175845
0.0134752
0.0108611
0.00916286
0.00805808
0.00736426
0.0069776
0.00683837
0.00690015
0.00713079
0.00750645
0.00793181
5.09232
3.60408
2.37453
1.50363
0.915101
0.53809
0.309356
0.177274
0.103532
0.0628564
0.0402129
0.027286
0.0196544
0.014991
0.0120589
0.0101872
0.00900451
0.00830185
0.00796101
0.00791392
0.00808804
0.00847367
0.00900613
0.00956479
5.06221
3.64147
2.4232
1.55592
0.966912
0.583022
0.343698
0.200975
0.118809
0.0723931
0.046174
0.0311207
0.0222451
0.0168552
0.0135007
0.0113915
0.0100902
0.00935204
0.0090397
0.00906792
0.00935408
0.00989694
0.0106017
0.0113206
5.09497
3.747
2.51927
1.63608
1.03475
0.638308
0.3856
0.230365
0.138184
0.0847135
0.0539527
0.0361283
0.0256029
0.0192369
0.0153058
0.0128611
0.0113772
0.010559
0.0102444
0.0103207
0.0107089
0.0114051
0.0122974
0.0132084
5.22901
3.94086
2.67862
1.75605
1.12642
0.708725
0.438087
0.267554
0.163227
0.100977
0.0643715
0.0428745
0.0301141
0.0224039
0.017665
0.0147367
0.0129712
0.0120036
0.0116354
0.0117255
0.0121823
0.0130193
0.014107
0.0152436
5.48474
4.23624
2.91848
1.93216
1.25408
0.802199
0.506206
0.315934
0.196375
0.122972
0.078716
0.0522591
0.0364017
0.026792
0.0208921
0.0172524
0.0150535
0.0138297
0.0133281
0.0133832
0.0138495
0.0147945
0.01607
0.0174631
5.88574
4.62524
3.24459
2.17936
1.43345
0.930984
0.598399
0.381203
0.241612
0.153576
0.0990689
0.0657635
0.045507
0.0331378
0.0255209
0.0208099
0.0179391
0.0162934
0.0155345
0.0154801
0.01588
0.0168474
0.0182821
0.0199549
6.44018
5.05817
3.63311
2.49694
1.67646
1.10984
0.727345
0.472869
0.305784
0.197725
0.128997
0.0859499
0.0592566
0.0427473
0.0325038
0.0261278
0.0221938
0.0198604
0.0186544
0.0183322
0.0185979
0.0194514
0.0209627
0.0229165
7.01194
5.40885
4.0069
2.85074
1.97727
1.3476
0.906798
0.604302
0.399931
0.26392
0.174857
0.117485
0.0810368
0.0580752
0.0436443
0.0345695
0.0288899
0.0254136
0.0234379
0.0225901
0.0226097
0.0231831
0.0245727
0.026773
7.03725
5.34166
4.1924
3.15556
2.2983
1.63541
1.14355
0.788992
0.538886
0.36564
0.247747
0.169009
0.117372
0.0839891
0.0625839
0.0489104
0.0402141
0.0347525
0.031433
0.0296364
0.0290463
0.0292697
0.0302251
0.0324289
1.88193
2.12801
2.49344
2.52456
2.31932
2.5237
0.845665
0.90342
1.09808
1.18958
1.21197
1.37535
0.227586
0.670464
0.838654
0.919645
0.97098
1.09321
0.250546
0.618361
0.758434
0.831933
0.89128
0.99234
0.267396
0.620112
0.734474
0.802002
0.864712
0.95425
0.277665
0.651948
0.733352
0.795556
0.85929
0.94223
1.1908
0.708423
0.74361
0.800288
0.863847
0.941418
1.25974
0.748227
0.758136
0.810573
0.87338
0.946195
1.34322
0.776129
0.773109
0.823618
0.885373
0.953704
1.41396
0.795252
0.787369
0.838137
0.898966
0.963202
1.46834
0.80837
0.801005
0.853743
0.914352
0.975358
1.50602
0.817757
0.814438
0.870782
0.932446
0.991798
1.52174
0.823906
0.828188
0.89007
0.954692
1.01489
1.51404
0.82705
0.842916
0.912678
0.982958
1.04763
1.48183
0.82733
0.85938
0.939902
1.01951
1.09372
1.42607
0.824845
0.878482
0.973297
1.06709
1.15765
1.34929
0.819917
0.901389
1.01482
1.12921
1.24515
1.25691
0.81276
0.929791
1.06715
1.21057
1.3639
0.280692
0.802988
0.966511
1.1345
1.31822
1.52509
0.271382
0.798636
1.01703
1.22441
1.4643
1.74713
0.255069
0.819675
1.09359
1.35313
1.67339
2.06587
0.231218
0.88697
1.22919
1.56387
2.00688
2.56805
0.853475
1.09958
1.5545
2.01778
2.67081
3.529
1.84984
2.15958
3.03664
3.83053
4.73522
6.21725
4.4469
4.55104
4.04294
3.28948
2.56961
1.941
1.43069
1.03483
0.737704
0.520461
0.365162
0.256214
0.181209
0.130633
0.0971738
0.075489
0.0614047
0.0522913
0.0464636
0.042864
0.0409063
0.0402844
0.0406308
0.0421717
2.44785
3.31837
3.45942
3.19692
2.72452
2.2245
1.75885
1.35571
1.02332
0.75947
0.556513
0.406725
0.29967
0.223876
0.170955
0.134311
0.109242
0.0921831
0.0806133
0.0727747
0.0675455
0.0642557
0.0625518
0.0626987
1.58559
2.32806
2.75435
2.84799
2.71872
2.44345
2.1133
1.77799
1.46252
1.17843
0.93162
0.729762
0.572517
0.451792
0.360758
0.293063
0.243098
0.206233
0.178909
0.158496
0.143118
0.13127
0.122386
0.115314
1.26707
1.75493
2.1827
2.44909
2.55345
2.51581
2.40712
2.22838
2.02727
1.81734
1.60873
1.40558
1.21362
1.04225
0.896618
0.777125
0.678669
0.596191
0.52635
0.466744
0.416236
0.371329
0.336977
0.295833
1.14094
1.46964
1.81516
2.10934
2.32127
2.44981
2.50419
2.50074
2.47192
2.41146
2.32557
2.22903
2.12528
2.01732
1.90574
1.79095
1.6755
1.56034
1.44528
1.32939
1.21544
1.09922
1.0008
0.873252
1.08687
1.3268
1.59762
1.862
2.0955
2.28838
2.43751
2.54884
2.6323
2.68868
2.72334
2.74117
2.74443
2.73546
2.71338
2.67318
2.61495
2.5419
2.45259
2.34837
2.23105
2.10246
1.97309
1.8231
1.06256
1.2496
1.46518
1.68859
1.90441
2.10345
2.28066
2.43615
2.57125
2.68595
2.78094
2.85734
2.91465
2.9513
2.96541
2.9595
2.93684
2.89019
2.81955
2.73337
2.63432
2.52808
2.42286
2.32626
1.05133
1.20308
1.37733
1.56188
1.74713
1.9262
2.09457
2.24993
2.39068
2.51535
2.62278
2.71169
2.78047
2.82771
2.85274
2.85588
2.84103
2.80559
2.74991
2.68161
2.60419
2.52232
2.44109
2.37001
1.04626
1.17182
1.31361
1.4637
1.6158
1.76489
1.90706
2.03928
2.15892
2.26362
2.35134
2.42033
2.46936
2.4979
2.50636
2.49707
2.47177
2.4326
2.38453
2.331
2.27339
2.21589
2.16009
2.10882
1.04528
1.15058
1.2657
1.38598
1.50652
1.6235
1.73348
1.83344
1.92064
1.99275
2.04806
2.08572
2.10592
2.1098
2.09933
2.07634
2.04571
2.01186
1.97847
1.94856
1.92594
1.90923
1.89483
1.87552
1.04921
1.13941
1.23335
1.32827
1.42133
1.50893
1.58819
1.65656
1.71198
1.75305
1.77926
1.79146
1.79179
1.783
1.76965
1.75772
1.75081
1.75034
1.75657
1.76884
1.78659
1.80877
1.83035
1.84368
1.06029
1.1396
1.21972
1.29754
1.36992
1.43484
1.49034
1.53498
1.56812
1.58995
1.60212
1.60754
1.60967
1.61227
1.61882
1.63097
1.64871
1.6722
1.70047
1.73199
1.76514
1.79881
1.83944
1.89646
1.08201
1.15631
1.22862
1.2968
1.35863
1.41223
1.45645
1.49096
1.5164
1.53439
1.54759
1.55924
1.57261
1.59047
1.61452
1.64509
1.68068
1.71739
1.75025
1.77373
1.78331
1.77944
1.7808
1.8371
1.11888
1.19561
1.26867
1.33662
1.3977
1.45087
1.49587
1.53337
1.565
1.59326
1.62125
1.65206
1.68815
1.73053
1.77814
1.82733
1.87196
1.90328
1.91482
1.89504
1.83293
1.73466
1.62237
1.59668
1.17647
1.26477
1.34868
1.42766
1.50045
1.5667
1.62686
1.68223
1.73489
1.78733
1.84194
1.90033
1.96249
2.02613
2.08633
2.13535
2.16665
2.161
2.10846
1.9978
1.8634
1.707
1.52103
1.39341
1.26164
1.37252
1.47881
1.58131
1.679
1.77186
1.86047
1.94601
2.02988
2.11325
2.19631
2.27755
2.35356
2.41776
2.46472
2.47689
2.43214
2.32856
2.18384
2.02064
1.83357
1.62697
1.41136
1.23598
1.38303
1.52915
1.67032
1.80933
1.94464
2.07565
2.20194
2.32322
2.4388
2.54698
2.64497
2.72684
2.78887
2.81468
2.77319
2.67506
2.52933
2.35756
2.15658
1.92413
1.67497
1.42887
1.19867
1.01724
1.55168
1.74638
1.93452
2.12189
2.30463
2.47977
2.64417
2.79465
2.9275
3.0367
3.11921
3.16
3.12026
3.02376
2.87835
2.69902
2.4806
2.22298
1.93997
1.65011
1.37328
1.12778
0.921217
0.778984
1.78169
2.03616
2.2802
2.52342
2.75617
2.97048
3.1587
3.31377
3.43124
3.49644
3.46469
3.37191
3.2237
3.03384
2.79354
2.50731
2.18955
1.85939
1.53752
1.24409
0.994571
0.797649
0.65086
0.57057
2.09055
2.40766
2.70874
3.00606
3.27827
3.50959
3.68759
3.79915
3.80435
3.71948
3.5697
3.36651
3.09916
2.77896
2.42242
2.05035
1.68509
1.34902
1.06032
0.828765
0.654987
0.533034
0.452798
0.420593
2.49851
2.86139
3.20756
3.54244
3.82428
4.02841
4.12071
4.06651
3.93218
3.71535
3.42053
3.06152
2.6602
2.24166
1.83117
1.45276
1.12743
0.86661
0.670055
0.5297
0.433973
0.370899
0.331171
0.320772
3.02595
3.38084
3.74427
4.08176
4.32019
4.39277
4.2985
4.10502
3.79749
3.39932
2.94583
2.4715
2.00831
1.58277
1.21718
0.925042
0.705821
0.548635
0.438999
0.362869
0.309612
0.27267
0.250012
0.247379
3.68753
3.92594
4.26647
4.55429
4.63766
4.52087
4.2624
3.8466
3.34198
2.79987
2.2667
1.7791
1.36066
1.02608
0.775559
0.595732
0.468688
0.378197
0.311663
0.261731
0.225257
0.200593
0.187905
0.188817
4.47994
4.43936
4.71218
4.85847
4.74115
4.43182
3.91188
3.30199
2.67814
2.09916
1.60206
1.20201
0.900331
0.683126
0.528491
0.41679
0.333761
0.270049
0.221032
0.184981
0.160477
0.145904
0.140763
0.143513
2.08519
3.30151
6.12762
7.64629
7.43017
26.6378
0.890372
2.05758
3.42735
4.33117
5.20862
7.5377
0.245968
1.72535
2.65686
3.43671
4.35089
5.42072
0.270487
1.57966
2.32542
3.06411
3.96488
4.9017
1.22973
1.49149
2.14304
2.87946
3.80724
4.78286
1.41835
1.43165
2.02869
2.78271
3.76394
4.81746
1.57571
1.39089
1.94954
2.73212
3.78618
4.94397
1.69901
1.35964
1.88883
2.70619
3.85014
5.12291
1.78752
1.33214
1.83653
2.69157
3.93867
5.33651
1.84115
1.30478
1.78601
2.67914
4.04065
5.57634
1.85891
1.27542
1.73265
2.66203
4.14782
5.83814
1.84977
1.24341
1.67319
2.63386
4.25318
6.11918
1.8117
1.20985
1.60541
2.58958
4.35008
6.41675
1.75544
1.1747
1.52878
2.52422
4.43136
6.72638
1.67958
1.1349
1.44335
2.43358
4.48655
7.04196
1.58329
1.08709
1.34895
2.31427
4.49907
7.36089
1.46389
1.02646
1.24528
2.1636
4.45076
7.67886
1.30402
0.944675
1.13239
1.98109
4.3235
7.98881
1.18821
0.831875
1.01303
1.77081
4.10013
8.27474
0.268524
0.695981
0.898343
1.54338
3.76933
8.5017
0.252162
0.622335
0.80736
1.31946
3.33682
8.64458
0.230549
0.628443
0.778166
1.14068
2.82941
8.69089
0.867806
0.83373
0.905996
1.11284
2.35552
8.44452
2.13131
2.0082
1.91287
1.90715
2.55737
6.16534
5.15167
4.84999
5.04321
4.96586
4.65214
4.04595
3.33134
2.62733
2.00607
1.50113
1.11498
0.833806
0.633012
0.487601
0.379641
0.297604
0.234567
0.186884
0.152353
0.129015
0.114592
0.107318
0.106429
0.109986
5.17163
5.15274
5.1992
4.93561
4.29515
3.47426
2.68153
2.00711
1.48081
1.09146
0.81172
0.610485
0.462601
0.352101
0.268857
0.20648
0.160663
0.128036
0.105823
0.091653
0.0836083
0.0804448
0.0811991
0.085038
5.22545
5.36992
5.23525
4.68252
3.76902
2.86825
2.11444
1.5406
1.12397
0.825752
0.610275
0.452053
0.335298
0.2494
0.186932
0.142222
0.110784
0.0892062
0.0750224
0.066384
0.0619689
0.0609073
0.062245
0.0659706
5.33601
5.47544
5.14341
4.25634
3.21968
2.34541
1.68713
1.21424
0.877144
0.634647
0.458718
0.331435
0.240138
0.175488
0.130256
0.0989248
0.0774844
0.0631457
0.054008
0.0487161
0.0463533
0.046299
0.0478205
0.0511325
5.49034
5.50384
4.91583
3.77206
2.7325
1.94114
1.3754
0.975086
0.690103
0.486637
0.342364
0.241296
0.171479
0.123791
0.0914476
0.0696179
0.0549993
0.0454068
0.0394241
0.0361059
0.0348396
0.0351249
0.0366396
0.0394112
5.6574
5.49404
4.57999
3.33297
2.34283
1.63389
1.13687
0.787509
0.542029
0.371206
0.254153
0.17525
0.122731
0.0879977
0.0650358
0.0498142
0.0397324
0.0331595
0.0290878
0.0268786
0.0261263
0.0264777
0.0277985
0.0300184
5.81689
5.43463
4.21692
2.95853
2.03499
1.39152
0.94498
0.635744
0.424107
0.281962
0.18837
0.127683
0.0886195
0.0634343
0.0470575
0.0362915
0.0291709
0.0245075
0.0215894
0.0199845
0.0194233
0.0196886
0.0207063
0.0224372
5.9608
5.33155
3.88173
2.65126
1.78627
1.19242
0.786269
0.511999
0.33081
0.213982
0.140107
0.0938583
0.0648706
0.0465025
0.0346631
0.0268904
0.0217187
0.0182803
0.0160653
0.014775
0.0142291
0.0143187
0.0149935
0.0162882
6.09111
5.18943
3.5986
2.40053
1.58014
1.02506
0.653912
0.41161
0.257953
0.162949
0.105085
0.0698995
0.0482705
0.0347072
0.0259895
0.0202437
0.0163758
0.0137433
0.01197
0.0108386
0.0102256
0.0100802
0.0104129
0.0112925
6.21675
5.02893
3.36627
2.19174
1.4047
0.882435
0.543608
0.330951
0.201753
0.125016
0.0797745
0.0528803
0.03656
0.0263755
0.0198202
0.0154688
0.0124969
0.0104187
0.00894533
0.00790685
0.0072075
0.00681291
0.00678166
0.00724046
6.34823
4.87897
3.16835
2.01367
1.25326
0.76067
0.452317
0.266825
0.15881
0.0969547
0.061454
0.0406948
0.0281929
0.0203989
0.0153628
0.0119923
0.00965748
0.00798372
0.00674179
0.00578914
0.00503805
0.00444243
0.00399231
0.00386255
6.49284
4.74681
3.00345
1.86115
1.12201
0.657074
0.377389
0.216292
0.126179
0.0761933
0.0481078
0.0318692
0.0221263
0.0160444
0.0120961
0.00943358
0.00756867
0.00620835
0.00516871
0.00432785
0.00360034
0.00292745
0.00224202
0.00131878
6.65654
4.63848
2.86835
1.73
1.00819
0.569385
0.316353
0.176709
0.101416
0.0607626
0.038288
0.0253881
0.0176579
0.0128213
0.00966814
0.00753025
0.00602315
0.00491562
0.00406173
0.0033631
0.0027473
0.00216143
0.00158036
0.000895037
6.84536
4.56055
2.76056
1.61717
0.909679
0.495597
0.266945
0.145805
0.0825847
0.0492038
0.0309727
0.0205547
0.0143108
0.0103947
0.00783367
0.00609179
0.00486061
0.00395454
0.0032567
0.00268865
0.00219286
0.00172784
0.00127167
0.000769972
7.06642
4.51881
2.67797
1.52038
0.824724
0.433852
0.227135
0.121695
0.0681898
0.0404562
0.0254467
0.0168913
0.0117593
0.00853434
0.00642121
0.00498215
0.00396455
0.00321614
0.00264092
0.00217465
0.00177075
0.00139782
0.00104424
0.000680098
7.32498
4.52134
2.61878
1.43769
0.751713
0.382428
0.195164
0.102855
0.0571038
0.0337572
0.021211
0.0140695
0.00978146
0.00708339
0.00531454
0.00411057
0.00326064
0.0026374
0.0021606
0.00177681
0.00144796
0.00115005
0.000876619
0.000609741
7.62591
4.58142
2.58055
1.36717
0.689161
0.339864
0.169446
0.0880084
0.0484874
0.0285615
0.0179171
0.0118627
0.00822471
0.00593499
0.00443531
0.00341702
0.00270104
0.00217898
0.00178267
0.00146699
0.00120039
0.000963891
0.000753053
0.000555759
7.99808
4.68948
2.56
1.30683
0.636088
0.304504
0.148595
0.076197
0.0417029
0.0244782
0.0153202
0.0101128
0.00698298
0.0050149
0.00372924
0.00286012
0.00225284
0.00181367
0.00148377
0.00122446
0.00100909
0.000822127
0.000659954
0.000513899
8.46835
4.84581
2.55366
1.25548
0.59058
0.274828
0.131527
0.0667007
0.0362969
0.021229
0.0132462
0.00870775
0.00598124
0.00427053
0.00315774
0.00241025
0.00189234
0.00152176
0.001247
0.00103439
0.00086104
0.000713851
0.000589466
0.000481418
9.0721
5.05427
2.55522
1.21112
0.550724
0.249561
0.117384
0.0589747
0.0319364
0.0186122
0.0115703
0.00756732
0.00516552
0.00366378
0.0026926
0.0020455
0.00160178
0.00128832
0.00105944
0.000885466
0.000746438
0.000631022
0.000535928
0.0004562
9.86497
5.31399
2.56025
1.16918
0.514613
0.227615
0.10549
0.052606
0.0283755
0.0164805
0.0102018
0.00663314
0.00449635
0.00316649
0.00231263
0.00174916
0.00136741
0.00110165
0.000910949
0.000768852
0.000657741
0.000567623
0.000495204
0.000436596
10.935
5.5714
2.56018
1.12506
0.480408
0.208069
0.0953127
0.0472819
0.0254316
0.0147255
0.00907395
0.00586225
0.0039444
0.00275746
0.00200164
0.00150824
0.00117842
0.000952529
0.000793542
0.000677671
0.000589187
0.000519143
0.000464228
0.00042134
12.4173
5.79235
2.52787
1.07253
0.446334
0.190178
0.0864455
0.0427693
0.02297
0.0132674
0.00813766
0.00522265
0.00348755
0.00242043
0.00174703
0.00131251
0.00102624
0.000833624
0.000700917
0.000606544
0.00053633
0.000482152
0.000440699
0.000409467
14.4071
5.94245
2.43457
1.00553
0.411104
0.173452
0.0786072
0.0389004
0.0208924
0.0120473
0.00735631
0.00469024
0.00310886
0.00214276
0.00153882
0.00115384
0.000904022
0.000739091
0.000628073
0.000551242
0.000495708
0.000454019
0.00042288
0.000400256
3.16392
8.57792
11.2944
12.1946
46.787
49.0278
1.15599
4.30515
5.87281
7.07129
10.6368
16.6239
1.7098
3.34822
4.44436
5.49286
7.19547
9.79385
2.36612
2.99248
3.83227
4.73436
5.88763
7.12208
2.97311
2.83515
3.50153
4.28124
5.13207
5.77626
3.51427
2.76694
3.29996
3.97813
4.63236
4.97352
3.98056
2.74193
3.16799
3.76336
4.27862
4.44888
4.36739
2.73793
3.0774
3.60597
4.02146
4.08924
4.67264
2.74273
3.01319
3.48946
3.83523
3.83958
4.89585
2.74922
2.96672
3.4045
3.70543
3.67086
5.03849
2.75332
2.93281
3.34598
3.62247
3.56785
5.1055
2.75305
2.90819
3.31053
3.58097
3.52252
5.10102
2.74706
2.89067
3.29596
3.57835
3.53134
5.01868
2.73277
2.87875
3.30071
3.61268
3.59383
4.85668
2.70845
2.87174
3.32359
3.68701
3.7163
4.61384
2.67251
2.86987
3.36601
3.80397
3.90677
4.2898
2.62568
2.87479
3.43098
3.96722
4.18142
3.88525
2.5718
2.89107
3.52219
4.18631
4.56733
3.40298
2.51849
2.92937
3.64876
4.47801
5.11331
2.84978
2.48139
3.01198
3.83102
4.87177
5.92322
2.23959
2.49313
3.18912
4.1175
5.43691
7.253
1.59771
2.64677
3.58506
4.64584
6.39442
9.89019
1.09908
3.29532
4.65938
5.90683
8.60035
16.7498
2.73533
7.10254
9.47735
10.7117
10.67
51.6592
15.8517
5.63523
2.25008
0.921852
0.374626
0.15774
0.0716359
0.0355621
0.0191288
0.0110221
0.00670263
0.00424674
0.00279521
0.00191443
0.00136905
0.00102563
0.000806242
0.000664254
0.000571037
0.000508426
0.000464614
0.000432716
0.000409473
0.000393175
10.0276
4.63821
1.99087
0.828462
0.338423
0.143217
0.0654671
0.0326829
0.0176305
0.0101603
0.00615623
0.0038781
0.00253629
0.00172745
0.00123125
0.000922565
0.000728445
0.000605359
0.000526652
0.000475462
0.000440916
0.000416659
0.000399486
0.000387827
7.44622
3.88249
1.7476
0.738971
0.304753
0.130191
0.060086
0.0302174
0.0163633
0.00943874
0.00570176
0.00357351
0.00232396
0.00157539
0.00112019
0.000840299
0.000667001
0.000559373
0.000492387
0.000450259
0.000422922
0.000404542
0.000392104
0.000383829
5.95305
3.31841
1.53757
0.659195
0.274946
0.118862
0.0554798
0.0281331
0.0153028
0.00884052
0.00532763
0.00332459
0.0021518
0.00145311
0.00103165
0.000775331
0.000618982
0.000523849
0.000466226
0.000431205
0.000409406
0.000395453
0.000386566
0.000380801
4.97738
2.88662
1.3629
0.591263
0.249554
0.109286
0.0516206
0.0264022
0.0144301
0.00835279
0.005025
0.00312488
0.00201482
0.00135663
0.000962376
0.000724952
0.000582127
0.000496898
0.000446614
0.000417071
0.000399453
0.000388765
0.000382445
0.00037856
4.30227
2.55522
1.22169
0.535367
0.228607
0.101414
0.0484647
0.0249988
0.0137318
0.00796589
0.00478714
0.00296945
0.00190923
0.00128292
0.000909905
0.00068714
0.000554747
0.000477104
0.000432372
0.000406913
0.000392375
0.000384053
0.000379504
0.000376994
3.82191
2.30186
1.11042
0.490754
0.211859
0.0951364
0.0459608
0.0238957
0.0132011
0.00767245
0.0046089
0.00285453
0.00183211
0.00122966
0.000872376
0.000660367
0.000535573
0.000463397
0.000422604
0.000399992
0.000387582
0.000380913
0.000377596
0.000375997
3.47776
2.11124
1.02517
0.456354
0.198964
0.0903311
0.0440646
0.0230761
0.0128192
0.00746599
0.00448641
0.00277732
0.00178129
0.00119513
0.00084837
0.00064346
0.000523617
0.000454947
0.000416618
0.00039574
0.000384637
0.000379085
0.000376515
0.000375419
3.23463
1.97261
0.962579
0.431135
0.189582
0.0868835
0.0427355
0.0225224
0.0125761
0.00734194
0.00441696
0.00273584
0.00175522
0.00117806
0.000836864
0.000635571
0.000518175
0.000451192
0.000413974
0.000393837
0.000383362
0.000378253
0.000376006
0.000375161
3.0708
1.87834
0.920207
0.414255
0.183431
0.0847014
0.0419424
0.0222226
0.0124662
0.00729767
0.00439888
0.00272886
0.00175293
0.00117766
0.000837204
0.000636101
0.000518709
0.000451721
0.000414435
0.000394149
0.000383505
0.000378283
0.000375971
0.00037512
2.97317
1.82344
0.896403
0.405128
0.180319
0.0837264
0.041667
0.0221694
0.0124847
0.00732799
0.00442728
0.00275208
0.00177084
0.00119094
0.000847117
0.000643894
0.000524953
0.000456432
0.000417839
0.000396525
0.000384984
0.000379113
0.000376347
0.000375201
2.93478
1.80519
0.890294
0.403456
0.180153
0.0839195
0.0418849
0.0223459
0.012621
0.00742838
0.00450052
0.00280533
0.00181002
0.00122074
0.000869945
0.00066095
0.000537391
0.000465452
0.000424284
0.000401026
0.000388008
0.000380858
0.000377181
0.000375411
2.95231
1.82294
0.901812
0.409193
0.182887
0.0852627
0.0425978
0.0227597
0.0128826
0.00760373
0.00462351
0.00289455
0.00187566
0.00126896
0.000905098
0.000686613
0.000556098
0.00047898
0.000433932
0.000407759
0.000392516
0.000383632
0.000378566
0.000375813
3.02797
1.8781
0.931784
0.422804
0.188778
0.087884
0.0438624
0.0234365
0.0132836
0.00786445
0.00480272
0.00302135
0.00196665
0.00133462
0.000952899
0.000721553
0.000581603
0.000497454
0.000447141
0.000417008
0.000398734
0.00038748
0.000380591
0.00037648
3.16713
1.97426
0.981943
0.444945
0.198023
0.0918348
0.0456988
0.0243885
0.0138303
0.00821151
0.00503695
0.00318494
0.00208322
0.0014189
0.00101441
0.000766677
0.000614673
0.000521522
0.000464443
0.000429199
0.000406996
0.000392661
0.000383396
0.000377481
3.38038
2.11754
1.05507
0.476732
0.211023
0.0972502
0.0481466
0.0256239
0.0145223
0.00864442
0.00532663
0.00338663
0.00222716
0.00152331
0.00109098
0.000823141
0.000656304
0.000552026
0.000486532
0.000444884
0.000417722
0.000399485
0.000387198
0.000378938
3.68513
2.3172
1.15515
0.519713
0.228317
0.104309
0.0512669
0.0271653
0.0153686
0.00916726
0.00567449
0.00362871
0.00240042
0.00164962
0.00118416
0.000892331
0.000707707
0.000590005
0.000514275
0.00046476
0.000431452
0.00040835
0.000392273
0.000380999
4.10901
2.58674
1.28751
0.575881
0.250577
0.113228
0.0551309
0.0290381
0.0163789
0.00978458
0.00608337
0.00391344
0.00260504
0.00179969
0.00129569
0.000975817
0.000770288
0.000636694
0.000548727
0.000489691
0.000448858
0.000419748
0.000398947
0.00038383
4.69753
2.9459
1.45902
0.647642
0.278579
0.124248
0.0598135
0.0312679
0.0175634
0.0105007
0.00655577
0.00424283
0.0028429
0.00197537
0.00142734
0.00107529
0.000845609
0.000693505
0.000591122
0.000520714
0.000470764
0.000434281
0.000407611
0.000387619
5.52889
3.42376
1.67805
0.737614
0.31311
0.137597
0.0653813
0.0338752
0.0189351
0.0113194
0.00709354
0.00461839
0.00311555
0.00217831
0.00158082
0.00119243
0.000935303
0.000761962
0.00064284
0.000559024
0.000498144
0.000452686
0.000418751
0.000392609
6.74778
4.06031
1.95341
0.848027
0.354756
0.153435
0.0718748
0.0368699
0.0205041
0.012243
0.00769755
0.00504095
0.00342408
0.00240983
0.00175763
0.00132886
0.001041
0.000843663
0.000705399
0.000606015
0.000532214
0.000475885
0.000432765
0.000398947
8.63715
4.90512
2.29224
0.979374
0.40349
0.171739
0.0792862
0.0402505
0.0222618
0.0132701
0.00836731
0.00551054
0.00376899
0.00267086
0.00195901
0.00148604
0.0011643
0.000940268
0.000780429
0.000663194
0.000574238
0.000504795
0.000450302
0.000406844
12.0779
6.0724
2.69467
1.12842
0.458083
0.192158
0.087517
0.0439858
0.0241956
0.0143963
0.0091011
0.0060265
0.00415033
0.00296199
0.00218599
0.0016653
0.00130678
0.00105346
0.000869632
0.000732177
0.000625645
0.00054057
0.000472177
0.000416608
20.3365
7.82854
3.14465
1.28494
0.51537
0.213851
0.0963431
0.0480093
0.0262826
0.0156136
0.00989524
0.006587
0.00456733
0.00328321
0.00243914
0.00186768
0.00146977
0.00118481
0.000974693
0.000814656
0.000688026
0.000584587
0.000499416
0.000428648
)
;

boundaryField
{
    rotor
    {
        type            epsilonWallFunction;
        value           nonuniform List<scalar> 
144
(
4.0429
3.01185
2.1232
1.72165
1.9987
5.2729
4.0429
1.29133
1.77627
2.2161
2.5613
2.84802
3.09577
3.31163
3.49774
3.65472
3.78314
3.88419
3.96021
3.97895
3.9499
3.8558
3.69703
3.46766
3.16125
2.7706
2.28797
1.70625
1.15813
4.12923
4.12923
9.76749
13.0971
11.6811
9.31316
26.323
1.88193
2.12801
2.49344
2.52456
2.31932
2.5237
1.88193
0.845665
0.227586
0.250546
0.267396
0.277665
1.1908
1.25974
1.34322
1.41396
1.46834
1.50602
1.52174
1.51404
1.48183
1.42607
1.34929
1.25691
0.280692
0.271382
0.255069
0.231218
0.853475
1.84984
1.84984
2.15958
3.03664
3.83053
4.73522
6.21725
2.08519
3.30151
6.12762
7.64629
7.43017
26.6378
2.08519
0.890372
0.245968
0.270487
1.22973
1.41835
1.57571
1.69901
1.78752
1.84115
1.85891
1.84977
1.8117
1.75544
1.67958
1.58329
1.46389
1.30402
1.18821
0.268524
0.252162
0.230549
0.867806
2.13131
2.13131
2.0082
1.91287
1.90715
2.55737
6.16534
3.16392
8.57792
11.2944
12.1946
46.787
49.0278
3.16392
1.15599
1.7098
2.36612
2.97311
3.51427
3.98056
4.36739
4.67264
4.89585
5.03849
5.1055
5.10102
5.01868
4.85668
4.61384
4.2898
3.88525
3.40298
2.84978
2.23959
1.59771
1.09908
2.73533
2.73533
7.10254
9.47735
10.7117
10.67
51.6592
)
;
    }
    freestream
    {
        type            inletOutlet;
        inletValue      uniform 0.000375;
        value           nonuniform List<scalar> 
96
(
0.000375
0.000375
0.000375
0.000375
0.000375
0.000375
0.000375
0.000375
0.000375
0.000375
0.00226854
0.00359037
0.00497359
0.00640959
0.00793181
0.00956479
0.0113206
0.0132084
0.0152436
0.0174631
0.0199549
0.0229165
0.026773
0.0324289
0.0421717
0.0626987
0.115314
0.295833
0.873252
1.8231
2.32626
2.37001
2.10882
1.87552
1.84368
1.89646
1.8371
1.59668
1.39341
1.23598
1.01724
0.778984
0.57057
0.420593
0.320772
0.247379
0.188817
0.143513
0.109986
0.085038
0.0659706
0.0511325
0.0394112
0.0300184
0.0224372
0.0162882
0.0112925
0.00724046
0.00386255
0.000375
0.000375
0.000375
0.000375
0.000375
0.000375
0.000375
0.000375
0.000375
0.000375
0.000375
0.000375
0.000375
0.000375
0.000375
0.000375
0.000375
0.000375
0.000375
0.000375
0.000375
0.000375
0.000375
0.000375
0.000375
0.000375
0.000375
0.000375
0.000375
0.000375
0.000375
0.000375
0.000375
0.000375
0.000375
0.000375
0.000375
)
;
    }
    frontAndBack
    {
        type            empty;
    }
}


// ************************************************************************* //
