/*--------------------------------*- C++ -*----------------------------------*\
  =========                 |
  \\      /  F ield         | OpenFOAM: The Open Source CFD Toolbox
   \\    /   O peration     | Website:  https://openfoam.org
    \\  /    A nd           | Version:  11
     \\/     M anipulation  |
\*---------------------------------------------------------------------------*/
FoamFile
{
    format      ascii;
    class       volScalarField;
    location    "1.14";
    object      k;
}
// * * * * * * * * * * * * * * * * * * * * * * * * * * * * * * * * * * * * * //

dimensions      [0 2 -2 0 0 0 0];

internalField   nonuniform List<scalar> 
2880
(
0.00869247
0.0125298
0.0145073
0.0174932
0.028227
0.0990488
0.0248958
0.0326952
0.0341877
0.0399366
0.0641957
0.145
0.0327223
0.0419394
0.0469011
0.0577464
0.0936522
0.183289
0.0379185
0.0499446
0.0586941
0.0742955
0.118766
0.207339
0.0417557
0.0577585
0.0701635
0.0898361
0.139681
0.221902
0.044812
0.0653957
0.0810918
0.104167
0.156039
0.22984
0.0473706
0.0728281
0.091333
0.117173
0.168289
0.23278
0.0495446
0.079946
0.100819
0.128654
0.177306
0.232708
0.0513814
0.0866082
0.1095
0.138573
0.183833
0.230595
0.0529057
0.092694
0.11734
0.147051
0.18854
0.227408
0.0541367
0.098091
0.124314
0.154264
0.191976
0.22392
0.0550959
0.102689
0.130405
0.160395
0.194565
0.220687
0.0558124
0.106362
0.1356
0.165618
0.19667
0.218061
0.0559903
0.109166
0.13989
0.170091
0.198618
0.216306
0.0557191
0.111076
0.143261
0.173931
0.200661
0.215698
0.0548332
0.112032
0.145679
0.177189
0.202916
0.216194
0.0533206
0.111934
0.147066
0.179778
0.205386
0.217775
0.0510952
0.110619
0.147259
0.181439
0.207924
0.220722
0.0480428
0.107812
0.146047
0.181732
0.209929
0.224259
0.0440024
0.103051
0.143008
0.179987
0.210173
0.22721
0.038735
0.0955716
0.137467
0.175151
0.20695
0.227371
0.0318583
0.0839731
0.128185
0.165387
0.197122
0.221357
0.0223324
0.0651427
0.11262
0.14751
0.174911
0.198464
0.00888332
0.0406179
0.0894588
0.118721
0.13192
0.117483
0.330575
0.337195
0.242383
0.16399
0.108278
0.0742381
0.0541489
0.0417599
0.0335165
0.0276244
0.0231789
0.0197024
0.0169189
0.0146511
0.0127766
0.0112068
0.00987572
0.00873378
0.00774282
0.00687169
0.00609284
0.00538719
0.00474948
0.00417207
0.302723
0.324972
0.240343
0.165183
0.110238
0.0758851
0.0553869
0.0427364
0.0343622
0.0284167
0.0239545
0.0204741
0.0176869
0.0154098
0.0135179
0.0119215
0.0105543
0.00936612
0.00831806
0.00737816
0.00651777
0.00571686
0.0049709
0.00427058
0.284284
0.305765
0.235927
0.164433
0.111239
0.0771168
0.0564388
0.0436162
0.0351489
0.0291688
0.0247024
0.0212285
0.0184472
0.0161701
0.0142697
0.0126552
0.0112596
0.010032
0.00893255
0.00792787
0.00698739
0.00608875
0.00522628
0.00438475
0.271981
0.287209
0.229478
0.162542
0.111457
0.0779917
0.0573227
0.0444048
0.0358771
0.0298789
0.0254192
0.021961
0.0191947
0.0169264
0.0150262
0.013402
0.0119861
0.0107265
0.00958221
0.00851802
0.00750052
0.00650346
0.00551735
0.00451549
0.262774
0.270508
0.22095
0.159984
0.111242
0.0786173
0.0580767
0.0451178
0.0365534
0.030549
0.0261042
0.0226695
0.0199261
0.0176748
0.0157831
0.0141575
0.0127291
0.0114453
0.0102633
0.00914575
0.0080557
0.00696123
0.00584557
0.00466339
0.254868
0.255756
0.212132
0.15699
0.11077
0.07908
0.0587412
0.0457751
0.0371877
0.0311836
0.0267593
0.0233541
0.0206404
0.0184138
0.0165387
0.0149197
0.013487
0.0121866
0.0109741
0.00980976
0.00865244
0.00746291
0.00621284
0.00482894
0.247619
0.242718
0.203542
0.153638
0.110114
0.0794389
0.0593515
0.0463968
0.037791
0.0317888
0.0273872
0.024016
0.0213384
0.0191442
0.0172942
0.0156909
0.0142627
0.0129539
0.0117186
0.010514
0.00929476
0.00801298
0.00662384
0.00501322
0.240801
0.231212
0.195447
0.150095
0.109335
0.0797371
0.0599357
0.0470013
0.0383742
0.0323705
0.0279914
0.0246571
0.0220218
0.0198687
0.0180542
0.0164781
0.0150662
0.0137607
0.0125127
0.0112762
0.0100008
0.0086293
0.00709475
0.00522197
0.234383
0.22109
0.187989
0.146442
0.10849
0.0800101
0.0605181
0.0476037
0.0389466
0.0329339
0.028574
0.0252784
0.0226917
0.0205899
0.0188249
0.0172926
0.0159161
0.0146342
0.0133941
0.0121447
0.0108289
0.00937742
0.00769218
0.00549632
0.228374
0.212324
0.181229
0.14303
0.107659
0.0802982
0.0611214
0.048218
0.0395168
0.033483
0.0291358
0.0258786
0.023346
0.021307
0.0196083
0.0181431
0.0168316
0.0156101
0.0144231
0.0132156
0.011926
0.0104743
0.00872557
0.00623003
0.22287
0.204824
0.175244
0.139936
0.106905
0.0806293
0.0617652
0.0488601
0.0400946
0.034022
0.0296763
0.0264534
0.0239778
0.0220111
0.0203961
0.0190238
0.0178148
0.0167076
0.0156523
0.0146082
0.0135491
0.0124882
0.0115523
0.011069
0.218053
0.198554
0.170079
0.13721
0.106279
0.0810338
0.0624724
0.0495477
0.0406918
0.0345566
0.0301954
0.0269973
0.0245766
0.0226873
0.0211684
0.019911
0.0188395
0.0179006
0.0170592
0.0162972
0.015618
0.0150639
0.0147568
0.0148593
0.214157
0.193528
0.165784
0.134915
0.105832
0.0815444
0.0632692
0.0503026
0.0413252
0.0350972
0.0306971
0.0275085
0.0251348
0.0233221
0.0219056
0.020777
0.0198655
0.0191273
0.0185397
0.0180984
0.0178139
0.0177146
0.0178507
0.0182283
0.211429
0.189826
0.162441
0.133135
0.105616
0.0821997
0.0641868
0.0511534
0.0420189
0.0356615
0.0311924
0.027992
0.0256524
0.0239104
0.0225968
0.0216035
0.0208631
0.0203374
0.0200097
0.019877
0.0199391
0.020193
0.0206449
0.0212064
0.210219
0.187627
0.160171
0.131909
0.105615
0.0830288
0.0652603
0.0521357
0.0428056
0.0362764
0.0317015
0.0284615
0.0261369
0.0244541
0.0232377
0.0223775
0.0218072
0.0214903
0.0214099
0.0215491
0.0219078
0.0224574
0.0231538
0.023868
0.21058
0.187357
0.159328
0.131578
0.10607
0.0841177
0.0665427
0.0532967
0.0437292
0.0369798
0.0322548
0.0289399
0.0266045
0.0249622
0.023829
0.0230902
0.0226776
0.0225534
0.0226841
0.0230695
0.0236903
0.0244896
0.0254029
0.0262677
0.212659
0.188856
0.159877
0.132176
0.107116
0.0855783
0.0681119
0.054701
0.0448483
0.0378234
0.0328952
0.0294613
0.0270805
0.0254515
0.0243788
0.0237401
0.0234624
0.0234981
0.023806
0.0244113
0.0252548
0.0262761
0.0273936
0.0284168
0.21708
0.193232
0.162649
0.134168
0.109017
0.0875865
0.0700877
0.0564416
0.0462434
0.0388775
0.0336819
0.0300734
0.027602
0.0259498
0.0249057
0.0243369
0.0241642
0.0243104
0.0247729
0.0255515
0.0265831
0.0278001
0.0291111
0.0303023
0.223428
0.200619
0.168089
0.138081
0.112178
0.0904228
0.0726611
0.0586587
0.0480288
0.0402395
0.0346966
0.0308428
0.0282222
0.0264984
0.0254412
0.0249032
0.0247962
0.0250101
0.0255819
0.0264894
0.0276684
0.0290488
0.0305362
0.0319012
0.230938
0.210489
0.176406
0.144443
0.117133
0.09451
0.0761363
0.0615726
0.0503755
0.0420494
0.0360548
0.0318633
0.0290167
0.0271585
0.0260353
0.0254801
0.0253924
0.0256301
0.0262559
0.027242
0.0285196
0.0300203
0.0316549
0.0331911
0.237781
0.220631
0.186644
0.153221
0.124293
0.100349
0.0809476
0.065522
0.053546
0.0445166
0.0379263
0.033272
0.0300954
0.0280193
0.0267623
0.026132
0.0260107
0.0262275
0.0268428
0.02785
0.0291688
0.0307348
0.0324707
0.034162
0.240098
0.226922
0.196224
0.163079
0.133329
0.108164
0.0875173
0.0709396
0.0579173
0.0479542
0.0405666
0.0352754
0.0316242
0.0292146
0.0277331
0.0269548
0.0267375
0.0268905
0.0274238
0.0283872
0.029682
0.0312475
0.0330207
0.0348323
0.233264
0.224544
0.200524
0.171052
0.142594
0.117303
0.0958214
0.0781182
0.0638963
0.0527755
0.0443483
0.0381882
0.0338601
0.0309529
0.0291189
0.0280938
0.0276991
0.0277488
0.0281294
0.0289706
0.0301722
0.0316647
0.0333968
0.0352709
0.20466
0.209651
0.196407
0.173395
0.14937
0.126012
0.104939
0.0867642
0.0715993
0.0593238
0.049707
0.0424495
0.0371975
0.033569
0.0311985
0.029782
0.0290958
0.0289769
0.0291759
0.0297792
0.0308192
0.0321671
0.0337742
0.0356329
0.00403318
0.00882242
0.0169941
0.0256324
0.0328458
0.0476236
0.016269
0.0246427
0.0363091
0.0456795
0.0531682
0.0629147
0.0201995
0.0322707
0.0459822
0.0564023
0.0647808
0.0734738
0.0222389
0.0374529
0.0526151
0.0639277
0.0731145
0.0818663
0.0237352
0.0416508
0.0578822
0.0699172
0.0797786
0.0888062
0.0246388
0.0453472
0.062324
0.0749323
0.0853482
0.0946892
0.0249894
0.0487877
0.0661431
0.0792022
0.0900702
0.0996973
0.0259715
0.0518302
0.0694017
0.0828319
0.0940717
0.103934
0.0270944
0.0543963
0.0721202
0.0858785
0.0974356
0.107486
0.0280368
0.0564497
0.0743124
0.0883827
0.10023
0.110446
0.0287513
0.0579832
0.0759934
0.0903793
0.102521
0.112918
0.0292417
0.0589917
0.0771759
0.091898
0.10437
0.115016
0.0294453
0.0594862
0.0778663
0.092961
0.105836
0.116852
0.0293462
0.0594663
0.0780527
0.0935773
0.106964
0.118534
0.0289289
0.058919
0.077732
0.0937332
0.107778
0.120149
0.0281994
0.0578168
0.0768597
0.0934031
0.108274
0.121761
0.0271816
0.0561151
0.0753751
0.0925129
0.108408
0.123396
0.0259565
0.0537485
0.0731859
0.0909474
0.108076
0.125034
0.0249934
0.0506219
0.0701547
0.0885257
0.107094
0.126583
0.0240742
0.0466278
0.0660728
0.0849654
0.105146
0.127845
0.0226368
0.0417081
0.0605925
0.0798095
0.101701
0.128439
0.020522
0.0352705
0.0530172
0.0722292
0.0958147
0.127711
0.01642
0.0257693
0.0415232
0.0603534
0.0855772
0.124453
0.00396407
0.00895136
0.0206833
0.0388685
0.0670442
0.11719
0.140388
0.176618
0.179646
0.169429
0.151578
0.132377
0.113425
0.0959714
0.0806157
0.0675948
0.0569355
0.0485257
0.0421569
0.0375578
0.0344133
0.0324075
0.0312783
0.0308371
0.0308605
0.03117
0.031927
0.0330533
0.0344474
0.0362069
0.103171
0.141502
0.156473
0.156714
0.149713
0.136171
0.120998
0.105655
0.0911131
0.0779772
0.066608
0.0571536
0.0495802
0.0438561
0.0397496
0.0369537
0.0351906
0.0342337
0.0339083
0.033974
0.0342935
0.0350266
0.036106
0.0376249
0.0938903
0.12068
0.138237
0.145484
0.14521
0.140172
0.130425
0.11897
0.106831
0.0947934
0.0834415
0.0733743
0.0648413
0.0578151
0.0522747
0.0481036
0.045097
0.0430436
0.0417503
0.0410135
0.040758
0.0408346
0.0411288
0.0417826
0.0957435
0.114497
0.130426
0.140997
0.14617
0.14675
0.14473
0.139541
0.13249
0.124701
0.116449
0.108003
0.0998101
0.0922433
0.085574
0.0799173
0.0751731
0.0711579
0.0677467
0.064859
0.0624393
0.0603192
0.0586315
0.0571663
0.100572
0.115616
0.129945
0.141869
0.150844
0.157022
0.16089
0.162363
0.162271
0.161476
0.159707
0.1572
0.154318
0.151142
0.147705
0.143989
0.14
0.135719
0.13108
0.12603
0.120663
0.114946
0.109513
0.103103
0.105775
0.119152
0.132442
0.144806
0.155833
0.165378
0.173504
0.18023
0.185941
0.190868
0.195038
0.198565
0.201494
0.203778
0.205309
0.205941
0.205699
0.204625
0.202354
0.198592
0.193629
0.187659
0.181118
0.174254
0.110571
0.12307
0.135569
0.14775
0.15941
0.170417
0.180688
0.190224
0.199119
0.207388
0.214997
0.221895
0.227983
0.233118
0.237143
0.239917
0.241355
0.241463
0.240546
0.238425
0.234863
0.23055
0.226054
0.222132
0.114729
0.126631
0.138379
0.149951
0.161301
0.172312
0.182983
0.193239
0.203013
0.212203
0.220689
0.228332
0.23498
0.240485
0.244721
0.247615
0.249147
0.249393
0.248647
0.246842
0.24404
0.240817
0.237534
0.234697
0.118225
0.129627
0.14061
0.151306
0.161759
0.171999
0.181952
0.191535
0.200627
0.209077
0.216728
0.223423
0.229028
0.233442
0.236625
0.238599
0.239462
0.239383
0.238596
0.237129
0.23524
0.233142
0.230885
0.228609
0.121143
0.13211
0.14235
0.152067
0.161358
0.17029
0.178818
0.186843
0.194238
0.200854
0.206552
0.211223
0.214807
0.217308
0.218804
0.219441
0.219421
0.218968
0.218239
0.217356
0.216361
0.21528
0.214015
0.21219
0.123627
0.134272
0.143882
0.152692
0.160835
0.168314
0.175153
0.181315
0.186682
0.191154
0.19466
0.19718
0.198758
0.199499
0.199592
0.19927
0.198806
0.198481
0.19854
0.199097
0.19983
0.20087
0.202135
0.202999
0.125859
0.136381
0.145593
0.153742
0.160964
0.167319
0.172789
0.177325
0.180931
0.183603
0.185375
0.186339
0.186662
0.186544
0.186216
0.185891
0.185727
0.185815
0.186215
0.187213
0.189123
0.191499
0.194538
0.198595
0.128034
0.138733
0.147901
0.15579
0.16254
0.168221
0.17287
0.176525
0.179223
0.181042
0.182106
0.18259
0.182696
0.182625
0.182543
0.182545
0.182611
0.182607
0.182303
0.181263
0.180327
0.179612
0.179904
0.183686
0.130347
0.141618
0.15119
0.159335
0.166208
0.171906
0.1765
0.180065
0.182702
0.184543
0.18576
0.186538
0.18705
0.187417
0.187661
0.187718
0.187347
0.18617
0.183852
0.179918
0.174218
0.1676
0.161248
0.160757
0.13298
0.145298
0.155777
0.164739
0.172367
0.17879
0.184109
0.188427
0.191869
0.194575
0.196691
0.198343
0.199596
0.200441
0.200693
0.200313
0.198673
0.194931
0.18869
0.181082
0.171996
0.161449
0.150282
0.144939
0.136097
0.149996
0.161889
0.172191
0.181122
0.18884
0.195455
0.201063
0.205758
0.209624
0.212717
0.215035
0.216493
0.217039
0.216116
0.212888
0.206968
0.199209
0.190229
0.179728
0.16769
0.154892
0.142162
0.134703
0.139846
0.15589
0.169652
0.181699
0.192288
0.201583
0.209664
0.216574
0.222323
0.226883
0.230226
0.232148
0.232086
0.229632
0.224476
0.217393
0.208576
0.197891
0.185174
0.170994
0.156233
0.141972
0.129299
0.122636
0.144353
0.163105
0.179069
0.193066
0.20537
0.216113
0.2253
0.232889
0.238799
0.242786
0.244288
0.242919
0.239194
0.233113
0.224841
0.214082
0.200949
0.185917
0.169713
0.153263
0.137728
0.124323
0.114329
0.110955
0.149726
0.171689
0.189991
0.205859
0.219548
0.231113
0.24045
0.247454
0.251356
0.251818
0.249819
0.245215
0.237641
0.227015
0.21367
0.198075
0.180905
0.16304
0.14553
0.129552
0.11627
0.106674
0.101809
0.102135
0.156041
0.181564
0.202058
0.219355
0.233644
0.244882
0.252743
0.256121
0.25594
0.253298
0.247093
0.236851
0.223511
0.207563
0.18971
0.170834
0.151971
0.134287
0.118912
0.106727
0.0983157
0.0939886
0.0938603
0.0959993
0.16332
0.192449
0.214645
0.232504
0.246119
0.254924
0.258182
0.257687
0.253622
0.244854
0.231813
0.215699
0.197333
0.177669
0.157777
0.138813
0.121967
0.108119
0.0976487
0.0906249
0.0870175
0.0865747
0.087697
0.0913157
0.171534
0.20378
0.22684
0.243963
0.254686
0.258552
0.257545
0.251734
0.240192
0.224357
0.20563
0.185234
0.164411
0.144336
0.126198
0.110966
0.0990079
0.0901768
0.0841713
0.0807531
0.0798199
0.0803858
0.0824257
0.0866777
0.180679
0.214747
0.237543
0.251991
0.25746
0.2563
0.24914
0.235066
0.216586
0.195574
0.173671
0.152353
0.132795
0.11603
0.102545
0.0921437
0.0843493
0.0787475
0.0750747
0.0733484
0.0734358
0.0745862
0.0773579
0.0815011
0.190985
0.224666
0.245743
0.254837
0.25479
0.247137
0.23119
0.210389
0.187486
0.164553
0.143205
0.124472
0.109003
0.0967632
0.0871957
0.079742
0.0740316
0.0698805
0.0673615
0.0666667
0.0672064
0.0689923
0.0721361
0.076045
0.00447796
0.0137357
0.0419267
0.0778828
0.105475
0.117107
0.017149
0.0315449
0.0641259
0.100951
0.13643
0.171193
0.0218554
0.0447896
0.0788103
0.116157
0.15499
0.193594
0.0240339
0.0537077
0.0881103
0.125975
0.165825
0.203698
0.0255876
0.0602711
0.0944135
0.132532
0.172566
0.209526
0.0281403
0.0648473
0.0987086
0.136889
0.176961
0.213358
0.0301838
0.0679768
0.101488
0.139639
0.179907
0.216201
0.0317377
0.0699599
0.103031
0.141137
0.181903
0.21858
0.0328298
0.070976
0.103506
0.141602
0.183229
0.22078
0.0334828
0.0711394
0.103026
0.141157
0.184026
0.222953
0.0336973
0.0705253
0.101652
0.139865
0.184344
0.225178
0.0335862
0.0691837
0.0994391
0.13774
0.184198
0.227489
0.0331238
0.0671378
0.0964216
0.134752
0.183529
0.229868
0.0324344
0.0644156
0.0926269
0.13084
0.182114
0.232218
0.0314931
0.0610764
0.0880779
0.125917
0.179815
0.234391
0.0302775
0.0571733
0.0827994
0.119863
0.176274
0.236212
0.028736
0.0527598
0.0768292
0.112539
0.171055
0.237357
0.0266567
0.0479192
0.0702372
0.103821
0.163664
0.237357
0.0249175
0.0429318
0.0631563
0.093659
0.153523
0.235434
0.0237952
0.0382052
0.0557855
0.0821794
0.139928
0.230263
0.022385
0.0337933
0.048263
0.0696946
0.122195
0.219991
0.0204701
0.0291687
0.040337
0.0563175
0.0999452
0.201063
0.0167028
0.0228731
0.0306231
0.0411036
0.0725577
0.163538
0.00457184
0.00832465
0.0130354
0.019384
0.0363338
0.11719
0.203767
0.233474
0.250254
0.253391
0.246443
0.22988
0.207187
0.182709
0.158982
0.137683
0.119582
0.10487
0.0931306
0.0836964
0.0760792
0.0699817
0.065286
0.0620681
0.0604637
0.0604719
0.061414
0.0636451
0.0668064
0.070431
0.218034
0.241419
0.25114
0.247044
0.231876
0.207871
0.181987
0.157393
0.13584
0.117827
0.103165
0.0912438
0.0814279
0.0733304
0.066707
0.0614601
0.0576109
0.0552299
0.0543656
0.0546929
0.0560136
0.0583965
0.0614244
0.0647269
0.22804
0.245972
0.248116
0.236669
0.212858
0.18566
0.159883
0.137529
0.118933
0.103651
0.0910033
0.0804305
0.0716169
0.0643499
0.0585176
0.054067
0.0509807
0.0492535
0.0488537
0.0493851
0.0508747
0.0531694
0.0559798
0.0589544
0.234478
0.246937
0.241769
0.222082
0.19382
0.166475
0.142701
0.122855
0.106357
0.0925248
0.0808617
0.0710955
0.0630312
0.0565288
0.0514647
0.0477337
0.0452577
0.0439749
0.0438117
0.0444137
0.0458746
0.0479741
0.0505098
0.0531635
0.238408
0.244827
0.233068
0.206383
0.177304
0.151506
0.129771
0.111517
0.0960563
0.0829456
0.0719434
0.062871
0.0555585
0.0498178
0.04546
0.0423227
0.0402835
0.0392518
0.0391459
0.0397005
0.0409871
0.0428137
0.0450352
0.0473803
0.24057
0.240537
0.222669
0.192505
0.164249
0.140051
0.119519
0.101968
0.0869958
0.0744044
0.064039
0.0557059
0.0491587
0.0441294
0.0403692
0.0376775
0.0359109
0.0349727
0.0347907
0.0351978
0.0362044
0.0376998
0.0395802
0.0416295
0.241404
0.235867
0.211958
0.181341
0.154187
0.130881
0.110761
0.0934516
0.0788268
0.0667841
0.0571275
0.0495608
0.0437387
0.039325
0.0360348
0.033652
0.0320281
0.0310698
0.0307181
0.0308939
0.0315456
0.0326582
0.0341709
0.035932
0.241443
0.231084
0.202782
0.172625
0.146165
0.123042
0.10289
0.0856939
0.0714695
0.0600689
0.0511676
0.0443429
0.0391644
0.0352553
0.0323184
0.0301374
0.0285666
0.0275163
0.0269377
0.0268042
0.027061
0.0277286
0.0288341
0.0303017
0.241129
0.226492
0.195578
0.165893
0.139471
0.116025
0.0956665
0.0786297
0.0649164
0.0542298
0.0460811
0.0399327
0.0352989
0.0317893
0.029112
0.0270592
0.0254898
0.0243147
0.0234861
0.0229868
0.0228161
0.0229848
0.023599
0.024734
0.240767
0.222287
0.190325
0.160591
0.133625
0.109584
0.0890186
0.0722557
0.0591529
0.0492059
0.041764
0.0362045
0.0320175
0.0288196
0.0263343
0.0243663
0.0227792
0.0214808
0.0204155
0.0195592
0.018915
0.0185234
0.0185211
0.0191499
0.240611
0.218918
0.186565
0.156282
0.128362
0.103622
0.0829383
0.0665703
0.0541384
0.0449121
0.0381039
0.0330415
0.0292157
0.0262619
0.0239244
0.022022
0.0204242
0.0190355
0.0177869
0.0166334
0.0155518
0.0145414
0.0136249
0.0131036
0.240766
0.216632
0.183981
0.152686
0.123549
0.0981162
0.0774325
0.0615541
0.0498093
0.0412517
0.0349935
0.0303429
0.0268079
0.0240493
0.0218332
0.0199941
0.0184099
0.0169859
0.0156438
0.0143142
0.0129262
0.0113908
0.00948025
0.00657573
0.241403
0.215484
0.182416
0.149662
0.119143
0.093073
0.0724996
0.0571671
0.0460883
0.0381291
0.0323369
0.0280237
0.0247235
0.0221247
0.020015
0.0182449
0.0167034
0.0153036
0.0139716
0.0126371
0.011225
0.00965966
0.00789026
0.0055936
0.242534
0.215509
0.181729
0.147132
0.115132
0.0884986
0.0681218
0.0533542
0.0428945
0.0354562
0.0300522
0.0260128
0.0229023
0.0204356
0.0184206
0.0167221
0.0152407
0.0138991
0.0126334
0.0113842
0.0100887
0.00868629
0.00714002
0.00529186
0.244189
0.216756
0.181808
0.145062
0.111515
0.0843894
0.0642657
0.050052
0.0401504
0.0331565
0.0280714
0.024252
0.0212936
0.0189354
0.0170025
0.0153718
0.0139528
0.0126754
0.0114825
0.0103221
0.0091401
0.00789029
0.00656061
0.00506367
0.246387
0.219308
0.182719
0.143443
0.10829
0.0807281
0.0608867
0.047196
0.0377867
0.0311661
0.0263396
0.0226951
0.0198575
0.0175875
0.0157245
0.0141551
0.0127957
0.0115819
0.0104616
0.00938841
0.0083161
0.00721011
0.00607311
0.0048558
0.249115
0.223281
0.184476
0.142248
0.105439
0.0774825
0.0579335
0.0447266
0.0357444
0.0294331
0.0248137
0.0213068
0.0185645
0.0163661
0.0145628
0.0130489
0.0117462
0.0105945
0.00954578
0.00855826
0.00759217
0.00662159
0.00565589
0.00466639
0.252547
0.228673
0.18691
0.141438
0.102931
0.0746115
0.0553569
0.0425909
0.0339744
0.0279158
0.0234602
0.0200603
0.0173931
0.0152535
0.0135023
0.0120398
0.0107918
0.00970134
0.00872352
0.00782018
0.00695639
0.00611188
0.005298
0.00449831
0.256899
0.235601
0.190044
0.140954
0.100717
0.0720713
0.0531102
0.0407417
0.0324349
0.0265804
0.0222527
0.0189354
0.0163277
0.0142375
0.0125331
0.0111193
0.00992489
0.00889518
0.00798749
0.00716625
0.0064
0.0056718
0.0049922
0.00435192
0.262553
0.244201
0.193677
0.140689
0.0987322
0.0698131
0.0511466
0.0391357
0.03109
0.025399
0.0211702
0.0179168
0.015357
0.0133097
0.0116488
0.0102822
0.00914066
0.00817118
0.00733248
0.00659072
0.00591665
0.00529495
0.00473361
0.00422702
0.270183
0.254612
0.197287
0.140487
0.0968976
0.0677815
0.0494193
0.0377335
0.0299089
0.0243488
0.0201965
0.016993
0.0144731
0.0124643
0.0108447
0.00952434
0.00843522
0.00752521
0.00675393
0.00608849
0.00550087
0.00497593
0.00451798
0.00412247
0.280947
0.266882
0.200595
0.140157
0.0951066
0.0659128
0.0478817
0.0364994
0.0288655
0.0234114
0.0193189
0.0161555
0.0136701
0.011697
0.0101174
0.00884265
0.00780522
0.00695354
0.0062476
0.00565487
0.00514761
0.0047097
0.00434098
0.00403642
0.296626
0.280422
0.203336
0.139401
0.0932231
0.0641391
0.04649
0.0354021
0.0279378
0.0225721
0.0185279
0.0153979
0.0129437
0.0110048
0.00946434
0.00823427
0.00724746
0.00645246
0.00580929
0.00528515
0.00485177
0.00449104
0.0041981
0.00396665
0.318614
0.290297
0.20466
0.137782
0.0911023
0.0624002
0.0452075
0.0344161
0.0271087
0.0218197
0.0178163
0.0147159
0.0122909
0.0103852
0.00888291
0.00769645
0.00675869
0.00601817
0.00543458
0.00497432
0.00460784
0.00431444
0.00408468
0.00391092
0.00678838
0.0355806
0.0770503
0.12393
0.152185
0.177944
0.0222528
0.0700752
0.113527
0.160253
0.212068
0.299861
0.0318587
0.090195
0.136216
0.184937
0.241182
0.314296
0.0395626
0.103798
0.151801
0.20154
0.255533
0.312158
0.0460672
0.114033
0.163319
0.212935
0.262932
0.305887
0.0514991
0.122048
0.172072
0.220803
0.266491
0.298928
0.0559584
0.128372
0.178752
0.226219
0.267809
0.292506
0.0595263
0.133282
0.183782
0.229911
0.267896
0.287
0.0622675
0.136942
0.187445
0.232374
0.26741
0.282585
0.0642341
0.139453
0.189931
0.233917
0.266787
0.279361
0.0654745
0.140877
0.191366
0.234753
0.266302
0.2774
0.0660524
0.141247
0.191829
0.235008
0.266118
0.276739
0.066014
0.140581
0.191355
0.234747
0.266298
0.277401
0.0653028
0.138891
0.189933
0.233951
0.266812
0.279408
0.0638914
0.136168
0.187512
0.232537
0.267546
0.282793
0.0617454
0.132385
0.183998
0.230346
0.268294
0.287515
0.0588215
0.127496
0.179257
0.227124
0.268747
0.293503
0.0550647
0.121435
0.173106
0.2225
0.268486
0.300554
0.0504101
0.114103
0.165301
0.215959
0.266782
0.308286
0.0447889
0.105329
0.155487
0.206776
0.262425
0.31607
0.038144
0.0947745
0.143079
0.193904
0.253487
0.322591
0.0304556
0.0816118
0.126915
0.175705
0.236767
0.324079
0.0211625
0.0631891
0.103992
0.149186
0.205768
0.307825
0.00587064
0.0294631
0.0646534
0.108867
0.151909
0.184205
0.345174
0.294432
0.2032
0.134937
0.0886553
0.0606625
0.0440106
0.0335236
0.026366
0.0211464
0.0171794
0.0141062
0.0117094
0.00983588
0.00837071
0.00722627
0.00633545
0.0056466
0.00511876
0.00471698
0.00440993
0.00417417
0.00399621
0.00386718
0.360462
0.287128
0.198057
0.130875
0.0859145
0.0589329
0.0428925
0.0327159
0.0257028
0.0205478
0.0166143
0.0135671
0.0111975
0.00935491
0.00792515
0.00682056
0.00597396
0.00533337
0.00485677
0.00450738
0.00425188
0.00406444
0.00392845
0.00383363
0.347245
0.274528
0.190677
0.126072
0.0830337
0.0572556
0.0418612
0.0319918
0.0251167
0.0200222
0.0161201
0.0130975
0.0107536
0.00894017
0.00754343
0.00647581
0.00567009
0.00507373
0.00464323
0.0043396
0.00412746
0.00397941
0.00387727
0.00380826
0.330078
0.261289
0.182562
0.121082
0.0802077
0.0556908
0.0409333
0.0313556
0.0246091
0.0195702
0.015697
0.0126971
0.0103768
0.0085898
0.0072228
0.00618845
0.0054195
0.00486269
0.00447267
0.00420798
0.0040314
0.00391445
0.00383844
0.00378892
0.313581
0.248695
0.174625
0.116316
0.0775946
0.0542912
0.0401261
0.0308141
0.0241829
0.0191936
0.0153462
0.0123665
0.0100667
0.00830243
0.00696101
0.00595539
0.0052183
0.00469562
0.00433995
0.00410739
0.0039591
0.003866
0.0038094
0.00377452
0.299191
0.237469
0.167398
0.112035
0.0752995
0.0530938
0.0394535
0.0303741
0.0238423
0.0188951
0.0150694
0.0121064
0.00982323
0.00807725
0.00675644
0.0057742
0.00506327
0.00456854
0.00424058
0.00403329
0.00390669
0.00383135
0.00378852
0.00376439
0.287151
0.227903
0.161161
0.108383
0.0733836
0.0521217
0.0389259
0.030042
0.023591
0.0186772
0.0148685
0.0119179
0.00964663
0.00791365
0.00660776
0.00564283
0.00495159
0.00447797
0.00417066
0.00398178
0.00387066
0.00380787
0.00377461
0.00375785
0.277487
0.220113
0.156058
0.10544
0.0718784
0.0513877
0.0385503
0.0298221
0.0234332
0.0185434
0.0147456
0.011802
0.00953704
0.00781103
0.00651365
0.00555929
0.00488064
0.00442077
0.00412682
0.00394964
0.00384819
0.00379352
0.0037666
0.00375405
0.270113
0.21413
0.152155
0.103237
0.0707975
0.0508985
0.0383312
0.0297179
0.023372
0.0184963
0.0147027
0.0117597
0.00949457
0.00776882
0.00647292
0.00552179
0.00484817
0.00439446
0.00410667
0.00393478
0.00383766
0.00378696
0.0037628
0.00375231
0.26493
0.209948
0.149476
0.101786
0.0701451
0.0506567
0.0382718
0.0297307
0.0234062
0.0185332
0.014736
0.0117873
0.0095158
0.00778404
0.00648289
0.00552794
0.00485194
0.00439704
0.00410851
0.00393607
0.0038384
0.00378712
0.00376258
0.00375203
0.261856
0.207555
0.148029
0.101091
0.0699228
0.0506636
0.0383655
0.0298519
0.0235295
0.0186487
0.0148399
0.0118782
0.00959366
0.00785001
0.00653921
0.00557568
0.00489136
0.00442801
0.00413178
0.00395271
0.0038497
0.00379357
0.00376555
0.00375269
0.260856
0.20695
0.147823
0.101153
0.0701225
0.0509076
0.0386125
0.0300866
0.0237467
0.0188477
0.0150224
0.0120445
0.00974375
0.00798309
0.00665361
0.00567085
0.00496809
0.0044879
0.0041767
0.00398496
0.00387163
0.00380708
0.00377202
0.00375432
0.2619
0.20815
0.148876
0.101981
0.0707561
0.0514048
0.0390232
0.0304439
0.0240684
0.0191424
0.0152925
0.0122903
0.00996357
0.00817574
0.00681928
0.00581017
0.00508175
0.0045772
0.00424397
0.0040334
0.00390457
0.00382749
0.00378256
0.00375737
0.265061
0.211203
0.151223
0.103603
0.0718457
0.0521704
0.0396078
0.0309278
0.0244933
0.0195272
0.0156435
0.012608
0.0102479
0.00842675
0.00703701
0.00599479
0.00523361
0.00469748
0.00433527
0.00409961
0.00394992
0.00385584
0.00379751
0.00376215
0.270405
0.216179
0.154911
0.10604
0.0733914
0.0531946
0.0403551
0.0315292
0.025014
0.0199955
0.0160698
0.0129952
0.0105965
0.00873647
0.00730766
0.0062261
0.00542555
0.00485097
0.00445298
0.00418584
0.00400959
0.00389365
0.00381796
0.00376915
0.278043
0.223171
0.159996
0.109324
0.0754076
0.0544812
0.0412629
0.032243
0.0256248
0.0205431
0.0165689
0.0134504
0.0110085
0.00910501
0.0076321
0.0065057
0.0056598
0.00504039
0.00460002
0.0042949
0.00408602
0.00394285
0.0038453
0.00377915
0.288113
0.232286
0.16654
0.11349
0.0779079
0.0560324
0.0423282
0.0330643
0.0263207
0.0211654
0.0171372
0.013971
0.0114825
0.00953204
0.00801097
0.00683512
0.00593871
0.00526875
0.00477974
0.00443011
0.00418216
0.00400582
0.00388122
0.00379305
0.300756
0.243626
0.174588
0.11856
0.0808998
0.057846
0.0435448
0.0339858
0.0270941
0.0218556
0.0177693
0.0145531
0.0120162
0.0100164
0.00844436
0.00721555
0.00626447
0.00553906
0.00499573
0.00459518
0.00430141
0.00408533
0.0039277
0.00381185
0.316103
0.25728
0.184149
0.124533
0.0843755
0.0599116
0.0449015
0.0349968
0.0279354
0.0226052
0.0184581
0.0151913
0.0126057
0.0105559
0.00893144
0.00764754
0.00663883
0.00585413
0.00525154
0.00479403
0.00444755
0.00418452
0.00398692
0.00383661
0.334217
0.273274
0.195134
0.131346
0.0882975
0.0622046
0.0463799
0.0360832
0.0288319
0.0234033
0.0191945
0.0158784
0.0132457
0.0111469
0.00947021
0.00813055
0.00706267
0.00621606
0.00555031
0.00503045
0.00462451
0.00430693
0.00406146
0.00386867
0.354873
0.291339
0.207244
0.138826
0.0925759
0.0646778
0.0479517
0.0372253
0.0297682
0.0242369
0.0199679
0.0166057
0.0139291
0.0117841
0.0100572
0.0086628
0.00753572
0.00662606
0.00589457
0.00530809
0.00483658
0.00445647
0.00415318
0.00390876
0.376013
0.310575
0.219776
0.146596
0.0970367
0.0672518
0.0495753
0.0383973
0.0307264
0.0250919
0.0207664
0.0173632
0.0146479
0.0124613
0.0106878
0.00924134
0.00805671
0.00708441
0.00628605
0.00562977
0.00508707
0.00463623
0.00426485
0.00395784
0.391865
0.329162
0.231418
0.154018
0.101399
0.0698078
0.0511957
0.0395682
0.0316862
0.0259532
0.0215774
0.0181402
0.0153932
0.0131711
0.0113565
0.0098623
0.00862341
0.00759043
0.00672547
0.00599746
0.00537884
0.00484943
0.00439942
0.00401712
0.367966
0.341335
0.239893
0.16015
0.105277
0.0721904
0.0527447
0.0407026
0.0326251
0.0268043
0.0223874
0.0189252
0.0161548
0.0139052
0.0120563
0.0105205
0.00923218
0.00814206
0.00721226
0.00641197
0.00571399
0.00509908
0.00456005
0.00408807
)
;

boundaryField
{
    rotor
    {
        type            kqRWallFunction;
        value           nonuniform List<scalar> 
144
(
0.00869247
0.0125298
0.0145073
0.0174932
0.028227
0.0990488
0.00869247
0.0248958
0.0327223
0.0379185
0.0417557
0.044812
0.0473706
0.0495446
0.0513814
0.0529057
0.0541367
0.0550959
0.0558124
0.0559903
0.0557191
0.0548332
0.0533206
0.0510952
0.0480428
0.0440024
0.038735
0.0318583
0.0223324
0.00888332
0.00888332
0.0406179
0.0894588
0.118721
0.13192
0.117483
0.00403318
0.00882242
0.0169941
0.0256324
0.0328458
0.0476236
0.00403318
0.016269
0.0201995
0.0222389
0.0237352
0.0246388
0.0249894
0.0259715
0.0270944
0.0280368
0.0287513
0.0292417
0.0294453
0.0293462
0.0289289
0.0281994
0.0271816
0.0259565
0.0249934
0.0240742
0.0226368
0.020522
0.01642
0.00396407
0.00396407
0.00895136
0.0206833
0.0388685
0.0670442
0.11719
0.00447796
0.0137357
0.0419267
0.0778828
0.105475
0.117107
0.00447796
0.017149
0.0218554
0.0240339
0.0255876
0.0281403
0.0301838
0.0317377
0.0328298
0.0334828
0.0336973
0.0335862
0.0331238
0.0324344
0.0314931
0.0302775
0.028736
0.0266567
0.0249175
0.0237952
0.022385
0.0204701
0.0167028
0.00457184
0.00457184
0.00832465
0.0130354
0.019384
0.0363338
0.11719
0.00678838
0.0355806
0.0770503
0.12393
0.152185
0.177944
0.00678838
0.0222528
0.0318587
0.0395626
0.0460672
0.0514991
0.0559584
0.0595263
0.0622675
0.0642341
0.0654745
0.0660524
0.066014
0.0653028
0.0638914
0.0617454
0.0588215
0.0550647
0.0504101
0.0447889
0.038144
0.0304556
0.0211625
0.00587064
0.00587064
0.0294631
0.0646534
0.108867
0.151909
0.184205
)
;
    }
    freestream
    {