/*--------------------------------*- C++ -*----------------------------------*\
  =========                 |
  \\      /  F ield         | OpenFOAM: The Open Source CFD Toolbox
   \\    /   O peration     | Website:  https://openfoam.org
    \\  /    A nd           | Version:  11
     \\/     M anipulation  |
\*---------------------------------------------------------------------------*/
FoamFile
{
    format      ascii;
    class       volScalarField;
    location    "1.14";
    object      nut;
}
// * * * * * * * * * * * * * * * * * * * * * * * * * * * * * * * * * * * * * //

dimensions      [0 2 -1 0 0 0 0];

internalField   nonuniform List<scalar> 
2880
(
1.68204e-06
4.69132e-06
8.92124e-06
1.59969e-05
3.58777e-05
0.000167452
4.31975e-05
5.91916e-05
7.62471e-05
0.000106486
0.000174622
0.0003004
5.42529e-05
9.55562e-05
0.000139325
0.000196516
0.000284114
0.000400734
5.83922e-05
0.000122933
0.000192785
0.000271478
0.000366197
0.000467058
6.1265e-05
0.000152682
0.000245667
0.000336727
0.000430399
0.000513497
6.34581e-05
0.000185586
0.000298173
0.000393028
0.000477029
0.000549575
6.52367e-05
0.000220616
0.000348814
0.000440699
0.000511228
0.000575018
6.67105e-05
0.000256296
0.000395336
0.000480106
0.000538744
0.000597236
6.79309e-05
0.000291407
0.000435799
0.00051255
0.000562624
0.000615415
6.89275e-05
0.000324327
0.000469722
0.000539928
0.000584743
0.000631526
6.97226e-05
0.000353218
0.000497403
0.000564451
0.000605862
0.000646935
7.03364e-05
0.00037606
0.000519506
0.000587278
0.000626727
0.000662641
7.07923e-05
0.000390505
0.000536809
0.000608615
0.00064789
0.000679538
7.09087e-05
0.000398194
0.000549171
0.000628093
0.000669762
0.000698552
7.074e-05
0.000399121
0.000555823
0.000644912
0.000692289
0.000720707
7.01805e-05
0.000392506
0.000555494
0.000657592
0.000714377
0.000744646
6.92117e-05
0.000377165
0.000546411
0.000663754
0.000733564
0.000768357
6.77588e-05
0.000351727
0.000526154
0.000659846
0.000746949
0.000790971
6.57113e-05
0.00031483
0.000492222
0.000640948
0.000747801
0.00080725
6.28957e-05
0.000266022
0.000441334
0.000601127
0.000723349
0.000801392
5.90201e-05
0.000207176
0.000370248
0.000533417
0.000660975
0.000750198
5.35359e-05
0.000138359
0.000276489
0.00042854
0.000547971
0.000623799
3.87574e-05
6.43289e-05
0.000160686
0.000279716
0.000374635
0.000368296
1.71998e-06
1.52018e-05
5.49938e-05
0.000108595
0.000168177
4.7191e-05
0.000551009
0.00117977
0.00151793
0.00170261
0.00185277
0.00210674
0.00250344
0.00300578
0.00354925
0.00406228
0.00450145
0.00486093
0.00513504
0.00531797
0.00540605
0.0054002
0.00530756
0.00514131
0.00491893
0.00465917
0.00437898
0.00409173
0.00380746
0.0035326
0.000556836
0.00112755
0.00142924
0.00161744
0.00177703
0.00202656
0.00241234
0.00290658
0.00345028
0.00397531
0.00443403
0.0048168
0.00511589
0.00532444
0.00543809
0.0054569
0.00538663
0.00523855
0.00502786
0.00477121
0.00448405
0.0041792
0.00386714
0.00355544
0.000570875
0.00105766
0.00138191
0.00154804
0.00170996
0.00195341
0.00232626
0.00280892
0.00334861
0.00388085
0.00435605
0.00476044
0.00508381
0.00531791
0.00545736
0.00550121
0.00545385
0.00532471
0.00512688
0.00487492
0.00458258
0.00426177
0.00392292
0.003575
0.000591391
0.00102189
0.00134056
0.00149553
0.00164993
0.00188657
0.00224478
0.00271276
0.00324441
0.00377923
0.00426758
0.00469154
0.00503817
0.00529744
0.00546274
0.0055319
0.00550788
0.00539833
0.0052143
0.00496827
0.00467219
0.0043366
0.00397152
0.00358823
0.00061393
0.000996234
0.00128532
0.00145323
0.00159801
0.0018249
0.00216667
0.00261727
0.00313723
0.0036704
0.00416852
0.0046098
0.00497842
0.00526233
0.00545341
0.00554809
0.00554781
0.00545845
0.00528906
0.00505004
0.00475133
0.00440171
0.00401019
0.00359176
0.000635143
0.000975476
0.00123463
0.001413
0.00155121
0.00176657
0.00209042
0.00252136
0.00302633
0.00355404
0.00405863
0.00451491
0.00490416
0.00521214
0.00542894
0.00554946
0.00557344
0.00550498
0.00535111
0.0051201
0.00481972
0.00445646
0.00403743
0.00358237
0.000654209
0.000957559
0.00119198
0.00137189
0.00150647
0.00170981
0.00201469
0.00242399
0.00291093
0.00342976
0.00393762
0.00440657
0.00481512
0.0051467
0.00538944
0.00553641
0.00558561
0.00553919
0.0054021
0.00518038
0.00487931
0.00450254
0.00405389
0.00355778
0.000671386
0.000941726
0.00115961
0.00132982
0.00146201
0.00165325
0.00193839
0.00232431
0.00279039
0.00329715
0.00380517
0.0042845
0.00471115
0.00506615
0.0053355
0.00551032
0.00558664
0.00556454
0.00544674
0.00523675
0.0049369
0.00454699
0.00406536
0.00351827
0.00068668
0.000927167
0.00112932
0.00128574
0.00141682
0.00159555
0.0018605
0.00222167
0.0026642
0.00315589
0.00366097
0.00414837
0.004592
0.00497059
0.00526799
0.00547324
0.00558038
0.00558739
0.00549468
0.005303
0.00501107
0.00461304
0.00409669
0.00347609
0.000700299
0.000914065
0.00110014
0.00124376
0.00137143
0.00153657
0.00177943
0.00211406
0.00253138
0.00300554
0.00350461
0.00399764
0.00445706
0.00485963
0.00518718
0.00542686
0.00557098
0.00561598
0.00556085
0.00540517
0.00514659
0.00477637
0.00426657
0.00353626
0.000712448
0.00090228
0.00107228
0.00120366
0.00132597
0.00147674
0.00169647
0.00200279
0.00239255
0.00284619
0.00333581
0.00383154
0.00430509
0.00473174
0.00509162
0.00537047
0.00555968
0.00565562
0.00565891
0.00557469
0.00541567
0.00520933
0.00500355
0.00486083
0.000723828
0.000892007
0.0010458
0.00116516
0.00128058
0.00141652
0.00161261
0.00188922
0.00224892
0.0026785
0.00315458
0.00364929
0.0041344
0.00458423
0.00497769
0.00529957
0.00554103
0.00569925
0.00577696
0.00578253
0.00573166
0.00564984
0.00557207
0.00553477
0.000735439
0.00088344
0.00102069
0.00112922
0.00123581
0.00135648
0.00152882
0.00177477
0.00210205
0.00250372
0.00296151
0.00345048
0.00394331
0.00441392
0.00484028
0.00520621
0.00550222
0.00572525
0.00587788
0.00596762
0.00600676
0.00601291
0.00600921
0.00601263
0.000748433
0.000877082
0.000998875
0.00109657
0.00119222
0.0012974
0.00144619
0.00166105
0.00195385
0.00232369
0.00275792
0.00323544
0.00373074
0.00421794
0.00467415
0.00508177
0.0054294
0.00571169
0.0059284
0.0060838
0.00618505
0.00624947
0.00629029
0.00631463
0.000764665
0.000873848
0.000977379
0.00106426
0.00114802
0.00123939
0.00136565
0.00154964
0.00180649
0.00214083
0.00254593
0.00300536
0.0034964
0.00399402
0.00447459
0.00491852
0.00531142
0.00564413
0.00591244
0.00611151
0.00626012
0.00636539
0.00642764
0.00646402
0.000783724
0.000876575
0.000962166
0.00103626
0.00110652
0.00118349
0.0012882
0.00144211
0.00166231
0.00195804
0.00232844
0.00276247
0.0032411
0.0037409
0.00423786
0.00471024
0.00514014
0.00551433
0.00581727
0.00605239
0.00624511
0.00636993
0.00644868
0.00649249
0.000804026
0.000881513
0.000949351
0.00101056
0.00106798
0.00113054
0.00121482
0.00133996
0.00152365
0.00177855
0.00210916
0.00251014
0.00296703
0.0034589
0.00396198
0.00445274
0.00491006
0.00531376
0.00564238
0.00591446
0.00613664
0.0062786
0.0063704
0.00641982
0.000832417
0.000896846
0.000945081
0.000990221
0.00103371
0.00108165
0.00114654
0.00124458
0.00139278
0.00160578
0.00189244
0.002253
0.00267816
0.00315046
0.00364741
0.00414471
0.00461907
0.00503734
0.00539153
0.00569334
0.00593895
0.00609871
0.00620224
0.00625666
0.000859207
0.000919173
0.000949315
0.000977181
0.00100544
0.00103829
0.00108464
0.00115743
0.0012719
0.0014432
0.00168315
0.00199688
0.00238043
0.00282071
0.00329766
0.0037875
0.00426613
0.00468987
0.00506203
0.00538586
0.00565564
0.00583327
0.00594894
0.00600856
0.000875136
0.000941282
0.000959649
0.000971826
0.000984632
0.00100211
0.00103062
0.00107999
0.00116304
0.00129407
0.0014863
0.00174849
0.00208169
0.0024777
0.00292002
0.00338683
0.00385489
0.00427493
0.0046551
0.00499071
0.0052856
0.00548243
0.00561187
0.0056776
0.000864561
0.000947198
0.000966297
0.000969499
0.000969955
0.000973482
0.000985508
0.00101359
0.00106802
0.00116135
0.00130673
0.00151501
0.00179128
0.00213222
0.00252576
0.00295337
0.00339427
0.00379967
0.00417448
0.0045094
0.00482202
0.00504628
0.00519038
0.00526356
0.000805605
0.000916227
0.000953822
0.000958582
0.000954323
0.000948742
0.000947741
0.000957809
0.000987288
0.00104673
0.00114815
0.00130299
0.00151895
0.00179694
0.00212963
0.00250273
0.00289904
0.00327681
0.0036284
0.00395616
0.0042635
0.00451774
0.00468131
0.00476497
0.000698393
0.00083896
0.000903162
0.000923718
0.000925507
0.000918969
0.00091129
0.000908851
0.000918777
0.000949806
0.00101231
0.00111717
0.00127332
0.00148476
0.0017485
0.0020548
0.00239016
0.00272688
0.00303839
0.00334381
0.00362379
0.00389244
0.00408507
0.00418193
0.000535682
0.000740558
0.000828125
0.000857515
0.0008737
0.000873854
0.000866693
0.000858718
0.000856176
0.000866257
0.000897572
0.000959571
0.00106098
0.00120752
0.00139974
0.00163211
0.00189463
0.00217451
0.00243729
0.00269304
0.00294303
0.00318162
0.00339661
0.0035238
7.77918e-07
3.29189e-06
1.04242e-05
2.34226e-05
4.18641e-05
8.08814e-05
2.81687e-05
6.04964e-05
0.000108054
0.000157867
0.00020992
0.000259021
0.000161353
0.000139792
0.000226903
0.000311326
0.000388977
0.00044443
0.000177657
0.00020416
0.000328507
0.000442113
0.000539804
0.000607844
0.000189615
0.000251779
0.00041054
0.000548573
0.000662436
0.000743817
0.000196771
0.000283877
0.000476696
0.000635199
0.000762942
0.000856419
4.7197e-05
0.000302391
0.0005295
0.000705457
0.000845215
0.000950226
4.81899e-05
0.000323128
0.000571788
0.000761808
0.000911921
0.00102749
4.91875e-05
0.000343121
0.000605502
0.000805907
0.000965054
0.00109026
5.00338e-05
0.00036063
0.000631229
0.000838807
0.00100576
0.00113979
5.06678e-05
0.000374314
0.000648872
0.000861099
0.00103455
0.00117654
5.10996e-05
0.000383001
0.000658185
0.000872861
0.00105141
0.00120042
5.12782e-05
0.000386542
0.000658889
0.000873816
0.00105597
0.00121088
5.11927e-05
0.000384815
0.00065048
0.000863506
0.00104758
0.00120703
5.08286e-05
0.000377637
0.000632786
0.000841293
0.00102545
0.00118789
5.0186e-05
0.000364735
0.000605211
0.000806714
0.000988758
0.0011526
4.92816e-05
0.000345646
0.000567265
0.00075903
0.000936669
0.00110058
4.82428e-05
0.000319899
0.000518456
0.000697584
0.000868387
0.00103161
0.000200292
0.000287217
0.0004583
0.000621695
0.000783043
0.00094558
0.000192206
0.00024501
0.000386326
0.00053064
0.00067952
0.000841944
0.000180806
0.000191004
0.000302152
0.000423654
0.000556285
0.000718681
0.000163931
0.000126228
0.000205806
0.000300238
0.000411703
0.0005716
2.84314e-05
5.43527e-05
9.98238e-05
0.000162469
0.000246784
0.000395007
7.64523e-07
3.33927e-06
1.26791e-05
3.54959e-05
8.5433e-05
0.000198806
0.000398885
0.000616881
0.000718421
0.000785402
0.000804721
0.000812531
0.000809312
0.000801045
0.000792866
0.000790098
0.000798958
0.000827149
0.000882675
0.000971829
0.00109685
0.00125213
0.00143393
0.00163666
0.00184474
0.00203997
0.00224269
0.00244081
0.00262846
0.00279772
0.000391353
0.000543056
0.000636971
0.000691397
0.000740412
0.000750209
0.000749157
0.000741068
0.000730116
0.000720554
0.000717496
0.000722818
0.00073827
0.000773204
0.000831814
0.000915055
0.00102025
0.0011442
0.00128365
0.00142744
0.001567
0.00171841
0.00187569
0.00203205
0.000500371
0.000563015
0.000624414
0.000668858
0.00069802
0.000723702
0.000724439
0.000716456
0.000702321
0.000686268
0.000672618
0.000663972
0.000660932
0.000665865
0.000681726
0.000710619
0.000752933
0.000808538
0.000876858
0.000955167
0.00104466
0.00114323
0.00124395
0.00136255
0.000651117
0.000672316
0.000701422
0.000730566
0.000753062
0.000770404
0.000783179
0.000786427
0.00077929
0.000770097
0.000758635
0.000746886
0.000738771
0.000734754
0.000735053
0.000739661
0.000749393
0.00076437
0.000784773
0.000811156
0.000842984
0.000881852
0.000918132
0.000994205
0.000797879
0.000818596
0.000837232
0.000858758
0.000882208
0.000905797
0.000930315
0.000948742
0.000958713
0.000973145
0.000987093
0.000997767
0.00100846
0.00101914
0.00103032
0.00104188
0.00105282
0.00106245
0.00106995
0.00107533
0.00107808
0.0010818
0.00107851
0.00109558
0.000926466
0.00096303
0.000988145
0.00101354
0.00104298
0.00107565
0.00111152
0.00114698
0.00118211
0.00121946
0.00125713
0.00129453
0.00133142
0.00136625
0.00139814
0.0014279
0.00145628
0.00148252
0.00150259
0.00151147
0.00151243
0.00150749
0.00149631
0.00149899
0.00103555
0.00109088
0.00112895
0.00116352
0.00120091
0.00124261
0.00128837
0.00133681
0.00138778
0.00144116
0.00149594
0.00155087
0.00160495
0.00165722
0.00170678
0.00175044
0.00178514
0.00181559
0.00184697
0.00187174
0.00188453
0.00189227
0.00189818
0.001909
0.0011268
0.00119957
0.00125126
0.00129567
0.00134027
0.00138731
0.00143869
0.00149371
0.00155156
0.0016112
0.00167125
0.00173036
0.00178726
0.0018407
0.0018894
0.00193222
0.00196643
0.00199519
0.00202344
0.00204496
0.00205822
0.00206927
0.00208023
0.00209174
0.00120232
0.00129054
0.0013546
0.00140768
0.00145745
0.00150861
0.0015624
0.00161906
0.00167797
0.00173801
0.00179786
0.0018562
0.00191177
0.00196348
0.00201057
0.00205188
0.0020879
0.00212012
0.00214865
0.00217105
0.00219075
0.00220768
0.00222106
0.00223043
0.0012636
0.0013652
0.00144086
0.0015016
0.00155542
0.00160757
0.00166014
0.00171369
0.00176793
0.00182201
0.00187482
0.00192517
0.00197196
0.00201444
0.00205245
0.00208728
0.00211814
0.00214491
0.00216661
0.0021821
0.00218755
0.00218469
0.00217551
0.00216057
0.00131103
0.00142408
0.00151066
0.00157976
0.00163799
0.00168971
0.00173851
0.0017861
0.00183211
0.00187592
0.0019167
0.00195326
0.00198429
0.00200897
0.00202601
0.00203318
0.00203171
0.00202562
0.00201963
0.0020169
0.00201158
0.00200766
0.00200905
0.00201162
0.00134458
0.00146892
0.00156409
0.00163947
0.00170217
0.00175602
0.00180297
0.00184366
0.00187883
0.00190818
0.00193041
0.00194396
0.00194812
0.00194253
0.00192787
0.00190683
0.001883
0.00185829
0.00183528
0.00182125
0.00182369
0.0018348
0.00185167
0.0018717
0.00136352
0.00149805
0.00160239
0.00168442
0.00175008
0.00180341
0.00184666
0.001881
0.00190641
0.00192249
0.00192858
0.00192436
0.00191021
0.00188728
0.00185749
0.00182303
0.00178571
0.00174746
0.00170895
0.00166715
0.0016411
0.00163166
0.00163572
0.00165295
0.00136665
0.0015097
0.00162158
0.00170946
0.00177882
0.00183313
0.00187429
0.00190308
0.00191962
0.00192377
0.00191556
0.00189561
0.00186529
0.00182675
0.00178249
0.00173555
0.00168749
0.00163892
0.00158874
0.00153735
0.00149033
0.0014574
0.00144239
0.00145669
0.0013528
0.00150227
0.00161934
0.00171084
0.00178208
0.00183629
0.00187517
0.00189952
0.00190977
0.00190639
0.00189032
0.00186314
0.00182699
0.00178463
0.00173751
0.00169119
0.00163957
0.00158253
0.00151976
0.0014772
0.00142881
0.0013743
0.00133634
0.00135686
0.00132132
0.00147531
0.00159502
0.00168752
0.00175847
0.00181135
0.00184804
0.00186966
0.00187709
0.00187144
0.00185419
0.00182723
0.00179227
0.00175351
0.00170548
0.0016468
0.00158511
0.00153381
0.00149134
0.00143876
0.00138026
0.00132715
0.00128877
0.00132126
0.00127266
0.00143031
0.00155082
0.00164221
0.00171122
0.00176195
0.00179674
0.00181704
0.00182404
0.00181895
0.00180356
0.00177874
0.00173825
0.00168608
0.00163532
0.00159001
0.00154797
0.00149497
0.00143099
0.00136763
0.00131155
0.00126957
0.00125525
0.00133061
0.00120863
0.00137101
0.00149179
0.001581
0.00164709
0.00169509
0.00172772
0.00174667
0.00175312
0.00174698
0.00172187
0.00168065
0.00165025
0.00161745
0.00158071
0.00152826
0.00146507
0.00139942
0.00133621
0.00128116
0.00124317
0.00123344
0.001277
0.00142235
0.00113242
0.00130292
0.00142473
0.00151145
0.00157397
0.00161832
0.00164734
0.00166306
0.00165718
0.00163226
0.00162118
0.00160495
0.00157664
0.00152883
0.00147087
0.00140829
0.0013452
0.00128665
0.00123974
0.00121417
0.00122332
0.00128394
0.00143326
0.00164545
0.00104824
0.00123228
0.00135653
0.00144059
0.00149867
0.0015378
0.00155904
0.00155399
0.00154967
0.00155247
0.00153933
0.00149973
0.00145076
0.00139528
0.00133713
0.00128104
0.0012335
0.00120308
0.00120021
0.00123696
0.00132817
0.00149155
0.00175106
0.00197204
0.000960819
0.00116493
0.00129274
0.00137342
0.00142555
0.00145188
0.00145587
0.00146962
0.00147226
0.00145231
0.00141391
0.00136773
0.00131743
0.00126735
0.00122349
0.00119373
0.00118751
0.001214
0.00128075
0.00139543
0.00157034
0.00181874
0.00209006
0.00233958
0.000875153
0.00110545
0.00123685
0.00131232
0.00135129
0.00136962
0.00138878
0.00138935
0.0013673
0.00133269
0.00129184
0.00124946
0.00121137
0.00118461
0.00117758
0.00119801
0.00124993
0.00133398
0.00145247
0.00161738
0.00185203
0.00213287
0.00244572
0.00273335
0.000796755
0.00105719
0.0011903
0.00125485
0.00128636
0.00130773
0.00131062
0.00129284
0.00126328
0.0012295
0.00119758
0.00117421
0.00116643
0.00118086
0.00122027
0.00128269
0.00136622
0.0014757
0.00162759
0.00184999
0.00215466
0.00249599
0.00286625
0.00316612
0.000732773
0.00102329
0.00115341
0.001203
0.00123232
0.00124032
0.00122969
0.00120646
0.00118126
0.00116093
0.00115207
0.00116006
0.00118773
0.00123356
0.00129478
0.00137309
0.00147789
0.00162747
0.00184761
0.00216239
0.0025331
0.00293613
0.00332706
0.00362654
8.65482e-07
5.14315e-06
2.58186e-05
7.13961e-05
0.000134753
4.63353e-05
2.97269e-05
4.35254e-05
0.000107982
0.000211769
0.000321619
0.000349924
0.000174776
0.000104646
0.000210397
0.000353335
0.000496903
0.000622259
0.000192196
0.000164343
0.000300466
0.000466133
0.000624186
0.000761852
4.79174e-05
0.000219201
0.000374353
0.000549
0.000703953
0.000826099
5.02475e-05
0.000264357
0.000432251
0.000606055
0.000748783
0.000850434
5.20373e-05
0.000298999
0.000475488
0.000642327
0.000769373
0.000850903
5.33578e-05
0.000323978
0.000505804
0.000662474
0.000773472
0.000839359
5.42661e-05
0.000340342
0.000525018
0.000670462
0.00076715
0.000822065
5.48018e-05
0.00034908
0.000534873
0.00066935
0.000754306
0.000802267
5.49762e-05
0.000350976
0.000536744
0.000661378
0.000737365
0.000781661
5.48841e-05
0.000346446
0.000531878
0.00064829
0.000717957
0.000761147
5.45051e-05
0.000335309
0.0005212
0.000631083
0.000696876
0.00074111
5.39348e-05
0.000317906
0.000505092
0.000610374
0.000673587
0.000721527
5.3146e-05
0.000295824
0.000483731
0.000586363
0.000648608
0.000702152
5.21099e-05
0.000270622
0.000457404
0.00055873
0.000621578
0.000682209
5.07676e-05
0.000244067
0.000426607
0.000526833
0.000591672
0.000660312
4.90426e-05
0.000218765
0.000392087
0.000489673
0.000557586
0.000634693
4.70281e-05
0.000199408
0.000354368
0.00044583
0.000517356
0.000602872
0.000189775
0.000188752
0.000311777
0.000393818
0.000467503
0.000561285
0.000178845
0.00016515
0.000259659
0.000331318
0.000402732
0.000503859
0.000163576
0.000121846
0.000188182
0.000250245
0.000317739
0.00041864
2.89332e-05
5.64762e-05
9.31568e-05
0.000136638
0.000201151
0.00028504
8.8263e-07
3.10577e-06
7.9948e-06
1.77315e-05
4.6459e-05
0.000200477
0.000725377
0.00101153
0.00111763
0.00116368
0.00117496
0.0011755
0.00115971
0.00114353
0.00113394
0.00113655
0.00115428
0.00118709
0.00123315
0.00129298
0.00137215
0.00148106
0.00163537
0.00185526
0.00215964
0.00255099
0.00296227
0.00339704
0.00377414
0.00405915
0.000827299
0.001018
0.00109179
0.00111288
0.00112662
0.00111936
0.00111158
0.00111082
0.0011215
0.00114478
0.00118006
0.00122737
0.00128998
0.0013745
0.00148958
0.00164646
0.00185925
0.00214417
0.00251368
0.00293737
0.00337738
0.00381521
0.0041819
0.00443403
0.000895657
0.00101402
0.00105831
0.00107658
0.00108192
0.00108159
0.00108806
0.00110494
0.00113264
0.00117095
0.00122132
0.00128794
0.00137671
0.00149432
0.00164866
0.00184987
0.00211142
0.00244749
0.00286317
0.00330652
0.00375901
0.00417731
0.00453107
0.0047416
0.000927321
0.00100229
0.00102281
0.00104288
0.00105009
0.00106346
0.0010863
0.00111872
0.00116067
0.00121402
0.00128287
0.00137255
0.00148899
0.00163884
0.00183006
0.00207294
0.00237911
0.00275618
0.00319864
0.00364422
0.00408607
0.00447388
0.00480152
0.00497477
0.000931716
0.000980157
0.000994513
0.00101628
0.00103543
0.00106425
0.00110198
0.00114784
0.00120332
0.0012724
0.00136062
0.00147432
0.00162007
0.00180437
0.0020339
0.00231563
0.00265546
0.00305379
0.00349826
0.00392877
0.00433975
0.00469671
0.00498191
0.00512647
0.000920681
0.000947794
0.000974313
0.00100068
0.00103635
0.00108042
0.00113085
0.00118828
0.00125666
0.00134222
0.00145223
0.00159363
0.00177211
0.00199172
0.00225523
0.0025648
0.00292113
0.00331966
0.00374505
0.00414827
0.00451532
0.00483104
0.00507198
0.00519585
0.000901652
0.000921311
0.000958838
0.00100037
0.00105142
0.00110791
0.00116841
0.00123633
0.00131861
0.00142363
0.00155927
0.00173135
0.00194287
0.0021941
0.00248347
0.0028084
0.00316486
0.00354503
0.00393359
0.00429828
0.00461102
0.00487542
0.00507517
0.00517889
0.000880171
0.000901423
0.0009534
0.00101158
0.00107643
0.00114267
0.00121176
0.00129084
0.00138965
0.00151763
0.0016818
0.00188547
0.00212803
0.00240555
0.0027119
0.00303988
0.00338163
0.0037277
0.00406515
0.00437643
0.00463184
0.00483278
0.00499059
0.00507345
0.000859103
0.000889671
0.000956644
0.00103178
0.00110793
0.00118194
0.00125963
0.00135185
0.00147032
0.0016243
0.00181865
0.00205318
0.00232318
0.0026205
0.00293487
0.00325525
0.00357086
0.00387157
0.00414736
0.00438762
0.0045818
0.00471688
0.0048135
0.00487573
0.000839211
0.000884286
0.000968466
0.001059
0.00114403
0.00122476
0.00131195
0.00141978
0.0015609
0.00174306
0.00196781
0.00223087
0.00252355
0.00283411
0.00314905
0.00345435
0.00373695
0.00398594
0.00419338
0.00435452
0.00446754
0.00453267
0.00455242
0.00455837
0.000820768
0.000884053
0.00098871
0.00109162
0.00118323
0.00127042
0.00136871
0.00149478
0.00166102
0.0018724
0.00212634
0.00241448
0.0027248
0.00304292
0.00335315
0.0036396
0.00388749
0.00408473
0.00422346
0.0043012
0.00432059
0.00428386
0.00418492
0.00400081
0.000803525
0.000889784
0.00101431
0.00112735
0.00122441
0.00131859
0.00142988
0.00157658
0.00176961
0.00201006
0.00229087
0.00260008
0.00292319
0.00324432
0.00354678
0.00381391
0.0040302
0.00418256
0.00426136
0.00426091
0.00417677
0.00398897
0.0036078
0.00295092
0.000787917
0.000900943
0.00104409
0.00116525
0.00126718
0.00136926
0.00149535
0.00166447
0.00188502
0.00215337
0.00245797
0.00278396
0.00311546
0.00343608
0.00372917
0.00397846
0.00416898
0.00428798
0.00432538
0.00427366
0.00412771
0.0038853
0.00354544
0.00314619
0.000773374
0.000916553
0.0010767
0.00120476
0.00131143
0.00142229
0.00156456
0.00175714
0.00200515
0.00229947
0.00262432
0.00296282
0.00329866
0.00361581
0.00389839
0.00413125
0.00430094
0.00439665
0.00441067
0.00433823
0.00417738
0.00393014
0.00360799
0.00327329
0.000759442
0.000935751
0.00111087
0.00124565
0.00135706
0.00147733
0.0016365
0.00185273
0.00212766
0.00244566
0.00278701
0.00313382
0.00347022
0.00378114
0.00405183
0.0042685
0.00441945
0.00449606
0.00449327
0.00440946
0.00424607
0.00400847
0.00370962
0.00339314
0.000745886
0.000957381
0.0011474
0.00128806
0.00140399
0.00153371
0.00170958
0.00194906
0.00225037
0.00258965
0.00294374
0.00329479
0.00362817
0.00393015
0.00418725
0.004387
0.00451929
0.0045775
0.00455895
0.00446464
0.00429858
0.00406825
0.00378664
0.00348031
0.000732406
0.000979365
0.00118689
0.00133203
0.00145186
0.00158981
0.00178267
0.00204573
0.00237153
0.00272981
0.00309284
0.00344424
0.00377128
0.00406174
0.00430336
0.00448483
0.00459737
0.0046361
0.00460039
0.00449351
0.00432167
0.00409392
0.00382313
0.0035263
0.000717697
0.00100357
0.00122819
0.00137769
0.00149906
0.00164537
0.00185602
0.00214259
0.00249104
0.00286526
0.00323328
0.00358135
0.00389901
0.00417558
0.00439983
0.00456138
0.00465264
0.00467033
0.00461592
0.00449501
0.00431599
0.00408934
0.00382783
0.00354376
0.000701406
0.00103093
0.00127288
0.00142426
0.00154585
0.001701
0.00193012
0.0022397
0.00260855
0.00299528
0.00336445
0.00370584
0.00401142
0.00427194
0.00447695
0.00461676
0.00468484
0.00467956
0.00460465
0.00446832
0.00428134
0.00405581
0.00380512
0.00354064
0.000683865
0.00106189
0.0013212
0.00147088
0.00159304
0.00175768
0.0020057
0.00233734
0.00272395
0.00311945
0.00348614
0.00381787
0.00410906
0.0043516
0.00453555
0.00465171
0.00469455
0.00466431
0.00456738
0.00441506
0.00422086
0.00399872
0.00376289
0.00352498
0.000665983
0.00109794
0.00136822
0.00151928
0.00164205
0.00181662
0.00208364
0.00243591
0.00283728
0.00323765
0.00359847
0.00391799
0.00419282
0.00441569
0.00457687
0.0046675
0.00468314
0.00462631
0.00450673
0.00433929
0.00414048
0.00392583
0.00370977
0.00350331
0.000649637
0.00115058
0.00141454
0.00157144
0.00169455
0.00187921
0.00216487
0.00253582
0.00294867
0.00334987
0.0037018
0.00400698
0.00426387
0.00446565
0.00460253
0.00466593
0.00465279
0.00456852
0.0044269
0.00424686
0.00404763
0.0038454
0.00365332
0.00348019
0.000637727
0.00122183
0.00147203
0.00163066
0.00175239
0.00194683
0.00225019
0.00263735
0.00305819
0.00345621
0.00379661
0.00408578
0.00432354
0.00450313
0.00461448
0.00464931
0.00460643
0.00449493
0.00433334
0.00414471
0.00395012
0.00376489
0.00359921
0.00345837
0.000634155
0.00127632
0.0015484
0.00169915
0.00181698
0.00202039
0.00233992
0.00274038
0.0031657
0.00355671
0.00388346
0.00415545
0.00437331
0.00452997
0.00461492
0.00462039
0.00454767
0.00441035
0.00423219
0.00403987
0.00385487
0.00368992
0.00355092
0.00343925
1.31084e-06
1.32827e-05
4.73073e-05
0.000113352
4.45515e-05
5.81255e-05
3.85528e-05
0.000102656
0.000197513
0.000326854
0.000380522
0.000486802
5.3426e-05
0.000218672
0.000375743
0.000560393
0.000727564
0.00090775
5.95352e-05
0.000324033
0.000541171
0.00077215
0.000998151
0.00123136
6.42415e-05
0.000412788
0.000685581
0.000953165
0.00121238
0.00145787
6.79214e-05
0.000484514
0.000807522
0.001103
0.00137976
0.001617
7.07991e-05
0.00054091
0.000907734
0.00122384
0.00150865
0.00173086
7.30195e-05
0.000583936
0.000987792
0.00131929
0.00160617
0.00181286
7.46799e-05
0.000615369
0.00104946
0.00139271
0.00167806
0.00187179
7.58481e-05
0.000636635
0.00109435
0.00144648
0.00172875
0.0019134
7.65749e-05
0.000648734
0.0011238
0.00148232
0.00176192
0.00194111
7.69098e-05
0.000652214
0.00113881
0.00150145
0.00177988
0.00195672
7.68878e-05
0.000647485
0.00114005
0.00150474
0.00178359
0.00196119
7.64745e-05
0.000635314
0.00112781
0.0014924
0.00177347
0.00195507
7.56464e-05
0.000616133
0.00110193
0.00146426
0.00174729
0.00193672
7.43685e-05
0.000590201
0.00106172
0.00141869
0.00170305
0.00190434
7.259e-05
0.000557178
0.00100598
0.00135317
0.00163849
0.00185415
7.02376e-05
0.000516056
0.000932847
0.001265
0.00154973
0.00178003
6.72075e-05
0.00046526
0.000839497
0.00115037
0.00143045
0.00167281
6.33536e-05
0.000402384
0.0007224
0.00100445
0.00127223
0.00151793
5.84693e-05
0.00032425
0.000577728
0.00082183
0.00106366
0.00129131
5.2249e-05
0.000226481
0.000404365
0.00059806
0.000789012
0.000955741
3.66728e-05
0.000109051
0.000208887
0.000339111
0.000443081
0.000509145
1.13397e-06
1.09998e-05
3.96952e-05
9.95809e-05
0.000194645
5.91149e-05
0.000676463
0.00138453
0.00165156
0.00177764
0.00188822
0.00209962
0.00243348
0.00284418
0.00327071
0.00365133
0.00396288
0.00421706
0.00441469
0.0045481
0.00460626
0.00458227
0.00448055
0.00431999
0.00412959
0.0039386
0.00376715
0.00362392
0.00351005
0.00342331
0.00116617
0.00159971
0.00177328
0.00186072
0.00196298
0.00218255
0.00252919
0.0029474
0.00337239
0.00373997
0.00403545
0.00427168
0.0044492
0.00455948
0.00459104
0.00453821
0.00440931
0.00422896
0.004031
0.0038457
0.00369018
0.00356832
0.00347682
0.00341055
0.0014574
0.00174706
0.00187238
0.00193576
0.00203612
0.00226619
0.00262478
0.00304832
0.00346974
0.00382254
0.00410173
0.0043204
0.00447837
0.0045661
0.00457183
0.00449155
0.00433806
0.00414187
0.00394073
0.00376426
0.00362533
0.00352303
0.00345059
0.00340061
0.00164716
0.00185163
0.00195088
0.00200164
0.00210585
0.00234837
0.00271807
0.00314525
0.00356174
0.00389901
0.00416236
0.00436432
0.00450369
0.00456993
0.00455115
0.00444549
0.00427054
0.00406247
0.00386171
0.00369578
0.00357273
0.0034873
0.00343028
0.00339293
0.00177804
0.00192836
0.0020137
0.00205941
0.00217141
0.00242737
0.0028072
0.00323669
0.00364745
0.0039694
0.00421799
0.00440454
0.00452667
0.0045729
0.00453151
0.00440304
0.00421002
0.00399357
0.0037956
0.00364052
0.00353159
0.00346002
0.00341498
0.00338713
0.00187259
0.00198622
0.00206434
0.00211006
0.00223222
0.00250168
0.0028906
0.00332148
0.00372571
0.00403371
0.0042693
0.00444216
0.00454876
0.00457689
0.00451525
0.00436697
0.00415919
0.00393717
0.00374314
0.00359799
0.00350074
0.00343997
0.00340381
0.00338296
0.00194171
0.00203078
0.00210511
0.00215429
0.00228767
0.00256999
0.00296711
0.00339924
0.00379425
0.00409198
0.00431698
0.00447821
0.00457132
0.00458363
0.00450451
0.00433961
0.00412016
0.00389451
0.0037044
0.00356734
0.00347896
0.00342594
0.00339594
0.00338016
0.00199263
0.00206536
0.00213805
0.00219255
0.00233704
0.00263102
0.00303535
0.00346863
0.00385516
0.00414507
0.00436185
0.00451367
0.00459551
0.00459456
0.00450097
0.00432274
0.00409433
0.00386615
0.00367906
0.0035477
0.003465
0.00341658
0.00339124
0.00337852
0.00203007
0.00209197
0.00216461
0.00222484
0.00237948
0.00268358
0.00309428
0.00352909
0.00390921
0.00419373
0.00440466
0.00454933
0.00462233
0.00461089
0.00450597
0.00431756
0.00408246
0.00385205
0.00366647
0.00353807
0.00345753
0.00341226
0.00338899
0.00337771
0.00205708
0.00211199
0.00218524
0.00225089
0.00241415
0.00272663
0.00314302
0.0035798
0.00395522
0.00423603
0.00444286
0.00458239
0.00464909
0.00463056
0.00451803
0.00432358
0.0040846
0.00385206
0.00366568
0.00353758
0.00345758
0.00341227
0.0033889
0.00337758
0.00207562
0.00212627
0.00220004
0.00227027
0.00244028
0.00275913
0.00317931
0.00361771
0.00399107
0.00427126
0.00447682
0.00461406
0.0046777
0.00465686
0.00454307
0.00434534
0.00410186
0.0038662
0.00367711
0.00354619
0.0034646
0.00341641
0.00339087
0.00337804
0.00208674
0.00213524
0.00220898
0.00228249
0.0024565
0.00277936
0.00320361
0.00364578
0.00402119
0.00430395
0.00451291
0.00465413
0.00472075
0.00469852
0.00458
0.00437895
0.00413362
0.00389451
0.00370042
0.00356383
0.00347689
0.00342503
0.003395
0.00337908
0.00209098
0.00213906
0.00221196
0.00228744
0.0024637
0.00278927
0.00321737
0.00366502
0.004047
0.0043372
0.00455229
0.00469663
0.00476341
0.00474077
0.00462406
0.00442494
0.00417943
0.00393664
0.00373565
0.00359072
0.00349569
0.0034368
0.00340151
0.00338095
0.00208825
0.00213758
0.00220884
0.00228479
0.00246089
0.00278728
0.00321892
0.00367322
0.00406466
0.00436368