/*--------------------------------*- C++ -*----------------------------------*\
  =========                 |
  \\      /  F ield         | OpenFOAM: The Open Source CFD Toolbox
   \\    /   O peration     | Website:  https://openfoam.org
    \\  /    A nd           | Version:  11
     \\/     M anipulation  |
\*---------------------------------------------------------------------------*/
FoamFile
{
    format      ascii;
    class       surfaceScalarField;
    location    "1.14";
    object      phi;
}
// * * * * * * * * * * * * * * * * * * * * * * * * * * * * * * * * * * * * * //

dimensions      [0 3 -1 0 0 0 0];

internalField   nonuniform List<scalar> 
5640
(
1.32581e-06
-1.32581e-06
2.82219e-06
-1.49638e-06
3.77532e-06
-9.53128e-07
4.65021e-06
-8.74888e-07
4.68985e-06
-3.96426e-08
2.52749e-06
2.16236e-06
1.66516e-06
-2.99097e-06
3.12363e-06
-2.95485e-06
4.14019e-06
-1.9697e-06
4.63119e-06
-1.36588e-06
3.98664e-06
6.04906e-07
5.01349e-06
1.50063e-06
1.68361e-06
-4.67459e-06
2.99717e-06
-4.2684e-06
3.90198e-06
-2.87451e-06
4.12042e-06
-1.58432e-06
3.24617e-06
1.47915e-06
7.39961e-06
8.60061e-07
1.5961e-06
-6.27068e-06
2.7514e-06
-5.42371e-06
3.50032e-06
-3.62342e-06
3.50225e-06
-1.58625e-06
2.52166e-06
2.45974e-06
9.59498e-06
3.26282e-07
1.45133e-06
-7.72201e-06
2.44048e-06
-6.41286e-06
3.02208e-06
-4.20503e-06
2.87779e-06
-1.44196e-06
1.85996e-06
3.47757e-06
1.14889e-05
-3.39175e-08
1.27655e-06
-8.99856e-06
2.09141e-06
-7.22771e-06
2.5206e-06
-4.63422e-06
2.2801e-06
-1.20145e-06
1.28053e-06
4.47714e-06
1.31202e-05
-3.50799e-07
1.07916e-06
-1.00777e-05
1.73863e-06
-7.88718e-06
2.02846e-06
-4.92405e-06
1.72889e-06
-9.01887e-07
8.08922e-07
5.3971e-06
1.44066e-05
-4.77504e-07
8.73686e-07
-1.09514e-05
1.38442e-06
-8.39791e-06
1.55758e-06
-5.09721e-06
1.23369e-06
-5.77992e-07
4.39655e-07
6.19113e-06
1.53472e-05
-5.0093e-07
6.62323e-07
-1.16137e-05
1.03345e-06
-8.76904e-06
1.1133e-06
-5.17706e-06
7.95867e-07
-2.6056e-07
1.53181e-07
6.83382e-06
1.59534e-05
-4.52983e-07
4.47628e-07
-1.20614e-05
6.89487e-07
-9.0109e-06
6.9753e-07
-5.1851e-06
4.1225e-07
2.47195e-08
-5.35777e-08
7.29965e-06
1.62558e-05
-3.55976e-07
2.31869e-07
-1.22932e-05
3.55015e-07
-9.13405e-06
3.09533e-07
-5.13962e-06
7.6658e-08
2.57595e-07
-1.94019e-07
7.57033e-06
1.62849e-05
-2.23151e-07
1.01997e-08
-1.23034e-05
2.93828e-08
-9.15323e-06
-5.38402e-08
-5.0564e-06
-2.25179e-07
4.28934e-07
-3.10791e-07
7.65594e-06
1.60409e-05
-6.6818e-08
-1.89346e-07
-1.21141e-05
-2.8042e-07
-9.06215e-06
-3.94177e-07
-4.94264e-06
-4.99261e-07
5.34019e-07
-4.11506e-07
7.56818e-06
1.55584e-05
7.09804e-08
-3.90212e-07
-1.17239e-05
-5.8194e-07
-8.87043e-06
-7.19444e-07
-4.80514e-06
-7.56714e-07
5.71289e-07
-5.08411e-07
7.31988e-06
1.48637e-05
1.86286e-07
-5.84073e-07
-1.11398e-05
-8.74664e-07
-8.57984e-06
-1.03424e-06
-4.64556e-06
-1.00733e-06
5.44374e-07
-6.13851e-07
6.9264e-06
1.39751e-05
2.74802e-07
-7.69172e-07
-1.03706e-05
-1.16009e-06
-8.18892e-06
-1.34441e-06
-4.46123e-06
-1.26067e-06
4.60635e-07
-7.40431e-07
6.40616e-06
1.29184e-05
3.16289e-07
-9.43826e-07
-9.4268e-06
-1.43975e-06
-7.69299e-06
-1.65598e-06
-4.245e-06
-1.52592e-06
3.30568e-07
-8.99228e-07
5.77947e-06
1.17221e-05
2.96994e-07
-1.10576e-06
-8.32104e-06
-1.71476e-06
-7.08399e-06
-1.97502e-06
-3.98475e-06
-1.81204e-06
1.67585e-07
-1.09929e-06
5.06672e-06
1.04147e-05
2.08187e-07
-1.25159e-06
-7.06945e-06
-1.98535e-06
-6.35022e-06
-2.30747e-06
-3.66263e-06
-2.12887e-06
-1.10172e-08
-1.3502e-06
4.28805e-06
9.01562e-06
4.88513e-08
-1.37641e-06
-5.69304e-06
-2.2502e-06
-5.47643e-06
-2.65859e-06
-3.25423e-06
-2.48719e-06
-1.82415e-07
-1.66149e-06
3.46235e-06
7.55264e-06
-1.98516e-07
-1.46968e-06
-4.22336e-06
-2.50885e-06
-4.43727e-06
-3.03182e-06
-2.73127e-06
-2.89884e-06
-3.15392e-07
-2.0392e-06
2.60272e-06
6.0302e-06
-5.16756e-07
-1.51602e-06
-2.70734e-06
-2.76029e-06
-3.19299e-06
-3.42776e-06
-2.0638e-06
-3.37769e-06
-3.65463e-07
-2.49233e-06
1.71735e-06
4.37796e-06
-8.40095e-07
-1.49874e-06
-1.2086e-06
-2.97369e-06
-1.71805e-06
-3.83682e-06
-1.20066e-06
-3.92458e-06
-2.77702e-07
-3.0306e-06
8.23365e-07
2.42137e-06
-1.07401e-06
-1.2086e-06
-2.92665e-06
-4.12731e-06
-4.40501e-06
-3.58165e-06
-1.16027e-06
2.62045e-06
3.52574e-05
-3.57155e-05
-7.57547e-07
4.07508e-05
-3.73728e-05
-3.46125e-06
3.92868e-05
-3.65831e-05
-5.89387e-06
3.67124e-05
-3.42798e-05
-8.12026e-06
3.39818e-05
-3.17554e-05
-1.0179e-05
3.14821e-05
-2.94234e-05
-1.21104e-05
2.93685e-05
-2.74371e-05
-1.39513e-05
2.75932e-05
-2.57524e-05
-1.57288e-05
2.60502e-05
-2.42727e-05
-1.74614e-05
2.46499e-05
-2.29173e-05
-1.91613e-05
2.33312e-05
-2.16313e-05
-2.08356e-05
2.20585e-05
-2.03842e-05
-2.24886e-05
2.08117e-05
-1.91587e-05
-2.41225e-05
1.95779e-05
-1.79439e-05
-2.57387e-05
1.83476e-05
-1.67314e-05
-2.73375e-05
1.71137e-05
-1.55149e-05
-2.89185e-05
1.58709e-05
-1.429e-05
-3.04805e-05
1.46157e-05
-1.30537e-05
-3.20218e-05
1.33462e-05
-1.1805e-05
-3.35393e-05
1.20619e-05
-1.05443e-05
-3.50294e-05
1.07626e-05
-9.27249e-06
-3.64877e-05
9.44832e-06
-7.99004e-06
-3.79086e-05
8.12091e-06
-6.7e-06
6.85129e-06
-5.47036e-06
1.04815e-06
3.57099e-05
-9.91447e-07
4.27904e-05
-3.13187e-06
4.14272e-05
-5.22317e-06
3.88037e-05
-7.19389e-06
3.59525e-05
-9.0451e-06
3.33333e-05
-1.07954e-05
3.11188e-05
-1.24693e-05
2.92671e-05
-1.4088e-05
2.76689e-05
-1.56672e-05
2.62291e-05
-1.72177e-05
2.48816e-05
-1.87461e-05
2.35869e-05
-2.02566e-05
2.23222e-05
-2.17513e-05
2.10726e-05
-2.32315e-05
1.98278e-05
-2.46975e-05
1.85797e-05
-2.6149e-05
1.73225e-05
-2.7585e-05
1.60518e-05
-2.90037e-05
1.47649e-05
-3.04023e-05
1.34604e-05
-3.1777e-05
1.21373e-05
-3.31231e-05
1.07945e-05
-3.44345e-05
9.43225e-06
8.11977e-06
2.45611e-07
3.63243e-05
-1.15939e-06
4.41954e-05
-2.8137e-06
4.30816e-05
-4.55069e-06
4.05407e-05
-6.24842e-06
3.76503e-05
-7.87575e-06
3.49607e-05
-9.4316e-06
3.26747e-05
-1.09276e-05
3.07631e-05
-1.23783e-05
2.91195e-05
-1.37958e-05
2.76466e-05
-1.51892e-05
2.62751e-05
-1.65646e-05
2.49623e-05
-1.79255e-05
2.36831e-05
-1.92741e-05
2.24212e-05
-2.06115e-05
2.11652e-05
-2.1938e-05
1.99062e-05
-2.32535e-05
1.86379e-05
-2.4557e-05
1.73553e-05
-2.58469e-05
1.60548e-05
-2.71204e-05
1.4734e-05
-2.8374e-05
1.33909e-05
-2.96027e-05
1.20231e-05
-3.07993e-05
1.06289e-05
9.27099e-06
-2.84658e-07
3.69353e-05
-1.18423e-06
4.50949e-05
-2.43178e-06
4.43291e-05
-3.83428e-06
4.19432e-05
-5.26127e-06
3.90773e-05
-6.65987e-06
3.63593e-05
-8.01422e-06
3.4029e-05
-9.32538e-06
3.20743e-05
-1.06014e-05
3.03956e-05
-1.18511e-05
2.88962e-05
-1.30816e-05
2.75056e-05
-1.4298e-05
2.61787e-05
-1.55035e-05
2.48886e-05
-1.67002e-05
2.36178e-05
-1.78889e-05
2.23538e-05
-1.90701e-05
2.10874e-05
-2.02436e-05
1.98115e-05
-2.14088e-05
1.85205e-05
-2.25642e-05
1.72101e-05
-2.37072e-05
1.58771e-05
-2.48344e-05
1.45181e-05
-2.59405e-05
1.31292e-05
-2.70177e-05
1.17061e-05
1.03007e-05
-5.64153e-07
3.74655e-05
-1.06478e-06
4.55956e-05
-1.96319e-06
4.52275e-05
-3.05423e-06
4.30342e-05
-4.21816e-06
4.02412e-05
-5.38922e-06
3.75303e-05
-6.5398e-06
3.51796e-05
-7.66248e-06
3.31969e-05
-8.75984e-06
3.14929e-05
-9.83742e-06
2.99738e-05
-1.09007e-05
2.85688e-05
-1.19538e-05
2.72318e-05
-1.29995e-05
2.59344e-05
-1.40395e-05
2.46578e-05
-1.50747e-05
2.33891e-05
-1.61056e-05
2.21183e-05
-1.7132e-05
2.0838e-05
-1.81536e-05
1.95421e-05
-1.91692e-05
1.82257e-05
-2.01765e-05
1.68844e-05
-2.11722e-05
1.55138e-05
-2.21511e-05
1.41082e-05
-2.31044e-05
1.26593e-05
1.12054e-05
-6.36122e-07
3.77508e-05
-8.19315e-07
4.57787e-05
-1.40348e-06
4.58117e-05
-2.20365e-06
4.38344e-05
-3.11291e-06
4.11505e-05
-4.05989e-06
3.84773e-05
-5.0071e-06
3.61268e-05
-5.94005e-06
3.41299e-05
-6.85666e-06
3.24096e-05
-7.75972e-06
3.08769e-05
-8.65304e-06
2.94621e-05
-9.53996e-06
2.81187e-05
-1.04227e-05
2.68171e-05
-1.13028e-05
2.55379e-05
-1.21809e-05
2.42672e-05
-1.30574e-05
2.29949e-05
-1.39325e-05
2.17131e-05
-1.48059e-05
2.04154e-05
-1.56765e-05
1.90964e-05
-1.65429e-05
1.77508e-05
-1.74022e-05
1.63731e-05
-1.82494e-05
1.49553e-05
-1.90747e-05
1.34846e-05
1.19817e-05
-5.42494e-07
3.78158e-05
-4.60842e-07
4.56971e-05
-7.56019e-07
4.61068e-05
-1.28217e-06
4.43606e-05
-1.94505e-06
4.18133e-05
-2.67171e-06
3.9204e-05
-3.41716e-06
3.68723e-05
-4.16062e-06
3.48733e-05
-4.89596e-06
3.31449e-05
-5.62353e-06
3.16044e-05
-6.34574e-06
3.01844e-05
-7.06508e-06
2.88381e-05
-7.78334e-06
2.75354e-05
-8.5016e-06
2.62561e-05
-9.22047e-06
2.4986e-05
-9.94018e-06
2.37146e-05
-1.06607e-05
2.24336e-05
-1.13819e-05
2.11366e-05
-1.21032e-05
1.98176e-05
-1.28234e-05
1.8471e-05
-1.35406e-05
1.70903e-05
-1.42509e-05
1.56656e-05
-1.4944e-05
1.41778e-05
1.26263e-05
-3.23258e-07
3.76382e-05
1.02185e-08
4.53636e-05
-2.56985e-08
4.61428e-05
-2.93823e-07
4.46287e-05
-7.17402e-07
4.22369e-05
-1.22704e-06
3.97136e-05
-1.77282e-06
3.7418e-05
-2.32793e-06
3.54284e-05
-2.88255e-06
3.36995e-05
-3.43494e-06
3.21568e-05
-3.98622e-06
3.07356e-05
-4.53813e-06
2.939e-05
-5.09199e-06
2.80892e-05
-5.64853e-06
2.68127e-05
-6.20803e-06
2.55455e-05
-6.77041e-06
2.4277e-05
-7.33535e-06
2.29986e-05
-7.90235e-06
2.17036e-05
-8.4707e-06
2.03859e-05
-9.03953e-06
1.90398e-05
-9.60788e-06
1.76587e-05
-1.01742e-05
1.62319e-05
-1.07301e-05
1.47337e-05
1.31349e-05
8.34189e-09
3.71768e-05
5.39979e-07
4.4832e-05
7.74323e-07
4.59084e-05
7.61163e-07
4.46418e-05
5.65877e-07
4.24322e-05
2.67482e-07
4.0012e-05
-7.93517e-08
3.77649e-05
-4.4665e-07
3.57957e-05
-8.21761e-07
3.40746e-05
-1.20026e-06
3.25353e-05
-1.58199e-06
3.11174e-05
-1.96803e-06
2.9776e-05
-2.35931e-06
2.84805e-05
-2.75629e-06
2.72096e-05
-3.15893e-06
2.59482e-05
-3.56672e-06
2.46847e-05
-3.97876e-06
2.34106e-05
-4.39378e-06
2.21186e-05
-4.81015e-06
2.08023e-05
-5.22572e-06
1.94554e-05
-5.63833e-06
1.80713e-05
-6.04848e-06
1.66421e-05
-6.46043e-06
1.51457e-05
1.35003e-05
3.3092e-07
3.64899e-05
1.13749e-06
4.40254e-05
1.63098e-06
4.54149e-05
1.8691e-06
4.44037e-05
1.90162e-06
4.23997e-05
1.81496e-06
4.00987e-05
1.6623e-06
3.79175e-05
1.47883e-06
3.59792e-05
1.28097e-06
3.42725e-05
1.07437e-06
3.27419e-05
8.59987e-07
3.13317e-05
6.37222e-07
2.99988e-05
4.0529e-07
2.87125e-05
1.63788e-07
2.74512e-05
-8.72167e-08
2.61992e-05
-3.47097e-07
2.49446e-05
-6.14636e-07
2.36782e-05
-8.87951e-07
2.23919e-05
-1.16436e-06
2.10787e-05
-1.43975e-06
1.97308e-05
-1.7066e-06
1.83381e-05
-1.95125e-06
1.68868e-05
-2.16623e-06
1.53607e-05
1.37517e-05
7.20245e-07
3.55465e-05
1.78073e-06
4.29649e-05
2.53147e-06
4.46642e-05
3.01686e-06
4.39183e-05
3.27664e-06
4.21399e-05
3.39937e-06
3.99759e-05
3.44154e-06
3.78754e-05
3.44178e-06
3.5979e-05
3.41972e-06
3.42945e-05
3.38308e-06
3.27786e-05
3.33377e-06
3.1381e-05
3.2715e-06
3.0061e-05
3.19545e-06
2.87885e-05
3.1049e-06
2.75417e-05
2.99954e-06
2.63045e-05
2.87954e-06
2.50646e-05
2.74568e-06
2.3812e-05
2.5995e-06
2.25381e-05
2.44352e-06
2.12347e-05
2.28176e-06
1.98925e-05
2.12135e-06
1.84986e-05
1.97426e-06
1.70338e-05
1.85131e-06
1.54836e-05
1.38777e-05
1.13325e-06
3.43465e-05
2.44966e-06
4.16485e-05
3.46281e-06
4.36511e-05
4.19215e-06
4.3189e-05
4.68326e-06
4.16488e-05
5.01623e-06
3.9643e-05
5.25297e-06
3.76386e-05
5.43614e-06
3.57958e-05
5.58874e-06
3.41419e-05
5.7206e-06
3.26467e-05
5.83467e-06
3.1267e-05
5.93102e-06
2.99647e-05
6.00874e-06
2.87108e-05
6.06689e-06
2.74835e-05
6.10484e-06
2.62666e-05
6.12256e-06
2.50469e-05
6.1209e-06
2.38137e-05
6.10206e-06
2.25569e-05
6.07017e-06
2.12666e-05
6.03177e-06
1.99309e-05
5.99519e-06
1.85351e-05
5.9672e-06
1.70618e-05
5.95294e-06
1.54979e-05
1.38345e-05
1.54451e-06
3.28729e-05
3.12521e-06
4.00678e-05
4.40773e-06
4.23685e-05
5.38145e-06
4.22153e-05
6.10976e-06
4.09205e-05
6.65633e-06
3.90964e-05
7.08907e-06
3.72059e-05
7.45543e-06
3.54294e-05
7.78231e-06
3.38151e-05
8.082e-06
3.2347e-05
8.35879e-06
3.09902e-05
8.61328e-06
2.97102e-05
8.84478e-06
2.84793e-05
9.05238e-06
2.72759e-05
9.23553e-06
2.60834e-05
9.39446e-06
2.4888e-05
9.53053e-06
2.36776e-05
9.64675e-06
2.24407e-05
9.74809e-06
2.11652e-05
9.84152e-06
1.98375e-05
9.93488e-06
1.84418e-05
1.00358e-05
1.69609e-05
1.01542e-05
1.53795e-05
1.36839e-05
1.93448e-06
3.11247e-05
3.78692e-06
3.82154e-05
5.34354e-06
4.08119e-05
6.5743e-06
4.09845e-05
7.54563e-06
3.99492e-05
8.30957e-06
3.83324e-05
8.94111e-06
3.65744e-05
9.49224e-06
3.48783e-05
9.99408e-06
3.33132e-05
1.04619e-05
3.18792e-05
1.09018e-05
3.05503e-05
1.13152e-05
2.92968e-05
1.17018e-05
2.80926e-05
1.20612e-05
2.69166e-05
1.23928e-05
2.57518e-05
1.26973e-05
2.45835e-05
1.29763e-05
2.33986e-05
1.32329e-05
2.21842e-05
1.34716e-05
2.09265e-05
1.36985e-05
1.96106e-05
1.39202e-05
1.82201e-05
1.41437e-05
1.67374e-05
1.43783e-05
1.51449e-05
1.34247e-05
2.28414e-06
2.91154e-05
4.41371e-06
3.60858e-05
6.25411e-06
3.89715e-05
7.75517e-06
3.94834e-05
8.97245e-06
3.87319e-05
9.96224e-06
3.73426e-05
1.07983e-05
3.57383e-05
1.15377e-05
3.41389e-05
1.22166e-05
3.26344e-05
1.2854e-05
3.12418e-05
1.34582e-05
2.99461e-05
1.40321e-05
2.87229e-05
1.4576e-05
2.75487e-05
1.50897e-05
2.6403e-05
1.5573e-05
2.52685e-05
1.60264e-05
2.41301e-05
1.64512e-05
2.29738e-05
1.68499e-05
2.17855e-05
1.7226e-05
2.05504e-05
1.7584e-05
1.92525e-05
1.79294e-05
1.78748e-05
1.82687e-05
1.63981e-05
1.86124e-05
1.48011e-05
1.30604e-05
2.57313e-06
2.68586e-05
4.98328e-06
3.36757e-05
7.11758e-06
3.68372e-05
8.90086e-06
3.77002e-05
1.03751e-05
3.72576e-05
1.15999e-05
3.61179e-05
1.26482e-05
3.46899e-05
1.35814e-05
3.32057e-05
1.44408e-05
3.17749e-05
1.52502e-05
3.04324e-05
1.6021e-05
2.91754e-05
1.67575e-05
2.79864e-05
1.74612e-05
2.6845e-05
1.8132e-05
2.57322e-05
1.87697e-05
2.46307e-05
1.93744e-05
2.35254e-05
1.99467e-05
2.24015e-05
2.04879e-05
2.12443e-05
2.10002e-05
2.00381e-05
2.14866e-05
1.87661e-05
2.19513e-05
1.741e-05
2.24011e-05
1.59483e-05
2.28479e-05
1.43544e-05
1.25975e-05
2.78261e-06
2.43729e-05
5.47318e-06
3.09851e-05
7.91028e-06
3.44001e-05
9.98778e-06
3.56227e-05
1.1733e-05
3.55124e-05
1.32047e-05
3.46462e-05
1.44756e-05
3.34191e-05
1.56102e-05
3.20711e-05
1.66557e-05
3.07294e-05
1.76409e-05
2.94472e-05
1.85811e-05
2.82352e-05
1.94832e-05
2.70844e-05
2.03494e-05
2.59788e-05
2.11802e-05
2.49014e-05
2.19752e-05
2.38358e-05
2.27337e-05
2.27668e-05
2.34554e-05
2.16798e-05
2.41401e-05
2.05596e-05
2.47885e-05
1.93898e-05
2.54019e-05
1.81526e-05
2.59836e-05
1.68284e-05
2.65399e-05
1.5392e-05
2.70838e-05
1.38106e-05
1.20437e-05
2.89647e-06
2.16847e-05
5.85832e-06
2.80232e-05
8.60273e-06
3.16557e-05
1.09869e-05
3.32385e-05
1.30192e-05
3.34801e-05
1.47533e-05
3.2912e-05
1.62603e-05
3.19121e-05
1.76073e-05
3.07241e-05
1.88467e-05
2.94901e-05
2.00133e-05
2.82806e-05
2.11272e-05
2.71212e-05
2.21983e-05
2.60133e-05
2.32305e-05
2.49466e-05
2.42248e-05
2.39071e-05
2.51804e-05
2.28801e-05
2.60962e-05
2.18511e-05
2.69703e-05
2.08057e-05
2.78012e-05
1.97287e-05
2.85877e-05
1.86032e-05
2.93296e-05
1.74107e-05
3.00283e-05
1.61297e-05
3.06891e-05
1.47312e-05
3.1325e-05
1.31747e-05
1.14072e-05
2.9068e-06
1.88267e-05
6.11918e-06
2.48109e-05
9.16431e-06
2.86106e-05
1.18632e-05
3.05396e-05
1.41991e-05
3.11442e-05
1.62145e-05
3.08966e-05
1.79754e-05
3.01512e-05
1.95497e-05
2.91498e-05
2.09944e-05
2.80454e-05
2.23507e-05
2.69243e-05
2.36443e-05
2.58276e-05
2.48893e-05
2.47683e-05
2.60919e-05
2.3744e-05
2.72539e-05
2.27451e-05
2.83748e-05
2.17592e-05
2.94525e-05
2.07734e-05
3.04841e-05
1.97741e-05
3.14664e-05
1.87464e-05
3.23963e-05
1.76733e-05
3.32712e-05
1.65357e-05
3.40904e-05
1.53105e-05
3.48568e-05
1.39648e-05
3.55821e-05
1.24494e-05
1.06951e-05
2.82229e-06
1.58059e-05
6.25247e-06
2.13807e-05
9.57108e-06
2.5292e-05
1.25793e-05
2.75315e-05
1.52301e-05
2.84933e-05
1.75464e-05
2.85804e-05
1.95833e-05
2.81143e-05
2.14052e-05
2.73279e-05
2.30718e-05
2.63788e-05
2.46301e-05
2.5366e-05
2.61124e-05
2.43453e-05
2.75381e-05
2.33426e-05
2.89171e-05
2.2365e-05
3.02527e-05
2.14094e-05
3.15449e-05
2.04671e-05
3.27911e-05
1.95271e-05
3.39877e-05
1.85775e-05
3.51296e-05
1.76045e-05
3.62116e-05
1.65914e-05
3.72285e-05
1.55188e-05
3.81764e-05
1.43626e-05
3.90542e-05
1.3087e-05
3.98703e-05
1.16332e-05
9.91138e-06
2.67926e-06
1.26099e-05
6.2835e-06
1.77764e-05
9.82085e-06
2.17546e-05
1.31064e-05
2.42459e-05
1.60671e-05
2.55327e-05
1.86974e-05
2.595e-05
2.10329e-05
2.57788e-05
2.31278e-05
2.5233e-05
2.50394e-05
2.44672e-05
2.68181e-05
2.35872e-05
2.8503e-05
2.26605e-05
3.01199e-05
2.17256e-05
3.16838e-05
2.08011e-05
3.32008e-05
1.98924e-05
3.46722e-05
1.89958e-05
3.60959e-05
1.81034e-05
3.74675e-05
1.72058e-05
3.87807e-05
1.62913e-05
4.00278e-05
1.53443e-05
4.12006e-05
1.43461e-05
4.22913e-05
1.32719e-05
4.32934e-05
1.2085e-05
4.42086e-05
1.07179e-05
9.05488e-06
2.54991e-06
9.21988e-06
6.26897e-06
1.40574e-05
9.94311e-06
1.80805e-05
1.34412e-05
2.07478e-05
1.66765e-05
2.22974e-05
1.96139e-05
2.30126e-05
2.22616e-05
2.3131e-05
2.46545e-05
2.28402e-05
2.68394e-05
2.22823e-05
2.88647e-05
2.15619e-05
3.07729e-05
2.07523e-05
3.25969e-05
1.99016e-05
3.43591e-05
1.90389e-05
3.60689e-05
1.81826e-05
3.77302e-05
1.73345e-05
3.93427e-05
1.64909e-05
4.09024e-05
1.56462e-05
4.24019e-05
1.47917e-05
4.38317e-05
1.39145e-05
4.51804e-05
1.29973e-05
4.64356e-05
1.20167e-05
4.75837e-05
1.09369e-05
4.86164e-05
9.68522e-06
8.11529e-06
2.5586e-06
5.58727e-06
6.28326e-06
1.03327e-05
9.98445e-06
1.43793e-05
1.3605e-05
1.71273e-05
1.70483e-05
1.8854e-05
2.02552e-05
1.98058e-05
2.32055e-05
2.01807e-05
2.59088e-05
2.01369e-05
2.83929e-05
1.97982e-05
3.06955e-05
1.92594e-05
3.28554e-05
1.85923e-05
3.49078e-05
1.78492e-05
3.6884e-05
1.70628e-05
3.88052e-05
1.62613e-05
4.06754e-05
1.54643e-05
4.24933e-05
1.4673e-05
4.42578e-05
1.38817e-05
4.59623e-05
1.30872e-05
4.75966e-05
1.22802e-05
4.91473e-05
1.14466e-05
5.05971e-05
1.05669e-05
5.19249e-05
9.60911e-06
5.31087e-05
8.5014e-06
7.06889e-06
2.93802e-06
1.48898e-06
6.38142e-06
6.88934e-06
9.96362e-06
1.07971e-05
1.36055e-05
1.34853e-05
1.71756e-05
1.52839e-05
2.05908e-05
1.63906e-05
2.38077e-05
1.69639e-05
2.68104e-05
1.71342e-05
2.96046e-05
1.7004e-05
3.22106e-05
1.66534e-05
3.46578e-05
1.61451e-05
3.69776e-05
1.55294e-05
3.91974e-05
1.48429e-05
4.13456e-05
1.41132e-05
4.34402e-05
1.33697e-05
4.54849e-05
1.26282e-05
4.74761e-05
1.18906e-05
4.94084e-05
1.11549e-05
5.12725e-05
1.04161e-05
5.30557e-05
9.66347e-06
5.47379e-05
8.88472e-06
5.62907e-05
8.05635e-06
5.76844e-05
7.10763e-06
5.87299e-06
1.07885e-07
-1.07885e-07
4.1873e-07
-3.10845e-07
8.66731e-07
-4.48002e-07
1.46021e-06
-5.93474e-07
2.16434e-06
-7.04137e-07
-6.42011e-07
2.80635e-06
2.01127e-07
-3.09013e-07
5.27665e-07
-6.37382e-07
9.64897e-07
-8.85234e-07
1.48735e-06
-1.11593e-06
2.08019e-06
-1.29698e-06
-1.23215e-06
2.67033e-06
2.31161e-07
-5.40174e-07
5.37431e-07
-9.43652e-07
9.314e-07
-1.2792e-06
1.37985e-06
-1.56438e-06
1.87055e-06
-1.78767e-06
-1.78198e-06
2.42038e-06
2.42802e-07
-7.82976e-07
5.17001e-07
-1.21785e-06
8.54757e-07
-1.61696e-06
1.22661e-06
-1.93624e-06
1.62745e-06
-2.18851e-06
-2.24428e-06
2.08975e-06
2.43613e-07
-1.02659e-06
4.76511e-07
-1.45075e-06
7.51631e-07
-1.89208e-06
1.04541e-06
-2.23002e-06
1.35801e-06
-2.50111e-06
-2.60708e-06
1.7208e-06
2.3511e-07
-1.2617e-06
4.19817e-07
-1.63546e-06
6.29823e-07
-2.10208e-06
8.46053e-07
-2.44625e-06
1.07154e-06
-2.7266e-06
-2.86942e-06
1.33388e-06
2.12218e-07
-1.47392e-06
3.49184e-07
-1.77242e-06
4.95247e-07
-2.24815e-06
6.3658e-07
-2.58758e-06
7.77936e-07
-2.86795e-06
-3.03484e-06
9.43362e-07
1.61042e-07
-1.63496e-06
2.65942e-07
-1.87732e-06
3.53315e-07
-2.33552e-06
4.24161e-07
-2.65843e-06
4.8654e-07
-2.93033e-06
-3.11042e-06
5.62117e-07
1.06316e-07
-1.74127e-06
1.76373e-07
-1.94738e-06
2.09557e-07
-2.36871e-06
2.15395e-07
-2.66426e-06
2.05789e-07
-2.92073e-06
-3.10627e-06
2.01645e-07
5.45043e-08
-1.79578e-06
8.59681e-08
-1.97884e-06
6.90502e-08
-2.35179e-06
1.60093e-08
-2.61122e-06
-5.70624e-08
-2.84765e-06
-3.03491e-06
-1.28429e-07
5.05283e-09
-1.80083e-06
-1.81318e-09
-1.97198e-06
-6.40538e-08
-2.28955e-06
-1.69101e-07
-2.50618e-06
-2.96235e-07
-2.72052e-06
-2.91029e-06
-4.20848e-07
-4.07869e-08
-1.76004e-06
-8.39762e-08
-1.92879e-06
-1.86383e-07
-2.18714e-06
-3.36244e-07
-2.35631e-06
-5.07614e-07
-2.54915e-06
-2.74693e-06
-6.7098e-07
-8.25027e-08
-1.67754e-06
-1.58649e-07
-1.85264e-06
-2.95401e-07
-2.05039e-06
-4.82737e-07
-2.16898e-06
-6.88736e-07
-2.34315e-06
-2.55879e-06
-8.76869e-07
-1.19049e-07
-1.55849e-06
-2.24044e-07
-1.74765e-06
-3.89238e-07
-1.88519e-06
-6.06864e-07
-1.95135e-06
-8.38581e-07
-2.11143e-06
-2.35834e-06
-1.03904e-06
-1.49537e-07
-1.40896e-06
-2.78894e-07
-1.61829e-06
-4.66584e-07
-1.6975e-06
-7.07693e-07
-1.71024e-06
-9.57165e-07
-1.86196e-06
-2.1555e-06
-1.16e-06
-1.73229e-07
-1.23573e-06
-3.2228e-07
-1.46924e-06
-5.26558e-07
-1.49323e-06
-7.8429e-07
-1.45251e-06
-1.04522e-06
-1.60103e-06
-1.95649e-06
-1.24422e-06
-1.89419e-07
-1.04631e-06
-3.53591e-07
-1.30506e-06
-5.68664e-07
-1.27815e-06
-8.35981e-07
-1.1852e-06
-1.10374e-06
-1.33327e-06
-1.7638e-06
-1.29644e-06
-1.97077e-07
-8.49231e-07
-3.72339e-07
-1.1298e-06
-5.92591e-07
-1.0579e-06
-8.61963e-07
-9.15823e-07
-1.13306e-06
-1.06218e-06
-1.57571e-06
-1.32114e-06
-1.93689e-07
-6.55542e-07
-3.78438e-07
-9.45053e-07
-5.98355e-07
-8.37985e-07
-8.60747e-07
-6.53431e-07
-1.13133e-06
-7.9159e-07
-1.38507e-06
-1.32198e-06
-1.81859e-07
-4.73683e-07
-3.7328e-07
-7.53633e-07
-5.86444e-07
-6.24821e-07
-8.30274e-07
-4.09601e-07
-1.09301e-06
-5.28854e-07
-1.17881e-06
-1.29927e-06
-1.65814e-07
-3.07869e-07
-3.60042e-07
-5.59405e-07
-5.57798e-07
-4.27065e-07
-7.67742e-07
-1.99657e-07
-1.00819e-06
-2.88406e-07
-9.40038e-07
-1.24696e-06
-1.45893e-07
-1.61976e-07
-3.39304e-07
-3.65994e-07
-5.12904e-07
-2.53466e-07
-6.68337e-07
-4.42239e-08
-8.59991e-07
-9.6752e-08
-6.51932e-07
-1.1481e-06
-1.1574e-07
-4.62353e-08
-3.07048e-07
-1.74686e-07
-4.48266e-07
-1.12248e-07
-5.23641e-07
3.11511e-08
-6.26082e-07
5.68932e-09
-3.1259e-07
-9.65423e-07
-4.62353e-08
-2.20922e-07
-3.3317e-07
-3.02019e-07
-2.9633e-07
-6.0892e-07
3.7474e-06
5.47927e-07
6.4655e-06
4.17124e-06
9.81455e-06
7.44805e-06
1.33752e-05
9.92468e-06
1.69852e-05
1.1674e-05
2.05434e-05
1.28324e-05
2.39799e-05
1.35274e-05
2.72556e-05
1.38585e-05
3.0354e-05
1.39055e-05
3.32769e-05
1.37305e-05
3.60394e-05
1.33826e-05
3.86643e-05
1.29046e-05
4.117e-05
1.23372e-05
4.35771e-05
1.17061e-05
4.59147e-05
1.10321e-05
4.82028e-05
1.03401e-05
5.04437e-05
9.64966e-06
5.26341e-05
8.9645e-06
5.47644e-05
8.28582e-06
5.68186e-05
7.60929e-06
5.87767e-05
6.92658e-06
6.06108e-05
6.2223e-06
6.22883e-05
5.43005e-06
4.4459e-06
3.88924e-06
-6.70979e-07
6.2084e-06
1.85208e-06
9.25939e-06
4.39707e-06
1.26712e-05
6.51282e-06
1.62418e-05
8.10338e-06
1.98628e-05
9.21141e-06
2.34589e-05
9.93128e-06
2.69724e-05
1.03449e-05
3.03667e-05
1.05113e-05
3.36208e-05
1.04764e-05
3.67244e-05
1.0279e-05
3.96822e-05
9.94677e-06
4.25125e-05
9.507e-06
4.52352e-05
8.98327e-06
4.78696e-05
8.39769e-06
5.04342e-05
7.77552e-06
5.29493e-05
7.13455e-06
5.54242e-05
6.48966e-06
5.7853e-05
5.85705e-06
6.02241e-05
5.23815e-06
6.25209e-05
4.62979e-06
6.47278e-05
4.01543e-06
6.6766e-05
3.39178e-06
2.69896e-06
3.51531e-06
-1.76591e-06
5.4684e-06
-1.01019e-07
8.11433e-06
1.75114e-06
1.12168e-05
3.41036e-06
1.45883e-05
4.73186e-06
1.81022e-05
5.69753e-06
2.16863e-05
6.34721e-06
2.5288e-05
6.74314e-06
2.88695e-05
6.92979e-06
3.23977e-05
6.94817e-06
3.58376e-05
6.83905e-06
3.91672e-05
6.61718e-06
4.23875e-05
6.28671e-06
4.55089e-05
5.86191e-06
4.85411e-05
5.36543e-06
5.14956e-05
4.8211e-06
5.43799e-05
4.25024e-06
5.72009e-05
3.66861e-06
5.99697e-05
3.0883e-06
6.26951e-05
2.51267e-06
6.53739e-05
1.95107e-06
6.80015e-05
1.38776e-06
7.05116e-05
8.81685e-07
4.10476e-07
2.97423e-06
-2.65039e-06
4.48294e-06
-1.60973e-06
6.58747e-06
-3.5338e-07
9.15402e-06
8.43813e-07
1.20451e-05
1.8408e-06
1.51463e-05
2.59628e-06
1.83799e-05
3.11364e-06
2.16998e-05
3.42324e-06
2.50796e-05
3.54998e-06
2.85036e-05
3.52421e-06
3.19666e-05
3.376e-06
3.54571e-05
3.12673e-06
3.89489e-05
2.79489e-06
4.24165e-05
2.39435e-06
4.58456e-05
1.93632e-06
4.92345e-05
1.43218e-06
5.25872e-05
8.97568e-07
5.59047e-05
3.51104e-07
5.91826e-05
-1.89616e-07
6.24109e-05
-7.1567e-07
6.55827e-05
-1.22069e-06
6.86914e-05
-1.72094e-06
7.17792e-05
-2.20618e-06
-2.589e-06
2.39695e-06
-3.32653e-06
3.49504e-06
-2.70782e-06
5.0428e-06
-1.90114e-06
6.97887e-06
-1.09226e-06
9.21262e-06
-3.92946e-07
1.16604e-05
1.48511e-07
1.42549e-05
5.19101e-07
1.69564e-05
7.21735e-07
1.97426e-05
7.63822e-07
2.2601e-05
6.65796e-07
2.55303e-05
4.46727e-07
2.85358e-05
1.21233e-07
3.16249e-05
-2.94259e-07
3.48036e-05
-7.84327e-07
3.80724e-05
-1.33248e-06
4.1425e-05
-1.92044e-06
4.48541e-05
-2.53152e-06
4.83531e-05
-3.14788e-06
5.19131e-05
-3.74962e-06
5.55171e-05
-4.31971e-06
5.9149e-05
-4.85258e-06
6.27681e-05
-5.34e-06
6.63967e-05
-5.83477e-06
-6.2749e-06
1.81825e-06
-3.8109e-06
2.57977e-06
-3.46934e-06
3.6523e-06
-2.97368e-06
5.01007e-06
-2.45002e-06
6.59879e-06
-1.98167e-06
8.36183e-06
-1.61453e-06
1.0252e-05
-1.37108e-06
1.22382e-05
-1.26442e-06
1.43016e-05
-1.29961e-06
1.64359e-05
-1.46849e-06
1.86449e-05
-1.76228e-06
2.09386e-05
-2.17247e-06
2.3331e-05
-2.6867e-06
2.58361e-05
-3.2894e-06
2.84649e-05
-3.96126e-06
3.12261e-05
-4.68168e-06
3.4127e-05
-5.43243e-06
3.71721e-05
-6.19293e-06
4.036e-05
-6.93749e-06
4.36837e-05
-7.64343e-06
4.71308e-05
-8.29967e-06
5.06868e-05
-8.896e-06
5.43146e-05
-9.46259e-06
-1.00321e-05
1.2546e-06
-4.12214e-06
1.74434e-06
-3.95908e-06
2.43745e-06
-3.66678e-06
3.32152e-06
-3.3341e-06
4.36444e-06
-3.02459e-06
5.5302e-06
-2.78029e-06
6.78872e-06
-2.62959e-06
8.11848e-06
-2.59418e-06
9.50639e-06
-2.68751e-06
1.09508e-05
-2.91287e-06
1.24584e-05
-3.26991e-06
1.40411e-05
-3.75514e-06
1.57143e-05
-4.35995e-06
1.74953e-05
-5.07043e-06
1.94018e-05
-5.86773e-06
2.14513e-05
-6.73119e-06
2.36597e-05
-7.64077e-06
2.60388e-05
-8.57209e-06
2.85966e-05
-9.49523e-06
3.13402e-05
-1.03871e-05
3.42765e-05
-1.1236e-05
3.74122e-05
-1.20317e-05
4.07269e-05
-1.27773e-05
-1.34943e-05
7.21606e-07
-4.28163e-06
9.92732e-07
-4.23021e-06
1.39002e-06
-4.06407e-06
1.90495e-06
-3.84902e-06
2.51724e-06
-3.63688e-06
3.20412e-06
-3.46716e-06
3.9464e-06
-3.37188e-06
4.72989e-06
-3.37767e-06
5.5467e-06
-3.50432e-06
6.39761e-06
-3.76378e-06
7.29032e-06
-4.16262e-06
8.23737e-06
-4.70218e-06
9.25568e-06
-5.37827e-06
1.03658e-05
-6.18051e-06
1.15909e-05
-7.09286e-06
1.29562e-05
-8.09645e-06
1.44859e-05
-9.17051e-06
1.62025e-05
-1.02887e-05
1.81275e-05
-1.14202e-05
2.0282e-05
-1.25417e-05
2.26866e-05
-1.36405e-05
2.53615e-05
-1.47066e-05
2.83032e-05
-1.5719e-05
-1.66127e-05
2.34227e-07
-4.31421e-06
3.35017e-07
-4.331e-06
5.10219e-07
-4.23928e-06
7.51651e-07
-4.09046e-06
1.04502e-06
-3.93025e-06
1.37505e-06
-3.79719e-06
1.72902e-06
-3.72585e-06
2.09748e-06
-3.74613e-06
2.47602e-06
-3.88286e-06
2.86689e-06
-4.15465e-06
3.27849e-06
-4.57422e-06
3.72386e-06
-5.14755e-06
4.22077e-06
-5.87518e-06
4.79283e-06
-6.75257e-06
5.46972e-06
-7.76974e-06
6.28489e-06
-8.91163e-06
7.27258e-06
-1.01582e-05
8.46588e-06
-1.1482e-05
9.89303e-06
-1.28473e-05
1.15707e-05
-1.42193e-05
1.35035e-05
-1.55734e-05
1.56887e-05
-1.68918e-05
1.81102e-05
-1.81404e-05
-1.92112e-05
-1.94677e-07
-4.24797e-06
-2.16774e-07
-4.3089e-06
-1.9447e-07
-4.26158e-06
-1.36675e-07
-4.14825e-06
-5.44732e-08
-4.01245e-06
4.13224e-08
-3.89298e-06
1.41405e-07
-3.82593e-06
2.3984e-07
-3.84457e-06
3.35799e-07
-3.97882e-06
4.33555e-07
-4.2524e-06
5.44055e-07
-4.68472e-06
6.84229e-07
-5.28773e-06
8.80952e-07
-6.0719e-06
1.16784e-06
-7.03946e-06
1.58067e-06
-8.18257e-06
2.15892e-06
-9.48988e-06
2.93996e-06
-1.09392e-05
3.95975e-06
-1.25018e-05
5.25076e-06
-1.41383e-05
6.83228e-06
-1.58008e-05
8.69538e-06
-1.74365e-05
1.07817e-05
-1.89782e-05
1.29962e-05
-2.03549e-05
-2.14743e-05
-5.55545e-07
-4.11327e-06
-6.52833e-07
-4.21161e-06
-7.16095e-07
-4.19832e-06
-7.55171e-07
-4.10917e-06
-7.78828e-07
-3.9888e-06
-7.93363e-07
-3.87845e-06
-8.01854e-07
-3.81744e-06
-8.04468e-07
-3.84195e-06
-7.97574e-07
-3.98572e-06
-7.73362e-07
-4.27661e-06
-7.17417e-07
-4.74067e-06
-6.09742e-07
-5.3954e-06
-4.25601e-07
-6.25604e-06
-1.36829e-07
-7.32824e-06
2.89853e-07
-8.60925e-06
8.89789e-07
-1.00898e-05
1.70206e-06
-1.17515e-05
2.76566e-06
-1.35654e-05
4.12667e-06
-1.54993e-05
5.84504e-06
-1.75192e-05
7.95784e-06
-1.95493e-05
1.04638e-05
-2.14842e-05
1.3299e-05
-2.31901e-05
-2.4511e-05
-8.42709e-07
-3.94154e-06
-9.67886e-07
-4.08643e-06
-1.05129e-06
-4.11491e-06
-1.0999e-06
-4.06057e-06
-1.11822e-06
-3.97047e-06
-1.1106e-06
-3.88607e-06
-1.07975e-06
-3.84829e-06
-1.02489e-06
-3.89681e-06
-9.41622e-07
-4.06899e-06
-8.19469e-07
-4.39877e-06
-6.44546e-07
-4.91559e-06
-3.97406e-07
-5.64254e-06
-5.40537e-08
-6.59939e-06
4.18551e-07
-7.80084e-06
1.06669e-06
-9.25739e-06
1.94173e-06
-1.09649e-05
3.10246e-06
-1.29122e-05
4.61243e-06
-1.50754e-05
6.53339e-06
-1.74203e-05
8.89353e-06
-1.98793e-05
1.17441e-05
-2.23999e-05
1.51377e-05
-2.48777e-05
1.90953e-05
-2.71477e-05
-2.88041e-05
-1.05464e-06
-3.76377e-06
-1.16138e-06
-3.97969e-06
-1.20104e-06
-4.07525e-06
-1.1808e-06
-4.08081e-06
-1.10651e-06
-4.04476e-06
-9.78065e-07
-4.01452e-06
-7.91662e-07
-4.0347e-06
-5.39638e-07
-4.14884e-06
-2.12964e-07
-4.39566e-06
2.01336e-07
-4.81307e-06
7.20937e-07
-5.43519e-06
1.3702e-06
-6.29181e-06
2.17968e-06
-7.40888e-06
3.1855e-06
-8.80666e-06
4.42591e-06
-1.04978e-05
5.94384e-06
-1.24828e-05
7.78061e-06
-1.4749e-05
9.97144e-06
-1.72662e-05
1.25403e-05
-1.99892e-05
1.55241e-05
-2.2863e-05
1.8937e-05
-2.58128e-05
2.2812e-05
-2.87527e-05
2.71967e-05
-3.15325e-05
-3.36176e-05
-1.19392e-06
-3.60889e-06
-1.24126e-06
-3.93234e-06
-1.18667e-06
-4.12985e-06
-1.03468e-06
-4.2328e-06
-7.83815e-07
-4.29563e-06
-4.28954e-07
-4.36938e-06
3.8768e-08
-4.50242e-06
6.30681e-07
-4.74075e-06
1.36239e-06
-5.12737e-06
2.25256e-06
-5.70324e-06
3.32361e-06
-6.50624e-06
4.60197e-06
-7.57016e-06
6.11648e-06
-8.92339e-06
7.89576e-06
-1.05859e-05
9.96459e-06
-1.25666e-05
1.23433e-05
-1.48615e-05
1.5034e-05
-1.74396e-05
1.80356e-05
-2.02679e-05
2.13351e-05
-2.32886e-05
2.49053e-05
-2.64333e-05
2.87093e-05
-2.96167e-05
3.27071e-05
-3.27506e-05
3.68828e-05
-3.57081e-05
-3.80919e-05
-1.26591e-06
-3.50298e-06
-1.21772e-06
-3.98054e-06
-1.02079e-06
-4.32678e-06
-6.7696e-07
-4.57662e-06
-1.79328e-07
-4.79326e-06
4.8344e-07
-5.03214e-06
1.32597e-06