/*--------------------------------*- C++ -*----------------------------------*\
  =========                 |
  \\      /  F ield         | OpenFOAM: The Open Source CFD Toolbox
   \\    /   O peration     | Website:  https://openfoam.org
    \\  /    A nd           | Version:  11
     \\/     M anipulation  |
\*---------------------------------------------------------------------------*/
FoamFile
{
    format      ascii;
    class       volVectorField;
    location    "1.14";
    object      U;
}
// * * * * * * * * * * * * * * * * * * * * * * * * * * * * * * * * * * * * * //

dimensions      [0 1 -1 0 0 0 0];

internalField   nonuniform List<vector> 
2880
(
(-0.103487 -0.149563 0)
(-0.2013 -0.290909 0)
(-0.256465 -0.409488 1.30885e-19)
(-0.233744 -0.39857 -1.07973e-19)
(-0.245208 -0.490528 2.01942e-19)
(0.0936269 -0.235467 -8.96178e-19)
(-0.184293 -0.189278 -1.5169e-18)
(-0.261592 -0.326144 7.67562e-20)
(-0.281236 -0.437955 6.73204e-20)
(-0.243206 -0.429983 -1.06596e-18)
(-0.177259 -0.462171 1.00155e-18)
(0.154777 -0.24386 -2.3058e-20)
(-0.234935 -0.179799 -1.90375e-20)
(-0.28535 -0.309853 1.15143e-18)
(-0.271285 -0.413163 0)
(-0.207371 -0.404395 -9.68855e-21)
(-0.0841281 -0.426092 -1.5809e-18)
(0.270723 -0.254987 1.80487e-20)
(-0.280348 -0.157095 1.46458e-18)
(-0.296168 -0.280584 -1.11365e-18)
(-0.25496 -0.375809 0)
(-0.157307 -0.364728 8.12694e-19)
(0.0107437 -0.382152 1.37235e-18)
(0.390049 -0.246124 0)
(-0.319124 -0.132715 0)
(-0.301413 -0.246645 7.14361e-20)
(-0.233442 -0.331058 3.65384e-21)
(-0.105767 -0.318975 7.58891e-19)
(0.100986 -0.330764 -6.75003e-19)
(0.495212 -0.22401 0)
(-0.351508 -0.111471 -7.69871e-19)
(-0.304565 -0.21076 6.94207e-20)
(-0.210156 -0.28238 -5.45588e-20)
(-0.0574075 -0.270319 -7.87612e-19)
(0.183327 -0.274011 0)
(0.583091 -0.192956 -1.36603e-19)
(-0.38043 -0.0876519 7.33077e-19)
(-0.305982 -0.178195 0)
(-0.188746 -0.233131 0)
(-0.0134997 -0.220053 9.69234e-20)
(0.253662 -0.215941 -1.67787e-19)
(0.654352 -0.154851 3.67499e-19)
(-0.404936 -0.0687944 0)
(-0.306813 -0.146191 0)
(-0.170093 -0.184864 3.78818e-19)
(0.0243894 -0.169168 4.69929e-20)
(0.310849 -0.158439 -8.2437e-20)
(0.708495 -0.111589 -2.18382e-19)
(-0.425028 -0.0540414 -3.81121e-19)
(-0.30727 -0.114605 -2.49906e-19)
(-0.154761 -0.138192 -6.35727e-19)
(0.0552014 -0.118613 0)
(0.354577 -0.102341 -4.05514e-20)
(0.745452 -0.0649352 3.61963e-20)
(-0.440122 -0.0425137 3.83816e-19)
(-0.307735 -0.0835982 2.35175e-19)
(-0.143196 -0.0934437 2.14052e-19)
(0.078273 -0.0692291 0)
(0.3849 -0.0481361 0)
(0.76603 -0.0166561 1.63162e-20)
(-0.449845 -0.0333015 9.59036e-20)
(-0.308607 -0.053363 -9.25691e-22)
(-0.135707 -0.0508275 3.85785e-22)
(0.0932732 -0.0216599 0)
(0.402057 0.00376763 0)
(0.771829 0.0316064 -9.93552e-22)
(-0.453903 -0.0254834 -9.53441e-20)
(-0.310204 -0.0240664 0)
(-0.132453 -0.0104406 -1.2556e-20)
(0.100222 0.0237471 1.0963e-20)
(0.40661 0.0528115 0)
(0.763857 0.0784588 -1.44751e-19)
(-0.452109 -0.0180971 -7.75827e-19)
(-0.31274 0.00413978 4.65441e-19)
(-0.133447 0.0277362 0)
(0.0993593 0.066705 0)
(0.399608 0.0986578 2.94945e-19)
(0.743008 0.122789 3.77166e-19)
(-0.445321 -0.0103301 9.39735e-21)
(-0.315857 0.0312408 -5.77039e-21)
(-0.138595 0.063869 4.77912e-20)
(0.091026 0.107007 -3.72516e-19)
(0.382077 0.140973 -2.92877e-19)
(0.710593 0.16386 -2.47144e-19)
(-0.433471 -0.00137811 7.53831e-19)
(-0.319618 0.0574028 -4.70769e-19)
(-0.147822 0.0981715 2.28208e-20)
(0.0755869 0.144534 6.48609e-19)
(0.354931 0.179473 6.65753e-20)
(0.667644 0.201204 1.1135e-19)
(-0.416941 0.00945327 1.43738e-18)
(-0.323925 0.082858 0)
(-0.161008 0.130922 0)
(0.0534468 0.179279 2.23605e-19)
(0.319041 0.213996 5.24601e-19)
(0.615119 0.234492 -2.68439e-19)
(-0.396166 0.022686 -1.44068e-18)
(-0.328551 0.107872 5.49698e-20)
(-0.178013 0.16247 -4.41632e-20)
(0.0249997 0.211333 -1.91489e-20)
(0.275229 0.244458 -5.16831e-19)
(0.553968 0.263333 -9.56884e-20)
(-0.37162 0.0386296 0)
(-0.33312 0.132706 5.49989e-20)
(-0.198673 0.193244 -4.37211e-20)
(-0.00940129 0.240887 -5.99313e-19)
(0.224236 0.270869 -1.14389e-19)
(0.485206 0.287306 1.93057e-19)
(-0.34364 0.0574415 1.32704e-18)
(-0.337053 0.157574 2.66932e-20)
(-0.222764 0.223762 8.68087e-20)
(-0.0494723 0.268275 -6.37262e-19)
(0.16662 0.293459 0)
(0.409642 0.306174 -3.55953e-19)
(-0.312226 0.079307 -1.37648e-18)
(-0.339568 0.182483 0)
(-0.249916 0.254619 6.12948e-19)
(-0.0950422 0.293971 7.13228e-19)
(0.102514 0.312608 -5.83844e-20)
(0.328174 0.319424 3.56979e-19)
(-0.276799 0.101777 -1.38618e-18)
(-0.340087 0.2082 8.71829e-20)
(-0.279598 0.286269 -1.48924e-18)
(-0.146153 0.318448 6.62961e-20)
(0.0314274 0.328532 3.60586e-19)
(0.241664 0.325829 0)
(-0.235431 0.119729 -5.74773e-20)
(-0.339302 0.235972 1.11391e-18)
(-0.311213 0.318297 7.10344e-19)
(-0.203039 0.341999 0)
(-0.0475649 0.341677 -4.34079e-19)
(0.151897 0.323772 2.95638e-19)
(-0.185665 0.127286 2.80193e-18)
(-0.334154 0.267228 -2.09003e-18)
(-0.344288 0.345281 -7.67568e-19)
(-0.2635 0.365143 -5.64716e-19)
(-0.133118 0.353699 0)
(0.0630958 0.311882 -6.58372e-19)
(-0.094899 0.106194 -1.48125e-18)
(-0.277849 0.282124 1.19295e-18)
(-0.345163 0.384275 -4.05994e-20)
(-0.295226 0.398741 4.79061e-19)
(-0.203541 0.372238 1.15695e-19)
(-0.025332 0.290024 5.77756e-19)
(0.745999 -1.0028 0)
(1.04874 -0.817603 0)
(1.11387 -0.714223 0)
(1.14362 -0.589972 6.46833e-20)
(1.14514 -0.492868 8.85999e-20)
(1.13929 -0.415821 7.67186e-20)
(1.13331 -0.357057 5.97153e-20)
(1.12895 -0.311968 1.20993e-19)
(1.12564 -0.276289 -1.10588e-19)
(1.12253 -0.246908 9.63593e-20)
(1.11902 -0.221747 -1.79504e-19)
(1.11484 -0.199536 8.42518e-20)
(1.1099 -0.179489 7.62909e-20)
(1.10414 -0.161065 -1.51669e-19)
(1.09756 -0.143866 6.97919e-20)
(1.09011 -0.127593 -2.12212e-19)
(1.08179 -0.112024 1.35024e-19)
(1.07259 -0.0970131 -4.75002e-21)
(1.06253 -0.0824552 -6.59433e-20)
(1.05173 -0.0681966 3.07292e-19)
(1.04034 -0.054065 -4.84035e-19)
(1.02781 -0.0407707 4.79256e-19)
(1.0119 -0.0313578 3.31121e-21)
(0.994984 -0.0262378 -4.47222e-20)
(0.923735 -0.840825 -8.60852e-20)
(1.18903 -0.771168 1.15852e-20)
(1.21668 -0.686959 -3.46043e-20)
(1.22256 -0.573084 -4.57446e-20)
(1.20758 -0.481759 -2.5342e-20)
(1.18972 -0.407672 -1.00367e-19)
(1.17495 -0.350508 -4.24292e-20)
(1.16414 -0.306449 -1.86581e-19)
(1.15598 -0.271578 1.81596e-19)
(1.1491 -0.242922 -8.46529e-20)
(1.14256 -0.218454 0)
(1.13584 -0.196904 0)
(1.12871 -0.177483 -1.45729e-19)
(1.12101 -0.159649 2.77534e-19)
(1.11267 -0.143006 7.04441e-22)
(1.1036 -0.127258 -1.28293e-19)
(1.09374 -0.112187 -6.47831e-20)
(1.08307 -0.0976421 5.82222e-20)
(1.07156 -0.0835112 -1.17707e-19)
(1.0593 -0.0696217 -5.95284e-20)
(1.04642 -0.0557689 0)
(1.03238 -0.0426974 0)
(1.01495 -0.0337876 0)
(0.996354 -0.0295992 0)
(1.02101 -0.691129 1.85798e-19)
(1.29179 -0.703155 -8.10704e-20)
(1.30556 -0.63977 1.05425e-19)
(1.29456 -0.542955 2.40048e-20)
(1.26601 -0.460808 5.34949e-20)
(1.23759 -0.392139 4.1268e-20)
(1.21479 -0.338273 5.40433e-20)
(1.19793 -0.296372 6.00182e-21)
(1.18518 -0.263081 7.58756e-20)
(1.17472 -0.235709 0)
(1.1653 -0.212359 0)
(1.15618 -0.191819 0)
(1.14698 -0.173321 0)
(1.13747 -0.156338 0)
(1.12748 -0.140488 0)
(1.1169 -0.125486 0)
(1.10562 -0.111119 -1.14521e-19)
(1.09357 -0.097239 1.10864e-19)
(1.08072 -0.0837308 0)
(1.0671 -0.0704078 0)
(1.0528 -0.0570372 1.03783e-19)
(1.03731 -0.0443843 -3.10895e-19)
(1.01848 -0.0361155 2.03787e-19)
(0.998203 -0.0329816 -1.47174e-19)
(1.09841 -0.569758 5.36321e-19)
(1.36693 -0.625446 -1.9156e-19)
(1.37823 -0.581612 -1.23458e-19)
(1.35703 -0.503099 -3.48216e-20)
(1.31849 -0.432012 4.42136e-20)
(1.28149 -0.37034 0)
(1.25179 -0.32104 0)
(1.22956 -0.282208 9.1432e-20)
(1.21264 -0.251152 3.63468e-20)
(1.1989 -0.225543 -6.20969e-20)
(1.18683 -0.203683 0)
(1.17552 -0.184455 0)
(1.16443 -0.167137 5.51304e-20)
(1.15327 -0.151233 -5.36544e-20)
(1.14178 -0.136385 0)
(1.12983 -0.122323 -1.07559e-19)
(1.11726 -0.108846 2.08208e-19)
(1.10397 -0.0958129 7.68739e-22)
(1.0899 -0.0831072 -9.90406e-20)
(1.07505 -0.0705345 9.7024e-20)
(1.05944 -0.0578389 -1.40272e-19)
(1.0426 -0.045791 4.52237e-20)
(1.02249 -0.0382845 0)
(1.00056 -0.036334 0)
(1.16253 -0.468466 -5.89608e-19)
(1.42182 -0.54396 5.13918e-19)
(1.43612 -0.517526 -1.62016e-19)
(1.40922 -0.456527 5.84984e-20)
(1.36407 -0.397296 0)
(1.32054 -0.343575 -1.86314e-20)
(1.28524 -0.299671 5.83101e-20)
(1.25844 -0.264571 -7.98774e-20)
(1.23788 -0.236251 0)
(1.22125 -0.212786 0)
(1.20683 -0.192714 -2.46883e-20)
(1.19357 -0.17504 2.45786e-20)
(1.18082 -0.159111 -7.95478e-20)
(1.16819 -0.144473 2.41231e-21)
(1.15539 -0.130798 4.88383e-20)
(1.14222 -0.11784 0)
(1.12852 -0.105413 -2.25043e-20)
(1.11416 -0.0933841 -1.15064e-19)
(1.09902 -0.0816416 9.02526e-20)
(1.08307 -0.0699871 -8.87875e-20)
(1.0663 -0.0581463 2.37635e-20)
(1.04824 -0.0468778 4.06751e-20)
(1.02698 -0.0402352 6.77954e-20)
(1.00345 -0.0396058 -8.59565e-20)
(1.20943 -0.379365 9.05422e-20)
(1.46037 -0.4613 -2.00938e-19)
(1.48044 -0.450421 1.1402e-19)
(1.45127 -0.405755 -1.41334e-20)
(1.40238 -0.358342 1.2868e-20)
(1.3543 -0.313074 0)
(1.31469 -0.275061 -1.70908e-20)
(1.28419 -0.24413 0)
(1.26059 -0.218896 0)
(1.24149 -0.197851 2.3255e-20)
(1.22506 -0.179782 3.30593e-21)
(1.21012 -0.163841 -2.46913e-20)
(1.19595 -0.149454 -2.20841e-20)
(1.18206 -0.136219 4.38616e-20)
(1.16815 -0.123847 0)
(1.15395 -0.112118 0)
(1.13929 -0.100867 2.24802e-20)
(1.12401 -0.089974 -6.24381e-20)
(1.10797 -0.0793334 -8.33283e-22)
(1.0911 -0.0687484 1.6166e-19)
(1.07333 -0.0579302 -5.84633e-20)
(1.05419 -0.0476031 -8.18723e-20)
(1.03195 -0.0419034 1.01783e-19)
(1.00688 -0.0427464 -5.22656e-20)
(1.23826 -0.297524 3.21723e-19)
(1.48442 -0.380072 0)
(1.51212 -0.382267 1.10638e-19)
(1.48354 -0.352681 -2.04596e-20)
(1.43336 -0.316613 1.07401e-20)
(1.38259 -0.279943 7.19038e-21)
(1.33995 -0.248066 -1.19188e-21)
(1.3066 -0.221554 8.26909e-21)
(1.28056 -0.199622 -1.25933e-20)
(1.25944 -0.18117 0)
(1.24135 -0.165243 -1.97346e-20)
(1.22503 -0.151145 3.6066e-20)
(1.20968 -0.138393 1.81685e-20)
(1.19477 -0.126645 5.8707e-20)
(1.17994 -0.115654 -3.82867e-20)
(1.1649 -0.105235 1.83498e-20)
(1.14946 -0.0952471 5.7087e-20)
(1.13343 -0.0855861 1.88214e-20)
(1.11666 -0.0761594 5.24679e-22)
(1.09903 -0.0667782 -3.66359e-20)
(1.08043 -0.0571429 -1.73283e-20)
(1.06041 -0.0479129 0)
(1.03737 -0.0432047 -5.80402e-20)
(1.01087 -0.0456975 4.58914e-20)
(1.25192 -0.221259 -3.2082e-19)
(1.49549 -0.301697 1.00281e-19)
(1.53224 -0.314911 -1.34894e-19)
(1.50656 -0.298839 2.13068e-20)
(1.45717 -0.273387 0)
(1.40541 -0.245167 0)
(1.36095 -0.219476 1.19883e-21)
(1.3256 -0.197483 -8.32553e-21)
(1.29771 -0.178957 5.32888e-22)
(1.27502 -0.163183 1.11707e-20)
(1.25563 -0.14946 0)
(1.23823 -0.13725 -4.20908e-20)
(1.22196 -0.126164 1.5137e-20)
(1.20626 -0.115928 -3.48999e-20)
(1.19071 -0.10634 0)
(1.17502 -0.0972548 -1.83688e-20)
(1.15896 -0.0885601 -1.82188e-20)
(1.14233 -0.0801769 -2.61773e-20)
(1.12498 -0.0720331 -8.10084e-21)
(1.10676 -0.0639627 4.1699e-20)
(1.08751 -0.0556678 -7.69284e-21)
(1.06682 -0.0476968 0)
(1.04319 -0.0439764 -2.67504e-20)
(1.01537 -0.0483517 -1.8006e-20)
(1.2522 -0.149643 0)
(1.49551 -0.2272 -1.00543e-19)
(1.54157 -0.249629 0)
(1.52092 -0.245291 1.50693e-20)
(1.47412 -0.229737 -1.3724e-20)
(1.42291 -0.209627 0)
(1.37774 -0.190015 0)
(1.34119 -0.172519 1.42542e-21)
(1.31205 -0.157407 2.5251e-21)
(1.28823 -0.144321 -3.52111e-21)
(1.2679 -0.132798 0)
(1.24971 -0.122458 7.33226e-21)
(1.23279 -0.113011 -1.48718e-20)
(1.21651 -0.104248 1.39944e-20)
(1.20045 -0.0960212 2.2629e-20)
(1.18429 -0.0882216 -1.48472e-20)
(1.16777 -0.0807732 0)
(1.1507 -0.0736278 1.54752e-20)
(1.13288 -0.0667476 7.22519e-22)
(1.11416 -0.0600182 -8.00655e-21)
(1.09438 -0.0531851 -7.90476e-21)
(1.07316 -0.0466338 0)
(1.04923 -0.0437469 3.34319e-20)
(1.02026 -0.0503099 -4.01844e-20)
(1.2409 -0.0828874 -1.09391e-20)
(1.485 -0.157109 0)
(1.54086 -0.187006 -1.37252e-20)
(1.52701 -0.192865 1.23472e-20)
(1.48467 -0.186588 0)
(1.43531 -0.17405 2.73391e-21)
(1.39048 -0.160293 -2.54997e-23)
(1.35349 -0.147212 -2.26447e-21)
(1.32366 -0.135456 0)
(1.29915 -0.124998 -1.81176e-21)
(1.27822 -0.115616 4.10229e-21)
(1.25954 -0.107078 3.42775e-21)
(1.24222 -0.0991909 -5.30834e-21)
(1.22561 -0.0918115 0)
(1.20925 -0.0848378 -7.06488e-21)
(1.19281 -0.0781996 0)
(1.17601 -0.0718523 0)
(1.15862 -0.0657765 -1.44342e-20)
(1.14046 -0.0599706 2.84426e-20)
(1.12132 -0.0543934 -1.3825e-20)
(1.10101 -0.0488975 1.41648e-20)
(1.07919 -0.0437223 -1.38935e-20)
(1.05511 -0.0411386 7.68696e-21)
(1.02679 -0.0500004 9.88908e-21)
(1.21909 -0.0208773 6.67356e-22)
(1.46399 -0.0916323 2.5572e-20)
(1.53095 -0.127756 0)
(1.52521 -0.142464 -5.64854e-22)
(1.48911 -0.144552 5.1403e-22)
(1.44284 -0.139089 0)
(1.39939 -0.130886 2.27576e-22)
(1.3627 -0.122047 -2.08524e-22)
(1.33271 -0.113527 -5.16992e-22)
(1.30791 -0.105601 6.27968e-23)
(1.28671 -0.0982661 -5.79914e-23)
(1.26784 -0.0914302 -5.38324e-22)
(1.25037 -0.0849939 -1.28707e-21)
(1.23367 -0.0788759 0)
(1.21725 -0.073017 3.69607e-22)
(1.20075 -0.0673781 -3.50869e-22)
(1.18388 -0.0619385 3.94239e-22)
(1.1664 -0.0566988 -2.25662e-21)
(1.14808 -0.0516767 3.87327e-22)
(1.12866 -0.0468567 0)
(1.10778 -0.0421428 8.27919e-22)
(1.08494 -0.0378967 -8.06967e-22)
(1.0597 -0.0364407 -1.67266e-21)
(1.03234 -0.0423489 -1.80727e-21)
(1.187 0.0364864 1.03641e-20)
(1.4333 -0.0311154 -1.44925e-20)
(1.5123 -0.0723495 -9.8675e-21)
(1.51614 -0.09488 0)
(1.4877 -0.104128 0)
(1.44576 -0.105316 3.88943e-21)
(1.40465 -0.102291 -1.57494e-20)
(1.36899 -0.0974561 2.41233e-21)
(1.33936 -0.0920142 -8.52444e-22)
(1.31468 -0.086497 -2.0966e-21)
(1.29353 -0.0810944 1.05068e-21)
(1.27473 -0.0758486 8.22507e-22)
(1.25738 -0.0707511 4.12887e-21)
(1.24083 -0.0657829 0)
(1.22459 -0.0609299 0)
(1.20828 -0.0561887 -4.69259e-21)
(1.19157 -0.0515727 4.98171e-21)
(1.17422 -0.0471198 6.67629e-21)
(1.15593 -0.0428897 -5.36742e-21)
(1.13639 -0.0389079 0)
(1.11519 -0.0351659 0)
(1.09181 -0.0323474 -1.2482e-20)
(1.06609 -0.0332815 7.69998e-21)
(1.03818 -0.0386886 -5.57473e-21)
(1.14481 0.0889155 3.23681e-20)
(1.39338 0.0241752 -2.83335e-20)
(1.48524 -0.0212932 0)
(1.50036 -0.0504723 0)
(1.48048 -0.065857 -3.03255e-20)
(1.44428 -0.0731744 8.586e-21)
(1.40649 -0.0749254 1.7966e-20)
(1.37256 -0.0738238 0)
(1.34381 -0.0712762 8.05907e-21)
(1.31962 -0.0680244 -4.85876e-21)
(1.29884 -0.0644305 -1.05375e-21)
(1.28037 -0.0606633 1.97547e-21)
(1.26337 -0.0568042 -9.30579e-21)
(1.24719 -0.0528997 5.78754e-21)
(1.23134 -0.048987 0)
(1.2154 -0.0451073 7.78053e-22)
(1.19905 -0.0413173 -4.98914e-21)
(1.18197 -0.0377 4.88341e-21)
(1.16383 -0.0343583 -4.31821e-21)
(1.14426 -0.0313553 0)
(1.12279 -0.0287404 -4.8862e-21)
(1.099 -0.0273155 5.04987e-21)
(1.07282 -0.0298541 5.96159e-21)
(1.0439 -0.0356176 1.04282e-20)
(1.0927 0.136065 0)
(1.34446 0.0739317 0)
(1.45004 0.025055 -2.88722e-20)
(1.47812 -0.00929807 1.15091e-19)
(1.46758 -0.030622 3.05514e-20)
(1.43854 -0.0430587 0)
(1.40507 -0.0491431 -4.2947e-20)
(1.37361 -0.0514801 0)
(1.34626 -0.0516227 7.13557e-21)
(1.32294 -0.0504819 -1.53991e-21)
(1.3028 -0.0485699 3.55383e-21)
(1.2849 -0.0461725 -1.10629e-21)
(1.26846 -0.0434587 0)
(1.25283 -0.0405422 0)
(1.23753 -0.0375144 1.92729e-20)
(1.22212 -0.0344637 -2.44544e-20)
(1.20624 -0.0314899 1.45936e-20)
(1.18955 -0.0287159 -7.70295e-21)
(1.17166 -0.0262783 -1.80725e-20)
(1.15217 -0.0242688 1.73493e-20)
(1.13058 -0.0227644 1.344e-20)
(1.10653 -0.022588 1.5058e-20)
(1.08005 -0.0263889 -9.62768e-21)
(1.05047 -0.0330519 -1.9523e-20)
(1.03092 0.17768 9.55362e-20)
(1.28659 0.117827 -5.20345e-20)
(1.40678 0.0663786 0)
(1.449 0.0277339 -8.93353e-20)
(1.44946 0.00156703 -6.1633e-20)
(1.42865 -0.0152776 -6.28525e-20)
(1.40051 -0.0252255 7.7818e-20)
(1.37229 -0.0306931 -2.11474e-20)
(1.34688 -0.0333111 -1.2241e-20)
(1.3248 -0.0341216 0)
(1.30559 -0.0337637 0)
(1.28848 -0.0326291 0)
(1.27277 -0.0309695 -5.41458e-21)
(1.25785 -0.0289632 1.35838e-20)
(1.24323 -0.0267542 -2.4388e-20)
(1.22847 -0.0244744 1.02314e-20)
(1.2132 -0.0222605 5.87151e-21)
(1.19702 -0.020266 2.26616e-20)
(1.17953 -0.018655 -2.29737e-20)
(1.16029 -0.017538 2.22732e-20)
(1.1388 -0.0170169 2.49471e-20)
(1.11473 -0.0179333 -7.62529e-20)
(1.08816 -0.0228612 2.50503e-20)
(1.05816 -0.0307093 7.98763e-21)
(0.959987 0.213571 1.3576e-20)
(1.21986 0.155543 2.16927e-19)
(1.35539 0.102354 0)
(1.41303 0.0603833 0)
(1.42593 0.030363 1.28595e-21)
(1.41457 0.00984007 4.78742e-21)
(1.39284 -0.00344224 5.14635e-21)
(1.36868 -0.011694 4.3727e-20)
(1.34579 -0.0165537 0)
(1.32537 -0.0191477 -7.62783e-21)
(1.30736 -0.020215 1.05721e-21)
(1.29124 -0.0202371 0)
(1.27643 -0.0195397 0)
(1.26236 -0.0183602 0)
(1.24855 -0.0168891 -2.77983e-21)
(1.23457 -0.0152953 0)
(1.22003 -0.0137444 5.57926e-21)
(1.20452 -0.0124159 1.43087e-20)
(1.18762 -0.0114947 1.76082e-21)
(1.16885 -0.0111081 -3.30117e-20)
(1.14772 -0.0114038 2.95962e-20)
(1.12386 -0.0132422 -2.05489e-20)
(1.0974 -0.0191878 0)
(1.06718 -0.0283563 -7.28223e-22)
(0.880253 0.243318 -3.81937e-19)
(1.14425 0.186682 -2.40199e-19)
(1.29569 0.132587 6.51461e-20)
(1.36999 0.0883334 -3.70932e-20)
(1.39677 0.0554561 2.66193e-19)
(1.39613 0.0320187 -4.9571e-20)
(1.38197 0.0159747 2.84711e-20)
(1.36279 0.00532568 -4.89178e-20)
(1.34308 -0.00151727 -1.39677e-20)
(1.32475 -0.00571615 1.29439e-20)
(1.30824 -0.00807691 1.67469e-20)
(1.29333 -0.00915069 -1.47495e-20)
(1.27957 -0.0093242 4.50994e-21)
(1.26648 -0.00888451 3.06445e-22)
(1.25362 -0.00806102 5.26028e-21)
(1.24055 -0.00705192 1.59501e-22)
(1.22689 -0.00604544 7.24635e-21)
(1.21222 -0.00524438 0)
(1.19611 -0.00484552 -1.56949e-20)
(1.17806 -0.00500931 2.43556e-20)
(1.15754 -0.00593088 -3.47605e-20)
(1.13415 -0.00849693 1.2526e-20)
(1.10802 -0.0153256 0)
(1.07778 -0.025856 1.12891e-21)
(0.792347 0.266401 3.8381e-19)
(1.0597 0.210756 0)
(1.22728 0.156742 0)
(1.31941 0.111342 3.53644e-20)
(1.36151 0.0766179 1.46559e-20)
(1.37298 0.0510563 -1.32733e-19)
(1.36764 0.032852 0)
(1.35446 0.0202251 -2.10638e-20)
(1.3387 0.0116806 8.43162e-20)
(1.32299 0.00606704 -2.79203e-20)
(1.30832 0.00254695 0)
(1.29484 0.000524082 0)
(1.2823 -0.000432716 -5.69903e-21)
(1.27034 -0.000648381 -1.00167e-21)
(1.25855 -0.000381966 3.91294e-21)
(1.24654 0.00014684 -1.66329e-20)
(1.23392 0.000731199 8.41805e-21)
(1.22028 0.0011534 -1.02799e-20)
(1.20518 0.0012025 3.41631e-20)
(1.1881 0.000679028 0)
(1.16847 -0.000651499 3.43983e-20)
(1.14584 -0.0037229 -3.46374e-20)
(1.12032 -0.011247 0)
(1.09032 -0.0231053 0)
(0.697385 0.282206 0)
(0.966749 0.22697 2.62171e-19)
(1.14994 0.174331 1.88814e-19)
(1.26065 0.129137 0)
(1.31943 0.0936667 -1.12901e-19)
(1.34445 0.0668158 3.30899e-21)
(1.34931 0.0470784 2.87369e-20)
(1.34334 0.0329178 -2.66623e-20)
(1.33245 0.0229734 3.23435e-20)
(1.31999 0.016146 -5.19458e-20)
(1.30759 0.0116024 5.48781e-20)
(1.29581 0.00872776 -1.42358e-20)
(1.2847 0.0070662 5.78806e-21)
(1.27401 0.00626938 -3.77212e-21)
(1.26344 0.00605901 -3.54163e-21)
(1.25263 0.00620159 9.589e-22)
(1.24122 0.00647724 -1.7985e-21)
(1.22881 0.00666231 -6.90901e-21)
(1.21495 0.00652803 -1.45857e-20)
(1.19911 0.00584415 0)
(1.18067 0.0043382 0)
(1.15914 0.00102318 -5.64961e-20)
(1.13458 -0.00693905 9.38492e-20)
(1.10517 -0.0200122 -3.7604e-20)
(0.596818 0.288895 0)
(0.866808 0.233894 -3.17603e-19)
(1.06411 0.184418 -1.37857e-19)
(1.19316 0.141255 0)
(1.26952 0.106389 0)
(1.30949 0.0791942 1.18634e-19)
(1.32607 0.0585971 2.68214e-20)
(1.32871 0.043373 0)
(1.32382 0.0323473 -7.22758e-20)
(1.31546 0.0245161 2.73354e-20)
(1.30588 0.0190849 -1.8839e-20)
(1.29618 0.0154476 0)
(1.28673 0.0131448 0)
(1.27751 0.0118223 1.02928e-20)
(1.26831 0.0111949 -5.30147e-21)
(1.25886 0.0110229 5.41623e-21)
(1.24883 0.0110813 2.16592e-22)
(1.23786 0.0111483 -7.06201e-21)
(1.22548 0.0109819 -1.13887e-20)
(1.21117 0.0103322 -8.82672e-21)
(1.19427 0.00889427 1.43224e-20)
(1.17422 0.00563992 9.83718e-21)
(1.15105 -0.00241923 4.43568e-20)
(1.12273 -0.0165001 -4.6487e-20)
(0.493265 0.283319 0)
(0.762874 0.229374 5.05201e-20)
(0.971798 0.185424 -4.56388e-20)
(1.11729 0.146786 1.76832e-19)
(1.21098 0.114331 -1.4654e-19)
(1.2668 0.088004 7.42103e-20)
(1.29655 0.0673523 -6.11035e-20)
(1.30935 0.0515969 8.9794e-20)
(1.31189 0.0398378 -3.77067e-21)
(1.30873 0.0312254 5.16413e-22)
(1.30277 0.0250438 1.83791e-20)
(1.29567 0.0207219 -1.96939e-20)
(1.28822 0.0178179 4.76924e-21)
(1.28071 0.0159983 -6.13732e-21)
(1.27309 0.0149841 -1.28059e-20)
(1.26517 0.0145361 4.52674e-21)
(1.25672 0.0144333 -5.36642e-21)
(1.24739 0.0144648 4.33039e-21)
(1.23675 0.0143859 1.35752e-21)
(1.22428 0.0139455 3.59086e-20)
(1.20929 0.0128145 -2.363e-20)
(1.19118 0.00995776 0)
(1.16994 0.00223898 0)
(1.14338 -0.0125268 0)
(0.391119 0.259685 0)
(0.65975 0.210771 4.49069e-20)
(0.877145 0.175574 -4.04466e-20)
(1.03511 0.144428 -6.61897e-20)
(1.14402 0.116635 4.4957e-20)
(1.21534 0.0927665 -7.43897e-20)
(1.25911 0.0731334 0)
(1.28354 0.0575423 -4.02504e-21)
(1.2951 0.0454864 -3.9953e-20)
(1.29857 0.0363595 -8.27737e-20)
(1.29735 0.0295821 2.42393e-20)
(1.29363 0.024652 -8.53113e-22)
(1.28874 0.0211763 0)
(1.28331 0.0188524 1.22478e-20)
(1.27753 0.0174328 -1.79305e-20)
(1.27137 0.0166978 6.04688e-21)
(1.26468 0.0164386 2.08201e-21)
(1.25722 0.0164636 -1.96764e-21)
(1.24859 0.0165444 1.4332e-20)
(1.23829 0.0164408 -8.6157e-21)
(1.22561 0.0158276 0)
(1.20995 0.0137102 3.14456e-20)
(1.19129 0.00686479 5.20174e-21)
(1.16739 -0.00812287 -3.54652e-20)
(0.298644 0.207926 4.06287e-20)
(0.563845 0.175372 0)
(0.785226 0.153688 6.14832e-20)
(0.950283 0.133255 -5.59047e-20)
(1.07044 0.112396 -8.17188e-20)
(1.15518 0.0927532 0)
(1.21253 0.0754625 5.2378e-20)
(1.24934 0.0609691 -9.10444e-20)
(1.27132 0.049234 3.94871e-20)
(1.28304 0.0399783 2.87873e-20)
(1.28802 0.0328343 2.37077e-21)
(1.28884 0.0274251 3.56791e-20)
(1.28714 0.0234558 -1.27136e-20)
(1.28439 0.020587 -8.87841e-21)
(1.28099 0.0186521 0)
(1.27695 0.0175342 3.87091e-21)
(1.27231 0.0170439 -4.93448e-21)
(1.26696 0.0170179 3.13645e-21)
(1.26062 0.0172598 -5.70121e-21)
(1.25281 0.0175411 -3.91105e-21)
(1.24288 0.017589 2.01723e-20)
(1.23023 0.0165082 1.19845e-20)
(1.21489 0.0111312 -3.19247e-20)
(1.19484 -0.00345274 0)
(0.232243 0.116575 2.27945e-19)
(0.485812 0.124041 -4.13262e-20)
(0.700852 0.121836 -5.59989e-20)
(0.865727 0.113972 5.07454e-20)
(0.992336 0.101652 1.19832e-19)
(1.08723 0.0876373 -9.92031e-20)
(1.1564 0.073895 0)
(1.20517 0.0614896 -4.42759e-20)
(1.23822 0.0508382 6.99711e-20)
(1.25952 0.0419937 -4.80359e-21)
(1.27233 0.0348244 -4.8082e-20)
(1.27929 0.0291089 0)
(1.28228 0.0245505 2.63167e-20)
(1.28275 0.0210593 -7.02036e-21)
(1.28215 0.0185904 3.20674e-20)
(1.28087 0.0170997 -1.131e-20)
(1.27875 0.0162958 2.86686e-21)
(1.27588 0.0160976 1.93538e-21)
(1.27212 0.0163915 0)
(1.26713 0.0169924 0)
(1.26037 0.01772 0)
(1.25131 0.017874 -5.06596e-21)
(1.24005 0.0145387 6.79808e-21)
(1.22538 0.00106594 5.92454e-21)
(0.0339018 0.0236788 0)
(0.058619 0.0146705 0)
(0.105895 -0.00740405 1.91858e-20)
(0.143807 -0.0228746 -1.57461e-20)
(0.181878 -0.035446 2.89321e-20)
(0.235573 -0.0539398 -2.47629e-20)
(0.0415644 0.00793589 -2.63058e-19)
(0.0670179 -0.00309955 1.17301e-20)
(0.109102 -0.0221517 9.47899e-21)
(0.140725 -0.0339115 -1.56732e-19)
(0.17114 -0.0433321 1.54306e-19)
(0.208009 -0.0448277 1.25039e-21)
(0.0422504 0.000679909 -4.26808e-21)
(0.0652668 -0.0116453 1.76516e-19)
(0.101146 -0.0279192 0)
(0.126927 -0.0367516 -3.67749e-21)
(0.151784 -0.0423627 -2.42416e-19)
(0.179793 -0.0387507 -1.15651e-21)
(0.0414769 -0.00602336 2.1369e-19)
(0.0612579 -0.0176859 -1.65176e-19)
(0.0903987 -0.0311739 0)
(0.11059 -0.0372504 1.13722e-19)
(0.12993 -0.0399192 2.09147e-19)
(0.151302 -0.0340875 0)
(0.0399437 -0.0137652 0)
(0.0559974 -0.0220043 1.02481e-20)
(0.0783761 -0.0326865 3.04657e-22)
(0.0931733 -0.0361674 1.05956e-19)
(0.107216 -0.036372 -1.01352e-19)
(0.122757 -0.029374 0)
(0.0388759 -0.0197861 -1.14226e-19)
(0.049795 -0.024484 1.00403e-20)
(0.0655391 -0.0326665 -7.73355e-21)
(0.0752196 -0.033864 -1.08804e-19)
(0.0842577 -0.0320414 0)
(0.0945086 -0.0242679 -2.35616e-20)
(0.0353367 -0.025041 1.24493e-19)
(0.0424213 -0.0254545 0)
(0.0520343 -0.0314509 0)
(0.0570218 -0.0307385 1.37257e-20)
(0.0614307 -0.0272995 -2.4388e-20)
(0.066894 -0.0189791 5.63363e-20)
(0.0239274 -0.0296897 0)
(0.033261 -0.0254265 0)
(0.038015 -0.029462 5.38271e-20)
(0.0388418 -0.0271588 6.52374e-21)
(0.0390644 -0.0224551 -1.21684e-20)
(0.0402929 -0.0137921 -3.34333e-20)
(0.0139307 -0.0310814 -6.83082e-20)
(0.0230713 -0.0250691 -3.90279e-20)
(0.0238322 -0.0271277 -9.10326e-20)
(0.0209797 -0.0234055 0)
(0.017482 -0.0177422 -5.97693e-21)
(0.0150874 -0.00895319 5.37084e-21)
(0.00599112 -0.0322814 6.8736e-20)
(0.0126486 -0.0246797 3.72449e-20)
(0.00989478 -0.0247122 3.1094e-20)
(0.00371237 -0.0196816 0)
(-0.00301675 -0.0133351 0)
(-0.00837435 -0.00466669 2.67047e-21)
(-0.000721435 -0.0329581 1.73606e-20)
(0.00245746 -0.0242402 -1.51938e-22)
(-0.00350509 -0.0223312 5.84037e-23)
(-0.0126926 -0.0161157 0)
(-0.0221788 -0.00935305 0)
(-0.0298074 -0.00109618 -1.63557e-22)
(-0.00659168 -0.0327095 -1.7241e-20)
(-0.00722187 -0.0237055 0)
(-0.0161295 -0.0200432 -1.9199e-21)
(-0.0280259 -0.0127664 1.61511e-21)
(-0.0398116 -0.00586351 0)
(-0.0490065 0.0016373 -2.32166e-20)
(-0.0118356 -0.0314977 -1.43599e-19)
(-0.0161825 -0.0230423 8.1324e-20)
(-0.0278043 -0.0178582 0)
(-0.0421381 -0.00964398 0)
(-0.055788 -0.00288809 4.61666e-20)
(-0.0658511 0.00345829 6.15544e-20)
(-0.0165754 -0.0293661 -4.98095e-22)
(-0.0242779 -0.0222121 5.3923e-22)
(-0.0384098 -0.0157549 7.80474e-21)
(-0.0549311 -0.00671969 -5.97363e-20)
(-0.0700446 -0.000403682 -4.62704e-20)
(-0.0802989 0.00433991 -4.09898e-20)
(-0.0208762 -0.0264144 1.42032e-19)
(-0.0314075 -0.0211561 -8.5135e-20)
(-0.0478732 -0.0136881 3.88732e-21)
(-0.0663519 -0.00393148 1.0759e-19)
(-0.0825705 0.00166652 1.15518e-20)
(-0.0923703 0.00430295 2.06365e-20)
(-0.024726 -0.0228541 2.81775e-19)
(-0.0375053 -0.0198004 0)
(-0.0561634 -0.0116001 0)
(-0.0763722 -0.00119803 4.17973e-20)
(-0.0932888 0.00343415 9.52601e-20)
(-0.102246 0.00346492 -5.07019e-20)
(-0.0280165 -0.0189012 -2.82382e-19)
(-0.042534 -0.0180495 1.04895e-20)
(-0.0632901 -0.00942981 -8.11358e-21)
(-0.0849713 0.00157622 9.49004e-22)
(-0.102186 0.00511172 -9.65207e-20)
(-0.110117 0.00200013 -2.0043e-20)
(-0.0308409 -0.0139559 0)
(-0.0464434 -0.0157355 1.07591e-20)
(-0.0692995 -0.00712289 -8.35449e-21)
(-0.0920921 0.00449189 -1.15846e-19)
(-0.109267 0.00699026 -2.46861e-20)
(-0.116187 0.000197197 4.22328e-20)
(-0.0329706 -0.00729188 2.53634e-19)
(-0.0492091 -0.0126231 5.3653e-21)
(-0.0742824 -0.00465339 1.78773e-20)
(-0.0976596 0.00764322 -1.36664e-19)
(-0.11441 0.00949144 0)
(-0.120709 -0.00151855 -9.15915e-20)
(-0.0338186 -0.001823 -2.30782e-19)
(-0.0511216 -0.00869685 0)
(-0.0783735 -0.00208035 1.28456e-19)
(-0.10155 0.0110735 1.58073e-19)
(-0.117366 0.0131181 -1.36605e-20)
(-0.123861 -0.00242771 9.41129e-20)
(-0.0346598 0.00329763 -2.27075e-19)
(-0.0529547 -0.00427607 1.80854e-20)
(-0.081666 0.000411912 -3.20597e-19)
(-0.103534 0.0147495 1.69899e-20)
(-0.1176 0.0183549 1.03301e-19)
(-0.125826 -0.00134207 0)
(-0.035689 0.00808175 -1.42421e-20)
(-0.0546005 0.000485848 2.33994e-19)
(-0.0840627 0.00263602 1.55771e-19)
(-0.103219 0.0186726 0)
(-0.113943 0.0260046 -1.23532e-19)
(-0.126672 0.00327584 1.18803e-19)
(-0.0357081 0.0131933 5.57822e-19)
(-0.0555362 0.0064009 -4.49792e-19)
(-0.0849818 0.00503723 -1.78708e-19)
(-0.100077 0.0232727 -1.52522e-19)
(-0.104281 0.0381976 0)
(-0.125819 0.0127549 -2.86943e-19)
(-0.03189 0.0245329 -2.90182e-19)
(-0.051913 0.0195136 2.22247e-19)
(-0.0824037 0.0130679 1.88768e-19)
(-0.0939176 0.0317368 1.61895e-19)
(-0.0892351 0.060808 0)
(-0.112754 0.0222293 -6.82488e-21)
(0.246374 0.00365074 -1.82126e-19)
(0.433325 0.0656016 0)
(0.624374 0.0864634 0)
(0.781628 0.0912028 -4.34757e-20)
(0.909287 0.0872044 3.97048e-20)
(1.0108 0.0790094 6.48025e-20)
(1.08954 0.0692564 0)
(1.14921 0.0594648 2.96245e-21)
(1.19329 0.0504224 2.44505e-21)
(1.22491 0.0424393 -2.72589e-20)
(1.24682 0.0355486 4.7183e-20)
(1.2615 0.0297012 -2.0301e-20)
(1.27097 0.0248429 -3.82886e-20)
(1.27647 0.0209339 2.31974e-20)
(1.27942 0.0178916 -1.82545e-20)
(1.28104 0.0156196 6.92402e-21)
(1.28204 0.0142904 -4.92539e-22)
(1.28217 0.0138903 -1.15953e-21)
(1.28161 0.0140031 0)
(1.27996 0.014693 1.48328e-21)
(1.27675 0.0159502 0)
(1.27181 0.0172425 0)
(1.2648 0.0160612 2.01698e-20)
(1.2581 0.00502949 -2.34701e-20)
(0.246447 -0.0134528 -1.65455e-20)
(0.383181 0.0346736 2.97939e-20)
(0.542398 0.0605841 -1.30691e-19)
(0.688462 0.0726883 8.84399e-20)
(0.814193 0.0750282 3.91898e-20)
(0.918847 0.0718009 6.2935e-20)
(1.00492 0.065531 2.56611e-20)
(1.07446 0.0580995 8.66485e-20)
(1.12966 0.0505465 -7.34657e-20)
(1.17262 0.0433838 3.22621e-20)
(1.2053 0.0368093 0)
(1.22931 0.0309596 0)
(1.24671 0.0258616 2.57127e-20)
(1.25926 0.0214533 -4.28961e-20)
(1.26803 0.0177262 4.9686e-21)
(1.27429 0.0147504 1.19635e-20)
(1.2788 0.0125459 2.56635e-21)
(1.28241 0.0110386 -1.54524e-23)
(1.28544 0.0105167 8.5659e-22)
(1.28769 0.010956 -1.53816e-21)
(1.28891 0.0122755 0)
(1.28858 0.0142263 0)
(1.28672 0.014798 0)
(1.28975 0.00804413 0)
(0.219622 -0.0148014 5.1489e-20)
(0.320231 0.0212011 -3.04302e-20)
(0.447869 0.0474432 2.10065e-19)
(0.576188 0.0636584 -4.56888e-20)
(0.694507 0.0711151 -3.724e-20)
(0.797924 0.0723165 -3.06396e-20)
(0.886757 0.0696936 -2.52081e-20)
(0.96263 0.0647557 -1.9719e-21)
(1.02682 0.0586413 -4.01831e-20)
(1.08072 0.0520174 0)
(1.12549 0.045568 0)
(1.1617 0.0396664 0)
(1.19064 0.0340692 0)
(1.21355 0.0286121 0)
(1.2316 0.0234318 0)
(1.24596 0.0188146 0)
(1.25761 0.0149912 4.50181e-21)
(1.26716 0.0121293 -4.29953e-21)
(1.2751 0.0103715 0)
(1.282 0.0095902 0)
(1.28795 0.00983633 4.08403e-21)
(1.29304 0.0106941 -1.39942e-20)
(1.29744 0.0137348 9.53597e-21)
(1.31203 0.00907063 -9.17503e-22)
(0.183662 -0.0143194 1.21118e-19)
(0.255135 0.0163843 -7.77242e-20)
(0.350733 0.0431658 -1.31605e-19)
(0.453951 0.0630334 -9.29642e-20)
(0.554484 0.0756514 -7.66898e-20)
(0.647305 0.0824134 0)
(0.730043 0.0847993 0)
(0.803283 0.0842885 -7.18539e-20)
(0.867867 0.0815801 -1.61485e-20)
(0.924721 0.0773658 3.49668e-20)
(0.975172 0.0722568 0)