/*--------------------------------*- C++ -*----------------------------------*\
  =========                 |
  \\      /  F ield         | OpenFOAM: The Open Source CFD Toolbox
   \\    /   O peration     | Website:  https://openfoam.org
    \\  /    A nd           | Version:  11
     \\/     M anipulation  |
\*---------------------------------------------------------------------------*/
FoamFile
{
    format      ascii;
    class       surfaceVectorField;
    location    "1.14";
    object      Uf;
}
// * * * * * * * * * * * * * * * * * * * * * * * * * * * * * * * * * * * * * //

dimensions      [0 1 -1 0 0 0 0];

internalField   nonuniform List<vector> 
5640
(
(-0.154252 -0.222209 0)
(-0.140936 -0.171555 -7.58451e-19)
(-0.23808 -0.361083 6.26578e-20)
(-0.229802 -0.309715 3.83781e-20)
(-0.240361 -0.397586 1.93281e-21)
(-0.266971 -0.42508 9.91028e-20)
(-0.225072 -0.424847 4.26397e-20)
(-0.236799 -0.415488 -5.86968e-19)
(-0.123381 -0.422324 -1.69517e-19)
(-0.21711 -0.472104 6.01748e-19)
(0.106268 -0.226705 -4.59618e-19)
(0.396416 -0.51555 -5.22553e-19)
(-0.223788 -0.258326 -7.66044e-19)
(-0.210346 -0.184079 -7.64313e-19)
(-0.277169 -0.38883 8.34085e-20)
(-0.273926 -0.317714 6.14093e-19)
(-0.26245 -0.43349 -4.81375e-19)
(-0.276445 -0.425444 3.36602e-20)
(-0.202363 -0.432575 -3.99691e-20)
(-0.224516 -0.417674 -5.41685e-19)
(-0.0402016 -0.392703 6.04854e-19)
(-0.129846 -0.444663 -2.85438e-19)
(0.217478 -0.252389 -2.50464e-21)
(0.491185 -0.469262 -1.06596e-19)
(-0.260964 -0.24498 5.32433e-19)
(-0.258487 -0.167991 7.26842e-19)
(-0.28229 -0.365615 6.00213e-19)
(-0.29081 -0.295191 1.86446e-20)
(-0.241752 -0.411237 -4.68061e-21)
(-0.26317 -0.39446 0)
(-0.140936 -0.403713 -7.7327e-19)
(-0.181565 -0.384979 3.97778e-19)
(0.0727974 -0.370477 -8.75194e-19)
(-0.0352318 -0.40491 -1.11308e-19)
(0.333955 -0.252481 9.02435e-21)
(0.592573 -0.421287 1.24342e-19)
(-0.289677 -0.219043 2.49837e-19)
(-0.299143 -0.145177 7.3229e-19)
(-0.278783 -0.330874 -5.80519e-19)
(-0.298824 -0.263599 -5.21107e-19)
(-0.209427 -0.373756 3.92619e-19)
(-0.243603 -0.353707 1.82692e-21)
(-0.0707436 -0.363369 1.08467e-18)
(-0.131323 -0.341949 7.85792e-19)
(0.184768 -0.33802 7.02622e-19)
(0.0570565 -0.357003 3.54221e-19)
(0.443812 -0.235608 0)
(0.690102 -0.371548 2.23598e-19)
(-0.312222 -0.189838 3.36574e-20)
(-0.335043 -0.122197 -3.84936e-19)
(-0.270537 -0.291026 4.33402e-20)
(-0.302792 -0.228778 7.04284e-20)
(-0.172971 -0.328109 3.71049e-19)
(-0.221247 -0.306929 -2.54525e-20)
(-0.00205963 -0.316994 6.20455e-20)
(-0.0815045 -0.294678 -1.39866e-20)
(0.286143 -0.295931 -3.45592e-19)
(0.142839 -0.302647 -3.37501e-19)
(0.538511 -0.208239 -6.83016e-20)
(0.775136 -0.321834 -2.45813e-19)
(-0.330479 -0.161418 -3.74436e-19)
(-0.366119 -0.0995152 -1.80638e-20)
(-0.260519 -0.248389 1.36439e-20)
(-0.304831 -0.194613 3.47104e-20)
(-0.137105 -0.278715 -4.08703e-19)
(-0.199298 -0.257802 -2.72794e-20)
(0.061426 -0.266759 -4.04847e-19)
(-0.0353319 -0.245223 -3.45344e-19)
(0.374141 -0.24689 -6.66642e-20)
(0.218799 -0.24507 -8.38936e-20)
(0.61883 -0.173937 1.15448e-19)
(0.846906 -0.262856 -2.51875e-20)
(-0.34626 -0.133643 3.87685e-19)
(-0.392516 -0.0782627 3.66539e-19)
(-0.250582 -0.207155 0)
(-0.306243 -0.162229 0)
(-0.104555 -0.228549 4.68245e-20)
(-0.179383 -0.209006 1.89409e-19)
(0.117312 -0.214469 -3.67312e-20)
(0.00552781 -0.19463 7.19581e-20)
(0.446838 -0.19482 8.30292e-20)
(0.282387 -0.187221 -1.25112e-19)
(0.68172 -0.13329 7.52028e-20)
(0.899767 -0.207071 3.48414e-19)
(-0.359401 -0.108691 0)
(-0.414842 -0.0614416 -1.90561e-19)
(-0.241786 -0.166794 1.81349e-19)
(-0.306986 -0.130407 -1.24953e-19)
(-0.0764422 -0.178785 2.17269e-19)
(-0.162415 -0.16153 -1.28429e-19)
(0.16409 -0.161558 -1.59076e-20)
(0.0398344 -0.143897 2.34964e-20)
(0.503718 -0.141429 -1.55683e-19)
(0.332662 -0.130381 -6.14942e-20)
(0.727156 -0.088293 -9.10926e-20)
(0.936332 -0.151018 -2.61089e-19)
(-0.37001 -0.0859956 -3.19299e-19)
(-0.432453 -0.0482901 1.21784e-21)
(-0.234487 -0.127566 -4.34608e-19)
(-0.307486 -0.0991031 -7.38318e-21)
(-0.0535105 -0.130092 -3.28602e-19)
(-0.148977 -0.115818 -2.10839e-19)
(0.200913 -0.109077 -1.97072e-20)
(0.066746 -0.0939221 0)
(0.544879 -0.0874113 -5.03629e-21)
(0.369712 -0.0752359 -2.02757e-20)
(0.755722 -0.0407938 2.62563e-20)
(0.957441 -0.094948 2.11057e-20)
(-0.377976 -0.0651614 3.13783e-19)
(-0.444873 -0.0379117 2.3986e-19)
(-0.229063 -0.0897016 2.24886e-19)
(-0.308174 -0.0684805 1.17125e-19)
(-0.0362869 -0.0829591 1.10642e-19)
(-0.139455 -0.0721355 1.07219e-19)
(0.227363 -0.0578993 0)
(0.0857749 -0.0454445 0)
(0.570744 -0.0349702 7.96254e-21)
(0.393539 -0.0221865 0)
(0.768831 0.00747877 7.66134e-21)
(0.964323 -0.0397442 3.80664e-21)
(-0.383312 -0.0457396 5.03136e-20)
(-0.4518 -0.0293903 2.99264e-22)
(-0.225841 -0.0533656 -3.07467e-22)
(-0.309398 -0.0387145 -4.62845e-22)
(-0.0250888 -0.0377431 1.99409e-22)
(-0.134072 -0.0306338 -6.08511e-21)
(0.243339 -0.00876537 0)
(0.0967076 0.00104249 5.4815e-21)
(0.5825 0.0146551 -4.84867e-22)
(0.404268 0.0282876 0)
(0.767939 0.0550354 -7.28722e-20)
(0.958309 0.0132874 -2.44821e-22)
(-0.386134 -0.0258683 -5.04224e-20)
(-0.452828 -0.0217734 -4.35586e-19)
(-0.22506 -0.0183625 -6.01085e-21)
(-0.311595 -0.00997495 2.32721e-19)
(-0.0200021 0.00536245 -1.33833e-21)
(-0.132974 0.00864553 -6.278e-21)
(0.249093 0.0383284 5.63519e-21)
(0.0997381 0.0452211 5.4815e-21)
(0.581096 0.0629866 -7.06404e-20)
(0.403001 0.0757244 1.47472e-19)
(0.753321 0.100613 1.16326e-19)
(0.940141 0.0630284 -7.95581e-20)
(-0.386091 -0.0103948 -1.91942e-19)
(-0.448743 -0.014218 -3.83157e-19)
(-0.226757 0.0142528 2.42624e-19)
(-0.31432 0.0176867 2.29788e-19)
(-0.0208934 0.045913 0)
(-0.136034 0.0458005 2.38956e-20)
(0.24523 0.0825821 1.43338e-19)
(0.0951545 0.0868497 -1.86258e-19)
(0.567418 0.108662 3.3507e-19)
(0.39075 0.119801 8.36367e-22)
(0.726607 0.143293 6.45956e-20)
(0.910258 0.110736 2.33417e-19)
(-0.383736 0.00623801 2.25101e-21)
(-0.439466 -0.00587009 3.81766e-19)
(-0.23076 0.0456422 1.98708e-20)
(-0.317753 0.0443183 -2.38303e-19)
(-0.027571 0.0842361 -1.54873e-19)
(-0.143221 0.0810172 3.5306e-20)
(0.232411 0.123823 -3.33813e-19)
(0.0832705 0.125762 1.38125e-19)
(0.542629 0.150953 -2.70559e-19)
(0.36843 0.160206 -1.13151e-19)
(0.689005 0.182506 -6.78968e-20)
(0.869388 0.154884 -1.44107e-19)
(-0.378986 0.0231217 1.76856e-19)
(-0.425302 0.00400879 1.09561e-18)
(-0.237056 0.0757111 -2.35108e-19)
(-0.321799 0.0701221 -2.35384e-19)
(-0.0398103 0.120263 3.25144e-19)
(-0.15443 0.114542 1.14104e-20)
(0.211254 0.16185 3.65752e-19)
(0.0644849 0.161897 4.36037e-19)
(0.507732 0.189348 8.92987e-20)
(0.33692 0.196715 2.95588e-19)
(0.64129 0.21782 -7.87476e-20)
(0.818377 0.194128 1.07613e-19)
(-0.371979 0.0406437 7.60154e-19)
(-0.406649 0.0160344 -2.07686e-21)
(-0.245539 0.104692 0)
(-0.326279 0.09535 2.74849e-20)
(-0.0573495 0.154123 1.08026e-19)
(-0.169528 0.14669 -2.20816e-20)
(0.182382 0.196565 3.70473e-19)
(0.0392023 0.195298 1.02134e-19)
(0.463678 0.22356 1.37052e-19)
(0.297085 0.229209 3.65903e-21)
(0.584448 0.248877 -1.82064e-19)
(0.757983 0.228498 -1.45045e-19)
(-0.362824 0.059197 -7.35998e-19)
(-0.38394 0.030637 -7.20339e-19)
(-0.256025 0.132887 8.73914e-21)
(-0.330904 0.120258 5.49844e-20)
(-0.0799204 0.186038 -3.20786e-20)
(-0.188363 0.177848 -4.39421e-20)
(0.146391 0.227958 -2.61013e-19)
(0.007792 0.226107 -3.09265e-19)
(0.411381 0.253366 -3.11308e-19)
(0.249722 0.257659 -3.1561e-19)
(0.519535 0.275296 4.86842e-20)
(0.688903 0.257666 -2.09177e-19)
(-0.351579 0.0790597 2.5913e-20)
(-0.357619 0.0480412 6.63518e-19)
(-0.268244 0.160636 8.92246e-21)
(-0.335227 0.145065 4.08461e-20)
(-0.107265 0.216323 -3.12132e-19)
(-0.210757 0.208483 2.15438e-20)
(0.103815 0.256127 -3.63649e-19)
(-0.0294489 0.254575 -6.18288e-19)
(0.351747 0.278574 3.48344e-20)
(0.19545 0.282176 -5.71946e-20)
(0.447535 0.296799 -8.14479e-20)
(0.612017 0.281129 2.66871e-19)
(-0.338104 0.100368 7.11072e-19)
(-0.328126 0.0682553 -2.56814e-20)
(-0.281799 0.188314 5.54719e-20)
(-0.338529 0.169894 1.33466e-20)
(-0.139124 0.245404 -2.63253e-19)
(-0.236459 0.239117 3.49878e-19)
(0.055055 0.28137 -3.27565e-19)
(-0.0722998 0.281097 3.81947e-20)
(0.285496 0.299177 -1.7371e-19)
(0.134618 0.303066 -2.91922e-20)
(0.369129 0.312935 -5.879e-22)
(0.528519 0.298079 -2.07553e-19)
(-0.321935 0.123128 -7.27945e-19)
(-0.295194 0.0900579 -1.38133e-18)
(-0.296159 0.216276 2.93432e-19)
(-0.340019 0.195206 4.35915e-20)
(-0.175208 0.273801 6.61725e-19)
(-0.265031 0.270249 -4.39569e-19)
(0.000246039 0.304116 3.36481e-19)
(-0.120583 0.30622 3.89762e-19)
(0.213108 0.315227 1.44318e-19)
(0.06722 0.320747 1.51101e-19)
(0.285554 0.323078 1.78489e-19)
(0.438738 0.308865 2.08151e-19)
(-0.302298 0.146243 -6.96809e-19)
(-0.256869 0.110139 -7.17712e-19)
(-0.310855 0.245213 -6.67032e-19)
(-0.339149 0.222531 6.00546e-19)
(-0.215245 0.301967 -7.3775e-19)
(-0.295658 0.302077 -3.88069e-19)
(-0.0609279 0.324762 2.0692e-19)
(-0.174062 0.330658 3.3148e-20)
(0.134712 0.326311 1.84615e-19)
(-0.00737195 0.335672 -3.2941e-20)
(0.197828 0.325654 1.47819e-19)
(0.344013 0.31145 0)
(-0.278196 0.1674 4.81743e-19)
(-0.209714 0.124282 1.36741e-18)
(-0.32597 0.275514 9.20536e-19)
(-0.334782 0.253408 -4.76808e-19)
(-0.259157 0.329981 3.67171e-19)
(-0.326015 0.333402 -2.86121e-20)
(-0.129148 0.343758 -2.10954e-19)
(-0.231825 0.354913 -2.82358e-19)
(0.0503442 0.332285 -7.7967e-20)
(-0.0901245 0.34789 -2.17039e-19)
(0.105907 0.316351 -1.90553e-19)
(0.248183 0.301017 1.72384e-19)
(-0.247293 0.184821 4.97064e-19)
(-0.138681 0.118436 6.70219e-19)
(-0.338606 0.304191 -1.45694e-18)
(-0.308353 0.272185 -4.34033e-19)
(-0.306768 0.356397 -6.69569e-19)
(-0.348817 0.360444 -3.78843e-19)
(-0.202677 0.362141 -2.90275e-19)
(-0.286697 0.374174 2.41631e-21)
(-0.0385814 0.33452 -3.21294e-19)
(-0.177497 0.353258 5.78474e-20)
(0.00711467 0.288488 3.22916e-20)
(0.157751 0.272118 -3.56764e-19)
(-0.170115 0.179377 -2.21291e-19)
(-0.306838 0.328166 6.06786e-19)
(-0.324715 0.394514 2.10453e-19)
(-0.254719 0.389441 3.17048e-19)
(-0.120665 0.335734 3.41187e-19)
(0.0776002 0.221648 4.31916e-19)
(0.895706 -0.909882 0)
(0.816452 -0.908506 -4.30426e-20)
(0.677251 -1.07585 0)
(1.07381 -0.775801 0)
(1.12492 -0.798744 5.79258e-21)
(0.975517 -0.826158 0)
(1.13002 -0.651254 3.17403e-20)
(1.16673 -0.701644 -1.73021e-20)
(1.06344 -0.715569 4.21307e-20)
(1.14368 -0.543118 7.1002e-20)
(1.18374 -0.581999 9.46936e-21)
(1.10411 -0.590858 -5.91395e-21)
(1.14186 -0.455451 8.27495e-20)
(1.17673 -0.487584 3.1629e-20)
(1.11383 -0.493157 -1.58556e-19)
(1.13608 -0.387194 7.01017e-20)
(1.16473 -0.411911 -1.1824e-20)
(1.11398 -0.416085 4.63105e-20)
(1.13102 -0.334986 8.99607e-20)
(1.15427 -0.353884 8.64306e-21)
(1.11235 -0.35742 6.52337e-20)
(1.12725 -0.294427 6.58337e-21)
(1.14663 -0.309273 -3.27941e-20)
(1.11119 -0.312389 -1.27245e-19)
(1.12407 -0.261794 -8.26586e-21)
(1.14087 -0.273977 3.55037e-20)
(1.11029 -0.276697 -2.76614e-22)
(1.12078 -0.234468 -4.02034e-20)
(1.13586 -0.244946 5.85321e-21)
(1.10907 -0.247239 4.8576e-20)
(1.11695 -0.210754 -4.88935e-20)
(1.13082 -0.220124 -8.97518e-20)
(1.1071 -0.221953 1.1521e-20)
(1.11239 -0.189609 8.03082e-20)
(1.12537 -0.198238 4.21259e-20)
(1.10422 -0.199594 4.21259e-20)
(1.10705 -0.17036 -3.67086e-20)
(1.11932 -0.178502 -3.4719e-20)
(1.1004 -0.179392 3.44556e-20)
(1.10088 -0.152538 -4.18619e-20)
(1.1126 -0.160371 6.29326e-20)
(1.09566 -0.160812 -3.63288e-20)
(1.09386 -0.135794 -7.00843e-20)
(1.10513 -0.143448 3.52482e-20)
(1.08998 -0.143462 -8.46068e-20)
(1.08598 -0.119867 -3.99105e-20)
(1.09687 -0.127436 -1.70253e-19)
(1.08339 -0.127042 8.10799e-20)
(1.07723 -0.104567 6.56435e-20)
(1.08778 -0.112116 3.501e-20)
(1.07587 -0.111335 -7.80165e-20)
(1.06761 -0.0897658 -3.51341e-20)
(1.07784 -0.0973374 2.66297e-20)
(1.06744 -0.0961971 1.02076e-19)
(1.05715 -0.0753896 1.1943e-19)
(1.06706 -0.0829928 -9.18253e-20)
(1.05814 -0.081529 -6.85171e-20)
(1.04589 -0.0614039 -9.01359e-20)
(1.05553 -0.0689188 1.23778e-19)
(1.0481 -0.0671894 2.86628e-19)
(1.03386 -0.047794 7.30166e-22)
(1.04339 -0.0549268 -2.42018e-19)
(1.03748 -0.0530238 -3.71811e-19)
(1.02108 -0.0345776 2.69259e-19)
(1.03011 -0.0417454 2.39628e-19)
(1.02573 -0.0397198 2.06755e-19)
(1.00842 -0.022436 8.73836e-20)
(1.01344 -0.0325834 1.6556e-21)
(1.01062 -0.0301306 1.61526e-19)
(0.995662 -0.0279136 -2.23611e-20)
(0.994514 -0.024585 -1.41106e-19)
(1.05984 -0.796978 -3.84207e-20)
(0.952613 -0.753583 4.98565e-20)
(1.19704 -0.738142 1.89609e-20)
(1.23896 -0.736251 -3.47426e-20)
(1.22032 -0.629964 -4.00708e-20)
(1.26113 -0.66337 3.53476e-20)
(1.21429 -0.529528 -3.57139e-20)
(1.25889 -0.558229 -8.36506e-21)
(1.19832 -0.445971 -6.59711e-20)
(1.23708 -0.471461 1.61961e-20)
(1.18214 -0.379919 -6.96983e-20)
(1.21385 -0.40003 -2.95493e-20)
(1.16946 -0.328991 -1.13579e-19)
(1.195 -0.344474 6.7995e-21)
(1.16003 -0.289333 -3.76072e-21)
(1.18113 -0.301466 -8.96254e-20)
(1.15255 -0.257456 4.95894e-20)
(1.17064 -0.267368 1.28736e-19)
(1.14585 -0.230833 -4.27679e-20)
(1.16195 -0.239343 -4.23264e-20)
(1.13923 -0.207793 0)
(1.15396 -0.215427 0)
(1.1323 -0.18729 -7.21891e-20)
(1.14604 -0.194378 0)
(1.12489 -0.168648 6.40911e-20)
(1.13787 -0.175416 -7.28645e-20)
(1.11688 -0.151399 1.40254e-19)
(1.12926 -0.158005 1.38767e-19)
(1.10817 -0.135196 -6.32911e-20)
(1.12009 -0.141757 3.52221e-22)
(1.09871 -0.11978 -9.67787e-20)
(1.11026 -0.126382 -6.41464e-20)
(1.08845 -0.104962 -3.7264e-21)
(1.09969 -0.111662 -8.96518e-20)
(1.07737 -0.0906057 -2.89358e-20)
(1.08833 -0.0974492 8.4543e-20)
(1.06546 -0.0766284 -8.88118e-20)
(1.07615 -0.0836295 -5.88536e-20)
(1.05274 -0.0629838 -2.99551e-20)
(1.06322 -0.0700232 -2.97642e-20)
(1.03919 -0.0496476 0)
(1.04962 -0.0564116 5.18915e-20)
(1.02482 -0.0366256 0)
(1.03486 -0.0435503 -1.55448e-19)
(1.01053 -0.0245467 0)
(1.01673 -0.0349608 1.01893e-19)
(0.997275 -0.0312878 -7.35869e-20)
(1.156 -0.692102 3.59178e-20)
(1.05433 -0.627541 3.6106e-19)
(1.29526 -0.677726 1.02243e-20)
(1.32722 -0.663148 -1.36315e-19)
(1.30045 -0.591764 6.54718e-20)
(1.34148 -0.610468 -1.19998e-20)
(1.27965 -0.504071 4.69449e-20)
(1.32583 -0.523047 -5.40841e-21)
(1.25156 -0.427771 4.74743e-20)
(1.29241 -0.446495 4.99936e-20)
(1.22606 -0.366076 4.52501e-20)
(1.25969 -0.381318 2.0634e-20)
(1.20631 -0.317858 3.03311e-20)
(1.2334 -0.329717 2.70216e-20)
(1.19155 -0.280059 4.15943e-20)
(1.21383 -0.289333 4.87169e-20)
(1.17997 -0.249608 3.836e-20)
(1.19897 -0.257148 5.61112e-20)
(1.17004 -0.224182 0)
(1.18685 -0.230649 -3.10485e-20)
(1.16077 -0.202204 0)
(1.1761 -0.208039 0)
(1.15162 -0.182665 0)
(1.16587 -0.188151 0)
(1.14226 -0.16491 0)
(1.15573 -0.170241 2.75652e-20)
(1.13252 -0.148482 0)
(1.14539 -0.153795 -2.68272e-20)
(1.12223 -0.133048 0)
(1.13465 -0.138445 0)
(1.1113 -0.118358 -5.68262e-20)
(1.12338 -0.123912 -5.37796e-20)
(1.09964 -0.104224 -2.69528e-21)
(1.11145 -0.10999 4.68437e-20)
(1.0872 -0.0905111 5.5817e-20)
(1.09879 -0.0965334 5.58162e-20)
(1.07395 -0.0771287 0)
(1.08533 -0.0834263 -4.95203e-20)
(1.05985 -0.0640217 5.15587e-20)
(1.07109 -0.0704784 4.8512e-20)
(1.04486 -0.0511569 -1.05664e-19)
(1.05613 -0.0574454 -1.82444e-20)
(1.02897 -0.0385269 -8.31372e-20)
(1.03997 -0.0450954 -1.32836e-19)
(1.01299 -0.0266705 2.93152e-20)
(1.0205 -0.0372079 1.01893e-19)
(0.999381 -0.0346573 -7.35869e-20)
(1.23162 -0.592567 1.89563e-19)
(1.13068 -0.519211 -2.51416e-20)
(1.37097 -0.60698 -1.48081e-19)
(1.3932 -0.584165 1.69383e-19)
(1.36792 -0.542892 -7.99641e-20)
(1.40687 -0.549431 -1.42737e-19)
(1.33733 -0.469662 4.03518e-21)
(1.38307 -0.479788 1.2216e-20)
(1.29988 -0.402424 2.24427e-20)
(1.34135 -0.414687 2.21068e-20)
(1.26658 -0.346563 0)
(1.30111 -0.357002 -9.31568e-21)
(1.24067 -0.302166 4.51287e-20)
(1.2686 -0.310395 2.91551e-20)
(1.22112 -0.267017 6.36309e-20)
(1.24407 -0.273421 5.30183e-21)
(1.20581 -0.238563 -1.28534e-20)
(1.22531 -0.243725 1.81734e-20)
(1.19291 -0.214761 -3.13723e-20)
(1.21011 -0.219182 -3.10485e-20)
(1.18122 -0.194183 0)
(1.19686 -0.198212 -1.23442e-20)
(1.17002 -0.175889 2.73097e-20)
(1.18457 -0.179758 1.22893e-20)
(1.15889 -0.159263 1.21559e-21)
(1.17265 -0.163133 -1.23523e-20)
(1.14757 -0.143876 -2.70509e-20)
(1.16074 -0.147861 -2.54968e-20)
(1.13585 -0.129413 -5.33524e-20)
(1.1486 -0.133599 2.44191e-20)
(1.12359 -0.115638 4.91525e-20)
(1.13604 -0.120088 -5.37796e-20)
(1.11067 -0.102372 1.05282e-19)
(1.1229 -0.107136 9.28518e-20)
(1.097 -0.0894833 -4.85999e-20)
(1.10908 -0.0946047 -5.71476e-20)
(1.08252 -0.076877 -1.66222e-21)
(1.09448 -0.0823806 -4.39403e-21)
(1.06716 -0.0644916 -2.30667e-20)
(1.07907 -0.070267 4.11824e-21)
(1.05086 -0.0522857 -4.80969e-20)
(1.06289 -0.0579988 -5.81603e-20)
(1.03351 -0.0402385 2.27465e-20)
(1.04543 -0.0463406 4.28551e-20)
(1.01584 -0.0287759 0)
(1.02475 -0.0392663 3.38977e-20)
(1.00201 -0.0379713 -4.29783e-20)
(1.29102 -0.500649 -5.10722e-20)
(1.18682 -0.424237 -2.49533e-19)
(1.42838 -0.532081 1.8652e-19)
(1.44046 -0.502389 1.54341e-19)
(1.42294 -0.48754 -5.36508e-20)
(1.4581 -0.483905 -2.33918e-20)
(1.38641 -0.428855 2.97383e-20)
(1.4302 -0.431126 2.21825e-20)
(1.34232 -0.371597 -9.17414e-21)
(1.38325 -0.37783 6.43402e-21)
(1.30291 -0.322469 2.16737e-20)
(1.33748 -0.328348 -9.31568e-21)
(1.27188 -0.282654 -1.11404e-20)
(1.30003 -0.28739 2.03915e-20)
(1.24821 -0.250744 -4.0415e-20)
(1.27137 -0.254372 -3.99387e-20)
(1.22962 -0.224731 0)
(1.24928 -0.22759 0)
(1.2141 -0.202896 -1.22154e-20)
(1.2314 -0.205331 1.16275e-20)
(1.20026 -0.183988 -2.96644e-22)
(1.21597 -0.186258 -1.05995e-20)
(1.18725 -0.167165 -2.7002e-20)
(1.20187 -0.169449 -1.31218e-22)
(1.17455 -0.151867 -3.89276e-20)
(1.1884 -0.15429 -5.0753e-20)
(1.16184 -0.137699 2.54658e-20)
(1.17514 -0.140352 2.3137e-20)
(1.14886 -0.124375 2.46131e-20)
(1.16178 -0.127328 2.44191e-20)
(1.13542 -0.111677 -1.11668e-20)
(1.1481 -0.114984 0)
(1.12139 -0.0994385 -6.84486e-20)
(1.13392 -0.103145 3.26586e-23)
(1.10665 -0.0875329 -1.33013e-20)
(1.1191 -0.0916841 -8.87065e-20)
(1.0911 -0.0758663 1.32965e-21)
(1.10351 -0.0804926 4.47096e-20)
(1.07463 -0.0643718 -3.071e-20)
(1.0871 -0.069373 3.64363e-20)
(1.05714 -0.0530003 3.57027e-20)
(1.06983 -0.0580434 -1.73037e-20)
(1.03845 -0.0417174 5.41545e-20)
(1.05123 -0.0472452 -2.05986e-20)
(1.01909 -0.0308295 5.73637e-20)
(1.02948 -0.0410743 8.48334e-20)
(1.00518 -0.0411793 -6.91111e-20)
(1.33357 -0.414478 -5.1704e-20)
(1.22327 -0.338268 2.06133e-19)
(1.47023 -0.455873 -4.65939e-20)
(1.47186 -0.420521 -1.00469e-19)
(1.46612 -0.428511 5.11347e-20)
(1.49611 -0.416291 1.12329e-19)
(1.42678 -0.383753 -4.21472e-21)
(1.46737 -0.379206 -1.72965e-20)
(1.37845 -0.336775 6.53177e-21)
(1.41787 -0.337479 1.18041e-20)
(1.33459 -0.294868 -8.42646e-21)
(1.36848 -0.296519 3.59519e-21)
(1.29953 -0.260107 -8.6552e-21)
(1.32737 -0.261578 -9.14136e-21)
(1.27247 -0.231835 0)
(1.29544 -0.232855 4.13455e-21)
(1.25111 -0.208579 1.14981e-20)
(1.27061 -0.20927 -6.29667e-21)
(1.23334 -0.188957 1.32345e-20)
(1.25049 -0.189519 1.16275e-20)
(1.21765 -0.171918 -1.05553e-20)
(1.23323 -0.172519 -8.21432e-21)
(1.20309 -0.156733 -2.33998e-20)
(1.2176 -0.157499 5.68735e-21)
(1.18906 -0.142907 1.06645e-20)
(1.20283 -0.143928 -1.95781e-21)
(1.17516 -0.130092 2.21137e-20)
(1.18843 -0.131436 5.12843e-20)
(1.1611 -0.118034 0)
(1.17405 -0.119754 -1.91434e-20)
(1.14668 -0.106539 1.11549e-20)
(1.15944 -0.10868 9.17488e-21)
(1.13171 -0.0954571 -1.96711e-20)
(1.14439 -0.0980608 3.97836e-20)
(1.11605 -0.0846703 -3.20238e-20)
(1.12873 -0.0877838 -2.18083e-20)
(1.09959 -0.0740877 7.99658e-20)
(1.11233 -0.0777505 -1.54302e-22)
(1.08218 -0.0636389 5.02128e-20)
(1.09508 -0.0677678 6.25121e-20)
(1.06366 -0.0532665 -7.00955e-20)
(1.07689 -0.0575412 -3.78958e-20)
(1.04377 -0.042921 -4.15128e-21)
(1.05732 -0.0477618 -4.09361e-20)
(1.02276 -0.0327965 2.52016e-20)
(1.03467 -0.0425572 2.18714e-20)
(1.00889 -0.0442271 -3.18711e-21)
(1.35964 -0.333221 1.64718e-19)
(1.24438 -0.259223 -1.86536e-21)
(1.49819 -0.380381 5.41606e-20)
(1.48956 -0.34079 5.01405e-20)
(1.49808 -0.36781 4.63083e-20)
(1.52188 -0.348518 -1.30973e-20)
(1.45857 -0.33605 -7.89054e-21)
(1.49497 -0.32574 4.23625e-22)
(1.40818 -0.29924 7.42854e-21)
(1.44525 -0.294997 5.37006e-21)
(1.36143 -0.264747 3.05759e-21)
(1.39402 -0.262559 3.59519e-21)
(1.32341 -0.235291 3.47784e-21)
(1.35048 -0.233778 9.36931e-23)
(1.29369 -0.210893 -2.03773e-21)
(1.31613 -0.209525 -1.24795e-22)
(1.27009 -0.190592 -6.36674e-21)
(1.28916 -0.189296 -5.94209e-21)
(1.25048 -0.173341 -9.76437e-21)
(1.26725 -0.172182 5.58536e-21)
(1.23326 -0.158295 7.9851e-21)
(1.24851 -0.157356 -9.86729e-21)
(1.21742 -0.144849 2.72002e-20)
(1.23165 -0.144201 -3.06062e-21)
(1.20229 -0.132584 3.82598e-20)
(1.21584 -0.132282 1.6613e-20)
(1.18742 -0.121204 1.05705e-20)
(1.20053 -0.121289 1.18698e-20)
(1.17248 -0.110492 -1.01934e-20)
(1.18533 -0.111 -1.91434e-20)
(1.15724 -0.100284 3.75715e-20)
(1.16997 -0.101247 -3.80298e-23)
(1.1415 -0.0904491 3.8104e-20)
(1.15422 -0.0919057 1.94047e-20)
(1.12511 -0.0808857 9.81988e-21)
(1.13789 -0.0828839 -3.71098e-21)
(1.1079 -0.0715087 -1.79666e-20)
(1.12083 -0.0740992 -3.78808e-21)
(1.08972 -0.0622472 -2.7044e-20)
(1.10291 -0.0653743 2.53152e-21)
(1.07036 -0.0530343 -8.71765e-21)
(1.08399 -0.05641 -1.24466e-20)
(1.04944 -0.0437994 -2.88473e-20)
(1.06363 -0.0478083 0)
(1.02686 -0.0346364 -7.44246e-20)
(1.04028 -0.0435909 -4.24004e-20)
(1.01315 -0.0470332 1.38245e-20)
(1.37154 -0.256816 -1.15317e-19)
(1.25189 -0.185422 -1.6041e-19)
(1.51355 -0.307844 -1.48441e-20)
(1.49484 -0.264336 -1.19844e-21)
(1.51961 -0.307142 -5.84087e-20)
(1.53676 -0.282245 -6.74472e-20)
(1.48211 -0.287121 1.08316e-20)
(1.51366 -0.272051 1.81881e-20)
(1.43156 -0.260095 0)
(1.46559 -0.251553 -6.86202e-21)
(1.38339 -0.232992 5.91073e-22)
(1.41414 -0.227394 0)
(1.34344 -0.208922 -3.50217e-21)
(1.36937 -0.204749 5.99417e-22)
(1.31178 -0.188504 -3.94914e-21)
(1.33342 -0.185005 -3.45005e-21)
(1.28647 -0.171254 6.10985e-21)
(1.3049 -0.168186 1.52899e-21)
(1.26542 -0.156448 5.64361e-21)
(1.28164 -0.153755 3.8248e-21)
(1.24701 -0.143449 -2.08389e-20)
(1.26178 -0.141132 0)
(1.23017 -0.131781 -1.36804e-20)
(1.24398 -0.129856 -1.73624e-20)
(1.21418 -0.121106 -9.70038e-21)
(1.22738 -0.119589 1.32634e-22)
(1.19855 -0.111184 -1.75955e-20)
(1.21139 -0.110089 -1.04528e-20)
(1.18292 -0.10184 -9.11144e-21)
(1.19559 -0.101182 1.13145e-20)
(1.16705 -0.092945 -1.82944e-20)
(1.17966 -0.0927389 -1.6608e-20)
(1.15071 -0.0843967 -2.21692e-20)
(1.16337 -0.0846673 -9.10942e-21)
(1.13372 -0.0761138 -1.72019e-20)
(1.14652 -0.0769033 -5.34231e-21)
(1.11593 -0.068028 1.6633e-20)
(1.12894 -0.0693919 -3.67406e-21)
(1.09715 -0.0600771 1.6265e-20)
(1.11048 -0.0619934 1.68181e-20)
(1.07713 -0.0521902 -3.87018e-21)
(1.09098 -0.0544317 -7.84909e-21)
(1.0554 -0.0442624 -1.32956e-20)
(1.07003 -0.0471727 0)
(1.03137 -0.0362775 -2.24034e-20)
(1.04625 -0.043868 3.40053e-21)
(1.01792 -0.0493488 -2.90952e-20)
(1.37107 -0.186537 -4.90664e-20)
(1.24608 -0.116217 -5.46955e-21)
(1.5182 -0.23717 -5.13243e-20)
(1.49022 -0.19215 -5.02715e-20)
(1.53143 -0.247543 7.39455e-21)
(1.54105 -0.218301 -6.8626e-21)
(1.49781 -0.238392 1.82986e-21)
(1.52383 -0.219064 1.37083e-20)
(1.44883 -0.220334 -6.96628e-21)
(1.47937 -0.20816 -6.86202e-21)
(1.40059 -0.200302 0)
(1.42911 -0.191838 1.36695e-21)
(1.35967 -0.181614 7.03556e-22)
(1.3841 -0.175152 -1.27498e-23)
(1.32677 -0.165216 1.68456e-21)
(1.34734 -0.159865 -4.19523e-22)
(1.30026 -0.151034 -6.23228e-22)
(1.31786 -0.146433 1.26255e-21)
(1.27816 -0.138677 -1.77892e-21)
(1.2937 -0.13466 -2.66644e-21)
(1.25889 -0.127715 3.63015e-21)
(1.27307 -0.124208 2.05114e-21)
(1.24133 -0.117802 -3.66686e-21)
(1.25464 -0.114769 5.38001e-21)
(1.22472 -0.108684 -5.24008e-22)
(1.23751 -0.106101 -1.00901e-20)
(1.20855 -0.10018 1.82757e-20)
(1.22106 -0.0980301 6.99718e-21)
(1.19244 -0.0921596 4.02293e-21)
(1.20485 -0.0904294 7.78335e-21)
(1.17609 -0.0845306 -7.47988e-21)
(1.18855 -0.0832103 -7.42361e-21)
(1.1593 -0.0772251 7.68149e-21)
(1.17188 -0.0763121 0)
(1.14185 -0.0701934 8.15011e-21)
(1.15465 -0.0697012 5.35594e-22)
(1.12359 -0.0633983 -3.6129e-21)
(1.13666 -0.0633577 1.45609e-20)
(1.10431 -0.0568121 -7.95598e-21)
(1.11772 -0.0572036 -1.09158e-20)
(1.08377 -0.0504003 -3.97679e-21)
(1.09767 -0.0510386 3.13001e-21)
(1.06143 -0.0440424 1.66164e-20)
(1.07622 -0.0451824 -6.94674e-21)
(1.03612 -0.037484 2.9015e-20)
(1.05242 -0.0424688 2.09651e-20)
(1.02308 -0.0501092 -1.58635e-20)
(1.36022 -0.116245 -5.60067e-21)
(1.22976 -0.0518737 -5.13587e-21)
(1.51243 -0.170439 -6.71888e-21)
(1.47427 -0.124362 1.2786e-20)
(1.53406 -0.18988 -9.30383e-22)
(1.53574 -0.157375 -6.8626e-21)
(1.50614 -0.190554 6.27685e-21)
(1.52596 -0.167659 5.89119e-21)
(1.46033 -0.180921 1.34618e-21)
(1.48683 -0.165568 2.57015e-22)
(1.41318 -0.167706 1.59557e-21)
(1.43904 -0.156568 1.36695e-21)
(1.37221 -0.154115 -8.69896e-22)
(1.39493 -0.145589 1.01038e-22)
(1.33874 -0.14157 -1.14574e-21)
(1.3581 -0.13463 -1.2365e-21)
(1.31154 -0.130382 -8.95802e-22)
(1.32819 -0.124492 -2.58496e-22)
(1.28879 -0.120414 1.15861e-21)
(1.30354 -0.1153 -8.74484e-22)
(1.26897 -0.111426 3.74157e-21)
(1.28247 -0.106941 2.02215e-21)
(1.25096 -0.103196 -9.33678e-22)
(1.26369 -0.0992542 1.44471e-21)
(1.23399 -0.0955505 -2.67747e-21)
(1.2463 -0.0920924 -3.29771e-21)
(1.2175 -0.0883655 -3.50298e-21)
(1.22964 -0.0853436 0)
(1.2011 -0.0815536 -3.5605e-21)
(1.21325 -0.0789272 -3.34764e-21)
(1.18447 -0.0750565 0)
(1.19677 -0.0727885 -1.75434e-22)
(1.16738 -0.0688383 -7.16478e-21)
(1.17992 -0.0668947 1.97119e-22)
(1.1496 -0.0628816 6.84293e-21)
(1.16248 -0.0612364 -8.34542e-21)
(1.13096 -0.057185 7.48014e-21)
(1.14421 -0.0558215 1.4415e-20)
(1.11122 -0.0517695 8.01631e-23)
(1.12489 -0.0506215 -6.91248e-21)
(1.09014 -0.046705 -4.60953e-22)
(1.10423 -0.0455141 7.49635e-21)
(1.06724 -0.0421358 -3.16752e-21)
(1.08179 -0.0407994 -7.35023e-21)
(1.04155 -0.0380482 8.78169e-21)
(1.05701 -0.0387753 3.00715e-21)
(1.0294 -0.0461684 4.10836e-21)
(1.33861 -0.0524278 1.28212e-20)
(1.20281 0.00779774 5.51572e-21)
(1.49678 -0.107925 1.30538e-20)
(1.4484 -0.061381 5.44083e-21)
(1.52813 -0.134951 -2.77175e-22)
(1.52146 -0.100057 -4.93375e-21)
(1.50746 -0.144228 -6.24015e-23)
(1.52056 -0.118675 -2.82427e-22)
(1.46633 -0.14232 2.6092e-22)
(1.48831 -0.124343 2.57015e-22)
(1.42141 -0.135452 1.12204e-22)
(1.44425 -0.122204 1.94472e-21)
(1.38128 -0.126792 2.8003e-23)
(1.402 -0.116589 -7.76092e-21)
(1.34788 -0.117999 -3.60919e-22)
(1.36584 -0.109752 1.10191e-21)
(1.32045 -0.109704 -2.30323e-22)
(1.33604 -0.102771 -6.84714e-22)
(1.29742 -0.102031 2.26742e-25)
(1.3113 -0.096049 -1.0169e-21)
(1.27737 -0.0949205 -2.95801e-22)
(1.29012 -0.0896801 4.96347e-22)
(1.25919 -0.0882685 -9.11474e-22)
(1.27129 -0.0836393 1.43329e-22)
(1.2421 -0.0819808 -6.49187e-22)
(1.25388 -0.0778724 1.42175e-21)
(1.22553 -0.075985 1.83262e-22)
(1.23725 -0.0723293 0)
(1.20907 -0.0702311 1.14285e-23)
(1.22092 -0.0669735 1.84803e-22)
(1.19238 -0.0646884 1.88605e-23)
(1.20451 -0.0617835 -2.52173e-21)
(1.17521 -0.0593439 -9.21992e-22)
(1.18773 -0.0567557 2.68797e-21)
(1.1573 -0.0542008 -9.4411e-22)
(1.17031 -0.0519094 2.20864e-21)
(1.13843 -0.04928 1.94955e-22)
(1.15201 -0.0472831 -2.49005e-21)
(1.11829 -0.0446253 4.11305e-22)
(1.13255 -0.0428816 0)
(1.09643 -0.0403255 -1.73623e-23)
(1.11155 -0.0386526 4.1396e-22)
(1.0724 -0.0365364 -1.23724e-21)
(1.08844 -0.0351203 -6.64448e-21)
(1.04612 -0.0333749 -1.73958e-21)
(1.06286 -0.0348622 2.99834e-21)
(1.03577 -0.0405039 -3.691e-21)
(1.30703 0.00615354 -1.76627e-21)
(1.1658 0.0626916 2.13661e-20)
(1.47189 -0.0499771 -1.27313e-20)
(1.41314 -0.00348955 -2.1413e-20)
(1.51419 -0.0834503 -5.0255e-21)
(1.49861 -0.0468361 -4.93375e-21)
(1.50219 -0.100017 0)
(1.50817 -0.0726835 0)
(1.46708 -0.105182 1.91517e-21)
(1.48396 -0.085005 -1.51628e-20)
(1.42551 -0.104191 -5.60779e-21)
(1.44496 -0.0892512 6.23772e-21)
(1.38707 -0.100154 -6.78519e-21)
(1.40554 -0.0886116 1.16208e-21)
(1.35436 -0.0949213 9.32883e-22)
(1.37076 -0.0856415 1.20617e-21)
(1.32716 -0.0893796 -1.39198e-21)
(1.34158 -0.0816458 3.60331e-21)
(1.30422 -0.0838825 -4.94799e-22)
(1.31715 -0.0772607 -3.477e-21)
(1.28422 -0.0785361 9.37716e-22)
(1.29618 -0.0727622 -5.05369e-24)
(1.26614 -0.0733505 2.46036e-21)
(1.27755 -0.0682556 1.39899e-21)
(1.24918 -0.0683084 2.08256e-21)
(1.26038 -0.0637772 -2.59505e-21)
(1.23278 -0.0633914 0)
(1.24402 -0.0593408 2.89377e-21)
(1.2165 -0.0585896 -2.32766e-21)
(1.22797 -0.0549579 0)
(1.19999 -0.0539071 1.07889e-22)
(1.21185 -0.0506473 -1.94423e-21)
(1.18296 -0.0493652 5.82285e-21)
(1.19532 -0.0464438 -2.27142e-23)
(1.16513 -0.0450095 6.96277e-22)
(1.17811 -0.0424082 5.7513e-21)
(1.14623 -0.0409171 -2.70161e-21)
(1.15991 -0.0386214 -4.80015e-21)
(1.12587 -0.0372035 0)
(1.14037 -0.035128 0)
(1.10359 -0.0340071 -6.20245e-21)
(1.11904 -0.0319481 -2.4431e-21)
(1.07894 -0.0314236 -4.86202e-21)
(1.09548 -0.0298244 -3.71606e-21)
(1.05181 -0.0294935 1.10079e-21)
(1.06955 -0.0315585 6.98777e-21)
(1.041 -0.0371567 2.36551e-21)
(1.26582 0.0596192 7.36912e-22)
(1.11867 0.112477 1.6184e-20)
(1.4382 0.00305338 -1.44634e-20)
(1.36874 0.0490232 -1.41668e-20)
(1.49268 -0.0357914 0)
(1.46746 0.00185201 -1.44361e-20)
(1.49064 -0.05842 -1.49092e-20)
(1.48913 -0.0299031 5.75454e-20)
(1.46272 -0.069973 -1.11654e-20)
(1.47395 -0.0482518 2.35138e-22)
(1.42569 -0.0743598 1.35391e-20)
(1.44133 -0.0581291 4.293e-21)
(1.38977 -0.074609 9.0984e-21)
(1.40573 -0.0620417 -1.25655e-20)
(1.35838 -0.0727092 3.98148e-21)
(1.37306 -0.062656 0)
(1.33186 -0.0697574 1.81715e-21)
(1.34503 -0.0614513 7.57838e-21)
(1.30934 -0.0663028 -3.06262e-21)
(1.32128 -0.0592538 -3.19301e-21)
(1.2897 -0.0626031 5.00215e-22)
(1.30082 -0.0565001 1.25004e-21)
(1.27195 -0.058778 -3.61288e-21)
(1.28264 -0.0534174 4.29713e-22)
(1.25536 -0.0548881 -1.77635e-21)
(1.26592 -0.0501307 -4.65289e-21)
(1.23933 -0.0509736 2.91791e-21)
(1.25002 -0.04672 2.89377e-21)
(1.22343 -0.0470729 3.85936e-22)
(1.23444 -0.0432495 9.63646e-21)
(1.20729 -0.0432336 -2.08368e-21)
(1.21877 -0.0397841 -1.18234e-20)
(1.19057 -0.0395214 -8.86606e-23)
(1.20266 -0.0364018 4.80221e-21)
(1.17296 -0.0360279 3.40697e-22)
(1.18577 -0.0332057 -1.40977e-21)
(1.15411 -0.0328771 -2.17351e-21)
(1.16776 -0.0303157 -1.11954e-20)