/*--------------------------------*- C++ -*----------------------------------*\
  =========                 |
  \\      /  F ield         | OpenFOAM: The Open Source CFD Toolbox
   \\    /   O peration     | Website:  https://openfoam.org
    \\  /    A nd           | Version:  11
     \\/     M anipulation  |
\*---------------------------------------------------------------------------*/
FoamFile
{
    format      ascii;
    class       volScalarField;
    location    "1.96";
    object      epsilon;
}
// * * * * * * * * * * * * * * * * * * * * * * * * * * * * * * * * * * * * * //

dimensions      [0 2 -3 0 0 0 0];

internalField   nonuniform List<scalar> 
2880
(
2.91057
6.89881
10.1037
9.58946
7.89898
26.3717
1.02815
4.47057
5.7291
5.56783
5.39985
6.61959
1.48049
3.68768
4.28968
4.17811
3.98258
3.81398
2.05206
3.31048
3.62845
3.49457
3.23907
2.8293
2.57112
3.07437
3.24249
3.09323
2.81241
2.3752
3.03069
2.90952
2.9912
2.84072
2.55973
2.1396
3.43217
2.7949
2.8196
2.67935
2.41274
2.01662
3.76643
2.71486
2.70088
2.57941
2.33585
1.96312
4.03047
2.65973
2.62034
2.524
2.30956
1.95972
4.22423
2.62284
2.56927
2.50274
2.32109
1.99514
4.34982
2.60008
2.54179
2.50821
2.36581
2.06909
4.40944
2.58955
2.53364
2.53507
2.44096
2.17881
4.41159
2.59247
2.53995
2.58254
2.5434
2.32502
4.37597
2.60939
2.55857
2.64499
2.6713
2.50963
4.29259
2.63208
2.58659
2.71821
2.82256
2.73513
4.15269
2.65078
2.61762
2.79742
2.99494
3.00292
3.94788
2.65399
2.6448
2.87774
3.18433
3.31868
3.66922
2.63536
2.66086
2.95545
3.38643
3.69148
3.30834
2.58368
2.66252
3.0302
3.59748
4.13787
2.85931
2.4861
2.65729
3.11163
3.81867
4.69843
2.32283
2.35554
2.68041
3.23103
4.071
5.50704
1.71451
2.24881
2.83051
3.48148
4.46266
7.05254
1.18466
2.44002
3.45905
4.23676
5.3455
11.3152
3.25116
4.89464
6.98244
7.76835
8.54464
37.9786
2.80902
0.861388
0.301738
0.118045
0.0522073
0.0258755
0.0139839
0.00808691
0.00491261
0.00309665
0.0020249
0.00137987
0.000986967
0.000746376
0.000598972
0.000509182
0.000455054
0.00042272
0.00040342
0.000391776
0.000384605
0.000380123
0.000377392
0.000375791
2.27048
0.833309
0.307081
0.122633
0.0546493
0.0271282
0.0146286
0.00842002
0.00508044
0.00317592
0.00205898
0.00139274
0.000989624
0.000743564
0.000593633
0.000503172
0.000449312
0.000417693
0.000399261
0.000388501
0.000382189
0.000378512
0.000376461
0.000375391
1.89316
0.780293
0.306252
0.126292
0.0571287
0.0285201
0.0153875
0.00883644
0.00530563
0.00329546
0.00212038
0.00142207
0.00100218
0.000748083
0.000594081
0.000501442
0.000446641
0.000414861
0.000396671
0.000386339
0.000380541
0.000377413
0.000375869
0.000375163
1.66266
0.733544
0.30413
0.129769
0.0598132
0.030099
0.0162725
0.00933734
0.00558837
0.00345526
0.00221044
0.00147231
0.00102953
0.000762108
0.000600577
0.000503892
0.000447051
0.000414246
0.00039564
0.000385248
0.000379603
0.000376791
0.000375528
0.000375062
1.51513
0.70156
0.304376
0.133982
0.0629169
0.0319206
0.017309
0.00993831
0.00593677
0.00365853
0.00232974
0.00154263
0.00107102
0.000786425
0.000614564
0.00051163
0.000451013
0.000416062
0.000396309
0.000385353
0.00037952
0.000376665
0.000375434
0.000375032
1.42568
0.686412
0.308732
0.139701
0.0666436
0.0340738
0.0185407
0.0106614
0.0063637
0.00391341
0.00248354
0.00163633
0.00112857
0.000821915
0.000636385
0.000524875
0.000458874
0.000420604
0.00039886
0.000386737
0.000380205
0.000376975
0.00037556
0.000375069
1.38021
0.688953
0.318818
0.147395
0.0712475
0.0366758
0.0200231
0.0115348
0.00688553
0.00423003
0.00267833
0.00175772
0.00120511
0.000870612
0.000667492
0.00054468
0.000471361
0.000428387
0.000403672
0.00038969
0.000381925
0.000377901
0.000376017
0.000375226
1.37127
0.708867
0.33538
0.157721
0.07704
0.0398688
0.0218249
0.0125941
0.00752267
0.00462099
0.00292231
0.00191229
0.00130439
0.000935142
0.000709757
0.000572403
0.000489461
0.00044012
0.000411236
0.00039453
0.000384944
0.000379582
0.000376896
0.000375642
1.39512
0.746015
0.359627
0.171439
0.0843912
0.0438273
0.0240317
0.0138839
0.00830067
0.00510205
0.00322569
0.00210689
0.00143117
0.00101886
0.000765603
0.000609826
0.000514504
0.000456796
0.000422279
0.00040178
0.00038958
0.000382371
0.000378418
0.000376414
1.45139
0.801901
0.393216
0.189505
0.0937693
0.0487736
0.0267528
0.0154605
0.00925153
0.00569279
0.00360117
0.00235013
0.00159143
0.00112604
0.000838135
0.000659258
0.000548236
0.000479737
0.000437795
0.000412173
0.000396367
0.000386592
0.00038089
0.00037771
1.54057
0.879312
0.438532
0.213205
0.105792
0.0549981
0.0301292
0.017396
0.0104156
0.00641765
0.00406452
0.00265267
0.00179263
0.00126203
0.000931276
0.000723631
0.000592887
0.000510662
0.000459107
0.000426721
0.00040607
0.000392764
0.00038453
0.000379675
1.66519
0.9821
0.499172
0.244317
0.121296
0.0628898
0.034347
0.0197836
0.011844
0.00730721
0.00463531
0.00302771
0.00204404
0.00143352
0.00104997
0.000806666
0.000651313
0.000551793
0.000487944
0.000446737
0.000419626
0.00040149
0.000389695
0.000382483
1.82958
1.11573
0.579757
0.285278
0.141434
0.0729784
0.0396555
0.0227459
0.0136025
0.00839998
0.00533786
0.00349158
0.00235714
0.00164885
0.00120043
0.0009131
0.000727186
0.000606012
0.000526566
0.000473954
0.000438289
0.000413592
0.000396878
0.000386362
2.03986
1.28782
0.685833
0.339382
0.167802
0.0859939
0.0463932
0.0264457
0.0157766
0.00974486
0.00620255
0.00406449
0.0027461
0.0019184
0.00139047
0.00104894
0.000825206
0.000677033
0.000577906
0.000510627
0.000463701
0.000430197
0.000406896
0.000391714
2.30399
1.50777
0.82482
0.411137
0.202612
0.102948
0.055024
0.0311024
0.0184783
0.0114045
0.00726748
0.00477143
0.00322838
0.00225493
0.00162977
0.0012217
0.000951292
0.000769562
0.000645702
0.000559698
0.000498125
0.000452974
0.000420787
0.000399001
2.63206
1.78722
1.00615
0.506674
0.248934
0.125247
0.0661871
0.0370149
0.0218566
0.0134598
0.00858077
0.00564339
0.00382535
0.00267402
0.00193014
0.0014406
0.00111277
0.00088948
0.000734695
0.000624968
0.000544541
0.000484094
0.000439881
0.000408737
3.03293
2.1406
1.24103
0.634366
0.310976
0.154832
0.080763
0.0445968
0.0261124
0.0160168
0.0102037
0.00671896
0.0045632
0.00319457
0.00230588
0.00171683
0.0013186
0.00104405
0.000850819
0.000711266
0.000606768
0.000526361
0.000465931
0.000421601
3.51419
2.58671
1.54313
0.803804
0.394272
0.194343
0.0999412
0.0544375
0.031518
0.0192156
0.0122152
0.00804664
0.00547414
0.00383945
0.00277415
0.0020638
0.00157959
0.00124216
0.00100142
0.000824639
0.000689658
0.000583406
0.000501271
0.000438502
4.09144
3.14422
1.92662
1.02594
0.505832
0.24733
0.125377
0.0672827
0.0384379
0.0232425
0.0147182
0.00968812
0.00659816
0.00463649
0.00335554
0.00249751
0.00190863
0.00149446
0.00119544
0.000972573
0.000799319
0.000659901
0.000548978
0.000460645
4.80361
3.83001
2.40398
1.31167
0.653951
0.318345
0.159267
0.0841538
0.0473658
0.0283472
0.0178482
0.0117229
0.0079856
0.00561995
0.00407489
0.00303703
0.00232103
0.00181366
0.00144362
0.0011642
0.00094337
0.000761821
0.00061308
0.000489592
5.7419
4.66224
2.98326
1.66935
0.847197
0.412863
0.204429
0.106407
0.0589732
0.0348667
0.0217856
0.0142549
0.00970092
0.0068327
0.00496264
0.00370527
0.00283494
0.00221474
0.00175873
0.00141053
0.0011312
0.000896754
0.000698837
0.00052732
7.14883
5.68265
3.66681
2.10164
1.09162
0.536775
0.264285
0.13578
0.0741522
0.0432521
0.0267712
0.0174215
0.0118281
0.00832959
0.00605697
0.00453038
0.00347227
0.00271557
0.0021559
0.00172472
0.00137433
0.00107434
0.000813134
0.000576179
10.0736
6.96725
4.46075
2.6049
1.38873
0.694951
0.342698
0.174434
0.0940124
0.0540937
0.0331252
0.0214055
0.0144781
0.0101823
0.00740703
0.00554796
0.00426014
0.00333785
0.00265322
0.00212241
0.00168654
0.00130665
0.00096572
0.000639693
18.1918
9.33936
5.47004
3.18259
1.73614
0.889296
0.443306
0.224912
0.119953
0.068158
0.0412714
0.026451
0.0177994
0.0124866
0.009078
0.00680481
0.00523379
0.00410927
0.00327342
0.00262306
0.00208528
0.00160953
0.00116908
0.000722155
4.36315
3.96861
3.93265
3.0941
2.28807
2.19365
1.38139
2.22127
2.28896
1.97667
1.64003
2.14434
1.9939
2.21175
2.15426
1.8745
1.60165
1.99436
2.553
2.41072
2.21458
1.91292
1.65862
1.95629
3.01388
2.56865
2.29817
1.99909
1.75402
1.96116
3.40272
2.66807
2.37517
2.10383
1.88138
2.0107
3.7378
2.72646
2.44883
2.22457
2.04195
2.11994
4.02837
2.76369
2.52624
2.3623
2.23441
2.29034
4.27916
2.79358
2.61189
2.51665
2.45515
2.51829
4.49356
2.82655
2.70726
2.6851
2.69839
2.80037
4.67544
2.87004
2.81138
2.86291
2.95749
3.12866
4.82977
2.92996
2.9216
3.04464
3.22491
3.48431
4.91174
2.99525
3.03461
3.22294
3.48633
3.84112
4.91322
3.06077
3.14729
3.3907
3.72649
4.17044
4.83312
3.12423
3.25724
3.54202
3.93113
4.44469
4.66508
3.18486
3.36369
3.67339
4.08952
4.63842
4.40415
3.24342
3.46831
3.78503
4.19788
4.72694
4.04815
3.3031
3.57542
3.88391
4.26469
4.72894
3.59742
3.37112
3.69418
3.98599
4.30964
4.65874
3.0584
3.46273
3.84374
4.11861
4.37363
4.58305
2.45034
3.59498
4.06572
4.33453
4.52747
4.58254
1.77991
3.8378
4.46675
4.73195
4.92257
5.00883
1.18948
4.46057
5.46842
5.65144
5.87493
7.18127
3.34583
7.01894
9.25868
8.83589
7.50713
26.2964
14.3886
10.4242
6.33349
3.76404
2.1158
1.11699
0.568066
0.289789
0.153695
0.0864275
0.0517672
0.0328836
0.0219916
0.0153718
0.0111586
0.00836503
0.00644186
0.00506831
0.00404805
0.00325341
0.0025941
0.00200454
0.00144145
0.000829509
10.1238
9.86732
7.00938
4.29646
2.50344
1.37048
0.717086
0.371184
0.197133
0.11012
0.0653367
0.0411357
0.0273228
0.0190133
0.0137706
0.0103187
0.00795486
0.00627316
0.00502707
0.00405751
0.00325269
0.00252859
0.00181615
0.000975823
6.98534
8.77167
7.12882
4.68501
2.86416
1.63714
0.887904
0.470459
0.252182
0.140676
0.0828995
0.0517739
0.0341492
0.0236456
0.0170785
0.0127895
0.00987359
0.00781247
0.00629416
0.00511889
0.00414748
0.00327251
0.00238799
0.00126443
4.89874
7.71843
6.95328
4.9455
3.17746
1.90416
1.07621
0.588009
0.320628
0.179724
0.105588
0.0655234
0.0429321
0.0295711
0.0212908
0.0159316
0.0123222
0.00979813
0.00796455
0.006574
0.00545935
0.00450205
0.00366065
0.00313051
3.73426
6.81037
6.57787
5.12034
3.43968
2.16019
1.27602
0.722946
0.403866
0.228985
0.134744
0.0832879
0.0542528
0.0371632
0.0266515
0.0199094
0.0154178
0.0123243
0.0101347
0.00855502
0.00740685
0.00659104
0.00611314
0.00611727
3.16575
6.04809
6.06415
5.11371
3.62974
2.39246
1.47959
0.87266
0.502471
0.290061
0.171864
0.106158
0.0688332
0.0468823
0.0334501
0.0249025
0.0192699
0.0154553
0.012834
0.0110459
0.00988301
0.00923355
0.00906691
0.00933134
2.96685
5.40102
5.60224
5.02421
3.74953
2.59089
1.67883
1.03325
0.61602
0.36421
0.218507
0.135408
0.0875695
0.0593179
0.0420639
0.0311515
0.0240337
0.0192924
0.016124
0.0140653
0.012842
0.0122884
0.0123026
0.012687
2.95568
4.92361
5.21554
4.85775
3.83442
2.75631
1.86632
1.19934
0.742739
0.452026
0.276124
0.172462
0.111558
0.0752323
0.0530004
0.0389887
0.0299249
0.0239705
0.0200761
0.0176278
0.0162491
0.0156956
0.0157841
0.0162368
3.0613
4.63286
4.91762
4.64037
3.83243
2.878
2.03431
1.36456
0.879354
0.553073
0.345789
0.218781
0.14209
0.0955991
0.0669411
0.0488744
0.0372458
0.0296775
0.0247916
0.0217672
0.020091
0.0194238
0.0195068
0.019982
3.28003
4.54328
4.7293
4.46259
3.79393
2.95896
2.17791
1.52257
1.02179
0.6659
0.427989
0.275713
0.180613
0.121626
0.0847865
0.0614411
0.0464222
0.0366862
0.0304306
0.0265637
0.0243954
0.0234726
0.0234692
0.0239161
3.59756
4.61483
4.69743
4.37536
3.75152
3.00877
2.29443
1.66782
1.16442
0.787854
0.522408
0.344298
0.22863
0.154748
0.107695
0.0775443
0.0580514
0.0453935
0.0372428
0.0321631
0.02924
0.0278779
0.0276626
0.0280478
3.98269
4.80753
4.78795
4.39146
3.73154
3.04364
2.38798
1.79735
1.30209
0.9147
0.627429
0.424857
0.287456
0.196534
0.137089
0.0983148
0.0729646
0.0563778
0.0456116
0.0388064
0.0347655
0.0327108
0.0321202
0.0323843
4.3973
5.11645
5.04637
4.51293
3.76875
3.08772
2.46937
1.91235
1.43229
1.04205
0.74025
0.516697
0.357892
0.248494
0.174597
0.12519
0.0922987
0.0704773
0.0561235
0.0468842
0.0412194
0.0381155
0.0369132
0.0369647
4.80198
5.47895
5.43673
4.81833
3.92002
3.17729
2.55767
2.02038
1.55562
1.16767
0.85742
0.618032
0.439906
0.311781
0.221897
0.159887
0.117554
0.0888848
0.0696657
0.0570221
0.0490204
0.0443607
0.0422088
0.041862
5.15444
5.82844
5.87212
5.28586
4.24665
3.36794
2.68772
2.13858
1.67842
1.29294
0.977593
0.726704
0.532563
0.386877
0.280438
0.20427
0.150599
0.113237
0.0875538
0.0702108
0.0588671
0.0519112
0.0482948
0.0472578
5.39302
6.1048
6.27736
5.79581
4.73227
3.71035
2.91112
2.30119
1.81822
1.42474
1.10298
0.842438
0.635075
0.473784
0.351264
0.260145
0.193572
0.145656
0.111667
0.0879807
0.0719201
0.0615837
0.0557058
0.053506
5.46753
6.23593
6.54416
6.21292
5.28303
4.19854
3.27301
2.55717
2.0103
1.58349
1.24334
0.96932
0.748743
0.573062
0.435332
0.329198
0.248754
0.188704
0.144541
0.112612
0.0900716
0.0748103
0.0654381
0.0612664
5.38744
6.18188
6.57834
6.43018
5.736
4.73126
3.75574
2.93862
2.2985
1.80562
1.42316
1.12167
0.881176
0.688648
0.535106
0.413701
0.318761
0.245402
0.189429
0.147333
0.116276
0.0940847
0.0793499
0.0717847
5.13593
5.88129
6.32801
6.37052
5.93801
5.14375
4.24809
3.4074
2.69565
2.12512
1.67785
1.32792
1.05227
0.833426
0.658794
0.519289
0.408122
0.320001
0.250652
0.196582
0.154954
0.123545
0.100933
0.0874902
4.74302
5.33113
5.80245
5.99328
5.8083
5.28728
4.58555
3.83699
3.13449
2.52537
2.02145
1.61481
1.29015
1.03155
0.825175
0.659969
0.527395
0.420911
0.335465
0.267097
0.212691
0.169765
0.136517
0.113139
4.27795
4.59707
5.03672
5.31727
5.34699
5.10695
4.63591
4.07058
3.47591
2.90826
2.40031
1.96433
1.59987
1.30002
1.05545
0.856716
0.695366
0.564286
0.457696
0.370949
0.300414
0.243088
0.197
0.157964
3.80362
3.77915
4.12151
4.44616
4.61601
4.59176
4.38476
4.01643
3.58483
3.13498
2.69451
2.28693
1.92378
1.60858
1.33984
1.11339
0.923956
0.766153
0.635
0.526001
0.435656
0.360033
0.299727
0.239175
3.33972
2.99593
3.20803
3.50999
3.748
3.86028
3.83083
3.68123
3.42532
3.11416
2.78665
2.46196
2.15226
1.86658
1.60974
1.38293
1.18511
1.01395
0.866756
0.740504
0.633248
0.539992
0.466755
0.384639
2.94529
2.32775
2.42384
2.66435
2.90039
3.06438
3.13428
3.11147
3.01007
2.84428
2.64108
2.41893
2.19347
1.9742
1.76736
1.57732
1.40551
1.25104
1.11254
0.989547
0.88274
0.787923
0.712184
0.627302
1.57657
1.93298
3.12836
4.19016
5.03986
5.73194
0.751037
1.11037
1.6383
2.1194
2.53557
2.76378
0.213392
0.880252
1.20783
1.51054
1.78263
1.90002
0.241534
0.780438
1.02116
1.24291
1.43983
1.52077
0.263118
0.725447
0.917547
1.09716
1.25673
1.3274
0.276976
0.696554
0.853559
1.0097
1.1522
1.22609
1.20082
0.691721
0.812117
0.955098
1.09014
1.17745
1.2682
0.690568
0.784594
0.920325
1.05461
1.15981
1.32293
0.691475
0.766023
0.897901
1.03638
1.16099
1.36138
0.693191
0.753243
0.883113
1.02846
1.17415
1.38203
0.694922
0.744116
0.87273
1.02604
1.19412
1.38392
0.696333
0.73713
0.864376
1.02545
1.2164
1.36697
0.697643
0.731176
0.856222
1.02391
1.23724
1.33934
0.700043
0.725399
0.846758
1.01919
1.25367
1.29968
0.700204
0.718893
0.834902
1.00957
1.26373
1.24855
0.694271
0.710287
0.820311
0.994104
1.2666
1.19322
0.67456
0.698131
0.803477
0.973045
1.26518
0.280821
0.619083
0.682564
0.785919
0.948387
1.2682
0.275953
0.570331
0.668927
0.76979
0.924899
1.28597
0.266102
0.541671
0.664825
0.761867
0.910365
1.32941
0.250468
0.543128
0.680287
0.773494
0.915832
1.4027
0.228962
0.597117
0.744856
0.834885
0.961366
1.50931
0.859241
0.857855
0.97762
1.07131
1.13657
1.70467
2.06862
2.19154
2.26798
2.33005
2.04053
2.0337
2.12477
1.80678
1.84556
2.01675
2.20336
2.35468
2.44909
2.48336
2.46395
2.39763
2.2939
2.16897
2.03265
1.89269
1.75479
1.62282
1.50061
1.39201
1.2977
1.21495
1.14112
1.07589
1.02238
0.973017
1.70384
1.47615
1.48058
1.59213
1.7192
1.82593
1.89859
1.9368
1.94198
1.92074
1.87434
1.81329
1.74356
1.67015
1.59708
1.52735
1.46305
1.40518
1.35574
1.31681
1.28871
1.26835
1.25349
1.24588
1.46123
1.29294
1.29178
1.36909
1.45279
1.51558
1.55199
1.56583
1.5603
1.541
1.51203
1.47761
1.44155
1.40679
1.37551
1.34919
1.32859
1.31373
1.30393
1.2987
1.29614
1.29496
1.2946
1.29718
1.31722
1.20853
1.21897
1.28607
1.35175
1.39233
1.40883
1.40525
1.38585
1.35677
1.32273
1.28773
1.25477
1.22605
1.20294
1.18616
1.17588
1.17185
1.17312
1.17843
1.18558
1.19135
1.19416
1.19604
1.24229
1.18439
1.21262
1.28351
1.3475
1.38289
1.3937
1.38345
1.35764
1.32289
1.28437
1.24597
1.21034
1.17921
1.15353
1.13352
1.1188
1.10853
1.10153
1.09641
1.09176
1.08691
1.08151
1.07717
1.21453
1.20313
1.26713
1.36078
1.44035
1.4849
1.49967
1.48981
1.46158
1.42254
1.37843
1.33338
1.29018
1.25048
1.21515
1.18444
1.15821
1.13605
1.11741
1.1017
1.08843
1.07714
1.06802
1.06145
1.21641
1.26134
1.37374
1.50724
1.61898
1.68816
1.71806
1.71824
1.69534
1.65798
1.61251
1.5636
1.51438
1.46677
1.4218
1.37983
1.34092
1.30493
1.27176
1.24144
1.21445
1.1921
1.17602
1.16497
1.24376
1.35199
1.52639
1.71612
1.87336
1.97701
2.02907
2.04253
2.0281
1.99482
1.94981
1.89896
1.84637
1.795
1.74505
1.69678
1.65037
1.60581
1.56306
1.52223
1.48401
1.45031
1.42373
1.40217
1.29039
1.47008
1.72159
1.98218
2.19285
2.33101
2.40213
2.42194
2.41164
2.37613
2.32468
2.2665
2.20548
2.14214
2.07866
2.01625
1.95504
1.89471
1.83476
1.7747
1.71463
1.65564
1.60276
1.54745
1.35115
1.61229
1.95754
2.2998
2.5612
2.71853
2.78879
2.78804
2.73153
2.64732
2.55609
2.46436
2.37482
2.28979
2.20947
2.13271
2.05845
1.98569
1.91344
1.84082
1.76779
1.69408
1.62807
1.55008
1.42152
1.77676
2.23438
2.66123
2.9511
3.08659
3.07146
2.97331
2.84794
2.72511
2.60428
2.48826
2.37816
2.27358
2.17368
2.07765
1.98453
1.89295
1.80173
1.70955
1.61713
1.51882
1.4345
1.31087
1.49759
1.96415
2.55548
3.05205
3.31594
3.30965
3.17046
2.99147
2.80077
2.60909
2.42773
2.26051
2.10741
1.96666
1.83598
1.71318
1.59558
1.4806
1.36739
1.25419
1.14467
1.02703
0.931585
0.779008
1.57646
2.18063
2.92773
3.44187
3.55002
3.3745
3.08577
2.7659
2.45976
2.185
1.94465
1.73579
1.55309
1.39042
1.24323
1.10779
0.976683
0.852158
0.736014
0.628499
0.531604
0.44246
0.376434
0.301629
1.65724
2.44353
3.35819
3.77918
3.63201
3.22859
2.7261
2.27141
1.88765
1.57262
1.31565
1.10479
0.926551
0.77268
0.641309
0.529359
0.439598
0.366914
0.30728
0.257974
0.217194
0.183119
0.156151
0.131424
1.74295
2.78994
3.83524
3.97513
3.58078
2.83782
2.20127
1.69769
1.31222
1.02006
0.79792
0.626345
0.495383
0.397976
0.322898
0.263979
0.217209
0.179854
0.149874
0.125765
0.10644
0.0910947
0.0792641
0.0719056
1.84308
3.27902
4.28144
4.05829
3.25785
2.38375
1.727
1.25413
0.919129
0.68193
0.512403
0.39098
0.303961
0.239654
0.191266
0.154279
0.1257
0.103439
0.0860343
0.0724694
0.0620587
0.0543028
0.0490343
0.04762
1.98469
3.96071
4.60824
4.07199
2.90197
2.00414
1.38503
0.966886
0.686419
0.497173
0.367724
0.277226
0.21221
0.164708
0.129505
0.103108
0.0831337
0.0679457
0.0564136
0.0477792
0.0415401
0.0373166
0.035136
0.0357553
2.2157
4.77752
4.85976
3.89691
2.57668
1.69143
1.11572
0.74816
0.51377
0.361848
0.260939
0.192312
0.144524
0.110468
0.0857642
0.0676356
0.0542544
0.0443589
0.0371368
0.032041
0.0286748
0.0267858
0.0265164
0.0278113
2.64058
5.51399
5.09654
3.58275
2.24046
1.38816
0.870575
0.561063
0.373403
0.255925
0.179978
0.129337
0.0948304
0.0709854
0.0543326
0.0426059
0.0343071
0.0284717
0.0244321
0.0217889
0.0203078
0.0198976
0.0204045
0.0221562
3.44834
6.09582
5.19983
3.23643
1.88915
1.102
0.662414
0.41559
0.271155
0.182957
0.127055
0.0906326
0.0663584
0.0498722
0.0385056
0.0305772
0.0250129
0.0211308
0.0185125
0.0169014
0.0161435
0.0161752
0.0168533
0.018591
4.83152
6.61881
5.13929
2.83166
1.52194
0.844989
0.495718
0.30648
0.197776
0.132182
0.0911686
0.0648271
0.0475371
0.0359574
0.0280494
0.0225599
0.0187199
0.016062
0.0143107
0.0133033
0.0129504
0.0131412
0.0139226
0.0155122
7.04098
7.33761
4.72238
2.30139
1.16596
0.633052
0.368202
0.226067
0.144762
0.096126
0.0660682
0.0469809
0.0345507
0.0262646
0.0206289
0.0167405
0.0140484
0.0122189
0.0110562
0.0104471
0.0103344
0.010612
0.011399
0.0127593
9.78067
7.87626
3.75389
1.74644
0.868912
0.471016
0.273768
0.167561
0.106968
0.0709834
0.0489181
0.0349875
0.0259456
0.0199226
0.0158188
0.0129772
0.0110026
0.00965934
0.00881214
0.00838637
0.0083457
0.00861547
0.00930897
0.0104354
13.5581
7.71294
3.02613
1.30583
0.643266
0.350992
0.204665
0.125292
0.0800561
0.0533046
0.0369517
0.026634
0.0199248
0.0154394
0.0123687
0.0102305
0.0087344
0.00770807
0.00705388
0.00672057
0.0066849
0.0069054
0.00746997
0.00838545
2.77659
7.4752
10.8218
11.7613
10.7359
42.4543
0.97054
3.89806
5.8861
7.52459
9.97315
13.3729
1.31852
3.12342
4.73544
6.33219
7.69338
7.99358
1.75913
2.83812
4.25535
5.69527
6.3772
5.94463
2.12045
2.71173
3.99358
5.23846
5.46496
4.71469
2.40535
2.65508
3.82783
4.88124
4.81594
3.8183
2.61978
2.63145
3.71499
4.6045
4.35699
3.19483
2.77056
2.62071
3.63472
4.40177
4.02159
2.77157
2.86406
2.60909
3.57426
4.25927
3.77722
2.47972
2.90554
2.58707
3.52439
4.16161
3.60529
2.27885
2.90123
2.54808
3.47864
4.09528
3.4968
2.14397
2.85181
2.48798
3.43013
4.05562
3.44893
2.06017
2.76251
2.40481
3.37276
4.04069
3.45377
2.02187
2.64106
2.29838
3.30144
4.04087
3.51193
2.02912
2.49267
2.16918
3.21073
4.06123
3.62264
2.0854
2.31826
2.01794
3.09243
4.0927
3.78643
2.19971
2.11845
1.8459
2.93515
4.1259
4.00316
2.38531
1.8918
1.65476
2.72366
4.14242
4.27028
2.66577
1.62992
1.44546
2.44746
4.12072
4.59102
3.07865
1.30707
1.21231
2.12452
3.97593
4.96714
3.68845
0.275904
0.952325
1.79436
3.61347
5.3788
4.60832
0.253642
0.81794
1.48689
2.93949
5.61888
5.98961
0.966154
0.928717
1.3372
2.1383
5.21749
8.20447
2.52279
1.95139
2.18102
2.27508
3.23193
26.3892
17.0772
5.10237
1.94221
0.901391
0.471128
0.263135
0.154342
0.0947122
0.0607503
0.0406931
0.0284224
0.0206561
0.0155816
0.0121686
0.00981561
0.0081631
0.00699356
0.00617696
0.00563973
0.00534485
0.00527719
0.00542361
0.0058462
0.00657261
7.73343
3.08767
1.40493
0.693347
0.363047
0.201406
0.117931
0.0725881
0.0468391
0.0316135
0.0222619
0.0163096
0.0123943
0.00974163
0.00789745
0.0065885
0.00564763
0.0049733
0.00450712
0.00421966
0.0041004
0.00415547
0.00443066
0.00498423
4.97595
2.2649
1.05018
0.517923
0.27403
0.153868
0.0909384
0.0564223
0.0367007
0.0249733
0.0177242
0.013077
0.00999715
0.00789389
0.00641881
0.00536011
0.00458618
0.00401497
0.0035971
0.00330581
0.00313058
0.00308222
0.00320888
0.00359091
3.58997
1.66081
0.790362
0.400202
0.214108
0.12057
0.0714889
0.0446126
0.0292334
0.0200436
0.014324
0.0106296
0.00816229
0.00646424
0.00526324
0.00439205
0.00374502
0.00325413
0.00287577
0.0025829
0.00236064
0.00221101
0.00218231
0.00238586
2.66192
1.2665
0.61707
0.31467
0.16871
0.0953963
0.0569383
0.0358114
0.0236502
0.0163296
0.0117379
0.00874953
0.00673941
0.00534632
0.00435374
0.0036273
0.00308091
0.00265768
0.00231892
0.00203737
0.00179322
0.00157676
0.00140541
0.00137753
2.08669
1.00502
0.493503
0.25237
0.135563
0.0769147
0.0461628
0.0292301
0.0194327
0.013495
0.00974433
0.00728717
0.00562446
0.00446583
0.00363586
0.00302488
0.00256202
0.00219997
0.00190592
0.00165561
0.00142923
0.00121202
0.00100138
0.000735283
1.71057
0.824317
0.40447
0.206364
0.110802
0.0630428
0.0380391
0.0242345
0.0162025
0.0113028
0.00818836
0.00613691
0.0047426
0.00376758
0.00306721
0.00255052
0.00215857
0.00185208
0.00160397
0.00139432
0.00120663
0.00102831
0.000854576
0.000643224
1.45308
0.695016
0.338793
0.172031
0.092248
0.052592
0.0318723
0.0204059
0.0137011
0.00958787
0.00696009
0.00522237
0.00403806
0.00320856
0.00261235
0.00217266
0.00183962
0.00157997
0.00137085
0.00119537
0.00103934
0.000892531
0.000753482
0.000594321
1.27175
0.600763
0.289963
0.146288
0.0782574
0.0446489
0.0271437
0.0174404
0.0117429
0.00823177
0.00598035
0.00448788
0.00346955
0.00275633
0.00224424
0.00186731
0.00158258
0.0013614
0.00118411
0.00103622
0.000905679
0.000784554
0.00067315
0.000552383
1.14205
0.531439
0.253509
0.126945
0.0676665
0.0385704
0.0234883
0.0151229
0.0101957
0.00714942
0.00519171
0.00389274
0.00300678
0.00238724
0.00194353
0.00161804
0.00137319
0.00118392
0.00103312
0.000908279
0.000799135
0.00069947
0.000610246
0.0005177
1.05
0.480822
0.226591
0.112409
0.0595976
0.033894
0.020644
0.0132983
0.00896366
0.00627883
0.00455205
0.00340696
0.00262741
0.0020839
0.0016962
0.00141317
0.00120143
0.0010388
0.00091022
0.000804725
0.000713548
0.000631724
0.000560287
0.000489092
0.988152
0.444989
0.206723
0.101472
0.0534529
0.0302926
0.0184221
0.0118544
0.00797696
0.00557432
0.00403011
0.00300815
0.0023147
0.00183335
0.00149183
0.00124406
0.00106003
0.000919815
0.000809963
0.000720795
0.000644718
0.00057766
0.000520444
0.000465565
0.950197
0.420441
0.192443
0.0933823
0.0488129
0.0275277
0.0166853
0.010709
0.00718392
0.00500185
0.00360237
0.00267934
0.00205591
0.00162563
0.00132241
0.00110414
0.000943416
0.000822154
0.000728178
0.000652825
0.000589432
0.000534544
0.000488664
0.000446289
0.933095
0.405625
0.182807
0.0875995
0.0453769
0.0254267
0.0153339
0.00980157
0.00654612
0.00453581
0.00325097
0.00240751
0.00184115
0.00145299
0.00118167
0.00098816
0.000847148
0.000741975
0.000661492
0.000597836
0.000545075
0.00050018
0.000463316
0.000430547
0.934867
0.39943
0.177197
0.0837526
0.0429318
0.0238662
0.0142949
0.00908742
0.00603475
0.00415675
0.00296214
0.00218253
0.00166269
0.00130932
0.00106461
0.000891951
0.000767643
0.000676162
0.00060716
0.000553404
0.000509538
0.000472821
0.000443124
0.000417749
0.959412
0.400916
0.175224
0.0816018
0.04133
0.0227585
0.0135154
0.00853331
0.00562806
0.00384977
0.00272524
0.00199645
0.00151439
0.0011897
0.000967218
0.000812123
0.000701991
0.00062217
0.000562938
0.000517551
0.000481111
0.000451075
0.000427087
0.000407414
1.00628
0.412403
0.176318
0.0809938
0.0404737
0.0220417
0.0129569
0.00811458
0.00530963
0.00360343
0.00253197
0.00184302
0.00139136
0.0010902
0.000886228
0.000745924
0.000647814
0.000577916
0.000526984
0.000488658
0.000458408
0.000433835
0.000414415
0.000399152
1.07937
0.433161
0.181707
0.0816314
0.0403014
0.0216729
0.0125919
0.00781299
0.00506703
0.00340895
0.00237583
0.00171727
0.00128969
0.00100766
0.000819003
0.000691109
0.000603168
0.000541689
0.000497784
0.000465402
0.000440311
0.000420224
0.00040449
0.00039264
1.18487
0.464712
0.190729
0.0837432
0.0406692
0.0216204
0.0124014
0.00761504
0.00489091
0.00325959
0.0022518
0.00161531
0.00120625
0.000939498
0.000763396
0.000645843
0.000566461
0.00051209
0.000474103
0.000446699
0.000425911
0.000409542
0.000396823
0.000387613
1.33175
0.509122
0.204053
0.0875042
0.0415367
0.0218119
0.0123738
0.00751074
0.00477424
0.00315026
0.00215599
0.00153407
0.00113856
0.00088366
0.000717657
0.000608621
0.000536385
0.000487972
0.000454932
0.00043167
0.000414458
0.000401201
0.000391007
0.000383845
1.53235
0.568602
0.221812
0.0926826
0.043027
0.022232
0.0124736
0.00749269
0.00471178
0.00307716
0.00208552
0.00147126
0.00108471
0.000838516
0.000680374
0.000578208
0.000511853
0.000468386
0.000439445
0.000419592
0.000405312
0.000394639
0.000386646
0.000381077
1.80039
0.644862
0.243883
0.0989538
0.0449788
0.0228719
0.0126887
0.00754325
0.00469962
0.00303759
0.00203834
0.0014252
0.0010433
0.000802845
0.000650458
0.000553618
0.00049198
0.000452549
0.000426973
0.000409911
0.000398014
0.000389434
0.000383294
0.000379006
2.15416
0.735978
0.266917
0.10571
0.0472593
0.0237192
0.0130065
0.0076566
0.00472942
0.00302973
0.00201314
0.00139484
0.00101342
0.000775834
0.000627162
0.000534162
0.000476131
0.000439893
0.000417032
0.000402251
0.0003923
0.00038539
0.000380676
0.000377475
2.58151
0.812901
0.286873
0.11227
0.0497164
0.0247322
0.0134411
0.00783148
0.00479907
0.00304957
0.00200941
0.00137973
0.000994648
0.000757057
0.000610069
0.00051943
0.000463909
0.000430038
0.00040927
0.000396294
0.000387917
0.00038236
0.000378742
0.000376441
)
;

boundaryField
{
    rotor
    {
        type            epsilonWallFunction;
        value           nonuniform List<scalar> 
144
(
2.91057
6.89881
10.1037
9.58946
7.89898
26.3717
2.91057
1.02815
1.48049
2.05206
2.57112
3.03069
3.43217
3.76643
4.03047
4.22423
4.34982
4.40944
4.41159
4.37597
4.29259
4.15269
3.94788
3.66922
3.30834
2.85931
2.32283
1.71451
1.18466
3.25116
3.25116
4.89464
6.98244
7.76835
8.54464
37.9786
4.36315
3.96861
3.93265
3.0941
2.28807
2.19365
4.36315
1.38139
1.9939
2.553
3.01388
3.40272
3.7378
4.02837
4.27916
4.49356
4.67544
4.82977
4.91174
4.91322
4.83312
4.66508
4.40415
4.04815
3.59742
3.0584
2.45034
1.77991
1.18948
3.34583
3.34583
7.01894
9.25868
8.83589
7.50713
26.2964
1.57657
1.93298
3.12836
4.19016
5.03986
5.73194
1.57657
0.751037
0.213392
0.241534
0.263118
0.276976
1.20082
1.2682
1.32293
1.36138
1.38203
1.38392
1.36697
1.33934
1.29968
1.24855
1.19322
0.280821
0.275953
0.266102
0.250468
0.228962
0.859241
2.06862
2.06862
2.19154
2.26798
2.33005
2.04053
2.0337
2.77659
7.4752
10.8218
11.7613
10.7359
42.4543
2.77659
0.97054
1.31852
1.75913
2.12045
2.40535
2.61978
2.77056
2.86406
2.90554
2.90123
2.85181
2.76251
2.64106
2.49267
2.31826
2.11845
1.8918
1.62992
1.30707
0.275904
0.253642
0.966154
2.52279
2.52279
1.95139
2.18102
2.27508
3.23193
26.3892
)
;
    }
    freestream
    {
        type            inletOutlet;
        inletValue      uniform 0.000375;
        value           nonuniform List<scalar> 
96
(
0.000375
0.000375
0.000375
0.000375
0.000375
0.000375
0.000375
0.000375
0.000375
0.000375
0.000375
0.000375
0.000375
0.000375
0.000375
0.000375
0.000375
0.000375
0.000375
0.000375
0.000375
0.000375
0.000375
0.000375
0.000375
0.000375
0.000375
0.00313051
0.00611727
0.00933134
0.012687
0.0162368
0.019982
0.0239161
0.0280478
0.0323843
0.0369647
0.041862
0.0472578
0.053506
0.0612664
0.0717847
0.0874902
0.113139
0.157964
0.239175
0.384639
0.627302
0.973017
1.24588
1.29718
1.19604
1.07717
1.06145
1.16497
1.40217
1.54745
1.55008
1.31087
0.779008
0.301629
0.131424
0.0719056
0.04762
0.0357553
0.0278113
0.0221562
0.018591
0.0155122
0.0127593
0.0104354
0.00838545
0.00657261
0.00498423
0.00359091
0.00238586
0.00137753
0.000375
0.000375
0.000375
0.000375
0.000375
0.000375
0.000375
0.000375
0.000375
0.000375
0.000375
0.000375
0.000375
0.000375
0.000375
0.000375
0.000375
0.000375
0.000375
)
;
    }
    frontAndBack
    {
        type            empty;
    }
}


// ************************************************************************* //
