/*--------------------------------*- C++ -*----------------------------------*\
  =========                 |
  \\      /  F ield         | OpenFOAM: The Open Source CFD Toolbox
   \\    /   O peration     | Website:  https://openfoam.org
    \\  /    A nd           | Version:  11
     \\/     M anipulation  |
\*---------------------------------------------------------------------------*/
FoamFile
{
    format      ascii;
    class       surfaceScalarField;
    location    "1.96";
    object      meshPhi;
}
// * * * * * * * * * * * * * * * * * * * * * * * * * * * * * * * * * * * * * //

dimensions      [0 3 -1 0 0 0 0];

internalField   nonuniform List<scalar> 
5640
(
1.36964e-16
9.81747e-07
2.42102e-16
1.37445e-06
3.77022e-16
1.76715e-06
-1.33927e-15
2.15984e-06
-3.68143e-15
2.55254e-06
2.94524e-06
5.95134e-15
1.83531e-18
9.81747e-07
-3.88821e-16
1.37445e-06
-2.60419e-15
1.76715e-06
1.94373e-15
2.15984e-06
8.06641e-15
2.55254e-06
2.94524e-06
-9.02978e-15
-1.16445e-16
9.81747e-07
1.86356e-16
1.37445e-06
-1.56239e-15
1.76715e-06
-4.21245e-15
2.15984e-06
-7.4982e-15
2.55254e-06
2.94524e-06
7.72233e-16
8.69795e-17
9.81747e-07
-1.01865e-16
1.37445e-06
2.69313e-15
1.76715e-06
7.44275e-15
2.15984e-06
3.2599e-15
2.55254e-06
2.94524e-06
-2.79803e-15
-4.83686e-17
9.81747e-07
3.95011e-17
1.37445e-06
1.94314e-16
1.76715e-06
-1.80609e-15
2.15984e-06
-4.20854e-15
2.55254e-06
2.94524e-06
5.01314e-15
-1.80118e-16
9.81747e-07
4.33122e-18
1.37445e-06
-1.8478e-15
1.76715e-06
-3.88612e-15
2.15984e-06
3.15717e-15
2.55254e-06
2.94524e-06
4.98061e-16
2.53976e-16
9.81747e-07
2.55455e-16
1.37445e-06
2.066e-15
1.76715e-06
4.5041e-15
2.15984e-06
-2.30993e-15
2.55254e-06
2.94524e-06
5.40913e-16
2.1657e-17
9.81747e-07
-3.21639e-16
1.37445e-06
-1.14889e-15
1.76715e-06
-5.2856e-15
2.15984e-06
-3.7693e-16
2.55254e-06
2.94524e-06
-5.63989e-15
-1.43394e-16
9.81747e-07
1.66418e-16
1.37445e-06
4.19117e-15
1.76715e-06
6.34941e-15
2.15984e-06
-8.05641e-16
2.55254e-06
2.94524e-06
8.39411e-16
-6.88192e-17
9.81747e-07
-9.20619e-17
1.37445e-06
-2.76937e-15
1.76715e-06
-3.68804e-16
2.15984e-06
-1.45076e-15
2.55254e-06
2.94524e-06
-1.76632e-16
1.66339e-16
9.81747e-07
-8.86777e-17
1.37445e-06
5.69613e-16
1.76715e-06
-2.10351e-15
2.15984e-06
9.66015e-15
2.55254e-06
2.94524e-06
5.29015e-15
-1.77779e-16
9.81747e-07
-2.05352e-17
1.37445e-06
-3.45439e-16
1.76715e-06
-4.17269e-15
2.15984e-06
-2.62225e-15
2.55254e-06
2.94524e-06
5.36952e-15
1.77802e-16
9.81747e-07
2.04691e-17
1.37445e-06
3.45423e-16
1.76715e-06
4.17259e-15
2.15984e-06
2.62235e-15
2.55254e-06
2.94524e-06
-5.36945e-15
-1.66314e-16
9.81747e-07
8.86751e-17
1.37445e-06
-5.69676e-16
1.76715e-06
2.10359e-15
2.15984e-06
-9.66003e-15
2.55254e-06
2.94524e-06
-5.29022e-15
6.88047e-17
9.81747e-07
9.2094e-17
1.37445e-06
2.76937e-15
1.76715e-06
3.68847e-16
2.15984e-06
1.45095e-15
2.55254e-06
2.94524e-06
1.76656e-16
1.43404e-16
9.81747e-07
-1.66362e-16
1.37445e-06
-4.19115e-15
1.76715e-06
-6.34936e-15
2.15984e-06
8.05675e-16
2.55254e-06
2.94524e-06
-8.39329e-16
-2.16455e-17
9.81747e-07
3.21694e-16
1.37445e-06
1.1489e-15
1.76715e-06
5.28561e-15
2.15984e-06
3.76718e-16
2.55254e-06
2.94524e-06
5.63986e-15
-2.53969e-16
9.81747e-07
-2.55442e-16
1.37445e-06
-2.06597e-15
1.76715e-06
-4.50409e-15
2.15984e-06
2.31004e-15
2.55254e-06
2.94524e-06
-5.40884e-16
1.80114e-16
9.81747e-07
-4.31346e-18
1.37445e-06
1.84775e-15
1.76715e-06
3.88617e-15
2.15984e-06
-3.15698e-15
2.55254e-06
2.94524e-06
-4.98268e-16
4.83793e-17
9.81747e-07
-3.95543e-17
1.37445e-06
-1.94307e-16
1.76715e-06
1.80608e-15
2.15984e-06
4.2087e-15
2.55254e-06
2.94524e-06
-5.01342e-15
-8.69605e-17
9.81747e-07
1.01888e-16
1.37445e-06
-2.69313e-15
1.76715e-06
-7.44279e-15
2.15984e-06
-3.25987e-15
2.55254e-06
2.94524e-06
2.79796e-15
1.16464e-16
9.81747e-07
-1.86358e-16
1.37445e-06
1.56232e-15
1.76715e-06
4.21249e-15
2.15984e-06
7.49831e-15
2.55254e-06
2.94524e-06
-7.72346e-16
-1.83672e-18
9.81747e-07
3.88776e-16
1.37445e-06
2.60416e-15
1.76715e-06
-1.94361e-15
2.15984e-06
-8.06601e-15
2.55254e-06
2.94524e-06
9.02991e-15
-1.36937e-16
-2.42099e-16
-3.76952e-16
1.33922e-15
3.68162e-15
-5.95136e-15
-1.13361e-14
4.53785e-06
-4.53785e-06
-4.8127e-16
5.23599e-06
-5.23599e-06
-5.35712e-15
5.93412e-06
-5.93412e-06
-1.13037e-14
6.63225e-06
-6.63225e-06
4.86939e-15
7.33038e-06
-7.33038e-06
-1.1093e-15
8.02851e-06
-8.02851e-06
-8.15821e-15
8.72664e-06
-8.72664e-06
1.30452e-14
9.42478e-06
-9.42478e-06
5.94981e-15
1.01229e-05
-1.01229e-05
-1.99497e-15
1.0821e-05
-1.0821e-05
2.43872e-14
1.15192e-05
-1.15192e-05
1.61896e-14
1.22173e-05
-1.22173e-05
-3.27855e-14
1.29154e-05
-1.29154e-05
-3.0512e-15
1.36136e-05
-1.36136e-05
-1.444e-14
1.43117e-05
-1.43117e-05
-2.69026e-14
1.50098e-05
-1.50098e-05
7.73861e-15
1.5708e-05
-1.5708e-05
-4.43721e-15
1.64061e-05
-1.64061e-05
-1.80009e-14
1.71042e-05
-1.71042e-05
2.18193e-14
1.78024e-05
-1.78024e-05
8.2119e-15
1.85005e-05
-1.85005e-05
-6.08009e-15
1.91986e-05
-1.91986e-05
3.89194e-14
1.98967e-05
-1.98967e-05
2.05949e-05
-2.05949e-05
9.39872e-15
4.53785e-06
5.20097e-16
5.23599e-06
7.52834e-15
5.93412e-06
-4.41179e-15
6.63225e-06
3.78292e-15
7.33038e-06
1.33857e-14
8.02851e-06
-2.10956e-15
8.72664e-06
8.52836e-15
9.42478e-06
-1.00272e-14
1.01229e-05
1.86566e-15
1.0821e-05
-2.02021e-14
1.15192e-05
-7.01149e-15
1.22173e-05
7.50966e-15
1.29154e-05
2.36064e-14
1.36136e-05
-2.04015e-15
1.43117e-05
1.4835e-14
1.50098e-05
-1.38828e-14
1.5708e-05
2.39333e-15
1.64061e-05
2.0413e-14
1.71042e-05
-7.01677e-15
1.78024e-05
1.20668e-14
1.85005e-05
-2.59423e-14
1.91986e-05
1.85286e-15
1.98967e-05
2.05949e-05
-8.67605e-15
4.53785e-06
1.22922e-14
5.23599e-06
1.88333e-15
5.93412e-06
8.90237e-15
6.63225e-06
-5.1081e-15
7.33038e-06
-2.19912e-14
8.02851e-06
1.22637e-14
8.72664e-06
-5.37364e-15
9.42478e-06
4.45758e-15
1.01229e-05
-1.43058e-14
1.0821e-05
-7.32555e-15
1.15192e-05
7.04168e-15
1.22173e-05
2.39951e-14
1.29154e-05
-7.55478e-15
1.36136e-05
9.80165e-15
1.43117e-05
-1.6235e-14
1.50098e-05
4.02945e-14
1.5708e-05
1.4446e-14
1.64061e-05
-1.37039e-14
1.71042e-05
-7.89736e-15
1.78024e-05
-3.92504e-14
1.85005e-05
4.27516e-14
1.91986e-05
-8.84795e-15
1.98967e-05
2.05949e-05
5.98605e-15
4.53785e-06
2.18882e-16
5.23599e-06
-6.4351e-15
5.93412e-06
6.06451e-15
6.63225e-06
-2.09307e-15
7.33038e-06
1.61762e-14
8.02851e-06
-1.88309e-14
8.72664e-06
-2.35079e-15
9.42478e-06
9.17226e-15
1.01229e-05
-4.70977e-15
1.0821e-05
2.16275e-14
1.15192e-05
-2.96454e-14
1.22173e-05
-9.28938e-15
1.29154e-05
-1.89082e-14
1.36136e-05
4.46874e-15
1.43117e-05
3.01564e-14
1.50098e-05
-2.62157e-14
1.5708e-05
4.3648e-16
1.64061e-05
-2.1173e-14
1.71042e-05
1.87108e-14
1.78024e-05
-3.92052e-15
1.85005e-05
-2.91584e-14
1.91986e-05
1.52336e-14
1.98967e-05
2.05949e-05
6.71513e-15
4.53785e-06
-7.3066e-15
5.23599e-06
1.11009e-14
5.93412e-06
-4.24041e-15
6.63225e-06
1.51018e-14
7.33038e-06
-5.20976e-15
8.02851e-06
1.70141e-14
8.72664e-06
-3.94102e-15
9.42478e-06
-2.93485e-16
1.01229e-05
6.61135e-15
1.0821e-05
1.37047e-14
1.15192e-05
1.01849e-14
1.22173e-05
1.82192e-14
1.29154e-05
1.4371e-14
1.36136e-05
2.33431e-14
1.43117e-05
-2.53435e-14
1.50098e-05
2.90719e-14
1.5708e-05
-7.82772e-15
1.64061e-05
3.54179e-14
1.71042e-05
-4.50929e-15
1.78024e-05
4.23707e-14
1.85005e-05
-5.8565e-16
1.91986e-05
-8.73173e-15
1.98967e-05
2.05949e-05
-4.63074e-15
4.53785e-06
5.79758e-15
5.23599e-06
-1.61505e-14
5.93412e-06
-5.97381e-15
6.63225e-06
-8.55552e-15
7.33038e-06
4.22353e-15
8.02851e-06
-8.18648e-15
8.72664e-06
6.999e-15
9.42478e-06
-2.42289e-14
1.01229e-05
-7.76887e-15
1.0821e-05
-2.27645e-14
1.15192e-05
8.34951e-15
1.22173e-05
-7.40283e-15
1.29154e-05
2.82705e-14
1.36136e-05
-4.57086e-14
1.43117e-05
-8.22263e-15
1.50098e-05
-2.82304e-14
1.5708e-05
-2.34238e-15
1.64061e-05
-6.94291e-15
1.71042e-05
2.21503e-14
1.78024e-05
-3.41097e-14
1.85005e-05
-3.73708e-15
1.91986e-05
-3.23499e-14
1.98967e-05
2.05949e-05
-8.92539e-15
4.53785e-06
-2.28884e-15
5.23599e-06
-2.22365e-15
5.93412e-06
6.61602e-15
6.63225e-06
-3.38862e-15
7.33038e-06
-3.90676e-15
8.02851e-06
-6.41837e-15
8.72664e-06
-7.15885e-15
9.42478e-06
6.80967e-15
1.01229e-05
6.98271e-15
1.0821e-05
-9.06592e-15
1.15192e-05
6.76011e-15
1.22173e-05
-2.88887e-14
1.29154e-05
-1.22326e-14
1.36136e-05
4.80511e-15
1.43117e-05
2.50277e-14
1.50098e-05
3.86026e-15
1.5708e-05
3.60559e-15
1.64061e-05
-2.04825e-14
1.71042e-05
-2.17562e-14
1.78024e-05
3.4678e-15
1.85005e-05
2.90428e-14
1.91986e-05
-1.66333e-15
1.98967e-05
2.05949e-05
6.21603e-15
4.53785e-06
-3.87898e-15
5.23599e-06
1.54223e-14
5.93412e-06
-7.06532e-15
6.63225e-06
-2.21085e-15
7.33038e-06
1.42993e-15
8.02851e-06
-5.49213e-15
8.72664e-06
1.3226e-14
9.42478e-06
6.04654e-15
1.01229e-05
-1.74511e-14
1.0821e-05
2.08863e-14
1.15192e-05
-2.14446e-14
1.22173e-05
1.91345e-14
1.29154e-05
-7.31472e-15
1.36136e-05
3.84872e-14
1.43117e-05
-1.2924e-14
1.50098e-05
-1.88428e-15
1.5708e-05
5.7197e-15
1.64061e-05
-7.58569e-15
1.71042e-05
2.76597e-14
1.78024e-05
1.4099e-14
1.85005e-05
-5.31407e-14
1.91986e-05
3.90836e-14
1.98967e-05
2.05949e-05
-1.49867e-15
4.53785e-06
1.08971e-14
5.23599e-06
-6.59934e-15
5.93412e-06
7.26613e-15
6.63225e-06
6.17537e-15
7.33038e-06
2.4887e-15
8.02851e-06
-9.64501e-16
8.72664e-06
-4.36619e-15
9.42478e-06
-8.89992e-15
1.01229e-05
1.38625e-14
1.0821e-05
1.06914e-14
1.15192e-05
6.25051e-15
1.22173e-05
-1.2742e-16
1.29154e-05
-3.43976e-15
1.36136e-05
-1.10407e-14
1.43117e-05
-1.77646e-14
1.50098e-05
1.7682e-14
1.5708e-05
9.95481e-15
1.64061e-05
3.32395e-15
1.71042e-05
-3.29682e-14
1.78024e-05
-1.04236e-14
1.85005e-05
3.00633e-14
1.91986e-05
-5.99921e-14
1.98967e-05
2.05949e-05
5.17001e-15
4.53785e-06
-7.45579e-15
5.23599e-06
-7.56694e-16
5.93412e-06
6.84057e-15
6.63225e-06
-9.97364e-15
7.33038e-06
-1.6648e-15
8.02851e-06
9.21892e-15
8.72664e-06
-1.34607e-14
9.42478e-06
2.32215e-14
1.01229e-05
1.04718e-14
1.0821e-05
-1.72721e-14
1.15192e-05
-3.02678e-15
1.22173e-05
1.13983e-14
1.29154e-05
-1.98166e-14
1.36136e-05
-4.67756e-15
1.43117e-05
5.03062e-14
1.50098e-05
-2.40457e-14
1.5708e-05
-6.65919e-15
1.64061e-05
1.42606e-14
1.71042e-05
1.64973e-15
1.78024e-05
-6.81092e-15
1.85005e-05
1.44407e-14
1.91986e-05
5.07582e-14
1.98967e-05
2.05949e-05
-6.19702e-15
4.53785e-06
2.84693e-17
5.23599e-06
1.1512e-14
5.93412e-06
-2.06255e-14
6.63225e-06
5.36739e-15
7.33038e-06
1.22129e-15
8.02851e-06
-4.72354e-17
8.72664e-06
1.23926e-14
9.42478e-06
-1.32255e-14
1.01229e-05
-1.88945e-14
1.0821e-05
-4.96397e-15
1.15192e-05
-7.15326e-15
1.22173e-05
-1.48862e-14
1.29154e-05
3.53386e-14
1.36136e-05
-7.22151e-19
1.43117e-05
-4.31361e-14
1.50098e-05
1.3564e-14
1.5708e-05
-2.82585e-14
1.64061e-05
2.45488e-15
1.71042e-05
-1.02424e-14
1.78024e-05
2.38013e-14
1.85005e-05
1.38745e-14
1.91986e-05
-4.55642e-14
1.98967e-05
2.05949e-05
-1.90653e-15
4.53785e-06
1.13091e-15
5.23599e-06
-2.1662e-14
5.93412e-06
9.62442e-15
6.63225e-06
1.51376e-14
7.33038e-06
-1.40653e-14
8.02851e-06
8.09228e-15
8.72664e-06
-2.69604e-14
9.42478e-06
-1.96551e-15
1.01229e-05
2.97171e-14
1.0821e-05
-1.17451e-14
1.15192e-05
1.98677e-14
1.22173e-05
-2.74454e-14
1.29154e-05
-2.06163e-14
1.36136e-05
1.60411e-14
1.43117e-05
-4.61061e-15
1.50098e-05
4.69045e-15
1.5708e-05
4.79679e-14
1.64061e-05
-1.37388e-14
1.71042e-05
3.23691e-14
1.78024e-05
-3.51853e-14
1.85005e-05
-2.49101e-14
1.91986e-05
7.19141e-14
1.98967e-05
2.05949e-05
1.90657e-15
4.53785e-06
-1.1307e-15
5.23599e-06
2.1662e-14
5.93412e-06
-9.62422e-15
6.63225e-06
-1.51368e-14
7.33038e-06
1.40653e-14
8.02851e-06
-8.09254e-15
8.72664e-06
2.69605e-14
9.42478e-06
1.96633e-15
1.01229e-05
-2.97174e-14
1.0821e-05
1.17453e-14
1.15192e-05
-1.98672e-14
1.22173e-05
2.74455e-14
1.29154e-05
2.06149e-14
1.36136e-05
-1.6041e-14
1.43117e-05
4.61534e-15
1.50098e-05
-4.69049e-15
1.5708e-05
-4.79676e-14
1.64061e-05
1.37417e-14
1.71042e-05
-3.23702e-14
1.78024e-05
3.51852e-14
1.85005e-05
2.49026e-14
1.91986e-05
-7.19128e-14
1.98967e-05
2.05949e-05
6.19725e-15
4.53785e-06
-2.83698e-17
5.23599e-06
-1.15115e-14
5.93412e-06
2.06261e-14
6.63225e-06
-5.36634e-15
7.33038e-06
-1.22156e-15
8.02851e-06
4.70279e-17
8.72664e-06
-1.2394e-14
9.42478e-06
1.32271e-14
1.01229e-05
1.88948e-14
1.0821e-05
4.96413e-15
1.15192e-05
7.15496e-15
1.22173e-05
1.4887e-14
1.29154e-05
-3.5339e-14
1.36136e-05
1.25227e-18
1.43117e-05
4.31384e-14
1.50098e-05
-1.35608e-14
1.5708e-05
2.82562e-14
1.64061e-05
-2.45168e-15
1.71042e-05
1.02421e-14
1.78024e-05
-2.38049e-14
1.85005e-05
-1.38736e-14
1.91986e-05
4.55634e-14
1.98967e-05
2.05949e-05
-5.17027e-15
4.53785e-06
7.45568e-15
5.23599e-06
7.56687e-16
5.93412e-06
-6.83918e-15
6.63225e-06
9.97433e-15
7.33038e-06
1.664e-15
8.02851e-06
-9.21995e-15
8.72664e-06
1.34584e-14
9.42478e-06
-2.32219e-14
1.01229e-05
-1.04711e-14
1.0821e-05
1.72725e-14
1.15192e-05
3.02675e-15
1.22173e-05
-1.13971e-14
1.29154e-05
1.98173e-14
1.36136e-05
4.677e-15
1.43117e-05
-5.03073e-14
1.50098e-05
2.40464e-14
1.5708e-05
6.65601e-15
1.64061e-05
-1.42619e-14
1.71042e-05
-1.64815e-15
1.78024e-05
6.80872e-15
1.85005e-05
-1.44444e-14
1.91986e-05
-5.07608e-14
1.98967e-05
2.05949e-05
1.49845e-15
4.53785e-06
-1.0897e-14
5.23599e-06
6.59927e-15
5.93412e-06
-7.2652e-15
6.63225e-06
-6.17485e-15
7.33038e-06
-2.48894e-15
8.02851e-06
9.64918e-16
8.72664e-06
4.36451e-15
9.42478e-06
8.90081e-15
1.01229e-05
-1.38627e-14
1.0821e-05
-1.06915e-14
1.15192e-05
-6.25208e-15
1.22173e-05
1.27547e-16
1.29154e-05
3.43838e-15
1.36136e-05
1.10447e-14
1.43117e-05
1.77633e-14
1.50098e-05
-1.76796e-14
1.5708e-05
-9.95577e-15
1.64061e-05
-3.33109e-15
1.71042e-05
3.29662e-14
1.78024e-05
1.0416e-14
1.85005e-05
-3.00683e-14
1.91986e-05
5.99937e-14
1.98967e-05
2.05949e-05
-6.21582e-15
4.53785e-06
3.87931e-15
5.23599e-06
-1.5422e-14
5.93412e-06
7.06485e-15
6.63225e-06
2.21052e-15
7.33038e-06
-1.42957e-15
8.02851e-06
5.49312e-15
8.72664e-06
-1.32264e-14
9.42478e-06
-6.04555e-15
1.01229e-05
1.74515e-14
1.0821e-05
-2.08878e-14
1.15192e-05
2.14457e-14
1.22173e-05
-1.91348e-14
1.29154e-05
7.31508e-15
1.36136e-05
-3.84862e-14
1.43117e-05
1.29211e-14
1.50098e-05
1.88229e-15
1.5708e-05
-5.71827e-15
1.64061e-05
7.58367e-15
1.71042e-05
-2.76599e-14
1.78024e-05
-1.41027e-14
1.85005e-05
5.31413e-14
1.91986e-05
-3.90854e-14
1.98967e-05
2.05949e-05
8.92501e-15
4.53785e-06
2.28887e-15
5.23599e-06
2.22414e-15
5.93412e-06
-6.61663e-15
6.63225e-06
3.38795e-15
7.33038e-06
3.90711e-15
8.02851e-06
6.41883e-15
8.72664e-06
7.15832e-15
9.42478e-06
-6.81083e-15
1.01229e-05
-6.98264e-15
1.0821e-05
9.06434e-15
1.15192e-05
-6.75833e-15
1.22173e-05
2.88886e-14
1.29154e-05
1.22347e-14
1.36136e-05
-4.80536e-15
1.43117e-05
-2.50273e-14
1.50098e-05
-3.86139e-15
1.5708e-05
-3.60776e-15
1.64061e-05
2.04825e-14
1.71042e-05
2.17608e-14
1.78024e-05
-3.46754e-15
1.85005e-05
-2.90439e-14
1.91986e-05
1.65895e-15
1.98967e-05
2.05949e-05
4.63046e-15
4.53785e-06
-5.79762e-15
5.23599e-06
1.61507e-14
5.93412e-06
5.97442e-15
6.63225e-06
8.55508e-15
7.33038e-06
-4.22357e-15
8.02851e-06
8.18789e-15
8.72664e-06
-6.99889e-15
9.42478e-06
2.42284e-14
1.01229e-05
7.76942e-15
1.0821e-05
2.2764e-14
1.15192e-05
-8.35092e-15
1.22173e-05
7.40282e-15
1.29154e-05
-2.82656e-14
1.36136e-05
4.57108e-14
1.43117e-05
8.22079e-15
1.50098e-05
2.82262e-14
1.5708e-05
2.3424e-15
1.64061e-05
6.9426e-15
1.71042e-05
-2.21483e-14
1.78024e-05
3.41117e-14
1.85005e-05
3.73964e-15
1.91986e-05
3.23463e-14
1.98967e-05
2.05949e-05
-6.71508e-15
4.53785e-06
7.3069e-15
5.23599e-06
-1.11009e-14
5.93412e-06
4.24103e-15
6.63225e-06
-1.51027e-14
7.33038e-06
5.20988e-15
8.02851e-06
-1.70137e-14
8.72664e-06
3.94095e-15
9.42478e-06
2.93338e-16
1.01229e-05
-6.61139e-15
1.0821e-05
-1.37058e-14
1.15192e-05
-1.01846e-14
1.22173e-05
-1.8217e-14
1.29154e-05
-1.43684e-14
1.36136e-05
-2.33407e-14
1.43117e-05
2.53454e-14
1.50098e-05
-2.9074e-14
1.5708e-05
7.83012e-15
1.64061e-05
-3.54168e-14
1.71042e-05
4.51101e-15
1.78024e-05
-4.23671e-14
1.85005e-05
5.88595e-16
1.91986e-05
8.73088e-15
1.98967e-05
2.05949e-05
-5.98601e-15
4.53785e-06
-2.18932e-16
5.23599e-06
6.43541e-15
5.93412e-06
-6.06412e-15
6.63225e-06
2.09236e-15
7.33038e-06
-1.61762e-14
8.02851e-06
1.88303e-14
8.72664e-06
2.35108e-15
9.42478e-06
-9.17088e-15
1.01229e-05
4.71096e-15
1.0821e-05
-2.16279e-14
1.15192e-05
2.96462e-14
1.22173e-05
9.2893e-15
1.29154e-05
1.89055e-14
1.36136e-05
-4.46525e-15
1.43117e-05
-3.01549e-14
1.50098e-05
2.62136e-14
1.5708e-05
-4.3526e-16
1.64061e-05
2.11711e-14
1.71042e-05
-1.87145e-14
1.78024e-05
3.92288e-15
1.85005e-05
2.91591e-14
1.91986e-05
-1.52322e-14
1.98967e-05
2.05949e-05
8.67613e-15
4.53785e-06
-1.2292e-14
5.23599e-06
-1.8832e-15
5.93412e-06
-8.90285e-15
6.63225e-06
5.10812e-15
7.33038e-06
2.19909e-14
8.02851e-06
-1.22645e-14
8.72664e-06
5.37357e-15
9.42478e-06
-4.45552e-15
1.01229e-05
1.43066e-14
1.0821e-05
7.32644e-15
1.15192e-05
-7.04148e-15
1.22173e-05
-2.39964e-14
1.29154e-05
7.55254e-15
1.36136e-05
-9.80374e-15
1.43117e-05
1.62344e-14
1.50098e-05
-4.02938e-14
1.5708e-05
-1.44484e-14
1.64061e-05
1.37082e-14
1.71042e-05
7.89687e-15
1.78024e-05
3.9255e-14
1.85005e-05
-4.27542e-14
1.91986e-05
8.84941e-15
1.98967e-05
2.05949e-05
-9.39887e-15
4.53785e-06
-5.19899e-16
5.23599e-06
-7.52845e-15
5.93412e-06
4.41143e-15
6.63225e-06
-3.78356e-15
7.33038e-06
-1.33843e-14
8.02851e-06
2.11007e-15
8.72664e-06
-8.52938e-15
9.42478e-06
1.00272e-14
1.01229e-05
-1.86478e-15
1.0821e-05
2.02028e-14
1.15192e-05
7.01347e-15
1.22173e-05
-7.51185e-15
1.29154e-05
-2.36096e-14
1.36136e-05
2.03898e-15
1.43117e-05
-1.48336e-14
1.50098e-05
1.38785e-14
1.5708e-05
-2.39061e-15
1.64061e-05
-2.04124e-14
1.71042e-05
7.01749e-15
1.78024e-05
-1.20661e-14
1.85005e-05
2.59417e-14
1.91986e-05
-1.84239e-15
1.98967e-05
2.05949e-05
1.13361e-14
4.53785e-06
4.81399e-16
5.23599e-06
5.357e-15
5.93412e-06
1.13035e-14
6.63225e-06
-4.86917e-15
7.33038e-06
1.10941e-15
8.02851e-06
8.15842e-15
8.72664e-06
-1.30442e-14
9.42478e-06
-5.94992e-15
1.01229e-05
1.99632e-15
1.0821e-05
-2.43858e-14
1.15192e-05
-1.61897e-14
1.22173e-05
3.27857e-14
1.29154e-05
3.05174e-15
1.36136e-05
1.4442e-14
1.43117e-05
2.69013e-14
1.50098e-05
-7.73947e-15
1.5708e-05
4.43765e-15
1.64061e-05
1.79992e-14
1.71042e-05
-2.18227e-14
1.78024e-05
-8.21355e-15
1.85005e-05
6.08393e-15
1.91986e-05
-3.89226e-14
1.98967e-05
2.05949e-05
1.36948e-16
9.81747e-07
2.4212e-16
1.37445e-06
3.7702e-16
1.76715e-06
-1.33931e-15
2.15984e-06
-3.68151e-15
2.55254e-06
2.94524e-06
5.95134e-15
1.83531e-18
9.81747e-07
-3.88821e-16
1.37445e-06
-2.60419e-15
1.76715e-06
1.94373e-15
2.15984e-06
8.06641e-15
2.55254e-06
2.94524e-06
-9.02978e-15
-1.16445e-16
9.81747e-07
1.86356e-16
1.37445e-06
-1.56239e-15
1.76715e-06
-4.21245e-15
2.15984e-06
-7.4982e-15
2.55254e-06
2.94524e-06
7.72233e-16
8.69795e-17
9.81747e-07
-1.01865e-16
1.37445e-06
2.69313e-15
1.76715e-06
7.44275e-15
2.15984e-06
3.2599e-15
2.55254e-06
2.94524e-06
-2.79803e-15
-4.83686e-17
9.81747e-07
3.95011e-17
1.37445e-06
1.94314e-16
1.76715e-06
-1.80609e-15
2.15984e-06
-4.20854e-15
2.55254e-06
2.94524e-06
5.01314e-15
-1.80118e-16
9.81747e-07
4.33122e-18
1.37445e-06
-1.8478e-15
1.76715e-06
-3.88612e-15
2.15984e-06
3.15717e-15
2.55254e-06
2.94524e-06
4.98061e-16
2.53976e-16
9.81747e-07
2.55455e-16
1.37445e-06
2.066e-15
1.76715e-06
4.5041e-15
2.15984e-06
-2.30993e-15
2.55254e-06
2.94524e-06
5.40913e-16
2.1657e-17
9.81747e-07
-3.21639e-16
1.37445e-06
-1.14889e-15
1.76715e-06
-5.2856e-15
2.15984e-06
-3.7693e-16
2.55254e-06
2.94524e-06
-5.63989e-15
-1.43394e-16
9.81747e-07
1.66418e-16
1.37445e-06
4.19117e-15
1.76715e-06
6.34941e-15
2.15984e-06
-8.05641e-16
2.55254e-06
2.94524e-06
8.39411e-16
-6.88192e-17
9.81747e-07
-9.20619e-17
1.37445e-06
-2.76937e-15
1.76715e-06
-3.68804e-16
2.15984e-06
-1.45076e-15
2.55254e-06
2.94524e-06
-1.76632e-16
1.66339e-16
9.81747e-07
-8.86777e-17
1.37445e-06
5.69613e-16
1.76715e-06
-2.10351e-15
2.15984e-06
9.66015e-15
2.55254e-06
2.94524e-06
5.29015e-15
-1.77779e-16
9.81747e-07
-2.05352e-17
1.37445e-06
-3.45439e-16
1.76715e-06
-4.17269e-15
2.15984e-06
-2.62225e-15
2.55254e-06
2.94524e-06
5.36952e-15
1.77802e-16
9.81747e-07
2.04691e-17
1.37445e-06
3.45423e-16
1.76715e-06
4.17259e-15
2.15984e-06
2.62235e-15
2.55254e-06
2.94524e-06
-5.36945e-15
-1.66314e-16
9.81747e-07
8.86751e-17
1.37445e-06
-5.69676e-16
1.76715e-06
2.10359e-15
2.15984e-06
-9.66003e-15
2.55254e-06
2.94524e-06
-5.29022e-15
6.88047e-17
9.81747e-07
9.2094e-17
1.37445e-06
2.76937e-15
1.76715e-06
3.68847e-16
2.15984e-06
1.45095e-15
2.55254e-06
2.94524e-06
1.76656e-16
1.43404e-16
9.81747e-07
-1.66362e-16
1.37445e-06
-4.19115e-15
1.76715e-06
-6.34936e-15
2.15984e-06
8.05675e-16
2.55254e-06
2.94524e-06
-8.39329e-16
-2.16455e-17
9.81747e-07
3.21694e-16
1.37445e-06
1.1489e-15
1.76715e-06
5.28561e-15
2.15984e-06
3.76718e-16
2.55254e-06
2.94524e-06
5.63986e-15
-2.53969e-16
9.81747e-07
-2.55442e-16
1.37445e-06
-2.06597e-15
1.76715e-06
-4.50409e-15
2.15984e-06
2.31004e-15
2.55254e-06
2.94524e-06
-5.40884e-16
1.80114e-16
9.81747e-07
-4.31346e-18
1.37445e-06
1.84775e-15
1.76715e-06
3.88617e-15
2.15984e-06
-3.15698e-15
2.55254e-06
2.94524e-06
-4.98268e-16
4.83793e-17
9.81747e-07
-3.95543e-17
1.37445e-06
-1.94307e-16
1.76715e-06
1.80608e-15
2.15984e-06
4.2087e-15
2.55254e-06
2.94524e-06
-5.01342e-15
-8.69605e-17
9.81747e-07
1.01888e-16
1.37445e-06
-2.69313e-15
1.76715e-06
-7.44279e-15
2.15984e-06
-3.25987e-15
2.55254e-06
2.94524e-06
2.79796e-15
1.16464e-16
9.81747e-07
-1.86358e-16
1.37445e-06
1.56232e-15
1.76715e-06
4.21249e-15
2.15984e-06
7.49831e-15
2.55254e-06
2.94524e-06
-7.72346e-16
-1.83672e-18
9.81747e-07
3.88776e-16
1.37445e-06
2.60416e-15
1.76715e-06
-1.94361e-15
2.15984e-06
-8.06601e-15
2.55254e-06
2.94524e-06
9.02991e-15
-1.36939e-16
-2.42081e-16
-3.77045e-16
1.33928e-15
3.68156e-15
-5.95136e-15
-1.13361e-14
4.53785e-06
-4.80957e-16
5.23599e-06
-5.35722e-15
5.93412e-06
-1.13037e-14
6.63225e-06
4.86885e-15
7.33038e-06
-1.10901e-15
8.02851e-06
-8.15788e-15
8.72664e-06
1.30438e-14
9.42478e-06
5.94944e-15
1.01229e-05
-1.99539e-15
1.0821e-05
2.43876e-14
1.15192e-05
1.61905e-14
1.22173e-05
-3.27865e-14
1.29154e-05
-3.05223e-15
1.36136e-05
-1.44401e-14
1.43117e-05
-2.69026e-14
1.50098e-05
7.73641e-15
1.5708e-05
-4.43602e-15
1.64061e-05
-1.80009e-14
1.71042e-05
2.18246e-14
1.78024e-05
8.21324e-15
1.85005e-05
-6.08429e-15
1.91986e-05
3.89223e-14
1.98967e-05
2.05949e-05
9.39872e-15
4.53785e-06
5.20097e-16
5.23599e-06
7.52834e-15
5.93412e-06
-4.41179e-15
6.63225e-06
3.78292e-15
7.33038e-06
1.33857e-14
8.02851e-06
-2.10956e-15
8.72664e-06
8.52836e-15
9.42478e-06
-1.00272e-14
1.01229e-05
1.86566e-15
1.0821e-05
-2.02021e-14
1.15192e-05
-7.01149e-15
1.22173e-05
7.50966e-15
1.29154e-05
2.36064e-14
1.36136e-05
-2.04015e-15
1.43117e-05
1.4835e-14
1.50098e-05
-1.38828e-14
1.5708e-05
2.39333e-15
1.64061e-05
2.0413e-14
1.71042e-05
-7.01677e-15
1.78024e-05
1.20668e-14
1.85005e-05
-2.59423e-14
1.91986e-05
1.85286e-15
1.98967e-05
2.05949e-05
-8.67605e-15
4.53785e-06
1.22922e-14
5.23599e-06
1.88333e-15
5.93412e-06
8.90237e-15
6.63225e-06
-5.1081e-15
7.33038e-06
-2.19912e-14
8.02851e-06
1.22637e-14
8.72664e-06
-5.37364e-15
9.42478e-06
4.45758e-15
1.01229e-05
-1.43058e-14
1.0821e-05
-7.32555e-15
1.15192e-05
7.04168e-15
1.22173e-05
2.39951e-14
1.29154e-05
-7.55478e-15
1.36136e-05
9.80165e-15
1.43117e-05
-1.6235e-14
1.50098e-05
4.02945e-14
1.5708e-05
1.4446e-14
1.64061e-05
-1.37039e-14
1.71042e-05
-7.89736e-15
1.78024e-05
-3.92504e-14
1.85005e-05
4.27516e-14
1.91986e-05
-8.84795e-15
1.98967e-05
2.05949e-05
5.98605e-15
4.53785e-06
2.18882e-16
5.23599e-06
-6.4351e-15
5.93412e-06
6.06451e-15
6.63225e-06
-2.09307e-15
7.33038e-06
1.61762e-14
8.02851e-06
-1.88309e-14
8.72664e-06
-2.35079e-15
9.42478e-06
9.17226e-15
1.01229e-05
-4.70977e-15
1.0821e-05
2.16275e-14
1.15192e-05
-2.96454e-14
1.22173e-05
-9.28938e-15
1.29154e-05
-1.89082e-14
1.36136e-05
4.46874e-15
1.43117e-05
3.01564e-14
1.50098e-05
-2.62157e-14
1.5708e-05
4.3648e-16
1.64061e-05
-2.1173e-14
1.71042e-05
1.87108e-14
1.78024e-05
-3.92052e-15
1.85005e-05
-2.91584e-14
1.91986e-05
1.52336e-14
1.98967e-05
2.05949e-05
6.71513e-15
4.53785e-06
-7.3066e-15
5.23599e-06
1.11009e-14
5.93412e-06
-4.24041e-15
6.63225e-06
1.51018e-14
7.33038e-06
-5.20976e-15
8.02851e-06
1.70141e-14
8.72664e-06
-3.94102e-15
9.42478e-06
-2.93485e-16
1.01229e-05
6.61135e-15
1.0821e-05
1.37047e-14
1.15192e-05
1.01849e-14
1.22173e-05
1.82192e-14
1.29154e-05
1.4371e-14
1.36136e-05
2.33431e-14
1.43117e-05
-2.53435e-14
1.50098e-05
2.90719e-14
1.5708e-05
-7.82772e-15
1.64061e-05
3.54179e-14
1.71042e-05
-4.50929e-15
1.78024e-05
4.23707e-14
1.85005e-05
-5.8565e-16
1.91986e-05
-8.73173e-15
1.98967e-05
2.05949e-05
-4.63074e-15
4.53785e-06
5.79758e-15
5.23599e-06
-1.61505e-14
5.93412e-06
-5.97381e-15
6.63225e-06
-8.55552e-15
7.33038e-06
4.22353e-15
8.02851e-06
-8.18648e-15
8.72664e-06
6.999e-15
9.42478e-06
-2.42289e-14
1.01229e-05
-7.76887e-15
1.0821e-05
-2.27645e-14
1.15192e-05
8.34951e-15
1.22173e-05
-7.40283e-15
1.29154e-05
2.82705e-14
1.36136e-05
-4.57086e-14
1.43117e-05
-8.22263e-15
1.50098e-05
-2.82304e-14
1.5708e-05
-2.34238e-15
1.64061e-05
-6.94291e-15
1.71042e-05
2.21503e-14
1.78024e-05
-3.41097e-14
1.85005e-05
-3.73708e-15
1.91986e-05
-3.23499e-14
1.98967e-05
2.05949e-05
-8.92539e-15
4.53785e-06
-2.28884e-15
5.23599e-06
-2.22365e-15
5.93412e-06
6.61602e-15
6.63225e-06
-3.38862e-15
7.33038e-06
-3.90676e-15
8.02851e-06
-6.41837e-15
8.72664e-06
-7.15885e-15
9.42478e-06
6.80967e-15
1.01229e-05
6.98271e-15
1.0821e-05
-9.06592e-15
1.15192e-05
6.76011e-15
1.22173e-05
-2.88887e-14
1.29154e-05
-1.22326e-14
1.36136e-05
4.80511e-15
1.43117e-05
2.50277e-14
1.50098e-05
3.86026e-15
1.5708e-05
3.60559e-15
1.64061e-05
-2.04825e-14
1.71042e-05
-2.17562e-14
1.78024e-05
3.4678e-15
1.85005e-05
2.90428e-14
1.91986e-05
-1.66333e-15
1.98967e-05
2.05949e-05
6.21603e-15
4.53785e-06
-3.87898e-15
5.23599e-06
1.54223e-14
5.93412e-06
-7.06532e-15
6.63225e-06
-2.21085e-15
7.33038e-06
1.42993e-15
8.02851e-06
-5.49213e-15
8.72664e-06
1.3226e-14
9.42478e-06
6.04654e-15
1.01229e-05
-1.74511e-14
1.0821e-05
2.08863e-14
1.15192e-05
-2.14446e-14
1.22173e-05
1.91345e-14
1.29154e-05
-7.31472e-15
1.36136e-05
3.84872e-14
1.43117e-05
-1.2924e-14
1.50098e-05
-1.88428e-15
1.5708e-05
5.7197e-15
1.64061e-05
-7.58569e-15
1.71042e-05
2.76597e-14
1.78024e-05
1.4099e-14
1.85005e-05
-5.31407e-14
1.91986e-05
3.90836e-14
1.98967e-05
2.05949e-05
-1.49867e-15
4.53785e-06
1.08971e-14
5.23599e-06
-6.59934e-15
5.93412e-06
7.26613e-15
6.63225e-06
6.17537e-15
7.33038e-06
2.4887e-15
8.02851e-06
-9.64501e-16
8.72664e-06
-4.36619e-15
9.42478e-06
-8.89992e-15
1.01229e-05
1.38625e-14
1.0821e-05
1.06914e-14
1.15192e-05
6.25051e-15
1.22173e-05
-1.2742e-16
1.29154e-05
-3.43976e-15
1.36136e-05
-1.10407e-14
1.43117e-05
-1.77646e-14
1.50098e-05
1.7682e-14
1.5708e-05
9.95481e-15
1.64061e-05
3.32395e-15
1.71042e-05
-3.29682e-14
1.78024e-05
-1.04236e-14
1.85005e-05
3.00633e-14
1.91986e-05
-5.99921e-14
1.98967e-05
2.05949e-05
5.17001e-15
4.53785e-06
-7.45579e-15
5.23599e-06
-7.56694e-16
5.93412e-06
6.84057e-15
6.63225e-06
-9.97364e-15
7.33038e-06
-1.6648e-15
8.02851e-06
9.21892e-15
8.72664e-06
-1.34607e-14
9.42478e-06
2.32215e-14
1.01229e-05
1.04718e-14
1.0821e-05
-1.72721e-14
1.15192e-05
-3.02678e-15
1.22173e-05
1.13983e-14
1.29154e-05
-1.98166e-14
1.36136e-05
-4.67756e-15
1.43117e-05
5.03062e-14
1.50098e-05
-2.40457e-14
1.5708e-05
-6.65919e-15
1.64061e-05
1.42606e-14
1.71042e-05
1.64973e-15
1.78024e-05
-6.81092e-15
1.85005e-05
1.44407e-14
1.91986e-05
5.07582e-14
1.98967e-05
2.05949e-05
-6.19702e-15
4.53785e-06
2.84693e-17
5.23599e-06
1.1512e-14
5.93412e-06
-2.06255e-14
6.63225e-06
5.36739e-15
7.33038e-06
1.22129e-15
8.02851e-06
-4.72354e-17
8.72664e-06
1.23926e-14
9.42478e-06
-1.32255e-14
1.01229e-05
-1.88945e-14
1.0821e-05
-4.96397e-15
1.15192e-05
-7.15326e-15
1.22173e-05
-1.48862e-14
1.29154e-05
3.53386e-14
1.36136e-05
-7.22151e-19
1.43117e-05
-4.31361e-14
1.50098e-05
1.3564e-14
1.5708e-05
-2.82585e-14
1.64061e-05
2.45488e-15
1.71042e-05
-1.02424e-14
1.78024e-05
2.38013e-14
1.85005e-05
1.38745e-14
1.91986e-05
-4.55642e-14
1.98967e-05
2.05949e-05
-1.90653e-15
4.53785e-06
1.13091e-15
5.23599e-06
-2.1662e-14
5.93412e-06
9.62442e-15
6.63225e-06
1.51376e-14
7.33038e-06
-1.40653e-14
8.02851e-06
8.09228e-15
8.72664e-06
-2.69604e-14
9.42478e-06
-1.96551e-15
1.01229e-05
2.97171e-14
1.0821e-05
-1.17451e-14
1.15192e-05
1.98677e-14
1.22173e-05
-2.74454e-14
1.29154e-05
-2.06163e-14
1.36136e-05
1.60411e-14
1.43117e-05
-4.61061e-15
1.50098e-05
4.69045e-15
1.5708e-05
4.79679e-14
1.64061e-05
-1.37388e-14
1.71042e-05
3.23691e-14
1.78024e-05
-3.51853e-14
1.85005e-05
-2.49101e-14
1.91986e-05
7.19141e-14
1.98967e-05
2.05949e-05
1.90657e-15
4.53785e-06
-1.1307e-15
5.23599e-06
2.1662e-14
5.93412e-06
-9.62422e-15
6.63225e-06
-1.51368e-14
7.33038e-06
1.40653e-14
8.02851e-06
-8.09254e-15
8.72664e-06
2.69605e-14
9.42478e-06
1.96633e-15
1.01229e-05
-2.97174e-14
1.0821e-05
1.17453e-14
1.15192e-05
-1.98672e-14
1.22173e-05
2.74455e-14
1.29154e-05
2.06149e-14
1.36136e-05
-1.6041e-14
1.43117e-05
4.61534e-15
1.50098e-05
-4.69049e-15
1.5708e-05
-4.79676e-14
1.64061e-05
1.37417e-14
1.71042e-05
-3.23702e-14
1.78024e-05
3.51852e-14
1.85005e-05
2.49026e-14
1.91986e-05
-7.19128e-14
1.98967e-05
2.05949e-05
6.19725e-15
4.53785e-06
-2.83698e-17
5.23599e-06
-1.15115e-14
5.93412e-06
2.06261e-14
6.63225e-06
-5.36634e-15
7.33038e-06
-1.22156e-15
8.02851e-06
4.70279e-17
8.72664e-06
-1.2394e-14
9.42478e-06
1.32271e-14
1.01229e-05
1.88948e-14
1.0821e-05
4.96413e-15
1.15192e-05
7.15496e-15
1.22173e-05
1.4887e-14
1.29154e-05
-3.5339e-14
1.36136e-05
1.25227e-18
1.43117e-05
4.31384e-14
1.50098e-05
-1.35608e-14
1.5708e-05
2.82562e-14
1.64061e-05
-2.45168e-15
1.71042e-05
1.02421e-14
1.78024e-05
-2.38049e-14
1.85005e-05
-1.38736e-14
1.91986e-05
4.55634e-14
1.98967e-05
2.05949e-05
-5.17027e-15
4.53785e-06
7.45568e-15
5.23599e-06
7.56687e-16
5.93412e-06
-6.83918e-15
6.63225e-06
9.97433e-15
7.33038e-06
1.664e-15
8.02851e-06
-9.21995e-15
8.72664e-06
1.34584e-14
9.42478e-06
-2.32219e-14
1.01229e-05
-1.04711e-14
1.0821e-05
1.72725e-14
1.15192e-05
3.02675e-15
1.22173e-05
-1.13971e-14
1.29154e-05
1.98173e-14
1.36136e-05
4.677e-15
1.43117e-05
-5.03073e-14
1.50098e-05
2.40464e-14
1.5708e-05