/*--------------------------------*- C++ -*----------------------------------*\
  =========                 |
  \\      /  F ield         | OpenFOAM: The Open Source CFD Toolbox
   \\    /   O peration     | Website:  https://openfoam.org
    \\  /    A nd           | Version:  11
     \\/     M anipulation  |
\*---------------------------------------------------------------------------*/
FoamFile
{
    format      ascii;
    class       volScalarField;
    location    "1.96";
    object      p;
}
// * * * * * * * * * * * * * * * * * * * * * * * * * * * * * * * * * * * * * //

dimensions      [0 2 -2 0 0 0 0];

internalField   nonuniform List<scalar> 
2880
(
1.10632
1.08849
1.07889
1.08205
1.14068
1.30687
1.10938
1.09165
1.08035
1.07992
1.12135
1.18595
1.11172
1.09696
1.08379
1.07952
1.10197
1.11477
1.11187
1.1004
1.08585
1.07794
1.08503
1.07287
1.1105
1.10104
1.08568
1.07436
1.0706
1.04838
1.10825
1.09981
1.08377
1.06979
1.05842
1.03238
1.10534
1.0977
1.08089
1.06485
1.04795
1.02002
1.10195
1.09533
1.07754
1.05982
1.03878
1.00959
1.09836
1.09311
1.07412
1.05482
1.03054
1.00027
1.09497
1.09132
1.07089
1.04997
1.02289
0.991395
1.09219
1.09016
1.06807
1.04533
1.01554
0.98239
1.09033
1.08982
1.0658
1.04098
1.00825
0.972812
1.08962
1.09041
1.06421
1.03697
1.00086
0.962305
1.09014
1.09194
1.06338
1.03338
0.993256
0.950535
1.09183
1.09443
1.06332
1.03027
0.985348
0.937177
1.09453
1.0977
1.06404
1.02773
0.977105
0.921847
1.09795
1.10145
1.06544
1.0258
0.968561
0.904193
1.1017
1.10531
1.06732
1.02454
0.959842
0.883953
1.10534
1.10881
1.06943
1.02413
0.951229
0.861063
1.10843
1.11154
1.07171
1.02512
0.943357
0.83583
1.11069
1.11365
1.07488
1.02905
0.937727
0.809831
1.11241
1.1163
1.08075
1.03796
0.937463
0.788099
1.11466
1.12047
1.08973
1.04977
0.945954
0.780459
1.11722
1.12363
1.09534
1.0515
0.966034
0.791315
0.85033
0.812758
0.774764
0.744231
0.711437
0.68178
0.656083
0.634697
0.616994
0.602197
0.589822
0.579613
0.571339
0.564717
0.559413
0.555098
0.551525
0.548557
0.546117
0.544151
0.542739
0.542323
0.543159
0.54254
0.910113
0.853902
0.80303
0.765938
0.729154
0.69667
0.668878
0.645903
0.626981
0.611235
0.598111
0.587305
0.578561
0.571579
0.566004
0.561486
0.557757
0.554665
0.552139
0.550141
0.548712
0.548073
0.548314
0.547977
0.93574
0.88112
0.825368
0.784032
0.744298
0.709468
0.679836
0.655413
0.635351
0.618699
0.60485
0.593461
0.584254
0.576913
0.571066
0.566344
0.562459
0.559245
0.556631
0.554588
0.553129
0.552326
0.552167
0.552027
0.947733
0.897143
0.841563
0.798008
0.7564
0.719812
0.688677
0.66301
0.641929
0.624445
0.609918
0.597976
0.58832
0.580625
0.57451
0.569588
0.565552
0.562222
0.559519
0.55742
0.555917
0.555012
0.55466
0.554631
0.953693
0.905941
0.85238
0.807902
0.76529
0.727504
0.695217
0.668528
0.646574
0.62835
0.613209
0.600755
0.590676
0.582639
0.576261
0.571144
0.566964
0.563525
0.560739
0.558574
0.557017
0.556069
0.555735
0.555736
0.955996
0.91018
0.858761
0.814027
0.771008
0.732467
0.699334
0.671835
0.649156
0.630302
0.614622
0.601709
0.59124
0.582882
0.576251
0.570947
0.566633
0.563095
0.560229
0.557988
0.556364
0.555457
0.555353
0.555272
0.955889
0.911113
0.861442
0.816756
0.773673
0.73469
0.700958
0.672834
0.649572
0.630196
0.614064
0.600756
0.589941
0.581289
0.574422
0.568942
0.564504
0.560879
0.557942
0.555619
0.553923
0.553118
0.553456
0.553213
0.953671
0.909312
0.860936
0.816385
0.773402
0.734188
0.700045
0.671451
0.647735
0.627947
0.611452
0.597818
0.586711
0.577801
0.570721
0.565081
0.560533
0.556835
0.553836
0.55143
0.549658
0.549024
0.550009
0.549513
0.949432
0.905064
0.857549
0.813088
0.770264
0.730958
0.696553
0.667621
0.643569
0.623478
0.606712
0.592831
0.581492
0.572369
0.565106
0.559327
0.554686
0.55093
0.547881
0.545395
0.543551
0.543165
0.545002
0.544126
0.943178
0.898432
0.85138
0.806914
0.764261
0.724967
0.690425
0.661274
0.637001
0.616715
0.599777
0.585732
0.574231
0.564949
0.557544
0.551652
0.546938
0.54314
0.540056
0.537495
0.53558
0.535496
0.538386
0.5371
0.934809
0.889295
0.842339
0.79778
0.755305
0.716127
0.681574
0.652325
0.62795
0.607585
0.59058
0.576466
0.564883
0.555507
0.548007
0.542036
0.53727
0.533447
0.530339
0.527702
0.525686
0.525882
0.530002
0.528535
0.924105
0.877369
0.830164
0.785476
0.743221
0.704289
0.669875
0.64067
0.616325
0.59601
0.579057
0.56498
0.553406
0.544011
0.536475
0.530467
0.525677
0.521846
0.518722
0.516002
0.513846
0.514272
0.519734
0.518317
0.910689
0.862198
0.814442
0.769674
0.727743
0.689241
0.655161
0.626177
0.602023
0.581909
0.565145
0.551226
0.539767
0.530443
0.522943
0.516951
0.512174
0.508358
0.505233
0.502433
0.500117
0.500753
0.507612
0.506286
0.893985
0.843119
0.794605
0.749915
0.708513
0.670702
0.63722
0.608689
0.584928
0.565195
0.548781
0.535162
0.523942
0.514794
0.507416
0.501509
0.496795
0.493033
0.489935
0.487074
0.484619
0.485517
0.493802
0.492279
0.873157
0.819247
0.769886
0.725582
0.685059
0.648314
0.615789
0.588024
0.564912
0.545781
0.529908
0.516755
0.505917
0.497069
0.489916
0.484176
0.479592
0.475935
0.472905
0.470021
0.467464
0.468661
0.478397
0.47658
0.847072
0.789434
0.739273
0.695854
0.656786
0.621644
0.590561
0.563974
0.54184
0.523579
0.508476
0.495985
0.485696
0.477288
0.470478
0.465004
0.460627
0.457137
0.454227
0.451369
0.448751
0.450257
0.461424
0.459324
0.814186
0.752128
0.701442
0.659711
0.622978
0.590189
0.561191
0.536311
0.515572
0.49851
0.48445
0.472849
0.463301
0.455495
0.449163
0.444063
0.439983
0.436731
0.434004
0.431231
0.428603
0.430421
0.44296
0.440623
0.77246
0.705141
0.654714
0.615955
0.582825
0.55341
0.527322
0.504809
0.485982
0.470515
0.457819
0.447371
0.438782
0.431758
0.426055
0.421454
0.41777
0.414836
0.412359
0.409738
0.407163
0.409296
0.423111
0.420614
0.718946
0.645546
0.597108
0.563266
0.535457
0.510759
0.488615
0.469273
0.452976
0.439572
0.428607
0.41961
0.412224
0.406184
0.401275
0.397308
0.39413
0.391601
0.389446
0.387052
0.384601
0.387051
0.402008
0.399462
0.649746
0.56955
0.526475
0.500251
0.48001
0.461728
0.444782
0.429559
0.41651
0.405708
0.396886
0.389668
0.383753
0.378917
0.374982
0.371799
0.369244
0.367214
0.365459
0.363367
0.361116
0.363878
0.379803
0.377353
0.56027
0.472497
0.440531
0.425638
0.41574
0.405927
0.395646
0.385614
0.376611
0.36901
0.362783
0.357698
0.35354
0.350144
0.34738
0.345139
0.343338
0.341909
0.340636
0.338924
0.336945
0.339999
0.356668
0.354507
0.442327
0.348915
0.337246
0.338438
0.342189
0.343184
0.341203
0.337524
0.333414
0.329648
0.326489
0.323908
0.321808
0.3201
0.318714
0.317588
0.316681
0.315964
0.315259
0.314006
0.312368
0.315662
0.332785
0.331224
0.268801
0.192932
0.214759
0.238068
0.259347
0.273688
0.281698
0.285552
0.287192
0.287891
0.288276
0.288569
0.288828
0.289063
0.289271
0.289446
0.289589
0.289712
0.28968
0.288979
0.287772
0.291279
0.308477
0.307662
-0.0110147
0.0105979
0.0754575
0.126027
0.168269
0.198231
0.217741
0.230199
0.238367
0.244117
0.248492
0.25201
0.254917
0.257343
0.259367
0.26104
0.262408
0.263521
0.264289
0.264256
0.263567
0.267206
0.284092
0.284498
-0.70306
-0.716286
-0.760116
-0.801579
-0.838244
-0.887408
-0.710903
-0.726055
-0.772464
-0.815027
-0.841402
-0.874414
-0.717755
-0.735976
-0.785059
-0.828808
-0.846717
-0.866127
-0.724746
-0.746238
-0.797455
-0.84289
-0.85855
-0.871736
-0.732997
-0.757211
-0.80957
-0.856581
-0.876421
-0.889052
-0.742122
-0.768685
-0.821238
-0.869349
-0.895309
-0.911811
-0.751378
-0.78
-0.831987
-0.880599
-0.912115
-0.933255
-0.760084
-0.790514
-0.84135
-0.889801
-0.925393
-0.94991
-0.767684
-0.79975
-0.848991
-0.896618
-0.93459
-0.961261
-0.773758
-0.807419
-0.85473
-0.900937
-0.939573
-0.967102
-0.778077
-0.813366
-0.858597
-0.902773
-0.940499
-0.967462
-0.780674
-0.817304
-0.86073
-0.902295
-0.937774
-0.96263
-0.781604
-0.819533
-0.861309
-0.899881
-0.931967
-0.953319
-0.781114
-0.820208
-0.860544
-0.896043
-0.923964
-0.940662
-0.779575
-0.819499
-0.858643
-0.891422
-0.914732
-0.925651
-0.777399
-0.817702
-0.855867
-0.886521
-0.905466
-0.909829
-0.775006
-0.815198
-0.852655
-0.881895
-0.897162
-0.894866
-0.772772
-0.812401
-0.849565
-0.878246
-0.890823
-0.882111
-0.770977
-0.809742
-0.847062
-0.875884
-0.887916
-0.873083
-0.769763
-0.807735
-0.845302
-0.875136
-0.889082
-0.87152
-0.769223
-0.807027
-0.844476
-0.876147
-0.894526
-0.882404
-0.769692
-0.808153
-0.844553
-0.878269
-0.903454
-0.905265
-0.771731
-0.810587
-0.844342
-0.878528
-0.913632
-0.939817
-0.774144
-0.811328
-0.840424
-0.87444
-0.925276
-1.07988
-0.424939
-0.199262
-0.0801314
0.00606987
0.0716589
0.118473
0.150427
0.172248
0.187555
0.198818
0.207555
0.214602
0.220415
0.225268
0.229326
0.232705
0.235496
0.237779
0.239511
0.240297
0.240218
0.243798
0.259833
0.26255
-0.593856
-0.402118
-0.236409
-0.11413
-0.0263664
0.0367432
0.0812729
0.112753
0.135511
0.152589
0.165943
0.176745
0.185663
0.193148
0.199447
0.204746
0.209182
0.212866
0.215802
0.217667
0.218393
0.221581
0.23568
0.242887
-0.68615
-0.55594
-0.372494
-0.227387
-0.121898
-0.0444694
0.0119517
0.0528939
0.0830997
0.106072
0.124153
0.138823
0.150993
0.161242
0.169945
0.17736
0.183678
0.18905
0.19355
0.196995
0.199125
0.201873
0.212304
0.22758
-0.76634
-0.665544
-0.485468
-0.330836
-0.212501
-0.123062
-0.0559849
-0.00619338
0.0311772
0.0599199
0.0826842
0.101219
0.116649
0.129708
0.140886
0.150531
0.158902
0.166206
0.172593
0.177991
0.182106
0.186175
0.195987
0.208208
-0.836788
-0.745573
-0.580426
-0.424212
-0.297029
-0.197702
-0.121407
-0.0635731
-0.0194976
0.0147374
0.0420001
0.0642625
0.0828414
0.0986145
0.11218
0.12396
0.134265
0.143327
0.151247
0.157856
0.163085
0.169397
0.18166
0.176981
-0.893002
-0.807718
-0.661334
-0.507458
-0.374662
-0.267438
-0.183404
-0.118456
-0.0682619
-0.0289296
0.00253621
0.0282808
0.0497823
0.0680442
0.0837492
0.0973664
0.109219
0.119512
0.128282
0.135296
0.140696
0.147648
0.160413
0.149505
-0.935308
-0.858185
-0.729622
-0.58029
-0.44465
-0.331484
-0.241126
-0.170115
-0.114503
-0.0705611
-0.0352691
-0.00636331
0.0177675
0.038235
0.0557958
0.0709579
0.0840544
0.0952851
0.104685
0.112071
0.117739
0.124978
0.137561
0.125901
-0.965876
-0.899204
-0.785377
-0.642328
-0.506321
-0.389204
-0.293912
-0.217951
-0.157669
-0.109656
-0.0709678
-0.0392658
-0.0128319
0.00954015
0.0286766
0.0451297
0.0592581
0.0712831
0.0812841
0.0891735
0.0953529
0.102927
0.115173
0.104673
-0.985622
-0.930595
-0.828405
-0.693106
-0.558935
-0.439871
-0.341079
-0.26143
-0.197257
-0.145739
-0.104113
-0.0700012
-0.0416005
-0.0176243
0.00282091
0.0203406
0.0353358
0.0480692
0.0586793
0.0671762
0.0740171
0.0819741
0.0939081
0.0855353
-0.995185
-0.951564
-0.858541
-0.732177
-0.601835
-0.482663
-0.382244
-0.299784
-0.232647
-0.178298
-0.134244
-0.0981312
-0.0681045
-0.0428161
-0.0213118
-0.00292731
0.012793
0.0261643
0.0373856
0.0465488
0.0541155
0.062486
0.0741747
0.0684552
-0.995408
-0.961853
-0.876113
-0.759185
-0.634441
-0.51708
-0.416364
-0.332597
-0.263339
-0.206849
-0.160895
-0.123216
-0.0919122
-0.0655969
-0.0432698
-0.0242096
-0.00790127
0.00602683
0.0178309
0.0276655
0.0359586
0.0447455
0.0562612
0.05344
-0.987357
-0.961452
-0.882136
-0.774105
-0.656333
-0.542717
-0.44275
-0.359056
-0.2886
-0.231199
-0.183722
-0.144881
-0.112636
-0.0855677
-0.0626428
-0.0430889
-0.0263351
-0.0119545
0.000362194
0.0108179
0.0197929
0.0289793
0.0403917
0.0404959
-0.972272
-0.950391
-0.877502
-0.777384
-0.667302
-0.558954
-0.461607
-0.378678
-0.308384
-0.250278
-0.202495
-0.162897
-0.129973
-0.1024
-0.0790871
-0.0592135
-0.042162
-0.0274562
-0.0147374
-0.00376209
0.00581382
0.0153645
0.0267193
0.0295939
-0.951454
-0.929727
-0.862669
-0.769922
-0.667523
-0.565548
-0.472233
-0.391471
-0.32261
-0.264076
-0.216614
-0.176862
-0.143621
-0.115811
-0.0923217
-0.0723016
-0.0551044
-0.0402164
-0.0272364
-0.0158806
-0.00581829
0.0040312
0.0153262
0.0206589
-0.926824
-0.901537
-0.838632
-0.753063
-0.658009
-0.562907
-0.47467
-0.397099
-0.330621
-0.2735
-0.225754
-0.186411
-0.15336
-0.125622
-0.102164
-0.0821664
-0.0649726
-0.050047
-0.0369574
-0.0253797
-0.0149903
-0.00494135
0.00624396
0.0135797
-0.899998
-0.868398
-0.807422
-0.728446
-0.64046
-0.552184
-0.469562
-0.395926
-0.33216
-0.277415
-0.230723
-0.191717
-0.159204
-0.131797
-0.10856
-0.0887382
-0.0716835
-0.0568532
-0.0437977
-0.0321612
-0.0216226
-0.0114946
-0.000517657
0.00824637
-0.872727
-0.832637
-0.771601
-0.697953
-0.616705
-0.534974
-0.458003
-0.388725
-0.328084
-0.275767
-0.230939
-0.193086
-0.161259
-0.134367
-0.111539
-0.0920455
-0.0752602
-0.0606492
-0.0477604
-0.0362195
-0.0257024
-0.0156642
-0.00503936
0.00456133
-0.84687
-0.796593
-0.733507
-0.663702
-0.588521
-0.512912
-0.44135
-0.376473
-0.319224
-0.269515
-0.226765
-0.190381
-0.159567
-0.133443
-0.111219
-0.0922128
-0.0758304
-0.061562
-0.048967
-0.0376663
-0.027332
-0.017522
-0.00741129
0.00238033
-0.823967
-0.76215
-0.69533
-0.627913
-0.557727
-0.487634
-0.421051
-0.360363
-0.306511
-0.259503
-0.218901
-0.184149
-0.154559
-0.129381
-0.107911
-0.08952
-0.0736573
-0.0598442
-0.0476615
-0.0367374
-0.0267411
-0.0172859
-0.00785806
0.00153738
-0.804145
-0.730479
-0.658859
-0.592604
-0.526183
-0.46075
-0.39862
-0.341774
-0.291114
-0.246727
-0.208259
-0.175195
-0.146919
-0.122776
-0.102137
-0.0844365
-0.06917
-0.0558954
-0.0442226
-0.033798
-0.0243077
-0.0153745
-0.00678467
0.00183022
-0.786936
-0.701861
-0.625417
-0.559446
-0.495689
-0.433904
-0.37556
-0.322104
-0.274351
-0.232394
-0.195938
-0.164507
-0.137533
-0.114428
-0.0946299
-0.0776323
-0.0629841
-0.0502847
-0.0391816
-0.0293461
-0.0205035
-0.0122617
-0.00475281
0.00286215
-0.774074
-0.675634
-0.595619
-0.529713
-0.467797
-0.408677
-0.353307
-0.302723
-0.257514
-0.217752
-0.18315
-0.153239
-0.127487
-0.105355
-0.0863421
-0.0699988
-0.0559296
-0.0437828
-0.0332563
-0.024061
-0.0160047
-0.00862966
-0.00237027
0.00415736
-0.765348
-0.647937
-0.568914
-0.504149
-0.443674
-0.38641
-0.333183
-0.284851
-0.241789
-0.203966
-0.171051
-0.14256
-0.117967
-0.0967521
-0.0784552
-0.0626857
-0.0491073
-0.0374228
-0.0273879
-0.0187663
-0.0114303
-0.00493068
6.71659e-05
0.00516075
-0.740607
-0.612517
-0.544353
-0.482994
-0.424012
-0.368028
-0.316254
-0.269528
-0.228141
-0.191958
-0.160572
-0.133441
-0.110004
-0.0897333
-0.072161
-0.0569249
-0.0437798
-0.0325119
-0.0229038
-0.014761
-0.00801562
-0.00237936
0.00168113
0.0051019
-0.591532
-0.590534
-0.574574
-0.547671
-0.492826
-0.372556
-0.588035
-0.588679
-0.573575
-0.550361
-0.50983
-0.43946
-0.581438
-0.586073
-0.572413
-0.552859
-0.52452
-0.483504
-0.577743
-0.584729
-0.573156
-0.557228
-0.537498
-0.512395
-0.578466
-0.585534
-0.575894
-0.563588
-0.549608
-0.532975
-0.583904
-0.588235
-0.580242
-0.571148
-0.561247
-0.549138
-0.592439
-0.591949
-0.58572
-0.579395
-0.572688
-0.56331
-0.598261
-0.595452
-0.591777
-0.58807
-0.584194
-0.577107
-0.6014
-0.598753
-0.598076
-0.597004
-0.59592
-0.591259
-0.604202
-0.601999
-0.604426
-0.606064
-0.607904
-0.605992
-0.607137
-0.605096
-0.610672
-0.615117
-0.62007
-0.621289
-0.609875
-0.60786
-0.616678
-0.624025
-0.632259
-0.636953
-0.612109
-0.610172
-0.622311
-0.632633
-0.64425
-0.652615
-0.613637
-0.612147
-0.627416
-0.640784
-0.65577
-0.667709
-0.614447
-0.613408
-0.631959
-0.648387
-0.666483
-0.681593
-0.614737
-0.613698
-0.635922
-0.655346
-0.676133
-0.694609
-0.616859
-0.613379
-0.639416
-0.661621
-0.684491
-0.70537
-0.621668
-0.614505
-0.642648
-0.667187
-0.69157
-0.713836
-0.624941
-0.616573
-0.645444
-0.672041
-0.697605
-0.720347
-0.625192
-0.618205
-0.647407
-0.676217
-0.703064
-0.726236
-0.624138
-0.618554
-0.647935
-0.679512
-0.708598
-0.736663
-0.619586
-0.61681
-0.646426
-0.681117
-0.714563
-0.760674
-0.612351
-0.613584
-0.643658
-0.680646
-0.719743
-0.793708
-0.608789
-0.611531
-0.642635
-0.680766
-0.723697
-0.814577
-0.622589
-0.577
-0.522998
-0.466108
-0.408897
-0.353923
-0.303081
-0.257399
-0.217185
-0.182259
-0.152164
-0.126298
-0.104036
-0.0848134
-0.0681357
-0.0535944
-0.0409206
-0.0300054
-0.0207871
-0.0131545
-0.0070224
-0.00225888
0.00101894
0.00269918
-0.575862
-0.550324
-0.506176
-0.453251
-0.3978
-0.343731
-0.29351
-0.248429
-0.208911
-0.1748
-0.145626
-0.12075
-0.0995086
-0.0813049
-0.0656194
-0.0520258
-0.0402078
-0.0299739
-0.0212865
-0.014185
-0.00870449
-0.00488045
-0.00287436
-0.00253958
-0.56132
-0.534309
-0.494278
-0.443787
-0.38969
-0.336316
-0.286481
-0.241671
-0.202394
-0.1686
-0.139855
-0.115517
-0.0949091
-0.0774396
-0.0625556
-0.0498369
-0.0389999
-0.0297955
-0.0220696
-0.0158032
-0.0110651
-0.00813959
-0.00772272
-0.0084136
-0.554728
-0.525767
-0.487084
-0.437414
-0.383803
-0.330498
-0.280516
-0.235496
-0.196029
-0.162091
-0.133304
-0.109084
-0.0888576
-0.0720196
-0.0580323
-0.046394
-0.0366641
-0.028571
-0.0219547
-0.0167066
-0.0128039
-0.0106503
-0.0111638
-0.0112088
-0.553109
-0.523284
-0.484085
-0.43428
-0.380058
-0.325877
-0.274944
-0.22902
-0.188763
-0.154189
-0.124974
-0.10063
-0.0805475
-0.0640171
-0.0504471
-0.0393553
-0.0303821
-0.0232081
-0.0175774
-0.0132676
-0.0101397
-0.00826468
-0.00757735
-0.00527631
-0.55608
-0.525889
-0.485531
-0.434555
-0.378605
-0.32254
-0.269789
-0.22222
-0.180553
-0.144812
-0.114642
-0.0894869
-0.0686761
-0.051622
-0.0378244
-0.0268363
-0.0182308
-0.0116265
-0.00669615
-0.00313327
-0.000623726
0.00128212
0.00342703
0.00512433
-0.562947
-0.532946
-0.491461
-0.43823
-0.379502
-0.320536
-0.26507
-0.215118
-0.171464
-0.134137
-0.102753
-0.0767295
-0.0554122
-0.0381856
-0.0245151
-0.0139081
-0.00592048
-0.000178275
0.00370299
0.00610036
0.00742353
0.00843971
0.0103328
0.0106926
-0.573217
-0.544197
-0.501331
-0.445184
-0.382702
-0.319833
-0.260774
-0.20775
-0.161616
-0.122389
-0.0896253
-0.0627057
-0.0409516
-0.0237024
-0.0103697
-0.000427317
0.00660985
0.0111863
0.0137325
0.0146786
0.0145055
0.014038
0.0143101
0.0130859
-0.58655
-0.559213
-0.514916
-0.45515
-0.387858
-0.320076
-0.256702
-0.20027
-0.151587
-0.110529
-0.0765665
-0.0490004
-0.0270608
-0.0100106
0.00280178
0.0119676
0.0180385
0.0215184
0.0228823
0.0226054
0.0211763
0.0194124
0.0179765
0.0157207
-0.60254
-0.577697
-0.531924
-0.46767
-0.394478
-0.321015
-0.253035
-0.193149
-0.142053
-0.0995043
-0.064835
-0.0371242
-0.0154473
0.00101673
0.0130303
0.0212986
0.0264439
0.0290331
0.0296076
0.0286736
0.0266123
0.0242471
0.0214673
0.0195848
-0.620728
-0.599295
-0.551917
-0.482176
-0.401936
-0.322121
-0.249167
-0.18587
-0.132888
-0.0896068
-0.0549145
-0.0276415
-0.00671919
0.00884713
0.0199605
0.0274338
0.0318492
0.0336979
0.0337107
0.0325575
0.0303744
0.0276827
0.0223173
0.0208011
-0.640572
-0.623481
-0.574212
-0.497638
-0.409148
-0.322283
-0.244458
-0.178611
-0.124741
-0.0816005
-0.0476146
-0.0213593
-0.00157467
0.0129081
0.0229713
0.0297702
0.0337594
0.0347085
0.0334667
0.0316481
0.0295348
0.0280703
0.0250242
0.0240486
-0.661371
-0.649526
-0.597592
-0.512714
-0.415514
-0.321769
-0.240095
-0.17286
-0.119127
-0.0769584
-0.0443567
-0.0196132
-0.00124017
0.0121326
0.0210107
0.0269211
0.0315798
0.0349272
0.0363943
0.0354265
0.0326883
0.0291218
0.0255444
0.027956
-0.682171
-0.676523
-0.619993
-0.526807
-0.420968
-0.321704
-0.237661
-0.170235
-0.117477
-0.0766967
-0.0455215
-0.022122
-0.00477881
0.00843518
0.0192093
0.0267945
0.0311484
0.0335574
0.0345424
0.034221
0.0327416
0.0306985
0.0289906
0.0332673
-0.701914
-0.702072
-0.63995
-0.538243
-0.425061
-0.322061
-0.237197
-0.170455
-0.118877
-0.0791982
-0.0486973
-0.0251694
-0.00718606
0.00616822
0.0162304
0.0241204
0.0296951
0.0331654
0.0350286
0.0358536
0.0360738
0.0360947
0.037773
0.0412061
-0.720246
-0.721235
-0.653977
-0.543766
-0.425236
-0.320426
-0.236099
-0.170586
-0.120182
-0.0812931
-0.0511072
-0.0274693
-0.00886048
0.00547761
0.0163322
0.0246525
0.0307671
0.0352207
0.0388961
0.0415007
0.0425651
0.0430187
0.0460806
0.0480504
-0.734968
-0.730128
-0.658222
-0.539625
-0.41764
-0.313358
-0.230854
-0.167054
-0.11801
-0.0800006
-0.0502108
-0.0266647
-0.00780763
0.00728811
0.0189731
0.0277008
0.0345255
0.0401563
0.0443357
0.0471414
0.0489156
0.0509731
0.0563259
0.0553757
-0.744224
-0.724743
-0.648144
-0.52285
-0.399823
-0.298445
-0.219074
-0.157764
-0.110495
-0.0737408
-0.0447149
-0.021541
-0.00292407
0.012083
0.0241126
0.0336638
0.041181
0.0470632
0.0516118
0.0550181
0.057608
0.0611894
0.0693803
0.0672362
-0.744422
-0.706146
-0.621295
-0.492101
-0.371282
-0.274505
-0.200194
-0.142538
-0.0974452
-0.0623229
-0.0344592
-0.0120498
0.00611178
0.0208808
0.0328755
0.0425748
0.0504068
0.0567281
0.0617841
0.0657419
0.0689889
0.0739206
0.0849636
0.0815472
-0.729727
-0.679523
-0.57919
-0.448108
-0.332728
-0.242394
-0.174085
-0.120847
-0.0789721
-0.0460442
-0.0197748
0.00148496
0.0188418
0.0330786
0.0447778
0.0543923
0.0622841
0.0687464
0.074026
0.0782718
0.0818935
0.0877983
0.100843
0.0955016
-0.690016
-0.643581
-0.523024
-0.39209
-0.285021
-0.203288
-0.14135
-0.093275
-0.0554106
-0.0253355
-0.00113004
0.0186054
0.0348457
0.0482871
0.0594479
0.0687231
0.0764232
0.0828052
0.0880916
0.0923854
0.0961091
0.102629
0.117116
0.109695
-0.628771
-0.580295
-0.448601
-0.324336
-0.228856
-0.157486
-0.103209
-0.0610495
-0.0276697
-0.00088108
0.0209031
0.0388331
0.0537269
0.0661751
0.0766175
0.0853883
0.0927496
0.0989214
0.104086
0.108284
0.111938
0.118821
0.134377
0.124853
-0.555838
-0.471823
-0.350795
-0.245622
-0.166015
-0.106482
-0.0609748
-0.0252922
0.00326977
0.0264808
0.0455839
0.0614803
0.0748252
0.086099
0.0956592
0.103775
0.110658
0.116484
0.12138
0.125318
0.128725
0.135685
0.15187
0.140553
-0.438541
-0.321819
-0.235334
-0.159536
-0.0991172
-0.0525245
-0.0161661
0.0128462
0.0364538
0.0559395
0.0722054
0.085915
0.0975619
0.107516
0.116056
0.123389
0.129679
0.135059
0.139593
0.143172
0.146223
0.153074
0.169611
0.157067
0.682393
0.701273
0.737804
0.789245
0.782225
0.600772
0.683954
0.69896
0.723953
0.752328
0.706233
0.574034
0.684636
0.695548
0.70977
0.724145
0.671007
0.550387
0.683876
0.691264
0.698249
0.703997
0.651499
0.547026
0.682209
0.68708
0.689724
0.690483
0.644472
0.555742
0.680075
0.683406
0.683585
0.68182
0.643178
0.566865
0.677622
0.680204
0.679158
0.676521
0.643935
0.577456
0.674936
0.677308
0.675905
0.673286
0.645381
0.586917
0.672117
0.674579
0.673428
0.671244
0.647153
0.595442
0.669283
0.671939
0.671441
0.669939
0.649284
0.603376
0.666547
0.669362
0.669808
0.669098
0.651852
0.610923
0.664029
0.666855
0.668369
0.668707
0.654571
0.617833
0.661846
0.664456
0.667033
0.668622
0.657581
0.624543
0.660077
0.662245
0.66575
0.668749
0.660788
0.631084
0.658739
0.660349
0.66449
0.668967
0.66407
0.637402
0.657893
0.658874
0.663232
0.669117
0.667286
0.643412
0.657636
0.657905
0.661963
0.668965
0.670253
0.64891
0.658016
0.657507
0.660685
0.668087
0.672599
0.653223
0.658734
0.65766
0.659345
0.665879
0.673519
0.654813
0.657409
0.657975
0.657678
0.661824
0.671994
0.652109
0.653383
0.657803
0.655218
0.655811
0.668206
0.647054
0.654058
0.65749
0.6517
0.647275
0.664614
0.645931
0.660931
0.657293
0.647629
0.63876
0.662924
0.61937
0.664785
0.656655
0.643808
0.631236
0.648348
0.400951
-0.137414
-0.171751
-0.121606
-0.0727316
-0.0315275
0.00225169
0.0296921
0.0522088
0.0709505
0.0867249
0.100119
0.111581
0.121456
0.130011
0.13745
0.143924
0.149552
0.154428
0.15855
0.161719
0.164349
0.170933
0.187586
0.174653
0.0718735
-0.036793
-0.0174039
0.00926083
0.0339145
0.0561294
0.0753812
0.091843
0.105967
0.118156
0.128729
0.137945
0.14602
0.153128
0.159406
0.164959
0.169869
0.174194
0.177887
0.180662
0.182871
0.189037
0.205514
0.193509
0.205432
0.0865636
0.0763935
0.0841927
0.0956115
0.108059
0.12004
0.130986
0.140834
0.14965
0.157525
0.164558
0.17085
0.176493
0.181572
0.18615
0.190285
0.194014
0.197271
0.19975
0.201695
0.207307
0.22308
0.214455
0.303004
0.188143
0.157719
0.151473
0.152674
0.157111
0.162868
0.168976
0.175002
0.180745
0.186112
0.191073
0.195636
0.199825
0.203674
0.207213
0.210478
0.213503
0.216257
0.218509
0.220289
0.224605
0.238141
0.241562
0.373907
0.268567
0.227351
0.21122
0.204685
0.202813
0.203453
0.20544
0.208122
0.211118
0.2142
0.217238
0.220162
0.222934
0.225539
0.227965
0.230213
0.232301
0.234239
0.235856
0.236593
0.236562
0.241946
0.282847
0.42604
0.331626
0.286161
0.263882
0.251781
0.245045
0.241554
0.240105
0.239932
0.240535
0.24159
0.242891
0.244309
0.245754
0.247165
0.248484
0.249675
0.250729
0.251607
0.251939
0.251084
0.251348
0.263727
0.285112
0.465032
0.381731
0.335909
0.310169
0.294202
0.283816
0.277088
0.272851
0.270298
0.268862
0.268159
0.267936
0.268019
0.268283
0.268629
0.268971
0.269248
0.269431
0.26941
0.268668
0.266871
0.268214
0.283686
0.291881
0.494987
0.422238
0.378134
0.350827
0.332356
0.319318
0.310111
0.303659
0.29916
0.296022
0.29383
0.292302
0.291239
0.29049
0.289931
0.289458
0.288998
0.288509
0.287842
0.286431
0.284203
0.286215
0.302931
0.305114
0.518781
0.455585
0.414266
0.386645
0.366694
0.351806
0.340741
0.332573
0.326519
0.321988
0.318559
0.315938
0.313913
0.312318
0.311013
0.309881
0.308839
0.307838
0.306705
0.304858
0.302368
0.304668
0.321772
0.32101
0.538262
0.483546
0.445516
0.418367
0.397671
0.381571
0.369166
0.359693
0.352418
0.346765
0.342324
0.338803
0.335985
0.333697
0.331788
0.330131
0.328636
0.327248
0.325781
0.323646
0.321001
0.323421
0.340469
0.338138
0.554615
0.5075
0.472796
0.446672
0.425775
0.408935
0.395591
0.385147
0.376926
0.370381
0.365123
0.36087
0.357407
0.354558
0.352166
0.350095
0.348249
0.34657
0.34486
0.342536
0.339814
0.34227
0.358953
0.355796
0.569122
0.528408
0.496992
0.47219
0.451458
0.43422
0.420237
0.409078
0.40013
0.392881
0.386966
0.38212
0.378138
0.37484
0.372066
0.369672
0.367558
0.365662
0.363781
0.361345
0.358615
0.361049
0.377115
0.37358
0.581916
0.546996
0.518777
0.495463
0.475133
0.457729
0.443319
0.431635
0.422127
0.414318
0.407873
0.402548
0.398146
0.39449
0.391415
0.388772
0.386456
0.384401
0.382405
0.379917
0.377233
0.379599
0.394839
0.391219
0.593301
0.563814
0.538698
0.516963
0.497171
0.479749
0.465049
0.452966
0.443014
0.43475
0.427869
0.42215
0.417406
0.413463
0.410151
0.407316
0.404848
0.402679
0.40061
0.398119
0.395524
0.397781
0.41202
0.408511
0.603487
0.579296
0.557223
0.537107
0.517917
0.500547
0.485624
0.473213
0.462888
0.454236
0.446983
0.440929
0.435899
0.43172
0.428218
0.425233
0.422651
0.420401
0.41829
0.415834
0.413359
0.415466
0.428561
0.425294
0.612614
0.593783
0.574787
0.556276
0.537685
0.520369
0.50523
0.492508
0.481838
0.47283
0.465239
0.458885
0.453604
0.449223
0.445564
0.442459
0.439789
0.437481
0.43535
0.432954
0.43062
0.432541
0.44438
0.441433
0.620779
0.607588
0.5918
0.574853
0.556769
0.539445
0.524037
0.510971
0.499944
0.49058
0.482658
0.476016
0.470499
0.465936
0.462138
0.458931
0.456188
0.453835
0.451698
0.44938
0.447198
0.448898
0.459403
0.456817
0.62799
0.621125
0.608696
0.593222
0.575449
0.557985
0.542201
0.528707
0.517271
0.507521
0.49925
0.492312
0.486559
0.481816
0.477887
0.474584
0.471777
0.469384
0.467246
0.465015
0.462987
0.464442
0.473568
0.471352
0.634295
0.634942
0.625938
0.611735
0.594
0.576177
0.559858
0.545804
0.533869
0.523674
0.515015
0.507755
0.50175
0.496819
0.492753
0.489354
0.48648
0.484046
0.481908
0.479765
0.477891
0.479089
0.486829
0.484964
0.640228
0.649666
0.64398
0.630767
0.612678
0.594176
0.577099
0.562328
0.549764
0.539041
0.529936
0.522313
0.516027
0.510888
0.506673
0.503169
0.50022
0.497739
0.495595
0.493538
0.491824
0.492789
0.499185
0.497529
0.647234
0.666171
0.66342
0.650781
0.631742
0.612114
0.593971
0.578288
0.564957
0.553598
0.543976
0.535939
0.529335
0.523961
0.519577
0.51595
0.512914
0.510372
0.508207
0.506225
0.504674
0.505462
0.51052
0.508692
0.656833
0.686733
0.685478
0.672316
0.651404
0.630054
0.610473
0.593646
0.579403
0.5673
0.557079
0.54857
0.541605
0.535963
0.531383
0.527612
0.524467
0.521841
0.51963
0.517688
0.516248
0.516802
0.520556
0.518674
0.670608
0.717446
0.712041
0.695652
0.671627
0.647901
0.626499
0.608299
0.593002
0.580061
0.569165
0.560127
0.552757
0.546814
0.542013
0.538076
0.5348
0.532069
0.529788
0.527851
0.526444
0.526656
0.529245
0.527755
0.711696
0.764503
0.743255
0.720155
0.691925
0.665322
0.64182
0.622067
0.605597
0.591749
0.580124
0.570511
0.562701
0.55643
0.551386
0.547265
0.543845
0.540997
0.538639
0.536693
0.535286
0.53515
0.536769
0.535784
)
;

boundaryField
{
    rotor
    {
        type            zeroGradient;
    }
    freestream
    {
        type            freestreamPressure;
        freestreamValue uniform 0;
        supersonic      false;
        value           nonuniform List<scalar> 
96
(
0.536083
0.54477
0.550966
0.554562
0.555476
0.553635
0.549031
0.541666
0.531565
0.51887
0.503793
0.486363
0.46659
0.444512
0.420598
0.39518
0.368574
0.341121
0.313178
0.285113
0.257302
0.230154
0.203943
0.179248
0.156636
0.136698
0.120453
0.103474
0.0824004
0.0649366
0.0508018
0.0390795
0.029428
0.0216143
0.0154205
0.0106334
0.0070398
0.00443127
0.00261337
0.00141602
0.000694428
0.000318783
0.000179296
0.000183333
0.000241624
0.000288285
0.000286283
0.000223336
9.55667e-05
-7.7587e-05
-0.000230371
-0.000241953
-6.13833e-05
1.40992e-05
2.00777e-06
6.51269e-05
0.000218326
0.00047913
0.000751846
0.00119138
0.00180873
0.00273452
0.00420759
0.00595204
0.00811848
0.011474
0.0159688
0.0212046
0.0273728
0.0347605
0.0433544
0.0533307
0.0648914
0.0782302
0.0938305
0.113821
0.14285
0.153269
0.167003
0.185054
0.20552
0.227599
0.250809
0.2748
0.299266
0.323925
0.348503
0.372738
0.396375
0.419172
0.440902
0.461292
0.479855
0.496642
0.511791
0.525044
)
;
    }
    frontAndBack
    {
        type            empty;
    }
}


// ************************************************************************* //
