/*--------------------------------*- C++ -*----------------------------------*\
  =========                 |
  \\      /  F ield         | OpenFOAM: The Open Source CFD Toolbox
   \\    /   O peration     | Website:  https://openfoam.org
    \\  /    A nd           | Version:  11
     \\/     M anipulation  |
\*---------------------------------------------------------------------------*/
FoamFile
{
    format      ascii;
    class       surfaceScalarField;
    location    "1.96";
    object      phi;
}
// * * * * * * * * * * * * * * * * * * * * * * * * * * * * * * * * * * * * * //

dimensions      [0 3 -1 0 0 0 0];

internalField   nonuniform List<scalar> 
5640
(
-5.66801e-07
5.66801e-07
-1.80595e-06
1.23915e-06
-3.14042e-06
1.33447e-06
-4.10673e-06
9.66317e-07
-4.58074e-06
4.74008e-07
-1.21464e-06
-3.3661e-06
-8.11071e-07
1.37787e-06
-2.03382e-06
2.46189e-06
-3.18117e-06
2.48182e-06
-4.10736e-06
1.89251e-06
-4.5535e-06
9.20142e-07
-1.59503e-06
-4.17311e-06
-8.90057e-07
2.26793e-06
-1.98501e-06
3.55684e-06
-3.00315e-06
3.49997e-06
-3.85759e-06
2.74694e-06
-4.39783e-06
1.46038e-06
-1.21396e-06
-4.77891e-06
-9.06792e-07
3.17472e-06
-1.86833e-06
4.51838e-06
-2.78782e-06
4.41945e-06
-3.60554e-06
3.56467e-06
-4.2754e-06
2.13024e-06
-3.74366e-07
-5.11499e-06
-8.8276e-07
4.05748e-06
-1.72426e-06
5.35988e-06
-2.55932e-06
5.25451e-06
-3.36517e-06
4.37052e-06
-4.16436e-06
2.92943e-06
7.23388e-07
-5.26212e-06
-8.28058e-07
4.88554e-06
-1.55932e-06
6.09115e-06
-2.31901e-06
6.0142e-06
-3.12278e-06
5.17429e-06
-4.02731e-06
3.83397e-06
1.96617e-06
-5.2701e-06
-7.48774e-07
5.63431e-06
-1.37569e-06
6.71806e-06
-2.06402e-06
6.70253e-06
-2.86141e-06
5.97168e-06
-3.83655e-06
4.80911e-06
3.28712e-06
-5.1575e-06
-6.4944e-07
6.28375e-06
-1.17414e-06
7.24276e-06
-1.78988e-06
7.31828e-06
-2.56815e-06
6.74994e-06
-3.57833e-06
5.81929e-06
4.64011e-06
-4.93132e-06
-5.33534e-07
6.81729e-06
-9.54965e-07
7.66419e-06
-1.49259e-06
7.8559e-06
-2.23406e-06
7.49141e-06
-3.24555e-06
6.83079e-06
5.98985e-06
-4.59528e-06
-4.04076e-07
7.22136e-06
-7.1859e-07
7.9787e-06
-1.16927e-06
8.30658e-06
-1.85333e-06
8.17547e-06
-2.83431e-06
7.81177e-06
7.30736e-06
-4.15182e-06
-2.63412e-07
7.48477e-06
-4.66097e-07
8.18139e-06
-8.18389e-07
8.65887e-06
-1.42253e-06
8.77961e-06
-2.34263e-06
8.73187e-06
8.5674e-06
-3.60267e-06
-1.13688e-07
7.59846e-06
-1.99272e-07
8.26697e-06
-4.39951e-07
8.89955e-06
-9.40499e-07
9.28016e-06
-1.77003e-06
9.5614e-06
9.74611e-06
-2.94873e-06
4.28579e-08
7.5556e-06
7.92962e-08
8.23053e-06
-3.54212e-08
9.01427e-06
-4.08039e-07
9.65278e-06
-1.11722e-06
1.02706e-05
1.08192e-05
-2.19034e-06
2.01346e-07
7.35426e-06
3.66782e-07
8.0651e-06
3.91495e-07
8.98956e-06
1.71975e-07
9.8723e-06
-3.86148e-07
1.08287e-05
1.17608e-05
-1.32774e-06
3.60508e-07
6.99375e-06
6.58163e-07
7.76744e-06
8.35648e-07
8.81207e-06
7.94237e-07
9.91371e-06
4.19569e-07
1.12034e-05
1.25422e-05
-3.61779e-07
5.15619e-07
6.47813e-06
9.47608e-07
7.33546e-06
1.28901e-06
8.47067e-06
1.45012e-06
9.7526e-06
1.29387e-06
1.13596e-05
1.31292e-05
7.06848e-07
6.61376e-07
5.81675e-06
1.22719e-06
6.76964e-06
1.74064e-06
7.95722e-06
2.12713e-06
9.3661e-06
2.22685e-06
1.12599e-05
1.34816e-05
1.87449e-06
7.90898e-07
5.02586e-06
1.48678e-06
6.07376e-06
2.17607e-06
7.26793e-06
2.80796e-06
8.73422e-06
3.20341e-06
1.08644e-05
1.35504e-05
3.13453e-06
8.94913e-07
4.13094e-06
1.71356e-06
5.25511e-06
2.5769e-06
6.40459e-06
3.46964e-06
7.84148e-06
4.20129e-06
1.01328e-05
1.32749e-05
4.4768e-06
9.60817e-07
3.17013e-06
1.89137e-06
4.32456e-06
2.92044e-06
5.37552e-06
4.08201e-06
6.67991e-06
5.1874e-06
9.02741e-06
1.25763e-05
5.88602e-06
9.73186e-07
2.19694e-06
2.00105e-06
3.29669e-06
3.18049e-06
4.19609e-06
4.60756e-06
5.25284e-06
6.11628e-06
7.51869e-06
1.13426e-05
7.34996e-06
9.18242e-07
1.2787e-06
2.02213e-06
2.19281e-06
3.32849e-06
2.88973e-06
4.99853e-06
3.58279e-06
6.92781e-06
5.58941e-06
9.36652e-06
8.90393e-06
7.8478e-07
4.93918e-07
1.92561e-06
1.05197e-06
3.32613e-06
1.48921e-06
5.16829e-06
1.74063e-06
7.53963e-06
3.21807e-06
6.06169e-06
1.08445e-05
4.93918e-07
1.54589e-06
3.0351e-06
4.77573e-06
7.99381e-06
1.40555e-05
-7.87888e-06
-1.47988e-05
1.93116e-05
-1.08975e-05
-1.59386e-05
1.89572e-05
-1.36428e-05
-1.59347e-05
1.868e-05
-1.6275e-05
-1.59621e-05
1.85943e-05
-1.88514e-05
-1.61949e-05
1.87713e-05
-2.13998e-05
-1.65644e-05
1.91129e-05
-2.39305e-05
-1.70165e-05
1.95472e-05
-2.64469e-05
-1.75169e-05
2.00333e-05
-2.89497e-05
-1.80467e-05
2.05495e-05
-3.14378e-05
-1.85964e-05
2.10845e-05
-3.39094e-05
-1.91607e-05
2.16322e-05
-3.63623e-05
-1.97352e-05
2.21881e-05
-3.87948e-05
-2.03162e-05
2.27486e-05
-4.12048e-05
-2.09006e-05
2.33106e-05
-4.35904e-05
-2.14861e-05
2.38718e-05
-4.59501e-05
-2.20714e-05
2.44311e-05
-4.82825e-05
-2.26567e-05
2.49891e-05
-5.05871e-05
-2.32427e-05
2.55473e-05
-5.28638e-05
-2.38305e-05
2.61071e-05
-5.51127e-05
-2.44204e-05
2.66693e-05
-5.73341e-05
-2.50121e-05
2.72335e-05
-5.95281e-05
-2.56052e-05
2.77992e-05
-6.16954e-05
-2.62015e-05
2.83688e-05
-2.68052e-05
2.89481e-05
-7.68665e-06
-1.12853e-05
-1.08323e-05
-1.2793e-05
-1.36749e-05
-1.3092e-05
-1.63767e-05
-1.32603e-05
-1.90105e-05
-1.35612e-05
-2.16096e-05
-1.39653e-05
-2.41869e-05
-1.44391e-05
-2.67469e-05
-1.49569e-05
-2.92908e-05
-1.55028e-05
-3.18181e-05
-1.60691e-05
-3.43273e-05
-1.66515e-05
-3.68167e-05
-1.72458e-05
-3.92844e-05
-1.78485e-05
-4.17285e-05
-1.84565e-05
-4.4147e-05
-1.90676e-05
-4.65383e-05
-1.96802e-05
-4.89013e-05
-2.02937e-05
-5.12354e-05
-2.09085e-05
-5.35409e-05
-2.1525e-05
-5.5818e-05
-2.21433e-05
-5.8067e-05
-2.27631e-05
-6.02882e-05
-2.33841e-05
-6.24822e-05
-2.40074e-05
-2.46358e-05
-7.77548e-06
-8.28873e-06
-1.08086e-05
-9.75985e-06
-1.36596e-05
-1.0241e-05
-1.63936e-05
-1.05263e-05
-1.90637e-05
-1.08911e-05
-2.16987e-05
-1.13304e-05
-2.43105e-05
-1.18273e-05
-2.69036e-05
-1.23639e-05
-2.94788e-05
-1.29275e-05
-3.20358e-05
-1.35122e-05
-3.45733e-05
-1.4114e-05
-3.70898e-05
-1.47292e-05
-3.95838e-05
-1.53545e-05
-4.20532e-05
-1.59871e-05
-4.4496e-05
-1.66247e-05
-4.69106e-05
-1.72655e-05
-4.92959e-05
-1.79085e-05
-5.16514e-05
-1.8553e-05
-5.39773e-05
-1.91991e-05
-5.62741e-05
-1.98465e-05
-5.85421e-05
-2.04951e-05
-6.07816e-05
-2.11446e-05
-6.29934e-05
-2.17956e-05
-2.24493e-05
-7.87345e-06
-5.53027e-06
-1.07709e-05
-6.86235e-06
-1.35879e-05
-7.42412e-06
-1.63251e-05
-7.78906e-06
-1.90121e-05
-8.20404e-06
-2.16681e-05
-8.67442e-06
-2.43019e-05
-9.19348e-06
-2.69167e-05
-9.74911e-06
-2.95129e-05
-1.03313e-05
-3.20899e-05
-1.09352e-05
-3.46464e-05
-1.15575e-05
-3.71809e-05
-1.21946e-05
-3.9692e-05
-1.28434e-05
-4.21777e-05
-1.35014e-05
-4.46362e-05
-1.41663e-05
-4.70656e-05
-1.48361e-05
-4.94648e-05
-1.55093e-05
-5.18333e-05
-1.61846e-05
-5.41712e-05
-1.68611e-05
-5.64791e-05
-1.75386e-05
-5.87574e-05
-1.82168e-05
-6.10064e-05
-1.88956e-05
-6.32269e-05
-1.95751e-05
-2.02547e-05
-7.89632e-06
-2.89606e-06
-1.06781e-05
-4.08056e-06
-1.34447e-05
-4.65751e-06
-1.61665e-05
-5.06729e-06
-1.88543e-05
-5.51624e-06
-2.15174e-05
-6.01129e-06
-2.41609e-05
-6.55002e-06
-2.67862e-05
-7.12379e-06
-2.9393e-05
-7.72448e-06
-3.198e-05
-8.34819e-06
-3.45459e-05
-8.99159e-06
-3.70892e-05
-9.65129e-06
-3.96083e-05
-1.03243e-05
-4.21015e-05
-1.10082e-05
-4.45668e-05
-1.17009e-05
-4.70025e-05
-1.24005e-05
-4.94071e-05
-1.31046e-05
-5.17802e-05
-1.38115e-05
-5.41217e-05
-1.45196e-05
-5.64322e-05
-1.52281e-05
-5.87121e-05
-1.59369e-05
-6.09617e-05
-1.66461e-05
-6.31819e-05
-1.73548e-05
-1.80611e-05
-7.81374e-06
-3.52423e-07
-1.05036e-05
-1.39073e-06
-1.32165e-05
-1.94462e-06
-1.59117e-05
-2.37204e-06
-1.85875e-05
-2.84044e-06
-2.12455e-05
-3.35333e-06
-2.38871e-05
-3.90843e-06
-2.65121e-05
-4.49874e-06
-2.91191e-05
-5.11746e-06
-3.17063e-05
-5.76099e-06
-3.42721e-05
-6.42587e-06
-3.68147e-05
-7.10861e-06
-3.93328e-05
-7.80627e-06
-4.18244e-05
-8.51657e-06
-4.42878e-05
-9.23756e-06
-4.67211e-05
-9.96718e-06
-4.91228e-05
-1.0703e-05
-5.1492e-05
-1.14423e-05
-5.38287e-05
-1.21829e-05
-5.61332e-05
-1.29236e-05
-5.8406e-05
-1.36641e-05
-6.06475e-05
-1.44046e-05
-6.28586e-05
-1.51437e-05
-1.58779e-05
-7.62027e-06
2.11034e-06
-1.02337e-05
1.22272e-06
-1.28933e-05
7.14967e-07
-1.55547e-05
2.89401e-07
-1.82084e-05
-1.86766e-07
-2.08506e-05
-7.11145e-07
-2.34798e-05
-1.27919e-06
-2.60944e-05
-1.88421e-06
-2.86917e-05
-2.52015e-06
-3.12694e-05
-3.18329e-06
-3.38255e-05
-3.86977e-06
-3.63583e-05
-4.57583e-06
-3.88661e-05
-5.29844e-06
-4.13473e-05
-6.03539e-06
-4.38e-05
-6.78487e-06
-4.62223e-05
-7.54486e-06
-4.86126e-05
-8.3127e-06
-5.09697e-05
-9.08519e-06
-5.32932e-05
-9.85939e-06
-5.55833e-05
-1.06335e-05
-5.78405e-05
-1.1407e-05
-6.0065e-05
-1.21801e-05
-6.22579e-05
-1.29508e-05
-1.37139e-05
-7.31589e-06
4.49491e-06
-9.86129e-06
3.76812e-06
-1.24681e-05
3.32175e-06
-1.50905e-05
2.91183e-06
-1.77141e-05
2.43685e-06
-2.03315e-05
1.9062e-06
-2.29389e-05
1.3282e-06
-2.55333e-05
7.10222e-07
-2.81114e-05
5.79243e-08
-3.06702e-05
-6.24489e-07
-3.32074e-05
-1.33254e-06
-3.57212e-05
-2.06206e-06
-3.82098e-05
-2.80982e-06
-4.06716e-05
-3.57358e-06
-4.31048e-05
-4.35162e-06
-4.55076e-05
-5.14206e-06
-4.78781e-05
-5.94219e-06
-5.02149e-05
-6.74844e-06
-5.25171e-05
-7.55721e-06
-5.47846e-05
-8.36599e-06
-5.70175e-05
-9.17401e-06
-5.92164e-05
-9.98126e-06
-6.13821e-05
-1.0785e-05
-1.15783e-05
-6.90092e-06
6.80055e-06
-9.38175e-06
6.24895e-06
-1.19356e-05
5.87562e-06
-1.45152e-05
5.49145e-06
-1.71025e-05
5.02413e-06
-1.96873e-05
4.49099e-06
-2.22643e-05
3.90523e-06
-2.48297e-05
3.27562e-06
-2.73795e-05
2.6077e-06
-2.99103e-05
1.90635e-06
-3.24197e-05
1.17681e-06
-3.49055e-05
4.23761e-07
-3.73661e-05
-3.49254e-07
-3.97998e-05
-1.13988e-06
-4.22049e-05
-1.94648e-06
-4.45797e-05
-2.7673e-06
-4.69221e-05
-3.59977e-06
-4.92304e-05
-4.44016e-06
-5.15032e-05
-5.28439e-06
-5.37399e-05
-6.12924e-06
-5.59405e-05
-6.97345e-06
-5.81049e-05
-7.81686e-06
-6.02338e-05
-8.65609e-06
-9.47919e-06
-6.37507e-06
9.0238e-06
-8.79192e-06
8.6658e-06
-1.12924e-05
8.37612e-06
-1.38264e-05
8.02548e-06
-1.63724e-05
7.5701e-06
-1.89181e-05
7.03664e-06
-2.14571e-05
6.44426e-06
-2.39852e-05
5.8037e-06
-2.64981e-05
5.12058e-06
-2.89922e-05
4.4005e-06
-3.14649e-05
3.64952e-06
-3.39141e-05
2.87291e-06
-3.63379e-05
2.07457e-06
-3.87348e-05
1.25705e-06
-4.11033e-05
4.21991e-07
-4.34416e-05
-4.29048e-07
-4.57476e-05
-1.29371e-06
-4.80194e-05
-2.16842e-06
-5.02549e-05
-3.04879e-06
-5.24531e-05
-3.93107e-06
-5.46132e-05
-4.81342e-06
-5.67345e-05
-5.6955e-06
-5.88166e-05
-6.57401e-06
-7.42381e-06
-5.73739e-06
1.11585e-05
-8.08912e-06
1.10175e-05
-1.0536e-05
1.0823e-05
-1.30227e-05
1.05121e-05
-1.55236e-05
1.0071e-05
-1.80246e-05
9.53766e-06
-2.05188e-05
8.93849e-06
-2.30019e-05
8.28683e-06
-2.54698e-05
7.58843e-06
-2.79189e-05
6.84959e-06
-3.03465e-05
6.07711e-06
-3.27504e-05
5.27684e-06
-3.51289e-05
4.4531e-06
-3.74805e-05
3.60867e-06
-3.98038e-05
2.74523e-06
-4.2097e-05
1.86419e-06
-4.43583e-05
9.67544e-07
-4.65852e-05
5.85661e-08
-4.87756e-05
-8.58445e-07
-5.09273e-05
-1.77935e-06
-5.30389e-05
-2.7018e-06
-5.51092e-05
-3.62525e-06
-5.71368e-05
-4.54638e-06
-5.4194e-06
-4.98629e-06
1.31961e-05
-7.27073e-06
1.3302e-05
-9.66464e-06
1.32169e-05
-1.21033e-05
1.29508e-05
-1.45565e-05
1.25242e-05
-1.70085e-05
1.19896e-05
-1.9452e-05
1.1382e-05
-2.18832e-05
1.0718e-05
-2.42983e-05
1.00036e-05
-2.66943e-05
9.24554e-06
-2.90684e-05
8.45129e-06
-3.14188e-05
7.62717e-06
-3.37436e-05
6.77791e-06
-3.60414e-05
5.90651e-06
-3.83109e-05
5.01473e-06
-4.05506e-05
4.10384e-06
-4.27585e-05
3.17546e-06
-4.49323e-05
2.23236e-06
-4.70692e-05
1.27851e-06
-4.91667e-05
3.18139e-07
-5.12226e-05
-6.45922e-07
-5.32352e-05
-1.61263e-06
-5.52034e-05
-2.57815e-06
-3.47584e-06
-4.11998e-06
1.51257e-05
-6.33442e-06
1.55164e-05
-8.67687e-06
1.55594e-05
-1.10683e-05
1.53422e-05
-1.34726e-05
1.49285e-05
-1.58723e-05
1.43893e-05
-1.82601e-05
1.37698e-05
-2.06329e-05
1.30909e-05
-2.29882e-05
1.23588e-05
-2.53232e-05
1.15806e-05
-2.7636e-05
1.0764e-05
-2.99245e-05
9.91571e-06
-3.21873e-05
9.04069e-06
-3.4423e-05
8.14219e-06
-3.66303e-05
7.22206e-06
-3.88079e-05
6.28142e-06
-4.0954e-05
5.32153e-06
-4.30662e-05
4.34457e-06
-4.51417e-05
3.35398e-06
-4.71773e-05
2.35383e-06
-4.91705e-05
1.34727e-06
-5.11192e-05
3.36072e-07
-5.30231e-05
-6.7431e-07
-1.60255e-06
-3.13683e-06
1.69348e-05
-5.27846e-06
1.7658e-05
-7.57168e-06
1.78526e-05
-9.9181e-06
1.76886e-05
-1.22738e-05
1.72842e-05
-1.46193e-05
1.67347e-05
-1.69474e-05
1.6098e-05
-1.92563e-05
1.53998e-05
-2.15449e-05
1.46474e-05
-2.38118e-05
1.38474e-05
-2.60552e-05
1.30075e-05
-2.82739e-05
1.21344e-05
-3.04665e-05
1.12333e-05
-3.26318e-05
1.03075e-05
-3.47688e-05
9.35898e-06
-3.6876e-05
8.38869e-06
-3.8952e-05
7.39753e-06
-4.09946e-05
6.38712e-06
-4.30008e-05
5.36025e-06
-4.49676e-05
4.32057e-06
-4.68917e-05
3.27136e-06
-4.87707e-05
2.21508e-06
-5.06032e-05
1.15824e-06
1.91035e-07
-2.03584e-06
1.86089e-05
-4.10191e-06
1.97241e-05
-6.34878e-06
2.00995e-05
-8.65384e-06
1.99937e-05
-1.0963e-05
1.95934e-05
-1.32538e-05
1.90255e-05
-1.55193e-05
1.83635e-05
-1.77595e-05
1.764e-05
-1.99753e-05
1.68632e-05
-2.21668e-05
1.60389e-05
-2.43334e-05
1.51741e-05
-2.64744e-05
1.42753e-05
-2.85888e-05
1.33476e-05
-3.06756e-05
1.23944e-05
-3.27341e-05
1.14175e-05
-3.47631e-05
1.04176e-05
-3.67611e-05
9.39557e-06
-3.87263e-05
8.35226e-06
-4.06558e-05
7.28978e-06
-4.25464e-05
6.21115e-06
-4.43944e-05
5.11942e-06
-4.61965e-05
4.01718e-06
-4.79496e-05
2.91132e-06
1.90031e-06
-8.16966e-07
2.01327e-05
-2.8051e-06
2.17122e-05
-5.00918e-06
2.23036e-05
-7.27805e-06
2.22626e-05
-9.54408e-06
2.18594e-05
-1.1781e-05
2.12624e-05
-1.39823e-05
2.05648e-05
-1.61496e-05
1.98073e-05
-1.82869e-05
1.90005e-05
-2.03964e-05
1.81484e-05
-2.24789e-05
1.72566e-05
-2.45344e-05
1.63308e-05
-2.65626e-05
1.53759e-05
-2.85631e-05
1.43949e-05
-3.05353e-05
1.33896e-05
-3.24782e-05
1.23605e-05
-3.43906e-05
1.1308e-05
-3.62708e-05
1.02324e-05
-3.81162e-05
9.13516e-06
-3.99234e-05
8.01837e-06
-4.16884e-05
6.88445e-06
-4.34069e-05
5.7357e-06
-4.50744e-05
4.57874e-06
3.51938e-06
5.17878e-07
2.14893e-05
-1.39109e-06
2.36212e-05
-3.55628e-06
2.44687e-05
-5.79518e-06
2.45015e-05
-8.02268e-06
2.40869e-05
-1.02076e-05
2.34473e-05
-1.23437e-05
2.27009e-05
-1.4435e-05
2.18986e-05
-1.64888e-05
2.10543e-05
-1.851e-05
2.01696e-05
-2.05011e-05
1.92477e-05
-2.24635e-05
1.82933e-05
-2.43978e-05
1.73102e-05
-2.63041e-05
1.63012e-05
-2.81821e-05
1.52676e-05
-3.00312e-05
1.42097e-05
-3.18505e-05
1.31273e-05
-3.36384e-05
1.20203e-05
-3.53924e-05
1.08892e-05
-3.71091e-05
9.73513e-06
-3.87844e-05
8.55969e-06
-4.0413e-05
7.36435e-06
-4.19891e-05
6.15482e-06
5.04242e-06
1.9618e-06
2.2662e-05
1.31997e-07
2.5451e-05
-1.99817e-06
2.65989e-05
-4.21263e-06
2.67159e-05
-6.40633e-06
2.62806e-05
-8.54154e-06
2.55825e-05
-1.06122e-05
2.47716e-05
-1.26252e-05
2.39116e-05
-1.4591e-05
2.30201e-05
-1.65178e-05
2.20964e-05
-1.84106e-05
2.11406e-05
-2.02725e-05
2.01551e-05
-2.21051e-05
1.91428e-05
-2.39093e-05
1.81054e-05
-2.56854e-05
1.70436e-05
-2.74331e-05
1.59574e-05
-2.91518e-05
1.4846e-05
-3.08401e-05
1.37086e-05
-3.24957e-05
1.25447e-05
-3.41152e-05
1.13546e-05
-3.56942e-05
1.01387e-05
-3.7227e-05
8.89713e-06
-3.87063e-05
7.63413e-06
6.46394e-06
3.50387e-06
2.36349e-05
1.74806e-06
2.72068e-05
-3.49287e-07
2.86963e-05
-2.54222e-06
2.89089e-05
-4.70541e-06
2.84438e-05
-6.79292e-06
2.767e-05
-8.79812e-06
2.67768e-05
-1.07306e-05
2.5844e-05
-1.26042e-05
2.48938e-05
-1.4431e-05
2.39232e-05
-1.6219e-05
2.29285e-05
-1.79731e-05
2.19092e-05
-1.96963e-05
2.08661e-05
-2.13906e-05
1.97997e-05
-2.3057e-05
1.871e-05
-2.46956e-05
1.75961e-05
-2.63063e-05
1.64567e-05
-2.78879e-05
1.52902e-05
-2.94383e-05
1.40951e-05
-3.0954e-05
1.28704e-05
-3.24306e-05
1.16152e-05
-3.38618e-05
1.03284e-05
-3.52392e-05
9.0115e-06
7.7788e-06
5.12117e-06
2.43998e-05
3.43001e-06
2.8898e-05
1.36639e-06
3.07599e-05
-8.01905e-07
3.10772e-05
-2.93427e-06
3.05762e-05
-4.97426e-06
2.971e-05
-6.91324e-06
2.87158e-05
-8.76294e-06
2.76937e-05
-1.05405e-05
2.66714e-05
-1.2262e-05
2.56447e-05
-1.39388e-05
2.46052e-05
-1.5578e-05
2.35485e-05
-1.71844e-05
2.24725e-05
-1.87611e-05
2.13764e-05
-2.03099e-05
2.02588e-05
-2.18319e-05
1.9118e-05
-2.3327e-05
1.79519e-05
-2.47947e-05
1.67578e-05
-2.6233e-05
1.55334e-05
-2.76388e-05
1.42762e-05
-2.90072e-05
1.29837e-05
-3.03317e-05
1.16528e-05
-3.16023e-05
1.02821e-05
8.98209e-06
6.77857e-06
2.49712e-05
5.13431e-06
3.05423e-05
3.11372e-06
3.27805e-05
9.81877e-07
3.3209e-05
-1.11258e-06
3.26706e-05
-3.10125e-06
3.16987e-05
-4.97122e-06
3.05857e-05
-6.73502e-06
2.94575e-05
-8.41267e-06
2.8349e-05
-1.00239e-05
2.72559e-05
-1.15834e-05
2.61647e-05
-1.31011e-05
2.50661e-05
-1.45835e-05
2.3955e-05
-1.60351e-05
2.28279e-05
-1.74587e-05
2.16824e-05
-1.88561e-05
2.05155e-05
-2.02282e-05
1.93239e-05
-2.15746e-05
1.81043e-05
-2.28941e-05
1.68529e-05
-2.41836e-05
1.55657e-05
-2.54384e-05
1.42384e-05
-2.66514e-05
1.28658e-05
-2.78112e-05
1.14419e-05
1.00689e-05
8.417e-06
2.54581e-05
6.7971e-06
3.21622e-05
4.84184e-06
3.47357e-05
2.7709e-06
3.52799e-05
7.33049e-07
3.47085e-05
-1.19341e-06
3.36251e-05
-2.98781e-06
3.23801e-05
-4.66088e-06
3.11306e-05
-6.23426e-06
2.99224e-05
-7.73033e-06
2.8752e-05
-9.16704e-06
2.76015e-05
-1.0557e-05
2.64561e-05
-1.19087e-05
2.53067e-05
-1.32281e-05
2.41473e-05
-1.45191e-05
2.29734e-05
-1.57844e-05
2.17808e-05
-1.70258e-05
2.05653e-05
-1.82436e-05
1.93221e-05
-1.9437e-05
1.80463e-05
-2.06038e-05
1.67324e-05
-2.17393e-05
1.5374e-05
-2.28364e-05
1.39629e-05
-2.3883e-05
1.24885e-05
1.10334e-05
9.94217e-06
2.63604e-05
8.33858e-06
3.37658e-05
6.48214e-06
3.65922e-05
4.51327e-06
3.72488e-05
2.56725e-06
3.66545e-05
7.249e-07
3.54675e-05
-9.81325e-07
3.40864e-05
-2.55595e-06
3.27052e-05
-4.01952e-06
3.1386e-05
-5.39555e-06
3.0128e-05
-6.70438e-06
2.89103e-05
-7.96106e-06
2.77128e-05
-9.1761e-06
2.65217e-05
-1.03568e-05
2.5328e-05
-1.15085e-05
2.4125e-05
-1.26347e-05
2.2907e-05
-1.37379e-05
2.16685e-05
-1.48197e-05
2.04038e-05
-1.58799e-05
1.91066e-05
-1.69172e-05
1.77697e-05
-1.79278e-05
1.63846e-05
-1.89048e-05
1.49398e-05
-1.9834e-05
1.34177e-05
1.18688e-05
1.16271e-05
2.87887e-05
9.80044e-06
3.55924e-05
7.9667e-06
3.84259e-05
6.14766e-06
3.90678e-05
4.34732e-06
3.84548e-05
2.62599e-06
3.71888e-05
1.02813e-06
3.56842e-05
-4.36548e-07
3.41699e-05
-1.78298e-06
3.27324e-05
-3.03383e-06
3.13789e-05
-4.21025e-06
3.00867e-05
-5.32911e-06
2.88316e-05
-6.40263e-06
2.75952e-05
-7.43951e-06
2.63649e-05
-8.44605e-06
2.51316e-05
-9.42686e-06
2.38878e-05
-1.03853e-05
2.2627e-05
-1.13237e-05
2.13422e-05
-1.22432e-05
2.00261e-05
-1.31435e-05
1.86699e-05
-1.4022e-05
1.72632e-05
-1.48726e-05
1.57904e-05
-1.56786e-05
1.42237e-05
1.2574e-05
8.90189e-07
-8.90189e-07
2.24119e-06
-1.35101e-06
3.72035e-06
-1.47916e-06
5.12727e-06
-1.40691e-06
5.88824e-06
-7.60974e-07
-4.39224e-07
6.32747e-06
1.18634e-06
-2.07653e-06
2.55307e-06
-2.71774e-06
3.97514e-06
-2.90123e-06
5.20917e-06
-2.64094e-06
5.95208e-06
-1.50388e-06
-5.14708e-07
6.02756e-06
1.23476e-06
-3.31129e-06
2.50809e-06
-3.99107e-06
3.7953e-06
-4.18844e-06
4.8861e-06
-3.73174e-06
5.57405e-06
-2.19183e-06
-4.33717e-07
5.49306e-06
1.1838e-06
-4.49509e-06
2.33381e-06
-5.14108e-06
3.47514e-06
-5.32978e-06
4.46485e-06
-4.72145e-06
5.1524e-06
-2.87938e-06
-4.34653e-07
5.15333e-06
1.07125e-06
-5.56633e-06
2.08296e-06
-6.1528e-06
3.08156e-06
-6.32837e-06
3.98038e-06
-5.62027e-06
4.70322e-06
-3.60221e-06
-7.1991e-07
4.98847e-06
9.22395e-07
-6.48873e-06
1.78521e-06
-7.01561e-06
2.64196e-06
-7.18512e-06
3.45544e-06
-6.43375e-06
4.22116e-06
-4.36793e-06
-1.2756e-06
4.77685e-06
7.52152e-07
-7.24088e-06
1.45901e-06
-7.72247e-06
2.17146e-06
-7.89757e-06
2.89643e-06
-7.15872e-06
3.67967e-06
-5.15118e-06
-2.01542e-06
4.41949e-06
5.69316e-07
-7.8102e-06
1.11602e-06
-8.26918e-06
1.67959e-06
-8.46113e-06
2.30409e-06
-7.78322e-06
3.06674e-06
-5.91382e-06
-2.86862e-06
3.91994e-06
3.80083e-07
-8.19028e-06
7.64579e-07
-8.65367e-06
1.17367e-06
-8.87023e-06
1.68115e-06
-8.29069e-06
2.38649e-06
-6.61916e-06
-3.77152e-06
3.28939e-06
1.89437e-07
-8.37972e-06
4.11481e-07
-8.87572e-06
6.60706e-07
-9.11945e-06
1.03327e-06
-8.66326e-06
1.64757e-06
-7.23346e-06
-4.66508e-06
2.54113e-06
-2.35653e-09
-8.37736e-06
6.2729e-08
-8.9408e-06
1.47968e-07
-9.20469e-06
3.69353e-07
-8.88465e-06
8.62669e-07
-7.72678e-06
-5.5012e-06
1.69878e-06
-1.7768e-07
-8.19968e-06
-2.74755e-07
-8.84373e-06
-3.56312e-07
-9.12313e-06
-2.99487e-07
-8.94147e-06
4.84153e-08
-8.07468e-06
-6.23937e-06
7.86584e-07
-3.45487e-07
-7.8542e-06
-5.95496e-07
-8.59372e-06
-8.42909e-07
-8.87572e-06
-9.59943e-07
-8.82444e-06
-7.78991e-07
-8.25563e-06
-6.84505e-06
-1.73313e-07
-4.98239e-07
-7.35596e-06
-8.92819e-07
-8.19914e-06
-1.30166e-06
-8.46688e-06
-1.59684e-06
-8.52926e-06
-1.59656e-06
-8.25591e-06
-7.29834e-06
-1.14327e-06
-6.31958e-07
-6.724e-06
-1.16041e-06
-7.67069e-06
-1.72184e-06
-7.90545e-06
-2.19359e-06
-8.05751e-06
-2.38356e-06
-8.06594e-06
-7.57604e-06
-2.10587e-06
-7.42893e-07
-5.9811e-06
-1.39113e-06
-7.02246e-06
-2.09286e-06
-7.20372e-06
-2.7343e-06
-7.41607e-06
-3.11643e-06
-7.68381e-06
-7.66697e-06
-3.02549e-06
-8.27459e-07
-5.15365e-06
-1.57813e-06
-6.27178e-06
-2.40416e-06
-6.37768e-06
-3.20235e-06
-6.61788e-06
-3.77104e-06
-7.11512e-06
-7.56547e-06
-3.87254e-06
-8.82303e-07
-4.27134e-06
-1.7155e-06
-5.43859e-06
-2.64098e-06
-5.4522e-06
-3.57876e-06
-5.68009e-06
-4.32747e-06
-6.36642e-06
-7.27532e-06
-4.61761e-06
-9.04307e-07
-3.36704e-06
-1.79924e-06
-4.54366e-06
-2.78941e-06
-4.46203e-06
-3.83999e-06
-4.62951e-06
-4.76468e-06
-5.44172e-06
-6.81032e-06
-5.22969e-06
-8.90205e-07
-2.47683e-06
-1.82581e-06
-3.60806e-06
-2.84329e-06
-3.44455e-06
-3.95837e-06
-3.51443e-06
-5.03313e-06
-4.36697e-06
-6.15758e-06
-5.68586e-06
-8.36298e-07
-1.64053e-06
-1.79099e-06
-2.65336e-06
-2.79429e-06
-2.44125e-06
-3.91386e-06
-2.39486e-06
-5.09354e-06
-3.18728e-06
-5.27573e-06
-5.97539e-06
-7.38327e-07
-9.02206e-07
-1.68813e-06
-1.70356e-06
-2.62774e-06
-1.50165e-06
-3.67118e-06
-1.35142e-06
-4.90369e-06
-1.95477e-06
-4.10408e-06
-6.07533e-06
-5.86289e-07
-3.15917e-07
-1.49541e-06
-7.94436e-07
-2.31815e-06
-6.78901e-07
-3.15652e-06
-5.13062e-07
-4.36318e-06
-7.48113e-07
-2.5484e-06
-5.91886e-06
-3.15917e-07
-1.11035e-06
-1.78925e-06
-2.30232e-06
-3.05043e-06
-5.59883e-06
1.16972e-05
2.3419e-05
1.06486e-05
3.6641e-05
9.14911e-06
3.99254e-05
7.61463e-06
4.06023e-05
6.0352e-06
4.00343e-05
4.48225e-06
3.87418e-05
3.0217e-06
3.71448e-05
1.68226e-06
3.55093e-05
4.61142e-07
3.39535e-05
-6.59061e-07
3.24991e-05
-1.69925e-06
3.11269e-05
-2.67702e-06
2.98094e-05
-3.60577e-06
2.8524e-05
-4.49532e-06
2.72545e-05
-5.35286e-06
2.59891e-05
-6.18376e-06
2.47187e-05
-6.99205e-06
2.34353e-05
-7.78073e-06
2.21309e-05
-8.55182e-06
2.07972e-05
-9.30629e-06
1.94244e-05
-1.00437e-05
1.80006e-05
-1.07604e-05
1.65071e-05
-1.14392e-05
1.49025e-05
1.31466e-05
1.01084e-05
1.93382e-05
1.07745e-05
3.59749e-05
1.00274e-05
4.06726e-05
8.9011e-06
4.17286e-05
7.61098e-06
4.13244e-05
6.27443e-06
4.00783e-05
4.98284e-06
3.84364e-05
3.78718e-06
3.6705e-05
2.70136e-06
3.50393e-05
1.71631e-06
3.34841e-05
8.14883e-07
3.20283e-05
-2.02238e-08
3.06445e-05
-8.03077e-07
2.93068e-05
-1.54438e-06
2.79958e-05
-2.25198e-06
2.66967e-05
-2.9317e-06
2.53984e-05
-3.58783e-06
2.40914e-05
-4.22353e-06
2.27666e-05
-4.84099e-06
2.14147e-05
-5.44146e-06
2.00249e-05
-6.02567e-06
1.85848e-05
-6.59461e-06
1.7076e-05
-7.14099e-06
1.54489e-05
1.35862e-05
9.03396e-06
1.57973e-05
1.0706e-05
3.43028e-05
1.07013e-05
4.06773e-05
1.0029e-05
4.24009e-05
9.07303e-06
4.22804e-05
7.99247e-06
4.11589e-05
6.8999e-06
3.95289e-05
5.86701e-06
3.77379e-05
4.92645e-06
3.59799e-05
4.0814e-06
3.43292e-05
3.32024e-06
3.27895e-05
2.6275e-06
3.13372e-05
1.98905e-06
2.99453e-05
1.39364e-06
2.85912e-05
8.3277e-07
2.72576e-05
3.0019e-07
2.5931e-05
-2.08493e-07
2.46001e-05
-6.96132e-07
2.32543e-05
-1.16419e-06
2.18827e-05
-1.61248e-06
2.04732e-05
-2.03819e-06
1.90105e-05
-2.43579e-06
1.74736e-05
-2.80815e-06
1.58212e-05
1.39343e-05
8.21434e-06
1.27362e-05
1.05823e-05
3.19348e-05
1.12339e-05
4.00257e-05
1.10248e-05
4.261e-05
1.04308e-05
4.28743e-05
9.63489e-06
4.19548e-05
8.7657e-06
4.03981e-05
7.91332e-06
3.85903e-05
7.12827e-06
3.6765e-05
6.42745e-06
3.503e-05
5.8071e-06
3.34099e-05
5.25491e-06
3.18894e-05
4.75737e-06
3.04428e-05
4.30267e-06
2.90459e-05
3.88137e-06
2.76789e-05
3.48628e-06
2.63261e-05
3.11225e-06
2.49741e-05
2.75623e-06
2.36103e-05
2.41726e-06
2.22217e-05
2.09719e-06
2.07933e-05
1.80393e-06
1.93038e-05
1.55809e-06
1.77195e-05
1.3775e-06
1.60018e-05
1.42074e-05
7.58275e-06
1.0142e-05
1.04044e-05
2.91132e-05
1.16461e-05
3.87841e-05
1.19026e-05
4.23535e-05
1.16835e-05
4.30934e-05
1.11944e-05
4.24439e-05
1.05712e-05
4.10214e-05
9.91728e-06
3.92442e-05
9.29895e-06
3.73833e-05
8.74747e-06
3.55815e-05
8.26869e-06
3.38886e-05
7.85509e-06
3.2303e-05
7.49464e-06
3.08033e-05
7.17537e-06
2.93651e-05
6.88694e-06
2.79673e-05
6.62113e-06
2.65919e-05
6.37193e-06
2.52233e-05
6.13588e-06
2.38463e-05
5.91284e-06
2.24447e-05
5.70706e-06
2.0999e-05
5.52685e-06
1.9484e-05
5.37796e-06
1.78683e-05
5.25682e-06
1.6123e-05
1.42275e-05
7.03338e-06
7.88544e-06
1.01492e-05
2.59973e-05
1.19278e-05
3.70055e-05
1.2658e-05
4.16232e-05
1.28236e-05
4.29278e-05
1.26597e-05
4.26078e-05
1.23041e-05
4.1377e-05
1.18679e-05
3.96804e-05
1.14298e-05
3.78214e-05
1.1035e-05
3.59762e-05
1.07004e-05
3.42232e-05
1.04251e-05
3.25784e-05
1.02e-05
3.10284e-05
1.00141e-05
2.9551e-05
9.85761e-06
2.81239e-05
9.7225e-06
2.6727e-05
9.6037e-06
2.53421e-05
9.49919e-06
2.39508e-05
9.41044e-06
2.25335e-05
9.3421e-06
2.10674e-05
9.30028e-06
1.95258e-05
9.28978e-06
1.78788e-05
9.31726e-06
1.60955e-05
1.41418e-05
6.48955e-06
5.81539e-06
9.78737e-06
2.26995e-05
1.20598e-05
3.4733e-05
1.3274e-05
4.04091e-05
1.38381e-05
4.23637e-05
1.40179e-05
4.2428e-05
1.39517e-05
4.14432e-05
1.37529e-05
3.98792e-05
1.35107e-05
3.80636e-05
1.3283e-05
3.6204e-05
1.30981e-05
3.44082e-05
1.29632e-05
3.27133e-05
1.28741e-05
3.11174e-05
1.28225e-05
2.96026e-05
1.27998e-05
2.81466e-05
1.27994e-05
2.67274e-05
1.28178e-05
2.53238e-05
1.2854e-05
2.39146e-05
1.29097e-05
2.24778e-05
1.29875e-05
2.09896e-05
1.30898e-05
1.94236e-05
1.32179e-05
1.77507e-05
1.33756e-05
1.59378e-05
1.39443e-05
5.89706e-06
3.83826e-06
9.29041e-06
1.93062e-05
1.20193e-05
3.20041e-05
1.37267e-05
3.87017e-05
1.47087e-05
4.13817e-05
1.52504e-05
4.18863e-05
1.54961e-05
4.11975e-05
1.55561e-05
3.98192e-05
1.55288e-05
3.80908e-05
1.54824e-05
3.62504e-05
1.54562e-05
3.44344e-05
1.5467e-05
3.27025e-05
1.55171e-05
3.10672e-05
1.56022e-05
2.95175e-05
1.5716e-05
2.80327e-05
1.58539e-05
2.65895e-05
1.60132e-05
2.51645e-05
1.61932e-05
2.37346e-05
1.63942e-05
2.22768e-05
1.66161e-05
2.07676e-05
1.6858e-05
1.91817e-05
1.71186e-05
1.74901e-05
1.73998e-05
1.56566e-05
1.36339e-05
5.21432e-06
1.91333e-06
8.63062e-06
1.58899e-05
1.17768e-05
2.88579e-05
1.39813e-05
3.64972e-05
1.54063e-05
3.99567e-05
1.63333e-05
4.09593e-05
1.69181e-05
4.06128e-05
1.72564e-05
3.94808e-05
1.74664e-05
3.78808e-05
1.76199e-05
3.6097e-05
1.77658e-05
3.42884e-05
1.79312e-05
3.25371e-05
1.81263e-05
3.08721e-05
1.83519e-05
2.92919e-05
1.86053e-05
2.77793e-05
1.88835e-05
2.63113e-05
1.91846e-05
2.48634e-05
1.95074e-05
2.34118e-05
1.98504e-05
2.19338e-05
2.02111e-05
2.04069e-05
2.0586e-05
1.88068e-05
2.09726e-05
1.71035e-05
2.13716e-05
1.52576e-05
1.3214e-05
4.4216e-06
3.28619e-08
7.8001e-06
1.25114e-05
1.13041e-05
2.53539e-05
1.40015e-05
3.37998e-05
1.58955e-05
3.80626e-05
1.72259e-05
3.96289e-05
1.81796e-05
3.96591e-05
1.88496e-05
3.88108e-05
1.93091e-05
3.74213e-05
1.96806e-05
3.57255e-05
2.00149e-05
3.39541e-05
2.0347e-05
3.22051e-05
2.06952e-05
3.05239e-05
2.10669e-05
2.89203e-05
2.14629e-05
2.73832e-05
2.18826e-05
2.58917e-05
2.23244e-05
2.44216e-05
2.27867e-05
2.29495e-05
2.32666e-05
2.14538e-05
2.37598e-05
1.99138e-05
2.42613e-05
1.83053e-05
2.47672e-05
1.65976e-05
2.52778e-05
1.4747e-05
1.26904e-05
3.52442e-06
-1.79278e-06
6.79932e-06
9.23648e-06
1.05735e-05
2.15798e-05
1.37509e-05
3.06224e-05
1.61403e-05
3.56733e-05
1.79016e-05
3.78676e-05
1.92333e-05
3.83274e-05
2.02804e-05
3.77637e-05
2.10444e-05
3.66572e-05
2.16486e-05
3.51214e-05
2.21883e-05
3.34143e-05
2.27015e-05
3.16919e-05
2.32137e-05
3.00117e-05
2.37384e-05
2.83956e-05
2.42811e-05
2.68405e-05
2.48432e-05
2.53296e-05
2.54241e-05
2.38407e-05
2.6022e-05
2.23516e-05
2.66333e-05
2.08425e-05
2.72528e-05
1.92943e-05
2.78743e-05
1.76838e-05
2.8493e-05
1.59788e-05
2.91082e-05
1.41318e-05
1.20706e-05
2.52678e-06
-3.53297e-06
5.63548e-06
6.12777e-06
9.56724e-06
1.7648e-05
1.31912e-05
2.69984e-05
1.60946e-05
3.27699e-05
1.8334e-05
3.56282e-05
2.0069e-05
3.65924e-05
2.14684e-05
3.63643e-05
2.26102e-05
3.55154e-05
2.3492e-05
3.42396e-05
2.42611e-05
3.26453e-05
2.49741e-05
3.09789e-05
2.56649e-05
2.93209e-05
2.63529e-05
2.77075e-05
2.70484e-05
2.6145e-05
2.77555e-05
2.46225e-05
2.8475e-05
2.31212e-05
2.92054e-05
2.16212e-05
2.99433e-05
2.01046e-05
3.06833e-05
1.85542e-05
3.14187e-05
1.69484e-05
3.21435e-05
1.5254e-05
3.28558e-05
1.34196e-05
1.13631e-05
1.44341e-06
-5.14969e-06
4.34325e-06
3.22792e-06
8.29163e-06
1.36997e-05
1.229e-05
2.30001e-05
1.5705e-05
2.93549e-05
1.84516e-05
3.28816e-05
2.06473e-05
3.43968e-05
2.24158e-05
3.45958e-05
2.39233e-05
3.4008e-05
2.51634e-05
3.29994e-05
2.61938e-05
3.16148e-05
2.71337e-05
3.0039e-05
2.80235e-05
2.84312e-05
2.88898e-05
2.68413e-05
2.97482e-05
2.52866e-05
3.06065e-05
2.37642e-05
3.1467e-05
2.22606e-05
3.23294e-05
2.07588e-05
3.31911e-05
1.9243e-05
3.40475e-05
1.76978e-05
3.48917e-05
1.61042e-05
3.57165e-05
1.44292e-05
3.65184e-05
1.26177e-05
1.05772e-05
3.05073e-07
-6.59803e-06
2.97072e-06
5.62282e-07
6.79882e-06
9.87155e-06
1.1036e-05
1.87629e-05
1.49252e-05
2.54657e-05
1.81955e-05
2.96113e-05
2.08842e-05
3.1708e-05
2.30971e-05
3.23828e-05
2.4958e-05
3.21471e-05
2.6573e-05
3.13845e-05
2.79337e-05
3.02541e-05
2.91374e-05
2.88352e-05
3.02541e-05
2.73145e-05
3.13197e-05
2.57757e-05
3.23567e-05
2.42495e-05
3.33773e-05
2.27437e-05
3.43864e-05
2.12516e-05
3.53849e-05
1.97603e-05
3.63715e-05
1.82564e-05
3.73429e-05
1.67264e-05
3.82931e-05
1.5154e-05
3.92136e-05
1.35087e-05
4.00986e-05
1.17327e-05
9.72188e-06