/*--------------------------------*- C++ -*----------------------------------*\
  =========                 |
  \\      /  F ield         | OpenFOAM: The Open Source CFD Toolbox
   \\    /   O peration     | Website:  https://openfoam.org
    \\  /    A nd           | Version:  11
     \\/     M anipulation  |
\*---------------------------------------------------------------------------*/
FoamFile
{
    format      ascii;
    class       volVectorField;
    location    "1.96";
    object      U;
}
// * * * * * * * * * * * * * * * * * * * * * * * * * * * * * * * * * * * * * //

dimensions      [0 1 -1 0 0 0 0];

internalField   nonuniform List<vector> 
2880
(
(0.034834 -0.0609268 -1.08427e-18)
(0.181105 -0.121472 -7.74197e-19)
(0.328829 -0.173151 7.43116e-20)
(0.401517 -0.192451 1.67814e-21)
(0.395892 -0.190765 3.68564e-19)
(0.232877 -0.0970397 -9.01152e-20)
(0.0773243 -0.0931317 -5.2443e-19)
(0.23372 -0.171636 3.67815e-19)
(0.343307 -0.20505 0)
(0.389543 -0.207194 0)
(0.392454 -0.191117 -3.93002e-19)
(0.301993 -0.105826 0)
(0.102776 -0.121142 4.88239e-19)
(0.245582 -0.199812 -1.58808e-19)
(0.331668 -0.221468 0)
(0.371765 -0.213298 0)
(0.376866 -0.18205 0)
(0.344202 -0.0888392 0)
(0.122912 -0.150506 0)
(0.247313 -0.222884 -1.58465e-19)
(0.318052 -0.236701 3.73832e-21)
(0.356053 -0.220292 -2.72481e-20)
(0.365866 -0.180594 0)
(0.364745 -0.0924517 0)
(0.138785 -0.178455 0)
(0.246216 -0.242803 1.48686e-19)
(0.306257 -0.251473 0)
(0.342598 -0.230096 -6.82568e-20)
(0.359565 -0.186647 -7.70832e-20)
(0.376973 -0.107638 0)
(0.151183 -0.203632 1.50727e-20)
(0.244088 -0.259757 -1.49435e-19)
(0.295673 -0.265847 0)
(0.331526 -0.242422 1.08502e-19)
(0.355909 -0.198936 -9.10611e-20)
(0.385824 -0.129704 1.25831e-19)
(0.160885 -0.22601 0)
(0.241044 -0.274243 0)
(0.285974 -0.280011 -4.32056e-19)
(0.322158 -0.257152 6.2157e-20)
(0.353307 -0.21632 1.06516e-19)
(0.392297 -0.156745 -1.2286e-19)
(0.168513 -0.245519 9.50985e-19)
(0.236982 -0.286836 0)
(0.276713 -0.294173 7.3444e-19)
(0.31376 -0.274097 4.04303e-20)
(0.350807 -0.237791 -2.72561e-19)
(0.396766 -0.187281 -5.79925e-20)
(0.174401 -0.261923 -9.18538e-19)
(0.23173 -0.297972 0)
(0.267432 -0.30848 -3.79583e-19)
(0.305666 -0.292997 6.21219e-19)
(0.347823 -0.262588 2.67255e-19)
(0.399452 -0.220558 1.13557e-19)
(0.178712 -0.275034 0)
(0.225094 -0.307938 0)
(0.257714 -0.323005 0)
(0.297301 -0.313581 -6.09191e-19)
(0.343947 -0.290155 0)
(0.400497 -0.256219 0)
(0.181177 -0.284668 1.87309e-18)
(0.216968 -0.316939 0)
(0.247198 -0.337761 7.24276e-19)
(0.288171 -0.335594 -6.68423e-19)
(0.338844 -0.320086 6.47223e-20)
(0.399992 -0.294128 1.09478e-19)
(0.181377 -0.290798 -1.8423e-18)
(0.207297 -0.325096 0)
(0.235582 -0.3527 -6.28351e-19)
(0.277854 -0.358777 5.14404e-19)
(0.332234 -0.352076 -1.23277e-19)
(0.397972 -0.334291 1.11956e-19)
(0.178886 -0.293525 0)
(0.196049 -0.332469 5.98916e-20)
(0.222628 -0.367703 -7.5654e-19)
(0.265985 -0.382873 7.14823e-20)
(0.323851 -0.385864 5.83806e-20)
(0.394393 -0.376755 2.13888e-19)
(0.173347 -0.293045 0)
(0.183193 -0.339034 0)
(0.208182 -0.382581 8.00179e-19)
(0.252248 -0.407579 -2.44979e-21)
(0.313412 -0.42119 -6.24395e-20)
(0.389144 -0.421593 -1.09458e-19)
(0.164551 -0.289574 -2.9308e-20)
(0.168742 -0.344683 -6.17388e-20)
(0.192157 -0.397057 -7.60324e-19)
(0.236397 -0.432476 6.50901e-19)
(0.30061 -0.457736 4.833e-19)
(0.382038 -0.468858 -3.20345e-19)
(0.152421 -0.283311 1.91649e-18)
(0.152839 -0.349194 -9.67185e-19)
(0.174559 -0.410706 -4.69385e-20)
(0.218252 -0.456996 -5.81453e-19)
(0.285114 -0.495038 -6.02326e-19)
(0.372796 -0.518499 1.06289e-19)
(0.137103 -0.274373 -3.90991e-18)
(0.135753 -0.352143 2.19207e-18)
(0.155514 -0.422901 7.42448e-19)
(0.1977 -0.480342 0)
(0.266559 -0.532371 0)
(0.361019 -0.570258 0)
(0.119096 -0.262625 1.90634e-18)
(0.117859 -0.352837 -1.10151e-18)
(0.13528 -0.432724 -6.71249e-19)
(0.174663 -0.501427 -7.63067e-20)
(0.244526 -0.568644 -1.16478e-19)
(0.346129 -0.623601 -2.90549e-19)
(0.0993759 -0.247403 6.02842e-20)
(0.099589 -0.350177 -1.06542e-19)
(0.11421 -0.438859 8.41887e-19)
(0.149045 -0.518823 0)
(0.218513 -0.602257 4.88526e-19)
(0.327223 -0.677586 1.03159e-19)
(0.0793829 -0.227207 -1.88662e-18)
(0.0814039 -0.342466 -3.75378e-20)
(0.0926892 -0.439517 8.30807e-19)
(0.120711 -0.530787 -6.40997e-19)
(0.188001 -0.630813 -5.04358e-19)
(0.302772 -0.730653 3.99869e-19)
(0.0606303 -0.199806 -3.52993e-21)
(0.0637513 -0.327384 -1.26712e-18)
(0.0711371 -0.432548 -8.80791e-19)
(0.089603 -0.535524 6.77956e-19)
(0.15249 -0.650907 -4.01652e-19)
(0.269952 -0.781002 -5.00777e-19)
(0.0448499 -0.164159 2.09578e-18)
(0.0475353 -0.302463 -4.62354e-20)
(0.0504459 -0.415704 0)
(0.056417 -0.531676 0)
(0.1121 -0.657497 5.6345e-19)
(0.222825 -0.82892 9.21797e-19)
(0.0351193 -0.122045 0)
(0.0347958 -0.263921 2.11305e-18)
(0.033027 -0.385239 1.34206e-19)
(0.0231094 -0.517466 -5.30837e-20)
(0.0673826 -0.639182 0)
(0.147344 -0.888474 -2.28835e-19)
(0.0340103 -0.0630447 1.70486e-20)
(0.0260668 -0.185251 -8.40015e-19)
(0.0149302 -0.314304 -3.53612e-20)
(-0.0264363 -0.475057 5.94708e-20)
(0.0418104 -0.566579 8.15716e-20)
(0.0032774 -1.02441 -3.19274e-19)
(0.47276 0.277754 -1.56504e-19)
(0.652719 0.231399 -6.44024e-20)
(0.72308 0.189721 -1.57191e-19)
(0.777273 0.155075 3.19044e-19)
(0.816373 0.131109 -1.539e-19)
(0.848273 0.113423 1.35889e-19)
(0.874528 0.0997076 5.78866e-20)
(0.896535 0.0884874 5.24725e-20)
(0.91515 0.0789388 9.40818e-20)
(0.93097 0.0706161 8.76391e-20)
(0.944412 0.0632428 -7.98092e-20)
(0.955821 0.0566071 -7.46102e-20)
(0.96547 0.050534 1.05257e-21)
(0.973571 0.0448799 0)
(0.980298 0.0395354 1.28113e-19)
(0.985799 0.0344345 -6.266e-20)
(0.990204 0.0295564 1.18494e-19)
(0.993637 0.0249104 -1.14716e-19)
(0.996225 0.0205071 5.54001e-20)
(0.998095 0.0163345 -1.06043e-19)
(0.999337 0.0123597 1.53399e-19)
(0.999872 0.00858414 5.89708e-22)
(0.999476 0.00512439 -4.7695e-20)
(0.998615 0.00204905 0)
(0.440533 0.18914 0)
(0.614985 0.181939 -1.00628e-19)
(0.695864 0.15333 -2.83174e-20)
(0.756569 0.1258 -2.78904e-19)
(0.799862 0.105996 0)
(0.834589 0.0911542 -1.35459e-19)
(0.862938 0.0796097 -6.03522e-20)
(0.886581 0.0701966 -1.59371e-19)
(0.906521 0.0622259 -4.85281e-20)
(0.923439 0.0553381 -4.39369e-20)
(0.937824 0.0493109 3.96063e-20)
(0.950063 0.0439544 -3.95342e-20)
(0.960451 0.0391116 -7.22473e-20)
(0.969221 0.0346522 6.77583e-20)
(0.976562 0.0304755 -9.80972e-20)
(0.98263 0.0265164 0)
(0.987561 0.0227469 0)
(0.991483 0.0191648 0)
(0.994523 0.0157727 -1.6671e-19)
(0.996804 0.0125599 1.34559e-19)
(0.99842 0.00949988 1.29517e-19)
(0.999363 0.00658119 -1.49893e-19)
(0.999556 0.00386259 9.68502e-20)
(0.999303 0.00141649 -1.73213e-19)
(0.441176 0.11808 0)
(0.592945 0.129301 1.30158e-19)
(0.675538 0.113258 0)
(0.739486 0.0936243 9.38541e-20)
(0.785808 0.0785933 0)
(0.822825 0.0670158 0)
(0.852982 0.0579432 6.02507e-20)
(0.878087 0.0505705 2.70369e-20)
(0.899234 0.0443732 7.33121e-20)
(0.917156 0.0390853 0)
(0.93239 0.0345343 0)
(0.94536 0.0305672 7.642e-20)
(0.956392 0.0270516 -5.13256e-22)
(0.965738 0.023876 -3.4577e-20)
(0.9736 0.0209513 3.26864e-20)
(0.980143 0.0182139 0)
(0.985508 0.0156271 -6.04627e-20)
(0.989826 0.0131758 5.85416e-20)
(0.993225 0.0108543 0)
(0.995827 0.00865234 2.71134e-20)
(0.997728 0.00655182 -1.30473e-19)
(0.998976 0.00454033 1.00888e-19)
(0.999588 0.00264359 -9.75715e-20)
(0.999756 0.000911773 4.37173e-20)
(0.449277 0.0601775 5.11467e-21)
(0.580208 0.0788432 4.26721e-21)
(0.661483 0.0721312 0)
(0.726297 0.0597026 5.84171e-21)
(0.77455 0.0494587 -5.25249e-21)
(0.813287 0.0413153 0)
(0.844916 0.0349022 7.53943e-21)
(0.871257 0.0297441 -3.53442e-21)
(0.893447 0.0254785 -6.08269e-21)
(0.912244 0.0219305 -5.42322e-21)
(0.928215 0.0189773 1.31271e-20)
(0.941813 0.0165022 0)
(0.953383 0.0144014 0)
(0.963198 0.0125874 -2.16382e-21)
(0.971475 0.0109865 0)
(0.978388 0.0095389 0)
(0.984084 0.00819986 1.32862e-20)
(0.988695 0.00694069 -1.47129e-20)
(0.992352 0.00574531 1.76758e-21)
(0.995177 0.00460334 0)
(0.997274 0.00350562 -1.64182e-21)
(0.998716 0.00244635 0)
(0.999566 0.001433 0)
(0.999957 0.000476641 1.09743e-20)
(0.457697 0.00945663 -9.80577e-21)
(0.573176 0.0313692 1.60919e-20)
(0.65229 0.0312273 -1.45596e-20)
(0.716795 0.0248759 0)
(0.766183 0.0190983 4.13528e-20)
(0.806145 0.0143817 3.5594e-20)
(0.838914 0.0107203 0)
(0.866252 0.00789097 -3.42787e-21)
(0.889302 0.00567356 0)
(0.908823 0.00397478 -3.0554e-22)
(0.925401 0.00271924 -4.46995e-20)
(0.939504 0.00182489 0)
(0.951498 0.00121655 0)
(0.961669 0.000830961 2.16216e-21)
(0.970247 0.000613266 0)
(0.977416 0.000511185 0)
(0.983329 0.000474543 3.2341e-20)
(0.988123 0.000460691 -2.94801e-20)
(0.99193 0.00044154 -1.76699e-21)
(0.994877 0.00040512 0)
(0.997071 0.000351322 1.64173e-21)
(0.998594 0.000284096 0)
(0.999487 0.000195487 -2.45137e-20)
(0.999898 4.97417e-05 1.02431e-23)
(0.464438 -0.0377899 3.80679e-20)
(0.569586 -0.0137101 -3.38793e-20)
(0.64673 -0.00908088 -8.55562e-20)
(0.710586 -0.010401 -2.48625e-20)
(0.760641 -0.0121025 -4.1233e-20)
(0.80145 -0.0134849 3.58933e-20)
(0.835073 -0.0143729 -6.23725e-20)
(0.863187 -0.0148108 9.64157e-22)
(0.886914 -0.014898 9.99459e-20)
(0.907 -0.014663 2.20205e-20)
(0.924042 -0.0141413 6.28156e-20)
(0.93852 -0.0133838 3.0497e-22)
(0.950812 -0.0124377 7.34374e-20)
(0.961216 -0.0113412 0)
(0.969974 -0.010129 0)
(0.977278 -0.00884245 0)
(0.983289 -0.00753432 0)
(0.988148 -0.0062595 0)
(0.991991 -0.00505874 0)
(0.994949 -0.00394768 0)
(0.997138 -0.00291859 2.61987e-20)
(0.998613 -0.00196072 2.53029e-20)
(0.999366 -0.00110784 0)
(0.999579 -0.000430317 6.57481e-20)
(0.469793 -0.0828031 3.46217e-19)
(0.568185 -0.0572807 1.6503e-19)
(0.643997 -0.0488987 -5.47703e-20)
(0.707288 -0.0459395 0)
(0.757775 -0.0438883 1.65777e-19)
(0.799185 -0.0420506 -7.13907e-20)
(0.833443 -0.0401781 1.16434e-21)
(0.86214 -0.0381919 1.21499e-21)
(0.886371 -0.0360924 -9.9748e-20)
(0.906864 -0.0338605 1.35188e-19)
(0.924224 -0.0314997 -4.38998e-20)
(0.938939 -0.0290339 -1.17585e-19)
(0.951397 -0.0264848 -3.65054e-20)
(0.961906 -0.0238663 6.87724e-20)
(0.970717 -0.0211919 -6.55304e-20)
(0.97803 -0.0184887 1.25536e-19)
(0.984012 -0.015807 -6.12882e-20)
(0.988812 -0.0132108 0)
(0.992568 -0.0107543 -5.60134e-20)
(0.995422 -0.00845892 -1.08201e-19)
(0.997495 -0.00631158 7.84904e-20)
(0.998799 -0.004304 7.57063e-20)
(0.999207 -0.00251075 -1.46782e-19)
(0.999014 -0.00102412 1.96738e-19)
(0.474098 -0.126681 3.84918e-20)
(0.56836 -0.100147 -2.61723e-19)
(0.643579 -0.0885085 2.24426e-19)
(0.706579 -0.0817094 0)
(0.75744 -0.0761254 -1.65647e-19)
(0.799318 -0.0711528 6.98278e-20)
(0.834051 -0.0665307 -6.39542e-20)
(0.863169 -0.0620971 2.19293e-19)
(0.887743 -0.0577691 9.76555e-20)
(0.90849 -0.0534924 -1.80434e-19)
(0.926022 -0.0492455 1.6761e-19)
(0.940833 -0.0450288 0)
(0.953322 -0.0408414 0)
(0.963804 -0.0366743 -6.86639e-20)
(0.972536 -0.0325191 5.31932e-22)
(0.979727 -0.0283856 -6.21116e-20)
(0.985553 -0.0243158 -6.02352e-20)
(0.990164 -0.0203785 1.15315e-19)
(0.993706 -0.01664 -3.96826e-22)
(0.996333 -0.0131293 -5.34212e-20)
(0.998172 -0.00983152 -5.15312e-20)
(0.99917 -0.00675506 -2.50369e-19)
(0.999034 -0.00404596 1.4541e-19)
(0.998222 -0.00179282 0)
(0.477604 -0.170277 -7.9652e-20)
(0.569811 -0.142962 -3.21908e-19)
(0.645166 -0.128236 5.73332e-20)
(0.708244 -0.1178 0)
(0.759538 -0.108773 0)
(0.801826 -0.100686 0)
(0.836922 -0.0932985 0)
(0.866325 -0.0863866 -1.10607e-19)
(0.891095 -0.0797923 -9.94695e-20)
(0.911948 -0.0734323 8.9656e-20)
(0.929504 -0.0672634 -1.64471e-19)
(0.94427 -0.0612653 1.5525e-19)
(0.956651 -0.0554164 0)
(0.966971 -0.0496861 0)
(0.975492 -0.0440446 -6.34061e-20)
(0.98243 -0.0384816 6.30803e-20)
(0.987966 -0.033025 -5.7909e-20)
(0.992256 -0.0277416 1.7113e-19)
(0.995452 -0.0227066 -1.09912e-19)
(0.997722 -0.0179569 -1.5849e-19)
(0.999202 -0.0134804 2.56598e-19)
(0.999753 -0.00932236 4.97941e-20)
(0.998869 -0.00574131 0)
(0.997235 -0.00279184 -4.29804e-20)
(0.480501 -0.214307 -9.68148e-19)
(0.572411 -0.186292 3.24293e-19)
(0.648613 -0.168441 0)
(0.712183 -0.154366 0)
(0.764031 -0.14185 -1.59797e-19)
(0.806718 -0.130588 1.45498e-19)
(0.842094 -0.120373 0)
(0.871662 -0.110932 2.1743e-19)
(0.896487 -0.102029 -1.9517e-19)
(0.9173 -0.0935513 8.63406e-20)
(0.934736 -0.0854329 -8.59311e-20)
(0.949312 -0.0776332 0)
(0.961444 -0.0701105 0)
(0.971465 -0.0628143 1.32532e-19)
(0.979641 -0.0556934 -2.53166e-19)
(0.986193 -0.0487156 0)
(0.991305 -0.04189 5.86024e-20)
(0.995139 -0.0352733 -5.64607e-20)
(0.997853 -0.0289431 1.63071e-19)
(0.999631 -0.0229422 -2.09194e-19)
(1.00062 -0.0172641 -2.01474e-19)
(1.00057 -0.0120073 1.95161e-19)
(0.99873 -0.0075793 9.39781e-20)
(0.99613 -0.00409866 1.27573e-19)
(0.482966 -0.25941 5.16771e-19)
(0.576138 -0.23068 0)
(0.653907 -0.209493 0)
(0.718405 -0.191596 0)
(0.770956 -0.175409 1.5828e-19)
(0.814047 -0.160818 -1.44205e-19)
(0.849629 -0.14766 -2.42613e-19)
(0.879246 -0.135609 -5.38816e-19)
(0.903987 -0.124345 1.02179e-19)
(0.924613 -0.113715 -1.74425e-19)
(0.941778 -0.103625 -1.62589e-19)
(0.956017 -0.0940129 0)
(0.967758 -0.084815 1.37744e-19)
(0.977339 -0.0759612 1.3006e-19)
(0.985034 -0.0673796 1.23112e-19)
(0.991064 -0.0590155 -2.36195e-19)
(0.995617 -0.0508547 2.28777e-19)
(0.998856 -0.0429362 0)
(1.00094 -0.0353307 2.11509e-19)
(1.00208 -0.028079 0)
(1.00242 -0.0211751 -9.75933e-20)
(1.00164 -0.0147802 -1.92167e-19)
(0.998647 -0.00951167 -2.78356e-19)
(0.995056 -0.00579993 1.67731e-19)
(0.485141 -0.306166 0)
(0.581061 -0.276654 -4.97799e-19)
(0.661148 -0.251784 1.05179e-19)
(0.72703 -0.229698 -2.77076e-19)
(0.780421 -0.209521 3.21269e-19)
(0.823914 -0.19135 -1.42436e-19)
(0.859617 -0.175068 2.43572e-19)
(0.889157 -0.16029 2.15271e-19)
(0.913667 -0.146598 3.80747e-19)
(0.933952 -0.133777 3.40304e-19)
(0.950692 -0.1217 -4.24415e-21)
(0.964442 -0.110273 1.44745e-19)
(0.975641 -0.0994086 -4.09888e-19)
(0.98464 -0.0890168 3.80689e-19)
(0.991712 -0.0790047 -2.47059e-19)
(0.997083 -0.0692948 -2.30294e-19)
(1.00094 -0.0598474 3.32463e-19)
(1.00344 -0.0506779 0)
(1.00476 -0.0418405 1.01438e-19)
(1.0051 -0.0333649 -1.99734e-19)
(1.00464 -0.0252397 1.9234e-19)
(1.00299 -0.0177025 9.22274e-20)
(0.998713 -0.0116607 0)
(0.994051 -0.00787026 8.24429e-20)
(0.487169 -0.355125 2.1286e-19)
(0.587357 -0.324719 3.70841e-19)
(0.670566 -0.295727 1.03339e-19)
(0.738274 -0.268892 -9.42346e-20)
(0.792614 -0.244259 1.53622e-19)
(0.836472 -0.222152 -2.76046e-19)
(0.872181 -0.202497 -5.71981e-21)
(0.901495 -0.184837 -3.13541e-19)
(0.925609 -0.168629 0)
(0.945387 -0.153577 -1.71371e-19)
(0.961537 -0.139499 -4.62007e-19)
(0.974636 -0.126264 2.85219e-19)
(0.985141 -0.113754 2.65379e-19)
(0.993407 -0.101856 -1.26235e-19)
(0.999715 -0.0904552 -3.27562e-21)
(1.00429 -0.0794515 1.12963e-19)
(1.00731 -0.0687794 -3.25346e-19)
(1.00894 -0.0584264 1.02051e-19)
(1.00934 -0.0484231 0)
(1.00873 -0.0387767 2.87939e-19)
(1.00732 -0.0294607 -1.89999e-19)
(1.00467 -0.0208052 2.73711e-19)
(0.998999 -0.0140982 -3.47342e-19)
(0.993138 -0.0103145 -7.85781e-20)
(0.489211 -0.406808 7.25172e-20)
(0.595332 -0.375348 1.17225e-19)
(0.682522 -0.34171 -1.07113e-19)
(0.752454 -0.309391 0)
(0.807798 -0.27969 -3.03592e-19)
(0.851928 -0.253182 2.70428e-19)
(0.887479 -0.229832 -2.26996e-19)
(0.916376 -0.209088 4.16261e-19)
(0.939902 -0.190261 -1.86288e-19)
(0.958986 -0.172931 0)
(0.974367 -0.156845 1.52776e-19)
(0.986646 -0.141818 -1.40781e-19)
(0.996294 -0.127697 -2.57562e-19)
(1.00368 -0.114337 -1.18743e-19)
(1.00908 -0.101602 -3.71439e-21)
(1.01271 -0.089369 -2.1262e-19)
(1.01477 -0.0775461 1.06751e-19)
(1.01539 -0.0660928 -1.01559e-19)
(1.01475 -0.0550105 -9.48338e-20)
(1.01306 -0.0442752 -9.47331e-20)
(1.01056 -0.0338397 -4.52822e-19)
(1.00676 -0.0241475 4.37363e-19)
(0.999608 -0.0169306 0)
(0.99225 -0.013106 -2.02037e-19)
(0.491474 -0.461703 -6.08639e-19)
(0.60543 -0.428964 0)
(0.69752 -0.390052 0)
(0.770008 -0.351372 -5.10011e-19)
(0.826333 -0.315846 3.13809e-19)
(0.870553 -0.284368 2.60059e-19)
(0.905706 -0.256929 -1.15521e-19)
(0.933937 -0.232857 6.00111e-19)
(0.95664 -0.211286 -6.51008e-22)
(0.974815 -0.191629 6.08144e-21)
(0.98923 -0.173534 1.42746e-19)
(1.00051 -0.156746 1.3141e-19)
(1.00913 -0.141061 2.48765e-19)
(1.01547 -0.126301 -1.12829e-19)
(1.01982 -0.112302 1.83665e-21)
(1.02239 -0.0989174 1.06384e-19)
(1.02335 -0.0860314 1.01737e-19)
(1.02285 -0.0735755 1.91537e-19)
(1.02104 -0.0615202 1.84054e-19)
(1.01815 -0.049803 1.77622e-19)
(1.01442 -0.0383441 -2.627e-19)
(1.00933 -0.0276963 -8.60645e-20)
(1.00056 -0.0200643 0)
(0.991554 -0.0162893 -2.66907e-19)
(0.494234 -0.520255 6.65201e-19)
(0.618253 -0.485892 -1.17211e-19)
(0.716221 -0.440977 3.78647e-19)
(0.79151 -0.394924 6.68868e-19)
(0.84868 -0.352695 1.40974e-19)
(0.892684 -0.315586 -3.73235e-19)
(0.927091 -0.283599 -2.228e-19)
(0.954325 -0.255917 -1.94865e-19)
(0.975918 -0.231463 -1.82057e-19)
(0.992934 -0.209432 3.07394e-19)
(1.00616 -0.189336 -1.43167e-19)
(1.01624 -0.17083 -5.70767e-21)
(1.02367 -0.153647 -1.22125e-19)
(1.02881 -0.137567 1.09341e-19)
(1.03196 -0.122394 1.07641e-19)
(1.03333 -0.107954 9.78542e-20)
(1.03308 -0.0941081 9.349e-20)
(1.03134 -0.0807618 0)
(1.02826 -0.067855 -9.04003e-20)
(1.02405 -0.0552826 8.36818e-20)
(1.01896 -0.0429219 2.47337e-19)
(1.01243 -0.0314205 -6.51041e-19)
(1.00195 -0.0234728 3.13383e-19)
(0.99117 -0.019865 -7.16953e-20)
(0.497862 -0.582854 4.96101e-19)
(0.634597 -0.54627 1.04168e-19)
(0.739458 -0.494499 -4.75389e-19)
(0.817684 -0.439999 -3.28034e-19)
(0.875407 -0.390083 0)
(0.918718 -0.346625 1.3862e-20)
(0.951894 -0.309598 -2.02657e-19)
(0.977697 -0.277997 1.88443e-19)
(0.997827 -0.25051 -1.67647e-19)
(1.01339 -0.226062 -1.5096e-19)
(1.02518 -0.203988 0)
(1.03385 -0.183827 -1.26259e-19)
(1.03989 -0.165235 0)
(1.04368 -0.147938 -1.09365e-19)
(1.04549 -0.1317 9.80021e-20)
(1.04553 -0.116322 9.22785e-20)
(1.04396 -0.101637 -2.76142e-19)
(1.04088 -0.0875281 -8.51977e-20)
(1.03643 -0.0739054 -1.67929e-19)
(1.0308 -0.0606209 1.5934e-19)
(1.02423 -0.047502 0)
(1.01615 -0.035274 -3.12857e-19)
(1.00388 -0.027119 -7.78791e-20)
(0.991206 -0.0238114 3.54851e-19)
(0.502863 -0.649733 -6.13539e-19)
(0.655459 -0.609933 1.06112e-19)
(0.768282 -0.550266 -3.3064e-19)
(0.84941 -0.486281 0)
(0.907158 -0.427687 0)
(0.949098 -0.37715 2.34172e-19)
(0.98039 -0.334594 2.04399e-19)
(1.00421 -0.298771 -1.68207e-19)
(1.02244 -0.268101 1.52755e-19)
(1.0362 -0.241209 -2.77309e-19)
(1.04627 -0.217199 -1.23211e-19)
(1.0533 -0.195469 -1.13349e-19)
(1.05777 -0.17558 1.10004e-19)
(1.06003 -0.157192 -2.04322e-19)
(1.06037 -0.140026 -1.95107e-19)
(1.05897 -0.123848 2.69624e-19)
(1.05597 -0.108467 -1.7186e-19)
(1.05147 -0.0937396 2.50905e-19)
(1.04556 -0.0795509 0)
(1.03843 -0.0657117 -7.89779e-20)
(1.03028 -0.0519974 2.98724e-19)
(1.02053 -0.0391934 -5.88445e-19)
(1.00645 -0.0309487 2.8896e-19)
(0.991762 -0.0280836 0)
(0.50993 -0.720741 4.76303e-19)
(0.682125 -0.676285 -9.83775e-20)
(0.803932 -0.607396 4.08486e-19)
(0.887644 -0.533033 -4.64851e-19)
(0.944617 -0.464917 4.69357e-19)
(0.984281 -0.406659 -1.04547e-20)
(1.01286 -0.358144 9.47002e-20)
(1.03402 -0.317844 1.31109e-20)
(1.04981 -0.283868 -1.43678e-19)
(1.06135 -0.254527 1.43189e-19)
(1.06939 -0.228651 5.32694e-21)
(1.07453 -0.205465 2.25158e-19)
(1.07722 -0.184419 1.05453e-19)
(1.07781 -0.165094 0)
(1.07655 -0.147159 -9.26455e-20)
(1.0736 -0.130345 8.18973e-20)
(1.06909 -0.114431 -2.41694e-19)
(1.06309 -0.0992501 -1.55288e-19)
(1.05566 -0.0846617 2.9992e-19)
(1.04695 -0.0704398 -1.45263e-19)
(1.03715 -0.0563088 2.81195e-19)
(1.02565 -0.0430987 6.16445e-21)
(1.00972 -0.0348889 -1.99623e-19)
(0.992933 -0.0326162 0)
(0.520079 -0.795254 -4.36751e-19)
(0.716232 -0.744038 3.8177e-19)
(0.847724 -0.66425 -3.30018e-19)
(0.93331 -0.578959 1.40624e-19)
(0.988431 -0.500823 -1.18771e-19)
(1.02469 -0.434423 -1.08004e-19)
(1.04954 -0.379666 7.40009e-20)
(1.06722 -0.334731 3.01452e-19)
(1.07993 -0.297395 0)
(1.08878 -0.265643 1.27366e-19)
(1.09443 -0.238005 1.06818e-19)
(1.09742 -0.213509 1.02029e-19)
(1.09814 -0.191471 -9.93523e-20)
(1.0969 -0.171389 8.98518e-20)
(1.09391 -0.152873 8.09851e-20)
(1.08933 -0.13561 0)
(1.08323 -0.11935 -7.30159e-20)
(1.07567 -0.1039 1.46127e-19)
(1.06668 -0.0890972 0)
(1.05636 -0.0746806 -6.54765e-20)
(1.04485 -0.0603275 0)
(1.03155 -0.0468964 2.01269e-19)
(1.01377 -0.0388491 -5.76869e-19)
(0.9948 -0.0373232 2.45958e-19)
(0.535215 -0.872513 0)
(0.759651 -0.810862 -3.05835e-19)
(0.900819 -0.718124 3.16358e-19)
(0.987123 -0.62202 2.38653e-19)
(1.03909 -0.533987 -9.57406e-20)
(1.07063 -0.459433 1.57064e-19)
(1.09059 -0.398419 -1.62142e-19)
(1.10385 -0.348863 -1.51725e-19)
(1.11275 -0.308219 1.24938e-19)
(1.11838 -0.274158 1.11206e-19)
(1.12127 -0.244909 -1.13616e-19)
(1.12183 -0.219282 -9.04349e-20)
(1.12037 -0.19645 -1.80015e-19)
(1.11715 -0.175816 8.31693e-20)
(1.11233 -0.156927 7.44467e-20)
(1.10603 -0.139425 -1.4857e-19)
(1.09829 -0.123027 -1.40998e-19)
(1.08915 -0.107516 2.01001e-19)
(1.07858 -0.0927026 -6.28547e-20)
(1.06663 -0.0782982 6.53234e-20)
(1.05339 -0.063935 5.88137e-20)
(1.03826 -0.0504814 6.22626e-20)
(1.01864 -0.0427202 6.30482e-20)
(0.997425 -0.0420957 -5.60025e-20)
(0.559518 -0.952341 -2.62252e-19)
(0.814539 -0.873001 -2.96798e-20)
(0.964056 -0.765085 -1.03229e-19)
(1.0494 -0.659283 -2.73414e-19)
(1.09673 -0.562407 -9.87495e-20)
(1.12214 -0.480358 -1.5824e-19)
(1.13599 -0.413479 0)
(1.14381 -0.359576 -1.29679e-19)
(1.14814 -0.315834 0)
(1.14997 -0.279657 1.00622e-19)
(1.14969 -0.249006 -2.79847e-19)
(1.14754 -0.222467 1.72863e-19)
(1.1437 -0.199068 0)
(1.13836 -0.178111 7.58144e-20)
(1.13161 -0.159076 -7.19723e-20)
(1.12353 -0.141562 0)
(1.11413 -0.125253 -1.92675e-19)
(1.10339 -0.109904 -4.88933e-21)
(1.09125 -0.0953036 1.25743e-19)
(1.07771 -0.0811375 -6.03548e-20)
(1.06276 -0.0669968 5.45792e-20)
(1.04582 -0.0537337 -1.1457e-19)
(1.0244 -0.0463687 1.1114e-19)
(1.00086 -0.0468134 5.6352e-20)
(0.595234 -1.03997 2.79547e-19)
(0.880397 -0.923385 1.35539e-20)
(1.03631 -0.799438 1.50811e-19)
(1.11933 -0.686711 0)
(1.16077 -0.58338 1.38567e-19)
(1.17885 -0.495493 5.90729e-20)
(1.18544 -0.423738 1.17073e-21)
(1.18686 -0.366112 -5.13512e-20)
(1.18584 -0.319701 0)
(1.1833 -0.281727 0)
(1.17944 -0.24995 5.46196e-21)
(1.17429 -0.222763 -4.79676e-21)
(1.16789 -0.199048 0)
(1.16029 -0.178013 0)
(1.15154 -0.159074 0)
(1.14164 -0.141786 0)
(1.13057 -0.1258 6.25119e-20)
(1.11825 -0.110848 -6.00414e-20)
(1.10459 -0.0966967 5.79107e-20)
(1.0895 -0.0830103 -5.598e-20)
(1.07293 -0.0693467 0)
(1.05426 -0.0565232 0)
(1.03118 -0.0496818 -1.05999e-19)
(1.00494 -0.0513543 1.69672e-19)
(0.638565 -1.18227 -8.08614e-20)
(0.963647 -0.96406 -3.30007e-20)
(1.11847 -0.817501 6.53142e-22)
(1.19569 -0.7001 1.6667e-20)
(1.22977 -0.59386 -4.90636e-20)
(1.23973 -0.502867 1.96096e-20)
(1.23827 -0.427978 0)
(1.2325 -0.367671 4.28144e-20)
(1.22545 -0.319268 -3.59294e-21)
(1.21802 -0.279968 3.46425e-20)
(1.21019 -0.247426 -3.31559e-20)
(1.20177 -0.219893 0)
(1.19263 -0.196137 6.52279e-20)
(1.18267 -0.17528 -6.1473e-20)
(1.17186 -0.156681 0)
(1.16012 -0.139856 -2.99024e-20)
(1.14737 -0.12443 5.41027e-20)
(1.13351 -0.110112 0)
(1.1184 -0.0966534 0)
(1.10187 -0.0837031 0)
(1.08378 -0.0707915 0)
(1.0635 -0.0586603 0)
(1.03884 -0.0524324 7.47484e-20)
(1.00977 -0.0555365 -3.51051e-20)
(-0.00616967 -0.123702 1.06852e-20)
(-0.0306067 -0.254975 5.06577e-19)
(-0.0561745 -0.413422 0)
(-0.0603862 -0.491987 -4.63933e-20)
(-0.0405852 -0.57067 -3.61404e-19)
(0.0310252 -0.362091 6.9627e-20)
(-0.045599 -0.172648 3.31614e-19)
(-0.0756408 -0.3117 -2.44994e-19)
(-0.0873658 -0.446135 0)
(-0.0744492 -0.509566 0)
(-0.0270481 -0.558699 3.04729e-19)
(0.0378222 -0.421677 0)
(-0.0831699 -0.183146 -3.09385e-19)
(-0.107933 -0.316057 1.06968e-19)
(-0.110355 -0.430879 0)
(-0.084186 -0.479836 0)
(-0.0163065 -0.518816 0)
(0.0622473 -0.417344 0)
(-0.121454 -0.181207 0)
(-0.135318 -0.304284 1.12148e-19)
(-0.129416 -0.40122 -2.9788e-21)
(-0.0928414 -0.440328 2.33777e-20)
(-0.00983104 -0.473851 0)
(0.0929241 -0.4017 0)
(-0.155925 -0.173284 0)
(-0.159865 -0.284231 -1.10941e-19)
(-0.147612 -0.364921 0)
(-0.103539 -0.397703 6.16944e-20)
(-0.00875162 -0.423155 7.3891e-20)
(0.113171 -0.381855 0)
(-0.18668 -0.163525 -1.02735e-20)
(-0.182352 -0.260122 1.13356e-19)
(-0.165945 -0.325858 0)
(-0.117144 -0.3534 -9.97216e-20)
(-0.0161854 -0.372071 9.29908e-20)
(0.118312 -0.353056 -1.36204e-19)
(-0.213439 -0.153873 0)
(-0.203313 -0.234343 0)
(-0.184891 -0.286144 3.72289e-19)
(-0.134176 -0.30833 -5.93563e-20)
(-0.0322392 -0.321889 -1.08387e-19)
(0.110317 -0.31524 1.33707e-19)
(-0.235694 -0.144795 -6.59642e-19)
(-0.222836 -0.20819 0)
(-0.204457 -0.246889 -6.40918e-19)
(-0.154585 -0.263248 -3.79295e-20)
(-0.0556192 -0.272428 2.91138e-19)
(0.0886928 -0.271372 6.81614e-20)
(-0.253085 -0.136163 6.36791e-19)
(-0.240813 -0.182378 0)
(-0.224377 -0.208681 3.36621e-19)
(-0.177924 -0.218746 -6.19108e-19)
(-0.0850162 -0.223801 -2.86398e-19)
(0.0560014 -0.224026 -1.3631e-19)
(-0.265394 -0.127635 0)
(-0.257081 -0.157316 0)
(-0.244236 -0.17184 0)
(-0.203509 -0.175301 6.09446e-19)
(-0.119206 -0.176304 0)
(0.0142624 -0.175377 0)
(-0.27257 -0.11881 -1.33487e-18)
(-0.271457 -0.133239 0)
(-0.263632 -0.136549 -6.63562e-19)
(-0.230426 -0.133324 6.81706e-19)
(-0.156953 -0.130397 -6.90023e-20)
(-0.0345937 -0.127354 -1.33707e-19)
(-0.274841 -0.109348 1.30985e-18)
(-0.283609 -0.110188 0)
(-0.281962 -0.102972 5.73322e-19)
(-0.257819 -0.093149 -5.25888e-19)
(-0.196968 -0.0866281 1.40787e-19)
(-0.088593 -0.0815847 -1.28209e-19)
(-0.272413 -0.0989717 0)
(-0.293209 -0.0881968 -4.97651e-20)
(-0.298659 -0.0712095 6.94982e-19)
(-0.284676 -0.0551122 -7.54351e-20)
(-0.237864 -0.0455429 -7.11988e-20)
(-0.145721 -0.0393157 -2.51706e-19)
(-0.265668 -0.0873777 0)
(-0.299947 -0.0673581 0)
(-0.313167 -0.0413566 -7.37795e-19)
(-0.309927 -0.0195374 -2.62056e-21)
(-0.278145 -0.00764571 6.6376e-20)
(-0.203998 -0.00151161 1.32468e-19)
(-0.254931 -0.0744587 2.08319e-20)
(-0.303531 -0.0476968 4.97812e-20)
(-0.32489 -0.0134503 6.95497e-19)
(-0.332518 0.0132555 -6.54094e-19)
(-0.316252 0.0266664 -5.29252e-19)
(-0.261309 0.0311125 3.69051e-19)
(-0.240584 -0.0602883 -1.35097e-18)
(-0.303653 -0.0292029 7.33076e-19)
(-0.333107 0.0122021 3.77757e-20)
(-0.351492 0.0434038 5.82987e-19)
(-0.350543 0.0570467 6.59431e-19)
(-0.315519 0.0581849 -1.18855e-19)
(-0.222971 -0.045107 2.75013e-18)
(-0.300044 -0.0118587 -1.63777e-18)
(-0.336973 0.0354563 -6.65286e-19)
(-0.366038 0.0709056 0)
(-0.379276 0.0833522 0)
(-0.364608 0.0795901 0)
(-0.202364 -0.0293112 -1.33649e-18)
(-0.292456 0.00437423 8.12778e-19)
(-0.335844 0.0562661 5.89911e-19)
(-0.374415 0.0949289 7.20009e-20)
(-0.401294 0.106211 1.28285e-19)
(-0.406362 0.0955553 3.42363e-19)
(-0.178908 -0.0134164 -4.28569e-20)
(-0.280655 0.0195846 7.8899e-20)
(-0.329519 0.074725 -7.38494e-19)
(-0.374062 0.115011 0)
(-0.415598 0.125816 -5.25726e-19)
(-0.438424 0.106571 -1.14467e-19)
(-0.15255 0.00203797 1.30485e-18)
(-0.264337 0.0338951 2.65871e-20)
(-0.317828 0.0906741 -7.20123e-19)
(-0.364417 0.131422 6.2346e-19)
(-0.417364 0.142254 5.45714e-19)
(-0.459036 0.111767 -4.58729e-19)
(-0.123166 0.0165446 -6.27501e-23)
(-0.243003 0.0472629 9.24146e-19)
(-0.300405 0.103681 7.56343e-19)
(-0.344773 0.143603 -6.49834e-19)
(-0.404525 0.154043 4.31314e-19)
(-0.466319 0.114613 6.02908e-19)
(-0.091238 0.0290527 -1.45165e-18)
(-0.21556 0.059135 3.24685e-20)
(-0.276509 0.112882 0)
(-0.312841 0.15015 0)
(-0.372404 0.16191 -6.02212e-19)
(-0.458105 0.122541 -1.15533e-18)
(-0.0576908 0.0367713 0)
(-0.177879 0.0682524 -1.54829e-18)
(-0.243071 0.116804 -1.08007e-19)
(-0.263763 0.149787 4.49185e-20)
(-0.310427 0.165537 0)
(-0.426955 0.154286 2.50133e-19)
(-0.0129176 0.0380917 7.44463e-19)
(-0.106782 0.0756412 1.18559e-18)
(-0.185699 0.122332 3.03737e-20)
(-0.185746 0.143273 -1.48225e-19)
(-0.189689 0.140967 8.48896e-20)
(-0.388781 0.121291 3.23861e-19)
(0.741465 -1.0076 1.15262e-19)
(1.06571 -0.932056 -2.63823e-20)
(1.20771 -0.807861 -3.37884e-21)
(1.27508 -0.694413 -3.3149e-20)
(1.301 -0.591124 3.25296e-20)
(1.3029 -0.500707 1.67465e-20)
(1.2933 -0.425062 1.60794e-20)
(1.27996 -0.363531 -2.1747e-20)
(1.26644 -0.314047 -3.85989e-20)
(1.25369 -0.274034 2.32887e-20)
(1.24156 -0.241162 6.44832e-20)
(1.22965 -0.213628 -2.89158e-20)
(1.21761 -0.190118 -2.86059e-20)
(1.20521 -0.169692 2.69267e-20)
(1.19228 -0.151666 0)
(1.17869 -0.135526 -2.68105e-20)
(1.1643 -0.120878 4.90752e-20)
(1.14895 -0.10742 -4.70872e-20)
(1.13245 -0.0948928 2.18393e-20)
(1.1146 -0.0829465 -4.46619e-20)
(1.09514 -0.0710926 4.34843e-20)
(1.07344 -0.0599253 -6.85654e-20)
(1.04736 -0.0543177 1.11015e-19)
(1.01537 -0.0591268 -5.27915e-20)
(0.708293 -0.748567 0)
(1.13751 -0.856474 6.82517e-20)
(1.28891 -0.769223 1.17452e-20)
(1.35019 -0.668739 3.60732e-20)
(1.37039 -0.574073 0)
(1.36578 -0.488027 -1.68607e-20)
(1.34886 -0.414193 -4.68323e-21)
(1.3282 -0.353149 -3.42073e-20)
(1.30808 -0.303678 -9.41244e-21)
(1.28978 -0.26367 -1.53444e-20)
(1.27313 -0.23097 1.36052e-20)
(1.25755 -0.203801 -9.54935e-21)
(1.24251 -0.180824 -2.34653e-20)
(1.2276 -0.161065 2.39032e-20)
(1.21254 -0.143813 -3.32007e-20)
(1.1971 -0.128538 0)
(1.18109 -0.114839 0)
(1.1643 -0.102412 0)
(1.14649 -0.0910071 -6.35302e-20)
(1.12739 -0.0803082 4.99735e-20)
(1.10672 -0.0698441 4.92973e-20)
(1.08382 -0.0599623 -5.9634e-20)
(1.05663 -0.0548136 4.17114e-20)
(1.02168 -0.0616829 -6.38736e-20)
(0.622082 -0.558701 0)
(1.16003 -0.760166 -8.31666e-20)
(1.34758 -0.70954 0)
(1.41477 -0.626924 -2.23883e-20)
(1.43409 -0.543594 0)
(1.42566 -0.46483 0)
(1.40309 -0.395084 4.71434e-21)
(1.37597 -0.336242 4.58412e-21)
(1.34955 -0.287965 1.24432e-20)
(1.32571 -0.248749 0)
(1.30446 -0.216756 0)
(1.28512 -0.19033 2.11482e-20)
(1.26701 -0.168162 7.33589e-22)
(1.24957 -0.149274 -9.58443e-21)
(1.23239 -0.132946 1.07001e-20)
(1.21514 -0.118642 0)
(1.19755 -0.105964 -1.94845e-20)
(1.17935 -0.0946171 1.86453e-20)
(1.16027 -0.0843782 0)
(1.13999 -0.0750122 8.78379e-21)
(1.11815 -0.066153 -4.5515e-20)
(1.09414 -0.0578384 3.60945e-20)
(1.06612 -0.0526524 -3.72488e-20)
(1.0296 -0.0617314 1.8764e-20)
(0.549684 -0.438963 -5.79728e-21)
(1.1455 -0.655186 -3.93519e-21)
(1.38092 -0.636684 0)
(1.46535 -0.572846 -2.26285e-21)