/*--------------------------------*- C++ -*----------------------------------*\
  =========                 |
  \\      /  F ield         | OpenFOAM: The Open Source CFD Toolbox
   \\    /   O peration     | Website:  https://openfoam.org
    \\  /    A nd           | Version:  11
     \\/     M anipulation  |
\*---------------------------------------------------------------------------*/
FoamFile
{
    format      ascii;
    class       surfaceVectorField;
    location    "1.96";
    object      Uf;
}
// * * * * * * * * * * * * * * * * * * * * * * * * * * * * * * * * * * * * * //

dimensions      [0 1 -1 0 0 0 0];

internalField   nonuniform List<vector> 
5640
(
(0.0986818 -0.088327 -9.38179e-19)
(0.0567069 -0.0736913 -8.04351e-19)
(0.2503 -0.145873 -3.67996e-19)
(0.207626 -0.14542 -2.03191e-19)
(0.353274 -0.180104 3.03777e-20)
(0.336007 -0.189425 3.71558e-20)
(0.386612 -0.188928 1.71572e-19)
(0.395204 -0.201556 8.39072e-22)
(0.374662 -0.157982 1.44722e-19)
(0.393017 -0.19709 -2.54687e-20)
(0.26393 -0.120069 -4.50576e-20)
(0.279268 0.071127 -6.22496e-20)
(0.147222 -0.129535 -1.04045e-19)
(0.0901891 -0.105987 -1.93212e-20)
(0.285533 -0.187532 1.91734e-19)
(0.239908 -0.183605 1.06764e-19)
(0.361793 -0.205492 0)
(0.337633 -0.212057 0)
(0.392588 -0.199633 -1.90991e-19)
(0.380762 -0.209354 0)
(0.37854 -0.154161 -2.01211e-19)
(0.384674 -0.186471 -1.96501e-19)
(0.323554 -0.0935567 0)
(0.326085 0.0223448 0)
(0.168157 -0.15804 1.83703e-19)
(0.112813 -0.136392 2.4412e-19)
(0.286036 -0.210113 -8.27827e-20)
(0.246461 -0.211114 -1.58512e-19)
(0.349446 -0.217381 0)
(0.324871 -0.228882 1.86916e-21)
(0.377075 -0.198361 0)
(0.36392 -0.216596 -1.36241e-20)
(0.373411 -0.13766 0)
(0.371373 -0.181198 0)
(0.354571 -0.0888695 0)
(0.36647 -0.000975724 0)
(0.180701 -0.184589 -7.46612e-20)
(0.130853 -0.164897 0)
(0.280474 -0.229483 -8.08142e-20)
(0.246768 -0.233142 -4.88925e-21)
(0.335811 -0.22876 -1.12618e-20)
(0.312156 -0.244209 1.86916e-21)
(0.36294 -0.201047 -1.4006e-20)
(0.349327 -0.225335 -4.77338e-20)
(0.370371 -0.137692 0)
(0.362714 -0.183523 -3.85416e-20)
(0.370848 -0.0989571 0)
(0.390287 -0.0286032 2.13235e-21)
(0.189059 -0.208788 7.0054e-20)
(0.14499 -0.191122 7.53635e-21)
(0.274416 -0.246977 7.75066e-20)
(0.245169 -0.251502 -4.92243e-22)
(0.3236 -0.241155 -3.29754e-20)
(0.300974 -0.258783 0)
(0.352185 -0.208922 -7.25463e-20)
(0.337067 -0.236329 2.01602e-20)
(0.370383 -0.147989 -3.94656e-20)
(0.35773 -0.192701 -8.41203e-20)
(0.381359 -0.11816 6.29156e-20)
(0.404996 -0.0590638 -4.08812e-21)
(0.194819 -0.230091 -6.24591e-20)
(0.156038 -0.214849 7.53635e-21)
(0.26836 -0.262719 -7.78972e-20)
(0.242581 -0.267109 -7.47177e-20)
(0.312951 -0.254535 5.24184e-20)
(0.290833 -0.272999 -2.16028e-19)
(0.344155 -0.221204 1.17827e-20)
(0.326844 -0.249805 8.53297e-20)
(0.371764 -0.165013 1.47853e-20)
(0.354599 -0.207568 7.66267e-21)
(0.389038 -0.143068 1.6526e-21)
(0.415076 -0.0917685 8.92418e-20)
(0.198655 -0.248735 0)
(0.164716 -0.235844 4.75492e-19)
(0.262184 -0.277069 -2.06835e-19)
(0.239025 -0.280596 0)
(0.303509 -0.268958 -1.9332e-19)
(0.281352 -0.287131 1.51275e-19)
(0.337711 -0.237236 8.39992e-20)
(0.31796 -0.265629 5.12937e-20)
(0.373072 -0.187117 -5.42276e-21)
(0.352048 -0.227011 -8.30224e-20)
(0.394517 -0.171945 -9.04265e-20)
(0.422339 -0.126316 7.27025e-20)
(0.200926 -0.264948 5.02925e-19)
(0.171494 -0.253853 1.59334e-20)
(0.255636 -0.290438 3.51593e-19)
(0.234365 -0.292435 0)
(0.294722 -0.284447 3.99065e-19)
(0.272079 -0.30135 1.77375e-19)
(0.33195 -0.256407 -1.11678e-19)
(0.309713 -0.283549 3.30825e-19)
(0.373687 -0.213031 -1.67849e-19)
(0.349305 -0.250153 -2.73239e-21)
(0.398095 -0.203869 2.77822e-20)
(0.427526 -0.162378 -1.62265e-20)
(0.201743 -0.278804 -4.85765e-19)
(0.176606 -0.268619 -4.59269e-19)
(0.248425 -0.303127 -1.81715e-19)
(0.228419 -0.302976 0)
(0.286048 -0.300954 1.03913e-19)
(0.262578 -0.315756 -1.89792e-19)
(0.326197 -0.278205 4.49199e-19)
(0.301484 -0.303289 6.01253e-21)
(0.373307 -0.241986 1.92248e-19)
(0.345875 -0.276342 1.33628e-19)
(0.39996 -0.238345 5.67784e-20)
(0.43104 -0.199908 3.08986e-20)
(0.201083 -0.290335 0)
(0.179989 -0.279954 9.36544e-19)
(0.240267 -0.315323 0)
(0.221039 -0.312457 0)
(0.277003 -0.318389 -2.94305e-19)
(0.252459 -0.33039 3.62138e-19)
(0.319925 -0.302214 -3.13136e-19)
(0.292735 -0.324586 -6.38807e-19)
(0.37174 -0.273517 0)
(0.341386 -0.305097 3.23612e-20)
(0.40023 -0.275139 5.47388e-20)
(0.433147 -0.239019 -4.0363e-19)
(0.198731 -0.29955 9.90576e-19)
(0.18131 -0.287798 1.50867e-20)
(0.230947 -0.327136 3.46728e-19)
(0.212138 -0.321029 0)
(0.267167 -0.336633 5.14519e-20)
(0.241391 -0.345234 4.79472e-20)
(0.312697 -0.328104 -3.11979e-19)
(0.283011 -0.347184 -7.70188e-20)
(0.368826 -0.307352 8.65635e-20)
(0.33553 -0.336063 -2.92773e-20)
(0.398968 -0.314181 1.10717e-19)
(0.434042 -0.279906 2.78072e-19)
(0.1944 -0.306513 -9.74291e-19)
(0.180151 -0.292194 -9.21148e-19)
(0.220299 -0.338606 -3.00806e-19)
(0.201673 -0.328782 2.99458e-20)
(0.256185 -0.355536 -7.59413e-20)
(0.229106 -0.360205 -6.92445e-19)
(0.304146 -0.355595 2.04503e-19)
(0.271918 -0.370823 2.92943e-19)
(0.364422 -0.343338 -8.76272e-21)
(0.328034 -0.368955 -3.24481e-20)
(0.396166 -0.355495 1.62922e-19)
(0.433847 -0.322821 6.52805e-20)
(0.187805 -0.311343 2.82182e-20)
(0.176107 -0.293271 0)
(0.208204 -0.349698 -3.31635e-19)
(0.189625 -0.335758 2.99458e-20)
(0.243752 -0.374918 -3.56515e-19)
(0.215402 -0.375138 2.18002e-20)
(0.293947 -0.384428 6.48602e-20)
(0.259116 -0.395224 3.45163e-20)
(0.358364 -0.381363 1.3451e-19)
(0.318622 -0.403514 -2.02944e-21)
(0.391748 -0.399145 5.23645e-20)
(0.432615 -0.368028 2.14554e-19)
(0.179095 -0.3139 0)
(0.168919 -0.291271 -1.4654e-20)
(0.194504 -0.360359 3.83065e-19)
(0.175957 -0.341845 -3.08694e-20)
(0.229672 -0.39451 4.12827e-19)
(0.200166 -0.389814 1.99278e-20)
(0.281797 -0.414322 -3.18972e-20)
(0.24432 -0.420024 3.24226e-19)
(0.350448 -0.421329 -8.53853e-20)
(0.307001 -0.439451 2.1043e-19)
(0.385564 -0.445191 -2.14714e-19)
(0.430357 -0.415799 -3.23227e-20)
(0.167791 -0.314478 -4.45879e-20)
(0.158427 -0.286377 9.43593e-19)
(0.17924 -0.370352 -3.95229e-19)
(0.160768 -0.346914 -5.14462e-19)
(0.213752 -0.413982 -7.90186e-20)
(0.183349 -0.403871 -4.03688e-19)
(0.267409 -0.444915 5.6945e-19)
(0.227321 -0.444731 3.47499e-20)
(0.340429 -0.463096 9.11099e-20)
(0.292853 -0.476377 -5.94542e-20)
(0.377385 -0.493643 -1.07028e-19)
(0.427063 -0.466378 -4.42121e-19)
(0.154011 -0.313019 5.57838e-19)
(0.14467 -0.278752 -9.9616e-19)
(0.162471 -0.379373 -5.27712e-19)
(0.144261 -0.350634 6.12235e-19)
(0.195919 -0.432828 -3.05167e-19)
(0.16502 -0.416787 3.47655e-19)
(0.250539 -0.475682 -5.91597e-19)
(0.207972 -0.468665 -2.90727e-19)
(0.328 -0.506395 -2.5682e-19)
(0.275829 -0.513697 -3.01163e-19)
(0.366872 -0.544344 5.31443e-20)
(0.422621 -0.52 3.39304e-19)
(0.137964 -0.309383 -1.03792e-18)
(0.127979 -0.268395 -1.00246e-18)
(0.144403 -0.3869 1.4981e-18)
(0.126753 -0.352445 5.45576e-19)
(0.176189 -0.450331 3.83766e-19)
(0.145373 -0.427792 3.55996e-20)
(0.230951 -0.505859 0)
(0.186182 -0.490886 -3.81533e-20)
(0.312785 -0.55072 0)
(0.25554 -0.550505 -5.8239e-20)
(0.353538 -0.596899 -1.45274e-19)
(0.416945 -0.576736 2.06829e-19)
(0.120086 -0.30317 4.89181e-19)
(0.109104 -0.254914 9.83313e-19)
(0.125355 -0.392131 -8.95535e-19)
(0.108669 -0.351466 -6.04027e-19)
(0.15466 -0.465475 -3.82913e-19)
(0.124735 -0.435785 8.52696e-20)
(0.208408 -0.534351 -9.58292e-20)
(0.161887 -0.51015 -3.81533e-20)
(0.294302 -0.595224 -2.02136e-19)
(0.231536 -0.585463 1.86024e-19)
(0.336647 -0.650571 -9.38505e-20)
(0.409886 -0.636471 -4.25206e-19)
(0.101093 -0.293519 -1.6418e-20)
(0.0893036 -0.237255 -9.1317e-19)
(0.105723 -0.393866 3.49018e-19)
(0.0905255 -0.346341 -7.20399e-20)
(0.131485 -0.476854 4.35165e-19)
(0.103529 -0.43924 8.36347e-19)
(0.182618 -0.559637 2.37415e-19)
(0.135001 -0.524885 -3.20498e-19)
(0.271887 -0.638558 3.00462e-19)
(0.203338 -0.616588 -8.32518e-21)
(0.315033 -0.704142 2.51694e-19)
(0.401114 -0.698833 2.50686e-19)
(0.0819587 -0.278839 -1.01331e-18)
(0.0702445 -0.21364 -9.4392e-19)
(0.0859306 -0.390369 3.78159e-19)
(0.0728508 -0.335079 -6.52329e-19)
(0.106827 -0.482622 1.19767e-19)
(0.0821683 -0.436176 -2.62322e-20)
(0.153255 -0.579659 -5.74593e-19)
(0.105373 -0.533277 1.95298e-20)
(0.244598 -0.67857 -6.3083e-20)
(0.170487 -0.640996 -4.53005e-19)
(0.286659 -0.755995 -5.04543e-20)
(0.390017 -0.763105 5.10737e-20)
(0.0637204 -0.256807 -5.98875e-19)
(0.0534878 -0.182342 1.04964e-18)
(0.0664019 -0.379427 -1.08217e-18)
(0.0559715 -0.315081 -6.55136e-19)
(0.0809287 -0.480626 -1.27747e-19)
(0.0609141 -0.424185 -4.40395e-19)
(0.120025 -0.591867 1.53286e-19)
(0.0727497 -0.533475 3.38978e-19)
(0.210957 -0.7122 -4.44304e-19)
(0.13266 -0.654377 8.26146e-20)
(0.247255 -0.805377 2.14584e-19)
(0.375448 -0.82893 -2.91998e-19)
(0.0477974 -0.225502 1.08937e-18)
(0.0399322 -0.143081 1.04789e-18)
(0.0479877 -0.35881 -2.41014e-20)
(0.0401154 -0.28277 1.02861e-18)
(0.0546533 -0.468729 0)
(0.0400471 -0.399792 6.71029e-20)
(0.0833257 -0.593168 2.73826e-19)
(0.0371218 -0.523509 -2.65418e-20)
(0.168683 -0.735371 7.38328e-19)
(0.090289 -0.648559 2.81725e-19)
(0.18551 -0.858868 3.44536e-19)
(0.354693 -0.899675 3.85501e-19)
(0.0368824 -0.183634 9.95569e-19)
(0.0320499 -0.0917202 8.52429e-21)
(0.0327992 -0.325154 1.16912e-18)
(0.0287018 -0.224019 6.40369e-19)
(0.0301772 -0.443792 4.83116e-20)
(0.0225654 -0.349309 4.94224e-20)
(0.0446063 -0.57667 -2.7286e-20)
(0.00119801 -0.4972 3.19358e-21)
(0.11326 -0.74203 -1.11675e-19)
(0.0461811 -0.600122 4.07858e-20)
(0.0665465 -0.953567 -2.54524e-19)
(0.317329 -0.997576 -1.68858e-20)
(0.0321364 -0.114221 -3.8676e-19)
(0.0193579 -0.25175 -4.52323e-19)
(-0.00319764 -0.385606 5.09334e-21)
(0.00961436 -0.509657 7.02114e-20)
(0.0380983 -0.73831 -5.18066e-20)
(0.239392 -1.18867 -2.19878e-19)
(0.584105 0.249907 -6.97841e-20)
(0.45554 0.227562 -7.8252e-20)
(0.549844 0.316413 1.06222e-19)
(0.686616 0.211118 -1.09825e-19)
(0.634005 0.207483 -8.25154e-20)
(0.680885 0.250168 -1.19694e-19)
(0.750231 0.172596 7.72699e-20)
(0.709533 0.171848 -9.2754e-20)
(0.739438 0.204923 2.87517e-20)
(0.796164 0.143366 8.65265e-20)
(0.766947 0.140578 2.05251e-20)
(0.788981 0.167926 6.81801e-20)
(0.832019 0.122414 -1.12069e-20)
(0.808132 0.11863 -7.695e-20)
(0.825573 0.142389 -3.67174e-20)
(0.861186 0.106668 9.74308e-20)
(0.841439 0.102335 3.64643e-22)
(0.855874 0.123565 1.01509e-19)
(0.885408 0.0941656 5.52488e-20)
(0.868739 0.0896889 -1.23279e-21)
(0.880994 0.108945 8.57484e-20)
(0.905758 0.083764 7.30291e-20)
(0.891562 0.0793631 -5.3381e-20)
(0.902133 0.0969498 -2.60769e-20)
(0.922987 0.0748204 9.08963e-20)
(0.910838 0.0705979 2.27769e-20)
(0.920056 0.0867129 -4.62388e-20)
(0.937625 0.0669669 4.78822e-21)
(0.927206 0.0629892 2.189e-20)
(0.935287 0.0777511 8.70909e-20)
(0.950065 0.0599567 -7.72352e-20)
(0.94112 0.056287 -2.01014e-20)
(0.948215 0.0697712 4.3311e-23)
(0.960609 0.0535971 -3.71503e-20)
(0.952944 0.0502897 -5.70722e-20)
(0.959172 0.0625536 3.61494e-20)
(0.969497 0.0477292 5.30904e-22)
(0.962962 0.0448307 -3.55974e-20)
(0.968413 0.0559184 -1.03846e-19)
(0.97692 0.0422271 6.35224e-20)
(0.971397 0.0397731 3.38791e-20)
(0.976143 0.0497165 6.66077e-20)
(0.983036 0.0370031 3.35296e-20)
(0.978431 0.035012 1.50081e-20)
(0.982526 0.0438346 1.27151e-19)
(0.987988 0.0320131 2.72302e-20)
(0.984215 0.0304817 -3.133e-20)
(0.987704 0.0382062 -1.23012e-19)
(0.991908 0.0272503 2.73391e-21)
(0.988883 0.0261577 5.92469e-20)
(0.991805 0.0328135 8.84837e-22)
(0.994921 0.0227243 -3.0249e-20)
(0.992561 0.0220434 -5.7358e-20)
(0.994953 0.0276706 -8.5435e-22)
(0.997141 0.0184376 -2.47828e-20)
(0.995375 0.0181454 -5.56373e-20)
(0.997272 0.022792 2.77001e-20)
(0.998665 0.0143703 2.30262e-20)
(0.997451 0.0144525 1.4258e-20)
(0.998894 0.0181653 5.14896e-20)
(0.999571 0.0104906 7.74663e-20)
(0.998879 0.0109358 1.41458e-19)
(0.999907 0.0137561 5.11166e-20)
(0.999935 0.00680685 -2.34089e-20)
(0.999619 0.0075904 -7.46266e-20)
(1.00019 0.00958137 -1.70545e-19)
(0.999852 0.00341694 -2.39846e-20)
(0.999517 0.00449905 2.45776e-20)
(0.99942 0.00579861 9.46824e-20)
(0.998957 0.00172168 -8.66067e-20)
(0.998162 0.00244211 8.34382e-20)
(0.537746 0.183761 -4.91081e-20)
(0.44049 0.150595 0)
(0.654043 0.168017 -6.5641e-20)
(0.603924 0.155281 1.53068e-20)
(0.726399 0.139706 -1.51281e-19)
(0.685705 0.133324 -1.41587e-20)
(0.7776 0.116103 -1.41784e-19)
(0.748035 0.109771 -9.26199e-20)
(0.81692 0.0986944 -6.67006e-20)
(0.792841 0.0923427 0)
(0.848543 0.0854658 -9.84285e-20)
(0.828711 0.0791185 -6.77296e-20)
(0.87463 0.0749601 -1.09225e-19)
(0.857963 0.0688002 -8.86201e-23)
(0.896463 0.066254 -1.0461e-19)
(0.882336 0.0604011 -6.6195e-20)
(0.914903 0.0588176 -4.6258e-20)
(0.902879 0.0533132 1.23702e-20)
(0.930563 0.052355 -2.59135e-21)
(0.920299 0.0472227 -2.19684e-20)
(0.943888 0.0466582 4.37807e-22)
(0.935108 0.0419316 1.98032e-20)
(0.955217 0.0415542 -5.57175e-20)
(0.947712 0.0372685 1.84305e-20)
(0.96481 0.0368996 -2.85915e-21)
(0.958422 0.0330886 -3.63803e-20)
(0.972875 0.0325791 -1.44435e-20)
(0.96748 0.0292707 1.65906e-20)
(0.979582 0.02851 -4.94382e-20)
(0.975082 0.0257196 -3.27153e-20)
(0.985081 0.0246453 0)
(0.981387 0.022371 0)
(0.989507 0.020969 0)
(0.986535 0.0191926 -3.02314e-20)
(0.992989 0.017481 -8.2776e-20)
(0.990655 0.0161758 2.92708e-20)
(0.995646 0.0141786 -1.70413e-20)
(0.993874 0.0133188 -8.33552e-20)
(0.997579 0.011044 1.32054e-19)
(0.996316 0.0106112 8.08442e-20)
(0.998872 0.00805202 -9.38341e-21)
(0.998075 0.0080313 -4.69383e-22)
(0.999602 0.00520796 -2.7256e-20)
(0.99917 0.00556716 -2.45025e-20)
(0.999851 0.00258164 -3.59805e-20)
(0.999573 0.00325763 -3.60635e-22)
(0.999529 0.00115721 -6.47481e-20)
(0.522013 0.12296 6.3519e-20)
(0.445175 0.0881969 2.55733e-21)
(0.632474 0.121527 6.6442e-20)
(0.586553 0.103641 6.72127e-20)
(0.707592 0.103564 4.60545e-20)
(0.668506 0.092613 0)
(0.762047 0.0862533 4.77118e-20)
(0.732892 0.0766647 4.98479e-20)
(0.803996 0.072896 0)
(0.78018 0.0640458 -2.62624e-21)
(0.837674 0.0625444 2.9706e-20)
(0.818057 0.0541855 0)
(0.865399 0.054302 4.38571e-20)
(0.84895 0.0464395 3.38951e-20)
(0.888568 0.0475059 4.98695e-20)
(0.874673 0.0401711 1.17512e-20)
(0.908115 0.0417569 3.70639e-20)
(0.896341 0.0349372 3.36147e-20)
(0.924701 0.0368329 0)
(0.9147 0.0305173 -2.71161e-21)
(0.938817 0.0325697 3.7835e-20)
(0.930303 0.0267638 6.56357e-21)
(0.950833 0.0288249 3.83212e-20)
(0.943587 0.0235415 3.821e-20)
(0.961036 0.0254766 -1.73792e-20)
(0.954887 0.0207324 -2.56628e-22)
(0.969651 0.0224245 -1.22579e-21)
(0.964468 0.018237 -1.83704e-20)
(0.976857 0.0195924 1.6473e-20)
(0.972538 0.0159739 1.63432e-20)
(0.98281 0.0169298 -3.00022e-20)
(0.979266 0.0138815 0)
(0.98765 0.0144104 -1.38966e-21)
(0.984796 0.0119184 -2.35883e-20)
(0.991509 0.0120235 2.94742e-20)
(0.989261 0.0100631 2.19143e-20)
(0.994509 0.00976134 1.34663e-20)
(0.992789 0.00830439 8.8379e-22)
(0.996757 0.00761008 -5.12014e-20)
(0.995502 0.00663225 1.35567e-20)
(0.998342 0.00555282 -1.54962e-20)
(0.997501 0.00503321 -6.60575e-20)
(0.999341 0.00359226 2.35488e-21)
(0.998846 0.00349826 5.04439e-20)
(0.999832 0.00176858 -2.76022e-20)
(0.999577 0.00204209 -4.87857e-20)
(0.999856 0.000691694 2.73458e-20)
(0.51732 0.0691943 4.25167e-21)
(0.45349 0.0345232 -2.37472e-21)
(0.619075 0.075578 2.17829e-21)
(0.576695 0.0548329 1.01796e-20)
(0.693788 0.0660213 2.86654e-21)
(0.656888 0.0515818 -7.27982e-21)
(0.749823 0.0546707 3.57448e-22)
(0.721546 0.0422626 2.92086e-21)
(0.793577 0.0454499 -2.66615e-21)
(0.770367 0.0342788 1.80502e-20)
(0.828861 0.0381538 3.71724e-21)
(0.809716 0.027858 1.7797e-20)
(0.857944 0.0323557 2.07973e-21)
(0.841915 0.0228226 3.76972e-21)
(0.882254 0.027636 -4.79336e-21)
(0.868755 0.0188286 -3.48006e-21)
(0.902761 0.0237238 -5.76072e-21)
(0.891374 0.0155858 -3.04134e-21)
(0.920155 0.0204691 3.75199e-21)
(0.910533 0.012961 -2.86438e-21)
(0.934953 0.0177517 6.62799e-21)
(0.926808 0.0108553 -1.57855e-20)
(0.947552 0.0154614 0)
(0.940658 0.0091696 0)
(0.95826 0.0135021 -1.07241e-21)
(0.95244 0.00781436 0)
(0.967317 0.0117933 -1.09093e-21)
(0.962433 0.00671399 -1.3084e-24)
(0.974917 0.0102682 0)
(0.970861 0.00580371 0)
(0.98122 0.00887433 6.59274e-21)
(0.977902 0.00502926 0)
(0.986371 0.00757487 -6.12402e-22)
(0.983706 0.00434127 2.28132e-20)
(0.990506 0.00634726 -6.5299e-21)
(0.988409 0.00370469 -2.20965e-20)
(0.993749 0.00517828 8.89685e-22)
(0.992141 0.00309734 6.8293e-25)
(0.996212 0.00405816 -8.15648e-22)
(0.995027 0.00250806 0)
(0.997988 0.00297931 -8.25982e-22)
(0.997172 0.00193225 -4.21105e-25)
(0.999157 0.00194229 0)
(0.998655 0.00136797 0)
(0.999795 0.000956805 5.45561e-21)
(0.999527 0.000816797 -1.22569e-20)
(0.999928 0.000265663 5.49228e-21)
(0.516757 0.0202672 2.83265e-21)
(0.461079 -0.0143226 1.41311e-20)
(0.61114 0.0312666 7.96841e-22)
(0.571391 0.0087017 -8.89369e-21)
(0.68428 0.0281252 -7.41519e-21)
(0.649515 0.0109986 -5.00579e-20)
(0.74089 0.0220273 2.03306e-20)
(0.713693 0.00720471 -1.24313e-20)
(0.785801 0.0167732 3.85171e-20)
(0.763413 0.00348993 5.35355e-23)
(0.822276 0.0125754 1.80448e-20)
(0.803797 0.000451692 3.57463e-20)
(0.852432 0.00932486 -1.69192e-21)
(0.836993 -0.001819 -3.11863e-20)
(0.877674 0.00679698 -1.73438e-21)
(0.864719 -0.00345162 -1.23186e-21)
(0.898974 0.0048345 -1.5107e-22)
(0.888108 -0.00460414 4.9973e-20)
(0.917034 0.00335395 -2.22641e-20)
(0.907911 -0.00533677 1.08517e-20)
(0.932389 0.00227672 -2.25691e-20)
(0.924721 -0.00570465 9.05297e-21)
(0.945454 0.00152391 0)
(0.939012 -0.00577396 1.52485e-22)
(0.956552 0.00102601 1.07159e-21)
(0.951154 -0.00560587 3.67187e-20)
(0.965938 0.0007237 1.0901e-21)
(0.961442 -0.00525105 1.08108e-21)
(0.973816 0.000563204 0)
(0.97011 -0.00475431 0)
(0.980357 0.000493288 1.60479e-20)
(0.977347 -0.00416229 0)
(0.985708 0.000467642 1.65401e-21)
(0.983309 -0.00352669 1.61705e-20)
(0.990009 0.000450981 -1.57198e-20)
(0.988135 -0.00289632 -1.474e-20)
(0.993388 0.000423189 -8.89389e-22)
(0.99196 -0.00230562 -8.83496e-22)
(0.99596 0.000378083 8.15602e-22)
(0.994913 -0.00176853 0)
(0.997822 0.000317676 8.25936e-22)
(0.997104 -0.00128141 1.39202e-20)
(0.999055 0.000240825 -1.21839e-20)
(0.998603 -0.00083637 1.26514e-20)
(0.999742 0.00012522 -1.23646e-20)
(0.999426 -0.000453876 -1.22569e-20)
(0.999738 -0.000183815 3.28792e-20)
(0.517595 -0.0258375 4.56407e-21)
(0.467123 -0.0603468 1.92142e-19)
(0.606743 -0.0115102 -5.91766e-20)
(0.568894 -0.0355545 6.55752e-20)
(0.678281 -0.00970502 -5.56267e-20)
(0.645371 -0.0290412 -7.00808e-20)
(0.735024 -0.0112562 -3.29109e-20)
(0.708941 -0.028197 -1.24313e-20)
(0.780664 -0.012791 -3.25576e-21)
(0.759209 -0.028004 6.22721e-20)
(0.817995 -0.0139262 -1.25556e-20)
(0.800317 -0.0277669 -1.77473e-20)
(0.84897 -0.0145868 -3.1111e-20)
(0.834257 -0.0272707 -3.06118e-20)
(0.874942 -0.0148503 4.98067e-20)
(0.862663 -0.0264952 1.09948e-21)
(0.896865 -0.0147797 6.14486e-20)
(0.886642 -0.0254889 9.89581e-23)
(0.915441 -0.0144038 4.22053e-20)
(0.906931 -0.0242558 7.86136e-20)
(0.931216 -0.0137656 3.1867e-20)
(0.924132 -0.0228153 9.46635e-21)
(0.944617 -0.0129142 3.65211e-20)
(0.938729 -0.0212042 -5.86324e-20)
(0.955981 -0.0118929 3.70411e-20)
(0.951104 -0.0194573 1.84723e-20)
(0.965574 -0.0107384 0)
(0.961561 -0.0176004 3.43862e-20)
(0.973611 -0.00948932 0)
(0.970345 -0.0156576 -3.27652e-20)
(0.980268 -0.00819254 0)
(0.977654 -0.0136632 6.2768e-20)
(0.985701 -0.00690149 0)
(0.98365 -0.0116684 -3.06441e-20)
(0.990052 -0.00566368 0)
(0.98848 -0.00973306 0)
(0.993453 -0.00450764 0)
(0.992279 -0.00790448 -2.80067e-20)
(0.996022 -0.00343805 1.30153e-20)
(0.995185 -0.00620135 -5.41005e-20)
(0.997857 -0.0024441 2.57535e-20)
(0.997316 -0.00461376 5.23466e-20)
(0.999047 -0.00153034 1.27268e-20)
(0.998706 -0.00313262 5.05042e-20)
(0.999679 -0.000748456 3.26851e-20)
(0.999286 -0.00180842 -7.33908e-20)
(0.999295 -0.000715956 1.31225e-19)
(0.519065 -0.0701271 2.589e-19)
(0.47195 -0.104764 1.92285e-19)
(0.604822 -0.053261 5.81626e-20)
(0.568279 -0.0787432 -4.84415e-20)
(0.675189 -0.0474229 -2.78944e-20)
(0.643794 -0.0687341 8.49271e-20)
(0.731956 -0.0449579 8.15025e-20)
(0.706937 -0.0638404 0)
(0.778084 -0.0429977 4.89949e-20)
(0.757609 -0.0600123 4.73637e-23)
(0.816037 -0.0411341 -3.56182e-20)
(0.799251 -0.0566009 -7.81434e-22)
(0.847624 -0.0391947 1.15656e-21)
(0.833746 -0.0533506 -3.13949e-20)
(0.874143 -0.0371491 -4.86645e-20)
(0.862654 -0.0501395 1.10254e-19)
(0.896522 -0.0349856 1.64127e-20)
(0.887056 -0.0469257 -1.06281e-21)
(0.915463 -0.0326907 4.6607e-20)
(0.907676 -0.0436717 -2.26076e-20)
(0.931516 -0.0302778 -8.0362e-20)
(0.925122 -0.0403684 6.18551e-20)
(0.945118 -0.0277698 -7.74207e-20)
(0.939885 -0.0370277 -5.87923e-20)
(0.956617 -0.025185 1.56713e-20)
(0.952359 -0.0336601 -1.82527e-20)
(0.96629 -0.0225376 2.18104e-21)
(0.962855 -0.0302679 6.21088e-23)
(0.974358 -0.0198486 2.9244e-20)
(0.971626 -0.0268536 -3.25054e-20)
(0.981006 -0.0171566 3.28681e-20)
(0.978878 -0.0234357 3.17122e-20)
(0.986397 -0.014518 -3.08663e-20)
(0.984782 -0.0200602 -6.07578e-20)
(0.990675 -0.0119914 -2.78121e-20)
(0.989488 -0.0167935 5.76576e-20)
(0.993978 -0.0096157 -8.19331e-20)
(0.993137 -0.0136961 -2.82086e-20)
(0.996424 -0.00739716 -1.53457e-20)
(0.995877 -0.0107932 -8.08111e-20)
(0.998115 -0.00531896 7.71069e-20)
(0.997834 -0.00807161 1.34796e-20)
(0.999143 -0.00338787 -3.43779e-20)
(0.998985 -0.005532 -8.73312e-20)
(0.99961 -0.00168392 2.22942e-20)
(0.999121 -0.00327939 -6.89288e-22)
(0.998615 -0.00139283 9.83692e-20)
(0.520947 -0.113525 -1.08017e-19)
(0.475853 -0.148487 -2.06054e-20)
(0.604812 -0.0945401 -2.37389e-20)
(0.569088 -0.121562 -2.91816e-19)
(0.674572 -0.0851528 1.143e-19)
(0.644375 -0.108383 1.4088e-19)
(0.73145 -0.0789969 -8.14384e-20)
(0.707413 -0.0997599 0)
(0.777973 -0.0736983 -4.96983e-20)
(0.75849 -0.0924498 -8.28234e-20)
(0.816399 -0.0688846 3.77719e-21)
(0.800571 -0.085917 3.49139e-20)
(0.848436 -0.0643391 7.58502e-20)
(0.835485 -0.0799105 -3.19771e-20)
(0.87534 -0.0599516 1.59306e-19)
(0.864746 -0.0742373 5.43578e-20)
(0.898019 -0.0556502 -3.98419e-20)
(0.889418 -0.0687764 -8.92626e-22)
(0.917174 -0.0513888 -8.25685e-21)
(0.910218 -0.0634585 -4.53889e-20)
(0.933361 -0.0471563 8.46275e-20)
(0.927762 -0.0582511 1.58022e-21)
(0.947027 -0.0429527 0)
(0.942551 -0.0531443 7.7625e-20)
(0.958528 -0.0387735 -3.40305e-20)
(0.954986 -0.0481267 0)
(0.968147 -0.0346106 -3.43545e-20)
(0.965387 -0.0431786 -3.43319e-20)
(0.976116 -0.0304655 -3.05411e-20)
(0.974014 -0.0382808 -3.14405e-20)
(0.982627 -0.026364 -6.11805e-20)
(0.981079 -0.033433 4.82533e-22)
(0.987845 -0.0223606 2.69035e-20)
(0.986759 -0.0286702 -5.90721e-20)
(0.991923 -0.0185221 5.78638e-20)
(0.99121 -0.02406 1.43223e-19)
(0.995001 -0.0148988 -2.67322e-20)
(0.994579 -0.0196732 -5.5154e-20)
(0.997199 -0.0115027 -5.24823e-20)
(0.997027 -0.0155431 -1.05956e-19)
(0.99862 -0.00831454 -1.50336e-19)
(0.998687 -0.011657 1.02536e-19)
(0.999362 -0.00534519 -5.55106e-20)
(0.999462 -0.00804174 -1.00277e-19)
(0.999545 -0.00270252 7.31228e-20)
(0.998952 -0.00489462 7.27048e-20)
(0.997724 -0.00227446 -2.14902e-20)
(0.52318 -0.156765 -1.97876e-19)
(0.47905 -0.192286 -5.23882e-19)
(0.60641 -0.135844 -1.35798e-19)
(0.571108 -0.164617 1.15946e-21)
(0.676157 -0.123103 2.91997e-20)
(0.646888 -0.148333 2.86666e-20)
(0.733346 -0.113399 0)
(0.710212 -0.136078 0)
(0.78027 -0.10482 0)
(0.761783 -0.125306 -7.98986e-20)
(0.819082 -0.097059 0)
(0.80427 -0.115632 7.27491e-20)
(0.851444 -0.089884 -5.45933e-20)
(0.839506 -0.106831 0)
(0.87859 -0.08312 -1.05105e-19)
(0.868992 -0.0986546 5.34112e-20)
(0.901423 -0.0766423 -5.959e-21)
(0.89379 -0.0909069 -1.4732e-19)
(0.920644 -0.070377 -3.60824e-20)
(0.914623 -0.0834886 8.80093e-20)
(0.936821 -0.0642918 -6.21891e-21)
(0.932119 -0.0763456 -1.25193e-19)
(0.95041 -0.0583658 7.83445e-20)
(0.94679 -0.0694473 7.7625e-20)
(0.961775 -0.0525733 0)
(0.959047 -0.062762 0)
(0.971209 -0.0468849 -3.14386e-20)
(0.969218 -0.0562494 6.62659e-20)
(0.978946 -0.0412812 -7.26243e-22)
(0.977567 -0.0498687 -1.58286e-19)
(0.985186 -0.0357712 3.0038e-21)
(0.984312 -0.0435988 3.15402e-20)
(0.9901 -0.0304009 5.57586e-20)
(0.989635 -0.037458 3.48372e-22)
(0.993846 -0.0252405 3.15857e-20)
(0.993698 -0.031508 5.7333e-20)
(0.996566 -0.0203516 -1.34039e-19)
(0.996653 -0.0258251 2.65805e-20)
(0.998385 -0.0157558 4.82907e-20)
(0.998676 -0.0204494 -1.83842e-19)
(0.999404 -0.0114368 1.53834e-19)
(0.999908 -0.0153717 2.7562e-20)
(0.999725 -0.00741292 2.50453e-20)
(1.00016 -0.0106636 1.22478e-19)
(0.999486 -0.00382503 -2.13667e-20)
(0.998798 -0.00665612 4.69891e-20)
(0.996676 -0.00342757 4.22367e-20)
(0.525763 -0.200476 -3.3818e-19)
(0.481726 -0.23684 -2.25814e-19)
(0.609486 -0.177642 1.65542e-19)
(0.574265 -0.208462 1.62146e-19)
(0.679815 -0.161531 0)
(0.651251 -0.188946 0)
(0.737575 -0.148251 -7.85625e-20)
(0.715288 -0.172966 0)
(0.784961 -0.136339 -9.04474e-21)
(0.767489 -0.158618 -7.58568e-22)
(0.824109 -0.125571 7.37618e-20)
(0.810379 -0.145694 6.4654e-22)
(0.856694 -0.115711 1.07318e-19)
(0.845859 -0.13401 -1.21306e-19)
(0.883953 -0.106524 1.35901e-20)
(0.875452 -0.123265 -1.60657e-19)
(0.906795 -0.0978309 -5.59809e-20)
(0.900236 -0.113184 -4.65219e-20)
(0.925937 -0.0895306 1.16807e-21)
(0.920955 -0.10363 -4.4042e-20)
(0.941959 -0.0815688 -4.33872e-20)
(0.938256 -0.0945272 -1.24247e-19)
(0.955328 -0.0739042 0)
(0.952664 -0.0858219 0)
(0.96642 -0.066491 6.56841e-20)
(0.964601 -0.0774622 6.88719e-20)
(0.97553 -0.0592791 -5.86496e-20)
(0.974402 -0.0693877 1.31296e-19)
(0.982903 -0.0522277 -1.27589e-19)
(0.982338 -0.061537 -6.50235e-20)
(0.988738 -0.0453253 2.90791e-20)
(0.988629 -0.0538666 -1.18098e-19)
(0.993215 -0.0386031 1.48805e-21)
(0.993461 -0.0463737 1.4369e-19)
(0.996493 -0.0321277 5.25424e-20)
(0.996998 -0.0391063 -2.82303e-20)
(0.99872 -0.0259688 -2.19526e-20)
(0.999399 -0.0321382 1.87299e-19)
(1.00002 -0.0201602 -2.05359e-19)
(1.00086 -0.0255115 -1.04597e-19)
(1.00049 -0.014691 -3.60604e-21)
(1.00152 -0.0192207 -1.49534e-19)
(1.00024 -0.00957943 1.44871e-19)
(1.00111 -0.0133968 1.49687e-21)
(0.999438 -0.00507221 1.10679e-19)
(0.998688 -0.00854473 -9.21838e-20)
(0.995582 -0.00492313 1.47833e-19)
(0.528746 -0.245244 2.6458e-19)
(0.484037 -0.282756 2.58385e-19)
(0.614026 -0.220393 0)
(0.57858 -0.253629 -2.48899e-19)
(0.685542 -0.200718 0)
(0.657511 -0.230606 5.25896e-20)
(0.744159 -0.183677 7.78166e-20)
(0.722705 -0.210624 -1.38538e-19)
(0.792088 -0.168265 8.91712e-21)
(0.77568 -0.192448 2.39774e-19)
(0.831538 -0.154355 -1.92724e-19)
(0.818975 -0.176072 -1.43321e-19)
(0.864248 -0.141712 -3.88812e-19)
(0.854619 -0.161356 4.19366e-22)
(0.891493 -0.130033 -2.22231e-19)
(0.884198 -0.147944 -1.61813e-19)
(0.914202 -0.119081 -3.4584e-20)
(0.908825 -0.135468 2.41436e-19)
(0.933116 -0.108718 -1.68568e-19)
(0.929281 -0.123744 8.29237e-20)
(0.948835 -0.0988631 -8.20923e-20)
(0.946235 -0.112661 -8.34164e-20)
(0.961839 -0.0894537 6.82336e-20)
(0.960229 -0.102142 7.23725e-20)
(0.972514 -0.0804233 1.33936e-19)
(0.9717 -0.0921121 -1.36074e-19)
(0.981164 -0.0717015 1.26669e-19)
(0.98099 -0.0824898 2.55375e-19)
(0.988035 -0.0632259 -5.51147e-20)
(0.988374 -0.0731935 -6.19835e-20)
(0.993331 -0.0549621 -5.5523e-21)
(0.994074 -0.0641571 -2.33245e-19)
(0.997232 -0.0469206 1.15218e-19)
(0.998279 -0.0553536 2.8062e-19)
(0.999903 -0.0391554 1.0502e-19)
(1.00115 -0.04681 0)
(1.00149 -0.0317372 1.0646e-19)
(1.00285 -0.0385886 1.56452e-19)
(1.00212 -0.0247085 -4.84837e-20)
(1.00359 -0.030725 -9.98672e-20)
(1.00189 -0.0180633 -1.44588e-19)
(1.00353 -0.0232117 4.74042e-20)
(1.00089 -0.011817 -2.40666e-19)
(1.00232 -0.0162501 -4.997e-20)
(0.999436 -0.00646743 -9.46215e-20)
(0.998683 -0.0105915 -1.39178e-19)
(0.99454 -0.00680834 1.24896e-19)
(0.532215 -0.291619 -2.42933e-19)
(0.486127 -0.330597 1.0643e-19)
(0.62012 -0.26456 -2.02624e-19)
(0.584178 -0.300634 -6.3868e-20)
(0.69345 -0.240961 -8.2477e-20)
(0.665831 -0.273712 1.04259e-19)
(0.753211 -0.219816 1.74699e-20)
(0.732632 -0.249263 -1.85655e-19)
(0.801758 -0.200617 9.25393e-20)
(0.786504 -0.226867 2.37445e-19)
(0.841465 -0.183351 4.78812e-20)
(0.830184 -0.206735 -2.09241e-19)
(0.874194 -0.167776 2.29604e-19)
(0.865893 -0.188772 1.18926e-19)
(0.901287 -0.153514 2.97022e-19)
(0.895322 -0.172557 -4.91348e-20)
(0.923714 -0.140249 3.60877e-19)
(0.919636 -0.15761 1.90373e-19)
(0.942246 -0.127795 1.69901e-19)
(0.939669 -0.143675 8.44794e-20)
(0.957507 -0.116038 6.95192e-20)
(0.956114 -0.130599 -2.33122e-19)
(0.969996 -0.104888 -1.29963e-19)
(0.969539 -0.118269 2.14982e-19)
(0.980108 -0.0942544 -1.80698e-20)
(0.980392 -0.106583 -7.2246e-20)
(0.988155 -0.0840476 6.95315e-20)
(0.989025 -0.0954382 1.27215e-19)
(0.994386 -0.0741832 -2.38743e-19)
(0.995715 -0.0847322 -1.25184e-19)
(0.999004 -0.0646027 4.88737e-20)
(1.00069 -0.0743761 -5.86655e-20)
(1.00219 -0.0552912 1.67437e-19)
(1.00413 -0.064317 3.53183e-21)
(1.00411 -0.0462827 5.03665e-20)
(1.00619 -0.0545564 5.10253e-20)
(1.00491 -0.0376404 -4.82956e-20)
(1.00705 -0.0451364 5.07189e-20)
(1.00472 -0.029412 -4.95473e-21)
(1.00692 -0.0360759 4.41024e-20)
(1.00363 -0.0215994 1.42593e-19)
(1.00599 -0.0273578 1.114e-21)
(1.00174 -0.0142196 4.63883e-20)
(1.00384 -0.0192687 1.82859e-19)
(0.999561 -0.00804159 4.09845e-20)
(0.998862 -0.0128908 -1.73671e-19)
(0.993576 -0.00906176 1.93241e-21)
(0.536317 -0.340124 2.91007e-19)
(0.488144 -0.3809 1.42689e-19)
(0.627971 -0.310602 2.39891e-19)
(0.591298 -0.349965 2.44033e-19)
(0.703763 -0.282576 6.30262e-21)
(0.676505 -0.318662 -1.88686e-21)
(0.764934 -0.256817 2.76214e-20)
(0.745334 -0.289099 -4.71173e-20)
(0.814139 -0.233418 -5.8316e-20)
(0.800186 -0.261946 -7.49852e-20)
(0.854026 -0.212494 -1.43012e-19)
(0.844187 -0.237648 -2.95539e-21)
(0.886643 -0.193785 -1.57684e-19)
(0.879822 -0.216153 -1.16358e-19)
(0.913427 -0.176818 -1.5864e-19)
(0.908931 -0.196956 5.13091e-20)
(0.935405 -0.161176 -8.4732e-20)
(0.932753 -0.179442 -9.3144e-20)
(0.953389 -0.146604 -3.15174e-19)
(0.952185 -0.163253 -8.56855e-20)
(0.96803 -0.132942 -9.21118e-20)
(0.967952 -0.148172 -1.54613e-19)
(0.979846 -0.120063 2.75391e-19)
(0.980642 -0.134042 7.22084e-20)
(0.989244 -0.107853 7.12915e-20)
(0.990719 -0.120728 3.89288e-21)
(0.996543 -0.0961982 -6.52679e-20)