/*--------------------------------*- C++ -*----------------------------------*  =========                 |
  \      /  F ield         | OpenFOAM: The Open Source CFD Toolbox
   \    /   O peration     | Website:  https://openfoam.org
    \  /    A nd           | Version:  11
     \/     M anipulation  |
\*---------------------------------------------------------------------------*/
FoamFile
{
    format      ascii;
    class       volScalarField;
    object      U;
}
// * * * * * * * * * * * * * * * * * * * * * * * * * * * * * * * * * * * * * //

dimensions      [0 1 -1 0 0 0 0];

internalField   nonuniform List<scalar> 
2880
( 
0.0608440494153404
0.051506722106436476
0.077456550246782
0.10450991156265593
0.2091441287951994
0.31686762516468886
0.04352574390161833
0.04091824898642216
0.09165576769945283
0.11124330396204885
0.1868278218715954
0.2807279461958263
0.04388477853947524
0.028655921292796926
0.07762512180529615
0.11634806197873435
0.1865867650187114
0.2601707280170979
0.036396128216525894
0.025662478278599743
0.07491547523806652
0.1108789589142723
0.1810916031992485
0.2905642897903886
0.031848985503271546
0.035474745156716725
0.06159051718229688
0.10569738378219995
0.17371896537161974
0.2719384414280541
0.023277632355538008
0.02286973566688938
0.05375866586904962
0.08274353541628063
0.18764249884219203
0.26115556189048933
0.02344426636334132
0.011112273719481952
0.04205855908841444
0.0895735533063057
0.15181495759534083
0.2335316080816473
0.011020363604175715
0.01185453412107576
0.02805074803676666
0.07500377541804118
0.11075050969281752
0.21127412152300007
-0.00044264153043396814
0.009291971620252915
0.040113563346765746
0.06862918757784628
0.11879196929960159
0.2025885499898492
0.008991228823867048
0.005335053362049674
0.021908023806598675
0.05483757255018787
0.124221932275482
0.20342165827019854
0.0020869618062024364
0.00032560890932747943
0.006813055594689615
0.07499574265695147
0.09398145295452887
0.21484756671176197
0.010286943497672507
0.003731652231100585
0.017532561899329696
0.06964628086235194
0.1681356770692683
0.20545653895543786
-0.0013364412885507604
-0.007167573634868946
0.01671577642173161
0.07326897990886327
0.14628662964677103
0.2594917042836239
0.021805957888236138
0.02140839190889604
0.025930462589362213
0.09257816865384702
0.1707889899919345
0.2898204024470562
0.01254848948017473
0.003809705547976744
0.03892836161793914
0.09383402214138234
0.1828641115485173
0.32207947989782515
0.01827189762895795
0.0318977159349956
0.042816084727327786
0.10148357156881721
0.19970751369931997
0.3183952847461306
0.015846989343339724
0.023511376043207438
0.05029289199425774
0.09583107872040506
0.20780310025331233
0.3268198885393234
0.0015401608620495555
0.0369995489780873
0.04564922462776866
0.11006693670388717
0.21628239269978766
0.3169772563035392
0.0019264072381649788
0.043581012933669394
0.05954422460294978
0.10029323882511706
0.20761612547584457
0.3365618300784216
0.005244380336442783
0.038572357879956665
0.06462820864624316
0.10676135190171787
0.2044153192506227
0.3378309230826864
0.013717444320241814
0.03241824003959076
0.06859468034668628
0.1055777000045671
0.18415258083147631
0.3342875820892327
0.017437610725631256
0.048321597230194774
0.08963712354473244
0.11897311268410077
0.15894509979308885
0.3033756241713531
0.017311865904249685
0.05549668071851964
0.07667215768364041
0.11333833265139387
0.12575490898357303
0.2559788886508193
0.036168632413479965
0.058021872115286866
0.0914277334938086
0.1344291081165652
0.12982679469468056
0.30198224360072673
0.8851375428677777
1.1908479344748717
1.367243286071003
1.4928031449397614
1.5594799936769603
1.680404556124889
1.7034584002322477
1.7387023838132027
1.800701915806286
1.8489260771822946
1.9139074601465635
1.8909999316298736
1.9213412950504818
1.8774353674284847
1.8726705802729904
1.8572183823877193
1.8101662495882396
1.749822225366362
1.7137437266470095
1.6463760909368623
1.6347456181986018
1.6274459756936248
1.5470541010256045
1.4838211027766177
0.6812029385240812
1.031996464833481
1.2962487818726394
1.4597349507640642
1.5227058956787165
1.6404681463248076
1.7240232666030457
1.7310232565783001
1.8595738354644673
1.8317827669520548
1.8672605968318423
1.9193835822529497
1.9229114695853649
1.8494472344288866
1.8470163083773699
1.8662908586893678
1.7965601539096832
1.7750513398023875
1.7246611620197427
1.7542579106281764
1.666576865338813
1.6535827016444027
1.6118949823048618
1.5171317852879573
0.5384505424179067
0.8732402523727844
1.1315879935425412
1.3145357774881068
1.4536308936838278
1.581288116035155
1.6867549640526827
1.732163505720555
1.8492815532143312
1.896193033002159
1.8709975906696283
1.8741208902302233
1.8666232227950759
1.8500587492043339
1.8534555838452649
1.859035430929143
1.7943253125925107
1.7409270749288415
1.727906221131383
1.6823760528604255
1.7201425841896298
1.6023137220051569
1.6096410563428236
1.5629899120036086
0.4555141679971268
0.7022297529721908
0.946444162148842
1.2166649997170034
1.3294126609744599
1.4964715047903638
1.6248146508697796
1.650080623591639
1.7065847362975393
1.7968706015701488
1.7785584147152238
1.7856833363686095
1.8227021411727775
1.8041879538124568
1.779667123181719
1.7734708103012555
1.73331468754487
1.680008073264056
1.6745815543012315
1.647703709311915
1.6576553994777552
1.6128416580601295
1.5857220631024336
1.5595143840102574
0.39388363164635776
0.5810791692082511
0.8455641246932942
0.9992993613643001
1.229861684343888
1.391152777498949
1.4996561610213883
1.5804979343018872
1.5841204694597253
1.6195393536441463
1.6363893547539887
1.6415503171474568
1.651636327127303
1.6369037018489734
1.655572672407568
1.626683424422434
1.6143554424053184
1.6217739411492076
1.6091387285289325
1.5504386991554528
1.527553522271714
1.5331994639894237
1.527893116630584
1.4780988033365372
0.39064415858263285
0.5364469335988876
0.705967253946065
0.9002384862615562
1.1147860710516302
1.2477128973438403
1.3064067449409638
1.332307537046202
1.3848337924913219
1.4355308873842416
1.4120368483653367
1.4224394294422378
1.4777119105966137
1.4639388795547306
1.5018958498046984
1.4814366349376773
1.5036971914323916
1.4641289034158282
1.4758968214476325
1.4591113443724064
1.447714212261418
1.414375745602637
1.3998363826391929
1.3633906815885024
0.3502301660817462
0.5242641821641669
0.6367869091662451
0.8062159868984136
1.0086491134745963
1.1221033503241824
1.0786138464911263
1.1315781563260614
1.1161886907960785
1.1584996828787941
1.1800729020439877
1.2107314430088996
1.2389341315915932
1.2677673562044378
1.2642739484495242
1.3073217669876172
1.2971446745138524
1.2907573306675666
1.3124045403377107
1.2782511628659439
1.2827662960364514
1.2841752482261404
1.2545507641957487
1.2491058931442636
0.28869745160366755
0.4828013433846955
0.5988234721694171
0.756704929970538
0.8313630187295287
0.9013602511419755
0.9639629690554354
0.8530365660073148
0.8375882038682237
0.8930156716039817
0.9865120360428277
0.9691649371376322
1.0006041096647937
1.0349832555056535
1.0662590991959002
1.0799876940877182
1.0987321892314612
1.1098352243696712
1.1336829528983463
1.100907516894094
1.1177538751313236
1.1309261800165409
1.1041153634587106
1.0997684703031494
0.307649598045198
0.41581434686954555
0.6090602406978342
0.6748239186211515
0.7156153036244058
0.7152197539719947
0.6659897823437302
0.6852483198986767
0.6555298440464361
0.6721350747614281
0.7473827047653516
0.7440297281003495
0.7458752499681934
0.8114945300950529
0.8576148869306299
0.8912168102891049
0.8584697159989093
0.9131665131459166
0.941136886177189
0.9481975159872243
0.9387620733069488
0.9564880903028871
0.9393277607144964
0.9429788370826343
0.316766595239645
0.43744488347455435
0.5476207980180592
0.6346639196663708
0.6207924065810839
0.5653104705911707
0.5084125668730055
0.4536693353295318
0.4291684316891833
0.4215032814585987
0.4708098843196258
0.5603663656097116
0.5100661651294526
0.5565174336850874
0.6455220294145285
0.7134493904779601
0.6602892845595112
0.7227311659729407
0.7288604468670319
0.7255998419882739
0.7788428174800834
0.7560902707487843
0.7960357662896699
0.7987231003674671
0.35120699025594954
0.5076522358968759
0.6163740064335671
0.6193723182663098
0.5491907616666565
0.41814521607100497
0.2915467179981387
0.2897190223739272
0.34824415640894724
0.28478726410372057
0.314363832447376
0.4032449569310206
0.4690164425128437
0.43589151786728
0.4200622193686212
0.4146515655394024
0.5135315959989079
0.5405941530088358
0.5742815524326331
0.5773834435435431
0.5544428830177395
0.6424743135568339
0.6294859943130477
0.6649799703664936
0.40198160631304414
0.5472981695369932
0.6245723123955248
0.5033439200176163
0.43696983744157203
0.2950041078817044
0.22072937359795575
0.2193992130466692
0.19247117916433854
0.19065338067203497
0.3037347481297431
0.22080141864508362
0.267493172837427
0.18361150858283415
0.29060179708100786
0.2989148444977838
0.3193891575935721
0.3668975305495603
0.3729766340019022
0.3823742248718899
0.44969567193171056
0.5185414518007969
0.5594548606996276
0.5955434209811143
0.3911747134613295
0.5746309668384556
0.61868778784374
0.48808139675209683
0.32108933041433285
0.20471429393195284
0.11613070128138059
0.12515457212892434
0.13696289223298608
0.1429699398278309
0.11437818626847951
0.17782599864333204
0.1854716837017898
0.16913719501408964
0.29765905310241103
0.27112184661012817
0.2004597616513748
0.2745452729624387
0.2797641459076524
0.3415677373834137
0.4206317719942224
0.438301225823028
0.4858595406258328
0.5162073282060909
0.4330693643272791
0.550055858211416
0.596717165938889
0.4119102753922393
0.1878141955356626
0.16744853572313312
0.12017835501854901
0.11768326242296479
0.1840906366115176
0.1276436370891888
0.18575454982093165
0.16325203340862104
0.27222664991433354
0.12558770726199886
0.1664297308521583
0.17514643615772152
0.21698047366632023
0.16340403938147074
0.3021138220220255
0.3046371685247973
0.35945099175677253
0.44559501409736724
0.5156261225955022
0.5512831513970812
0.45921614600600846
0.5777786957370172
0.5380717204319915
0.3070566318838792
0.12147289989335164
0.08435761055861857
0.05774557226248411
0.1708871556731998
0.1354497819479933
0.16337712209735644
0.145483958519659
0.1725285034174706
0.1694423960973186
0.23739348060253262
0.11149597198923578
0.2172910760911133
0.21762246333097857
0.27397957807854034
0.29875384954731266
0.34630554123452284
0.4500898890311811
0.519168860721236
0.5324288972131231
0.5691758815809114
0.45735390827981337
0.5934560508420484
0.41454337249715234
0.1554455195487252
0.10268066275283738
0.021048571742591338
0.11924419092234584
0.13424949644167672
0.1261252819110138
0.17130781962571473
0.1642204420365948
0.1910295318191978
0.20006529715619514
0.2697422532993221
0.2041980713097925
0.24427311994246748
0.3256062973619971
0.31733342693463873
0.3896847451463572
0.46311779894575356
0.4638226841304772
0.5998953312864137
0.6158451514408643
0.6857899360081918
0.5095911181584507
0.518113844240316
0.2859152361450005
0.09724338067830673
-0.013361632746365815
0.0249835676279222
0.09120670203010384
0.17241939433294118
0.06184430490578696
0.16856489177637257
0.12645960827194236
0.22245130951668357
0.1999819792688199
0.25702065386390804
0.27552276317241564
0.35721747283830396
0.38286556233489444
0.4506105719440501
0.49938915639238624
0.566130989301689
0.626205816484513
0.6926449508094288
0.7323651641261579
0.7795264788238532
0.5324245160517272
0.49039466165902224
0.14289678344046575
0.07902010193685982
0.07499925897353077
0.04322039416417822
0.09617588131150434
0.12314111396033467
0.1571212075322278
0.21555638510010555
0.1761111446032676
0.2366475323046875
0.23689661572106957
0.2916053928375466
0.4180834024384097
0.48268782500009677
0.5303761289549228
0.5759163185460752
0.6467707382938757
0.7133173030078143
0.7753394631365746
0.8227417708722374
0.8343946678252427
0.8983725967955679
0.5595553643721402
0.32437120646796047
0.09392691293153943
0.00788801752066104
-0.0033397311134172325
0.017416687757156435
0.10740409441473697
0.1576242517900085
0.19875434079812426
0.25280999291536754
0.22282406861155657
0.28376775854918423
0.4037265338644198
0.4620961065002832
0.47101643878940846
0.5958253816229029
0.667412419235131
0.7499741169447056
0.8241078586617463
0.8746445253298099
0.907641723411162
0.9410153670808294
0.9723053510463815
0.9902189356670599
0.5639943659702941
0.2268637572206591
-0.003678880966583087
-0.03290867087134741
0.03984267809227404
0.09708446545787486
0.1133066581212192
0.145986269351997
0.1990589239764945
0.22902021110788862
0.249815474286065
0.3589041730627721
0.44134316007712704
0.5911223488677042
0.6869198062233914
0.7728534408926828
0.8414383515831166
0.9124359777567239
0.9672143040180347
0.9965975414429356
1.0146958506468449
1.0583939694624205
1.066371472008474
1.074227870364819
0.5111860039297962
0.14267994970634756
-0.04742056252681337
-0.024250528593483978
0.05746183714702369
0.08729742487896419
0.13527707659489463
0.1787468728308863
0.2354351634702363
0.28529400951557227
0.3623147880688643
0.5165579458353212
0.645690210983191
0.7302074154567841
0.8309865762433102
0.9166696662431454
0.9719459819719912
1.033491565509871
1.0789600044166068
1.106577905812346
1.1279478054285021
1.1354544641102866
1.1395726946542715
1.1447456131237785
0.38554977370483134
-0.009569774692958166
-0.04511443638109813
0.030822070571794646
0.09787504326613516
0.09440592323490782
0.16429561612807242
0.2212778606263861
0.3409200325565065
0.4235161229488681
0.5322810488905065
0.6466314941695203
0.761001421323363
0.8917038408675321
0.9780568974778581
1.0506471608375376
1.1094923856940786
1.1580342964963892
1.1836904758627416
1.181893532747641
1.1758064340854884
1.181975014802124
1.177562383161637
1.1699327875024874
0.22781618958007577
-0.00988616858354685
-0.03438496230548338
0.03582727495080473
0.13102772225895465
0.18094286625189993
0.24862372393231247
0.34301916241166397
0.4150622893320227
0.5584398400616086
0.6705943916000625
0.805727440767405
0.9244856415578796
1.026003685116063
1.0991323138452676
1.1647269108659561
1.196293450988433
1.231419343186066
1.2042859538757311
1.2467580724029337
1.210862939577741
1.2427234884952212
1.2025479964754082
1.1980267049788054
0.012447106512970096
-0.016613164364913446
0.04463857877023725
0.054042269706838675
0.12048177488127731
0.28134182513274575
0.35088900016940183
0.4456423763376328
0.5621928817967858
0.6864374637245733
0.8321718756928504
0.9511775992674066
1.0640878684134978
1.1464050095134606
1.1797279647203884
1.2193274209129452
1.2729944131972855
1.2826615018217324
1.2426273302341035
1.256535238725888
1.265305954059262
1.2292387266559541
1.2288123101543464
1.18242739182043
0.04443599025478665
0.15041775314321348
0.29521102755947537
0.24843887527067704
0.1966862873054588
-0.1429221885391712
0.08973885084398603
0.22477491839373667
0.31908395482345797
0.25279307425308756
0.1366610076863811
-0.09167260826960577
0.11456248418740542
0.2606041545799352
0.31144082544240714
0.2231237163202709
0.0923077307485089
-0.0744581328775965
0.1405859922732375
0.275454066795497
0.2955837749864629
0.19614882357014862
0.0851423874841723
-0.061446629610400705
0.16850262261998816
0.2937633761296652
0.27438035597194793
0.17016329028440458
0.06325863644163493
-0.032100775490972844
0.19458419173964336
0.2914699075335225
0.25342665076160403
0.13767513669303055
0.025086407807887623
-0.034447240260371104
0.21780533130803897
0.30413640914811557
0.23945816148855817
0.11193811809357593
0.042821236668020846
-0.03195896317693425
0.2407349937728933
0.3039746708581937
0.22285848022411878
0.10251381618688354
-0.0030857163743450156
-0.017114865644264954
0.25703877332676983
0.30901870068436776
0.21247846316105298
0.08410535924022841
0.009776505350396314
-0.010208706876291496
0.2724683305598338
0.3083754894646821
0.20890544297097363
0.06914282610540814
0.013251573597866051
-0.011368160456257603
0.2820084084401383
0.3061049097296496
0.20634734672963487
0.06863318771530158
-0.0023835032626709496
0.02209341855798652
0.2898061595346074
0.309480267085822
0.21546938134315458
0.07787954598497773
0.0009773115714027947
-0.0059160187404199704
0.28733849803195477
0.31690142355868933
0.22149185708139832
0.08309283632393583
-0.0009381287737788568
0.016712083998434712
0.2864805348448888
0.3115125918271157
0.24048858349999316
0.1098242782059618
0.03388272162159495
0.04626825647426597
0.2797916351199722
0.31505578151686037
0.2496812289021087
0.11766336472167988
0.06528653969801734
0.06743905806574624
0.2661595240852065
0.3126721346940724
0.268534516203064
0.1433901405406029
0.046411365843492036
0.07016155552974845
0.255223914429621
0.32205945762102806
0.29386072855300266
0.17939274769940097
0.0653777877313732
0.09041565141757923
0.23937093454998348
0.32683646652951903
0.31423525245275974
0.19999259305866418
0.11690546930228513
0.12227386284218361
0.21782514126366648
0.32360901605201003
0.34514270448358786
0.24602863960092125
0.15358482808403323
0.15179800514207314
0.18642472965206267
0.3118482007404032
0.36744524898288733
0.3041819801579641
0.20275291292941408
0.11912016278799187
0.1576294662623908
0.29736721451072934
0.367801164326325
0.33276523309773676
0.2609418163842076
0.1322906046994211
0.13122749693676014
0.265582397191193
0.36518012983946235
0.377680440764447
0.3470729232076634
0.149838368926426
0.10303559852801168
0.22437374774465196
0.3680730261401633
0.40195041612728544
0.43892256795042917
0.17029224322242487
0.05437289208483148
0.154210051711108
0.30626037031053893
0.36305760716279173
0.5170651129702257
0.1557848295757181
-0.12992552955470082
-0.014927082304853068
0.07135508529386625
0.20346479291100172
0.26085063683127163
0.3552654674177185
0.4510828849963997
0.599014669219983
0.7237649824188063
0.8479779469801761
0.9737910070338182
1.0803641194587086
1.1647347171263431
1.2380019990813316
1.2666654421892696
1.2774284190300487
1.3060458601659302
1.3044588908779777
1.2901878912880433
1.278440554553474
1.2447033193949888
1.2304706274051351
1.2174609345007879
1.1768440642279825
-0.08726935574328498
0.0005333349509445418
0.07740865758153725
0.20912642618529287
0.27073786450301396
0.4049251471462738
0.5540016096549301
0.7170281901319033
0.8485813722625813
0.9753466807266563
1.105985820858773
1.1659726519215705
1.251262543228975
1.2487118114519253
1.3083286977940904
1.2876024958549317
1.315122071292571
1.3203563186779914
1.2947603211480512
1.2837781144498102
1.2534145402319645
1.2237437177625334
1.2041926790583977
1.170093681416867
-0.04478807692915798
0.06634115472701874
0.1300962852448715
0.24552138110966149
0.38532382755297234
0.5500435167874499
0.6833527845416176
0.8493302094462015
0.9726141393725071
1.0968686775433196
1.2023557426974905
1.2429149871387428
1.2921639912585774
1.327679269609417
1.3302750091572522
1.3269245079559662
1.3417345754888421
1.3096284617263145
1.2594028857140769
1.2652401934750428
1.2434510939819
1.2057556377210634
1.205455895784471
1.165482523804242
-0.036233749679278726
0.10065707999587448
0.21961389903446382
0.32595348120951007
0.4857008488210243
0.6310808251650011
0.7944923470839131
0.9345762670740475
1.0690308258100953
1.1718639875297452
1.280329771151213
1.3145640823724432
1.3356929055432845
1.3354404817613923
1.3438955566811759
1.3173808650635417
1.3244320289925011
1.2967760746708878
1.2987306919800208
1.2668878245956212
1.224684536292151
1.2105299027553615
1.1774988629127878
1.1423943178116354
-0.028720462496003685
0.10168790285793017
0.22687252741996777
0.3730341957061586
0.555435691786969
0.7428454667488439
0.9003065171872615
1.0614083061481845
1.172883147349895
1.2514739918121056
1.2824207287507339
1.2893003090873318
1.3193195752809541
1.3593628495850991
1.3177835086228766
1.317154749252019
1.306199748974278
1.284590453045962
1.2665562403796085
1.2465326791350986
1.220695795053537
1.2039798782892688
1.1780997216748765
1.1350123261557887
-0.027126942844978075
0.09535741943174869
0.2761183506407041
0.4765932025880649
0.6666540404743215
0.8563468892441436
0.9913469472652128
1.1517135769538085
1.2094532686145414
1.291982456644961
1.334637994036917
1.3678239166739332
1.3466876260263891
1.3381162194237155
1.3305196291037495
1.3042777443061224
1.2748325838078496
1.2846538914872583
1.2540187964830212
1.24798328897951
1.2237522522505517
1.1788691626630916
1.167006602429893
1.1309374869683577
0.025391252226491523
0.12143843114324104
0.3408606431174065
0.5496805154005047
0.7649136178372536
0.9588244544899119
1.0660615866517535
1.1922245984739153
1.2526215439057444
1.3227383295126918
1.345029589085427
1.3631163813277678
1.3357569000737959
1.297218593150255
1.3255372172639688
1.3130838389323467
1.2893462123243726
1.2820087824239375
1.2302634389548914
1.2338753752340985
1.2149273038758348
1.1778445098854702
1.1521387778669847
1.119350479992054
0.028330496930314086
0.20125551696517946
0.4277741486335235
0.6603226706847932
0.8563871800756617
1.0223883720945839
1.1533813110259863
1.237421764041647
1.329289423913508
1.3152958123089695
1.3423913204147808
1.3302982863640782
1.3343697837629742
1.326103569895003
1.2815485023759525
1.2849146030883607
1.2707634157976935
1.2622831857391663
1.2249415159103298
1.21055940240755
1.2108639264791408
1.1697007138637587
1.1443182728362056
1.1048801243090758
0.038726583546196014
0.22332475633374554
0.5002868703469991
0.7220693908330874
0.9263972773616732
1.1032049286047756
1.1835288304982894
1.2491767072328486
1.2969224219057427
1.3401376109260612
1.326023340570332
1.3357752112045553
1.3129557519054962
1.3061638896253693
1.298673313831308
1.2729694678759835
1.2487305011243388
1.243590824644919
1.2074365348838478
1.2048959415874654
1.1843559494304754
1.156082934034545
1.1290778404831288
1.0957521014904228
0.08399663040336414
0.3054378620043847
0.5771588709761192
0.8072051085271637
1.0019710187709496
1.1431776243667828
1.2410195627686011
1.2712011791152305
1.3115967732580156
1.2819685647063181
1.3253520495840938
1.3305671229115683
1.3013767078837566
1.291944642236542
1.2940126231540234
1.2850020259427244
1.2541301922686758
1.2317853501313194
1.218620358428597
1.2024358182564037
1.1830764983062716
1.1402839583298199
1.1218102919672168
1.0890134198869987
0.13471780749790196
0.38377009636012327
0.6811460610917311
0.8932330564666083
1.077016489125255
1.1621539248790393
1.3017586017422134
1.2802570609152606
1.3232219597589707
1.3135235871751907
1.3354777536172902
1.3045440445258933
1.287715163206162
1.2932523249354664
1.2749874139689008
1.2444009003794705
1.2571791513472863
1.2351801418336543
1.1968340565156101
1.1884301588134383
1.156834947513236
1.141158958294124
1.1140637868084478
1.080355189490568
0.16454619012187288
0.449009806513351
0.7486555909485952
1.0067588627925337
1.1230243609420527
1.2289280850274946
1.3144344957387049
1.325021671897823
1.3356648094552566
1.3224971577002016
1.3173376577022515
1.2990774530232239
1.2914960000271225
1.2738748417399386
1.2659547811142458
1.2447222098800064
1.2240504608069174
1.2142809853123324
1.186451588037816
1.1716727454165696
1.1587854379726275
1.1434683158750558
1.1119713206898294
1.0779275734235456
0.20059782742561838
0.5416951319817079
0.8311098696613461
1.0455473222979548
1.2090896494115881
1.2502933018942217
1.32874169653813
1.3151047147597208
1.310428035447281
1.3033510999036635
1.3104570288493473
1.2855865719587607
1.2659459737796923
1.2688030334817064
1.2530489966207414
1.2411559042392803
1.218119616961724
1.1993043072972622
1.194235236944346
1.1772132307818446
1.1486640880256782
1.1310912616863074
1.1088169286226695
1.075688446438463
0.259711402625392
0.6484428864576331
0.9417530841118533
1.1104881037658938
1.2156066359029989
1.2692428126837896
1.3412789809437682
1.3134721876720261
1.3108236709185621
1.29796476450416
1.2842981869443102
1.2764877488902149
1.269944629258838
1.253955628711663
1.2443130843727581
1.2334796515319806
1.2125395108751928
1.1953374704573623
1.1898311753418518
1.1791217208485343
1.138782301680482
1.1344616762078965
1.1016783874614962
1.0710604025163306
0.3221071175095637
0.7261356888440221
0.9812556439907332
1.1412182525113275
1.2562487172815882
1.2753367485388971
1.3099411198187223
1.3129655973537309
1.313215898148685
1.3111431224383236
1.2926513016387937
1.273445391457856
1.2460854906710763
1.2564054854862663
1.2338446792736555
1.222528270243718
1.2235217345623437
1.2011885386771677
1.1905991157078406
1.1678988085460702
1.1415333742458054
1.1261320951301976
1.096903372452191
1.0688524233942152
0.38091987352000123
0.8323802361211597
1.0194380039858686
1.2196858231934906
1.2656462659762413
1.2877083074852362
1.2954100373049127
1.289454642555209
1.3149528594042192
1.2857186339124733
1.2721053169610514
1.2620316864894368
1.2667625412932493
1.2452642485863286
1.236066671937787
1.227376651213561
1.1990529723772525
1.1902313416523707
1.1782855623418567
1.1603935453571013
1.1414682436997743
1.1250689668879683
1.0995397924824186
1.0648259893964644
0.45908396393900835
0.8931695449198745
1.1596097932989868
1.2889613685220296
1.307441195327109
1.3012595965274443
1.3178907152652382
1.2850888820843804
1.2947148491167977
1.289682983207589
1.2746814689916246
1.2602750972915522
1.2376324993527548
1.238473564402021
1.2340712103723732
1.2117572073497662
1.2092840919585564
1.1981700372126096
1.178854921363844
1.1635292053414896
1.144973903452271
1.1208428351133068
1.0977133448974543
1.0641263384635051
0.49588330454771923
0.9725089621987799
1.1820690964432625
1.266839364610066
1.2877203425655241
1.3123876638043188
1.2860397713554894
1.2875041789645663
1.2763560107739245
1.2701077422812566
1.2466369337359233
1.2480874165568665
1.2333845002081751
1.2386673609590875
1.2222655094798283
1.221301188090402
1.2059083305168465
1.1910848335837425
1.17708288124671
1.1650467028555935
1.1457514450551738
1.1186316243190786
1.0929262425379258
1.0639619712445503
0.5568793774182277
1.0190971540402967
1.217264307385128
1.2522243349927704
1.2825815228792377
1.2812437437301383
1.2916915075262323
1.2700047371386953
1.2594656708557377
1.2590052679181971
1.2571491474960304
1.2455225493658073
1.2370967262957775
1.225476737900338
1.2218546811016255
1.200495921672017
1.2033887903605027
1.1903930737546458
1.174778254931651
1.160391662782792
1.143841434322688
1.1189666887874659
1.0927532569337766
1.0591338530331675
0.6347314590661536
1.0976592038511068
1.2686151423163157
1.2842078128576555
1.2934032599057415
1.2967181814701083
1.2687959690272368
1.2630318698902903
1.2480603969236364
1.251013417111813
1.232389401923334
1.2296985309486899
1.232227745315022
1.2252429462662298
1.2082653338301415
1.208542684100737
1.1993242343674517
1.1868158695654436
1.168891933925177
1.1553455412571576
1.1385813294356044
1.1181886470880449
1.0884603395278902
1.054171194182841
0.7160829701325029
1.14252676898641
1.2564897661273209
1.2866933256240978
1.2468998363859054
1.2618803712637479
1.2628706567091839
1.243580069788063
1.2403192711755986
1.2255528409810408
1.2333847276044694
1.2200275177505622
1.2142267214213407
1.2088648465575864
1.205724298896115
1.2038124702052095
1.191123495376001
1.18107821718305
1.1687042614376713
1.1498573741659617
1.1298612084591269
1.10937945225432
1.081390588217946
1.0467592886279609
0.8243601645912543
1.1818826935278062
1.2521681267313995
1.2694257059853642
1.2789649444995967
1.2446208912975316
1.2333751150431
1.2229424349344231
1.2254328946199788
1.2135998704312296
1.214773735378188
1.2138629596680133
1.207597161049791
1.2038623589911044
1.2040947410325318
1.1949931968521468
1.1803407563970012
1.1749809480230398
1.162512010848918
1.1417354549142549
1.1271689537219336
1.1029238219057085
1.0764213525847894
1.0445573057925275
0.9644033303211585
1.2144659453718094
1.2464958972649023
1.2232087809285246
1.2272225149802116
1.2208790544763362
1.2140038631177013
1.201762803164639
1.2024730189345876
1.1994600337518388
1.205218554469779
1.1929742393267058
1.1976253355453443
1.190356092395574
1.1890552006976725
1.1806349457299026
1.1781219927880848
1.1670908168539265
1.1482996404204293
1.1359220592247954
1.1216351133608733
1.099890206121664
1.0686311050799153
1.0414447782074
1.0703346757073207
1.1878581839883342
1.2085099720916137
1.195957627001936
1.2035573141185667
1.197850703802824
1.1887798059822663
1.18305595751134
1.1791661512645923
1.1814752524436298
1.185243561967592
1.1892209479360158
1.1921275504411004
1.1896694387309266
1.1847934632533845
1.1803072042302554
1.1673920937291933
1.1519435493725343
1.1443356286922535
1.1316195778696259
1.1102284676132195
1.0920810385069066
1.0674410621974784
1.0359768237422773
0.0754055362345593
0.05945095634263403
0.005194070999128886
0.045486733592373624
0.08869321174669653
0.5647548039765543
0.06569935246558914
0.015258772596368958
0.002023134905503321
0.027390119134200086
0.09963035686015365
0.3579188319682026
0.048406901649622566
-0.005149598403902944
0.008651848715139077
0.03486776897547178
0.11500088383372306
0.31885668285951463
0.03589701782858336
-0.006187417944649498
0.0037391578384552426
0.03080976088660048
0.12700360806409466
0.2932765704135589
0.02338805759428736
-0.030802585909627034
-0.0012302211716719857
0.031805283241461424
0.10647486994065336
0.29246397266327095
0.018049740139068293
-0.01977977086282101
0.001293454987401077
0.018042263413051485
0.1077830867092558
0.24177773113109507
0.014276170808210226
-0.03705752035270382
-0.015972782600781332
0.011327507722575958
0.09556179456711134
0.23100458522787135
0.0025662508479615542
-0.03271936858151883
-0.030292373257121974
-0.010862296645429814
0.061919168159737525
0.1850783870812009
-0.008012276135413055
-0.0449376014929139
-0.03982083550672494
-0.007918478057734435
0.08624708237611939
0.17006610081107199
-0.021353844485402534
-0.04652596104415194
-0.039398085150958384
-0.018076425695188858
0.04707848811801868
0.1346528999778605
-0.027425719424319095
-0.04296329349152983
-0.046815587077616516
-0.029119327589604116
0.0474048779638967
0.12106612878140077
-0.02938146384627341
-0.04485742518778599
-0.061927304803724936
-0.0231792478147565
0.020796046838924054
0.11065381457862439
-0.02394659394702789
-0.055688832193786425
-0.05819542964173097
-0.03757078902774258
0.02507541688331888
0.10392644796443928
-0.034714487792053744
-0.04370702620198666
-0.05165682132522503