/*--------------------------------*- C++ -*----------------------------------*\
  =========                 |
  \\      /  F ield         | OpenFOAM: The Open Source CFD Toolbox
   \\    /   O peration     | Website:  https://openfoam.org
    \\  /    A nd           | Version:  11
     \\/     M anipulation  |
\*---------------------------------------------------------------------------*/
FoamFile
{
    format      ascii;
    class       volScalarField;
    location    "1.6";
    object      k;
}
// * * * * * * * * * * * * * * * * * * * * * * * * * * * * * * * * * * * * * //

dimensions      [0 2 -2 0 0 0 0];

internalField   nonuniform List<scalar> 
2880
(
0.00386478
0.00882993
0.0229059
0.0471826
0.0798973
0.116013
0.0161671
0.025729
0.0450554
0.0706678
0.10193
0.137759
0.0204573
0.0363359
0.0586794
0.0856267
0.117143
0.152207
0.0226879
0.0436745
0.0678527
0.095809
0.127728
0.162734
0.024175
0.0493004
0.0745364
0.103119
0.135438
0.171101
0.0250351
0.0538134
0.0794601
0.108364
0.141093
0.177789
0.0265861
0.0571864
0.0829847
0.111958
0.145073
0.182953
0.0278664
0.0596135
0.0853239
0.114138
0.147568
0.186669
0.0288313
0.0612132
0.0866205
0.115058
0.148696
0.18902
0.0294633
0.0620669
0.0869814
0.114846
0.148554
0.190129
0.0297483
0.0622364
0.0865115
0.113561
0.147212
0.190134
0.029707
0.0617681
0.0852493
0.1113
0.144761
0.189235
0.0293173
0.0606963
0.0832798
0.108139
0.141285
0.187587
0.0286412
0.0590358
0.0806662
0.104155
0.136872
0.185432
0.0277743
0.056788
0.0774675
0.0994219
0.131578
0.182919
0.0267175
0.0539806
0.0737405
0.0940143
0.125428
0.180085
0.0255505
0.0506718
0.0695462
0.088004
0.118409
0.176803
0.0249278
0.0470474
0.0649654
0.0814677
0.110486
0.172691
0.0244088
0.0433485
0.0600897
0.0744908
0.101638
0.167039
0.0234722
0.0397187
0.0549606
0.067134
0.0917055
0.158977
0.0219903
0.0358733
0.0494306
0.0593595
0.0805026
0.147588
0.0199938
0.0312899
0.0429689
0.0508312
0.0677356
0.132007
0.016131
0.0244608
0.0339173
0.0402533
0.0521663
0.110997
0.00412762
0.00892301
0.0152784
0.020631
0.0282246
0.0781489
0.167171
0.193691
0.216781
0.238428
0.257666
0.272499
0.280601
0.278954
0.270662
0.253687
0.22965
0.202386
0.175682
0.152739
0.135153
0.122734
0.114349
0.108967
0.106078
0.105632
0.106598
0.109374
0.113803
0.118423
0.180111
0.210767
0.237893
0.261822
0.280464
0.290871
0.289655
0.28116
0.262416
0.235655
0.205941
0.177533
0.153685
0.135637
0.122745
0.11361
0.107137
0.102867
0.100796
0.100892
0.102304
0.105572
0.109981
0.114247
0.192722
0.228611
0.259387
0.283657
0.298076
0.298649
0.290518
0.270485
0.241224
0.209331
0.179556
0.155078
0.13667
0.123257
0.113279
0.105661
0.100003
0.0963567
0.0949231
0.0953298
0.0971891
0.100711
0.104984
0.108912
0.204509
0.245537
0.278665
0.300331
0.305212
0.29857
0.278571
0.247329
0.213559
0.182617
0.157563
0.138681
0.12456
0.113593
0.104774
0.0977484
0.0925769
0.0894711
0.088575
0.0892776
0.0914955
0.0950312
0.0991097
0.102721
0.215103
0.26028
0.293463
0.307457
0.304434
0.286967
0.254777
0.219505
0.187452
0.161672
0.142053
0.126957
0.114809
0.104702
0.096315
0.0896839
0.084999
0.0824268
0.0819749
0.0829129
0.0853357
0.0887855
0.0926199
0.0959301
0.224194
0.271961
0.301545
0.307092
0.294281
0.264293
0.227856
0.194616
0.167838
0.147148
0.130781
0.117231
0.105696
0.0958981
0.0878429
0.0816616
0.0775032
0.0754206
0.0752908
0.0763834
0.0788621
0.0821415
0.0856977
0.0887196
0.231606
0.280173
0.302993
0.298583
0.275449
0.238929
0.204536
0.176454
0.154348
0.136411
0.121212
0.108052
0.0967137
0.0871947
0.0795652
0.0739066
0.0702628
0.0685746
0.0686195
0.0697828
0.0721806
0.0752213
0.0784761
0.0812256
0.237303
0.284573
0.298185
0.285001
0.252744
0.217471
0.187853
0.164045
0.14427
0.127162
0.112125
0.0990295
0.087906
0.0787916
0.0716897
0.0665726
0.0633723
0.0619493
0.062044
0.0631722
0.0653636
0.0681133
0.0710525
0.0735471
0.241386
0.285285
0.288481
0.26811
0.233266
0.202224
0.176597
0.154804
0.135541
0.118336
0.103189
0.0902137
0.07946
0.0708796
0.0643546
0.0597396
0.0568765
0.0555815
0.0556222
0.0565875
0.0584829
0.0608923
0.063501
0.0657565
0.244074
0.282966
0.277439
0.251438
0.219574
0.192264
0.168444
0.14686
0.12719
0.109633
0.0944539
0.0817791
0.0715521
0.0635834
0.0576264
0.0534369
0.050797
0.0495088
0.0493787
0.0500884
0.0516021
0.0536205
0.0558782
0.0579052
0.24551
0.278125
0.26688
0.23895
0.210867
0.185449
0.161619
0.13927
0.118911
0.101083
0.0860777
0.0738909
0.0642979
0.0569601
0.0515215
0.0476686
0.0451503
0.0437704
0.0433667
0.0437412
0.044787
0.0463544
0.048228
0.0500274
0.245823
0.272191
0.257897
0.231579
0.205711
0.180196
0.155199
0.131702
0.110709
0.0928308
0.0782174
0.0666603
0.0577501
0.0510175
0.0460289
0.0424301
0.0399552
0.0384134
0.0376695
0.0376194
0.0381249
0.0391575
0.0405833
0.0421352
0.245327
0.266702
0.251954
0.228213
0.202507
0.175487
0.148769
0.124109
0.102698
0.0850218
0.0709842
0.0601411
0.0519134
0.0457348
0.0411268
0.0377188
0.0352409
0.0335065
0.0323941
0.0318277
0.0317545
0.03212
0.032963
0.0341873
0.244269
0.263299
0.249837
0.22738
0.200159
0.170809
0.142212
0.116567
0.0950149
0.0777696
0.0644364
0.0543391
0.0467612
0.0410764
0.0367904
0.033534
0.031041
0.0291247
0.0276616
0.026577
0.0258277
0.0253994
0.025368
0.0259652
0.24306
0.262056
0.249897
0.22799
0.198055
0.165956
0.135552
0.109193
0.0877724
0.0711406
0.0585853
0.0492253
0.0422478
0.037
0.0329936
0.0298739
0.0273844
0.0253386
0.0236002
0.0220684
0.0206569
0.0192696
0.0178161
0.0166944
0.24202
0.262781
0.252755
0.229433
0.19587
0.160867
0.128866
0.102094
0.0810471
0.0651563
0.0534042
0.0447468
0.038315
0.0334565
0.0297043
0.0267261
0.0242821
0.0221916
0.0203098
0.0185066
0.0166404
0.0145195
0.0118065
0.00751034
0.241599
0.266977
0.257806
0.231034
0.193382
0.15555
0.122242
0.0953531
0.074874
0.0597993
0.0488396
0.0408343
0.0348936
0.0303857
0.0268735
0.0240526
0.0217049
0.0196667
0.0178055
0.0160014
0.0141306
0.0120591
0.00963128
0.00628908
0.242486
0.27403
0.264563
0.232554
0.190557
0.150061
0.115756
0.0890174
0.069252
0.0550247
0.0448209
0.0374086
0.0319053
0.0277118
0.0244251
0.0217694
0.0195495
0.0176207
0.0158679
0.0141894
0.0124794
0.010627
0.00852815
0.00588266
0.245588
0.283929
0.272494
0.233921
0.187354
0.144426
0.109452
0.0831012
0.0641521
0.0507715
0.041272
0.0343904
0.0292714
0.025355
0.0222726
0.0197744
0.0176848
0.0158741
0.0142401
0.0126928
0.0111396
0.00949051
0.00768765
0.00556258
0.251561
0.296666
0.281002
0.234806
0.18367
0.138646
0.103345
0.077594
0.0595292
0.0469731
0.0381203
0.0317088
0.0269243
0.0232491
0.0203468
0.0179911
0.0160227
0.0143243
0.012804
0.0113815
0.00997624
0.00851851
0.00698327
0.00527772
0.261617
0.312259
0.289414
0.234967
0.17939
0.132703
0.0974331
0.0724675
0.0553306
0.0435661
0.0353024
0.0293058
0.0248122
0.0213466
0.018603
0.0163753
0.0145185
0.0129257
0.0115139
0.0102115
0.00894954
0.0076745
0.0063804
0.00501489
0.277333
0.330598
0.295891
0.233725
0.174351
0.126566
0.0916959
0.0676856
0.0515064
0.0404961
0.032767
0.0271366
0.0228974
0.0196158
0.0170135
0.0149028
0.0131506
0.0116592
0.0103531
0.00916839
0.00804526
0.00694227
0.00586323
0.00477856
0.300848
0.351005
0.299888
0.230808
0.168424
0.120191
0.0861122
0.0632174
0.0480146
0.0377181
0.0304734
0.0251679
0.0211531
0.0180356
0.0155621
0.0135606
0.0119086
0.010516
0.00931347
0.00824343
0.00725352
0.00631049
0.0054219
0.00457057
0.337566
0.36875
0.301432
0.225704
0.161442
0.113553
0.0806794
0.0590435
0.0448212
0.0351963
0.0283905
0.0233749
0.019561
0.0165927
0.0142391
0.0123418
0.0107872
0.00949137
0.00839039
0.00743149
0.00656791
0.00577167
0.00505025
0.00439229
0.00606136
0.036643
0.0787807
0.127031
0.153937
0.196862
0.0208636
0.0725918
0.119176
0.168279
0.224375
0.331625
0.030136
0.0913276
0.14183
0.194755
0.258944
0.348797
0.0378404
0.103845
0.156875
0.211686
0.274891
0.346548
0.0444974
0.113305
0.16767
0.222579
0.281747
0.338427
0.0500941
0.120787
0.17559
0.229377
0.283416
0.328469
0.0546537
0.126736
0.181336
0.233304
0.282233
0.318075
0.0582291
0.131358
0.185317
0.235159
0.279351
0.307926
0.0608873
0.134755
0.187804
0.2355
0.275594
0.298414
0.062697
0.13699
0.188997
0.234725
0.271424
0.289859
0.0637226
0.138112
0.189054
0.23313
0.267165
0.282436
0.064014
0.138163
0.188105
0.230916
0.263057
0.276243
0.063646
0.137179
0.186236
0.22821
0.259261
0.271337
0.0626707
0.135176
0.1835
0.225072
0.255858
0.267754
0.0610258
0.132176
0.179902
0.22149
0.252851
0.265525
0.0586625
0.128176
0.175398
0.217379
0.250146
0.264646
0.0555439
0.123144
0.169889
0.212571
0.24754
0.265116
0.0516325
0.117009
0.163211
0.206813
0.244661
0.266901
0.0468868
0.109643
0.155114
0.199702
0.240957
0.270018
0.0412714
0.100825
0.145214
0.190637
0.235545
0.274321
0.0347714
0.0901284
0.132885
0.178755
0.227198
0.278912
0.0274317
0.0766052
0.116934
0.162719
0.213817
0.280858
0.0186357
0.0575355
0.0944807
0.14019
0.191349
0.269262
0.00473668
0.0258534
0.0594774
0.108094
0.152825
0.160756
0.387472
0.37657
0.297051
0.217811
0.153348
0.106699
0.0754263
0.0551578
0.0419019
0.0329032
0.0264952
0.0217401
0.0181084
0.0152783
0.0130384
0.0112417
0.00978234
0.0085816
0.00757958
0.00672735
0.00598223
0.00531916
0.00474286
0.00424342
0.416262
0.370326
0.28627
0.207337
0.144377
0.0997807
0.0704137
0.0515651
0.0392395
0.0308185
0.0247702
0.020251
0.0167869
0.0140866
0.0119555
0.0102568
0.00889054
0.00778257
0.00687622
0.00612537
0.00549007
0.0049462
0.0044939
0.00412199
0.402854
0.353491
0.271885
0.195263
0.135003
0.093014
0.0657157
0.0482741
0.0368218
0.0289268
0.023203
0.0188987
0.0155903
0.013013
0.0109867
0.00938305
0.00810744
0.00708927
0.00627454
0.00561903
0.00508421
0.00464522
0.00429663
0.00402495
0.382709
0.333744
0.255785
0.182576
0.125709
0.0866023
0.0613933
0.0452892
0.0346375
0.0272158
0.0217843
0.0176767
0.0145138
0.0120534
0.010128
0.00861605
0.00742779
0.0064957
0.00576774
0.00520073
0.0047563
0.00440761
0.00414361
0.00394878
0.362007
0.313453
0.239371
0.170066
0.116876
0.0806893
0.0574806
0.0426062
0.0326744
0.0256749
0.0205066
0.0165797
0.013553
0.0112036
0.00937444
0.00795031
0.00684541
0.00599488
0.00534806
0.00486184
0.00449697
0.00422408
0.00402733
0.00389003
0.34241
0.294163
0.223606
0.158273
0.108746
0.0753513
0.0539851
0.0402137
0.0309199
0.0242951
0.0193636
0.0156026
0.0127032
0.0104586
0.00872063
0.0073796
0.00635329
0.00557907
0.00500691
0.0045929
0.00429628
0.00408532
0.00394077
0.00384566
0.324533
0.276462
0.209035
0.147505
0.101437
0.0706103
0.050895
0.0380953
0.0293611
0.0230675
0.0183492
0.0147404
0.0119592
0.00981275
0.00816028
0.006897
0.0059439
0.00524004
0.00473529
0.00438419
0.00414439
0.00398265
0.0038778
0.00381307
0.308597
0.260605
0.195938
0.137907
0.0949854
0.0664523
0.0481866
0.0362319
0.0279853
0.0219838
0.0174571
0.0139874
0.0113156
0.00926002
0.0076867
0.00649519
0.00560932
0.00496926
0.00452401
0.00422615
0.00403209
0.00390828
0.00383317
0.00378986
0.294681
0.246703
0.184432
0.129514
0.0893713
0.0628427
0.0458306
0.0346042
0.0267804
0.0210362
0.0166813
0.0133383
0.0107666
0.00879418
0.00729309
0.0061668
0.00534159
0.00475816
0.00436409
0.00410994
0.00395155
0.00385596
0.00380227
0.00377368
0.282804
0.234779
0.174528
0.122296
0.084547
0.0597376
0.0437964
0.0331933
0.0257349
0.0202169
0.016016
0.0127876
0.0103066
0.00840938
0.00697315
0.00590502
0.00513333
0.00459881
0.00424735
0.0040279
0.00389637
0.00382093
0.00378189
0.00376286
0.272964
0.224809
0.166178
0.116186
0.0804496
0.0570896
0.0420536
0.0319813
0.0248377
0.0195184
0.0154552
0.01233
0.00993051
0.00810029
0.00672129
0.00570389
0.00497809
0.0044843
0.00416682
0.00397355
0.00386112
0.00379975
0.00376987
0.00375634
0.265148
0.216742
0.159305
0.111102
0.0770095
0.0548513
0.0405732
0.0309512
0.0240783
0.0189334
0.0149931
0.0119604
0.00963334
0.00786194
0.0065324
0.00555805
0.00487016
0.00440872
0.00411676
0.00394189
0.00384193
0.00378899
0.00376394
0.0037531
0.259347
0.210524
0.153822
0.106952
0.0741567
0.0529764
0.0393272
0.0300857
0.023446
0.0184548
0.014624
0.0116735
0.00941012
0.00768942
0.00640154
0.00546235
0.00480422
0.00436682
0.00409241
0.00392905
0.003836
0.00378656
0.00376274
0.00375227
0.25558
0.206109
0.149642
0.103649
0.0718224
0.0514201
0.0382885
0.0293681
0.0229304
0.018075
0.0143418
0.011464
0.00925588
0.00757799
0.00632402
0.0054121
0.00477563
0.00435428
0.00408988
0.00393193
0.00384093
0.00379063
0.00376505
0.00375281
0.253916
0.203475
0.146682
0.101105
0.0699394
0.050139
0.0374304
0.0287819
0.0225204
0.017786
0.01414
0.0113263
0.00916575
0.00752327
0.00629589
0.0054035
0.00478001
0.00436642
0.00410629
0.00394841
0.00385507
0.00380113
0.00377091
0.00375446
0.254437
0.202625
0.144871
0.0992327
0.06844
0.0490893
0.0367259
0.0283098
0.0222043
0.0175792
0.0140118
0.0112548
0.00913507
0.00752102
0.00631185
0.00543032
0.0048141
0.00440288
0.00414015
0.00397731
0.0038777
0.00381692
0.00377988
0.00375731
0.257326
0.203598
0.144162
0.097957
0.0672567
0.0482258
0.0361468
0.0279339
0.0219697
0.0174452
0.0139498
0.0112437
0.0091578
0.00756472
0.00636817
0.00549409
0.00487783
0.00446141
0.0041906
0.00401831
0.00390881
0.00383819
0.00379194
0.00376131
0.262818
0.206451
0.14445
0.0972156
0.0663448
0.0475137
0.0356674
0.027635
0.0218032
0.0173742
0.0139465
0.0112861
0.00922957
0.00765424
0.00646665
0.00559212
0.00496896
0.00454148
0.0042575
0.00407157
0.00394872
0.00386536
0.0038075
0.00376682
0.271193
0.211244
0.145657
0.0968834
0.0656351
0.0469203
0.0352687
0.0274003
0.0216932
0.0173566
0.0139944
0.0113779
0.00934863
0.00778768
0.00660289
0.00572238
0.00508693
0.00464314
0.00434129
0.00413771
0.00399813
0.00389917
0.0038273
0.00377438
0.282701
0.217997
0.147622
0.09682
0.0650304
0.0463889
0.0349174
0.0272081
0.0216254
0.0173817
0.014086
0.0115138
0.00951045
0.00796024
0.00677447
0.00588393
0.00523168
0.004767
0.00444294
0.00421784
0.00405816
0.00394068
0.0038523
0.0037847
0.297387
0.226558
0.150058
0.0968312
0.0644279
0.0458647
0.0345807
0.0270371
0.0215843
0.0174385
0.0142125
0.011686
0.00970854
0.00816814
0.00697946
0.00607602
0.00540349
0.00491408
0.00456391
0.00431353
0.0041303
0.00399123
0.0038836
0.00379856
0.314022
0.236313
0.152416
0.0966424
0.0637119
0.0452938
0.0342278
0.0268667
0.0215555
0.0175158
0.0143652
0.0118879
0.00993814
0.00840805
0.00721581
0.00629786
0.00560266
0.00508557
0.00470591
0.0044267
0.00421636
0.00405237
0.00392245
0.00381684
0.327851
0.245623
0.153608
0.095894
0.0627719
0.0446319
0.0338327
0.0266795
0.021526
0.0176036
0.0145359
0.0121131
0.0101943
0.0086763
0.00748112
0.0065483
0.00582922
0.00528245
0.0048706
0.00455932
0.00431842
0.00412603
0.00397014
0.00384051
0.317438
0.249092
0.15236
0.0942885
0.0615553
0.043858
0.0333786
0.0264624
0.0214856
0.0176934
0.0147176
0.0123556
0.0104722
0.00896932
0.00777299
0.0068261
0.00608309
0.00550569
0.00505984
0.0047139
0.00443914
0.00421424
0.00402681
0.00386968
0.00605796
0.00980133
0.0171807
0.0235226
0.0350567
0.117165
0.0189505
0.0270537
0.0412076
0.0514791
0.0832531
0.15804
0.0226694
0.0366182
0.0563887
0.0753536
0.122789
0.190047
0.025291
0.0451743
0.0694858
0.0970614
0.145744
0.195114
0.0298579
0.0537562
0.0813542
0.11404
0.15928
0.19206
0.0331154
0.0618078
0.0915625
0.126535
0.165088
0.184069
0.0357331
0.0691984
0.100101
0.135464
0.165262
0.175748
0.0379059
0.075886
0.107225
0.141281
0.163404
0.167827
0.0397106
0.0818181
0.113215
0.144522
0.16013
0.160482
0.0411873
0.0868989
0.118213
0.145911
0.156991
0.153732
0.0422412
0.0910895
0.122234
0.146424
0.15418
0.147817
0.0428219
0.094344
0.125371
0.14665
0.151887
0.142924
0.0429037
0.0966058
0.127711
0.14691
0.150304
0.139215
0.0425674
0.0978319
0.129308
0.147399
0.149668
0.136891
0.0417883
0.0979995
0.130193
0.148289
0.149927
0.136455
0.0405986
0.097116
0.130347
0.149648
0.151209
0.137491
0.0390036
0.0951941
0.129696
0.151227
0.154058
0.140978
0.0369766
0.0922356
0.128116
0.152624
0.158297
0.146964
0.0344525
0.0881818
0.125367
0.153186
0.163383
0.154771
0.0313328
0.0828373
0.121004
0.152207
0.168036
0.163414
0.0275843
0.0757506
0.114312
0.148138
0.169824
0.170686
0.0250224
0.065922
0.104022
0.138704
0.16604
0.17338
0.0200728
0.0513063
0.0871756
0.120482
0.151063
0.163524
0.00612609
0.0242478
0.0544686
0.0845284
0.115954
0.118942
0.292092
0.240889
0.148548
0.0918544
0.0600209
0.0429309
0.032856
0.0262073
0.0214276
0.017779
0.0149048
0.0126107
0.0107681
0.00928425
0.00808963
0.00713058
0.00636464
0.00575661
0.00527557
0.00489255
0.00458037
0.00431832
0.00409402
0.00390478
0.262706
0.222998
0.141989
0.088328
0.0580709
0.0418219
0.0322448
0.0259108
0.0213492
0.0178572
0.0150942
0.0128754
0.0110795
0.00961951
0.00843037
0.00746208
0.00667516
0.0060373
0.00552044
0.00509816
0.0047448
0.00444045
0.00417353
0.00394645
0.238126
0.201092
0.132363
0.0836004
0.0556731
0.0405283
0.0315474
0.0255787
0.0212514
0.0179278
0.015285
0.0131488
0.0114057
0.00997476
0.00879558
0.00782171
0.00701653
0.0063503
0.00579746
0.00533391
0.00493557
0.0045838
0.00426921
0.00399638
0.217328
0.180835
0.121657
0.0781913
0.0529445
0.039074
0.0307794
0.0252118
0.0211388
0.0179938
0.0154789
0.0134318
0.0117473
0.0103507
0.00918621
0.00821089
0.00739072
0.00669818
0.00610984
0.00560362
0.005157
0.00475308
0.00438558
0.00405714
0.199402
0.162922
0.111345
0.0729128
0.0502594
0.0376239
0.0299828
0.0248283
0.0210224
0.018062
0.0156802
0.0137272
0.0121062
0.0107487
0.00960362
0.00863112
0.0077996
0.0070834
0.00646084
0.00591143
0.00541402
0.00495326
0.00452569
0.00413018
0.183645
0.147348
0.101908
0.0679857
0.0477321
0.0362494
0.0292265
0.024458
0.0209177
0.0181425
0.0158957
0.0140396
0.0124857
0.0111714
0.0100498
0.0090843
0.00824526
0.00750857
0.00685377
0.00626147
0.00571123
0.00518862
0.00469265
0.00421671
0.169499
0.133949
0.0935345
0.0635166
0.0454104
0.0349821
0.0285337
0.0241246
0.0208401
0.0182461
0.0161334
0.0143752
0.0128905
0.0116224
0.0105279
0.0095732
0.00873048
0.00797674
0.00729225
0.00665799
0.00605336
0.0054638
0.00489021
0.00431841
0.156987
0.122524
0.0862494
0.0595447
0.0433153
0.0338378
0.0279194
0.0238451
0.0208014
0.0183836
0.0164024
0.0147415
0.0133269
0.012107
0.0110425
0.0101019
0.00925908
0.00849175
0.00778036
0.00710551
0.00644541
0.00578399
0.00512283
0.00443732
0.146092
0.112873
0.0800011
0.0560744
0.0414576
0.0328271
0.0273944
0.0236335
0.0208131
0.0185665
0.0167131
0.0151478
0.0138033
0.0126328
0.0116003
0.0106766
0.00983674
0.00905895
0.00832333
0.0076094
0.00689312
0.00615515
0.00539581
0.00457557
0.136767
0.104811
0.0747214
0.0530963
0.0398449
0.0319617
0.0269712
0.0235104
0.0208956
0.0188087
0.0170778
0.0156055
0.0143306
0.0132101
0.0122113
0.0113067
0.0104724
0.00968685
0.00892925
0.00817745
0.00740425
0.00658519
0.00571606
0.00473527
0.128952
0.0981761
0.0703442
0.0505964
0.0384858
0.0312524
0.02666
0.0234719
0.021057
0.019123
0.0175102
0.0161287
0.0149227
0.0138531
0.0128898
0.0120069
0.0111811
0.0103905
0.009613
0.00882415
0.00799283
0.00708777
0.00609547
0.00491905
0.122598
0.092839
0.0668113
0.0485664
0.0373951
0.0307138
0.0264743
0.0235363
0.0213131
0.0195254
0.0180264
0.0167339
0.015597
0.0145803
0.013656
0.0127995
0.0119877
0.0111975
0.0104049
0.00958165
0.00869181
0.00769592
0.00656421
0.00513581
0.117681
0.088714
0.0640856
0.0470115
0.0365844
0.0303674
0.0264446
0.0237303
0.0216832
0.020034
0.0186449
0.0174402
0.016374
0.0154144
0.0145361
0.0137158
0.0129306
0.0121563
0.0113657
0.0105259
0.00959281
0.00851371
0.00722837
0.00544802
0.114222
0.0857621
0.0621544
0.0459417
0.0360796
0.0302375
0.0265812
0.0240727
0.0221879
0.0206691
0.019386
0.0182686
0.017276
0.0163802
0.0155593
0.0147926
0.0140593
0.0133365
0.0125983
0.0118126
0.0109336
0.00988716
0.00851686
0.00633139
0.112355
0.0840121
0.0610426
0.0454055
0.0359195
0.0303551
0.0269177
0.0245877
0.02285
0.0214528
0.0202711
0.0192404
0.0183242
0.0174998
0.0167499
0.016059
0.015412
0.0147945
0.0141949
0.0136074
0.0130344
0.0124981
0.0121063
0.0122254
0.112297
0.0835985
0.0608197
0.045425
0.0361494
0.0307597
0.0274859
0.0253035
0.023695
0.022409
0.0213232
0.0203767
0.0195382
0.0187904
0.0181222
0.0175256
0.0169945
0.0165264
0.0161264
0.0158103
0.0156059
0.0155696
0.0158346
0.0165834
0.114095
0.0845592
0.0615966
0.0461404
0.0368494
0.0315077
0.0283271
0.026254
0.024753
0.0235653
0.0225672
0.0217001
0.020937
0.0202664
0.019685
0.0191937
0.0187974
0.0185069
0.0183412
0.0183294
0.0184957
0.0188923
0.0196157
0.0206894
0.118639
0.0874266
0.0636165
0.0476909
0.0381266
0.0326756
0.0294977
0.0274834
0.0260612
0.0249546
0.024033
0.0232369
0.0225424
0.0219441
0.0214464
0.0210607
0.0208037
0.0206985
0.0207698
0.0210488
0.0215748
0.0223555
0.0234437
0.0247785
0.126485
0.0926922
0.0672658
0.0503372
0.0401523
0.0343778
0.0310777
0.0290517
0.0276683
0.026619
0.0257579
0.0250204
0.0243832
0.0238456
0.0234203
0.0231292
0.0230017
0.0230643
0.0233454
0.0239077
0.0247511
0.0258689
0.0272791
0.0288645
0.137506
0.100854
0.0730737
0.0544813
0.0431993
0.0367934
0.0331877
0.0310457
0.0296421
0.0286153
0.0277924
0.0270962
0.0264998
0.026005
0.0256318
0.025413
0.0253907
0.0255775
0.0260482
0.0268489
0.0279694
0.0293858
0.0310943
0.0329373
0.149994
0.111741
0.0814741
0.0606259
0.0476639
0.0401975
0.0360141
0.0335962
0.0320811
0.031024
0.0302065
0.0295279
0.0289507
0.028475
0.0281255
0.0279457
0.027985
0.0282533
0.0288601
0.029845
0.0311934
0.032869
0.0348558
0.0369679
0.158917
0.12367
0.0922627
0.0692044
0.0540631
0.0449996
0.0398454
0.0369051
0.0351333
0.0339617
0.0330994
0.0324052
0.0318204
0.0313353
0.0309742
0.0307883
0.0308375
0.0311292
0.0317964
0.0328946
0.0344063
0.0362894
0.0385247
0.040914
0.156733
0.132594
0.103537
0.0797728
0.062696
0.0516682
0.0450813
0.0412675
0.0390136
0.0375929
0.0366072
0.0358501
0.0352244
0.0346992
0.0342886
0.0340434
0.0340452
0.03429
0.0349201
0.0360365
0.0376213
0.0396378
0.0420716
0.0447356
0.137853
0.130378
0.111364
0.0900039
0.0726085
0.0601148
0.0519613
0.046965
0.0439663
0.0421156
0.0408946
0.0400091
0.0393038
0.0387096
0.0382176
0.0378668
0.0377425
0.0378867
0.0383701
0.0393658
0.0409024
0.0429458
0.045497
0.0484138
0.00434354
0.010295
0.0205307
0.0314633
0.0407204
0.0506961
0.0169965
0.0278118
0.0424469
0.0544099
0.0638567
0.0728504
0.0210034
0.0362755
0.0535379
0.0667173
0.0772657
0.0864486
0.0230154
0.0422474
0.0613354
0.0755703
0.0870832
0.0970641
0.0243873
0.0473407
0.0677019
0.0828409
0.0952299
0.106031
0.0253996
0.0521329
0.0732142
0.0891306
0.10233
0.11391
0.0277375
0.0565127
0.0780489
0.0946543
0.108606
0.120905
0.0296899
0.0603622
0.0822515
0.0994869
0.114129
0.127064
0.031271
0.0636268
0.0858279
0.10365
0.118909
0.132368
0.0324949
0.0662868
0.0887806
0.107148
0.12294
0.13679
0.0333814
0.0683334
0.0911121
0.109983
0.126216
0.140316
0.0339588
0.0697551
0.0928228
0.112154
0.12874
0.142952
0.0342173
0.0705404
0.0939078
0.113661
0.130523
0.144732
0.034101
0.0706818
0.0943525
0.1145
0.131583
0.145709
0.0335686
0.0701858
0.0941352
0.114653
0.131936
0.14595
0.0326101
0.069008
0.0932143
0.114108
0.131609
0.145546
0.0312194
0.0670974
0.0915266
0.112813
0.1306
0.144574
0.0293934
0.0643755
0.0889766
0.110687
0.128886
0.143106
0.0271526
0.0607208
0.0854156
0.107589
0.126387
0.141185
0.0249454
0.055932
0.0806031
0.103279
0.122927
0.138798
0.0234673
0.0497021
0.0741173
0.0973213
0.118133
0.135808
0.0214381
0.0416325
0.0651084
0.0888586
0.111211
0.13179
0.0171491
0.0298783
0.0514243
0.0759212
0.100364
0.125595
0.00426327
0.0111381
0.0288947
0.0544065
0.0820289
0.114821
0.111222
0.122236
0.114981
0.0983271
0.082365
0.0696071
0.0603671
0.0541643
0.050202
0.0477185
0.0461212
0.0450225
0.0441932
0.043509
0.042921
0.0424391
0.0421271
0.0421014
0.0423607
0.043072
0.0444027
0.0463133
0.0488522
0.0519727
0.106949
0.125297
0.121582
0.108773
0.0928057
0.0795788
0.0696116
0.0625223
0.0576903
0.0544823
0.0523726
0.0509632
0.0499594
0.0491711
0.0484963
0.0479
0.047407
0.0471059
0.0471397
0.0474802
0.0483614
0.0499408
0.0522654
0.0554905
0.109197
0.134022
0.137353
0.130688
0.114836
0.0976937
0.0843316
0.0744389
0.0674991
0.0628425
0.0598836
0.057957
0.0566332
0.055665
0.0548993
0.0542316
0.0536216
0.0531018
0.0527805
0.0528283
0.053199
0.0541493
0.0559886
0.0591194
0.114923
0.13976
0.154219
0.155189
0.148873
0.134342
0.116861
0.100884
0.0887553
0.080059
0.073797
0.0694071
0.0663266
0.0641598
0.0626972
0.0616435
0.060796
0.0600731
0.0594675
0.0590653
0.0590785
0.0594296
0.0604799
0.0630565
0.121821
0.144551
0.164236
0.175846
0.178558
0.174769
0.16492
0.150821
0.135176
0.120111
0.106795
0.0962661
0.0883408
0.0823384
0.0777077
0.0741367
0.071423
0.0693904
0.0679041
0.0668
0.0660549
0.065853
0.0661718
0.0677554
0.128958
0.149933
0.171035
0.188522
0.200232
0.206016
0.205608
0.201633
0.192866
0.181117
0.167685
0.153195
0.138747
0.125289
0.113304
0.103194
0.0951454
0.088777
0.083715
0.0797898
0.0768499
0.0747996
0.07371
0.0741242
0.135833
0.155618
0.176629
0.196538
0.213327
0.226037
0.234192
0.238094
0.237618
0.234347
0.227336
0.217342
0.205087
0.191141
0.176148
0.160801
0.145698
0.1316
0.119097
0.108508
0.0998821
0.0931022
0.0878517
0.0852068
0.142102
0.16103
0.181362
0.201735
0.220639
0.237002
0.250152
0.259849
0.266012
0.268724
0.268095
0.264883
0.258285
0.248883
0.237107
0.223299
0.207925
0.191581
0.174923
0.158592
0.143266
0.12948
0.117626
0.108281
0.14753
0.165695
0.185003
0.204712
0.223721
0.241154
0.256331
0.268846
0.278501
0.285205
0.288994
0.289861
0.288269
0.284134
0.277049
0.267627
0.256026
0.242472
0.227306
0.210925
0.193861
0.176697
0.160572
0.146279
0.151969
0.169294
0.187277
0.205557
0.223472
0.24026
0.255342
0.268314
0.278914
0.287004
0.292559
0.295603
0.296231
0.294773
0.291081
0.285156
0.277495
0.268179
0.257235
0.244776
0.23095
0.215936
0.200837
0.187957
0.155347
0.171667
0.188015
0.204392
0.220316
0.235253
0.24875
0.260478
0.270231
0.277916
0.283532
0.287134
0.288817
0.288717
0.28701
0.283539
0.278439
0.271891
0.264044
0.255097
0.245444
0.235704
0.226617
0.219692
0.157661
0.172785
0.187291
0.201359
0.214739
0.227075
0.238056
0.247469
0.255205
0.261252
0.265677
0.268598
0.270113
0.270416
0.26962
0.267785
0.264984
0.261299
0.256795
0.251577
0.245857
0.240172
0.235403
0.23174
0.158967
0.172745
0.185238
0.196797
0.207355
0.216727
0.224753
0.231359
0.23656
0.240459
0.243226
0.245053
0.246085
0.246493
0.246435
0.245922
0.244989
0.243652
0.241918
0.23981
0.237432
0.235017
0.232713
0.229654
0.159359
0.171714
0.182155
0.191191
0.198921
0.205322
0.210392
0.214215
0.216951
0.218838
0.220137
0.221094
0.221916
0.222777
0.223709
0.224638
0.225514
0.226283
0.226853
0.227107
0.226945
0.226281
0.224905
0.222099
0.158993
0.169935
0.17843
0.185137
0.190305
0.194061
0.196572
0.198076
0.198858
0.199267
0.199575
0.200078
0.201049
0.202646
0.204857
0.207294
0.209761
0.212232
0.214599
0.216742
0.218512
0.21966
0.21982
0.219451
0.158028
0.167694
0.174519
0.179299
0.182433
0.184154
0.184793
0.184743
0.184329
0.183999
0.184181
0.185162
0.186853
0.189019
0.191555
0.194652
0.197355
0.199822
0.202054
0.204005
0.205632
0.206819
0.207749
0.210184
0.156648
0.165308
0.170907
0.174368
0.176165
0.176774
0.176604
0.176105
0.175874
0.176314
0.177628
0.179669
0.182049
0.184221
0.185556
0.186172
0.186375
0.185906
0.184856
0.183303
0.181318
0.178895
0.176908
0.178195
0.155046
0.163111
0.168083
0.170997
0.172472
0.17306
0.173242
0.173565
0.174494
0.176268
0.178823
0.18168
0.184104
0.185358
0.1848
0.181873
0.177339
0.171929
0.165993
0.159852
0.153668
0.147021
0.140763
0.140949
0.153421
0.161454
0.166546
0.169867
0.172122
0.173866
0.175611
0.177861
0.180892
0.184638
0.188571
0.191791
0.193324
0.192516
0.188353
0.180504
0.171119
0.16101
0.151081
0.141976
0.13408
0.127527
0.124311
0.125629
0.151983
0.160732
0.166829
0.171512
0.175595
0.179647
0.18407
0.189069
0.19457
0.200023
0.204447
0.20671
0.206087
0.20097
0.190851
0.178894
0.165421
0.152087
0.140224
0.130532
0.123246
0.118972
0.11828
0.120785
0.150988
0.161388
0.169398
0.17649
0.183455
0.190682
0.198292
0.20609
0.213446
0.219304
0.22239
0.221891
0.215816
0.204146
0.190097
0.173771
0.157302
0.142632
0.130982
0.122646
0.11739
0.115663
0.11656
0.120122
0.15084
0.164028
0.17504
0.185445
0.195951
0.206671
0.217261
0.226934
0.234509
0.238622
0.237878
0.23091
0.218227
0.202077
0.183053
0.163659
0.146287
0.132528
0.122878
0.116911
0.114181
0.114408
0.116395
0.121198
0.152304
0.169676
0.184536
0.198814
0.213062
0.226874
0.239265
0.248848
0.254105
0.252947
0.245439
0.231641
0.213054
0.191282
0.169169
0.149465
0.133945
0.123052
0.116212
0.11273
0.112331
0.113475
0.116713
0.121772
0.156973
0.179447
0.198499
0.216734
0.234196
0.249729
0.261645
0.268202
0.266694
0.25884
0.243595
0.222297
0.197706
0.173113
0.15153
0.134736
0.122929
0.115287
0.110909
0.109432
0.109911
0.111946
0.11613
0.121046
)
;

boundaryField
{
    rotor
    {
        type            kqRWallFunction;
        value           nonuniform List<scalar> 
144
(
0.00386478
0.00882993
0.0229059
0.0471826
0.0798973
0.116013
0.00386478
0.0161671
0.0204573
0.0226879
0.024175
0.0250351
0.0265861
0.0278664
0.0288313
0.0294633
0.0297483
0.029707
0.0293173
0.0286412
0.0277743
0.0267175
0.0255505
0.0249278
0.0244088
0.0234722
0.0219903
0.0199938
0.016131
0.00412762
0.00412762
0.00892301
0.0152784
0.020631
0.0282246
0.0781489
0.00606136
0.036643
0.0787807
0.127031
0.153937
0.196862
0.00606136
0.0208636
0.030136
0.0378404
0.0444974
0.0500941
0.0546537
0.0582291
0.0608873
0.062697
0.0637226
0.064014
0.063646
0.0626707
0.0610258
0.0586625
0.0555439
0.0516325
0.0468868
0.0412714
0.0347714
0.0274317
0.0186357
0.00473668
0.00473668
0.0258534
0.0594774
0.108094
0.152825
0.160756
0.00605796
0.00980133
0.0171807
0.0235226
0.0350567
0.117165
0.00605796
0.0189505
0.0226694
0.025291
0.0298579
0.0331154
0.0357331
0.0379059
0.0397106
0.0411873
0.0422412
0.0428219
0.0429037
0.0425674
0.0417883
0.0405986
0.0390036
0.0369766
0.0344525
0.0313328
0.0275843
0.0250224
0.0200728
0.00612609
0.00612609
0.0242478
0.0544686
0.0845284
0.115954
0.118942
0.00434354
0.010295
0.0205307
0.0314633
0.0407204
0.0506961
0.00434354
0.0169965
0.0210034
0.0230154
0.0243873
0.0253996
0.0277375
0.0296899
0.031271
0.0324949
0.0333814
0.0339588
0.0342173
0.034101
0.0335686
0.0326101
0.0312194
0.0293934
0.0271526
0.0249454
0.0234673
0.0214381
0.0171491
0.00426327
0.00426327
0.0111381
0.0288947
0.0544065
0.0820289
0.114821
)
;
    }
    freestream
    {