/*--------------------------------*- C++ -*----------------------------------*\
  =========                 |
  \\      /  F ield         | OpenFOAM: The Open Source CFD Toolbox
   \\    /   O peration     | Website:  https://openfoam.org
    \\  /    A nd           | Version:  11
     \\/     M anipulation  |
\*---------------------------------------------------------------------------*/
FoamFile
{
    format      ascii;
    class       surfaceScalarField;
    location    "1.6";
    object      meshPhi;
}
// * * * * * * * * * * * * * * * * * * * * * * * * * * * * * * * * * * * * * //

dimensions      [0 3 -1 0 0 0 0];

internalField   nonuniform List<scalar> 
5640
(
1.36977e-16
9.81747e-07
2.42125e-16
1.37445e-06
3.77018e-16
1.76715e-06
-1.33927e-15
2.15984e-06
-3.68154e-15
2.55254e-06
2.94524e-06
5.95124e-15
1.84693e-18
9.81747e-07
-3.88772e-16
1.37445e-06
-2.60416e-15
1.76715e-06
1.94364e-15
2.15984e-06
8.0662e-15
2.55254e-06
2.94524e-06
-9.02989e-15
-1.16475e-16
9.81747e-07
1.86358e-16
1.37445e-06
-1.5624e-15
1.76715e-06
-4.21249e-15
2.15984e-06
-7.49841e-15
2.55254e-06
2.94524e-06
7.72351e-16
8.69579e-17
9.81747e-07
-1.0197e-16
1.37445e-06
2.69314e-15
1.76715e-06
7.44276e-15
2.15984e-06
3.25994e-15
2.55254e-06
2.94524e-06
-2.79809e-15
-4.83486e-17
9.81747e-07
3.95221e-17
1.37445e-06
1.94302e-16
1.76715e-06
-1.80618e-15
2.15984e-06
-4.20846e-15
2.55254e-06
2.94524e-06
5.01321e-15
-1.80101e-16
9.81747e-07
4.3423e-18
1.37445e-06
-1.84773e-15
1.76715e-06
-3.88623e-15
2.15984e-06
3.15706e-15
2.55254e-06
2.94524e-06
4.98209e-16
2.5396e-16
9.81747e-07
2.55453e-16
1.37445e-06
2.06603e-15
1.76715e-06
4.50403e-15
2.15984e-06
-2.30997e-15
2.55254e-06
2.94524e-06
5.4094e-16
2.16633e-17
9.81747e-07
-3.21659e-16
1.37445e-06
-1.14889e-15
1.76715e-06
-5.28555e-15
2.15984e-06
-3.76724e-16
2.55254e-06
2.94524e-06
-5.63978e-15
-1.43398e-16
9.81747e-07
1.66408e-16
1.37445e-06
4.19114e-15
1.76715e-06
6.34945e-15
2.15984e-06
-8.05621e-16
2.55254e-06
2.94524e-06
8.3922e-16
-6.88006e-17
9.81747e-07
-9.20989e-17
1.37445e-06
-2.76934e-15
1.76715e-06
-3.68796e-16
2.15984e-06
-1.45072e-15
2.55254e-06
2.94524e-06
-1.76723e-16
1.66358e-16
9.81747e-07
-8.87166e-17
1.37445e-06
5.69596e-16
1.76715e-06
-2.10356e-15
2.15984e-06
9.66014e-15
2.55254e-06
2.94524e-06
5.28991e-15
-1.77791e-16
9.81747e-07
-2.05304e-17
1.37445e-06
-3.45511e-16
1.76715e-06
-4.1727e-15
2.15984e-06
-2.6224e-15
2.55254e-06
2.94524e-06
5.36948e-15
1.77792e-16
9.81747e-07
2.05049e-17
1.37445e-06
3.45465e-16
1.76715e-06
4.17265e-15
2.15984e-06
2.6223e-15
2.55254e-06
2.94524e-06
-5.36946e-15
-1.66321e-16
9.81747e-07
8.86738e-17
1.37445e-06
-5.69692e-16
1.76715e-06
2.10348e-15
2.15984e-06
-9.66002e-15
2.55254e-06
2.94524e-06
-5.29019e-15
6.87887e-17
9.81747e-07
9.20531e-17
1.37445e-06
2.76938e-15
1.76715e-06
3.68744e-16
2.15984e-06
1.45075e-15
2.55254e-06
2.94524e-06
1.76587e-16
1.4338e-16
9.81747e-07
-1.66417e-16
1.37445e-06
-4.19119e-15
1.76715e-06
-6.34943e-15
2.15984e-06
8.05694e-16
2.55254e-06
2.94524e-06
-8.39253e-16
-2.16527e-17
9.81747e-07
3.21673e-16
1.37445e-06
1.14892e-15
1.76715e-06
5.28563e-15
2.15984e-06
3.76572e-16
2.55254e-06
2.94524e-06
5.63975e-15
-2.53978e-16
9.81747e-07
-2.55446e-16
1.37445e-06
-2.06594e-15
1.76715e-06
-4.50413e-15
2.15984e-06
2.3099e-15
2.55254e-06
2.94524e-06
-5.40899e-16
1.80085e-16
9.81747e-07
-4.32235e-18
1.37445e-06
1.8478e-15
1.76715e-06
3.88615e-15
2.15984e-06
-3.15715e-15
2.55254e-06
2.94524e-06
-4.98116e-16
4.83796e-17
9.81747e-07
-3.95108e-17
1.37445e-06
-1.9434e-16
1.76715e-06
1.80602e-15
2.15984e-06
4.20833e-15
2.55254e-06
2.94524e-06
-5.0134e-15
-8.69712e-17
9.81747e-07
1.01898e-16
1.37445e-06
-2.69317e-15
1.76715e-06
-7.44275e-15
2.15984e-06
-3.25986e-15
2.55254e-06
2.94524e-06
2.79776e-15
1.1645e-16
9.81747e-07
-1.86371e-16
1.37445e-06
1.5624e-15
1.76715e-06
4.21262e-15
2.15984e-06
7.49847e-15
2.55254e-06
2.94524e-06
-7.72327e-16
-1.84659e-18
9.81747e-07
3.88806e-16
1.37445e-06
2.60417e-15
1.76715e-06
-1.94365e-15
2.15984e-06
-8.06608e-15
2.55254e-06
2.94524e-06
9.02982e-15
-1.36939e-16
-2.42082e-16
-3.76977e-16
1.33922e-15
3.68159e-15
-5.95124e-15
-1.13359e-14
4.53785e-06
-4.53785e-06
-4.81152e-16
5.23599e-06
-5.23599e-06
-5.35695e-15
5.93412e-06
-5.93412e-06
-1.13029e-14
6.63225e-06
-6.63225e-06
4.86905e-15
7.33038e-06
-7.33038e-06
-1.10887e-15
8.02851e-06
-8.02851e-06
-8.1579e-15
8.72664e-06
-8.72664e-06
1.30442e-14
9.42478e-06
-9.42478e-06
5.94986e-15
1.01229e-05
-1.01229e-05
-1.99556e-15
1.0821e-05
-1.0821e-05
2.43872e-14
1.15192e-05
-1.15192e-05
1.6191e-14
1.22173e-05
-1.22173e-05
-3.27862e-14
1.29154e-05
-1.29154e-05
-3.05183e-15
1.36136e-05
-1.36136e-05
-1.44411e-14
1.43117e-05
-1.43117e-05
-2.69007e-14
1.50098e-05
-1.50098e-05
7.73815e-15
1.5708e-05
-1.5708e-05
-4.43454e-15
1.64061e-05
-1.64061e-05
-1.79995e-14
1.71042e-05
-1.71042e-05
2.18204e-14
1.78024e-05
-1.78024e-05
8.21143e-15
1.85005e-05
-1.85005e-05
-6.0801e-15
1.91986e-05
-1.91986e-05
3.8919e-14
1.98967e-05
-1.98967e-05
2.05949e-05
-2.05949e-05
9.39886e-15
4.53785e-06
5.20194e-16
5.23599e-06
7.52876e-15
5.93412e-06
-4.41165e-15
6.63225e-06
3.7834e-15
7.33038e-06
1.33853e-14
8.02851e-06
-2.10972e-15
8.72664e-06
8.52955e-15
9.42478e-06
-1.0027e-14
1.01229e-05
1.86657e-15
1.0821e-05
-2.0202e-14
1.15192e-05
-7.01104e-15
1.22173e-05
7.51038e-15
1.29154e-05
2.36089e-14
1.36136e-05
-2.04123e-15
1.43117e-05
1.48343e-14
1.50098e-05
-1.38774e-14
1.5708e-05
2.39376e-15
1.64061e-05
2.04111e-14
1.71042e-05
-7.01835e-15
1.78024e-05
1.20665e-14
1.85005e-05
-2.5936e-14
1.91986e-05
1.85035e-15
1.98967e-05
2.05949e-05
-8.6762e-15
4.53785e-06
1.22923e-14
5.23599e-06
1.88332e-15
5.93412e-06
8.90283e-15
6.63225e-06
-5.10809e-15
7.33038e-06
-2.19904e-14
8.02851e-06
1.22645e-14
8.72664e-06
-5.37489e-15
9.42478e-06
4.45764e-15
1.01229e-05
-1.4305e-14
1.0821e-05
-7.32647e-15
1.15192e-05
7.04044e-15
1.22173e-05
2.39954e-14
1.29154e-05
-7.55324e-15
1.36136e-05
9.80068e-15
1.43117e-05
-1.6235e-14
1.50098e-05
4.02936e-14
1.5708e-05
1.44459e-14
1.64061e-05
-1.37054e-14
1.71042e-05
-7.89566e-15
1.78024e-05
-3.92523e-14
1.85005e-05
4.27499e-14
1.91986e-05
-8.85049e-15
1.98967e-05
2.05949e-05
5.98584e-15
4.53785e-06
2.18908e-16
5.23599e-06
-6.43573e-15
5.93412e-06
6.06381e-15
6.63225e-06
-2.09284e-15
7.33038e-06
1.61764e-14
8.02851e-06
-1.88304e-14
8.72664e-06
-2.35101e-15
9.42478e-06
9.1727e-15
1.01229e-05
-4.71154e-15
1.0821e-05
2.16285e-14
1.15192e-05
-2.9645e-14
1.22173e-05
-9.28765e-15
1.29154e-05
-1.89075e-14
1.36136e-05
4.46684e-15
1.43117e-05
3.01548e-14
1.50098e-05
-2.62159e-14
1.5708e-05
4.39979e-16
1.64061e-05
-2.11715e-14
1.71042e-05
1.87141e-14
1.78024e-05
-3.92053e-15
1.85005e-05
-2.9159e-14
1.91986e-05
1.52306e-14
1.98967e-05
2.05949e-05
6.71511e-15
4.53785e-06
-7.30678e-15
5.23599e-06
1.11008e-14
5.93412e-06
-4.2414e-15
6.63225e-06
1.51024e-14
7.33038e-06
-5.20907e-15
8.02851e-06
1.70138e-14
8.72664e-06
-3.94106e-15
9.42478e-06
-2.93271e-16
1.01229e-05
6.61095e-15
1.0821e-05
1.37069e-14
1.15192e-05
1.01857e-14
1.22173e-05
1.82195e-14
1.29154e-05
1.43683e-14
1.36136e-05
2.33404e-14
1.43117e-05
-2.53446e-14
1.50098e-05
2.90733e-14
1.5708e-05
-7.8257e-15
1.64061e-05
3.54175e-14
1.71042e-05
-4.51167e-15
1.78024e-05
4.23733e-14
1.85005e-05
-5.8682e-16
1.91986e-05
-8.73318e-15
1.98967e-05
2.05949e-05
-4.6305e-15
4.53785e-06
5.79754e-15
5.23599e-06
-1.61508e-14
5.93412e-06
-5.97461e-15
6.63225e-06
-8.55525e-15
7.33038e-06
4.22416e-15
8.02851e-06
-8.18731e-15
8.72664e-06
7.00006e-15
9.42478e-06
-2.42283e-14
1.01229e-05
-7.76959e-15
1.0821e-05
-2.27634e-14
1.15192e-05
8.34878e-15
1.22173e-05
-7.40379e-15
1.29154e-05
2.82664e-14
1.36136e-05
-4.571e-14
1.43117e-05
-8.22237e-15
1.50098e-05
-2.82261e-14
1.5708e-05
-2.34125e-15
1.64061e-05
-6.9443e-15
1.71042e-05
2.21498e-14
1.78024e-05
-3.41072e-14
1.85005e-05
-3.73689e-15
1.91986e-05
-3.23454e-14
1.98967e-05
2.05949e-05
-8.92519e-15
4.53785e-06
-2.28883e-15
5.23599e-06
-2.2246e-15
5.93412e-06
6.61608e-15
6.63225e-06
-3.38792e-15
7.33038e-06
-3.90692e-15
8.02851e-06
-6.41916e-15
8.72664e-06
-7.159e-15
9.42478e-06
6.81054e-15
1.01229e-05
6.98228e-15
1.0821e-05
-9.06392e-15
1.15192e-05
6.75911e-15
1.22173e-05
-2.88877e-14
1.29154e-05
-1.2235e-14
1.36136e-05
4.80544e-15
1.43117e-05
2.50278e-14
1.50098e-05
3.8609e-15
1.5708e-05
3.60657e-15
1.64061e-05
-2.04819e-14
1.71042e-05
-2.17588e-14
1.78024e-05
3.46502e-15
1.85005e-05
2.90392e-14
1.91986e-05
-1.66011e-15
1.98967e-05
2.05949e-05
6.21566e-15
4.53785e-06
-3.87914e-15
5.23599e-06
1.54221e-14
5.93412e-06
-7.06513e-15
6.63225e-06
-2.21055e-15
7.33038e-06
1.4296e-15
8.02851e-06
-5.49244e-15
8.72664e-06
1.32254e-14
9.42478e-06
6.04529e-15
1.01229e-05
-1.74509e-14
1.0821e-05
2.08871e-14
1.15192e-05
-2.14445e-14
1.22173e-05
1.91353e-14
1.29154e-05
-7.31668e-15
1.36136e-05
3.84869e-14
1.43117e-05
-1.29214e-14
1.50098e-05
-1.88188e-15
1.5708e-05
5.7184e-15
1.64061e-05
-7.58839e-15
1.71042e-05
2.76575e-14
1.78024e-05
1.40981e-14
1.85005e-05
-5.31436e-14
1.91986e-05
3.90917e-14
1.98967e-05
2.05949e-05
-1.4985e-15
4.53785e-06
1.08971e-14
5.23599e-06
-6.59943e-15
5.93412e-06
7.26556e-15
6.63225e-06
6.17526e-15
7.33038e-06
2.48883e-15
8.02851e-06
-9.6433e-16
8.72664e-06
-4.36448e-15
9.42478e-06
-8.89997e-15
1.01229e-05
1.38632e-14
1.0821e-05
1.0692e-14
1.15192e-05
6.25099e-15
1.22173e-05
-1.26985e-16
1.29154e-05
-3.43881e-15
1.36136e-05
-1.10429e-14
1.43117e-05
-1.77668e-14
1.50098e-05
1.7683e-14
1.5708e-05
9.95532e-15
1.64061e-05
3.32741e-15
1.71042e-05
-3.29694e-14
1.78024e-05
-1.04193e-14
1.85005e-05
3.00696e-14
1.91986e-05
-5.99923e-14
1.98967e-05
2.05949e-05
5.1704e-15
4.53785e-06
-7.45556e-15
5.23599e-06
-7.56933e-16
5.93412e-06
6.83915e-15
6.63225e-06
-9.97446e-15
7.33038e-06
-1.66423e-15
8.02851e-06
9.21844e-15
8.72664e-06
-1.34587e-14
9.42478e-06
2.32223e-14
1.01229e-05
1.04717e-14
1.0821e-05
-1.72717e-14
1.15192e-05
-3.02773e-15
1.22173e-05
1.13975e-14
1.29154e-05
-1.9819e-14
1.36136e-05
-4.67833e-15
1.43117e-05
5.03061e-14
1.50098e-05
-2.40474e-14
1.5708e-05
-6.65694e-15
1.64061e-05
1.42618e-14
1.71042e-05
1.65039e-15
1.78024e-05
-6.80792e-15
1.85005e-05
1.44451e-14
1.91986e-05
5.07608e-14
1.98967e-05
2.05949e-05
-6.19746e-15
4.53785e-06
2.87199e-17
5.23599e-06
1.15115e-14
5.93412e-06
-2.06258e-14
6.63225e-06
5.36686e-15
7.33038e-06
1.22133e-15
8.02851e-06
-4.76422e-17
8.72664e-06
1.2393e-14
9.42478e-06
-1.32259e-14
1.01229e-05
-1.88949e-14
1.0821e-05
-4.96423e-15
1.15192e-05
-7.15419e-15
1.22173e-05
-1.48855e-14
1.29154e-05
3.5341e-14
1.36136e-05
1.8572e-18
1.43117e-05
-4.31407e-14
1.50098e-05
1.35602e-14
1.5708e-05
-2.8255e-14
1.64061e-05
2.45299e-15
1.71042e-05
-1.02423e-14
1.78024e-05
2.38066e-14
1.85005e-05
1.38756e-14
1.91986e-05
-4.55631e-14
1.98967e-05
2.05949e-05
-1.90663e-15
4.53785e-06
1.13063e-15
5.23599e-06
-2.16622e-14
5.93412e-06
9.62399e-15
6.63225e-06
1.51375e-14
7.33038e-06
-1.40653e-14
8.02851e-06
8.09214e-15
8.72664e-06
-2.69604e-14
9.42478e-06
-1.96511e-15
1.01229e-05
2.97171e-14
1.0821e-05
-1.17443e-14
1.15192e-05
1.98672e-14
1.22173e-05
-2.74449e-14
1.29154e-05
-2.0614e-14
1.36136e-05
1.6042e-14
1.43117e-05
-4.61529e-15
1.50098e-05
4.69124e-15
1.5708e-05
4.79669e-14
1.64061e-05
-1.37424e-14
1.71042e-05
3.23686e-14
1.78024e-05
-3.51866e-14
1.85005e-05
-2.49093e-14
1.91986e-05
7.19117e-14
1.98967e-05
2.05949e-05
1.90644e-15
4.53785e-06
-1.13058e-15
5.23599e-06
2.16618e-14
5.93412e-06
-9.62428e-15
6.63225e-06
-1.51372e-14
7.33038e-06
1.4066e-14
8.02851e-06
-8.09397e-15
8.72664e-06
2.69594e-14
9.42478e-06
1.9652e-15
1.01229e-05
-2.97174e-14
1.0821e-05
1.1747e-14
1.15192e-05
-1.98654e-14
1.22173e-05
2.74467e-14
1.29154e-05
2.06142e-14
1.36136e-05
-1.60418e-14
1.43117e-05
4.61056e-15
1.50098e-05
-4.69056e-15
1.5708e-05
-4.79687e-14
1.64061e-05
1.37383e-14
1.71042e-05
-3.23759e-14
1.78024e-05
3.51811e-14
1.85005e-05
2.4902e-14
1.91986e-05
-7.19191e-14
1.98967e-05
2.05949e-05
6.19688e-15
4.53785e-06
-2.8867e-17
5.23599e-06
-1.15117e-14
5.93412e-06
2.06255e-14
6.63225e-06
-5.3672e-15
7.33038e-06
-1.22113e-15
8.02851e-06
4.65765e-17
8.72664e-06
-1.2395e-14
9.42478e-06
1.32251e-14
1.01229e-05
1.88946e-14
1.0821e-05
4.96568e-15
1.15192e-05
7.15352e-15
1.22173e-05
1.48895e-14
1.29154e-05
-3.53423e-14
1.36136e-05
-2.47233e-19
1.43117e-05
4.31346e-14
1.50098e-05
-1.35646e-14
1.5708e-05
2.8255e-14
1.64061e-05
-2.45566e-15
1.71042e-05
1.02394e-14
1.78024e-05
-2.38085e-14
1.85005e-05
-1.38755e-14
1.91986e-05
4.55628e-14
1.98967e-05
2.05949e-05
-5.17013e-15
4.53785e-06
7.45536e-15
5.23599e-06
7.56202e-16
5.93412e-06
-6.83936e-15
6.63225e-06
9.97353e-15
7.33038e-06
1.66502e-15
8.02851e-06
-9.21891e-15
8.72664e-06
1.34594e-14
9.42478e-06
-2.32217e-14
1.01229e-05
-1.04711e-14
1.0821e-05
1.72719e-14
1.15192e-05
3.02481e-15
1.22173e-05
-1.1396e-14
1.29154e-05
1.98157e-14
1.36136e-05
4.67874e-15
1.43117e-05
-5.03102e-14
1.50098e-05
2.40462e-14
1.5708e-05
6.66007e-15
1.64061e-05
-1.42637e-14
1.71042e-05
-1.65129e-15
1.78024e-05
6.8119e-15
1.85005e-05
-1.44436e-14
1.91986e-05
-5.07602e-14
1.98967e-05
2.05949e-05
1.49847e-15
4.53785e-06
-1.08973e-14
5.23599e-06
6.59919e-15
5.93412e-06
-7.26517e-15
6.63225e-06
-6.17507e-15
7.33038e-06
-2.48839e-15
8.02851e-06
9.64352e-16
8.72664e-06
4.36429e-15
9.42478e-06
8.89963e-15
1.01229e-05
-1.38628e-14
1.0821e-05
-1.06913e-14
1.15192e-05
-6.25101e-15
1.22173e-05
1.27393e-16
1.29154e-05
3.43948e-15
1.36136e-05
1.10429e-14
1.43117e-05
1.77623e-14
1.50098e-05
-1.76803e-14
1.5708e-05
-9.95356e-15
1.64061e-05
-3.3276e-15
1.71042e-05
3.29689e-14
1.78024e-05
1.04217e-14
1.85005e-05
-3.00704e-14
1.91986e-05
5.99941e-14
1.98967e-05
2.05949e-05
-6.2157e-15
4.53785e-06
3.87895e-15
5.23599e-06
-1.54222e-14
5.93412e-06
7.06501e-15
6.63225e-06
2.21078e-15
7.33038e-06
-1.42917e-15
8.02851e-06
5.49294e-15
8.72664e-06
-1.32268e-14
9.42478e-06
-6.04592e-15
1.01229e-05
1.74503e-14
1.0821e-05
-2.0888e-14
1.15192e-05
2.14464e-14
1.22173e-05
-1.91345e-14
1.29154e-05
7.31638e-15
1.36136e-05
-3.84857e-14
1.43117e-05
1.29224e-14
1.50098e-05
1.88029e-15
1.5708e-05
-5.71667e-15
1.64061e-05
7.58528e-15
1.71042e-05
-2.76578e-14
1.78024e-05
-1.40969e-14
1.85005e-05
5.31376e-14
1.91986e-05
-3.90902e-14
1.98967e-05
2.05949e-05
8.92518e-15
4.53785e-06
2.28857e-15
5.23599e-06
2.22387e-15
5.93412e-06
-6.61654e-15
6.63225e-06
3.38814e-15
7.33038e-06
3.90755e-15
8.02851e-06
6.41822e-15
8.72664e-06
7.15851e-15
9.42478e-06
-6.80927e-15
1.01229e-05
-6.98334e-15
1.0821e-05
9.06367e-15
1.15192e-05
-6.75855e-15
1.22173e-05
2.88872e-14
1.29154e-05
1.22327e-14
1.36136e-05
-4.80484e-15
1.43117e-05
-2.50253e-14
1.50098e-05
-3.86107e-15
1.5708e-05
-3.60731e-15
1.64061e-05
2.04833e-14
1.71042e-05
2.17569e-14
1.78024e-05
-3.46805e-15
1.85005e-05
-2.90401e-14
1.91986e-05
1.66134e-15
1.98967e-05
2.05949e-05
4.63033e-15
4.53785e-06
-5.79756e-15
5.23599e-06
1.61508e-14
5.93412e-06
5.97484e-15
6.63225e-06
8.55553e-15
7.33038e-06
-4.22385e-15
8.02851e-06
8.18769e-15
8.72664e-06
-6.99869e-15
9.42478e-06
2.42304e-14
1.01229e-05
7.76946e-15
1.0821e-05
2.27645e-14
1.15192e-05
-8.34979e-15
1.22173e-05
7.40383e-15
1.29154e-05
-2.82644e-14
1.36136e-05
4.57102e-14
1.43117e-05
8.2217e-15
1.50098e-05
2.82264e-14
1.5708e-05
2.33883e-15
1.64061e-05
6.94456e-15
1.71042e-05
-2.21534e-14
1.78024e-05
3.41084e-14
1.85005e-05
3.74232e-15
1.91986e-05
3.23455e-14
1.98967e-05
2.05949e-05
-6.71522e-15
4.53785e-06
7.3067e-15
5.23599e-06
-1.1101e-14
5.93412e-06
4.24146e-15
6.63225e-06
-1.51024e-14
7.33038e-06
5.20994e-15
8.02851e-06
-1.70127e-14
8.72664e-06
3.94116e-15
9.42478e-06
2.93827e-16
1.01229e-05
-6.61083e-15
1.0821e-05
-1.37063e-14
1.15192e-05
-1.01856e-14
1.22173e-05
-1.82176e-14
1.29154e-05
-1.43675e-14
1.36136e-05
-2.33393e-14
1.43117e-05
2.53405e-14
1.50098e-05
-2.90727e-14
1.5708e-05
7.82631e-15
1.64061e-05
-3.54145e-14
1.71042e-05
4.5129e-15
1.78024e-05
-4.23722e-14
1.85005e-05
5.88952e-16
1.91986e-05
8.7326e-15
1.98967e-05
2.05949e-05
-5.98588e-15
4.53785e-06
-2.18914e-16
5.23599e-06
6.4355e-15
5.93412e-06
-6.06378e-15
6.63225e-06
2.09288e-15
7.33038e-06
-1.61764e-14
8.02851e-06
1.88309e-14
8.72664e-06
2.35058e-15
9.42478e-06
-9.17099e-15
1.01229e-05
4.71139e-15
1.0821e-05
-2.16274e-14
1.15192e-05
2.96449e-14
1.22173e-05
9.28881e-15
1.29154e-05
1.89069e-14
1.36136e-05
-4.46774e-15
1.43117e-05
-3.01561e-14
1.50098e-05
2.6213e-14
1.5708e-05
-4.37226e-16
1.64061e-05
2.11704e-14
1.71042e-05
-1.87133e-14
1.78024e-05
3.92004e-15
1.85005e-05
2.91569e-14
1.91986e-05
-1.52334e-14
1.98967e-05
2.05949e-05
8.67584e-15
4.53785e-06
-1.22924e-14
5.23599e-06
-1.88312e-15
5.93412e-06
-8.90217e-15
6.63225e-06
5.10864e-15
7.33038e-06
2.19908e-14
8.02851e-06
-1.22649e-14
8.72664e-06
5.37397e-15
9.42478e-06
-4.45791e-15
1.01229e-05
1.43057e-14
1.0821e-05
7.32577e-15
1.15192e-05
-7.04127e-15
1.22173e-05
-2.39948e-14
1.29154e-05
7.55431e-15
1.36136e-05
-9.80115e-15
1.43117e-05
1.62375e-14
1.50098e-05
-4.02956e-14
1.5708e-05
-1.44461e-14
1.64061e-05
1.37035e-14
1.71042e-05
7.89729e-15
1.78024e-05
3.9249e-14
1.85005e-05
-4.27531e-14
1.91986e-05
8.8498e-15
1.98967e-05
2.05949e-05
-9.39902e-15
4.53785e-06
-5.20479e-16
5.23599e-06
-7.52882e-15
5.93412e-06
4.41175e-15
6.63225e-06
-3.78269e-15
7.33038e-06
-1.33845e-14
8.02851e-06
2.10936e-15
8.72664e-06
-8.52899e-15
9.42478e-06
1.00265e-14
1.01229e-05
-1.86643e-15
1.0821e-05
2.02036e-14
1.15192e-05
7.0114e-15
1.22173e-05
-7.51113e-15
1.29154e-05
-2.36086e-14
1.36136e-05
2.04445e-15
1.43117e-05
-1.4832e-14
1.50098e-05
1.38791e-14
1.5708e-05
-2.38896e-15
1.64061e-05
-2.04128e-14
1.71042e-05
7.01766e-15
1.78024e-05
-1.20683e-14
1.85005e-05
2.59409e-14
1.91986e-05
-1.85052e-15
1.98967e-05
2.05949e-05
1.13361e-14
4.53785e-06
4.8096e-16
5.23599e-06
5.35716e-15
5.93412e-06
1.13035e-14
6.63225e-06
-4.8688e-15
7.33038e-06
1.10998e-15
8.02851e-06
8.15845e-15
8.72664e-06
-1.30438e-14
9.42478e-06
-5.94886e-15
1.01229e-05
1.99667e-15
1.0821e-05
-2.4388e-14
1.15192e-05
-1.61892e-14
1.22173e-05
3.27865e-14
1.29154e-05
3.05265e-15
1.36136e-05
1.44402e-14
1.43117e-05
2.69017e-14
1.50098e-05
-7.74149e-15
1.5708e-05
4.43991e-15
1.64061e-05
1.79983e-14
1.71042e-05
-2.18203e-14
1.78024e-05
-8.21179e-15
1.85005e-05
6.08116e-15
1.91986e-05
-3.89225e-14
1.98967e-05
2.05949e-05
1.36977e-16
9.81747e-07
2.42139e-16
1.37445e-06
3.77051e-16
1.76715e-06
-1.33927e-15
2.15984e-06
-3.68155e-15
2.55254e-06
2.94524e-06
5.95135e-15
1.84693e-18
9.81747e-07
-3.88772e-16
1.37445e-06
-2.60416e-15
1.76715e-06
1.94364e-15
2.15984e-06
8.0662e-15
2.55254e-06
2.94524e-06
-9.02989e-15
-1.16475e-16
9.81747e-07
1.86358e-16
1.37445e-06
-1.5624e-15
1.76715e-06
-4.21249e-15
2.15984e-06
-7.49841e-15
2.55254e-06
2.94524e-06
7.72351e-16
8.69579e-17
9.81747e-07
-1.0197e-16
1.37445e-06
2.69314e-15
1.76715e-06
7.44276e-15
2.15984e-06
3.25994e-15
2.55254e-06
2.94524e-06
-2.79809e-15
-4.83486e-17
9.81747e-07
3.95221e-17
1.37445e-06
1.94302e-16
1.76715e-06
-1.80618e-15
2.15984e-06
-4.20846e-15
2.55254e-06
2.94524e-06
5.01321e-15
-1.80101e-16
9.81747e-07
4.3423e-18
1.37445e-06
-1.84773e-15
1.76715e-06
-3.88623e-15
2.15984e-06
3.15706e-15
2.55254e-06
2.94524e-06
4.98209e-16
2.5396e-16
9.81747e-07
2.55453e-16
1.37445e-06
2.06603e-15
1.76715e-06
4.50403e-15
2.15984e-06
-2.30997e-15
2.55254e-06
2.94524e-06
5.4094e-16
2.16633e-17
9.81747e-07
-3.21659e-16
1.37445e-06
-1.14889e-15
1.76715e-06
-5.28555e-15
2.15984e-06
-3.76724e-16
2.55254e-06
2.94524e-06
-5.63978e-15
-1.43398e-16
9.81747e-07
1.66408e-16
1.37445e-06
4.19114e-15
1.76715e-06
6.34945e-15
2.15984e-06
-8.05621e-16
2.55254e-06
2.94524e-06
8.3922e-16
-6.88006e-17
9.81747e-07
-9.20989e-17
1.37445e-06
-2.76934e-15
1.76715e-06
-3.68796e-16
2.15984e-06
-1.45072e-15
2.55254e-06
2.94524e-06
-1.76723e-16
1.66358e-16
9.81747e-07
-8.87166e-17
1.37445e-06
5.69596e-16
1.76715e-06
-2.10356e-15
2.15984e-06
9.66014e-15
2.55254e-06
2.94524e-06
5.28991e-15
-1.77791e-16
9.81747e-07
-2.05304e-17
1.37445e-06
-3.45511e-16
1.76715e-06
-4.1727e-15
2.15984e-06
-2.6224e-15
2.55254e-06
2.94524e-06
5.36948e-15
1.77792e-16
9.81747e-07
2.05049e-17
1.37445e-06
3.45465e-16
1.76715e-06
4.17265e-15
2.15984e-06
2.6223e-15
2.55254e-06
2.94524e-06
-5.36946e-15
-1.66321e-16
9.81747e-07
8.86738e-17
1.37445e-06
-5.69692e-16
1.76715e-06
2.10348e-15
2.15984e-06
-9.66002e-15
2.55254e-06
2.94524e-06
-5.29019e-15
6.87887e-17
9.81747e-07
9.20531e-17
1.37445e-06
2.76938e-15
1.76715e-06
3.68744e-16
2.15984e-06
1.45075e-15
2.55254e-06
2.94524e-06
1.76587e-16
1.4338e-16
9.81747e-07
-1.66417e-16
1.37445e-06
-4.19119e-15
1.76715e-06
-6.34943e-15
2.15984e-06
8.05694e-16
2.55254e-06
2.94524e-06
-8.39253e-16
-2.16527e-17
9.81747e-07
3.21673e-16
1.37445e-06
1.14892e-15
1.76715e-06
5.28563e-15
2.15984e-06
3.76572e-16
2.55254e-06
2.94524e-06
5.63975e-15
-2.53978e-16
9.81747e-07
-2.55446e-16
1.37445e-06
-2.06594e-15
1.76715e-06
-4.50413e-15
2.15984e-06
2.3099e-15
2.55254e-06
2.94524e-06
-5.40899e-16
1.80085e-16
9.81747e-07
-4.32235e-18
1.37445e-06
1.8478e-15
1.76715e-06
3.88615e-15
2.15984e-06
-3.15715e-15
2.55254e-06
2.94524e-06
-4.98116e-16
4.83796e-17
9.81747e-07
-3.95108e-17
1.37445e-06
-1.9434e-16
1.76715e-06
1.80602e-15
2.15984e-06
4.20833e-15
2.55254e-06
2.94524e-06
-5.0134e-15
-8.69712e-17
9.81747e-07
1.01898e-16
1.37445e-06
-2.69317e-15
1.76715e-06
-7.44275e-15
2.15984e-06
-3.25986e-15
2.55254e-06
2.94524e-06
2.79776e-15
1.1645e-16
9.81747e-07
-1.86371e-16
1.37445e-06
1.5624e-15
1.76715e-06
4.21262e-15
2.15984e-06
7.49847e-15
2.55254e-06
2.94524e-06
-7.72327e-16
-1.84659e-18
9.81747e-07
3.88806e-16
1.37445e-06
2.60417e-15
1.76715e-06
-1.94365e-15
2.15984e-06
-8.06608e-15
2.55254e-06
2.94524e-06
9.02982e-15
-1.36943e-16
-2.42065e-16
-3.76996e-16
1.33928e-15
3.68153e-15
-5.95124e-15
-1.1336e-14
4.53785e-06
-4.81152e-16
5.23599e-06
-5.35708e-15
5.93412e-06
-1.13031e-14
6.63225e-06
4.86883e-15
7.33038e-06
-1.10888e-15
8.02851e-06
-8.15795e-15
8.72664e-06
1.30442e-14
9.42478e-06
5.95026e-15
1.01229e-05
-1.99556e-15
1.0821e-05
2.43872e-14
1.15192e-05
1.6191e-14
1.22173e-05
-3.27862e-14
1.29154e-05
-3.05183e-15
1.36136e-05
-1.44413e-14
1.43117e-05
-2.69021e-14
1.50098e-05
7.73905e-15
1.5708e-05
-4.43552e-15
1.64061e-05
-1.79981e-14
1.71042e-05
2.18185e-14
1.78024e-05
8.21117e-15
1.85005e-05
-6.08304e-15
1.91986e-05
3.89186e-14
1.98967e-05
2.05949e-05
9.39886e-15
4.53785e-06
5.20194e-16
5.23599e-06
7.52876e-15
5.93412e-06
-4.41165e-15
6.63225e-06
3.7834e-15
7.33038e-06
1.33853e-14
8.02851e-06
-2.10972e-15
8.72664e-06
8.52955e-15
9.42478e-06
-1.0027e-14
1.01229e-05
1.86657e-15
1.0821e-05
-2.0202e-14
1.15192e-05
-7.01104e-15
1.22173e-05
7.51038e-15
1.29154e-05
2.36089e-14
1.36136e-05
-2.04123e-15
1.43117e-05
1.48343e-14
1.50098e-05
-1.38774e-14
1.5708e-05
2.39376e-15
1.64061e-05
2.04111e-14
1.71042e-05
-7.01835e-15
1.78024e-05
1.20665e-14
1.85005e-05
-2.5936e-14
1.91986e-05
1.85035e-15
1.98967e-05
2.05949e-05
-8.6762e-15
4.53785e-06
1.22923e-14
5.23599e-06
1.88332e-15
5.93412e-06
8.90283e-15
6.63225e-06
-5.10809e-15
7.33038e-06
-2.19904e-14
8.02851e-06
1.22645e-14
8.72664e-06
-5.37489e-15
9.42478e-06
4.45764e-15
1.01229e-05
-1.4305e-14
1.0821e-05
-7.32647e-15
1.15192e-05
7.04044e-15
1.22173e-05
2.39954e-14
1.29154e-05
-7.55324e-15
1.36136e-05
9.80068e-15
1.43117e-05
-1.6235e-14
1.50098e-05
4.02936e-14
1.5708e-05
1.44459e-14
1.64061e-05
-1.37054e-14
1.71042e-05
-7.89566e-15
1.78024e-05
-3.92523e-14
1.85005e-05
4.27499e-14
1.91986e-05
-8.85049e-15
1.98967e-05
2.05949e-05
5.98584e-15
4.53785e-06
2.18908e-16
5.23599e-06
-6.43573e-15
5.93412e-06
6.06381e-15
6.63225e-06
-2.09284e-15
7.33038e-06
1.61764e-14
8.02851e-06
-1.88304e-14
8.72664e-06
-2.35101e-15
9.42478e-06
9.1727e-15
1.01229e-05
-4.71154e-15
1.0821e-05
2.16285e-14
1.15192e-05
-2.9645e-14
1.22173e-05
-9.28765e-15
1.29154e-05
-1.89075e-14
1.36136e-05
4.46684e-15
1.43117e-05
3.01548e-14
1.50098e-05
-2.62159e-14
1.5708e-05
4.39979e-16
1.64061e-05
-2.11715e-14
1.71042e-05
1.87141e-14
1.78024e-05
-3.92053e-15
1.85005e-05
-2.9159e-14
1.91986e-05
1.52306e-14
1.98967e-05
2.05949e-05
6.71511e-15
4.53785e-06
-7.30678e-15
5.23599e-06
1.11008e-14
5.93412e-06
-4.2414e-15
6.63225e-06
1.51024e-14
7.33038e-06
-5.20907e-15
8.02851e-06
1.70138e-14
8.72664e-06
-3.94106e-15
9.42478e-06
-2.93271e-16
1.01229e-05
6.61095e-15
1.0821e-05
1.37069e-14
1.15192e-05
1.01857e-14
1.22173e-05
1.82195e-14
1.29154e-05
1.43683e-14
1.36136e-05
2.33404e-14
1.43117e-05
-2.53446e-14
1.50098e-05
2.90733e-14
1.5708e-05
-7.8257e-15
1.64061e-05
3.54175e-14
1.71042e-05
-4.51167e-15
1.78024e-05
4.23733e-14
1.85005e-05
-5.8682e-16
1.91986e-05
-8.73318e-15
1.98967e-05
2.05949e-05
-4.6305e-15
4.53785e-06
5.79754e-15
5.23599e-06
-1.61508e-14
5.93412e-06
-5.97461e-15
6.63225e-06
-8.55525e-15
7.33038e-06
4.22416e-15
8.02851e-06
-8.18731e-15
8.72664e-06
7.00006e-15
9.42478e-06
-2.42283e-14
1.01229e-05
-7.76959e-15
1.0821e-05
-2.27634e-14
1.15192e-05
8.34878e-15
1.22173e-05
-7.40379e-15
1.29154e-05
2.82664e-14
1.36136e-05
-4.571e-14
1.43117e-05
-8.22237e-15
1.50098e-05
-2.82261e-14
1.5708e-05
-2.34125e-15
1.64061e-05
-6.9443e-15
1.71042e-05
2.21498e-14
1.78024e-05
-3.41072e-14
1.85005e-05
-3.73689e-15
1.91986e-05
-3.23454e-14
1.98967e-05
2.05949e-05
-8.92519e-15
4.53785e-06
-2.28883e-15
5.23599e-06
-2.2246e-15
5.93412e-06
6.61608e-15
6.63225e-06
-3.38792e-15
7.33038e-06
-3.90692e-15
8.02851e-06
-6.41916e-15
8.72664e-06
-7.159e-15
9.42478e-06
6.81054e-15
1.01229e-05
6.98228e-15
1.0821e-05
-9.06392e-15
1.15192e-05
6.75911e-15
1.22173e-05
-2.88877e-14
1.29154e-05
-1.2235e-14
1.36136e-05
4.80544e-15
1.43117e-05
2.50278e-14
1.50098e-05
3.8609e-15
1.5708e-05
3.60657e-15
1.64061e-05
-2.04819e-14
1.71042e-05
-2.17588e-14
1.78024e-05
3.46502e-15
1.85005e-05
2.90392e-14
1.91986e-05
-1.66011e-15
1.98967e-05
2.05949e-05
6.21566e-15
4.53785e-06
-3.87914e-15
5.23599e-06
1.54221e-14
5.93412e-06
-7.06513e-15
6.63225e-06
-2.21055e-15
7.33038e-06
1.4296e-15
8.02851e-06
-5.49244e-15
8.72664e-06
1.32254e-14
9.42478e-06
6.04529e-15
1.01229e-05
-1.74509e-14
1.0821e-05
2.08871e-14
1.15192e-05
-2.14445e-14
1.22173e-05
1.91353e-14
1.29154e-05
-7.31668e-15
1.36136e-05
3.84869e-14
1.43117e-05
-1.29214e-14
1.50098e-05
-1.88188e-15
1.5708e-05
5.7184e-15
1.64061e-05
-7.58839e-15
1.71042e-05
2.76575e-14
1.78024e-05
1.40981e-14
1.85005e-05
-5.31436e-14
1.91986e-05
3.90917e-14
1.98967e-05
2.05949e-05
-1.4985e-15
4.53785e-06
1.08971e-14
5.23599e-06
-6.59943e-15
5.93412e-06
7.26556e-15
6.63225e-06
6.17526e-15
7.33038e-06
2.48883e-15
8.02851e-06
-9.6433e-16
8.72664e-06
-4.36448e-15
9.42478e-06
-8.89997e-15
1.01229e-05
1.38632e-14
1.0821e-05
1.0692e-14
1.15192e-05
6.25099e-15
1.22173e-05
-1.26985e-16
1.29154e-05
-3.43881e-15
1.36136e-05
-1.10429e-14
1.43117e-05
-1.77668e-14
1.50098e-05
1.7683e-14
1.5708e-05
9.95532e-15
1.64061e-05
3.32741e-15
1.71042e-05
-3.29694e-14
1.78024e-05
-1.04193e-14
1.85005e-05
3.00696e-14
1.91986e-05
-5.99923e-14
1.98967e-05
2.05949e-05
5.1704e-15
4.53785e-06
-7.45556e-15
5.23599e-06
-7.56933e-16
5.93412e-06
6.83915e-15
6.63225e-06
-9.97446e-15
7.33038e-06
-1.66423e-15
8.02851e-06
9.21844e-15
8.72664e-06
-1.34587e-14
9.42478e-06
2.32223e-14
1.01229e-05
1.04717e-14
1.0821e-05
-1.72717e-14
1.15192e-05
-3.02773e-15
1.22173e-05
1.13975e-14
1.29154e-05
-1.9819e-14
1.36136e-05
-4.67833e-15
1.43117e-05
5.03061e-14
1.50098e-05
-2.40474e-14
1.5708e-05
-6.65694e-15
1.64061e-05
1.42618e-14
1.71042e-05
1.65039e-15
1.78024e-05
-6.80792e-15
1.85005e-05
1.44451e-14
1.91986e-05
5.07608e-14
1.98967e-05
2.05949e-05
-6.19746e-15
4.53785e-06
2.87199e-17
5.23599e-06
1.15115e-14
5.93412e-06
-2.06258e-14
6.63225e-06
5.36686e-15
7.33038e-06
1.22133e-15
8.02851e-06
-4.76422e-17
8.72664e-06
1.2393e-14
9.42478e-06
-1.32259e-14
1.01229e-05
-1.88949e-14
1.0821e-05
-4.96423e-15
1.15192e-05
-7.15419e-15
1.22173e-05
-1.48855e-14
1.29154e-05
3.5341e-14
1.36136e-05
1.8572e-18
1.43117e-05
-4.31407e-14
1.50098e-05
1.35602e-14
1.5708e-05
-2.8255e-14
1.64061e-05
2.45299e-15
1.71042e-05
-1.02423e-14
1.78024e-05
2.38066e-14
1.85005e-05
1.38756e-14
1.91986e-05
-4.55631e-14
1.98967e-05
2.05949e-05
-1.90663e-15
4.53785e-06
1.13063e-15
5.23599e-06
-2.16622e-14
5.93412e-06
9.62399e-15
6.63225e-06
1.51375e-14
7.33038e-06
-1.40653e-14
8.02851e-06
8.09214e-15
8.72664e-06
-2.69604e-14
9.42478e-06
-1.96511e-15
1.01229e-05
2.97171e-14
1.0821e-05
-1.17443e-14
1.15192e-05
1.98672e-14
1.22173e-05
-2.74449e-14
1.29154e-05
-2.0614e-14
1.36136e-05
1.6042e-14
1.43117e-05
-4.61529e-15
1.50098e-05
4.69124e-15
1.5708e-05
4.79669e-14
1.64061e-05
-1.37424e-14
1.71042e-05
3.23686e-14
1.78024e-05
-3.51866e-14
1.85005e-05
-2.49093e-14
1.91986e-05
7.19117e-14
1.98967e-05
2.05949e-05
1.90644e-15
4.53785e-06
-1.13058e-15
5.23599e-06
2.16618e-14
5.93412e-06
-9.62428e-15
6.63225e-06
-1.51372e-14
7.33038e-06
1.4066e-14
8.02851e-06
-8.09397e-15
8.72664e-06
2.69594e-14
9.42478e-06
1.9652e-15
1.01229e-05
-2.97174e-14
1.0821e-05
1.1747e-14
1.15192e-05
-1.98654e-14
1.22173e-05
2.74467e-14
1.29154e-05
2.06142e-14
1.36136e-05
-1.60418e-14
1.43117e-05
4.61056e-15
1.50098e-05
-4.69056e-15
1.5708e-05
-4.79687e-14
1.64061e-05
1.37383e-14
1.71042e-05
-3.23759e-14
1.78024e-05
3.51811e-14
1.85005e-05
2.4902e-14
1.91986e-05
-7.19191e-14
1.98967e-05
2.05949e-05
6.19688e-15
4.53785e-06
-2.8867e-17
5.23599e-06
-1.15117e-14
5.93412e-06
2.06255e-14
6.63225e-06
-5.3672e-15
7.33038e-06
-1.22113e-15
8.02851e-06
4.65765e-17
8.72664e-06
-1.2395e-14
9.42478e-06
1.32251e-14
1.01229e-05
1.88946e-14
1.0821e-05
4.96568e-15
1.15192e-05
7.15352e-15
1.22173e-05
1.48895e-14
1.29154e-05
-3.53423e-14
1.36136e-05
-2.47233e-19
1.43117e-05
4.31346e-14
1.50098e-05
-1.35646e-14
1.5708e-05
2.8255e-14
1.64061e-05
-2.45566e-15
1.71042e-05
1.02394e-14
1.78024e-05
-2.38085e-14
1.85005e-05
-1.38755e-14
1.91986e-05
4.55628e-14
1.98967e-05
2.05949e-05
-5.17013e-15
4.53785e-06
7.45536e-15
5.23599e-06
7.56202e-16
5.93412e-06
-6.83936e-15
6.63225e-06
9.97353e-15
7.33038e-06
1.66502e-15
8.02851e-06
-9.21891e-15
8.72664e-06
1.34594e-14
9.42478e-06
-2.32217e-14
1.01229e-05
-1.04711e-14
1.0821e-05
1.72719e-14
1.15192e-05
3.02481e-15
1.22173e-05
-1.1396e-14
1.29154e-05
1.98157e-14
1.36136e-05
4.67874e-15
1.43117e-05
-5.03102e-14
1.50098e-05
2.40462e-14
1.5708e-05
6.66007e-15
1.64061e-05
-1.42637e-14