/*--------------------------------*- C++ -*----------------------------------*\
  =========                 |
  \\      /  F ield         | OpenFOAM: The Open Source CFD Toolbox
   \\    /   O peration     | Website:  https://openfoam.org
    \\  /    A nd           | Version:  11
     \\/     M anipulation  |
\*---------------------------------------------------------------------------*/
FoamFile
{
    format      ascii;
    class       volScalarField;
    location    "1.6";
    object      nut;
}
// * * * * * * * * * * * * * * * * * * * * * * * * * * * * * * * * * * * * * //

dimensions      [0 2 -1 0 0 0 0];

internalField   nonuniform List<scalar> 
2880
(
7.4643e-07
3.30437e-06
1.41075e-05
4.32826e-05
0.000102104
0.000197943
2.80138e-05
5.04662e-05
9.82207e-05
0.00017177
0.000272005
0.000387012
0.000163538
0.000118209
0.000201477
0.000311565
0.000448497
0.000634395
0.000181369
0.000178614
0.000290901
0.000428611
0.000591484
0.000787506
0.000193255
0.000229207
0.000364482
0.000519335
0.000690129
0.000870688
4.7375e-05
0.000270077
0.000423056
0.000585558
0.000751362
0.000908006
4.88364e-05
0.000301433
0.000467923
0.000630672
0.000784208
0.00091599
5.00116e-05
0.000324655
0.00050054
0.000658291
0.000795898
0.000904871
5.08738e-05
0.000340656
0.000522399
0.000671764
0.000791945
0.000880925
5.14285e-05
0.000350245
0.000534951
0.000674236
0.000776879
0.0008482
5.16754e-05
0.000353814
0.000539757
0.000667814
0.000753812
0.000809485
5.16386e-05
0.000352083
0.000537551
0.000654681
0.000725442
0.000768031
5.12977e-05
0.000345579
0.000529553
0.000636438
0.000693548
0.000726155
5.07039e-05
0.000334017
0.000516594
0.000614312
0.000659799
0.00068591
4.99301e-05
0.00031748
0.000499231
0.000589069
0.000625171
0.000648665
4.89685e-05
0.000297742
0.000477784
0.00056083
0.000589792
0.000614457
4.79228e-05
0.000277387
0.000452634
0.000529271
0.000553206
0.000582318
0.00019963
0.000262354
0.000423672
0.000493593
0.000514714
0.000550448
0.00019494
0.000250063
0.000389232
0.000452753
0.000473591
0.000515946
0.000187546
0.000228507
0.000345968
0.000403957
0.00042706
0.000475724
0.000175747
0.000192397
0.000287889
0.000341395
0.00037013
0.000424151
0.000159807
0.000137499
0.000208871
0.000255187
0.000293379
0.000353264
2.79503e-05
6.1574e-05
0.000104419
0.000139555
0.000180516
0.000260348
7.97214e-07
3.3342e-06
9.38655e-06
1.88673e-05
3.60387e-05
0.000132942
0.000863319
0.00125262
0.00138933
0.00143788
0.00145233
0.00144832
0.00142764
0.00138911
0.00136617
0.00131797
0.00126013
0.00121005
0.00118048
0.00118433
0.00122917
0.00131441
0.00143689
0.00160022
0.00181954
0.00211974
0.00247315
0.00288429
0.00330701
0.00360839
0.000950386
0.00123943
0.00134946
0.00139133
0.00140425
0.00139421
0.00136477
0.00134771
0.00130309
0.00125015
0.00120652
0.00118576
0.00119974
0.00125256
0.00133995
0.00145734
0.00160896
0.001811
0.00208866
0.00245806
0.00287932
0.00335704
0.00380556
0.00410478
0.00102306
0.00122884
0.00131376
0.00134795
0.00135231
0.00133291
0.00132246
0.00128339
0.00123691
0.00120167
0.00119111
0.00121481
0.00127305
0.00135932
0.00146959
0.00160893
0.00179278
0.0020453
0.00239318
0.00282758
0.0033157
0.00384129
0.00429631
0.00459263
0.00106055
0.0012114
0.00127762
0.00130218
0.00129505
0.00129135
0.00125951
0.00122121
0.00119548
0.00119502
0.00122658
0.00128739
0.00137064
0.00147391
0.00160249
0.00176955
0.00199621
0.002309
0.00273015
0.00322586
0.00377115
0.00431939
0.00476838
0.00505638
0.00107062
0.00118496
0.0012373
0.00124697
0.00125282
0.001231
0.00120181
0.00118595
0.00119482
0.00123243
0.00129432
0.00137454
0.00147204
0.00159166
0.00174388
0.00194593
0.00222207
0.00259806
0.00308711
0.00363232
0.00421702
0.00477075
0.00520521
0.00547981
0.00106069
0.00114983
0.00118643
0.00120733
0.00119374
0.00117594
0.00117079
0.00118811
0.00123083
0.00129398
0.00137239
0.00146551
0.00157747
0.00171666
0.00189672
0.00213802
0.00246595
0.00290184
0.0034464
0.00402559
0.00462947
0.005172
0.00559276
0.00584164
0.00103653
0.0011085
0.00114158
0.00114594
0.00114198
0.00114696
0.00117226
0.00122065
0.00128668
0.00136512
0.00145516
0.00156037
0.001688
0.00184927
0.00206037
0.00234295
0.00272049
0.00320691
0.00378837
0.00438577
0.0049888
0.00550781
0.00590979
0.00612844
0.00100196
0.00106109
0.00109358
0.0010946
0.00110996
0.00114425
0.00120028
0.00127179
0.00135258
0.00144116
0.00154072
0.00165819
0.00180356
0.00198993
0.00223419
0.00255662
0.00297599
0.00349761
0.00409607
0.00469408
0.00527602
0.00576202
0.00613751
0.00632924
0.000959738
0.00101132
0.00103803
0.00105622
0.00110168
0.00116741
0.00124729
0.00133345
0.00142304
0.00151883
0.00162776
0.00175951
0.00192563
0.00213943
0.00241634
0.00277286
0.00322123
0.00375852
0.00435494
0.00493264
0.00547746
0.00592404
0.00626409
0.0064347
0.000912132
0.000968724
0.000990046
0.00104162
0.00111715
0.00120896
0.001305
0.00139958
0.00149459
0.00159714
0.00171723
0.00186617
0.00205563
0.00229742
0.00260351
0.00298477
0.00344618
0.00397835
0.0045507
0.00509247
0.00558572
0.00598768
0.00628346
0.006433
0.000860351
0.000929123
0.000958486
0.00104532
0.00115189
0.00126318
0.00136822
0.00146686
0.00156616
0.00167684
0.00181086
0.00197986
0.00219422
0.00246262
0.00279195
0.00318636
0.00364384
0.00415054
0.00467675
0.00516957
0.00559638
0.00594151
0.00619137
0.00631828
0.000806445
0.000890721
0.000943989
0.00106683
0.00119985
0.00132338
0.00143266
0.00153376
0.00163824
0.0017595
0.00191045
0.00210184
0.00234137
0.00263331
0.00297848
0.00337394
0.00381133
0.0042741
0.00473569
0.0051625
0.005511
0.00578448
0.00598229
0.00608236
0.000755185
0.000859468
0.000946935
0.00110594
0.00125738
0.00138687
0.00149731
0.00160061
0.00171205
0.00184679
0.0020175
0.00223279
0.00249655
0.00280784
0.00316122
0.00354706
0.00395158
0.00435655
0.00473941
0.00507541
0.00534288
0.00552362
0.00564701
0.00570931
0.000710205
0.000837598
0.000969631
0.00115833
0.00132003
0.00145103
0.00156143
0.00166802
0.00178899
0.00194024
0.00213305
0.00237279
0.00265881
0.00298487
0.00333985
0.00370847
0.00407244
0.00441196
0.00470737
0.00494075
0.00509769
0.00517078
0.00516925
0.00514539
0.000672845
0.000823817
0.00100001
0.0012175
0.00138427
0.00151473
0.00162531
0.00173709
0.00187041
0.00204097
0.0022575
0.0025213
0.00282696
0.00316352
0.00351531
0.00386295
0.00418486
0.00445943
0.00466729
0.00479229
0.00481949
0.00473177
0.00451927
0.00421239
0.000640433
0.000817718
0.00104067
0.00128059
0.00144919
0.00157831
0.00168999
0.00180914
0.00195754
0.00214961
0.00239057
0.00267712
0.00299946
0.00334284
0.0036886
0.00401505
0.00429888
0.00451712
0.00464878
0.00467459
0.00457082
0.00429139
0.00373315
0.00280875
0.000611197
0.000825611
0.0010907
0.00134476
0.0015144
0.00164234
0.00175639
0.0018851
0.00205095
0.00226602
0.00253113
0.00283834
0.00317411
0.00352116
0.00385932
0.00416633
0.00441899
0.00459489
0.00467373
0.00463788
0.00447152
0.00415744
0.00367006
0.00303281
0.000585263
0.000842026
0.00115007
0.00141076
0.00158111
0.00170787
0.00182545
0.00196564
0.0021507
0.0023894
0.0026774
0.00300236
0.00334792
0.00369544
0.00402452
0.00431349
0.00454067
0.00468594
0.00473219
0.00466597
0.00447748
0.00416012
0.00371127
0.00317843
0.00056382
0.0008663
0.00121923
0.0014814
0.00165049
0.00177571
0.00189778
0.00205092
0.00225619
0.00251828
0.00282704
0.0031661
0.00351731
0.00386172
0.00417951
0.00445031
0.00465444
0.00477457
0.00479725
0.0047135
0.00451857
0.00421177
0.00379897
0.00332813
0.000546221
0.00089885
0.00129625
0.00155682
0.00172312
0.00184642
0.00197369
0.00214048
0.002366
0.00265078
0.00297752
0.0033265
0.00367883
0.00401614
0.00431977
0.00457094
0.00475209
0.00484869
0.00485066
0.00475301
0.0045554
0.00426204
0.00388358
0.00345435
0.000533291
0.000942205
0.00138148
0.00163966
0.00179986
0.00192045
0.00205287
0.00223312
0.00247832
0.00278499
0.00312648
0.00348089
0.00382972
0.00415585
0.00444211
0.00467143
0.00482824
0.00490053
0.00488126
0.00476884
0.00456652
0.00428207
0.00392884
0.00353126
0.000526325
0.00100547
0.00146941
0.00172832
0.00188103
0.00199736
0.00213401
0.00232833
0.00259328
0.00291943
0.00327201
0.00362719
0.003968
0.00427911
0.00454495
0.00475001
0.00488063
0.00492709
0.00488521
0.00475672
0.00454827
0.00427055
0.00393829
0.00356919
0.000525261
0.00109877
0.00156955
0.00182734
0.00196681
0.00207588
0.00221708
0.00242642
0.00271075
0.00305336
0.00341266
0.00376391
0.00409254
0.00438519
0.00462781
0.00480628
0.00490858
0.00492719
0.00486083
0.00471461
0.00449861
0.00422617
0.00391345
0.00357583
0.000535714
0.00120361
0.0017061
0.00193807
0.0020552
0.00215539
0.00230227
0.00252752
0.00283019
0.00318611
0.00354719
0.00389002
0.00420283
0.00447412
0.00469106
0.00484067
0.00491235
0.00490081
0.00480791
0.00464257
0.00441861
0.00415222
0.00386125
0.00356125
1.17077e-06
1.36858e-05
4.83778e-05
0.000116235
4.50823e-05
6.12017e-05
3.61574e-05
0.000116548
0.000228188
0.000372041
0.000421753
0.00054986
5.19749e-05
0.000241215
0.000437644
0.000656182
0.000848843
0.0010548
5.82382e-05
0.000348297
0.000627616
0.000907684
0.00117562
0.00145099
6.31521e-05
0.000433769
0.000788282
0.00111615
0.0014264
0.0017255
6.70061e-05
0.00050135
0.000918733
0.00128333
0.0016154
0.00191529
6.99907e-05
0.000554518
0.0010219
0.00141371
0.00175668
0.00204556
7.22464e-05
0.000596175
0.00110109
0.00151194
0.00185855
0.00213317
7.38805e-05
0.000628453
0.00115931
0.00158204
0.00192875
0.0021883
7.49744e-05
0.000652589
0.00119885
0.00162727
0.00197235
0.00221837
7.55894e-05
0.00066908
0.00122117
0.00165041
0.00199273
0.00222823
7.57667e-05
0.000677842
0.00122716
0.00165338
0.0019921
0.00222093
7.55523e-05
0.000678398
0.00121721
0.00163655
0.00197157
0.00219736
7.49734e-05
0.000669917
0.00119118
0.00160071
0.0019328
0.00215792
7.39859e-05
0.000652328
0.00114901
0.00154583
0.001876
0.00210343
7.25428e-05
0.000625306
0.00109032
0.00147086
0.00179926
0.00203126
7.05924e-05
0.00058814
0.00101424
0.00137488
0.00169992
0.00193869
6.80659e-05
0.000539785
0.000919985
0.00125707
0.00157407
0.0018209
6.48672e-05
0.000478744
0.000806759
0.00111549
0.00141844
0.00167118
6.08639e-05
0.000403993
0.000674054
0.000947895
0.0012296
0.00147796
5.58712e-05
0.000314165
0.0005222
0.000753963
0.00100557
0.00122152
4.96305e-05
0.000209473
0.000353558
0.000535817
0.000748005
0.000880188
3.23154e-05
9.50203e-05
0.00017703
0.000303306
0.000467312
0.000462713
9.15786e-07
9.67319e-06
3.65728e-05
9.8973e-05
0.00019525
5.54219e-05
0.000607514
0.00143552
0.00187902
0.00205492
0.00214299
0.0022348
0.00238942
0.00263139
0.00295082
0.00331647
0.00367437
0.00400486
0.0042989
0.00454649
0.00473567
0.00485425
0.00489303
0.00484916
0.00472823
0.00454367
0.00431346
0.00405659
0.0037921
0.00353521
0.00121646
0.00180274
0.00205647
0.0021638
0.00222502
0.00231251
0.00247798
0.00273732
0.00307145
0.003443
0.00379317
0.00410818
0.00438124
0.00460337
0.00476305
0.00484866
0.00485249
0.00477473
0.00462559
0.00442377
0.00419151
0.00394971
0.00371677
0.00350533
0.00162914
0.00203403
0.00218856
0.00225204
0.00229788
0.00238759
0.00256733
0.00284426
0.00319069
0.00356405
0.00390278
0.00420013
0.00445078
0.00464621
0.00477499
0.00482601
0.00479342
0.00468136
0.0045057
0.00429095
0.00406282
0.00384214
0.00364411
0.0034765
0.00190267
0.00218702
0.0022839
0.00232325
0.00236297
0.00246042
0.00265694
0.00295108
0.00330749
0.00367726
0.00400273
0.00428127
0.00450873
0.00467668
0.00477355
0.00478884
0.00471928
0.00457407
0.00437576
0.00415436
0.00393723
0.00374249
0.00357982
0.00345124
0.0020896
0.00229538
0.00235357
0.00238173
0.00242191
0.00253121
0.00274597
0.0030563
0.00342026
0.00378264
0.00409346
0.00435261
0.00455659
0.00469667
0.00476101
0.00474011
0.0046342
0.00445879
0.00424354
0.0040227
0.00382259
0.00365615
0.00352647
0.00343046
0.00221798
0.00237064
0.00240419
0.00243051
0.00247575
0.00259977
0.00283333
0.00315843
0.00352767
0.00388025
0.00417559
0.0044153
0.00459592
0.00470813
0.00473983
0.0046831
0.0045428
0.00434177
0.0041164
0.0039029
0.00372378
0.00358527
0.00348431
0.0034141
0.00230502
0.0024212
0.00244084
0.00247143
0.0025249
0.00266548
0.00291774
0.0032561
0.00362877
0.00397011
0.00424985
0.00447053
0.0046283
0.00471301
0.00471253
0.00462126
0.00444986
0.00422894
0.00400032
0.0037994
0.00364267
0.00352956
0.00345226
0.00340173
0.0023613
0.00245332
0.00246753
0.00250479
0.00256909
0.00272738
0.00299786
0.00334808
0.00372284
0.0040524
0.00431704
0.00451954
0.0046553
0.00471326
0.00468167
0.00455812
0.00435993
0.0041253
0.00389939
0.00371412
0.00357889
0.00348734
0.00342866
0.00339269
0.00239456
0.00247147
0.00248677
0.00253071
0.00260774
0.00278435
0.00307242
0.00343335
0.00380938
0.00412746
0.00437801
0.00456354
0.00467842
0.00471082
0.00464982
0.00449705
0.00427701
0.00403453
0.0038157
0.00364699
0.00353084
0.00345644
0.00341175
0.00338628
0.00240996
0.0024786
0.00249953
0.00255017
0.00264047
0.00283536
0.00314028
0.00351107
0.00388805
0.00419567
0.00443364
0.00460371
0.00469916
0.0047076
0.00461949
0.00444119
0.00420434
0.00395891
0.00374967
0.00359675
0.00349662
0.00343465
0.00339996
0.00338194
0.00241088
0.00247658
0.00250624
0.00256325
0.00266665
0.0028794
0.00320052
0.0035807
0.00395839
0.00425743
0.00448478
0.0046412
0.00471897
0.00470545
0.00459306
0.00439326
0.0041443
0.00389943
0.00370044
0.00356111
0.00347319
0.00342064
0.00339311
0.00337936
0.00239945
0.00246639
0.00250687
0.00256951
0.00268544
0.00291545
0.00325239
0.0036422
0.00401929
0.00431311
0.00453223
0.00467707
0.00473918
0.00470608
0.00457263
0.00435546
0.00409837
0.00385618
0.00366674
0.00353835
0.00345878
0.00341288
0.00338932
0.00337799
0.00237675
0.00244841
0.00250097
0.0025682
0.00269579
0.00294246
0.00329498
0.00369479
0.00407271
0.00436368
0.00457685
0.00471224
0.00476092
0.00471095
0.00455993
0.00432932
0.00406725
0.00382856
0.00364679
0.00352592
0.00345208
0.00341003
0.00338824
0.00337754
0.00234211
0.00242253
0.00248776
0.00255829
0.0026966
0.00295943
0.00332762
0.00373826
0.00411929
0.00440978
0.00461928
0.00474745
0.0047851
0.00472122
0.00455622
0.00431579
0.00405099
0.00381607
0.00363957
0.00352346
0.00345299
0.0034116
0.00338936
0.00337787
0.00229765
0.00238858
0.00246604
0.00253851
0.00268662
0.00296542
0.00334976
0.00377249
0.00415928
0.00445178
0.00465993
0.00478319
0.00481241
0.0047377
0.00456242
0.00431522
0.00404931
0.0038156
0.00364305
0.00352884
0.00345847
0.00341671
0.00339257
0.00337886
0.00224101
0.00234609
0.00243399
0.00250723
0.00266455
0.00295957
0.00336098
0.00379741
0.00419284
0.00448989
0.00469903
0.00481975
0.00484329
0.00476056
0.0045772
0.00432645
0.00406017
0.00382891
0.00365677
0.00354169
0.00346919
0.00342456
0.00339719
0.00338033
0.00217118
0.00229507
0.00238918
0.00246262
0.00262876
0.00294106
0.00336097
0.00381301
0.00422004
0.00452417
0.00473659
0.00485709
0.00487654
0.00478856
0.00460264
0.00435104
0.00408509
0.00385366
0.00367982
0.00356145
0.00348471
0.00343546
0.00340348
0.00338236
0.00208615
0.00223454
0.00232891
0.0024055
0.00257941
0.00290894
0.00334914
0.00381924
0.00424096
0.0045546
0.00477245
0.0048945
0.00491369
0.00482534
0.00463911
0.00438728
0.00412198
0.00388931
0.00371173
0.00358791
0.00350501
0.0034495
0.00341156
0.00338504
0.00198281
0.00216225
0.0022546
0.00233429
0.00251799
0.00286539
0.0033266
0.00381613
0.00425521
0.00458092
0.00480664
0.00493347
0.00495543
0.00486864
0.00468349
0.00443426
0.00417009
0.00393528
0.00375226
0.00362107
0.00353022
0.0034669
0.00342166
0.00338854
0.00185684
0.00207592
0.00216567
0.00224866
0.00244342
0.00281096
0.00329458
0.00380484
0.00426298
0.00460277
0.00483891
0.00497279
0.00499936
0.00491639
0.00473583
0.00449096
0.00422856
0.00399108
0.0038013
0.0036611
0.00356063
0.00348798
0.00343407
0.00339307
0.0017023
0.00197232
0.00206095
0.00214884
0.00235726
0.00274765
0.00325494
0.00378681
0.00426503
0.00462068
0.00486879
0.00501159
0.00504506
0.00496852
0.00479495
0.00455621
0.00429644
0.00405622
0.00385884
0.00370827
0.00359666
0.00351313
0.00344911
0.00339882
0.00150491
0.00184517
0.00193848
0.00203651
0.00226313
0.00267898
0.0032103
0.00376377
0.00426205
0.0046344
0.0048959
0.00504936
0.00509186
0.00502411
0.00485962
0.00462872
0.00437268
0.00413012
0.00392478
0.00376288
0.00363874
0.00354281
0.00346716
0.00340602
0.00122276
0.00168093
0.00179518
0.00191767
0.0021688
0.00261049
0.00316409
0.00373774
0.00425481
0.00464404
0.0049199
0.00508546
0.00513882
0.00508191
0.00492845
0.00470706
0.00445608
0.00421202
0.00399891
0.0038251
0.00368729
0.00357749
0.00348849
0.00341475
0.000751141
0.00147506
0.00165014
0.0018109
0.00208804
0.00254922
0.00311997
0.00371067
0.00424408
0.00464971
0.00494045
0.00511923
0.005185
0.00514068
0.00500001
0.00478979
0.00454538
0.00430106
0.00408086
0.00389508
0.00374279
0.00361772
0.00351337
0.00342509
1.1701e-06
3.65695e-06
1.0545e-05
2.15059e-05
4.46609e-05
4.6874e-05
3.28439e-05
5.82297e-05
0.000101185
0.000114252
0.00011773
0.000141046
0.000181295
0.000117456
0.000171678
0.00017326
0.000177043
0.000266889
4.76726e-05
0.000145123
0.000215193
0.000216171
0.000243016
0.000350764
5.18234e-05
0.000175025
0.000247453
0.000251637
0.000304457
0.00041617
5.45588e-05
0.000205445
0.000275047
0.000289765
0.000359606
0.000461993
5.66555e-05
0.000234628
0.000300772
0.000329804
0.000397355
0.000503177
5.83389e-05
0.000261112
0.000325099
0.000366279
0.000427807
0.000540358
5.97006e-05
0.000284528
0.000349565
0.000399293
0.000450792
0.00057244
6.07909e-05
0.000304907
0.00037403
0.000426509
0.000472455
0.000597786
6.15666e-05
0.000322489
0.000397619
0.000449785
0.000492837
0.000616991
6.19953e-05
0.00033732
0.00041976
0.000470007
0.000512562
0.000631066
6.2062e-05
0.000349254
0.000439725
0.00048852
0.000531895
0.00064133
6.18341e-05
0.000357809
0.000456847
0.00050622
0.000551426
0.000649564
6.12837e-05
0.000362587
0.000470671
0.000523939
0.000570129
0.000657733
6.04232e-05
0.000362955
0.000480408
0.000541911
0.00058708
0.000664747
5.92396e-05
0.000357819
0.000484568
0.000557861
0.000607163
0.00067521
5.76907e-05
0.000345491
0.000480727
0.000567895
0.000627834
0.000686388
5.56932e-05
0.000323643
0.000465131
0.000567508
0.000642709
0.000689825
5.31479e-05
0.000289193
0.000432542
0.000549485
0.00064022
0.00068157
5.03384e-05
0.000238529
0.000377041
0.000501768
0.000603763
0.000648897
0.000200844
0.000168268
0.000289978
0.000410342
0.000520737
0.000556824
3.41915e-05
8.11866e-05
0.000165965
0.00026329
0.000369601
0.000355837
1.1837e-06
9.06371e-06
3.34867e-05
7.74561e-05
0.000148124
0.000204306
0.000723524
0.00141057
0.00157776
0.0017403
0.00202318
0.00249559
0.00308057
0.00368393
0.0042305
0.00465155
0.00495726
0.00515005
0.00522948
0.00519929
0.00507299
0.00487555
0.00463937
0.00439636
0.00417021
0.00397279
0.00380546
0.00366375
0.00354208
0.00343704
0.00075267
0.00133513
0.00152168
0.00168077
0.00196661
0.00244694
0.00304332
0.00365791
0.00421446
0.00464963
0.0049701
0.00517736
0.00527144
0.00525664
0.00514616
0.00496306
0.00473685
0.00449698
0.00426639
0.00405809
0.00387546
0.00371585
0.00357489
0.00345063
0.000792827
0.00128938
0.00144869
0.00160757
0.00190623
0.00239848
0.00300644
0.00363306
0.00419607
0.00464392
0.00497864
0.00520059
0.00531001
0.00531166
0.00521824
0.00505094
0.00483646
0.0046017
0.00436848
0.00415043
0.00395256
0.00377406
0.00361213
0.00346596
0.000832899
0.00125884
0.00140081
0.00153939
0.00184301
0.00234449
0.00296781
0.00360615
0.00417479
0.00463418
0.00498249
0.00521901
0.0053442
0.00536309
0.00528776
0.00513757
0.00493651
0.00470888
0.00447507
0.00424875
0.00403619
0.00383825
0.00365392
0.00348307
0.000866871
0.00123134
0.00136662
0.00150404
0.00180169
0.00230346
0.00292889
0.00357681
0.00415056
0.00462013
0.00498104
0.00523173
0.00537281
0.00540942
0.00535298
0.00522103
0.00503493
0.00481643
0.00458418
0.00435146
0.00412526
0.00390784
0.0036998
0.00350146
0.000892124
0.00120436
0.0013351
0.00148106
0.00178387
0.00227872
0.00289915
0.00354723
0.00412367
0.00460142
0.00497351
0.00523761
0.00539434
0.00544887
0.00541185
0.00529903
0.00512927
0.00492178
0.00469331
0.00445628
0.00421791
0.00398139
0.00374858
0.00352017
0.00090571
0.00117671
0.00130474
0.00146043
0.00177302
0.00226433
0.00287671
0.00351726
0.00409486
0.00457749
0.00495887
0.00523522
0.00540705
0.00547936
0.005462
0.00536896
0.0052167
0.00502192
0.00479935
0.00456022
0.00431142
0.00405653
0.00379828
0.00353768
0.000909774
0.00114791
0.00127451
0.00143981
0.00176045
0.00225236
0.002856
0.00348369
0.0040602
0.00454646
0.0049355
0.0052228
0.00540886
0.00549853
0.00550079
0.00542791
0.00529406
0.00511346
0.00489874
0.00465962
0.00440223
0.00412998
0.00384596
0.00355168
0.000906325
0.00111789
0.0012436
0.00141755
0.00174424
0.00223632
0.00283028
0.00344518
0.00401747
0.00450654
0.00490156
0.0051983
0.00539747
0.0055038
0.0055254
0.00547285
0.00535808
0.0051929
0.00498772
0.00475055
0.00448633
0.00419776
0.00388778
0.00355878
0.000897035
0.00108666
0.00121141
0.00139243
0.00172295
0.00221276
0.00279361
0.00340449
0.00396824
0.0044565
0.00485511
0.00515944
0.00537037
0.00549249
0.005533
0.00550086
0.00540576
0.0052571
0.00506301
0.00482952
0.00456002
0.00425598
0.00391947
0.00355453
0.000883258
0.00105424
0.00117759
0.0013636
0.00169542
0.00217875
0.00275019
0.00335108
0.00390798
0.00439365
0.00479364
0.00510363
0.0053249
0.0054619
0.00552101
0.00550952
0.00543494
0.00530418
0.00512293
0.00489497
0.0046217
0.00430265
0.00393795
0.00353383
0.000866129
0.00102065
0.00114186
0.00133067
0.00166294
0.00213027
0.00269705
0.00328488
0.00383422
0.00431524
0.00471436
0.00502808
0.0052583
0.0054095
0.00548724
0.00549727
0.00544492
0.00533461
0.00516935
0.00495021
0.00467579
0.00434242
0.00394584
0.00349278
0.00084668
0.000986434
0.00110425
0.00129275
0.0016147
0.00207785
0.00263191
0.00320555
0.00374459
0.00421838
0.00461422
0.00492975
0.00516772
0.00533278
0.00542986
0.00546337
0.00543674
0.00535211
0.00520994
0.00500826
0.0047416
0.00439964
0.00396591
0.00343391
0.000826333
0.000951611
0.00106398
0.00124575
0.00156065
0.00201176
0.00255071
0.00310983
0.00363605
0.00409988
0.00448999
0.00480549
0.00505013
0.00522901
0.00534676
0.00540693
0.00541174
0.00536209
0.00525739
0.00509463
0.00486544
0.00454804
0.00408576
0.00338381
0.000806515
0.000916694
0.00102151
0.00119549
0.00149682
0.00193184
0.00245317
0.00299497
0.00350545
0.00395651
0.00433848
0.00465207
0.00490228
0.00509487
0.00523463
0.00532487
0.00536754
0.00536389
0.00531537
0.00522463
0.00509612
0.00493635
0.00476023
0.00462306
0.000789714
0.000883372
0.000977419
0.00113851
0.00142308
0.00183758
0.00233738
0.00285832
0.00334988
0.00378539
0.00415688
0.00446664
0.004721
0.0049266
0.00508877
0.00521098
0.00529515
0.00534237
0.00535401
0.005333
0.00528489
0.00522133
0.00516368
0.00514369
0.000773389
0.000849637
0.000932166
0.00107793
0.00134033
0.00172872
0.00220189
0.00269778
0.00316713
0.0035845
0.00394331
0.00424724
0.00450383
0.00472079
0.00490424
0.00505817
0.00518446
0.00528329
0.00535386
0.00539641
0.00541449
0.00541771
0.00541558
0.00543101
0.000763927
0.000820415
0.00088744
0.0010143
0.00124967
0.00160569
0.00204616
0.00251232
0.00295621
0.00335318
0.00369738
0.00399339
0.00424974
0.00447518
0.00467688
0.0048596
0.00502533
0.00517311
0.00529651
0.0053949
0.00548028
0.00553218
0.00556972
0.00560459
0.000761088
0.000795938
0.000844885
0.000949456
0.00115295
0.00147002
0.00187119
0.0023026
0.00271792
0.00309256
0.00342055
0.00370659
0.00395972
0.00418961
0.00440462
0.00461071
0.0048106
0.00499918
0.00516508
0.00532625
0.00546239
0.00555879
0.00562898
0.00567871
0.000755882
0.000774617
0.00080541
0.000885127
0.00105238
0.00132443
0.00167988
0.00207152
0.00245525
0.00280593
0.00311641
0.00339055
0.00363723
0.0038667
0.00408854
0.00431035
0.00453636
0.00475293
0.00496098
0.00517273
0.0053569
0.00549448
0.00559437
0.0056575
0.000730123
0.000748417
0.00076763
0.000824457
0.000954111
0.0011763
0.00147932
0.0018254
0.00217398
0.00249893
0.00279074
0.0030513
0.00328843
0.0035123
0.00373349
0.00396167
0.00420166
0.00443851
0.004679
0.00492814
0.00515911
0.00533667
0.00546611
0.00554299
0.000646733
0.000701954
0.000722312
0.000760556
0.000853289
0.00102478
0.00127309
0.00157056
0.00188144
0.00217913
0.00245132
0.00269702
0.00292206
0.00313567
0.0033487
0.00357251
0.00381435
0.00406079
0.0043207
0.00459063
0.00486338
0.00508309
0.00524296
0.00533487
0.000472149
0.000613422
0.000671578
0.000712078
0.00077728
0.000898001
0.00108523
0.00132583
0.00159228
0.00185846
0.0021087
0.00233803
0.00254909
0.00274904
0.00294776
0.00315688
0.00338871
0.00363161
0.00389503
0.00417343
0.00446621
0.00473049
0.00492248
0.00503213
0.000243028
0.000377139
0.000518867
0.000601122
0.000674646
0.000772019
0.000913739
0.00110154
0.00132069
0.00155069
0.00177526
0.00198597
0.0021816
0.00236613
0.00254713
0.00273506
0.0029432
0.00317254
0.00342107
0.00369605
0.00397872
0.00427277
0.00450973
0.00463976
8.38554e-07
3.84393e-06
1.2603e-05
2.87714e-05
5.19304e-05
8.59681e-05
2.94446e-05
6.62652e-05
0.00012335
0.000183472
0.00024501
0.000289132
0.000167853
0.000149324
0.000254742
0.000355561
0.000444979
0.000488968
0.000183928
0.000213421
0.000364279
0.00049861
0.00060843
0.000665168
0.000194887
0.000257519
0.000451852
0.000613396
0.000740223
0.000813749
4.76902e-05
0.000284116
0.000521954
0.000706291
0.000847715
0.000937823
4.98317e-05
0.000312599
0.000578279
0.000781151
0.000935339
0.00104053
5.15522e-05
0.000340245
0.00062435
0.000841403
0.00100694
0.00112583
5.29041e-05
0.000365667
0.000661719
0.000889047
0.00106484
0.00119599
5.39268e-05
0.000387695
0.000690661
0.000925324
0.00111039
0.00125241
5.46552e-05
0.000405219
0.000710913
0.000950842
0.00114423
0.00129597
5.5124e-05
0.000417011
0.00072202
0.000965718
0.00116656
0.00132714
5.5331e-05
0.000422253
0.000723577
0.000969579
0.00117718
0.00134607
5.52353e-05
0.000420955
0.000715054
0.000961782
0.00117552
0.00135257
5.48012e-05
0.000413105
0.000695884
0.00094133
0.00116058
0.00134602
5.40124e-05
0.000398206
0.000665354
0.000907316
0.0011311
0.0013255
5.28472e-05
0.000375715
0.000622728
0.000858231
0.00108506
0.00128913
5.12831e-05
0.000344926
0.000567307
0.000792477
0.00102
0.00123396
4.93827e-05
0.000305147
0.000498563
0.000708785
0.000932744
0.00115514
4.71011e-05
0.00025562
0.000416557
0.000605758
0.000818739
0.00104685
0.000187268
0.000196216
0.000321855
0.000482454
0.000674192
0.000900714
0.000171277
0.000127228
0.000216051
0.000339936
0.000497753
0.00070628
2.97044e-05
5.37799e-05
0.000104218
0.000184844
0.00029603
0.000459382
8.22791e-07
4.15743e-06
1.7721e-05
4.97011e-05
0.000104532
0.000194753
0.000193631
0.000287252
0.000411264
0.000496727
0.000570935
0.000652811
0.000759348
0.000900062
0.00107243
0.00126429
0.00146077
0.00165108
0.00183053
0.00199959
0.00216267
0.00232743
0.00250471
0.0027079
0.00292986
0.00317772
0.00345158
0.00372829
0.00399797
0.00416809
0.000279078
0.000319204
0.000355487
0.000424241
0.000481635
0.000551352
0.000636277
0.00074343
0.000873877
0.00102301
0.00118295
0.00134605
0.00150606
0.00165947
0.0018065
0.00195089
0.00209977
0.00226392
0.002456
0.00266579
0.00290349
0.0031604
0.00341462
0.00363137
0.000452028
0.000420461
0.000437807
0.000447625
0.00046831
0.000494524
0.000550434
0.000619101
0.000707944
0.000817886
0.000949011
0.00109156
0.00123249
0.00136638
0.00149479
0.00161982
0.00174489
0.00187601
0.00202296
0.00219758
0.00238998
0.00260793
0.00283162
0.00305968
0.000649748
0.000586504
0.000577774
0.000581716
0.000579361
0.000574112
0.000572076
0.000588077
0.000635262
0.000697245
0.000775083
0.000868341
0.000972644
0.00108531
0.00120626
0.00132869
0.00144345
0.0015538
0.00166766
0.00179451
0.00194809
0.00212059
0.0023175
0.00250317
0.000827424
0.000778198
0.000757513
0.000762545
0.000766964
0.000763975
0.00075388
0.000745533
0.000736838
0.000741048
0.000759217
0.000798283
0.00085079
0.000916812
0.000993132
0.00107718
0.00116891
0.00126766
0.00137183
0.00147616
0.00158672
0.00171922
0.00188392
0.00202991
0.000979215
0.000964571
0.000955098
0.000962292
0.000980739
0.000996515
0.00100116
0.00100242
0.000998657
0.000990178
0.000979942
0.000968161
0.000962674
0.000965481
0.00097895
0.00100571
0.00104572
0.00109787
0.00115927
0.00123157
0.00131476
0.0014068
0.00152764
0.0016615
0.00110741
0.00112871
0.00114183
0.00116415
0.00119456
0.00122729
0.00125594
0.00127899
0.00128828
0.00129509
0.00129486
0.00128378
0.00126661
0.0012441
0.00121837
0.00119298
0.00117179
0.00115804
0.00115575
0.00116775
0.00119483
0.0012359
0.00129188
0.00140041
0.00121514
0.00126649
0.00130376
0.00134391
0.00138983
0.00143797
0.00148339
0.00152445
0.00155625
0.00158072
0.00158999
0.00159492
0.00158905
0.00157079
0.00154321
0.00150781
0.00146629
0.00142138
0.00137642
0.00133487
0.00130082
0.00127909
0.0012664
0.00130911
0.00130378
0.00137897
0.00143642
0.00149211
0.00155017
0.00160978
0.00166737
0.00172011
0.00176525
0.00180167
0.00182835
0.00184381
0.00184882
0.00184778
0.00183083
0.00180233
0.00176337
0.00171511
0.00165994
0.00160092
0.00154073
0.00148312
0.00143033
0.00142052
0.0013752
0.00146829
0.00154043
0.00160647
0.00167307
0.00173947
0.00180339
0.00186223
0.00191347
0.00195545
0.00198726
0.00200812
0.002018
0.00201771
0.00200983
0.00199221
0.00196794
0.0019369
0.00189763
0.00184891
0.00179123
0.00172627
0.00166138
0.00163389
0.00143103
0.00153697
0.00161805
0.00169013
0.00175935
0.00182673
0.0018909
0.00194991
0.00200199
0.0020459
0.00208096
0.0021068
0.00212304
0.00212941
0.00212783
0.00211655
0.00209525
0.00206615
0.00203137
0.00199388
0.00195724
0.00192572
0.00189768
0.00188318
0.00147249
0.00158736
0.00167351
0.00174628
0.00181312
0.00187618
0.00193512
0.00198886
0.00203634
0.00207693
0.00211055
0.00213767
0.00215667
0.00216899
0.0021751
0.00217458
0.00216729
0.00215378
0.00213464
0.00211082
0.00208387
0.00205821
0.00204216
0.00203863
0.00150054
0.00162182
0.00170944
0.00177911
0.00183936
0.00189356
0.00194243
0.00198579
0.00202338
0.0020553
0.00208329
0.0021071
0.00212562
0.00214234
0.00215738
0.00216874
0.00217607
0.00217961
0.00217973
0.00217679
0.00217159
0.00216522
0.00215884
0.0021543
0.00151571
0.00164208
0.00172899
0.00179283
0.00184329
0.00188483
0.00191922
0.00194715
0.00196896
0.00198632
0.00200118
0.00201319
0.0020225
0.00202895
0.00203477
0.00204095
0.00204925