/*--------------------------------*- C++ -*----------------------------------*\
  =========                 |
  \\      /  F ield         | OpenFOAM: The Open Source CFD Toolbox
   \\    /   O peration     | Website:  https://openfoam.org
    \\  /    A nd           | Version:  11
     \\/     M anipulation  |
\*---------------------------------------------------------------------------*/
FoamFile
{
    format      ascii;
    class       surfaceScalarField;
    location    "1.6";
    object      phi;
}
// * * * * * * * * * * * * * * * * * * * * * * * * * * * * * * * * * * * * * //

dimensions      [0 3 -1 0 0 0 0];

internalField   nonuniform List<scalar> 
5640
(
-1.41905e-07
1.41905e-07
-5.54055e-07
4.1215e-07
-1.02252e-06
4.68465e-07
-1.39162e-06
3.691e-07
-1.53453e-06
1.42914e-07
9.27917e-08
-1.62732e-06
-2.77836e-07
4.19741e-07
-7.52814e-07
8.87128e-07
-1.23035e-06
9.46002e-07
-1.58428e-06
7.23029e-07
-1.77635e-06
3.34985e-07
4.88258e-08
-1.73239e-06
-3.33281e-07
7.53022e-07
-8.19485e-07
1.37333e-06
-1.30169e-06
1.42821e-06
-1.66543e-06
1.08676e-06
-1.86248e-06
5.32037e-07
-4.17646e-08
-1.77189e-06
-3.6719e-07
1.12021e-06
-8.46066e-07
1.85221e-06
-1.31842e-06
1.90056e-06
-1.68231e-06
1.45065e-06
-1.8696e-06
7.19334e-07
-1.65298e-07
-1.74607e-06
-3.92996e-07
1.51321e-06
-8.47805e-07
2.30702e-06
-1.2992e-06
2.35196e-06
-1.65345e-06
1.80491e-06
-1.82209e-06
8.87972e-07
-3.30888e-07
-1.6565e-06
-4.08797e-07
1.92201e-06
-8.29375e-07
2.72759e-06
-1.24938e-06
2.77196e-06
-1.58581e-06
2.14133e-06
-1.72737e-06
1.02953e-06
-5.48687e-07
-1.50957e-06
-4.01714e-07
2.32372e-06
-7.86643e-07
3.11252e-06
-1.17121e-06
3.15653e-06
-1.48252e-06
2.45264e-06
-1.59061e-06
1.13762e-06
-8.26113e-07
-1.31318e-06
-3.76631e-07
2.70035e-06
-7.20641e-07
3.45653e-06
-1.0665e-06
3.50238e-06
-1.34717e-06
2.73331e-06
-1.41799e-06
1.20844e-06
-1.1652e-06
-1.07891e-06
-3.36656e-07
3.03701e-06
-6.33647e-07
3.75352e-06
-9.37275e-07
3.80601e-06
-1.18348e-06
2.97952e-06
-1.21698e-06
1.24194e-06
-1.56278e-06
-8.19399e-07
-2.83765e-07
3.32077e-06
-5.27579e-07
3.99734e-06
-7.8558e-07
4.06401e-06
-9.95387e-07
3.18933e-06
-9.95813e-07
1.24236e-06
-2.00888e-06
-5.4971e-07
-2.19637e-07
3.54041e-06
-4.04438e-07
4.18214e-06
-6.13258e-07
4.27284e-06
-7.8672e-07
3.36279e-06
-7.6304e-07
1.21868e-06
-2.48451e-06
-2.87407e-07
-1.45958e-07
3.68637e-06
-2.66269e-07
4.30245e-06
-4.22222e-07
4.42879e-06
-5.60701e-07
3.50127e-06
-5.25858e-07
1.18384e-06
-2.9646e-06
-4.57723e-08
-6.43167e-08
3.75068e-06
-1.15363e-07
4.35349e-06
-2.14294e-07
4.52772e-06
-3.19383e-07
3.60636e-06
-2.89101e-07
1.15356e-06
-3.41334e-06
1.59637e-07
2.41324e-08
3.72655e-06
4.56361e-08
4.33199e-06
8.29049e-09
4.56506e-06
-6.33409e-08
3.67799e-06
-5.89513e-08
1.14917e-06
-3.80248e-06
3.30189e-07
1.17337e-07
3.60921e-06
2.15064e-07
4.23426e-06
2.44748e-07
4.53538e-06
2.08887e-07
3.71385e-06
1.86392e-07
1.17166e-06
-4.09157e-06
4.75479e-07
2.18986e-07
3.39023e-06
3.89011e-07
4.06424e-06
4.91049e-07
4.43334e-06
4.97016e-07
3.70788e-06
4.44493e-07
1.22419e-06
-4.2519e-06
6.04825e-07
3.34781e-07
3.05545e-06
5.62173e-07
3.83685e-06
7.43939e-07
4.25158e-06
8.00481e-07
3.65134e-06
7.19704e-07
1.30496e-06
-4.26068e-06
7.28483e-07
4.27833e-07
2.62761e-06
7.24025e-07
3.54066e-06
9.98339e-07
3.97726e-06
1.11818e-06
3.5315e-06
1.02044e-06
1.40271e-06
-4.09818e-06
8.57944e-07
4.72917e-07
2.1547e-06
8.65146e-07
3.14843e-06
1.24859e-06
3.59382e-06
1.44833e-06
3.33176e-06
1.35499e-06
1.49605e-06
-3.75418e-06
1.01098e-06
4.93197e-07
1.6615e-06
9.82971e-07
2.65865e-06
1.48813e-06
3.08865e-06
1.79007e-06
3.02982e-06
1.73349e-06
1.55264e-06
-3.23536e-06
1.21467e-06
4.96376e-07
1.16512e-06
1.07345e-06
2.08158e-06
1.7075e-06
2.4546e-06
2.14077e-06
2.59655e-06
2.16845e-06
1.52496e-06
-2.5762e-06
1.50929e-06
4.79251e-07
6.85871e-07
1.13082e-06
1.43001e-06
1.88794e-06
1.69748e-06
2.49307e-06
1.99141e-06
2.67268e-06
1.34535e-06
-1.8395e-06
1.93598e-06
4.29072e-07
2.568e-07
1.14202e-06
7.17062e-07
1.99208e-06
8.47423e-07
2.82934e-06
1.15416e-06
3.25297e-06
9.21714e-07
-1.02392e-06
2.43739e-06
2.568e-07
9.73861e-07
1.82128e-06
2.97544e-06
3.89715e-06
2.87324e-06
-6.90404e-07
1.32744e-06
-2.26436e-06
4.41475e-07
-2.10517e-07
-9.21361e-07
2.15547e-06
-2.74393e-06
1.02993e-06
4.52831e-06
-5.92024e-06
3.5474e-06
7.57328e-06
-9.64092e-06
6.59595e-06
1.1258e-05
-1.38366e-05
1.01519e-05
1.55094e-05
-1.84335e-05
1.41821e-05
2.01992e-05
-2.33175e-05
1.86277e-05
2.51435e-05
-2.83252e-05
2.33809e-05
3.01424e-05
-3.32811e-05
2.82822e-05
3.49722e-05
-3.79887e-05
3.3159e-05
3.93899e-05
-4.22294e-05
3.78117e-05
4.31913e-05
-4.58206e-05
4.20192e-05
4.62664e-05
-4.86668e-05
4.55918e-05
4.86297e-05
-5.07809e-05
4.84175e-05
5.03946e-05
-5.22554e-05
5.04905e-05
5.17091e-05
-5.32051e-05
5.18907e-05
5.27037e-05
-5.37276e-05
5.27329e-05
5.34736e-05
-5.38993e-05
5.31295e-05
5.41029e-05
-5.37999e-05
5.31705e-05
5.46474e-05
-5.34857e-05
5.29413e-05
5.51386e-05
-5.29726e-05
5.24814e-05
5.55895e-05
-5.22106e-05
5.17597e-05
-5.09857e-05
5.05526e-05
-7.80104e-07
3.75162e-07
6.47184e-07
-1.63781e-06
2.70763e-06
-4.80437e-06
5.47802e-06
-8.69063e-06
8.94973e-06
-1.31126e-05
1.30557e-05
-1.79426e-05
1.76602e-05
-2.30379e-05
2.2562e-05
-2.82194e-05
2.75381e-05
-3.33013e-05
3.23416e-05
-3.80845e-05
3.671e-05
-4.23571e-05
4.04332e-05
-4.59527e-05
4.34135e-05
-4.88009e-05
4.5685e-05
-5.09383e-05
4.73738e-05
-5.24697e-05
4.86289e-05
-5.35105e-05
4.95759e-05
-5.41522e-05
5.03089e-05
-5.44605e-05
5.09062e-05
-5.44965e-05
5.14274e-05
-5.43211e-05
5.19093e-05
-5.39677e-05
5.23726e-05
-5.34359e-05
5.28228e-05
-5.26609e-05
-5.14456e-05
-7.90796e-07
-6.0593e-07
8.66095e-07
-3.2947e-06
3.2618e-06
-7.20007e-06
6.42725e-06
-1.18561e-05
1.03107e-05
-1.69961e-05
1.47714e-05
-2.24033e-05
1.95883e-05
-2.78548e-05
2.45096e-05
-3.31407e-05
2.92604e-05
-3.80521e-05
3.35607e-05
-4.23848e-05
3.72001e-05
-4.59966e-05
4.00968e-05
-4.88494e-05
4.23019e-05
-5.1006e-05
4.39466e-05
-5.2583e-05
4.51746e-05
-5.36976e-05
4.61039e-05
-5.44399e-05
4.68235e-05
-5.48718e-05
4.74046e-05
-5.50416e-05
4.79075e-05
-5.49994e-05
4.83757e-05
-5.47893e-05
4.88343e-05
-5.44263e-05
4.92944e-05
-5.3896e-05
4.97577e-05
-5.31242e-05
-5.19362e-05
-7.18111e-07
-1.63389e-06
1.15262e-06
-5.16543e-06
3.88076e-06
-9.92821e-06
7.43558e-06
-1.54109e-05
1.16775e-05
-2.1238e-05
1.63627e-05
-2.70885e-05
2.12019e-05
-3.2694e-05
2.5884e-05
-3.78228e-05
3.01091e-05
-4.22773e-05
3.36689e-05
-4.59446e-05
3.64968e-05
-4.88244e-05
3.86555e-05
-5.10082e-05
4.02753e-05
-5.26258e-05
4.14909e-05
-5.37986e-05
4.2413e-05
-5.46197e-05
4.31264e-05
-5.51532e-05
4.36984e-05
-5.54439e-05
4.41865e-05
-5.55297e-05
4.46376e-05
-5.54505e-05
4.50812e-05
-5.52329e-05
4.55317e-05
-5.48768e-05
4.59931e-05
-5.43574e-05
4.64674e-05
-5.35985e-05
-5.2449e-05
-5.55949e-07
-2.73444e-06
1.53772e-06
-7.25909e-06
4.60282e-06
-1.29933e-05
8.51141e-06
-1.93195e-05
1.29988e-05
-2.57254e-05
1.77253e-05
-3.18151e-05
2.23312e-05
-3.72998e-05
2.6487e-05
-4.19786e-05
2.99809e-05
-4.57712e-05
3.27573e-05
-4.87209e-05
3.48855e-05
-5.09526e-05
3.64914e-05
-5.26141e-05
3.77009e-05
-5.38353e-05
3.8618e-05
-5.47156e-05
3.93242e-05
-5.53259e-05
3.9885e-05
-5.5714e-05
4.0355e-05
-5.59139e-05
4.07808e-05
-5.59554e-05
4.11967e-05
-5.58664e-05
4.16208e-05
-5.5657e-05
4.20601e-05
-5.53162e-05
4.25153e-05
-5.48126e-05
4.29904e-05
-5.40736e-05
-5.29703e-05
-3.05918e-07
-3.93809e-06
2.03098e-06
-9.59599e-06
5.42282e-06
-1.63852e-05
9.5997e-06
-2.34964e-05
1.41672e-05
-3.02928e-05
1.8691e-05
-3.6339e-05
2.27923e-05
-4.14011e-05
2.62423e-05
-4.54285e-05
2.89869e-05
-4.85159e-05
3.10979e-05
-5.08319e-05
3.26966e-05
-5.25513e-05
3.39019e-05
-5.38194e-05
3.48127e-05
-5.47461e-05
3.5508e-05
-5.5411e-05
3.60517e-05
-5.58696e-05
3.6497e-05
-5.61593e-05
3.6889e-05
-5.63059e-05
3.72638e-05
-5.63303e-05
3.76449e-05
-5.62474e-05
3.80423e-05
-5.60544e-05
3.84591e-05
-5.5733e-05
3.88952e-05
-5.52486e-05
3.93568e-05
-5.45352e-05
-5.34837e-05
2.88833e-08
-5.28015e-06
2.61663e-06
-1.21837e-05
6.28877e-06
-2.00573e-05
1.06046e-05
-2.78122e-05
1.50283e-05
-3.47166e-05
1.90942e-05
-4.04048e-05
2.25281e-05
-4.4835e-05
2.52636e-05
-4.8164e-05
2.73703e-05
-5.06226e-05
2.89669e-05
-5.24285e-05
3.01684e-05
-5.37528e-05
3.10705e-05
-5.47216e-05
3.17504e-05
-5.5426e-05
3.22708e-05
-5.59313e-05
3.26838e-05
-5.62827e-05
3.30337e-05
-5.65091e-05
3.33567e-05
-5.66289e-05
3.36795e-05
-5.66531e-05
3.40173e-05
-5.65852e-05
3.43757e-05
-5.64129e-05
3.4756e-05
-5.61132e-05
3.51583e-05
-5.5651e-05
3.5591e-05
-5.49679e-05
-5.39718e-05
4.08548e-07
-6.76761e-06
3.25873e-06
-1.50339e-05
7.12652e-06
-2.39251e-05
1.13915e-05
-3.20772e-05
1.54361e-05
-3.87611e-05
1.88869e-05
-4.38557e-05
2.16402e-05
-4.75883e-05
2.37579e-05
-5.02818e-05
2.53584e-05
-5.2223e-05
2.65562e-05
-5.36263e-05
2.74468e-05
-5.46434e-05
2.81068e-05
-5.53815e-05
2.85985e-05
-5.59177e-05
2.89734e-05
-5.63063e-05
2.92747e-05
-5.65839e-05
2.9538e-05
-5.67724e-05
2.97916e-05
-5.68825e-05
3.00546e-05
-5.69162e-05
3.03369e-05
-5.68675e-05
3.0642e-05
-5.6718e-05
3.09707e-05
-5.6442e-05
3.13246e-05
-5.60049e-05
3.17127e-05
-5.5356e-05
-5.44179e-05
8.26951e-07
-8.41396e-06
3.90149e-06
-1.81085e-05
7.83959e-06
-2.78632e-05
1.18427e-05
-3.60803e-05
1.53431e-05
-4.22615e-05
1.8148e-05
-4.66606e-05
2.02978e-05
-4.97381e-05
2.19113e-05
-5.18953e-05
2.31074e-05
-5.34191e-05
2.3984e-05
-5.4503e-05
2.46196e-05
-5.5279e-05
2.50776e-05
-5.58395e-05
2.54096e-05
-5.62497e-05
2.56581e-05
-5.65548e-05
2.58576e-05
-5.67835e-05
2.60361e-05
-5.69509e-05
2.62145e-05
-5.70609e-05
2.64067e-05
-5.71084e-05
2.66199e-05
-5.70807e-05
2.68572e-05
-5.69552e-05
2.71201e-05
-5.67048e-05
2.74112e-05
-5.6296e-05
2.77402e-05
-5.56849e-05
-5.48073e-05
1.25354e-06
-1.02172e-05
4.48627e-06
-2.13412e-05
8.32902e-06
-3.17059e-05
1.18987e-05
-3.96499e-05
1.47986e-05
-4.51614e-05
1.70114e-05
-4.88734e-05
1.86539e-05
-5.13806e-05
1.98535e-05
-5.3095e-05
2.07155e-05
-5.4281e-05
2.13227e-05
-5.51101e-05
2.17413e-05
-5.56976e-05
2.20249e-05
-5.61232e-05
2.22166e-05
-5.64414e-05
2.23502e-05
-5.66884e-05
2.24524e-05
-5.68856e-05
2.25435e-05
-5.7042e-05
2.26388e-05
-5.71563e-05
2.27489e-05
-5.72185e-05
2.28799e-05
-5.72116e-05
2.30357e-05
-5.71111e-05
2.32195e-05
-5.68885e-05
2.34349e-05
-5.65115e-05
2.36917e-05
-5.59417e-05
-5.51269e-05
1.658e-06
-1.21626e-05
4.95919e-06
-2.46424e-05
8.53859e-06
-3.52853e-05
1.15821e-05
-4.26934e-05
1.3904e-05
-4.74833e-05
1.56024e-05
-5.05717e-05
1.6818e-05
-5.25962e-05
1.76685e-05
-5.39455e-05
1.82446e-05
-5.48572e-05
1.86181e-05
-5.54836e-05
1.88464e-05
-5.59259e-05
1.8975e-05
-5.62518e-05
1.9039e-05
-5.65054e-05
1.90642e-05
-5.67137e-05
1.90698e-05
-5.68911e-05
1.90696e-05
-5.70417e-05
1.90742e-05
-5.71609e-05
1.9092e-05
-5.72363e-05
1.91292e-05
-5.72488e-05
1.91915e-05
-5.71734e-05
1.92839e-05
-5.69809e-05
1.94116e-05
-5.66392e-05
1.95843e-05
-5.61145e-05
-5.53655e-05
2.00654e-06
-1.42149e-05
5.27267e-06
-2.79085e-05
8.46263e-06
-3.84753e-05
1.09597e-05
-4.51905e-05
1.276e-05
-4.92836e-05
1.40153e-05
-5.18271e-05
1.48641e-05
-5.34451e-05
1.54107e-05
-5.44921e-05
1.5735e-05
-5.51814e-05
1.59002e-05
-5.56488e-05
1.59568e-05
-5.59825e-05
1.59432e-05
-5.62381e-05
1.58869e-05
-5.6449e-05
1.58066e-05
-5.66334e-05
1.57147e-05
-5.67992e-05
1.56196e-05
-5.69466e-05
1.55279e-05
-5.70692e-05
1.54459e-05
-5.71544e-05
1.53805e-05
-5.71834e-05
1.53389e-05
-5.71319e-05
1.53286e-05
-5.69706e-05
1.53569e-05
-5.66675e-05
1.54347e-05
-5.61923e-05
-5.55148e-05
2.27483e-06
-1.63301e-05
5.4e-06
-3.10337e-05
8.13298e-06
-4.12083e-05
1.01091e-05
-4.71667e-05
1.14479e-05
-5.06223e-05
1.23165e-05
-5.26957e-05
1.28419e-05
-5.39704e-05
1.3117e-05
-5.47672e-05
1.32136e-05
-5.5278e-05
1.31885e-05
-5.56238e-05
1.30859e-05
-5.58799e-05
1.29373e-05
-5.60896e-05
1.27639e-05
-5.62756e-05
1.25782e-05
-5.64477e-05
1.23871e-05
-5.66081e-05
1.21946e-05
-5.67541e-05
1.20037e-05
-5.68783e-05
1.18185e-05
-5.69692e-05
1.16453e-05
-5.70101e-05
1.14923e-05
-5.69789e-05
1.13696e-05
-5.68479e-05
1.12875e-05
-5.65854e-05
1.12605e-05
-5.61653e-05
-5.55694e-05
2.45568e-06
-1.84556e-05
5.3467e-06
-3.39247e-05
7.60351e-06
-4.34651e-05
9.10119e-06
-4.86644e-05
1.00298e-05
-5.15509e-05
1.05531e-05
-5.32191e-05
1.07862e-05
-5.42035e-05
1.08131e-05
-5.4794e-05
1.06993e-05
-5.51642e-05
1.0496e-05
-5.54206e-05
1.02412e-05
-5.56251e-05
9.96047e-06
-5.58089e-05
9.66924e-06
-5.59844e-05
9.37549e-06
-5.61539e-05
9.0824e-06
-5.6315e-05
8.79065e-06
-5.64623e-05
8.50041e-06
-5.65881e-05
8.21308e-06
-5.66819e-05
7.93283e-06
-5.67299e-05
7.66758e-06
-5.67137e-05
7.42847e-06
-5.66088e-05
7.22743e-06
-5.63844e-05
7.08141e-06
-5.60192e-05
-5.55286e-05
2.55634e-06
-2.05365e-05
5.14092e-06
-3.65093e-05
6.93078e-06
-4.52549e-05
7.99262e-06
-4.97262e-05
8.55044e-06
-5.21087e-05
8.75872e-06
-5.34274e-05
8.72206e-06
-5.41668e-05
8.51772e-06
-5.45897e-05
8.20567e-06
-5.48521e-05
7.83151e-06
-5.50464e-05
7.42726e-06
-5.52208e-05
7.01303e-06
-5.53946e-05
6.59982e-06
-5.55712e-05
6.19249e-06
-5.57466e-05
5.7922e-06
-5.59147e-05
5.39813e-06
-5.60682e-05
5.00902e-06
-5.6199e-05
4.62452e-06
-5.62974e-05
4.24666e-06
-5.6352e-05
3.88174e-06
-5.63487e-05
3.54228e-06
-5.62693e-05
3.24317e-06
-5.60853e-05
2.97101e-06
-5.57471e-05
-5.53575e-05
2.59321e-06
-2.25249e-05
4.82173e-06
-3.87378e-05
6.16383e-06
-4.6597e-05
6.82604e-06
-5.03884e-05
7.04271e-06
-5.23254e-05
6.95804e-06
-5.33427e-05
6.66839e-06
-5.38772e-05
6.24522e-06
-5.41665e-05
5.7431e-06
-5.435e-05
5.20183e-06
-5.45051e-05
4.64758e-06
-5.46666e-05
4.09547e-06
-5.48425e-05
3.55299e-06
-5.50287e-05
3.02301e-06
-5.52166e-05
2.5059e-06
-5.53976e-05
2.00093e-06
-5.55633e-05
1.50732e-06
-5.57054e-05
1.02525e-06
-5.58153e-05
5.56597e-07
-5.58834e-05
1.05463e-07
-5.58976e-05
-3.18404e-07
-5.58454e-05
-6.8473e-07
-5.57189e-05
-9.27844e-07
-5.5504e-05
-5.48814e-05
2.58845e-06
-2.43848e-05
4.43266e-06
-4.0582e-05
5.34655e-06
-4.75109e-05
5.63546e-06
-5.06773e-05
5.53175e-06
-5.22217e-05
5.17012e-06
-5.29811e-05
4.63983e-06
-5.33469e-05
4.00691e-06
-5.35336e-05
3.32019e-06
-5.36633e-05
2.61331e-06
-5.37983e-05
1.90664e-06
-5.39599e-05
1.21078e-06
-5.41467e-05
5.30177e-07
-5.43481e-05
-1.33996e-07
-5.45525e-05
-7.82036e-07
-5.47496e-05
-1.41485e-06
-5.49305e-05
-2.03329e-06
-5.50869e-05
-2.63784e-06
-5.52108e-05
-3.22825e-06
-5.52929e-05
-3.80257e-06
-5.53233e-05
-4.35644e-06
-5.52916e-05
-4.89383e-06
-5.51815e-05
-5.46815e-06
-5.49296e-05
-5.44785e-05
2.5686e-06
-2.60955e-05
4.01367e-06
-4.20271e-05
4.51445e-06
-4.80117e-05
4.44664e-06
-5.06095e-05
4.03644e-06
-5.18115e-05
3.40944e-06
-5.23541e-05
2.64779e-06
-5.25853e-05
1.81207e-06
-5.26979e-05
9.44464e-07
-5.27957e-05
7.24374e-08
-5.29262e-05
-7.89015e-07
-5.30984e-05
-1.63366e-06
-5.3302e-05
-2.45973e-06
-5.3522e-05
-3.26759e-06
-5.37446e-05
-4.05844e-06
-5.39587e-05
-4.83369e-06
-5.41552e-05
-5.59475e-06
-5.43259e-05
-6.34287e-06
-5.44627e-05
-7.07883e-06
-5.4557e-05
-7.80279e-06
-5.45993e-05
-8.51561e-06
-5.45787e-05
-9.22013e-06
-5.4477e-05
-9.89489e-06
-5.42549e-05
-5.39423e-05
2.57078e-06
-2.76553e-05
3.59721e-06
-4.30535e-05
3.69297e-06
-4.81075e-05
3.27804e-06
-5.01946e-05
2.57034e-06
-5.11038e-05
1.6868e-06
-5.14705e-05
7.00617e-07
-5.15991e-05
-3.32775e-07
-5.16645e-05
-1.37723e-06
-5.17512e-05
-2.41317e-06
-5.18903e-05
-3.43086e-06
-5.20807e-05
-4.4273e-06
-5.23056e-05
-5.4029e-06
-5.25464e-05
-6.35925e-06
-5.27883e-05
-7.29817e-06
-5.30198e-05
-8.22138e-06
-5.3232e-05
-9.13037e-06
-5.34169e-05
-1.00262e-05
-5.35668e-05
-1.09092e-05
-5.3674e-05
-1.17786e-05
-5.37299e-05
-1.26322e-05
-5.37251e-05
-1.34633e-05
-5.3646e-05
-1.42483e-05
-5.34698e-05
-5.32666e-05
2.64194e-06
-2.90825e-05
3.21162e-06
-4.36232e-05
2.90009e-06
-4.77959e-05
2.14178e-06
-4.94363e-05
1.1421e-06
-5.01041e-05
4.92996e-09
-5.03334e-05
-1.19553e-06
-5.03986e-05
-2.41962e-06
-5.04404e-05
-3.63841e-06
-5.05324e-05
-4.83694e-06
-5.06918e-05
-6.01038e-06
-5.09073e-05
-7.15898e-06
-5.1157e-05
-8.28483e-06
-5.14206e-05
-9.39027e-06
-5.16828e-05
-1.04773e-05
-5.19327e-05
-1.15477e-05
-5.21617e-05
-1.26024e-05
-5.23622e-05
-1.36418e-05
-5.25274e-05
-1.46654e-05
-5.26504e-05
-1.56709e-05
-5.27244e-05
-1.66541e-05
-5.2742e-05
-1.7606e-05
-5.2694e-05
-1.85077e-05
-5.25681e-05
-5.24584e-05
2.8216e-06
-3.03949e-05
2.88144e-06
-4.3683e-05
2.1475e-06
-4.7062e-05
1.04447e-06
-4.83332e-05
-2.46022e-07
-4.88136e-05
-1.62221e-06
-4.89572e-05
-3.03536e-06
-4.89855e-05
-4.44606e-06
-4.90297e-05
-5.83434e-06
-4.91442e-05
-7.19216e-06
-4.93339e-05
-8.51911e-06
-4.95803e-05
-9.81804e-06
-4.98581e-05
-1.10923e-05
-5.01463e-05
-1.23446e-05
-5.04305e-05
-1.3577e-05
-5.07003e-05
-1.47909e-05
-5.09478e-05
-1.59867e-05
-5.11663e-05
-1.71643e-05
-5.13498e-05
-1.83222e-05
-5.14925e-05
-1.94574e-05
-5.15893e-05
-2.05645e-05
-5.16348e-05
-2.1635e-05
-5.16235e-05
-2.26531e-05
-5.155e-05
-5.15234e-05
3.12775e-06
-3.15866e-05
2.63392e-06
-4.31892e-05
1.44049e-06
-4.58686e-05
-2.26291e-08
-4.68701e-05
-1.58903e-06
-4.72472e-05
-3.20401e-06
-4.73422e-05
-4.81949e-06
-4.737e-05
-6.40885e-06
-4.74403e-05
-7.9605e-06
-4.75925e-05
-9.47277e-06
-4.78217e-05
-1.09492e-05
-4.81039e-05
-1.23948e-05
-4.84125e-05
-1.38136e-05
-4.87275e-05
-1.52086e-05
-4.90355e-05
-1.65817e-05
-4.93272e-05
-1.79339e-05
-4.95957e-05
-1.92652e-05
-4.9835e-05
-2.05749e-05
-5.00401e-05
-2.18611e-05
-5.02064e-05
-2.31202e-05
-5.03301e-05
-2.4347e-05
-5.0408e-05
-2.55334e-05
-5.04371e-05
-2.66665e-05
-5.04169e-05
-5.04659e-05
3.67628e-06
-3.28255e-05
2.47842e-06
-4.19913e-05
7.67503e-07
-4.41577e-05
-1.04854e-06
-4.50541e-05
-2.89992e-06
-4.53958e-05
-4.7417e-06
-4.55004e-05
-6.54838e-06
-4.55633e-05
-8.30635e-06
-4.56824e-05
-1.00132e-05
-4.58857e-05
-1.16733e-05
-4.61615e-05
-1.32936e-05
-4.64836e-05
-1.48804e-05
-4.68256e-05
-1.64385e-05
-4.71694e-05
-1.79708e-05
-4.75032e-05
-1.94789e-05
-4.78191e-05
-2.09634e-05
-4.81111e-05
-2.24242e-05
-4.83743e-05
-2.38601e-05
-4.86042e-05
-2.52689e-05
-4.87976e-05
-2.66471e-05
-4.89519e-05
-2.79894e-05
-4.90657e-05
-2.92887e-05
-4.91379e-05
-3.0534e-05
-4.91716e-05
-4.92904e-05
4.90217e-06
-3.48544e-05
2.34829e-06
-3.94374e-05
7.14968e-08
-4.18809e-05
-2.08844e-06
-4.28941e-05
-4.19485e-06
-4.32894e-05
-6.24275e-06
-4.34525e-05
-8.22382e-06
-4.35822e-05
-1.01372e-05
-4.3769e-05
-1.1989e-05
-4.40339e-05
-1.37887e-05
-4.43619e-05
-1.55456e-05
-4.47267e-05
-1.72672e-05
-4.51041e-05
-1.89581e-05
-4.54785e-05
-2.06211e-05
-4.58401e-05
-2.22576e-05
-4.61826e-05
-2.3868e-05
-4.65007e-05
-2.54519e-05
-4.67904e-05
-2.70079e-05
-4.70482e-05
-2.85338e-05
-4.72717e-05
-3.00261e-05
-4.74596e-05
-3.14797e-05
-4.76121e-05
-3.28881e-05
-4.77296e-05
-3.42418e-05
-4.78178e-05
-4.80016e-05
-1.70182e-07
1.70182e-07
-2.76087e-08
-1.42574e-07
4.5694e-07
-4.84548e-07
1.36718e-06
-9.10241e-07
4.07595e-06
-2.70877e-06
-5.81308e-06
9.88903e-06
-8.04778e-08
2.5066e-07
1.81755e-07
-4.04806e-07
7.27252e-07
-1.03005e-06
1.76593e-06
-1.94892e-06
3.49224e-06
-4.43508e-06
-8.73477e-06
6.41393e-06
9.52608e-09
2.41134e-07
3.10633e-07
-7.05913e-07
8.60729e-07
-1.58014e-06
1.8028e-06
-2.89099e-06
3.07485e-06
-5.70713e-06
-1.01588e-05
4.49891e-06
8.07173e-08
1.60417e-07
3.8526e-07
-1.01046e-06
8.90316e-07
-2.0852e-06
1.66395e-06
-3.66462e-06
2.53099e-06
-6.57417e-06
-1.07684e-05
3.14058e-06
1.34663e-07
2.57532e-08
4.16996e-07
-1.29279e-06
8.44899e-07
-2.5131e-06
1.41885e-06
-4.23857e-06
1.91814e-06
-7.07346e-06
-1.08487e-05
1.99845e-06
1.66363e-07
-1.4061e-07
4.12784e-07
-1.53921e-06
7.45107e-07
-2.84542e-06
1.11285e-06
-4.60631e-06
1.28818e-06
-7.2488e-06
-1.0543e-05
9.82475e-07
1.7711e-07
-3.1772e-07
3.7934e-07
-1.74144e-06
6.08289e-07
-3.07437e-06
7.78572e-07
-4.77659e-06
6.75088e-07
-7.14531e-06
-9.93361e-06
6.5675e-08
1.69934e-07
-4.87654e-07
3.2387e-07
-1.89537e-06
4.49572e-07
-3.20007e-06
4.40151e-07
-4.76717e-06
1.0413e-07
-6.80929e-06
-9.10959e-06
-7.19886e-07
1.48808e-07
-6.36462e-07
2.53579e-07
-2.00014e-06
2.8203e-07
-3.22853e-06
1.15745e-07
-4.60089e-06
-4.1216e-07
-6.28139e-06
-8.10872e-06
-1.41303e-06
1.18021e-07
-7.54483e-07
1.75209e-07
-2.05733e-06
1.16666e-07
-3.16998e-06
-1.80831e-07
-4.30339e-06
-8.6203e-07
-5.60019e-06
-6.97072e-06
-2.00003e-06
8.15863e-08
-8.36069e-07
9.46769e-08
-2.07042e-06
-3.7629e-08
-3.03768e-06
-4.39295e-07
-3.90172e-06
-1.23802e-06
-4.80147e-06
-5.72892e-06
-2.47982e-06
4.29357e-08
-8.79005e-07
1.682e-08
-2.04431e-06
-1.74146e-07
-2.84671e-06
-6.52272e-07
-3.4236e-06
-1.53493e-06
-3.91881e-06
-4.4123e-06
-2.85155e-06
4.84237e-09
-8.83847e-07
-5.47152e-08
-1.98475e-06
-2.8822e-07
-2.61321e-06
-8.14959e-07
-2.89686e-06
-1.74938e-06
-2.98439e-06
-3.04761e-06
-3.11407e-06
-3.0755e-08
-8.53092e-07
-1.17527e-07
-1.89798e-06
-3.77331e-07
-2.3534e-06
-9.24902e-07
-2.34929e-06
-1.87935e-06
-2.02994e-06
-1.66117e-06
-3.26579e-06
-6.22251e-08
-7.90867e-07
-1.70333e-07
-1.78987e-06
-4.40894e-07
-2.08284e-06
-9.81851e-07
-1.80833e-06
-1.92431e-06
-1.08748e-06
-2.80991e-07
-3.30449e-06
-8.84925e-08
-7.02375e-07
-2.12888e-07
-1.66547e-06
-4.80217e-07
-1.81551e-06
-9.87789e-07
-1.30076e-06
-1.88524e-06
-1.90024e-07
1.06076e-06
-3.22699e-06
-1.08602e-07
-5.93772e-07
-2.45858e-07
-1.52822e-06
-4.98504e-07
-1.56287e-06
-9.47229e-07
-8.52035e-07
-1.76524e-06
6.27987e-07
2.32425e-06
-3.02873e-06
-1.21651e-07
-4.72121e-07
-2.70627e-07
-1.37924e-06
-5.00845e-07
-1.33265e-06
-8.67753e-07
-4.85128e-07
-1.57045e-06
1.33069e-06
3.45694e-06
-2.70314e-06
-1.26581e-07
-3.4554e-07
-2.89039e-07
-1.21679e-06
-4.94141e-07
-1.12755e-06
-7.60891e-07
-2.18378e-07
-1.31218e-06
1.88197e-06
4.38554e-06
-2.24078e-06
-1.21996e-07
-2.23544e-07
-3.03039e-07
-1.03574e-06
-4.86823e-07
-9.43761e-07
-6.43e-07
-6.22014e-08
-1.01121e-06
2.25018e-06
5.00336e-06
-1.62902e-06
-1.06305e-07
-1.17238e-07
-3.14287e-07
-8.27761e-07
-4.88554e-07
-7.69494e-07
-5.36744e-07
-1.40112e-08
-6.93076e-07
2.40651e-06
5.17643e-06
-8.6615e-07
-7.9104e-08
-3.81344e-08
-3.23417e-07
-5.83448e-07
-5.1004e-07
-5.82871e-07
-4.75509e-07
-4.85428e-08
-3.38796e-07
2.2698e-06
4.86881e-06
-3.11762e-08
-4.10887e-08
2.95429e-09
-3.27145e-07
-2.97391e-07
-5.639e-07
-3.46117e-07
-5.22016e-07
-9.04264e-08
1.39009e-07
1.60877e-06
3.43857e-06
1.56925e-06
2.95429e-09
-2.94437e-07
-6.40553e-07
-7.3098e-07
8.77795e-07
4.31636e-06
4.99869e-06
-2.99641e-05
1.88506e-06
-3.63238e-05
-7.43833e-07
-3.9252e-05
-3.17232e-06
-4.04656e-05
-5.49014e-06
-4.09716e-05
-7.71297e-06
-4.12297e-05
-9.84629e-06
-4.14489e-05
-1.18991e-05
-4.17162e-05
-1.38839e-05
-4.2049e-05
-1.58136e-05
-4.24322e-05
-1.7699e-05
-4.28413e-05
-1.95475e-05
-4.32556e-05
-2.13638e-05
-4.36622e-05
-2.31503e-05
-4.40536e-05
-2.49081e-05
-4.44247e-05
-2.66375e-05
-4.47714e-05
-2.83378e-05
-4.50901e-05
-3.00077e-05
-4.53783e-05
-3.1645e-05
-4.56344e-05
-3.3246e-05
-4.58586e-05
-3.4806e-05
-4.60521e-05
-3.63189e-05
-4.62167e-05
-3.77767e-05
-4.636e-05
-4.66044e-05
3.68166e-06
-2.72318e-05
9.58236e-07
-3.36004e-05
-1.7317e-06
-3.65621e-05
-4.31808e-06
-3.78793e-05
-6.78987e-06
-3.84998e-05
-9.15146e-06
-3.88681e-05
-1.14128e-05
-3.91876e-05
-1.35881e-05
-3.95409e-05
-1.56933e-05
-3.99438e-05
-1.77426e-05
-4.03828e-05
-1.97472e-05
-4.08368e-05
-2.17142e-05
-4.12886e-05
-2.36477e-05
-4.17287e-05
-2.55497e-05
-4.21516e-05
-2.74213e-05
-4.25532e-05
-2.92623e-05
-4.29304e-05
-3.10721e-05
-4.32803e-05
-3.28494e-05
-4.3601e-05
-3.45917e-05
-4.38921e-05
-3.62957e-05
-4.41547e-05
-3.79566e-05
-4.43912e-05
-3.95688e-05
-4.46045e-05
-4.11257e-05
-4.48031e-05
-4.51039e-05
2.52593e-06
-2.52589e-05
-9.0923e-08
-3.09835e-05
-2.82268e-06
-3.38303e-05
-5.50324e-06
-3.51987e-05
-8.08134e-06
-3.59217e-05
-1.05493e-05
-3.64001e-05
-1.29162e-05
-3.68207e-05
-1.51979e-05
-3.72592e-05
-1.74109e-05
-3.77308e-05
-1.95693e-05
-3.82245e-05
-2.16835e-05
-3.87225e-05
-2.376e-05
-3.92121e-05
-2.5802e-05
-3.96867e-05
-2.78113e-05
-4.01422e-05
-2.97886e-05
-4.0576e-05
-3.17336e-05
-4.09854e-05
-3.36456e-05
-4.13682e-05
-3.55232e-05
-4.17234e-05
-3.7364e-05
-4.20513e-05
-3.91644e-05
-4.23543e-05
-4.092e-05
-4.26356e-05
-4.26257e-05
-4.28987e-05
-4.42764e-05
-4.31524e-05
-4.35055e-05
1.33242e-06
-2.34507e-05
-1.21393e-06
-2.84372e-05
-3.95959e-06
-3.10846e-05
-6.69416e-06
-3.24641e-05
-9.34438e-06
-3.32715e-05
-1.18934e-05
-3.38511e-05
-1.43473e-05
-3.43667e-05
-1.6721e-05
-3.48856e-05
-1.90299e-05
-3.54219e-05
-2.12869e-05
-3.59674e-05
-2.35011e-05
-3.65083e-05
-2.56777e-05
-3.70356e-05
-2.78193e-05
-3.7545e-05
-2.99272e-05
-3.80343e-05
-3.20018e-05
-3.85014e-05
-3.40429e-05
-3.89443e-05
-3.60494e-05
-3.93616e-05
-3.802e-05
-3.97528e-05
-3.99519e-05
-4.01193e-05
-4.18417e-05
-4.04645e-05
-4.36853e-05
-4.07921e-05
-4.54783e-05
-4.11057e-05
-4.72172e-05
-4.14135e-05
-4.1815e-05
1.90496e-07
-2.16427e-05
-2.33901e-06
-2.59077e-05
-5.09055e-06
-2.83331e-05
-7.85729e-06
-2.96974e-05
-1.05578e-05
-3.0571e-05
-1.31696e-05
-3.12393e-05
-1.56959e-05
-3.18405e-05
-1.81491e-05
-3.24323e-05
-2.05431e-05
-3.30279e-05
-2.28885e-05
-3.3622e-05
-2.51928e-05
-3.4204e-05
-2.74599e-05
-3.47684e-05
-2.96919e-05
-3.5313e-05
-3.18896e-05
-3.58366e-05
-3.40531e-05
-3.63379e-05
-3.61819e-05
-3.68155e-05
-3.8275e-05
-3.72685e-05
-4.03306e-05
-3.76972e-05
-4.2346e-05
-3.81039e-05
-4.43177e-05
-3.84927e-05
-4.62421e-05
-3.88677e-05
-4.8116e-05
-3.92319e-05
-4.9937e-05
-3.95925e-05
-4.00386e-05
-9.05848e-07
-1.97544e-05
-3.42239e-06
-2.33911e-05
-6.17804e-06
-2.55775e-05
-8.96583e-06
-2.69096e-05
-1.17031e-05
-2.78337e-05
-1.4365e-05
-2.85774e-05
-1.6952e-05
-2.92535e-05
-1.94742e-05
-2.99101e-05
-2.19429e-05
-3.05592e-05
-2.43668e-05
-3.11981e-05
-2.67515e-05
-3.18194e-05
-2.90997e-05
-3.24202e-05
-3.14128e-05
-3.29999e-05
-3.36912e-05
-3.35582e-05
-3.59348e-05
-3.40943e-05
-3.81429e-05
-3.46075e-05
-4.03141e-05
-3.50973e-05
-4.24466e-05
-3.55648e-05
-4.45373e-05
-3.60132e-05
-4.65832e-05
-3.64469e-05
-4.85811e-05
-3.68698e-05
-5.05289e-05
-3.72841e-05
-5.24256e-05
-3.76958e-05
-3.81827e-05
-1.89766e-06
-1.77911e-05
-4.43165e-06
-2.08571e-05
-7.19562e-06
-2.28135e-05
-9.99935e-06
-2.41059e-05
-1.27652e-05
-2.50679e-05
-1.54681e-05
-2.58745e-05
-1.81066e-05
-2.66149e-05
-2.06885e-05
-2.73282e-05
-2.32224e-05
-2.80253e-05
-2.57151e-05
-2.87054e-05
-2.81704e-05
-2.93642e-05
-3.05901e-05
-3.00005e-05
-3.29749e-05
-3.06151e-05
-3.53249e-05
-3.12082e-05
-3.76396e-05
-3.17796e-05
-3.99181e-05
-3.2329e-05
-4.21588e-05
-3.28566e-05
-4.43596e-05
-3.3364e-05
-4.65176e-05
-3.38552e-05
-4.86298e-05
-3.43346e-05
-5.06939e-05
-3.48057e-05
-5.27081e-05
-3.52698e-05
-5.46724e-05
-3.57315e-05
-3.62528e-05
-2.7855e-06
-1.57255e-05
-5.34897e-06
-1.82937e-05
-8.1249e-06
-2.00376e-05
-1.09429e-05
-2.12879e-05
-1.37323e-05
-2.22785e-05
-1.64695e-05
-2.31373e-05
-1.91519e-05
-2.39325e-05
-2.17848e-05
-2.46953e-05
-2.43749e-05
-2.54352e-05
-2.69268e-05
-2.61534e-05
-2.94432e-05
-2.68478e-05
-3.19248e-05
-2.75189e-05
-3.43718e-05
-2.8168e-05
-3.6784e-05
-2.8796e-05
-3.91606e-05
-2.9403e-05
-4.15004e-05
-2.99892e-05
-4.38017e-05
-3.05553e-05
-4.60621e-05
-3.11037e-05
-4.82789e-05
-3.16384e-05
-5.04498e-05
-3.21638e-05
-5.25728e-05
-3.26827e-05
-5.46468e-05
-3.31959e-05
-5.66711e-05
-3.37073e-05
-3.42576e-05
-3.56577e-06
-1.35727e-05
-6.16301e-06
-1.56964e-05
-8.95369e-06
-1.72469e-05
-1.17857e-05
-1.8456e-05
-1.45955e-05
-1.94686e-05
-1.73617e-05
-2.03711e-05
-2.00809e-05
-2.12133e-05
-2.27569e-05
-2.20193e-05
-2.53943e-05
-2.27979e-05
-2.79963e-05
-2.35514e-05
-3.05642e-05
-2.428e-05
-3.30981e-05
-2.4985e-05
-3.55978e-05
-2.56683e-05
-3.80626e-05
-2.63311e-05
-4.04916e-05
-2.6974e-05
-4.28833e-05
-2.75975e-05
-4.52358e-05
-2.82028e-05
-4.75468e-05
-2.87927e-05
-4.98139e-05
-2.93712e-05
-5.20354e-05
-2.99422e-05
-5.42103e-05
-3.05078e-05
-5.63377e-05
-3.10685e-05
-5.84166e-05
-3.16283e-05
-3.22078e-05
-4.23369e-06
-1.13391e-05
-6.86675e-06
-1.30634e-05
-9.67437e-06
-1.44393e-05
-1.25204e-05
-1.56099e-05
-1.53483e-05
-1.66408e-05
-1.81387e-05
-1.75807e-05
-2.08883e-05
-1.84636e-05
-2.35997e-05
-1.93079e-05
-2.62757e-05
-2.01218e-05
-2.89186e-05
-2.09086e-05
-3.15285e-05
-2.16701e-05
-3.41051e-05
-2.24084e-05
-3.66478e-05
-2.31256e-05
-3.91557e-05
-2.38232e-05
-4.16275e-05
-2.45021e-05
-4.40616e-05
-2.51634e-05
-4.64559e-05
-2.58085e-05
-4.88083e-05
-2.64404e-05
-5.1117e-05
-2.70625e-05
-5.3381e-05
-2.76782e-05
-5.56001e-05
-2.82887e-05
-5.77741e-05
-2.88945e-05
-5.99028e-05
-2.94996e-05
-3.01136e-05
-4.78659e-06
-9.03231e-06
-7.45613e-06
-1.03938e-05
-1.02824e-05
-1.1613e-05
-1.31426e-05
-1.27497e-05
-1.59861e-05
-1.37973e-05
-1.87961e-05
-1.47707e-05
-2.15699e-05
-1.56899e-05
-2.43089e-05
-1.65689e-05
-2.70151e-05
-1.74156e-05
-2.96896e-05
-1.82341e-05
-3.23321e-05
-1.90276e-05
-3.49418e-05
-1.97987e-05
-3.75179e-05
-2.05495e-05
-4.00593e-05
-2.12819e-05
-4.25644e-05
-2.1997e-05
-4.50315e-05
-2.26963e-05
-4.74584e-05
-2.33816e-05
-4.98434e-05
-2.40554e-05
-5.21852e-05
-2.47207e-05
-5.44836e-05
-2.53798e-05
-5.67387e-05
-2.60336e-05
-5.89506e-05
-2.66825e-05
-6.11205e-05
-2.73297e-05
-2.79816e-05
-5.22328e-06
-6.66058e-06
-7.9293e-06
-7.68781e-06
-1.07756e-05
-8.7667e-06
-1.36495e-05
-9.87581e-06
-1.65061e-05
-1.09406e-05
-1.93313e-05
-1.19456e-05
-2.21226e-05
-1.28985e-05
-2.48816e-05
-1.381e-05
-2.76094e-05
-1.46878e-05
-3.03064e-05
-1.55371e-05
-3.2972e-05
-1.6362e-05
-3.56052e-05
-1.71654e-05
-3.82051e-05
-1.79497e-05
-4.07703e-05
-1.87166e-05
-4.32994e-05
-1.9468e-05
-4.57902e-05
-2.02055e-05
-4.82409e-05
-2.09309e-05
-5.06499e-05
-2.16464e-05
-5.30166e-05
-2.2354e-05
-5.5341e-05
-2.30554e-05
-5.76235e-05
-2.37511e-05
-5.98645e-05
-2.44415e-05
-6.2065e-05
-2.51293e-05
-2.58192e-05
-5.54344e-06
-4.2312e-06
-8.28594e-06
-4.94532e-06
-1.11534e-05
-5.89925e-06
-1.40405e-05
-6.98871e-06
-1.69075e-05
-8.07363e-06
-1.97428e-05
-9.11031e-06
-2.25451e-05
-1.00962e-05
-2.5316e-05
-1.10391e-05
-2.80566e-05
-1.19472e-05
-3.07668e-05
-1.28268e-05
-3.3446e-05
-1.36829e-05
-3.60931e-05
-1.45183e-05
-3.87071e-05
-1.53357e-05
-4.12866e-05
-1.61371e-05
-4.383e-05
-1.69246e-05
-4.63354e-05
-1.77001e-05
-4.88009e-05
-1.84654e-05
-5.12254e-05
-1.92219e-05
-5.36085e-05
-1.99709e-05
-5.59505e-05
-2.07134e-05
-5.82517e-05
-2.14499e-05
-6.05121e-05
-2.21811e-05
-6.27332e-05
-2.29081e-05
-2.36347e-05
-5.74713e-06
-1.74986e-06