/*--------------------------------*- C++ -*----------------------------------*\
  =========                 |
  \\      /  F ield         | OpenFOAM: The Open Source CFD Toolbox
   \\    /   O peration     | Website:  https://openfoam.org
    \\  /    A nd           | Version:  11
     \\/     M anipulation  |
\*---------------------------------------------------------------------------*/
FoamFile
{
    format      ascii;
    class       volScalarField;
    location    "1.82";
    object      k;
}
// * * * * * * * * * * * * * * * * * * * * * * * * * * * * * * * * * * * * * //

dimensions      [0 2 -2 0 0 0 0];

internalField   nonuniform List<scalar> 
2880
(
0.00499716
0.0341881
0.0747132
0.119851
0.153605
0.197601
0.0179323
0.0689125
0.115698
0.16322
0.21953
0.326688
0.0264065
0.0857357
0.13625
0.187831
0.250323
0.339887
0.0332123
0.0963927
0.148788
0.201801
0.262654
0.333653
0.0390499
0.104131
0.157024
0.209446
0.265799
0.322021
0.0438934
0.110067
0.162478
0.213045
0.264195
0.308803
0.0477553
0.114648
0.165905
0.213865
0.259681
0.295269
0.0506804
0.118047
0.16772
0.212857
0.253609
0.282083
0.0527321
0.120321
0.168175
0.210514
0.246791
0.269639
0.0539838
0.121506
0.167482
0.207237
0.239741
0.258154
0.0545156
0.121629
0.165801
0.203321
0.232782
0.247756
0.054416
0.120754
0.163281
0.198982
0.226072
0.238541
0.0537874
0.11892
0.160039
0.19436
0.219726
0.230525
0.052652
0.11618
0.156154
0.189522
0.213806
0.223689
0.0509118
0.112596
0.151659
0.18447
0.208315
0.217989
0.0485383
0.108196
0.146532
0.179144
0.2032
0.213377
0.0455212
0.10297
0.140694
0.173411
0.198338
0.209796
0.0418486
0.096857
0.133989
0.167065
0.193512
0.207182
0.0374975
0.0897321
0.126171
0.159823
0.188339
0.205481
0.0324341
0.081362
0.116853
0.151203
0.182231
0.204675
0.0266311
0.0713038
0.105401
0.140472
0.174199
0.204429
0.023745
0.0586216
0.0906457
0.126444
0.162415
0.203014
0.0193259
0.0415509
0.0699241
0.10682
0.14276
0.191854
0.00496598
0.0160469
0.0408008
0.0795605
0.108407
0.120922
0.378855
0.382968
0.32317
0.251174
0.188436
0.13869
0.101964
0.0760109
0.05798
0.0453767
0.0363844
0.0298025
0.0248612
0.0210641
0.0180833
0.0156949
0.0137408
0.0121053
0.0106995
0.00944848
0.00828049
0.0071427
0.00603451
0.00490833
0.412162
0.379615
0.309632
0.238171
0.176588
0.12874
0.094092
0.0699603
0.0533278
0.0417216
0.0334201
0.0273187
0.02272
0.019176
0.0163903
0.01416
0.0123416
0.0108302
0.00954603
0.00842276
0.00739875
0.00643266
0.00553092
0.00466323
0.395578
0.361141
0.292422
0.223085
0.163963
0.118778
0.0865463
0.0643171
0.0490516
0.0383809
0.0307134
0.0250496
0.0207635
0.0174525
0.0148488
0.0127684
0.0110806
0.00969026
0.0085253
0.00752657
0.00664042
0.00583321
0.00511267
0.00445637
0.372676
0.338844
0.273251
0.207066
0.151235
0.109157
0.0794763
0.0591255
0.0451502
0.0353391
0.0282473
0.022981
0.018981
0.0158858
0.0134535
0.0115164
0.00995537
0.00868327
0.00763473
0.00675634
0.00600032
0.00533755
0.00477295
0.00428639
0.349361
0.315523
0.253526
0.191066
0.138947
0.100133
0.0729768
0.0544034
0.0416136
0.0325799
0.0260073
0.0211017
0.0173644
0.0144704
0.0122001
0.0104007
0.00896245
0.00780553
0.00686987
0.0061064
0.00547126
0.00493704
0.00450341
0.00414987
0.327212
0.292899
0.234358
0.175776
0.127463
0.091859
0.0670881
0.050146
0.0384241
0.0300862
0.0239802
0.0194022
0.0159067
0.0132007
0.0110842
0.00941655
0.00809693
0.00705135
0.006224
0.0055687
0.00504365
0.00462101
0.00429431
0.00404225
0.306686
0.271816
0.216408
0.161604
0.116979
0.0843961
0.0618092
0.0463324
0.0355599
0.0278408
0.0221537
0.0178735
0.0146012
0.012071
0.0100998
0.00855799
0.00735207
0.00641309
0.00568832
0.00513303
0.00470586
0.00437729
0.00413534
0.00395877
0.287931
0.25273
0.200024
0.148757
0.107571
0.077744
0.0571122
0.0429321
0.032997
0.0258269
0.0205158
0.0165067
0.0134403
0.0110742
0.00923992
0.00781746
0.0067196
0.00588151
0.00525236
0.00478751
0.00444495
0.00419331
0.00401669
0.00389506
0.271114
0.23571
0.185342
0.137299
0.0992309
0.0718625
0.0529538
0.0399106
0.030711
0.0240278
0.0190545
0.0152924
0.0124158
0.0102025
0.00849654
0.00718632
0.00619012
0.00544625
0.00490454
0.00451936
0.00424771
0.00405715
0.00392976
0.0038474
0.256284
0.22072
0.172365
0.127202
0.0919009
0.0666897
0.0492842
0.0372322
0.0286782
0.0224272
0.0177579
0.0142209
0.0115189
0.00944715
0.00786069
0.00665516
0.00575357
0.0050963
0.00463275
0.00431573
0.00410172
0.00395839
0.0038674
0.00381266
0.243402
0.207679
0.161024
0.118382
0.0854944
0.0621549
0.0460521
0.0348627
0.0268756
0.0210093
0.0166142
0.0132821
0.0107404
0.00879913
0.00732306
0.00621429
0.00539964
0.00482051
0.00442506
0.00416461
0.00399605
0.00388842
0.00382394
0.00378825
0.232402
0.196477
0.151205
0.110724
0.0799128
0.0581848
0.0432079
0.0327694
0.0252819
0.0197592
0.0156115
0.0124661
0.0100709
0.00824918
0.0068743
0.00585401
0.00511807
0.00460798
0.00427027
0.00405535
0.0039216
0.0038403
0.00379482
0.00377192
0.22321
0.186992
0.142777
0.104103
0.0750544
0.0547074
0.0407041
0.0309219
0.0238769
0.0186622
0.0147386
0.0117629
0.00950122
0.00778832
0.00650535
0.00556495
0.00489899
0.00444845
0.0041583
0.00397896
0.00387104
0.00380848
0.00377658
0.00376161
0.215759
0.1791
0.135601
0.098391
0.0708189
0.051654
0.0384967
0.0292921
0.0226415
0.0177047
0.0139844
0.0111631
0.00902268
0.00740824
0.0062079
0.00533854
0.00473346
0.00433286
0.00408071
0.00392832
0.00383895
0.00378966
0.00376591
0.00375549
0.210005
0.172691
0.129542
0.09346
0.0671095
0.0489607
0.0365451
0.0278537
0.0215581
0.0168737
0.0133387
0.0106579
0.00862731
0.00710137
0.0059745
0.00516721
0.00461378
0.00425373
0.00403081
0.00389801
0.00382133
0.00378018
0.00376076
0.0037525
0.205937
0.167671
0.124462
0.0891865
0.0638377
0.0465692
0.0348119
0.0265824
0.02061
0.0161566
0.0127915
0.0102389
0.0083076
0.0068607
0.00579834
0.00504414
0.0045332
0.00420479
0.00400328
0.00388378
0.003815
0.00377789
0.00375984
0.00375181
0.203589
0.163968
0.120224
0.0854478
0.0609174
0.0444246
0.0332624
0.0254557
0.0197812
0.0155416
0.0123332
0.009898
0.00805648
0.00667973
0.00567313
0.00496318
0.00448586
0.00418082
0.00399384
0.00388233
0.00381733
0.00378081
0.00376176
0.00375232
0.20305
0.161519
0.11668
0.0821155
0.0582634
0.0424743
0.0318637
0.0244518
0.0190566
0.0150172
0.0119549
0.00962775
0.00786743
0.00655253
0.00559338
0.00491916
0.00446712
0.00417789
0.00399939
0.00389132
0.00382659
0.0037884
0.0037664
0.00375381
0.204411
0.160254
0.11366
0.0790542
0.0557906
0.0406679
0.0305849
0.0235508
0.018422
0.0145729
0.011648
0.00942118
0.00773452
0.00647389
0.00555437
0.00490795
0.00447297
0.0041932
0.00401804
0.0039095
0.00384208
0.00379986
0.00377322
0.00375612
0.207811
0.160051
0.110941
0.0761145
0.0534143
0.0389574
0.0293971
0.0227336
0.0178642
0.0141985
0.0114048
0.009272
0.00765254
0.00643941
0.0055523
0.00492533
0.00450169
0.00422529
0.00404885
0.00393641
0.0038636
0.00381518
0.00378222
0.00375932
0.213294
0.160573
0.108222
0.0731221
0.0510478
0.0372978
0.0282743
0.0219836
0.0173712
0.0138851
0.0112183
0.00917476
0.0076171
0.00644537
0.00558347
0.0049713
0.00455188
0.00427354
0.00409166
0.00397211
0.0038914
0.00383472
0.00379381
0.0037638
0.220173
0.161024
0.105082
0.0698767
0.0486077
0.0356502
0.027195
0.0212871
0.0169333
0.0136253
0.0110828
0.00912506
0.00762467
0.00648907
0.00564837
0.00504389
0.00462328
0.00433823
0.00414704
0.00401731
0.00392619
0.00385922
0.00380873
0.00377016
0.224671
0.159745
0.100898
0.0661649
0.046027
0.033989
0.0261461
0.0206354
0.0165443
0.0134147
0.0109953
0.00911998
0.0076733
0.00657005
0.00574474
0.00514307
0.00471648
0.00442044
0.00421628
0.00407332
0.00396923
0.00388981
0.00382798
0.0037792
0.217896
0.154166
0.0948848
0.0618099
0.0432798
0.0323116
0.0251262
0.0200266
0.016202
0.0132516
0.0109532
0.0091574
0.00776118
0.00668636
0.00587244
0.00526939
0.00483271
0.00452182
0.00430121
0.00414194
0.0040222
0.00392804
0.00385287
0.00379199
0.00503318
0.00987051
0.0194668
0.0400252
0.0745924
0.128462
0.0181124
0.0305446
0.0480267
0.0691607
0.0940512
0.129924
0.0221266
0.0432845
0.0649505
0.0858706
0.106941
0.128383
0.0240648
0.0532654
0.0768367
0.0955717
0.110349
0.120218
0.0258635
0.061755
0.0855619
0.101046
0.108584
0.110734
0.0298332
0.0686898
0.0917729
0.103018
0.105489
0.102041
0.0332758
0.0743669
0.0958998
0.103795
0.102559
0.0944631
0.0362105
0.0789622
0.0988132
0.104388
0.0998956
0.0883669
0.0385424
0.082715
0.101191
0.105092
0.0979187
0.0839149
0.0402212
0.0857982
0.103431
0.106167
0.0969673
0.0811647
0.04123
0.0883097
0.105758
0.107785
0.0971209
0.0802012
0.0415787
0.0902732
0.108255
0.110059
0.098478
0.0806298
0.0413546
0.0916475
0.110876
0.113031
0.101294
0.0828478
0.0405945
0.0923465
0.113466
0.11662
0.105535
0.0869241
0.0395302
0.092276
0.115779
0.120655
0.111096
0.0928321
0.0383068
0.0912431
0.117556
0.124997
0.117695
0.100643
0.0367324
0.0891698
0.118535
0.129379
0.124956
0.110345
0.0346553
0.0860066
0.118448
0.13336
0.132535
0.121633
0.03194
0.0817475
0.117041
0.136214
0.140224
0.133597
0.0284731
0.0763504
0.113819
0.136997
0.147035
0.145292
0.0249904
0.0695451
0.108223
0.134922
0.150655
0.156144
0.0227796
0.0605632
0.0989813
0.127562
0.14831
0.163396
0.0185829
0.0475267
0.0830224
0.110862
0.13545
0.158722
0.00484664
0.020478
0.0478862
0.0727062
0.0975468
0.116465
0.193741
0.139835
0.0863219
0.056811
0.0404207
0.0306467
0.0241491
0.0194667
0.0159089
0.0131371
0.0109553
0.00923674
0.0078879
0.00683809
0.00603206
0.00542405
0.0049737
0.00464447
0.0044041
0.00422549
0.00408736
0.00397591
0.00388442
0.00380942
0.163878
0.11967
0.0765153
0.0516136
0.0376
0.0290514
0.0232404
0.0189685
0.0156715
0.0130733
0.011005
0.00935979
0.00805483
0.00702673
0.0062254
0.00560931
0.00514217
0.00479141
0.00452804
0.00432691
0.00416722
0.00403503
0.00392313
0.00383172
0.139152
0.101087
0.0669867
0.0466984
0.034973
0.0275902
0.0224315
0.0185498
0.0155014
0.0130663
0.0111067
0.0095303
0.00826527
0.00725554
0.006456
0.00582912
0.00534245
0.00496714
0.00467738
0.00444997
0.00426454
0.00410703
0.00397053
0.00385933
0.119142
0.0857524
0.0586654
0.0423704
0.0326575
0.0263195
0.0217529
0.0182306
0.0154156
0.0131285
0.0112682
0.00975418
0.00852442
0.00752952
0.00672901
0.00608899
0.00558031
0.00517745
0.00485751
0.00459927
0.00438308
0.00419558
0.00403188
0.00389542
0.102669
0.0735604
0.0518474
0.0387625
0.0307217
0.02528
0.0212303
0.0180267
0.0154173
0.0132691
0.011498
0.0100387
0.00883878
0.00785483
0.00705053
0.00639506
0.00586208
0.0054288
0.00507495
0.0047813
0.00452921
0.00430653
0.00411058
0.00394216
0.0894993
0.0641349
0.0464964
0.0358947
0.0291958
0.0244977
0.0208868
0.0179584
0.0155293
0.0135006
0.0118058
0.0103923
0.00921581
0.00823836
0.00742713
0.00675386
0.00619438
0.00572803
0.00533671
0.00500303
0.0047094
0.00444509
0.00420999
0.00400097
0.0792666
0.0570558
0.0424642
0.0337385
0.0280892
0.0239905
0.0207414
0.0180429
0.0157654
0.0138355
0.0122024
0.0108242
0.00966382
0.00868769
0.00786596
0.00717237
0.00658428
0.00608251
0.00565051
0.00527226
0.00493096
0.00461723
0.0043342
0.00407375
0.0716082
0.0519458
0.0395977
0.0322551
0.0274039
0.0237739
0.0208063
0.0182962
0.01614
0.0142867
0.0126993
0.0113447
0.0101919
0.00921107
0.00837473
0.00765801
0.00703923
0.00649996
0.00602444
0.00559732
0.00520198
0.00482995
0.00448833
0.00416295
0.0662108
0.0485022
0.0377668
0.0314094
0.0271408
0.0238403
0.0211037
0.0187357
0.0166687
0.0148684
0.013309
0.0119649
0.01081
0.00981756
0.00896175
0.00821864
0.00756689
0.00698815
0.00646662
0.00598671
0.00553101
0.00509112
0.00467842
0.0042714
0.0628287
0.0465063
0.0368666
0.0311799
0.0272607
0.0242306
0.0216504
0.0193792
0.0173682
0.0155959
0.0140454
0.0126973
0.0115293
0.0105172
0.00963612
0.00886266
0.00817523
0.00755488
0.00698499
0.00644874
0.00592668
0.00540906
0.00491118
0.00440216
0.0613142
0.0458612
0.0368176
0.031449
0.02783
0.0249545
0.022467
0.0202468
0.0182574
0.0164865
0.0149242
0.013556
0.0123626
0.0113213
0.0104082
0.00959943
0.00887283
0.00820828
0.00758753
0.00699154
0.0063975
0.00579229
0.00519368
0.00455813
0.0613951
0.0462048
0.0374985
0.0323696
0.0288497
0.0260355
0.023578
0.0213624
0.0193586
0.0175607
0.015964
0.0145578
0.013325
0.0122439
0.0112904
0.0104402
0.00966992
0.00895768
0.00828298
0.00762368
0.00695221
0.0062497
0.00553338
0.00474139
0.0629921
0.0478147
0.0390814
0.0339003
0.0303467
0.0275053
0.0250146
0.0227553
0.0206989
0.0188432
0.0171875
0.0157235
0.0144356
0.0133022
0.0122989
0.0114
0.0105803
0.00981592
0.00908326
0.00835636
0.00760182
0.00679228
0.00593936
0.00495262
0.0664089
0.050689
0.0415393
0.0360886
0.0323669
0.0294077
0.0268174
0.0244629
0.0223125
0.0203655
0.0186232
0.0170794
0.0157189
0.0145197
0.013456
0.0125005
0.0116256
0.0108041
0.0100089
0.00920941
0.00836553
0.0074391
0.0064278
0.00519207
0.0716087
0.0548884
0.0449641
0.0390136
0.0349782
0.0318024
0.02904
0.0265339
0.0242437
0.0221676
0.020308
0.0186596
0.0172071
0.0159277
0.0147937
0.0137751
0.0128413
0.0119609
0.011102
0.0102273
0.00928921
0.0082369
0.00704165
0.00547089
0.078763
0.0606013
0.0495074
0.0427933
0.0382757
0.0347701
0.0317536
0.0290317
0.0265496
0.0243014
0.0222892
0.020508
0.0189423
0.0175681
0.0163559
0.0152728
0.014285
0.0133568
0.0124501
0.0115196
0.0105061
0.00933766
0.00793162
0.0059207
0.0880658
0.0680717
0.0553755
0.0475879
0.0423863
0.038417
0.0350504
0.0320388
0.0293045
0.0268338
0.0246272
0.02268
0.0209767
0.0194925
0.0181969
0.0170558
0.0160341
0.0150958
0.0142025
0.0133094
0.0123549
0.0112503
0.00992885
0.00882408
0.0996444
0.0775483
0.0628082
0.0535934
0.0474686
0.0428762
0.0390473
0.0356599
0.0326029
0.02985
0.0273986
0.025244
0.0233718
0.0217576
0.0203712
0.0191802
0.018153
0.0172622
0.0164878
0.0158189
0.0152503
0.0147908
0.014572
0.015131
0.113481
0.0891794
0.0720194
0.0610151
0.0537006
0.0483037
0.0438847
0.0400241
0.0365636
0.0334578
0.0306993
0.028284
0.0261991
0.0244223
0.0229255
0.0216795
0.0206589
0.0198478
0.0192444
0.0188627
0.0187271
0.0188846
0.0194974
0.0207943
0.128997
0.102784
0.0830696
0.0700008
0.0612458
0.0548593
0.0497174
0.0452809
0.041329
0.0377903
0.03465
0.0319052
0.029547
0.0275568
0.0259107
0.0245848
0.0235618
0.0228368
0.0224207
0.0223363
0.0225904
0.0232415
0.0244047
0.0260842
0.144284
0.117541
0.0956626
0.0805135
0.0701764
0.0626609
0.0566859
0.0515835
0.0470582
0.0430048
0.0393994
0.0362419
0.0335301
0.031253
0.0293938
0.0279367
0.0268741
0.0262115
0.0259674
0.026142
0.0267459
0.0278189
0.029392
0.0313665
0.155737
0.132012
0.108898
0.0921247
0.0803306
0.0716889
0.064852
0.0590458
0.0538989
0.0492679
0.0451195
0.0414594
0.0382979
0.035637
0.0334723
0.0318004
0.030626
0.0299652
0.0298414
0.0302089
0.031118
0.0325408
0.0344634
0.0367123
0.155786
0.140941
0.120274
0.103557
0.0910532
0.0816168
0.0740795
0.0676553
0.0619245
0.0567128
0.0519802
0.0477441
0.0440352
0.0408778
0.0382886
0.0362835
0.0348851
0.0341239
0.0340301
0.0345088
0.0356432
0.0373551
0.0395893
0.0421127
0.141043
0.138628
0.127514
0.112998
0.101094
0.091656
0.083887
0.0771439
0.0710265
0.0653528
0.0600854
0.0552606
0.0509396
0.0471813
0.044036
0.0415502
0.0397749
0.0387647
0.0385657
0.0390509
0.0402959
0.0422245
0.0447326
0.0475358
0.00418908
0.0103098
0.0205288
0.0316797
0.0396914
0.052007
0.0166744
0.0278562
0.0427089
0.0548593
0.0638917
0.0761603
0.0206645
0.0362105
0.0538019
0.0670119
0.0775473
0.0891194
0.0226738
0.0420558
0.0616049
0.075873
0.087497
0.0991218
0.0240438
0.0470314
0.0680342
0.0833338
0.0959532
0.108026
0.0249603
0.0517525
0.0737102
0.0900036
0.103601
0.116238
0.0266572
0.0561969
0.0788345
0.0961016
0.110683
0.123967
0.0285677
0.0602287
0.083443
0.101687
0.11727
0.131269
0.0301677
0.0637324
0.0875172
0.106759
0.123353
0.138098
0.0314393
0.0666545
0.0910335
0.111292
0.128888
0.144372
0.0323886
0.0689664
0.0939709
0.115253
0.133823
0.149998
0.033037
0.0706422
0.0963062
0.118604
0.138102
0.154892
0.0334205
0.0716449
0.0980092
0.1213
0.141676
0.158991
0.0334197
0.0719654
0.0990392
0.123294
0.144495
0.162254
0.032996
0.0715945
0.099322
0.124526
0.146517
0.164666
0.0321352
0.0704769
0.0988244
0.124904
0.147693
0.166236
0.030833
0.0685447
0.0974293
0.124363
0.147958
0.167
0.0290918
0.0657023
0.0950069
0.122752
0.147236
0.167004
0.0269228
0.061808
0.0913744
0.119875
0.14535
0.166147
0.0249786
0.0566328
0.0862561
0.115433
0.142013
0.164265
0.0234635
0.0499148
0.079192
0.108936
0.13671
0.161003
0.0213626
0.041231
0.0692925
0.0994896
0.128326
0.15535
0.0170341
0.0288267
0.0543812
0.0851608
0.114624
0.143504
0.00419709
0.0105795
0.0315649
0.0628794
0.0924938
0.116282
0.131719
0.13522
0.130307
0.11948
0.109411
0.100793
0.0934552
0.0869036
0.0807936
0.0749557
0.0693585
0.0640587
0.0591535
0.0547478
0.0509394
0.047821
0.0454868
0.0440321
0.0435374
0.0438972
0.0450874
0.0471312
0.0498575
0.0529423
0.132176
0.144
0.138068
0.126542
0.116521
0.108655
0.102021
0.0960852
0.0904704
0.0849259
0.0793907
0.0739177
0.068626
0.0636629
0.0591811
0.0553316
0.0522682
0.050147
0.0491059
0.0491793
0.0500961
0.0520822
0.0549379
0.0582981
0.126602
0.161215
0.157925
0.144003
0.129113
0.118202
0.110518
0.10462
0.0994366
0.0944564
0.0894074
0.084208
0.0789264
0.0737067
0.0687321
0.0642055
0.0603442
0.0573803
0.0555416
0.0550036
0.055526
0.0571483
0.0599773
0.0635767
0.126035
0.164651
0.178582
0.172943
0.156942
0.138908
0.125265
0.115791
0.109082
0.10374
0.0988969
0.094134
0.0892422
0.0842034
0.0791333
0.0742229
0.069716
0.0659013
0.063098
0.0616008
0.0615763
0.0625483
0.0650056
0.0687649
0.129584
0.16397
0.189141
0.196367
0.190527
0.1754
0.156252
0.139292
0.126215
0.11677
0.109813
0.104213
0.0992106
0.094391
0.0895464
0.0846707
0.0799094
0.0755161
0.0718367
0.0692739
0.0682065
0.0685424
0.0702264
0.0739015
0.135128
0.164696
0.192949
0.210898
0.215643
0.210622
0.197417
0.178751
0.159678
0.142758
0.129218
0.118991
0.111271
0.10511
0.0997858
0.0948555
0.090097
0.0855193
0.0813271
0.0778828
0.075642
0.0750948
0.0759612
0.0789853
0.141627
0.167643
0.195147
0.217895
0.231739
0.23561
0.23168
0.220676
0.20349
0.18393
0.164424
0.146909
0.132479
0.121259
0.112677
0.105924
0.100298
0.0953379
0.090833
0.086852
0.0836991
0.0819139
0.082054
0.0841779
0.148474
0.172047
0.197732
0.221553
0.240029
0.251261
0.254759
0.251809
0.24282
0.227545
0.208767
0.188394
0.168324
0.150173
0.134949
0.122891
0.113603
0.106394
0.100612
0.0958246
0.0918862
0.0889726
0.0880037
0.089336
0.155245
0.177109
0.200821
0.223936
0.243922
0.259006
0.268257
0.271382
0.269173
0.261817
0.248525
0.231284
0.211454
0.190559
0.170192
0.151735
0.136106
0.123585
0.113899
0.106486
0.100795
0.096461
0.0937903
0.094306
0.161628
0.182177
0.203945
0.225525
0.245139
0.261454
0.273607
0.281179
0.283918
0.282212
0.276075
0.264654
0.249352
0.231005
0.210741
0.189848
0.16969
0.151459
0.135949
0.12343
0.113732
0.106441
0.100917
0.099723
0.167379
0.186749
0.206556
0.226133
0.244379
0.260308
0.273248
0.282752
0.288593
0.290702
0.289352
0.284368
0.274868
0.261688
0.245425
0.226851
0.206924
0.186744
0.16745
0.150022
0.135145
0.123088
0.113414
0.108503
0.172317
0.19046
0.208202
0.225465
0.241652
0.256134
0.268456
0.278317
0.285524
0.289935
0.29139
0.290031
0.28567
0.278117
0.26759
0.254133
0.238115
0.220283
0.201516
0.182756
0.164939
0.148809
0.134811
0.125309
0.176322
0.193073
0.208552
0.223254
0.236939
0.24931
0.260115
0.269187
0.276409
0.281686
0.284919
0.286001
0.284864
0.281281
0.275218
0.267047
0.256762
0.244245
0.229616
0.213451
0.196556
0.179739
0.164136
0.152545
0.179332
0.194473
0.207517
0.219426
0.230338
0.240223
0.249012
0.256653
0.263099
0.268298
0.272187
0.274643
0.275584
0.274876
0.272435
0.268066
0.261865
0.254007
0.244717
0.233887
0.221649
0.208358
0.195501
0.186179
0.181337
0.194638
0.205072
0.214067
0.222094
0.229365
0.235968
0.241947
0.247304
0.251997
0.255955
0.25907
0.261207
0.262212
0.26205
0.260575
0.257692
0.253331
0.24748
0.240437
0.232636
0.224744
0.217625
0.212372
0.18237
0.193624
0.201335
0.207402
0.21259
0.217316
0.221793
0.226144
0.230416
0.23456
0.238459
0.241943
0.244815
0.246905
0.248004
0.248164
0.247229
0.24515
0.241944
0.237713
0.232695
0.227426
0.222717
0.218201
0.182482
0.191522
0.196496
0.199753
0.202289
0.204682
0.207235
0.21015
0.213485
0.217178
0.221072
0.224882
0.228327
0.231156
0.233162
0.234195
0.234318
0.23339
0.231433
0.228521
0.224846
0.220763
0.216563
0.211379
0.18175
0.18845
0.1908
0.191502
0.191714
0.192126
0.193058
0.194759
0.197301
0.200624
0.204538
0.208684
0.212639
0.216055
0.218695
0.220398
0.221156
0.220947
0.21976
0.217633
0.214698
0.211097
0.20679
0.201598
0.180224
0.184587
0.184603
0.183117
0.18144
0.180352
0.180035
0.180745
0.182613
0.185587
0.189445
0.193808
0.197902
0.201299
0.203907
0.205691
0.206626
0.206738
0.206107
0.204746
0.202764
0.200165
0.196739
0.193015
0.17792
0.180251
0.178223
0.175131
0.172244
0.170211
0.16933
0.169631
0.171558
0.174563
0.177764
0.180736
0.183845
0.185615
0.186469
0.186611
0.186199
0.185354
0.184028
0.182246
0.180081
0.177525
0.174612
0.172149
0.174918
0.175552
0.172113
0.168247
0.165076
0.16325
0.162938
0.164473
0.167537
0.171112
0.173719
0.17443
0.172628
0.170097
0.166718
0.163167
0.159739
0.156429
0.153076
0.149408
0.145381
0.140913
0.136173
0.132342
0.171076
0.170706
0.166911
0.16342
0.161274
0.160854
0.162371
0.16591
0.170499
0.174359
0.175964
0.174166
0.167867
0.159295
0.150853
0.1433
0.136937
0.131538
0.12665
0.121918
0.116985
0.111636
0.106192
0.102465
0.165822
0.16624
0.163599
0.161972
0.162092
0.164373
0.169083
0.175437
0.181601
0.185178
0.184571
0.178764
0.166599
0.153612
0.141782
0.132124
0.124749
0.119078
0.114251
0.109627
0.104989
0.100192
0.0958393
0.0936497
0.159277
0.163472
0.163687
0.164817
0.168393
0.174776
0.183203
0.191953
0.198255
0.199511
0.194826
0.181442
0.164722
0.148384
0.135051
0.125215
0.11816
0.112846
0.108313
0.104104
0.100071
0.0963026
0.0934066
0.0923198
0.00378425
0.00728667
0.0183855
0.0388623
0.0714074
0.115016
0.0160204
0.0231406
0.0395631
0.0613577
0.0904294
0.126576
0.0200954
0.0328302
0.0523315
0.0754104
0.103319
0.134869
0.0222857
0.0397692
0.0611379
0.0848968
0.111901
0.14092
0.0239253
0.0451923
0.0675807
0.0915308
0.117862
0.145827
0.0249836
0.0495331
0.0722768
0.0960921
0.121919
0.149655
0.0255212
0.0529922
0.0755791
0.0990272
0.124431
0.152359
0.0265718
0.0554761
0.0777255
0.100615
0.125604
0.15392
0.0274466
0.0571338
0.0788865
0.101046
0.125577
0.154353
0.0280515
0.0580616
0.0791914
0.100494
0.124443
0.153716
0.0283517
0.0583301
0.0787651
0.0990124
0.122294
0.152095
0.0283389
0.0580049
0.0776415
0.0967268
0.119212
0.149584
0.0280035
0.0570934
0.0759116
0.093724
0.115268
0.146259
0.0273715
0.0556198
0.0736334
0.0900877
0.110534
0.142164
0.0265443
0.0535642
0.0708544
0.0859022
0.105086
0.137333
0.0256056
0.0509284
0.0676163
0.0812563
0.0990342
0.131867
0.024977
0.0477968
0.0639659
0.0762421
0.0925283
0.126042
0.0248324
0.0443961
0.0599673
0.0709455
0.0857547
0.120143
0.0242103
0.0410094
0.0556855
0.0654225
0.0787856
0.11411
0.0231088
0.0375549
0.0511046
0.0596678
0.0715778
0.107795
0.0215412
0.0338266
0.046036
0.0535685
0.0639334
0.101065
0.019516
0.0293696
0.0399507
0.0467006
0.0552523
0.0930628
0.0156846
0.0227807
0.0312978
0.0377009
0.0438279
0.0820954
0.00392423
0.0080995
0.0135773
0.0192758
0.0237047
0.0534196
0.156619
0.164559
0.168025
0.173232
0.181346
0.191924
0.203303
0.212576
0.216288
0.212906
0.199663
0.180317
0.159606
0.141951
0.129152
0.120423
0.11431
0.109672
0.105665
0.101891
0.0983958
0.0956847
0.0938197
0.0939018
0.158807
0.169934
0.177815
0.187721
0.200275
0.214196
0.226533
0.233222
0.231232
0.219092
0.198045
0.17361
0.151671
0.135447
0.124703
0.117432
0.112011
0.107641
0.103788
0.100398
0.0977118
0.0961362
0.0960202
0.0970586
0.163664
0.179476
0.1922
0.20694
0.22333
0.238709
0.248866
0.248529
0.237998
0.216217
0.188506
0.162514
0.142847
0.129783
0.121105
0.114649
0.109447
0.104987
0.101213
0.0983685
0.0967254
0.0964986
0.0974861
0.0994921
0.169841
0.191043
0.209409
0.228894
0.247722
0.261555
0.264259
0.255237
0.234116
0.203595
0.173857
0.150926
0.135572
0.125347
0.117768
0.111503
0.106103
0.101607
0.0982432
0.0962232
0.0956865
0.0963245
0.0980809
0.100343
0.176203
0.203279
0.227665
0.251181
0.270033
0.277043
0.270379
0.251364
0.218743
0.185682
0.159707
0.142124
0.130274
0.121354
0.113857
0.107306
0.101781
0.0975444
0.0948134
0.0936931
0.0939869
0.0953536
0.0978121
0.100226
0.182121
0.21519
0.245394
0.271296
0.285711
0.282684
0.266957
0.234285
0.198326
0.169425
0.149581
0.135992
0.125587
0.116714
0.108854
0.102083
0.0966761
0.09289
0.0908494
0.0905128
0.09134
0.0933889
0.0961571
0.0986197
0.187185
0.226154
0.261369
0.286881
0.291348
0.280333
0.250327
0.211846
0.180201
0.158139
0.142759
0.130764
0.120394
0.111102
0.102937
0.0961658
0.091071
0.0878276
0.0864356
0.086634
0.0879328
0.0903678
0.0932447
0.0956616
0.191235
0.235916
0.274576
0.293848
0.28972
0.266421
0.226775
0.192592
0.168219
0.15091
0.13718
0.125169
0.114301
0.104615
0.0963559
0.0897993
0.0851468
0.0824538
0.0816038
0.0821374
0.0838216
0.0864012
0.0892783
0.0916106
0.194293
0.244482
0.284131
0.293827
0.27936
0.243667
0.207049
0.180177
0.160805
0.145216
0.131404
0.118787
0.107425
0.0975631
0.0894457
0.0832575
0.079082
0.0768619
0.0763959
0.0771546
0.0790352
0.0816301
0.0844266
0.0866494
0.196512
0.251878
0.287585
0.285893
0.261525
0.223457
0.194199
0.172783
0.155286
0.139529
0.124951
0.111695
0.100054
0.0902647
0.082467
0.0767174
0.0729829
0.0711213
0.070886
0.0717569
0.0736787
0.0761927
0.0788533
0.0809521
0.198127
0.258183
0.285868
0.274255
0.241595
0.21044
0.18713
0.167779
0.149991
0.133241
0.117818
0.104139
0.0924876
0.0829781
0.0756056
0.0702969
0.0669239
0.0652927
0.0651462
0.0660201
0.0678549
0.0702127
0.0726983
0.0746675
0.199319
0.262867
0.278194
0.259779
0.228271
0.203791
0.182963
0.163246
0.144181
0.126293
0.110229
0.0964083
0.0849783
0.0758859
0.0689772
0.0640665
0.0609568
0.059431
0.0592462
0.0600192
0.061659
0.0637959
0.0660751
0.0679145
0.200117
0.26483
0.267906
0.246928
0.222497
0.20092
0.179685
0.158328
0.137711
0.118855
0.102443
0.0887432
0.0777055
0.0691032
0.0626504
0.0580729
0.0551283
0.0535958
0.0532608
0.0538328
0.0551802
0.0570325
0.0590729
0.0607816
0.200274
0.264134
0.259491
0.240865
0.220927
0.199317
0.176148
0.152722
0.130675
0.111157
0.0946946
0.0813245
0.0707872
0.0626979
0.0566655
0.0523522
0.0494877
0.0478561
0.0472751
0.047547
0.0485079
0.0500007
0.0517567
0.0533277
0.199071
0.261426
0.254827
0.239604
0.221364
0.197842
0.171979
0.146465
0.123273
0.103422
0.0871659
0.0742766
0.0642957
0.0567094
0.0510509
0.0469413
0.0440935
0.042297
0.0413956
0.0412632
0.0417473
0.0427728
0.0441626
0.0455677
0.195588
0.259351
0.253617
0.241932
0.222813
0.195923
0.167061
0.13968
0.115703
0.0958325
0.0799887
0.06768
0.058275
0.0511643
0.045834
0.0418834
0.0390164
0.0370229
0.0357588
0.035124
0.0350394
0.0354264
0.0362775
0.0374216
0.190466
0.258314
0.256151
0.247303
0.22423
0.193187
0.161411
0.132532
0.108142
0.0885271
0.0732528
0.0615847
0.0527535
0.0460864
0.0410472
0.03723
0.0343362
0.0321513
0.0305254
0.0293537
0.0285583
0.0280952
0.0280291
0.0285774
0.186972
0.260326
0.263819
0.254038
0.225145
0.189528
0.155134
0.125182
0.100732
0.0816018
0.0670116
0.0560174
0.0477486
0.0414981
0.0367276
0.0330386
0.0301375
0.0278055
0.0258754
0.0242088
0.0226715
0.0211214
0.0194749
0.0182327
0.187002
0.267753
0.274825
0.260778
0.224759
0.184829
0.148331
0.11776
0.0935744
0.0751154
0.0612888
0.0509836
0.0432642
0.0374141
0.0329078
0.0293643
0.0265029
0.024109
0.0220067
0.0200325
0.0180062
0.0156991
0.0127777
0.00812985
0.195863
0.280777
0.287624
0.265488
0.222487
0.179141
0.141129
0.110377
0.0867363
0.0690923
0.0560792
0.0464641
0.0392806
0.0338234
0.0295918
0.0262301
0.0234794
0.0211438
0.0190653
0.017103
0.0151132
0.0129382
0.0103772
0.00675765
0.21187
0.298897
0.301379
0.268201
0.219148
0.172677
0.133643
0.103107
0.0802517
0.0635293
0.0513532
0.042415
0.0357479
0.0306737
0.0267241
0.0235721
0.0209836
0.0187844
0.0168373
0.015022
0.0132159
0.0112871
0.00910017
0.0062527
0.234843
0.321434
0.314999
0.269068
0.214204
0.165349
0.12591
0.0959922
0.0741311
0.0584043
0.0470661
0.0387779
0.0325979
0.0278862
0.0242098
0.0212703
0.0188559
0.0168102
0.015011
0.0133511
0.0117206
0.0100087
0.00813239
0.00585503
0.266651
0.347269
0.323657
0.266334
0.207386
0.157171
0.117989
0.0890708
0.0683758
0.0536871
0.0431684
0.0354931
0.0297641
0.0253867
0.0219638
0.0192239
0.0169749
0.0150755
0.0134155
0.0118992
0.0104298
0.00891851
0.00732337
0.00550729
0.313798
0.371868
0.327264
0.260557
0.198794
0.148243
0.109971
0.0823936
0.062991
0.0493524
0.0396192
0.0325133
0.0271967
0.0231234
0.0199317
0.0173748
0.0152784
0.0135147
0.0119846
0.0106032
0.00928697
0.00796732
0.00662846
0.00519025
)
;

boundaryField
{
    rotor
    {
        type            kqRWallFunction;
        value           nonuniform List<scalar> 
144
(
0.00499716
0.0341881
0.0747132
0.119851
0.153605
0.197601
0.00499716
0.0179323
0.0264065
0.0332123
0.0390499
0.0438934
0.0477553
0.0506804
0.0527321
0.0539838
0.0545156
0.054416
0.0537874
0.052652
0.0509118
0.0485383
0.0455212
0.0418486
0.0374975
0.0324341
0.0266311
0.023745
0.0193259
0.00496598
0.00496598
0.0160469
0.0408008
0.0795605
0.108407
0.120922
0.00503318
0.00987051
0.0194668
0.0400252
0.0745924
0.128462
0.00503318
0.0181124
0.0221266
0.0240648
0.0258635
0.0298332
0.0332758
0.0362105
0.0385424
0.0402212
0.04123
0.0415787
0.0413546
0.0405945
0.0395302
0.0383068
0.0367324
0.0346553
0.03194
0.0284731
0.0249904
0.0227796
0.0185829
0.00484664
0.00484664
0.020478
0.0478862
0.0727062
0.0975468
0.116465
0.00418908
0.0103098
0.0205288
0.0316797
0.0396914
0.052007
0.00418908
0.0166744
0.0206645
0.0226738
0.0240438
0.0249603
0.0266572
0.0285677
0.0301677
0.0314393
0.0323886
0.033037
0.0334205
0.0334197
0.032996
0.0321352
0.030833
0.0290918
0.0269228
0.0249786
0.0234635
0.0213626
0.0170341
0.00419709
0.00419709
0.0105795
0.0315649
0.0628794
0.0924938
0.116282
0.00378425
0.00728667
0.0183855
0.0388623
0.0714074
0.115016
0.00378425
0.0160204
0.0200954
0.0222857
0.0239253
0.0249836
0.0255212
0.0265718
0.0274466
0.0280515
0.0283517
0.0283389
0.0280035
0.0273715
0.0265443
0.0256056
0.024977
0.0248324
0.0242103
0.0231088
0.0215412
0.019516
0.0156846
0.00392423
0.00392423
0.0080995
0.0135773
0.0192758
0.0237047