/*--------------------------------*- C++ -*----------------------------------*\
  =========                 |
  \\      /  F ield         | OpenFOAM: The Open Source CFD Toolbox
   \\    /   O peration     | Website:  https://openfoam.org
    \\  /    A nd           | Version:  11
     \\/     M anipulation  |
\*---------------------------------------------------------------------------*/
FoamFile
{
    format      ascii;
    class       surfaceScalarField;
    location    "1.82";
    object      meshPhi;
}
// * * * * * * * * * * * * * * * * * * * * * * * * * * * * * * * * * * * * * //

dimensions      [0 3 -1 0 0 0 0];

internalField   nonuniform List<scalar> 
5640
(
1.36936e-16
9.81747e-07
2.42079e-16
1.37445e-06
3.7695e-16
1.76715e-06
-1.33932e-15
2.15984e-06
-3.68164e-15
2.55254e-06
2.94524e-06
5.95127e-15
1.81579e-18
9.81747e-07
-3.88832e-16
1.37445e-06
-2.60422e-15
1.76715e-06
1.94361e-15
2.15984e-06
8.06614e-15
2.55254e-06
2.94524e-06
-9.0299e-15
-1.16478e-16
9.81747e-07
1.86353e-16
1.37445e-06
-1.56241e-15
1.76715e-06
-4.21252e-15
2.15984e-06
-7.4985e-15
2.55254e-06
2.94524e-06
7.72276e-16
8.69544e-17
9.81747e-07
-1.0194e-16
1.37445e-06
2.69314e-15
1.76715e-06
7.44281e-15
2.15984e-06
3.25987e-15
2.55254e-06
2.94524e-06
-2.79812e-15
-4.83672e-17
9.81747e-07
3.95108e-17
1.37445e-06
1.9433e-16
1.76715e-06
-1.80613e-15
2.15984e-06
-4.20856e-15
2.55254e-06
2.94524e-06
5.01329e-15
-1.80097e-16
9.81747e-07
4.27425e-18
1.37445e-06
-1.8478e-15
1.76715e-06
-3.88612e-15
2.15984e-06
3.15709e-15
2.55254e-06
2.94524e-06
4.98059e-16
2.53989e-16
9.81747e-07
2.55372e-16
1.37445e-06
2.06597e-15
1.76715e-06
4.50407e-15
2.15984e-06
-2.30995e-15
2.55254e-06
2.94524e-06
5.40609e-16
2.16724e-17
9.81747e-07
-3.21743e-16
1.37445e-06
-1.14889e-15
1.76715e-06
-5.28566e-15
2.15984e-06
-3.76795e-16
2.55254e-06
2.94524e-06
-5.63992e-15
-1.43422e-16
9.81747e-07
1.66413e-16
1.37445e-06
4.19109e-15
1.76715e-06
6.34938e-15
2.15984e-06
-8.0576e-16
2.55254e-06
2.94524e-06
8.39368e-16
-6.87972e-17
9.81747e-07
-9.20569e-17
1.37445e-06
-2.76942e-15
1.76715e-06
-3.68895e-16
2.15984e-06
-1.45098e-15
2.55254e-06
2.94524e-06
-1.7655e-16
1.6636e-16
9.81747e-07
-8.87169e-17
1.37445e-06
5.69646e-16
1.76715e-06
-2.10356e-15
2.15984e-06
9.65997e-15
2.55254e-06
2.94524e-06
5.29017e-15
-1.77806e-16
9.81747e-07
-2.05416e-17
1.37445e-06
-3.45453e-16
1.76715e-06
-4.17269e-15
2.15984e-06
-2.62234e-15
2.55254e-06
2.94524e-06
5.36941e-15
1.77777e-16
9.81747e-07
2.04929e-17
1.37445e-06
3.45472e-16
1.76715e-06
4.17263e-15
2.15984e-06
2.6224e-15
2.55254e-06
2.94524e-06
-5.36949e-15
-1.66345e-16
9.81747e-07
8.86631e-17
1.37445e-06
-5.69636e-16
1.76715e-06
2.10348e-15
2.15984e-06
-9.65996e-15
2.55254e-06
2.94524e-06
-5.29019e-15
6.87753e-17
9.81747e-07
9.20331e-17
1.37445e-06
2.7693e-15
1.76715e-06
3.6873e-16
2.15984e-06
1.45084e-15
2.55254e-06
2.94524e-06
1.76698e-16
1.43407e-16
9.81747e-07
-1.66402e-16
1.37445e-06
-4.19116e-15
1.76715e-06
-6.34943e-15
2.15984e-06
8.05634e-16
2.55254e-06
2.94524e-06
-8.39297e-16
-2.16508e-17
9.81747e-07
3.21682e-16
1.37445e-06
1.14885e-15
1.76715e-06
5.28566e-15
2.15984e-06
3.76658e-16
2.55254e-06
2.94524e-06
5.63993e-15
-2.5398e-16
9.81747e-07
-2.55456e-16
1.37445e-06
-2.06592e-15
1.76715e-06
-4.50411e-15
2.15984e-06
2.30991e-15
2.55254e-06
2.94524e-06
-5.41022e-16
1.80092e-16
9.81747e-07
-4.34618e-18
1.37445e-06
1.84777e-15
1.76715e-06
3.88607e-15
2.15984e-06
-3.15705e-15
2.55254e-06
2.94524e-06
-4.983e-16
4.83674e-17
9.81747e-07
-3.95308e-17
1.37445e-06
-1.9439e-16
1.76715e-06
1.80608e-15
2.15984e-06
4.20854e-15
2.55254e-06
2.94524e-06
-5.01331e-15
-8.69489e-17
9.81747e-07
1.01865e-16
1.37445e-06
-2.69318e-15
1.76715e-06
-7.44277e-15
2.15984e-06
-3.25993e-15
2.55254e-06
2.94524e-06
2.79775e-15
1.16456e-16
9.81747e-07
-1.86424e-16
1.37445e-06
1.56237e-15
1.76715e-06
4.21255e-15
2.15984e-06
7.49833e-15
2.55254e-06
2.94524e-06
-7.72409e-16
-1.83232e-18
9.81747e-07
3.88746e-16
1.37445e-06
2.60407e-15
1.76715e-06
-1.94366e-15
2.15984e-06
-8.06624e-15
2.55254e-06
2.94524e-06
9.02978e-15
-1.36961e-16
-2.4211e-16
-3.77012e-16
1.33929e-15
3.68154e-15
-5.9514e-15
-1.13358e-14
4.53785e-06
-4.53785e-06
-4.81213e-16
5.23599e-06
-5.23599e-06
-5.35723e-15
5.93412e-06
-5.93412e-06
-1.13041e-14
6.63225e-06
-6.63225e-06
4.86927e-15
7.33038e-06
-7.33038e-06
-1.10918e-15
8.02851e-06
-8.02851e-06
-8.15795e-15
8.72664e-06
-8.72664e-06
1.30437e-14
9.42478e-06
-9.42478e-06
5.94915e-15
1.01229e-05
-1.01229e-05
-1.99729e-15
1.0821e-05
-1.0821e-05
2.43878e-14
1.15192e-05
-1.15192e-05
1.61894e-14
1.22173e-05
-1.22173e-05
-3.27867e-14
1.29154e-05
-1.29154e-05
-3.0528e-15
1.36136e-05
-1.36136e-05
-1.44398e-14
1.43117e-05
-1.43117e-05
-2.69045e-14
1.50098e-05
-1.50098e-05
7.73951e-15
1.5708e-05
-1.5708e-05
-4.4381e-15
1.64061e-05
-1.64061e-05
-1.80021e-14
1.71042e-05
-1.71042e-05
2.18188e-14
1.78024e-05
-1.78024e-05
8.21214e-15
1.85005e-05
-1.85005e-05
-6.08219e-15
1.91986e-05
-1.91986e-05
3.89196e-14
1.98967e-05
-1.98967e-05
2.05949e-05
-2.05949e-05
9.39904e-15
4.53785e-06
5.2013e-16
5.23599e-06
7.52865e-15
5.93412e-06
-4.41178e-15
6.63225e-06
3.78254e-15
7.33038e-06
1.33836e-14
8.02851e-06
-2.1093e-15
8.72664e-06
8.52864e-15
9.42478e-06
-1.00281e-14
1.01229e-05
1.86463e-15
1.0821e-05
-2.02017e-14
1.15192e-05
-7.01229e-15
1.22173e-05
7.51137e-15
1.29154e-05
2.36088e-14
1.36136e-05
-2.04134e-15
1.43117e-05
1.48309e-14
1.50098e-05
-1.3879e-14
1.5708e-05
2.39078e-15
1.64061e-05
2.04079e-14
1.71042e-05
-7.01712e-15
1.78024e-05
1.20652e-14
1.85005e-05
-2.59447e-14
1.91986e-05
1.84808e-15
1.98967e-05
2.05949e-05
-8.67628e-15
4.53785e-06
1.22923e-14
5.23599e-06
1.8835e-15
5.93412e-06
8.90239e-15
6.63225e-06
-5.10887e-15
7.33038e-06
-2.19914e-14
8.02851e-06
1.22645e-14
8.72664e-06
-5.37405e-15
9.42478e-06
4.45599e-15
1.01229e-05
-1.43068e-14
1.0821e-05
-7.32433e-15
1.15192e-05
7.04034e-15
1.22173e-05
2.39959e-14
1.29154e-05
-7.55463e-15
1.36136e-05
9.80006e-15
1.43117e-05
-1.62392e-14
1.50098e-05
4.02932e-14
1.5708e-05
1.44444e-14
1.64061e-05
-1.37073e-14
1.71042e-05
-7.89687e-15
1.78024e-05
-3.92538e-14
1.85005e-05
4.27505e-14
1.91986e-05
-8.85128e-15
1.98967e-05
2.05949e-05
5.98595e-15
4.53785e-06
2.18658e-16
5.23599e-06
-6.43567e-15
5.93412e-06
6.06376e-15
6.63225e-06
-2.09238e-15
7.33038e-06
1.61774e-14
8.02851e-06
-1.88311e-14
8.72664e-06
-2.35079e-15
9.42478e-06
9.17167e-15
1.01229e-05
-4.7113e-15
1.0821e-05
2.16283e-14
1.15192e-05
-2.96451e-14
1.22173e-05
-9.28895e-15
1.29154e-05
-1.89056e-14
1.36136e-05
4.466e-15
1.43117e-05
3.01539e-14
1.50098e-05
-2.62182e-14
1.5708e-05
4.35912e-16
1.64061e-05
-2.11701e-14
1.71042e-05
1.87139e-14
1.78024e-05
-3.92096e-15
1.85005e-05
-2.91611e-14
1.91986e-05
1.52308e-14
1.98967e-05
2.05949e-05
6.71491e-15
4.53785e-06
-7.30684e-15
5.23599e-06
1.11007e-14
5.93412e-06
-4.24126e-15
6.63225e-06
1.51026e-14
7.33038e-06
-5.20933e-15
8.02851e-06
1.70135e-14
8.72664e-06
-3.94103e-15
9.42478e-06
-2.94046e-16
1.01229e-05
6.60831e-15
1.0821e-05
1.37052e-14
1.15192e-05
1.01841e-14
1.22173e-05
1.82183e-14
1.29154e-05
1.43672e-14
1.36136e-05
2.33402e-14
1.43117e-05
-2.53445e-14
1.50098e-05
2.90737e-14
1.5708e-05
-7.82995e-15
1.64061e-05
3.54176e-14
1.71042e-05
-4.51162e-15
1.78024e-05
4.23669e-14
1.85005e-05
-5.85789e-16
1.91986e-05
-8.7331e-15
1.98967e-05
2.05949e-05
-4.63064e-15
4.53785e-06
5.79727e-15
5.23599e-06
-1.61504e-14
5.93412e-06
-5.97435e-15
6.63225e-06
-8.55578e-15
7.33038e-06
4.22317e-15
8.02851e-06
-8.18758e-15
8.72664e-06
6.99903e-15
9.42478e-06
-2.42298e-14
1.01229e-05
-7.7709e-15
1.0821e-05
-2.27659e-14
1.15192e-05
8.34991e-15
1.22173e-05
-7.40384e-15
1.29154e-05
2.82644e-14
1.36136e-05
-4.57101e-14
1.43117e-05
-8.22283e-15
1.50098e-05
-2.82268e-14
1.5708e-05
-2.34274e-15
1.64061e-05
-6.94792e-15
1.71042e-05
2.21499e-14
1.78024e-05
-3.41128e-14
1.85005e-05
-3.73997e-15
1.91986e-05
-3.23473e-14
1.98967e-05
2.05949e-05
-8.92512e-15
4.53785e-06
-2.28886e-15
5.23599e-06
-2.22384e-15
5.93412e-06
6.61595e-15
6.63225e-06
-3.38813e-15
7.33038e-06
-3.90718e-15
8.02851e-06
-6.4189e-15
8.72664e-06
-7.15893e-15
9.42478e-06
6.81151e-15
1.01229e-05
6.98253e-15
1.0821e-05
-9.06475e-15
1.15192e-05
6.75897e-15
1.22173e-05
-2.88895e-14
1.29154e-05
-1.22352e-14
1.36136e-05
4.80541e-15
1.43117e-05
2.50257e-14
1.50098e-05
3.85958e-15
1.5708e-05
3.60776e-15
1.64061e-05
-2.04849e-14
1.71042e-05
-2.1759e-14
1.78024e-05
3.46562e-15
1.85005e-05
2.90416e-14
1.91986e-05
-1.66452e-15
1.98967e-05
2.05949e-05
6.21571e-15
4.53785e-06
-3.8791e-15
5.23599e-06
1.54221e-14
5.93412e-06
-7.06499e-15
6.63225e-06
-2.21054e-15
7.33038e-06
1.42969e-15
8.02851e-06
-5.49313e-15
8.72664e-06
1.32256e-14
9.42478e-06
6.04563e-15
1.01229e-05
-1.74511e-14
1.0821e-05
2.08867e-14
1.15192e-05
-2.14463e-14
1.22173e-05
1.91338e-14
1.29154e-05
-7.31708e-15
1.36136e-05
3.84874e-14
1.43117e-05
-1.29223e-14
1.50098e-05
-1.88251e-15
1.5708e-05
5.71876e-15
1.64061e-05
-7.58836e-15
1.71042e-05
2.76573e-14
1.78024e-05
1.40988e-14
1.85005e-05
-5.31433e-14
1.91986e-05
3.90832e-14
1.98967e-05
2.05949e-05
-1.49898e-15
4.53785e-06
1.0897e-14
5.23599e-06
-6.59963e-15
5.93412e-06
7.26575e-15
6.63225e-06
6.17563e-15
7.33038e-06
2.4883e-15
8.02851e-06
-9.64538e-16
8.72664e-06
-4.36537e-15
9.42478e-06
-8.90105e-15
1.01229e-05
1.38632e-14
1.0821e-05
1.06898e-14
1.15192e-05
6.25175e-15
1.22173e-05
-1.27315e-16
1.29154e-05
-3.43742e-15
1.36136e-05
-1.1044e-14
1.43117e-05
-1.7764e-14
1.50098e-05
1.76801e-14
1.5708e-05
9.95322e-15
1.64061e-05
3.32902e-15
1.71042e-05
-3.29705e-14
1.78024e-05
-1.04243e-14
1.85005e-05
3.00659e-14
1.91986e-05
-5.99932e-14
1.98967e-05
2.05949e-05
5.17003e-15
4.53785e-06
-7.45562e-15
5.23599e-06
-7.56649e-16
5.93412e-06
6.83961e-15
6.63225e-06
-9.97441e-15
7.33038e-06
-1.66511e-15
8.02851e-06
9.21916e-15
8.72664e-06
-1.34596e-14
9.42478e-06
2.32211e-14
1.01229e-05
1.04728e-14
1.0821e-05
-1.72729e-14
1.15192e-05
-3.02659e-15
1.22173e-05
1.13992e-14
1.29154e-05
-1.98156e-14
1.36136e-05
-4.68037e-15
1.43117e-05
5.03069e-14
1.50098e-05
-2.40487e-14
1.5708e-05
-6.66043e-15
1.64061e-05
1.42599e-14
1.71042e-05
1.64969e-15
1.78024e-05
-6.81398e-15
1.85005e-05
1.44405e-14
1.91986e-05
5.07566e-14
1.98967e-05
2.05949e-05
-6.19739e-15
4.53785e-06
2.81699e-17
5.23599e-06
1.1511e-14
5.93412e-06
-2.06263e-14
6.63225e-06
5.36684e-15
7.33038e-06
1.22089e-15
8.02851e-06
-4.74023e-17
8.72664e-06
1.23929e-14
9.42478e-06
-1.32264e-14
1.01229e-05
-1.8894e-14
1.0821e-05
-4.96626e-15
1.15192e-05
-7.1539e-15
1.22173e-05
-1.48864e-14
1.29154e-05
3.53406e-14
1.36136e-05
5.02803e-19
1.43117e-05
-4.31376e-14
1.50098e-05
1.35631e-14
1.5708e-05
-2.82564e-14
1.64061e-05
2.45365e-15
1.71042e-05
-1.02399e-14
1.78024e-05
2.38034e-14
1.85005e-05
1.3875e-14
1.91986e-05
-4.55656e-14
1.98967e-05
2.05949e-05
-1.90696e-15
4.53785e-06
1.13049e-15
5.23599e-06
-2.16625e-14
5.93412e-06
9.62349e-15
6.63225e-06
1.51372e-14
7.33038e-06
-1.40654e-14
8.02851e-06
8.0928e-15
8.72664e-06
-2.69605e-14
9.42478e-06
-1.96632e-15
1.01229e-05
2.97159e-14
1.0821e-05
-1.17455e-14
1.15192e-05
1.98676e-14
1.22173e-05
-2.74443e-14
1.29154e-05
-2.06164e-14
1.36136e-05
1.60427e-14
1.43117e-05
-4.61386e-15
1.50098e-05
4.69136e-15
1.5708e-05
4.79667e-14
1.64061e-05
-1.37396e-14
1.71042e-05
3.23712e-14
1.78024e-05
-3.51863e-14
1.85005e-05
-2.4903e-14
1.91986e-05
7.19153e-14
1.98967e-05
2.05949e-05
1.90634e-15
4.53785e-06
-1.13093e-15
5.23599e-06
2.16615e-14
5.93412e-06
-9.62449e-15
6.63225e-06
-1.51372e-14
7.33038e-06
1.40655e-14
8.02851e-06
-8.094e-15
8.72664e-06
2.6959e-14
9.42478e-06
1.96595e-15
1.01229e-05
-2.97177e-14
1.0821e-05
1.17445e-14
1.15192e-05
-1.98681e-14
1.22173e-05
2.74436e-14
1.29154e-05
2.06172e-14
1.36136e-05
-1.60383e-14
1.43117e-05
4.61245e-15
1.50098e-05
-4.69454e-15
1.5708e-05
-4.79702e-14
1.64061e-05
1.37379e-14
1.71042e-05
-3.2376e-14
1.78024e-05
3.51846e-14
1.85005e-05
2.49074e-14
1.91986e-05
-7.19169e-14
1.98967e-05
2.05949e-05
6.1969e-15
4.53785e-06
-2.88686e-17
5.23599e-06
-1.15117e-14
5.93412e-06
2.06257e-14
6.63225e-06
-5.36725e-15
7.33038e-06
-1.22224e-15
8.02851e-06
4.68381e-17
8.72664e-06
-1.23942e-14
9.42478e-06
1.32256e-14
1.01229e-05
1.88936e-14
1.0821e-05
4.96305e-15
1.15192e-05
7.15302e-15
1.22173e-05
1.48854e-14
1.29154e-05
-3.53385e-14
1.36136e-05
9.0531e-19
1.43117e-05
4.31366e-14
1.50098e-05
-1.35652e-14
1.5708e-05
2.82546e-14
1.64061e-05
-2.45489e-15
1.71042e-05
1.02353e-14
1.78024e-05
-2.38033e-14
1.85005e-05
-1.38796e-14
1.91986e-05
4.55657e-14
1.98967e-05
2.05949e-05
-5.17009e-15
4.53785e-06
7.4555e-15
5.23599e-06
7.56718e-16
5.93412e-06
-6.83969e-15
6.63225e-06
9.97412e-15
7.33038e-06
1.66382e-15
8.02851e-06
-9.22062e-15
8.72664e-06
1.34596e-14
9.42478e-06
-2.32208e-14
1.01229e-05
-1.04738e-14
1.0821e-05
1.72728e-14
1.15192e-05
3.02687e-15
1.22173e-05
-1.14e-14
1.29154e-05
1.98144e-14
1.36136e-05
4.67666e-15
1.43117e-05
-5.03065e-14
1.50098e-05
2.40459e-14
1.5708e-05
6.6553e-15
1.64061e-05
-1.42582e-14
1.71042e-05
-1.65261e-15
1.78024e-05
6.80654e-15
1.85005e-05
-1.44415e-14
1.91986e-05
-5.07616e-14
1.98967e-05
2.05949e-05
1.49887e-15
4.53785e-06
-1.08972e-14
5.23599e-06
6.59928e-15
5.93412e-06
-7.26589e-15
6.63225e-06
-6.17542e-15
7.33038e-06
-2.48937e-15
8.02851e-06
9.64164e-16
8.72664e-06
4.36516e-15
9.42478e-06
8.90075e-15
1.01229e-05
-1.38637e-14
1.0821e-05
-1.069e-14
1.15192e-05
-6.25077e-15
1.22173e-05
1.28095e-16
1.29154e-05
3.4366e-15
1.36136e-05
1.10425e-14
1.43117e-05
1.77655e-14
1.50098e-05
-1.76834e-14
1.5708e-05
-9.95747e-15
1.64061e-05
-3.32889e-15
1.71042e-05
3.29659e-14
1.78024e-05
1.04191e-14
1.85005e-05
-3.00689e-14
1.91986e-05
5.99908e-14
1.98967e-05
2.05949e-05
-6.21573e-15
4.53785e-06
3.87901e-15
5.23599e-06
-1.54225e-14
5.93412e-06
7.06405e-15
6.63225e-06
2.20994e-15
7.33038e-06
-1.4299e-15
8.02851e-06
5.4921e-15
8.72664e-06
-1.32268e-14
9.42478e-06
-6.04569e-15
1.01229e-05
1.74498e-14
1.0821e-05
-2.08877e-14
1.15192e-05
2.14447e-14
1.22173e-05
-1.91348e-14
1.29154e-05
7.31664e-15
1.36136e-05
-3.84869e-14
1.43117e-05
1.29227e-14
1.50098e-05
1.88119e-15
1.5708e-05
-5.71961e-15
1.64061e-05
7.58648e-15
1.71042e-05
-2.76571e-14
1.78024e-05
-1.40968e-14
1.85005e-05
5.31355e-14
1.91986e-05
-3.90869e-14
1.98967e-05
2.05949e-05
8.92493e-15
4.53785e-06
2.28878e-15
5.23599e-06
2.22391e-15
5.93412e-06
-6.61634e-15
6.63225e-06
3.38829e-15
7.33038e-06
3.90677e-15
8.02851e-06
6.41769e-15
8.72664e-06
7.15826e-15
9.42478e-06
-6.80964e-15
1.01229e-05
-6.98218e-15
1.0821e-05
9.06523e-15
1.15192e-05
-6.75988e-15
1.22173e-05
2.88861e-14
1.29154e-05
1.22324e-14
1.36136e-05
-4.80641e-15
1.43117e-05
-2.50267e-14
1.50098e-05
-3.86033e-15
1.5708e-05
-3.60789e-15
1.64061e-05
2.04826e-14
1.71042e-05
2.17587e-14
1.78024e-05
-3.46775e-15
1.85005e-05
-2.90425e-14
1.91986e-05
1.6633e-15
1.98967e-05
2.05949e-05
4.63038e-15
4.53785e-06
-5.7977e-15
5.23599e-06
1.61504e-14
5.93412e-06
5.97502e-15
6.63225e-06
8.55519e-15
7.33038e-06
-4.22457e-15
8.02851e-06
8.18762e-15
8.72664e-06
-6.99893e-15
9.42478e-06
2.42297e-14
1.01229e-05
7.76876e-15
1.0821e-05
2.2763e-14
1.15192e-05
-8.35205e-15
1.22173e-05
7.40332e-15
1.29154e-05
-2.82676e-14
1.36136e-05
4.57069e-14
1.43117e-05
8.21906e-15
1.50098e-05
2.8226e-14
1.5708e-05
2.34068e-15
1.64061e-05
6.94172e-15
1.71042e-05
-2.21525e-14
1.78024e-05
3.41108e-14
1.85005e-05
3.74313e-15
1.91986e-05
3.23435e-14
1.98967e-05
2.05949e-05
-6.71503e-15
4.53785e-06
7.30649e-15
5.23599e-06
-1.11009e-14
5.93412e-06
4.24095e-15
6.63225e-06
-1.51026e-14
7.33038e-06
5.20969e-15
8.02851e-06
-1.70133e-14
8.72664e-06
3.94107e-15
9.42478e-06
2.93475e-16
1.01229e-05
-6.61312e-15
1.0821e-05
-1.37058e-14
1.15192e-05
-1.01859e-14
1.22173e-05
-1.82166e-14
1.29154e-05
-1.43674e-14
1.36136e-05
-2.33405e-14
1.43117e-05
2.53395e-14
1.50098e-05
-2.90741e-14
1.5708e-05
7.82863e-15
1.64061e-05
-3.54182e-14
1.71042e-05
4.50872e-15
1.78024e-05
-4.23688e-14
1.85005e-05
5.88589e-16
1.91986e-05
8.73317e-15
1.98967e-05
2.05949e-05
-5.98576e-15
4.53785e-06
-2.19131e-16
5.23599e-06
6.43575e-15
5.93412e-06
-6.06429e-15
6.63225e-06
2.09215e-15
7.33038e-06
-1.61772e-14
8.02851e-06
1.88311e-14
8.72664e-06
2.35093e-15
9.42478e-06
-9.17246e-15
1.01229e-05
4.70992e-15
1.0821e-05
-2.16269e-14
1.15192e-05
2.96452e-14
1.22173e-05
9.28885e-15
1.29154e-05
1.89057e-14
1.36136e-05
-4.46881e-15
1.43117e-05
-3.0157e-14
1.50098e-05
2.6216e-14
1.5708e-05
-4.36856e-16
1.64061e-05
2.11719e-14
1.71042e-05
-1.87152e-14
1.78024e-05
3.92225e-15
1.85005e-05
2.91569e-14
1.91986e-05
-1.52327e-14
1.98967e-05
2.05949e-05
8.67626e-15
4.53785e-06
-1.22924e-14
5.23599e-06
-1.88321e-15
5.93412e-06
-8.90309e-15
6.63225e-06
5.10821e-15
7.33038e-06
2.19901e-14
8.02851e-06
-1.22651e-14
8.72664e-06
5.37408e-15
9.42478e-06
-4.45683e-15
1.01229e-05
1.4306e-14
1.0821e-05
7.3261e-15
1.15192e-05
-7.04212e-15
1.22173e-05
-2.39965e-14
1.29154e-05
7.55247e-15
1.36136e-05
-9.80136e-15
1.43117e-05
1.62347e-14
1.50098e-05
-4.0296e-14
1.5708e-05
-1.44504e-14
1.64061e-05
1.37024e-14
1.71042e-05
7.89417e-15
1.78024e-05
3.92519e-14
1.85005e-05
-4.27503e-14
1.91986e-05
8.84484e-15
1.98967e-05
2.05949e-05
-9.39915e-15
4.53785e-06
-5.20102e-16
5.23599e-06
-7.52847e-15
5.93412e-06
4.41138e-15
6.63225e-06
-3.78444e-15
7.33038e-06
-1.33852e-14
8.02851e-06
2.10986e-15
8.72664e-06
-8.52963e-15
9.42478e-06
1.0027e-14
1.01229e-05
-1.86676e-15
1.0821e-05
2.02021e-14
1.15192e-05
7.01237e-15
1.22173e-05
-7.51146e-15
1.29154e-05
-2.361e-14
1.36136e-05
2.04151e-15
1.43117e-05
-1.48362e-14
1.50098e-05
1.38767e-14
1.5708e-05
-2.39215e-15
1.64061e-05
-2.04146e-14
1.71042e-05
7.0167e-15
1.78024e-05
-1.20656e-14
1.85005e-05
2.59392e-14
1.91986e-05
-1.85083e-15
1.98967e-05
2.05949e-05
1.13362e-14
4.53785e-06
4.8107e-16
5.23599e-06
5.35702e-15
5.93412e-06
1.13034e-14
6.63225e-06
-4.86994e-15
7.33038e-06
1.10972e-15
8.02851e-06
8.15892e-15
8.72664e-06
-1.30452e-14
9.42478e-06
-5.95015e-15
1.01229e-05
1.99526e-15
1.0821e-05
-2.43869e-14
1.15192e-05
-1.61889e-14
1.22173e-05
3.27856e-14
1.29154e-05
3.05176e-15
1.36136e-05
1.44421e-14
1.43117e-05
2.68991e-14
1.50098e-05
-7.74071e-15
1.5708e-05
4.43888e-15
1.64061e-05
1.80004e-14
1.71042e-05
-2.18213e-14
1.78024e-05
-8.21555e-15
1.85005e-05
6.08225e-15
1.91986e-05
-3.89207e-14
1.98967e-05
2.05949e-05
1.36932e-16
9.81747e-07
2.42079e-16
1.37445e-06
3.76902e-16
1.76715e-06
-1.33929e-15
2.15984e-06
-3.6816e-15
2.55254e-06
2.94524e-06
5.95125e-15
1.81579e-18
9.81747e-07
-3.88832e-16
1.37445e-06
-2.60422e-15
1.76715e-06
1.94361e-15
2.15984e-06
8.06614e-15
2.55254e-06
2.94524e-06
-9.0299e-15
-1.16478e-16
9.81747e-07
1.86353e-16
1.37445e-06
-1.56241e-15
1.76715e-06
-4.21252e-15
2.15984e-06
-7.4985e-15
2.55254e-06
2.94524e-06
7.72276e-16
8.69544e-17
9.81747e-07
-1.0194e-16
1.37445e-06
2.69314e-15
1.76715e-06
7.44281e-15
2.15984e-06
3.25987e-15
2.55254e-06
2.94524e-06
-2.79812e-15
-4.83672e-17
9.81747e-07
3.95108e-17
1.37445e-06
1.9433e-16
1.76715e-06
-1.80613e-15
2.15984e-06
-4.20856e-15
2.55254e-06
2.94524e-06
5.01329e-15
-1.80097e-16
9.81747e-07
4.27425e-18
1.37445e-06
-1.8478e-15
1.76715e-06
-3.88612e-15
2.15984e-06
3.15709e-15
2.55254e-06
2.94524e-06
4.98059e-16
2.53989e-16
9.81747e-07
2.55372e-16
1.37445e-06
2.06597e-15
1.76715e-06
4.50407e-15
2.15984e-06
-2.30995e-15
2.55254e-06
2.94524e-06
5.40609e-16
2.16724e-17
9.81747e-07
-3.21743e-16
1.37445e-06
-1.14889e-15
1.76715e-06
-5.28566e-15
2.15984e-06
-3.76795e-16
2.55254e-06
2.94524e-06
-5.63992e-15
-1.43422e-16
9.81747e-07
1.66413e-16
1.37445e-06
4.19109e-15
1.76715e-06
6.34938e-15
2.15984e-06
-8.0576e-16
2.55254e-06
2.94524e-06
8.39368e-16
-6.87972e-17
9.81747e-07
-9.20569e-17
1.37445e-06
-2.76942e-15
1.76715e-06
-3.68895e-16
2.15984e-06
-1.45098e-15
2.55254e-06
2.94524e-06
-1.7655e-16
1.6636e-16
9.81747e-07
-8.87169e-17
1.37445e-06
5.69646e-16
1.76715e-06
-2.10356e-15
2.15984e-06
9.65997e-15
2.55254e-06
2.94524e-06
5.29017e-15
-1.77806e-16
9.81747e-07
-2.05416e-17
1.37445e-06
-3.45453e-16
1.76715e-06
-4.17269e-15
2.15984e-06
-2.62234e-15
2.55254e-06
2.94524e-06
5.36941e-15
1.77777e-16
9.81747e-07
2.04929e-17
1.37445e-06
3.45472e-16
1.76715e-06
4.17263e-15
2.15984e-06
2.6224e-15
2.55254e-06
2.94524e-06
-5.36949e-15
-1.66345e-16
9.81747e-07
8.86631e-17
1.37445e-06
-5.69636e-16
1.76715e-06
2.10348e-15
2.15984e-06
-9.65996e-15
2.55254e-06
2.94524e-06
-5.29019e-15
6.87753e-17
9.81747e-07
9.20331e-17
1.37445e-06
2.7693e-15
1.76715e-06
3.6873e-16
2.15984e-06
1.45084e-15
2.55254e-06
2.94524e-06
1.76698e-16
1.43407e-16
9.81747e-07
-1.66402e-16
1.37445e-06
-4.19116e-15
1.76715e-06
-6.34943e-15
2.15984e-06
8.05634e-16
2.55254e-06
2.94524e-06
-8.39297e-16
-2.16508e-17
9.81747e-07
3.21682e-16
1.37445e-06
1.14885e-15
1.76715e-06
5.28566e-15
2.15984e-06
3.76658e-16
2.55254e-06
2.94524e-06
5.63993e-15
-2.5398e-16
9.81747e-07
-2.55456e-16
1.37445e-06
-2.06592e-15
1.76715e-06
-4.50411e-15
2.15984e-06
2.30991e-15
2.55254e-06
2.94524e-06
-5.41022e-16
1.80092e-16
9.81747e-07
-4.34618e-18
1.37445e-06
1.84777e-15
1.76715e-06
3.88607e-15
2.15984e-06
-3.15705e-15
2.55254e-06
2.94524e-06
-4.983e-16
4.83674e-17
9.81747e-07
-3.95308e-17
1.37445e-06
-1.9439e-16
1.76715e-06
1.80608e-15
2.15984e-06
4.20854e-15
2.55254e-06
2.94524e-06
-5.01331e-15
-8.69489e-17
9.81747e-07
1.01865e-16
1.37445e-06
-2.69318e-15
1.76715e-06
-7.44277e-15
2.15984e-06
-3.25993e-15
2.55254e-06
2.94524e-06
2.79775e-15
1.16456e-16
9.81747e-07
-1.86424e-16
1.37445e-06
1.56237e-15
1.76715e-06
4.21255e-15
2.15984e-06
7.49833e-15
2.55254e-06
2.94524e-06
-7.72409e-16
-1.83232e-18
9.81747e-07
3.88746e-16
1.37445e-06
2.60407e-15
1.76715e-06
-1.94366e-15
2.15984e-06
-8.06624e-15
2.55254e-06
2.94524e-06
9.02978e-15
-1.36948e-16
-2.4213e-16
-3.7699e-16
1.33926e-15
3.6816e-15
-5.9514e-15
-1.13359e-14
4.53785e-06
-4.81216e-16
5.23599e-06
-5.35716e-15
5.93412e-06
-1.13037e-14
6.63225e-06
4.8694e-15
7.33038e-06
-1.10946e-15
8.02851e-06
-8.15832e-15
8.72664e-06
1.3044e-14
9.42478e-06
5.94864e-15
1.01229e-05
-1.99649e-15
1.0821e-05
2.43864e-14
1.15192e-05
1.61899e-14
1.22173e-05
-3.27867e-14
1.29154e-05
-3.05236e-15
1.36136e-05
-1.444e-14
1.43117e-05
-2.69035e-14
1.50098e-05
7.74027e-15
1.5708e-05
-4.43784e-15
1.64061e-05
-1.80002e-14
1.71042e-05
2.18194e-14
1.78024e-05
8.21213e-15
1.85005e-05
-6.08411e-15
1.91986e-05
3.89225e-14
1.98967e-05
2.05949e-05
9.39904e-15
4.53785e-06
5.2013e-16
5.23599e-06
7.52865e-15
5.93412e-06
-4.41178e-15
6.63225e-06
3.78254e-15
7.33038e-06
1.33836e-14
8.02851e-06
-2.1093e-15
8.72664e-06
8.52864e-15
9.42478e-06
-1.00281e-14
1.01229e-05
1.86463e-15
1.0821e-05
-2.02017e-14
1.15192e-05
-7.01229e-15
1.22173e-05
7.51137e-15
1.29154e-05
2.36088e-14
1.36136e-05
-2.04134e-15
1.43117e-05
1.48309e-14
1.50098e-05
-1.3879e-14
1.5708e-05
2.39078e-15
1.64061e-05
2.04079e-14
1.71042e-05
-7.01712e-15
1.78024e-05
1.20652e-14
1.85005e-05
-2.59447e-14
1.91986e-05
1.84808e-15
1.98967e-05
2.05949e-05
-8.67628e-15
4.53785e-06
1.22923e-14
5.23599e-06
1.8835e-15
5.93412e-06
8.90239e-15
6.63225e-06
-5.10887e-15
7.33038e-06
-2.19914e-14
8.02851e-06
1.22645e-14
8.72664e-06
-5.37405e-15
9.42478e-06
4.45599e-15
1.01229e-05
-1.43068e-14
1.0821e-05
-7.32433e-15
1.15192e-05
7.04034e-15
1.22173e-05
2.39959e-14
1.29154e-05
-7.55463e-15
1.36136e-05
9.80006e-15
1.43117e-05
-1.62392e-14
1.50098e-05
4.02932e-14
1.5708e-05
1.44444e-14
1.64061e-05
-1.37073e-14
1.71042e-05
-7.89687e-15
1.78024e-05
-3.92538e-14
1.85005e-05
4.27505e-14
1.91986e-05
-8.85128e-15
1.98967e-05
2.05949e-05
5.98595e-15
4.53785e-06
2.18658e-16
5.23599e-06
-6.43567e-15
5.93412e-06
6.06376e-15
6.63225e-06
-2.09238e-15
7.33038e-06
1.61774e-14
8.02851e-06
-1.88311e-14
8.72664e-06
-2.35079e-15
9.42478e-06
9.17167e-15
1.01229e-05
-4.7113e-15
1.0821e-05
2.16283e-14
1.15192e-05
-2.96451e-14
1.22173e-05
-9.28895e-15
1.29154e-05
-1.89056e-14
1.36136e-05
4.466e-15
1.43117e-05
3.01539e-14
1.50098e-05
-2.62182e-14
1.5708e-05
4.35912e-16
1.64061e-05
-2.11701e-14
1.71042e-05
1.87139e-14
1.78024e-05
-3.92096e-15
1.85005e-05
-2.91611e-14
1.91986e-05
1.52308e-14
1.98967e-05
2.05949e-05
6.71491e-15
4.53785e-06
-7.30684e-15
5.23599e-06
1.11007e-14
5.93412e-06
-4.24126e-15
6.63225e-06
1.51026e-14
7.33038e-06
-5.20933e-15
8.02851e-06
1.70135e-14
8.72664e-06
-3.94103e-15
9.42478e-06
-2.94046e-16
1.01229e-05
6.60831e-15
1.0821e-05
1.37052e-14
1.15192e-05
1.01841e-14
1.22173e-05
1.82183e-14
1.29154e-05
1.43672e-14
1.36136e-05
2.33402e-14
1.43117e-05
-2.53445e-14
1.50098e-05
2.90737e-14
1.5708e-05
-7.82995e-15
1.64061e-05
3.54176e-14
1.71042e-05
-4.51162e-15
1.78024e-05
4.23669e-14
1.85005e-05
-5.85789e-16
1.91986e-05
-8.7331e-15
1.98967e-05
2.05949e-05
-4.63064e-15
4.53785e-06
5.79727e-15
5.23599e-06
-1.61504e-14
5.93412e-06
-5.97435e-15
6.63225e-06
-8.55578e-15
7.33038e-06
4.22317e-15
8.02851e-06
-8.18758e-15
8.72664e-06
6.99903e-15
9.42478e-06
-2.42298e-14
1.01229e-05
-7.7709e-15
1.0821e-05
-2.27659e-14
1.15192e-05
8.34991e-15
1.22173e-05
-7.40384e-15
1.29154e-05
2.82644e-14
1.36136e-05
-4.57101e-14
1.43117e-05
-8.22283e-15
1.50098e-05
-2.82268e-14
1.5708e-05
-2.34274e-15
1.64061e-05
-6.94792e-15
1.71042e-05
2.21499e-14
1.78024e-05
-3.41128e-14
1.85005e-05
-3.73997e-15
1.91986e-05
-3.23473e-14
1.98967e-05
2.05949e-05
-8.92512e-15
4.53785e-06
-2.28886e-15
5.23599e-06
-2.22384e-15
5.93412e-06
6.61595e-15
6.63225e-06
-3.38813e-15
7.33038e-06
-3.90718e-15
8.02851e-06
-6.4189e-15
8.72664e-06
-7.15893e-15
9.42478e-06
6.81151e-15
1.01229e-05
6.98253e-15
1.0821e-05
-9.06475e-15
1.15192e-05
6.75897e-15
1.22173e-05
-2.88895e-14
1.29154e-05
-1.22352e-14
1.36136e-05
4.80541e-15
1.43117e-05
2.50257e-14
1.50098e-05
3.85958e-15
1.5708e-05
3.60776e-15
1.64061e-05
-2.04849e-14
1.71042e-05
-2.1759e-14
1.78024e-05
3.46562e-15
1.85005e-05
2.90416e-14
1.91986e-05
-1.66452e-15
1.98967e-05
2.05949e-05
6.21571e-15
4.53785e-06
-3.8791e-15
5.23599e-06
1.54221e-14
5.93412e-06
-7.06499e-15
6.63225e-06
-2.21054e-15
7.33038e-06
1.42969e-15
8.02851e-06
-5.49313e-15
8.72664e-06
1.32256e-14
9.42478e-06
6.04563e-15
1.01229e-05
-1.74511e-14
1.0821e-05
2.08867e-14
1.15192e-05
-2.14463e-14
1.22173e-05
1.91338e-14
1.29154e-05
-7.31708e-15
1.36136e-05
3.84874e-14
1.43117e-05
-1.29223e-14
1.50098e-05
-1.88251e-15
1.5708e-05
5.71876e-15
1.64061e-05
-7.58836e-15
1.71042e-05
2.76573e-14
1.78024e-05
1.40988e-14
1.85005e-05
-5.31433e-14
1.91986e-05
3.90832e-14
1.98967e-05
2.05949e-05
-1.49898e-15
4.53785e-06
1.0897e-14
5.23599e-06
-6.59963e-15
5.93412e-06
7.26575e-15
6.63225e-06
6.17563e-15
7.33038e-06
2.4883e-15
8.02851e-06
-9.64538e-16
8.72664e-06
-4.36537e-15
9.42478e-06
-8.90105e-15
1.01229e-05
1.38632e-14
1.0821e-05
1.06898e-14
1.15192e-05
6.25175e-15
1.22173e-05
-1.27315e-16
1.29154e-05
-3.43742e-15
1.36136e-05
-1.1044e-14
1.43117e-05
-1.7764e-14
1.50098e-05
1.76801e-14
1.5708e-05
9.95322e-15
1.64061e-05
3.32902e-15
1.71042e-05
-3.29705e-14
1.78024e-05
-1.04243e-14
1.85005e-05
3.00659e-14
1.91986e-05
-5.99932e-14
1.98967e-05
2.05949e-05
5.17003e-15
4.53785e-06
-7.45562e-15
5.23599e-06
-7.56649e-16
5.93412e-06
6.83961e-15
6.63225e-06
-9.97441e-15
7.33038e-06
-1.66511e-15
8.02851e-06
9.21916e-15
8.72664e-06
-1.34596e-14
9.42478e-06
2.32211e-14
1.01229e-05
1.04728e-14
1.0821e-05
-1.72729e-14
1.15192e-05
-3.02659e-15
1.22173e-05
1.13992e-14
1.29154e-05
-1.98156e-14
1.36136e-05
-4.68037e-15
1.43117e-05
5.03069e-14
1.50098e-05
-2.40487e-14
1.5708e-05
-6.66043e-15
1.64061e-05
1.42599e-14
1.71042e-05
1.64969e-15
1.78024e-05
-6.81398e-15
1.85005e-05
1.44405e-14
1.91986e-05
5.07566e-14
1.98967e-05
2.05949e-05
-6.19739e-15
4.53785e-06
2.81699e-17
5.23599e-06
1.1511e-14
5.93412e-06
-2.06263e-14
6.63225e-06
5.36684e-15
7.33038e-06
1.22089e-15
8.02851e-06
-4.74023e-17
8.72664e-06
1.23929e-14
9.42478e-06
-1.32264e-14
1.01229e-05
-1.8894e-14
1.0821e-05
-4.96626e-15
1.15192e-05
-7.1539e-15
1.22173e-05
-1.48864e-14
1.29154e-05
3.53406e-14
1.36136e-05
5.02803e-19
1.43117e-05
-4.31376e-14
1.50098e-05
1.35631e-14
1.5708e-05
-2.82564e-14
1.64061e-05
2.45365e-15
1.71042e-05
-1.02399e-14
1.78024e-05
2.38034e-14
1.85005e-05
1.3875e-14
1.91986e-05
-4.55656e-14
1.98967e-05
2.05949e-05
-1.90696e-15
4.53785e-06
1.13049e-15
5.23599e-06
-2.16625e-14
5.93412e-06
9.62349e-15
6.63225e-06
1.51372e-14
7.33038e-06
-1.40654e-14
8.02851e-06
8.0928e-15
8.72664e-06
-2.69605e-14
9.42478e-06
-1.96632e-15
1.01229e-05
2.97159e-14
1.0821e-05
-1.17455e-14
1.15192e-05
1.98676e-14
1.22173e-05
-2.74443e-14
1.29154e-05
-2.06164e-14
1.36136e-05
1.60427e-14
1.43117e-05
-4.61386e-15
1.50098e-05
4.69136e-15
1.5708e-05
4.79667e-14
1.64061e-05
-1.37396e-14
1.71042e-05
3.23712e-14
1.78024e-05
-3.51863e-14
1.85005e-05
-2.4903e-14
1.91986e-05
7.19153e-14
1.98967e-05
2.05949e-05
1.90634e-15
4.53785e-06
-1.13093e-15
5.23599e-06
2.16615e-14
5.93412e-06
-9.62449e-15
6.63225e-06
-1.51372e-14
7.33038e-06
1.40655e-14
8.02851e-06
-8.094e-15
8.72664e-06
2.6959e-14
9.42478e-06
1.96595e-15
1.01229e-05
-2.97177e-14
1.0821e-05
1.17445e-14
1.15192e-05
-1.98681e-14
1.22173e-05
2.74436e-14
1.29154e-05
2.06172e-14
1.36136e-05
-1.60383e-14
1.43117e-05
4.61245e-15
1.50098e-05
-4.69454e-15
1.5708e-05
-4.79702e-14
1.64061e-05
1.37379e-14
1.71042e-05
-3.2376e-14
1.78024e-05
3.51846e-14
1.85005e-05
2.49074e-14
1.91986e-05
-7.19169e-14
1.98967e-05
2.05949e-05
6.1969e-15
4.53785e-06
-2.88686e-17
5.23599e-06
-1.15117e-14
5.93412e-06
2.06257e-14
6.63225e-06
-5.36725e-15
7.33038e-06
-1.22224e-15
8.02851e-06
4.68381e-17
8.72664e-06
-1.23942e-14
9.42478e-06
1.32256e-14
1.01229e-05
1.88936e-14
1.0821e-05
4.96305e-15
1.15192e-05
7.15302e-15
1.22173e-05
1.48854e-14
1.29154e-05
-3.53385e-14
1.36136e-05
9.0531e-19
1.43117e-05
4.31366e-14
1.50098e-05
-1.35652e-14
1.5708e-05
2.82546e-14
1.64061e-05
-2.45489e-15
1.71042e-05
1.02353e-14
1.78024e-05
-2.38033e-14
1.85005e-05
-1.38796e-14
1.91986e-05
4.55657e-14
1.98967e-05
2.05949e-05
-5.17009e-15
4.53785e-06
7.4555e-15
5.23599e-06
7.56718e-16
5.93412e-06
-6.83969e-15
6.63225e-06
9.97412e-15
7.33038e-06
1.66382e-15
8.02851e-06
-9.22062e-15
8.72664e-06
1.34596e-14
9.42478e-06
-2.32208e-14
1.01229e-05
-1.04738e-14
1.0821e-05
1.72728e-14
1.15192e-05
3.02687e-15
1.22173e-05
-1.14e-14
1.29154e-05
1.98144e-14
1.36136e-05
4.67666e-15
1.43117e-05
-5.03065e-14
1.50098e-05
2.40459e-14
1.5708e-05
6.6553e-15