/*--------------------------------*- C++ -*----------------------------------*\
  =========                 |
  \\      /  F ield         | OpenFOAM: The Open Source CFD Toolbox
   \\    /   O peration     | Website:  https://openfoam.org
    \\  /    A nd           | Version:  11
     \\/     M anipulation  |
\*---------------------------------------------------------------------------*/
FoamFile
{
    format      ascii;
    class       volScalarField;
    location    "1.82";
    object      p;
}
// * * * * * * * * * * * * * * * * * * * * * * * * * * * * * * * * * * * * * //

dimensions      [0 2 -2 0 0 0 0];

internalField   nonuniform List<scalar> 
2880
(
1.4948
1.53146
1.56463
1.5987
1.5739
1.47705
1.49481
1.52544
1.54886
1.56452
1.50553
1.36751
1.49481
1.5177
1.52908
1.53056
1.45306
1.30633
1.49456
1.51157
1.51239
1.50082
1.41977
1.28265
1.49389
1.50727
1.49946
1.47767
1.39852
1.27524
1.49267
1.50343
1.48905
1.45989
1.38392
1.27455
1.49079
1.49901
1.47996
1.44585
1.37367
1.27679
1.48822
1.49362
1.47156
1.43442
1.36632
1.28009
1.48511
1.48733
1.46368
1.42496
1.36088
1.28331
1.48162
1.48046
1.45641
1.41709
1.35666
1.28576
1.47796
1.47346
1.44995
1.41059
1.35327
1.28741
1.47428
1.46675
1.44446
1.40535
1.35047
1.28817
1.47074
1.46068
1.44006
1.40129
1.34815
1.28808
1.46743
1.45547
1.43679
1.39836
1.34626
1.28727
1.46441
1.45129
1.43462
1.3965
1.34491
1.28603
1.4617
1.44818
1.43347
1.3957
1.34431
1.28489
1.45929
1.44609
1.43317
1.39587
1.34467
1.28451
1.45721
1.44486
1.43345
1.39694
1.3462
1.2858
1.45545
1.4442
1.43396
1.39879
1.34918
1.29008
1.45427
1.44359
1.43421
1.40107
1.354
1.30023
1.45452
1.44215
1.43348
1.403
1.36128
1.3237
1.45504
1.43879
1.43095
1.40385
1.37137
1.37312
1.45334
1.43408
1.42684
1.40586
1.38358
1.45514
1.45208
1.43118
1.42598
1.41341
1.39903
1.55319
0.288726
0.346006
0.364939
0.387403
0.409508
0.423597
0.430758
0.433193
0.432731
0.430785
0.428263
0.425651
0.423202
0.421048
0.419248
0.417819
0.416756
0.416043
0.415441
0.414206
0.412518
0.417089
0.439063
0.438426
0.616521
0.526205
0.501898
0.497995
0.499577
0.499035
0.495477
0.489766
0.482996
0.476126
0.469729
0.464037
0.459123
0.454993
0.451615
0.44893
0.44687
0.445356
0.444095
0.442314
0.440215
0.444343
0.465138
0.463597
0.805462
0.678257
0.623029
0.597737
0.582333
0.569078
0.555929
0.54284
0.530329
0.518976
0.509055
0.500568
0.493425
0.487519
0.482732
0.478933
0.47599
0.473764
0.471916
0.469664
0.467233
0.470894
0.490258
0.488128
0.919146
0.794879
0.724623
0.68447
0.656076
0.632438
0.611151
0.591668
0.574133
0.55884
0.545814
0.534859
0.525751
0.518285
0.512267
0.5075
0.50379
0.500944
0.498583
0.495941
0.493266
0.496458
0.514207
0.511747
1.00191
0.885243
0.808251
0.758245
0.720322
0.688524
0.660592
0.635766
0.613988
0.595344
0.579665
0.566592
0.555797
0.546998
0.539934
0.534347
0.529989
0.526615
0.523821
0.520873
0.51804
0.520772
0.536776
0.534198
1.06412
0.955414
0.876102
0.81994
0.775199
0.737197
0.704022
0.674878
0.649633
0.628234
0.610355
0.595521
0.583324
0.573421
0.565497
0.55924
0.554352
0.550543
0.547394
0.544222
0.541312
0.543593
0.557767
0.555234
1.11015
1.00945
0.930389
0.870621
0.821182
0.778626
0.741446
0.708929
0.680946
0.657358
0.637718
0.621469
0.608149
0.597368
0.588767
0.581989
0.576685
0.572531
0.569104
0.565783
0.56286
0.564695
0.576994
0.574623
1.14397
1.05038
0.973108
0.911457
0.858928
0.81316
0.773027
0.737969
0.70791
0.682651
0.661658
0.644321
0.630143
0.618703
0.609602
0.602442
0.596831
0.592414
0.588778
0.585373
0.582486
0.583879
0.594297
0.592164
1.16832
1.08107
1.00603
0.943598
0.88916
0.841242
0.799022
0.762134
0.730577
0.70411
0.682134
0.664012
0.649225
0.637328
0.627894
0.620481
0.61466
0.610054
0.606268
0.602832
0.600014
0.600973
0.609547
0.607689
1.18543
1.10347
1.03063
0.968089
0.912593
0.863338
0.819731
0.781608
0.749047
0.721776
0.699149
0.680515
0.665348
0.653183
0.643565
0.636015
0.630069
0.625336
0.621451
0.618024
0.615298
0.61584
0.622647
0.621073
1.19667
1.11897
1.04806
0.985826
0.929883
0.879903
0.835463
0.796595
0.763448
0.735721
0.712735
0.693838
0.678495
0.666233
0.656565
0.648977
0.642977
0.638169
0.634227
0.630841
0.628225
0.628386
0.633551
0.632218
1.20307
1.12863
1.05923
0.997543
0.94159
0.891342
0.846507
0.807297
0.773915
0.746032
0.722948
0.704007
0.688677
0.676466
0.666864
0.65932
0.653324
0.648486
0.644523
0.641203
0.638714
0.638561
0.64224
0.640996
1.2053
1.13317
1.06481
1.00381
0.94816
0.897989
0.853113
0.813899
0.780582
0.752809
0.729857
0.711072
0.695919
0.683893
0.674453
0.667022
0.661076
0.656243
0.652286
0.64904
0.646671
0.646254
0.648619
0.647362
1.20372
1.13306
1.06526
1.00501
0.94992
0.9001
0.855486
0.816561
0.783577
0.756152
0.733544
0.715094
0.700267
0.68854
0.679346
0.672082
0.666227
0.661433
0.657507
0.65434
0.652051
0.651346
0.65263
0.651626
1.19841
1.12853
1.06086
1.00141
0.947086
0.89786
0.853783
0.815419
0.783019
0.756166
0.734097
0.71615
0.701783
0.690458
0.681579
0.674534
0.668812
0.664099
0.660247
0.657184
0.654951
0.653943
0.654424
0.653908
1.18927
1.11959
1.05168
0.993163
0.939784
0.891392
0.848124
0.810591
0.77902
0.752957
0.731616
0.714329
0.700546
0.689711
0.681212
0.674433
0.668887
0.664295
0.660544
0.657595
0.655473
0.654333
0.654197
0.653919
1.17593
1.10608
1.03757
0.980242
0.928038
0.880761
0.838599
0.802181
0.771693
0.74664
0.726213
0.709735
0.696648
0.686384
0.678321
0.671854
0.666526
0.662097
0.658482
0.655663
0.653642
0.652443
0.652008
0.651906
1.15768
1.08755
1.01816
0.962461
0.911773
0.865979
0.825273
0.790286
0.761156
0.737341
0.718013
0.702487
0.690202
0.680582
0.673008
0.666896
0.66183
0.657604
0.654156
0.651475
0.649551
0.648376
0.647901
0.647884
1.13338
1.06323
0.992864
0.939503
0.890856
0.847035
0.808211
0.775019
0.747546
0.725209
0.707164
0.692728
0.681341
0.672432
0.665394
0.65968
0.654916
0.65093
0.647675
0.645136
0.643306
0.642241
0.641973
0.641921
1.10125
1.03176
0.960906
0.910948
0.865139
0.823935
0.787511
0.756527
0.731036
0.710424
0.693842
0.680623
0.670222
0.662082
0.655625
0.650348
0.645924
0.642211
0.63917
0.636774
0.635036
0.634164
0.634351
0.634175
1.05861
0.990695
0.921196
0.876302
0.8345
0.796743
0.763333
0.735019
0.71185
0.693206
0.678257
0.666369
0.657028
0.649705
0.643867
0.639062
0.635009
0.631596
0.628786
0.626534
0.624883
0.624279
0.625151
0.624758
1.00185
0.935846
0.872368
0.835151
0.798964
0.765662
0.735955
0.710796
0.690284
0.673831
0.660657
0.650191
0.641966
0.635498
0.630307
0.625999
0.622343
0.619251
0.616684
0.614572
0.613003
0.612735
0.614502
0.613805
0.916726
0.86072
0.812989
0.78752
0.758895
0.731133
0.705827
0.68428
0.666714
0.652626
0.641329
0.632343
0.625264
0.61967
0.615144
0.611351
0.608106
0.605348
0.603032
0.601057
0.599567
0.599703
0.602558
0.601466
0.742568
0.757086
0.743506
0.734478
0.715229
0.693965
0.673629
0.656032
0.641602
0.629969
0.620589
0.613097
0.607167
0.602448
0.598587
0.595314
0.592487
0.590066
0.588003
0.586163
0.584759
0.585377
0.589511
0.587852
0.319163
0.27432
0.239018
0.179465
0.112049
-0.274793
0.317591
0.275737
0.243172
0.189753
0.157115
0.0310869
0.316697
0.279018
0.251491
0.20741
0.181417
0.142925
0.318616
0.284245
0.262584
0.229057
0.209072
0.196414
0.320576
0.290333
0.274988
0.252147
0.240565
0.241281
0.323252
0.296621
0.288002
0.274124
0.27031
0.27734
0.327251
0.303755
0.301168
0.293903
0.295691
0.304155
0.332218
0.311932
0.314073
0.311617
0.31663
0.323769
0.337834
0.320972
0.326444
0.327468
0.333665
0.338157
0.343852
0.330612
0.338186
0.341566
0.347334
0.348482
0.35008
0.340613
0.349278
0.354003
0.358154
0.355397
0.356366
0.350778
0.35969
0.36483
0.366458
0.359442
0.362583
0.360943
0.369365
0.37412
0.372488
0.361093
0.36862
0.370951
0.378265
0.382087
0.376525
0.360537
0.374359
0.38064
0.386469
0.388879
0.378838
0.357835
0.379668
0.389778
0.393947
0.394707
0.379769
0.353044
0.384412
0.398113
0.400811
0.399649
0.379681
0.346274
0.388483
0.405366
0.407218
0.403901
0.378883
0.337819
0.39173
0.411364
0.413343
0.4081
0.377561
0.328176
0.394008
0.416323
0.419617
0.413407
0.376317
0.317916
0.394419
0.42118
0.427347
0.421687
0.37755
0.308267
0.394376
0.427531
0.438815
0.435933
0.38606
0.301774
0.396806
0.435144
0.454489
0.456755
0.405456
0.295082
0.398617
0.441011
0.467469
0.472959
0.425528
0.288449
0.39787
0.636404
0.669194
0.678587
0.669669
0.655403
0.640275
0.626731
0.615466
0.606266
0.59877
0.592738
0.587926
0.584057
0.580848
0.578085
0.575665
0.573575
0.571758
0.570043
0.568699
0.569798
0.575401
0.573307
0.305245
0.532288
0.600276
0.624594
0.62479
0.616995
0.606792
0.597098
0.588829
0.581922
0.576203
0.571546
0.56779
0.564725
0.562133
0.559852
0.557817
0.556032
0.554437
0.552812
0.551445
0.552892
0.560099
0.558101
0.305398
0.472781
0.544898
0.576143
0.582692
0.580046
0.574063
0.567765
0.562156
0.557305
0.553192
0.549786
0.546994
0.544666
0.542642
0.540805
0.539118
0.537602
0.536191
0.534609
0.533132
0.534797
0.543632
0.542186
0.312902
0.439175
0.502473
0.534397
0.54437
0.545331
0.542675
0.53919
0.535807
0.532711
0.529993
0.527686
0.525747
0.524078
0.522567
0.521133
0.519762
0.518488
0.517236
0.515677
0.514101
0.516057
0.526465
0.525017
0.321207
0.416725
0.469198
0.498711
0.509942
0.513159
0.51293
0.511623
0.510009
0.508352
0.506802
0.505429
0.504225
0.503132
0.502077
0.501006
0.499922
0.49887
0.497765
0.496231
0.494581
0.496883
0.50888
0.507188
0.330292
0.400127
0.442351
0.467992
0.479083
0.483504
0.484903
0.485156
0.484881
0.484356
0.48375
0.483146
0.482559
0.481961
0.481305
0.480559
0.479737
0.47889
0.477921
0.476412
0.474696
0.477334
0.490884
0.488945
0.338491
0.387112
0.420266
0.441246
0.451311
0.456132
0.458493
0.459769
0.460447
0.460775
0.460906
0.460919
0.460841
0.460662
0.460357
0.459903
0.459323
0.458668
0.457834
0.456358
0.454585
0.457532
0.472567
0.470431
0.344756
0.376375
0.401429
0.417676
0.426093
0.430697
0.433474
0.435343
0.436654
0.437596
0.438284
0.438783
0.439123
0.439303
0.439306
0.439121
0.438769
0.438303
0.437609
0.436185
0.434373
0.437597
0.45402
0.451784
0.348741
0.367342
0.384584
0.396371
0.402817
0.406778
0.409554
0.411686
0.413382
0.414749
0.415853
0.416738
0.417426
0.417918
0.418203
0.418271
0.418145
0.417873
0.417333
0.415989
0.414169
0.417637
0.435323
0.433142
0.350554
0.359143
0.36894
0.376512
0.380862
0.383907
0.386394
0.388562
0.390466
0.392121
0.393544
0.394748
0.395741
0.396521
0.397076
0.397397
0.397503
0.397439
0.397077
0.395853
0.394067
0.397743
0.416533
0.414645
0.350175
0.350497
0.353912
0.357455
0.359642
0.361608
0.363637
0.365702
0.367705
0.369574
0.371264
0.372757
0.374042
0.375109
0.375942
0.37653
0.376888
0.377057
0.376905
0.375851
0.374152
0.377992
0.397683
0.39644
0.347634
0.340894
0.338904
0.338558
0.338585
0.33941
0.340912
0.342818
0.344885
0.346947
0.348902
0.350693
0.352289
0.353668
0.35481
0.3557
0.356347
0.356786
0.356888
0.356063
0.354511
0.358445
0.378765
0.378709
0.343096
0.330042
0.323029
0.319116
0.317111
0.316851
0.317855
0.319628
0.321787
0.324077
0.326337
0.328474
0.330434
0.332182
0.333691
0.334941
0.335934
0.336701
0.337116
0.336594
0.335251
0.339156
0.35971
0.361732
0.336326
0.317222
0.305535
0.298481
0.294693
0.293506
0.294125
0.29586
0.298198
0.300797
0.303445
0.306011
0.30842
0.310624
0.31259
0.31429
0.31572
0.316901
0.31772
0.317609
0.316547
0.320181
0.340321
0.346056
0.326853
0.30176
0.28583
0.276111
0.270872
0.268996
0.269419
0.271269
0.273918
0.276949
0.280099
0.283208
0.286181
0.288959
0.291503
0.29378
0.295779
0.297511
0.298887
0.299393
0.29876
0.301603
0.319983
0.332957
0.314106
0.282998
0.26335
0.251516
0.245241
0.242994
0.243467
0.245632
0.248761
0.252375
0.256168
0.259955
0.263626
0.267116
0.270384
0.273399
0.276144
0.278621
0.280797
0.282312
0.282547
0.283766
0.297448
0.325318
0.29734
0.260136
0.237465
0.224213
0.217429
0.215207
0.21603
0.218747
0.222554
0.226921
0.231511
0.23612
0.240628
0.244969
0.249107
0.253025
0.256716
0.260193
0.263481
0.266457
0.268499
0.269816
0.278068
0.317078
0.275587
0.232154
0.207446
0.193694
0.187075
0.185365
0.186895
0.190436
0.195136
0.200436
0.205977
0.211544
0.21701
0.22231
0.227416
0.232327
0.237063
0.241668
0.246141
0.250241
0.253827
0.259909
0.276503
0.283014
0.247692
0.197761
0.172465
0.159427
0.153822
0.153216
0.155872
0.160539
0.166362
0.172774
0.179413
0.186053
0.192563
0.198869
0.204935
0.210748
0.216317
0.221663
0.226707
0.231072
0.234931
0.243028
0.263056
0.25436
0.212296
0.155407
0.131665
0.120892
0.117329
0.118537
0.122798
0.128921
0.136103
0.143809
0.151683
0.159502
0.167128
0.174476
0.181495
0.188152
0.194435
0.200347
0.205793
0.210412
0.214528
0.223401
0.244382
0.230487
0.167573
0.1036
0.084375
0.0776648
0.0773187
0.081149
0.0875464
0.0954739
0.104258
0.113432
0.122675
0.131774
0.140589
0.149028
0.157024
0.164525
0.171501
0.177949
0.18381
0.188808
0.19334
0.202715
0.223904
0.208284
0.110985
0.0415487
0.0303669
0.0295408
0.0336698
0.0409849
0.0500608
0.0601353
0.0707494
0.0815575
0.0922966
0.102777
0.112865
0.122462
0.131489
0.139879
0.147586
0.154604
0.160929
0.166378
0.171401
0.181148
0.202214
0.186807
0.0350755
-0.0299482
-0.0296686
-0.023367
-0.0136062
-0.00195537
0.0103269
0.0228718
0.0355241
0.0481151
0.0604684
0.0724327
0.0838869
0.0947322
0.104881
0.114252
0.122783
0.130461
0.137329
0.1433
0.14886
0.15887
0.179578
0.165776
-0.0748152
-0.110422
-0.093751
-0.0787478
-0.0634452
-0.047263
-0.0315133
-0.0162813
-0.00144231
0.0130445
0.0271115
0.0406598
0.0535871
0.0657962
0.0771928
0.0876836
0.0971888
0.10568
0.113216
0.119794
0.125938
0.136118
0.156249
0.145089
-0.360756
-0.351101
-0.35638
-0.368638
-0.390082
-0.435491
-0.36308
-0.354305
-0.362421
-0.377548
-0.400263
-0.446801
-0.36803
-0.358766
-0.369768
-0.386431
-0.406986
-0.436384
-0.371502
-0.362286
-0.375479
-0.392442
-0.411024
-0.431978
-0.370312
-0.364438
-0.379448
-0.39648
-0.413837
-0.431018
-0.366761
-0.366143
-0.382407
-0.399593
-0.416279
-0.431508
-0.366016
-0.368549
-0.38504
-0.402175
-0.418539
-0.432556
-0.367512
-0.371544
-0.387532
-0.404374
-0.420567
-0.433693
-0.369055
-0.37458
-0.389794
-0.406322
-0.422187
-0.434714
-0.370419
-0.377349
-0.391695
-0.40799
-0.423399
-0.435593
-0.37152
-0.37975
-0.393171
-0.409264
-0.424284
-0.436328
-0.372343
-0.38172
-0.394183
-0.410096
-0.42486
-0.436925
-0.372908
-0.383122
-0.394689
-0.410473
-0.425135
-0.437407
-0.373225
-0.383985
-0.39466
-0.410396
-0.425098
-0.43779
-0.373336
-0.384304
-0.3941
-0.409857
-0.424717
-0.438039
-0.373339
-0.384102
-0.393041
-0.408838
-0.42393
-0.43805
-0.373357
-0.38346
-0.391548
-0.407319
-0.422617
-0.437605
-0.373352
-0.382499
-0.38972
-0.405275
-0.420594
-0.436368
-0.373156
-0.381367
-0.387692
-0.402684
-0.417614
-0.433835
-0.37103
-0.380369
-0.385728
-0.399605
-0.413389
-0.428944
-0.367014
-0.380136
-0.384309
-0.396318
-0.407586
-0.419234
-0.367577
-0.381127
-0.384022
-0.393162
-0.399656
-0.400209
-0.371954
-0.382824
-0.384372
-0.389439
-0.38838
-0.36735
-0.374056
-0.383368
-0.382593
-0.382616
-0.371349
-0.319921
-0.249421
-0.196523
-0.160767
-0.13445
-0.113129
-0.0936846
-0.0749783
-0.0571645
-0.0401264
-0.023692
-0.0078516
0.00736362
0.0218748
0.0355854
0.0483927
0.0601904
0.0708791
0.0804009
0.0887946
0.0961139
0.102919
0.113193
0.132526
0.124762
-0.328106
-0.273087
-0.226476
-0.190993
-0.16252
-0.139251
-0.118558
-0.0992502
-0.0804478
-0.0621446
-0.0445203
-0.0275736
-0.0113751
0.0039859
0.0183965
0.0317328
0.0438728
0.0547213
0.0642534
0.072545
0.0801525
0.0904997
0.108813
0.104865
-0.373761
-0.325515
-0.281402
-0.244529
-0.21264
-0.185535
-0.161697
-0.140948
-0.121402
-0.102152
-0.0830491
-0.0643416
-0.0463499
-0.0291761
-0.0129497
0.00219089
0.0160996
0.0286388
0.0397108
0.0493394
0.0579985
0.0685172
0.0856312
0.0855857
-0.403483
-0.363469
-0.324796
-0.290712
-0.26097
-0.23277
-0.207075
-0.183797
-0.162219
-0.142328
-0.122768
-0.103023
-0.0833651
-0.0641941
-0.045898
-0.0286538
-0.0126229
0.00202596
0.0151367
0.0266087
0.0367611
0.0477855
0.0637131
0.0673972
-0.420289
-0.392082
-0.360175
-0.329781
-0.301896
-0.276692
-0.253111
-0.229101
-0.20596
-0.183857
-0.162497
-0.142161
-0.12187
-0.101266
-0.0808483
-0.0611595
-0.0425972
-0.0253872
-0.00971073
0.00425214
0.0165823
0.028738
0.0438743
0.0509972
-0.429681
-0.412755
-0.388162
-0.362199
-0.336938
-0.313783
-0.292291
-0.271646
-0.250807
-0.22832
-0.205412
-0.182816
-0.160459
-0.138786
-0.11727
-0.0955637
-0.0742507
-0.0540103
-0.035212
-0.0181037
-0.00280695
0.0114222
0.0267155
0.0370818
-0.43548
-0.426528
-0.408975
-0.387749
-0.365683
-0.344536
-0.324821
-0.306217
-0.287749
-0.268921
-0.248877
-0.226294
-0.202192
-0.177844
-0.153688
-0.130108
-0.107001
-0.0840604
-0.0618115
-0.0409972
-0.0219529
-0.00449102
0.0123451
0.0259661
-0.439427
-0.435417
-0.423424
-0.406648
-0.387777
-0.368778
-0.3506
-0.333386
-0.316754
-0.300157
-0.282536
-0.263401
-0.242352
-0.218653
-0.192662
-0.165858
-0.139413
-0.11376
-0.0888676
-0.0646
-0.0414275
-0.0198064
2.86725e-05
0.0173625
-0.442251
-0.441237
-0.433112
-0.419877
-0.40378
-0.386664
-0.369721
-0.353409
-0.33769
-0.322252
-0.306466
-0.28967
-0.271
-0.249953
-0.226671
-0.201054
-0.173184
-0.144097
-0.115149
-0.0873409
-0.0607244
-0.0349434
-0.0108017
0.0111839
-0.444339
-0.44521
-0.439666
-0.428957
-0.414965
-0.399261
-0.383057
-0.367045
-0.351406
-0.336039
-0.320708
-0.304936
-0.287932
-0.269071
-0.247976
-0.224313
-0.198192
-0.170112
-0.14045
-0.109767
-0.0790376
-0.0498792
-0.0222822
0.0090903
-0.445984
-0.448145
-0.444393
-0.435449
-0.422972
-0.408205
-0.392251
-0.37587
-0.359492
-0.343224
-0.326977
-0.310602
-0.293661
-0.275533
-0.255723
-0.233875
-0.209798
-0.183462
-0.15499
-0.12477
-0.0934145
-0.0612083
-0.0299664
0.0024192
-0.447452
-0.450618
-0.448303
-0.440729
-0.429456
-0.415361
-0.399362
-0.382179
-0.364372
-0.346268
-0.327985
-0.309551
-0.290904
-0.271719
-0.251538
-0.230064
-0.207104
-0.182457
-0.155996
-0.12774
-0.0978793
-0.0662867
-0.0343425
-0.000305837
-0.448962
-0.453033
-0.452171
-0.446021
-0.4359
-0.422533
-0.406564
-0.388558
-0.369057
-0.348511
-0.327279
-0.305634
-0.283804
-0.261863
-0.239639
-0.21688
-0.193431
-0.169216
-0.144156
-0.118128
-0.0910189
-0.062519
-0.0330078
-0.00189236
-0.450834
-0.455858
-0.456579
-0.452196
-0.443563
-0.431342
-0.415879
-0.397459
-0.376517
-0.353545
-0.329051
-0.303519
-0.277455
-0.251314
-0.225411
-0.199827
-0.174532
-0.149469
-0.124592
-0.0998801
-0.0753523
-0.0509006
-0.0265146
-0.00293734
-0.453222
-0.459522
-0.462141
-0.459818
-0.453376
-0.443113
-0.428986
-0.411005
-0.389395
-0.364581
-0.337104
-0.307566
-0.276804
-0.245654
-0.214864
-0.18494
-0.156248
-0.128981
-0.103261
-0.0790513
-0.0562821
-0.0348683
-0.0148819
0.0018599
-0.456291
-0.464191
-0.469192
-0.469477
-0.46603
-0.458682
-0.447074
-0.4309
-0.410044
-0.38457
-0.354715
-0.321086
-0.285104
-0.24829
-0.21185
-0.176677
-0.143461
-0.112744
-0.0847872
-0.0597159
-0.0374651
-0.0173372
0.00239853
0.0182953
-0.46019
-0.469995
-0.477894
-0.481403
-0.481789
-0.47854
-0.470998
-0.458298
-0.439437
-0.413622
-0.381015
-0.343462
-0.302552
-0.259933
-0.217296
-0.176207
-0.137828
-0.102986
-0.0721855
-0.0456898
-0.0234113
-0.00362011
0.0181135
0.0351859
-0.465054
-0.476961
-0.488165
-0.495433
-0.500499
-0.502527
-0.500125
-0.491647
-0.47542
-0.450491
-0.417227
-0.376782
-0.330747
-0.281522
-0.231763
-0.183792
-0.139356
-0.0997025
-0.0656349
-0.0376079
-0.0156556
0.00124745
0.0146736
0.0185852
-0.470997
-0.48496
-0.499656
-0.510944
-0.521109
-0.529122
-0.53309
-0.530531
-0.519054
-0.497039
-0.464251
-0.421041
-0.369605
-0.313182
-0.255397
-0.199553
-0.148187
-0.103049
-0.0651618
-0.0350902
-0.0130803
0.000743478
0.00579725
0.00201983
-0.478114
-0.493731
-0.511792
-0.527071
-0.542558
-0.55712
-0.568524
-0.573572
-0.568723
-0.550975
-0.519525
-0.474082
-0.417218
-0.353234
-0.286892
-0.222864
-0.164372
-0.113453
-0.0712408
-0.0381991
-0.0144245
2.32816e-05
0.00495177
0.0023408
-0.486123
-0.502997
-0.523784
-0.542603
-0.563251
-0.584515
-0.603797
-0.617111
-0.61979
-0.607919
-0.57837
-0.531677
-0.470016
-0.399428
-0.325765
-0.254691
-0.190094
-0.134301
-0.0883517
-0.0523574
-0.0259398
-0.00848427
0.000700497
0.0039384
-0.493715
-0.512405
-0.53475
-0.556079
-0.58117
-0.608469
-0.634879
-0.655666
-0.665043
-0.658276
-0.631405
-0.584421
-0.52035
-0.445374
-0.366828
-0.291326
-0.223217
-0.164704
-0.116494
-0.0782721
-0.0491704
-0.0279196
-0.0128461
-0.00193833
-0.501367
-0.522206
-0.54358
-0.566118
-0.594309
-0.626123
-0.657704
-0.683817
-0.697758
-0.693553
-0.668027
-0.620961
-0.555731
-0.478772
-0.398288
-0.321532
-0.252679
-0.193534
-0.144677
-0.105281
-0.0739021
-0.0487767
-0.0279426
-0.0104055
-0.524062
-0.534559
-0.549627
-0.571465
-0.601102
-0.635413
-0.669672
-0.697782
-0.712799
-0.708822
-0.682735
-0.634737
-0.568775
-0.491902
-0.41247
-0.33745
-0.270277
-0.212197
-0.164128
-0.124509
-0.0917324
-0.0642062
-0.0404975
-0.0181068
-0.64378
-0.654443
-0.657531
-0.670052
-0.681425
-0.756782
-0.642624
-0.653267
-0.655949
-0.667321
-0.672498
-0.68915
-0.639915
-0.651294
-0.653104
-0.662507
-0.662685
-0.656976
-0.637308
-0.649202
-0.649946
-0.656739
-0.652653
-0.639359
-0.635921
-0.6475
-0.647098
-0.651109
-0.643586
-0.626534
-0.637109
-0.646259
-0.644763
-0.646144
-0.636022
-0.616649
-0.640393
-0.645339
-0.64295
-0.641931
-0.630249
-0.609554
-0.641913
-0.644409
-0.641484
-0.638443
-0.626256
-0.604963
-0.641526
-0.643335
-0.640251
-0.635939
-0.623792
-0.602593
-0.640994
-0.642113
-0.639233
-0.634575
-0.622721
-0.602211
-0.640569
-0.640744
-0.638493
-0.634115
-0.622944
-0.603622
-0.640133
-0.639242
-0.638054
-0.634322
-0.624311
-0.606567
-0.63958
-0.637622
-0.63786
-0.635093
-0.626563
-0.610823
-0.638833
-0.635856
-0.63784
-0.63634
-0.629407
-0.616461
-0.637848
-0.633834
-0.637929
-0.638039
-0.632583
-0.622752
-0.636734
-0.631504
-0.63814
-0.640221
-0.635839
-0.629632
-0.637071
-0.629403
-0.638543
-0.642903
-0.639219
-0.638066
-0.639477
-0.628909
-0.639229
-0.646063
-0.643073
-0.649535
-0.640881
-0.629351
-0.640026
-0.649613
-0.647877
-0.664584
-0.640371
-0.629621
-0.640594
-0.653337
-0.654085
-0.682779
-0.639148
-0.629125
-0.640384
-0.656651
-0.661596
-0.703842
-0.635932
-0.627253
-0.63884
-0.658325
-0.669172
-0.728691
-0.631329
-0.624328
-0.636324
-0.657303
-0.675521
-0.759076
-0.629099
-0.622296
-0.635079
-0.655873
-0.681336
-0.796954
-0.584101
-0.547226
-0.551875
-0.571565
-0.600962
-0.635622
-0.669943
-0.697193
-0.710384
-0.704086
-0.675556
-0.625918
-0.560028
-0.485233
-0.409424
-0.338784
-0.275069
-0.220039
-0.173978
-0.135111
-0.102019
-0.0734676
-0.0483271
-0.023013
-0.593201
-0.553592
-0.549653
-0.566634
-0.594234
-0.627407
-0.659515
-0.683472
-0.692567
-0.681781
-0.649567
-0.598183
-0.533249
-0.461989
-0.39155
-0.326787
-0.26888
-0.218474
-0.175173
-0.138344
-0.106446
-0.0784577
-0.0534295
-0.0263126
-0.586492
-0.552046
-0.543921
-0.557129
-0.582076
-0.612187
-0.640202
-0.658957
-0.662018
-0.645395
-0.60907
-0.556429
-0.493634
-0.427317
-0.36348
-0.30518
-0.253426
-0.208071
-0.168642
-0.134452
-0.104456
-0.0779035
-0.0538483
-0.0266026
-0.580346
-0.547258
-0.535746
-0.54488
-0.565974
-0.591527
-0.613964
-0.625969
-0.621613
-0.598719
-0.558666
-0.505994
-0.446731
-0.386548
-0.329385
-0.277563
-0.23182
-0.191423
-0.155976
-0.124846
-0.0972504
-0.0726218
-0.0498498
-0.0237439
-0.575412
-0.541542
-0.526508
-0.531042
-0.547174
-0.567014
-0.582677
-0.586496
-0.574295
-0.545537
-0.502931
-0.451508
-0.396657
-0.34265
-0.292206
-0.24655
-0.20598
-0.170234
-0.138777
-0.11094
-0.0861119
-0.0636924
-0.0423211
-0.018278
-0.571199
-0.535948
-0.517098
-0.516518
-0.526787
-0.540164
-0.547547
-0.542568
-0.522881
-0.489297
-0.445548
-0.396442
-0.346272
-0.298031
-0.253404
-0.213155
-0.177419
-0.145914
-0.118133
-0.0934693
-0.0713654
-0.0510351
-0.0309418
-0.0100044
-0.568273
-0.531031
-0.508071
-0.501783
-0.505917
-0.511494
-0.509671
-0.496169
-0.469803
-0.432741
-0.389011
-0.342716
-0.296989
-0.2538
-0.214203
-0.178633
-0.147111
-0.119364
-0.0948959
-0.0731631
-0.0535858
-0.035137
-0.0161445
0.000856165
-0.566967
-0.527086
-0.499661
-0.487473
-0.484659
-0.481104
-0.470301
-0.4488
-0.416873
-0.377557
-0.33461
-0.291171
-0.249369
-0.210464
-0.175096
-0.1435
-0.115616
-0.0911531
-0.0696161
-0.0504984
-0.0332162
-0.016432
0.00172895
0.0141948
-0.567406
-0.524234
-0.491846
-0.473614
-0.462392
-0.449771
-0.43018
-0.401382
-0.36508
-0.324518
-0.282741
-0.241946
-0.203509
-0.168194
-0.136361
-0.1081
-0.083294
-0.0616331
-0.0426258
-0.0257893
-0.0105518
0.00480458
0.0224171
0.0299205
-0.569494
-0.522361
-0.484744
-0.459451
-0.439341
-0.417732
-0.389474
-0.35435
-0.314828
-0.273743
-0.233279
-0.194851
-0.15928
-0.126976
-0.0980914
-0.0726132
-0.0503788
-0.0310659
-0.0141945
0.000678595
0.0141188
0.0282791
0.0455568
0.0478514
-0.573298
-0.520974
-0.477876
-0.444401
-0.415606
-0.384459
-0.34809
-0.307834
-0.266114
-0.224999
-0.185883
-0.149576
-0.116475
-0.0867216
-0.0603093
-0.0371434
-0.0170304
0.000354284
0.0154587
0.0286649
0.0405427
0.0537163
0.0708233
0.0678671
-0.578413
-0.519247
-0.47001
-0.4283
-0.389963
-0.349216
-0.305889
-0.261748
-0.218643
-0.177863
-0.140137
-0.105785
-0.0748731
-0.0473258
-0.023013
-0.00177642
0.0165981
0.0324243
0.0460953
0.0579095
0.0684449
0.0808158
0.097924
0.0899407
-0.584028
-0.516336
-0.460287
-0.410254
-0.361264
-0.311632
-0.262672
-0.215769
-0.171981
-0.131877
-0.0956312
-0.0631666
-0.0342754
-0.00870875
0.0137682
0.0333664
0.0503134
0.0648995
0.0774402
0.0881265
0.0975365
0.109269
0.126552
0.11407
-0.588526
-0.511867
-0.448047
-0.388413
-0.328584
-0.271357
-0.218147
-0.169498
-0.125668
-0.0866005
-0.0519987
-0.021451
0.00547541
0.029174
0.049968
0.0681165
0.0838592
0.0974586
0.10914
0.11896
0.127479
0.138728
0.156341
0.140263
-0.589739
-0.506041
-0.431488
-0.360816
-0.291323
-0.228083
-0.171932
-0.122489
-0.0792607
-0.0416356
-0.00891543
0.0195916
0.0445035
0.066333
0.0854797
0.10225
0.116902
0.129677
0.140717
0.14993
0.15783
0.168769
0.186864
0.168622
-0.586393
-0.499227
-0.408906
-0.326499
-0.249167
-0.181525
-0.123649
-0.0743246
-0.0323574
0.00336965
0.0339021
0.0601624
0.0829165
0.10277
0.120188
0.135521
0.149056
0.161035
0.171558
0.180425
0.188055
0.198903
0.217583
0.199575
-0.578902
-0.490464
-0.379676
-0.285136
-0.201689
-0.131252
-0.0728858
-0.0246211
0.0153892
0.0487186
0.0767057
0.100453
0.120834
0.138517
0.154011
0.167704
0.179917
0.190915
0.200827
0.209495
0.217214
0.227912
0.246652
0.234608
-0.568128
-0.476089
-0.342858
-0.236117
-0.14829
-0.0767888
-0.019276
0.0269315
0.0642562
0.0946624
0.119722
0.140665
0.158424
0.173692
0.186987
0.198701
0.209151
0.218608
0.227262
0.235084
0.242013
0.250065
0.264928
0.274927
-0.553216
-0.449702
-0.295996
-0.178521
-0.0884192
-0.0177443
0.037454
0.0805459
0.114431
0.141384
0.163144
0.181013
0.195932
0.208581
0.219444
0.228864
0.237094
0.244331
0.250708
0.256087
0.259755
0.262329
0.272948
0.306657
-0.531194
-0.40378
-0.235832
-0.111388
-0.0215803
0.0461728
0.0974512
0.136304
0.165978
0.188962
0.207089
0.221672
0.233628
0.24359
0.251995
0.259146
0.26525
0.27047
0.274854
0.27798
0.279236
0.282227
0.30014
0.321606
-0.500471
-0.332674
-0.158773
-0.0336231
0.0526229
0.115031
0.160643
0.194089
0.218786
0.237321
0.251534
0.262687
0.271637
0.278951
0.285012
0.290082
0.29435
0.297973
0.300945
0.302742
0.30316
0.307676
0.329302
0.340461
-0.463751
-0.230228
-0.0603402
0.0559569
0.134194
0.188493
0.226628
0.253499
0.272516
0.286192
0.296284
0.303935
0.309894
0.314647
0.318514
0.321708
0.324389
0.326687
0.328543
0.329375
0.329207
0.334318
0.357246
0.362934
-0.409495
-0.0814276
0.0643258
0.158117
0.222467
0.265671
0.294598
0.313827
0.326602
0.33514
0.340986
0.345124
0.348157
0.350467
0.352294
0.353794
0.355085
0.356255
0.35719
0.357249
0.35655
0.361721
0.384926
0.387574
-0.23387
0.127459
0.213125
0.270976
0.315524
0.344889
0.363201
0.374137
0.380302
0.383562
0.385162
0.385852
0.386068
0.386068
0.386007
0.385972
0.386024
0.386203
0.386332
0.385713
0.3845
0.389442
0.412255
0.412941
)
;

boundaryField
{
    rotor
    {
        type            zeroGradient;
    }
    freestream
    {
        type            freestreamPressure;
        freestreamValue uniform 0;
        supersonic      false;
        value           nonuniform List<scalar> 
96
(
0.316019
0.348198
0.380725
0.413168
0.44509
0.476042
0.505577
0.533267
0.55872
0.581585
0.601557
0.618315
0.631643
0.641704
0.648511
0.651703
0.651481
0.64785
0.640898
0.630834
0.617845
0.602166
0.584069
0.563799
0.541832
0.518572
0.494122
0.468156
0.441387
0.414192
0.386838
0.35958
0.332652
0.306276
0.280656
0.256
0.232554
0.21069
0.191136
0.175366
0.160036
0.133557
0.111552
0.0934551
0.0777094
0.0638339
0.0516489
0.0410408
0.0319199
0.0241902
0.0177582
0.0125609
0.0085356
0.00558127
0.00352588
0.00213834
0.00125857
0.000946644
0.000235488
-2.80711e-05
-0.000162137
-0.000221474
0.000104805
0.00049218
3.51888e-05
0.000271243
8.57693e-05
0.000144334
0.000290709
-0.000162135
-0.000985455
-0.00192638
-0.00269678
-0.00335629
-0.00370059
-0.00360573
-0.0030312
-0.00181589
0.000170331
0.00309654
0.00715499
0.0125312
0.0194305
0.028088
0.0387501
0.0516667
0.067118
0.0855188
0.107782
0.134789
0.159676
0.178262
0.200465
0.226122
0.254484
0.284624
)
;
    }
    frontAndBack
    {
        type            empty;
    }
}


// ************************************************************************* //
