/*--------------------------------*- C++ -*----------------------------------*\
  =========                 |
  \\      /  F ield         | OpenFOAM: The Open Source CFD Toolbox
   \\    /   O peration     | Website:  https://openfoam.org
    \\  /    A nd           | Version:  11
     \\/     M anipulation  |
\*---------------------------------------------------------------------------*/
FoamFile
{
    format      ascii;
    class       surfaceVectorField;
    location    "1.82";
    object      Uf;
}
// * * * * * * * * * * * * * * * * * * * * * * * * * * * * * * * * * * * * * //

dimensions      [0 1 -1 0 0 0 0];

internalField   nonuniform List<vector> 
5640
(
(-0.0211313 -0.0587812 2.57932e-18)
(-0.0181167 -0.0657042 -1.33779e-18)
(-0.0528523 0.00177514 3.09327e-19)
(-0.0376953 -0.0142456 8.93835e-20)
(-0.106422 0.102314 -1.98174e-19)
(-0.0772489 0.0740755 6.5686e-19)
(-0.141486 0.231188 7.12441e-19)
(-0.141774 0.2027 -5.31609e-19)
(-0.191115 0.506709 0)
(-0.13972 0.331719 -1.19441e-19)
(-0.237872 0.769138 1.02429e-19)
(-0.075009 1.0954 -1.17145e-20)
(-0.0285093 -0.0292012 -3.90142e-18)
(-0.0250042 -0.0530697 -1.48927e-18)
(-0.0561337 0.0582337 4.08999e-19)
(-0.0406097 0.0314054 -1.02223e-18)
(-0.0965929 0.162211 3.6912e-19)
(-0.0702766 0.12689 8.69491e-19)
(-0.124565 0.303257 -1.35332e-18)
(-0.112403 0.248378 -7.37675e-19)
(-0.103818 0.506257 -9.66351e-20)
(-0.0965201 0.399322 -6.55078e-20)
(-0.061041 0.666171 1.02429e-19)
(0.0529064 0.849902 1.19451e-19)
(-0.0334198 -0.000669668 1.36425e-18)
(-0.0335519 -0.0321625 2.62819e-18)
(-0.0519599 0.0973713 -6.37497e-19)
(-0.0386162 0.0655487 7.43033e-19)
(-0.0777817 0.202103 -1.82212e-19)
(-0.0580523 0.162078 -6.07574e-19)
(-0.0851211 0.339507 5.26722e-19)
(-0.0806807 0.276588 4.61478e-19)
(-0.0352693 0.514058 5.52258e-20)
(-0.051473 0.421194 1.42074e-19)
(0.0268946 0.613309 -1.26896e-20)
(0.123494 0.735951 0)
(-0.0362056 0.0249739 2.11438e-18)
(-0.0400171 -0.0112757 -2.79825e-20)
(-0.0441011 0.126329 8.30552e-19)
(-0.0344294 0.0914465 7.7168e-20)
(-0.0566464 0.228116 0)
(-0.0440087 0.186161 0)
(-0.0481118 0.354078 8.56699e-20)
(-0.0502025 0.292047 0)
(0.0159253 0.501855 8.83476e-20)
(-0.0102934 0.421008 1.69298e-19)
(0.081284 0.567754 -8.44493e-20)
(0.161858 0.659613 2.15872e-19)
(-0.0363852 0.0460557 -2.07434e-18)
(-0.0428135 0.00645239 -1.23712e-18)
(-0.0345717 0.147227 -7.51373e-19)
(-0.028696 0.11031 -7.20739e-19)
(-0.0353606 0.243527 0)
(-0.0292543 0.201482 4.55467e-19)
(-0.0141158 0.355274 7.88818e-20)
(-0.0220482 0.297379 0)
(0.0564038 0.47761 1.80684e-20)
(0.025909 0.407839 8.11572e-20)
(0.120077 0.52103 1.90224e-19)
(0.18847 0.593718 -6.23365e-19)
(-0.0336749 0.0619238 8.90193e-20)
(-0.0416291 0.0201241 8.19922e-20)
(-0.0239727 0.160857 4.35737e-19)
(-0.0214053 0.122945 6.52663e-19)
(-0.0148348 0.250238 4.70854e-19)
(-0.0141399 0.209543 -8.80712e-21)
(0.0160944 0.346947 0)
(0.0036401 0.294639 3.24402e-19)
(0.0893251 0.445941 2.55703e-19)
(0.0571951 0.386435 3.91733e-20)
(0.149857 0.472693 7.73246e-21)
(0.20907 0.531554 5.49224e-19)
(-0.0281923 0.0728917 6.15042e-19)
(-0.036766 0.0297576 -2.01468e-20)
(-0.0124483 0.168272 2.35662e-19)
(-0.0126331 0.13036 1.92627e-20)
(0.00471884 0.249945 -1.66832e-19)
(0.00115027 0.211701 -4.64579e-19)
(0.0427584 0.331756 3.71911e-19)
(0.0269916 0.285633 -3.40939e-20)
(0.11664 0.40987 -2.08281e-19)
(0.0841152 0.359662 3.3453e-19)
(0.173648 0.423671 -2.54494e-19)
(0.225935 0.471896 -2.96786e-19)
(-0.020342 0.0795918 -6.18234e-19)
(-0.0289608 0.0358321 4.00023e-20)
(-0.000144151 0.170702 -6.60428e-19)
(-0.00262248 0.133662 -6.52688e-19)
(0.0232645 0.244221 -3.4658e-19)
(0.0164155 0.209239 4.32301e-19)
(0.0662991 0.311696 -8.16796e-20)
(0.0481649 0.271951 -3.58698e-19)
(0.139629 0.371301 3.02437e-19)
(0.107296 0.329458 -6.55291e-20)
(0.193172 0.374754 3.1253e-19)
(0.24027 0.414452 0)
(-0.0107665 0.0828931 4.62357e-20)
(-0.0192356 0.0390279 1.35554e-18)
(0.0126706 0.169325 3.93872e-19)
(0.00823767 0.133881 5.4426e-19)
(0.0407464 0.234462 4.46906e-19)
(0.0314032 0.20332 -4.43779e-19)
(0.0870866 0.288324 -3.50887e-19)
(0.0672948 0.254944 4.3339e-20)
(0.159171 0.331497 -6.50592e-20)
(0.12728 0.29721 -6.47021e-19)
(0.209501 0.32647 3.12856e-19)
(0.252766 0.359105 3.64466e-19)
(-0.000230165 0.0836088 1.9011e-18)
(-0.0086339 0.0399667 2.1204e-20)
(0.0256328 0.165179 -2.5114e-19)
(0.0194741 0.131882 -3.07692e-20)
(0.0570714 0.221847 -8.64008e-19)
(0.0458344 0.194937 -4.54569e-19)
(0.105423 0.262844 -2.33439e-19)
(0.0844838 0.235718 4.3339e-20)
(0.175894 0.291327 -2.92484e-19)
(0.14451 0.263929 -9.62333e-22)
(0.223379 0.279207 -5.9416e-20)
(0.263705 0.305842 6.54339e-20)
(0.0105337 0.0823761 -1.90762e-18)
(0.0019525 0.0391075 -1.27425e-18)
(0.0383505 0.159105 -2.15899e-19)
(0.0306036 0.128323 -1.17995e-18)
(0.0721296 0.207331 4.35688e-19)
(0.0594532 0.184887 -2.30932e-20)
(0.121542 0.236175 2.77087e-19)
(0.0998104 0.215154 -3.16248e-19)
(0.190273 0.251354 2.33566e-19)
(0.159337 0.230335 2.8508e-19)
(0.235244 0.233087 -3.07926e-19)
(0.273585 0.254375 2.39559e-19)
(0.0209132 0.0796422 -5.52024e-19)
(0.0118455 0.0367499 5.92889e-20)
(0.050464 0.151734 -1.03638e-18)
(0.0411933 0.123654 -1.7326e-20)
(0.085832 0.191659 -7.65126e-19)
(0.0720614 0.173776 -2.32874e-19)
(0.13562 0.209019 -3.25115e-19)
(0.113355 0.193946 1.94219e-19)
(0.202631 0.211946 -2.42163e-19)
(0.172037 0.196957 -3.5027e-20)
(0.245399 0.188188 -3.41012e-19)
(0.282491 0.20457 -5.28974e-19)
(0.0304428 0.0756891 5.98284e-19)
(0.0205674 0.0330797 -5.73505e-19)
(0.0616827 0.143505 7.95302e-19)
(0.050891 0.118144 5.68452e-19)
(0.0981352 0.175395 7.12058e-19)
(0.0835332 0.162047 2.38439e-19)
(0.147832 0.181902 4.90753e-19)
(0.125224 0.172629 1.43972e-19)
(0.213207 0.173362 -1.26649e-19)
(0.182844 0.1642 4.18434e-22)
(0.254017 0.14454 3.17331e-20)
(0.290518 0.156224 -7.49322e-20)
(0.0387873 0.0706819 -6.69301e-19)
(0.0277957 0.0282184 1.44171e-21)
(0.0718014 0.134696 2.56357e-20)
(0.059415 0.111918 -1.85436e-20)
(0.109054 0.158962 -3.26544e-19)
(0.0938197 0.150012 2.45783e-19)
(0.158345 0.155245 -3.42343e-19)
(0.135573 0.151628 -1.79345e-19)
(0.222179 0.135805 1.58075e-19)
(0.191959 0.132408 1.09139e-19)
(0.261171 0.102169 1.24604e-19)
(0.297706 0.109128 9.28234e-20)
(0.0457078 0.0647211 6.53539e-19)
(0.033284 0.0222651 6.39372e-19)
(0.0806756 0.125455 1.90151e-19)
(0.0665313 0.104981 -1.85436e-20)
(0.118668 0.14267 4.07337e-19)
(0.102941 0.137869 2.05101e-19)
(0.167344 0.129396 2.64054e-19)
(0.144607 0.131302 1.08134e-19)
(0.229664 0.0994522 7.54598e-20)
(0.199584 0.101927 -7.72691e-20)
(0.266822 0.061137 0)
(0.30402 0.0630532 0)
(0.0509845 0.0578373 5.2458e-21)
(0.036751 0.0153232 4.95967e-21)
(0.0882153 0.115831 -1.33263e-20)
(0.0720418 0.0972296 0)
(0.127114 0.126758 -9.06806e-20)
(0.110985 0.125718 -1.39186e-20)
(0.175054 0.104701 -2.27979e-19)
(0.152587 0.111967 1.49006e-20)
(0.235759 0.0645401 -1.54569e-19)
(0.205941 0.0731523 -7.31373e-20)
(0.270828 0.0216083 8.03896e-21)
(0.309331 0.0177761 3.47203e-20)
(0.0543611 0.0500128 0)
(0.0378027 0.00749631 0)
(0.0943822 0.105763 0)
(0.0757786 0.0884402 -8.30821e-20)
(0.134595 0.111401 9.07773e-20)
(0.118115 0.113557 9.69477e-22)
(0.18174 0.0815337 1.72204e-19)
(0.159846 0.0939204 9.39514e-20)
(0.240555 0.0314243 8.75114e-20)
(0.211318 0.0465812 7.53264e-20)
(0.272908 -0.0160868 1.02399e-20)
(0.313436 -0.0269016 -3.10337e-20)
(0.0555166 0.0411944 -7.82889e-20)
(0.0359181 -0.00113552 0)
(0.0991934 0.0950733 -8.57147e-20)
(0.0775948 0.0782503 1.75296e-19)
(0.141403 0.0967074 1.00223e-21)
(0.124573 0.101287 9.69477e-22)
(0.18775 0.0603074 -2.40427e-21)
(0.166828 0.0774454 0)
(0.244155 0.000635317 -4.75606e-22)
(0.216145 0.0228706 -8.76897e-20)
(0.272554 -0.0513263 2.20097e-21)
(0.315968 -0.0711545 4.39391e-22)
(0.0540488 0.0312991 2.43508e-19)
(0.0305145 -0.0105319 2.02442e-20)
(0.102713 0.0834426 2.69413e-19)
(0.0773114 0.0661366 6.3475e-20)
(0.147929 0.082716 0)
(0.130659 0.0886818 1.74298e-20)
(0.193585 0.0415289 -8.28268e-20)
(0.174137 0.0628 -1.4127e-20)
(0.246734 -0.0269081 -8.72589e-20)
(0.221163 0.0029142 5.28292e-21)
(0.268907 -0.082992 0)
(0.316284 -0.115062 8.49824e-21)
(0.0494375 0.0200632 -1.62725e-19)
(0.0212838 -0.0206233 6.41513e-19)
(0.105024 0.0703866 -1.86726e-19)
(0.0745538 0.0513522 2.00582e-19)
(0.154664 0.0693704 4.20142e-21)
(0.13671 0.0753532 1.74298e-20)
(0.200011 0.0258028 7.33644e-20)
(0.182617 0.0501603 -1.4127e-20)
(0.248766 -0.0496801 9.25903e-20)
(0.227717 -0.0121014 1.38737e-19)
(0.260211 -0.109083 -4.16852e-20)
(0.313208 -0.158566 -1.36858e-19)
(0.0416291 0.00523872 1.02998e-18)
(0.0119957 -0.0302742 5.96248e-19)
(0.106152 0.0553347 4.12531e-19)
(0.0687643 0.0328917 -4.1518e-19)
(0.162138 0.0565535 0)
(0.143008 0.0606718 3.13368e-19)
(0.208126 0.0138042 4.69599e-20)
(0.193343 0.0395095 2.6427e-19)
(0.251376 -0.0654332 1.92608e-20)
(0.238034 -0.0207505 2.64304e-19)
(0.241454 -0.126369 -8.26965e-20)
(0.304444 -0.201898 9.21088e-20)
(0.0335518 -0.00785568 -7.91562e-19)
(0.00471249 -0.0385834 -6.68668e-19)
(0.106006 0.0380309 -5.44012e-19)
(0.0596029 0.010467 -1.22369e-18)
(0.170627 0.0441805 5.79296e-19)
(0.149174 0.0435803 -1.01759e-19)
(0.218742 0.00609797 4.81612e-19)
(0.207063 0.0305034 -2.56926e-20)
(0.25543 -0.0711016 1.81139e-19)
(0.254239 -0.0216562 -1.93915e-20)
(0.197462 -0.132382 3.11553e-19)
(0.286353 -0.246836 -1.3014e-19)
(0.0235007 -0.0222486 -1.06706e-18)
(-0.00380564 -0.045625 -6.61387e-19)
(0.103946 0.0180927 -8.24808e-19)
(0.0432971 -0.0178946 5.41849e-19)
(0.179991 0.0312277 -7.05128e-19)
(0.149586 0.020604 -3.64035e-19)
(0.229894 0.00144172 -5.2471e-19)
(0.219122 0.0213927 -2.09599e-19)
(0.252713 -0.0657129 1.02702e-19)
(0.269632 -0.0140479 -3.01009e-19)
(0.0908762 -0.137037 -4.74372e-20)
(0.255171 -0.2979 6.67677e-19)
(0.00851824 -0.0429545 8.74381e-19)
(0.0922305 -0.0143036 1.0359e-18)
(0.184134 0.00404018 1.26276e-19)
(0.232385 -0.0113423 -1.15751e-20)
(0.202541 -0.0702914 -5.37081e-19)
(0.217196 -0.361504 -5.61885e-19)
(0.601748 0.951506 -7.5812e-20)
(0.382183 1.02893 -1.40492e-20)
(0.549863 1.10074 9.52009e-21)
(0.824433 0.812838 9.77709e-20)
(0.708799 0.841984 3.94071e-20)
(0.817369 0.865218 2.81201e-20)
(0.943595 0.703706 4.2339e-20)
(0.86367 0.736752 9.96375e-20)
(0.947266 0.755376 9.36431e-20)
(1.0116 0.611716 6.81584e-20)
(0.953511 0.642466 -2.48896e-20)
(1.02316 0.658843 -6.5317e-20)
(1.05213 0.532396 4.83871e-20)
(1.00781 0.558337 1.18808e-21)
(1.06821 0.573533 9.69573e-20)
(1.07735 0.464665 -1.37321e-19)
(1.04199 0.486236 8.95206e-20)
(1.09503 0.500295 -5.10456e-20)
(1.09373 0.407499 -1.67241e-19)
(1.06456 0.4254 -1.45576e-19)
(1.1114 0.437959 -5.57039e-20)
(1.10477 0.359504 -8.13441e-20)
(1.08017 0.374432 -1.74599e-19)
(1.12172 0.38532 -1.10588e-19)
(1.11235 0.319107 6.76987e-20)
(1.09131 0.331721 -3.25367e-21)
(1.12835 0.341001 -2.8873e-20)
(1.11737 0.284775 6.91746e-20)
(1.09928 0.295633 -7.36153e-20)
(1.13251 0.303513 6.84605e-20)
(1.12026 0.255169 -6.06483e-20)
(1.10471 0.264683 -6.85108e-20)
(1.13469 0.271423 0)
(1.12121 0.229216 4.24715e-20)
(1.10793 0.237691 -3.08728e-21)
(1.1351 0.243544 -1.15517e-19)
(1.12036 0.206095 2.52597e-19)
(1.10914 0.213752 1.05199e-19)
(1.13385 0.218944 1.28149e-19)
(1.11778 0.185171 -3.61903e-20)
(1.10847 0.192178 2.02745e-19)
(1.13099 0.196902 1.2384e-19)
(1.11352 0.165947 -2.33815e-19)
(1.10601 0.172436 -2.39203e-19)
(1.12655 0.176855 -1.8473e-19)
(1.10757 0.148023 -1.73694e-19)
(1.10181 0.154099 -4.93242e-20)
(1.12052 0.158351 -6.55946e-20)
(1.09991 0.131076 -6.86805e-21)
(1.09587 0.136828 -8.46528e-20)
(1.11286 0.141026 -4.99295e-20)
(1.09048 0.114842 8.66762e-20)
(1.08815 0.120359 8.14029e-20)
(1.10349 0.124594 4.80424e-20)
(1.07919 0.0991113 -1.13626e-19)
(1.07861 0.104465 -3.787e-20)
(1.09233 0.108806 -9.02575e-20)
(1.06595 0.083727 -1.49882e-19)
(1.06729 0.0888055 -7.86912e-20)
(1.07933 0.0932885 1.01913e-19)
(1.0506 0.0685748 -7.4314e-20)
(1.05427 0.072947 -1.94687e-19)
(1.06449 0.0775496 -1.76018e-19)
(1.03298 0.0535961 0)
(1.03882 0.0579046 1.9591e-19)
(1.04709 0.0625728 6.76992e-20)
(1.01455 0.0396703 -2.05624e-21)
(1.01769 0.0494012 1.58321e-19)
(1.02398 0.0544054 0)
(0.993972 0.0494741 -7.75133e-20)
(0.997524 0.0558343 -1.30553e-19)
(0.529411 0.853622 0)
(0.351482 0.874245 0)
(0.745373 0.769005 3.2208e-20)
(0.63715 0.788286 4.49093e-20)
(0.871725 0.676403 3.35087e-20)
(0.793105 0.700095 -1.45818e-19)
(0.948457 0.589499 -9.621e-20)
(0.889608 0.612592 -1.47229e-19)
(0.996658 0.513032 4.04534e-20)
(0.951073 0.533238 3.41918e-20)
(1.02846 0.447814 8.66043e-20)
(0.991858 0.464827 1.41943e-19)
(1.05048 0.393039 -1.50925e-19)
(1.02022 0.407207 3.84441e-20)
(1.06632 0.347212 -9.7379e-20)
(1.04079 0.359036 -9.75418e-20)
(1.07797 0.308675 -1.4416e-19)
(1.05614 0.318685 1.62762e-19)
(1.08643 0.275864 -2.11737e-19)
(1.06768 0.28452 -6.87882e-20)
(1.09226 0.247458 -1.13542e-20)
(1.07615 0.255094 -7.09435e-22)
(1.09578 0.222431 5.89436e-20)
(1.08199 0.229293 5.84023e-20)
(1.0972 0.200005 5.42813e-20)
(1.08552 0.206278 1.20709e-19)
(1.09667 0.179587 3.34782e-21)
(1.08694 0.185412 -5.95205e-20)
(1.09429 0.160713 -5.59216e-20)
(1.08639 0.166202 -5.22958e-20)
(1.09011 0.143014 4.02618e-20)
(1.08397 0.148256 4.57695e-20)
(1.08413 0.126188 2.32595e-21)
(1.07972 0.131259 4.3855e-20)
(1.07635 0.109999 -4.24456e-20)
(1.07365 0.114975 -1.3499e-19)
(1.06673 0.094265 -2.53752e-21)
(1.06576 0.099202 4.38132e-20)
(1.05524 0.0788598 -1.225e-19)
(1.05615 0.0836377 -4.71918e-20)
(1.0418 0.063701 8.41305e-20)
(1.04498 0.0679104 -3.60545e-20)
(1.02636 0.0487755 3.54455e-19)
(1.03152 0.0530403 3.25454e-19)
(1.01053 0.0351355 2.62813e-19)
(1.01244 0.0443349 -5.7381e-21)
(0.991369 0.0432745 -1.54539e-19)
(0.479241 0.781793 4.38327e-20)
(0.33329 0.774035 3.11665e-19)
(0.682555 0.718139 -1.27051e-19)
(0.582006 0.72438 2.12468e-19)
(0.809423 0.636586 -3.2858e-19)
(0.733722 0.651107 -1.80728e-19)
(0.891194 0.556948 -1.98611e-20)
(0.833236 0.572766 1.6215e-19)
(0.945437 0.485826 1.34044e-19)
(0.899793 0.500314 1.53115e-21)
(0.982962 0.424967 9.562e-20)
(0.945974 0.437378 0)
(1.01004 0.373834 9.47697e-20)
(0.979316 0.384234 2.07118e-19)
(1.03024 0.331015 1.61249e-19)
(1.00426 0.339715 -6.64453e-21)
(1.04559 0.294913 2.41419e-19)
(1.02336 0.302309 1.63811e-19)
(1.05721 0.264039 1.42091e-19)
(1.03809 0.270485 -9.48886e-20)
(1.06575 0.237159 6.8719e-20)
(1.04931 0.242907 6.8051e-20)
(1.07165 0.213329 1.1959e-19)
(1.05756 0.218569 -6.88852e-20)
(1.0752 0.191844 8.48656e-21)
(1.06323 0.196721 1.19431e-19)
(1.07662 0.172163 -1.15236e-19)
(1.0666 0.176789 -1.14283e-19)
(1.07605 0.153863 4.87433e-20)
(1.06786 0.158331 -1.71186e-19)
(1.07358 0.136606 4.9506e-20)
(1.06715 0.140988 1.02021e-19)
(1.06926 0.12012 -9.2164e-20)
(1.06455 0.124478 1.02473e-19)
(1.06313 0.104196 -5.03193e-20)
(1.06011 0.108591 -2.42519e-19)
(1.0552 0.0886839 -1.21659e-22)
(1.05386 0.0931538 1.39022e-19)
(1.04548 0.0734888 4.24688e-20)
(1.04597 0.0779091 1.39712e-19)
(1.03396 0.0585619 2.13787e-19)
(1.03665 0.0625519 -1.41085e-19)
(1.02069 0.0439326 5.34197e-21)
(1.02516 0.0480836 1.29414e-19)
(1.00729 0.030792 -2.43375e-19)
(1.00814 0.0393212 -1.64059e-19)
(0.989643 0.0373418 3.5974e-21)
(0.44479 0.705634 5.05557e-19)
(0.323825 0.688021 -3.41411e-19)
(0.631809 0.657798 1.71067e-19)
(0.541077 0.65545 2.47827e-19)
(0.756423 0.587848 3.0386e-19)
(0.685306 0.594758 0)
(0.840936 0.516865 1.86011e-19)
(0.785051 0.526225 1.46764e-19)
(0.899588 0.452622 -1.32964e-19)
(0.854831 0.461769 -2.04977e-19)
(0.941726 0.397325 1.08614e-19)
(0.905073 0.405339 6.88981e-20)
(0.973065 0.350683 1.08188e-19)
(0.942435 0.357443 1.10148e-19)
(0.997015 0.311464 -6.01797e-21)
(0.971026 0.317126 -3.15382e-21)
(1.0156 0.278222 -1.69735e-19)
(0.993315 0.283063 -2.60172e-21)
(1.03001 0.24961 -1.70628e-19)
(1.01081 0.253885 -8.43798e-20)
(1.04099 0.224525 -6.82091e-20)
(1.02445 0.228409 7.87886e-20)
(1.04905 0.202134 -7.07982e-20)
(1.03486 0.205765 -1.43019e-19)
(1.05457 0.181813 -1.28948e-21)
(1.04248 0.185298 -4.9209e-21)
(1.05781 0.163083 -1.69758e-19)
(1.04765 0.166508 1.26171e-19)
(1.05895 0.145566 -1.20117e-19)
(1.0506 0.149002 -2.33413e-19)
(1.05812 0.128958 1.54984e-19)
(1.05151 0.132461 1.08117e-19)
(1.05542 0.113018 -4.52411e-20)
(1.05049 0.116635 1.02473e-19)
(1.05091 0.0975674 -5.60714e-20)
(1.04761 0.101343 -9.88806e-20)
(1.04464 0.0824895 2.78956e-19)
(1.04297 0.0864452 -5.32583e-21)
(1.03668 0.067726 -4.50611e-20)
(1.03677 0.0717344 3.29067e-19)
(1.02706 0.0532603 -2.27128e-19)
(1.02925 0.0569756 -3.69583e-19)
(1.01589 0.0391581 0)
(1.01968 0.0431272 -1.88784e-19)
(1.00474 0.0267038 8.17685e-20)
(1.00474 0.0344526 1.81228e-19)
(0.988702 0.0317597 4.01839e-20)
(0.422671 0.631419 -5.95244e-19)
(0.319729 0.609111 -3.52465e-19)
(0.592546 0.593392 8.48264e-20)
(0.510914 0.585383 -2.16126e-19)
(0.712811 0.533823 -1.59547e-19)
(0.646594 0.534771 1.56817e-19)
(0.798064 0.471911 -2.38054e-19)
(0.744936 0.475739 -2.57555e-19)
(0.859594 0.415209 -7.52865e-21)
(0.816379 0.419538 9.26105e-20)
(0.905198 0.36608 6.98572e-20)
(0.869436 0.370034 6.88981e-20)
(0.93993 0.324402 0)
(0.909856 0.327749 1.24567e-19)
(0.966965 0.289136 0)
(0.941345 0.291922 -4.57044e-21)
(0.988272 0.259032 8.37239e-20)
(0.966249 0.261434 -2.07364e-19)
(1.00508 0.232915 1.63516e-19)
(0.98607 0.235101 2.68769e-19)
(1.01819 0.209838 6.18312e-21)
(1.00179 0.211915 -5.94294e-21)
(1.02819 0.189088 -7.83069e-20)
(1.01408 0.191149 -7.41336e-20)
(1.03549 0.170129 1.21513e-19)
(1.02344 0.172246 1.38514e-19)
(1.0404 0.152543 6.56739e-20)
(1.03023 0.154778 1.94073e-19)
(1.04314 0.135999 -7.72734e-21)
(1.03474 0.138403 -1.86822e-19)
(1.04386 0.120229 5.57478e-20)
(1.03715 0.122844 2.9371e-19)
(1.0427 0.105025 5.05266e-20)
(1.03761 0.107882 -1.14469e-19)
(1.03974 0.0902418 -4.87834e-20)
(1.03623 0.0933679 -5.04616e-21)
(1.03509 0.0758005 4.246e-20)
(1.03313 0.0792009 -1.54672e-19)
(1.02884 0.06168 -3.02147e-21)
(1.02855 0.0652278 2.97983e-19)
(1.02106 0.0478932 -3.32253e-19)
(1.02275 0.0512826 -1.43747e-19)
(1.01189 0.0345303 -4.42423e-20)
(1.01501 0.0382532 -1.88784e-19)
(1.0028 0.0229158 1.40653e-19)
(1.00213 0.0298037 2.29936e-19)
(0.988437 0.0265929 -4.18582e-20)
(0.408197 0.559563 9.00773e-21)
(0.31917 0.535498 2.92274e-19)
(0.562635 0.527901 -1.50266e-19)
(0.489066 0.516174 -2.97402e-19)
(0.67757 0.477364 6.82875e-20)
(0.616327 0.473535 1.56817e-19)
(0.762318 0.42413 6.72547e-20)
(0.712268 0.423243 -1.99174e-19)
(0.825482 0.375048 1.69145e-19)
(0.784226 0.375132 -8.71171e-20)
(0.873511 0.332272 1.22833e-19)
(0.839047 0.332564 -1.53746e-19)
(0.910803 0.295738 1.21482e-19)
(0.881648 0.295956 2.54774e-19)
(0.940268 0.264589 -2.09661e-19)
(0.915329 0.264706 -2.46192e-19)
(0.96379 0.237776 -2.76175e-20)
(0.942294 0.237889 1.07555e-19)
(0.982599 0.214307 1.02226e-19)
(0.964004 0.214511 -6.20077e-21)
(0.997539 0.193397 -8.55632e-20)
(0.98146 0.193746 -1.73239e-19)
(1.00922 0.174451 1.40814e-19)
(0.995361 0.174998 -7.90084e-20)
(1.01811 0.157019 2.10686e-19)
(1.00623 0.157808 1.44539e-19)
(1.02452 0.140745 -5.51898e-20)
(1.01447 0.141815 7.5292e-23)
(1.02872 0.125343 1.10722e-19)
(1.02038 0.126729 -1.24699e-19)
(1.03088 0.110581 1.26666e-19)
(1.02416 0.112309 2.38381e-19)
(1.03116 0.096286 -1.70835e-19)
(1.02599 0.0983723 6.4847e-20)
(1.02968 0.0823504 -1.09811e-19)
(1.02601 0.0848044 -1.14923e-19)
(1.02657 0.0687363 9.81958e-20)
(1.02436 0.0715469 -1.64511e-19)
(1.02194 0.0554582 1.54222e-19)
(1.0213 0.0585029 2.61013e-19)
(1.01591 0.04255 0)
(1.01712 0.0455673 2.08612e-19)
(1.00861 0.0301106 4.84176e-20)
(1.01109 0.033528 -1.5141e-19)
(1.00136 0.0194528 4.89877e-20)
(1.00022 0.0254307 2.08839e-23)
(0.988732 0.0218878 1.60484e-19)
(0.399023 0.490446 0)
(0.320985 0.466409 0)
(0.540325 0.462941 0)
(0.473724 0.448796 0)
(0.649785 0.420115 -1.02253e-19)
(0.593263 0.412516 0)
(0.733187 0.374983 -3.54861e-19)
(0.686315 0.370122 1.91993e-19)
(0.797025 0.333284 -4.08806e-19)
(0.757969 0.329682 -3.45023e-19)
(0.846591 0.296764 -2.7493e-20)
(0.813709 0.293806 -1.59651e-19)
(0.885698 0.265347 -1.06815e-19)
(0.857739 0.262742 1.30206e-19)
(0.916991 0.238335 6.6736e-20)
(0.892983 0.23601 -1.21697e-19)
(0.94225 0.214867 1.30252e-19)
(0.921498 0.212863 3.18861e-19)
(0.96268 0.194135 -2.79955e-19)
(0.944692 0.192485 -3.87627e-19)
(0.979141 0.175502 -1.67609e-19)
(0.963555 0.174221 9.08853e-20)
(0.992264 0.158487 -7.7474e-20)
(0.978797 0.157593 -1.62867e-19)
(1.00252 0.142717 -6.49542e-20)
(0.99096 0.142231 2.32101e-19)
(1.01028 0.127896 -6.84674e-20)
(1.00045 0.127839 -2.12845e-19)
(1.01578 0.11378 0)
(1.00759 0.114171 0)
(1.01926 0.100176 1.77956e-19)
(1.0126 0.101028 -6.55845e-20)
(1.02086 0.0869473 1.22291e-19)
(1.01568 0.08826 5.78588e-20)
(1.02074 0.0740264 -1.69203e-19)
(1.01698 0.0757924 6.10396e-20)
(1.01907 0.0614171 -4.12956e-21)
(1.01667 0.0636101 -1.10657e-19)
(1.01596 0.0491632 3.15739e-19)
(1.01502 0.0516693 3.3092e-19)
(1.01154 0.0373071 5.22919e-20)
(1.01231 0.0399113 -6.35003e-20)
(1.00595 0.0259403 -2.008e-19)
(1.00783 0.0289986 -1.49652e-19)
(1.00034 0.0163207 1.10502e-19)
(0.998898 0.0213721 -4.87786e-20)
(0.989465 0.0176733 3.29071e-19)
(0.39405 0.42405 0)
(0.324327 0.401168 0)
(0.524251 0.399439 0)
(0.463592 0.383806 0)
(0.628478 0.363211 2.90251e-19)
(0.576302 0.352619 -5.77016e-20)
(0.710054 0.325508 2.10926e-19)
(0.666317 0.317304 3.49631e-19)
(0.773858 0.290777 -9.87928e-20)
(0.737116 0.283997 -1.80508e-19)
(0.824246 0.260243 -6.09906e-21)
(0.793129 0.254425 2.35031e-19)
(0.864535 0.233782 1.18394e-19)
(0.837968 0.228656 0)
(0.897122 0.210828 1.25151e-19)
(0.874238 0.206296 1.19935e-19)
(0.923681 0.190693 -1.91173e-19)
(0.903851 0.18675 6.99678e-21)
(0.945379 0.172734 -2.18028e-20)
(0.928158 0.169369 -9.75259e-20)
(0.963067 0.156449 9.81719e-20)
(0.94812 0.153644 8.83481e-20)
(0.977383 0.141456 1.43004e-19)
(0.964442 0.139205 1.71957e-19)
(0.98881 0.127455 8.82105e-20)
(0.977672 0.125758 7.21039e-20)
(0.997715 0.114202 -1.46153e-19)
(0.988226 0.113065 -6.99867e-20)
(1.00438 0.101495 -6.50636e-20)
(0.996423 0.100924 -1.39294e-19)
(1.00901 0.0891793 -1.86681e-19)
(1.00251 0.0891724 1.34688e-19)
(1.01181 0.0771571 -3.47529e-21)
(1.0067 0.0776999 -1.84707e-19)
(1.01294 0.0654034 1.20779e-19)
(1.00914 0.0664714 5.7267e-20)
(1.01258 0.053959 2.21657e-19)
(1.01004 0.0555135 0)
(1.01085 0.0428864 -5.04681e-20)
(1.00965 0.0448258 1.07623e-19)
(1.00789 0.0322222 -2.72163e-19)
(1.00824 0.0343778 -4.7979e-20)
(1.00383 0.0220393 1.64964e-21)
(1.00517 0.0246916 -5.19664e-20)
(0.999645 0.01351 1.67618e-19)
(0.998069 0.017649 0)
(0.990519 0.0139617 3.4454e-19)
(0.39201 0.360645 0)
(0.328752 0.339301 7.79233e-20)
(0.513271 0.337914 -5.64932e-20)
(0.45759 0.321302 -3.53553e-19)
(0.612759 0.307353 -6.15305e-21)
(0.564493 0.294332 1.34309e-21)
(0.692288 0.276409 -3.27594e-20)
(0.651558 0.265373 -1.20336e-21)
(0.755567 0.248147 1.46902e-19)
(0.721164 0.238626 -3.68909e-19)
(0.806221 0.22324 2.44261e-19)
(0.776977 0.214917 4.91404e-19)
(0.847169 0.2015 0)
(0.822133 0.194136 0)
(0.880595 0.182468 3.1226e-21)
(0.85898 0.175953 0)
(0.908068 0.165607 1.01823e-19)
(0.889302 0.159902 -3.38235e-19)
(0.930708 0.15042 1.06294e-20)
(0.914387 0.145479 2.05165e-19)
(0.949346 0.136521 1.61288e-19)
(0.93516 0.132304 -9.10985e-20)
(0.964617 0.123612 1.0198e-19)
(0.952314 0.120094 2.55968e-19)
(0.977003 0.111458 -8.47918e-20)
(0.96639 0.108622 -2.41333e-19)
(0.986877 0.0998637 -6.25499e-20)
(0.977808 0.0977016 1.50779e-19)
(0.994524 0.0886675 5.82008e-20)
(0.986891 0.0871729 -2.84407e-19)
(1.00018 0.0777523 1.39079e-19)
(0.993896 0.0769105 1.30821e-19)
(1.00403 0.0670614 -1.25924e-19)
(0.999034 0.0668432 -6.32412e-20)
(1.00627 0.0566103 -6.31143e-20)
(1.00249 0.0569757 3.08681e-22)
(1.00706 0.0464681 -1.14752e-19)
(1.00444 0.04737 0)
(1.00656 0.0367023 1.0855e-19)
(1.00516 0.0380545 -1.15522e-19)
(1.00489 0.0273329 1.7221e-19)
(1.00488 0.0290095 2.25591e-19)
(1.00217 0.0184104 -5.40334e-20)
(1.00303 0.020617 -1.10244e-19)
(0.999208 0.0110013 1.74941e-19)
(0.997627 0.0142684 0)
(0.991782 0.0107497 1.75953e-19)
(0.392303 0.299961 -2.63645e-19)
(0.333905 0.280264 4.46824e-19)
(0.506493 0.278526 -3.0315e-19)
(0.454939 0.261208 2.80787e-19)
(0.601868 0.252922 6.23281e-21)
(0.557077 0.237858 2.4374e-19)
(0.679308 0.228122 -3.31204e-19)
(0.641423 0.214657 1.62978e-19)
(0.741736 0.20582 -3.73718e-20)
(0.709648 0.193923 -1.83896e-19)
(0.792241 0.186156 2.53984e-19)
(0.764927 0.175636 2.52257e-19)
(0.83343 0.168872 0)
(0.810018 0.15953 -7.54644e-20)
(0.867312 0.153597 -3.37309e-19)
(0.847074 0.145311 1.31025e-19)
(0.89536 0.139926 -2.40995e-19)
(0.877769 0.132628 -3.43246e-19)
(0.918645 0.127484 1.06527e-19)
(0.903334 0.121107 2.11285e-19)
(0.937975 0.115981 9.33917e-23)
(0.924652 0.110468 9.66801e-20)
(0.953969 0.105194 -8.26793e-20)
(0.9424 0.100503 9.43175e-23)
(0.967109 0.094943 -9.20945e-21)
(0.95711 0.0910433 8.1213e-20)
(0.977765 0.0850761 -6.73377e-20)
(0.969197 0.0819479 7.69468e-20)
(0.986227 0.0754721 -2.15214e-19)
(0.978987 0.0730972 -7.08723e-20)
(0.992733 0.0660523 -7.00278e-20)
(0.986741 0.0644031 7.1339e-20)
(0.997486 0.0567999 6.258e-20)
(0.992675 0.0558333 0)
(1.00068 0.0477651 6.34751e-20)
(0.996974 0.047429 6.30371e-20)
(1.00248 0.0390338 0)
(0.999827 0.0392763 0)
(1.00303 0.0306656 1.31266e-21)
(1.00148 0.031417 0)
(1.00246 0.0226592 -5.48518e-20)
(1.00214 0.0238309 -5.70132e-20)
(1.00089 0.0150453 -5.68668e-20)
(1.00134 0.0167738 -1.14835e-19)
(0.998964 0.00876968 0)
(0.997478 0.0112275 -1.09389e-19)
(0.993151 0.00801852 1.97939e-19)
(0.394463 0.241695 9.96465e-19)
(0.339588 0.223611 8.12294e-20)
(0.50325 0.221238 8.27676e-19)
(0.45509 0.20332 3.8132e-19)
(0.595188 0.200075 4.02136e-19)
(0.553466 0.183211 -2.54232e-19)
(0.670616 0.180896 3.1588e-19)
(0.635408 0.165307 -5.655e-20)
(0.731992 0.164082 9.91892e-20)
(0.702173 0.150104 4.34613e-20)
(0.78204 0.149293 -7.26222e-20)
(0.756683 0.136841 -1.9836e-22)
(0.823139 0.136201 5.29083e-20)
(0.801414 0.125109 -1.49941e-19)
(0.857155 0.124513 1.30716e-19)
(0.838377 0.114648 -6.3928e-20)
(0.885482 0.113933 1.02764e-19)
(0.869157 0.105205 2.32653e-19)
(0.909144 0.104191 2.02634e-19)
(0.894933 0.096514 -1.07285e-19)
(0.928922 0.0950765 9.7629e-20)
(0.916552 0.088381 1.68705e-22)
(0.945421 0.0864275 1.633e-19)
(0.934668 0.0806585 4.36933e-20)
(0.959111 0.0781129 1.67419e-19)
(0.949804 0.0732282 -3.04055e-21)
(0.970363 0.070023 7.47063e-20)
(0.962368 0.0659912 -7.7191e-20)
(0.979466 0.0620744 2.14581e-19)
(0.972685 0.0588657 7.42404e-20)
(0.98666 0.0542269 1.41938e-19)
(0.981017 0.0518013 -3.75048e-20)
(0.992151 0.0465002 0)
(0.987581 0.0448025 1.04299e-19)
(0.99613 0.0389698 0)
(0.992563 0.0379393 3.36062e-20)
(0.998767 0.0317255 0)
(0.996146 0.0313088 -9.62248e-20)
(1.00021 0.0248116 -5.80084e-20)
(0.99856 0.0249544 1.24817e-19)
(1.00056 0.0182079 -1.16617e-19)
(0.99998 0.0188527 -2.81516e-20)
(0.99994 0.0119296 -1.74251e-19)
(1.00004 0.0131591 -5.82328e-20)
(0.998853 0.00678757 3.96297e-20)
(0.997537 0.00852624 -1.09389e-19)
(0.994518 0.00572543 2.94555e-19)
(0.398166 0.185508 -5.39906e-19)
(0.34566 0.168865 -2.47325e-19)
(0.503059 0.165892 -6.8745e-19)
(0.457671 0.147345 -3.9847e-19)
(0.592242 0.148825 -7.16098e-19)
(0.553231 0.130286 -3.45564e-19)
(0.665808 0.134854 -3.30509e-19)
(0.633118 0.117361 -1.64492e-19)
(0.726015 0.123123 -5.52774e-20)
(0.698421 0.107294 4.39592e-20)
(0.775381 0.112878 -7.55662e-20)
(0.751996 0.0987121 -8.65424e-20)
(0.816124 0.103737 -2.67827e-19)
(0.796134 0.0910918 1.47318e-19)
(0.850004 0.0954718 3.45167e-20)
(0.832753 0.0842023 -3.27234e-19)
(0.878349 0.0878811 2.64162e-20)
(0.863364 0.077874 2.35675e-19)
(0.902143 0.080783 -3.10836e-19)
(0.889109 0.0719382 -1.06212e-19)
(0.92214 0.0740327 -5.4182e-20)
(0.910797 0.0662687 -1.93208e-19)
(0.93893 0.0675201 -1.22158e-19)
(0.929067 0.0607701 9.09494e-20)
(0.952974 0.0611582 -2.47008e-19)
(0.944427 0.055369 -8.22401e-20)
(0.964635 0.0548766 -7.90065e-20)
(0.957279 0.0500058 -7.8353e-20)
(0.974202 0.0486293 -1.76978e-19)
(0.967943 0.0446359 0)
(0.981913 0.0424119 -7.63649e-20)
(0.976678 0.0392448 -2.14702e-19)
(0.987974 0.0362744 1.38417e-19)
(0.983701 0.0338691 1.3926e-19)
(0.99257 0.0303065 -6.17165e-20)
(0.989191 0.0285973 -1.14967e-22)
(0.995871 0.0245916 2.73141e-20)
(0.99333 0.0235255 1.85073e-21)
(0.998014 0.0191579 1.55655e-19)
(0.996326 0.0186921 1.2427e-19)
(0.999108 0.0139748 3.04179e-20)
(0.998334 0.0140756 -1.22087e-19)
(0.99926 0.00905136 0)
(0.999085 0.0097674 2.95862e-20)
(0.998825 0.00502385 9.60602e-20)
(0.997741 0.00617115 -1.13134e-19)
(0.995786 0.00380488 1.98614e-19)
(0.403208 0.131011 -1.00957e-19)
(0.352037 0.115533 -2.18394e-20)
(0.505595 0.112247 -5.84114e-20)
(0.462468 0.0929391 6.34876e-22)
(0.592684 0.0990985 2.025e-19)
(0.556084 0.0789135 2.51418e-19)
(0.664575 0.090041 2.06247e-19)
(0.634269 0.070792 1.09813e-19)
(0.723554 0.0830644 1.45546e-20)
(0.698153 0.0655629 9.62067e-20)
(0.772066 0.077086 1.331e-19)
(0.750671 0.0613893 -8.4396e-20)
(0.812234 0.0716882 9.38396e-20)
(0.794023 0.0576637 1.4725e-19)
(0.845742 0.0666983 -1.32747e-19)
(0.830074 0.0541834 -1.97087e-19)
(0.873868 0.0619984 1.0688e-19)
(0.86029 0.0508557 1.20686e-19)
(0.897566 0.0574814 1.23083e-20)
(0.885775 0.0475966 5.33602e-20)
(0.917567 0.0530584 -5.0934e-20)
(0.907317 0.0443384 -9.67087e-20)
(0.934443 0.0486651 1.32461e-19)
(0.925534 0.0410314 1.67331e-21)
(0.948647 0.0442555 8.63812e-20)
(0.940923 0.0376435 8.56293e-20)
(0.960533 0.039797 0)
(0.953876 0.0341535 0)
(0.970386 0.0352793 -3.60238e-20)
(0.964707 0.0305528 0)
(0.978438 0.03073 -1.88487e-21)
(0.973671 0.0268601 -3.63122e-20)
(0.984892 0.0262202 1.7369e-21)
(0.980975 0.0231369 3.49677e-20)
(0.989931 0.0218431 6.34233e-20)
(0.986798 0.0194786 -3.37289e-20)
(0.993717 0.0176705 9.79925e-20)
(0.991314 0.0159717 6.49335e-20)
(0.996391 0.0137199 -1.52726e-19)
(0.994715 0.0126468 -5.46774e-22)
(0.998064 0.00996434 -1.23873e-19)
(0.997142 0.00948575 -2.94357e-20)
(0.998839 0.0064218 -8.26982e-20)
(0.998421 0.0065432 -2.08163e-19)
(0.998914 0.00345482 -2.48591e-20)
(0.998039 0.00407508 2.04747e-21)
(0.996967 0.00227952 1.10245e-22)
(0.409497 0.0777782 7.90156e-20)
(0.358674 0.0630945 -6.1905e-20)