/*--------------------------------*- C++ -*----------------------------------*\
  =========                 |
  \\      /  F ield         | OpenFOAM: The Open Source CFD Toolbox
   \\    /   O peration     | Website:  https://openfoam.org
    \\  /    A nd           | Version:  11
     \\/     M anipulation  |
\*---------------------------------------------------------------------------*/
FoamFile
{
    format      ascii;
    class       volScalarField;
    location    "0.08";
    object      epsilon;
}
// * * * * * * * * * * * * * * * * * * * * * * * * * * * * * * * * * * * * * //

dimensions      [0 2 -3 0 0 0 0];

internalField   nonuniform List<scalar> 
2880
(
2.8642
2.94602
3.12329
3.1301
4.27188
32.0345
1.03756
1.55911
2.28584
3.29002
7.57351
14.3781
0.269032
1.49415
2.52165
4.12582
7.29508
8.43577
1.29844
1.688
2.80587
4.46875
6.14632
5.69565
1.69771
1.87347
3.00205
4.36565
5.07124
4.04184
2.04767
2.02897
3.10731
4.05025
4.24404
2.98891
2.36838
2.15479
3.10995
3.72454
3.58661
2.29246
2.65079
2.25992
3.0557
3.442
3.06113
1.8207
2.88365
2.3486
2.97842
3.20142
2.65242
1.49746
3.05703
2.42238
2.90818
3.00493
2.34473
1.27866
3.16423
2.48213
2.85968
2.85253
2.12373
1.13621
3.20031
2.52988
2.83718
2.74484
1.97914
1.05312
3.17153
2.56634
2.83723
2.68601
1.90621
1.02667
3.08264
2.58929
2.85011
2.67841
1.90373
1.03749
2.94589
2.59594
2.87681
2.7051
1.96034
1.10545
2.77599
2.5859
2.90872
2.77841
2.09478
1.23735
2.58581
2.55615
2.94334
2.88617
2.30255
1.4474
2.35812
2.50413
2.98277
3.02689
2.58412
1.75433
2.07904
2.44016
3.03082
3.21163
2.92432
2.18239
1.74519
2.38416
3.10274
3.44512
3.31992
2.75272
1.36509
2.36956
3.23648
3.74077
3.78992
3.46657
0.280742
2.45951
3.53116
4.16146
4.41658
4.4848
1.06171
2.99733
4.3709
5.05587
5.39543
7.19852
2.66477
6.21181
8.42268
8.42753
8.29051
26.7083
4.92096
1.58121
0.487692
0.159941
0.0608953
0.02757
0.0143165
0.00819702
0.00507027
0.00330429
0.00224898
0.00159736
0.00118609
0.000922267
0.00075077
0.000637804
0.000562171
0.000510413
0.00047394
0.00044718
0.000426463
0.000409705
0.000395998
0.000384871
3.93474
1.34494
0.436708
0.14525
0.055848
0.0255852
0.0134756
0.00784161
0.00492976
0.00326673
0.00226037
0.00163064
0.00122705
0.000963613
0.000788968
0.000671376
0.000590769
0.000534275
0.000493545
0.000463007
0.00043885
0.000418854
0.000402007
0.00038838
2.88799
1.05379
0.363761
0.125836
0.0498371
0.0234138
0.0126117
0.00750149
0.00480634
0.00324294
0.00228304
0.00167348
0.00127634
0.00101235
0.00083377
0.000710835
0.00062457
0.000562673
0.000517028
0.000482067
0.000453812
0.000429888
0.00040926
0.000392645
2.14475
0.815871
0.292246
0.105695
0.0437163
0.0212706
0.0117819
0.00719177
0.00470682
0.00323627
0.00231956
0.00172783
0.00133559
0.00106994
0.000886527
0.000757461
0.000664772
0.00059669
0.000545325
0.000505113
0.000471925
0.000443323
0.000418483
0.000398051
1.62234
0.632528
0.233323
0.0882978
0.0382608
0.0193437
0.0110489
0.00693054
0.00463937
0.0032526
0.00237372
0.00179652
0.00140708
0.00113834
0.000949015
0.00081288
0.000712872
0.000637692
0.000579666
0.000533252
0.000494204
0.000460064
0.000430232
0.000404929
1.2534
0.495092
0.187196
0.0740741
0.0336531
0.0177052
0.0104464
0.00673597
0.00461206
0.00329846
0.00245024
0.00188322
0.00149381
0.00122009
0.00102346
0.000879095
0.000770695
0.000687355
0.000621585
0.000567866
0.000521842
0.000481034
0.000445068
0.000413514
0.990342
0.393595
0.152104
0.0628526
0.0299229
0.0163837
0.0100061
0.00663027
0.00463692
0.00338172
0.0025552
0.00199271
0.00159964
0.00131842
0.00111265
0.000958604
0.000840525
0.000747788
0.000673024
0.000610705
0.000556326
0.000507364
0.000463726
0.000424126
0.801612
0.319333
0.125926
0.0542607
0.0270409
0.0154025
0.0097328
0.00661762
0.00472882
0.00351292
0.00269664
0.00213131
0.00172964
0.00143754
0.00122018
0.00105457
0.000925232
0.000821644
0.000736435
0.000663988
0.000599574
0.000540568
0.00048724
0.000437233
0.666292
0.265541
0.106783
0.0479123
0.02496
0.0147794
0.00965037
0.006725
0.00490441
0.00370568
0.00288532
0.0023075
0.0018906
0.00158296
0.00135068
0.00117101
0.00102843
0.000912236
0.000814887
0.000730525
0.000654066
0.000582671
0.000517047
0.000453484
0.570638
0.22733
0.093219
0.0434939
0.0236425
0.014543
0.00978726
0.00698121
0.0051871
0.00397882
0.00313611
0.00253297
0.00209176
0.00176211
0.00151028
0.00131314
0.00115469
0.00102372
0.000912207
0.000813844
0.000722977
0.000636351
0.0005551
0.000473761
0.505663
0.201381
0.084252
0.0408192
0.0231121
0.0147308
0.0101914
0.00742674
0.00561043
0.00435915
0.00347012
0.00282426
0.0023461
0.00198532
0.00170732
0.00148792
0.00131
0.00116139
0.00103322
0.000918395
0.000810367
0.00070512
0.000604044
0.000499234
0.465838
0.185663
0.079338
0.0398604
0.0233742
0.0154114
0.0109356
0.00812276
0.00622401
0.00488605
0.00391822
0.00320547
0.00267247
0.00226742
0.00195369
0.00170504
0.0015025
0.00133232
0.00118425
0.00104994
0.000921522
0.000793671
0.000667523
0.000531427
0.451353
0.180176
0.0783473
0.0405432
0.0246424
0.0167238
0.0121339
0.00916251
0.00710277
0.00561885
0.0045269
0.00371278
0.00309909
0.00263061
0.00226707
0.00197887
0.00174417
0.00154675
0.00137429
0.00121658
0.00106383
0.000908707
0.000750968
0.000572388
0.455693
0.183321
0.081665
0.0434822
0.0271734
0.0188893
0.0139648
0.0106903
0.00836234
0.00664915
0.00536793
0.00440219
0.00366965
0.00310924
0.0026749
0.00233185
0.00205387
0.00182105
0.00161797
0.00143162
0.00124958
0.0010617
0.000864428
0.000625848
0.491166
0.200238
0.090786
0.0493088
0.0314482
0.0222675
0.0167111
0.0129328
0.0101847
0.00812165
0.00655517
0.0053626
0.00445359
0.00375801
0.00322104
0.00280021
0.00246277
0.00218343
0.00194215
0.00172178
0.00150597
0.00128043
0.00103528
0.000707881
0.565947
0.23493
0.108012
0.0593266
0.038289
0.0274463
0.0208256
0.016252
0.0128615
0.0102697
0.0082733
0.00673878
0.00556393
0.00466562
0.00397637
0.00344248
0.00302192
0.00268193
0.00239661
0.00214435
0.00190525
0.00165865
0.00137159
0.000938938
0.695143
0.296466
0.137841
0.0758929
0.0491122
0.0353993
0.0270442
0.0212327
0.0168661
0.013476
0.0108279
0.00877149
0.00718851
0.0059782
0.00505536
0.00435032
0.003808
0.00338609
0.00305322
0.00278737
0.00257444
0.00241098
0.00232423
0.00242715
0.902585
0.400446
0.188436
0.103257
0.0663866
0.0477654
0.0365759
0.0288277
0.0229727
0.0183728
0.0147306
0.0118681
0.00964615
0.00794195
0.00664665
0.00566826
0.004933
0.00438503
0.00398521
0.00370906
0.00354411
0.00349524
0.00360196
0.00392618
1.21998
0.571264
0.273934
0.149008
0.0944545
0.0673374
0.0514239
0.0405904
0.0324416
0.0260007
0.0208378
0.0167222
0.013487
0.0109839
0.00907575
0.00764124
0.00658004
0.00581544
0.00529385
0.00498111
0.00485708
0.00491449
0.00517625
0.00566145
1.6812
0.841415
0.416615
0.226156
0.14087
0.0988747
0.0749036
0.0590343
0.0472932
0.0380367
0.0305537
0.0244989
0.0196575
0.0158529
0.0129198
0.0107038
0.00907019
0.00791026
0.0071434
0.00671197
0.00657444
0.00669354
0.00707711
0.00770166
2.3315
1.24742
0.646492
0.3548
0.218058
0.150274
0.112416
0.088153
0.0706786
0.0570834
0.0460816
0.037071
0.0297285
0.0238335
0.0191963
0.0156365
0.0129848
0.0110917
0.00983331
0.00910807
0.00883291
0.00893463
0.00937725
0.0101293
3.25024
1.81536
0.995063
0.563111
0.34561
0.234304
0.172564
0.134132
0.107346
0.0869901
0.0706685
0.0572392
0.0461235
0.0369916
0.0296154
0.0238018
0.0193668
0.0161298
0.0139164
0.0125604
0.0119066
0.0118426
0.012246
0.0130984
4.99131
2.67395
1.46345
0.855572
0.536187
0.364083
0.266092
0.205311
0.163832
0.133041
0.108739
0.0888241
0.0722097
0.058308
0.046778
0.0373965
0.0299893
0.0243867
0.0203946
0.0177862
0.0163094
0.0157622
0.0159974
0.0168598
10.31
4.87322
2.44351
1.36498
0.839596
0.563942
0.408264
0.312663
0.248564
0.201983
0.16588
0.136601
0.112187
0.091563
0.0741204
0.0595128
0.0475419
0.0380801
0.0309903
0.0260521
0.0229448
0.0213411
0.0210892
0.0218345
2.63587
4.74703
5.95873
5.77037
5.15764
4.30343
1.03312
2.2456
2.84589
2.98143
2.91097
2.8995
1.41219
1.93004
2.24976
2.3582
2.36584
2.42848
1.92269
1.91792
2.07208
2.14636
2.16969
2.23789
2.39209
1.9778
2.02335
2.06954
2.09688
2.16167
2.80932
2.05115
2.01982
2.04862
2.07776
2.13861
3.17057
2.11673
2.03473
2.05375
2.08473
2.14221
3.47518
2.16765
2.05716
2.07349
2.10724
2.16218
3.72382
2.20318
2.0826
2.10172
2.13924
2.19216
3.91796
2.22734
2.10992
2.13621
2.17832
2.22941
4.0605
2.24498
2.13956
2.17666
2.22419
2.27353
4.15642
2.26043
2.17265
2.22381
2.27784
2.32558
4.18608
2.27304
2.21016
2.27918
2.3412
2.38763
4.15309
2.28238
2.25341
2.34484
2.41709
2.46268
4.04809
2.28858
2.30418
2.42353
2.50938
2.55494
3.87087
2.29248
2.36478
2.51888
2.62363
2.67041
3.62161
2.29612
2.43809
2.63546
2.76761
2.81903
3.30121
2.30337
2.5285
2.77991
2.95351
3.01696
2.91208
2.32002
2.64348
2.9626
3.2016
3.29296
2.45922
2.35751
2.79739
3.20156
3.54601
3.70532
1.9523
2.44056
3.02235
3.53495
4.04694
4.39014
1.4089
2.62645
3.40585
4.06328
4.81859
5.7481
1.01229
3.15092
4.27911
5.13287
6.10674
9.51308
2.48567
5.71669
7.63939
8.62011
8.22116
30.1964
8.1433
6.29883
3.55961
2.08079
1.28989
0.861969
0.6185
0.469957
0.371869
0.301946
0.248736
0.206166
0.170905
0.141077
0.115598
0.0938443
0.0754719
0.0603262
0.048351
0.0394487
0.0333559
0.029688
0.0282277
0.0286895
5.39775
6.1204
4.84956
2.96713
1.89308
1.27743
0.915858
0.692551
0.545688
0.442358
0.364957
0.303893
0.253798
0.211589
0.175451
0.144303
0.11751
0.0947401
0.0758933
0.0609891
0.0499615
0.0425791
0.03869
0.0383761
3.4517
5.63107
5.40749
4.14791
2.66253
1.81067
1.30672
0.990633
0.780361
0.632407
0.522445
0.436573
0.366745
0.308231
0.258203
0.214942
0.177392
0.144924
0.117227
0.09425
0.0760587
0.0627056
0.0545026
0.0522629
2.76589
4.28303
5.34392
4.98956
3.76327
2.514
1.79257
1.35952
1.07555
0.875301
0.726073
0.609591
0.515073
0.436023
0.36847
0.309949
0.25891
0.214371
0.17574
0.142728
0.115285
0.0935609
0.0784284
0.0724244
2.4816
3.37898
4.63848
5.05492
4.64815
3.50704
2.44999
1.819
1.43135
1.16891
0.975616
0.824652
0.701732
0.598561
0.510086
0.433147
0.365723
0.3065
0.254621
0.209552
0.170993
0.138864
0.114072
0.101613
2.35652
2.92314
3.80572
4.63936
4.72718
4.31691
3.30043
2.42975
1.8794
1.52397
1.27388
1.08285
0.928152
0.797996
0.685786
0.587615
0.501044
0.424494
0.356916
0.297599
0.246037
0.201848
0.165307
0.143305
2.30585
2.68864
3.27825
3.97469
4.46061
4.423
3.98893
3.15125
2.4701
1.99129
1.6553
1.40583
1.20834
1.04406
0.902865
0.779144
0.669669
0.572442
0.486163
0.409932
0.343075
0.285034
0.235334
0.201268
2.29181
2.56527
2.97062
3.48056
3.9766
4.23446
4.13865
3.73568
3.12622
2.5936
2.17333
1.84577
1.584
1.36759
1.18338
1.02333
0.882558
0.758063
0.647873
0.550503
0.464866
0.390263
0.325825
0.278189
2.2979
2.50293
2.79288
3.16302
3.56704
3.89369
4.01316
3.90778
3.59121
3.15839
2.74183
2.37096
2.05005
1.7738
1.53487
1.32675
1.14445
0.984251
0.843328
0.719475
0.611047
0.516636
0.435304
0.373499
2.31771
2.47662
2.69179
2.96635
3.27803
3.57117
3.76585
3.80249
3.69566
3.44074
3.11683
2.78006
2.45458
2.15254
1.87848
1.63287
1.41432
1.22074
1.04986
0.899493
0.767679
0.65286
0.554777
0.480335
2.34788
2.47203
2.63783
2.84518
3.08288
3.3162
3.4965
3.57956
3.55483
3.41996
3.19339
2.92757
2.64577
2.36471
2.09564
1.84478
1.61495
1.40694
1.22029
1.05392
0.906563
0.777171
0.666515
0.583274
2.38799
2.48527
2.61529
2.77352
2.9523
3.12665
3.26355
3.33397
3.32522
3.23923
3.07655
2.86952
2.63751
2.39621
2.15643
1.9255
1.70803
1.50647
1.32178
1.15408
1.00301
0.868387
0.752207
0.665475
2.43915
2.51435
2.61523
2.73837
2.86974
2.993
3.08432
3.12427
3.10526
3.02668
2.89343
2.72331
2.52986
2.3246
2.11644
1.91181
1.71504
1.52888
1.35497
1.19413
1.04679
0.913544
0.797612
0.712069
2.50356
2.55955
2.63703
2.73161
2.82917
2.91077
2.96179
2.97147
2.93469
2.85117
2.72841
2.57695
2.40658
2.22573
2.04115
1.85793
1.67966
1.50875
1.34671
1.19446
1.0528
0.923313
0.810175
0.72682
2.58446
2.62266
2.68083
2.75294
2.82406
2.87716
2.89904
2.88263
2.82675
2.73457
2.61281
2.46881
2.31
2.14279
1.97226
1.80234
1.63595
1.47503
1.32095
1.17472
1.03752
0.911593
0.801991
0.72153
2.6864
2.70672
2.74862
2.80393
2.85537
2.88631
2.88855
2.85511
2.78607
2.68518
2.55893
2.41437
2.25789
2.09487
1.92964
1.76541
1.60441
1.44797
1.29715
1.15313
1.01744
0.893066
0.785729
0.707446
2.81567
2.81589
2.84351
2.88716
2.92508
2.9422
2.92924
2.88138
2.80026
2.6906
2.55863
2.4106
2.25215
2.08809
1.92223
1.75738
1.59562
1.43871
1.28737
1.1426
1.00629
0.881778
0.775075
0.697933
2.98119
2.95576
2.96952
3.00586
3.03644
3.04597
3.02305
2.9644
2.87248
2.75257
2.61104
2.45429
2.28806
2.11711
1.94526
1.77526
1.60944
1.44853
1.29357
1.14637
1.0084
0.882667
0.774987
0.697723
3.19715
3.1328
3.13157
3.16413
3.1931
3.19995
3.17088
3.10318
2.99994
2.86719
2.71203
2.54149
2.36191
2.17832
1.99515
1.81465
1.63786
1.46763
1.30691
1.15595
1.0156
0.888082
0.77864
0.700517
3.48608
3.3554
3.33549
3.36677
3.39901
3.40689
3.37361
3.29621
3.17859
3.02806
2.85316
2.66188
2.46225
2.25883
2.05469
1.85429
1.66354
1.48435
1.31711
1.16181
1.01866
0.889073
0.77751
0.698005
3.88591
3.6352
3.58729
3.61878
3.65803
3.66884
3.63017
3.53853
3.39939
3.22231
3.01876
2.7966
2.56208
2.32468
2.09498
1.87818
1.67549
1.48674
1.31167
1.15039
1.0033
0.871179
0.757677
0.676845
4.46411
3.98471
3.89242
3.92462
3.97275
3.98484
3.93383
3.81696
3.64304
3.42404
3.16796
2.89286
2.61835
2.35567
2.10667
1.87271
1.65399
1.45234
1.26833
1.10188
0.952569
0.820276
0.707496
0.626866
5.33768
4.41134
4.25257
4.28619
4.34206
4.34649
4.26639
4.10237
3.86204
3.56103
3.24214
2.92872
2.62376
2.33113
2.05519
1.80001
1.56741
1.35777
1.17052
1.00452
0.858351
0.730894
0.623291
0.545743
6.65916
4.89387
4.65867
4.69894
4.75666
4.73129
4.58978
4.31976
3.97043
3.60637
3.23704
2.87067
2.52102
2.19635
1.90086
1.63591
1.40101
1.19459
1.01449
0.858249
0.723389
0.607762
0.511048
0.440707
4.58111
9.64445
12.8715
12.4489
10.7922
44.3511
1.35167
6.20551
7.58282
7.91
9.05158
12.8741
2.10085
5.07795
5.88229
6.25744
7.03507
7.75735
2.83575
4.55119
5.07769
5.38169
5.8675
6.14525
3.46872
4.21925
4.56891
4.80672
5.15434
5.42888
3.99891
3.96686
4.20083
4.39242
4.68524
5.02034
4.43943
3.77362
3.91425
4.07407
4.35059
4.75297
4.78756
3.61699
3.68095
3.81738
4.09349
4.55856
5.04126
3.48508
3.48554
3.60208
3.88333
4.40631
5.2046
3.3709
3.31861
3.41569
3.70319
4.28361
5.27933
3.2717
3.17304
3.25047
3.54354
4.18584
5.27482
3.18658
3.04461
3.10177
3.39913
4.11283
5.19317
3.11786
2.93129
2.96741
3.26673
4.06505
5.07914
3.0734
2.83207
2.84548
3.14487
4.04278
4.92783
3.04569
2.74533
2.734
3.03286
4.04772
4.73586
3.02612
2.6693
2.63039
2.93018
4.08056
4.50035
3.0075
2.60143
2.53298
2.83471
4.13964
4.21749
2.97897
2.53805
2.4398
2.74308
4.21936
3.88052
2.92433
2.47389
2.34844
2.65002
4.30278
3.47483
2.82104
2.40333
2.25775
2.54975
4.36403
2.9725
2.64811
2.32866
2.1741
2.44239
4.38227
2.33629
2.42696
2.29359
2.13258
2.34987
4.36541
1.54936
2.44736
2.44683
2.26668
2.37194
4.35019
5.15852
4.31944
4.08294
3.5828
3.10539
4.10852
7.47787
5.32015
5.08339
5.14699
5.19093
5.09704
4.81301
4.4097
3.97531
3.5201
3.07332
2.65558
2.27692
1.94049
1.64559
1.38955
1.16883
0.979641
0.818271
0.681209
0.565247
0.467588
0.386739
0.327969
6.68058
5.57528
5.49342
5.59936
5.59788
5.35301
4.89257
4.36062
3.79092
3.24235
2.74478
2.3085
1.93295
1.61284
1.3414
1.11199
0.918633
0.756143
0.620074
0.506597
0.412415
0.334697
0.271573
0.227219
6.12891
5.75581
5.87911
6.01805
5.90705
5.44648
4.80533
4.09736
3.42561
2.83642
2.33915
1.92582
1.58338
1.29925
1.063
0.866372
0.702856
0.567251
0.455306
0.363484
0.288815
0.228835
0.182093
0.152131
5.80599
5.92006
6.22941
6.35408
6.04471
5.36196
4.50523
3.68764
2.99143
2.42529
1.9697
1.60103
1.29979
1.0518
0.846962
0.677852
0.538721
0.424916
0.332567
0.25843
0.199832
0.154701
0.122113
0.104007
5.6087
6.08934
6.52793
6.54487
6.04549
5.07398
4.08755
3.25746
2.60335
2.09084
1.68282
1.35243
1.08205
0.860054
0.678259
0.530296
0.410858
0.315394
0.240022
0.181521
0.137327
0.105517
0.0848798
0.075082
5.49461
6.24771
6.76613
6.60889
5.83137
4.6769
3.6713
2.89383
2.29869
1.8309
1.4543
1.14781
0.898175
0.696032
0.533924
0.405391
0.30472
0.226956
0.167964
0.124429
0.0937039
0.073495
0.0617767
0.0569987
5.42802
6.40015
6.90826
6.57081
5.49365
4.2747
3.32195
2.60685
2.05315
1.61035
1.252
0.962923
0.731962
0.549823
0.408293
0.299953
0.218303
0.157917
0.114461
0.0844749
0.0649622
0.0532118
0.0470402
0.044974
5.3951
6.55955
6.95415
6.41688
5.11701
3.93072
3.04409
2.36985
1.83637
1.40704
1.06349
0.792696
0.58273
0.422826
0.30329
0.21551
0.152287
0.107907
0.077903
0.0586109
0.0469143
0.0403536
0.0372758
0.0365697
5.39019
6.74175
6.95408
6.19525
4.77978
3.65686
2.81415
2.15677
1.63133
1.21314
0.887012
0.638052
0.452047
0.316261
0.219181
0.151175
0.104644
0.0737898
0.0541437
0.0422017
0.0353398
0.0317622
0.0303692
0.0303299
5.42756
6.93937
6.92871
5.9358
4.51492
3.43501
2.6073
1.95142
1.43114
1.02777
0.723745
0.500484
0.341174
0.230283
0.1548
0.104545
0.0719111
0.0513403
0.0388062
0.0314797
0.0274685
0.0255934
0.0251237
0.0253838
5.5199
7.13634
6.92128
5.6908
4.2985
3.23825
2.40589
1.74643
1.23528
0.852993
0.57616
0.382545
0.25115
0.164242
0.108024
0.072384
0.0502236
0.0367196
0.0286966
0.0241346
0.0217728
0.0208476
0.0208546
0.021259
5.68181
7.32742
6.91228
5.4974
4.12176
3.05072
2.20175
1.54095
1.04672
0.692106
0.44788
0.285779
0.181445
0.115918
0.0755048
0.0508724
0.0359674
0.0270219
0.0217591
0.0188222
0.0173933
0.016973
0.0171788
0.0176674
5.92394
7.51495
6.91218
5.35022
3.96219
2.85898
1.99191
1.33782
0.869298
0.549482
0.340833
0.209744
0.129755
0.0818793
0.0534584
0.0365569
0.0264366
0.0203609
0.0167713
0.0147753
0.0138444
0.0136511
0.0139202
0.0144046
6.24639
7.7092
6.93075
5.2409
3.80476
2.6574
1.77787
1.1417
0.707867
0.427705
0.255006
0.152361
0.0927694
0.0584672
0.038602
0.0269052
0.0198813
0.0156105
0.0130367
0.0115697
0.0108665
0.0107163
0.010943
0.0113645
6.63638
7.92359
6.97926
5.15671
3.63791
2.44457
1.56375
0.957252
0.565942
0.327501
0.188773
0.110521
0.0669264
0.042488
0.0284954
0.0202442
0.0152293
0.012111
0.0101625
0.00898102
0.00833706
0.00809726
0.0081775
0.00847464
7.07778
8.17286
7.05371
5.07371
3.45308
2.22157
1.35444
0.789158
0.445289
0.24794
0.139316
0.0807251
0.0490364
0.0315157
0.0214904
0.0155242
0.0118339
0.00947332
0.00792556
0.00689914
0.00622417
0.00580483
0.00561314
0.00568358
7.56528
8.48137
7.14325
4.96998
3.24585
1.99179
1.15498
0.640519
0.346095
0.186746
0.103261
0.0597495
0.0366239
0.0238778
0.0165335
0.012102
0.0093057
0.00746334
0.00619457
0.00527453
0.00455918
0.00395014
0.00339373
0.0029814
8.13128
8.87716
7.23426
4.83754
3.01681
1.76077
0.970207
0.513013
0.266908
0.140785
0.0773241
0.0449929
0.0279246
0.018472
0.0129611
0.00958264
0.00740878
0.00593997
0.0048914
0.00408828
0.00341171
0.00277173
0.00209288
0.0011681
8.84757
9.39304
7.3173
4.66592
2.76785
1.53397
0.803401
0.406524
0.205198
0.106807
0.0587379
0.0345338
0.0217344
0.0145758
0.010344
0.00770907
0.00598596
0.00480229
0.00394353
0.00327698
0.00271212
0.00218066
0.00162131
0.000907318
9.83788
10.0573
7.36382
4.44416
2.50208
1.31591
0.656274
0.319655
0.157975
0.0818802
0.0453609
0.0270164
0.0172426
0.0117062
0.00838616
0.00628985
0.00490141
0.00393722
0.00323195
0.00268197
0.00221532
0.00177845
0.00133045
0.000791274
11.2483
10.8879
7.28642
4.16048
2.22221
1.10999
0.529322
0.250231
0.122306
0.0636172
0.0356242
0.0215131
0.0139088
0.00953973
0.00688288
0.00518447
0.00404797
0.00325236
0.00266709
0.00220921
0.0018207
0.00146015
0.00110167
0.000697011
13.2485
11.7097
7.0248
3.81083
1.93319
0.919843
0.422276
0.195851
0.0955192
0.0500982
0.0284202
0.0174015
0.0113773
0.00786418
0.00569984
0.00430179
0.00335909
0.00269592
0.00220712
0.00182526
0.00150318
0.00120883
0.000925675
0.000623524
16.1478
12.167
6.60641
3.40077
1.6431
0.748779
0.334438
0.153636
0.0752714
0.0399675
0.0230079
0.0142693
0.00941361
0.00654056
0.00475031
0.00358468
0.0027951
0.00223899
0.00183013
0.00151282
0.00124825
0.00101106
0.000790127
0.000566042
20.6204
12.2798
5.98556
2.93453
1.36031
0.599763
0.263405
0.120934
0.0599052
0.0322967
0.0188766
0.0118383
0.00786117
0.00547666
0.00397732
0.00299618
0.00233079
0.00186341
0.00152212
0.0012602
0.00104518
0.000856482
0.000686049
0.000521235
2.41239
6.95224
9.68685
10.7903
10.9085
56.2081
1.00633
3.25778
4.69971
5.85163
7.78651
17.103
1.40234
2.60743
3.54633
4.52923
6.14096
9.87573
1.94797
2.43679
3.08844
3.93977
5.20867
7.1112
2.45178
2.40172
2.85205
3.58373
4.57919
5.67996
2.89107
2.39757
2.71168
3.32458
4.09525
4.75338
3.25366
2.39711
2.61159
3.11443
3.70049
4.08092
3.53545
2.38646
2.52747
2.9344
3.37048
3.56466
3.73779
2.36096
2.44936
2.77684
3.093
3.15739
3.8654
2.32166
2.37502
2.63901
2.86121
2.83473
3.92517
2.27278
2.30583
2.52061
2.6708
2.5817
3.92576
2.21978
2.24455
2.42182
2.51931
2.38796
3.87809
2.16834
2.19396
2.34383
2.40505
2.24646
3.77546
2.12005
2.15642
2.28873
2.32711
2.15301
3.611
2.07529
2.13556
2.26076
2.28813
2.10836
3.38516
2.03531
2.13134
2.25881
2.28593
2.11069
3.10075
2.00229
2.148
2.28951
2.3279
2.16961
2.76155
1.97951
2.19107
2.36036
2.42453
2.30125
2.37259
1.97235
2.26921
2.48348
2.59541
2.53917
1.94181
1.98793
2.39905
2.67959
2.87918
2.95532
1.48721
2.04378
2.61478
2.99468
3.34744
3.72218
1.18847
2.17683
3.00385
3.54807
4.13543
5.31995
0.998233
2.58397
3.8872
4.72873
5.52344
9.45044
2.39411
4.41997
6.988
8.59009
8.07882
27.1948
24.4305
10.3601
5.03651
2.43285
1.09714
0.473943
0.206832
0.0957536
0.0482016
0.0264259
0.0156723
0.00991852
0.00661396
0.00461032
0.00334243
0.00251116
0.00194865
0.00155603
0.00127235
0.00105786
0.000885016
0.000736731
0.000606687
0.000486493
13.4062
7.59239
4.04744
1.96047
0.868786
0.371239
0.162635
0.0764738
0.0392458
0.0218852
0.0131513
0.0083801
0.00559938
0.00389861
0.00281865
0.0021114
0.00163536
0.00130623
0.00107167
0.000897464
0.000759969
0.000644777
0.000546588
0.000459654
9.10836
5.96978
3.25735
1.558
0.680584
0.290165
0.128682
0.0617544
0.0323474
0.0183412
0.0111425
0.00713241
0.00476654
0.00331097
0.00238613
0.00178284
0.00138003
0.00110488
0.000911963
0.000771553
0.000663236
0.000574719
0.000501345
0.000438939
6.92611
4.7683
2.60157
1.22492
0.530823
0.2277
0.102869
0.0505052
0.0269901
0.0155486
0.00952344
0.00611087
0.00407884
0.00282479
0.00202955
0.00151405
0.00117337
0.000943961
0.000786048
0.000673651
0.00058906
0.000521725
0.000467446
0.000422934
5.52519
3.81399
2.06568
0.959756
0.415225
0.180383
0.0833285
0.0418751
0.0227982
0.0133151
0.00820417
0.00526855
0.00350916
0.0024227
0.00173657
0.00129542
0.00100736
0.000816454
0.000687681
0.000598217
0.000532649
0.000481891
0.000442129
0.000410551
4.52261
3.07087
1.64117
0.754787
0.327752
0.144838
0.0685169
0.0352074
0.019491
0.0115113
0.00712076
0.00457086
0.00303672
0.0020908
0.0014969
0.00111869
0.000875001
0.000716278
0.00061152
0.000540598
0.000490074
0.000452113
0.000423266
0.000400971
3.76326
2.49863
1.31198
0.599265
0.262264
0.118182
0.0572281
0.0300046
0.0168679
0.0100432
0.006226
0.00399155
0.00264513
0.00181764
0.00130177
0.000976725
0.000770255
0.000638235
0.000553076
0.000496961
0.000458165
0.000429948
0.000409226
0.00039358
3.17643
2.05897
1.06021
0.482547
0.213436
0.0981363
0.048563
0.0259118
0.0147615
0.00883891
0.00548408
0.00351016
0.00232114
0.00159366
0.00114372
0.000863394
0.000687981
0.000577956
0.000508641
0.000464204
0.000434423
0.000413518
0.000398784
0.000387915
2.72289
1.72099
0.869439
0.395418
0.177001
0.0829714
0.0418567
0.0226654
0.0130504
0.00784491
0.00486751
0.00311043
0.00205385
0.00141081
0.00101642
0.000773542
0.000623885
0.000531838
0.000475199
0.000439859
0.000416911
0.000401419
0.000391047
0.000383628
2.37319
1.46234
0.725951
0.330498
0.149711
0.0714094
0.0366195
0.0200709
0.011651
0.00702141
0.00435486
0.00277921
0.00183424
0.00126238
0.000914602
0.000702899
0.000574448
0.000496959
0.000450343
0.000421995
0.000404162
0.000392626
0.000385377
0.00038045
2.10579
1.26582
0.618865
0.282147
0.129165
0.0625195
0.0324899
0.0179894
0.0105013
0.00633789
0.00392908
0.00250576
0.00165484
0.00114279
0.000833917
0.000647991
0.000536841
0.000470996
0.000432185
0.000409131
0.000395083
0.000386405
0.000381323
0.000378184
1.90534
1.11807
0.539944
0.246171
0.113624
0.0556344
0.0292101
0.0163058
0.00955286
0.00577032
0.00357641
0.00228121
0.00150941
0.00104742
0.000770814
0.000606016
0.000508809
0.000452122
0.000419266
0.000400128
0.000388818
0.000382175
0.000378584
0.000376678
1.76108
1.00978
0.482234
0.219465
0.101835
0.050273
0.0265902
0.01493
0.00876776
0.00529945
0.00328555
0.00209817
0.00139275
0.000972418
0.000722359
0.000574683
0.000488534
0.00043889
0.000410443
0.0003941
0.000384688
0.000379479
0.000376931
0.000375763
1.66599
0.933974
0.44091
0.199815
0.0928956
0.0460815
0.0244858
0.0137994
0.00811664
0.0049096
0.00304704
0.00195038
0.00130046
0.000914559
0.000686118
0.00055211
0.000474547
0.000430169
0.000404868
0.000390422
0.000382244
0.00037799
0.000376044
0.000375266
1.61683
0.885868
0.412715
0.185655
0.0861522
0.0427965
0.0227872
0.012866
0.00757599
0.00458777
0.00285289
0.00183255
0.00122883
0.000871163
0.0006601
0.000536793
0.000465711
0.000425116
0.000401937
0.000388672
0.000381206
0.000377415
0.000375716
0.000375099
1.61314
0.862696
0.395494
0.175877
0.0811229
0.0402178
0.0214085
0.0120915
0.00712637
0.00432293
0.0026963
0.00174019
0.00117479
0.000840046
0.000642715
0.00052756
0.000461166
0.000423119
0.000401214
0.000388559
0.000381314
0.000377522
0.000375768
0.000375097
1.65902
0.863645
0.387926
0.169691
0.0774401
0.0381867
0.0202797
0.0114441
0.00675133
0.00410569
0.00257147
0.00166954
0.0011358
0.000819461
0.000632736
0.000523536
0.000460283
0.000423648
0.000402336
0.000389776
0.000382416
0.000378267
0.000376172
0.000375205
1.7645
0.889951
0.389335
0.166512
0.0748045
0.0365696
0.0193415
0.0108962
0.00643659
0.00392789
0.00247342
0.00161743
0.00110979
0.000808031
0.000629241
0.000524027
0.000462459
0.000426516
0.000405144
0.000392229
0.000384371
0.000379648
0.00037692
0.00037543
1.94726
0.945243
0.399532
0.165883
0.0729514
0.0352438
0.0185398
0.0104235
0.00616945
0.00378232
0.00239785
0.00158119
0.00109506
0.000804672
0.000631385
0.000528447
0.000467725
0.000431518
0.000409519
0.000395832
0.000387138
0.000381554
0.00037801
0.000375813
2.23646
1.03609
0.418481
0.167289
0.0716474
0.0341098
0.0178266
0.0100032
0.00593831
0.00366258
0.00234101
0.00155858
0.00109026
0.000808427
0.000638685
0.000536964
0.0004758
0.000438605
0.000415457
0.000400608
0.000390762
0.000384049
0.000379466
0.00037637
2.67764
1.17066
0.44567
0.17003
0.0705749
0.0330589
0.0171644
0.00961975
0.00573414
0.00356304
0.00229966
0.00154773
0.00109425
0.000818846
0.000651284
0.000549211
0.000486694
0.000447833
0.000423032
0.000406635
0.000395322
0.000387214
0.00038137
0.00037717
3.33458
1.35045
0.478421
0.17287
0.0693559
0.0319715
0.0165119
0.00925938
0.00555091
0.00348097
0.0022718
0.00154728
0.00110645
0.000835777
0.000668775
0.000565251
0.000500535
0.000459358
0.000432403
0.000414059
0.000400951
0.000391171
0.000383835
0.000378305
4.26792
1.55649
0.508366
0.17358
0.0675557
0.0307424
0.0158353
0.0089097
0.00538245
0.00341241
0.00225531
0.00155608
0.00112618
0.000858786
0.000691138
0.000585229
0.000517545
0.000473428
0.00044381
0.000423101
0.000407842
0.000396087
0.000387001
0.000379884
5.50471
1.69493
0.515685
0.169703
0.0647845
0.0292993
0.0151093
0.00855798
0.00522356
0.00335433
0.00224829
0.0015731
0.00115289
0.000887664
0.000718451
0.000609349
0.000538
0.000490343
0.000457547
0.00043403
0.000416237
0.000402178
0.000391047
0.000382055
)
;

boundaryField
{
    rotor
    {
        type            epsilonWallFunction;
        value           nonuniform List<scalar> 
144
(
2.8642
2.94602
3.12329
3.1301
4.27188
32.0345
2.8642
1.03756
0.269032
1.29844
1.69771
2.04767
2.36838
2.65079
2.88365
3.05703
3.16423
3.20031
3.17153
3.08264
2.94589
2.77599
2.58581
2.35812
2.07904
1.74519
1.36509
0.280742
1.06171
2.66477
2.66477
6.21181
8.42268
8.42753
8.29051
26.7083
2.63587
4.74703
5.95873
5.77037
5.15764
4.30343
2.63587
1.03312
1.41219
1.92269
2.39209
2.80932
3.17057
3.47518
3.72382
3.91796
4.0605
4.15642
4.18608
4.15309
4.04809
3.87087
3.62161
3.30121
2.91208
2.45922
1.9523
1.4089
1.01229
2.48567
2.48567
5.71669
7.63939
8.62011
8.22116
30.1964
4.58111
9.64445
12.8715
12.4489
10.7922
44.3511
4.58111
1.35167
2.10085
2.83575
3.46872
3.99891
4.43943
4.78756
5.04126
5.2046
5.27933
5.27482
5.19317
5.07914
4.92783
4.73586
4.50035
4.21749
3.88052
3.47483
2.9725
2.33629
1.54936
5.15852
5.15852
4.31944
4.08294
3.5828
3.10539
4.10852
2.41239
6.95224
9.68685
10.7903
10.9085
56.2081
2.41239
1.00633
1.40234
1.94797
2.45178
2.89107
3.25366
3.53545
3.73779
3.8654
3.92517
3.92576
3.87809
3.77546
3.611
3.38516
3.10075
2.76155
2.37259
1.94181
1.48721
1.18847
0.998233
2.39411
2.39411
4.41997
6.988
8.59009
8.07882
27.1948
)
;
    }
    freestream
    {
        type            inletOutlet;
        inletValue      uniform 0.000375;
        value           nonuniform List<scalar> 
96
(
0.000375
0.000375
0.000375
0.000375
0.000375
0.000375
0.000375
0.000375
0.000375
0.000375
0.000375
0.000375
0.000375
0.000375
0.000375
0.000375
0.00242715
0.00392618
0.00566145
0.00770166
0.0101293
0.0130984
0.0168598
0.0218345
0.0286895
0.0383761
0.0522629
0.0724244
0.101613
0.143305
0.201268
0.278189
0.373499
0.480335
0.583274
0.665475
0.712069
0.72682
0.72153
0.707446
0.697933
0.697723
0.700517
0.698005
0.676845
0.626866
0.545743
0.440707
0.327969
0.227219
0.152131
0.104007
0.075082
0.0569987
0.044974
0.0365697
0.0303299
0.0253838
0.021259
0.0176674
0.0144046
0.0113645
0.00847464
0.00568358
0.0029814
0.000375
0.000375
0.000375
0.000375
0.000375
0.000375
0.000375
0.000375
0.000375
0.000375
0.000375
0.000375
0.000375
0.000375
0.000375
0.000375
0.000375
0.000375
0.000375
0.000375
0.000375
0.000375
0.000375
0.000375
0.000375
0.000375
0.000375
0.000375
0.000375
0.000375
0.000375
)
;
    }
    frontAndBack
    {
        type            empty;
    }
}


// ************************************************************************* //
