/*--------------------------------*- C++ -*----------------------------------*\
  =========                 |
  \\      /  F ield         | OpenFOAM: The Open Source CFD Toolbox
   \\    /   O peration     | Website:  https://openfoam.org
    \\  /    A nd           | Version:  11
     \\/     M anipulation  |
\*---------------------------------------------------------------------------*/
FoamFile
{
    format      ascii;
    class       volScalarField;
    location    "0.08";
    object      nut;
}
// * * * * * * * * * * * * * * * * * * * * * * * * * * * * * * * * * * * * * //

dimensions      [0 2 -1 0 0 0 0];

internalField   nonuniform List<scalar> 
2880
(
1.18677e-06
4.54976e-06
1.30166e-05
2.87613e-05
7.63474e-05
5.05923e-05
3.45814e-05
6.59985e-05
9.3925e-05
0.000102124
9.687e-05
0.00012796
0.000190818
0.000128922
0.000152923
0.000145318
0.000156783
0.000231782
4.87122e-05
0.000169523
0.00019366
0.000184056
0.000221506
0.000320376
5.3247e-05
0.000203881
0.000226775
0.00022419
0.000269484
0.000390219
5.66349e-05
0.000233919
0.00025591
0.000266725
0.000308565
0.000455577
5.94194e-05
0.0002605
0.000286199
0.000300395
0.000340123
0.000512135
6.1679e-05
0.000284429
0.000316548
0.000327261
0.000372667
0.000557057
6.34325e-05
0.000305734
0.000346099
0.000354876
0.000403579
0.000591157
6.46839e-05
0.000324732
0.000375408
0.000384153
0.000433462
0.000615912
6.54387e-05
0.000341521
0.00040448
0.00041603
0.000463986
0.000633229
6.56894e-05
0.000355555
0.000433117
0.000451059
0.000497136
0.000646221
6.54953e-05
0.000366275
0.000460726
0.000488351
0.000529203
0.000656748
6.48761e-05
0.000373024
0.000486964
0.00052637
0.000566649
0.000669438
6.38927e-05
0.000375061
0.000508945
0.000565324
0.000611357
0.000689768
6.26186e-05
0.000371892
0.000524952
0.000599501
0.000653452
0.000717144
6.11152e-05
0.000362663
0.000532415
0.000627728
0.000687474
0.000749616
5.92467e-05
0.000347691
0.000528349
0.000645349
0.000707195
0.000780686
5.68057e-05
0.000325712
0.000511437
0.000643769
0.000713156
0.000795793
5.36075e-05
0.000293969
0.000474699
0.000614031
0.00070455
0.000772296
4.94785e-05
0.000248026
0.000412852
0.000552035
0.0006608
0.000713288
0.000199284
0.000182379
0.000317684
0.000446449
0.000555949
0.000598389
3.54648e-05
9.33456e-05
0.000182431
0.000280662
0.000383887
0.000348032
1.11011e-06
9.62717e-06
3.52742e-05
7.83686e-05
0.000149871
4.73535e-05
0.000871286
0.00141332
0.00152654
0.00182719
0.00235363
0.00304193
0.00372669
0.00431497
0.00472342
0.00498363
0.0051144
0.00512498
0.00502727
0.00484369
0.00460827
0.00435975
0.00413034
0.00393792
0.00378609
0.00366946
0.00357943
0.00350811
0.00345011
0.00340232
0.000820502
0.00130106
0.00142937
0.00174254
0.00229874
0.00300832
0.00370828
0.00430367
0.00472124
0.00499034
0.00512949
0.00514881
0.00506185
0.00489111
0.00466841
0.00442896
0.00420242
0.00400653
0.0038467
0.00371978
0.00361873
0.0035364
0.00346756
0.00340979
0.000847067
0.00123924
0.00137379
0.00170137
0.00228355
0.00300459
0.0037087
0.00429887
0.00471935
0.00499532
0.00514236
0.00517123
0.00509662
0.00494059
0.00473244
0.00450378
0.00428158
0.00408321
0.0039156
0.00377783
0.00366458
0.00356963
0.00348815
0.00341858
0.000874883
0.00119091
0.00134742
0.00170072
0.00230133
0.00302361
0.00372411
0.00430011
0.0047173
0.00499797
0.00515195
0.00519095
0.00513014
0.00499063
0.00479893
0.004583
0.00436707
0.00416772
0.00399308
0.00384423
0.00371769
0.00360848
0.00351268
0.00342911
0.000891295
0.00115094
0.00133014
0.00171487
0.00233176
0.00305229
0.00374419
0.00430398
0.00471511
0.00499675
0.00515648
0.00520611
0.00516052
0.00503929
0.00486595
0.0046649
0.00445748
0.00425922
0.00407888
0.00391927
0.00377873
0.00365378
0.00354171
0.00344155
0.000895826
0.00111683
0.00132063
0.00173843
0.00236941
0.00308514
0.00376289
0.00430456
0.00470847
0.00498829
0.00515318
0.00521413
0.00518516
0.00508393
0.0049309
0.00474696
0.00455061
0.00435595
0.00417191
0.00400255
0.00384788
0.003706
0.00357555
0.00345583
0.000891801
0.0010877
0.00131752
0.00176726
0.00240985
0.00311832
0.00377156
0.00429216
0.00468978
0.00496813
0.00513838
0.0052116
0.00520073
0.00512122
0.00499044
0.0048259
0.00464333
0.00445518
0.00427006
0.00409274
0.00392455
0.00376502
0.00361421
0.00347175
0.000882236
0.00106326
0.00131952
0.00179812
0.00244865
0.00314567
0.00377078
0.00427263
0.0046573
0.00493235
0.00510794
0.00519442
0.00520314
0.00514709
0.00504048
0.00489765
0.00473162
0.00455311
0.00437
0.00418725
0.00400697
0.0038298
0.00365708
0.0034888
0.000869633
0.00104341
0.00132541
0.00182835
0.0024817
0.0031613
0.00375513
0.00423472
0.00460518
0.00487594
0.00505703
0.00515779
0.00518761
0.00515674
0.00507624
0.00495738
0.00481065
0.00464496
0.0044672
0.00428206
0.0040919
0.00389798
0.00370257
0.00350594
0.000855656
0.001028
0.00133392
0.00185544
0.00250553
0.00315928
0.00371868
0.00417353
0.00452803
0.00479361
0.00498035
0.00509636
0.00514874
0.00514478
0.00509236
0.00499976
0.00487501
0.00472523
0.00455618
0.00437191
0.0041746
0.00396562
0.00374768
0.00352122
0.000841746
0.00101676
0.00134377
0.00187627
0.00251408
0.00313043
0.00365765
0.00408424
0.00442072
0.00468012
0.00487249
0.00500449
0.00508073
0.00510539
0.00508308
0.0050191
0.00491905
0.00478822
0.0046311
0.00445093
0.00424938
0.00402748
0.00378792
0.00353143
0.000829834
0.00100979
0.00135269
0.00188698
0.00250051
0.00307846
0.00356698
0.00396245
0.00427891
0.00453094
0.00472848
0.00487671
0.00497772
0.00503252
0.00504243
0.00500967
0.00493728
0.00482859
0.00468667
0.00451373
0.00431068
0.00407796
0.00381778
0.00353194
0.000819896
0.00100585
0.00135754
0.0018771
0.00245944
0.00299598
0.00344325
0.00380544
0.00410004
0.0043431
0.00454458
0.00470839
0.00483433
0.0049204
0.00496463
0.00496604
0.00492486
0.00484216
0.00471924
0.00455697
0.00435518
0.00411331
0.00383256
0.0035171
0.000817521
0.00099924
0.0013414
0.00184346
0.00238981
0.00288079
0.0032855
0.00361326
0.00388438
0.00411631
0.00431934
0.00449667
0.00464643
0.00476406
0.00484448
0.00488345
0.00487812
0.00482683
0.00472858
0.00458224
0.00438579
0.00413663
0.00383321
0.00348223
0.000810048
0.000982026
0.00131209
0.00178426
0.00228772
0.00273312
0.00309611
0.00338958
0.00363591
0.0038539
0.00405467
0.00424164
0.00441222
0.00456018
0.00467793
0.00475819
0.00479492
0.0047835
0.00472016
0.00460104
0.00442075
0.00417129
0.00384149
0.00343014
0.000812535
0.000964216
0.00126446
0.00169639
0.00215489
0.00255692
0.00288115
0.00314195
0.00336275
0.00356356
0.00375692
0.00394751
0.00413343
0.00430814
0.00446266
0.00458751
0.00467409
0.00471529
0.00470545
0.00463914
0.00450805
0.00429326
0.00394543
0.00338858
0.000821194
0.000942763
0.00120093
0.00158403
0.00199677
0.00235938
0.00264971
0.00288106
0.00307665
0.00325731
0.00343733
0.00362368
0.00381661
0.00401108
0.00419853
0.00436888
0.00451231
0.00462078
0.0046892
0.00471602
0.00470267
0.00465151
0.00456773
0.00449078
0.000833677
0.000920522
0.00112772
0.00145521
0.00182186
0.00214977
0.00241235
0.00261913
0.00279152
0.0029504
0.00311165
0.00328502
0.00347419
0.00367747
0.00388896
0.00410013
0.00430153
0.00448438
0.0046418
0.00476936
0.00486484
0.004929
0.00496866
0.00500643
0.000843827
0.000899506
0.0010531
0.00132073
0.00164053
0.00193779
0.00217912
0.00236758
0.00252096
0.00265894
0.00279817
0.00295093
0.00312476
0.00332268
0.00354365
0.0037833
0.00403483
0.00428956
0.00453705
0.00476523
0.00495703
0.00511025
0.00523397
0.00530826
0.000845656
0.000879077
0.000984335
0.00119193
0.00146355
0.00173227
0.00195786
0.00213482
0.00227539
0.0023965
0.00251425
0.00264225
0.00279124
0.00296911
0.00318089
0.00342872
0.00371141
0.00402291
0.00435053
0.00466971
0.00495005
0.00519499
0.00538224
0.00548739
0.000811728
0.000847992
0.000921826
0.00107716
0.00130077
0.00154064
0.0017535
0.00192483
0.00205968
0.00217067
0.00227177
0.00237624
0.00249626
0.00264315
0.0028275
0.00305885
0.00334419
0.00368424
0.00406827
0.00446055
0.00482512
0.0051478
0.00540211
0.00553855
0.000705147
0.000793002
0.000857899
0.000974193
0.00115377
0.00136487
0.00156648
0.00173652
0.00187231
0.00198113
0.00207363
0.00216112
0.00225518
0.00236805
0.00251337
0.00270644
0.00296286
0.00329365
0.00369651
0.00413904
0.00456756
0.00495646
0.00527698
0.00545158
0.000462825
0.000650151
0.000778673
0.000894055
0.00104104
0.00121954
0.00140375
0.00157025
0.0017093
0.00182181
0.0019139
0.00199376
0.00207065
0.00215531
0.00226105
0.00240501
0.00260827
0.00289209
0.00326768
0.00372228
0.00418618
0.00463028
0.00499606
0.00522467
0.000164716
0.000336481
0.000554402
0.000724904
0.000892291
0.00106933
0.0012488
0.00141604
0.00156122
0.00168182
0.00178028
0.00186161
0.00193225
0.00200019
0.00207601
0.00217464
0.00231711
0.00252986
0.00283742
0.00324667
0.00372005
0.00418314
0.00458435
0.00486108
1.08251e-06
7.33642e-06
2.48959e-05
5.35235e-05
9.30516e-05
0.000137463
3.42713e-05
8.78785e-05
0.000164727
0.00024272
0.000317516
0.000358113
4.98882e-05
0.000175272
0.000318401
0.000440891
0.000541401
0.000585612
5.53046e-05
0.000243852
0.000446541
0.000607383
0.000730422
0.000790167
5.94934e-05
0.0002996
0.000550168
0.000743623
0.000887585
0.000967172
6.27794e-05
0.000347376
0.000636149
0.00085619
0.00101977
0.00111985
6.53719e-05
0.000389731
0.000708029
0.000950034
0.00113221
0.0012526
6.74096e-05
0.000427556
0.000767705
0.00102744
0.00122711
0.00136763
6.89867e-05
0.000460844
0.000816064
0.00109011
0.00130641
0.00146726
7.01703e-05
0.00048865
0.000853232
0.00113865
0.0013709
0.00155259
7.10147e-05
0.000509716
0.000878901
0.001173
0.00142042
0.00162343
7.15716e-05
0.000522709
0.000892558
0.00119266
0.00145417
0.00167863
7.17436e-05
0.000527861
0.000893763
0.00119682
0.00147081
0.00171637
7.15554e-05
0.000525249
0.000881765
0.00118445
0.00146866
0.00173436
7.09474e-05
0.000514725
0.000856422
0.00115433
0.00144576
0.00173002
6.98961e-05
0.000495927
0.000816933
0.00110565
0.0013999
0.00170052
6.83611e-05
0.000468261
0.000762937
0.00103747
0.00132879
0.00164222
6.62804e-05
0.000430931
0.000694241
0.000949274
0.00123029
0.00155087
6.35635e-05
0.000383198
0.00061086
0.00084096
0.00110192
0.00142111
6.00776e-05
0.000324227
0.000513036
0.00071304
0.000942291
0.00124553
5.56243e-05
0.000253266
0.000401275
0.000566669
0.000752597
0.00101414
4.98899e-05
0.000170785
0.000276654
0.000404112
0.000539624
0.000716022
3.36175e-05
7.95569e-05
0.000143159
0.000231919
0.000320931
0.000354327
1.02245e-06
8.81179e-06
3.18491e-05
7.98679e-05
0.000148207
4.93247e-05
0.000144252
0.00021292
0.000366759
0.000550761
0.00072511
0.000906273
0.00108866
0.0012616
0.00141617
0.00154829
0.00165801
0.00174788
0.0018219
0.00188536
0.00194553
0.00201316
0.00210478
0.00224475
0.00246316
0.00278448
0.00320731
0.00366804
0.00408352
0.00438146
0.000267181
0.000245816
0.000281265
0.000405051
0.000557274
0.000733398
0.000917846
0.00109779
0.00126342
0.00140916
0.00153325
0.00163637
0.00172068
0.00178941
0.00184709
0.00190053
0.00196067
0.00204523
0.00218054
0.00239799
0.00271958
0.00313466
0.00354365
0.00383559
0.00051723
0.000376872
0.000340224
0.000338958
0.000436224
0.000574956
0.000746277
0.00092642
0.00110013
0.0012586
0.00139763
0.00151605
0.00161446
0.00169458
0.00175902
0.0018118
0.00185936
0.00191263
0.00198965
0.00211718
0.00232612
0.00263528
0.00301832
0.00328727
0.000760135
0.000610613
0.000495291
0.000439607
0.000397856
0.0004743
0.000601769
0.000764788
0.000936719
0.00110191
0.0012524
0.00138463
0.00149751
0.00159136
0.00166742
0.00172786
0.00177623
0.00181858
0.00186538
0.00193416
0.00205091
0.00224653
0.00253537
0.00279567
0.000973814
0.000859986
0.000694697
0.000610448
0.000527251
0.000464354
0.000522781
0.000638909
0.000790293
0.00095121
0.00110648
0.00124836
0.0013733
0.0014801
0.00156883
0.00164045
0.0016968
0.00174105
0.00177875
0.00181959
0.00187982
0.00198511
0.00216677
0.00239305
0.00115813
0.00108425
0.00093327
0.000786688
0.000714785
0.000604136
0.000548178
0.000591598
0.000694977
0.000831854
0.000979641
0.00112336
0.00125511
0.00137129
0.00147063
0.00155313
0.00161958
0.00167161
0.00171207
0.00174598
0.00178197
0.00183574
0.00193841
0.00210731
0.00131821
0.00128233
0.00116101
0.00101226
0.00088925
0.000806217
0.000683887
0.000654771
0.000693326
0.000785146
0.000907148
0.00103929
0.00116826
0.00128685
0.0013917
0.00148159
0.00155644
0.00161698
0.00166468
0.00170214
0.00173377
0.00176786
0.00182698
0.00194961
0.00146044
0.0014614
0.00137578
0.00124504
0.00111008
0.00100604
0.000908239
0.000822179
0.000815541
0.000860144
0.000942583
0.0010465
0.00115777
0.0012667
0.00136762
0.00145763
0.00153555
0.00160122
0.00165522
0.0016988
0.00173424
0.00176609
0.00180979
0.0019071
0.00158862
0.00162666
0.00158161
0.00148235
0.0013642
0.00125443
0.00117111
0.0010938
0.00105772
0.00107577
0.00112527
0.00119652
0.00127971
0.00136678
0.00145197
0.00153163
0.0016037
0.00166719
0.00172184
0.00176794
0.00180658
0.00184064
0.00188247
0.00196958
0.00170366
0.00178077
0.00178049
0.00172357
0.00163963
0.00155354
0.00148041
0.00143284
0.00140019
0.00140695
0.0014409
0.00149037
0.00154976
0.00161403
0.00167914
0.00174221
0.00180127
0.00185506
0.00190283
0.00194425
0.00197974
0.00201217
0.00205397
0.00213532
0.00180558
0.00192483
0.00197076
0.0019637
0.00192563
0.00187856
0.00183712
0.00181052
0.0018008
0.00181188
0.00184414
0.00188502
0.00193153
0.00198106
0.00203098
0.00207931
0.00212458
0.00216571
0.00220186
0.0022326
0.00225844
0.00228323
0.00232061
0.00239372
0.00189273
0.00205489
0.00214783
0.00219308
0.00220698
0.00220709
0.0022061
0.00221151
0.00222511
0.00225047
0.00228852
0.00233014
0.00237408
0.00241758
0.00245912
0.00249749
0.00253154
0.00256034
0.00258328
0.00260021
0.00261254
0.00262579
0.00265447
0.0027156
0.00196259
0.00216693
0.0023067
0.00240032
0.00246662
0.00251587
0.00255809
0.00259932
0.00264078
0.0026868
0.00273732
0.002785
0.00283082
0.00287313
0.00291079
0.0029429
0.00296882
0.00298795
0.00299992
0.00300524
0.00300645
0.00301059
0.0030318
0.00308004
0.00201225
0.00225659
0.00243903
0.00257712
0.00268741
0.00278244
0.0028667
0.00294264
0.00301255
0.00308087
0.00314579
0.00320318
0.00325444
0.00329864
0.00333501
0.00336318
0.0033825
0.00339261
0.00339363
0.00338665
0.0033753
0.00336845
0.00338168
0.00342315
0.00203883
0.00231987
0.00253895
0.00271391
0.00286041
0.00298929
0.00310596
0.00321199
0.00330879
0.00339737
0.00347631
0.00354384
0.00360159
0.00364882
0.0036849
0.00370905
0.0037209
0.00372053
0.00370844
0.00368627
0.00365918
0.0036386
0.00364148
0.0036747
0.00203974
0.00235367
0.00260202
0.00280392
0.00297623
0.0031298
0.00326651
0.00338978
0.00350198
0.00360368
0.00369366
0.00376983
0.00383239
0.00388114
0.0039152
0.00393454
0.00393909
0.00392976
0.00390802
0.00387666
0.00384212
0.00381612
0.00381493
0.00384405
0.00201296
0.00235617
0.0026259
0.00284368
0.00302992
0.00319422
0.00334109
0.00347315
0.00359278
0.00369925
0.00378948
0.00386415
0.00392443
0.0039705
0.00400281
0.00402099
0.00402501
0.00401454
0.00399165
0.00395966
0.00392474
0.00389903
0.0038985
0.00392691
0.00195713
0.002327
0.00261059
0.00283326
0.0030206
0.00318268
0.00332702
0.00345619
0.00357112
0.00367167
0.00375742
0.00383047
0.00389006
0.00393597
0.00396806
0.00398631
0.00399002
0.00398117
0.0039616
0.00393218
0.00389965
0.00387644
0.00387877
0.0039097
0.00187104
0.00226807
0.00255849
0.00277581
0.0029521
0.00310045
0.00323045
0.00334443
0.0034466
0.00353798
0.00361637
0.00368232
0.00373591
0.00377739
0.00380606
0.00382341
0.00383268
0.00383232
0.00381852
0.00379484
0.00376792
0.00374958
0.00375591
0.0037911
0.00175406
0.00218299
0.00247417
0.00267726
0.0028322
0.0029571
0.00306171
0.00315657
0.0032412
0.0033152
0.00337855
0.00343242
0.0034759
0.00351108
0.00354126
0.00356628
0.00358008
0.00358117
0.00357061
0.00355139
0.00352957
0.00351582
0.00352634
0.00356731
0.00160619
0.00207651
0.00236451
0.00254591
0.00267161
0.00276461
0.00284277
0.00291151
0.00297256
0.00302505
0.00306978
0.0031096
0.00314873
0.00318623
0.00321574
0.00323383
0.00324082
0.00323874
0.00322987
0.00321642
0.00320193
0.00319516
0.00321213
0.00326105
0.00142809
0.00195591
0.00223796
0.00239163
0.00248319
0.00254233
0.00258986
0.00263056
0.00266557
0.00269678
0.00273141
0.00276773
0.00279836
0.00281864
0.00283111
0.00283783
0.00284174
0.00284217
0.00283898
0.00283275
0.00282589
0.00282565
0.00284795
0.00290513
0.00122499
0.00183165
0.002104
0.0022249
0.00227866
0.00230538
0.00232298
0.00233712
0.00235356
0.00237922
0.00240096
0.00241221
0.00241834
0.00242301
0.0024278
0.00243221
0.00243591
0.00243856
0.00243987
0.00243986
0.00243986
0.00244539
0.00247191
0.00253751
0.00101866
0.0017189
0.00197202
0.00205511
0.00207298
0.00206984
0.00206178
0.00206458
0.00207356
0.00207158
0.00206559
0.00206178
0.00205994
0.00205984
0.00206122
0.00206383
0.00206745
0.00207178
0.00207651
0.00208149
0.00208741
0.00209825
0.00212856
0.00220342
1.88171e-06
1.48607e-05
5.37706e-05
0.000115668
0.000194854
5.61323e-05
4.48488e-05
6.71513e-05
0.000151734
0.000256265
0.00033493
0.000368246
5.69648e-05
0.000142743
0.000264562
0.000405654
0.00053409
0.000711245
6.29656e-05
0.000213937
0.000365188
0.000537011
0.00070853
0.000937701
6.73461e-05
0.000275937
0.000451798
0.000645787
0.000840432
0.001064
7.06183e-05
0.000328208
0.000523821
0.000730533
0.000930065
0.00112753
7.3114e-05
0.000369169
0.00058138
0.000792638
0.00098539
0.00114924
7.49743e-05
0.00039965
0.000624995
0.000835539
0.00101305
0.00114397
7.62745e-05
0.000420627
0.000656027
0.000860441
0.00102054
0.00112154
7.70887e-05
0.000433331
0.000674278
0.000870818
0.00101306
0.00108805
7.74543e-05
0.000437759
0.000681393
0.000868849
0.000994298
0.00104704
7.7431e-05
0.000434462
0.000678222
0.00085611
0.000966662
0.00100038
7.70269e-05
0.000423054
0.000665272
0.000833491
0.000931695
0.000949352
7.64556e-05
0.0004022
0.000642866
0.000801731
0.000890208
0.000895165
7.56847e-05
0.000373968
0.000611555
0.00076155
0.000842624
0.000838829
7.4684e-05
0.000340532
0.000572009
0.000713783
0.000789165
0.000781695
7.34195e-05
0.000303613
0.0005251
0.000658907
0.000730297
0.00072496
7.18418e-05
0.000264879
0.000471904
0.000597276
0.00066656
0.000668013
6.98682e-05
0.000225982
0.000413628
0.000529092
0.000597352
0.000607862
6.73356e-05
0.000188423
0.00035129
0.000454161
0.000520549
0.000540836
6.39127e-05
0.000152998
0.00028469
0.000371174
0.000432813
0.000462679
5.89761e-05
0.000117692
0.000209614
0.000275872
0.000328499
0.000370761
5.13803e-05
6.95668e-05
0.000119657
0.000161568
0.000199134
0.000265067
2.11848e-06
6.65094e-06
1.70012e-05
3.30837e-05
5.58187e-05
0.000131301
0.000973386
0.00164225
0.00184837
0.00188856
0.00187651
0.00184849
0.00183227
0.00182209
0.00180276
0.00178758
0.00177768
0.00177198
0.0017695
0.00176948
0.00177136
0.00177477
0.00177943
0.00178522
0.00179213
0.00180043
0.0018111
0.00182785
0.00186494
0.00195369
0.00114268
0.00160018
0.0017307
0.00173477
0.00169636
0.00165757
0.00163069
0.00159971
0.00157993
0.00156932
0.00156596
0.00156772
0.00157267
0.00157924
0.00158637
0.00159346
0.00160037
0.0016074
0.00161537
0.00162587
0.00164182
0.00166929
0.00172535
0.00184216
0.00126247
0.00155757
0.00161855
0.00159241
0.00153893
0.00149296
0.00145296
0.00142987
0.001422
0.00142611
0.00143818
0.00145434
0.0014715
0.00148756
0.00150137
0.00151259
0.00152168
0.00152991
0.00153978
0.00155569
0.00158504
0.00164064
0.00174628
0.0019178
0.00132119
0.00150032
0.00151067
0.00146302
0.00140581
0.00134923
0.00132043
0.00131449
0.0013268
0.00135072
0.00137982
0.0014092
0.00143572
0.00145782
0.00147518
0.00148839
0.00149913
0.00151053
0.00152823
0.00156205
0.00162811
0.00175055
0.00195446
0.00220468
0.00133504
0.00142763
0.00140708
0.00135244
0.00127831
0.00123888
0.00123005
0.00124742
0.00128137
0.00132211
0.0013626
0.00139876
0.00142875
0.00145236
0.0014705
0.00148524
0.0015002
0.00152191
0.00156194
0.00163987
0.00178464
0.00202681
0.00236402
0.00268127
0.00131539
0.00134894
0.00130581
0.00125114
0.00117826
0.00115982
0.00117703
0.00121825
0.00126958
0.00132084
0.00136661
0.00140479
0.00143526
0.00145932
0.00147947
0.00149987
0.00152763
0.00157545
0.00166519
0.00182972
0.0021045
0.00249841
0.00295137
0.00328198
0.0012749
0.00126864
0.00121284
0.00115487
0.00110082
0.00111146
0.00115607
0.00121712
0.00127976
0.00133594
0.00138293
0.00142087
0.00145148
0.00147785
0.0015047
0.00153961
0.00159564
0.00169541
0.00187366
0.00216934
0.0025987
0.00312176
0.00361211
0.00395354
0.00122168
0.00118909
0.00113047
0.00107039
0.00105076
0.00109188
0.00116056
0.00123527
0.00130322
0.00135986
0.00140549
0.0014426
0.00147497
0.00150796
0.00154954
0.00161243
0.00171813
0.00190029
0.00219936
0.00263947
0.0031985
0.00378009
0.00428513
0.00460359
0.00116262
0.00110992
0.00105672
0.00100012
0.00102473
0.00109615
0.00118327
0.00126507
0.00133327
0.00138752
0.00143123
0.00146921
0.0015077
0.00155514
0.00162361
0.00173221
0.0019106
0.00219706
0.00262204
0.00318042
0.00381216
0.00440151
0.0048937
0.00517908
0.00110022
0.00103308
0.000991479
0.000953996
0.00102007
0.00111902
0.00121765
0.00130073
0.00136589
0.00141706
0.00146055
0.00150383
0.00155616
0.00162931
0.00173989
0.00191217
0.00217844
0.00257022
0.00309739
0.00372748
0.00436539
0.00494529
0.00538913
0.00564421
0.00103495
0.000962486
0.000930833
0.000932552
0.00103848
0.00115597
0.00125856
0.00133859
0.00139938
0.0014488
0.00149604
0.00155168
0.00162791
0.00173971
0.0019065
0.00215291
0.00250543
0.00298073
0.00356755
0.00421621
0.00482513
0.0053608
0.00574945
0.00597149
0.000966128
0.00089957
0.000881441
0.00093751
0.00107313
0.00120047
0.00130177
0.0013766
0.00143371
0.00148461
0.00154179
0.00161875
0.00173014
0.00189235
0.00212342
0.00244187
0.00286217
0.00338467
0.00398357
0.00460476
0.00515903
0.00562653
0.00596463
0.00614185
0.00089281
0.000845576
0.000848802
0.000958997
0.00111753
0.00124902
0.00134555
0.00141459
0.00147026
0.0015278
0.00160292
0.00171134
0.00186844
0.00208838
0.00238282
0.00275941
0.00321857
0.00374761
0.00431487
0.00487178
0.00535103
0.00573822
0.00601574
0.00615446
0.000814821
0.000803835
0.000836605
0.000993205
0.00116845
0.0012997
0.00138906
0.00145324
0.00151145
0.00158261
0.00168484
0.00183443
0.00204435
0.00232255
0.0026708
0.00308423
0.0035508
0.00404972
0.00455027
0.00501458
0.00540185
0.00569327
0.00589761
0.00599873
0.000733224
0.000773342
0.000833586
0.00103945
0.00122684
0.00135131
0.0014322
0.00149416
0.00156065
0.0016536
0.00179199
0.00198989
0.00225449
0.00258481
0.00297174
0.0033992
0.00384593
0.00428722
0.00469625
0.00504652
0.0053168
0.00549743
0.00560143
0.00565453
0.000650756
0.000748961
0.000851072
0.00109681
0.00129206
0.00140221
0.00147556
0.00153973
0.00162162
0.0017448
0.00192673
0.00217618
0.00249202
0.00286362
0.00327237
0.00369407
0.00410194
0.00446974
0.00477401
0.00499586
0.00512369
0.00515922
0.00512648
0.0050843
0.000574038
0.000738451
0.000884993
0.00116681
0.00135128
0.00145071
0.0015207
0.001593
0.00169787
0.00185884
0.00208889
0.00238882
0.00274823
0.00314802
0.003563
0.00396464
0.00432413
0.00461533
0.00481657
0.00491115
0.0048879
0.00474584
0.00450761
0.00425844
0.00051438
0.000740041
0.000934716
0.00123673
0.00140572
0.00149951
0.00157041
0.00165707
0.00179227
0.00199667
0.00227589
0.00262131
0.00301396
0.00342874
0.00383729
0.00421037
0.0045204
0.00474363
0.00486102
0.00485709
0.00471643
0.00441803
0.00392494
0.00320955
0.000464779
0.000751421
0.000995928
0.00130741
0.00146246
0.00155193
0.00162736
0.00173463
0.00190633
0.00215693
0.0024828
0.00286588
0.00328044
0.00369825
0.00409084
0.00443112
0.00469517
0.00486383
0.00492321
0.00486377
0.00467774
0.00435569
0.00388495
0.00330114
0.000429651
0.000771615
0.00107126
0.00138806
0.00152777
0.00160964
0.00169353
0.0018275
0.00203976
0.00233604
0.00270328
0.00311463
0.00353974
0.00395009
0.00431945
0.00462443
0.00484569
0.00496898
0.00498537
0.00489028
0.0046815
0.00435689
0.00391427
0.00339289
0.00041599
0.000799687
0.00117087
0.00147411
0.00159478
0.00167238
0.00177052
0.00193633
0.00218999
0.0025282
0.0029309
0.00336037
0.00378505
0.00417881
0.0045191
0.00478686
0.00496733
0.00505085
0.005033
0.0049135
0.00469426
0.00437751
0.00396655
0.00349153
0.00041541
0.000847358
0.00128872
0.00155441
0.00166377
0.00174205
0.0018598
0.00205861
0.0023531
0.00273088
0.00316103
0.00359717
0.00401096
0.0043803
0.00468689
0.00491582
0.00505633
0.00510258
0.00505372
0.00491279
0.00468481
0.00437533
0.00399114
0.00355304
0.000425419
0.000938101
0.00141273
0.00164069
0.00173891
0.00182082
0.0019589
0.00219342
0.00252967
0.00294182
0.00338792
0.00381952
0.00421336
0.00455212
0.00482159
0.00501049
0.00511136
0.00512149
0.00504302
0.00488192
0.00464602
0.00434365
0.00398407
0.00358135
0.000451188
0.00104493
0.0015628
0.00174436
0.00182172
0.0019065
0.00206846
0.0023424
0.00271794
0.00315655
0.00360614
0.00402302
0.00438974
0.00469351
0.00492365
0.00507176
0.00513307
0.00510753
0.00500011
0.00481969
0.00457693
0.00428267
0.00394797
0.00358334
9.95499e-07
1.07527e-05
4.05268e-05
0.000100252
0.000198998
6.09473e-05
3.34861e-05
0.000103905
0.000214458
0.000358021
0.000515297
0.000550722
4.99189e-05
0.000208789
0.000406969
0.00062943
0.000863922
0.00104105
5.57118e-05
0.000291989
0.000572306
0.00085513
0.00114155
0.00140008
6.01649e-05
0.000356213
0.000706344
0.0010321
0.00134469
0.00162918
6.35757e-05
0.000408995
0.000810959
0.00116802
0.00149434
0.00177638
6.61418e-05
0.0004532
0.000891751
0.00127005
0.00159999
0.0018697
6.80103e-05
0.000490737
0.000953266
0.00134458
0.00167225
0.00192668
6.92945e-05
0.000522338
0.000998504
0.00139582
0.00171879
0.00195923
7.00841e-05
0.000547863
0.00102905
0.00142725
0.00174502
0.00197374
7.04525e-05
0.000566582
0.00104554
0.00144135
0.00175357
0.00197458
7.04628e-05
0.000577359
0.001048
0.00143978
0.00174605
0.00196404
7.0183e-05
0.000578785
0.00103627
0.0014229
0.00172377
0.00194273
6.95635e-05
0.00057077
0.00101015
0.00139003
0.00168726
0.0019101
6.85434e-05
0.000553608
0.000968748
0.00133898
0.00163447
0.00186271
6.70888e-05
0.000527252
0.00091301
0.00127099
0.00156725
0.00180181
6.516e-05
0.000491356
0.000842255
0.00118342
0.00148155
0.00172215
6.26972e-05
0.000445414
0.000756194
0.00107501
0.00137338
0.00161805
5.96112e-05
0.000388864
0.000655054
0.000945467
0.00123749
0.00148272
5.57436e-05
0.000321702
0.000539447
0.000795815
0.00106758
0.00130723
5.04339e-05
0.000243958
0.000410985
0.000626334
0.000860916
0.00108056
4.69926e-05
0.000157454
0.000272993
0.000439398
0.000623976
0.000782469
3.40673e-05
6.77708e-05
0.000133316
0.000244916
0.000372549
0.000415547
9.89487e-07
6.87392e-06
2.93465e-05
8.01352e-05
0.000146679
4.80452e-05
0.000543612
0.00129894
0.00174036
0.00185339
0.00190715
0.00199715
0.00218979
0.00250467
0.00291431
0.00336986
0.00381122
0.00420493
0.00453925
0.00480516
0.00499467
0.00510158
0.00512326
0.00506218
0.00492626
0.00472762
0.0044799
0.00419617
0.00388882
0.0035672
0.00116956
0.00170376
0.00189839
0.0019485
0.00198683
0.0020932
0.002323
0.00267785
0.00311427
0.00357632
0.0039993
0.00436363
0.00466218
0.00488871
0.00503706
0.00510257
0.00508451
0.00498803
0.00482453
0.00460985
0.00436067
0.00409173
0.00381575
0.00354122
0.00157195
0.00190266
0.00199922
0.00202159
0.00206221
0.00219611
0.00246722
0.00285842
0.0033133
0.0037699
0.00416739
0.00449862
0.0047598
0.00494651
0.00505367
0.00507778
0.00502007
0.00488891
0.00469993
0.00447311
0.00422778
0.00397909
0.00373837
0.00351205
0.00180746
0.00202029
0.0020696
0.00208436
0.00213891
0.00230769
0.00262053
0.00304213
0.00350708
0.00394562
0.00431401
0.00461058
0.00483415
0.00498136
0.00504767
0.00503063
0.00493387
0.00476985
0.0045592
0.00432599
0.00409098
0.00386784
0.00366455
0.003484
0.0019493
0.00209837
0.00212246
0.00214181
0.00221921
0.00242732
0.00277938
0.00322395
0.00369035
0.00410364
0.00444003
0.0047014
0.00488787
0.00499632
0.00502239
0.00496484
0.0048305
0.00463695
0.00441027
0.00417773
0.00395948
0.00376559
0.00359925
0.00345926
0.00203672
0.00214761
0.00216471
0.00219727
0.00230398
0.00255298
0.00293967
0.00339951
0.00385905
0.00424283
0.00454636
0.00477319
0.00492374
0.00499452
0.00498125
0.0048844
0.0047151
0.004497
0.00426137
0.00403681
0.00384041
0.00367696
0.0035446
0.00343855
0.00209111
0.00217749
0.00220157
0.00225288
0.0023928
0.00268162
0.00309733
0.00356595
0.00400817
0.00436264
0.0046344
0.00482832
0.00494457
0.00497903
0.00492765
0.00479349
0.00459315
0.00435688
0.00411994
0.00390969
0.00373794
0.00360362
0.00350066
0.00342182
0.00212339
0.00219696
0.00223652
0.00230939
0.00248391
0.00280947
0.00324816
0.00371969
0.00413837
0.00446444
0.00470627
0.00486935
0.00495316
0.00495283
0.00486501
0.00469641
0.00447016
0.00422288
0.00399174
0.00380017
0.00365343
0.00354515
0.00346637
0.00340861
0.00214015
0.00221058
0.00227083
0.00236616
0.0025746
0.00293263
0.00338847
0.0038581
0.00425151
0.00455034
0.00476441
0.00489889
0.00495222
0.00491884
0.00479675
0.00459746
0.00435125
0.00410009
0.00388039
0.00370957
0.0035862
0.00349989
0.00344023
0.00339842
0.00214616
0.00222086
0.00230389
0.00242124
0.00266157
0.00304752
0.00351556
0.0039795
0.00434832
0.00462217
0.00481108
0.00491941
0.00494432
0.00487987
0.00472625
0.00450074
0.00424085
0.00399201
0.00378739
0.00363725
0.00353436
0.00346579
0.00342072
0.00339072
0.00214446
0.002229
0.00233346
0.0024718
0.00274138
0.00315117
0.00362807
0.00408175
0.00442959
0.00468172
0.00484847
0.0049332
0.00493189
0.00483864
0.00465673
0.00440994
0.00414232
0.00390058
0.00371257
0.00358145
0.00349558
0.00344081
0.00340654
0.00338512
0.00213642
0.00223552
0.00235557
0.00251467
0.00281081
0.00324103
0.00372457
0.00416597
0.00449694
0.00473096
0.00487864
0.00494238
0.00491715
0.00479767
0.00459116
0.00432814
0.00405795
0.00382631
0.00365468
0.00353993
0.00346754
0.00342307
0.0033966
0.00338126
0.00212206
0.00223857
0.00236969
0.00254756
0.00286725
0.00331508
0.00380398
0.00423496
0.0045525
0.00477184
0.00490348
0.00494882
0.00490209
0.00475925
0.00453208
0.00425762
0.00398884
0.00376861
0.00361185
0.00351045
0.00344833
0.003411
0.00338985
0.0033788
0.00210056
0.0022361
0.00237461
0.00256829
0.00290854
0.00337199
0.00386616
0.00429019
0.00459797
0.00480604
0.00492461
0.0049541
0.00488839
0.0047253
0.0044815
0.00419983
0.00393512
0.0037262
0.003582
0.00349083
0.003436