/*--------------------------------*- C++ -*----------------------------------*\
  =========                 |
  \\      /  F ield         | OpenFOAM: The Open Source CFD Toolbox
   \\    /   O peration     | Website:  https://openfoam.org
    \\  /    A nd           | Version:  11
     \\/     M anipulation  |
\*---------------------------------------------------------------------------*/
FoamFile
{
    format      ascii;
    class       volVectorField;
    location    "0.08";
    object      U;
}
// * * * * * * * * * * * * * * * * * * * * * * * * * * * * * * * * * * * * * //

dimensions      [0 1 -1 0 0 0 0];

internalField   nonuniform List<vector> 
2880
(
(-0.058357 -0.0657082 -1.75898e-19)
(-0.113809 -0.11659 -4.86732e-20)
(-0.13491 -0.144807 -1.35245e-21)
(-0.0954352 -0.137126 8.04304e-20)
(-0.176793 -0.31572 5.94478e-20)
(0.646601 -0.148663 -1.61194e-20)
(-0.0795131 -0.0508479 0)
(-0.0940675 -0.100534 -1.28771e-21)
(-0.0763444 -0.112152 -7.67265e-21)
(0.0105649 -0.0849177 -1.47375e-19)
(0.14105 -0.195333 -2.75288e-20)
(0.721992 -0.0666126 2.27928e-20)
(-0.0798817 -0.0399321 0)
(-0.0579462 -0.0788505 0)
(-0.00222844 -0.0809828 -1.92505e-22)
(0.142153 -0.0526121 1.20208e-19)
(0.417609 -0.137897 4.94416e-20)
(0.841873 -0.130408 4.45333e-20)
(-0.0758979 -0.024494 0)
(-0.0197309 -0.0591881 0)
(0.0758292 -0.0533127 -3.98212e-21)
(0.267391 -0.0315718 -8.62549e-20)
(0.592717 -0.111199 -3.02694e-20)
(0.951261 -0.173571 -4.79771e-20)
(-0.0596862 0.00590176 1.57501e-19)
(0.0210431 -0.0402518 0)
(0.151193 -0.0304238 -2.62361e-20)
(0.37519 -0.0200333 3.05684e-20)
(0.70911 -0.0970765 -2.66845e-21)
(1.00934 -0.185296 -1.07499e-20)
(-0.0420654 0.0242936 -1.60435e-19)
(0.0604343 -0.0230429 5.45363e-21)
(0.219078 -0.0132933 5.98736e-20)
(0.462561 -0.0147883 -2.67543e-21)
(0.788658 -0.0919011 3.60534e-21)
(1.04151 -0.188092 -1.36527e-22)
(-0.0271067 0.0370743 2.52909e-21)
(0.0961252 -0.00866709 6.95108e-20)
(0.276915 -0.00218299 -3.8672e-20)
(0.530815 -0.0140645 0)
(0.842026 -0.092509 0)
(1.05876 -0.188328 -6.19694e-20)
(-0.0143247 0.0446922 1.70847e-19)
(0.127319 0.00218352 9.52467e-21)
(0.324212 0.00362355 7.16608e-20)
(0.582363 -0.0173513 0)
(0.875355 -0.0966763 5.90084e-20)
(1.06567 -0.188875 2.77908e-21)
(-0.0030613 0.047728 -1.77557e-19)
(0.15349 0.00945215 1.2148e-20)
(0.361536 0.00501369 -5.71934e-20)
(0.619208 -0.0237956 -8.2001e-21)
(0.893621 -0.102897 -5.83831e-20)
(1.06544 -0.189676 5.70232e-20)
(0.00689076 0.0470111 2.01433e-19)
(0.174534 0.0132911 1.27122e-20)
(0.389632 0.00272844 9.43385e-20)
(0.643482 -0.0327499 0)
(0.900637 -0.111092 0)
(1.06002 -0.192622 -8.10469e-20)
(0.0154992 0.0433479 -4.0942e-19)
(0.190613 0.01402 -9.95171e-20)
(0.409326 -0.00262083 1.98321e-20)
(0.6572 -0.0438283 9.77755e-20)
(0.899031 -0.121159 0)
(1.05029 -0.198124 1.03274e-19)
(0.0226675 0.0374409 9.54635e-20)
(0.202032 0.0120756 0)
(0.421472 -0.0105002 -1.11488e-19)
(0.662059 -0.0566598 -9.54864e-20)
(0.890863 -0.132918 5.4576e-20)
(1.03744 -0.206124 0)
(0.0283112 0.029945 1.12331e-19)
(0.209151 0.00797568 6.33807e-20)
(0.426876 -0.0203891 3.55474e-21)
(0.659388 -0.0709183 0)
(0.87739 -0.146535 -3.99514e-20)
(1.02192 -0.216668 -1.22401e-20)
(0.0323662 0.0215538 5.75029e-21)
(0.212337 0.00232402 -1.01426e-19)
(0.42626 -0.0316693 -3.82155e-21)
(0.65019 -0.0864048 0)
(0.859247 -0.162141 0)
(1.00414 -0.230012 1.21917e-20)
(0.0347997 0.0130867 0)
(0.211916 -0.00417552 -2.80509e-21)
(0.420225 -0.0436627 3.5121e-20)
(0.635235 -0.102761 -3.38181e-20)
(0.83701 -0.17924 0)
(0.984059 -0.246053 0)
(0.0355859 0.00556307 -1.77138e-20)
(0.208147 -0.0106858 3.94553e-20)
(0.409198 -0.0556661 -4.40081e-20)
(0.614963 -0.119526 3.33421e-20)
(0.810873 -0.197403 -7.77451e-21)
(0.961482 -0.264777 2.97667e-21)
(0.0348453 0.000219242 1.73794e-20)
(0.201093 -0.0162483 -5.15998e-22)
(0.393454 -0.0668845 9.43953e-21)
(0.589552 -0.136161 0)
(0.780555 -0.216562 7.69242e-21)
(0.935889 -0.286281 0)
(0.0324765 -0.0014801 0)
(0.190647 -0.0197513 4.71809e-20)
(0.372996 -0.0764418 -2.54511e-21)
(0.558943 -0.151854 6.64105e-21)
(0.745413 -0.236804 2.73789e-20)
(0.906558 -0.310644 0)
(0.0284647 0.00197942 -4.95597e-21)
(0.176449 -0.0199886 -4.52273e-20)
(0.347601 -0.0832599 8.44349e-20)
(0.522738 -0.16596 0)
(0.704417 -0.257981 -3.12793e-20)
(0.872438 -0.337716 0)
(0.0226548 0.0118543 1.55525e-19)
(0.157919 -0.0158735 1.05843e-19)
(0.31677 -0.0862822 -9.75902e-20)
(0.480188 -0.178231 9.52174e-21)
(0.656363 -0.278922 -6.43693e-20)
(0.831508 -0.367902 0)
(0.0139393 0.0280741 -1.4545e-19)
(0.134658 -0.00647356 -1.03312e-19)
(0.279941 -0.0846645 -5.68132e-21)
(0.430532 -0.188118 2.00845e-20)
(0.600036 -0.297983 4.79991e-20)
(0.780981 -0.401705 4.36995e-20)
(0.00903922 0.0406025 -2.78655e-19)
(0.106949 0.00925366 1.64165e-20)
(0.237193 -0.0771873 -2.64693e-20)
(0.374141 -0.194132 2.30869e-19)
(0.533775 -0.313256 -1.91274e-20)
(0.720277 -0.437666 -5.78616e-20)
(0.00438193 0.0532458 3.13425e-19)
(0.0754498 0.0319045 1.89373e-20)
(0.18907 -0.0607953 2.74636e-19)
(0.312643 -0.192634 -2.38861e-19)
(0.45388 -0.321341 1.77225e-19)
(0.643187 -0.482584 -9.6725e-21)
(0.00378108 0.0654835 6.70689e-21)
(0.039569 0.0658758 -3.2154e-19)
(0.129148 -0.0258093 -2.98978e-20)
(0.231846 -0.176803 -5.97351e-22)
(0.384421 -0.293572 3.83063e-20)
(0.520793 -0.558319 0)
(0.829636 -0.652228 -1.24795e-19)
(0.925216 -0.536732 -5.57175e-20)
(0.927005 -0.440961 -4.33389e-20)
(0.940315 -0.3545 -1.38156e-19)
(0.950933 -0.297614 -1.30581e-19)
(0.963309 -0.257317 -2.01247e-19)
(0.974869 -0.226908 1.76373e-19)
(0.985031 -0.202335 0)
(0.993621 -0.181499 -1.46229e-19)
(1.0007 -0.163177 4.60856e-21)
(1.00639 -0.146732 2.29708e-21)
(1.01082 -0.13172 -3.3388e-21)
(1.0141 -0.117809 1.14055e-19)
(1.01632 -0.104752 -1.10131e-19)
(1.01755 -0.0923827 2.14842e-19)
(1.01791 -0.0806198 -2.04493e-19)
(1.01749 -0.069445 -9.66497e-20)
(1.01638 -0.058865 3.40828e-21)
(1.01468 -0.0488605 -9.02083e-20)
(1.01251 -0.0393396 0)
(1.00994 -0.0301843 8.7476e-20)
(1.00647 -0.0216105 -1.63441e-19)
(1.00065 -0.014531 4.04079e-19)
(0.994333 -0.00904092 -2.2028e-19)
(0.974231 -0.542768 -1.56282e-19)
(1.02047 -0.51236 1.82525e-19)
(0.992194 -0.432686 -2.86361e-19)
(0.98605 -0.354843 -1.25989e-19)
(0.986497 -0.301334 1.11087e-19)
(0.992464 -0.262516 2.01732e-19)
(0.999586 -0.232739 -1.76583e-19)
(1.00641 -0.20842 1.51547e-19)
(1.01237 -0.187651 -2.79122e-19)
(1.01726 -0.169298 3.91304e-19)
(1.02109 -0.152738 2.35406e-21)
(1.02389 -0.137541 1.08941e-19)
(1.02571 -0.123387 -4.35078e-19)
(1.02659 -0.110041 3.13442e-19)
(1.02657 -0.0973445 -9.8761e-20)
(1.02575 -0.0852187 1.95973e-19)
(1.02421 -0.0736444 -9.23569e-20)
(1.02203 -0.0626303 9.37044e-20)
(1.01927 -0.0521632 2.66877e-19)
(1.01608 -0.0421472 -8.36304e-20)
(1.01253 -0.0324521 1.64825e-19)
(1.00806 -0.0233709 8.1681e-20)
(1.00089 -0.0161511 -7.93191e-20)
(0.993611 -0.0112416 2.5906e-19)
(1.05392 -0.447932 1.15119e-19)
(1.08248 -0.471192 -4.39593e-19)
(1.04479 -0.413117 0)
(1.02642 -0.347893 -2.14287e-19)
(1.01924 -0.30008 9.24033e-20)
(1.01992 -0.26404 -1.70903e-19)
(1.0232 -0.235681 7.97556e-20)
(1.02708 -0.212136 0)
(1.03066 -0.191801 0)
(1.03357 -0.173701 2.40651e-19)
(1.03568 -0.157263 -1.1539e-19)
(1.03697 -0.142085 -2.18215e-19)
(1.0374 -0.127872 -1.01444e-19)
(1.037 -0.114405 2.00564e-19)
(1.03579 -0.101538 -1.93666e-19)
(1.03382 -0.0891951 0)
(1.03117 -0.0773572 0)
(1.02789 -0.0660348 0)
(1.02407 -0.05522 1.68879e-19)
(1.01982 -0.0448124 2.46176e-19)
(1.01525 -0.0346635 -7.14033e-19)
(1.00976 -0.0251462 -3.68665e-21)
(1.00128 -0.0179172 -2.41537e-21)
(0.993111 -0.0137395 2.73909e-19)
(1.10428 -0.385125 -8.07482e-20)
(1.12339 -0.427025 1.87122e-19)
(1.08396 -0.389161 -3.02869e-19)
(1.0598 -0.336672 3.10314e-19)
(1.04802 -0.295412 -1.09871e-19)
(1.04492 -0.2628 2.53074e-19)
(1.04522 -0.236336 -1.4154e-19)
(1.04665 -0.213914 0)
(1.04821 -0.194276 0)
(1.04938 -0.17664 -1.18777e-19)
(1.04997 -0.160504 1.0576e-19)
(1.04988 -0.145508 1.0626e-19)
(1.04906 -0.131386 0)
(1.04747 -0.11794 4.70583e-21)
(1.04512 -0.105037 0)
(1.04206 -0.0926054 -1.7777e-19)
(1.03833 -0.0806265 1.72416e-19)
(1.03398 -0.0691125 1.66568e-19)
(1.02909 -0.0580613 -4.01659e-19)
(1.02379 -0.047369 1.56366e-19)
(1.0182 -0.0368761 0)
(1.01168 -0.0270657 0)
(1.00199 -0.0200565 -3.57004e-19)
(0.992572 -0.0164662 1.99864e-19)
(1.13315 -0.340999 1.11547e-19)
(1.14946 -0.387197 -2.82671e-20)
(1.11225 -0.365174 1.97648e-20)
(1.0866 -0.323785 9.33112e-20)
(1.07272 -0.288837 -3.41724e-19)
(1.06727 -0.259752 -8.21719e-22)
(1.0654 -0.235352 3.4518e-19)
(1.06495 -0.214222 -1.24395e-19)
(1.06485 -0.195435 0)
(1.06456 -0.178395 -2.13617e-19)
(1.06384 -0.162682 9.66048e-20)
(1.06255 -0.147985 0)
(1.06059 -0.134068 9.13268e-20)
(1.05792 -0.120755 2.97919e-23)
(1.05453 -0.107926 1.1199e-22)
(1.05044 -0.0955146 8.66605e-20)
(1.04568 -0.0835024 2.43291e-19)
(1.04031 -0.0719029 -3.16992e-19)
(1.03438 -0.060718 2.32291e-19)
(1.02803 -0.0498404 0)
(1.02139 -0.0391008 0)
(1.01383 -0.0290979 0)
(1.0029 -0.022424 7.03493e-20)
(0.992182 -0.0194892 2.75253e-21)
(1.14767 -0.308778 -1.17098e-19)
(1.16453 -0.353878 -7.20549e-20)
(1.1323 -0.343213 1.38144e-19)
(1.10794 -0.310944 1.57544e-19)
(1.09374 -0.281537 0)
(1.08707 -0.255729 2.01623e-19)
(1.08376 -0.233335 1.84337e-19)
(1.08191 -0.213511 -3.72196e-21)
(1.08052 -0.195627 1.08299e-19)
(1.07905 -0.179244 -9.4971e-20)
(1.07723 -0.16402 -1.96486e-19)
(1.07491 -0.149694 2.58319e-21)
(1.07197 -0.136059 -1.77383e-19)
(1.06834 -0.122962 -1.75772e-19)
(1.064 -0.110293 -1.05076e-22)
(1.05896 -0.0979919 3.19848e-19)
(1.05325 -0.0860401 -7.94831e-20)
(1.0469 -0.074451 -7.31875e-20)
(1.03996 -0.0632294 0)
(1.03258 -0.0522628 -6.8718e-20)
(1.02489 -0.0413702 0)
(1.01624 -0.0312584 0)
(1.00411 -0.0249973 0)
(0.992066 -0.0228263 6.25074e-20)
(1.1532 -0.285559 1.32372e-21)
(1.17178 -0.32745 1.80092e-19)
(1.14621 -0.324307 -2.20303e-19)
(1.12493 -0.299218 -4.48698e-20)
(1.11163 -0.274369 -6.73588e-20)
(1.10457 -0.251398 -1.31957e-19)
(1.10042 -0.230805 -4.0784e-21)
(1.09762 -0.212185 -6.91399e-21)
(1.09526 -0.195169 -1.0035e-19)
(1.09286 -0.17944 2.95968e-21)
(1.09016 -0.164723 2.69445e-19)
(1.08698 -0.150799 5.83214e-21)
(1.08319 -0.137492 1.70154e-19)
(1.07873 -0.124665 -1.608e-19)
(1.07354 -0.11222 -2.3149e-19)
(1.06764 -0.100101 -7.75983e-20)
(1.06104 -0.0882888 0)
(1.05377 -0.0767952 7.2888e-20)
(1.04587 -0.0656258 -2.04518e-19)
(1.03747 -0.0546616 2.02037e-19)
(1.02872 -0.043706 -6.28764e-20)
(1.01897 -0.0335609 -6.16671e-20)
(1.00567 -0.0277683 -6.14614e-20)
(0.992306 -0.0264774 1.86958e-19)
(1.15305 -0.269606 8.9701e-20)
(1.1739 -0.307635 0)
(1.15578 -0.308956 2.80364e-19)
(1.13858 -0.289261 0)
(1.12697 -0.267942 0)
(1.12012 -0.247266 0)
(1.11561 -0.228173 0)
(1.11222 -0.210594 -7.76151e-21)
(1.10918 -0.194347 1.85032e-19)
(1.10608 -0.179209 -8.8649e-20)
(1.10268 -0.16497 -8.80262e-20)
(1.09879 -0.151445 2.41374e-21)
(1.0943 -0.13848 -7.92527e-20)
(1.08911 -0.125953 3.95141e-21)
(1.08319 -0.113776 2.22083e-19)
(1.07651 -0.101894 0)
(1.0691 -0.0902862 0)
(1.06097 -0.0789625 0)
(1.05216 -0.0679265 6.67417e-20)
(1.04277 -0.0570514 0)
(1.03295 -0.046122 6.26701e-20)
(1.0221 -0.0360171 6.15092e-20)
(1.00768 -0.0307292 6.14488e-20)
(0.992979 -0.0304314 0)
(1.14912 -0.259695 1.12425e-19)
(1.17292 -0.293858 0)
(1.16246 -0.297321 -1.34502e-19)
(1.14982 -0.281451 -1.83556e-19)
(1.14034 -0.262679 -5.42768e-20)
(1.13413 -0.243724 0)
(1.12961 -0.225781 9.4412e-20)
(1.12591 -0.209016 -1.84868e-19)
(1.12243 -0.193384 -2.7831e-21)
(1.11883 -0.178736 -8.25784e-20)
(1.11489 -0.164907 0)
(1.11044 -0.151743 0)
(1.10535 -0.139108 -7.12849e-20)
(1.09955 -0.126889 -6.92908e-20)
(1.09298 -0.115006 -6.51866e-22)
(1.08561 -0.103402 1.33308e-19)
(1.07747 -0.0920526 0)
(1.06854 -0.0809642 0)
(1.05886 -0.0701365 0)
(1.04852 -0.0594341 -5.75126e-20)
(1.03765 -0.0486211 0)
(1.02569 -0.038631 -5.4885e-20)
(1.01021 -0.0338664 2.27124e-19)
(0.994162 -0.0346701 -2.15081e-19)
(1.14253 -0.255022 -1.12997e-19)
(1.17017 -0.285638 1.17799e-19)
(1.16743 -0.289319 1.15549e-19)
(1.15944 -0.275976 1.19192e-19)
(1.15231 -0.258859 1.10142e-19)
(1.147 -0.241053 9.28642e-20)
(1.14274 -0.223878 -9.46431e-20)
(1.13895 -0.207663 8.90391e-20)
(1.13521 -0.192454 8.18108e-20)
(1.13126 -0.178155 -1.54798e-19)
(1.12691 -0.164638 1.45239e-19)
(1.12201 -0.15177 0)
(1.11644 -0.139428 7.14113e-20)
(1.11011 -0.127507 6.44328e-20)
(1.10297 -0.115927 0)
(1.09499 -0.10463 0)
(1.08618 -0.0935847 5.88329e-20)
(1.07652 -0.0827907 5.71725e-20)
(1.06603 -0.072242 0)
(1.05478 -0.0617947 1.11248e-19)
(1.04289 -0.0511907 1.08468e-19)
(1.02984 -0.0413927 6.39275e-22)
(1.01335 -0.0371537 -5.25582e-20)
(0.995933 -0.0391671 0)
(1.13411 -0.254959 -1.43561e-20)
(1.16698 -0.282376 -8.80496e-20)
(1.17136 -0.285079 -1.42203e-19)
(1.1681 -0.272925 4.99939e-20)
(1.16342 -0.256663 0)
(1.15919 -0.23944 -9.30633e-20)
(1.15535 -0.222636 3.96634e-20)
(1.15162 -0.206683 0)
(1.14776 -0.191673 0)
(1.14358 -0.177554 0)
(1.13892 -0.164222 -2.23389e-21)
(1.13364 -0.15156 -6.61108e-20)
(1.12765 -0.139454 0)
(1.12086 -0.127803 -1.27117e-19)
(1.11321 -0.116523 6.00728e-20)
(1.10469 -0.105552 -1.1738e-19)
(1.09528 -0.094849 5.46088e-20)
(1.08495 -0.0844045 -8.37453e-20)
(1.07372 -0.0742045 -2.5991e-20)
(1.06162 -0.0640961 -1.83081e-19)
(1.04875 -0.0537984 7.67869e-20)
(1.03463 -0.0442735 -5.14773e-20)
(1.01718 -0.0405442 5.25646e-20)
(0.998367 -0.0438836 2.3716e-20)
(1.12462 -0.259061 1.57018e-20)
(1.16388 -0.283446 -1.36287e-20)
(1.17517 -0.284371 -2.66663e-20)
(1.17642 -0.272305 -5.55107e-21)
(1.17417 -0.256166 4.35875e-20)
(1.17112 -0.238992 2.11869e-20)
(1.16779 -0.222168 -1.1586e-19)
(1.16423 -0.206164 6.99178e-20)
(1.16033 -0.191108 0)
(1.15598 -0.176973 3.17385e-20)
(1.15106 -0.163676 0)
(1.14546 -0.151109 6.24152e-20)
(1.13909 -0.139163 9.05215e-22)
(1.13188 -0.127736 -1.15962e-19)
(1.12378 -0.11674 5.59348e-20)
(1.11476 -0.106102 0)
(1.1048 -0.0957737 0)
(1.09387 -0.0857308 2.66755e-20)
(1.08196 -0.07595 5.02012e-20)
(1.06908 -0.0662701 -9.5799e-20)
(1.05528 -0.0563855 1.1925e-19)
(1.04015 -0.047219 0)
(1.0218 -0.0439544 -9.64704e-20)
(1.00153 -0.0487585 1.29059e-19)
(1.11461 -0.266931 -1.54622e-20)
(1.16137 -0.288036 -1.73582e-22)
(1.17944 -0.286881 -3.88596e-22)
(1.18494 -0.274054 -7.60312e-20)
(1.18505 -0.257381 0)
(1.18319 -0.239762 -1.85779e-20)
(1.18044 -0.222521 -1.55819e-20)
(1.17709 -0.206146 2.98679e-20)
(1.17319 -0.190781 -3.11511e-20)
(1.16869 -0.176418 -3.02873e-21)
(1.16352 -0.162984 0)
(1.1576 -0.15038 -2.89135e-20)
(1.15087 -0.138497 2.74771e-20)
(1.14326 -0.12723 0)
(1.13473 -0.116482 -7.77211e-20)
(1.12525 -0.106172 7.49567e-20)
(1.11478 -0.0962366 0)
(1.1033 -0.0866402 2.32057e-20)
(1.09077 -0.0773487 2.26358e-20)
(1.07717 -0.0681959 -2.19575e-20)
(1.06253 -0.0588498 0)
(1.04648 -0.0501337 -2.12e-20)
(1.02732 -0.0472238 9.12157e-20)
(1.00545 -0.0536799 -6.66368e-20)
(1.10439 -0.278194 -8.08196e-21)
(1.15958 -0.296148 -1.27249e-20)
(1.18446 -0.292384 2.21499e-20)
(1.1941 -0.278071 1.3282e-20)
(1.19651 -0.260279 0)
(1.19583 -0.241739 -1.66209e-20)
(1.19364 -0.223697 4.80897e-20)
(1.19051 -0.206628 -1.75826e-20)
(1.1866 -0.190682 -1.35014e-20)
(1.18193 -0.175863 -2.93918e-20)
(1.17649 -0.162106 1.28162e-20)
(1.17023 -0.149313 0)
(1.16311 -0.137375 0)
(1.15509 -0.126179 0)
(1.14612 -0.115618 2.52514e-20)
(1.13618 -0.1056 -2.45349e-20)
(1.12523 -0.0960502 -1.10429e-20)
(1.11323 -0.0869205 2.17178e-20)
(1.10013 -0.0781714 -4.34798e-20)
(1.08589 -0.0696474 -4.25176e-20)
(1.0705 -0.0610007 4.13802e-20)
(1.05368 -0.0528446 3.10679e-20)
(1.03389 -0.0499935 0)
(1.01003 -0.0583821 -2.17578e-20)
(1.09393 -0.292702 0)
(1.15885 -0.307474 2.26915e-20)
(1.19064 -0.300657 0)
(1.20434 -0.28422 2.51177e-21)
(1.20896 -0.264771 -1.42001e-20)
(1.20942 -0.244868 -7.3006e-21)
(1.20777 -0.225653 6.68673e-21)
(1.20481 -0.207577 -2.7583e-20)
(1.20083 -0.190782 2.74176e-20)
(1.19595 -0.175276 -2.50711e-20)
(1.19017 -0.160996 2.30446e-20)
(1.18351 -0.147846 -1.17858e-20)
(1.17595 -0.135708 0)
(1.16746 -0.124462 0)
(1.15804 -0.113988 0)
(1.14763 -0.10418 0)
(1.13621 -0.0949513 1.10814e-20)
(1.1237 -0.0862426 -2.09141e-20)
(1.11005 -0.078019 3.08048e-20)
(1.09518 -0.0701793 -2.93801e-20)
(1.07906 -0.0624404 -3.88632e-20)
(1.06166 -0.0550241 -2.03233e-20)
(1.04178 -0.0513091 2.91347e-20)
(1.01503 -0.062002 0)
(1.08316 -0.310461 1.35085e-21)
(1.15923 -0.321801 -2.56946e-20)
(1.19827 -0.311469 1.98036e-21)
(1.21602 -0.292331 1.23709e-20)
(1.22279 -0.27073 1.76465e-20)
(1.22432 -0.249051 3.11426e-21)
(1.22314 -0.228323 -2.85613e-21)
(1.22028 -0.208947 5.86214e-21)
(1.21616 -0.19105 6.6733e-21)
(1.21097 -0.174631 0)
(1.20477 -0.159626 -7.38159e-21)
(1.19761 -0.145934 -5.28085e-21)
(1.18953 -0.133431 0)
(1.18054 -0.121979 1.23118e-21)
(1.17061 -0.111444 -1.21313e-21)
(1.15972 -0.101699 0)
(1.14782 -0.0926388 0)
(1.13482 -0.0841875 9.71801e-21)
(1.12062 -0.0763071 4.40093e-22)
(1.10509 -0.0689791 8.46989e-21)
(1.08806 -0.0622197 0)
(1.06937 -0.0560423 2.56217e-20)
(1.04878 -0.0490198 -8.03929e-21)
(1.0243 -0.0622145 0)
(1.0719 -0.331434 1.30011e-20)
(1.16077 -0.338969 -3.32396e-22)
(1.20758 -0.324623 -1.99633e-21)
(1.22948 -0.302227 -5.13291e-21)
(1.23835 -0.278003 0)
(1.24087 -0.254166 -4.24014e-21)
(1.24006 -0.231615 -4.17223e-21)
(1.2372 -0.210683 -4.20199e-21)
(1.23284 -0.19146 0)
(1.22723 -0.173925 4.32997e-21)
(1.2205 -0.158004 -3.08392e-21)
(1.21276 -0.143586 4.40502e-21)
(1.20408 -0.130535 1.21267e-21)
(1.1945 -0.118699 -5.59612e-21)
(1.18404 -0.107919 8.94301e-23)
(1.17267 -0.098043 0)
(1.16033 -0.0889352 0)
(1.14693 -0.0804911 0)
(1.13229 -0.0726413 -4.1837e-21)
(1.11619 -0.0652956 -3.00869e-21)
(1.09825 -0.0582873 -4.06092e-21)
(1.07795 -0.0520209 1.07331e-21)
(1.05528 -0.0493992 0)
(1.03296 -0.0581926 0)
(1.05991 -0.355834 -1.51558e-20)
(1.16343 -0.358884 2.27429e-21)
(1.21872 -0.339922 0)
(1.245 -0.313718 5.20329e-21)
(1.25596 -0.286412 1.9515e-21)
(1.25936 -0.260059 2.54333e-21)
(1.2588 -0.235413 4.24457e-21)
(1.25583 -0.212715 4.27565e-21)
(1.25112 -0.19199 0)
(1.24499 -0.17318 -4.40717e-21)
(1.23763 -0.156184 4.45625e-21)
(1.22919 -0.140876 -4.48243e-21)
(1.21981 -0.12711 0)
(1.20957 -0.114721 4.46682e-21)
(1.19852 -0.103538 0)
(1.18665 -0.0933927 0)
(1.17392 -0.0841413 1.66662e-20)
(1.16019 -0.0756804 -1.59134e-20)
(1.14524 -0.0679486 4.19145e-21)
(1.12875 -0.0608459 4.11585e-21)
(1.11027 -0.0542374 1.97724e-20)
(1.08932 -0.0489936 -1.51794e-20)
(1.06594 -0.049099 1.5958e-20)
(1.0406 -0.0565766 -8.74536e-21)
(1.04688 -0.383996 0)
(1.1671 -0.381374 0)
(1.23174 -0.357078 0)
(1.26278 -0.326549 -5.42998e-21)
(1.27589 -0.295729 0)
(1.28005 -0.266523 5.3805e-21)
(1.27959 -0.239548 -6.49463e-21)
(1.27637 -0.214926 0)
(1.27119 -0.19259 0)
(1.26445 -0.172411 1.02483e-20)
(1.25637 -0.154243 -1.12236e-20)
(1.24716 -0.137932 0)
(1.23698 -0.123318 -2.00353e-21)
(1.22598 -0.110234 -1.40923e-20)
(1.21425 -0.0985072 1.40732e-20)
(1.20181 -0.0879748 1.50016e-20)
(1.18859 -0.0784998 -2.91865e-20)
(1.17443 -0.069996 6.26294e-22)
(1.15907 -0.0624216 0)
(1.14209 -0.0556962 0)
(1.12295 -0.0497341 -2.84241e-20)
(1.10118 -0.0455537 2.73232e-20)
(1.07682 -0.047182 0)
(1.04933 -0.0546925 -1.12494e-20)
(1.03243 -0.415739 -2.0883e-20)
(1.17148 -0.405843 0)
(1.24644 -0.375475 0)
(1.28288 -0.340277 6.05113e-21)
(1.29832 -0.305601 -3.71012e-21)
(1.30315 -0.273245 -5.47258e-21)
(1.3026 -0.243745 6.60283e-21)
(1.29895 -0.2171 0)
(1.29319 -0.193117 0)
(1.28577 -0.171562 -4.08825e-21)
(1.27693 -0.152214 2.18081e-20)
(1.2669 -0.13487 -8.76542e-22)
(1.25588 -0.119345 -1.28299e-20)
(1.24404 -0.105472 2.38856e-20)
(1.2315 -0.0930928 0)
(1.21833 -0.0820659 3.76004e-20)
(1.20446 -0.0722809 -2.47414e-20)
(1.18972 -0.0636775 3.99033e-20)
(1.17379 -0.0562362 -2.48652e-20)
(1.1562 -0.0498952 1.16975e-20)
(1.13632 -0.0445879 -1.15535e-20)
(1.11371 -0.0413671 1.17147e-20)
(1.0884 -0.0441079 0)
(1.05931 -0.0522582 0)
(1.01595 -0.449611 2.54098e-20)
(1.17583 -0.430996 8.63567e-22)
(1.26204 -0.393917 0)
(1.30492 -0.354069 0)
(1.32318 -0.315423 1.5704e-20)
(1.3287 -0.279716 1.9966e-21)
(1.32787 -0.247556 4.06058e-21)
(1.3236 -0.218845 -2.8559e-21)
(1.31712 -0.193251 -1.64188e-22)
(1.30894 -0.170406 -8.55988e-21)
(1.29936 -0.149979 6.90687e-21)
(1.28855 -0.131686 -9.88141e-21)
(1.27671 -0.115298 0)
(1.26401 -0.100633 -2.74003e-21)
(1.25061 -0.0875516 0)
(1.23656 -0.0759501 -1.16986e-20)
(1.22186 -0.0657633 2.24561e-20)
(1.20633 -0.0569715 1.35097e-21)
(1.18965 -0.0495849 -2.14418e-20)
(1.17134 -0.0435523 -1.17936e-20)
(1.15071 -0.0388219 -3.2986e-20)
(1.12728 -0.0364382 7.74329e-20)
(1.10113 -0.0401214 7.86532e-22)
(1.07068 -0.0492856 -4.4831e-20)
(0.998263 -0.482939 2.11638e-20)
(1.17817 -0.454301 -3.36648e-21)
(1.27649 -0.410559 3.26564e-20)
(1.32789 -0.36657 -1.02022e-20)
(1.35016 -0.324161 -1.14574e-20)
(1.3566 -0.285094 2.50738e-20)
(1.35532 -0.250249 1.86175e-21)
(1.35018 -0.219514 -4.35357e-21)
(1.34278 -0.192418 5.4207e-21)
(1.33377 -0.168452 2.17628e-21)
(1.32345 -0.147149 -6.22822e-21)
(1.31198 -0.128117 -1.97591e-21)
(1.29947 -0.111049 -8.64523e-21)
(1.28606 -0.0957253 3.86628e-21)
(1.27185 -0.0820063 0)
(1.2569 -0.069824 -1.77496e-20)
(1.24123 -0.059171 1.68255e-20)
(1.22471 -0.0500884 2.98306e-20)
(1.20709 -0.0426332 2.32144e-21)
(1.18791 -0.0367805 -2.78183e-20)
(1.16648 -0.0324945 -8.47611e-21)
(1.14228 -0.0307839 0)
(1.11536 -0.0352811 3.98782e-20)
(1.08372 -0.0456911 -3.94125e-20)
(0.986206 -0.515908 -9.51553e-20)
(1.17926 -0.471912 -2.32601e-20)
(1.28735 -0.422116 -1.26198e-20)
(1.34871 -0.375273 8.49031e-20)
(1.37713 -0.329953 6.94645e-20)
(1.38571 -0.28796 -3.8437e-20)
(1.38432 -0.250665 -2.28553e-20)
(1.37822 -0.2181 0)
(1.3697 -0.18972 -5.31157e-21)
(1.35973 -0.164887 -6.33121e-21)
(1.34867 -0.142998 -1.65946e-21)
(1.33665 -0.123539 4.55759e-21)
(1.32373 -0.106103 -6.06256e-21)
(1.3099 -0.0904017 5.36812e-21)
(1.29519 -0.0762657 -3.71175e-21)
(1.27956 -0.0636355 1.11834e-20)
(1.263 -0.0525503 0)
(1.24543 -0.0431225 3.91378e-20)
(1.22669 -0.0354785 2.45258e-21)
(1.20647 -0.0296596 -7.04352e-20)
(1.18415 -0.0256405 2.03389e-20)
(1.15918 -0.0244113 3.09163e-20)
(1.13154 -0.0295457 0)
(1.09887 -0.0413211 -3.97435e-21)
(0.97306 -0.553878 2.65488e-19)
(1.16981 -0.485108 0)
(1.29123 -0.426318 1.35562e-19)
(1.36589 -0.378874 -8.54266e-20)
(1.40197 -0.331161 2.52349e-20)
(1.41412 -0.286498 0)
(1.41341 -0.247123 1.94133e-20)
(1.40657 -0.213123 2.09467e-20)
(1.39691 -0.183853 0)
(1.38588 -0.158543 1.52892e-20)
(1.37405 -0.136459 -6.97467e-21)
(1.36159 -0.116969 -2.20631e-21)
(1.34848 -0.099565 2.00793e-21)
(1.33463 -0.0838802 -5.41192e-21)
(1.3199 -0.0696892 5.8967e-21)
(1.30414 -0.0569081 4.92026e-21)
(1.28716 -0.0455873 4.05829e-21)
(1.26883 -0.0358904 -1.10957e-20)
(1.24906 -0.0280272 0)
(1.22768 -0.0221249 -2.58604e-20)
(1.20434 -0.018217 1.01974e-20)
(1.17856 -0.0172582 1.19301e-20)
(1.15026 -0.0227914 0)
(1.11675 -0.0359678 -2.54946e-21)
(0.0407495 -0.00115977 7.82893e-19)
(0.0737542 -0.0441412 0)
(0.126605 -0.116871 4.08936e-21)
(0.167026 -0.167584 3.57989e-19)
(0.227477 -0.25117 -2.27105e-19)
(0.199155 -0.240986 -7.89566e-21)
(0.0471641 -0.0275073 0)
(0.0775644 -0.0802189 3.20333e-20)
(0.119947 -0.140325 -4.15346e-19)
(0.152092 -0.184625 -6.66086e-19)
(0.197207 -0.236449 -7.57955e-20)
(0.201931 -0.226315 6.61493e-20)
(0.0456104 -0.0451041 0)
(0.0721651 -0.0960577 0)
(0.105248 -0.146605 -4.16743e-19)
(0.130838 -0.183402 6.64233e-19)
(0.16313 -0.216452 2.82202e-19)
(0.18025 -0.210738 3.24497e-19)
(0.0392873 -0.0588276 0)
(0.0628383 -0.10456 0)
(0.0881107 -0.147269 3.42245e-19)
(0.107878 -0.177103 -6.70596e-19)
(0.132644 -0.197688 -1.31157e-19)
(0.155791 -0.192161 -3.71315e-19)
(0.0296614 -0.0683736 -7.32723e-19)
(0.0513281 -0.108131 0)
(0.0700358 -0.144195 3.74263e-19)
(0.0847311 -0.167792 5.36706e-19)
(0.103679 -0.180229 -2.6036e-19)
(0.126969 -0.174053 2.42561e-19)
(0.018083 -0.0744618 7.49724e-19)
(0.038369 -0.108219 -3.92513e-20)
(0.0514892 -0.138501 -5.77802e-19)
(0.0616227 -0.156633 -2.74338e-19)
(0.0754321 -0.163455 2.19287e-19)
(0.095629 -0.156375 -1.74964e-19)
(0.00583171 -0.0781924 -1.123e-20)
(0.0244704 -0.106069 -4.06915e-19)
(0.0327517 -0.131171 3.09256e-19)
(0.0386877 -0.144522 0)
(0.0477151 -0.147148 0)
(0.0632324 -0.139022 2.88446e-19)
(-0.00605404 -0.080271 -6.99959e-19)
(0.0101489 -0.102597 8.04846e-21)
(0.0141304 -0.12297 -3.25895e-19)
(0.0161775 -0.132093 0)
(0.020653 -0.131351 -2.42e-19)
(0.0309784 -0.12203 -5.54701e-20)
(-0.0169068 -0.0810055 7.31193e-19)
(-0.00409484 -0.0984064 -4.46243e-21)
(-0.00403248 -0.114438 2.61616e-19)
(-0.00562841 -0.119778 3.2215e-20)
(-0.00538803 -0.116201 2.36969e-19)
(-0.000246154 -0.105591 -2.21105e-19)
(-0.0263858 -0.0804645 -7.37759e-19)
(-0.0178378 -0.0938649 -4.04823e-21)
(-0.0214115 -0.10593 -3.00322e-19)
(-0.0263784 -0.107881 0)
(-0.030056 -0.101815 0)
(-0.0297583 -0.0899516 2.1889e-19)
(-0.0343768 -0.0786178 1.4535e-18)
(-0.0307605 -0.0891866 3.82576e-19)
(-0.0377369 -0.0976624 -2.12184e-20)
(-0.0458061 -0.0965647 -2.43716e-19)
(-0.0530255 -0.0883118 0)
(-0.0570394 -0.0753385 -2.70013e-19)
(-0.040913 -0.075443 -3.50943e-19)
(-0.0426234 -0.0844444 0)
(-0.0528017 -0.0897463 3.1605e-19)
(-0.0637151 -0.0859193 2.4201e-19)
(-0.0740454 -0.0757763 -1.16516e-19)
(-0.0817523 -0.0618768 0)
(-0.0460791 -0.0709559 -3.65132e-19)
(-0.0532468 -0.0796366 -1.80898e-19)
(-0.0664612 -0.082217 -9.26317e-21)
(-0.0799659 -0.0759778 0)
(-0.0929619 -0.0642328 8.66839e-20)
(-0.103727 -0.0496071 2.63823e-20)
(-0.0499849 -0.0651748 -1.7382e-20)
(-0.0625002 -0.074736 2.8436e-19)
(-0.0786254 -0.0750533 9.36198e-21)
(-0.0944864 -0.0667274 0)
(-0.109707 -0.0536642 0)
(-0.122922 -0.0384871 -2.67985e-20)
(-0.0527329 -0.058171 0)
(-0.0702908 -0.0696677 3.06423e-22)
(-0.0892541 -0.0681911 -7.70168e-20)
(-0.107266 -0.0581205 6.64398e-20)
(-0.124286 -0.0440204 0)
(-0.139397 -0.028403 0)
(-0.0543758 -0.050055 4.77247e-20)
(-0.0765618 -0.0643126 -9.9743e-20)
(-0.098355 -0.061532 9.81427e-20)
(-0.118348 -0.0500875 -6.75515e-20)
(-0.13676 -0.035235 1.49691e-20)
(-0.15325 -0.0192237 -6.81033e-21)
(-0.0548864 -0.0409668 -4.68184e-20)
(-0.0812878 -0.058512 1.19903e-21)
(-0.10598 -0.0549484 -2.08097e-20)
(-0.127821 -0.0425467 0)
(-0.147235 -0.0272467 -1.5254e-20)
(-0.164578 -0.0108362 0)
(-0.0541381 -0.0310518 0)
(-0.0844653 -0.0520615 -1.05364e-19)
(-0.112219 -0.0482878 5.30679e-21)
(-0.135811 -0.0354079 -1.35015e-20)
(-0.155859 -0.0200108 -5.51946e-20)
(-0.17352 -0.00313364 0)
(-0.0519077 -0.0204329 1.19566e-20)
(-0.0860975 -0.0446987 1.02933e-19)
(-0.117186 -0.0413722 -1.75077e-19)
(-0.142469 -0.0285703 0)
(-0.162827 -0.0135006 6.52653e-20)
(-0.180254 0.00394509 0)
(-0.0479158 -0.00917558 -3.80548e-19)
(-0.0861639 -0.0360945 -2.30996e-19)
(-0.120997 -0.0340062 2.08189e-19)
(-0.147945 -0.0219048 -1.9389e-20)
(-0.168345 -0.00768684 1.36966e-19)
(-0.184951 0.0103748 0)
(-0.0419749 0.00265739 3.84521e-19)
(-0.0845437 -0.025881 2.3105e-19)
(-0.123712 -0.0259638 1.21855e-20)
(-0.152304 -0.0152792 -4.23393e-20)
(-0.17257 -0.00244653 -1.09264e-19)
(-0.187743 0.016079 -1.26944e-19)
(-0.0342162 0.0144484 7.8501e-19)
(-0.0807509 -0.0137552 -3.39571e-20)
(-0.125112 -0.0171104 5.35579e-20)
(-0.155296 -0.00850723 -4.28098e-19)
(-0.17539 0.00278411 3.84553e-20)
(-0.188798 0.021348 2.08609e-19)
(-0.0248922 0.0252837 -8.28652e-19)
(-0.0731054 0.00104958 -3.736e-20)
(-0.123969 -0.00676744 -4.98219e-19)
(-0.155628 -0.000417828 4.37868e-19)
(-0.175679 0.0100704 -3.33764e-19)
(-0.18647 0.0281724 7.9458e-20)
(-0.0136735 0.0354868 8.61818e-19)
(-0.0556673 0.024694 4.00883e-20)
(-0.11593 0.0132087 3.25597e-20)
(-0.150424 0.0164085 -5.18573e-20)
(-0.165979 0.0171655 -2.33967e-22)
(-0.161566 0.0362376 0)
(0.77241 -0.368474 -4.83826e-19)
(1.11736 -0.445683 -4.64467e-20)
(1.27885 -0.416587 -2.70772e-19)
(1.37108 -0.370243 -6.23777e-20)
(1.42101 -0.325362 -3.91692e-20)
(1.43921 -0.279169 9.91932e-20)
(1.44046 -0.238015 -4.62087e-20)
(1.43344 -0.202983 -2.86966e-20)
(1.42281 -0.173315 0)
(1.41075 -0.148032 8.43516e-21)
(1.39815 -0.126242 4.66115e-20)
(1.3853 -0.10719 -1.61239e-20)
(1.37219 -0.0902736 0)
(1.35866 -0.0750503 -1.84798e-21)
(1.34445 -0.0612367 3.20617e-21)
(1.32925 -0.0487074 0)
(1.31269 -0.0374934 -4.0661e-21)
(1.29441 -0.0277703 -1.53526e-20)
(1.27421 -0.0198083 1.15906e-20)
(1.25197 -0.0138291 2.23982e-21)
(1.2276 -0.00995661 -2.7889e-20)
(1.20099 -0.00908853 -6.89001e-20)
(1.17211 -0.0147543 1.04475e-19)
(1.13806 -0.0292865 -6.09437e-20)
(0.452595 -0.188369 5.16209e-19)
(0.92902 -0.330248 -2.00284e-19)
(1.21248 -0.373195 1.81781e-19)
(1.35376 -0.351381 7.89883e-20)
(1.42534 -0.307391 -7.22427e-20)
(1.45669 -0.263909 -1.00478e-19)
(1.46254 -0.221936 7.84365e-20)
(1.45638 -0.18619 -6.13609e-20)
(1.44519 -0.15662 1.02888e-19)
(1.43228 -0.131947 -1.10132e-19)
(1.41902 -0.111022 8.05421e-21)
(1.40589 -0.0929391 -2.36156e-20)
(1.39291 -0.0770002 5.34896e-20)
(1.37994 -0.0626974 -3.08863e-20)
(1.36665 -0.0496985 2.79147e-21)
(1.35263 -0.0378399 -4.05027e-21)
(1.33737 -0.0271238 -2.59514e-21)
(1.32029 -0.0177134 1.9944e-21)
(1.30085 -0.00990388 1.72948e-20)
(1.27876 -0.00400184 -5.68253e-21)
(1.25392 -0.00020668 1.5476e-20)
(1.22666 0.00063004 9.68077e-21)
(1.1974 -0.00490906 -1.11785e-20)
(1.16333 -0.0206735 8.2147e-21)
(0.321186 -0.159677 -4.28881e-19)
(0.639379 -0.210189 6.26839e-19)
(1.0147 -0.282055 0)
(1.27261 -0.304395 2.19163e-19)
(1.39933 -0.278186 -1.02883e-19)
(1.45568 -0.23586 1.39996e-19)
(1.47407 -0.19627 -5.85715e-20)
(1.47168 -0.16105 0)
(1.46106 -0.132244 0)
(1.44782 -0.108908 -9.67754e-20)
(1.4342 -0.0895442 4.07613e-20)
(1.42097 -0.0730448 5.29129e-20)
(1.40831 -0.0586166 1.65644e-20)
(1.39608 -0.0457002 -2.68167e-20)
(1.38396 -0.0339331 2.04953e-20)
(1.37152 -0.0231293 0)
(1.35819 -0.0132696 0)
(1.34327 -0.00449991 0)
(1.326 0.0028812 7.7794e-21)
(1.30567 0.00850357 1.88333e-20)
(1.28184 0.0120757 -5.06525e-20)
(1.25479 0.0128402 -5.59131e-21)
(1.22564 0.00759527 -3.90058e-21)
(1.19244 -0.00920248 3.07494e-20)
(0.251212 -0.153551 3.82503e-19)
(0.454734 -0.157683 -2.84203e-19)
(0.74941 -0.188751 4.10993e-19)
(1.06266 -0.219482 -3.3956e-19)
(1.30013 -0.222935 6.71955e-20)
(1.41551 -0.19336 -2.36035e-19)