/*--------------------------------*- C++ -*----------------------------------*\
  =========                 |
  \\      /  F ield         | OpenFOAM: The Open Source CFD Toolbox
   \\    /   O peration     | Website:  https://openfoam.org
    \\  /    A nd           | Version:  11
     \\/     M anipulation  |
\*---------------------------------------------------------------------------*/
FoamFile
{
    format      ascii;
    class       volScalarField;
    location    "0.62";
    object      epsilon;
}
// * * * * * * * * * * * * * * * * * * * * * * * * * * * * * * * * * * * * * //

dimensions      [0 2 -3 0 0 0 0];

internalField   nonuniform List<scalar> 
2880
(
1.96943
2.69602
4.65021
6.13624
6.62272
26.8435
0.876348
1.61314
2.60769
3.48532
4.37821
6.27258
0.240291
1.36041
2.07296
2.77166
3.5732
4.44159
0.263905
1.26814
1.85771
2.48594
3.23168
4.05268
1.19216
1.22568
1.74494
2.35115
3.10897
3.99918
1.34711
1.20281
1.67657
2.28395
3.08525
4.08265
1.49186
1.18972
1.62955
2.2491
3.11059
4.23202
1.6102
1.18
1.59214
2.22814
3.15881
4.41541
1.69726
1.16998
1.55743
2.20987
3.21402
4.6123
1.75171
1.15744
1.52099
2.1869
3.26641
4.81812
1.77285
1.14116
1.47993
2.15408
3.30916
5.02857
1.76635
1.12074
1.43243
2.10772
3.33737
5.24375
1.72827
1.09679
1.37756
2.04518
3.34701
5.465
1.67279
1.07156
1.31504
1.96469
3.33372
5.69123
1.59889
1.04223
1.24599
1.86613
3.29067
5.91926
1.50565
1.00509
1.17103
1.75061
3.21333
6.14102
1.39199
0.954657
1.09041
1.62022
3.09725
6.3407
1.25138
0.882368
1.0047
1.47871
2.93824
6.49531
1.18706
0.777008
0.917706
1.33237
2.73198
6.57463
0.269744
0.681552
0.841689
1.18956
2.47855
6.54491
0.253322
0.638092
0.796204
1.06612
2.18845
6.38101
0.231212
0.665058
0.814009
0.998147
1.89484
6.06889
0.866317
0.899135
1.00201
1.08511
1.69305
5.60832
2.06841
2.1931
2.23235
2.0025
2.22436
5.35062
4.17518
4.03442
4.56276
5.09676
5.42988
5.42142
5.18271
4.70304
4.03998
3.29981
2.57737
1.94654
1.44676
1.08135
0.825762
0.647099
0.517892
0.421007
0.347776
0.294298
0.257683
0.23574
0.227287
0.22952
4.32569
4.65669
5.29856
5.75143
5.78857
5.5267
4.95433
4.15987
3.31107
2.52391
1.87219
1.37957
1.03006
0.786524
0.613046
0.484322
0.386159
0.311393
0.256274
0.217954
0.193436
0.180344
0.177111
0.180351
4.50875
5.23082
5.9099
6.10144
5.87181
5.25618
4.33657
3.37952
2.52792
1.85297
1.35965
1.0139
0.770386
0.593357
0.46033
0.35902
0.282511
0.226262
0.186786
0.160798
0.145357
0.13826
0.137996
0.141631
4.76053
5.72858
6.29025
6.18757
5.6354
4.6182
3.54824
2.61899
1.90432
1.39187
1.03253
0.776078
0.587622
0.446327
0.340158
0.261265
0.203842
0.163341
0.136139
0.119102
0.109782
0.106414
0.107404
0.111286
5.04943
6.12638
6.41525
6.04464
5.05497
3.85723
2.82311
2.03955
1.48187
1.08889
0.806264
0.598553
0.444522
0.330834
0.247927
0.188425
0.146615
0.118145
0.0997202
0.0887207
0.0832652
0.0820124
0.0835604
0.0873164
5.35758
6.40984
6.38557
5.64949
4.34494
3.17183
2.278
1.64147
1.19137
0.86738
0.630782
0.457746
0.332338
0.242669
0.179469
0.135587
0.105687
0.0859053
0.0734835
0.0664014
0.0632794
0.0631267
0.0648573
0.068236
5.67519
6.54374
6.21208
5.06585
3.71212
2.65169
1.89259
1.35553
0.970225
0.691267
0.490031
0.346708
0.24627
0.176957
0.129714
0.0978529
0.0766532
0.0629009
0.0544442
0.0498101
0.0480216
0.0483083
0.0500418
0.052903
5.99823
6.57579
5.93037
4.49447
3.20981
2.27134
1.60641
1.13154
0.790649
0.547752
0.377521
0.260546
0.181588
0.128962
0.0941202
0.0711297
0.0560556
0.046369
0.0404652
0.0373004
0.0361963
0.0365923
0.0381392
0.0405034
6.32268
6.55606
5.5779
4.02978
2.83462
1.98293
1.37748
0.94596
0.641489
0.430982
0.288885
0.195016
0.133927
0.0944213
0.0688405
0.0521938
0.0413447
0.0343659
0.0300832
0.0277671
0.0269527
0.0272712
0.0285007
0.030405
6.62939
6.513
5.2089
3.66921
2.54587
1.74949
1.18473
0.788735
0.517592
0.337199
0.220337
0.146064
0.0992654
0.0697185
0.0508749
0.0386952
0.0307437
0.02557
0.0223149
0.0204663
0.0197061
0.0198239
0.0206689
0.0221437
6.90654
6.47854
4.88265
3.38455
2.31111
1.55061
1.01812
0.655026
0.415701
0.263073
0.168169
0.109939
0.0742155
0.0520521
0.0380423
0.0289951
0.0230422
0.0190904
0.0165006
0.0149003
0.0140704
0.0138955
0.0143255
0.0153639
7.16187
6.43267
4.6292
3.16205
2.11362
1.37678
0.873193
0.542118
0.333034
0.205332
0.128932
0.0834546
0.0561244
0.0393626
0.0288071
0.0219684
0.0174166
0.0143195
0.0121883
0.010736
0.00979646
0.00928933
0.00924179
0.0097749
7.41003
6.38452
4.4462
2.98237
1.94074
1.22221
0.747185
0.447696
0.26681
0.160858
0.0996223
0.0640629
0.0430095
0.0301825
0.022106
0.0168446
0.0132993
0.0108296
0.0090515
0.00773008
0.00671862
0.00592395
0.00528657
0.00500866
7.66804
6.35106
4.32362
2.83161
1.78553
1.08412
0.638349
0.369597
0.214325
0.126848
0.0777713
0.049818
0.0334338
0.023482
0.0172038
0.0130897
0.0102889
0.00830398
0.00683096
0.0056737
0.00469659
0.00380041
0.00287732
0.00158051
7.95121
6.35974
4.23579
2.69929
1.6441
0.960918
0.545109
0.305623
0.17304
0.100915
0.0614405
0.0392793
0.0263715
0.0185378
0.0135829
0.0103206
0.00808561
0.00648918
0.00529294
0.00434105
0.00352206
0.00275401
0.00198402
0.00104518
8.27154
6.42121
4.17732
2.58046
1.51436
0.851398
0.465833
0.253602
0.140692
0.0811179
0.0491578
0.0314008
0.0210948
0.014837
0.0108693
0.00824868
0.00644775
0.0051584
0.00419201
0.0034254
0.00277029
0.00216188
0.00155983
0.000883276
8.64256
6.53493
4.14165
2.4712
1.39487
0.754424
0.398848
0.211508
0.115367
0.0659344
0.0398336
0.0254353
0.0170916
0.0120195
0.00879686
0.00666418
0.00519646
0.00414498
0.00335721
0.0027335
0.00220295
0.00171647
0.00125117
0.000764079
9.08438
6.70776
4.12248
2.36817
1.28429
0.668784
0.3425
0.177539
0.0955025
0.054202
0.0326746
0.0208547
0.0140067
0.0098377
0.00718503
0.00542814
0.00421923
0.00335426
0.00270795
0.00219864
0.00176902
0.00138195
0.00102425
0.000671747
9.6292
6.94412
4.11221
2.26808
1.18138
0.593291
0.295267
0.150074
0.0798228
0.0450465
0.0271099
0.0172883
0.011594
0.00812297
0.00591307
0.00445038
0.00344601
0.00273005
0.00219813
0.00178256
0.00143657
0.00113132
0.000858135
0.000601288
10.3281
7.24557
4.10067
2.16723
1.08488
0.526906
0.255521
0.127697
0.0673133
0.0378225
0.0227303
0.0144744
0.00968216
0.00675848
0.00489812
0.00366964
0.00282964
0.0022346
0.00179639
0.00145808
0.00118091
0.000941786
0.000734167
0.000547009
11.2613
7.60571
4.07365
2.06112
0.993979
0.467966
0.221777
0.109301
0.0572311
0.032061
0.0192422
0.0122273
0.00814985
0.00566191
0.00408178
0.0030426
0.00233652
0.0018407
0.00147975
0.00120518
0.000984339
0.000798211
0.000641253
0.000505211
12.5567
7.9408
4.01074
1.9459
0.906519
0.414953
0.192851
0.0940393
0.0490226
0.0274151
0.0164327
0.0104136
0.00691021
0.00477406
0.00342173
0.00253748
0.00194164
0.00152781
0.00123074
0.00100861
0.00083355
0.000689527
0.00057151
0.000473071
14.4303
8.19396
3.88753
1.81557
0.820299
0.36662
0.167818
0.0812663
0.0422786
0.0236284
0.0141473
0.00893656
0.0059
0.00405141
0.00288638
0.00213013
0.00162563
0.00127975
0.00103542
0.000856247
0.000718155
0.00060737
0.00051917
0.000448382
17.1896
8.2945
3.66575
1.66265
0.733831
0.322164
0.146016
0.070503
0.0366943
0.0205173
0.0122734
0.00772535
0.00507242
0.00346131
0.00245162
0.00180177
0.00137319
0.00108362
0.000882741
0.000738577
0.000630147
0.000545446
0.000479965
0.000429427
2.99516
8.82096
11.4705
12.3868
10.7726
53.7243
1.12411
4.17483
5.71969
7.00401
10.0776
17.6647
1.64292
3.21424
4.28896
5.40122
7.32374
10.3632
2.28049
2.87653
3.69108
4.65071
5.99813
7.5295
2.87908
2.73955
3.37666
4.20717
5.22132
6.09789
3.42266
2.68781
3.18934
3.90894
4.69803
5.22562
3.90134
2.67568
3.06815
3.69352
4.31994
4.63523
4.30134
2.68019
2.98449
3.53183
4.03639
4.21413
4.61672
2.68851
2.92341
3.40849
3.82096
3.90781
4.84582
2.69335
2.87672
3.31459
3.65967
3.68652
4.98919
2.69075
2.83995
3.24504
3.54491
3.53333
5.04837
2.67893
2.81092
3.19774
3.47241
3.439
5.02603
2.65747
2.78882
3.17172
3.43962
3.40028
4.92241
2.6269
2.77371
3.16664
3.44572
3.41545
4.7396
2.58843
2.76634
3.18347
3.49263
3.48842
4.4786
2.54406
2.7684
3.22382
3.58558
3.62863
4.14052
2.4969
2.78287
3.29135
3.73111
3.85186
3.72739
2.45195
2.81532
3.39249
3.9397
4.18738
3.24344
2.41775
2.87628
3.53894
4.23051
4.68951
2.69708
2.41009
2.98665
3.75313
4.64112
5.46705
2.10371
2.46184
3.19277
4.08534
5.24589
6.77859
1.48943
2.66066
3.61523
4.67002
6.19963
9.40149
1.0395
3.3375
4.69434
5.97785
7.86044
16.1255
2.48905
6.9831
9.36742
10.7458
10.9187
48.643
19.4739
7.49537
3.30816
1.48682
0.647728
0.281408
0.12703
0.0614044
0.0320444
0.0179487
0.0107279
0.00672717
0.00439225
0.00297877
0.00209865
0.00153754
0.00117209
0.000929101
0.000763861
0.000648086
0.000563321
0.000498965
0.000450682
0.000414885
11.8198
5.98079
2.86882
1.30244
0.565237
0.244726
0.110625
0.053723
0.0281635
0.0158207
0.0094482
0.00590213
0.00383248
0.00258431
0.00181258
0.0013255
0.00101247
0.000807869
0.000671734
0.000578851
0.000512845
0.000464251
0.000428899
0.000403759
8.54047
4.92181
2.4723
1.13002
0.490272
0.212587
0.0966347
0.0472698
0.0249256
0.014052
0.00838605
0.00521949
0.00337199
0.00226242
0.00158139
0.00115598
0.000886332
0.000713248
0.00060075
0.000526199
0.000474952
0.000438482
0.000412798
0.00039531
6.72149
4.13658
2.13023
0.977195
0.42479
0.185121
0.0848639
0.0418814
0.0222293
0.0125816
0.00750439
0.00465523
0.002994
0.00200059
0.00139531
0.00102112
0.000787225
0.00063988
0.000546456
0.000486458
0.000446706
0.000419494
0.000401019
0.000388994
5.54739
3.53229
1.84221
0.846714
0.36933
0.162129
0.0750796
0.0374104
0.0199911
0.0113611
0.00677407
0.00419022
0.00268495
0.00178861
0.00124635
0.000914487
0.000709913
0.000583471
0.00050532
0.000456746
0.000425818
0.000405591
0.000392515
0.000384362
4.73667
3.06361
1.60503
0.738333
0.323427
0.143191
0.0670295
0.0337242
0.0181417
0.0103521
0.00617185
0.0038091
0.00243387
0.0016182
0.00112801
0.000830873
0.000650168
0.000540571
0.000474538
0.000434818
0.000410551
0.000395492
0.000386408
0.000380988
4.15244
2.69847
1.41282
0.650076
0.286087
0.127794
0.0604668
0.0307065
0.0166232
0.00952336
0.005679
0.00349949
0.0022319
0.0014827
0.0010351
0.000766155
0.000604663
0.000508478
0.000451931
0.000418981
0.000399664
0.000388325
0.000382028
0.000378549
3.72108
2.4143
1.25925
0.579375
0.256153
0.115421
0.0551674
0.0282578
0.0153882
0.00884949
0.0052804
0.00325141
0.002072
0.00137686
0.000963611
0.000717176
0.000570871
0.000485142
0.000435838
0.000407921
0.000392192
0.000383481
0.000379064
0.000376893
3.40117
2.19527
1.13857
0.523689
0.232514
0.105605
0.0509368
0.026294
0.0143988
0.00831006
0.00496376
0.00305681
0.00194851
0.00129656
0.000910419
0.000681529
0.000546888
0.000469027
0.000425016
0.000400646
0.000387355
0.000380505
0.000377283
0.000375874
3.16771
2.03014
1.04593
0.480765
0.214198
0.0979472
0.0476116
0.0247435
0.0136268
0.00788836
0.00471907
0.00290917
0.0018569
0.00123851
0.000873079
0.00065734
0.000531242
0.000458965
0.000418547
0.000396448
0.000384703
0.000378903
0.000376334
0.00037533
3.00517
1.91095
0.977406
0.448743
0.200406
0.0921259
0.0450645
0.0235533
0.0130376
0.00756994
0.00453815
0.00280321
0.00179356
0.00120012
0.000849673
0.000643152
0.000522803
0.000454072
0.000415772
0.000394878
0.00038386
0.000378446
0.000376052
0.000375159
2.90426
1.8323
0.930048
0.426175
0.190509
0.0878862
0.0431919
0.0226775
0.0126082
0.00734334
0.00441442
0.00273474
0.00175566
0.00117943
0.000838778
0.00063793
0.000520794
0.000453705
0.000416211
0.000395584
0.000384441
0.000378828
0.000376229
0.000375181
2.86095
1.79101
0.901818
0.412013
0.184038
0.0850332
0.0419127
0.02208
0.0123214
0.00719948
0.00434264
0.00270054
0.00174118
0.00117508
0.000839344
0.000640481
0.000524108
0.000457379
0.000419553
0.000398338
0.000386536
0.000380126
0.000376889
0.000375348
2.8737
1.7859
0.891568
0.405581
0.180667
0.0834241
0.0411652
0.0217328
0.0121637
0.00713119
0.00431878
0.00269808
0.00174785
0.00118482
0.000849446
0.000650427
0.000533287
0.000465043
0.000425706
0.000403064
0.000389958
0.00038237
0.000378055
0.000375678
2.94667
1.81786
0.89903
0.406552
0.180192
0.0829594
0.0409034
0.0216141
0.0121243
0.00713234
0.00433806
0.00272348
0.0017735
0.0012083
0.000870561
0.000668429
0.000547914
0.000476657
0.000434695
0.000409804
0.000394764
0.000385491
0.000379747
0.000376221
3.08846
1.89009
0.92486
0.41492
0.182517
0.0835742
0.0410929
0.0217057
0.0121926
0.0071961
0.00439753
0.00277646
0.0018192
0.00124715
0.000902507
0.000694033
0.000568151
0.000492391
0.000446698
0.000418729
0.000401106
0.000389622
0.000382026
0.000377007
3.31421
2.00832
0.970759
0.430996
0.187635
0.0852282
0.0417071
0.021994
0.0123631
0.00732155
0.00449745
0.00285776
0.00188551
0.00130057
0.000944956
0.000727527
0.000594312
0.000512558
0.000462003
0.00043009
0.000409195
0.000394936
0.000385033
0.000378127
3.64886
2.18127
1.03986
0.455367
0.195599
0.0878955
0.042722
0.0224641
0.0126268
0.00750312
0.00463534
0.00296612
0.00197118
0.00136821
0.000998267
0.000769348
0.000626857
0.000537603
0.000481011
0.000444227
0.000419313
0.000401667
0.000388951
0.000379701
4.1335
2.4231
1.1353
0.488742
0.206484
0.0915496
0.0441117
0.0231006
0.0129753
0.00773585
0.00480758
0.00309916
0.00207546
0.00145029
0.00106288
0.00082005
0.000666376
0.000568099
0.00050424
0.000461585
0.000431827
0.000410106
0.000394004
0.000381865
4.8391
2.75466
1.26132
0.531861
0.22032
0.0961389
0.0458392
0.0238832
0.0133988
0.00801417
0.00501128
0.00325565
0.00219802
0.00154695
0.00113925
0.000880251
0.000713554
0.000604729
0.000532322
0.000482709
0.000447181
0.000420598
0.000400442
0.000384766
5.89623
3.20727
1.42264
0.585149
0.236965
0.101549
0.0478448
0.0247828
0.0138871
0.00833149
0.00524283
0.00343382
0.00233819
0.00165819
0.00122774
0.000950547
0.000769103
0.000648239
0.000565973
0.00050824
0.00046591
0.00043356
0.000408556
0.000388581
7.54711
3.82892
1.62259
0.647926
0.255883
0.107547
0.0500345
0.0257601
0.0144235
0.00867947
0.00549779
0.00363138
0.00249492
0.0017837
0.00132855
0.00103142
0.000833679
0.000699371
0.000605951
0.000538897
0.000488652
0.000449503
0.000418629
0.00039347
10.4644
4.70409
1.85927
0.71694
0.275804
0.113715
0.0522697
0.0267646
0.0149836
0.00904799
0.00577105
0.0038456
0.00266684
0.00192296
0.00144167
0.00112324
0.000907896
0.000758892
0.000653105
0.000575534
0.000516172
0.000468961
0.000430832
0.000399499
17.2072
5.8934
2.10928
0.783516
0.294344
0.11942
0.0543691
0.0277361
0.0155432
0.00942677
0.00605745
0.00407368
0.00285247
0.00207533
0.00156708
0.00122637
0.000992382
0.000827599
0.0007083
0.000618989
0.000549181
0.000492468
0.000445615
0.000406809
2.9577
2.34521
2.16825
2.07613
2.55553
6.06598
1.03405
1.24587
1.32221
1.55279
3.26444
9.46569
1.31367
1.27449
1.37878
1.93278
4.66943
10.2218
1.67633
1.4643
1.61845
2.52322
5.91512
10.1528
1.98513
1.64657
1.90112
3.14869
6.68377
9.71947
2.25041
1.80468
2.18848
3.71653
7.00464
8.99467
2.48199
1.94411
2.46472
4.17766
7.01149
8.22022
2.68465
2.06807
2.71958
4.51414
6.84367
7.48204
2.85946
2.17767
2.94407
4.72295
6.55682
6.81706
3.00645
2.27305
3.12958
4.82064
6.24814
6.23635
3.12599
2.35464
3.27171
4.83898
5.95679
5.73809
3.21941
2.42226
3.3716
4.80706
5.69234
5.32416
3.27505
2.47091
3.43578
4.74516
5.46141
4.99267
3.27946
2.49745
3.47082
4.6687
5.2688
4.74006
3.23611
2.50548
3.48212
4.59167
5.1184
4.56438
3.13864
2.50202
3.47778
4.52514
5.01358
4.46786
2.9867
2.49582
3.46804
4.47964
4.96172
4.45789
2.77798
2.49722
3.46577
4.46649
4.9709
4.51989
2.50921
2.52509
3.48856
4.49392
5.03918
4.68125
2.17639
2.60779
3.56481
4.57872
5.19769
4.95044
1.77579
2.78133
3.74622
4.76717
5.46799
5.37564
1.30465
3.13371
4.16315
5.16184
5.90384
6.18474
0.938581
3.99553
5.28557
6.16495
6.70749
8.21145
2.83496
7.15304
9.98719
10.5692
9.28364
6.22236
15.4788
6.11992
2.24735
0.829029
0.308189
0.123987
0.0561668
0.0286233
0.0160828
0.00980733
0.00635261
0.00431317
0.0030505
0.00224027
0.00170476
0.0013412
0.00108782
0.000906359
0.000772495
0.00067022
0.000588557
0.000520757
0.000463525
0.000415616
12.8648
5.79527
2.23809
0.840569
0.315173
0.127028
0.0575805
0.0294023
0.0165927
0.0101849
0.00665376
0.00456242
0.00326002
0.00241746
0.00185484
0.00146823
0.00119496
0.000996089
0.000846712
0.000730292
0.000635339
0.000554761
0.000485293
0.000426223
10.8469
5.26503
2.15171
0.827706
0.315437
0.128555
0.0586157
0.0300762
0.0170738
0.0105588
0.00696013
0.00482077
0.00348067
0.00260684
0.00201762
0.00160801
0.00131461
0.0010978
0.0009321
0.000800433
0.000690766
0.000595623
0.000511826
0.000439007
9.2654
4.64094
2.03038
0.800923
0.31194
0.128921
0.0593537
0.0306703
0.0175353
0.0109323
0.00727275
0.00508857
0.00371265
0.00280872
0.00219356
0.00176125
0.00144767
0.00121258
0.0010299
0.000882009
0.000756274
0.00064477
0.000544361
0.000454498
7.97723
4.08777
1.87723
0.766912
0.306
0.128644
0.0599105
0.0312195
0.0179906
0.0113106
0.00759408
0.00536709
0.00395672
0.00302371
0.00238332
0.00192873
0.00159511
0.00134159
0.00114149
0.000976571
0.000833516
0.000703828
0.00058436
0.000473425
6.91737
3.61017
1.70951
0.729536
0.298594
0.128004
0.0603793
0.0317585
0.0184546
0.0117008
0.00792785
0.00565853
0.00421437
0.00325298
0.00258797
0.00211154
0.00175813
0.00148619
0.00126843
0.00108587
0.000924406
0.000774707
0.000633305
0.000496538
6.04492
3.20623
1.55917
0.690378
0.290623
0.127218
0.0608392
0.0323193
0.0189439
0.0121114
0.0082791
0.00596621
0.00448804
0.00349853
0.00280932
0.00231144
0.0019385
0.00164826
0.00141269
0.00121203
0.00103117
0.000859611
0.000693055
0.000524704
5.32951
2.86897
1.4285
0.652253
0.282873
0.126508
0.0613626
0.0329322
0.0194767
0.0125525
0.00865446
0.00629497
0.0047816
0.00376371
0.00305046
0.0025314
0.00213917
0.00183071
0.00157721
0.001358
0.00115677
0.000961439
0.00076615
0.000559096
4.74597
2.59069
1.31714
0.617528
0.276023
0.126101
0.0620331
0.0336366
0.0200707
0.0130365
0.00906273
0.00665162
0.0051008
0.00405377
0.00331643
0.00277644
0.00236517
0.00203859
0.00176695
0.00152858
0.00130582
0.00108461
0.000856489
0.000601382
4.27342
2.36388
1.22456
0.587884
0.270681
0.126137
0.0629458
0.0344811
0.0207513
0.0135798
0.00951579
0.00704559
0.00545386
0.00437645
0.003615
0.00305463
0.00262504
0.00228089
0.00199123
0.0017331
0.00148734
0.00123768
0.000971677
0.000654715
3.89493
2.18182
1.14984
0.564408
0.267348
0.12696
0.0642247
0.0355293
0.0215541
0.0142049
0.0100296
0.0074895
0.00585178
0.00474231
0.0039571
0.00337797
0.00293239
0.00257326
0.00226797
0.00199174
0.00172331
0.00144357
0.00113374
0.000731989
3.59729
2.03925
1.09186
0.547784
0.266195
0.128967
0.0661034
0.0368891
0.0225313
0.014943
0.0106256
0.00799981
0.00630864
0.00516463
0.00435652
0.00376198
0.0033059
0.00293928
0.0026279
0.00234549
0.00206896
0.00177528
0.00143547
0.000943396
3.37033
1.93216
1.05042
0.540482
0.267548
0.132314
0.0687218
0.03866
0.0237474
0.0158352
0.011332
0.00859789
0.00684195
0.00565903
0.0048285
0.0042231
0.0037652
0.0034049
0.00310865
0.00285343
0.00262419
0.0024185
0.00226849
0.00227254
3.20767
1.85815
1.02369
0.538417
0.272251
0.137354
0.0722947
0.0409702
0.0252838
0.0169353
0.012187
0.00931222
0.00747445
0.00624469
0.0053902
0.0047778
0.00432771
0.00399066
0.00373647
0.00354815
0.00341911
0.00335758
0.00340474
0.00361539
3.10529
1.81694
1.01554
0.543334
0.280886
0.14455
0.0770857
0.0439891
0.0272523
0.0183181
0.0132432
0.0101828
0.00823812
0.00694844
0.00606497
0.00544711
0.00501287
0.00471447
0.00452609
0.00443668
0.00444466
0.00455273
0.00479648
0.00517666
3.06795
1.81037
1.02414
0.55761
0.294433
0.154491
0.083481
0.0479638
0.0298109
0.0200895
0.0145765
0.0112674
0.00917981
0.00780997
0.0068876
0.00626215
0.00584846
0.00560004
0.00549521
0.00552448
0.00568229
0.00598348
0.00643129
0.0069851
3.08643
1.84133
1.05378
0.583345
0.314335
0.16811
0.092062
0.0532572
0.0331919
0.0224051
0.0162981
0.0126514
0.0103687
0.00888805
0.00790946
0.00726833
0.00687435
0.00668138
0.00667114
0.00682129
0.00715532
0.00766126
0.00833108
0.00908853
3.18638
1.91841
1.10978
0.623935
0.34278
0.186808
0.10371
0.06042
0.0377467
0.0255003
0.0185762
0.014463
0.0119089
0.0102708
0.00920712
0.00853293
0.00814933
0.00800976
0.00808471
0.0083683
0.00888871
0.00961648
0.0105377
0.0115443
3.3788
2.05426
1.2008
0.684863
0.383193
0.212733
0.119778
0.0703107
0.0440273
0.0297443
0.0216731
0.0169018
0.0139613
0.0120941
0.0108988
0.0101598
0.0097646
0.00966389
0.00980844
0.0102213
0.0109274
0.0118918
0.0130984
0.0144117
3.68059
2.26591
1.34009
0.775047
0.441236
0.249447
0.142516
0.0843427
0.0529421
0.0357431
0.0260168
0.0202902
0.0167844
0.0145758
0.0131746
0.0123173
0.0118701
0.0117762
0.0119638
0.0124784
0.0133564
0.0145595
0.01608
0.0177669
4.11244
2.57132
1.5451
0.90795
0.525884
0.302635
0.175546
0.104865
0.0660184
0.044526
0.0323345
0.0251734
0.0208122
0.0180796
0.0163512
0.0152885
0.0147204
0.0145754
0.0147635
0.0153223
0.0163321
0.0177507
0.0195958
0.0217275
4.72589
2.98336
1.83269
1.10234
0.652847
0.383427
0.226111
0.136463
0.0861886
0.0580137
0.0419575
0.0325327
0.0268141
0.0232435
0.020981
0.019566
0.0187618
0.0184653
0.0185908
0.0191003
0.0201457
0.0217151
0.0238576
0.0265007
5.67877
3.51957
2.20508
1.36657
0.83513
0.504882
0.304838
0.186894
0.118835
0.0798983
0.057457
0.0442459
0.0362395
0.0312487
0.0280741
0.0260448
0.0248034
0.0241779
0.024119
0.0244677
0.0253635
0.0269459
0.0292849
0.0324807
7.43724
4.51745
2.7712
1.7518
1.10526
0.692116
0.431468
0.27077
0.174238
0.117339
0.0839168
0.064046
0.0519583
0.0444047
0.0395732
0.0364232
0.0343745
0.0331258
0.0325538
0.0326259
0.0331567
0.0344086
0.036712
0.0404215
1.98054
2.37749
2.85442
2.91734
2.71204
2.55709
0.868824
1.01009
1.25263
1.37754
1.41892
1.54444
0.232809
0.757458
0.958371
1.06395
1.13666
1.27742
0.255118
0.710813
0.870581
0.964191
1.04668
1.17847
0.270306
0.729377
0.84706
0.932557
1.01969
1.14352
1.18909
0.788756
0.84925
0.927981
1.0174
1.13633
1.3111
0.840195
0.863353
0.936337
1.02702
1.14154
1.443
0.877784
0.881031
0.950669
1.04154
1.15153
1.55342
0.904793
0.898609
0.967328
1.05725
1.16202
1.63972
0.923471
0.915042
0.984393
1.07236
1.17096
1.70227
0.936167
0.930381
1.00108
1.08628
1.17775
1.74245
0.945088
0.945109
1.01744
1.09928
1.18285
1.75731
0.951399
0.959783
1.03421
1.11234
1.18757
1.74525
0.955
0.975193
1.05254
1.12703
1.19402
1.70311
0.956008
0.992399
1.07404
1.14554
1.20503
1.63152
0.954825
1.01282
1.10089
1.17087
1.22444
1.53217
0.952241
1.03842
1.13608
1.20718
1.25744
1.40831
0.949515
1.07208
1.18398
1.26051
1.31142
1.26791
0.948438
1.11836
1.25143
1.34036
1.39791
0.280368
0.951111
1.18532
1.35032
1.46328
1.53684
0.263465
0.980725
1.28978
1.50451
1.66216
1.76803
0.239838
1.06705
1.47484
1.77314
2.01253
2.1898
0.884256
1.32232
1.90406
2.36322
2.75488
3.11311
1.95612
2.49618
3.6607
4.54066
5.15267
6.03048
5.39457
4.59396
3.25805
2.21519
1.47338
0.966944
0.631005
0.41274
0.273647
0.186768
0.133361
0.10066
0.0804539
0.0677276
0.0595328
0.0541279
0.0504765
0.04801
0.046429
0.0456206
0.0456437
0.0462536
0.0479254
0.0517258
3.05561
3.99454
3.55944
2.73134
1.9765
1.3778
0.94021
0.639079
0.43908
0.309235
0.22538
0.171328
0.136269
0.113197
0.0977157
0.0871293
0.0797365
0.0744934
0.0707685
0.068191
0.0665684
0.0659867
0.0665733
0.0693686
1.99782
3.11502
3.37184
3.13439
2.61844
2.04151
1.52528
1.10145
0.796178
0.583713
0.437123
0.336885
0.268053
0.220223
0.186431
0.162132
0.144356
0.131043
0.120799
0.112804
0.106661
0.102103
0.0991792
0.0998348
1.59682
2.41346
2.97844
3.13669
3.04114
2.77652
2.38532
1.98235
1.59699
1.25745
0.986297
0.788652
0.640863
0.528398
0.441688
0.374388
0.321888
0.28052
0.247584
0.221153
0.19989
0.18289
0.168885
0.16014
1.4362
2.00155
2.55182
2.9471
3.12659
3.13508
3.05563
2.88206
2.64124
2.38343
2.11755
1.85231
1.60666
1.38455
1.1861
1.01284
0.865457
0.739951
0.632944
0.542223
0.466237
0.403114
0.352636
0.306432
1.36643
1.78082
2.24081
2.65929
2.98317
3.18498
3.30768
3.34026
3.31671
3.25456
3.14173
2.99609
2.82853
2.64231
2.4419
2.22989
2.0097
1.78794
1.57098
1.3639
1.17328
0.99881
0.856203
0.702539
1.33585
1.6594
2.03598
2.41556
2.75922
3.04532
3.26953
3.43366
3.5482
3.615
3.63259
3.61622
3.56941
3.48271
3.3627
3.21511
3.04261
2.8491
2.63843
2.41369
2.18014
1.94084
1.71944
1.46665
1.32188
1.58631
1.89697
2.22429
2.54207
2.83223
3.0853
3.29725
3.46802
3.59648
3.68216
3.72737
3.73213
3.70579
3.64423
3.54531
3.42075
3.27433
3.11001
2.93198
2.74307
2.54715
2.35737
2.16846
1.3136
1.53522
1.79298
2.06822
2.34288
2.6027
2.83795
3.04245
3.2126
3.34605
3.44189
3.50056
3.52338
3.51486
3.47898
3.41231
3.32246
3.21354
3.0883
2.94968
2.80259
2.65456
2.51754
2.39961
1.30588
1.49302
1.70604
1.93213
2.15803
2.37238
2.56645
2.73396
2.87089
2.97495
3.04549
3.08371
3.09187
3.07441
3.03432
2.97507
2.90142
2.81764
2.72746
2.63455
2.54213
2.45632
2.3838
2.31982
1.29686
1.45397
1.62761
1.80816
1.98522
2.14959
2.29401
2.41316
2.50417
2.56601
2.59887
2.60644
2.59185
2.55968
2.51488
2.46068
2.40058
2.33988
2.28155
2.22742
2.17946
2.13882
2.10396
2.06304
1.2865
1.41665
1.55537
1.6949
1.82679
1.94368
2.04007
2.1125
2.1599
2.18264
2.18581
2.17255
2.14657
2.11466
2.08278
2.05702
2.04048
2.03094
2.02705
2.02613
2.02612
2.02381
2.01348
1.98834
1.2763
1.38241
1.49097
1.59543
1.68896
1.76605
1.82329
1.85905
1.87496
1.87598
1.86634
1.8525
1.84321
1.84399
1.85469
1.87434
1.90053
1.92986
1.95879
1.98616
2.01181
2.03443
2.05348
2.08577
1.26908
1.3545
1.4386
1.51565
1.58027
1.62892
1.65975
1.67433
1.67848
1.67861
1.68165
1.6939
1.71843
1.75234
1.79398
1.83975
1.88558
1.92786
1.96422
1.99188
2.0146
2.03144
2.05128
2.11754
1.26818
1.33785
1.40442
1.46334
1.51059
1.54443
1.56576
1.57927
1.59099
1.60732
1.63403
1.67459
1.72913
1.79466
1.86345
1.92603
1.97303
1.99683
1.9903
1.96628
1.92282
1.86447
1.81735
1.85843
1.27846
1.33795
1.3955
1.44725
1.4904
1.52485
1.55344
1.58169
1.61615
1.66309
1.72669
1.80693
1.89824
1.98979
2.06768
2.11821
2.13026
2.09239
2.00371
1.88779
1.74929
1.59564
1.43837
1.40071
1.30606
1.36241
1.42085
1.47796
1.53181
1.58347
1.63679
1.69747
1.77116
1.86173
1.96883
2.08584
2.19954
2.29233
2.3472
2.35255
2.28539
2.14166
1.97407
1.77908
1.57418
1.37446
1.18606
1.09534
1.35907
1.42058
1.49154
1.56836
1.64926
1.73557
1.83086
1.93925
2.06308
2.20062
2.34391
2.4783
2.5844
2.64149
2.63339
2.53499
2.34653
2.13475
1.88918
1.63555
1.39728
1.19012
1.01806
0.936446
1.44872
1.52464
1.62179
1.73492
1.86077
1.99923
2.15128
2.31652
2.49055
2.66309
2.81747
2.93306
2.99128
2.94859
2.80362
2.58281
2.32328
2.02504
1.72011
1.43761
1.19785
1.00833
0.865265
0.802658
1.59139
1.69067
1.82978
1.99825
2.18785
2.3936
2.61013
2.8287
3.03514
3.21036
3.33079
3.37379
3.28081
3.08081
2.82083
2.50174
2.14325
1.78369
1.45673
1.1843
0.97372
0.819003
0.713506
0.675268
1.81183
1.93927
2.13741
2.38153
2.65118
2.93078
3.2038
3.4501
3.64491
3.76689
3.74647
3.60483
3.35215
3.03149
2.63802
2.21181
1.79779
1.43281
1.13761
0.915333
0.755671
0.646035
0.577312
0.556814
2.14758
2.29397
2.56661
2.90359
3.2588
3.59865
3.89193
4.1088
4.21154
4.12203
3.91295
3.59859
3.18452
2.70591
2.21206
1.75245
1.36365
1.06127
0.840744
0.685597
0.578907
0.507125
0.463833
0.454538
2.65122
2.77398
3.12926
3.56437
3.98587
4.33721
4.57519
4.62925
4.47989
4.1961
3.78861
3.27177
2.70522
2.15054
1.66017
1.26551
0.971698
0.763717
0.618609
0.516599
0.444853
0.396059
0.36886
0.36591
3.36731
3.37382
3.81127
4.3249
4.75383
5.024
5.03236
4.8363
4.46012
3.92795
3.29994
2.65106
2.05078
1.54845
1.16424
0.889028
0.697318
0.562203
0.464012
0.391971
0.340526
0.306873
0.290453
0.290945
)
;

boundaryField
{
    rotor
    {
        type            epsilonWallFunction;
        value           nonuniform List<scalar> 
144
(
1.96943
2.69602
4.65021
6.13624
6.62272
26.8435
1.96943
0.876348
0.240291
0.263905
1.19216
1.34711
1.49186
1.6102
1.69726
1.75171
1.77285
1.76635
1.72827
1.67279
1.59889
1.50565
1.39199
1.25138
1.18706
0.269744
0.253322
0.231212
0.866317
2.06841
2.06841
2.1931
2.23235
2.0025
2.22436
5.35062
2.99516
8.82096
11.4705
12.3868
10.7726
53.7243
2.99516
1.12411
1.64292
2.28049
2.87908
3.42266
3.90134
4.30134
4.61672
4.84582
4.98919
5.04837
5.02603
4.92241
4.7396
4.4786
4.14052
3.72739
3.24344
2.69708
2.10371
1.48943
1.0395
2.48905
2.48905
6.9831
9.36742
10.7458
10.9187
48.643
2.9577
2.34521
2.16825
2.07613
2.55553
6.06598
2.9577
1.03405
1.31367
1.67633
1.98513
2.25041
2.48199
2.68465
2.85946
3.00645
3.12599
3.21941
3.27505
3.27946
3.23611
3.13864
2.9867
2.77798
2.50921
2.17639
1.77579
1.30465
0.938581
2.83496
2.83496
7.15304
9.98719
10.5692
9.28364
6.22236
1.98054
2.37749
2.85442
2.91734
2.71204
2.55709
1.98054
0.868824
0.232809
0.255118
0.270306
1.18909
1.3111
1.443
1.55342
1.63972
1.70227
1.74245
1.75731
1.74525
1.70311
1.63152
1.53217
1.40831
1.26791
0.280368
0.263465
0.239838
0.884256
1.95612
1.95612
2.49618
3.6607
4.54066
5.15267
6.03048
)
;
    }
    freestream
    {
        type            inletOutlet;
        inletValue      uniform 0.000375;
        value           nonuniform List<scalar> 
96
(
0.22952
0.180351
0.141631
0.111286
0.0873164
0.068236
0.052903
0.0405034
0.030405
0.0221437
0.0153639
0.0097749
0.00500866
0.000375
0.000375
0.000375
0.000375
0.000375
0.000375
0.000375
0.000375
0.000375
0.000375
0.000375
0.000375
0.000375
0.000375
0.000375
0.000375
0.000375
0.000375
0.000375
0.000375
0.000375
0.000375
0.000375
0.000375
0.000375
0.000375
0.000375
0.000375
0.000375
0.000375
0.000375
0.000375
0.000375
0.000375
0.000375
0.000375
0.000375
0.000375
0.000375
0.000375
0.000375
0.000375
0.000375
0.000375
0.000375
0.000375
0.000375
0.00227254
0.00361539
0.00517666
0.0069851
0.00908853
0.0115443
0.0144117
0.0177669
0.0217275
0.0265007
0.0324807
0.0404215
0.0517258
0.0693686
0.0998348
0.16014
0.306432
0.702539
1.46665
2.16846
2.39961
2.31982
2.06304
1.98834
2.08577
2.11754
1.85843
1.40071
1.09534
0.936446
0.802658
0.675268
0.556814
0.454538
0.36591
0.290945
)
;
    }
    frontAndBack
    {
        type            empty;
    }
}


// ************************************************************************* //
