/*--------------------------------*- C++ -*----------------------------------*\
  =========                 |
  \\      /  F ield         | OpenFOAM: The Open Source CFD Toolbox
   \\    /   O peration     | Website:  https://openfoam.org
    \\  /    A nd           | Version:  11
     \\/     M anipulation  |
\*---------------------------------------------------------------------------*/
FoamFile
{
    format      ascii;
    class       volScalarField;
    location    "0.62";
    object      nut;
}
// * * * * * * * * * * * * * * * * * * * * * * * * * * * * * * * * * * * * * //

dimensions      [0 2 -1 0 0 0 0];

internalField   nonuniform List<scalar> 
2880
(
8.16054e-07
4.19557e-06
1.96041e-05
5.735e-05
0.000120171
4.61176e-05
2.92177e-05
4.7592e-05
0.000101612
0.0001897
0.00029312
0.000350143
0.000170725
0.000113967
0.000206308
0.00033194
0.000470965
0.000627216
0.000189072
0.000176448
0.00029864
0.000449302
0.000610256
0.000778461
4.76509e-05
0.000231137
0.000374619
0.000537819
0.000701131
0.000854304
4.89186e-05
0.000275976
0.000434422
0.000600143
0.000753952
0.000883605
5.10747e-05
0.000310016
0.000479357
0.000640682
0.000779161
0.000885255
5.24178e-05
0.000334561
0.00051116
0.000663958
0.000785325
0.000870988
5.33462e-05
0.000350747
0.00053167
0.000673965
0.000778857
0.000848333
5.39098e-05
0.000359599
0.000542801
0.000673959
0.000764273
0.000821635
5.41246e-05
0.000362337
0.000545784
0.000666431
0.000744428
0.000793679
5.40579e-05
0.000358893
0.000542007
0.000653234
0.000721286
0.000765817
5.36655e-05
0.000349725
0.000532434
0.000635665
0.000695941
0.00073857
5.30873e-05
0.000334232
0.000517751
0.000614568
0.000668755
0.000711931
5.22955e-05
0.000313955
0.000498114
0.000590174
0.000640229
0.000685687
5.12598e-05
0.000290538
0.000473842
0.000562196
0.000609847
0.000659695
4.99335e-05
0.000265933
0.000445524
0.00053002
0.000576524
0.000632378
4.81041e-05
0.000243236
0.000413915
0.000492732
0.000538954
0.000603169
4.70203e-05
0.000228661
0.000378925
0.000449098
0.000495711
0.000570005
0.000191502
0.000214053
0.00033706
0.000398282
0.000444992
0.000529767
0.000179841
0.000183962
0.000281295
0.000335833
0.000384175
0.000478559
0.00016412
0.000133778
0.000203796
0.000251529
0.000305647
0.0004105
2.8899e-05
6.1052e-05
0.000101986
0.00013572
0.000192797
0.000306908
8.57582e-07
3.39685e-06
9.33535e-06
1.86061e-05
4.03373e-05
0.000172101
0.000791029
0.00114743
0.00128011
0.00133778
0.00135608
0.00136053
0.00135929
0.00133536
0.00129436
0.00125316
0.0012209
0.00120768
0.00122151
0.00126493
0.0013349
0.0014294
0.00155493
0.00172969
0.00198072
0.0023306
0.00273043
0.00318357
0.00361244
0.00391576
0.000900779
0.00114861
0.00125085
0.00129188
0.00130859
0.00131095
0.0012939
0.00126078
0.0012289
0.0012081
0.00120738
0.00123145
0.00127916
0.00134677
0.00143465
0.00155092
0.00171219
0.00194267
0.0022686
0.00268394
0.00314251
0.0036384
0.00406314
0.00435768
0.000975865
0.00114572
0.00122048
0.00125173
0.00126092
0.0012524
0.00122853
0.00120656
0.00119647
0.00120548
0.00123536
0.00128353
0.00134795
0.00143144
0.00154205
0.00169312
0.00190402
0.00219886
0.00259754
0.00306463
0.00357018
0.00407676
0.00448736
0.00476682
0.00101011
0.00113146
0.00118275
0.0012082
0.00120674
0.00119543
0.001183
0.00118238
0.00119883
0.00123233
0.00128059
0.00134345
0.00142467
0.00153119
0.00167317
0.00186551
0.00212879
0.00248471
0.00294337
0.00344594
0.00397654
0.00447322
0.00487325
0.00512062
0.00101503
0.00110364
0.00115012
0.00115439
0.00115633
0.00115494
0.00116329
0.00118631
0.0012235
0.0012731
0.00133574
0.00141511
0.00151714
0.00165009
0.00182567
0.00206039
0.00237423
0.00278311
0.00328461
0.00380534
0.00433972
0.00481333
0.00519497
0.0054072
0.000999982
0.00106521
0.00109756
0.00110641
0.00111934
0.00113697
0.00116722
0.00120955
0.00126203
0.00132514
0.00140227
0.00149909
0.00162326
0.00178468
0.00199607
0.00227307
0.00263161
0.00307919
0.00360156
0.00412279
0.00464021
0.00508061
0.00543448
0.00561514
0.000972523
0.0010288
0.00104684
0.00107263
0.00110045
0.00113993
0.00118961
0.00124669
0.00131105
0.00138593
0.00147732
0.00159312
0.00174249
0.00193551
0.00218329
0.00249775
0.00288853
0.00335504
0.00387661
0.00438051
0.00486229
0.00526667
0.00557923
0.00573729
0.00093747
0.000987645
0.00100719
0.00105181
0.00110186
0.00116121
0.0012253
0.00129268
0.00136633
0.00145272
0.00156042
0.00169874
0.00187662
0.0021022
0.00238292
0.0027253
0.00313224
0.00359692
0.00409638
0.0045686
0.00500052
0.00536058
0.00562832
0.00576493
0.000899382
0.000944351
0.000981977
0.00104716
0.00111986
0.00119488
0.00126866
0.00134336
0.00142589
0.00152581
0.00165328
0.00181746
0.00202543
0.0022818
0.00258902
0.00294741
0.00335357
0.00379652
0.00425371
0.00468143
0.00505114
0.00535577
0.00557931
0.00569403
0.000862929
0.000905118
0.000972887
0.00106058
0.00115076
0.00123595
0.00131581
0.00139696
0.00148999
0.00160659
0.00175726
0.0019496
0.00218745
0.00247078
0.00279634
0.00315827
0.00354783
0.0039517
0.00435011
0.00471765
0.00501726
0.00525329
0.00542916
0.00551938
0.000830574
0.000874286
0.000978581
0.0010868
0.00118943
0.00128076
0.00136513
0.00145358
0.00155974
0.0016964
0.0018731
0.00209457
0.00236036
0.00266536
0.0030008
0.00335534
0.00371595
0.00406809
0.00439555
0.00468105
0.00490902
0.00506415
0.00517191
0.00523207
0.000802003
0.000857867
0.000993844
0.00111983
0.0012315
0.00132706
0.00141611
0.00151386
0.00163625
0.00179611
0.00200067
0.00225074
0.00254122
0.00286218
0.00320015
0.00353945
0.00386365
0.00415709
0.00440618
0.00460026
0.00473217
0.00479878
0.00480545
0.00479304
0.00077686
0.000853503
0.001017
0.00115783
0.00127598
0.00137486
0.00146946
0.00157885
0.00172045
0.00190586
0.00213887
0.00241577
0.00272695
0.00305855
0.00339367
0.00371368
0.00399978
0.00423492
0.00440581
0.00450401
0.00452461
0.00446027
0.00430053
0.00404759
0.000754019
0.000856911
0.00104496
0.00119931
0.00132232
0.00142426
0.00152576
0.00164923
0.00181258
0.00202497
0.00228582
0.00258679
0.00291446
0.00325219
0.00358114
0.00388131
0.00413282
0.00431755
0.00442048
0.00442969
0.00433156
0.00409222
0.00361461
0.002824
0.000732603
0.000865826
0.00107902
0.00124415
0.00137045
0.00147556
0.00158546
0.00172523
0.0019122
0.00215201
0.00243904
0.00276063
0.00310056
0.00344066
0.00376154
0.00404327
0.00426647
0.00441358
0.00446959
0.00442218
0.00426118
0.00397732
0.00355823
0.00304749
0.000712011
0.000880328
0.00111849
0.00129168
0.0014203
0.00152905
0.00164885
0.00180664
0.00201829
0.00228498
0.00259569
0.00293399
0.00328193
0.00362098
0.0039322
0.00419674
0.00439692
0.0045174
0.00454601
0.0044739
0.00429536
0.00400833
0.00361872
0.00319353
0.000691683
0.000900393
0.00116129
0.00134145
0.00147202
0.00158498
0.00171584
0.00189263
0.00212915
0.00242159
0.00275287
0.00310364
0.00345529
0.00378983
0.00408946
0.00433686
0.00451635
0.00461516
0.00462432
0.00453876
0.00435707
0.00408198
0.00372453
0.00333961
0.000671334
0.000925754
0.00120709
0.00139383
0.00152602
0.00164353
0.00178594
0.00198169
0.00224259
0.00255956
0.00290802
0.00326682
0.00361785
0.00394439
0.00423011
0.00445937
0.00461843
0.00469695
0.00468877
0.00459206
0.00440885
0.00414542
0.00381513
0.00345471
0.000651127
0.000955693
0.00125688
0.00144946
0.00158274
0.00170446
0.0018577
0.00207259
0.00235713
0.00269724
0.00305908
0.0034214
0.0037676
0.00408274
0.00435208
0.00456156
0.00469921
0.00475673
0.00473044
0.00462122
0.00443387
0.00417715
0.00386528
0.00352255
0.000631504
0.000990183
0.00131253
0.00150915
0.00164238
0.00176632
0.00193075
0.00216545
0.00247297
0.00283363
0.00320456
0.00356591
0.00390335
0.00420393
0.0044545
0.00464237
0.00475711
0.00479228
0.00474651
0.00462333
0.00443017
0.00417775
0.00388038
0.00355476
0.000613406
0.00103057
0.00137215
0.00157376
0.00170383
0.0018294
0.00200577
0.00226078
0.00259006
0.00296764
0.0033433
0.00369944
0.00402458
0.00430781
0.00453736
0.00470169
0.00479163
0.00480253
0.00473534
0.00459639
0.00439581
0.00414627
0.00386272
0.00355932
0.00059853
0.00108783
0.0014372
0.00164373
0.00176773
0.00189443
0.00208355
0.00235898
0.00270825
0.00309859
0.00347456
0.00382158
0.00413132
0.00439478
0.00460127
0.00474004
0.00480305
0.00478743
0.00469677
0.00454061
0.00433218
0.00408642
0.00381951
0.00354566
0.00058914
0.00116628
0.00151695
0.00172046
0.00183486
0.00196227
0.0021649
0.00246038
0.00282713
0.00322622
0.00359787
0.00393225
0.00422405
0.00446573
0.00464729
0.00475852
0.00479239
0.00474811
0.00463248
0.00445893
0.00424425
0.00400569
0.00376036
0.00352232
0.000588934
0.00124107
0.00162185
0.00180558
0.00190564
0.00203354
0.00225038
0.00256499
0.0029462
0.00334967
0.00371274
0.00403165
0.00430355
0.00452188
0.0046769
0.00475871
0.00476146
0.00468695
0.00454606
0.0043568
0.00413963
0.00391345
0.00369483
0.00349573
1.24148e-06
1.36678e-05
4.80489e-05
0.000115177
0.000199268
5.98834e-05
3.75062e-05
0.000112844
0.000216318
0.00035068
0.000433217
0.000520778
5.27394e-05
0.000235849
0.000411891
0.000610499
0.000787683
0.000985311
5.8826e-05
0.000344525
0.00059079
0.000842884
0.00108566
0.00134324
6.3569e-05
0.000433724
0.000743983
0.00103794
0.0013178
0.00159056
6.73256e-05
0.00050458
0.0008707
0.00119648
0.00149533
0.00176247
7.03203e-05
0.00055957
0.000972656
0.00132197
0.00162918
0.00188196
7.26467e-05
0.000601399
0.00105228
0.00141835
0.00172839
0.00196428
7.43843e-05
0.000632333
0.00111199
0.00148935
0.00179916
0.0020195
7.56001e-05
0.000654022
0.00115387
0.00153829
0.0018461
0.00205402
7.63443e-05
0.000667562
0.00117954
0.00156769
0.00187261
0.00207199
7.6651e-05
0.000673581
0.00119007
0.00157876
0.00188098
0.00207584
7.65439e-05
0.000672336
0.00118604
0.00157241
0.00187287
0.00206629
7.60196e-05
0.000663767
0.00116757
0.00154898
0.00184897
0.0020443
7.50715e-05
0.000647534
0.00113437
0.001508
0.00180845
0.00200895
7.36716e-05
0.000623013
0.00108569
0.00144857
0.00174878
0.00195771
7.17733e-05
0.000589262
0.00102042
0.00136895
0.00166726
0.00188822
6.93064e-05
0.000544989
0.000936996
0.00126673
0.00156023
0.00179463
6.61718e-05
0.000488512
0.000833549
0.0011387
0.00142288
0.00166855
6.22312e-05
0.000417785
0.000708117
0.000981671
0.00124899
0.00149609
5.72906e-05
0.00033063
0.000559122
0.000792713
0.0010316
0.00125715
5.10669e-05
0.000225397
0.000387027
0.00057089
0.000767146
0.000921971
3.47037e-05
0.000105822
0.000199253
0.000324382
0.000467234
0.000491357
1.03259e-06
1.08357e-05
3.92834e-05
9.9972e-05
0.000198988
5.81586e-05
0.000641506
0.00141552
0.00175546
0.00189725
0.00197892
0.00210806
0.00233989
0.00267232
0.00306478
0.0034675
0.00381875
0.0041202
0.00437089
0.00456474
0.0046919
0.00474273
0.00471288
0.0046076
0.00444279
0.0042415
0.00402728
0.00381906
0.00363067
0.00346999
0.00119016
0.00169261
0.0018972
0.00198667
0.00205121
0.00218448
0.00243245
0.00278119
0.0031817
0.00357857
0.00391578
0.00419862
0.0044274
0.00459604
0.00469439
0.00471312
0.00465002
0.00451479
0.0043292
0.0041212
0.00391594
0.00373016
0.00357298
0.00344727
0.00154032
0.00187327
0.00200357
0.0020621
0.00211873
0.0022611
0.00252649
0.00288991
0.00329548
0.00368277
0.00400429
0.00426793
0.00447456
0.00461769
0.00468669
0.00467285
0.00457689
0.00441403
0.00421233
0.00400368
0.00381267
0.00365174
0.00352427
0.00342839
0.00176839
0.00199884
0.00208321
0.00212513
0.00218152
0.00233705
0.00262046
0.00299672
0.00340481
0.00377985
0.00408485
0.00432927
0.00451395
0.00463167
0.00467128
0.00462517
0.0044979
0.00431105
0.00409881
0.00389526
0.00372208
0.00358609
0.00348507
0.00341341
0.00192451
0.00208849
0.00214417
0.00217839
0.00224003
0.00241146
0.00271273
0.00309999
0.00350855
0.00386973
0.0041581
0.0043838
0.00454715
0.00463996
0.00465073
0.00457347
0.00441752
0.00421128
0.00399413
0.00380016
0.0036463
0.00353337
0.00345466
0.00340192
0.00203289
0.0021522
0.00219152
0.00222386
0.00229449
0.00248334
0.00280172
0.00319824
0.00360582
0.00395251
0.00422478
0.00443271
0.0045757
0.00464454
0.00462757
0.00452111
0.00433995
0.00411926
0.00390215
0.00372054
0.00358552
0.00349252
0.00343171
0.00339331
0.0021079
0.00219718
0.00222879
0.00226292
0.00234486
0.00255158
0.00288592
0.00329021
0.00369592
0.0040284
0.00428569
0.00447719
0.00460116
0.00464735
0.00460435
0.00447133
0.00426892
0.0040385
0.00382508
0.0036568
0.00353875
0.00346201
0.00341488
0.003387
0.00215896
0.00222842
0.00225831
0.00229638
0.00239074
0.00261501
0.002964
0.00337486
0.00377827
0.00409766
0.00434163
0.00451842
0.00462501
0.00465032
0.00458352
0.00442709
0.00420754
0.00397136
0.00376378
0.00360826
0.00350442
0.00344017
0.00340293
0.0033826
0.00219229
0.00224929
0.00228145
0.00232452
0.00243149
0.00267243
0.00303479
0.00345143
0.00385207
0.0041605
0.00439335
0.00455748
0.00464868
0.00465526
0.00456735
0.00439101
0.00415818
0.00391918
0.00371814
0.00357369
0.00348104
0.00342492
0.00339503
0.00337981
0.00221204
0.00226196
0.00229887
0.00234722
0.00246628
0.00272264
0.00309735
0.00351969
0.00391573
0.00421709
0.00444154
0.00459534
0.00467341
0.00466374
0.00455777
0.00436512
0.0041224
0.00388238
0.00368723
0.00355128
0.00346581
0.00341651
0.00339091
0.00337833
0.00222083
0.00226768
0.00231075
0.00236406
0.00249416
0.00276448
0.00315055
0.00357857
0.00397134
0.00426829
0.00448693
0.00463285
0.00470023
0.00467706
0.00455633
0.00435088
0.00410106
0.00386083
0.00367003
0.00353961
0.00345838
0.00341246
0.00338898
0.00337766
0.00222025
0.00226709
0.00231692
0.00237447
0.00251414
0.00279686
0.00319348
0.00362762
0.00401946
0.00431465
0.00453009
0.00467065
0.00472991
0.0046962
0.00456421
0.00434916
0.00409441
0.00385401
0.00366556
0.00353775
0.00345925
0.00341363
0.00338972
0.00337782
0.00221062
0.00226032
0.00231699
0.00237774
0.00252529
0.00281885
0.00322545
0.00366649
0.00406025
0.00435644
0.00457137
0.00470922
0.00476284
0.00472082
0.00457982
0.00435886
0.00410155
0.0038606
0.00367275
0.00354489
0.00346548
0.0034189
0.00339246
0.00337855
0.00219289
0.00224721
0.00231042
0.00237316
0.00252676
0.00282965
0.00324585
0.00369482
0.00409363
0.00439359
0.00460977
0.0047458
0.00479569
0.00474926
0.00460634
0.00438359
0.00412376
0.00388141
0.00369137
0.00356045
0.00347745
0.00342714
0.00339736
0.00338003
0.00216583
0.00222732
0.00229654
0.00236005
0.00251779
0.00282861
0.00325419
0.00371223
0.00411886
0.00442463
0.00464503
0.00478346
0.00483461
0.00479043
0.00464571
0.00442023
0.00415965
0.00391511
0.00372084
0.0035843
0.00349525
0.0034391
0.003404
0.00338207
0.00212886
0.00219995
0.00227448
0.00233754
0.00249776
0.00281525
0.00325015
0.00371851
0.00413639
0.00445165
0.00467959
0.00482438
0.00488019
0.00483651
0.00469211
0.00446859
0.00420842
0.00396116
0.00376087
0.00361638
0.00351899
0.00345496
0.00341282
0.00338486
0.00207992
0.00216425
0.00224298
0.00230496
0.00246618
0.00278929
0.00323357
0.00371361
0.00414601
0.00447376
0.00471221
0.00486513
0.00492607
0.00488629
0.00474689
0.00452766
0.00426917
0.00401901
0.00381132
0.00365686
0.00354899
0.00347508
0.00342414
0.00338859
0.00201616
0.00211932
0.00219983
0.00226156
0.00242283
0.00275071
0.00320445
0.00369733
0.00414703
0.0044898
0.00474071
0.00490344
0.00497258
0.00494065
0.00480887
0.0045962
0.00434081
0.00408804
0.0038721
0.00370603
0.00358569
0.0034999
0.00343832
0.00339349
0.00193316
0.00206255
0.0021451
0.00220731
0.00236789
0.00269982
0.00316306
0.00366974
0.00413904
0.00449921
0.004765
0.0049402
0.00502013
0.00499846
0.00487672
0.00467279
0.00442211
0.00416748
0.00394302
0.00376417
0.00362958
0.00352997
0.00345581
0.00339979
0.00182456
0.00199061
0.00207781
0.00214216
0.00230179
0.00263729
0.00311004
0.0036312
0.00412161
0.00450134
0.00478429
0.0049743
0.00506744
0.00505834
0.00494889
0.00475578
0.00451159
0.00425634
0.00402373
0.00383143
0.00368115
0.00356579
0.00347702
0.00340769
0.00167889
0.0018985
0.00199596
0.00206585
0.00222522
0.00256426
0.00304658
0.00358275
0.00409381
0.00449547
0.0047977
0.00500467
0.00511317
0.00511875
0.00502366
0.00484335
0.00460753
0.00435331
0.00411356
0.00390778
0.00374074
0.0036079
0.00350238
0.0034174
0.00147585
0.0017783
0.00189625
0.00197786
0.00213913
0.00248241
0.00297442
0.00352566
0.00405609
0.00448128
0.00480448
0.00503021
0.00515595
0.00517812
0.00509923
0.00493354
0.00470803
0.00445679
0.00421145
0.00399284
0.00380854
0.00365671
0.00353223
0.00342912
0.0011685
0.00161539
0.00177376
0.00187751
0.00204501
0.0023942
0.00289596
0.00346159
0.00401047
0.00445911
0.00480416
0.00504996
0.00519448
0.00523486
0.00517379
0.00502442
0.00481111
0.00456499
0.00431606
0.00408586
0.00388439
0.00371246
0.00356677
0.00344278
0.000646585
0.00138568
0.00162737
0.00176646
0.00194585
0.00230326
0.00281451
0.003393
0.0039587
0.00442945
0.00479642
0.00506309
0.00522757
0.0052875
0.00524567
0.00511413
0.00491483
0.004676
0.00442574
0.0041857
0.00396769
0.00377493
0.00360606
0.00345837
1.22733e-06
3.63171e-06
9.03762e-06
1.92301e-05
4.62283e-05
0.000195985
3.46223e-05
5.22135e-05
9.04491e-05
0.00012745
0.000183616
0.000275883
4.91568e-05
9.38908e-05
0.00016649
0.000216847
0.0002794
0.000399866
5.33021e-05
0.000125273
0.000221646
0.000278536
0.000344676
0.000470177
5.63585e-05
0.00015707
0.000268956
0.000326718
0.000392826
0.000502723
5.87425e-05
0.000190349
0.000310754
0.000365816
0.00043399
0.000532688
6.06799e-05
0.000224274
0.000347051
0.000397623
0.000467869
0.000552391
6.22804e-05
0.000257681
0.000378355
0.000425404
0.000495223
0.000569278
6.3598e-05
0.000289414
0.000405688
0.000452076
0.000519696
0.000584707
6.4665e-05
0.000318321
0.000430166
0.000478288
0.000540645
0.000599731
6.55072e-05
0.000343173
0.000452633
0.000503484
0.000557983
0.000615248
6.61501e-05
0.000362828
0.000473173
0.000527201
0.000574284
0.000631146
6.65326e-05
0.000377545
0.000491192
0.00054931
0.000591335
0.000647321
6.65651e-05
0.000387756
0.00050612
0.000569989
0.000610193
0.000663703
6.62764e-05
0.000392803
0.000517333
0.000588946
0.000630137
0.000681055
6.56082e-05
0.000391505
0.000523393
0.000605367
0.000649976
0.000698143
6.45357e-05
0.000382426
0.000522312
0.000617453
0.000669954
0.000713705
6.29992e-05
0.000363933
0.000511472
0.00062161
0.000686664
0.000732052
6.09e-05
0.000333429
0.000487512
0.000612962
0.000695052
0.000743896
5.80796e-05
0.000288238
0.000445559
0.00058446
0.000682203
0.000741241
5.42716e-05
0.00022782
0.00038035
0.000526104
0.000637409
0.000703159
4.897e-05
0.000153282
0.000286723
0.000427614
0.000544871
0.000592449
3.14033e-05
7.01873e-05
0.000163415
0.000278967
0.000385293
0.000366467
1.18164e-06
1.11529e-05
4.21206e-05
9.8814e-05
0.000168281
0.000205081
0.000610575
0.0012928
0.00151782
0.00166417
0.00185299
0.00221634
0.0027336
0.00332232
0.00390223
0.00439281
0.00478107
0.00506892
0.00525418
0.00533473
0.00531331
0.00520092
0.00501727
0.00478784
0.00453862
0.0042908
0.00405736
0.00384354
0.00364993
0.00347575
0.000623856
0.00124495
0.00146722
0.00159923
0.0017828
0.00214331
0.00265873
0.00325162
0.00384206
0.00434953
0.00475792
0.00506683
0.00527335
0.00537531
0.00537524
0.0052831
0.00511654
0.00489843
0.00465257
0.00439921
0.00415187
0.00391731
0.00369791
0.00349469
0.000639746
0.00118183
0.0014309
0.00155651
0.00173432
0.00208415
0.00259127
0.00318129
0.00377851
0.00429972
0.00472671
0.00505622
0.0052842
0.00540811
0.00543008
0.00535904
0.00521074
0.00500562
0.00476527
0.00450863
0.0042492
0.00399471
0.00374903
0.00351467
0.000659739
0.00114995
0.00137901
0.00152031
0.00169412
0.00203457
0.00252901
0.00311202
0.00371128
0.00424309
0.00468704
0.0050365
0.00528587
0.00543199
0.00547645
0.00542713
0.005298
0.00510727
0.00487431
0.00461654
0.00434693
0.00407363
0.0038016
0.00353464
0.000682193
0.00112265
0.00133068
0.00148007
0.00166016
0.00198862
0.00246865
0.00304174
0.00363935
0.0041791
0.00463839
0.00500698
0.00527748
0.00544587
0.00551303
0.00548581
0.00537651
0.00520125
0.00497727
0.0047203
0.00444238
0.00415158
0.00385358
0.00355312
0.000705209
0.00109868
0.001298
0.00143181
0.00162547
0.00194346
0.00240799
0.00296871
0.00356159
0.00410709
0.00458018
0.00496699
0.00525818
0.00544865
0.00553853
0.00553357
0.00544454
0.00528557
0.00507187
0.00481738
0.0045329
0.00422594
0.00390235
0.00356798
0.000725765
0.00107632
0.00126491
0.00138925
0.0015875
0.00189765
0.00234535
0.0028917
0.00347703
0.00402644
0.00451187
0.00491591
0.00522716
0.00543939
0.00555182
0.00556913
0.0055006
0.00535852
0.00515612
0.0049055
0.00461597
0.00429397
0.00394495
0.00357637
0.00074299
0.00105473
0.00123167
0.00135232
0.00154596
0.00184846
0.00227908
0.0028099
0.00338499
0.00393677
0.00443302
0.00485315
0.00518373
0.00541727
0.00555203
0.00559157
0.00554374
0.00541905
0.0052288
0.00498317
0.00468978
0.00435351
0.00397866
0.00357504
0.000756887
0.00103344
0.00119872
0.00131817
0.00150058
0.00179279
0.00220761
0.00272223
0.00328575
0.00383784
0.00434318
0.00477817
0.00512729
0.00538172
0.00553868
0.0056006
0.00557389
0.00546732
0.00529022
0.00505075
0.00475451
0.0044043
0.00400222
0.00356079
0.00076767
0.00101233
0.001166
0.00128436
0.00145169
0.00173191
0.0021302
0.00262778
0.0031786
0.00372902
0.00424171
0.0046903
0.00505723
0.00533231
0.00551169
0.00559668
0.00559229
0.00550556
0.00534373
0.00511268
0.00481543
0.0044517
0.00401938
0.00353206
0.000775761
0.00099146
0.00113339
0.00124912
0.00140132
0.00166563
0.00204653
0.00252578
0.00306235
0.0036094
0.00412775
0.00458868
0.00497273
0.00526846
0.00547103
0.00558077
0.00560147
0.00553861
0.00539753
0.00518166
0.00489073
0.00451902
0.0040539
0.00349719
0.000781706
0.000970987
0.0011011
0.00121132
0.00134943
0.00159364
0.00195478
0.00241457
0.00293612
0.00347803
0.00400021
0.00447204
0.00487246
0.00518893
0.00541591
0.00555312
0.00560368
0.00557239
0.00546405
0.00528178
0.00502445
0.00468055
0.00421094
0.00352636
0.000786128
0.00095116
0.00106877
0.00116609
0.00129669
0.0015202
0.00185801
0.00229501
0.00279963
0.0033341
0.00385783
0.00433867
0.00475422
0.00509116
0.0053436
0.0055112
0.00559732
0.0056076
0.00554935
0.00543207
0.00526918
0.00508018
0.00489315
0.00475428
0.000789826
0.000932262
0.00103809
0.00112413
0.0012424
0.00144751
0.00175684
0.00216629
0.00265252
0.00317686
0.00369923
0.00418643
0.00461502
0.00497118
0.00524905
0.00544863
0.00557388
0.00563131
0.00562943
0.00557928
0.00549566
0.00539832
0.00531636
0.00527934
0.000793981
0.00091456
0.0010058
0.00108336
0.00119175
0.00137123
0.00164995
0.00203155
0.00249555
0.00300596
0.00352314
0.00401304
0.00445142
0.00482418
0.00512567
0.00535637
0.00552062
0.00562502
0.00567757
0.00568751
0.00566744
0.00563435
0.00560309
0.00559782
0.000799163
0.000898613
0.00097591
0.00104339
0.00113606
0.00129216
0.00154114
0.00189188
0.00232949
0.00282132
0.0033285
0.00381637
0.00426004
0.00464524
0.0049666
0.0052249
0.00542436
0.00557066
0.00567046
0.00572847
0.00576522
0.00577489
0.00577962
0.00579248
0.00080466
0.00088417
0.000947302
0.0010031
0.00108013
0.00121296
0.00143123
0.00174834
0.00215521
0.00262316
0.00311465
0.00359472
0.00403795
0.00443004
0.00476592
0.00504656
0.00527579
0.00545591
0.00558916
0.00570315
0.00577582
0.0058205
0.00585129
0.00587649
0.000812436
0.000872486
0.000920538
0.00096379
0.00102501
0.00113454
0.00132132
0.0016023
0.00197396
0.00241223
0.00288158
0.00334716
0.00378323
0.00417553
0.00451942
0.00481632
0.00506623
0.00526925
0.00544728
0.00559821
0.0057029
0.00577793
0.00583034
0.00586539
0.000819408
0.000862833
0.000895999
0.000926201
0.000971583
0.00105808
0.001213
0.00145563
0.00178765
0.0021901
0.00263026
0.00307399
0.00349543
0.00388043
0.00422493
0.00453081
0.00478879
0.00501674
0.00523017
0.00541278
0.00554944
0.00565238
0.00572467
0.00576872
0.000817357
0.000851951
0.000872976
0.000890738
0.000920625
0.000984612
0.00110774
0.00131041
0.00159878
0.00195928
0.00236298
0.00277717
0.00317619
0.0035461
0.00388372
0.00418368
0.00444957
0.00469442
0.00493314
0.00514543
0.00531258
0.00544311
0.00553553
0.00558878
0.000788199
0.000830648
0.000847377
0.000856382
0.00087298
0.000916251
0.00100862
0.00117049
0.00141159
0.0017241
0.00208393
0.00246083
0.00282967
0.00317654
0.00349879
0.00378463
0.00405037
0.00430201
0.00455363
0.00479227
0.00498809
0.00514659
0.00526065
0.0053242
0.000698507
0.000784476
0.000809701
0.000817392
0.000824972
0.00085052
0.000914447
0.0010365
0.00122882
0.0014889
0.00179851
0.00213107
0.00246273
0.00277944
0.00307781
0.00334324
0.00359876
0.00384741
0.00409557
0.00435088
0.00457407
0.00475939
0.00489696
0.00497267
0.000539846
0.000686774
0.000746192
0.000768025
0.000776563
0.000791044
0.000830848
0.000915035
0.00105767
0.00126151
0.00151508
0.00179694
0.00208529
0.00236601
0.00263387
0.00287412
0.0031095
0.00334545
0.00357705
0.00382731
0.00407211
0.00428015
0.00444257
0.00453341
0.000309508
0.000486547
0.000618482
0.000675351
0.000702314
0.000720126
0.000747708
0.000803499
0.000902584
0.00105183
0.00124659
0.00147241
0.00171166
0.00195089
0.00218483
0.00239673
0.00260348
0.00281556
0.00302993
0.00324832
0.00348869
0.0037182
0.00390248
0.00401252
8.19158e-07
3.67753e-06
1.1933e-05
2.70625e-05
4.8912e-05
8.16656e-05
2.89518e-05
6.41691e-05
0.000117343
0.000172427
0.000227848
0.00026564
0.000165097
0.000145845
0.00024394
0.000336067
0.000416194
0.00045652
0.000181065
0.000210064
0.000351083
0.000474293
0.000573257
0.000625775
0.000192856
0.000255327
0.000437086
0.00058598
0.000700624
0.000768308
4.74941e-05
0.000283327
0.000506313
0.000676796
0.000805344
0.000887395
4.84641e-05
0.000309964
0.000561775
0.000750282
0.000890951
0.000986655
5.03906e-05
0.000335741
0.000606745
0.000809208
0.000960684
0.00106888
5.16525e-05
0.000359226
0.000642893
0.000855485
0.00101674
0.00113626
5.25907e-05
0.000379452
0.000670645
0.000890378
0.00106044
0.00119026
5.325e-05
0.00039537
0.000689882
0.00091458
0.00109251
0.00123174
5.36651e-05
0.000405878
0.000700285
0.000928273
0.00111316
0.00126118
5.38166e-05
0.00041036
0.000701536
0.000931138
0.00112219
0.00127865
5.36931e-05
0.00040887
0.000693074
0.0009226
0.00111901
0.00128377
5.32584e-05
0.000401288
0.000674612
0.000901849
0.00110257
0.00127567
5.25038e-05
0.000387267
0.000645377
0.00086785
0.00107152
0.00125291
5.14212e-05
0.000366266
0.000604679
0.000819375
0.00102392
0.0012133
5.00038e-05
0.000337584
0.000551851
0.000755087
0.000957447
0.00115402
4.82047e-05
0.00030044
0.000486341
0.000673671
0.000869424
0.00107157
0.000199679
0.000254189
0.000407847
0.000574059
0.000757094
0.000961875
0.000187582
0.000196483
0.000316504
0.000455808
0.000618185
0.000820333
0.000170134
0.000128429
0.000213357
0.000319938
0.000453135
0.000641615
2.94746e-05
5.46609e-05
0.000102682
0.000171862
0.000268114
0.000424599
8.09462e-07
3.85874e-06
1.52857e-05
4.20821e-05
9.30066e-05
0.000193082
0.000212325
0.000372955
0.000494505
0.000576777
0.000612453
0.000636659
0.000659981
0.000695683
0.000757648
0.000856233
0.000993711
0.00116318
0.00135201
0.00154797
0.00174572
0.00193093
0.0021069
0.00228898
0.00247563
0.00267024
0.0028687
0.00308373
0.0032874
0.00343249
0.000263528
0.000345569
0.000408122
0.00048706
0.000528118
0.000550569
0.000572453
0.000600592
0.000641275
0.000700814
0.000785359
0.000895487
0.001027
0.00117305
0.00132831
0.00148864
0.00164018
0.00179084
0.00194832
0.00211052
0.00228225
0.00245825
0.00263533
0.00281639
0.00042494
0.000424989
0.00044808
0.000473911
0.000507908
0.000518734
0.000523199
0.000538398
0.000559838
0.000589829
0.000634903
0.000696379
0.000773616
0.000864546
0.000966971
0.0010781
0.00119618
0.00132067
0.00144649
0.00157918
0.00172668
0.00188224
0.00204089
0.00220612
0.000613985
0.000576024
0.00057249
0.000593327
0.000604034
0.000612296
0.000610726
0.000604876
0.000602622
0.000608812
0.000627498
0.000652526
0.000685152
0.000726572
0.000777484
0.000837546
0.000907527
0.000986597
0.00107254
0.00116583
0.00127099
0.00138965
0.0015199
0.00165613
0.00078378
0.000757026
0.000749631
0.000760405
0.00078245
0.000800897
0.000808562
0.000819374
0.000826017
0.00083163
0.000837854
0.000846116
0.000854984
0.000865811
0.000878928
0.000893606
0.000909893
0.000931115
0.000958786
0.000994211
0.00103997
0.00109755
0.00116292
0.00127491
0.000928787
0.000929484
0.00093417
0.000953278
0.000981935
0.00101812
0.0010506
0.00108607
0.00111422
0.00113687
0.00116669
0.00119332
0.00120767
0.00121906
0.00122528
0.00122492
0.001219
0.00120767
0.00119318
0.00117796
0.0011638
0.00115551
0.00114746
0.0011812
0.00105052
0.00107969
0.00110327
0.00113603
0.0011786
0.00122786
0.00128158
0.00133675
0.00138891
0.00143944
0.00148873
0.00152808
0.00155568
0.00158264
0.00160558
0.00161392
0.00160928
0.00159469
0.00157097
0.00153984
0.00150279
0.00146246
0.00141571
0.00139897
0.0011519
0.00120545
0.00124786
0.00129478
0.00134993
0.00141211
0.00147917
0.00154796
0.00161521
0.00167942
0.00173866
0.00179029
0.00183421
0.00186602
0.00189053
0.00191345
0.00192163
0.00191643
0.00190211
0.0018784
0.00184672
0.00180968
0.00176845
0.00174453
0.00123554
0.00130857
0.00136662
0.00142475
0.0014885
0.00155833
0.00163207
0.00170678
0.00177954
0.00184802
0.00190999
0.00196372
0.00200822
0.00204159
0.00206341
0.00208153
0.00208764
0.00208179
0.00206848
0.00204952
0.00202723
0.00200621
0.00199359
0.0019943
0.0013034
0.00139167
0.0014615
0.00152719
0.00159533
0.0016671
0.0017411
0.00181486
0.00188587
0.00195194
0.00201132
0.00206263
0.00210525
0.00213836
0.00216313
0.00218189
0.00219138
0.00219306
0.00218808
0.00217749
0.0021638
0.0021487
0.00213285
0.00212348
0.00135688
0.00145729
0.0015354
0.00160506
0.00167313
0.0017417
0.00181012
0.00187658
0.00193911
0.00199603
0.00204649
0.00208903
0.00212384
0.00215231
0.00217453
0.0021924
0.00220695
0.00221686
0.00222214
0.00222333
0.0022205
0.0022138
0.00220185
0.00218897
0.00139718
0.00150768
0.00159171
0.00166239
0.001727
0.00178832
0.00184653
0.00190052
0.00194916
0.00199201
0.00202604
0.00205241
0.00207438
0.00209079
0.00210201
0.00210741
0.00210713
0.0021042
0.00210079
0.00209964
0.00210149
0.00210786
0.00212177
0.00213708
0.00142506
0.00154466
0.0016333
0.00170342
0.00176256
0.00181407
0.00185885
0.00189709
0.00192774
0.0019478
0.00195964
0.00196095
0.00195018
0.00192938
0.00190725
0.00188998
0.00188365
0.00188616
0.00189786
0.00192066
0.00195208
0.00198787
0.00202131
0.00204138
0.00144059
0.00156958
0.00166257
0.00173187
0.00178505
0.0018258
0.00185621
0.00187515
0.00188137
0.00187288
0.00184988
0.00181602
0.00177681
0.00174093
0.00171116