/*--------------------------------*- C++ -*----------------------------------*\
  =========                 |
  \\      /  F ield         | OpenFOAM: The Open Source CFD Toolbox
   \\    /   O peration     | Website:  https://openfoam.org
    \\  /    A nd           | Version:  11
     \\/     M anipulation  |
\*---------------------------------------------------------------------------*/
FoamFile
{
    format      ascii;
    class       surfaceScalarField;
    location    "0.62";
    object      phi;
}
// * * * * * * * * * * * * * * * * * * * * * * * * * * * * * * * * * * * * * //

dimensions      [0 3 -1 0 0 0 0];

internalField   nonuniform List<scalar> 
5640
(
-3.07545e-07
3.07545e-07
-1.02749e-06
7.19948e-07
-1.7905e-06
7.63011e-07
-2.25584e-06
4.65335e-07
-2.18439e-06
-7.14479e-08
-9.1706e-07
-1.26733e-06
-4.94271e-07
8.01816e-07
-1.20708e-06
1.43276e-06
-1.8308e-06
1.38673e-06
-2.17758e-06
8.12114e-07
-2.06028e-06
-1.88742e-07
-1.62611e-06
-1.35123e-06
-5.40128e-07
1.34194e-06
-1.1928e-06
2.08543e-06
-1.73532e-06
1.92925e-06
-2.01123e-06
1.08803e-06
-1.88749e-06
-3.12488e-07
-2.19853e-06
-1.31507e-06
-5.58144e-07
1.90009e-06
-1.13969e-06
2.66697e-06
-1.61007e-06
2.39963e-06
-1.83426e-06
1.31222e-06
-1.70697e-06
-4.3978e-07
-2.7272e-06
-1.1783e-06
-5.64836e-07
2.46492e-06
-1.06952e-06
3.17165e-06
-1.47131e-06
2.80142e-06
-1.6544e-06
1.49531e-06
-1.51595e-06
-5.78234e-07
-3.27009e-06
-9.73055e-07
-5.48761e-07
3.01369e-06
-9.82081e-07
3.60497e-06
-1.32196e-06
3.1413e-06
-1.4697e-06
1.64305e-06
-1.31176e-06
-7.36166e-07
-3.85472e-06
-7.27136e-07
-5.05021e-07
3.51871e-06
-8.76353e-07
3.97631e-06
-1.1633e-06
3.42824e-06
-1.27946e-06
1.7592e-06
-1.09878e-06
-9.1684e-07
-4.48934e-06
-4.6416e-07
-4.45633e-07
3.96434e-06
-7.5611e-07
4.28678e-06
-9.94569e-07
3.6667e-06
-1.08453e-06
1.84916e-06
-8.84538e-07
-1.11683e-06
-5.16673e-06
-2.07146e-07
-3.73977e-07
4.33832e-06
-6.23569e-07
4.53638e-06
-8.16899e-07
3.86003e-06
-8.865e-07
1.91876e-06
-6.76642e-07
-1.32669e-06
-5.87246e-06
2.9084e-08
-2.9236e-07
4.63068e-06
-4.80255e-07
4.72427e-06
-6.30944e-07
4.01072e-06
-6.86641e-07
1.97446e-06
-4.81611e-07
-1.53172e-06
-6.57075e-06
2.16686e-07
-2.02674e-07
4.83335e-06
-3.27417e-07
4.84901e-06
-4.37064e-07
4.12037e-06
-4.85562e-07
2.02296e-06
-3.02038e-07
-1.71524e-06
-7.23383e-06
3.61036e-07
-1.06692e-07
4.94004e-06
-1.66269e-07
4.90859e-06
-2.35401e-07
4.1895e-06
-2.83088e-07
2.07065e-06
-1.39727e-07
-1.8586e-06
-7.8284e-06
4.54847e-07
-4.86694e-09
4.94491e-06
-7.86915e-11
4.9038e-06
-2.65491e-08
4.21597e-06
-7.7799e-08
2.1219e-06
-4.01648e-09
-1.93238e-06
-8.32918e-06
4.96759e-07
9.73425e-08
4.84757e-06
1.75519e-07
4.82563e-06
1.9126e-07
4.20023e-06
1.34068e-07
2.17909e-06
1.39543e-07
-1.93786e-06
-8.68055e-06
4.90917e-07
2.01933e-07
4.64563e-06
3.53003e-07
4.67456e-06
4.15685e-07
4.13755e-06
3.54404e-07
2.24037e-06
2.70255e-07
-1.85371e-06
-8.85395e-06
4.43652e-07
3.06853e-07
4.33878e-06
5.32029e-07
4.44938e-06
6.46342e-07
4.02323e-06
5.8723e-07
2.29948e-06
4.04888e-07
-1.67137e-06
-8.81777e-06
3.68711e-07
4.14525e-07
3.92426e-06
7.09454e-07
4.15445e-06
8.81377e-07
3.85131e-06
8.36231e-07
2.34463e-06
5.56344e-07
-1.39148e-06
-8.5459e-06
2.84473e-07
5.36789e-07
3.38747e-06
8.78357e-07
3.81288e-06
1.11806e-06
3.61161e-06
1.10428e-06
2.3584e-06
7.38961e-07
-1.02616e-06
-8.02063e-06
2.13692e-07
6.01849e-07
2.78562e-06
1.02485e-06
3.38988e-06
1.35228e-06
3.28418e-06
1.39345e-06
2.31724e-06
9.68559e-07
-6.01271e-07
-7.23446e-06
1.82392e-07
6.28083e-07
2.15753e-06
1.14714e-06
2.87083e-06
1.58013e-06
2.85119e-06
1.70449e-06
2.19287e-06
1.2624e-06
-1.59179e-07
-6.19058e-06
2.18512e-07
6.32655e-07
1.52488e-06
1.2434e-06
2.26008e-06
1.79706e-06
2.29754e-06
2.03523e-06
1.9547e-06
1.63752e-06
2.38533e-07
-4.91402e-06
3.60963e-07
6.15078e-07
9.09802e-07
1.30942e-06
1.56573e-06
1.99315e-06
1.61381e-06
2.38013e-06
1.56771e-06
2.1028e-06
5.15869e-07
-3.46976e-06
6.58537e-07
5.60548e-07
3.49254e-07
1.3296e-06
7.96677e-07
2.12428e-06
8.19139e-07
2.72528e-06
9.66712e-07
2.66585e-06
5.75298e-07
-1.89628e-06
1.09236e-06
3.49254e-07
1.14593e-06
1.96507e-06
2.93178e-06
3.50708e-06
1.61081e-06
-2.08252e-07
-3.7744e-06
2.71532e-06
1.3519e-06
-6.86577e-06
5.30561e-06
3.61066e-06
-1.04436e-05
8.18489e-06
6.57114e-06
-1.43797e-05
1.14193e-05
1.01689e-05
-1.85339e-05
1.49362e-05
1.42857e-05
-2.28028e-05
1.8686e-05
1.87592e-05
-2.70841e-05
2.26106e-05
2.3416e-05
-3.12868e-05
2.663e-05
2.80741e-05
-3.53214e-05
3.06633e-05
3.25323e-05
-3.90801e-05
3.4622e-05
3.66005e-05
-4.24577e-05
3.83894e-05
4.01292e-05
-4.53727e-05
4.1844e-05
4.3016e-05
-4.77648e-05
4.4878e-05
4.52954e-05
-4.9675e-05
4.73957e-05
4.70733e-05
-5.11803e-05
4.94023e-05
4.84227e-05
-5.23081e-05
5.09587e-05
4.94438e-05
-5.31151e-05
5.2094e-05
5.02248e-05
-5.36424e-05
5.28613e-05
5.08422e-05
-5.39272e-05
5.33098e-05
5.13603e-05
-5.40101e-05
5.3492e-05
5.18199e-05
-5.39097e-05
5.345e-05
5.22449e-05
-5.36155e-05
5.31905e-05
5.26438e-05
-5.30575e-05
5.26587e-05
-5.20405e-05
5.16407e-05
-1.51043e-07
-4.97459e-06
1.67799e-06
-8.6948e-06
4.2762e-06
-1.30419e-05
7.5983e-06
-1.77018e-05
1.15158e-05
-2.24514e-05
1.58416e-05
-2.71286e-05
2.03696e-05
-3.16121e-05
2.48888e-05
-3.5806e-05
2.91811e-05
-3.96137e-05
3.30544e-05
-4.29534e-05
3.6379e-05
-4.57823e-05
3.90859e-05
-4.80796e-05
4.12346e-05
-4.99135e-05
4.2927e-05
-5.13675e-05
4.42262e-05
-5.24795e-05
4.52269e-05
-5.33087e-05
4.60069e-05
-5.38951e-05
4.66328e-05
-5.42682e-05
4.71632e-05
-5.44576e-05
4.76412e-05
-5.4488e-05
4.8091e-05
-5.43595e-05
4.85246e-05
-5.4049e-05
4.89466e-05
-5.34795e-05
-5.24807e-05
-6.73384e-09
-6.28292e-06
2.08886e-06
-1.07904e-05
5.02332e-06
-1.59763e-05
8.66347e-06
-2.1342e-05
1.2798e-05
-2.6586e-05
1.7176e-05
-3.15066e-05
2.15472e-05
-3.59833e-05
2.56732e-05
-3.9932e-05
2.93626e-05
-4.33031e-05
3.25045e-05
-4.60953e-05
3.506e-05
-4.83378e-05
3.70969e-05
-5.01165e-05
3.87101e-05
-5.15267e-05
3.99607e-05
-5.26181e-05
4.09356e-05
-5.34544e-05
4.17057e-05
-5.40787e-05
4.23304e-05
-5.45198e-05
4.28615e-05
-5.47994e-05
4.33413e-05
-5.49374e-05
4.37955e-05
-5.49422e-05
4.42374e-05
-5.48014e-05
4.46721e-05
-5.44838e-05
4.5106e-05
-5.39134e-05
-5.2946e-05
2.35737e-07
-7.69696e-06
2.6013e-06
-1.31559e-05
5.83678e-06
-1.92118e-05
9.70633e-06
-2.52116e-05
1.39068e-05
-3.07864e-05
1.81292e-05
-3.57291e-05
2.21039e-05
-3.99579e-05
2.56341e-05
-4.34622e-05
2.8621e-05
-4.629e-05
3.10518e-05
-4.8526e-05
3.29935e-05
-5.02796e-05
3.45339e-05
-5.16568e-05
3.57349e-05
-5.27277e-05
3.66776e-05
-5.35607e-05
3.74268e-05
-5.42037e-05
3.80371e-05
-5.46889e-05
3.85547e-05
-5.50374e-05
3.90184e-05
-5.52631e-05
3.94563e-05
-5.53752e-05
3.98831e-05
-5.5369e-05
4.03059e-05
-5.52242e-05
4.07277e-05
-5.49056e-05
4.11581e-05
-5.43438e-05
-5.34176e-05
5.78647e-07
-9.24866e-06
3.19164e-06
-1.57689e-05
6.65842e-06
-2.26786e-05
1.06263e-05
-2.91794e-05
1.46971e-05
-3.48572e-05
1.85436e-05
-3.95756e-05
2.19485e-05
-4.33628e-05
2.48154e-05
-4.63291e-05
2.71467e-05
-4.86213e-05
2.90069e-05
-5.03862e-05
3.04772e-05
-5.17499e-05
3.16272e-05
-5.28068e-05
3.25311e-05
-5.36316e-05
3.32488e-05
-5.42785e-05
3.38308e-05
-5.47856e-05
3.43198e-05
-5.51779e-05
3.47516e-05
-5.54692e-05
3.5154e-05
-5.56655e-05
3.55448e-05
-5.5766e-05
3.59325e-05
-5.57567e-05
3.63214e-05
-5.56131e-05
3.67149e-05
-5.52991e-05
3.71247e-05
-5.47536e-05
-5.38754e-05
9.77589e-07
-1.09534e-05
3.80382e-06
-1.85952e-05
7.40816e-06
-2.62829e-05
1.13001e-05
-3.30714e-05
1.50406e-05
-3.85977e-05
1.83584e-05
-4.28934e-05
2.1142e-05
-4.61464e-05
2.33965e-05
-4.85836e-05
2.51867e-05
-5.04115e-05
2.65935e-05
-5.1793e-05
2.76922e-05
-5.28486e-05
2.85511e-05
-5.36658e-05
2.92274e-05
-5.43078e-05
2.97689e-05
-5.482e-05
3.02162e-05
-5.52329e-05
3.06027e-05
-5.55644e-05
3.09548e-05
-5.58214e-05
3.12918e-05
-5.60025e-05
3.16248e-05
-5.6099e-05
3.19593e-05
-5.60912e-05
3.22989e-05
-5.59528e-05
3.26483e-05
-5.56485e-05
3.30204e-05
-5.51257e-05
-5.43008e-05
1.39209e-06
-1.28096e-05
4.37423e-06
-2.15773e-05
7.98634e-06
-2.9895e-05
1.16237e-05
-3.67088e-05
1.48922e-05
-4.18662e-05
1.76317e-05
-4.56328e-05
1.98365e-05
-4.83512e-05
2.15731e-05
-5.03202e-05
2.29251e-05
-5.17635e-05
2.39708e-05
-5.28387e-05
2.47777e-05
-5.36555e-05
2.54026e-05
-5.42907e-05
2.58931e-05
-5.47983e-05
2.6288e-05
-5.5215e-05
2.66188e-05
-5.55637e-05
2.691e-05
-5.58556e-05
2.71804e-05
-5.60918e-05
2.7443e-05
-5.62651e-05
2.77055e-05
-5.63614e-05
2.79725e-05
-5.63583e-05
2.82483e-05
-5.62285e-05
2.85387e-05
-5.59389e-05
2.88574e-05
-5.54443e-05
-5.4677e-05
1.78064e-06
-1.47974e-05
4.84362e-06
-2.46403e-05
8.31359e-06
-3.3365e-05
1.15587e-05
-3.99539e-05
1.42965e-05
-4.4604e-05
1.64856e-05
-4.78219e-05
1.81895e-05
-5.00551e-05
1.94965e-05
-5.16273e-05
2.04894e-05
-5.27564e-05
2.12389e-05
-5.35882e-05
2.18041e-05
-5.42207e-05
2.22337e-05
-5.47203e-05
2.25666e-05
-5.51312e-05
2.28331e-05
-5.54815e-05
2.3056e-05
-5.57866e-05
2.32523e-05
-5.60519e-05
2.34349e-05
-5.62743e-05
2.36128e-05
-5.6443e-05
2.37924e-05
-5.6541e-05
2.3979e-05
-5.65449e-05
2.41779e-05
-5.64275e-05
2.43961e-05
-5.61571e-05
2.46473e-05
-5.56955e-05
-5.49895e-05
2.10452e-06
-1.68729e-05
5.15838e-06
-2.76941e-05
8.3527e-06
-3.65593e-05
1.11299e-05
-4.27311e-05
1.33458e-05
-4.68198e-05
1.50454e-05
-4.95216e-05
1.63228e-05
-5.13325e-05
1.72682e-05
-5.25726e-05
1.79582e-05
-5.34465e-05
1.84566e-05
-5.40866e-05
1.88155e-05
-5.45796e-05
1.9076e-05
-5.49808e-05
1.92691e-05
-5.53243e-05
1.94168e-05
-5.56291e-05
1.95344e-05
-5.59042e-05
1.9633e-05
-5.61505e-05
1.97207e-05
-5.6362e-05
1.98045e-05
-5.65269e-05
1.98906e-05
-5.66271e-05
1.99855e-05
-5.66398e-05
2.00959e-05
-5.65378e-05
2.02298e-05
-5.6291e-05
2.04012e-05
-5.58669e-05
-5.52262e-05
2.3353e-06
-1.89915e-05
5.28287e-06
-3.06417e-05
8.10918e-06
-3.93856e-05
1.04017e-05
-4.50236e-05
1.21379e-05
-4.8556e-05
1.34103e-05
-5.07941e-05
1.43204e-05
-5.22426e-05
1.4954e-05
-5.32063e-05
1.53818e-05
-5.38742e-05
1.56614e-05
-5.43662e-05
1.58385e-05
-5.47566e-05
1.59469e-05
-5.50892e-05
1.60099e-05
-5.53874e-05
1.60427e-05
-5.56619e-05
1.60546e-05
-5.5916e-05
1.60516e-05
-5.61475e-05
1.60388e-05
-5.63493e-05
1.60215e-05
-5.65096e-05
1.60059e-05
-5.66116e-05
1.59998e-05
-5.66336e-05
1.60112e-05
-5.65493e-05
1.60499e-05
-5.63296e-05
1.61304e-05
-5.59474e-05
-5.53774e-05
2.45981e-06
-2.10902e-05
5.20809e-06
-3.339e-05
7.621e-06
-4.17985e-05
9.44911e-06
-4.68517e-05
1.07551e-05
-4.9862e-05
1.16521e-05
-5.16911e-05
1.22397e-05
-5.28302e-05
1.25985e-05
-5.3565e-05
1.27936e-05
-5.40694e-05
1.28773e-05
-5.44498e-05
1.28885e-05
-5.47679e-05
1.28543e-05
-5.5055e-05
1.27915e-05
-5.53246e-05
1.27096e-05
-5.558e-05
1.26135e-05
-5.582e-05
1.25058e-05
-5.60398e-05
1.23889e-05
-5.62324e-05
1.22664e-05
-5.6387e-05
1.2144e-05
-5.64892e-05
1.20299e-05
-5.65195e-05
1.19338e-05
-5.64532e-05
1.18668e-05
-5.62626e-05
1.18463e-05
-5.59269e-05
-5.54367e-05
2.47691e-06
-2.31123e-05
4.95077e-06
-3.58639e-05
6.94035e-06
-4.37881e-05
8.33896e-06
-4.82503e-05
9.2594e-06
-5.07824e-05
9.82162e-06
-5.22533e-05
1.01208e-05
-5.31294e-05
1.02324e-05
-5.36765e-05
1.02164e-05
-5.40534e-05
1.01194e-05
-5.43528e-05
9.97399e-06
-5.46225e-05
9.80108e-06
-5.48821e-05
9.6123e-06
-5.51358e-05
9.41325e-06
-5.5381e-05
9.20595e-06
-5.56127e-05
8.99078e-06
-5.58247e-05
8.76805e-06
-5.60096e-05
8.53943e-06
-5.61584e-05
8.30916e-06
-5.62589e-05
8.08478e-06
-5.62951e-05
7.8764e-06
-5.62448e-05
7.69467e-06
-5.60809e-05
7.55943e-06
-5.57917e-05
-5.54009e-05
2.39283e-06
-2.50084e-05
4.54552e-06
-3.80166e-05
6.12066e-06
-4.53633e-05
7.12457e-06
-4.92542e-05
7.6965e-06
-5.13544e-05
7.95592e-06
-5.25127e-05
7.9929e-06
-5.31664e-05
7.87785e-06
-5.35615e-05
7.66596e-06
-5.38416e-05
7.39774e-06
-5.40845e-05
7.0999e-06
-5.43246e-05
6.78797e-06
-5.45702e-05
6.46983e-06
-5.48177e-05
6.14867e-06
-5.50598e-05
5.82516e-06
-5.52891e-05
5.49878e-06
-5.54983e-05
5.16893e-06
-5.56798e-05
4.83595e-06
-5.58254e-05
4.50231e-06
-5.59253e-05
4.17433e-06
-5.59671e-05
3.86403e-06
-5.59345e-05
3.58434e-06
-5.58012e-05
3.30898e-06
-5.55163e-05
-5.52501e-05
2.21744e-06
-2.67349e-05
4.02893e-06
-3.9828e-05
5.20789e-06
-4.65422e-05
5.84836e-06
-4.98947e-05
6.10167e-06
-5.16077e-05
6.08323e-06
-5.24943e-05
5.87797e-06
-5.29611e-05
5.55156e-06
-5.32351e-05
5.15396e-06
-5.3444e-05
4.71971e-06
-5.36503e-05
4.26992e-06
-5.38749e-05
3.8158e-06
-5.41161e-05
3.36245e-06
-5.43643e-05
2.91175e-06
-5.46091e-05
2.46401e-06
-5.48414e-05
2.01895e-06
-5.50532e-05
1.57647e-06
-5.52373e-05
1.13735e-06
-5.53863e-05
7.03947e-07
-5.54919e-05
2.80492e-07
-5.55437e-05
-1.23695e-07
-5.55304e-05
-4.77161e-07
-5.54478e-05
-6.90464e-07
-5.5303e-05
-5.47648e-05
1.96816e-06
-2.82594e-05
3.43539e-06
-4.12953e-05
4.23987e-06
-4.73467e-05
4.54393e-06
-5.01988e-05
4.50241e-06
-5.15662e-05
4.22542e-06
-5.22173e-05
3.79309e-06
-5.25288e-05
3.26636e-06
-5.27084e-05
2.68969e-06
-5.28673e-05
2.09175e-06
-5.30524e-05
1.48859e-06
-5.32717e-05
8.87826e-07
-5.35153e-05
2.9241e-07
-5.37689e-05
-2.96812e-07
-5.40199e-05
-8.79816e-07
-5.42584e-05
-1.45676e-06
-5.44763e-05
-2.02768e-06
-5.46664e-05
-2.59218e-06
-5.48218e-05
-3.14915e-06
-5.49349e-05
-3.69539e-06
-5.49974e-05
-4.22387e-06
-5.50019e-05
-4.73426e-06
-5.49374e-05
-5.28896e-06
-5.47483e-05
-5.43953e-05
1.66921e-06
-2.95599e-05
2.79809e-06
-4.24241e-05
3.24936e-06
-4.7798e-05
3.23868e-06
-5.01881e-05
2.92058e-06
-5.1248e-05
2.39965e-06
-5.16963e-05
1.75179e-06
-5.18809e-05
1.03252e-06
-5.19891e-05
2.81043e-07
-5.21158e-05
-4.79597e-07
-5.22917e-05
-1.23774e-06
-5.25136e-05
-1.98893e-06
-5.27641e-05
-2.73196e-06
-5.30259e-05
-3.46688e-06
-5.3285e-05
-4.1941e-06
-5.35312e-05
-4.91403e-06
-5.37563e-05
-5.62693e-06
-5.39535e-05
-6.33283e-06
-5.41159e-05
-7.03115e-06
-5.42366e-05
-7.72046e-06
-5.43081e-05
-8.39984e-06
-5.43225e-05
-9.07119e-06
-5.4266e-05
-9.71245e-06
-5.4107e-05
-5.38852e-05
1.3493e-06
-3.06247e-05
2.14851e-06
-4.32234e-05
2.26416e-06
-4.79136e-05
1.95473e-06
-4.98787e-05
1.37367e-06
-5.0667e-05
6.19232e-07
-5.09419e-05
-2.36653e-07
-5.1025e-05
-1.14157e-06
-5.10842e-05
-2.06429e-06
-5.11931e-05
-2.9867e-06
-5.13693e-05
-3.90092e-06
-5.15993e-05
-4.80474e-06
-5.18603e-05
-5.69829e-06
-5.21323e-05
-6.5823e-06
-5.2401e-05
-7.4575e-06
-5.2656e-05
-8.32439e-06
-5.28895e-05
-9.18324e-06
-5.30946e-05
-1.00338e-05
-5.32653e-05
-1.08753e-05
-5.33952e-05
-1.17055e-05
-5.34779e-05
-1.25213e-05
-5.35066e-05
-1.33157e-05
-5.34716e-05
-1.40663e-05
-5.33565e-05
-5.32335e-05
1.0414e-06
-3.14524e-05
1.51613e-06
-4.36981e-05
1.30782e-06
-4.77053e-05
7.0965e-07
-4.92805e-05
-1.27765e-07
-4.98296e-05
-1.10493e-06
-4.99647e-05
-2.16009e-06
-4.99699e-05
-3.24777e-06
-4.99965e-05
-4.33967e-06
-5.01012e-05
-5.42276e-06
-5.02862e-05
-6.49265e-06
-5.05294e-05
-7.54921e-06
-5.08037e-05
-8.59353e-06
-5.1088e-05
-9.62668e-06
-5.13678e-05
-1.06494e-05
-5.16333e-05
-1.1662e-05
-5.18768e-05
-1.26645e-05
-5.20922e-05
-1.3656e-05
-5.22738e-05
-1.4635e-05
-5.24162e-05
-1.55986e-05
-5.25144e-05
-1.65417e-05
-5.25635e-05
-1.7456e-05
-5.25574e-05
-1.83242e-05
-5.24883e-05
-5.24484e-05
7.83832e-07
-3.20539e-05
9.27823e-07
-4.38421e-05
3.99896e-07
-4.71774e-05
-4.83114e-07
-4.83975e-05
-1.56586e-06
-4.87468e-05
-2.76399e-06
-4.87666e-05
-4.01545e-06
-4.87184e-05
-5.28103e-06
-4.87309e-05
-6.53895e-06
-4.88433e-05
-7.78056e-06
-4.90446e-05
-9.00452e-06
-4.93055e-05
-1.02123e-05
-4.95959e-05
-1.14057e-05
-4.98946e-05
-1.25859e-05
-5.01877e-05
-1.37535e-05
-5.04657e-05
-1.49085e-05
-5.07218e-05
-1.60505e-05
-5.09502e-05
-1.71783e-05
-5.1146e-05
-1.82897e-05
-5.13048e-05
-1.93812e-05
-5.14229e-05
-2.04475e-05
-5.14972e-05
-2.14805e-05
-5.15244e-05
-2.24666e-05
-5.15022e-05
-5.15354e-05
6.19306e-07
-3.24547e-05
4.06914e-07
-4.36297e-05
-4.44151e-07
-4.63263e-05
-1.61061e-06
-4.7231e-05
-2.94098e-06
-4.74165e-05
-4.35432e-06
-4.73533e-05
-5.79707e-06
-4.72757e-05
-7.23632e-06
-4.72916e-05
-8.65653e-06
-4.74231e-05
-1.00536e-05
-4.76476e-05
-1.14288e-05
-4.79303e-05
-1.27849e-05
-4.82398e-05
-1.41241e-05
-4.85554e-05
-1.54477e-05
-4.88641e-05
-1.67561e-05
-4.91574e-05
-1.8049e-05
-4.94289e-05
-1.93256e-05
-4.96735e-05
-2.05846e-05
-4.9887e-05
-2.18234e-05
-5.0066e-05
-2.30384e-05
-5.02079e-05
-2.42245e-05
-5.03111e-05
-2.53743e-05
-5.03745e-05
-2.64771e-05
-5.03995e-05
-5.04987e-05
5.92155e-07
-3.26859e-05
-2.42996e-08
-4.30132e-05
-1.21446e-06
-4.51362e-05
-2.67121e-06
-4.57743e-05
-4.24786e-06
-4.58398e-05
-5.87316e-06
-4.5728e-05
-7.50214e-06
-4.56467e-05
-9.10994e-06
-4.56838e-05
-1.06878e-05
-4.58452e-05
-1.2236e-05
-4.60994e-05
-1.37584e-05
-4.64079e-05
-1.52587e-05
-4.67394e-05
-1.67395e-05
-4.70746e-05
-1.82018e-05
-4.74018e-05
-1.9646e-05
-4.77132e-05
-2.10717e-05
-4.80032e-05
-2.24779e-05
-4.82673e-05
-2.3863e-05
-4.85019e-05
-2.52245e-05
-4.87044e-05
-2.6559e-05
-4.88735e-05
-2.78614e-05
-4.90087e-05
-2.91256e-05
-4.91103e-05
-3.03424e-05
-4.91828e-05
-4.93427e-05
7.31883e-07
-3.27592e-05
-3.47609e-07
-4.19337e-05
-1.90624e-06
-4.35775e-05
-3.66412e-06
-4.40164e-05
-5.48811e-06
-4.40158e-05
-7.32096e-06
-4.38951e-05
-9.12966e-06
-4.3838e-05
-1.08995e-05
-4.3914e-05
-1.2629e-05
-4.41157e-05
-1.43229e-05
-4.44054e-05
-1.59873e-05
-4.47436e-05
-1.76265e-05
-4.51002e-05
-1.92433e-05
-4.54578e-05
-2.08389e-05
-4.58062e-05
-2.24133e-05
-4.61387e-05
-2.39662e-05
-4.64503e-05
-2.54965e-05
-4.6737e-05
-2.70027e-05
-4.69958e-05
-2.84822e-05
-4.72249e-05
-2.99318e-05
-4.74239e-05
-3.13469e-05
-4.75935e-05
-3.2722e-05
-4.77353e-05
-3.40492e-05
-4.78555e-05
-4.80721e-05
1.15134e-06
-3.28182e-05
-5.43215e-07
-4.02392e-05
-2.53132e-06
-4.15894e-05
-4.60165e-06
-4.19461e-05
-6.66978e-06
-4.19477e-05
-8.70161e-06
-4.18633e-05
-1.06805e-05
-4.18591e-05
-1.26036e-05
-4.19909e-05
-1.44772e-05
-4.22421e-05
-1.631e-05
-4.25726e-05
-1.81098e-05
-4.29438e-05
-1.98816e-05
-4.33284e-05
-2.16282e-05
-4.37112e-05
-2.33507e-05
-4.40837e-05
-2.50492e-05
-4.44402e-05
-2.67233e-05
-4.47762e-05
-2.8372e-05
-4.50883e-05
-2.99936e-05
-4.53741e-05
-3.15861e-05
-4.56324e-05
-3.31461e-05
-4.58639e-05
-3.46695e-05
-4.60701e-05
-3.61512e-05
-4.62536e-05
-3.75846e-05
-4.64221e-05
-4.66915e-05
2.25716e-06
-3.34645e-05
-6.53911e-07
-3.73281e-05
-3.14039e-06
-3.91029e-05
-5.51297e-06
-3.95735e-05
-7.80756e-06
-3.96531e-05
-1.00216e-05
-3.96493e-05
-1.21565e-05
-3.97242e-05
-1.42216e-05
-3.99257e-05
-1.623e-05
-4.02338e-05
-1.81934e-05
-4.06092e-05
-2.01209e-05
-4.10163e-05
-2.2018e-05
-4.14313e-05
-2.38872e-05
-4.1842e-05
-2.57297e-05
-4.22413e-05
-2.75455e-05
-4.26243e-05
-2.93343e-05
-4.29874e-05
-3.10951e-05
-4.33275e-05
-3.28265e-05
-4.36427e-05
-3.45262e-05
-4.39326e-05
-3.61914e-05
-4.41987e-05
-3.78179e-05
-4.44435e-05
-3.94012e-05
-4.46703e-05
-4.0936e-05
-4.48873e-05
-4.52061e-05
-1.99838e-07
1.99838e-07
-2.84374e-07
8.45369e-08
-1.66044e-07
-1.1833e-07
3.07205e-07
-4.7325e-07
2.56667e-06
-2.25946e-06
-5.01196e-06
7.57863e-06
-1.69927e-07
3.69765e-07
-1.64727e-07
7.93369e-08
5.52336e-08
-3.38291e-07
7.03103e-07
-1.12112e-06
2.00677e-06
-3.56313e-06
-7.47418e-06
4.46898e-06
-1.22704e-07
4.92468e-07
-6.90649e-08
2.56983e-08
1.72518e-07
-5.79873e-07
7.6953e-07
-1.71813e-06
1.64752e-06
-4.44112e-06
-8.57844e-06
2.75179e-06
-7.65769e-08
5.69045e-07
-4.35845e-09
-4.65201e-08
2.21534e-07
-8.05766e-07
6.86202e-07
-2.1828e-06
1.2092e-06
-4.96412e-06
-8.90388e-06
1.53463e-06
-3.61634e-08
6.05208e-07
3.63887e-08
-1.19072e-07
2.15365e-07
-9.84743e-07
5.15788e-07
-2.48322e-06
7.16955e-07
-5.16528e-06
-8.71737e-06
5.30453e-07
-3.06204e-09
6.0827e-07
5.52847e-08
-1.77419e-07
1.70082e-07
-1.09954e-06
2.9964e-07
-2.61278e-06
2.20451e-07
-5.08609e-06
-8.17457e-06
-3.2235e-07
1.64735e-08
5.91797e-07
5.74751e-08
-2.18421e-07
1.00351e-07
-1.14242e-06
6.70877e-08
-2.57952e-06
-2.5129e-07
-4.76772e-06
-7.37829e-06
-1.04757e-06
2.88651e-08
5.62932e-07
4.7891e-08
-2.37446e-07
1.91421e-08
-1.11367e-06
-1.59685e-07
-2.40069e-06
-6.75255e-07
-4.25215e-06
-6.38429e-06
-1.66925e-06
3.44073e-08
5.28525e-07
3.13881e-08
-2.34427e-07
-6.33392e-08
-1.01894e-06
-3.64797e-07
-2.09923e-06
-1.03697e-06
-3.57998e-06
-5.2428e-06
-2.17846e-06
3.51404e-08
4.93384e-07
1.25354e-08
-2.11822e-07
-1.37362e-07
-8.69043e-07
-5.36055e-07
-1.70054e-06
-1.32705e-06
-2.78898e-06
-3.99408e-06
-2.57576e-06
3.31419e-08
4.60242e-07
-4.78291e-09
-1.73897e-07
-1.96035e-07
-6.77791e-07
-6.64639e-07
-1.23193e-06
-1.53892e-06
-1.9147e-06
-2.67144e-06
-2.86156e-06
3.0188e-08
4.30054e-07
-1.72379e-08
-1.26471e-07
-2.34335e-07
-4.60694e-07
-7.44589e-07
-7.21679e-07
-1.66826e-06
-9.91034e-07
-1.30391e-06
-3.03578e-06
2.76014e-08
4.02453e-07
-2.30805e-08
-7.57895e-08
-2.49217e-07
-2.34557e-07
-7.72414e-07
-1.98482e-07
-1.71242e-06
-5.10325e-08
8.15508e-08
-3.09788e-06
2.6219e-08
3.76234e-07
-2.12922e-08
-2.82782e-08
-2.39622e-07
-1.62275e-08
-7.46925e-07
3.0882e-07
-1.67017e-06
8.72216e-07
1.45812e-06
-3.04674e-06
2.63905e-08
3.49843e-07
-1.20638e-08
1.01761e-08
-2.06477e-07
1.78186e-07
-6.69173e-07
7.71517e-07
-1.54166e-06
1.74471e-06
2.79711e-06
-2.88065e-06
2.80332e-08
3.2181e-07
3.34105e-09
3.48682e-08
-1.52718e-07
3.34245e-07
-5.42619e-07
1.16142e-06
-1.32858e-06
2.53067e-06
4.06557e-06
-2.59705e-06
3.07438e-08
2.91066e-07
2.27086e-08
4.29035e-08
-8.3313e-08
4.40267e-07
-3.735e-07
1.4516e-06
-1.0347e-06
3.19187e-06
5.2231e-06
-2.19223e-06
3.39492e-08
2.57117e-07
4.30567e-08
3.3796e-08
-4.43838e-09
4.87762e-07
-1.71373e-07
1.61854e-06
-6.66954e-07
3.68745e-06
6.21712e-06
-1.66098e-06
3.7096e-08
2.20021e-07
6.0821e-08
1.0071e-08
7.27831e-08
4.758e-07
4.87954e-08
1.64253e-06
-2.34743e-07
3.97099e-06
6.98056e-06
-9.98183e-07
3.98497e-08
1.80172e-07
7.23466e-08
-2.24259e-08
1.3932e-07
4.08827e-07
2.72478e-07
1.50937e-06
2.45122e-07
3.99835e-06
7.45547e-06
-2.29793e-07
4.22625e-08
1.37909e-07
7.41098e-08
-5.42732e-08
1.82378e-07
3.00558e-07
4.69572e-07
1.22217e-06
7.35018e-07
3.7329e-06
7.43826e-06
7.52232e-07
4.467e-08
9.32391e-08
6.28912e-08
-7.24944e-08
1.88545e-07
1.74905e-07
6.04805e-07
8.05914e-07
1.20852e-06
3.12919e-06
6.63935e-06
2.00742e-06
4.71252e-08
4.61139e-08
3.44602e-08
-5.98294e-08
1.45544e-07
6.38206e-08
6.17806e-07
3.33653e-07
1.67022e-06
2.07678e-06
4.49614e-06
3.81342e-06
4.61139e-08
-1.37155e-08
5.01051e-08
3.83758e-07
2.46054e-06
6.95668e-06
2.46793e-06
-2.83538e-05
-9.4866e-07
-3.39115e-05
-3.81245e-06
-3.62392e-05
-6.43417e-06
-3.69518e-05
-8.91734e-06
-3.71699e-05
-1.12869e-05
-3.72797e-05
-1.35591e-05
-3.7452e-05
-1.57524e-05
-3.77324e-05
-1.78844e-05
-3.81017e-05
-1.9969e-05
-3.85246e-05
-2.20157e-05
-3.89696e-05
-2.40297e-05
-3.94173e-05
-2.60137e-05
-3.9858e-05
-2.79686e-05
-4.02864e-05
-2.98945e-05
-4.06984e-05
-3.1791e-05
-4.10909e-05
-3.36573e-05
-4.14612e-05
-3.5492e-05
-4.18081e-05
-3.72929e-05
-4.21317e-05
-3.90571e-05
-4.24345e-05
-4.07809e-05
-4.27197e-05
-4.24602e-05
-4.29909e-05
-4.4091e-05
-4.32566e-05
-4.36214e-05
1.39345e-06
-2.52783e-05
-1.67064e-06
-3.08474e-05
-4.61681e-06
-3.3293e-05
-7.38527e-06
-3.41833e-05
-1.00055e-05
-3.45497e-05
-1.24988e-05
-3.47863e-05
-1.48872e-05
-3.50637e-05
-1.71934e-05
-3.54262e-05
-1.94371e-05
-3.5858e-05
-2.16325e-05
-3.63292e-05
-2.37889e-05
-3.68132e-05
-2.59111e-05
-3.72951e-05
-2.80014e-05
-3.77678e-05
-3.00606e-05
-3.82272e-05
-3.20888e-05
-3.86702e-05
-3.40857e-05
-3.9094e-05
-3.60503e-05
-3.94966e-05
-3.79814e-05
-3.9877e-05
-3.98767e-05
-4.02364e-05
-4.17333e-05
-4.05779e-05
-4.35478e-05
-4.09052e-05
-4.5317e-05
-4.12217e-05
-4.70381e-05
-4.15355e-05
-4.19431e-05
4.04727e-07
-2.29313e-05
-2.53643e-06
-2.79063e-05
-5.50396e-06
-3.03255e-05
-8.35146e-06
-3.13358e-05
-1.1064e-05
-3.18372e-05
-1.3652e-05
-3.21983e-05
-1.61364e-05
-3.25793e-05
-1.85405e-05
-3.30221e-05
-2.08837e-05
-3.35149e-05
-2.31792e-05
-3.40337e-05
-2.54353e-05
-3.45571e-05
-2.76562e-05
-3.50742e-05
-2.98437e-05
-3.55802e-05
-3.19987e-05
-3.60722e-05
-3.41211e-05
-3.65478e-05
-3.62105e-05
-3.70046e-05
-3.8266e-05
-3.74411e-05
-4.0286e-05
-3.7857e-05
-4.22683e-05
-3.82541e-05
-4.42102e-05
-3.86361e-05
-4.61085e-05
-3.90068e-05
-4.7961e-05
-3.93693e-05
-4.97662e-05
-3.97303e-05
-4.01773e-05
-6.51823e-07
-2.07448e-05
-3.46404e-06
-2.50941e-05
-6.41824e-06
-2.73713e-05
-9.30451e-06
-2.84495e-05
-1.20775e-05
-2.90642e-05
-1.4737e-05
-2.95389e-05
-1.73002e-05
-3.00161e-05
-1.97884e-05
-3.05339e-05
-2.22189e-05
-3.10843e-05
-2.46036e-05
-3.1649e-05
-2.69491e-05
-3.22116e-05
-2.92589e-05
-3.27644e-05
-3.15345e-05
-3.33046e-05
-3.37764e-05
-3.38303e-05
-3.59844e-05
-3.43397e-05
-3.81581e-05
-3.4831e-05
-4.02963e-05
-3.53029e-05
-4.23974e-05
-3.57559e-05
-4.44591e-05
-3.61924e-05
-4.64787e-05
-3.66165e-05
-4.84536e-05
-3.70319e-05
-5.0382e-05
-3.74409e-05
-5.22636e-05
-3.78487e-05
-3.83291e-05
-1.62967e-06
-1.85847e-05
-4.37735e-06
-2.23464e-05
-7.31169e-06
-2.44369e-05
-1.0216e-05
-2.55453e-05
-1.3029e-05
-2.62511e-05
-1.57429e-05
-2.6825e-05
-1.83708e-05
-2.73882e-05
-2.09306e-05
-2.79741e-05
-2.34371e-05
-2.85778e-05
-2.59e-05
-2.91861e-05
-2.83246e-05
-2.97869e-05
-3.07134e-05
-3.03756e-05
-3.30675e-05
-3.09506e-05
-3.5387e-05
-3.15108e-05
-3.76717e-05
-3.2055e-05
-3.99209e-05
-3.25818e-05
-4.21334e-05
-3.30904e-05
-4.43074e-05
-3.35819e-05
-4.64405e-05
-3.40592e-05
-4.85303e-05
-3.45267e-05
-5.05747e-05
-3.49876e-05
-5.25721e-05
-3.54435e-05
-5.45221e-05
-3.58987e-05
-3.64058e-05
-2.50584e-06
-1.64012e-05
-5.23179e-06
-1.96204e-05
-8.15052e-06
-2.15182e-05
-1.10629e-05
-2.26329e-05
-1.39034e-05
-2.34107e-05
-1.66594e-05
-2.4069e-05
-1.93402e-05
-2.47074e-05
-2.19606e-05
-2.53538e-05
-2.45323e-05
-2.60061e-05
-2.70629e-05
-2.66555e-05
-2.95562e-05
-2.72936e-05
-3.2014e-05
-2.79178e-05
-3.44367e-05
-2.85279e-05
-3.68244e-05
-2.91232e-05
-3.91764e-05
-2.97029e-05
-4.14921e-05
-3.02661e-05
-4.37699e-05
-3.08126e-05
-4.60079e-05
-3.13438e-05
-4.82041e-05
-3.18631e-05
-5.03563e-05
-3.23745e-05
-5.24631e-05
-3.28808e-05
-5.45236e-05
-3.33831e-05
-5.65367e-05
-3.38855e-05
-3.44181e-05
-3.28212e-06
-1.41666e-05
-6.00371e-06
-1.68988e-05
-8.91184e-06
-1.86101e-05
-1.18282e-05
-1.97165e-05
-1.46882e-05
-2.05507e-05
-1.74771e-05
-2.12801e-05
-2.02013e-05
-2.19831e-05
-2.28721e-05
-2.26829e-05
-2.54987e-05
-2.33795e-05
-2.80867e-05
-2.40675e-05
-3.06386e-05
-2.47416e-05
-3.31553e-05
-2.54012e-05
-3.56369e-05
-2.60463e-05
-3.8083e-05
-2.66771e-05
-4.04929e-05
-2.7293e-05
-4.28655e-05
-2.78935e-05
-4.51992e-05
-2.84789e-05
-4.74922e-05
-2.90508e-05
-4.97427e-05
-2.96126e-05
-5.19492e-05
-3.01679e-05
-5.41112e-05
-3.07188e-05
-5.62282e-05
-3.12661e-05
-5.82999e-05
-3.18138e-05
-3.23761e-05
-3.95249e-06
-1.18834e-05
-6.67826e-06
-1.41731e-05
-9.58033e-06
-1.5708e-05
-1.24992e-05
-1.67976e-05
-1.53736e-05
-1.76763e-05
-1.81883e-05
-1.84654e-05
-2.09474e-05
-1.9224e-05
-2.36595e-05
-1.99709e-05
-2.63312e-05
-2.07078e-05
-2.89666e-05
-2.1432e-05
-3.15671e-05
-2.21412e-05
-3.41327e-05
-2.28355e-05
-3.66633e-05
-2.35158e-05
-3.91581e-05
-2.41822e-05
-4.16163e-05
-2.48348e-05
-4.40365e-05
-2.54734e-05
-4.64169e-05
-2.60984e-05
-4.87559e-05
-2.67118e-05
-5.1052e-05
-2.73165e-05
-5.33047e-05
-2.79153e-05
-5.55138e-05
-2.85097e-05
-5.76798e-05
-2.91001e-05
-5.98034e-05
-2.96902e-05
-3.02878e-05
-4.51062e-06
-9.55124e-06
-7.24596e-06
-1.14377e-05
-1.01458e-05
-1.28081e-05
-1.30668e-05
-1.38766e-05
-1.59521e-05
-1.4791e-05
-1.87867e-05
-1.56308e-05
-2.15731e-05
-1.64376e-05
-2.43177e-05
-1.72263e-05
-2.70252e-05
-1.80003e-05
-2.96983e-05
-1.87589e-05
-3.23375e-05
-1.9502e-05
-3.49423e-05
-2.02307e-05
-3.7512e-05
-2.0946e-05
-4.0046e-05
-2.16483e-05
-4.2543e-05
-2.23378e-05
-4.50014e-05
-2.3015e-05
-4.74194e-05
-2.36803e-05
-4.97957e-05
-2.43356e-05
-5.21291e-05
-2.49831e-05
-5.44195e-05
-2.56248e-05
-5.66675e-05
-2.62617e-05
-5.88735e-05
-2.68941e-05
-6.10388e-05
-2.75249e-05
-2.81598e-05
-4.95284e-06
-7.17415e-06
-7.70083e-06
-8.68974e-06
-1.06017e-05
-9.90728e-06
-1.35251e-05
-1.09532e-05
-1.64185e-05
-1.18977e-05
-1.92676e-05
-1.27817e-05
-2.20742e-05
-1.3631e-05
-2.48429e-05
-1.44576e-05
-2.75772e-05
-1.52661e-05
-3.02785e-05
-1.60576e-05
-3.29465e-05
-1.6834e-05
-3.55806e-05
-1.75967e-05
-3.81798e-05
-1.83467e-05
-4.07433e-05
-1.90848e-05
-4.32695e-05
-1.98116e-05
-4.57569e-05
-2.05275e-05
-4.82037e-05
-2.12335e-05
-5.06086e-05
-2.19308e-05
-5.29708e-05
-2.26209e-05
-5.52906e-05
-2.3305e-05
-5.75687e-05
-2.39836e-05
-5.98057e-05
-2.46571e-05
-6.20026e-05
-2.5328e-05
-2.60002e-05
-5.27735e-06
-4.75837e-06
-8.03957e-06
-5.92751e-06
-1.09441e-05
-7.00274e-06
-1.38702e-05
-8.02707e-06
-1.67692e-05
-8.99871e-06
-1.9628e-05
-9.9229e-06
-2.24478e-05
-1.08112e-05
-2.52324e-05
-1.16729e-05
-2.79844e-05
-1.2514e-05
-3.07044e-05
-1.33377e-05
-3.33915e-05
-1.41469e-05
-3.6045e-05
-1.49432e-05
-3.8664e-05
-1.57277e-05
-4.12473e-05
-1.65016e-05
-4.37933e-05
-1.72655e-05
-4.63005e-05
-1.80204e-05
-4.87669e-05
-1.87671e-05
-5.11915e-05
-1.95062e-05
-5.35739e-05
-2.02385e-05
-5.59146e-05
-2.09644e-05
-5.8214e-05
-2.16842e-05
-6.04724e-05
-2.23986e-05
-6.26914e-05
-2.3109e-05
-2.38176e-05
-5.48334e-06
-2.31082e-06
-8.26065e-06
-3.1502e-06
-1.11712e-05
-4.09219e-06
-1.41003e-05
-5.09798e-06
-1.70024e-05
-6.09657e-06
-1.98659e-05
-7.05945e-06
-2.26921e-05
-7.98505e-06
-2.54844e-05
-8.88052e-06
-2.82451e-05
-9.75332e-06
-3.09742e-05
-1.06087e-05
-3.36708e-05
-1.14503e-05
-3.6334e-05
-1.228e-05
-3.89628e-05
-1.30989e-05
-4.15561e-05
-1.39082e-05
-4.41124e-05
-1.47092e-05
-4.66299e-05
-1.5503e-05
-4.91068e-05
-1.62901e-05
-5.15422e-05
-1.70708e-05
-5.39358e-05
-1.78448e-05
-5.62881e-05
-1.8612e-05
-5.85998e-05
-1.93726e-05
-6.08714e-05
-2.0127e-05
-6.3104e-05
-2.08764e-05
-2.16218e-05
-5.57059e-06
1.61899e-07
-8.36387e-06
-3.56917e-07
-1.12827e-05
-1.17332e-06
-1.42151e-05
-2.16562e-06
-1.71179e-05
-3.19375e-06
-1.9981e-05
-4.19633e-06
-2.28066e-05
-5.15946e-06
-2.55985e-05
-6.08868e-06
-2.83587e-05
-6.99311e-06
-3.10873e-05
-7.88008e-06
-3.37835e-05
-8.75409e-06
-3.64465e-05
-9.61695e-06
-3.90754e-05
-1.047e-05
-4.1669e-05
-1.13146e-05
-4.42259e-05
-1.21524e-05
-4.67443e-05
-1.29847e-05
-4.92224e-05
-1.38119e-05
-5.16596e-05
-1.46337e-05
-5.40555e-05
-1.54489e-05
-5.64107e-05
-1.62568e-05
-5.87258e-05
-1.70575e-05
-6.10012e-05
-1.78517e-05
-6.32378e-05
-1.86398e-05
-1.94215e-05
-5.53911e-06
2.65427e-06
-8.34997e-06