/*--------------------------------*- C++ -*----------------------------------*\
  =========                 |
  \\      /  F ield         | OpenFOAM: The Open Source CFD Toolbox
   \\    /   O peration     | Website:  https://openfoam.org
    \\  /    A nd           | Version:  11
     \\/     M anipulation  |
\*---------------------------------------------------------------------------*/
FoamFile
{
    format      ascii;
    class       volVectorField;
    location    "0.62";
    object      U;
}
// * * * * * * * * * * * * * * * * * * * * * * * * * * * * * * * * * * * * * //

dimensions      [0 1 -1 0 0 0 0];

internalField   nonuniform List<vector> 
2880
(
(-0.0484636 0.00831501 3.6341e-20)
(-0.126535 -0.0271526 -4.50518e-19)
(-0.206554 -0.0828942 0)
(-0.231613 -0.10167 2.40235e-19)
(-0.224004 -0.0923972 0)
(-0.159878 -0.0391421 0)
(-0.089487 -0.00295485 0)
(-0.175263 -0.047125 4.03779e-19)
(-0.230533 -0.087095 -3.599e-20)
(-0.237983 -0.0993268 -1.9702e-19)
(-0.211887 -0.0951691 4.05822e-20)
(-0.142356 -0.0646561 -3.49208e-20)
(-0.11149 -0.00680945 0)
(-0.195436 -0.0466944 0)
(-0.235999 -0.0814747 0)
(-0.231079 -0.0961953 2.39283e-19)
(-0.189989 -0.0966859 -1.92195e-19)
(-0.114643 -0.0828896 0)
(-0.13035 -0.0105752 0)
(-0.210551 -0.0443141 -3.66253e-19)
(-0.239172 -0.0746382 1.65222e-20)
(-0.222498 -0.0912942 0)
(-0.168839 -0.0965091 2.02278e-19)
(-0.0846877 -0.0919049 -6.56538e-20)
(-0.150641 -0.0135487 -1.31602e-20)
(-0.223203 -0.0426955 8.82282e-21)
(-0.241082 -0.0679662 0)
(-0.213848 -0.0856451 -2.02861e-19)
(-0.148569 -0.0943626 0)
(-0.0523279 -0.0947201 1.35467e-19)
(-0.173327 -0.0126339 7.60401e-21)
(-0.232718 -0.0405997 1.73768e-20)
(-0.241797 -0.0615294 -1.53977e-20)
(-0.205244 -0.0792958 -3.63896e-21)
(-0.128686 -0.0900222 0)
(-0.0180975 -0.0922984 -1.34335e-19)
(-0.190713 -0.0108149 1.65778e-20)
(-0.239284 -0.0370316 6.10681e-19)
(-0.241621 -0.0550761 -2.43803e-19)
(-0.196851 -0.0721006 3.9928e-19)
(-0.109081 -0.0834787 1.69401e-19)
(0.0175894 -0.0856037 -3.30146e-20)
(-0.203611 -0.00976665 0)
(-0.244001 -0.0327789 -3.04543e-19)
(-0.240832 -0.0479595 1.33086e-19)
(-0.188948 -0.0639354 -8.57143e-20)
(-0.0900063 -0.0748605 -1.90696e-19)
(0.0539856 -0.0754738 -3.40091e-20)
(-0.21519 -0.00808838 2.64452e-19)
(-0.247373 -0.0278978 -9.50192e-21)
(-0.23981 -0.0401021 5.9548e-21)
(-0.181884 -0.0547344 -1.01221e-19)
(-0.0719767 -0.0643582 0)
(0.090105 -0.0626037 1.7521e-20)
(-0.224744 -0.00630904 -2.68467e-19)
(-0.249648 -0.0223271 -1.42838e-19)
(-0.238858 -0.0314217 9.79643e-20)
(-0.176043 -0.0444882 1.29821e-20)
(-0.0556789 -0.0521855 9.05256e-20)
(0.124703 -0.0474771 1.80248e-20)
(-0.231821 -0.00460826 0)
(-0.251009 -0.0159922 1.52066e-19)
(-0.238247 -0.021858 -7.69541e-21)
(-0.171829 -0.0332295 -6.51257e-21)
(-0.0418777 -0.0385079 -7.94637e-20)
(0.156423 -0.0305591 9.25051e-21)
(-0.236221 -0.0029399 0)
(-0.251621 -0.00884858 0)
(-0.238208 -0.0113878 1.56107e-20)
(-0.169645 -0.0210374 6.69648e-21)
(-0.0314194 -0.0235303 -1.16974e-20)
(0.184124 -0.0123929 5.19806e-21)
(-0.237809 -0.00113976 0)
(-0.251648 -0.000888023 -7.68788e-23)
(-0.238918 -3.98217e-05 -3.14598e-20)
(-0.169856 -0.00801873 0)
(-0.0252925 -0.00752167 0)
(0.206772 0.00635837 -1.51048e-22)
(-0.236578 0.0011042 4.30459e-21)
(-0.25108 0.00786014 -2.47243e-21)
(-0.240492 0.0120759 1.99823e-20)
(-0.172803 0.00573022 5.32107e-20)
(-0.0242216 0.00914761 0)
(0.222952 0.0248551 0)
(-0.232577 0.00415296 0)
(-0.249882 0.0173226 -1.60645e-19)
(-0.243007 0.0248348 -1.22337e-19)
(-0.178623 0.0199384 -6.43429e-20)
(-0.0287428 0.0262802 0)
(0.231334 0.0423536 0)
(-0.22633 0.00871278 0)
(-0.248104 0.0272668 1.64271e-19)
(-0.246388 0.0381083 2.48829e-19)
(-0.187317 0.0343282 1.44715e-20)
(-0.039648 0.0436833 1.0239e-19)
(0.230977 0.0580546 -9.06273e-20)
(-0.220353 0.0162972 0)
(-0.24584 0.0373491 -1.07241e-20)
(-0.250503 0.0516132 -1.09784e-19)
(-0.198647 0.0486131 -1.47524e-20)
(-0.0574862 0.0611498 -1.29385e-19)
(0.221052 0.0710691 9.42409e-20)
(-0.20758 0.0361059 8.07595e-21)
(-0.242785 0.0462292 -3.40427e-19)
(-0.254982 0.0650128 2.7854e-19)
(-0.212065 0.0625416 0)
(-0.0824345 0.0784783 0)
(0.2009 0.0805519 0)
(-0.191849 0.041428 0)
(-0.237449 0.0516757 3.45109e-19)
(-0.258901 0.0778974 -2.66176e-19)
(-0.22681 0.0759954 -1.54451e-20)
(-0.114211 0.0955276 0)
(0.169994 0.0858737 4.05921e-20)
(-0.174053 0.0387303 4.41893e-19)
(-0.228808 0.0549272 -3.76115e-19)
(-0.261227 0.0903336 1.77581e-20)
(-0.241771 0.0891215 0)
(-0.152239 0.112346 0)
(0.128204 0.0867665 -1.72447e-19)
(-0.151287 0.0369955 -4.50681e-19)
(-0.215865 0.0570926 7.52725e-19)
(-0.26112 0.102565 -5.74441e-20)
(-0.255567 0.102277 3.28171e-20)
(-0.195316 0.129264 6.00397e-20)
(0.0752261 0.0833021 2.04027e-19)
(-0.130037 0.0336447 0)
(-0.198904 0.0580445 -3.84268e-19)
(-0.257712 0.114262 3.22628e-19)
(-0.267163 0.115214 2.84246e-19)
(-0.241636 0.147506 -6.4021e-20)
(0.0105751 0.0741562 5.53807e-20)
(-0.106692 0.0276612 -5.24153e-19)
(-0.176266 0.0563612 -1.27929e-20)
(-0.248877 0.123597 -3.44124e-19)
(-0.273524 0.122906 -3.00046e-19)
(-0.292152 0.172195 0)
(-0.059508 0.0505319 -4.20061e-20)
(-0.0593302 0.00673893 6.31396e-19)
(-0.12751 0.0357845 -2.67481e-20)
(-0.216466 0.11779 4.09228e-19)
(-0.241806 0.114683 1.98736e-19)
(-0.341079 0.227692 3.53201e-19)
(-0.0908427 0.0411864 0)
(-0.0641899 -0.00668085 0)
(0.0365566 0.00299348 9.85687e-20)
(0.161096 0.0207216 2.24607e-21)
(0.302319 0.0397025 0)
(0.454777 0.0588115 0)
(0.612969 0.0755259 -2.53048e-20)
(0.770826 0.0875141 2.35696e-20)
(0.922681 0.0931939 -4.47945e-20)
(1.06447 0.0915906 0)
(1.19158 0.0825195 -4.23114e-20)
(1.29931 0.0665835 4.92065e-20)
(1.38441 0.045231 7.93679e-20)
(1.44517 0.020717 -2.09305e-21)
(1.48051 -0.00628314 -3.6577e-20)
(1.49833 -0.0317549 -4.76921e-20)
(1.50017 -0.0555128 2.89936e-20)
(1.48989 -0.0760714 0)
(1.47036 -0.0924546 -1.83923e-20)
(1.44379 -0.104177 2.85788e-20)
(1.41228 -0.111126 -2.24079e-20)
(1.37701 -0.113398 1.28622e-20)
(1.33839 -0.110452 -1.22772e-20)
(1.29653 -0.0994401 -8.1397e-21)
(1.24813 -0.0748013 1.29767e-20)
(-0.0394634 -0.0369157 3.21502e-20)
(0.0818353 -0.0199756 -5.05444e-20)
(0.231852 0.00326677 1.30583e-19)
(0.397432 0.0282466 -6.19784e-20)
(0.57025 0.0535322 2.29591e-20)
(0.74191 0.075986 0)
(0.905197 0.0928592 -4.41221e-20)
(1.05505 0.10225 8.63331e-20)
(1.18656 0.103299 0)
(1.29536 0.0960555 4.24288e-20)
(1.37907 0.0816367 0)
(1.43754 0.062266 2.58958e-20)
(1.47153 0.0387801 -5.25729e-20)
(1.48906 0.0154454 -2.2016e-20)
(1.49173 -0.00770395 4.94123e-20)
(1.48332 -0.028859 1.62689e-20)
(1.46652 -0.0470084 -1.27487e-20)
(1.44323 -0.0615108 1.37364e-20)
(1.41515 -0.0719772 8.02693e-22)
(1.38367 -0.078348 1.57948e-21)
(1.34915 -0.0805642 -1.35517e-20)
(1.31154 -0.0778693 2.11695e-20)
(1.27057 -0.0670852 2.69418e-20)
(1.22271 -0.0438362 -1.83722e-20)
(-0.00616995 -0.060795 -1.81247e-19)
(0.139575 -0.0376064 5.17623e-20)
(0.316339 -0.00718229 -2.07681e-20)
(0.505479 0.0258606 3.12478e-20)
(0.694379 0.0586911 -2.40013e-20)
(0.87281 0.0870801 0)
(1.03367 0.107781 -3.86651e-20)
(1.17167 0.118992 3.61636e-20)
(1.28304 0.120252 -2.93957e-20)
(1.36663 0.112457 0)
(1.42417 0.0979527 -4.51299e-20)
(1.45784 0.0779927 -3.2356e-21)
(1.47548 0.0568132 2.14458e-20)
(1.4791 0.0347092 -3.79371e-20)
(1.47243 0.0135733 7.62794e-21)
(1.45811 -0.0055767 0)
(1.43796 -0.0220123 0)
(1.41335 -0.0352306 -1.618e-21)
(1.38546 -0.0448948 -6.29113e-21)
(1.35497 -0.0509399 2.86633e-20)
(1.32168 -0.0532331 -1.42258e-21)
(1.28521 -0.0508734 -6.48372e-20)
(1.24518 -0.0404802 3.20352e-20)
(1.19805 -0.0188562 -8.15129e-21)
(0.0371663 -0.0754913 1.34247e-19)
(0.210299 -0.0465294 6.08847e-21)
(0.4139 -0.00778327 2.13903e-20)
(0.622942 0.0346589 0)
(0.821338 0.0747978 0)
(0.997909 0.107523 -3.74427e-20)
(1.14611 0.129404 0)
(1.2629 0.139381 2.6695e-20)
(1.34864 0.138268 5.13732e-20)
(1.40674 0.128512 0)
(1.44137 0.112271 6.14176e-21)
(1.45957 0.0932821 2.47112e-20)
(1.46428 0.0725077 2.73808e-21)
(1.45922 0.0518124 -1.71504e-20)
(1.44704 0.0322517 4.84978e-21)
(1.42961 0.0145902 5.21096e-21)
(1.40818 -0.000594406 -1.85575e-20)
(1.38366 -0.0129002 1.06471e-20)
(1.35677 -0.0220332 5.41851e-21)
(1.32758 -0.0279203 -6.62565e-21)
(1.29557 -0.0304094 -3.26994e-20)
(1.26018 -0.0284963 3.81717e-20)
(1.22107 -0.018693 1.37327e-20)
(1.17486 0.00112813 1.03795e-20)
(0.0888439 -0.0807825 -1.91067e-19)
(0.292136 -0.04518 3.08546e-20)
(0.520946 0.00308779 -7.87718e-20)
(0.744278 0.0545723 2.66162e-20)
(0.94337 0.100227 -4.72202e-20)
(1.10764 0.133925 1.8266e-20)
(1.23436 0.153472 0)
(1.32554 0.159568 -4.82259e-20)
(1.38646 0.15489 1.44e-20)
(1.42334 0.142562 -1.51833e-20)
(1.44266 0.125828 0)
(1.44865 0.106565 4.3275e-22)
(1.4451 0.0865833 -1.42178e-21)
(1.43475 0.0670195 1.3439e-21)
(1.41951 0.0486829 0)
(1.40071 0.032165 -5.16144e-21)
(1.37918 0.0179169 1.966e-20)
(1.35546 0.0062623 0)
(1.32984 -0.00254383 2.49323e-20)
(1.30198 -0.00842471 2.19752e-21)
(1.27118 -0.0112408 -3.87235e-20)
(1.23679 -0.00992318 1.50427e-20)
(1.1986 -0.00091342 4.51412e-20)
(1.15343 0.0170072 -4.4533e-20)
(0.146987 -0.0777592 1.5682e-19)
(0.382045 -0.033763 -2.52355e-20)
(0.632682 0.0251455 2.16298e-20)
(0.862592 0.0839 0)
(1.0517 0.13132 4.3752e-20)
(1.19514 0.162129 0)
(1.2965 0.176621 1.05354e-20)
(1.36332 0.177816 -2.3358e-20)
(1.40387 0.169584 0)
(1.42531 0.155373 3.15746e-21)
(1.43299 0.137772 -2.967e-21)
(1.43099 0.118663 -5.69796e-21)
(1.4222 0.0993348 -3.55269e-21)
(1.40869 0.0806773 -4.75844e-21)
(1.3919 0.0633084 1.48379e-20)
(1.37277 0.0476779 2.93903e-20)
(1.3518 0.0341295 -4.00203e-20)
(1.32919 0.0229217 -5.01469e-20)
(1.30487 0.0142712 4.53552e-20)
(1.27827 0.00824848 -4.88288e-20)
(1.24859 0.00496323 -3.5081e-21)
(1.21516 0.00552868 -5.04896e-20)
(1.17788 0.0135725 3.40299e-20)
(1.13386 0.0295614 0)
(0.209857 -0.0676152 2.24109e-20)
(0.476674 -0.0126891 -2.5972e-20)
(0.743764 0.0562043 6.35836e-20)
(0.969982 0.119254 0)
(1.14039 0.164113 -1.92831e-20)
(1.25897 0.189167 0)
(1.33606 0.197601 -7.47505e-21)
(1.38263 0.194107 1.68251e-20)
(1.40765 0.182879 0)
(1.41766 0.167066 -2.86097e-21)
(1.41735 0.148884 0)
(1.40997 0.129863 0)
(1.39784 0.111038 2.33881e-20)
(1.38258 0.093099 -1.87127e-20)
(1.36524 0.076504 1.00906e-20)
(1.34641 0.0615721 -1.76408e-20)
(1.32632 0.0485444 0)
(1.30488 0.0376166 -2.31799e-20)
(1.28177 0.0289698 1.0749e-19)
(1.25633 0.0226629 -2.05501e-20)
(1.22769 0.0187649 2.81611e-20)
(1.19522 0.0184246 -3.13644e-20)
(1.15888 0.025369 4.02675e-20)
(1.11614 0.0394649 -1.1519e-20)
(0.275624 -0.0516544 4.22854e-20)
(0.57223 0.0170232 -1.71226e-20)
(0.848037 0.0938514 4.11077e-20)
(1.06105 0.15688 -1.20746e-20)
(1.20785 0.19598 2.06505e-20)
(1.30196 0.214021 -1.6024e-20)
(1.35838 0.2166 1.56951e-20)
(1.38905 0.209014 -3.29752e-21)
(1.40241 0.195237 -3.44589e-21)
(1.40417 0.178037 -4.29488e-22)
(1.39825 0.159303 0)
(1.38735 0.140306 1.89598e-20)
(1.37329 0.121876 -3.74266e-20)
(1.35727 0.104528 1.21623e-20)
(1.34 0.0885701 -1.384e-20)
(1.3218 0.074193 2.24882e-20)
(1.30265 0.0615411 0)
(1.28231 0.0507517 4.88569e-20)
(1.26031 0.0419697 -6.96668e-20)
(1.23593 0.0352456 1.25225e-20)
(1.20832 0.0306059 -1.04989e-20)
(1.17685 0.0292207 -1.06606e-20)
(1.14151 0.0349699 0)
(1.10019 0.0472958 -1.18561e-20)
(0.34249 -0.0309422 7.64836e-20)
(0.66519 0.053329 0)
(0.940567 0.135188 0)
(1.13364 0.194152 3.7257e-20)
(1.25587 0.225859 -7.8438e-21)
(1.32837 0.236883 0)
(1.36807 0.234167 5.84009e-22)
(1.38648 0.222965 0)
(1.39113 0.206898 0)
(1.38697 0.188406 6.47326e-21)
(1.37729 0.169122 0)
(1.36427 0.150105 0)
(1.34928 0.131996 -1.5796e-20)
(1.33315 0.115142 -1.47832e-20)
(1.3163 0.0997072 2.65057e-20)
(1.29882 0.0857648 0)
(1.28057 0.0733708 2.8806e-20)
(1.26122 0.0626064 -4.21143e-20)
(1.24022 0.0535763 -1.51093e-20)
(1.21686 0.0463205 1.39055e-20)
(1.1903 0.0408323 -5.36965e-20)
(1.15989 0.0382858 5.13342e-20)
(1.12562 0.0427619 0)
(1.08587 0.053537 -1.56203e-21)
(0.408795 -0.00607315 -1.56601e-19)
(0.752193 0.0940658 8.96846e-21)
(1.01841 0.177589 0)
(1.18827 0.229901 -2.09652e-20)
(1.28766 0.253761 1.03506e-20)
(1.34208 0.258219 -1.55204e-21)
(1.36851 0.250688 -5.81833e-22)
(1.37751 0.236165 0)
(1.37573 0.217949 5.67538e-21)
(1.36746 0.198221 1.3195e-20)
(1.35543 0.178395 -4.68805e-21)
(1.34134 0.159326 0)
(1.32613 0.141471 1.63122e-20)
(1.3103 0.125018 -2.4007e-20)
(1.29403 0.110002 8.72514e-21)
(1.27728 0.0963937 0)
(1.25984 0.0841692 0)
(1.24134 0.0733514 2.32806e-20)
(1.22125 0.0640021 3.15585e-20)
(1.19889 0.0561333 -3.80509e-20)
(1.17342 0.0497212 -7.84594e-21)
(1.14416 0.0459199 0)
(1.11106 0.0490312 3.01134e-20)
(1.07304 0.0586002 -1.61866e-20)
(0.472759 0.022579 3.919e-20)
(0.830514 0.137438 -6.76006e-21)
(1.08073 0.219486 1.72692e-20)
(1.22698 0.263941 7.33636e-21)
(1.30637 0.280082 0)
(1.34599 0.278392 2.06748e-21)
(1.36196 0.266351 3.78607e-21)
(1.36382 0.248678 0)
(1.35746 0.228405 -5.45275e-21)
(1.34653 0.207488 -1.72836e-21)
(1.33326 0.187126 1.71874e-21)
(1.31887 0.167969 9.70896e-21)
(1.30393 0.150291 -9.12981e-21)
(1.28865 0.134139 3.63644e-20)
(1.27305 0.119439 -8.64115e-21)
(1.257 0.106078 0)
(1.24027 0.0939617 0)
(1.2225 0.0830522 -8.39084e-21)
(1.20323 0.0733628 1.76289e-20)
(1.18181 0.0648564 -8.75112e-21)
(1.15746 0.0574844 1.66017e-20)
(1.12945 0.0523631 0)
(1.09761 0.0539286 0)
(1.06158 0.0628136 8.47317e-21)
(0.532663 0.0546367 -1.16009e-20)
(0.898103 0.182375 0)
(1.12819 0.260261 -2.3039e-20)
(1.25218 0.296458 5.4799e-21)
(1.31451 0.305117 0)
(1.34214 0.297564 -5.19345e-22)
(1.34998 0.281198 -3.77071e-21)
(1.34659 0.260489 0)
(1.33713 0.238236 -2.88913e-21)
(1.32472 0.216175 4.23114e-21)
(1.31107 0.195275 -9.26546e-21)
(1.29694 0.175975 1.18154e-21)
(1.28262 0.15838 -1.99162e-20)
(1.26808 0.142414 -9.81923e-21)
(1.25321 0.127918 1.33134e-20)
(1.23784 0.114719 -9.97904e-21)
(1.22174 0.102666 0)
(1.2046 0.0916606 0)
(1.18602 0.0816586 0)
(1.16546 0.0725804 0)
(1.14219 0.0643235 -2.74855e-20)
(1.11541 0.0578477 2.04093e-20)
(1.08486 0.0573343 2.43772e-21)
(1.05144 0.0663881 -8.5657e-21)
(0.58705 0.0894095 5.27418e-23)
(0.953789 0.228374 -7.57285e-21)
(1.16204 0.299978 0)
(1.2659 0.327664 -2.13218e-21)
(1.31392 0.328997 0)
(1.33199 0.315754 0)
(1.33366 0.295188 6.77228e-23)
(1.32658 0.271537 -6.28308e-23)
(1.31529 0.247381 2.85989e-21)
(1.30233 0.224211 8.34688e-23)
(1.28894 0.202756 0)
(1.27551 0.183241 0)
(1.26205 0.165615 0)
(1.2484 0.1497 3.08261e-21)
(1.23436 0.135278 -2.71287e-21)
(1.21971 0.122139 -3.54764e-22)
(1.20425 0.110094 3.36455e-22)
(1.18771 0.0990048 -3.11736e-21)
(1.16975 0.0887756 -2.38944e-21)
(1.14995 0.0793164 3.22752e-22)
(1.12768 0.0705176 -3.11413e-22)
(1.10218 0.0628353 -1.80426e-22)
(1.0731 0.0586801 -2.1762e-21)
(1.04228 0.0695495 -2.8871e-21)
(0.634756 0.126244 1.16802e-20)
(0.997393 0.274935 3.38803e-20)
(1.18356 0.338749 2.62056e-21)
(1.26971 0.357681 -3.28822e-22)
(1.30596 0.351748 2.99211e-22)
(1.31658 0.332909 8.36601e-21)
(1.31376 0.308232 5.62957e-21)
(1.30434 0.281729 1.16796e-21)
(1.29223 0.255741 -8.86658e-21)
(1.27948 0.231494 -2.13683e-20)
(1.26685 0.209455 -7.95971e-21)
(1.25444 0.189639 0)
(1.24206 0.171852 0)
(1.22943 0.155834 -3.05385e-21)
(1.21632 0.141327 -1.26922e-20)
(1.20252 0.128097 1.20059e-20)
(1.18781 0.115948 0)
(1.17198 0.104727 2.63543e-20)
(1.15476 0.0943273 -8.43174e-21)
(1.13584 0.0846853 2.20928e-20)
(1.11485 0.0757138 -2.14176e-20)
(1.09145 0.0673761 -2.58107e-21)
(1.06491 0.0588258 0)
(1.0303 0.0726424 -9.2128e-21)
(0.67491 0.164662 -9.83925e-21)
(1.02922 0.321709 -2.05419e-20)
(1.19387 0.376584 -3.63364e-21)
(1.26481 0.386494 3.26218e-21)
(1.2916 0.373299 -3.992e-21)
(1.29662 0.348906 -1.05483e-20)
(1.2908 0.320195 5.4363e-21)
(1.28019 0.290931 0)
(1.26814 0.263188 0)
(1.25619 0.237895 3.01547e-20)
(1.24472 0.215243 -4.45736e-22)
(1.23357 0.195043 3.0495e-20)
(1.22242 0.17697 -2.85457e-20)
(1.21094 0.160693 0)
(1.19889 0.145914 2.75326e-20)
(1.18605 0.132383 -2.60739e-20)
(1.17223 0.119891 0)
(1.15725 0.108278 -2.39593e-20)
(1.14088 0.0974238 2.39237e-20)
(1.12288 0.0871509 0)
(1.10306 0.0770347 -4.58711e-20)
(1.08108 0.0670813 5.65109e-20)
(1.05501 0.0613017 0)
(1.01914 0.0726406 1.19571e-20)
(0.706857 0.204672 0)
(1.04964 0.368567 5.76617e-20)
(1.19384 0.41348 -2.18806e-20)
(1.25207 0.414009 0)
(1.27152 0.393489 -2.19263e-20)
(1.27263 0.363551 3.02157e-20)
(1.26512 0.330886 3.48227e-20)
(1.25435 0.298969 -3.69707e-20)
(1.2431 0.269558 0)
(1.23244 0.243264 3.57183e-20)
(1.22243 0.21999 1.53467e-21)
(1.21273 0.199351 2.42687e-21)
(1.20293 0.180906 -3.2289e-20)
(1.1927 0.164254 3.03434e-20)
(1.18179 0.149066 -5.95283e-20)
(1.17 0.135069 5.6434e-20)
(1.15716 0.12204 2.85349e-20)
(1.1431 0.109808 -1.2796e-20)
(1.12762 0.0982223 7.83921e-20)
(1.11052 0.0870136 -2.40285e-20)
(1.09167 0.0756681 0)
(1.07053 0.0647091 3.82685e-20)
(1.04482 0.0597384 -4.88284e-20)
(1.01309 0.0682437 0)
(0.729957 0.246688 8.03188e-20)
(1.05892 0.415483 -3.32681e-20)
(1.1841 0.449352 1.37995e-20)
(1.23208 0.440003 0)
(1.24619 0.412047 2.18175e-20)
(1.24495 0.376574 -3.00702e-20)
(1.23699 0.340049 -3.4641e-20)
(1.22698 0.305619 3.67454e-20)
(1.21716 0.274655 0)
(1.2082 0.247432 0)
(1.19991 0.223565 0)
(1.19181 0.20248 -3.45594e-20)
(1.18347 0.183631 0)
(1.17457 0.166563 -6.70989e-20)
(1.16486 0.150918 6.33767e-20)
(1.15419 0.136405 0)
(1.14239 0.122794 -2.83912e-20)
(1.12933 0.109906 0)
(1.11482 0.0975803 -8.19124e-20)
(1.09873 0.0855234 2.76138e-20)
(1.08096 0.0732598 2.69663e-20)
(1.06093 0.0616243 0)
(1.03633 0.0566043 -1.35837e-19)
(1.00765 0.0627759 3.95611e-20)
(0.743231 0.291552 -6.89125e-20)
(1.05711 0.462352 1.73214e-20)
(1.16495 0.483984 0)
(1.20517 0.464097 -1.51087e-20)
(1.2159 0.428575 -2.6339e-20)
(1.21389 0.387622 -4.52843e-20)
(1.20662 0.347369 9.0667e-20)
(1.1982 0.310607 0)
(1.19037 0.27826 4.78467e-20)
(1.18345 0.25022 0)
(1.1771 0.225831 0)
(1.17075 0.204341 0)
(1.16397 0.185114 3.65825e-20)
(1.15647 0.167656 -1.43952e-19)
(1.14805 0.151584 3.26658e-20)
(1.13857 0.136601 3.41895e-20)
(1.12789 0.122471 0)
(1.1159 0.109016 -3.16138e-20)
(1.10247 0.0960766 -1.48788e-19)
(1.08749 0.0833613 8.4851e-20)
(1.07096 0.0704392 -2.69095e-20)
(1.05228 0.0582796 1.13818e-19)
(1.0291 0.052807 -8.30549e-20)
(1.003 0.0570539 -2.83345e-20)
(0.744991 0.340615 -2.70155e-20)
(1.04386 0.508822 -3.06375e-20)
(1.13642 0.516948 3.86319e-20)
(1.17154 0.485727 0)
(1.18094 0.442524 3.98924e-20)
(1.17966 0.396211 0)
(1.17419 0.352488 6.45756e-20)
(1.16812 0.313632 0)
(1.16279 0.280115 -4.74954e-20)
(1.15824 0.251426 0)
(1.15401 0.226637 0)
(1.14954 0.204831 9.00662e-20)
(1.14442 0.185305 1.24306e-19)
(1.13842 0.167531 -8.06535e-20)
(1.13136 0.151116 1.12242e-19)
(1.12315 0.135757 -1.07215e-19)
(1.1137 0.121218 0)
(1.10289 0.107322 3.15357e-20)
(1.09064 0.0939147 9.15312e-20)
(1.07692 0.080715 -9.27535e-20)
(1.06177 0.0673312 5.82728e-20)
(1.04462 0.0547806 -2.37833e-19)
(1.02295 0.0487491 1.17436e-19)
(0.999146 0.0513268 1.0726e-19)
(0.733048 0.396009 -1.45903e-19)
(1.01865 0.554127 -1.3035e-21)
(1.09839 0.547491 -1.0767e-19)
(1.13134 0.504068 0)
(1.14153 0.453207 0)
(1.14248 0.40179 0)
(1.13991 0.354936 -1.1256e-19)
(1.13692 0.314347 0)
(1.13454 0.279959 0)
(1.13264 0.250849 0)
(1.13071 0.225828 0)
(1.12824 0.203841 -8.93995e-20)
(1.12487 0.184134 -8.45609e-20)
(1.12044 0.166162 8.02e-20)
(1.11484 0.149525 -7.63245e-20)
(1.10799 0.133918 7.29214e-20)
(1.09984 0.119105 0)
(1.09031 0.104914 7.19416e-20)
(1.07935 0.0911934 6.52196e-20)
(1.06699 0.0776747 0)
(1.05332 0.0640033 6.13559e-20)
(1.03778 0.0512004 0)
(1.01771 0.0446165 0)
(0.996059 0.0457314 0)
(0.706338 0.461857 1.03978e-19)
(0.980665 0.597003 -8.09787e-21)
(1.05068 0.574446 6.87883e-20)
(1.0847 0.518042 0)
(1.09794 0.459723 0)
(1.10272 0.403683 -1.5116e-19)
(1.1041 0.354233 1.46246e-19)
(1.10487 0.3124 0)
(1.10583 0.277529 -1.23335e-19)
(1.10681 0.248284 1.14109e-19)
(1.10732 0.223245 0)
(1.10693 0.201252 0)
(1.10541 0.181522 9.42933e-20)
(1.10263 0.163502 -2.67031e-19)
(1.09856 0.146792 2.56089e-19)
(1.09315 0.131088 0)
(1.08638 0.116156 0)
(1.07822 0.101823 -7.19103e-20)
(1.06863 0.0879452 7.38265e-20)
(1.05771 0.0742684 0)
(1.0456 0.0604765 6.93101e-20)
(1.03171 0.0475676 0)
(1.01328 0.040495 6.90025e-20)
(0.993713 0.0403368 -1.89762e-19)
(0.66533 0.545723 0)
(0.927765 0.635303 0)
(0.992682 0.595861 0)
(1.0318 0.526205 0)
(1.05065 0.460986 0)
(1.06086 0.401142 6.81449e-20)
(1.06721 0.349885 -6.96813e-20)
(1.07231 0.307452 -1.51979e-19)
(1.07694 0.272574 0)
(1.08095 0.243538 1.29112e-19)
(1.084 0.218741 0)
(1.08578 0.196957 0)
(1.08616 0.177394 0)
(1.0851 0.159505 0)
(1.08262 0.142895 -8.69899e-20)
(1.07871 0.127261 1.70877e-19)
(1.07339 0.112373 -1.63831e-19)
(1.06665 0.0980613 8.09944e-20)
(1.0585 0.0841848 7.80381e-20)
(1.04907 0.0705113 -1.47522e-19)
(1.03855 0.0567651 -2.83217e-19)
(1.02633 0.0439049 2.80232e-19)
(1.00958 0.0364422 2.13182e-19)
(0.992055 0.0351974 -6.05989e-20)
(0.603083 0.655393 4.1363e-20)
(0.853786 0.664033 -1.61527e-19)
(0.923659 0.608008 -2.37847e-19)
(0.973218 0.526551 0)
(1.00051 0.455721 -9.72969e-20)
(1.0177 0.393411 -1.0517e-19)
(1.02985 0.341445 -1.80728e-19)
(1.03971 0.299215 1.50933e-19)
(1.04821 0.264888 0)
(1.05535 0.236458 -2.66434e-19)
(1.06099 0.212201 -1.27293e-19)
(1.06498 0.19087 0)
(1.06729 0.171691 0)
(1.06799 0.154134 0)
(1.06713 0.137811 -9.78143e-20)
(1.06477 0.122428 9.30129e-20)
(1.06093 0.107757 2.62066e-19)
(1.05565 0.0936324 -2.48038e-19)
(1.04898 0.0799207 0)
(1.04106 0.0664149 0)
(1.03213 0.0528847 -3.77381e-19)
(1.02157 0.0402362 2.96298e-19)
(1.00655 0.0325029 2.95966e-19)
(0.991024 0.0303582 -2.78089e-19)
(0.470801 0.77302 0)
(0.749804 0.672899 -1.01029e-19)
(0.845358 0.604566 6.03285e-20)
(0.910984 0.516498 -1.08288e-19)
(0.949134 0.442699 0)
(0.974399 0.379888 1.93603e-19)
(0.992847 0.328604 1.79573e-19)
(1.00767 0.287505 1.70556e-19)
(1.02007 0.254346 -1.57147e-19)
(1.03035 0.226948 1.37296e-19)
(1.03856 0.203554 -8.34776e-21)
(1.04474 0.182941 0)
(1.04899 0.164381 -2.25136e-19)
(1.05145 0.147368 3.2226e-19)
(1.05223 0.131533 2.97899e-19)
(1.05142 0.116588 -9.39429e-20)
(1.04908 0.102312 -2.72277e-19)
(1.04527 0.088544 0)
(1.04008 0.0751635 8.69944e-20)
(1.03368 0.0619939 0)
(1.02633 0.0488544 -8.16712e-20)
(1.0174 0.0365856 0)
(1.00412 0.0287141 0)
(0.990551 0.0258555 -7.35741e-20)
(-0.00909586 -0.0537825 -1.54258e-19)
(-0.00639088 -0.0739441 1.09599e-19)
(-0.0161141 -0.0783287 0)
(-0.0593581 -0.0423723 -1.1708e-18)
(-0.0453666 0.00676457 0)
(-0.341856 0.422069 -9.14241e-19)
(-0.00854351 -0.0611948 0)
(-0.0136478 -0.0660095 -1.6118e-18)
(-0.0265622 -0.0580578 1.57841e-19)
(-0.0644479 -0.0150824 8.97772e-19)
(-0.0621492 0.0759364 -2.17722e-19)
(-0.147362 0.318545 1.89266e-19)
(-0.0124341 -0.0620247 0)
(-0.0187995 -0.0575682 0)
(-0.0308747 -0.0418627 0)
(-0.0568826 0.00799295 -1.03141e-18)
(-0.0455247 0.111984 8.5327e-19)
(-0.0435953 0.296653 0)
(-0.017681 -0.0612926 0)
(-0.0220096 -0.0508606 1.37445e-18)
(-0.0312571 -0.0302859 -6.18248e-20)
(-0.0455043 0.0220483 0)
(-0.0245022 0.123003 -8.59162e-19)
(0.015958 0.272363 2.76805e-19)
(-0.0222673 -0.0599386 6.88939e-20)
(-0.0236913 -0.0458538 -3.91391e-20)
(-0.0291364 -0.0228192 0)
(-0.0324825 0.0284213 7.52516e-19)
(-0.00223393 0.120031 0)
(0.0568364 0.241252 -5.33827e-19)
(-0.025218 -0.0586524 -3.40087e-20)
(-0.0240732 -0.0426265 -7.25987e-20)
(-0.0253427 -0.0191477 5.33537e-20)
(-0.0190673 0.0282492 -6.67567e-21)
(0.0189922 0.10762 0)
(0.0875767 0.204433 5.14735e-19)
(-0.0262728 -0.0577401 -6.73135e-20)
(-0.0232783 -0.0410734 -2.12835e-18)
(-0.0204072 -0.018843 8.08584e-19)
(-0.00594219 0.0226995 -1.34926e-18)
(0.038397 0.0886804 -5.70697e-19)
(0.112054 0.164407 1.18949e-19)
(-0.0255508 -0.0572783 0)
(-0.021443 -0.0409361 1.0469e-18)
(-0.0147584 -0.0213685 -4.40457e-19)
(0.00646776 0.01289 2.88948e-19)
(0.0557526 0.0651706 6.27375e-19)
(0.132098 0.122636 1.17605e-19)
(-0.0232907 -0.0570661 -1.04828e-18)
(-0.0187759 -0.0419267 3.1761e-20)
(-0.008771 -0.0261512 -2.53043e-20)
(0.0178659 -0.000145279 3.16504e-19)
(0.0709695 0.038541 0)
(0.148712 0.0798612 -5.83387e-20)
(-0.019907 -0.056956 1.06283e-18)
(-0.015521 -0.0437236 4.68919e-19)
(-0.00277508 -0.0326169 -3.01483e-19)
(0.0280257 -0.015494 -3.89164e-20)
(0.0840233 0.00987289 -2.66245e-19)
(0.162551 0.0366214 -5.79953e-20)
(-0.0158207 -0.0568007 0)
(-0.0119332 -0.0460119 -4.95383e-19)
(0.00294457 -0.0402111 2.2608e-20)
(0.0367648 -0.0323659 1.838e-20)
(0.0949108 -0.0200278 2.31121e-19)
(0.174027 -0.00673426 -2.88613e-20)
(-0.0113936 -0.0564985 0)
(-0.00824759 -0.0485078 0)
(0.00815788 -0.0484262 -4.51484e-20)
(0.043946 -0.0500683 -1.86415e-20)
(0.103626 -0.0505416 3.27515e-20)
(0.183361 -0.0500099 -1.49271e-20)
(-0.00691034 -0.0559816 0)
(-0.0046572 -0.0509681 2.38249e-22)
(0.0127047 -0.0567974 9.01459e-20)
(0.0494762 -0.0679807 0)
(0.110148 -0.0811623 0)
(0.190636 -0.0931168 4.47607e-22)
(-0.00257794 -0.0552091 -1.64574e-20)
(-0.00129518 -0.0531896 7.70114e-21)
(0.0165054 -0.0648895 -5.66879e-20)
(0.0533027 -0.0855182 -1.41625e-19)
(0.114443 -0.111428 0)
(0.195817 -0.136008 0)
(0.00146848 -0.0541566 0)
(0.0017723 -0.0550003 4.96779e-19)
(0.0195651 -0.0722861 3.44431e-19)
(0.0554123 -0.102098 1.72363e-19)
(0.11647 -0.14086 0)
(0.198748 -0.178619 0)
(0.00515218 -0.0528154 0)
(0.00454425 -0.0562557 -5.05492e-19)
(0.0219754 -0.078576 -7.02845e-19)
(0.0558368 -0.117103 -3.92551e-20)
(0.116183 -0.168907 -2.65113e-19)
(0.199132 -0.220832 2.33402e-19)
(0.00843231 -0.0511932 0)
(0.00707696 -0.0568398 3.21434e-20)
(0.0239112 -0.0833416 3.13275e-19)
(0.0546663 -0.129859 4.02102e-20)
(0.113558 -0.194869 3.36528e-19)
(0.19647 -0.262377 -2.40168e-19)
(0.0112817 -0.0493209 -3.3314e-20)
(0.00946946 -0.0566713 1.06791e-18)
(0.0256253 -0.086156 -7.98903e-19)
(0.0520601 -0.139623 0)
(0.108629 -0.217784 0)
(0.18998 -0.302754 0)
(0.013663 -0.047262 0)
(0.0118545 -0.0557257 -1.11556e-18)
(0.0274503 -0.0866298 7.86395e-19)
(0.0482533 -0.145558 4.3407e-20)
(0.10156 -0.236275 0)
(0.178488 -0.341272 -1.14357e-19)
(0.0155106 -0.0451261 -2.16405e-18)
(0.0143737 -0.0540673 1.25445e-18)
(0.0298124 -0.0844284 -5.60724e-20)
(0.0435965 -0.146733 0)
(0.0927368 -0.248443 0)
(0.160258 -0.377172 3.9213e-19)
(0.0167445 -0.0430615 2.18923e-18)
(0.0171671 -0.0518662 -2.6258e-18)
(0.0332668 -0.0792748 1.8093e-19)
(0.0386219 -0.142259 -9.89012e-20)
(0.0829289 -0.25164 -1.56303e-19)
(0.131363 -0.408211 -5.16799e-19)
(0.0174004 -0.0412208 0)
(0.0203182 -0.0493671 1.40393e-18)
(0.0385621 -0.071013 -1.06925e-18)
(0.0342459 -0.131444 -8.68776e-19)
(0.0745621 -0.241267 1.71774e-19)
(0.0825604 -0.433156 -1.50921e-19)
(0.0178484 -0.0395558 2.24989e-18)
(0.0237611 -0.0468265 4.92332e-20)
(0.0468396 -0.0593657 1.19858e-18)
(0.0321585 -0.113847 9.64557e-19)
(0.07237 -0.209395 0)
(-0.011238 -0.459807 1.30205e-19)
(0.0194067 -0.0366362 -2.41297e-18)
(0.0281835 -0.0453021 -1.61577e-18)
(0.0592004 -0.0437417 -2.50183e-19)
(0.0383698 -0.0937991 -1.34088e-19)
(0.0999818 -0.15889 2.2517e-19)
(-0.211153 -0.558997 0)
(0.283784 0.818434 0)
(0.634345 0.652832 2.82756e-19)
(0.767161 0.579915 5.65303e-19)
(0.849455 0.493926 0)
(0.898925 0.421269 0)
(0.932433 0.36039 0)
(0.957162 0.311315 2.02978e-19)
(0.976827 0.272306 4.70304e-21)
(0.99301 0.240931 0)
(1.00631 0.214996 1.5542e-19)
(1.017 0.192788 1.34111e-19)
(1.02532 0.173168 -2.53828e-19)
(1.03147 0.155468 1.17528e-19)
(1.03566 0.13922 -1.08802e-19)
(1.03805 0.124074 2.10263e-19)
(1.03877 0.109756 -9.87787e-20)
(1.03791 0.0960524 0)
(1.03557 0.0828124 0)
(1.03183 0.0699321 -8.73544e-20)
(1.02692 0.0572717 8.83792e-20)
(1.0211 0.0447004 -2.54497e-19)
(1.01375 0.0329786 -8.93059e-20)
(1.00223 0.0251081 -3.60541e-21)
(0.990555 0.021718 3.72843e-19)
(0.254813 0.657469 -1.19263e-19)
(0.553445 0.594589 1.9683e-19)
(0.700458 0.536043 -5.57662e-19)
(0.793621 0.459412 3.20084e-19)
(0.85242 0.391961 -1.48131e-19)
(0.893272 0.335334 0)
(0.923722 0.289859 2.17174e-19)
(0.947825 0.253791 -3.89459e-19)
(0.967486 0.224755 0)
(0.983586 0.200674 -1.54454e-19)
(0.996616 0.179961 0)
(1.00696 0.1616 -1.37092e-19)
(1.01492 0.144998 2.49053e-19)
(1.02077 0.129729 1.13168e-19)
(1.02472 0.115471 -3.34641e-19)
(1.02692 0.101965 -1.02765e-19)
(1.02751 0.0890092 2.0071e-19)
(1.02658 0.0764677 -2.9299e-19)
(1.02426 0.0642585 9.54487e-20)
(1.02079 0.0522819 -8.88021e-20)
(1.01644 0.0404542 -3.52256e-19)
(1.01059 0.0294388 5.14652e-19)
(1.00081 0.0217111 3.3498e-19)
(0.990951 0.0179661 -2.30942e-19)
(0.245725 0.552934 7.05045e-19)
(0.499839 0.528354 -2.22627e-19)
(0.647125 0.48186 9.7424e-20)
(0.745764 0.416307 -1.52005e-19)
(0.811235 0.356397 1.33203e-19)
(0.857986 0.305635 0)
(0.893259 0.264779 2.30001e-19)
(0.921197 0.232294 -2.11273e-19)
(0.943919 0.206034 1.89311e-19)
(0.962527 0.184138 0)
(0.977687 0.165196 3.05127e-19)
(0.9899 0.14834 -4.61512e-21)
(0.99955 0.133057 -1.2713e-19)
(1.00696 0.11897 3.61414e-19)
(1.01238 0.105787 -1.18685e-19)
(1.01599 0.0932689 0)
(1.01794 0.081231 0)
(1.01837 0.0695556 9.91756e-20)
(1.0174 0.0581872 -1.95296e-19)
(1.0153 0.0470669 4.73813e-19)
(1.01232 0.0361495 -9.3367e-20)
(1.00788 0.0259866 -8.05963e-19)
(0.999797 0.0185435 3.43892e-19)
(0.991649 0.0146085 -7.81843e-20)
(0.241834 0.462324 -4.96671e-19)
(0.463157 0.457155 -9.18118e-21)
(0.605904 0.421836 -1.05953e-19)
(0.706317 0.367731 0)
(0.776044 0.316412 0)
(0.827166 0.27238 2.8747e-19)
(0.866252 0.236738 0)
(0.897338 0.208244 -2.21743e-19)
(0.92264 0.185066 -3.8468e-19)
(0.943416 0.165609 0)
(0.960457 0.14867 1.49939e-21)
(0.974345 0.133533 -2.9044e-19)
(0.985527 0.119767 -1.31388e-19)
(0.994365 0.107045 5.05658e-19)
(1.00114 0.0951092 -2.40236e-19)
(1.00605 0.0837434 1.15447e-19)
(1.00928 0.0727838 -3.27979e-19)
(1.01097 0.0621359 2.10709e-19)
(1.01128 0.0517724 9.98546e-20)
(1.01045 0.0416714 -9.66316e-20)
(1.00872 0.0318156 -2.87449e-19)
(1.00557 0.0226368 3.70178e-19)
(0.999102 0.0156221 9.05803e-20)
(0.992545 0.0116374 2.98788e-19)
(0.243636 0.382959 7.54605e-19)
(0.438778 0.386601 -1.31158e-19)
(0.574904 0.359847 4.44108e-19)
(0.674795 0.316264 -1.85121e-19)
(0.746895 0.273629 3.50112e-19)
(0.801021 0.236592 -1.35453e-19)
(0.842951 0.206404 0)
(0.876502 0.182101 4.40894e-19)
(0.903894 0.162188 -2.04156e-19)