/*--------------------------------*- C++ -*----------------------------------*  =========                 |
  \      /  F ield         | OpenFOAM: The Open Source CFD Toolbox
   \    /   O peration     | Website:  https://openfoam.org
    \  /    A nd           | Version:  11
     \/     M anipulation  |
\*---------------------------------------------------------------------------*/
FoamFile
{
    format      ascii;
    class       volScalarField;
    object      U;
}
// * * * * * * * * * * * * * * * * * * * * * * * * * * * * * * * * * * * * * //

dimensions      [0 1 -1 0 0 0 0];

internalField   nonuniform List<scalar> 
2880
( 
0.07474290145225325
0.14779371478988776
0.2283000814593577
0.27319143425649156
0.3440565708572974
0.44570654249690306
0.10554646436402766
0.17893774685430783
0.25142460144275597
0.2927293368161953
0.35532067458891836
0.42425173496831564
0.11973037317548754
0.1891350103042945
0.2546296318018365
0.2954622697996067
0.35990437115356955
0.436461963803668
0.13234199804825675
0.19629285599122956
0.2548892349850362
0.29590796218450516
0.36460589479904393
0.44803679821511316
0.145657770384756
0.2022249412550538
0.2541335386810466
0.29640635899502554
0.36722402791877395
0.4547320674515597
0.15839404100342297
0.2067349638216458
0.25238088483153803
0.29640875083789914
0.36805684011394346
0.45582664472724355
0.17014407063127676
0.2101370987715994
0.2508604632772003
0.29578565323185946
0.3672724022332589
0.4535839054301829
0.17976992456273047
0.2125893704447116
0.2495934547920477
0.2950356176091593
0.36561380286806955
0.449526335991431
0.1876473032616088
0.21403060759692547
0.24804238354543548
0.29398551598092043
0.36345526464453953
0.44470216049929273
0.19380339049848866
0.21517663653439031
0.2467904971093827
0.29295620922351445
0.3617826741500499
0.44089134083174686
0.1983102152960787
0.21634855067672693
0.24717660168329336
0.29326655570456606
0.3607137423500261
0.4379916474444075
0.2003048486199496
0.2174015304530954
0.2489554122285437
0.29430391477567425
0.3606684331876337
0.4361979564316058
0.20078900886145123
0.21837344873344394
0.2510727941921005
0.29719329176451253
0.3625848569175233
0.4366470222860015
0.19874191074883804
0.21870177437714355
0.2534048213326635
0.30147809904025935
0.3669100520719503
0.44024039206549304
0.1947384852575286
0.21886390660447833
0.2557331924084085
0.30567506588221915
0.37195567285333414
0.445257448764511
0.188850707223965
0.21810322142761376
0.25823132549275674
0.30913803966717557
0.37612564980452273
0.45028410322496
0.18116726097893424
0.21731164431465105
0.2604381681911247
0.3119046447179751
0.3799336478626835
0.4548080155219214
0.1718589605867805
0.2154109967617017
0.2619178051959734
0.31328374212453697
0.38233677258287413
0.4584523801672629
0.1600404849554104
0.211246365583427
0.2630206906836947
0.31374745398085807
0.38316169714018533
0.4605422168986013
0.1461344878519507
0.20505772179160375
0.2627000354247496
0.312046534279478
0.38189635163944113
0.4597935175909737
0.1305894445845957
0.1960575408176
0.26098958261792926
0.31057743854868586
0.3787533357383634
0.45540024222149583
0.11503583543764559
0.18470726810346424
0.2572509192701675
0.3069597046830673
0.37462349680267415
0.4460344289900915
0.0979821767410687
0.1698552042526126
0.2486891044013367
0.29975980372042804
0.372107421244491
0.4327917361216493
0.0659071520099279
0.13558045164939783
0.22295213224053256
0.2734925205358196
0.36695094482215995
0.427496573336576
0.8293586141861194
0.9094380342732844
0.9468633404891837
0.9685493414642697
0.9838019619470096
0.9943778477918468
1.0033360618144773
1.0187986932470972
1.0362291941234674
1.0530487602051841
1.0701154967512752
1.084433142435711
1.0951807942168028
1.1010844611755988
1.1034361749662707
1.1041003247559376
1.1018949178863406
1.097260974686631
1.090978601377915
1.0828564298264753
1.0721927651370349
1.0611424094405555
1.0467284234670284
1.029523312123059
0.7396484233665226
0.8828108387396364
0.9365213751700605
0.964725974909013
0.9827220892990362
0.996409864270154
1.0106156876141548
1.0282363919995594
1.0491944076872008
1.0683551520290826
1.0851688501287
1.0973736264700635
1.1054169475721571
1.1098974459304325
1.1110148335830017
1.108472363782939
1.1052787235368076
1.0996466415317854
1.0918822653682032
1.0830610232674196
1.0715629115849048
1.0593553270552856
1.0443364408575162
1.027074703144448
0.6774498327438073
0.8406572635385373
0.9109507471968933
0.9515343180348477
0.976348581742282
0.9959198391464902
1.0157209752822036
1.0390126281960586
1.0631277638781906
1.0827818606224986
1.0984536672923881
1.108983063389924
1.114334752768667
1.1159519886625417
1.1148870767716053
1.1113588661973326
1.1063044954412151
1.0987114605580504
1.0913233151206074
1.0806277154666757
1.0706878268055056
1.0579121873891661
1.0421076877925264
1.0248115633922708
0.640310800637917
0.7957154666341574
0.8787583489930219
0.9286293758216235
0.9622610177680484
0.9898105788707562
1.0202506520857615
1.0480945637801298
1.0725226501472307
1.0937412074796742
1.1076581913261168
1.1160160107755268
1.1193096187521938
1.1192013616067897
1.1163211510842217
1.1108304222247283
1.1055650628796245
1.0972806195192708
1.0883839098044186
1.0794468298208963
1.0673611675564956
1.0551704608619914
1.0386363388393105
1.021666013471121
0.614430817642873
0.7560285724231272
0.8443830565731193
0.9025778139887198
0.9454505339267499
0.9820019362598261
1.018657255592153
1.0521855449787514
1.080541864536961
1.1006979330947162
1.1122094541399499
1.118870824721839
1.1205174643143203
1.1189290657228712
1.1151598182304678
1.1098802458812447
1.1034623909801196
1.0948201641409476
1.0861086794901476
1.0763084856576735
1.0652920591790143
1.052133156238289
1.0357985332503248
1.0184955784335648
0.5938378952288352
0.723229034470694
0.8131607943762502
0.878394879912097
0.9282993701314017
0.974071784665767
1.0176604112412715
1.055522443420526
1.0831832195528344
1.1025473167147752
1.1124247012504693
1.1165876804640202
1.117006478932272
1.1158754543526512
1.1108668261388221
1.105765795125028
1.097745436850841
1.0917315632325355
1.0823511618858874
1.0723605933546425
1.0606042500438213
1.0472082159191554
1.031850509575016
1.01566740636984
0.5770752415977446
0.6959679385377127
0.7861216674121861
0.8562119404072447
0.9151297711004233
0.968724827887376
1.016912010622281
1.0552913317419257
1.0847837932749098
1.1006193406189082
1.109369590704297
1.1130821932712929
1.1130883777271192
1.1105098915463092
1.1058911013183848
1.1001257260803097
1.0941176859595174
1.086617660713302
1.0779161805159447
1.0683482135799942
1.0576939782099524
1.0449823678136825
1.0292424207102293
1.0139734568264
0.5613812264469097
0.6736464487086243
0.7648228901673696
0.8390565110492824
0.9053489797645425
0.9663071916096159
1.0182009388671311
1.0569888334197584
1.0820555446195976
1.0972657505132355
1.10454339506387
1.1071961809206916
1.1065773225777218
1.104543267231369
1.100248214433162
1.0950403029775935
1.0903272865548124
1.0828584101778893
1.0747374866953099
1.06496573304611
1.0541240360433666
1.0419370609670067
1.027964034441247
1.013218979759754
0.5489914236083185
0.6574243466387916
0.7495133105919588
0.8278517147588318
0.900881928600542
0.96768461754521
1.019553883919914
1.054316578067048
1.0773749619186543
1.090929305561131
1.0971489674415318
1.0991858802911816
1.0990998108578869
1.096874675681392
1.0942747550290761
1.0898411591269583
1.0835135200977999
1.0759984858848435
1.0695996897831626
1.0608900460043416
1.0521609836298975
1.0410047749849602
1.0268351504298014
1.0118384992691853
0.5405588783979486
0.6462637476160524
0.739626506495748
0.8232231939584702
0.9022301510603765
0.9697522689884102
1.0204022314488927
1.0526105937706394
1.0722472184240792
1.0839842787188738
1.0893830176085568
1.0917726682653703
1.0916904996702537
1.090190476892558
1.086993483643141
1.0824948881330447
1.077798760680292
1.0730987014818438
1.0652896955906659
1.0585797159943657
1.0499525888806693
1.03976152359079
1.0273124211818476
1.0135129955270292
0.5341969973449606
0.6402348784089649
0.7358289778286001
0.825912149169919
0.9083394142764091
0.9751592816951027
1.02043139239443
1.0486628117685746
1.066236011752185
1.0765598598714479
1.081751310301859
1.0837745313311076
1.0841336185528276
1.0833367523011013
1.0803431535912313
1.0775838045250008
1.073115030483591
1.0688877348425636
1.0625629373039547
1.0563027927461761
1.049321243315392
1.0406742836055576
1.0293542072850201
1.0167901226509772
0.531096212871058
0.6392495652756147
0.737652913273543
0.8338929156856643
0.9179376550184185
0.9803021117178284
1.0215145852624437
1.0463213910138351
1.0605451060117845
1.0689891360463768
1.0741241927230414
1.0764667418970582
1.0774122924370744
1.0761513096540434
1.0749268311726117
1.0713498792257672
1.0682335820989048
1.064938589740218
1.0609373931386221
1.0562896311951133
1.0492816212231215
1.0425708041765585
1.032305029845164
1.020436074082575
0.5318824855472698
0.6420372583397727
0.7459847152827911
0.8476248988895528
0.9301053306951225
0.9857505215901384
1.021789504578787
1.0422693429255974
1.0555463136350032
1.0625823004183454
1.0681555660124455
1.0700935070988862
1.0715698305917065
1.0707177249430637
1.0695357921784976
1.06723210944397
1.0652617939783282
1.0633178647332844
1.0608242176747293
1.0570125984489231
1.0524839912116306
1.045255937134394
1.0358349933299185
1.0243590358233856
0.5362212129861058
0.6482886993029244
0.7606786473545581
0.8647812837090548
0.9416321247827635
0.9917098691370211
1.0201420459490749
1.0394645605761264
1.0506531644997907
1.0580468624999775
1.0633333993480434
1.0647001315484688
1.066153806161395
1.066208581091775
1.066389532513269
1.066068004764282
1.063972510546391
1.062185490622258
1.0615402483191576
1.0583651388855446
1.0544112674984663
1.0487737034879026
1.0390178502727019
1.0292072239628334
0.5431765714577574
0.6587683948641097
0.7793618771124805
0.8829561377468526
0.9516531655880285
0.9936509527430534
1.0193557593647868
1.0364474613248174
1.0463100668634284
1.052190996981813
1.0573666955296697
1.0607176631691482
1.0626186120050078
1.0639419452396162
1.0634549951133212
1.0647638018063375
1.0640715323826118
1.0647315637164572
1.0639144092650368
1.061781789423801
1.0584525727712057
1.0524224313124975
1.043829773574145
1.033131592728625
0.5522332282583668
0.6771227004733876
0.8048491563936684
0.9011242335382585
0.961800240811088
0.997300741506446
1.0194490082135772
1.032770281880694
1.043717559081199
1.0499271618153754
1.0542033721331356
1.0568632718489752
1.059359885496232
1.0605967518844743
1.0634575326583777
1.0652285116756817
1.0656596264590021
1.0656539448852025
1.066501710651284
1.0641126478336913
1.061054255309829
1.0554907121328048
1.0457474205309742
1.0354723779173722
0.5632085066981042
0.7019129009417867
0.8324575680079651
0.9192907824493252
0.9693066102129936
0.9987798607205072
1.0185923789979443
1.0322782563118182
1.040716020113552
1.045872159298567
1.050371192001269
1.0542541425338892
1.0581533871662265
1.0603888184752284
1.0630152344127248
1.0664867685071246
1.0685040168808966
1.0688333573506141
1.0685483207737148
1.0671409301546488
1.0631267883388977
1.0573452124326561
1.0479025574295366
1.0361398257551828
0.5756564400496247
0.7318850043688782
0.861005523359312
0.9354446704208147
0.976302159431108
1.0022136943084683
1.0183566399774202
1.0288253912146101
1.0374536850891278
1.0431775716797644
1.047959193212487
1.0536768763486408
1.0573557740604107
1.0610231373160945
1.0647843748504155
1.068327346405998
1.0701051118276639
1.0713039554812462
1.0709341607858625
1.0701387961316566
1.066206099836688
1.058935857272021
1.0486686911671377
1.037016785839312
0.59124206450378
0.7685258010959399
0.8867582978600136
0.9469549915570248
0.9808837473832396
1.0013446423480512
1.0159501819182646
1.026908806025636
1.0351984928455797
1.0403585820283898
1.0461730515100374
1.052073874688712
1.0568762033093075
1.062275757954595
1.0679704123230966
1.0709654657995584
1.0725057091409047
1.0742580683952174
1.074399343954201
1.0721557264926682
1.0677056163626664
1.0601020218882609
1.0486054851487008
1.0353842315462027
0.6119791180762956
0.8078283788880595
0.9075764227060177
0.9568876032995808
0.9848569588984389
1.0017497317424875
1.0140393402096721
1.0236131745133943
1.031054534951145
1.0374121720112652
1.0455363663078416
1.051578499949324
1.0591635593119804
1.0650798402468191
1.0695877050076783
1.074428303159647
1.0755132478014693
1.075900962044438
1.0761713889369415
1.0722214326509376
1.0675458053775424
1.0596911959572333
1.0484138166017907
1.0343257026504675
0.643133910746811
0.8455037503413968
0.9243200431764683
0.9619087282013965
0.9852132520429964
1.0008001943391516
1.011987460463829
1.0200237139005173
1.0287696719106454
1.037101795750732
1.0458275096490464
1.0536918417513401
1.0609867355138423
1.0676677356232003
1.072276847229843
1.0748716267418823
1.0777724973347953
1.0782929060242656
1.0776558090825707
1.0724875180827895
1.0674983641806686
1.05841539895972
1.0466846558618983
1.032343634318184
0.6905070762208141
0.875033976408004
0.9361321465324258
0.966287865938857
0.9852412423583228
0.9981687300236655
1.008598931324719
1.017429811868152
1.0263930797435814
1.035754524438803
1.0466742330603638
1.055428079920975
1.0631320095951386
1.0701204615287523
1.0745941948990236
1.0779302873633756
1.0807710089627465
1.0796647533832326
1.0778936661764602
1.0729641766690927
1.066316859213884
1.0569867337378325
1.0454915940542444
1.0311466958417277
0.7556639471398556
0.8950577720374122
0.9409250309413615
0.9661386678104159
0.9832151156814406
0.9941774519678459
1.00521272449349
1.0140838697546646
1.0240338384997345
1.0364138340247278
1.0474545524618446
1.0580876326740714
1.06774913725594
1.073365312359624
1.076746039407792
1.0807084778891478
1.080829056793065
1.0800815237321377
1.0770726117982523
1.071879794664263
1.0643319688651183
1.0547218215312195
1.04254782956418
1.0291481740099604
0.8248695312217379
0.9025704093769864
0.9381856910868211
0.9624140356271362
0.9786114497311089
0.9904885067110815
1.0001459192764344
1.0126804879751123
1.0249490951993498
1.0381014859120659
1.0505750646811132
1.0604743805468824
1.0701719981984803
1.0766349652938747
1.07970462386653
1.0825132806556974
1.0827953106008044
1.0800183429758026
1.076379669941678
1.0703841232877809
1.0631819858901004
1.0535319013456454
1.0414166067763373
1.0269449917546913
0.06891899918540621
0.13732001349999268
0.21687197654565862
0.2688478002861329
0.3367073374052023
0.44980971534197167
0.0976337196346502
0.1672136634491932
0.23980264704136003
0.28591345015468117
0.3461175753088972
0.4146000425457457
0.11127011495984428
0.17838264102171164
0.24430183625075821
0.2881887679658356
0.3490160758283262
0.4180400814266316
0.1233444568177255
0.18677195609127745
0.24579054194685412
0.2881386714618506
0.34910725782162955
0.42270180199200474
0.13587527483254785
0.1934735478686552
0.24560678642301878
0.28724963137393017
0.3481547944842224
0.42186355543974713
0.14790823103372203
0.19853619095917988
0.2453710843282739
0.2863452059590132
0.3461624171701273
0.41814024266913846
0.15899340945235915
0.20211012310766205
0.24453817662934288
0.2848953323442891
0.3432463747260782
0.41221815327153905
0.1680639347725764
0.2049229018716865
0.2429479329331865
0.28304256251962806
0.33962111801820566
0.4053903442051464
0.17526871082413267
0.2069737735059848
0.2424045109513958
0.2819024315718515
0.33657445446836604
0.3991982959443135
0.1810842107423299
0.20837107228033638
0.24242758718040183
0.28139730333266594
0.3345736868122263
0.39516053666853795
0.18498876727532038
0.2095767480795653
0.24323399034222393
0.2819094184569219
0.33444221466729324
0.39394140121754834
0.18712362360542495
0.21054097085711473
0.244411636165816
0.2837249488826969
0.3366236257349144
0.39503304179723453
0.1873042755564957
0.21122464420546047
0.24649174281863537
0.2874073491096079
0.3404024626492674
0.3982938834764215
0.1854115575881824
0.21159882044784978
0.24875526622077904
0.29168679443226747
0.3458910447696134
0.40413503274750173
0.18184904284515482
0.21111396157823162
0.2510783814403318
0.2960735305530183
0.3520802598274796
0.41079770271318844
0.17633824357030684
0.21019897673260235
0.25292675555009864
0.30046921944990995
0.35814066936381983
0.41816473020517186
0.16932594784470284
0.2083747724488525
0.2541087563693053
0.30403253489540083
0.3638348329242626
0.4258060164417092
0.16047293333056464
0.20557311602884215
0.2553258917654323
0.30600954451780626
0.36830050130176367
0.4326595123027991
0.14946542600309823
0.20122649892820527
0.2552009130847511
0.3068262178479915
0.3716017545257049
0.43808234011969616
0.13654509257437203
0.19452357023941413
0.253644054246345
0.3059386788284768
0.3724553394678815
0.4418336703952418
0.12148954708365402
0.18470706453599964
0.25079541635479746
0.3034408866831202
0.371875543331814
0.44252392092124304
0.10666815509961049
0.17265299732551267
0.244877961410248
0.2989668706695966
0.36898795967604875
0.4393356834599714
0.09065780443584777
0.15751182942400757
0.23529585834419392
0.29041896126933114
0.3648890528640882
0.433352463472415
0.06136997541050452
0.1246560960533013
0.20779884427811798
0.26409706794397664
0.354042819759279
0.43790866887075364
0.8017821723060231
0.8867457471616833
0.927899045125901
0.9541355326832057
0.970386116709588
0.9845442536138628
0.9963845037013934
1.0095075292165725
1.0247848856257737
1.040272535749896
1.0543088308203024
1.0643637666959773
1.0721420894008729
1.0780784338304312
1.0834444503047675
1.0837885116847628
1.0824115600540922
1.0790595949091766
1.0752982213741809
1.068835018191121
1.0615643121363163
1.0514367324370422
1.03930949493414
1.0259802263386462
0.6981127063169648
0.8443950580838415
0.9051489979924253
0.9388720542091776
0.9597809942995839
0.975522160323243
0.9907519771854588
1.00846085727937
1.0260363696950499
1.04263761734852
1.0567612404141637
1.0670365430838105
1.074992124791553
1.080620740043143
1.082763786091118
1.0835151585693923
1.0813639408510805
1.0783431480958703
1.072898061382769
1.0667445175596786
1.0584926239281822
1.0482362266212748
1.03641998813556
1.022856765746927
0.6311035780961166
0.7900597995916943
0.8683477053811888
0.9128913114419506
0.942056637133156
0.962764371943944
0.9842808168310927
1.0057004549628408
1.026494729172766
1.0437927420837438
1.0579247107988254
1.0684392344121652
1.0760319213288274
1.0802951069362008
1.0823275656303102
1.0816005327519325
1.07892734915739
1.0753233982749635
1.0697062483370063
1.0633162452482618
1.0551734942093853
1.0452972602599655
1.0331264809212037
1.0213515174124705
0.5889646220897774
0.7370778654725532
0.823579763458159
0.8785534307773727
0.9160139423687502
0.9453501621377314
0.9732629713996335
0.9997147393676185
1.0239128712203278
1.0433266802831425
1.0577652596349796
1.068654123335599
1.0745795395635627
1.0779763686247432
1.0795643999837987
1.0777094101837508
1.0746897237772974
1.0707809052582384
1.0659426473708002
1.0597553932540054
1.050754273823582
1.0411980342647151
1.0295347020650278
1.0159625856227277
0.5587553507489459
0.6916164897914392
0.7803638748384758
0.8423275770592642
0.8865763895889304
0.9245315418841683
0.9605276279562412
0.9919449622461759
1.017481473802692
1.0386251922755938
1.0534517256771683
1.0632237459374319
1.069202816783857
1.0717603499846147
1.071603068749322
1.0708618809131827
1.068148484562314
1.064343207550736
1.0587155769572474
1.0531514233481514
1.0459462837602267
1.0365324572153976
1.0241588475104495
1.0123141001537257
0.5344690984781939
0.652404772450111
0.7422931420711903
0.8083370924338044
0.8587050821309438
0.9043411424761794
0.9450551775199296
0.9812744508038259
1.0091389766141992
1.031721584675327
1.0456801312965636
1.0551691689969132
1.0609641816478614
1.0631807673301639
1.0637224892395296
1.06281329962564
1.0608209862020141
1.0574238833973788
1.0521150553715886
1.0461042718936957
1.0393586321714858
1.0303564997513874
1.0195888874034698
1.007383783373486
0.5146106687239076
0.6214726781926557
0.70851575618619
0.7781001907945015
0.8352154070454455
0.8869041669657498
0.9331555698158691
0.9720437013515987
1.0021637731777953
1.0225482514250497
1.0364643101455568
1.0449428931253975
1.0505473148205586
1.0529762255201274
1.0543586788457209
1.0542363637954577
1.051306312335783
1.0490679718910674
1.044629632751286
1.039024075861409
1.032793609022468
1.0243644317372824
1.014262039541282
1.003336555389858
0.49734482957558696
0.5966362023700754
0.6816490636707139
0.7531552911294221
0.81612734348551
0.8747075953006929
0.9246003362901041
0.9652860625990076
0.993049506783894
1.0125650731049443
1.0262645793124652
1.0345849735839188
1.0387812693419944
1.0429237462069767
1.0441065499570368
1.0446560315788116
1.042826899682045
1.0411240583206143
1.0378025285646675
1.032856939164064
1.026345493472816
1.0195428548428143
1.0092061959465097
0.9998992636797063
0.48282183223420944
0.5763667693407644
0.6613185653969106
0.7345631021563351
0.8041264748467227
0.8682026387036758
0.9202959302709575
0.9593656862285578
0.9863137049054588
1.0044790247198272
1.0160698237497632
1.0243521431174714
1.0292797262228666
1.0337262803250802
1.034981055655018
1.0358886802970955
1.035085137970476
1.0340372327584961
1.0307765384762186
1.027412919973012
1.0229551476006529
1.0153945287983002
1.0058389162504928
0.9968407460545728
0.4743621616127829
0.5637936052951247
0.647188492882871
0.7233876940014269
0.8001025594348614
0.8672495711247821
0.9190918564575862
0.9557684710569581
0.9804767953721115
0.9971950758978201
1.0088213028648583
1.0158204512356284
1.0230000404652853
1.026457936255033
1.0277875633656794
1.0288028773799491
1.0288801051082832
1.02729070509672
1.025746624784835
1.0233083832588818
1.0190001629255623
1.0134742019384926
1.0046925289479232
0.996489592571241
0.47084497356488375
0.5582545198111866
0.6417282337669732
0.7237806656581856
0.8033034474160686
0.8710389554334609
0.9201864333054571
0.9541263012586733
0.9760074704717843
0.9917959882935373
1.0024245514330292
1.0103833980130597
1.0163593254503924
1.0207325414907102
1.0227819350945557
1.0246069250887404
1.0244868039965331
1.0248682835784872
1.0234573512010496
1.020509044520804
1.0175195002211805
1.013693861273109
1.0062709608175135
0.9979816913339415
0.4703956448470973
0.5585153102174969
0.643776778970657
0.7326686186924986
0.8150929999544664
0.8793171477174269
0.9243890416412678
0.9533271687915728
0.9739536765773747
0.9885897444504204
0.9988772264717609
1.0065035008738106
1.0132110928804718
1.0174102159157428
1.020833894768422
1.0225157585572817
1.0229481152944466
1.0229752902027127
1.022562278742174
1.0215305972111863
1.0191749986688943
1.0162135823533445
1.009605547921029
1.0023998011170587
0.47236430808882196
0.5619167048241205
0.6526468661176636
0.7488682351165132
0.829802065796489
0.8891082284050483
0.929146301693029
0.9551444076950959
0.9737821347452317
0.9881047120375411
0.9987531556218429
1.005823866466419
1.0121027238879259
1.0162230162467896
1.0203292068834575
1.02251940811968
1.023578144906827
1.0238725475541113
1.023703460272684
1.0247106810963447
1.0227635410460547
1.0209018162284837
1.0146990491218426
1.0077243682009693
0.47901088450503926
0.5692742196333869
0.6685197031735596
0.7684443318914594
0.8468095405041182
0.8991323478228488
0.9343891474843902
0.9594662588219727
0.9762039577331584
0.9887232900280695
0.9990052896358851
1.0068168413250964
1.0138026434173666
1.0186048248561665
1.0218587184700871
1.0234591967851
1.0262929593270356
1.0294270605428486
1.0300299049637154
1.0311401925945705
1.0301133175016532
1.0266521906940467
1.0201495296546916
1.0131798714522717
0.4885552240025577
0.5829265272462311
0.6905614354746797
0.7913084692727574
0.8631284001828268
0.908829493331677
0.9395666311669877
0.9618533489994309
0.9779314753671021
0.9912550949837355
1.0027073428426654
1.0100106960681272
1.01675360982672
1.0209996957459901
1.0259143462728832
1.0305493354327702
1.032681760931991
1.0353472335400649
1.0372379245131453
1.0382415187740373
1.037045262747034
1.034425522610974
1.0276849792583675
1.0195076488188053
0.49937111755216923
0.6029574762953774
0.7194473295989229
0.8158565141490748
0.8773480152866782
0.9175699205953157
0.9450444158753292
0.9658635079423611
0.9823270710856049
0.9948182855358014
1.0043292245150799
1.0141311239216844
1.0212190498255083
1.026644493156278
1.0319592070914942
1.0361688393786037
1.0410643018057613
1.0442293221020906
1.0459244071073388
1.0467723843253105
1.04583706392612
1.042317885148044
1.0344876531303064
1.0255998327807965
0.5118646900054632
0.6308675593771176
0.7538689774589385
0.8392770089780401
0.891390176016937
0.9253616551427415
0.9502190270694969
0.9690675281925628
0.9849861265511349
0.9991605850817765
1.0100406986839494
1.018239540904774
1.0261409634585326
1.0334591856274864
1.040369908376204
1.04502256900652
1.049093334340818
1.0525621684399904
1.055159402563667
1.0544765893278734
1.053649284943871
1.049266820476406
1.0402634150182155
1.0318527035574654
0.5269671040686772
0.665862752310264
0.7894881232808099
0.862530536411926
0.9061828189297656
0.9346798226788334
0.9562536251955004
0.974783151711405
0.9901364492731743
1.0023898262063096
1.0141931492233136
1.0234355961527266
1.0323620524644654
1.0411203329838368
1.048214129725593
1.0543222171726867
1.0595777401513975
1.0621791573357455
1.0634845178048276
1.063665106801205
1.0603947575950952
1.0552262388859885
1.0455317619706979
1.0363905079680007
0.5461551033431844
0.7085786019570761
0.8232282069207528
0.8845852131219706
0.91971749160327
0.9441019843104267
0.9633106742473672
0.9798721304595077
0.9947465902748074
1.008664004696771
1.0198428432087696
1.0305588675405515
1.0407348597496027
1.0498996041096602
1.0573338047989183
1.0628987697366252
1.0682778071033798
1.0708240487980965
1.0719979005032665
1.0703684122717756
1.067018881984867
1.0597360135045608
1.0502888761854814
1.0390429406599362
0.5713411531300381
0.7563587177164147
0.8548804136093554
0.903423379084829
0.9329576219405231
0.954749452651962
0.9715721116851401
0.9877416068431182
1.0010250422808014
1.0147327938220188
1.0262977873578907
1.0388066235223385
1.049105714401223
1.0583974110978405
1.0662487628617827
1.072528211530707
1.0766280603775036
1.07821947561062
1.0783947581463609
1.075387638863798
1.0710268922159365
1.0633312857054393
1.0530326755229453
1.040189012705186
0.6087428798244072
0.8043687134876012
0.8828770569175813
0.921255186437436
0.9457648404575476
0.9652705598919643
0.9811455246782195
0.9959781089179136
1.0090118638717944
1.0209066395097421
1.0348442832280127
1.0476056491683834
1.05839205703009
1.0676039985656278
1.0742358417143782
1.079805588990844
1.083395319584534
1.0843993850312494
1.083479376773968
1.0801266997709071
1.0742097247806222
1.0652811909020652
1.0535214226584768
1.0405203129491565
0.6643900237520011
0.8461338252824976
0.9069678733300174
0.93714052714462
0.9594979554600053
0.9754772479927473
0.9916305037659315
1.005171054155103
1.0189120302206869
1.0314726955947533
1.043617183504921
1.056176064817109
1.0672626543417063
1.0762138972273145
1.0826979453377752
1.0877991514755248
1.0890804117152708
1.0891189688756584
1.0862427267887063
1.0824025008695588
1.075340992479835
1.0664380099334358
1.0529697424290074
1.0392934861535263
0.7414073323696563
0.8792170042410988
0.9245546845032561
0.9510389076608455
0.9706839989222684
0.9862553263549912
1.0021313762413344
1.0158089769123673
1.028317086196268
1.0424047980211655
1.0559103306985924
1.0664858026025335
1.075472483024385
1.0840116647076055
1.0897625345733952
1.0929082434406021
1.0941795671487664
1.0918122459280757
1.0884458561492785
1.083861300331596
1.0750255560513802
1.0652670296803453
1.0516389720148893
1.0370257155887936
0.8268612104604768
0.9008478358189531
0.9368409992588707
0.9618312471509542
0.9815122213321398
0.9973278700781846
1.0120133896156716
1.025245138116238
1.038562734927356
1.0529790154453897
1.0662912294887137
1.0776467783094692
1.0850626741755116
1.0911508966522299
1.0952188615616782
1.0969431054850878
1.09708100443954
1.0933689970297678
1.0894972104735157
1.0821997126529321
1.073902943775865
1.0629027458782874
1.049541113747008
1.033527398619277
0.07880404799715696
0.16102005804923444
0.24669014015276874
0.29232470239730146
0.36152962288682067
0.45282276714157677
0.11254659814544371
0.19416754554992438
0.2688403408988836
0.3096786079182301
0.36961771230193813
0.43168376636943095
0.12916084564433858
0.20462504350354666
0.27077923657937353
0.31050243558385443
0.3714148679876433
0.44208155988666087
0.1435338797309215
0.21143612411302307
0.26947618010529917
0.30883304762531316
0.3734622216228578
0.4524734485369691
0.15828410465355708
0.21675484602789724
0.2674901972566263
0.3073032080687536
0.37433874720077354
0.45820295229303604
0.1719134911638055
0.22120040918988856
0.2644414864357215
0.3051438804598903
0.37328763846110247
0.4578192614339982
0.18446564670889345
0.22391824029871066
0.2617406365662323
0.30313475313233124
0.3709176134697066
0.4547141808999135
0.19492770455428626
0.22572225827507994
0.2595436495656963
0.3012494318451366
0.3676005183863436
0.44983966767171496
0.20338775046133062
0.22690913376628732
0.2573161306775699
0.2991793459547984
0.36433127486802525
0.4428910713011303
0.2102252379495087
0.22804552149849824
0.25543476294138245
0.29706608268419227
0.36127517077666627
0.4381567076713441
0.21519942859958477
0.22888829449102366
0.25555514849409305
0.29616931216322595
0.3592039903791861
0.43556940602023553
0.2176949108483363
0.22962076638525294
0.2566653009218284
0.29715991419711074
0.3591659017763838
0.43472534227019877
0.21782759791627504
0.23065931715684435
0.2587622976580211
0.3002567007099938
0.36204244288064147
0.437121694622683
0.21572902821519083
0.23094679434946283
0.26111435876553735
0.3044766509246657
0.36775877608229723
0.44233156729773776
0.21114290482651574
0.23059490302253544
0.2636391421185189
0.309098685681512
0.37337339255142177
0.44872752409152966
0.20454858336669557
0.23034974179572837
0.2667789834534272
0.31366325891503516
0.37913198942279897
0.45497405943776487
0.19607696322090123
0.22952852555609812
0.26982003345367905
0.3172251450016896
0.3835649352725275
0.46121290784316815
0.18567401637125397
0.22766441162287185
0.27174419173101416
0.3202733194464776
0.3874722781698134
0.4653096564536788