/*--------------------------------*- C++ -*----------------------------------*  =========                 |
  \      /  F ield         | OpenFOAM: The Open Source CFD Toolbox
   \    /   O peration     | Website:  https://openfoam.org
    \  /    A nd           | Version:  11
     \/     M anipulation  |
\*---------------------------------------------------------------------------*/
FoamFile
{
    format      ascii;
    class       volScalarField;
    object      U;
}
// * * * * * * * * * * * * * * * * * * * * * * * * * * * * * * * * * * * * * //

dimensions      [0 1 -1 0 0 0 0];

internalField   nonuniform List<scalar> 
2880
( 
0.07236355250702714
0.1421738321951157
0.2217591532923792
0.2695388587018308
0.3398712313000106
0.44839997361354283
0.10137873260747708
0.1721164609205341
0.24463293798724275
0.2883645669386233
0.35081798605177417
0.42080132796829695
0.11494349710806906
0.18260888414365334
0.24843599554863938
0.2911211774099369
0.3547496358839828
0.4288150932312821
0.12710108715294077
0.1902114919287754
0.24927009980987352
0.29149795988257116
0.3577366180666829
0.4370995639585768
0.13993687172908725
0.19654809842624693
0.24926485588200042
0.2915328972960935
0.3588819477514597
0.4405640756091946
0.15223691708358322
0.20157484997287556
0.2479831707659703
0.2911278189091165
0.35832534278897066
0.4397288724121359
0.1634227981283478
0.20510465880480788
0.2467096461657971
0.2903477728697385
0.35639694077318296
0.4357907060516021
0.17242986492185686
0.2074990842540442
0.245689172492909
0.2893697244922609
0.3541362556295516
0.43060893386518967
0.17990025467118137
0.2091134099775222
0.24446439028953362
0.28817952122098783
0.3515036022107946
0.42511923042988525
0.1857485357574984
0.21031724684369107
0.24323633402498704
0.28733242510239304
0.34970409052596607
0.4212404678634068
0.18987524774971645
0.2113832098187925
0.2437710037194111
0.28756465869032477
0.34923560701837086
0.4194161957786138
0.19203825513157097
0.2125396569656485
0.2454987319029495
0.2892152813398511
0.3500709985520157
0.41853925753625854
0.19233904249295258
0.21334504102854582
0.24782884972652583
0.29240662890048397
0.35272344420702856
0.42016770797528036
0.19062675473566668
0.21380530460224884
0.2502407886728136
0.2967697619601712
0.3577322651929987
0.42510624866721164
0.18675607967581023
0.2137757650395795
0.25254743948422426
0.3011893537087339
0.3633211617229109
0.43100082184279676
0.18116364470335558
0.21308540151581956
0.2548416686834088
0.30501309681502153
0.36854903643510145
0.4371827649149419
0.17402985029424753
0.2119566385183662
0.2570066705800469
0.30775962587028616
0.3731974187146431
0.44322003190651654
0.16491713887906512
0.2097192449680767
0.2580844567269468
0.3097389780375809
0.37665826204953884
0.44838612821569984
0.15372533077454656
0.205486267686419
0.2586875675360949
0.3104280002649605
0.37841212327985035
0.4522495470556647
0.14042408112428978
0.19884638186642667
0.25798458595995133
0.30905132681929137
0.3784385269422376
0.453621290468271
0.1254441225875382
0.1897942487385094
0.25565476187834923
0.3071687078419526
0.3762940057566474
0.4514682170261707
0.11051484391300077
0.17813784708930344
0.2511460097239915
0.30331695633581723
0.3727068720797131
0.44434860792159914
0.09423519204896101
0.16333620115273476
0.2422692341743641
0.2954564477948799
0.36958772147403246
0.43387127084002575
0.06423911702295888
0.13007537403348327
0.2159612195350451
0.26955191351557906
0.3623569419558079
0.4332124778689325
0.8240880398978113
0.9061122824596887
0.9468065748740148
0.9707075842831012
0.9866784940426312
0.9978791231458936
1.008785443442923
1.0235659370022319
1.040028521737804
1.056477237685765
1.0718939152133617
1.0854972857892848
1.0954797853250846
1.1016212774350609
1.1046974544145258
1.1052954058793398
1.1033916785378726
1.0992595861180345
1.0935848160066572
1.0861241711067193
1.0769709393960774
1.0655378324826135
1.0514638856271037
1.0355591307897307
0.7265548794233553
0.8720291691166364
0.9305706454265918
0.9608539519906767
0.9813573930017743
0.996236891458147
1.0101550091111184
1.0283659925991897
1.0488217664690285
1.0671817029042407
1.0825379043732848
1.0944942783002716
1.1030965443297391
1.1079539938341814
1.1088377214058054
1.1075261242076875
1.1043577392424666
1.0995109237082237
1.092646650004627
1.0846545051049337
1.0749816237181236
1.0632374804353022
1.0486662329501792
1.0327047545410764
0.6605133152807559
0.823620194686624
0.8982389914775274
0.9414568802505339
0.9687307717702306
0.9900726634563579
1.0098085385601185
1.0334292731669448
1.0561850567741893
1.0762055400312098
1.092012455355513
1.1022489407523433
1.1083215563489346
1.110489420220709
1.1104824982134631
1.1079809602006312
1.1036505222444264
1.0977705723502704
1.0903497572104333
1.0816895859267923
1.0716284261172455
1.0594586294982327
1.04502394931117
1.028716541082922
0.6196937629495205
0.772808109225662
0.8586488498379887
0.9120210577146983
0.9483203847969486
0.9777387821169934
1.0078984429294222
1.0362975744038596
1.061147666092001
1.0819226881486739
1.0970332876121052
1.105913549489025
1.1099161139124119
1.1107536841151875
1.1091944727894691
1.1057124614454246
1.100319540915345
1.0940122384420172
1.0862371657032222
1.077330219089388
1.0666857373929939
1.0549564572329015
1.040050254313437
1.0242269945749418
0.5915826866393029
0.7291155351580518
0.8190818079999735
0.8799749830014502
0.924069652939268
0.9624798384955723
1.0004884705566772
1.0347300013907839
1.0629496132384415
1.0833826583470214
1.0969688253735235
1.1046917362967847
1.1074839220273267
1.1074927773696743
1.1052139018571148
1.1011758900530828
1.0957606599092993
1.0891780017440615
1.081296995505471
1.0722607662202037
1.0621545272864088
1.050498688560232
1.0356265444971318
1.0198051037550737
0.5693878341632715
0.6934492310307092
0.7828143989460614
0.849391311046644
0.9008383934941238
0.9479326097484018
0.9926917246533961
1.0310873098491469
1.06060962689375
1.08094408999628
1.0927421739245748
1.0988586290891826
1.1013658875537697
1.1007540419539479
1.0983523991604915
1.094278954555443
1.0890033491069961
1.0828356861071302
1.0749859620719855
1.0660988798910278
1.0563220313332329
1.0448252662102344
1.0303890023015272
1.0150307868358994
0.5504049010221647
0.6641567375893057
0.7525469989568174
0.8225353418296955
0.8817649667495628
0.9374981997077233
0.986525915400717
1.0265845519493617
1.056060075016135
1.0746681832548315
1.0856817003872405
1.0910609575840817
1.093232044105159
1.0927571474061635
1.0906562488393827
1.0867492115621238
1.0819701343871886
1.0759124487731355
1.068608365289209
1.0603914579438494
1.051186424053434
1.0400061977525252
1.0259406356650782
1.0120301831502225
0.5342201482821352
0.6401534119247116
0.72800415138403
0.8016526029198714
0.8676215387292214
0.9297588988005597
0.9822826706263248
1.022747007870382
1.0502486777676552
1.0668834122149515
1.077253731120198
1.082095112603267
1.0842843682906185
1.0839937635131285
1.0822896804518474
1.0788087759773657
1.0746714720360784
1.069365988950742
1.0627228957890773
1.054771357968638
1.0462947382687355
1.0359054930303078
1.022958175612885
1.0093242156566353
0.5211918239450398
0.6223385239453042
0.7106242977166984
0.7864729211932192
0.8598521260637927
0.9263706891325314
0.9802050721523025
1.0187121223359665
1.043370319527823
1.0588706713018794
1.0678056556346551
1.0724868218048969
1.074838245816787
1.0748879600993209
1.0735551044993406
1.0707981205636161
1.067320823982204
1.0621382415098328
1.0565008182577655
1.0498509327456045
1.0420638229465722
1.0329270951492604
1.020680063025514
1.0085532055223119
0.5125772162960005
0.6103340567149177
0.6993190122576339
0.7801490199602265
0.8591277742340764
0.9270394094112311
0.9790616940641749
1.0138647065322197
1.0360264318488808
1.0497474841248915
1.0584160494223744
1.0629240950825491
1.0654429434828079
1.0661216225920114
1.0648600483916069
1.0628219060770903
1.0600211396525665
1.056155044807179
1.0515364835099397
1.045799411427514
1.039462173084979
1.0315112183607893
1.021037708386866
1.0101140518437304
0.5071544696109068
0.6050485606601632
0.6949106448357987
0.7812199532397871
0.863507903313328
0.9310040878477372
0.9787938074022269
1.0095931720445277
1.0293882058530055
1.041962278853177
1.049768109629923
1.05460257746359
1.057115869079765
1.0579946566918172
1.0574697957883419
1.0561816876788603
1.0538692986772316
1.0510387379666581
1.047280434028739
1.0433957696136913
1.0384012056607574
1.0320320325979913
1.023171954017307
1.01340903842755
0.5051911540432927
0.6045833299096444
0.696658188931771
0.7898110222616388
0.8735682451453946
0.9372005618241841
0.9796092994962422
1.0065408871884065
1.0239288497407986
1.03524958086225
1.0423078291531735
1.0472129478406667
1.0500547931326056
1.0513596632342213
1.0513655086040445
1.050258030948593
1.0487979334454627
1.047146651158841
1.0453536153283909
1.0429539579901204
1.039624399441224
1.0348570817995106
1.0270323187626247
1.0180755215532542
0.5071512774716559
0.6078093265777619
0.7063922974275667
0.8049757953452912
0.8872205796661939
0.9445077169987457
0.9814542337865384
1.0043602235048443
1.0195786533125928
1.0301228374782934
1.0372023868653892
1.041840777764645
1.0450973913007535
1.046142771752712
1.0462227137773155
1.046302254233976
1.0465733180204844
1.0463996943655944
1.0460688628343193
1.0451437339243337
1.042735337903708
1.0388694498898394
1.0319181176427397
1.0236549347293924
0.5122173530428191
0.6149802372091582
0.7216722404105881
0.8240601793519907
0.901344637979996
0.9516261997759202
0.9830208683861955
1.0031971197251235
1.0169409108627183
1.0270838408998846
1.0334583286562207
1.0372875655013805
1.0404976977270313
1.0430649006685249
1.0448233444566564
1.0462553744394107
1.0467282250241967
1.0473161274481697
1.048325429093775
1.0485231048540318
1.04737809022471
1.0440935294580398
1.0375004946431607
1.0293186216181869
0.5205326933974392
0.6273822456352032
0.7430901333444039
0.8455654847485529
0.9150465632042678
0.9581396389301442
0.9849031142338066
1.0034529509300356
1.0158867728935224
1.0241189128308095
1.0308535653255941
1.0356577579516961
1.0393676795295874
1.0414368276877146
1.0433793658843744
1.0463839612933243
1.0490330671678179
1.0515489447147113
1.0528906383113312
1.0533158979014183
1.052080292509902
1.0489915296016152
1.0426860223186432
1.0342917295521128
0.5311756029852751
0.6474728797629539
0.7707037029595809
0.8670286293840745
0.9279088801554354
0.9644870781124084
0.9880610892818154
1.0034769691287555
1.015145031773377
1.0237551244216554
1.0294100769194212
1.033750754413141
1.0375499681635754
1.041517618824865
1.0458496964747874
1.049526204583505
1.0523462242089225
1.055276737398875
1.0576726379876848
1.058589725552932
1.0576159460867394
1.0543141038563373
1.0471166367840812
1.0383777529760123
0.5433219049731284
0.673771330436571
0.8020569441981696
0.8891234062873452
0.9400669183772669
0.9703624921717307
0.9911157955866124
1.0055426545075308
1.0154456555910754
1.022657804408502
1.0284958212222788
1.0338459926474646
1.0387002065841429
1.0438998185379798
1.048917671594859
1.0540316092206743
1.0582404349781795
1.0609793243328827
1.062851330804056
1.0637511582723451
1.0621275642982404
1.0581917715618174
1.0506760804694084
1.0410302301990877
0.556816893831259
0.7065315869266402
0.834867113068896
0.9089272533313985
0.9503506677500666
0.9767718858047506
0.9941736529276847
1.0066034005721225
1.0160623716392274
1.0233004877916654
1.0296477463134204
1.0357292056551208
1.0422134721466358
1.0481676552349197
1.053717558034667
1.0586626007738025
1.0631196755330667
1.0665658596746315
1.0684481162950743
1.068195647577957
1.0662691537812183
1.0611798855687413
1.0524224865840117
1.0418331196676227
0.5742538034384587
0.7467312909018617
0.8645361369623061
0.9256514574898312
0.9598448942840038
0.9816417248676209
0.9967538906535471
1.008004196768672
1.0166202245234253
1.0243144255110266
1.0306674613934255
1.0381071920094431
1.0452685831150628
1.0528941531857336
1.0593957079008938
1.0649260361630193
1.0684256694405625
1.0718747653447702
1.0732741399442685
1.0726457826167692
1.068988694618925
1.0630486584990964
1.0533200097789746
1.0413488272440339
0.5973712992313135
0.7902947294111832
0.8907381256045884
0.9398652552225883
0.9676649523070142
0.9858416556842208
0.998706414206311
1.0089843502050777
1.0171152319508858
1.0247530055959502
1.03377406605815
1.042910947927465
1.0512778037707018
1.0588311425826953
1.0650331694760329
1.0706992194914073
1.0744500523388762
1.0768817893119742
1.0772402547857514
1.0753985236543449
1.0708462305339632
1.0636074087900707
1.0534228701913402
1.0406486591504005
0.6310515447028628
0.8324382752299484
0.9128943098468923
0.9515250391910987
0.9737885186173544
0.9892413469942741
1.0005802594697286
1.0097685963498446
1.018878938284589
1.0286997921808203
1.0382774460431707
1.0479953067026189
1.0572762916689176
1.0652578735952405
1.0716714271381307
1.0761898484075154
1.079736015682309
1.081220800965712
1.0805165310019003
1.0773678860431422
1.071639680048154
1.0633498379181547
1.0522856549804966
1.0386369092500873
0.682851938081662
0.8676729897217266
0.929815439715028
0.9600053256156345
0.9783314986629924
0.9912674912116329
1.0016953165083
1.011268682900739
1.0208462704072574
1.0312991112857888
1.0434304981589833
1.0546472068129582
1.0637812818405752
1.0714798959715037
1.077824928846046
1.0819585583764335
1.0845574306297658
1.084761871421509
1.0827865634518727
1.078335542444054
1.0720184585534052
1.0626220193513398
1.0512940860226845
1.0373100608863095
0.7531286267957914
0.893929237966297
0.9404546815447077
0.9650904470891024
0.98083657093439
0.9926578908496428
1.00252193786838
1.0122041074811832
1.0239929782748365
1.0368825678827638
1.0495081726053928
1.0613607640686027
1.0714996953622469
1.078927234909321
1.083809611318907
1.0872032399969782
1.0885525106063758
1.0872039505717848
1.084311641668293
1.078772307062686
1.0717035966736188
1.0620103012079705
1.049606492134102
1.035154081801888
0.8306085660097929
0.9082071612360675
0.9437931135880293
0.9665675315515961
0.9813502120548961
0.9930061910208295
1.0026118498131011
1.0148577870380322
1.0286528915142874
1.0430195927919232
1.0564924465778418
1.0682361167681247
1.0781867685158137
1.0851260549342892
1.0895010644436292
1.0918723413641698
1.0916464667848
1.089243595722467
1.0851183554494452
1.0788574617377815
1.0711639353783333
1.0610580736734896
1.0480160131964784
1.03377026014804
0.07205602666732318
0.14432916543619823
0.22595402236447618
0.27570878992087544
0.3452177199653421
0.4527160969840049
0.1028252065239977
0.17577327915636962
0.24947837080122268
0.29353384173776015
0.3546641599293565
0.42313283364739274
0.11721555815942482
0.18675600358169198
0.25349418947271823
0.29598856615276914
0.35882368130012804
0.4308956886435991
0.12978546894161716
0.19481198007799078
0.25420189627647105
0.29620406802492844
0.3606376039519047
0.438572905370795
0.14290525311958624
0.20123063331609206
0.25361079560810684
0.29576606495564783
0.36094080592833633
0.4407783794706396
0.15557897502379792
0.20601905844576404
0.2529063929633584
0.29499746481119155
0.3601323977292123
0.43917451159037374
0.16732105671302835
0.2093212434576878
0.251425475032297
0.293841246144657
0.3580347611236285
0.4349439700567113
0.1769528779466111
0.21214311407597072
0.24966634108502261
0.292283454897768
0.3552200120134125
0.42916261870906924
0.18475378543000623
0.21420395155264085
0.2489314972666468
0.29091200784688004
0.3522918502622892
0.4231240245609196
0.19085881963400886
0.21571201152770508
0.24884311198474396
0.2904548956963688
0.350254073609702
0.41887425580495224
0.19519835791568424
0.21689864713941653
0.24931901491741523
0.29064264437376985
0.34971094152930715
0.41733608186847054
0.19734415949729858
0.21781737617744423
0.25061656675121874
0.2919218405396079
0.35102226916314594
0.4176355423909709
0.1974592050861521
0.21847552985788365
0.2525595371275297
0.29521614185815476
0.3544324173852283
0.41976098600707556
0.19553754732751416
0.21880091262694132
0.25497204753360897
0.29958971298093934
0.3592810388406065
0.42434053614438244
0.1915031072628798
0.21862338186979416
0.25740251589371993
0.3040747289334274
0.3648015334216451
0.4302170353156233
0.18566052338480468
0.21780153971278315
0.2594393021577184
0.30821449454154787
0.3701795376702886
0.43654420412675865
0.1782648485688227
0.21623178697256562
0.26078299968238394
0.31145390483394986
0.3748690529623549
0.44262680201938415
0.16883499421933507
0.2134526064825794
0.26220773379696155
0.3133556073127221
0.37861943943944276
0.4480104422599853
0.15734126184998848
0.20919114243107945
0.2623944799921813
0.3136357903351098
0.38080312576087955
0.4521474904378268
0.14376415408934803
0.20268352176978952
0.26153988719339777
0.3129813584569383
0.38094579378064225
0.45379265802153357
0.12788300693041785
0.19315510671439118
0.2590499009492894
0.31048917260956393
0.37917812549234975
0.4523312493629734
0.11234281586616236
0.1810534600848022
0.2538488227632863
0.30637016030246206
0.3756730375443566
0.44636368302107204
0.09541354542621307
0.16586276044869783
0.24471699257977889
0.2981634430239932
0.37178518834695523
0.43745643143758217
0.06377906746594283
0.13146142408970315
0.21699848070871036
0.27136979744316553
0.3628580452258384
0.4374957398185228
0.816940964894792
0.8998288129932229
0.9388219316270051
0.9633739116861607
0.978784726806617
0.9914377180814385
1.003825995822923
1.0172269419902975
1.0335072909748009
1.0499871330753974
1.0643793128813468
1.0761375652020748
1.0846084441294486
1.090926285902368
1.0943484346880339
1.0952662853464905
1.0938955154643846
1.0903127100267958
1.0854276244827106
1.0784845420988365
1.0700648974853821
1.0597697661099108
1.0465763922402436
1.031849748702211
0.7199507712005384
0.8649973341169899
0.9222807520716614
0.95354467127513
0.9729204944047375
0.9879630211885745
1.003121636083532
1.0215038281380535
1.03962751859316
1.0565978995890342
1.0719667157468828
1.0827802587162154
1.0910821642127277
1.0958215882733302
1.0976695870881896
1.0973161201152988
1.0949162314887784
1.0904103119076243
1.0844737979152985
1.0774588235276126
1.0685524783549853
1.0577297328351092
1.0447007837736206
1.029890037141465
0.6562163152394981
0.8171154256964706
0.8916963729067521
0.9337750267867082
0.9606834919830585
0.9803953135490991
1.0018651747720322
1.0240275651774318
1.0448431806589284
1.0631009124019166
1.0777593531159662
1.088209260152402
1.0950221701653942
1.0984856303829724
1.099211986033607
1.0978151860590377
1.094394604116449
1.089460407761975
1.0831601364972498
1.0759416760717275
1.0668453423748212
1.0558031347837498
1.0425652935923913
1.0279555056725627
0.6161581281656664
0.768777104358652
0.8534652507968733
0.9058206652737768
0.9409891701364297
0.9700280999171398
0.9970762966159027
1.0237783286421864
1.047709978146639
1.0673634898098423
1.0815603977524197
1.0911301659551496
1.0966718541265403
1.0988436139429423
1.0986399796059139
1.0962086615997961
1.09234737022648
1.0872972697774834
1.0809201744024532
1.0730556367301947
1.0634880443445192
1.053031096007307
1.0394463827473364
1.0249713753071295
0.5882646624691727
0.7263383238151591
0.8155715358587272
0.8752631455670371
0.9187715788571821
0.9550718538126631
0.9902180209793616
1.0213102178941345
1.0474302165290144
1.0675394569297245
1.0817003726305023
1.090162564474876
1.0944969621027272
1.095864432023043
1.0949782391887923
1.092260446389318
1.0880879613451153
1.0828610390556856
1.076560411747656
1.0687158633145304
1.0597764722549208
1.0491459467458137
1.0356657909887894
1.0217547269209657
0.565858545352436
0.690017175012764
0.7808609672673613
0.8466049809662898
0.8965896966461657
0.9413142393191933
0.9820241922894322
1.0171040238841105
1.0449594075464272
1.0651774017908253
1.078162859756295
1.0856513685553222
1.089154784681715
1.0902374628686178
1.089086646604886
1.0864860279350368
1.0826438986377636
1.0778042244127417
1.071553950961851
1.0640395334556798
1.0554346106347205
1.0455930880353397
1.0322218138649937
1.0187154878163411
0.5469251965206434
0.6610287321049675
0.7508405844593484
0.8211730508824403
0.8781223720855406
0.9296329946012254
0.9754253967650011
1.0131322310881195
1.041214289858667
1.0600682610027414
1.0718618963088309
1.0787572141143031
1.0821880546862919
1.082850673133301
1.0819482478548452
1.0797673034675617
1.076285819376073
1.0713352543684111
1.0655131077416071
1.0588282138385685
1.0507529193833327
1.040811642158675
1.0282399720238922
1.0154280947627237
0.5306034304058077
0.6374586899391305
0.7266684807234426
0.8004047696226488
0.8637409948453351
0.9223255998206326
0.9713467394237546
1.0099634040000072
1.0371350465445333
1.0542677115611883
1.0644642878318378
1.0708676154353935
1.0738363406151377
1.0749124769038156
1.0741704102220975
1.0722603185000763
1.0691299520773019
1.0652050212846165
1.05992194907581
1.0537570428891672
1.046241603967379
1.0374337578194164
1.025279143115295
1.0126729787346254
0.516965724264019
0.6185511027223793
0.708470335723258
0.7850905166479404
0.8555884736687704
0.9191084085442269
0.9700934729438605
1.0077055025099224
1.0321325535352455
1.0476267164988102
1.0571875809226339
1.0629839107281598
1.0658936274620503
1.067023657600821
1.067133165816431
1.0657726465853896
1.0635792726097868
1.0598260459190498
1.0552417526908913
1.0492314347157718
1.0425756656466096
1.0339667465451459
1.0227812826384775
1.0110193457249004
0.5080151192656089
0.6065733480186367
0.6965929236286539
0.7765137179794338
0.8538366863522627
0.9207320862988009
0.971503885437758
1.0061182135723667
1.0278825949600956
1.0418969560050726
1.0509411669675621
1.0564948758609949
1.0595229180462467
1.060806012673834
1.0613638427163994
1.0603411986960074
1.0581061177205502
1.0549954765646392
1.0511405821411903
1.0459993243389014
1.039604303712866
1.032253715587375
1.0217203629469123
1.0106837861541287
0.5038102209104006
0.6015072812223712
0.6914401808888496
0.777164676334082
0.8588453383796915
0.9259444124227325
0.9734498031406636
1.0046165836376184
1.024310284774907
1.0371650008169349
1.0454213534379886
1.0508531524940206
1.0544174595980846
1.0561448903684159
1.0562877528359444
1.0561001023096768
1.0545724899902094
1.0520412405860806
1.048803739266026
1.0444040844419535
1.0390321132615745
1.0324455318665666
1.0228716644767721
1.0123840412097032
0.5025164865276335
0.6008920783304154
0.693697471477867
0.7864541592398008
0.8698182506455089
0.9335159524308119
0.9763767162001967
1.0038915163915376
1.0218480700403276
1.033764504407406
1.0418132966797458
1.0473229099343486
1.05085964798251
1.0528982320890845
1.0541721452987385
1.0536574133137588
1.052399263372777
1.0505299597516011
1.0478605122745612
1.044622482992975
1.0400989946617902
1.0342708720168132
1.0253582035717679
1.0152214782967737
0.5033956963158044
0.6036337220867243
0.701756984097272
0.8011433211731488
0.8833919509816123
0.9422798610447485
0.9799477488977075
1.0039763970265732
1.0204350484889728
1.0324231167301723
1.0401118385453796
1.0456814320315835
1.0493038927351868
1.0518046233678504
1.0531236494275056
1.0534208927235365
1.0522442360072326
1.0505705253900557
1.0490790640875778
1.0470076386180394
1.0432138083462352
1.0378781351595223
1.0293433075853742
1.0196859863452212
0.5091425930111327
0.6102007521209866
0.7161875671253958
0.8192680448851721
0.8979216244569301
0.9498440048293911
0.9828986028603061
1.0051032167367562
1.0205889692152141
1.0313534425868853
1.0393704773654597
1.0452425644300292
1.0496941427937787
1.0523313591156693
1.0534575766956904
1.053862744724965
1.054178140701913
1.054373759096801
1.0532332995567957
1.0513196126133961
1.048009426397544
1.0428867865328055
1.0342396443658184
1.0241707789335588
0.5176453924106102
0.6223232574977177
0.7364079809244735
0.8391830619527277
0.9110276665652512
0.9560502748818092
0.9856723286271933
1.0057244901622628
1.020400005512632
1.0316341533185227
1.0401645638305026
1.045950802124587
1.0502232272798402
1.0536812165994685
1.0559037408408503
1.0576689087717912
1.0589413510915855
1.0591313364929462
1.0587182227117045
1.057171554623591
1.054030453199009
1.0486179119287116
1.039885074208957
1.0295057338363784
0.5277577554343577
0.6410390653944316
0.7628509503047347
0.8604858854203715
0.9218932404208857
0.961529514347273
0.9874078012602606
1.0065001540516798
1.0208562875305054
1.031822411329908
1.0402968567385689
1.0475728744233657
1.0529426339821737
1.0565967388765325
1.0596644213042299
1.0620969184531928
1.0644421517096534
1.0657513939023868
1.0652979956623327
1.06365392675957
1.0600264066491327
1.0544703013045635
1.0454632579582497
1.034492607526325
0.5390797190097081
0.6668183521789159
0.7942854301735516
0.8803648929195008
0.9324606067626032
0.9656556842671525
0.9894030599662654
1.0074684114138286
1.0213416362276266
1.0330454899358634
1.0421540785674435
1.0491633181634525
1.0550647295856554
1.0602043702551984
1.0652556881855313
1.0684363027289634
1.0707548065329036
1.0721362781967299
1.07211420568088
1.0702356917312836
1.0665284927328798
1.060047204634247
1.0503922962186962
1.0389708423087565
0.5525744994592107
0.6998005204211601
0.8258207652838344
0.8993142496858026
0.9427002309577831
0.9706746888254565
0.9911997264166345
1.0087855120465576
1.022523549857131
1.033778973643519
1.0437713674300326
1.05171298120214
1.0589565522292694
1.0651676603272169
1.0706566790679086
1.0749450799767233
1.0781341279898966
1.079197404617053
1.0786898204414523
1.0767994161929073
1.0719235660503126
1.0652266789676115
1.0548709082991867
1.0425543826857429
0.5700992020031483
0.739663731112458
0.8554139584008962
0.9166655418239906
0.9516744408595136
0.976123733908524
0.994225188871739
1.0099606618100996
1.0237692145035662
1.035504089056731
1.0457891420080963
1.0549846357111827
1.063825825259532
1.0711864038610692
1.0766341145913083
1.080495971253091
1.0843783148800132
1.0853713808761656
1.0847497101543684
1.082077111482641
1.0769110099292725
1.0693758677566492
1.058095894762986
1.0448030382562103
0.5935590793474664
0.783654295822683
0.8824409635340189
0.9313488823620633
0.9606681720822585
0.9815234514565434
0.9986917618711038
1.013251014477367
1.0258943345401759
1.038087498725967
1.049029960702514
1.0593653035118622
1.0681416524322658
1.0766207616738377
1.0826126172925408
1.087091098403719
1.089513085344322
1.0907086990331285
1.0893212813281825
1.0862787239103335
1.0803188943962425
1.0719043636080043
1.0601797013757948
1.046553515887852
0.6279204991033731
0.8267457884702946
0.9056186885409485
0.9438206251503375
0.9689969087165182
0.9876031170933991
1.0034415739477422
1.0174098592034508
1.0297525978019948
1.0403788873752675
1.0530220260129313
1.064221980890649
1.0738895083451592
1.0812161905537803
1.087463904035137
1.0922069529524976
1.0944773146756919
1.0946199416815774
1.092841718798018
1.0885369091356116
1.0820849406628377
1.0731187722214826
1.0610957457723111
1.046457979835438
0.6809102032513281
0.8637660852572795
0.9238020153971251
0.9551052294940274
0.9764000920636701
0.9938440341063542
1.0085011798681585
1.0220632626180453
1.0347980823957237
1.0469273327812756
1.0582026314225406
1.0689723001462577
1.0792024620386635
1.0870124648596124
1.0924885032410239
1.0963890673848087
1.0977904801606695
1.0972431554608093
1.09443838985337
1.0895704560633774
1.0825026383852239
1.072995839088025
1.0601452492830408
1.045613244785825
0.7525990182177019
0.891117325652915
0.9363547496485061
0.9634744614991113
0.9829889106940568
0.9998861270833294
1.0145594039081682
1.0272666968429334
1.0397789138423372
1.0529593042239311
1.0652555026242247
1.0753201765493718
1.0840345364557655
1.0916265931078963
1.096834407983099
1.099398899444157
1.0999269599515493
1.098681184525204
1.094915546928705
1.089253814531655
1.0816206589772088
1.0716124470449997
1.0587145706708672
1.043629446605239
0.8306243984280376
0.9056141472142053
0.9430044134585627
0.9688559743842541
0.9890436003854904
1.004915180583299
1.0198498761031853
1.0327146537499434
1.0464192733577926
1.059817337114655
1.0723017939452364
1.082676139919083
1.0900740690770068
1.0957261229246806
1.0996455596646613
1.1013634744508696
1.1009558532129686
1.0983858803355748
1.0940442629489346
1.0877166110953298
1.0795749216981905
1.0692595855987141
1.0559701556848085
1.0401465654399205
0.07593613953738972
0.15413729822476419
0.23849884789496215
0.2869530170198985
0.35585775100611444
0.4549980013482973
0.10773126441858817
0.18613071505063777
0.26060448271902475
0.30403336785694857
0.3638841283380992
0.42740767054705986
0.12347202565885933
0.19672702573326473
0.2631546857587582
0.30476135704192614
0.36502061244698225
0.4338878775581494
0.13734454093389592
0.20402447953160632
0.2628627054393693
0.30294914397613054
0.36579054538510125
0.4409070445152605
0.15135264607250457
0.21006604774581988
0.26147640615913664
0.3013177347567803
0.36512663024502273
0.4434152089276687
0.16468719180216
0.21474560909339174
0.25906327780140753
0.29924980749364466
0.36301513599388713
0.44155056401129816
0.17657047059817366
0.2177707642837347
0.25689571956415963
0.2969849480530874
0.3597408573411444
0.4366384370679559
0.18643419474386394
0.21968955880287921
0.25493181819874566
0.2948326965497961
0.35598994713591064
0.43030936788867175
0.19461263198634068
0.22093405288637177
0.25286656126473345
0.29257297673977734
0.3522444789758969
0.42346006463532926
0.20104202976867339
0.2219849200570421
0.2510488428645807
0.2907944288293622
0.3489199530487127
0.41827300584362864
0.20555677167143585
0.2228729542638503
0.2513024869936435
0.2903124570475643
0.3477210514057968
0.4166096859343554
0.2079108028604861
0.2238255530978728
0.2525821357410193
0.29157709705215645
0.348316820110819
0.4166509724646454
0.20826498050668382
0.2245266670939348
0.25464714021048257
0.2948503757775177
0.3518344929524547
0.4200330427223349
0.20628285583101286
0.224877464349916
0.2570495330959
0.2994858569831945
0.3579951629183734
0.4262285329997218
0.20199743845323717
0.2247963178133438
0.25972092240014993
0.30441568902300636
0.3644145511098806
0.43363886951505815
0.19574919153175954
0.22429874980337333
0.26256069642772045
0.3089740134438468
0.37082236321243917
0.4413148892392874
0.18772475916124845
0.22322060482171308
0.2652143083545769
0.3127414835126278
0.3764978785099867
0.44855221537768397
0.17775510358456445
0.22113428311749755
0.26700617844062813
0.31585752963013924