/*--------------------------------*- C++ -*----------------------------------*  =========                 |
  \      /  F ield         | OpenFOAM: The Open Source CFD Toolbox
   \    /   O peration     | Website:  https://openfoam.org
    \  /    A nd           | Version:  11
     \/     M anipulation  |
\*---------------------------------------------------------------------------*/
FoamFile
{
    format      ascii;
    class       volScalarField;
    object      U;
}
// * * * * * * * * * * * * * * * * * * * * * * * * * * * * * * * * * * * * * //

dimensions      [0 1 -1 0 0 0 0];

internalField   nonuniform List<scalar> 
2880
( 
0.12441446758929105
0.2339199159065234
0.3082232911555797
0.2909526711239111
0.4109409264869591
0.4923522735953741
0.1631131677456219
0.2589737077549753
0.32370746491136065
0.3160273251026645
0.3969874482730438
0.5426138195221177
0.17514740519566427
0.25792415718186396
0.3104451136799127
0.3202726890978656
0.42308406434477025
0.6597717861209084
0.18775365274716221
0.2557793914792333
0.3016013192340735
0.3249342418923501
0.48187494785994023
0.7621519586595311
0.20538974678951455
0.24793154712342846
0.2917960175514677
0.34192296280116946
0.544504885861582
0.8207130462218466
0.22181467612832068
0.24554385409894822
0.28280712821300524
0.3633520938748832
0.5849684997897926
0.879645234776095
0.2328711310097914
0.24940748326051185
0.2795520149194672
0.3847315497391328
0.6292247176030843
0.913661348324294
0.24833703443060529
0.24807851257064895
0.2811383181881072
0.405136005843205
0.6512231518471445
0.9398355598630923
0.2645891460176435
0.2469994997367342
0.28155262526713415
0.4207175728102454
0.6800074414048118
0.9562932734001869
0.26597874725119186
0.249843996205093
0.2757711651210562
0.43196795570502117
0.6947418017203555
0.9818800611169454
0.2818898083956011
0.25320216801233625
0.28077578297256606
0.44362900308567577
0.6817085702136658
0.9642647963901065
0.2791377936428023
0.2546399924424305
0.29514160445902116
0.43576571685865917
0.6891204782988678
0.9457693784303911
0.276697090178212
0.2590145893494697
0.3003293681823055
0.4479699337517721
0.6789508528029689
0.9253625662510688
0.27577053175107474
0.2596340792902724
0.30554619414157697
0.45724665784241036
0.6839824345330245
0.8914294745844862
0.26436386318477867
0.26274903879225897
0.3153847504410935
0.4485414666782338
0.6529752069425607
0.8750610345318469
0.260275549351357
0.2654205912983589
0.3192096917865747
0.4400328516963959
0.631362416655616
0.8487525975331278
0.25372135682643177
0.2721527295861067
0.32514372639880057
0.43766450523295003
0.6256140862490196
0.8270630611343162
0.23654228968781085
0.27332467934248644
0.3254865625391521
0.4347177619605861
0.5997847645997963
0.7911533370664681
0.2213292391268883
0.2743628120891601
0.3339477865141405
0.42043289727471306
0.5777496801824232
0.7625895976441353
0.2055888849961179
0.27713233738112203
0.33586365268612833
0.415079955748095
0.5548191747583686
0.7194059140904326
0.18777170563948653
0.27818295981074836
0.3384480803980329
0.40740570036392165
0.5179653479406572
0.677271934116071
0.1686117364509792
0.2712657867988499
0.3426385108582777
0.3986809721928294
0.4933877342090388
0.6355533640867926
0.1462737536627366
0.26782939333720046
0.34354383729630444
0.3926448176753048
0.46939285342959125
0.5855349785618332
0.10148717528562198
0.23499317659082242
0.33242459083689907
0.3857342770121132
0.46447963056100317
0.5609148573570029
0.9641712530529177
0.9565126879794957
0.927249203964377
0.9000878184431936
0.9045066496846177
0.9021352697186692
0.9087869688231349
0.9227556248620222
0.9372266546119007
0.9581616307161125
0.9746848176154982
0.9850559944188018
0.9920820559381631
1.002139139679863
1.000796218336295
1.0071219355343393
1.0085661941897877
1.0098658011955404
1.005198898318756
1.0077184732066695
1.0016916868752592
1.000636282827875
0.9966416064147414
0.9909793590416218
1.0728562754162998
1.0311814392499772
0.9764251327048266
0.9289372656657737
0.9167428993062026
0.9188264316668051
0.9264649452264736
0.9324810996938186
0.9510982174492257
0.9651283721036426
0.988813417410848
0.9944553038210442
1.0044096504996116
1.0090582359953548
1.013615741526525
1.011455403336516
1.0105351564830325
1.012214753552047
1.0107869715295055
1.0056281843541146
1.0028405902071769
0.997682973631932
0.9937887275090581
0.9872746131175677
1.1483306197340144
1.0901614868353187
1.0037241639351897
0.9694423628067821
0.9578873246611759
0.9336545456507419
0.9507161652076499
0.9534148126751496
0.9688756891645012
0.9794496966072417
0.9958813590150803
1.0030147199063675
1.0122231363511411
1.0148483354960611
1.0124398279620923
1.0139033876948682
1.0138300634065067
1.0144902726186185
1.0078203479995829
1.003983220584138
1.0039144474892874
0.9952850287020414
0.9905267574410215
0.9840631210667109
1.1871984205112867
1.1630109514987879
1.0502949922284333
1.0089809775284002
0.9765311349466298
0.9374258692017083
0.9501056467838763
0.960365445652442
0.9748312706968814
0.9935795792784836
1.0095267624824609
1.0094882052319871
1.0175608118094701
1.0179950193342768
1.0190848333832414
1.0126810264925927
1.0148843849711837
1.0150148327596595
1.0067372460270123
1.0063821959726729
0.9985477203468144
0.994881671590546
0.9889880032171173
0.9810275963416125
1.2006399859306633
1.2210672297103888
1.1006050015503437
1.018680776405776
0.980886894546279
0.9594706408776658
0.9626151157039131
0.9737029698402608
0.9873767180784062
0.998021359963621
1.0137534122254102
1.010767367681943
1.0193824675142789
1.0223279603739244
1.0241510916807546
1.0175411053486456
1.016279662348453
1.0145737603187672
1.008391933127971
1.0025338327349926
1.0024957580991218
0.9960965903352711
0.9873061928824889
0.9772537499706856
1.2235001842247661
1.2664819316530456
1.1624037624519576
1.057452947717766
1.0084306499527025
0.9794892701729135
0.9806927412032114
0.9839837648639002
0.9982905795288282
0.9999324175375387
1.0073372522224215
1.0144955707130943
1.0256875239133614
1.02211735215983
1.028460238721479
1.023805988942066
1.0215722222497723
1.0165137502603527
1.0126806861160478
1.0014774651290999
0.9977709991785512
0.9944536266304077
0.9852584326487758
0.9774878092226522
1.2361144026516127
1.2777429751796825
1.181575973492476
1.1007249190913082
1.0338879138879495
1.0041539903031098
1.003607338298329
0.9905314387422307
1.0013334186989797
1.0135114692503109
1.0209334186379324
1.0225763661765417
1.0275117627216326
1.021484145089703
1.0268351349127007
1.0239165957692287
1.0222533013037214
1.0170472855206205
1.0103379048500276
1.0062006913536026
1.0000419027606555
0.9900251552142725
0.9813545022104597
0.9759369692060217
1.2199062575608335
1.2979234513037672
1.2213400634730727
1.1419611485656802
1.0660532746474398
1.0282664335765557
1.0190399571405486
1.0079089709368805
1.0086700996756748
1.016384741662088
1.0203814591698408
1.027361978454502
1.0223716974872175
1.0227657305085465
1.0273269447768993
1.02110539258902
1.0244343492839256
1.0146836130369254
1.0096909469779725
1.0048832997623878
0.99906304676154
0.9930991533298266
0.9836652727452295
0.9739470863601444
1.2082096643995164
1.3256316616076016
1.2955953974406342
1.1880579722142528
1.1207488827148284
1.0682211818450857
1.0321815362734397
1.0234871184119783
1.0212241803449813
1.0161309920502641
1.0173394557757436
1.0237337912444067
1.0238226967306752
1.0281821615204099
1.0299708976677473
1.0262064591303548
1.0203704386537267
1.0178190148420305
1.012658087459829
1.0076485004570201
1.0037294037263922
0.9963194408787981
0.9825478560149784
0.9714611332773907
1.216851557487111
1.3278900366976134
1.309231248413039
1.2294729479271522
1.1551990691419518
1.115927784358586
1.068052670012718
1.0406281343976915
1.0266982646848213
1.0225503962479723
1.0275115143680136
1.0334840266399525
1.0284924056374918
1.0316840317715208
1.0324771964222095
1.0234477595667015
1.0261090959977448
1.0180646836043599
1.015242503976485
1.0117337549386909
1.0029460110272737
0.9956781479345331
0.9841753483314978
0.9735117759422529
1.2036034903886852
1.364873073050195
1.3379606874082937
1.2897178142738828
1.2190659992013029
1.1539304968193533
1.110391258665192
1.0801454696454398
1.0533740890224763
1.0453313719791675
1.0331482886100227
1.0300901618546408
1.0312569056369363
1.027832528073142
1.0301171356462415
1.0285822283358177
1.0277599275885614
1.026515915366929
1.0168780615558775
1.0119863332375039
1.0040168984111408
0.9940761524939891
0.9860141850115638
0.9716138299696453
1.1817667418399402
1.3464474022048134
1.3925290945655626
1.335432165887459
1.276355384687197
1.2024621274607294
1.1595572736830875
1.114281698621364
1.087066091484252
1.0675854887700535
1.0461587343152818
1.0359398388454648
1.0354070970124056
1.0364976879840606
1.0387467528992775
1.0374712466639127
1.029482152599608
1.0246766752728738
1.0216145494118112
1.0165895171318466
1.0051115092779055
0.9971519836631653
0.9872842493898825
0.974027010455814
1.175553353298794
1.3428844136428602
1.380513186237543
1.3784500659257402
1.3240356544718437
1.268967696943917
1.2107519754017977
1.156680353623656
1.1147866829474604
1.0828424570599866
1.0719715659607556
1.054823583620281
1.0533845212415043
1.0466063580057987
1.044035947353632
1.0395859826929785
1.0389416840880792
1.031925333777626
1.0258596284931596
1.024124563078664
1.013515317100176
1.0028526691635755
0.9914777684248732
0.9781409616219049
1.1590874498700994
1.3275848373627919
1.4236079893781217
1.4210703975169618
1.3811539258552112
1.3224828528589598
1.2635504011605712
1.206959204465488
1.1530363946789557
1.1251002304088813
1.1036226970233658
1.0857958969146742
1.0758643845559537
1.0693335677013092
1.0590053976631155
1.0519893590234657
1.0504435893427075
1.04274436643561
1.036402196510236
1.0309254627081617
1.0188387600501525
1.0086357616109591
0.9914714342620452
0.9823278338559447
1.1234045022882435
1.3488626367423442
1.42802370710214
1.4481822147062449
1.423321880949672
1.3746084099157665
1.3092843348332281
1.2457862114229943
1.2075084278656627
1.165026911715679
1.134005926739189
1.12207626281214
1.1012900083604653
1.0823455934083344
1.0812391630448206
1.07443808199316
1.0606246678839497
1.0597210255487082
1.0482344494218219
1.0437055664214137
1.0327605436870158
1.0164296619704931
1.002040379376608
0.9860894174817371
1.0754776345878823
1.2825978608635424
1.435320199509214
1.4722716451704556
1.4741683898340372
1.433556483446651
1.3700673102441974
1.3133282570366587
1.2619129178529997
1.2166745650178625
1.1841709849376494
1.15085213307867
1.1298335658261394
1.1187653503829718
1.1076478088845603
1.101026255792646
1.087627163091049
1.0779425487572878
1.06784351367063
1.055263345778477
1.045166663271412
1.0307513122788454
1.0059016317781575
0.9912081027634851
1.0524882880320316
1.2645962081493853
1.4352188334063232
1.4907756997475503
1.4819766196743338
1.4877600669891047
1.4203647572092475
1.3743894146790034
1.3160905540476064
1.2749986721594362
1.2350259405987962
1.2033487350926828
1.1785586079980523
1.1565883579357816
1.1390695594449338
1.1298717965299225
1.111714476753051
1.101834414925303
1.0912954938787438
1.0761163164075274
1.060684608169941
1.0422182655699344
1.0197386918283768
0.998585355492996
1.022870714449402
1.2313543665308297
1.4126034029135943
1.4729637972722243
1.5089709523945376
1.4877047522700821
1.4618488383130455
1.4228176999163336
1.3739674452968227
1.3329795940259122
1.2945246877279086
1.2569166539789993
1.2337689504341318
1.2055626576700882
1.187141875884165
1.1657929876707838
1.155496732936462
1.139577302048341
1.122589577875309
1.106094737436565
1.0884457427035055
1.0667112224066533
1.0394388224927296
1.0138423056313466
0.9863377110641758
1.231068359041199
1.3646309455092467
1.4487870942186953
1.484836050168315
1.507209960272264
1.4814174761121517
1.4584395533171055
1.423546063223294
1.3854729634360858
1.3480932516886326
1.3173103707814682
1.2917109004140703
1.2673174819890078
1.2355951616229526
1.2171854782769334
1.2030708689102378
1.1825744545916297
1.1642142578090209
1.1435043396026423
1.1228231926895345
1.0958262999820831
1.0690400185225917
1.036041239114406
0.9513636816287219
1.1956397541845432
1.3475208480538292
1.4484358641982562
1.4740618994115082
1.4937250561558058
1.4984104162998606
1.487131697779911
1.4750224944777939
1.433813981286933
1.4052417732875018
1.3794860955586048
1.3549646046276982
1.3369922165805017
1.299892911159031
1.2735704105900334
1.2591467640476717
1.229017942757486
1.2139792887761864
1.1889213076808174
1.164451982997326
1.138206465582426
1.1089385478188816
1.070073465606546
0.94413666388769
1.1669925570505568
1.3258816641176747
1.4115086505685868
1.4555046487767056
1.4966915937883787
1.493859705101377
1.4913726679630197
1.4935818788117603
1.4689363976971568
1.4529624690741247
1.4324833468904237
1.4066972772864217
1.3898532973781692
1.3592383444280622
1.340718171742573
1.3156892546728716
1.2842536013433867
1.2696564738945846
1.249222830125065
1.2136962626318109
1.1882220339955727
1.1498495112205722
1.115161953128677
0.9156166050548726
1.134065515583681
1.290003418034849
1.3676424563313394
1.4432352728376139
1.478775053162563
1.4757341695625514
1.4806860405087636
1.5062510879895985
1.4995701932812115
1.492929199383443
1.4805611491417974
1.4507330465768402
1.4418441058364977
1.4132886696049056
1.4006674436450806
1.375455208619607
1.3534717330002537
1.329954064147457
1.3032184818700847
1.2818201904392352
1.2414247215723695
1.2084797252522428
1.1713337957962722
0.9143344248405192
1.1037255220572229
1.2574356462973721
1.3418493047734334
1.3912600965168413
1.4444854686159998
1.5037562829843782
1.5084704608099626
1.5183462678706348
1.51849021620784
1.512080164395788
1.515203993091055
1.5052233476466699
1.4980686809877979
1.4788685804289832
1.4572555628604387
1.4186127783289568
1.4039615551319207
1.3884760253913024
1.356758974223778
1.3272446460736786
1.2968552467597667
1.2708644804513614
1.2321183024509994
0.9265559142693486
1.0868536591401214
1.1917904387417702
1.3055267534656483
1.377135758709957
1.442217719117131
1.4759016239434193
1.4973973236359395
1.5214094455019365
1.5211730028452213
1.5491586466581062
1.5400640341282008
1.5601137541755539
1.5514057701825756
1.5387130240602391
1.5041359188572812
1.474434367221743
1.4558660233152994
1.4487746382328441
1.419585972345791
1.3698074308350527
1.3574615162755554
1.3211884540114933
1.2801776328402963
0.05210868460054904
0.07481185191472862
0.109414924443524
0.14802722055263656
0.23172097779897083
0.29562864499925046
0.055571319334685954
0.07155665832676157
0.11120063709022039
0.14434126716059636
0.21431941051777895
0.26464124695938607
0.05489390595406939
0.07097917962637144
0.1042566217645414
0.14275189712632533
0.1927305755043682
0.23342935420607924
0.05451009006286992
0.06726764961041082
0.10129897060264051
0.13237767234171147
0.16981652628327334
0.22307974980008732
0.053431211705130974
0.06611910193099914
0.08990066742498096
0.11555206590665387
0.15132011624320432
0.19370130419387827
0.05384484534932678
0.05984509293340923
0.08211045832684166
0.10732739429454169
0.13277225680117286
0.1721978723884563
0.05035810980964063
0.054084710034451366
0.07948522564573002
0.09375738548833265
0.11527387698223887
0.146866798141126
0.0480497017492629
0.0545707187114059
0.06387324989700133
0.08447040734954772
0.10601414814112828
0.1323551844837534
0.046732566693141686
0.05078565046178435
0.062285754535184035
0.07985399057118706
0.10151531687559762
0.11765075247872944
0.04928814911495859
0.04915400709250542
0.06315750675278087
0.07340714538056134
0.10167911791243828
0.11258687528995814
0.04966923761296407
0.04703132047632366
0.05770892000497643
0.07731120852670598
0.09408469817903128
0.13137190397109605
0.0480098760910421
0.0523834744931099
0.05887391290809518
0.08807820863615709
0.11359183018793059
0.14821012967269034
0.04587437722167906
0.051539749639120086
0.06635166723965047
0.08934480797852126
0.13207025121655605
0.1589832609726504
0.045183854534839724
0.05585573914107378
0.06825934419613341
0.10034910497261729
0.131012165745256
0.17474189463076903
0.048904120442414836
0.05793333149773239
0.07804346258448688
0.10568929254801704
0.13716259392662988
0.18585705347171944
0.04163212650287233
0.062463573941765854
0.07908402387562319
0.10937795667998942
0.1546708501775482
0.20415750946152122
0.048767739073516295
0.06390175820012789
0.0870974010025059
0.12597026843116266
0.1588119756643227
0.20062941438495946
0.03778829510366355
0.06552104878413345
0.08649042494239179
0.11771908608367951
0.15743370589697253
0.1997965150370517
0.038203288476288774
0.06768200656629998
0.0862686248195989
0.11894999785151542
0.15964232637607667
0.2134146413243547
0.03819837725188989
0.06387233037296686
0.09013620902227526
0.12454198412668313
0.16528561396056127
0.2059941385878407
0.03530659994642951
0.06546184609604033
0.09392815732111212
0.12685104337545536
0.16129723430424348
0.2139726809436806
0.03556924598785406
0.06488531298972328
0.09186968918385516
0.12323996832776773
0.14610341325155513
0.20036676505543122
0.03203737619475182
0.06460112354653144
0.0959519338351919
0.12270747744457225
0.13565629183806785
0.20475952201600872
0.039344973655477775
0.06406414729510287
0.08951948199930027
0.12840158108748206
0.12831203000426922
0.21615326737153837
0.7609000741245757
1.0354131164445202
1.154657563792563
1.2820939493060288
1.3318341280479602
1.4057064798005956
1.4613179951199373
1.4778694456474748
1.4952808149473946
1.5349096133048348
1.5550120639407798
1.5856579930944803
1.5752731528101374
1.5745951940630345
1.579777915924216
1.5397327828722709
1.512036656306846
1.506828807745747
1.482214534729199
1.4489750443887635
1.4251889907375006
1.3962884354262486
1.3675788586512252
1.3263894692409441
0.5219558211739345
0.8784190300606414
1.0659833350951358
1.1960558666018664
1.2822069240470437
1.3812686589943424
1.4140028376775937
1.4605539738829179
1.4968208400188239
1.5016311922251437
1.5720406182334052
1.5746298836511983
1.5702973362818575
1.5805729544272809
1.5709013786588275
1.5488998121083861
1.5225331798983592
1.5057042299861954
1.502539313673107
1.4642386660533744
1.4423056875891391
1.4121638092869802
1.3896139027410386
1.3525566075697975
0.399094017648602
0.6948347862313028
0.936360725280071
1.0929577794657328
1.2106616361729245
1.2800735604266098
1.3684412999369353
1.3942353274340578
1.4680650486951312
1.5048318644944303
1.5375285537612977
1.56207193282274
1.54647493933407
1.548184471180559
1.5608948434111423
1.5300512661025825
1.5211897060662736
1.4884731382755958
1.4813160560524297
1.442467051526016
1.4267235924158534
1.418084122317655
1.388336482651352
1.355015443472925
0.3249990442590699
0.550234890769266
0.7608355436425365
0.9504820824043945
1.0711737073175474
1.1804634922269384
1.2811210757974678
1.3599020864694729
1.4166082008270835
1.4537918023353922
1.4847437156636347
1.5193833376318564
1.5121695720451593
1.5077728745056722
1.4851562295134493
1.4863977087533697
1.4713712708563882
1.43891280264718
1.4358905014650534
1.4079315876910334
1.3805975200429494
1.3703176591060193
1.3341261894289054
1.328069018019535
0.26322286182821525
0.4475797485078957
0.6189420814772821
0.7984397162078491
0.9449395104492779
1.0732024060802918
1.14081808572303
1.2489828149347098
1.2928991002774228
1.3383260930358387
1.35995100533571
1.381597753217613
1.3940727282500245
1.3912983463635198
1.3838468561580344
1.375877420689972
1.3577691341476121
1.3700475880517826
1.3441469680947256
1.3327515934037495
1.3064959924438742
1.3019186379336256
1.2766283784522923
1.2630528408472346
0.21064061513515142
0.35232844107719263
0.5190662690813421
0.6642913406418145
0.8106315970798154
0.9394837331461947
1.020705097491197
1.1164058169717426
1.1723151581239761
1.1713267793307771
1.2157139831118815
1.2338004929090665
1.234891058662207
1.2571217445677105
1.2430355445375696
1.2555881654266035
1.2554984039458779
1.2451006514718987
1.231544661371334
1.2185787695544956
1.2252478475142257
1.2087758703818474
1.190587997331039
1.1662534426965454
0.20168778343656163
0.3186257325409819
0.4314676314038598
0.5524552870965941
0.7277137775128077
0.8250052342427332
0.8942989851466037
0.930205072479578
0.979891444333996
0.9979499589884346
1.0453413187634761
1.0488807489258922
1.073861751475681
1.062239268883711
1.084107090476966
1.1016514375691107
1.1073601194349714
1.0948829121153913
1.085363726308442
1.1062413230045223
1.0936864444599577
1.0864539344619615
1.0837067425260727
1.0788059293342076
0.16195663296765678
0.2636405481614611
0.37181560543869674
0.493986465765906
0.602614557090557
0.6807332878902037
0.7087597049686308
0.7584013452991584
0.7709199707475711
0.8142280739075962
0.8387346283132672
0.8678919476017033
0.8810617053901688
0.9080015404247981
0.9241606622637324
0.927149718174819
0.9400171956863769
0.9603858698357843
0.9601405587683199
0.9728477841579132
0.9663298442087156
0.9661023717628293
0.9669474608793418
0.9607188084729907
0.1569958289974866
0.2242715310260287
0.32022069306119
0.422382295396477
0.49748784131241286
0.5472947327411611
0.5624682245746335
0.567516626776966
0.5905631450515351
0.6377294827592204
0.6651500303960114
0.6831127097889422
0.697753071735759
0.7371617658252345
0.7697804674694573
0.7857157942251709
0.8046751898661346
0.8168846090866893
0.828169257752125
0.8437536021947856
0.8508159073655661
0.8615183408007091
0.8628764768132805
0.8676893291291616
0.1717353612874169
0.20794147996582413
0.2988399603151672
0.3825372210724515
0.39087778447651733
0.4044926110772268
0.3874898156345557
0.3917225451014545
0.4239838525762245
0.45576670271833586
0.5159663229292508
0.5453633939093848
0.5849819470272456
0.6192168998895617
0.6323632263008445
0.6506509903587209
0.697679059611006
0.7066995280623926
0.7239312632095507
0.7425639013438965
0.7536992192041505
0.7735200956795374
0.7774199948643056
0.7841236944085564
0.16624044831795043
0.2378108333861652
0.2883318422981519
0.33397759060915183
0.3057503708569682
0.2711209791549082
0.25010862701857794
0.28241039014719804
0.3187699552253547
0.33305462316967194
0.37669108241745564
0.41159513096905587
0.46715317201514506
0.4891891577505245
0.5145421920401119
0.5693078473868981
0.5962604658199255
0.6127099165758365
0.633238989558929
0.6656456090723372
0.6851270556519237
0.7010236042322695
0.7171705451272836
0.7369165335004748
0.18211766433338386
0.23860562089292242
0.30727220715707493
0.26902426257423684
0.222655723728707
0.1772212044607342
0.15960451562263023
0.18427430068001438
0.20932843965950443
0.24192584439103582
0.30866043712042524
0.363201383794192
0.3662983296289106
0.41740413739646376
0.46058750812877547
0.4793131163448887
0.5202021420681007
0.5549918945645975
0.5886885885515871
0.6044735481948273
0.6370178855471988
0.6550642388404375
0.6885350604282121
0.706988489905696
0.19979890730550987
0.2697686389439895
0.2815495383578592
0.2316345777677234
0.18959348406305454
0.09389061054323844
0.09853451509170175
0.1147026598618821
0.15352503043939736
0.1589238214278368
0.25475745176242903
0.2805777287369783
0.35922624908818845
0.38816982462284977
0.41089484598269554
0.46242931822564703
0.49238784028022387
0.5430908510443078
0.5622261031265432
0.5901980546408209
0.6307344730074983
0.6530923424594446
0.6884469759797429
0.7050392177699019
0.22234538343057395
0.28836451908609656
0.2526919756255871
0.1834530586392904
0.086667934844332
0.04171419708248503
0.07885479045161659
0.05511776557523018
0.11643074457862657
0.1582847574514289
0.18073319498458618
0.25994921905545376
0.3223071594283661
0.3611250248176646
0.41683378029795803
0.4458312973587002
0.49140820111533934
0.5333474146860109
0.5866266622905947
0.5968641555615939
0.6241154935183275
0.6757572252414137
0.6877774607246887
0.7300996012144216
0.22756114813094144
0.2919916965078234
0.24055568490384743
0.13034175529513148
0.03450433980907586
0.02114209321344729
0.02402890089755305
0.05160776305241166
0.09499575253630921
0.15218546871539873
0.20506835387564537
0.24621705081989798
0.3068357866503325
0.3585909304784891
0.4215907338604812
0.4700734854060634
0.5304126237067315
0.5432433989393949
0.5971291726548422
0.6369648890790827
0.656855882347497
0.6974382508319816
0.7237862348386042
0.7634927624479297
0.23321479129632794
0.2932023477238434
0.19488330062061515
0.04949858389782147
0.011536974695670055
0.00329900014142126
0.006048474358859579
0.05065388375646551
0.09693187290775596
0.19357910373382492
0.24163818595681252
0.2948338076831175
0.3550936514875036
0.40031261468481016
0.465547831103031
0.5268039524070403
0.5562759736788476
0.6077333295692091
0.6425194349156974
0.6747116812456252
0.6991382501035773
0.7405266501774643
0.781491591874727
0.811947925484275
0.2650148176040046
0.27001666568939553
0.11723235040284763
0.006826554733079027
-0.0008116101177566559
0.004874266251521431
0.049109401696308064
0.0942364075647466
0.1854574041134961
0.2565918143681609
0.2866728089316877
0.34187110086115735
0.40959656379691756
0.49868921333160227
0.5142915173122261
0.5743522971580148
0.6273592421091798
0.6726614451013814
0.7031068632810491
0.7358042115286234
0.7703753603612755
0.7968443690697417
0.8318459080522898
0.8502745480992813
0.2651960137004351
0.2340770260837991
0.08125726575193315
0.00213881755366796
-0.030948909158568405
0.03132779589070822
0.05670999389772535
0.11974602279257862
0.21691837189687535
0.2777187473419718
0.37588303840331216
0.394833496796961
0.4902201686174933
0.553618217877875
0.5788421228515604
0.6329653663147033
0.6944579659130873
0.734547100229445
0.7797767733493415
0.8031253339223194
0.8315877487616278
0.8555668343310866
0.8908630633730372
0.9143151175521566
0.2816918841594874
0.20940199259995707
0.07034089219465534
0.010494843057943237
0.03981878084085777
0.015080094919895592
0.1284772966265526
0.18684685774367493
0.26039210426785275
0.3514277614004412
0.4414402647937027
0.5267595644506005
0.5775209692670362
0.62035605716109
0.6829110862275358
0.7338148796890243
0.7667440579934379
0.823530864136983
0.847329168919832
0.8729740808064534
0.8948244149886903
0.929138481514767
0.9335403140850782
0.954699570485009
0.2961862150101384
0.1600777720518599
0.026459936420413555
0.02434797287361612
0.06397714764741491
0.13566601030844683
0.16913579475998985
0.25373964466514287
0.3527825725937739
0.45342089006108943
0.5283977652046357
0.608415487455043
0.6641121762745295
0.722718787547463
0.7835359611288915
0.820997341055847
0.8679612666601884
0.8744075687406012
0.9118601146633863
0.9344340711203826
0.9406924206757232
0.9765773563817279
0.9859529518058711
1.0042458909779706
0.27930300237675765
0.10101098167432454
0.00044904589109295845
0.047051901117809436
0.1413488079651143
0.19152205780402187
0.2838156959789413
0.39291827751715425
0.4773353087806348
0.5583516056449245
0.652414512813114
0.698701776162908
0.7764607982039817
0.8130442868287645
0.8671710072389003
0.8944136884959687
0.9351599223966847
0.9484047966645403
0.9758785299551277
0.9940840570941364
1.0057925956660265
1.0168686901320039
1.025638074181192
1.0384810227800396
0.24067478282939325
0.06827292255572348
0.08280284346904676
0.09655665063278629
0.17635094464440515
0.2959309388543391
0.3657933418740239
0.486797334790422
0.5608993141566325
0.6677775274844724
0.7251156426341222
0.8126514269704905
0.865394073821825
0.9028216015801253
0.9467095093862844
0.9773417222050051
0.9942339316392168
1.0127951544037295
1.026510931598259
1.0454822866757123
1.0594621973923144
1.0626157304348154
1.0631179422537813
1.0655759285030155
0.16303815329525506
0.07243963523455943
0.07056580216257413
0.17276290318886645
0.24076158709101625
0.36487079871772987
0.4661167086852033
0.5747449957471615
0.6919896020416969
0.774753247797757
0.8434620782975499
0.9016815207781637
0.9544960036648991
0.9826330258644892
1.0129758570208323
1.0466191429139389
1.0521011363564434
1.070907891075567
1.0805663143782431
1.0858859890973684
1.0893198134529123
1.0950668794123084
1.0873806902233512
1.0865579441764388
0.11629538242255621
0.08046908030798694
0.15474496117094216
0.21408005696669963
0.3249727823252593
0.4861919219596058
0.5691658941284826
0.6980532781400279
0.8060635585291263
0.8795435015500339
0.935963630309693
0.9832525726297928
1.0251466228412398
1.0532026588211225
1.080263439570648
1.0943357550149266
1.1089073474796227
1.1193490920767954
1.1193133963462956
1.121544133410412
1.1192100787714239
1.1189799142534065
1.1110455292230574
1.0968773794846955
0.09948228560638359
0.2914802077677844
0.4413873216306243
0.4270284401641625
0.3843430237198808
0.14877992019281883
0.16796095023562063
0.3776179864640483
0.4588263838378078
0.41507408588233036
0.33226987039975814
0.16907508941246951
0.21719694822065674
0.3980224865025985
0.4437770538028276
0.3731701478067288
0.2832609705439789
0.1762990609472767
0.26025161668775126
0.4059210111751183
0.40852321047137324
0.3388326950315419
0.2528810710401561
0.18197264868673413
0.29582590333403136
0.40347336864010863
0.38663064450036777
0.3049365850843289
0.22521694605953296
0.1903133702667263
0.3312192403175408
0.40197757329413136
0.36248090123417676
0.2700278666772743
0.20149611988533295
0.18058982132916507
0.36404011257246693
0.4077863980642286
0.34061313183290887
0.24542728743572848
0.18428733823581891
0.18343510902220334
0.3765471000744043
0.39708147111157566
0.31930653440266316
0.2206219169249921
0.16098390856194728
0.15082092064435249
0.41228149632685407
0.3991142515917486
0.30535636795623977
0.1993626937516515
0.136360898260643
0.15222443152442428
0.4185112172141366
0.40820628683342736
0.2963969081614441
0.18355835767950957
0.12264808651009901
0.1392701148859814
0.43413021756650827
0.39117149396387285
0.2878822676326863
0.17291725481075895
0.11614279569981872
0.17051409323569328
0.44620686490497546
0.38895230269135106
0.2828246939910023
0.17027785440499021
0.12007584305161012
0.1595309049902403
0.44063740421060793
0.3956913121156729
0.2850410900957768
0.17135032088566912
0.12045883366136112
0.1890504818522427
0.43903201051128693
0.3924464866357694
0.29529045111508084
0.1798977975680833
0.13756409596239802
0.2114790352169511
0.4347245494950992
0.4025341375528839
0.3014781617124755
0.19557278414856383
0.14045018199609255
0.223226910058665
0.4075772298202919
0.3992117269221446
0.3250444196700542
0.21209271356640405
0.1748418924745739
0.25564626436440996
0.3979320737846771