/*--------------------------------*- C++ -*----------------------------------*\
  =========                 |
  \\      /  F ield         | OpenFOAM: The Open Source CFD Toolbox
   \\    /   O peration     | Website:  https://openfoam.org
    \\  /    A nd           | Version:  11
     \\/     M anipulation  |
\*---------------------------------------------------------------------------*/
FoamFile
{
    format      ascii;
    class       volScalarField;
    location    "1.08";
    object      k;
}
// * * * * * * * * * * * * * * * * * * * * * * * * * * * * * * * * * * * * * //

dimensions      [0 2 -2 0 0 0 0];

internalField   nonuniform List<scalar> 
2880
(
0.00562733
0.0104989
0.018212
0.0290329
0.062546
0.143153
0.0190539
0.0303013
0.0443427
0.0588699
0.0917831
0.153084
0.0229433
0.0418244
0.0604994
0.0799798
0.116331
0.156622
0.0248747
0.0510601
0.0727114
0.0945933
0.127795
0.150962
0.0269059
0.0593804
0.08215
0.103939
0.128363
0.139968
0.0308426
0.0665606
0.089382
0.109807
0.125794
0.129882
0.0342571
0.072648
0.0949759
0.112273
0.120998
0.120731
0.0371354
0.0778918
0.0994359
0.112528
0.116744
0.112394
0.0394716
0.0824765
0.102915
0.112332
0.113102
0.10522
0.0412048
0.0864281
0.105745
0.112499
0.110123
0.0994516
0.0422868
0.0897447
0.108442
0.113232
0.108121
0.0951816
0.0426865
0.0923986
0.111248
0.114925
0.107578
0.0925655
0.0424517
0.0943225
0.114175
0.117527
0.108195
0.0919343
0.0416361
0.0954159
0.117076
0.121003
0.110622
0.0927955
0.0403571
0.095573
0.11969
0.125143
0.115165
0.0961699
0.038756
0.094712
0.121688
0.129703
0.121335
0.10227
0.0369248
0.0927158
0.122767
0.134324
0.128617
0.111074
0.034663
0.089589
0.12267
0.138507
0.136475
0.12227
0.0318562
0.085349
0.121156
0.141494
0.14446
0.134792
0.0285112
0.0799283
0.117728
0.14224
0.151652
0.146959
0.0250196
0.0729984
0.111818
0.139974
0.155721
0.157447
0.0227484
0.0636255
0.10215
0.132181
0.153513
0.164208
0.0185764
0.0499396
0.0856613
0.114882
0.140586
0.158836
0.00503268
0.0221483
0.0506312
0.0766683
0.104066
0.117795
0.23443
0.174416
0.105882
0.0665945
0.0455911
0.033868
0.0264629
0.021284
0.0174059
0.0143962
0.012022
0.0101419
0.00865392
0.00748182
0.00656676
0.00586144
0.00532549
0.00492284
0.00462105
0.00439157
0.00421068
0.00406229
0.00393789
0.0038346
0.202852
0.152902
0.0956479
0.0612059
0.0427114
0.032261
0.0255525
0.02079
0.0171788
0.0143478
0.0120931
0.0102916
0.00885172
0.00770441
0.0067961
0.00608358
0.00553031
0.00510404
0.00477577
0.00451931
0.00431183
0.00413728
0.00398686
0.00386224
0.176213
0.131987
0.0849246
0.0557787
0.039892
0.0307093
0.0246886
0.0203373
0.0169898
0.0143346
0.0121994
0.0104762
0.00908399
0.00796112
0.00705916
0.00633888
0.00576729
0.00531567
0.00495829
0.0046713
0.00443283
0.00422726
0.00404687
0.00389636
0.154164
0.113877
0.0749508
0.05072
0.0372637
0.0292692
0.0239013
0.019944
0.0168533
0.0143665
0.0123476
0.0107007
0.00935513
0.0082562
0.00736037
0.00663208
0.00604151
0.00556303
0.00517385
0.00485245
0.00457824
0.00433682
0.00412294
0.00393987
0.135452
0.0987065
0.0662725
0.0462461
0.0349146
0.0279867
0.0232175
0.0196274
0.0167786
0.0144536
0.0125456
0.0109718
0.0096709
0.00859494
0.00770486
0.00696836
0.00635836
0.00585179
0.00542843
0.00506899
0.00475432
0.00447165
0.00421835
0.00399457
0.119608
0.0862449
0.0590094
0.0424303
0.0328915
0.0268947
0.0226612
0.0194047
0.0167761
0.0146066
0.0128028
0.0112973
0.0100381
0.00898345
0.0080983
0.00735327
0.00672347
0.00618791
0.00572838
0.00532751
0.00496741
0.00463697
0.00433652
0.00406186
0.106417
0.0761727
0.0530877
0.0392738
0.0312164
0.026018
0.0222545
0.0192967
0.0168689
0.0148392
0.01313
0.0116863
0.0104647
0.0094287
0.00854709
0.0077929
0.00714299
0.00657782
0.0060806
0.00563519
0.00522451
0.00483874
0.00448166
0.00414366
0.0956272
0.0681668
0.0483757
0.0367521
0.0299003
0.0253746
0.0220162
0.0193211
0.0170722
0.0151654
0.0135392
0.0121493
0.0109596
0.00993865
0.00905842
0.008294
0.00762352
0.00702829
0.00649219
0.00599953
0.00553316
0.00508378
0.00465898
0.00424239
0.0869942
0.0619437
0.04475
0.034839
0.0289521
0.0249826
0.0219661
0.0194968
0.017402
0.0156002
0.0140437
0.0126979
0.0115331
0.0105224
0.00964046
0.00886403
0.00817212
0.00754629
0.00697033
0.00642808
0.00590117
0.00537961
0.00487448
0.00436083
0.0803049
0.0572773
0.04211
0.0335134
0.028383
0.0248634
0.0221247
0.0198434
0.0178763
0.0161598
0.0146583
0.0133453
0.0121971
0.0111905
0.0103026
0.00951146
0.00879656
0.00813917
0.00752231
0.00692835
0.00633643
0.00573411
0.00513473
0.00450183
0.075409
0.0540061
0.0403836
0.0327649
0.0282124
0.0250163
0.0225112
0.0203813
0.0185144
0.0168623
0.0153995
0.0141067
0.0129653
0.0119553
0.011056
0.0102464
0.00950604
0.00881542
0.00815615
0.00750829
0.00684718
0.00615566
0.00544688
0.00466785
0.0722396
0.0520401
0.039532
0.032599
0.0283987
0.0254879
0.0231513
0.0211335
0.0193382
0.0177283
0.0162865
0.0149999
0.0138541
0.0128322
0.0119151
0.0110823
0.0103129
0.00958651
0.00888257
0.00817811
0.00744355
0.00665455
0.00581964
0.0048604
0.0708974
0.0514185
0.0395084
0.0329354
0.0290406
0.0262954
0.0240711
0.0221257
0.0203721
0.0187809
0.0173414
0.0160459
0.0148838
0.0138409
0.012899
0.012038
0.0112362
0.0104712
0.00971997
0.0089556
0.00814285
0.00724802
0.00626798
0.00508072
0.0711342
0.0517951
0.0402689
0.0339255
0.0301376
0.0274706
0.0253012
0.0233877
0.0216449
0.0200479
0.0185908
0.0172705
0.01608
0.0150071
0.0140347
0.0131424
0.012307
0.0115038
0.0107057
0.00988046
0.00898592
0.00797756
0.00683089
0.00533828
0.0732433
0.0536783
0.0420171
0.0355723
0.0317356
0.0290542
0.0268796
0.0249551
0.0231907
0.0215619
0.0200664
0.018705
0.0174741
0.0163638
0.0153583
0.0144369
0.0135754
0.0127461
0.0119175
0.01105
0.0100906
0.00897623
0.00763893
0.00571243
0.0778753
0.0571949
0.0448297
0.0379643
0.0339007
0.0311005
0.0288545
0.0268728
0.0250517
0.0233633
0.0218069
0.020387
0.0191036
0.0179503
0.0169133
0.0159736
0.015108
0.0142898
0.0134881
0.012664
0.0117615
0.0106873
0.00923479
0.00709129
0.085195
0.0626115
0.0489103
0.0412372
0.0367287
0.0336843
0.0312893
0.029198
0.0272811
0.0255019
0.0238593
0.0223607
0.0210109
0.0198075
0.0187413
0.0177977
0.0169593
0.0162089
0.0155333
0.0149264
0.0143884
0.0139308
0.0136443
0.013998
0.0954639
0.0703013
0.0545475
0.0455886
0.0403565
0.0369084
0.0342686
0.0320051
0.0299469
0.0280408
0.0262815
0.0246788
0.0232423
0.0219754
0.0208751
0.0199335
0.019142
0.0184961
0.018001
0.0176744
0.0175445
0.0176622
0.0181753
0.0193042
0.10871
0.0805831
0.06208
0.0512783
0.0449696
0.0409109
0.0379039
0.0353906
0.0331366
0.0310603
0.029147
0.0274068
0.0258542
0.0244995
0.0233477
0.0224002
0.0216594
0.021134
0.0208427
0.020814
0.0210632
0.0216524
0.0226885
0.0241899
0.124413
0.0934651
0.0717734
0.0585897
0.0507942
0.0458655
0.0423359
0.0394764
0.036961
0.0346632
0.0325507
0.0306301
0.0289202
0.0274392
0.0262021
0.0252218
0.0245137
0.024099
0.024007
0.0242423
0.0248492
0.0258452
0.0272784
0.0290697
0.140569
0.108194
0.0835559
0.0677069
0.0580492
0.0519636
0.0477267
0.0444064
0.0415534
0.0389762
0.0366127
0.0344604
0.0325402
0.0308788
0.0295032
0.0284402
0.02772
0.0273778
0.0274413
0.0278961
0.0288199
0.0301617
0.0319379
0.034002
0.152893
0.123098
0.096688
0.0784872
0.0668226
0.0593498
0.0542249
0.0503247
0.0470567
0.0441431
0.041477
0.0390385
0.0368471
0.0349377
0.0333506
0.0321297
0.0313234
0.0309835
0.0311267
0.031744
0.0329175
0.034553
0.0366386
0.0389785
0.153329
0.133567
0.108915
0.0898741
0.0767324
0.0679385
0.0618608
0.0573116
0.0535798
0.0502944
0.0472916
0.044524
0.0420045
0.0397745
0.0378888
0.0364112
0.0354128
0.0349678
0.0351027
0.0357777
0.0371159
0.0389844
0.0413473
0.04397
0.138862
0.132734
0.117075
0.100011
0.0867017
0.0771713
0.0703708
0.0652582
0.0611057
0.057478
0.0541553
0.0510565
0.0481816
0.0455753
0.0433065
0.041461
0.0401373
0.0394393
0.0394551
0.0400493
0.0414154
0.0434358
0.0460304
0.0489397
0.0042308
0.0103476
0.0206886
0.0318728
0.0405452
0.0520707
0.0167298
0.0279526
0.0429312
0.0552175
0.0647361
0.0758925
0.0207094
0.0364001
0.0541526
0.0676379
0.0785266
0.0893089
0.0227018
0.0423739
0.0620947
0.076697
0.0886299
0.099763
0.024056
0.0475101
0.0686575
0.0842884
0.0971794
0.108929
0.0250528
0.0524106
0.0744368
0.0910165
0.104842
0.117281
0.0273678
0.0569673
0.0796132
0.0970949
0.111848
0.125018
0.029348
0.0610419
0.0842205
0.102584
0.118257
0.132174
0.0309922
0.0645576
0.0882469
0.107486
0.124057
0.138692
0.0322937
0.0674765
0.091677
0.111784
0.12921
0.144496
0.03326
0.0697757
0.0944973
0.115453
0.133676
0.149512
0.0339138
0.0714325
0.0966915
0.118466
0.137416
0.153685
0.0342773
0.0724185
0.0982375
0.120797
0.140399
0.156983
0.0342429
0.0727242
0.0991035
0.12241
0.142601
0.1594
0.0337764
0.0723442
0.0992367
0.123264
0.144003
0.160954
0.0328631
0.0712271
0.098595
0.123302
0.144581
0.161683
0.0314964
0.0693116
0.0970851
0.12245
0.144305
0.161639
0.0296714
0.066508
0.0945904
0.120594
0.143107
0.16089
0.0273889
0.0626814
0.090942
0.11756
0.140854
0.159374
0.0250561
0.0576116
0.0858775
0.113073
0.137298
0.156976
0.0235409
0.0509665
0.0789488
0.106663
0.131975
0.153406
0.0214852
0.0423658
0.0692709
0.0974518
0.123918
0.147812
0.0171616
0.0299837
0.054645
0.0834861
0.111071
0.137372
0.00425829
0.0111923
0.0316159
0.0612368
0.0900817
0.114569
0.125561
0.129238
0.121525
0.107684
0.0956722
0.0862542
0.0791694
0.0737688
0.0693799
0.06555
0.0620192
0.0586708
0.055485
0.0525035
0.049806
0.0474995
0.0457136
0.0445929
0.044279
0.0446823
0.0458852
0.0479259
0.0506721
0.0538599
0.125152
0.137128
0.130891
0.116659
0.104073
0.0947206
0.08769
0.082255
0.0778641
0.0740719
0.0705573
0.0671594
0.0638266
0.0605839
0.0575101
0.0547255
0.0523863
0.0506791
0.0498017
0.0498699
0.0506801
0.0525108
0.0552784
0.0587179
0.12169
0.152637
0.15109
0.138104
0.120023
0.106802
0.0974084
0.0910454
0.0863721
0.0825738
0.0792072
0.0759953
0.0727801
0.0695267
0.0662826
0.0631552
0.0603063
0.0579497
0.0563409
0.0557409
0.056081
0.0573614
0.059926
0.0635353
0.123327
0.156814
0.171164
0.167275
0.153285
0.133583
0.11728
0.105945
0.0980003
0.0924256
0.0883426
0.0849437
0.0818162
0.078736
0.0755949
0.0724092
0.0692894
0.0664252
0.0640853
0.0625954
0.0622653
0.062867
0.0647331
0.0683441
0.128298
0.158234
0.181691
0.19086
0.187373
0.175507
0.157267
0.138745
0.123203
0.111489
0.103075
0.0968563
0.0922442
0.0884837
0.0851225
0.0819177
0.0787563
0.0756747
0.0728484
0.070574
0.0692265
0.0692006
0.0701849
0.0732095
0.13477
0.161137
0.187011
0.205283
0.213101
0.211207
0.202856
0.187389
0.169487
0.151424
0.135036
0.121644
0.111208
0.10336
0.0974322
0.0927492
0.0888096
0.0853126
0.0821244
0.0793046
0.0771047
0.076
0.0762909
0.0784298
0.141805
0.165668
0.191109
0.213355
0.228957
0.236748
0.236632
0.231354
0.219667
0.203712
0.185583
0.166951
0.149302
0.133769
0.120984
0.110952
0.10326
0.0973256
0.0926155
0.0887804
0.0856768
0.0834106
0.0827149
0.0839609
0.148829
0.170997
0.195169
0.218332
0.237692
0.251567
0.259318
0.260888
0.257642
0.249251
0.235917
0.219373
0.200761
0.18135
0.162448
0.145199
0.130403
0.118382
0.108985
0.101795
0.0963382
0.0922554
0.0896171
0.0899093
0.155447
0.176372
0.199024
0.221567
0.241963
0.258697
0.27095
0.278325
0.280814
0.278957
0.272938
0.262119
0.247789
0.230684
0.21168
0.191834
0.172263
0.15403
0.137987
0.12461
0.11397
0.105868
0.0996748
0.0974987
0.161385
0.181231
0.202213
0.223288
0.243025
0.260285
0.274284
0.284603
0.291099
0.293809
0.292863
0.288533
0.279979
0.267935
0.252969
0.235663
0.216752
0.197081
0.1776
0.159265
0.142911
0.129065
0.117678
0.110646
0.166449
0.185182
0.204317
0.223374
0.241475
0.257774
0.271676
0.282821
0.291009
0.296126
0.298197
0.297391
0.293841
0.287163
0.277717
0.265598
0.250958
0.23421
0.21604
0.197207
0.178632
0.161053
0.145296
0.133331
0.170518
0.187982
0.205016
0.221694
0.23746
0.251795
0.264298
0.274723
0.282937
0.288887
0.292571
0.293992
0.293185
0.29007
0.284514
0.276878
0.267379
0.256004
0.242693
0.227524
0.21098
0.193816
0.177477
0.164641
0.173535
0.189525
0.204267
0.218227
0.231209
0.242955
0.253259
0.262001
0.269134
0.274664
0.278615
0.280991
0.281822
0.28108
0.278736
0.274687
0.268918
0.26152
0.252681
0.242694
0.231529
0.219389
0.207383
0.198402
0.175497
0.189791
0.202059
0.213113
0.223074
0.231924
0.239643
0.246243
0.251772
0.256286
0.259831
0.262432
0.264065
0.264713
0.264354
0.262913
0.260328
0.256542
0.251518
0.245292
0.238318
0.231376
0.2254
0.220849
0.176455
0.188881
0.198552
0.206641
0.213542
0.219463
0.22455
0.228943
0.232788
0.236197
0.239221
0.241861
0.244062
0.245734
0.246718
0.247023
0.246533
0.245183
0.242939
0.239842
0.236072
0.232009
0.228255
0.224214
0.176488
0.186921
0.193987
0.199206
0.20321
0.206395
0.209062
0.211473
0.213857
0.216358
0.219032
0.221839
0.224611
0.227156
0.229294
0.230886
0.231796
0.232005
0.231402
0.229966
0.227765
0.224991
0.22174
0.217121
0.1757
0.18409
0.188671
0.191284
0.192742
0.193592
0.194262
0.195082
0.196325
0.198171
0.200675
0.203745
0.207127
0.210478
0.213498
0.216026
0.217941
0.219154
0.219632
0.219336
0.218256
0.216338
0.213372
0.209411
0.174195
0.180592
0.182952
0.183401
0.182857
0.181944
0.181183
0.180903
0.181365
0.182828
0.185285
0.188536
0.192296
0.196073
0.199131
0.201603
0.203484
0.204751
0.20542
0.205495
0.205028
0.203867
0.201812
0.199881
0.17207
0.176634
0.177297
0.176196
0.174357
0.172478
0.171117
0.170681
0.171564
0.173795
0.176755
0.179568
0.181749
0.183825
0.184988
0.185312
0.185013
0.184303
0.183222
0.181748
0.179769
0.177269
0.174535
0.173313
0.16941
0.172578
0.172155
0.17032
0.168179
0.166446
0.165799
0.166543
0.168846
0.17219
0.175595
0.177833
0.178231
0.175719
0.17217
0.167996
0.163627
0.159376
0.155274
0.151122
0.146358
0.140984
0.135267
0.132072
0.166306
0.168728
0.168074
0.166592
0.165395
0.165168
0.166377
0.16936
0.173734
0.178356
0.18167
0.182367
0.179756
0.172636
0.163714
0.154651
0.146291
0.139052
0.132896
0.127427
0.122393
0.117394
0.112805
0.111145
0.162742
0.165507
0.165823
0.166003
0.167005
0.169523
0.173987
0.180061
0.186666
0.191962
0.194078
0.192307
0.184074
0.171801
0.158533
0.146147
0.135732
0.127525
0.121239
0.116294
0.112097
0.108331
0.105554
0.105372
0.158653
0.163739
0.166418
0.16931
0.173798
0.180355
0.188644
0.197586
0.205259
0.209294
0.208445
0.200373
0.185667
0.169065
0.152671
0.13886
0.12836
0.120758
0.115289
0.111134
0.107974
0.105625
0.104305
0.104852
0.15514
0.164794
0.170859
0.17782
0.186791
0.197611
0.20919
0.219471
0.225854
0.226081
0.218293
0.202558
0.183152
0.162845
0.145223
0.131983
0.122785
0.116442
0.112039
0.108898
0.1066
0.105435
0.105522
0.106974
0.00377102
0.00754927
0.0184226
0.0384737
0.0711625
0.116513
0.015977
0.0235064
0.0398371
0.0618372
0.0913625
0.127344
0.0200822
0.0331077
0.0526283
0.0762302
0.104906
0.137028
0.0222926
0.0399377
0.0614778
0.0860327
0.114245
0.144902
0.0239294
0.0452888
0.0680343
0.0930502
0.121032
0.151491
0.0248864
0.0496009
0.0729082
0.0980565
0.125973
0.156919
0.0254993
0.0530771
0.0764258
0.101469
0.129395
0.161155
0.0265106
0.0556135
0.0787995
0.103538
0.131456
0.164152
0.0273561
0.057339
0.0801821
0.104425
0.132245
0.165895
0.0279444
0.0583388
0.0806876
0.104261
0.131845
0.166412
0.0282364
0.0586763
0.0804337
0.103104
0.130282
0.165758
0.0282216
0.0584173
0.0794384
0.101048
0.12763
0.16401
0.0278853
0.0575565
0.0777915
0.0981728
0.123953
0.161252
0.0272544
0.0561238
0.0755507
0.0945618
0.119326
0.157562
0.0264404
0.0541051
0.0727673
0.0903041
0.113845
0.153064
0.0255582
0.0515143
0.0694893
0.0854947
0.107627
0.147986
0.024942
0.0484409
0.0657712
0.0802313
0.100811
0.142638
0.0248848
0.0450803
0.0616837
0.0746081
0.0935334
0.136995
0.0243072
0.0417267
0.0573002
0.0686984
0.0858482
0.130815
0.0232139
0.0382807
0.0526092
0.0625234
0.0777007
0.123621
0.0216376
0.0345233
0.0474215
0.0559969
0.0689441
0.114842
0.0195943
0.0299892
0.0411968
0.0487088
0.0591492
0.104603
0.0157333
0.0232541
0.0323364
0.0392569
0.0466658
0.0908768
0.00392619
0.00830161
0.014176
0.0202644
0.0254353
0.060844
0.156648
0.17022
0.180672
0.192271
0.205733
0.220132
0.233251
0.242163
0.244047
0.236337
0.220252
0.198301
0.174371
0.153089
0.136955
0.125932
0.118516
0.113353
0.109813
0.107399
0.106044
0.105996
0.107196
0.109848
0.162263
0.180571
0.195722
0.21203
0.229351
0.245533
0.257268
0.26089
0.253655
0.237567
0.21316
0.185846
0.161171
0.142358
0.129477
0.120823
0.114709
0.110315
0.107233
0.105416
0.105051
0.105816
0.107922
0.110851
0.170316
0.194029
0.214543
0.235377
0.255065
0.270106
0.275885
0.269683
0.254007
0.227283
0.196854
0.169143
0.147962
0.133389
0.123443
0.116235
0.110749
0.106643
0.103965
0.102897
0.103261
0.104801
0.107719
0.110774
0.179017
0.208894
0.235183
0.259678
0.279232
0.288319
0.283851
0.269344
0.240868
0.207605
0.177156
0.15387
0.137742
0.126502
0.118049
0.111293
0.105936
0.102093
0.099958
0.0996252
0.100501
0.102789
0.106067
0.109134
0.18768
0.223835
0.255584
0.281848
0.297094
0.295499
0.282948
0.254548
0.218585
0.185598
0.160371
0.142742
0.130157
0.120372
0.112255
0.105514
0.100292
0.0968315
0.0952755
0.0954625
0.0968316
0.0995954
0.102982
0.105946
0.195723
0.237844
0.273879
0.298895
0.304012
0.294702
0.268027
0.230191
0.195012
0.167941
0.148761
0.134715
0.123476
0.113905
0.105702
0.0989961
0.0940472
0.0910581
0.0900605
0.090595
0.0924244
0.0953835
0.0987631
0.101591
0.202753
0.250232
0.288479
0.306553
0.303015
0.281648
0.243108
0.205979
0.177012
0.156154
0.140502
0.127672
0.116532
0.106786
0.098534
0.0920159
0.0874594
0.0849585
0.0844167
0.085227
0.0873383
0.0903385
0.0936213
0.0962926
0.208578
0.260586
0.297903
0.306563
0.292594
0.257994
0.219085
0.188044
0.165324
0.147904
0.133318
0.120451
0.109035
0.0991642
0.0910403
0.0848634
0.0807551
0.0786891
0.0784718
0.0794603
0.081688
0.0846223
0.0877471
0.0902499
0.21317
0.268686
0.300677
0.298217
0.27383
0.234373
0.201362
0.176681
0.15736
0.140845
0.126045
0.11276
0.101125
0.0913259
0.0835094
0.077763
0.0740866
0.0723571
0.0723256
0.0733886
0.0755908
0.0783773
0.0813022
0.0836317
0.216634
0.274513
0.297634
0.28539
0.25177
0.217177
0.190532
0.169262
0.150696
0.133755
0.11835
0.104714
0.0930737
0.0835475
0.0761571
0.0708586
0.0675458
0.0660328
0.0660517
0.0670904
0.0691447
0.0717182
0.0744143
0.0765731
0.21909
0.277646
0.288786
0.269401
0.235073
0.206905
0.183903
0.16332
0.144084
0.126277
0.11032
0.0965561
0.085135
0.0760314
0.0691202
0.064236
0.0611919
0.0597716
0.0597256
0.060628
0.0624391
0.0647412
0.0671838
0.0691769
0.220637
0.277846
0.277644
0.254407
0.225567
0.201382
0.179094
0.15756
0.137102
0.118446
0.102166
0.0885248
0.0775032
0.0689083
0.0624766
0.0579442
0.0550707
0.0536319
0.0534076
0.0540805
0.055554
0.0575259
0.059687
0.0615174
0.221241
0.275309
0.26827
0.244855
0.221098
0.198084
0.174642
0.151443
0.129715
0.110438
0.0941127
0.0808086
0.0703074
0.0622532
0.0562681
0.0520168
0.0492262
0.047676
0.0471797
0.0475266
0.0485704
0.0501418
0.0519795
0.0536426
0.220586
0.271097
0.261067
0.241517
0.219771
0.195556
0.169921
0.144864
0.12206
0.102458
0.0863436
0.0735392
0.0636244
0.0561047
0.0505183
0.046484
0.0437101
0.041982
0.0411417
0.041063
0.0415893
0.0426588
0.044095
0.0455639
0.218254
0.267458
0.258141
0.241484
0.219775
0.192939
0.164687
0.137886
0.11431
0.0946851
0.0789947
0.0667992
0.0574951
0.0504821
0.0452452
0.0413796
0.0385849
0.0366486
0.0354268
0.0348218
0.0347583
0.0351599
0.0360287
0.0372082
0.214487
0.265604
0.258001
0.244579
0.220153
0.18985
0.158908
0.130639
0.106632
0.0872581
0.0721561
0.0606341
0.0519381
0.045396
0.0404677
0.0367429
0.0339205
0.0317855
0.0301902
0.0290352
0.0282494
0.0277919
0.0277254
0.0282766
0.211324
0.265507
0.262091
0.249378
0.220495
0.186107
0.152636
0.123263
0.0991653
0.0802739
0.0658777
0.0550604
0.0469553
0.0408512
0.0362048
0.0326149
0.029787
0.027504
0.0256025
0.0239513
0.0224252
0.0208858
0.0192333
0.0179484
0.209502
0.269731
0.269793
0.254857
0.220063
0.181569
0.145954
0.115889
0.0920136
0.0737897
0.0601749
0.0500692
0.0425324
0.0368415
0.0324672
0.0290274
0.0262427
0.0239013
0.0218313
0.0198747
0.0178578
0.0155557
0.0126251
0.00796004
0.211098
0.278384
0.280246
0.259273
0.218222
0.176243
0.13898
0.108626
0.0852445
0.0678254
0.0550319
0.0456266
0.0386324
0.0333371
0.0292375
0.0259785
0.0233036
0.0210201
0.0189729
0.0170237
0.0150317
0.0128422
0.0102607
0.00663385
0.218675
0.29167
0.292174
0.262151
0.215513
0.170308
0.131829
0.101553
0.0788894
0.0623697
0.0504079
0.0416764
0.0351933
0.0302737
0.026448
0.023391
0.0208717
0.0187189
0.0167981
0.0149914
0.0131786
0.0112307
0.00901708
0.00615868
0.231982
0.309162
0.304891
0.26395
0.211677
0.163734
0.124544
0.094706
0.0729509
0.0573902
0.0462475
0.038151
0.03214
0.0275681
0.0240019
0.0211454
0.0187898
0.016782
0.015002
0.0133453
0.0117048
0.00997338
0.00807249
0.00578335
0.251998
0.330562
0.316548
0.264082
0.206499
0.156505
0.117163
0.0881088
0.0674168
0.0528448
0.0424922
0.0349847
0.0294031
0.0251461
0.0218166
0.0191458
0.0169444
0.0150742
0.0134273
0.0119104
0.0104294
0.00889975
0.00728259
0.00545402
0.281342
0.35491
0.323397
0.261051
0.199737
0.148622
0.109727
0.0817778
0.0622673
0.0486903
0.0390883
0.0321219
0.026928
0.0229539
0.0198381
0.0173363
0.0152771
0.013535
0.0120132
0.0106288
0.00930093
0.00796427
0.00660498
0.00515202
0.325938
0.377605
0.326251
0.255535
0.191443
0.140143
0.102288
0.0757288
0.057484
0.0448887
0.0359918
0.0295196
0.0246754
0.0209561
0.018034
0.0156877
0.0137613
0.0121412
0.01074
0.00948459
0.00830537
0.00715197
0.00602453
0.0048819
0.00544433
0.0358538
0.0774111
0.12435
0.152932
0.198859
0.019269
0.0713206
0.118498
0.166995
0.222732
0.332199
0.0282586
0.0889432
0.140048
0.192574
0.256231
0.347459
0.0356053
0.10036
0.153656
0.207874
0.27042
0.342957
0.0419298
0.108807
0.162938
0.216886
0.275131
0.332678
0.0471916
0.115384
0.169373
0.221762
0.274838
0.320611
0.0514037
0.120531
0.173694
0.223786
0.271519
0.308089
0.0546205
0.124427
0.176309
0.22379
0.266508
0.295803
0.0569159
0.127143
0.177483
0.222342
0.260632
0.284167
0.0583704
0.128721
0.177417
0.219852
0.254434
0.273424
0.0590661
0.129202
0.176282
0.216623
0.248225
0.26376
0.0590845
0.128635
0.174224
0.21288
0.242204
0.255286
0.0585204
0.127065
0.171358
0.208765
0.236518
0.248046
0.0574103
0.124536
0.167758
0.204352
0.231248
0.242051
0.0556569
0.121099
0.163452
0.199645
0.226412
0.237295
0.0532226
0.116776
0.158417
0.194581
0.221957
0.233764
0.0500877
0.11155
0.152567
0.189021
0.217746
0.231448
0.0462371
0.105361
0.14575
0.182745
0.213519
0.23033
0.041665
0.0980842
0.137719
0.175436
0.208834
0.230399
0.0364135
0.0894914
0.128088
0.166567
0.202993
0.231708
0.0306689
0.0791529
0.116222
0.155371
0.19492
0.233757
0.0249911
0.0661506
0.100939
0.140615
0.18255
0.234364
0.0180876
0.0479767
0.079476
0.120004
0.161316
0.224013
0.00482556
0.0198852
0.0482833
0.0912603
0.122129
0.128483
0.387147
0.387818
0.321982
0.246443
0.181514
0.131151
0.0949219
0.0699885
0.0530562
0.0414109
0.0331692
0.0271467
0.0226185
0.0191306
0.0163866
0.0141855
0.0123855
0.0108831
0.00959983
0.00847026
0.00743446
0.00645274
0.0055316
0.00464585
0.419605
0.383898
0.309115
0.233976
0.170256
0.121877
0.0877537
0.0645999
0.0489803
0.0382349
0.0305951
0.0249807
0.0207397
0.017464
0.014886
0.0128227
0.0111447
0.00975745
0.00858955
0.00758238
0.00668339
0.00586006
0.00512
0.00444529
0.404386
0.365973
0.292599
0.219517
0.158316
0.112654
0.080931
0.0596066
0.0452532
0.0353424
0.0282501
0.0230056
0.019027
0.015948
0.0135264
0.0115953
0.0100359
0.00876121
0.0077059
0.00681669
0.00604652
0.00536708
0.00478342
0.0042795
0.382424
0.34434
0.2741
0.204168
0.146324
0.10379
0.074575
0.0550371
0.0418671
0.0327166
0.0261187
0.0212098
0.017472
0.0145765
0.0123035
0.0104997
0.0090555
0.00789053
0.00694425
0.00616747
0.00551689
0.00496586
0.00451447
0.0041457
0.359921
0.321721
0.255055
0.188863
0.134785
0.095515
0.0687601
0.050899
0.0388083
0.0303415
0.0241878
0.0195835
0.0160678
0.0133445
0.0112128
0.00953146
0.00819878
0.00713986
0.00629811
0.00562715
0.00508572
0.00464681
0.00430442
0.00403986
0.338522
0.299797
0.236543
0.174263
0.124035
0.0879562
0.0635139
0.0471822
0.0360587
0.028201
0.0224458
0.0181185
0.0148082
0.0122465
0.010249
0.00868495
0.00745935
0.00650199
0.00575927
0.00518634
0.0047425
0.00439893
0.00414386
0.00395756
0.318657
0.279427
0.219219
0.160759
0.114251
0.0811642
0.0588299
0.043865
0.0335974
0.0262797
0.0208816
0.0168067
0.0136865
0.0112762
0.00940575
0.00795317
0.00682944
0.00596827
0.00531804
0.00483421
0.00447539
0.00421057
0.00402352
0.00389464
0.30054
0.260991
0.203423
0.148547
0.105501
0.075135
0.0546803
0.0409191
0.031403
0.0245625
0.0194847
0.01564
0.0126955
0.0104267
0.00867561
0.00732806
0.00630026
0.00552905
0.00496372
0.00455894
0.00427209
0.00407043
0.00393506
0.00384748
0.284359
0.244555
0.189295
0.13769
0.0977756
0.0698297
0.0510245
0.0383134
0.0294539
0.0230348
0.0182447
0.0146099
0.0118275
0.00969019
0.00805035
0.00680085
0.0058624
0.00517408
0.00468509
0.00434854
0.00412075
0.00396836
0.00387145
0.00381304
0.27016
0.230124
0.176854
0.128164
0.0910193
0.0651897
0.0478163
0.0360161
0.0277291
0.0216826
0.0171513
0.0137077
0.0110743
0.00905825
0.00752131
0.00636245
0.00550618
0.00489295
0.00447095
0.00419155
0.00401073
0.00389578
0.00382701
0.0037888
0.257934
0.21765
0.166047
0.119892
0.0851496
0.0611472
0.0450082
0.0339961
0.0262087
0.0204926
0.0161942
0.0129245
0.0104273
0.00852241
0.00707974
0.0060037
0.00522194
0.00467538
0.00431064
0.00407764
0.00393297
0.00384567
0.00379712
0.00377248
0.247645
0.207055
0.156779
0.112768
0.080072
0.0576325
0.0425539
0.0322237
0.0248741
0.0194521
0.0153635
0.0122517
0.00987832
0.00807444
0.00671719
0.00571584
0.0050004
0.00451162
0.00419441
0.00399792
0.00388021
0.00381257
0.00377821
0.00376198
0.239257
0.198247
0.148937
0.106674
0.0756888
0.0545776
0.0404099
0.0306718
0.0237078
0.0185487
0.0146495
0.0116807
0.00941949
0.00770666
0.00642597
0.0054909
0.00483323
0.0043931
0.00411406
0.00394529
0.00384688
0.00379307
0.00376716
0.00375574
0.232748
0.191137
0.142397
0.10149
0.071907
0.0519197
0.0385363
0.0293153
0.0226934
0.0177705
0.0140429
0.0112035
0.00904345
0.00741211
0.0061992
0.00532188
0.00471321
0.00431266
0.00406299
0.00391427
0.00382887
0.00378335
0.0037619
0.0037527
0.228121
0.185651
0.137035
0.0970965
0.0686392
0.0496008
0.0368964
0.0281309
0.0218152
0.0171061
0.0135343
0.0108124
0.0087432
0.0071842
0.00603046
0.00520233
0.00463387
0.00426413
0.00403582
0.00390051
0.00382301
0.00378136
0.00376108
0.00375203
0.225433
0.181739
0.132729
0.0933789
0.0658008
0.0475662
0.035456
0.0270965
0.0210579
0.0165442
0.0131149
0.0104996
0.00851203
0.00701673
0.00591377
0.00512635
0.00458949
0.00424227
0.00402818
0.0039006
0.00382651
0.00378502
0.00376335
0.00375262
0.224799
0.179375
0.12936
0.0902193
0.063308
0.045763
0.0341818
0.0261907
0.0204067
0.0160737
0.0127759
0.010258
0.0083436
0.00690401
0.00584386
0.00508899
0.00457563
0.0042431
0.00403688
0.00391213
0.00383768
0.00379388
0.00376866
0.00375428
0.226358
0.178557
0.126793
0.0874929
0.0610768
0.0441394
0.0330419
0.0253927
0.019847
0.0156836
0.0125086
0.0100805
0.00823198
0.00684087
0.00581614
0.00508604
0.00458752
0.00426369
0.00405992
0.00393381
0.00385575
0.00380705
0.00377643
0.00375685
0.230361
0.179275
0.124869
0.08507
0.0590233
0.0426452
0.0320053
0.024682
0.0193644
0.0153632
0.0123047
0.00996043
0.00817171
0.00682274
0.0058261
0.00511276
0.0046244
0.00430256
0.00409631
0.00396508
0.00388049
0.00382453
0.00378661
0.0037604
0.236999
0.181469
0.123425
0.0828019
0.0570606
0.04123
0.0310412
0.0240386
0.0189445
0.0151017
0.0121563
0.00989156
0.00815779
0.006845
0.00587049
0.00516993
0.0046841
0.00435886
0.00414572
0.00400595
0.00391209
0.00384662
0.00379961
0.00376527
0.246393
0.184873
0.122155
0.0805266
0.0550999
0.039845
0.0301204
0.0234433
0.018574
0.0148892
0.0120557
0.00986826
0.00818572
0.00690524
0.0059493
0.00525462
0.00476607
0.00443259
0.0042085
0.00405694
0.00395117
0.00387401
0.00381613
0.00377205
0.257602
0.188648
0.120544
0.0780263
0.0530488
0.0384451
0.0292174
0.0228804
0.0182429
0.0147196
0.0119978
0.00988596
0.00825293
0.00700194
0.00605952
0.00536627
0.00487046
0.00452449
0.00428572
0.00411919
0.00399883
0.00390773
0.00383711
0.00378147
0.266009
0.190619
0.11792
0.0750503
0.0508203
0.0369938
0.0283127
0.0223378
0.0179421
0.0145849
0.0119762
0.00994015
0.00835544
0.00713167
0.0061999
0.0055047
0.00499799
0.00463588
0.004379
0.00419438
0.00405663
0.00394914
0.00386368
0.00379442
0.259702
0.187127
0.113361
0.0713213
0.0483427
0.035468
0.027395
0.0218073
0.0176649
0.0144788
0.0119857
0.0100269
0.00849029
0.00729248
0.0063695
0.00566992
0.0051495
0.00476822
0.00449015
0.00428441
0.00412645
0.00400005
0.00389727
0.00381207
)
;

boundaryField
{
    rotor
    {
        type            kqRWallFunction;
        value           nonuniform List<scalar> 
144
(
0.00562733
0.0104989
0.018212
0.0290329
0.062546
0.143153
0.00562733
0.0190539
0.0229433
0.0248747
0.0269059
0.0308426
0.0342571
0.0371354
0.0394716
0.0412048
0.0422868
0.0426865
0.0424517
0.0416361
0.0403571
0.038756
0.0369248
0.034663
0.0318562
0.0285112
0.0250196
0.0227484
0.0185764
0.00503268
0.00503268
0.0221483
0.0506312
0.0766683
0.104066
0.117795
0.0042308
0.0103476
0.0206886
0.0318728
0.0405452
0.0520707
0.0042308
0.0167298
0.0207094
0.0227018
0.024056
0.0250528
0.0273678
0.029348
0.0309922
0.0322937
0.03326
0.0339138
0.0342773
0.0342429
0.0337764
0.0328631
0.0314964
0.0296714
0.0273889
0.0250561
0.0235409
0.0214852
0.0171616
0.00425829
0.00425829
0.0111923
0.0316159
0.0612368
0.0900817
0.114569
0.00377102
0.00754927
0.0184226
0.0384737
0.0711625
0.116513
0.00377102
0.015977
0.0200822
0.0222926
0.0239294
0.0248864
0.0254993
0.0265106
0.0273561
0.0279444
0.0282364
0.0282216
0.0278853
0.0272544
0.0264404
0.0255582
0.024942
0.0248848
0.0243072
0.0232139
0.0216376
0.0195943
0.0157333
0.00392619
0.00392619
0.00830161
0.014176
0.0202644
0.0254353
0.060844
0.00544433
0.0358538
0.0774111
0.12435
0.152932
0.198859
0.00544433
0.019269
0.0282586
0.0356053
0.0419298
0.0471916
0.0514037
0.0546205
0.0569159
0.0583704
0.0590661
0.0590845
0.0585204
0.0574103
0.0556569
0.0532226
0.0500877
0.0462371
0.041665
0.0364135
0.0306689
0.0249911
0.0180876
0.00482556
0.00482556
0.0198852
0.0482833
0.0912603
0.122129
0.128483
)
;
    }
    freestream
    {