/*--------------------------------*- C++ -*----------------------------------*\
  =========                 |
  \\      /  F ield         | OpenFOAM: The Open Source CFD Toolbox
   \\    /   O peration     | Website:  https://openfoam.org
    \\  /    A nd           | Version:  11
     \\/     M anipulation  |
\*---------------------------------------------------------------------------*/
FoamFile
{
    format      ascii;
    class       surfaceScalarField;
    location    "1.08";
    object      meshPhi;
}
// * * * * * * * * * * * * * * * * * * * * * * * * * * * * * * * * * * * * * //

dimensions      [0 3 -1 0 0 0 0];

internalField   nonuniform List<scalar> 
5640
(
1.36977e-16
9.81747e-07
2.42124e-16
1.37445e-06
3.77013e-16
1.76715e-06
-1.33926e-15
2.15984e-06
-3.68139e-15
2.55254e-06
2.94524e-06
5.95156e-15
1.85892e-18
9.81747e-07
-3.88751e-16
1.37445e-06
-2.60411e-15
1.76715e-06
1.94372e-15
2.15984e-06
8.06626e-15
2.55254e-06
2.94524e-06
-9.02964e-15
-1.16444e-16
9.81747e-07
1.86428e-16
1.37445e-06
-1.56227e-15
1.76715e-06
-4.21241e-15
2.15984e-06
-7.49835e-15
2.55254e-06
2.94524e-06
7.7249e-16
8.69844e-17
9.81747e-07
-1.01927e-16
1.37445e-06
2.69323e-15
1.76715e-06
7.44286e-15
2.15984e-06
3.26002e-15
2.55254e-06
2.94524e-06
-2.79796e-15
-4.83499e-17
9.81747e-07
3.95451e-17
1.37445e-06
1.94416e-16
1.76715e-06
-1.80606e-15
2.15984e-06
-4.2084e-15
2.55254e-06
2.94524e-06
5.01341e-15
-1.80094e-16
9.81747e-07
4.3424e-18
1.37445e-06
-1.84775e-15
1.76715e-06
-3.88602e-15
2.15984e-06
3.15722e-15
2.55254e-06
2.94524e-06
4.98247e-16
2.53969e-16
9.81747e-07
2.5545e-16
1.37445e-06
2.06604e-15
1.76715e-06
4.50408e-15
2.15984e-06
-2.30971e-15
2.55254e-06
2.94524e-06
5.40861e-16
2.16559e-17
9.81747e-07
-3.21666e-16
1.37445e-06
-1.1488e-15
1.76715e-06
-5.28563e-15
2.15984e-06
-3.76561e-16
2.55254e-06
2.94524e-06
-5.63977e-15
-1.43406e-16
9.81747e-07
1.66419e-16
1.37445e-06
4.19115e-15
1.76715e-06
6.34956e-15
2.15984e-06
-8.05553e-16
2.55254e-06
2.94524e-06
8.39393e-16
-6.8784e-17
9.81747e-07
-9.20153e-17
1.37445e-06
-2.76937e-15
1.76715e-06
-3.6874e-16
2.15984e-06
-1.45081e-15
2.55254e-06
2.94524e-06
-1.76358e-16
1.66354e-16
9.81747e-07
-8.86716e-17
1.37445e-06
5.69687e-16
1.76715e-06
-2.10344e-15
2.15984e-06
9.65996e-15
2.55254e-06
2.94524e-06
5.29034e-15
-1.77771e-16
9.81747e-07
-2.05018e-17
1.37445e-06
-3.45451e-16
1.76715e-06
-4.17246e-15
2.15984e-06
-2.62209e-15
2.55254e-06
2.94524e-06
5.36958e-15
1.77819e-16
9.81747e-07
2.05404e-17
1.37445e-06
3.45465e-16
1.76715e-06
4.17279e-15
2.15984e-06
2.62264e-15
2.55254e-06
2.94524e-06
-5.36941e-15
-1.66311e-16
9.81747e-07
8.86856e-17
1.37445e-06
-5.69666e-16
1.76715e-06
2.10363e-15
2.15984e-06
-9.65978e-15
2.55254e-06
2.94524e-06
-5.29003e-15
6.88091e-17
9.81747e-07
9.20891e-17
1.37445e-06
2.76942e-15
1.76715e-06
3.68884e-16
2.15984e-06
1.45114e-15
2.55254e-06
2.94524e-06
1.76725e-16
1.43418e-16
9.81747e-07
-1.66351e-16
1.37445e-06
-4.19111e-15
1.76715e-06
-6.3493e-15
2.15984e-06
8.05981e-16
2.55254e-06
2.94524e-06
-8.39144e-16
-2.16496e-17
9.81747e-07
3.21707e-16
1.37445e-06
1.14892e-15
1.76715e-06
5.28569e-15
2.15984e-06
3.76949e-16
2.55254e-06
2.94524e-06
5.63993e-15
-2.53966e-16
9.81747e-07
-2.55398e-16
1.37445e-06
-2.06591e-15
1.76715e-06
-4.50405e-15
2.15984e-06
2.31005e-15
2.55254e-06
2.94524e-06
-5.4083e-16
1.80112e-16
9.81747e-07
-4.29091e-18
1.37445e-06
1.84778e-15
1.76715e-06
3.88626e-15
2.15984e-06
-3.15691e-15
2.55254e-06
2.94524e-06
-4.98037e-16
4.84157e-17
9.81747e-07
-3.95199e-17
1.37445e-06
-1.94244e-16
1.76715e-06
1.80621e-15
2.15984e-06
4.20885e-15
2.55254e-06
2.94524e-06
-5.01329e-15
-8.69144e-17
9.81747e-07
1.01958e-16
1.37445e-06
-2.69306e-15
1.76715e-06
-7.44271e-15
2.15984e-06
-3.25966e-15
2.55254e-06
2.94524e-06
2.79831e-15
1.16501e-16
9.81747e-07
-1.8634e-16
1.37445e-06
1.56244e-15
1.76715e-06
4.21262e-15
2.15984e-06
7.49857e-15
2.55254e-06
2.94524e-06
-7.72235e-16
-1.79142e-18
9.81747e-07
3.8885e-16
1.37445e-06
2.60421e-15
1.76715e-06
-1.94358e-15
2.15984e-06
-8.06616e-15
2.55254e-06
2.94524e-06
9.02988e-15
-1.36915e-16
-2.42022e-16
-3.77016e-16
1.33932e-15
3.68165e-15
-5.95108e-15
-1.13359e-14
4.53785e-06
-4.53785e-06
-4.81206e-16
5.23599e-06
-5.23599e-06
-5.3571e-15
5.93412e-06
-5.93412e-06
-1.13033e-14
6.63225e-06
-6.63225e-06
4.8691e-15
7.33038e-06
-7.33038e-06
-1.10877e-15
8.02851e-06
-8.02851e-06
-8.15751e-15
8.72664e-06
-8.72664e-06
1.30458e-14
9.42478e-06
-9.42478e-06
5.94974e-15
1.01229e-05
-1.01229e-05
-1.9954e-15
1.0821e-05
-1.0821e-05
2.4389e-14
1.15192e-05
-1.15192e-05
1.6191e-14
1.22173e-05
-1.22173e-05
-3.27842e-14
1.29154e-05
-1.29154e-05
-3.05044e-15
1.36136e-05
-1.36136e-05
-1.44396e-14
1.43117e-05
-1.43117e-05
-2.69001e-14
1.50098e-05
-1.50098e-05
7.74084e-15
1.5708e-05
-1.5708e-05
-4.43645e-15
1.64061e-05
-1.64061e-05
-1.79953e-14
1.71042e-05
-1.71042e-05
2.18232e-14
1.78024e-05
-1.78024e-05
8.21501e-15
1.85005e-05
-1.85005e-05
-6.0755e-15
1.91986e-05
-1.91986e-05
3.8925e-14
1.98967e-05
-1.98967e-05
2.05949e-05
-2.05949e-05
9.39917e-15
4.53785e-06
5.20372e-16
5.23599e-06
7.5288e-15
5.93412e-06
-4.4114e-15
6.63225e-06
3.78325e-15
7.33038e-06
1.33855e-14
8.02851e-06
-2.10933e-15
8.72664e-06
8.52959e-15
9.42478e-06
-1.00266e-14
1.01229e-05
1.86721e-15
1.0821e-05
-2.02007e-14
1.15192e-05
-7.01098e-15
1.22173e-05
7.51171e-15
1.29154e-05
2.36096e-14
1.36136e-05
-2.03869e-15
1.43117e-05
1.48316e-14
1.50098e-05
-1.38769e-14
1.5708e-05
2.3944e-15
1.64061e-05
2.04142e-14
1.71042e-05
-7.01425e-15
1.78024e-05
1.20689e-14
1.85005e-05
-2.5936e-14
1.91986e-05
1.84716e-15
1.98967e-05
2.05949e-05
-8.67593e-15
4.53785e-06
1.22928e-14
5.23599e-06
1.88329e-15
5.93412e-06
8.90276e-15
6.63225e-06
-5.10821e-15
7.33038e-06
-2.19904e-14
8.02851e-06
1.2265e-14
8.72664e-06
-5.37285e-15
9.42478e-06
4.45786e-15
1.01229e-05
-1.43052e-14
1.0821e-05
-7.32393e-15
1.15192e-05
7.0421e-15
1.22173e-05
2.39967e-14
1.29154e-05
-7.55291e-15
1.36136e-05
9.80323e-15
1.43117e-05
-1.62361e-14
1.50098e-05
4.03001e-14
1.5708e-05
1.44454e-14
1.64061e-05
-1.37003e-14
1.71042e-05
-7.89376e-15
1.78024e-05
-3.92446e-14
1.85005e-05
4.27581e-14
1.91986e-05
-8.85069e-15
1.98967e-05
2.05949e-05
5.98622e-15
4.53785e-06
2.19239e-16
5.23599e-06
-6.43562e-15
5.93412e-06
6.0641e-15
6.63225e-06
-2.09159e-15
7.33038e-06
1.61773e-14
8.02851e-06
-1.88301e-14
8.72664e-06
-2.35018e-15
9.42478e-06
9.17422e-15
1.01229e-05
-4.70892e-15
1.0821e-05
2.16296e-14
1.15192e-05
-2.9644e-14
1.22173e-05
-9.28821e-15
1.29154e-05
-1.8905e-14
1.36136e-05
4.47111e-15
1.43117e-05
3.01585e-14
1.50098e-05
-2.62173e-14
1.5708e-05
4.3856e-16
1.64061e-05
-2.1169e-14
1.71042e-05
1.87188e-14
1.78024e-05
-3.91688e-15
1.85005e-05
-2.91524e-14
1.91986e-05
1.52332e-14
1.98967e-05
2.05949e-05
6.71551e-15
4.53785e-06
-7.30632e-15
5.23599e-06
1.11012e-14
5.93412e-06
-4.24106e-15
6.63225e-06
1.51025e-14
7.33038e-06
-5.20841e-15
8.02851e-06
1.70142e-14
8.72664e-06
-3.94037e-15
9.42478e-06
-2.92739e-16
1.01229e-05
6.61251e-15
1.0821e-05
1.37074e-14
1.15192e-05
1.01857e-14
1.22173e-05
1.82189e-14
1.29154e-05
1.43702e-14
1.36136e-05
2.3344e-14
1.43117e-05
-2.53417e-14
1.50098e-05
2.90763e-14
1.5708e-05
-7.82545e-15
1.64061e-05
3.54203e-14
1.71042e-05
-4.50753e-15
1.78024e-05
4.23738e-14
1.85005e-05
-5.79294e-16
1.91986e-05
-8.73131e-15
1.98967e-05
2.05949e-05
-4.63009e-15
4.53785e-06
5.79791e-15
5.23599e-06
-1.61502e-14
5.93412e-06
-5.97405e-15
6.63225e-06
-8.55447e-15
7.33038e-06
4.22472e-15
8.02851e-06
-8.1861e-15
8.72664e-06
6.99964e-15
9.42478e-06
-2.42284e-14
1.01229e-05
-7.76873e-15
1.0821e-05
-2.27658e-14
1.15192e-05
8.35283e-15
1.22173e-05
-7.40225e-15
1.29154e-05
2.82684e-14
1.36136e-05
-4.57044e-14
1.43117e-05
-8.21936e-15
1.50098e-05
-2.82239e-14
1.5708e-05
-2.3401e-15
1.64061e-05
-6.94257e-15
1.71042e-05
2.21549e-14
1.78024e-05
-3.41051e-14
1.85005e-05
-3.73653e-15
1.91986e-05
-3.23422e-14
1.98967e-05
2.05949e-05
-8.9249e-15
4.53785e-06
-2.2888e-15
5.23599e-06
-2.22363e-15
5.93412e-06
6.61693e-15
6.63225e-06
-3.38775e-15
7.33038e-06
-3.90656e-15
8.02851e-06
-6.41815e-15
8.72664e-06
-7.1571e-15
9.42478e-06
6.81074e-15
1.01229e-05
6.984e-15
1.0821e-05
-9.06544e-15
1.15192e-05
6.76226e-15
1.22173e-05
-2.88878e-14
1.29154e-05
-1.22317e-14
1.36136e-05
4.80585e-15
1.43117e-05
2.50276e-14
1.50098e-05
3.86085e-15
1.5708e-05
3.61105e-15
1.64061e-05
-2.04823e-14
1.71042e-05
-2.17553e-14
1.78024e-05
3.47258e-15
1.85005e-05
2.90426e-14
1.91986e-05
-1.65984e-15
1.98967e-05
2.05949e-05
6.21592e-15
4.53785e-06
-3.87876e-15
5.23599e-06
1.54225e-14
5.93412e-06
-7.06448e-15
6.63225e-06
-2.2096e-15
7.33038e-06
1.43005e-15
8.02851e-06
-5.49281e-15
8.72664e-06
1.32276e-14
9.42478e-06
6.04782e-15
1.01229e-05
-1.74491e-14
1.0821e-05
2.08878e-14
1.15192e-05
-2.14436e-14
1.22173e-05
1.91364e-14
1.29154e-05
-7.31371e-15
1.36136e-05
3.84871e-14
1.43117e-05
-1.29196e-14
1.50098e-05
-1.88158e-15
1.5708e-05
5.72021e-15
1.64061e-05
-7.58526e-15
1.71042e-05
2.76626e-14
1.78024e-05
1.4099e-14
1.85005e-05
-5.31394e-14
1.91986e-05
3.90909e-14
1.98967e-05
2.05949e-05
-1.49828e-15
4.53785e-06
1.08975e-14
5.23599e-06
-6.59893e-15
5.93412e-06
7.26595e-15
6.63225e-06
6.176e-15
7.33038e-06
2.48932e-15
8.02851e-06
-9.64284e-16
8.72664e-06
-4.36423e-15
9.42478e-06
-8.89921e-15
1.01229e-05
1.38655e-14
1.0821e-05
1.06921e-14
1.15192e-05
6.25202e-15
1.22173e-05
-1.24844e-16
1.29154e-05
-3.43549e-15
1.36136e-05
-1.10415e-14
1.43117e-05
-1.77618e-14
1.50098e-05
1.76827e-14
1.5708e-05
9.95727e-15
1.64061e-05
3.33253e-15
1.71042e-05
-3.29672e-14
1.78024e-05
-1.04192e-14
1.85005e-05
3.00667e-14
1.91986e-05
-5.99912e-14
1.98967e-05
2.05949e-05
5.17025e-15
4.53785e-06
-7.45512e-15
5.23599e-06
-7.56604e-16
5.93412e-06
6.83993e-15
6.63225e-06
-9.97301e-15
7.33038e-06
-1.66341e-15
8.02851e-06
9.21925e-15
8.72664e-06
-1.34594e-14
9.42478e-06
2.32218e-14
1.01229e-05
1.04744e-14
1.0821e-05
-1.72708e-14
1.15192e-05
-3.02641e-15
1.22173e-05
1.13994e-14
1.29154e-05
-1.98135e-14
1.36136e-05
-4.67714e-15
1.43117e-05
5.03107e-14
1.50098e-05
-2.40455e-14
1.5708e-05
-6.65366e-15
1.64061e-05
1.42641e-14
1.71042e-05
1.65493e-15
1.78024e-05
-6.80539e-15
1.85005e-05
1.44434e-14
1.91986e-05
5.07613e-14
1.98967e-05
2.05949e-05
-6.19697e-15
4.53785e-06
2.87636e-17
5.23599e-06
1.15118e-14
5.93412e-06
-2.06255e-14
6.63225e-06
5.36694e-15
7.33038e-06
1.22206e-15
8.02851e-06
-4.71482e-17
8.72664e-06
1.23953e-14
9.42478e-06
-1.32266e-14
1.01229e-05
-1.8894e-14
1.0821e-05
-4.96163e-15
1.15192e-05
-7.15152e-15
1.22173e-05
-1.48844e-14
1.29154e-05
3.53424e-14
1.36136e-05
1.60349e-18
1.43117e-05
-4.31368e-14
1.50098e-05
1.35639e-14
1.5708e-05
-2.82544e-14
1.64061e-05
2.45844e-15
1.71042e-05
-1.02389e-14
1.78024e-05
2.38074e-14
1.85005e-05
1.38812e-14
1.91986e-05
-4.5558e-14
1.98967e-05
2.05949e-05
-1.90635e-15
4.53785e-06
1.131e-15
5.23599e-06
-2.16613e-14
5.93412e-06
9.62506e-15
6.63225e-06
1.51372e-14
7.33038e-06
-1.40648e-14
8.02851e-06
8.09355e-15
8.72664e-06
-2.69584e-14
9.42478e-06
-1.96526e-15
1.01229e-05
2.97174e-14
1.0821e-05
-1.17433e-14
1.15192e-05
1.98679e-14
1.22173e-05
-2.74441e-14
1.29154e-05
-2.06122e-14
1.36136e-05
1.60467e-14
1.43117e-05
-4.61225e-15
1.50098e-05
4.69479e-15
1.5708e-05
4.79717e-14
1.64061e-05
-1.3736e-14
1.71042e-05
3.23742e-14
1.78024e-05
-3.51837e-14
1.85005e-05
-2.48993e-14
1.91986e-05
7.19198e-14
1.98967e-05
2.05949e-05
1.9069e-15
4.53785e-06
-1.13041e-15
5.23599e-06
2.16624e-14
5.93412e-06
-9.62273e-15
6.63225e-06
-1.51363e-14
7.33038e-06
1.40659e-14
8.02851e-06
-8.09175e-15
8.72664e-06
2.69601e-14
9.42478e-06
1.96682e-15
1.01229e-05
-2.97163e-14
1.0821e-05
1.17476e-14
1.15192e-05
-1.98664e-14
1.22173e-05
2.74466e-14
1.29154e-05
2.06177e-14
1.36136e-05
-1.60383e-14
1.43117e-05
4.61605e-15
1.50098e-05
-4.68709e-15
1.5708e-05
-4.79653e-14
1.64061e-05
1.37457e-14
1.71042e-05
-3.2367e-14
1.78024e-05
3.51922e-14
1.85005e-05
2.49072e-14
1.91986e-05
-7.1911e-14
1.98967e-05
2.05949e-05
6.19737e-15
4.53785e-06
-2.83226e-17
5.23599e-06
-1.15114e-14
5.93412e-06
2.0626e-14
6.63225e-06
-5.36652e-15
7.33038e-06
-1.22013e-15
8.02851e-06
4.77289e-17
8.72664e-06
-1.2394e-14
9.42478e-06
1.32269e-14
1.01229e-05
1.88945e-14
1.0821e-05
4.96498e-15
1.15192e-05
7.15536e-15
1.22173e-05
1.48894e-14
1.29154e-05
-3.53382e-14
1.36136e-05
2.155e-18
1.43117e-05
4.31408e-14
1.50098e-05
-1.35591e-14
1.5708e-05
2.82585e-14
1.64061e-05
-2.45274e-15
1.71042e-05
1.02437e-14
1.78024e-05
-2.3798e-14
1.85005e-05
-1.3874e-14
1.91986e-05
4.55626e-14
1.98967e-05
2.05949e-05
-5.16984e-15
4.53785e-06
7.45573e-15
5.23599e-06
7.5727e-16
5.93412e-06
-6.8396e-15
6.63225e-06
9.97438e-15
7.33038e-06
1.66476e-15
8.02851e-06
-9.21893e-15
8.72664e-06
1.34592e-14
9.42478e-06
-2.32208e-14
1.01229e-05
-1.0471e-14
1.0821e-05
1.72739e-14
1.15192e-05
3.02908e-15
1.22173e-05
-1.13962e-14
1.29154e-05
1.98185e-14
1.36136e-05
4.67861e-15
1.43117e-05
-5.03048e-14
1.50098e-05
2.40485e-14
1.5708e-05
6.65904e-15
1.64061e-05
-1.42562e-14
1.71042e-05
-1.65004e-15
1.78024e-05
6.81074e-15
1.85005e-05
-1.44418e-14
1.91986e-05
-5.07587e-14
1.98967e-05
2.05949e-05
1.49875e-15
4.53785e-06
-1.08965e-14
5.23599e-06
6.60015e-15
5.93412e-06
-7.26619e-15
6.63225e-06
-6.17488e-15
7.33038e-06
-2.4876e-15
8.02851e-06
9.65391e-16
8.72664e-06
4.36545e-15
9.42478e-06
8.90144e-15
1.01229e-05
-1.38614e-14
1.0821e-05
-1.06893e-14
1.15192e-05
-6.24997e-15
1.22173e-05
1.27845e-16
1.29154e-05
3.43894e-15
1.36136e-05
1.10407e-14
1.43117e-05
1.77657e-14
1.50098e-05
-1.76801e-14
1.5708e-05
-9.95041e-15
1.64061e-05
-3.32533e-15
1.71042e-05
3.29725e-14
1.78024e-05
1.04249e-14
1.85005e-05
-3.0064e-14
1.91986e-05
5.99988e-14
1.98967e-05
2.05949e-05
-6.21571e-15
4.53785e-06
3.8795e-15
5.23599e-06
-1.54216e-14
5.93412e-06
7.06508e-15
6.63225e-06
2.21105e-15
7.33038e-06
-1.42889e-15
8.02851e-06
5.49361e-15
8.72664e-06
-1.32252e-14
9.42478e-06
-6.04456e-15
1.01229e-05
1.74517e-14
1.0821e-05
-2.08871e-14
1.15192e-05
2.14458e-14
1.22173e-05
-1.91314e-14
1.29154e-05
7.31502e-15
1.36136e-05
-3.84862e-14
1.43117e-05
1.29231e-14
1.50098e-05
1.88611e-15
1.5708e-05
-5.71556e-15
1.64061e-05
7.59161e-15
1.71042e-05
-2.76563e-14
1.78024e-05
-1.40911e-14
1.85005e-05
5.31424e-14
1.91986e-05
-3.90804e-14
1.98967e-05
2.05949e-05
8.92521e-15
4.53785e-06
2.28911e-15
5.23599e-06
2.22415e-15
5.93412e-06
-6.61637e-15
6.63225e-06
3.38879e-15
7.33038e-06
3.90707e-15
8.02851e-06
6.42009e-15
8.72664e-06
7.1599e-15
9.42478e-06
-6.80939e-15
1.01229e-05
-6.98224e-15
1.0821e-05
9.06684e-15
1.15192e-05
-6.75826e-15
1.22173e-05
2.88894e-14
1.29154e-05
1.22343e-14
1.36136e-05
-4.80248e-15
1.43117e-05
-2.50233e-14
1.50098e-05
-3.85856e-15
1.5708e-05
-3.60822e-15
1.64061e-05
2.04866e-14
1.71042e-05
2.17616e-14
1.78024e-05
-3.46127e-15
1.85005e-05
-2.90393e-14
1.91986e-05
1.66633e-15
1.98967e-05
2.05949e-05
4.63085e-15
4.53785e-06
-5.79746e-15
5.23599e-06
1.61513e-14
5.93412e-06
5.97442e-15
6.63225e-06
8.55575e-15
7.33038e-06
-4.22455e-15
8.02851e-06
8.18918e-15
8.72664e-06
-6.99824e-15
9.42478e-06
2.4231e-14
1.01229e-05
7.76978e-15
1.0821e-05
2.2765e-14
1.15192e-05
-8.34797e-15
1.22173e-05
7.40438e-15
1.29154e-05
-2.82643e-14
1.36136e-05
4.57136e-14
1.43117e-05
8.22321e-15
1.50098e-05
2.82251e-14
1.5708e-05
2.34166e-15
1.64061e-05
6.94922e-15
1.71042e-05
-2.21479e-14
1.78024e-05
3.41131e-14
1.85005e-05
3.74339e-15
1.91986e-05
3.23509e-14
1.98967e-05
2.05949e-05
-6.71484e-15
4.53785e-06
7.30643e-15
5.23599e-06
-1.11005e-14
5.93412e-06
4.2412e-15
6.63225e-06
-1.51014e-14
7.33038e-06
5.2096e-15
8.02851e-06
-1.70136e-14
8.72664e-06
3.94229e-15
9.42478e-06
2.95083e-16
1.01229e-05
-6.61094e-15
1.0821e-05
-1.3705e-14
1.15192e-05
-1.01826e-14
1.22173e-05
-1.82162e-14
1.29154e-05
-1.43683e-14
1.36136e-05
-2.33361e-14
1.43117e-05
2.53439e-14
1.50098e-05
-2.90738e-14
1.5708e-05
7.83151e-15
1.64061e-05
-3.54143e-14
1.71042e-05
4.51425e-15
1.78024e-05
-4.23719e-14
1.85005e-05
5.90202e-16
1.91986e-05
8.7375e-15
1.98967e-05
2.05949e-05
-5.98567e-15
4.53785e-06
-2.18849e-16
5.23599e-06
6.43602e-15
5.93412e-06
-6.06301e-15
6.63225e-06
2.09371e-15
7.33038e-06
-1.61756e-14
8.02851e-06
1.88317e-14
8.72664e-06
2.35212e-15
9.42478e-06
-9.17127e-15
1.01229e-05
4.71106e-15
1.0821e-05
-2.1627e-14
1.15192e-05
2.96461e-14
1.22173e-05
9.29173e-15
1.29154e-05
1.89089e-14
1.36136e-05
-4.46171e-15
1.43117e-05
-3.01517e-14
1.50098e-05
2.62157e-14
1.5708e-05
-4.31875e-16
1.64061e-05
2.11736e-14
1.71042e-05
-1.87134e-14
1.78024e-05
3.92711e-15
1.85005e-05
2.91578e-14
1.91986e-05
-1.5229e-14
1.98967e-05
2.05949e-05
8.67649e-15
4.53785e-06
-1.2292e-14
5.23599e-06
-1.88284e-15
5.93412e-06
-8.90142e-15
6.63225e-06
5.10864e-15
7.33038e-06
2.19911e-14
8.02851e-06
-1.22639e-14
8.72664e-06
5.37609e-15
9.42478e-06
-4.4556e-15
1.01229e-05
1.4306e-14
1.0821e-05
7.32644e-15
1.15192e-05
-7.04065e-15
1.22173e-05
-2.39952e-14
1.29154e-05
7.55593e-15
1.36136e-05
-9.79827e-15
1.43117e-05
1.62409e-14
1.50098e-05
-4.02931e-14
1.5708e-05
-1.44438e-14
1.64061e-05
1.37113e-14
1.71042e-05
7.895e-15
1.78024e-05
3.92515e-14
1.85005e-05
-4.27435e-14
1.91986e-05
8.85389e-15
1.98967e-05
2.05949e-05
-9.39868e-15
4.53785e-06
-5.20055e-16
5.23599e-06
-7.52821e-15
5.93412e-06
4.41211e-15
6.63225e-06
-3.78316e-15
7.33038e-06
-1.33839e-14
8.02851e-06
2.1096e-15
8.72664e-06
-8.52738e-15
9.42478e-06
1.00277e-14
1.01229e-05
-1.8642e-15
1.0821e-05
2.02021e-14
1.15192e-05
7.01378e-15
1.22173e-05
-7.50936e-15
1.29154e-05
-2.36085e-14
1.36136e-05
2.04503e-15
1.43117e-05
-1.48324e-14
1.50098e-05
1.38821e-14
1.5708e-05
-2.38729e-15
1.64061e-05
-2.04087e-14
1.71042e-05
7.01516e-15
1.78024e-05
-1.20642e-14
1.85005e-05
2.59441e-14
1.91986e-05
-1.84241e-15
1.98967e-05
2.05949e-05
1.13361e-14
4.53785e-06
4.81398e-16
5.23599e-06
5.35725e-15
5.93412e-06
1.13037e-14
6.63225e-06
-4.86914e-15
7.33038e-06
1.11056e-15
8.02851e-06
8.15856e-15
8.72664e-06
-1.3043e-14
9.42478e-06
-5.94792e-15
1.01229e-05
1.99747e-15
1.0821e-05
-2.43866e-14
1.15192e-05
-1.61874e-14
1.22173e-05
3.27891e-14
1.29154e-05
3.05275e-15
1.36136e-05
1.44447e-14
1.43117e-05
2.69006e-14
1.50098e-05
-7.7405e-15
1.5708e-05
4.44225e-15
1.64061e-05
1.80043e-14
1.71042e-05
-2.18218e-14
1.78024e-05
-8.20663e-15
1.85005e-05
6.08793e-15
1.91986e-05
-3.89183e-14
1.98967e-05
2.05949e-05
1.36963e-16
9.81747e-07
2.42124e-16
1.37445e-06
3.77007e-16
1.76715e-06
-1.33921e-15
2.15984e-06
-3.68141e-15
2.55254e-06
2.94524e-06
5.95156e-15
1.85892e-18
9.81747e-07
-3.88751e-16
1.37445e-06
-2.60411e-15
1.76715e-06
1.94372e-15
2.15984e-06
8.06626e-15
2.55254e-06
2.94524e-06
-9.02964e-15
-1.16444e-16
9.81747e-07
1.86428e-16
1.37445e-06
-1.56227e-15
1.76715e-06
-4.21241e-15
2.15984e-06
-7.49835e-15
2.55254e-06
2.94524e-06
7.7249e-16
8.69844e-17
9.81747e-07
-1.01927e-16
1.37445e-06
2.69323e-15
1.76715e-06
7.44286e-15
2.15984e-06
3.26002e-15
2.55254e-06
2.94524e-06
-2.79796e-15
-4.83499e-17
9.81747e-07
3.95451e-17
1.37445e-06
1.94416e-16
1.76715e-06
-1.80606e-15
2.15984e-06
-4.2084e-15
2.55254e-06
2.94524e-06
5.01341e-15
-1.80094e-16
9.81747e-07
4.3424e-18
1.37445e-06
-1.84775e-15
1.76715e-06
-3.88602e-15
2.15984e-06
3.15722e-15
2.55254e-06
2.94524e-06
4.98247e-16
2.53969e-16
9.81747e-07
2.5545e-16
1.37445e-06
2.06604e-15
1.76715e-06
4.50408e-15
2.15984e-06
-2.30971e-15
2.55254e-06
2.94524e-06
5.40861e-16
2.16559e-17
9.81747e-07
-3.21666e-16
1.37445e-06
-1.1488e-15
1.76715e-06
-5.28563e-15
2.15984e-06
-3.76561e-16
2.55254e-06
2.94524e-06
-5.63977e-15
-1.43406e-16
9.81747e-07
1.66419e-16
1.37445e-06
4.19115e-15
1.76715e-06
6.34956e-15
2.15984e-06
-8.05553e-16
2.55254e-06
2.94524e-06
8.39393e-16
-6.8784e-17
9.81747e-07
-9.20153e-17
1.37445e-06
-2.76937e-15
1.76715e-06
-3.6874e-16
2.15984e-06
-1.45081e-15
2.55254e-06
2.94524e-06
-1.76358e-16
1.66354e-16
9.81747e-07
-8.86716e-17
1.37445e-06
5.69687e-16
1.76715e-06
-2.10344e-15
2.15984e-06
9.65996e-15
2.55254e-06
2.94524e-06
5.29034e-15
-1.77771e-16
9.81747e-07
-2.05018e-17
1.37445e-06
-3.45451e-16
1.76715e-06
-4.17246e-15
2.15984e-06
-2.62209e-15
2.55254e-06
2.94524e-06
5.36958e-15
1.77819e-16
9.81747e-07
2.05404e-17
1.37445e-06
3.45465e-16
1.76715e-06
4.17279e-15
2.15984e-06
2.62264e-15
2.55254e-06
2.94524e-06
-5.36941e-15
-1.66311e-16
9.81747e-07
8.86856e-17
1.37445e-06
-5.69666e-16
1.76715e-06
2.10363e-15
2.15984e-06
-9.65978e-15
2.55254e-06
2.94524e-06
-5.29003e-15
6.88091e-17
9.81747e-07
9.20891e-17
1.37445e-06
2.76942e-15
1.76715e-06
3.68884e-16
2.15984e-06
1.45114e-15
2.55254e-06
2.94524e-06
1.76725e-16
1.43418e-16
9.81747e-07
-1.66351e-16
1.37445e-06
-4.19111e-15
1.76715e-06
-6.3493e-15
2.15984e-06
8.05981e-16
2.55254e-06
2.94524e-06
-8.39144e-16
-2.16496e-17
9.81747e-07
3.21707e-16
1.37445e-06
1.14892e-15
1.76715e-06
5.28569e-15
2.15984e-06
3.76949e-16
2.55254e-06
2.94524e-06
5.63993e-15
-2.53966e-16
9.81747e-07
-2.55398e-16
1.37445e-06
-2.06591e-15
1.76715e-06
-4.50405e-15
2.15984e-06
2.31005e-15
2.55254e-06
2.94524e-06
-5.4083e-16
1.80112e-16
9.81747e-07
-4.29091e-18
1.37445e-06
1.84778e-15
1.76715e-06
3.88626e-15
2.15984e-06
-3.15691e-15
2.55254e-06
2.94524e-06
-4.98037e-16
4.84157e-17
9.81747e-07
-3.95199e-17
1.37445e-06
-1.94244e-16
1.76715e-06
1.80621e-15
2.15984e-06
4.20885e-15
2.55254e-06
2.94524e-06
-5.01329e-15
-8.69144e-17
9.81747e-07
1.01958e-16
1.37445e-06
-2.69306e-15
1.76715e-06
-7.44271e-15
2.15984e-06
-3.25966e-15
2.55254e-06
2.94524e-06
2.79831e-15
1.16501e-16
9.81747e-07
-1.8634e-16
1.37445e-06
1.56244e-15
1.76715e-06
4.21262e-15
2.15984e-06
7.49857e-15
2.55254e-06
2.94524e-06
-7.72235e-16
-1.79142e-18
9.81747e-07
3.8885e-16
1.37445e-06
2.60421e-15
1.76715e-06
-1.94358e-15
2.15984e-06
-8.06616e-15
2.55254e-06
2.94524e-06
9.02988e-15
-1.36922e-16
-2.42025e-16
-3.76989e-16
1.33931e-15
3.68162e-15
-5.95108e-15
-1.13359e-14
4.53785e-06
-4.81122e-16
5.23599e-06
-5.35685e-15
5.93412e-06
-1.13031e-14
6.63225e-06
4.86933e-15
7.33038e-06
-1.1086e-15
8.02851e-06
-8.15699e-15
8.72664e-06
1.30464e-14
9.42478e-06
5.94931e-15
1.01229e-05
-1.99566e-15
1.0821e-05
2.4388e-14
1.15192e-05
1.61909e-14
1.22173e-05
-3.27857e-14
1.29154e-05
-3.04933e-15
1.36136e-05
-1.4441e-14
1.43117e-05
-2.68991e-14
1.50098e-05
7.74223e-15
1.5708e-05
-4.43438e-15
1.64061e-05
-1.79967e-14
1.71042e-05
2.18228e-14
1.78024e-05
8.21347e-15
1.85005e-05
-6.0771e-15
1.91986e-05
3.89218e-14
1.98967e-05
2.05949e-05
9.39917e-15
4.53785e-06
5.20372e-16
5.23599e-06
7.5288e-15
5.93412e-06
-4.4114e-15
6.63225e-06
3.78325e-15
7.33038e-06
1.33855e-14
8.02851e-06
-2.10933e-15
8.72664e-06
8.52959e-15
9.42478e-06
-1.00266e-14
1.01229e-05
1.86721e-15
1.0821e-05
-2.02007e-14
1.15192e-05
-7.01098e-15
1.22173e-05
7.51171e-15
1.29154e-05
2.36096e-14
1.36136e-05
-2.03869e-15
1.43117e-05
1.48316e-14
1.50098e-05
-1.38769e-14
1.5708e-05
2.3944e-15
1.64061e-05
2.04142e-14
1.71042e-05
-7.01425e-15
1.78024e-05
1.20689e-14
1.85005e-05
-2.5936e-14
1.91986e-05
1.84716e-15
1.98967e-05
2.05949e-05
-8.67593e-15
4.53785e-06
1.22928e-14
5.23599e-06
1.88329e-15
5.93412e-06
8.90276e-15
6.63225e-06
-5.10821e-15
7.33038e-06
-2.19904e-14
8.02851e-06
1.2265e-14
8.72664e-06
-5.37285e-15
9.42478e-06
4.45786e-15
1.01229e-05
-1.43052e-14
1.0821e-05
-7.32393e-15
1.15192e-05
7.0421e-15
1.22173e-05
2.39967e-14
1.29154e-05
-7.55291e-15
1.36136e-05
9.80323e-15
1.43117e-05
-1.62361e-14
1.50098e-05
4.03001e-14
1.5708e-05
1.44454e-14
1.64061e-05
-1.37003e-14
1.71042e-05
-7.89376e-15
1.78024e-05
-3.92446e-14
1.85005e-05
4.27581e-14
1.91986e-05
-8.85069e-15
1.98967e-05
2.05949e-05
5.98622e-15
4.53785e-06
2.19239e-16
5.23599e-06
-6.43562e-15
5.93412e-06
6.0641e-15
6.63225e-06
-2.09159e-15
7.33038e-06
1.61773e-14
8.02851e-06
-1.88301e-14
8.72664e-06
-2.35018e-15
9.42478e-06
9.17422e-15
1.01229e-05
-4.70892e-15
1.0821e-05
2.16296e-14
1.15192e-05
-2.9644e-14
1.22173e-05
-9.28821e-15
1.29154e-05
-1.8905e-14
1.36136e-05
4.47111e-15
1.43117e-05
3.01585e-14
1.50098e-05
-2.62173e-14
1.5708e-05
4.3856e-16
1.64061e-05
-2.1169e-14
1.71042e-05
1.87188e-14
1.78024e-05
-3.91688e-15
1.85005e-05
-2.91524e-14
1.91986e-05
1.52332e-14
1.98967e-05
2.05949e-05
6.71551e-15
4.53785e-06
-7.30632e-15
5.23599e-06
1.11012e-14
5.93412e-06
-4.24106e-15
6.63225e-06
1.51025e-14
7.33038e-06
-5.20841e-15
8.02851e-06
1.70142e-14
8.72664e-06
-3.94037e-15
9.42478e-06
-2.92739e-16
1.01229e-05
6.61251e-15
1.0821e-05
1.37074e-14
1.15192e-05
1.01857e-14
1.22173e-05
1.82189e-14
1.29154e-05
1.43702e-14
1.36136e-05
2.3344e-14
1.43117e-05
-2.53417e-14
1.50098e-05
2.90763e-14
1.5708e-05
-7.82545e-15
1.64061e-05
3.54203e-14
1.71042e-05
-4.50753e-15
1.78024e-05
4.23738e-14
1.85005e-05
-5.79294e-16
1.91986e-05
-8.73131e-15
1.98967e-05
2.05949e-05
-4.63009e-15
4.53785e-06
5.79791e-15
5.23599e-06
-1.61502e-14
5.93412e-06
-5.97405e-15
6.63225e-06
-8.55447e-15
7.33038e-06
4.22472e-15
8.02851e-06
-8.1861e-15
8.72664e-06
6.99964e-15
9.42478e-06
-2.42284e-14
1.01229e-05
-7.76873e-15
1.0821e-05
-2.27658e-14
1.15192e-05
8.35283e-15
1.22173e-05
-7.40225e-15
1.29154e-05
2.82684e-14
1.36136e-05
-4.57044e-14
1.43117e-05
-8.21936e-15
1.50098e-05
-2.82239e-14
1.5708e-05
-2.3401e-15
1.64061e-05
-6.94257e-15
1.71042e-05
2.21549e-14
1.78024e-05
-3.41051e-14
1.85005e-05
-3.73653e-15
1.91986e-05
-3.23422e-14
1.98967e-05
2.05949e-05
-8.9249e-15
4.53785e-06
-2.2888e-15
5.23599e-06
-2.22363e-15
5.93412e-06
6.61693e-15
6.63225e-06
-3.38775e-15
7.33038e-06
-3.90656e-15
8.02851e-06
-6.41815e-15
8.72664e-06
-7.1571e-15
9.42478e-06
6.81074e-15
1.01229e-05
6.984e-15
1.0821e-05
-9.06544e-15
1.15192e-05
6.76226e-15
1.22173e-05
-2.88878e-14
1.29154e-05
-1.22317e-14
1.36136e-05
4.80585e-15
1.43117e-05
2.50276e-14
1.50098e-05
3.86085e-15
1.5708e-05
3.61105e-15
1.64061e-05
-2.04823e-14
1.71042e-05
-2.17553e-14
1.78024e-05
3.47258e-15
1.85005e-05
2.90426e-14
1.91986e-05
-1.65984e-15
1.98967e-05
2.05949e-05
6.21592e-15
4.53785e-06
-3.87876e-15
5.23599e-06
1.54225e-14
5.93412e-06
-7.06448e-15
6.63225e-06
-2.2096e-15
7.33038e-06
1.43005e-15
8.02851e-06
-5.49281e-15
8.72664e-06
1.32276e-14
9.42478e-06
6.04782e-15
1.01229e-05
-1.74491e-14
1.0821e-05
2.08878e-14
1.15192e-05
-2.14436e-14
1.22173e-05
1.91364e-14
1.29154e-05
-7.31371e-15
1.36136e-05
3.84871e-14
1.43117e-05
-1.29196e-14
1.50098e-05
-1.88158e-15
1.5708e-05
5.72021e-15
1.64061e-05
-7.58526e-15
1.71042e-05
2.76626e-14
1.78024e-05
1.4099e-14
1.85005e-05
-5.31394e-14
1.91986e-05
3.90909e-14
1.98967e-05
2.05949e-05
-1.49828e-15
4.53785e-06
1.08975e-14
5.23599e-06
-6.59893e-15
5.93412e-06
7.26595e-15
6.63225e-06
6.176e-15
7.33038e-06
2.48932e-15
8.02851e-06
-9.64284e-16
8.72664e-06
-4.36423e-15
9.42478e-06
-8.89921e-15
1.01229e-05
1.38655e-14
1.0821e-05
1.06921e-14
1.15192e-05
6.25202e-15
1.22173e-05
-1.24844e-16
1.29154e-05
-3.43549e-15
1.36136e-05
-1.10415e-14
1.43117e-05
-1.77618e-14
1.50098e-05
1.76827e-14
1.5708e-05
9.95727e-15
1.64061e-05
3.33253e-15
1.71042e-05
-3.29672e-14
1.78024e-05
-1.04192e-14
1.85005e-05
3.00667e-14
1.91986e-05
-5.99912e-14
1.98967e-05
2.05949e-05
5.17025e-15
4.53785e-06
-7.45512e-15
5.23599e-06
-7.56604e-16
5.93412e-06
6.83993e-15
6.63225e-06
-9.97301e-15
7.33038e-06
-1.66341e-15
8.02851e-06
9.21925e-15
8.72664e-06
-1.34594e-14
9.42478e-06
2.32218e-14
1.01229e-05
1.04744e-14
1.0821e-05
-1.72708e-14
1.15192e-05
-3.02641e-15
1.22173e-05
1.13994e-14
1.29154e-05
-1.98135e-14
1.36136e-05
-4.67714e-15
1.43117e-05
5.03107e-14
1.50098e-05
-2.40455e-14
1.5708e-05
-6.65366e-15
1.64061e-05
1.42641e-14
1.71042e-05
1.65493e-15
1.78024e-05
-6.80539e-15
1.85005e-05
1.44434e-14
1.91986e-05
5.07613e-14
1.98967e-05
2.05949e-05
-6.19697e-15
4.53785e-06
2.87636e-17
5.23599e-06
1.15118e-14
5.93412e-06
-2.06255e-14
6.63225e-06
5.36694e-15
7.33038e-06
1.22206e-15
8.02851e-06
-4.71482e-17
8.72664e-06
1.23953e-14
9.42478e-06
-1.32266e-14
1.01229e-05
-1.8894e-14
1.0821e-05
-4.96163e-15
1.15192e-05
-7.15152e-15
1.22173e-05
-1.48844e-14
1.29154e-05
3.53424e-14
1.36136e-05
1.60349e-18
1.43117e-05
-4.31368e-14
1.50098e-05
1.35639e-14
1.5708e-05
-2.82544e-14
1.64061e-05
2.45844e-15
1.71042e-05
-1.02389e-14
1.78024e-05
2.38074e-14
1.85005e-05
1.38812e-14
1.91986e-05
-4.5558e-14
1.98967e-05
2.05949e-05
-1.90635e-15
4.53785e-06
1.131e-15
5.23599e-06
-2.16613e-14
5.93412e-06
9.62506e-15
6.63225e-06
1.51372e-14
7.33038e-06
-1.40648e-14
8.02851e-06
8.09355e-15
8.72664e-06
-2.69584e-14
9.42478e-06
-1.96526e-15
1.01229e-05
2.97174e-14
1.0821e-05
-1.17433e-14
1.15192e-05
1.98679e-14
1.22173e-05
-2.74441e-14
1.29154e-05
-2.06122e-14
1.36136e-05
1.60467e-14
1.43117e-05
-4.61225e-15
1.50098e-05
4.69479e-15
1.5708e-05
4.79717e-14
1.64061e-05
-1.3736e-14
1.71042e-05
3.23742e-14
1.78024e-05
-3.51837e-14
1.85005e-05
-2.48993e-14
1.91986e-05
7.19198e-14
1.98967e-05
2.05949e-05
1.9069e-15
4.53785e-06
-1.13041e-15
5.23599e-06
2.16624e-14
5.93412e-06
-9.62273e-15
6.63225e-06
-1.51363e-14
7.33038e-06
1.40659e-14
8.02851e-06
-8.09175e-15
8.72664e-06
2.69601e-14
9.42478e-06
1.96682e-15
1.01229e-05
-2.97163e-14
1.0821e-05
1.17476e-14
1.15192e-05
-1.98664e-14
1.22173e-05
2.74466e-14
1.29154e-05
2.06177e-14
1.36136e-05
-1.60383e-14
1.43117e-05
4.61605e-15
1.50098e-05
-4.68709e-15
1.5708e-05
-4.79653e-14
1.64061e-05
1.37457e-14
1.71042e-05
-3.2367e-14
1.78024e-05
3.51922e-14
1.85005e-05
2.49072e-14
1.91986e-05
-7.1911e-14
1.98967e-05
2.05949e-05
6.19737e-15
4.53785e-06
-2.83226e-17
5.23599e-06
-1.15114e-14
5.93412e-06
2.0626e-14
6.63225e-06
-5.36652e-15
7.33038e-06
-1.22013e-15
8.02851e-06
4.77289e-17
8.72664e-06
-1.2394e-14
9.42478e-06
1.32269e-14
1.01229e-05
1.88945e-14
1.0821e-05
4.96498e-15
1.15192e-05
7.15536e-15
1.22173e-05
1.48894e-14
1.29154e-05
-3.53382e-14
1.36136e-05
2.155e-18
1.43117e-05
4.31408e-14
1.50098e-05
-1.35591e-14
1.5708e-05
2.82585e-14
1.64061e-05
-2.45274e-15
1.71042e-05
1.02437e-14
1.78024e-05
-2.3798e-14
1.85005e-05
-1.3874e-14
1.91986e-05
4.55626e-14
1.98967e-05
2.05949e-05
-5.16984e-15
4.53785e-06
7.45573e-15
5.23599e-06
7.5727e-16
5.93412e-06
-6.8396e-15
6.63225e-06
9.97438e-15
7.33038e-06
1.66476e-15
8.02851e-06
-9.21893e-15
8.72664e-06
1.34592e-14
9.42478e-06
-2.32208e-14
1.01229e-05
-1.0471e-14
1.0821e-05
1.72739e-14
1.15192e-05
3.02908e-15
1.22173e-05
-1.13962e-14
1.29154e-05
1.98185e-14
1.36136e-05
4.67861e-15
1.43117e-05
-5.03048e-14
1.50098e-05
2.40485e-14
1.5708e-05
6.65904e-15
1.64061e-05