/*--------------------------------*- C++ -*----------------------------------*\
  =========                 |
  \\      /  F ield         | OpenFOAM: The Open Source CFD Toolbox
   \\    /   O peration     | Website:  https://openfoam.org
    \\  /    A nd           | Version:  11
     \\/     M anipulation  |
\*---------------------------------------------------------------------------*/
FoamFile
{
    format      ascii;
    class       volScalarField;
    location    "1.08";
    object      p;
}
// * * * * * * * * * * * * * * * * * * * * * * * * * * * * * * * * * * * * * //

dimensions      [0 2 -2 0 0 0 0];

internalField   nonuniform List<scalar> 
2880
(
0.142215
0.0932037
0.0507774
-0.0269099
-0.0483637
-0.452798
0.138708
0.0929803
0.053224
-0.0200489
-0.0273568
-0.141375
0.133793
0.0943303
0.0595045
-0.00320471
-0.0126464
-0.0316993
0.135093
0.0979881
0.0687787
0.0198932
0.0129257
0.0172428
0.139205
0.103203
0.080526
0.04582
0.0451337
0.0610268
0.142696
0.109085
0.0941504
0.072457
0.0771807
0.0990959
0.146148
0.116661
0.109256
0.0980737
0.106394
0.129588
0.150831
0.12574
0.125208
0.121823
0.132725
0.153954
0.156585
0.135999
0.141225
0.143775
0.156425
0.173945
0.163058
0.147079
0.156695
0.163989
0.177306
0.190498
0.169948
0.158626
0.17126
0.182293
0.19531
0.204072
0.17701
0.17032
0.184726
0.198517
0.210512
0.214661
0.184038
0.181879
0.196979
0.212518
0.222965
0.222416
0.190854
0.193059
0.207967
0.224205
0.232585
0.227553
0.197295
0.203654
0.217729
0.233771
0.239311
0.229992
0.203215
0.213473
0.22642
0.241494
0.243471
0.229493
0.208568
0.22219
0.234226
0.247703
0.245617
0.226166
0.213261
0.229668
0.241369
0.252911
0.246365
0.220394
0.217186
0.235893
0.248142
0.258003
0.246307
0.212903
0.220243
0.241234
0.255121
0.264202
0.246427
0.204745
0.222195
0.246688
0.26359
0.273308
0.249196
0.197838
0.223467
0.253445
0.275516
0.288196
0.259084
0.195811
0.22469
0.26091
0.291153
0.309654
0.279678
0.194837
0.225423
0.266705
0.30451
0.327357
0.304506
0.193664
0.272979
0.556832
0.602305
0.624064
0.622676
0.612474
0.599521
0.587207
0.576771
0.568313
0.561488
0.556044
0.551764
0.548391
0.545653
0.543325
0.541287
0.539508
0.537919
0.536312
0.534994
0.536447
0.543308
0.541013
0.161495
0.438113
0.525593
0.564372
0.572929
0.569816
0.56228
0.554199
0.547088
0.541211
0.536397
0.532528
0.529474
0.527046
0.525036
0.523275
0.521682
0.520253
0.518917
0.517417
0.516061
0.517804
0.526268
0.52429
0.156099
0.368194
0.463299
0.51026
0.525906
0.528619
0.5258
0.521514
0.517426
0.513903
0.510942
0.508539
0.506631
0.505093
0.503771
0.502547
0.501373
0.500268
0.499157
0.497734
0.496299
0.498276
0.508309
0.506742
0.160826
0.327683
0.415125
0.463322
0.482962
0.48985
0.490789
0.48969
0.4882
0.486738
0.485427
0.484345
0.483481
0.482759
0.482077
0.481356
0.480577
0.479776
0.478877
0.477527
0.476038
0.47832
0.489858
0.488228
0.167997
0.300886
0.377163
0.42303
0.444314
0.453876
0.45762
0.459067
0.459708
0.459981
0.460094
0.460168
0.460231
0.460245
0.460149
0.459894
0.459486
0.458976
0.458282
0.457011
0.455497
0.458116
0.471132
0.46928
0.178087
0.281915
0.346601
0.388359
0.409703
0.420734
0.426432
0.429813
0.432131
0.433816
0.43512
0.436183
0.437051
0.437717
0.438149
0.438324
0.438265
0.438032
0.437538
0.436357
0.434831
0.43777
0.452194
0.450148
0.188772
0.268005
0.321757
0.358325
0.37869
0.390282
0.397215
0.401968
0.405542
0.408343
0.410622
0.412511
0.414068
0.415305
0.416211
0.416781
0.417051
0.417086
0.416795
0.415717
0.414199
0.41743
0.433166
0.431008
0.198275
0.257226
0.301208
0.332079
0.350776
0.362257
0.36984
0.37548
0.37995
0.383607
0.386662
0.38923
0.39137
0.393104
0.394436
0.395373
0.395957
0.396256
0.396175
0.395224
0.393741
0.397234
0.414161
0.412028
0.205761
0.2484
0.283483
0.308906
0.325437
0.336309
0.344084
0.350226
0.355301
0.35959
0.363251
0.366372
0.369006
0.371178
0.372899
0.374182
0.375073
0.375638
0.375782
0.374991
0.373581
0.377303
0.395276
0.393375
0.211455
0.240843
0.267556
0.287996
0.302112
0.312038
0.319668
0.326018
0.331474
0.33622
0.340353
0.343932
0.346995
0.349562
0.351649
0.35327
0.354469
0.355312
0.355704
0.355114
0.353822
0.357736
0.376575
0.375219
0.215459
0.233834
0.252756
0.26864
0.280248
0.289022
0.29627
0.302626
0.308304
0.313382
0.317896
0.321871
0.325323
0.328268
0.330716
0.332681
0.334205
0.335349
0.336019
0.33568
0.33456
0.338608
0.358082
0.357752
0.217546
0.226642
0.238738
0.250218
0.259302
0.266823
0.273547
0.279789
0.285591
0.290928
0.295776
0.300119
0.303954
0.307284
0.310115
0.312454
0.314336
0.31582
0.316813
0.316784
0.315889
0.319971
0.339755
0.341246
0.217559
0.218602
0.22463
0.231956
0.238704
0.244986
0.251143
0.257223
0.263111
0.268686
0.273861
0.278584
0.282828
0.286583
0.289845
0.292616
0.29492
0.296806
0.298191
0.298556
0.297941
0.301849
0.321425
0.326194
0.215417
0.209071
0.209551
0.213329
0.217932
0.223059
0.228689
0.23463
0.240626
0.246464
0.252002
0.257151
0.261862
0.266111
0.269886
0.273182
0.276009
0.278404
0.280302
0.281222
0.280979
0.284223
0.302488
0.313787
0.210733
0.197486
0.19316
0.193744
0.196458
0.200603
0.205825
0.211716
0.217892
0.224063
0.230033
0.235682
0.240942
0.24578
0.250177
0.254125
0.257623
0.260692
0.263304
0.265116
0.265587
0.267073
0.280677
0.306694
0.202806
0.18315
0.174654
0.172568
0.173783
0.177217
0.182221
0.188206
0.19468
0.201283
0.207777
0.214016
0.219919
0.225444
0.230576
0.235314
0.239665
0.243646
0.247276
0.250488
0.252792
0.25365
0.257747
0.302576
0.1908
0.165159
0.153267
0.149225
0.149461
0.152546
0.157591
0.163861
0.170779
0.177934
0.185055
0.191974
0.198598
0.204885
0.210823
0.216428
0.221735
0.226805
0.231651
0.236078
0.240009
0.246258
0.26223
0.27005
0.173758
0.142481
0.128252
0.123181
0.123102
0.126296
0.131699
0.138482
0.146013
0.153849
0.161695
0.169368
0.176762
0.183824
0.190532
0.196889
0.20292
0.208664
0.214059
0.21875
0.222916
0.23117
0.250876
0.243051
0.150651
0.113956
0.0988428
0.093939
0.0943653
0.0982291
0.10437
0.111923
0.120248
0.128895
0.137561
0.146053
0.154253
0.162093
0.169534
0.176559
0.183172
0.189393
0.19514
0.200054
0.204426
0.213367
0.23394
0.220939
0.120503
0.0783289
0.0643202
0.0610588
0.06297
0.0681699
0.0754862
0.0840907
0.0933964
0.102983
0.112559
0.121931
0.130972
0.139602
0.147765
0.155425
0.162569
0.169211
0.175304
0.180538
0.185263
0.194674
0.215494
0.200698
0.0823415
0.0345206
0.0242157
0.0242299
0.0287029
0.0360003
0.0449829
0.0549411
0.065416
0.0760655
0.0866347
0.0969433
0.106865
0.11631
0.125209
0.133509
0.14118
0.148241
0.154695
0.160298
0.165444
0.175213
0.195998
0.181245
0.0350869
-0.01775
-0.0213554
-0.0165717
-0.00847799
0.00171529
0.012874
0.0244855
0.0363084
0.0481314
0.059767
0.0710655
0.0819108
0.0922101
0.101884
0.110863
0.119103
0.126624
0.133469
0.139476
0.145075
0.155093
0.175616
0.16221
-0.0260867
-0.0780468
-0.0715659
-0.0610165
-0.0484796
-0.0346611
-0.0208214
-0.00725279
0.00609246
0.0191875
0.0319515
0.044288
0.0561032
0.0673091
0.0778206
0.0875559
0.0964516
0.104512
0.111806
0.118262
0.12433
0.134466
0.154493
0.14342
-0.112994
-0.14405
-0.124875
-0.107334
-0.0898963
-0.0726494
-0.0559755
-0.0402422
-0.025218
-0.0107676
0.00317509
0.0165919
0.0294258
0.0416027
0.053037
0.0636373
0.0733203
0.0820517
0.0898997
0.0968727
0.103425
0.113552
0.132822
0.124806
-0.340525
-0.332065
-0.33776
-0.349686
-0.369819
-0.410273
-0.342923
-0.335126
-0.343482
-0.358037
-0.379295
-0.421289
-0.347981
-0.339383
-0.350387
-0.366401
-0.385853
-0.414072
-0.351403
-0.342746
-0.355757
-0.372089
-0.38971
-0.41029
-0.350097
-0.344808
-0.359435
-0.3758
-0.392256
-0.409145
-0.346711
-0.346547
-0.362156
-0.37854
-0.394324
-0.409044
-0.346122
-0.349073
-0.364589
-0.380738
-0.396089
-0.409267
-0.347656
-0.352003
-0.36686
-0.382584
-0.397482
-0.409502
-0.349193
-0.354853
-0.368865
-0.384174
-0.398421
-0.409638
-0.350463
-0.357422
-0.370519
-0.385425
-0.398996
-0.409653
-0.351458
-0.359606
-0.371773
-0.386258
-0.39928
-0.409542
-0.352166
-0.361332
-0.372583
-0.386664
-0.399278
-0.409324
-0.352591
-0.362506
-0.372898
-0.386656
-0.398999
-0.409011
-0.352746
-0.363146
-0.372705
-0.386237
-0.398439
-0.408603
-0.352679
-0.36326
-0.372012
-0.385399
-0.397574
-0.408061
-0.352477
-0.362883
-0.370854
-0.384131
-0.396352
-0.407285
-0.352274
-0.362095
-0.36929
-0.382418
-0.394671
-0.406083
-0.352137
-0.361006
-0.36741
-0.380235
-0.392376
-0.404161
-0.351884
-0.359757
-0.365339
-0.377556
-0.389265
-0.40108
-0.349793
-0.358625
-0.3633
-0.374419
-0.385105
-0.395991
-0.345629
-0.358226
-0.361681
-0.371036
-0.379603
-0.387029
-0.34605
-0.359043
-0.361104
-0.367655
-0.372114
-0.370883
-0.35031
-0.360497
-0.361085
-0.363644
-0.36101
-0.343144
-0.352375
-0.360951
-0.359288
-0.356947
-0.344895
-0.302764
-0.252212
-0.212262
-0.180568
-0.154305
-0.131164
-0.110605
-0.0919237
-0.0742985
-0.057589
-0.0417518
-0.0265938
-0.0120672
0.0018292
0.0150486
0.0275086
0.0391111
0.0497529
0.0593565
0.0679433
0.0755567
0.082658
0.092695
0.110912
0.106402
-0.320224
-0.274949
-0.234428
-0.200922
-0.173009
-0.148386
-0.127245
-0.108373
-0.0907358
-0.0738093
-0.0574527
-0.0417937
-0.0267858
-0.0124491
0.00114579
0.0139087
0.0257201
0.0364611
0.046063
0.0545554
0.0623623
0.0723169
0.0892074
0.0883242
-0.36096
-0.319467
-0.280334
-0.24581
-0.214583
-0.187353
-0.163248
-0.142078
-0.123424
-0.106112
-0.0893228
-0.0728205
-0.0566684
-0.0410959
-0.0262323
-0.0121281
0.00108428
0.0132624
0.0242668
0.0340302
0.0428517
0.0529269
0.0683475
0.0708938
-0.386603
-0.352571
-0.31759
-0.284246
-0.254328
-0.226676
-0.200938
-0.178147
-0.157299
-0.13818
-0.120832
-0.104318
-0.0878345
-0.07126
-0.0550595
-0.0393396
-0.0244339
-0.0104827
0.00235783
0.0139123
0.0242717
0.0349347
0.0490749
0.0547492
-0.40056
-0.377127
-0.347705
-0.317149
-0.28809
-0.261912
-0.238427
-0.215837
-0.193929
-0.173616
-0.154438
-0.135871
-0.118535
-0.101906
-0.0851335
-0.0681423
-0.0514111
-0.0352815
-0.0201063
-0.00615675
0.00646345
0.0185301
0.0321704
0.0407577
-0.407902
-0.39396
-0.371036
-0.344568
-0.317541
-0.292445
-0.26965
-0.248851
-0.229752
-0.210908
-0.191225
-0.17152
-0.152389
-0.133434
-0.114826
-0.097007
-0.0794007
-0.0615439
-0.0438048
-0.0269348
-0.0112222
0.00345558
0.0179578
0.0294156
-0.412038
-0.404519
-0.387828
-0.365957
-0.341978
-0.318432
-0.296441
-0.276485
-0.258161
-0.24076
-0.224109
-0.207318
-0.188936
-0.168983
-0.14843
-0.127882
-0.107325
-0.0873379
-0.0679482
-0.0486658
-0.0296445
-0.0113185
0.00570559
0.0205634
-0.414501
-0.410847
-0.398975
-0.381392
-0.360661
-0.339133
-0.318236
-0.298768
-0.280798
-0.264137
-0.24846
-0.232871
-0.216784
-0.199998
-0.181715
-0.161234
-0.138881
-0.115699
-0.0925667
-0.0698021
-0.0477763
-0.0261046
-0.00562949
0.0143453
-0.415968
-0.4146
-0.406059
-0.391879
-0.374034
-0.354485
-0.334698
-0.31559
-0.297607
-0.280834
-0.265113
-0.25001
-0.235035
-0.219559
-0.202837
-0.184547
-0.164686
-0.142873
-0.118883
-0.0932937
-0.0670827
-0.0408631
-0.0152053
0.0123631
-0.416803
-0.416854
-0.410593
-0.398929
-0.383401
-0.365548
-0.346661
-0.32771
-0.309326
-0.291802
-0.275185
-0.259348
-0.244007
-0.228675
-0.212797
-0.195904
-0.17751
-0.157125
-0.134579
-0.109965
-0.0834575
-0.0546729
-0.0255302
0.00490444
-0.417274
-0.418295
-0.413716
-0.404018
-0.390373
-0.373979
-0.35586
-0.336897
-0.317773
-0.29895
-0.280683
-0.263055
-0.246058
-0.229466
-0.21284
-0.195761
-0.177829
-0.158604
-0.137671
-0.114649
-0.0893017
-0.0611431
-0.031375
0.00156386
-0.417611
-0.419396
-0.41627
-0.408326
-0.396428
-0.381503
-0.364285
-0.345423
-0.325539
-0.305164
-0.284728
-0.264515
-0.244741
-0.225502
-0.206653
-0.187909
-0.168949
-0.149425
-0.128992
-0.107319
-0.0840619
-0.0586182
-0.0309915
-0.000993354
-0.418005
-0.420526
-0.418819
-0.412728
-0.402798
-0.389625
-0.37376
-0.355505
-0.335318
-0.313682
-0.291081
-0.267951
-0.244705
-0.221731
-0.19926
-0.177355
-0.155931
-0.134795
-0.113682
-0.0923259
-0.0705508
-0.0481748
-0.0251262
-0.00256178
-0.418618
-0.422006
-0.421857
-0.417782
-0.410299
-0.399556
-0.385781
-0.369007
-0.349417
-0.327336
-0.303223
-0.277523
-0.250764
-0.22362
-0.1966
-0.170202
-0.144766
-0.12043
-0.0972636
-0.0751759
-0.0539965
-0.0334744
-0.0133927
0.00371798
-0.419567
-0.423991
-0.42571
-0.424003
-0.419463
-0.411964
-0.401343
-0.387331
-0.369809
-0.34881
-0.324478
-0.296916
-0.266709
-0.234802
-0.202458
-0.170704
-0.140211
-0.111491
-0.0848385
-0.0604289
-0.0382656
-0.0174411
0.00434062
0.022461
-0.420931
-0.426552
-0.430452
-0.431533
-0.430556
-0.42721
-0.42108
-0.411526
-0.397714
-0.378941
-0.354424
-0.324618
-0.290925
-0.25464
-0.217191
-0.179846
-0.143807
-0.110082
-0.0794015
-0.0522934
-0.0288761
-0.00759507
0.0156415
0.03396
-0.422752
-0.429672
-0.436
-0.440224
-0.443431
-0.445177
-0.444498
-0.440171
-0.430721
-0.414733
-0.391573
-0.36168
-0.325814
-0.285352
-0.242159
-0.198344
-0.155887
-0.116427
-0.0812349
-0.0512737
-0.027072
-0.00844301
0.00478637
0.00798698
-0.425037
-0.433222
-0.442067
-0.449578
-0.457225
-0.464496
-0.470132
-0.472288
-0.468872
-0.457892
-0.438112
-0.40916
-0.371304
-0.326369
-0.276874
-0.225809
-0.176046
-0.130029
-0.0895508
-0.0558529
-0.0298257
-0.0123982
-0.00496764
-0.00581361
-0.427743
-0.436943
-0.448185
-0.458919
-0.471059
-0.484171
-0.496751
-0.50653
-0.510706
-0.50631
-0.490969
-0.463631
-0.424087
-0.374887
-0.318998
-0.260537
-0.203475
-0.150821
-0.10469
-0.0664682
-0.0370009
-0.0169217
-0.0065435
-0.00346629
-0.430738
-0.440413
-0.453741
-0.467401
-0.483769
-0.50263
-0.522187
-0.53975
-0.551766
-0.55435
-0.544297
-0.519459
-0.478165
-0.425984
-0.365094
-0.300676
-0.237667
-0.179735
-0.129188
-0.0872771
-0.0543805
-0.0302165
-0.0138068
-0.003111
-0.43349
-0.443161
-0.458129
-0.473933
-0.493953
-0.517793
-0.543444
-0.567712
-0.586328
-0.594807
-0.58866
-0.565589
-0.525392
-0.471065
-0.406936
-0.338843
-0.272383
-0.211577
-0.158566
-0.114246
-0.0784119
-0.0500821
-0.0276
-0.00936131
-0.434795
-0.444878
-0.46059
-0.477545
-0.500143
-0.527656
-0.557681
-0.586529
-0.609274
-0.620807
-0.616573
-0.59431
-0.55413
-0.498841
-0.433358
-0.364016
-0.296717
-0.235347
-0.181468
-0.13591
-0.0982074
-0.0669913
-0.0406627
-0.017159
-0.435187
-0.446243
-0.460533
-0.477394
-0.501222
-0.530756
-0.563038
-0.593789
-0.617704
-0.629425
-0.624724
-0.601572
-0.560431
-0.504483
-0.439267
-0.37107
-0.305539
-0.245919
-0.192877
-0.14764
-0.10964
-0.0772764
-0.0492278
-0.0225815
-0.447096
-0.44958
-0.458077
-0.473176
-0.496763
-0.526588
-0.559042
-0.589264
-0.611746
-0.621237
-0.613946
-0.58833
-0.545586
-0.489659
-0.426272
-0.361269
-0.299822
-0.243589
-0.19384
-0.150943
-0.113966
-0.082039
-0.0540572
-0.0258112
-0.564276
-0.571252
-0.569684
-0.573382
-0.577684
-0.624802
-0.563121
-0.570226
-0.568429
-0.572201
-0.573146
-0.579093
-0.560527
-0.568583
-0.566303
-0.569374
-0.565962
-0.556458
-0.558228
-0.567022
-0.564216
-0.565911
-0.559034
-0.543826
-0.557271
-0.566033
-0.562692
-0.562763
-0.553308
-0.535064
-0.558895
-0.565659
-0.561842
-0.560219
-0.549113
-0.528699
-0.5626
-0.565713
-0.561605
-0.558417
-0.546499
-0.524775
-0.564629
-0.565812
-0.561753
-0.557614
-0.545336
-0.523281
-0.564859
-0.565787
-0.562182
-0.557779
-0.545579
-0.524059
-0.564959
-0.56563
-0.562862
-0.558744
-0.547215
-0.526866
-0.565166
-0.565329
-0.563778
-0.560373
-0.550093
-0.531455
-0.56535
-0.564867
-0.564871
-0.562568
-0.553924
-0.537513
-0.565398
-0.564236
-0.566067
-0.565209
-0.558373
-0.544677
-0.565226
-0.563394
-0.567292
-0.568171
-0.563073
-0.552667
-0.564775
-0.562232
-0.568496
-0.571392
-0.567806
-0.56122
-0.564185
-0.560665
-0.569697
-0.574922
-0.57263
-0.570499
-0.564981
-0.559233
-0.570972
-0.57879
-0.577447
-0.581316
-0.567773
-0.559357
-0.572402
-0.582946
-0.582414
-0.594176
-0.569596
-0.560322
-0.573805
-0.587275
-0.587795
-0.609043
-0.569454
-0.560999
-0.574808
-0.59153
-0.59402
-0.625715
-0.568479
-0.560751
-0.574831
-0.594993
-0.601481
-0.644274
-0.565458
-0.558964
-0.573276
-0.596495
-0.609221
-0.666171
-0.560995
-0.556029
-0.57057
-0.595165
-0.616041
-0.695093
-0.558823
-0.553998
-0.569175
-0.593542
-0.622984
-0.737726
-0.487629
-0.453865
-0.453287
-0.465162
-0.48712
-0.515749
-0.546588
-0.574277
-0.593257
-0.598579
-0.58704
-0.558039
-0.513758
-0.45871
-0.398361
-0.337865
-0.281873
-0.231294
-0.186085
-0.146581
-0.112168
-0.082164
-0.0555544
-0.0270269
-0.493497
-0.455322
-0.446259
-0.454043
-0.473359
-0.499568
-0.527268
-0.550823
-0.564682
-0.564342
-0.547649
-0.515169
-0.470036
-0.417024
-0.36116
-0.306652
-0.256052
-0.211179
-0.171453
-0.13609
-0.104957
-0.077583
-0.0528054
-0.0252812
-0.489988
-0.452723
-0.437548
-0.441028
-0.45693
-0.47957
-0.502921
-0.521034
-0.528404
-0.521573
-0.499614
-0.464308
-0.419496
-0.369775
-0.319315
-0.271077
-0.226849
-0.187294
-0.152279
-0.121247
-0.0937398
-0.0692549
-0.0464727
-0.020946
-0.486632
-0.448161
-0.428288
-0.427393
-0.439152
-0.457249
-0.475273
-0.486654
-0.486712
-0.473256
-0.44669
-0.409815
-0.36659
-0.320948
-0.275986
-0.233739
-0.195246
-0.16086
-0.130436
-0.103489
-0.07949
-0.0577426
-0.0367542
-0.0140398
-0.484002
-0.443502
-0.419501
-0.414012
-0.421043
-0.43398
-0.445424
-0.449104
-0.441678
-0.422219
-0.392313
-0.355172
-0.314379
-0.272989
-0.233165
-0.196209
-0.162783
-0.133054
-0.106787
-0.0835177
-0.0626789
-0.0433521
-0.0238797
-0.00472941
-0.482277
-0.439701
-0.411872
-0.401599
-0.403545
-0.410287
-0.41396
-0.409736
-0.39529
-0.370916
-0.338926
-0.302451
-0.264407
-0.227002
-0.191681
-0.159296
-0.130241
-0.104548
-0.0819042
-0.0618355
-0.0437563
-0.0264925
-0.00818571
0.00683945
-0.481983
-0.437232
-0.405633
-0.390479
-0.386733
-0.385947
-0.381641
-0.36978
-0.349115
-0.320947
-0.28786
-0.252552
-0.217193
-0.183288
-0.15179
-0.123239
-0.0978564
-0.0755702
-0.0559972
-0.0386461
-0.0229376
-0.00737909
0.010133
0.0206077
-0.483504
-0.43626
-0.400728
-0.380534
-0.369857
-0.361267
-0.349065
-0.329963
-0.303985
-0.273052
-0.239574
-0.20562
-0.172689
-0.141765
-0.113451
-0.0880735
-0.0657219
-0.0462399
-0.0291991
-0.0141163
-0.000424734
0.0137511
0.0307815
0.0364229
-0.486933
-0.436595
-0.397093
-0.370923
-0.352797
-0.336409
-0.316232
-0.290484
-0.260195
-0.227391
-0.193976
-0.161386
-0.130584
-0.102171
-0.0764929
-0.0537126
-0.0338185
-0.0165945
-0.00159821
0.0116179
0.0236122
0.0366775
0.0534435
0.0541238
-0.491927
-0.43799
-0.393955
-0.360959
-0.33552
-0.310801
-0.282815
-0.251321
-0.217755
-0.183778
-0.150706
-0.119432
-0.0904984
-0.0642066
-0.0407038
-0.0200283
-0.00209552
0.0133459
0.0267216
0.0384139
0.0489811
0.0611639
0.0778292
0.0736074
-0.498135
-0.439461
-0.390093
-0.350419
-0.316933
-0.283569
-0.248519
-0.212375
-0.176432
-0.141821
-0.109303
-0.0793138
-0.0520555
-0.0275882
-0.00590005
0.0130686
0.0294536
0.0435158
0.0556332
0.0660988
0.075472
0.0869571
0.103692
0.0948766
-0.50491
-0.44024
-0.384955
-0.338483
-0.295898
-0.254184
-0.2131
-0.173374
-0.13584
-0.101061
-0.0693044
-0.0406194
-0.0149241
0.00791884
0.0280521
0.0456137
0.0607747
0.0737871
0.084953
0.0944574
0.102853
0.11379
0.130749
0.117932
-0.510843
-0.439846
-0.378061
-0.323599
-0.27145
-0.222219
-0.17628
-0.133972
-0.0955507
-0.0610446
-0.0302838
-0.00298489
0.0211725
0.0424902
0.0612202
0.0775673
0.0917299
0.103941
0.114414
0.123204
0.130839
0.141359
0.158671
0.142794
-0.514635
-0.438063
-0.367973
-0.304081
-0.242892
-0.187335
-0.137719
-0.0937669
-0.0551323
-0.0213481
0.00814202
0.0339061
0.0564639
0.0762532
0.0936183
0.108824
0.122097
0.133657
0.143633
0.151932
0.159042
0.169292
0.187076
0.169572
-0.515482
-0.434898
-0.353063
-0.278885
-0.209812
-0.149239
-0.097072
-0.0523673
-0.0141824
0.0184126
0.0463153
0.070334
0.0911508
0.109311
0.125236
0.139245
0.1516
0.162522
0.172099
0.18013
0.187017
0.197169
0.215455
0.198646
-0.513601
-0.429633
-0.332349
-0.247507
-0.171841
-0.107585
-0.0539758
-0.0094029
0.0276619
0.0585799
0.0845454
0.106561
0.125432
0.141782
0.156085
0.168708
0.179947
0.19005
0.199127
0.207013
0.213992
0.223931
0.24204
0.231178
-0.50947
-0.420157
-0.305139
-0.209433
-0.128498
-0.0619695
-0.0080826
0.0354498
0.0707109
0.0994517
0.123114
0.142848
0.159538
0.173848
0.186275
0.197197
0.206916
0.215688
0.223681
0.230854
0.237147
0.244495
0.258453
0.268076
-0.502384
-0.403033
-0.269943
-0.16386
-0.0792667
-0.0120161
0.0409011
0.082447
0.115206
0.141266
0.162266
0.179454
0.193752
0.205826
0.216156
0.225086
0.232868
0.239695
0.245703
0.250773
0.254235
0.256512
0.26604
0.299223
-0.489933
-0.37347
-0.224492
-0.109921
-0.0236429
0.0426046
0.0931919
0.13175
0.16129
0.184171
0.202172
0.216595
0.228364
0.238121
0.246313
0.253254
0.25916
0.264204
0.268444
0.271486
0.272727
0.275565
0.292753
0.313735
-0.468741
-0.326397
-0.166312
-0.0467333
0.0388512
0.102111
0.148869
0.183375
0.208961
0.228176
0.242875
0.254363
0.26353
0.270977
0.277112
0.282218
0.2865
0.290128
0.29311
0.294951
0.295458
0.299931
0.320948
0.331586
-0.438296
-0.257552
-0.0926203
0.0266632
0.108507
0.166489
0.207783
0.237128
0.258028
0.273123
0.28426
0.292686
0.299222
0.304404
0.308591
0.312026
0.314894
0.317342
0.31933
0.320304
0.320307
0.325437
0.347786
0.353024
-0.402293
-0.160464
0.000478228
0.111277
0.185244
0.235358
0.26948
0.292555
0.308116
0.318692
0.326054
0.331335
0.335241
0.338221
0.340566
0.342471
0.344082
0.345512
0.346668
0.34694
0.346463
0.351686
0.374353
0.376695
-0.348179
-0.0189362
0.117786
0.207812
0.268412
0.307808
0.333104
0.348973
0.358628
0.364391
0.367848
0.369956
0.371267
0.372119
0.372723
0.373212
0.373683
0.374201
0.374615
0.37426
0.373308
0.378327
0.400653
0.40116
-0.173695
0.180557
0.258129
0.314421
0.356074
0.382193
0.397391
0.405373
0.408795
0.409613
0.409143
0.408117
0.406905
0.40572
0.404681
0.403854
0.403273
0.40295
0.402676
0.401741
0.400336
0.405002
0.426548
0.42584
1.44739
1.47937
1.50847
1.54163
1.53717
1.48507
1.44743
1.47429
1.49604
1.51555
1.46765
1.36245
1.44743
1.46776
1.47928
1.48588
1.42466
1.29767
1.4472
1.46258
1.46514
1.45936
1.39291
1.27057
1.44657
1.45891
1.45383
1.43814
1.37087
1.26048
1.4454
1.45553
1.44439
1.42139
1.35561
1.25756
1.44359
1.45153
1.43593
1.40785
1.34474
1.25791
1.44118
1.44659
1.42798
1.39664
1.33671
1.25954
1.43829
1.44079
1.42042
1.38719
1.33049
1.261
1.43508
1.43444
1.41336
1.37917
1.32545
1.262
1.43174
1.42796
1.40698
1.3724
1.32116
1.26226
1.4284
1.42174
1.40146
1.3668
1.31739
1.26163
1.42521
1.4161
1.39693
1.36232
1.31399
1.26012
1.42224
1.41126
1.39344
1.35894
1.31094
1.25785
1.41953
1.40736
1.39099
1.35665
1.30835
1.25515
1.4171
1.40446
1.38954
1.35546
1.30638
1.25254
1.41495
1.40253
1.38895
1.35539
1.30521
1.2507
1.41308
1.40143
1.389
1.35645
1.30504
1.25064
1.41154
1.40088
1.38942
1.35861
1.30614
1.25396
1.41041
1.40041
1.3898
1.36159
1.30891
1.26431
1.40963
1.39924
1.38947
1.36462
1.3139
1.29034
1.40902
1.39657
1.38773
1.36718
1.32153
1.34527
1.40842
1.39258
1.3851
1.37173
1.33185
1.42993
1.40794
1.38984
1.38459
1.38217
1.34328
1.50122
0.325136
0.387926
0.402154
0.424326
0.444505
0.456074
0.460663
0.460581
0.457751
0.453688
0.449394
0.445348
0.441731
0.438624
0.436052
0.434006
0.432459
0.431362
0.430452
0.42899
0.427184
0.431418
0.451843
0.450311
0.635373
0.558046
0.532318
0.528774
0.529174
0.526828
0.521238
0.513431
0.504639
0.495953
0.488057
0.481182
0.475324
0.470435
0.466453
0.463294
0.460866
0.459063
0.457572
0.455643
0.453502
0.45727
0.476318
0.474251
0.815705
0.700907
0.646965
0.622905
0.606948
0.592459
0.577756
0.562939
0.548711
0.53581
0.524636
0.515185
0.507287
0.500785
0.495532
0.491374
0.488159
0.485722
0.483712
0.481384
0.478984
0.482279
0.499763
0.497395
0.92355
0.8103
0.743028
0.704458
0.676115
0.651725
0.629274
0.608369
0.589376
0.572772
0.558708
0.546978
0.537274
0.529346
0.522974
0.517943
0.514039
0.511048
0.508584
0.505932
0.503354
0.506181
0.521967
0.519492
1.00129
0.894761
0.821669
0.773636
0.736175
0.70402
0.675239
0.649241
0.626219
0.606469
0.589939
0.576249
0.564991
0.555839
0.548512
0.542738
0.538251
0.534787
0.531942
0.529041
0.526358
0.528726
0.542725
0.540296
1.05937
0.960058
0.885112
0.831192
0.787221
0.749185
0.715409
0.685295
0.658981
0.636649
0.618079
0.602759
0.590204
0.580035
0.571921
0.565541
0.560578
0.556725
0.553569
0.55049
0.547767
0.549682
0.561845
0.55957
1.10213
1.00992
0.935507
0.878142
0.829703
0.787368
0.749773
0.716443
0.687535
0.663158
0.642961
0.626331
0.612735
0.601756
0.593024
0.586172
0.580837
0.576677
0.573277
0.570083
0.567367
0.568832
0.579152
0.577102
1.13301
1.04746
0.974791
0.915615
0.864258
0.818896
0.778479
0.742726
0.711855
0.685924
0.664483
0.646846
0.632455
0.620867
0.61168
0.604485
0.598878
0.594483
0.590898
0.587641
0.584967
0.58599
0.594497
0.592709
1.15499
1.07522
1.00464
0.944713
0.891578
0.844183
0.801764
0.764264
0.731981
0.704936
0.682596
0.664233
0.649279
0.637273
0.627783
0.620365
0.614573
0.610008
0.606289
0.603009
0.600401
0.601
0.60777
0.606248
1.16987
1.09498
1.02643
0.966424
0.912331
0.863663
0.819901
0.781222
0.748
0.720222
0.697292
0.678461
0.663157
0.650908
0.641257
0.633721
0.627818
0.623138
0.619327
0.616057
0.613536
0.613758
0.618914
0.617578
1.17903
1.10806
1.04126
0.981582
0.927115
0.877744
0.833168
0.793781
0.760021
0.731842
0.708595
0.689528
0.674069
0.661736
0.652047
0.644483
0.638534
0.633784
0.629914
0.626675
0.624256
0.624169
0.627838
0.626457
1.18344
1.11542
1.04997
0.990845
0.936425
0.886782
0.841818
0.802116
0.768162
0.739869
0.716551
0.697457
0.682018
0.669743
0.660123
0.652606
0.646661
0.641876
0.637974
0.634772
0.632436
0.632047
0.634401
0.633093
1.18367
1.11772
1.05317
0.99471
0.940646
0.891066
0.846069
0.806388
0.772538
0.744387
0.72122
0.702289
0.687029
0.674937
0.665479
0.658074
0.652177
0.647394
0.643488
0.640332
0.638045
0.637336
0.638619
0.637641
1.17997
1.11533
1.05126
0.993545
0.940065
0.890824
0.8461
0.806737
0.773256
0.745481
0.722671
0.70408
0.689144
0.677349
0.668135
0.660899
0.655098
0.65036
0.646495
0.643414
0.641162
0.640144
0.640626
0.640111
1.17236
1.1084
1.04442
0.987572
0.934867
0.886216
0.842047
0.803279
0.770419
0.743242
0.720984
0.702898
0.688421
0.677025
0.668128
0.661116
0.655455
0.650805
0.647009
0.644017
0.641856
0.640694
0.640557
0.640276
1.16063
1.09688
1.03264
0.976849
0.925125
0.877332
0.834005
0.796112
0.764123
0.737764
0.716248
0.698827
0.684934
0.674029
0.665517
0.65878
0.653305
0.648786
0.645099
0.642213
0.640138
0.638904
0.638459
0.638352
1.14424
1.08048
1.01565
0.961259
0.910801
0.864191
0.822033
0.785315
0.754462
0.729148
0.708565
0.691964
0.678774
0.668448
0.660382
0.65397
0.648729
0.644386
0.640841
0.638076
0.636085
0.634865
0.634367
0.634349
1.12225
1.05863
0.99295
0.940525
0.891765
0.846771
0.806172
0.77097
0.74154
0.71751
0.698053
0.682423
0.670051
0.660386
0.652827
0.646791
0.641829
0.637704
0.634333
0.631696
0.62979
0.628671
0.628364
0.628315
1.09324
1.0304
0.963888
0.914246
0.86784
0.825032
0.786468
0.753174
0.725483
0.702987
0.684854
0.670345
0.6589
0.649973
0.64298
0.637367
0.63273
0.628862
0.625693
0.623191
0.621373
0.620437
0.620566
0.620399
1.0547
0.994246
0.927571
0.88193
0.83882
0.798949
0.762998
0.73206
0.706452
0.685753
0.66914
0.655896
0.645481
0.637365
0.630991
0.625848
0.621578
0.618004
0.615061
0.612701
0.61097
0.610295
0.611086
0.610712
1.00299
0.947494
0.882754
0.843046
0.804552
0.768566
0.735906
0.707819
0.684658
0.666021
0.651117
0.639273
0.62998
0.62274
0.617035
0.612405
0.608539
0.60529
0.602595
0.600381
0.598736
0.598389
0.600046
0.599381
0.933031
0.88572
0.827961
0.797157
0.76507
0.734088
0.705458
0.680733
0.660379
0.644055
0.631032
0.620704
0.612611
0.6063
0.601307
0.597227
0.593795
0.590896
0.588466
0.586401
0.584841
0.584884
0.58759
0.586556
0.830915
0.802657
0.761802
0.744287
0.7208
0.695981
0.6721
0.651211
0.633982
0.620181
0.609173
0.600447
0.59361
0.588269
0.584019
0.580513
0.577539
0.575009
0.572855
0.570944
0.569477
0.569976
0.573905
0.572405
0.651124
0.690807
0.684703
0.685604
0.672773
0.65505
0.63649
0.619806
0.605932
0.594788
0.585871
0.57879
0.573236
0.568883
0.565392
0.562476
0.559972
0.557821
0.555953
0.554202
0.552836
0.553853
0.559168
0.557069
)
;

boundaryField
{
    rotor
    {
        type            zeroGradient;
    }
    freestream
    {
        type            freestreamPressure;
        freestreamValue uniform 0;
        supersonic      false;
        value           nonuniform List<scalar> 
96
(
0.503059
0.478207
0.452279
0.425329
0.397997
0.370646
0.343554
0.316974
0.291132
0.266234
0.242473
0.220064
0.199319
0.180891
0.166118
0.153547
0.128182
0.107224
0.0901254
0.0753297
0.0622875
0.0507937
0.0407281
0.0320003
0.0245343
0.0182532
0.0130963
0.00902445
0.00599127
0.00386096
0.00241888
0.00152268
0.00120076
0.000442566
0.00013283
-7.86736e-05
-0.000177195
0.000184834
0.000436193
4.03861e-06
0.000201105
-0.000312108
-0.000251228
-0.000262068
-0.000867437
-0.00175057
-0.00252062
-0.00310556
-0.00349712
-0.00353805
-0.00317805
-0.00231738
-0.00085245
0.00134927
0.00445528
0.00863224
0.0140528
0.0209065
0.0294144
0.0397999
0.0522904
0.067144
0.0847297
0.105789
0.131018
0.155501
0.173582
0.194906
0.219589
0.246951
0.276084
0.306498
0.337747
0.369412
0.401083
0.432339
0.462743
0.491857
0.519251
0.544523
0.567314
0.587278
0.603986
0.617465
0.627726
0.634674
0.638008
0.637893
0.634327
0.627378
0.617246
0.60412
0.588229
0.569848
0.54928
0.526818
)
;
    }
    frontAndBack
    {
        type            empty;
    }
}


// ************************************************************************* //
