/*--------------------------------*- C++ -*----------------------------------*\
  =========                 |
  \\      /  F ield         | OpenFOAM: The Open Source CFD Toolbox
   \\    /   O peration     | Website:  https://openfoam.org
    \\  /    A nd           | Version:  11
     \\/     M anipulation  |
\*---------------------------------------------------------------------------*/
FoamFile
{
    format      ascii;
    class       surfaceVectorField;
    location    "1.08";
    object      Uf;
}
// * * * * * * * * * * * * * * * * * * * * * * * * * * * * * * * * * * * * * //

dimensions      [0 1 -1 0 0 0 0];

internalField   nonuniform List<vector> 
5640
(
(-0.0821355 -0.0894787 -1.24964e-19)
(-0.0569422 -0.0558498 0)
(-0.102992 -0.118894 -1.38258e-19)
(-0.091602 -0.104434 -6.39478e-20)
(-0.112894 -0.141017 1.03013e-20)
(-0.0877703 -0.120609 0)
(-0.0798812 -0.194263 3.38209e-20)
(-0.0267708 -0.10703 4.38634e-21)
(0.211606 -0.239443 9.67187e-20)
(0.00783167 -0.226814 2.352e-20)
(0.643533 -0.0359772 6.66431e-21)
(0.808165 -0.29096 1.13199e-19)
(-0.0775767 -0.0729337 5.91482e-20)
(-0.0653029 -0.042738 0)
(-0.0661012 -0.0962738 6.54405e-20)
(-0.0633024 -0.0848199 5.96957e-20)
(-0.0237772 -0.0976153 -1.01031e-20)
(-0.0215392 -0.0883916 -3.23722e-20)
(0.10136 -0.122626 -1.07495e-20)
(0.0942573 -0.0621578 -8.87005e-21)
(0.40246 -0.1416 2.61005e-20)
(0.301984 -0.156853 0)
(0.794222 -0.114616 1.35158e-19)
(0.854512 -0.228434 3.11855e-20)
(-0.0584729 -0.0552808 -2.89648e-21)
(-0.0660163 -0.0294332 -5.42074e-21)
(-0.0135778 -0.0717249 -3.73769e-20)
(-0.0265561 -0.0644098 -1.80185e-21)
(0.0820461 -0.0643503 -2.29853e-20)
(0.054258 -0.0601722 3.51621e-21)
(0.298314 -0.0789019 1.63076e-21)
(0.222166 -0.0362922 -8.13715e-22)
(0.607662 -0.135693 -2.33863e-20)
(0.509652 -0.110681 1.35703e-21)
(0.892541 -0.151188 4.32306e-20)
(0.934091 -0.236541 -7.55226e-20)
(-0.0393645 -0.0409008 -1.14854e-21)
(-0.0610542 -0.0155117 -1.2988e-19)
(0.0412979 -0.0510303 3.6428e-20)
(0.0124934 -0.046833 9.15077e-21)
(0.180818 -0.041988 2.61812e-20)
(0.1299 -0.03711 8.12319e-20)
(0.437141 -0.0600932 -1.14831e-21)
(0.335404 -0.0217298 -9.84607e-22)
(0.749019 -0.139535 -2.30985e-20)
(0.645028 -0.0926127 -2.66432e-21)
(0.961586 -0.167643 -2.26525e-21)
(1.00816 -0.239001 1.0668e-19)
(-0.0164277 -0.024251 -1.20383e-19)
(-0.0460116 0.00410605 6.56679e-21)
(0.0982814 -0.0315935 5.20807e-20)
(0.0527923 -0.0314307 -5.30147e-20)
(0.270067 -0.0256319 3.88523e-20)
(0.19962 -0.0193861 4.26673e-20)
(0.540938 -0.0507599 2.09708e-21)
(0.428224 -0.015202 3.66027e-20)
(0.836028 -0.135753 -1.55151e-20)
(0.737012 -0.0865744 -7.69386e-22)
(1.00321 -0.176011 -1.16773e-20)
(1.04622 -0.23261 -1.10343e-20)
(0.0135159 -0.00397211 7.86142e-20)
(-0.0270411 0.0231662 1.32266e-19)
(0.150213 -0.0167155 -6.27675e-20)
(0.0901838 -0.0174383 -1.27496e-22)
(0.345001 -0.0153177 3.80102e-20)
(0.260238 -0.00742826 -4.84424e-20)
(0.618155 -0.0482138 3.85221e-20)
(0.501289 -0.0142082 -3.48379e-21)
(0.891176 -0.133589 3.32993e-21)
(0.799038 -0.0867057 -3.3447e-20)
(1.02646 -0.179722 -1.12e-20)
(1.06625 -0.225358 3.11307e-21)
(0.0390675 0.00856346 5.89842e-20)
(-0.0118416 0.034807 7.54741e-21)
(0.19522 -0.00587902 1.75804e-20)
(0.123338 -0.00636195 -1.73748e-20)
(0.40518 -0.0103875 -8.71755e-20)
(0.310474 -0.00105536 -5.11659e-20)
(0.674393 -0.0501121 -7.62392e-20)
(0.556951 -0.0171331 -3.93917e-20)
(0.925407 -0.134268 -4.85102e-20)
(0.839038 -0.0907233 9.78901e-21)
(1.03725 -0.181812 -5.57238e-20)
(1.07595 -0.21925 -6.66205e-20)
(0.0610724 0.0172455 -7.1519e-20)
(0.000925176 0.0406484 3.8582e-21)
(0.232637 0.00087643 -8.63309e-20)
(0.151431 0.00144014 -8.12998e-21)
(0.451854 -0.0101952 -1.40759e-21)
(0.350551 0.000577196 -3.49291e-21)
(0.713735 -0.0552055 4.42339e-20)
(0.597597 -0.0232433 -5.27967e-20)
(0.944533 -0.137569 3.66021e-21)
(0.862619 -0.097255 1.09633e-19)
(1.0397 -0.183681 -1.11036e-20)
(1.07827 -0.215673 -5.19228e-20)
(0.0795492 0.0219902 6.59157e-20)
(0.0118673 0.0420512 2.03978e-21)
(0.262591 0.0038579 7.2928e-20)
(0.174275 0.00594416 6.73996e-20)
(0.486646 -0.0137782 -5.0844e-20)
(0.381261 -0.0015675 0)
(0.739339 -0.0626418 8.29557e-21)
(0.62549 -0.0321298 -5.99781e-20)
(0.95291 -0.142182 9.62021e-20)
(0.874196 -0.105711 8.08005e-21)
(1.0364 -0.186648 3.29293e-20)
(1.07571 -0.21369 3.84015e-20)
(0.0947111 0.0233204 -1.94684e-21)
(0.0211956 0.0400682 -1.5069e-19)
(0.285526 0.00346269 -2.66031e-21)
(0.191995 0.00737257 -8.75637e-20)
(0.511092 -0.0203243 -7.15505e-21)
(0.403476 -0.00676835 -7.73311e-20)
(0.753771 -0.0723043 -6.15284e-20)
(0.642614 -0.0433495 5.83126e-20)
(0.953295 -0.149102 -5.68006e-20)
(0.876559 -0.115982 -4.72641e-20)
(1.02848 -0.192036 5.21309e-20)
(1.06918 -0.21504 6.50791e-20)
(0.106683 0.0218281 -2.41649e-19)
(0.0289259 0.0355307 8.45263e-20)
(0.301993 0.000152711 -1.6267e-19)
(0.204879 0.00611048 -3.84743e-21)
(0.526546 -0.0293213 -1.64738e-20)
(0.418045 -0.0144451 -1.20347e-21)
(0.75922 -0.0840404 7.55075e-20)
(0.65067 -0.0564635 7.52404e-20)
(0.947672 -0.15806 5.86706e-20)
(0.871866 -0.128042 8.53981e-21)
(1.01714 -0.199799 -1.4318e-20)
(1.05962 -0.219578 -4.55156e-21)
(0.115579 0.0180923 3.2581e-19)
(0.0350037 0.0291429 1.53312e-19)
(0.312586 -0.00555113 1.57385e-19)
(0.213294 0.00264293 8.25808e-20)
(0.534221 -0.0402954 8.78283e-20)
(0.425771 -0.0240678 1.18587e-19)
(0.757439 -0.0975079 1.08039e-20)
(0.651103 -0.0710263 9.5512e-21)
(0.937465 -0.169088 -6.5162e-20)
(0.861614 -0.14179 -3.63339e-20)
(1.00314 -0.209983 -6.64405e-20)
(1.04799 -0.227047 -1.02363e-19)
(0.121525 0.01269 -8.62603e-20)
(0.0393769 0.0215744 -8.45006e-20)
(0.317882 -0.0131086 4.22512e-20)
(0.217618 -0.00247395 -1.69487e-21)
(0.535114 -0.0527882 4.39941e-20)
(0.427381 -0.0351207 -2.4522e-21)
(0.749642 -0.112411 -3.5639e-20)
(0.645024 -0.0866706 -1.58592e-20)
(0.923585 -0.182175 -3.75461e-20)
(0.846724 -0.157287 2.2929e-20)
(0.986926 -0.222737 -4.01874e-21)
(1.03484 -0.237324 1.63686e-22)
(0.124667 0.00624075 -4.34688e-21)
(0.0420308 0.0135631 -1.31307e-21)
(0.318405 -0.0219406 -4.65285e-20)
(0.218196 -0.00861191 -3.13917e-21)
(0.530024 -0.0664081 -6.21907e-20)
(0.423479 -0.0470303 -7.05341e-20)
(0.736575 -0.128772 4.1637e-20)
(0.63314 -0.103089 7.13886e-21)
(0.906489 -0.197459 5.67745e-20)
(0.827789 -0.174369 4.10082e-20)
(0.968657 -0.23812 -4.01874e-21)
(1.02039 -0.250576 2.45374e-20)
(0.125146 -0.000514878 0)
(0.0429939 0.00601112 1.17314e-20)
(0.314586 -0.0314088 -2.45096e-20)
(0.215297 -0.015035 7.69005e-21)
(0.519583 -0.0806599 -4.55994e-21)
(0.41454 -0.0591303 2.09843e-21)
(0.718886 -0.146012 5.55957e-21)
(0.616025 -0.11986 2.83154e-20)
(0.886396 -0.214641 -1.89872e-20)
(0.805042 -0.192465 -1.60924e-20)
(0.948272 -0.256001 2.04001e-21)
(1.00464 -0.266599 1.5907e-20)
(0.123064 -0.00696455 1.96546e-20)
(0.0422555 3.08511e-05 9.73261e-23)
(0.306764 -0.0406731 3.449e-20)
(0.209146 -0.0208596 1.49555e-20)
(0.504193 -0.0948361 3.37769e-20)
(0.400892 -0.0706484 2.16272e-20)
(0.696799 -0.163722 7.90843e-21)
(0.593967 -0.136344 3.68364e-22)
(0.863316 -0.233335 4.64023e-21)
(0.778392 -0.21124 -1.17306e-20)
(0.925364 -0.276242 9.67993e-21)
(0.987553 -0.285274 -1.3516e-20)
(0.118565 -0.0114336 -5.43871e-21)
(0.0399033 -0.00307502 -1.00618e-20)
(0.295063 -0.0488511 1.82825e-21)
(0.19967 -0.0250189 -3.78125e-20)
(0.484054 -0.108259 -1.10753e-20)
(0.382665 -0.0807071 -6.00898e-21)
(0.670242 -0.181375 -1.88899e-20)
(0.566986 -0.151845 -4.98728e-21)
(0.836785 -0.253493 -7.04246e-21)
(0.747328 -0.230595 1.40892e-20)
(0.899289 -0.298707 1.15613e-23)
(0.968752 -0.306585 8.90953e-21)
(0.111557 -0.0131728 -4.06176e-20)
(0.0358842 -0.00190029 1.53687e-21)
(0.279418 -0.0548593 -4.69821e-20)
(0.186685 -0.0263356 -7.67777e-20)
(0.459107 -0.120081 0)
(0.359757 -0.0883164 0)
(0.638807 -0.198558 2.74231e-20)
(0.53477 -0.165751 -5.45362e-21)
(0.806086 -0.274932 2.14803e-20)
(0.711109 -0.25022 1.41259e-20)
(0.86905 -0.323297 -7.59223e-21)
(0.947738 -0.3306 -8.85391e-21)
(0.101892 -0.0107603 -2.99849e-20)
(0.0301606 0.00473253 3.23711e-21)
(0.259498 -0.057572 -3.31748e-20)
(0.169761 -0.023658 3.07437e-20)
(0.429009 -0.129433 -5.26937e-21)
(0.331814 -0.0924533 0)
(0.601807 -0.214838 -1.92417e-20)
(0.496756 -0.177624 -5.25016e-20)
(0.770109 -0.297246 -1.42983e-20)
(0.668774 -0.269323 -5.18989e-20)
(0.833126 -0.350409 0)
(0.92379 -0.357593 0)
(0.0891748 -0.00320427 6.24828e-20)
(0.0228896 0.0170288 -8.49402e-20)
(0.234745 -0.0559867 6.46691e-20)
(0.148333 -0.0160376 5.79359e-20)
(0.393064 -0.135555 -4.54585e-20)
(0.298262 -0.0922209 -7.25526e-21)
(0.558289 -0.229622 -8.52388e-20)
(0.452242 -0.186915 8.39783e-21)
(0.727214 -0.320163 -3.88448e-20)
(0.619009 -0.286942 -3.74495e-20)
(0.789415 -0.38093 0)
(0.895802 -0.388225 0)
(0.0732021 0.00927276 -9.6003e-20)
(0.0156926 0.030506 -1.777e-19)
(0.204738 -0.0493145 -1.12143e-20)
(0.121958 -0.00276205 -4.09355e-21)
(0.350584 -0.137599 4.35805e-20)
(0.258401 -0.0867238 -1.3748e-19)
(0.507213 -0.242049 5.49409e-20)
(0.400376 -0.192699 1.67292e-19)
(0.67541 -0.343625 -1.0093e-21)
(0.560064 -0.302225 4.14695e-20)
(0.735113 -0.415671 -4.67166e-20)
(0.862593 -0.423263 6.81768e-21)
(0.0573477 0.0226565 -9.54944e-20)
(0.00979302 0.0426351 1.05927e-19)
(0.169741 -0.0364864 -1.24683e-19)
(0.0912895 0.0169612 0)
(0.301623 -0.134041 -2.5522e-20)
(0.211228 -0.0742576 1.53197e-19)
(0.448126 -0.250707 1.5601e-19)
(0.339972 -0.193477 2.39777e-21)
(0.613771 -0.366549 -3.53307e-21)
(0.489648 -0.31339 1.41704e-19)
(0.666997 -0.459272 -5.30723e-20)
(0.825525 -0.463989 -1.00503e-19)
(0.0387818 0.0422447 2.08982e-19)
(0.00659311 0.0549497 2.01031e-19)
(0.129928 -0.0152212 2.78834e-19)
(0.0555413 0.0454015 -1.87976e-19)
(0.24671 -0.121268 1.83335e-19)
(0.153442 -0.0481339 1.72699e-19)
(0.380726 -0.251081 -2.7459e-20)
(0.267883 -0.182869 -1.39436e-19)
(0.537233 -0.391891 1.03354e-19)
(0.40071 -0.314296 1.2534e-19)
(0.578757 -0.51837 9.07478e-20)
(0.783051 -0.520126 3.78472e-22)
(0.0196679 0.0672962 -1.73484e-19)
(0.0812502 0.0218468 -3.31206e-19)
(0.17618 -0.0903992 -1.52403e-19)
(0.293846 -0.225939 -3.6406e-20)
(0.436747 -0.412787 2.83622e-20)
(0.728816 -0.585819 3.60921e-20)
(0.858284 -0.586072 -1.63362e-19)
(0.884495 -0.555583 1.6384e-19)
(0.714096 -0.700249 4.12899e-19)
(0.911342 -0.49432 -3.05587e-19)
(0.963825 -0.51915 -2.00924e-19)
(0.856123 -0.532462 -2.05648e-19)
(0.934173 -0.409729 8.81934e-20)
(0.958934 -0.443423 7.477e-20)
(0.890009 -0.44411 4.16525e-20)
(0.948906 -0.344256 -1.05986e-20)
(0.967358 -0.370597 -2.37472e-20)
(0.91858 -0.366629 -1.08996e-19)
(0.961708 -0.296128 -6.37851e-20)
(0.974516 -0.317655 1.33122e-19)
(0.936946 -0.311754 -1.35267e-19)
(0.973408 -0.259636 1.01603e-19)
(0.983235 -0.277645 0)
(0.952673 -0.270833 -4.02756e-21)
(0.983849 -0.230623 1.95569e-19)
(0.991883 -0.246258 -4.40236e-22)
(0.966115 -0.239033 -7.02139e-20)
(0.992902 -0.20654 1.76638e-19)
(0.999845 -0.220476 -2.23419e-22)
(0.977636 -0.213115 1.95349e-19)
(1.00056 -0.185845 8.50815e-20)
(1.00679 -0.198515 -1.349e-22)
(0.987369 -0.19119 8.41452e-20)
(1.00687 -0.167579 1.45004e-19)
(1.01264 -0.179245 7.38159e-20)
(0.995497 -0.172068 0)
(1.01194 -0.151116 7.71519e-20)
(1.01736 -0.161973 7.38787e-20)
(1.00216 -0.155021 2.25689e-19)
(1.01583 -0.136007 -6.07438e-21)
(1.02099 -0.146207 -7.33453e-20)
(1.00747 -0.139544 -7.15552e-20)
(1.0186 -0.12191 2.5536e-19)
(1.02355 -0.131569 2.89234e-21)
(1.01155 -0.125246 -2.20109e-21)
(1.02031 -0.108567 1.29003e-19)
(1.02509 -0.117765 1.87019e-19)
(1.01447 -0.111821 2.56146e-19)
(1.02102 -0.0958098 -6.33161e-20)
(1.02564 -0.104586 -5.40941e-21)
(1.01631 -0.0990524 -6.28171e-20)
(1.02081 -0.0835574 5.58209e-20)
(1.02527 -0.0919124 -2.83219e-19)
(1.01714 -0.0868181 6.24985e-20)
(1.0198 -0.0717944 5.66552e-20)
(1.02405 -0.0797063 1.10309e-19)
(1.01709 -0.0750814 -4.13001e-21)
(1.01807 -0.0605319 -5.22779e-20)
(1.02208 -0.0679828 0)
(1.01624 -0.0638568 0)
(1.01569 -0.049767 -5.29948e-20)
(1.01944 -0.0567498 -1.03007e-19)
(1.0147 -0.0531489 -5.26437e-20)
(1.01272 -0.0394553 9.96796e-20)
(1.0163 -0.0459324 1.48762e-19)
(1.01261 -0.0428883 -5.44548e-20)
(1.00917 -0.0295155 2.57949e-21)
(1.01275 -0.0354122 1.00323e-19)
(1.01009 -0.0329688 1.52953e-19)
(1.00507 -0.0199194 -9.78463e-20)
(1.00818 -0.025493 -5.12098e-20)
(1.00657 -0.0236095 -9.7267e-20)
(1.0008 -0.011279 -2.01256e-19)
(1.00068 -0.0174378 0)
(1.00056 -0.0157266 0)
(0.992926 -0.0117354 3.19335e-20)
(0.993874 -0.00937009 -3.41624e-20)
(0.9926 -0.507027 1.12369e-19)
(0.995039 -0.462612 -5.70629e-20)
(0.994312 -0.475059 1.71082e-19)
(1.03762 -0.48008 -2.36301e-20)
(0.990404 -0.404934 -3.52553e-20)
(1.01797 -0.427588 6.19149e-20)
(0.990955 -0.345322 1.24808e-19)
(1.01153 -0.365845 -7.02957e-20)
(0.995134 -0.299847 1.97438e-19)
(1.00947 -0.317848 8.31621e-20)
(1.00118 -0.264716 -1.01545e-19)
(1.0122 -0.280359 0)
(1.0076 -0.2364 -1.95407e-19)
(1.01664 -0.250333 -1.3011e-20)
(1.01359 -0.212648 -1.76437e-19)
(1.02141 -0.225297 -1.0645e-20)
(1.01878 -0.192066 -1.19884e-20)
(1.02583 -0.203728 -8.40477e-20)
(1.02305 -0.173771 2.83169e-21)
(1.02958 -0.184633 -6.99878e-20)
(1.02635 -0.157179 -7.48736e-20)
(1.0325 -0.167396 -7.25105e-20)
(1.02868 -0.141867 -6.49728e-20)
(1.03454 -0.151562 6.06194e-20)
(1.03002 -0.127509 -6.69653e-20)
(1.03567 -0.136779 -2.44912e-19)
(1.03041 -0.113861 5.44936e-20)
(1.03588 -0.122772 5.47059e-20)
(1.02988 -0.100761 -2.22988e-19)
(1.03519 -0.109346 5.75037e-20)
(1.02849 -0.0881311 -2.31602e-19)
(1.03362 -0.0963859 -2.80859e-19)
(1.02633 -0.0759531 5.45476e-20)
(1.03126 -0.0838527 5.41549e-20)
(1.02348 -0.0642393 -5.01026e-20)
(1.02815 -0.0717615 -4.99778e-20)
(1.02001 -0.0529928 9.71865e-20)
(1.0244 -0.060123 -5.04532e-20)
(1.01594 -0.0421779 1.49716e-19)
(1.02015 -0.0488552 2.9091e-19)
(1.0113 -0.0317157 4.57728e-20)
(1.01554 -0.0378218 -3.70858e-19)
(1.00608 -0.0215646 4.63315e-20)
(1.0099 -0.0274197 1.79907e-19)
(1.00102 -0.0127023 2.33225e-19)
(1.00097 -0.0193571 -1.74823e-19)
(0.992137 -0.0144391 3.54716e-19)
(1.05996 -0.439817 -1.93864e-19)
(1.06301 -0.397353 5.08164e-20)
(1.05459 -0.441619 -1.02998e-19)
(1.0885 -0.437291 5.41717e-20)
(1.03761 -0.390574 2.93329e-20)
(1.06362 -0.404943 -8.18051e-20)
(1.02822 -0.34013 -1.0946e-19)
(1.04861 -0.355469 1.10212e-19)
(1.02576 -0.29919 -1.13013e-19)
(1.04042 -0.313888 -1.55702e-19)
(1.02721 -0.266497 8.87153e-20)
(1.03871 -0.27989 1.88412e-19)
(1.03022 -0.239553 1.7172e-19)
(1.03981 -0.251857 -4.33302e-20)
(1.03354 -0.216592 8.26192e-20)
(1.04192 -0.228004 -7.88921e-20)
(1.03655 -0.19646 -1.42053e-19)
(1.04417 -0.207144 7.29622e-20)
(1.03897 -0.178401 -1.45149e-19)
(1.04606 -0.18848 -7.36793e-20)
(1.04064 -0.161901 6.16758e-20)
(1.04736 -0.171487 1.26173e-19)
(1.04151 -0.146578 -1.16454e-19)
(1.04796 -0.155766 -6.07481e-20)
(1.04152 -0.132132 -1.25841e-19)
(1.04777 -0.141 -6.4995e-20)
(1.04065 -0.11834 5.77877e-20)
(1.04674 -0.126943 5.73097e-20)
(1.03893 -0.105049 2.25147e-21)
(1.04486 -0.113414 0)
(1.03638 -0.0921823 2.2867e-21)
(1.04216 -0.100303 1.0618e-19)
(1.03309 -0.0797219 -4.96154e-20)
(1.03867 -0.0875725 -1.00487e-19)
(1.02911 -0.0676799 -5.0325e-20)
(1.03445 -0.0752359 9.74328e-20)
(1.02452 -0.0560653 1.41301e-19)
(1.02959 -0.0633068 0)
(1.01934 -0.0448534 -2.29507e-19)
(1.02423 -0.0516963 1.4225e-19)
(1.01357 -0.0339774 -2.34125e-19)
(1.01853 -0.0402505 -3.70858e-19)
(1.00726 -0.0234037 -3.89306e-20)
(1.0118 -0.02948 1.34053e-19)
(1.00138 -0.0143029 -1.39877e-19)
(1.0015 -0.021621 -1.33447e-19)
(0.991398 -0.0174738 8.18392e-20)
(1.10188 -0.388878 3.18845e-19)
(1.10046 -0.348036 1.19663e-19)
(1.09533 -0.406628 1.00993e-19)
(1.1219 -0.396962 1.12084e-19)
(1.07411 -0.372049 -4.49692e-21)
(1.09707 -0.380868 5.41285e-20)
(1.05948 -0.331152 6.8184e-20)
(1.07843 -0.342491 -4.90148e-20)
(1.0528 -0.295503 1.41755e-19)
(1.067 -0.307446 1.06679e-19)
(1.05096 -0.265814 5.91047e-20)
(1.06241 -0.277258 -3.35092e-20)
(1.05133 -0.240652 -2.93072e-19)
(1.06107 -0.251511 -1.3307e-19)
(1.05246 -0.218783 -9.00742e-20)
(1.06112 -0.229083 -1.60353e-19)
(1.05362 -0.199341 1.42842e-19)
(1.06158 -0.209135 7.29622e-20)
(1.05442 -0.181717 1.95431e-19)
(1.06191 -0.191073 6.98456e-20)
(1.05465 -0.165479 5.68369e-21)
(1.06182 -0.174475 6.38591e-20)
(1.0542 -0.150298 -9.24049e-21)
(1.06113 -0.159002 -1.22937e-19)
(1.05299 -0.135907 1.16929e-19)
(1.05975 -0.144383 5.93764e-20)
(1.05096 -0.122105 0)
(1.05759 -0.130398 0)
(1.0481 -0.108752 1.03003e-19)
(1.05462 -0.116885 0)
(1.04445 -0.0957735 4.88965e-21)
(1.05085 -0.10374 4.9429e-21)
(1.04006 -0.0831508 4.5006e-20)
(1.04629 -0.090927 -5.37226e-20)
(1.03498 -0.0708961 1.48349e-19)
(1.041 -0.078457 9.99188e-20)
(1.02928 -0.0590252 0)
(1.03504 -0.0663455 9.00979e-20)
(1.02298 -0.0475279 0)
(1.02858 -0.054497 0)
(1.01611 -0.0363575 0)
(1.02178 -0.0427443 -1.69439e-19)
(1.0087 -0.0255013 4.11291e-20)
(1.01394 -0.0317288 2.05082e-19)
(1.00187 -0.0161144 3.75713e-21)
(1.00228 -0.0242297 -4.98618e-23)
(0.990719 -0.0208371 -1.27195e-19)
(1.12704 -0.349395 -9.23938e-20)
(1.12006 -0.312569 9.61395e-21)
(1.12247 -0.374731 6.35415e-20)
(1.142 -0.362096 -1.17552e-20)
(1.10147 -0.352909 1.17752e-20)
(1.12075 -0.357945 1.92779e-19)
(1.08506 -0.320553 -1.37302e-20)
(1.10191 -0.328979 -8.99666e-20)
(1.07622 -0.29009 -6.60684e-20)
(1.08943 -0.299888 1.96878e-19)
(1.07227 -0.263516 -2.24914e-19)
(1.08329 -0.273388 -1.39237e-19)
(1.07074 -0.240289 0)
(1.08035 -0.249953 1.12458e-19)
(1.07019 -0.219667 0)
(1.07889 -0.229025 -6.88279e-20)
(1.06984 -0.201051 0)
(1.07798 -0.21008 0)
(1.06929 -0.183987 -6.15768e-20)
(1.07704 -0.192713 -6.05649e-20)
(1.06828 -0.16813 -6.28366e-20)
(1.07578 -0.176601 -5.07852e-21)
(1.06668 -0.153202 -5.59341e-20)
(1.074 -0.161469 1.07602e-19)
(1.06436 -0.138975 -5.69531e-20)
(1.07157 -0.147087 -1.08611e-19)
(1.06127 -0.12527 0)
(1.0684 -0.133267 4.89339e-20)
(1.05738 -0.111962 -9.80278e-20)
(1.06445 -0.119864 0)
(1.0527 -0.0989788 -5.31517e-20)
(1.05968 -0.106783 -2.64206e-21)
(1.04726 -0.0863005 4.06183e-23)
(1.05412 -0.0939858 1.14574e-22)
(1.04112 -0.0739383 4.15167e-20)
(1.04781 -0.0814833 -2.25934e-19)
(1.03433 -0.0619131 9.06988e-20)
(1.04079 -0.0692903 1.75719e-19)
(1.02693 -0.0502285 -1.68352e-19)
(1.03324 -0.0573027 0)
(1.01892 -0.0388569 4.09231e-20)
(1.02534 -0.0453386 -1.69439e-19)
(1.01036 -0.0278027 1.65181e-19)
(1.01634 -0.0341653 1.26261e-19)
(1.00243 -0.0181879 -1.30047e-19)
(1.00335 -0.0271189 -4.13687e-20)
(0.990299 -0.0246048 -8.89515e-20)
(1.14006 -0.319317 8.79161e-20)
(1.12898 -0.287588 -5.33191e-20)
(1.13971 -0.347468 1.13199e-19)
(1.15258 -0.334066 1.81019e-21)
(1.12157 -0.335032 9.4671e-20)
(1.13703 -0.337532 2.57756e-20)
(1.10574 -0.309819 1.15845e-19)
(1.1202 -0.316277 -2.19881e-20)
(1.09627 -0.283998 1.26493e-19)
(1.10822 -0.292239 4.55148e-20)
(1.09121 -0.260354 1.95157e-19)
(1.10157 -0.269047 3.83729e-21)
(1.08844 -0.239022 4.561e-20)
(1.09772 -0.247766 1.82543e-19)
(1.08666 -0.21967 -6.96486e-20)
(1.09528 -0.228281 -1.33017e-19)
(1.08517 -0.201931 -5.98909e-20)
(1.09336 -0.210339 2.11188e-21)
(1.08352 -0.185486 -4.622e-21)
(1.09144 -0.193693 -1.74365e-19)
(1.08149 -0.170075 1.64254e-19)
(1.08923 -0.178104 5.68729e-20)
(1.0789 -0.155471 5.6936e-20)
(1.08654 -0.163359 1.05953e-19)
(1.07563 -0.141483 -4.10718e-21)
(1.08322 -0.149272 4.67863e-20)
(1.0716 -0.127956 4.9342e-20)
(1.07918 -0.135679 -9.48954e-20)
(1.06677 -0.114776 9.53442e-20)
(1.07434 -0.122456 -4.47058e-20)
(1.06113 -0.101878 5.05761e-20)
(1.06868 -0.109515 5.28554e-20)
(1.05471 -0.0892375 -2.24043e-19)
(1.0622 -0.0968176 -2.46254e-21)
(1.04756 -0.0768642 -9.4914e-20)
(1.05492 -0.0843716 -2.21356e-19)
(1.03971 -0.0647812 8.61925e-20)
(1.0469 -0.0721894 1.66653e-19)
(1.03121 -0.0530023 0)
(1.03828 -0.0601564 -2.35882e-19)
(1.02205 -0.041517 -7.82384e-20)
(1.02924 -0.0480712 -3.10093e-22)
(1.01228 -0.0303421 -7.91934e-20)
(1.01908 -0.0368136 7.23147e-20)
(1.00318 -0.0205448 0)
(1.00479 -0.0302817 0)
(0.990237 -0.0287893 1.10903e-19)
(1.14491 -0.297356 -1.44842e-19)
(1.13095 -0.270436 -5.91525e-20)
(1.14985 -0.32535 -8.81498e-20)
(1.15683 -0.313055 -8.63416e-20)
(1.13617 -0.319424 -9.07944e-20)
(1.14792 -0.320382 -2.20515e-20)
(1.12239 -0.299914 -9.40617e-20)
(1.13438 -0.30521 -1.52176e-19)
(1.11339 -0.278007 -7.76336e-20)
(1.12396 -0.285231 -7.36108e-20)
(1.108 -0.256943 -1.08192e-20)
(1.11756 -0.264834 -7.88313e-20)
(1.10454 -0.237337 7.35429e-21)
(1.1134 -0.245434 7.56226e-21)
(1.10197 -0.219177 -6.28681e-20)
(1.11039 -0.227246 -6.41893e-20)
(1.09963 -0.202289 -1.10445e-19)
(1.10779 -0.210235 6.0639e-20)
(1.09715 -0.186469 -1.15239e-19)
(1.10515 -0.194274 -1.67515e-19)
(1.09429 -0.171524 -1.85459e-21)
(1.10222 -0.1792 1.01439e-19)
(1.09088 -0.157278 9.64104e-20)
(1.09879 -0.164853 -5.00518e-20)
(1.0868 -0.143574 -4.26896e-20)
(1.09474 -0.151083 9.89398e-20)
(1.08195 -0.130277 -1.89309e-19)
(1.08994 -0.137755 -1.43777e-19)
(1.07628 -0.117288 -8.8023e-20)
(1.08433 -0.124758 4.21307e-20)
(1.06978 -0.104545 1.80568e-22)
(1.07787 -0.112014 -4.33061e-20)
(1.06246 -0.0920215 1.91661e-21)
(1.07056 -0.0994834 1.67417e-19)
(1.05434 -0.0797225 3.73342e-20)
(1.06239 -0.0871702 -1.2184e-19)
(1.04548 -0.0676699 -1.52914e-19)
(1.0534 -0.0750821 4.36478e-21)
(1.03588 -0.055884 -2.31873e-19)
(1.04373 -0.0630921 -2.35653e-19)
(1.02556 -0.0443673 1.5876e-19)
(1.03357 -0.0509747 3.68714e-20)
(1.01456 -0.0331459 1.51847e-19)
(1.02222 -0.039703 1.52823e-19)
(1.00419 -0.0232152 1.10266e-19)
(1.0067 -0.0337233 1.42099e-19)
(0.990624 -0.0333934 -1.58674e-19)
(1.14473 -0.282305 0)
(1.1284 -0.259519 0)
(1.15517 -0.308508 -2.15897e-20)
(1.15725 -0.298347 7.72112e-20)
(1.14662 -0.306632 -8.09791e-20)
(1.1549 -0.307099 5.48482e-20)
(1.13585 -0.291464 -1.33039e-19)
(1.14545 -0.296261 1.87263e-20)
(1.12809 -0.272685 -7.47292e-20)
(1.13728 -0.279378 3.53476e-20)
(1.12294 -0.253759 -6.16525e-20)
(1.13168 -0.261203 -3.19832e-20)
(1.11925 -0.235631 -6.33261e-20)
(1.12764 -0.24334 -1.13305e-22)
(1.11622 -0.218524 5.78104e-20)
(1.12441 -0.226246 0)
(1.11333 -0.202404 6.04213e-21)
(1.12141 -0.21004 5.19886e-21)
(1.11024 -0.187161 4.63925e-20)
(1.1183 -0.194682 -5.23855e-20)
(1.10675 -0.172664 5.47298e-20)
(1.11483 -0.180075 1.48062e-19)
(1.10268 -0.158777 -4.89034e-20)
(1.11084 -0.166102 -4.84543e-20)
(1.09791 -0.145371 0)
(1.10618 -0.152646 0)
(1.09236 -0.132334 8.60682e-20)
(1.10075 -0.139593 0)
(1.08596 -0.119578 8.74814e-20)
(1.09448 -0.126849 4.86547e-21)
(1.07869 -0.107043 1.22312e-19)
(1.08731 -0.114341 3.85158e-20)
(1.07054 -0.0947018 4.57668e-20)
(1.07924 -0.10203 1.60606e-19)
(1.06153 -0.0825518 -1.55686e-19)
(1.07025 -0.0899145 -7.90025e-20)
(1.05168 -0.0706112 -7.67857e-20)
(1.06036 -0.0779956 -7.66673e-20)
(1.04102 -0.0589017 4.01937e-20)
(1.04968 -0.066133 2.2898e-22)
(1.02954 -0.0474349 3.91936e-20)
(1.0384 -0.0540732 7.22928e-20)
(1.01727 -0.0362422 1.43057e-19)
(1.02587 -0.0428579 3.63761e-20)
(1.00556 -0.0262304 2.55964e-20)
(1.00915 -0.0374459 6.51793e-21)
(0.99155 -0.0384151 1.80694e-20)
(1.14158 -0.272732 7.53602e-20)
(1.12256 -0.253674 7.80495e-20)
(1.15735 -0.296752 1.54117e-19)
(1.15539 -0.289011 -1.96852e-20)
(1.15409 -0.297077 1.55842e-19)
(1.15919 -0.29789 1.83425e-20)
(1.14691 -0.284885 1.87729e-19)
(1.15435 -0.289713 1.47376e-19)
(1.14088 -0.268434 7.89157e-20)
(1.14878 -0.275015 1.09255e-19)
(1.13639 -0.251166 2.91851e-20)
(1.14434 -0.258472 -9.00267e-20)
(1.13283 -0.23422 6.3286e-20)
(1.14075 -0.241774 6.24833e-20)
(1.12963 -0.217973 -5.26736e-20)
(1.13758 -0.225532 -2.64505e-20)
(1.12641 -0.202496 -5.25656e-20)
(1.13442 -0.209964 -7.86421e-20)
(1.12292 -0.187749 4.72077e-20)
(1.13103 -0.195095 1.44151e-19)
(1.11896 -0.173648 4.68029e-20)
(1.12719 -0.180876 3.94878e-22)
(1.11437 -0.160091 0)
(1.12277 -0.167227 -1.15503e-21)
(1.10905 -0.146975 0)
(1.11763 -0.154055 -4.15545e-20)
(1.10291 -0.134207 -8.12063e-20)
(1.11168 -0.141269 3.97611e-20)
(1.09587 -0.121707 -4.43299e-20)
(1.10484 -0.128785 -4.21349e-20)
(1.08791 -0.109419 7.58849e-20)
(1.09706 -0.116538 5.1533e-23)
(1.07901 -0.097312 3.76313e-20)
(1.08831 -0.104486 -1.07543e-19)
(1.06917 -0.0853764 0)
(1.07857 -0.0926221 7.02042e-20)
(1.0584 -0.0736232 0)
(1.06784 -0.0809405 0)
(1.04671 -0.0620719 3.48326e-20)
(1.05621 -0.0692867 0)
(1.03408 -0.0507376 6.9573e-20)
(1.04383 -0.0573768 3.50574e-20)
(1.02051 -0.0396523 -1.00056e-19)
(1.03011 -0.0462914 3.45122e-20)
(1.00735 -0.029618 -1.27662e-20)
(1.01227 -0.0414411 -1.35581e-19)
(0.993111 -0.0438468 1.69114e-19)
(1.1364 -0.267953 -1.55382e-20)
(1.1146 -0.252401 1.67038e-22)
(1.15757 -0.289668 -1.5864e-19)
(1.15218 -0.284459 -4.17028e-20)
(1.15971 -0.290751 6.80263e-21)
(1.16197 -0.29257 -7.62017e-20)
(1.1563 -0.280384 6.95393e-20)
(1.16186 -0.285659 -4.79958e-20)
(1.15228 -0.265511 -5.71616e-20)
(1.15903 -0.272327 -1.43249e-20)
(1.14874 -0.249415 -5.88515e-20)
(1.15598 -0.256847 -1.62008e-22)
(1.14555 -0.233331 -2.61107e-20)
(1.15307 -0.240934 0)
(1.14241 -0.217724 -5.17826e-20)
(1.15016 -0.22528 -2.64505e-20)
(1.13907 -0.202734 1.15631e-19)
(1.14703 -0.210157 -3.05849e-21)
(1.13534 -0.188371 9.88477e-20)
(1.14351 -0.195636 1.87187e-19)
(1.13105 -0.174587 -4.7539e-20)
(1.13945 -0.181703 -1.30156e-19)
(1.12607 -0.161309 -4.23351e-20)
(1.13472 -0.168304 1.67283e-20)
(1.12031 -0.148456 -2.51199e-21)
(1.12921 -0.15537 -4.15545e-20)
(1.11367 -0.135946 7.94839e-20)
(1.12283 -0.142823 3.97611e-20)
(1.10608 -0.123711 1.91458e-21)
(1.11551 -0.130593 -1.42044e-20)
(1.09751 -0.111695 -1.82486e-19)
(1.10719 -0.118616 -3.42942e-21)
(1.08793 -0.0998637 -7.62802e-20)
(1.09783 -0.106852 -4.15462e-20)
(1.07733 -0.0882003 7.0692e-20)
(1.08741 -0.0952858 4.17929e-21)
(1.0657 -0.076706 0)
(1.07591 -0.0839044 0)
(1.05302 -0.0653941 0)
(1.06339 -0.0725402 0)
(1.03927 -0.0542782 0)
(1.04996 -0.0608769 0)
(1.02441 -0.0433852 0)
(1.03508 -0.0499985 6.1727e-20)
(1.00969 -0.0333971 -1.18179e-19)
(1.01616 -0.0456813 -7.48594e-20)
(0.995405 -0.0496705 -1.18862e-19)
(1.13002 -0.267478 -2.54922e-20)
(1.10535 -0.255253 -1.08209e-19)
(1.15678 -0.28681 4.13994e-20)
(1.14837 -0.284135 3.70851e-20)
(1.1643 -0.287556 -1.31977e-19)
(1.16414 -0.290868 3.98947e-20)
(1.16467 -0.278034 -1.3272e-19)
(1.16861 -0.284107 -7.0792e-20)
(1.16279 -0.264054 4.26336e-20)
(1.16855 -0.271388 1.46726e-20)
(1.16037 -0.248661 5.88664e-20)
(1.16703 -0.256437 5.80582e-20)
(1.15774 -0.233109 0)
(1.16494 -0.240934 0)
(1.15483 -0.217903 2.20088e-20)
(1.16244 -0.225593 0)
(1.15152 -0.203224 6.63893e-20)
(1.15948 -0.210708 -2.18213e-20)
(1.14767 -0.189114 -3.85033e-20)
(1.15596 -0.196377 1.05208e-19)
(1.14317 -0.17555 -6.73258e-20)
(1.15178 -0.18261 -1.0374e-19)
(1.13791 -0.162482 1.80573e-20)
(1.14684 -0.169371 -1.72121e-21)
(1.13179 -0.149843 0)
(1.14104 -0.156608 0)
(1.12473 -0.137567 -5.34771e-20)
(1.1343 -0.144258 0)
(1.11667 -0.125591 -1.96315e-20)
(1.12657 -0.132259 -3.63319e-20)
(1.10757 -0.113861 1.37762e-19)
(1.11777 -0.120551 3.49992e-20)
(1.09738 -0.102339 3.8544e-20)
(1.10788 -0.109093 1.03281e-19)
(1.08609 -0.0910001 -6.64837e-20)
(1.09685 -0.0978635 -6.60249e-20)
(1.07366 -0.0798342 0)
(1.08465 -0.0868421 -1.46755e-20)
(1.06006 -0.0688448 0)
(1.0713 -0.0758504 1.42789e-20)
(1.04523 -0.0580387 6.13458e-20)
(1.05687 -0.0645383 -1.38863e-20)
(1.02907 -0.0474308 6.11028e-21)
(1.04087 -0.0539479 6.1727e-20)
(1.01268 -0.037572 -7.52898e-20)
(1.02095 -0.0500985 -1.18418e-19)
(0.998522 -0.0558464 5.65303e-20)
(1.12301 -0.270845 -4.92321e-20)
(1.0953 -0.261803 -2.98093e-20)
(1.1558 -0.287693 3.55093e-20)
(1.14453 -0.287506 -4.59116e-20)
(1.16863 -0.28742 1.03699e-19)
(1.16636 -0.29229 1.75712e-20)
(1.17257 -0.277823 7.57525e-20)
(1.1752 -0.284968 1.69871e-20)
(1.17286 -0.264107 2.95895e-20)
(1.17783 -0.272178 4.42732e-21)
(1.17166 -0.248973 0)
(1.17788 -0.257269 -2.27376e-20)
(1.1697 -0.233628 0)
(1.17669 -0.241816 2.24902e-20)
(1.16714 -0.218578 -4.35917e-20)
(1.1747 -0.226511 -2.07326e-20)
(1.16397 -0.204021 1.55524e-20)
(1.172 -0.21165 -4.41178e-20)
(1.16011 -0.190016 4.21623e-20)
(1.16857 -0.19734 6.02538e-20)
(1.15549 -0.176559 -3.9141e-20)
(1.16435 -0.183604 -3.77052e-20)
(1.15002 -0.163614 -1.97935e-20)
(1.15926 -0.170421 -1.96118e-20)
(1.14361 -0.151128 0)
(1.15324 -0.157749 0)
(1.1362 -0.139046 1.74356e-20)
(1.1462 -0.145536 -1.58836e-20)
(1.12773 -0.12731 1.77219e-20)
(1.13811 -0.133729 1.75823e-20)
(1.11815 -0.115869 0)
(1.1289 -0.122273 0)
(1.10742 -0.10468 0)
(1.11852 -0.111125 1.45237e-20)
(1.09551 -0.0937121 -1.45735e-20)
(1.10694 -0.100261 0)
(1.08235 -0.0829439 -5.89751e-22)
(1.0941 -0.0896544 2.84418e-20)
(1.0679 -0.0723659 5.73218e-22)
(1.07999 -0.0791233 2.76065e-20)
(1.05206 -0.0619702 -1.39721e-20)
(1.06464 -0.0682839 3.10338e-22)
(1.03464 -0.05175 -4.33066e-20)
(1.04761 -0.0580667 -5.29693e-20)
(1.01643 -0.0421204 -8.29552e-20)
(1.02677 -0.054539 -5.70027e-20)
(1.00253 -0.0622831 4.31597e-20)
(1.11587 -0.277672 -2.60183e-20)
(1.08477 -0.271695 3.49166e-20)
(1.15498 -0.291682 -6.59929e-20)
(1.14113 -0.294179 -3.05259e-20)
(1.173 -0.289808 -6.93869e-20)
(1.16906 -0.296539 -6.85423e-20)
(1.1805 -0.279614 -5.43305e-20)
(1.18203 -0.288034 -3.55385e-20)
(1.1829 -0.265632 -4.7487e-20)
(1.18728 -0.274607 -1.12973e-20)
(1.18297 -0.250351 -8.76994e-22)
(1.18889 -0.259303 -1.03047e-20)
(1.18175 -0.234897 2.33779e-21)
(1.18864 -0.243557 2.24902e-20)
(1.17961 -0.219756 -2.09799e-20)
(1.18721 -0.228019 -2.01396e-20)
(1.17665 -0.205125 -6.02045e-22)
(1.18482 -0.212966 -9.09344e-21)
(1.17285 -0.191068 -1.85905e-20)
(1.18153 -0.198502 -6.08819e-22)
(1.16817 -0.177592 -1.83535e-20)
(1.17733 -0.184654 -9.12216e-21)
(1.16254 -0.16467 0)
(1.17215 -0.171407 -1.62601e-20)
(1.15589 -0.15226 -1.57441e-20)
(1.16594 -0.158729 0)
(1.14818 -0.140314 -1.6016e-20)
(1.15866 -0.146576 -1.53967e-20)
(1.13934 -0.12878 0)
(1.15024 -0.1349 1.47973e-20)
(1.12934 -0.117612 1.44136e-20)
(1.14065 -0.123653 2.90792e-20)
(1.11812 -0.106767 1.4629e-20)
(1.12983 -0.112794 -2.80127e-20)
(1.10563 -0.0962066 4.27872e-20)
(1.11774 -0.1023 0)
(1.09182 -0.0859039 5.66548e-20)
(1.10432 -0.0921454 1.63485e-20)
(1.0766 -0.0758365 2.47656e-20)
(1.08951 -0.082164 6.53549e-20)
(1.05985 -0.0659715 -4.42055e-20)
(1.07334 -0.0719527 1.42894e-20)
(1.04123 -0.0562539 -6.66414e-20)
(1.05542 -0.0622097 -5.20241e-20)