/*--------------------------------*- C++ -*----------------------------------*\
  =========                 |
  \\      /  F ield         | OpenFOAM: The Open Source CFD Toolbox
   \\    /   O peration     | Website:  https://openfoam.org
    \\  /    A nd           | Version:  11
     \\/     M anipulation  |
\*---------------------------------------------------------------------------*/
FoamFile
{
    format      ascii;
    class       volScalarField;
    location    "1.32";
    object      epsilon;
}
// * * * * * * * * * * * * * * * * * * * * * * * * * * * * * * * * * * * * * //

dimensions      [0 2 -3 0 0 0 0];

internalField   nonuniform List<scalar> 
2880
(
1.95301
2.48451
3.00849
3.11597
2.79847
2.75682
0.866252
1.06687
1.3413
1.47584
1.49483
1.7362
0.232721
0.816505
1.05202
1.15899
1.22833
1.45233
0.255274
0.779726
0.977936
1.0732
1.15478
1.34265
0.270571
0.813407
0.968114
1.05865
1.14563
1.30799
1.19054
0.893578
0.987413
1.07637
1.16913
1.31336
1.31172
0.963215
1.02069
1.111
1.21003
1.34542
1.45226
1.01545
1.05882
1.15401
1.2602
1.39218
1.57581
1.05455
1.09779
1.20102
1.31506
1.44671
1.67645
1.0837
1.13624
1.24989
1.37179
1.50445
1.7529
1.10587
1.17423
1.29943
1.42868
1.56227
1.80577
1.1238
1.21216
1.34935
1.48485
1.61813
1.8373
1.14008
1.25053
1.39988
1.54007
1.67098
1.83725
1.1539
1.2902
1.45182
1.59492
1.7208
1.80244
1.16511
1.33231
1.5066
1.6509
1.76877
1.73235
1.174
1.37843
1.56655
1.71083
1.81753
1.62805
1.18132
1.43086
1.63542
1.77948
1.87183
1.49232
1.18825
1.49311
1.71923
1.86445
1.93841
1.33222
1.1967
1.57087
1.82772
1.97669
2.03504
1.19061
1.20987
1.6743
1.97732
2.14125
2.19092
0.263725
1.23521
1.82408
2.2015
2.40613
2.46987
0.240391
1.30446
2.07443
2.58176
2.87679
3.05387
0.884537
1.51766
2.63483
3.40115
3.84344
4.84478
1.95545
2.54828
4.62974
6.19228
6.53506
26.4837
5.61573
4.39431
2.63726
1.67809
1.13561
0.811406
0.60601
0.467071
0.367282
0.292054
0.233415
0.186892
0.149805
0.120361
0.0972095
0.0792594
0.065629
0.0556331
0.0487638
0.0446169
0.0428467
0.0431325
0.0451676
0.0492817
4.68206
4.71935
3.67603
2.33491
1.56733
1.11913
0.839801
0.653514
0.520894
0.420631
0.34151
0.277458
0.225075
0.182301
0.1477
0.120121
0.0985875
0.0822856
0.0705678
0.0629038
0.0587634
0.0578092
0.0594554
0.0639774
3.03949
4.69425
4.40147
3.37164
2.27237
1.58088
1.16345
0.899455
0.719636
0.588107
0.485601
0.401954
0.332031
0.273164
0.22386
0.183119
0.150121
0.124137
0.104535
0.0907718
0.0822291
0.0783874
0.0790447
0.0834758
2.17642
4.01789
4.54609
4.22017
3.35234
2.4043
1.72467
1.28411
1.00094
0.809567
0.670526
0.562341
0.473214
0.397241
0.331736
0.275498
0.227948
0.188713
0.157486
0.133984
0.117831
0.108465
0.106283
0.110106
1.82725
3.12035
4.19605
4.41464
4.14854
3.48094
2.6707
1.99556
1.50262
1.16591
0.937304
0.775515
0.653508
0.555471
0.4725
0.400328
0.337263
0.282806
0.236987
0.200041
0.172201
0.153501
0.144824
0.147121
1.68261
2.557
3.54943
4.20723
4.34048
4.15223
3.66822
3.00254
2.361
1.82364
1.41568
1.12343
0.916848
0.766586
0.651369
0.55773
0.477869
0.408101
0.347163
0.295077
0.252442
0.220203
0.200118
0.19861
1.63414
2.25386
3.04454
3.75625
4.20239
4.31691
4.1979
3.86204
3.33571
2.76158
2.21597
1.74977
1.3835
1.11159
0.913932
0.767944
0.655431
0.564067
0.486525
0.419409
0.361724
0.313923
0.278469
0.268451
1.63298
2.10405
2.72128
3.35511
3.87782
4.20985
4.32156
4.25429
4.0286
3.62376
3.13562
2.62154
2.13344
1.70956
1.36826
1.10833
0.91562
0.77192
0.66122
0.572103
0.497671
0.434503
0.381682
0.358931
1.65949
2.03889
2.52958
3.06308
3.55878
3.95508
4.21584
4.32415
4.29189
4.14226
3.83984
3.43921
2.98226
2.51026
2.06305
1.6712
1.35078
1.10231
0.915307
0.774822
0.666934
0.581593
0.508622
0.468891
1.69936
2.0166
2.41661
2.85986
3.29506
3.67997
3.98511
4.19202
4.29167
4.28179
4.18277
3.96323
3.64306
3.25449
2.82638
2.39126
1.98115
1.62077
1.32325
1.08944
0.911003
0.777202
0.66937
0.601087
1.74367
2.01389
2.34483
2.71091
3.07857
3.41965
3.71373
3.94683
4.10939
4.19488
4.19768
4.13226
3.97477
3.72777
3.4108
3.04251
2.64833
2.25399
1.88461
1.55948
1.28871
1.07419
0.904695
0.782734
1.78683
2.01751
2.29006
2.58792
2.88843
3.17289
3.42813
3.64527
3.81788
3.94083
4.00936
4.01883
3.97405
3.85982
3.67543
3.43371
3.13952
2.80675
2.45497
2.10739
1.78413
1.49814
1.25767
1.06437
1.82544
2.01857
2.23762
2.47264
2.70812
2.932
3.13617
3.31579
3.46752
3.58872
3.67667
3.72804
3.73897
3.70925
3.63025
3.49593
3.31526
3.09466
2.84093
2.55935
2.26332
1.96802
1.69645
1.46803
1.85791
2.01238
2.17979
2.35581
2.52989
2.69463
2.84555
2.98042
3.09795
3.19717
3.27699
3.33588
3.37095
3.38003
3.36088
3.30854
3.21872
3.09204
2.93039
2.74107
2.53308
2.31388
2.09902
1.92024
1.8842
1.99725
2.11404
2.23506
2.35345
2.46524
2.56844
2.66231
2.7464
2.82004
2.88204
2.93171
2.96761
2.98701
2.99107
2.97578
2.93869
2.87776
2.79245
2.68324
2.55302
2.41206
2.28
2.17418
1.90561
1.97349
2.04111
2.11247
2.1833
2.25225
2.31879
2.38283
2.44403
2.50112
2.55019
2.59134
2.62149
2.63816
2.64368
2.63502
2.61149
2.57371
2.52216
2.45741
2.38185
2.3019
2.22645
2.14372
1.92465
1.94269
1.96348
1.99226
2.02573
2.06438
2.1085
2.15843
2.21275
2.27122
2.3324
2.38867
2.43164
2.45561
2.46351
2.45142
2.42032
2.37259
2.31173
2.24066
2.16239
2.08233
2.00438
1.90897
1.9463
1.90704
1.88441
1.87937
1.88694
1.90916
1.94654
1.99961
2.07024
2.15415
2.24113
2.31832
2.37677
2.41128
2.4245
2.41425
2.38131
2.3284
2.26025
2.18075
2.09436
2.00415
1.90957
1.80836
1.9756
1.87032
1.80644
1.77819
1.77226
1.79174
1.83765
1.91262
2.01135
2.12116
2.23195
2.3315
2.40903
2.45579
2.4699
2.44905
2.40343
2.34218
2.26736
2.18326
2.09404
2.00149
1.90289
1.80753
2.01996
1.8354
1.73515
1.69344
1.68628
1.71726
1.78666
1.89173
2.02642
2.17828
2.32549
2.44495
2.51583
2.53352
2.50679
2.45786
2.38521
2.29453
2.19388
2.08915
1.9849
1.883
1.78419
1.69882
2.0902
1.80722
1.67633
1.63219
1.63739
1.69628
1.80503
1.9621
2.15415
2.35278
2.51958
2.61449
2.63237
2.55762
2.44922
2.30876
2.15654
2.0044
1.85751
1.71743
1.5867
1.46556
1.35821
1.26372
2.20312
1.79185
1.63932
1.60444
1.642
1.7474
1.92038
2.15076
2.40808
2.63904
2.78541
2.81373
2.69507
2.48487
2.23035
1.97431
1.73992
1.53393
1.35342
1.19172
1.04954
0.922763
0.811334
0.717534
2.38077
1.79627
1.63811
1.62767
1.71645
1.89713
2.15967
2.47575
2.78702
3.01204
3.085
2.99539
2.71463
2.33951
1.97291
1.65231
1.3886
1.1759
1.00313
0.864204
0.746371
0.644079
0.555596
0.490484
2.68646
1.83388
1.68687
1.7276
1.89901
2.1821
2.54904
2.9427
3.26796
3.42359
3.38095
3.08483
2.62199
2.14978
1.7434
1.42306
1.17887
0.992041
0.843972
0.720917
0.616146
0.526123
0.450165
0.399624
1.76444
1.75459
2.69707
3.82929
5.04304
6.14474
0.832361
1.02804
1.67097
2.46863
3.56064
4.44203
0.226343
0.94849
1.51406
2.14842
2.85314
3.20414
0.251099
0.954075
1.46406
1.98164
2.47157
2.69932
0.269586
0.972899
1.42981
1.85799
2.24376
2.48765
0.28042
0.996296
1.39512
1.76096
2.09859
2.39508
1.2253
1.01411
1.35751
1.67989
2.00138
2.36169
1.30248
1.02183
1.31745
1.60884
1.93128
2.3609
1.36753
1.02175
1.27565
1.54378
1.87586
2.37783
1.413
1.01607
1.23258
1.48176
1.82738
2.40535
1.43574
1.00447
1.18842
1.4206
1.7808
2.43975
1.43478
0.987866
1.14316
1.35876
1.73273
2.4795
1.40939
0.966703
1.09675
1.29526
1.68085
2.5246
1.36196
0.940904
1.04903
1.22966
1.62376
2.57645
1.30072
0.909918
0.999621
1.16214
1.56099
2.63593
1.23231
0.869284
0.948275
1.09329
1.49186
2.69995
1.18713
0.811005
0.894934
1.02388
1.41601
2.76045
0.279654
0.722285
0.84128
0.955312
1.33369
2.80754
0.272642
0.653449
0.790935
0.890218
1.24599
2.833
0.260236
0.604516
0.7504
0.833751
1.15648
2.83862
0.242582
0.583849
0.730568
0.79724
1.0737
2.82755
0.219776
0.614582
0.753592
0.807214
1.01965
2.8317
0.814842
0.818033
0.912664
0.946257
1.06288
2.92788
1.8297
1.95102
1.98855
1.89499
1.6706
2.82621
2.61169
1.92186
1.82392
1.94855
2.23113
2.63526
3.10526
3.53843
3.80597
3.81863
3.54435
3.02555
2.43983
1.91892
1.51777
1.22431
1.00851
0.845769
0.716589
0.609629
0.519681
0.444761
0.385837
0.350838
2.54534
2.08401
2.08228
2.32473
2.74326
3.27655
3.81716
4.20751
4.31073
4.04877
3.50996
2.80351
2.1479
1.64286
1.28626
1.03351
0.846759
0.703739
0.589193
0.49565
0.419896
0.360778
0.319484
0.29938
2.51224
2.32023
2.47034
2.86998
3.44756
4.08939
4.61313
4.82328
4.59133
4.0434
3.20508
2.40621
1.79108
1.36602
1.0753
0.866095
0.708795
0.584871
0.48494
0.404945
0.342651
0.297186
0.26853
0.256579
2.54556
2.62512
2.98265
3.58462
4.32115
4.99478
5.33672
5.15418
4.61182
3.64715
2.69931
1.96643
1.46738
1.13381
0.899262
0.724001
0.587403
0.479433
0.39469
0.329503
0.281364
0.248495
0.229598
0.222984
2.63148
2.99339
3.61007
4.44254
5.28955
5.82957
5.7271
5.20374
4.1445
3.03376
2.17012
1.58955
1.20818
0.943352
0.746926
0.595161
0.476658
0.384969
0.315413
0.26433
0.228747
0.206151
0.194608
0.191678
2.76089
3.41737
4.33815
5.39182
6.21104
6.29484
5.81943
4.71306
3.42266
2.41523
1.74384
1.30707
1.00565
0.783212
0.612807
0.481323
0.380842
0.305434
0.250316
0.211607
0.186
0.170893
0.16422
0.163438
2.92019
3.89558
5.14986
6.33807
6.79587
6.43427
5.37778
3.90383
2.7284
1.94497
1.43782
1.0897
0.834782
0.641652
0.494393
0.38307
0.300306
0.240176
0.197841
0.169341
0.151427
0.141703
0.138253
0.13866
3.10519
4.43383
6.01405
7.11537
6.98898
6.14276
4.51436
3.13856
2.21207
1.61371
1.2052
0.908476
0.686058
0.518439
0.393191
0.301021
0.234523
0.187746
0.155961
0.135395
0.123165
0.117196
0.115842
0.116869
3.31648
5.04212
6.86311
7.45106
6.89492
5.32703
3.68593
2.57002
1.85155
1.36379
1.01211
0.751061
0.556626
0.413191
0.308911
0.234357
0.182096
0.146385
0.122866
0.10821
0.100011
0.0965464
0.0964483
0.0978193
3.55819
5.72486
7.56559
7.49269
6.34001
4.42576
3.06445
2.18133
1.5845
1.15784
0.844451
0.613853
0.446025
0.325683
0.240663
0.181491
0.141035
0.114059
0.0967655
0.0863772
0.0809565
0.0791199
0.0796572
0.081277
3.83688
6.46634
7.86736
7.2806
5.45772
3.75875
2.64152
1.8931
1.36365
0.978402
0.697863
0.496235
0.353743
0.254573
0.186408
0.14009
0.109078
0.0888026
0.0760928
0.0687219
0.0651691
0.0643428
0.0652159
0.0669125
4.16117
7.20969
7.90319
6.78031
4.71585
3.28549
2.32858
1.65653
1.1709
0.820221
0.570964
0.397257
0.2783
0.197863
0.143919
0.107988
0.0843127
0.0690513
0.0596453
0.0543582
0.052019
0.0517806
0.0528088
0.0544382
4.54409
7.82694
7.74719
6.11705
4.22334
2.95654
2.07842
1.44957
0.998895
0.681472
0.462922
0.315548
0.217673
0.153221
0.11091
0.0831728
0.0650985
0.0535425
0.046487
0.0426065
0.0410151
0.0410633
0.0421127
0.0436262
5.00669
8.1928
7.56
5.53992
3.85336
2.68821
1.85642
1.262
0.845587
0.561516
0.372521
0.249175
0.169583
0.118395
0.085385
0.0640042
0.0501598
0.041322
0.0359212
0.0329606
0.0317828
0.0319033
0.032875
0.0342442
5.56919
8.35669
7.30406
5.15847
3.58601
2.45959
1.65435
1.09171
0.710336
0.459323
0.298014
0.195964
0.131809
0.0913815
0.0656872
0.0491852
0.0385209
0.0316767
0.0274362
0.0250535
0.024049
0.0240925
0.0248749
0.0260726
6.21535
8.42465
7.05639
4.92757
3.36493
2.2472
1.46568
0.937528
0.592485
0.3735
0.237403
0.153744
0.102351
0.0705145
0.0505079
0.0377277
0.0294545
0.0240834
0.0206647
0.0186313
0.0176346
0.0174569
0.0179365
0.0189017
6.87835
8.48898
6.92515
4.74484
3.15627
2.04246
1.2894
0.79937
0.491116
0.30232
0.188624
0.120528
0.0795165
0.0544594
0.0388423
0.0288931
0.0224244
0.0181583
0.0153417
0.0135266
0.0124397
0.0119173
0.0119105
0.0124658
7.53041
8.63445
6.88328
4.58022
2.94845
1.84392
1.12612
0.677074
0.404984
0.243923
0.149717
0.0945773
0.0619138
0.0421679
0.0299277
0.022133
0.0170348
0.013615
0.011268
0.00962238
0.00843437
0.00752485
0.00677117
0.0063971
8.28196
8.95051
6.88549
4.40624
2.73407
1.65088
0.975938
0.569844
0.332487
0.196411
0.118892
0.0744103
0.0484096
0.032813
0.0231751
0.0170313
0.0129883
0.0102376
0.00829242
0.00684477
0.00568221
0.00464128
0.00357533
0.00197977
9.33564
9.48946
6.87003
4.20118
2.50939
1.46419
0.839141
0.476738
0.271987
0.158015
0.0945862
0.0587872
0.0380778
0.025723
0.0181026
0.0132404
0.01003
0.00783251
0.00626463
0.00508421
0.00412609
0.00326971
0.0024138
0.00129527
10.7805
10.2605
6.74296
3.95118
2.27576
1.28579
0.71575
0.396549
0.221826
0.127123
0.0754593
0.0466816
0.0301593
0.0203376
0.0142864
0.0104247
0.00787319
0.0061263
0.00488174
0.00394858
0.00319498
0.00252372
0.00186477
0.00107338
12.7781
11.0079
6.49224
3.65483
2.03529
1.11642
0.605207
0.32794
0.180455
0.102339
0.0604046
0.0372702
0.0240514
0.0162078
0.0113767
0.00829303
0.00625538
0.00486085
0.00386833
0.00312488
0.00252415
0.00199002
0.00147787
0.000906206
15.633
11.4209
6.12286
3.30772
1.78974
0.95716
0.507066
0.269688
0.14651
0.0824904
0.0485337
0.0299145
0.0192994
0.013002
0.00912125
0.00664277
0.0050047
0.00388385
0.00308654
0.00248964
0.00200776
0.00158285
0.00118812
0.000777394
20.1075
11.4833
5.54715
2.90981
1.54482
0.809846
0.420984
0.220684
0.118807
0.0666156
0.0391491
0.0241315
0.01557
0.0104858
0.00734942
0.00534512
0.00402054
0.00311494
0.00247188
0.00199196
0.00160694
0.0012727
0.000972644
0.000678204
2.32691
8.22629
10.9383
11.784
10.8105
57.3312
0.930354
3.69156
5.13389
6.19988
9.10968
16.8398
1.28744
2.76663
3.68737
4.57175
6.13859
9.23353
1.81545
2.44194
3.06997
3.80606
4.88329
6.38554
2.31411
2.30753
2.73083
3.33638
4.1292
4.96178
2.75745
2.24322
2.51926
3.00585
3.59651
4.08657
3.12909
2.20717
2.37226
2.75531
3.19476
3.48373
3.42085
2.17798
2.26009
2.55722
2.88163
3.04155
3.63055
2.14471
2.1675
2.39734
2.63361
2.70582
3.76045
2.10327
2.08781
2.26741
2.4364
2.44667
3.81598
2.05395
2.01906
2.16275
2.28101
2.24714
3.80531
1.99982
1.96175
2.08078
2.16171
2.09631
3.73936
1.94527
1.91705
2.02044
2.0752
1.98723
3.62135
1.89324
1.88681
1.9833
2.02044
1.91595
3.44305
1.84393
1.87308
1.96964
1.99793
1.88321
3.20481
1.79834
1.87582
1.98036
2.00602
1.88648
2.91043
1.75833
1.89943
2.02109
2.05167
1.9338
2.56524
1.72638
1.94811
2.09883
2.14408
2.03785
2.17574
1.70718
2.02856
2.22559
2.3007
2.22497
1.75047
1.70443
2.15276
2.42281
2.55566
2.55251
1.30272
1.7308
2.34663
2.73142
2.98094
3.15873
0.266833
1.81603
2.68023
3.26259
3.7137
4.45429
1.00181
2.15396
3.41386
4.36981
5.07044
8.04332
2.30947
3.84752
5.95683
7.80238
7.63203
26.3097
23.993
9.52275
4.67985
2.48175
1.30923
0.676425
0.346607
0.179895
0.0963317
0.0539334
0.0317102
0.0195595
0.0126213
0.00849373
0.00594463
0.00431543
0.00323979
0.00250608
0.00198717
0.00160244
0.00129707
0.00103715
0.000811816
0.000602082
12.5165
6.8156
3.79763
2.07657
1.09385
0.558901
0.283552
0.146313
0.078201
0.0438127
0.0257988
0.0159279
0.0102761
0.00690711
0.00482494
0.0034951
0.00261911
0.00202406
0.00160596
0.00129903
0.00105893
0.000859194
0.000692095
0.000544003
8.17406
5.28231
3.1165
1.72715
0.905353
0.458387
0.231112
0.118987
0.063645
0.035742
0.0210908
0.0130322
0.00840321
0.00563903
0.0039306
0.00284145
0.00212674
0.00164422
0.00130828
0.00106483
0.000877751
0.000725998
0.000603553
0.000499992
6.05534
4.24511
2.56973
1.42938
0.744476
0.374445
0.188231
0.0969693
0.0520084
0.0293073
0.0173332
0.0107165
0.00690361
0.004624
0.00321634
0.0023217
0.0017378
0.00134679
0.00107769
0.000885742
0.000741242
0.000627183
0.000538471
0.000466779
4.77332
3.45727
2.12307
1.17981
0.610423
0.305718
0.153631
0.0793584
0.0427307
0.024174
0.0143278
0.00886046
0.00570113
0.00381144
0.00264682
0.00190985
0.00143219
0.00111551
0.000900585
0.000750085
0.000639385
0.000554506
0.000490891
0.000441755
3.90574
2.85329
1.7614
0.974544
0.500901
0.250287
0.125973
0.065333
0.0353419
0.0200734
0.0119191
0.00737041
0.00473638
0.00316156
0.00219384
0.00158484
0.00119341
0.000936961
0.000765697
0.000648272
0.000564085
0.000501473
0.000456256
0.000422909
3.27731
2.38717
1.47078
0.80803
0.412671
0.206028
0.103984
0.0541793
0.0294574
0.0167912
0.00998468
0.00617278
0.0039624
0.00264254
0.0018346
0.00132946
0.00100792
0.00080009
0.000663813
0.000572543
0.000508902
0.000463041
0.000431137
0.000408746
2.80414
2.02544
1.2384
0.674198
0.342271
0.170899
0.0865451
0.0453091
0.0247579
0.0141571
0.00842822
0.00520935
0.00334174
0.00222877
0.00155058
0.00112969
0.00086466
0.000695925
0.000587502
0.000516718
0.000468797
0.000435374
0.000413009
0.000398171
2.44221
1.74235
1.05308
0.56723
0.286474
0.143095
0.0727141
0.038242
0.0209928
0.0120375
0.00717358
0.00443387
0.00284436
0.00189953
0.00132675
0.000974128
0.000754684
0.000617257
0.000530857
0.000475945
0.000439901
0.000415613
0.000400038
0.000390382
2.16394
1.52004
0.905615
0.482054
0.242351
0.121085
0.0617214
0.0325937
0.0179658
0.0103269
0.00616052
0.0038094
0.0024461
0.00163811
0.00115094
0.000853583
0.000670834
0.000558367
0.000489236
0.000446479
0.000419297
0.00040166
0.000390904
0.000384771
1.95012
1.34564
0.788516
0.414396
0.207412
0.103619
0.0529534
0.0280613
0.0155229
0.00894264
0.00534133
0.00330645
0.00212758
0.00143104
0.00101341
0.000760724
0.000607435
0.000514758
0.000459041
0.000425472
0.000404818
0.000391991
0.000384648
0.000380867
1.78789
1.20962
0.695785
0.360711
0.179692
0.0897076
0.0459278
0.0244077
0.0135437
0.0078195
0.00467811
0.00290148
0.00187325
0.00126754
0.000906357
0.000689732
0.00056001
0.000482919
0.000437506
0.00041078
0.000394858
0.000385459
0.000380579
0.000378284
1.66861
1.10491
0.622648
0.318168
0.157648
0.0785754
0.0402683
0.0214479
0.0119339
0.006906
0.00414077
0.00257572
0.00167072
0.00113906
0.00082363
0.000636028
0.000525056
0.000460127
0.000422526
0.000400813
0.000388237
0.000381324
0.000378053
0.00037666
1.58677
1.02631
0.56531
0.284598
0.140073
0.0696189
0.0356814
0.019037
0.0106191
0.00616145
0.0037054
0.00231425
0.0015102
0.00103885
0.000760436
0.000596077
0.000499893
0.000444326
0.000412551
0.000394451
0.000384205
0.000378927
0.000376582
0.000375695
1.53958
0.970144
0.520788
0.258358
0.126021
0.0623655
0.0319375
0.0170614
0.00954097
0.00555351
0.00335295
0.00210518
0.00138394
0.000961675
0.00071308
0.000567193
0.000482518
0.000434016
0.000406463
0.000390858
0.000382148
0.000377813
0.000375934
0.00037524
1.52739
0.934042
0.487142
0.237793
0.114713
0.0564409
0.0288561
0.0154314
0.00865293
0.00505637
0.00306819
0.00193907
0.0012858
0.000903397
0.000678677
0.000547293
0.000471393
0.000428059
0.000403433
0.000389454
0.000381639
0.000377658
0.00037585
0.000375143
1.55109
0.916619
0.462907
0.221744
0.105537
0.0515469
0.0262931
0.0140753
0.00791776
0.00464929
0.00283885
0.00180833
0.0012109
0.000860748
0.00065496
0.00053475
0.000465332
0.000425588
0.000402809
0.0003897
0.00038221
0.000378152
0.000376147
0.000375214
1.61779
0.917291
0.447336
0.209302
0.0979898
0.0474396
0.0241315
0.0129353
0.00730536
0.00431547
0.00265508
0.00170688
0.00115537
0.000831178
0.000640192
0.000528355
0.000463498
0.000425967
0.000404172
0.000391332
0.000383737
0.000379312
0.000376816
0.000375422
1.73888
0.936963
0.439401
0.199608
0.0916304
0.0439139
0.0222751
0.0119637
0.0067912
0.00404131
0.0025089
0.00162988
0.00111616
0.000812716
0.000633057
0.000527211
0.00046512
0.000428842
0.000407269
0.000394178
0.000386081
0.000381008
0.00037781
0.000375759
1.93339
0.978031
0.437622
0.191764
0.0860454
0.040791
0.0206427
0.0111216
0.00635523
0.00381574
0.0023939
0.00157351
0.00109093
0.000803885
0.000632617
0.000530531
0.000470118
0.000434009
0.000412006
0.000398205
0.000389249
0.000383236
0.000379108
0.000376229
2.23054
1.04347
0.440119
0.184831
0.0808469
0.0379134
0.0191664
0.0103769
0.00598124
0.00362981
0.00230498
0.0015348
0.00107791
0.00080364
0.000638073
0.000538417
0.00047821
0.000441429
0.000418401
0.000403452
0.000393295
0.00038606
0.000380783
0.000376897
2.67015
1.13342
0.443593
0.177582
0.0756513
0.0351433
0.0177912
0.00970423
0.00565645
0.00347648
0.00223816
0.00151155
0.00107588
0.000811246
0.000649605
0.000550532
0.000489452
0.00045121
0.000426579
0.00041005
0.000398345
0.000389606
0.000382956
0.000377866
3.29378
1.22699
0.44091
0.168429
0.0700707
0.0323709
0.0164773
0.00908646
0.00537243
0.00335165
0.00219154
0.00150252
0.00108418
0.00082667
0.000666852
0.00056702
0.000504057
0.000463598
0.00043679
0.00041823
0.000404609
0.000394062
0.000385797
0.000379272
4.02948
1.25882
0.422149
0.155634
0.0637923
0.0295311
0.0152059
0.00851612
0.00512511
0.00325298
0.0021635
0.00150684
0.0011025
0.000849724
0.00069002
0.000588169
0.000522368
0.000478952
0.000449382
0.000428313
0.000412375
0.000399688
0.000389527
0.0003813
2.34306
2.37179
2.85447
3.96066
5.27662
29.9387
0.940289
1.38565
2.35991
4.07738
7.2514
11.9872
0.249018
1.40528
2.56333
4.34563
6.14067
6.31567
0.27084
1.54692
2.7192
4.10063
4.75413
3.9004
1.24963
1.69714
2.7646
3.60992
3.74411
2.59914
1.54761
1.7988
2.7042
3.18157
2.9913
1.84161
1.82283
1.86823
2.57284
2.82673
2.42687
1.37681
2.06923
1.91327
2.43615
2.53462
2.01009
1.08294
2.2724
1.9408
2.3206
2.29847
1.70894
0.895813
2.4226
1.95956
2.23368
2.11404
1.49873
0.779909
2.51444
1.97593
2.17322
1.9811
1.36256
0.714278
2.54656
1.99219
2.13771
1.8974
1.28784
0.690083
2.52622
2.00814
2.12516
1.8604
1.26835
0.695624
2.45721
2.02197
2.12979
1.86377
1.28553
0.736019
2.36189
2.03142
2.14736
1.90334
1.35466
0.812682
2.25368
2.03219
2.1766
1.97997
1.47146
0.932009
2.11674
2.02052
2.21429
2.08343
1.63846
1.1038
1.94028
1.98849
2.26053
2.21036
1.85942
1.34131
1.71704
1.93641
2.31747
2.36584
2.13534
1.66338
1.44116
1.88051
2.39257
2.56619
2.45738
2.10079
1.19337
1.84633
2.51768
2.82713
2.84729
2.67138
0.257085
1.88961
2.77803
3.20685
3.38366
3.50368
0.965825
2.29913
3.50318
4.01941
4.30952
5.46187
2.25877
4.92883
7.01212
7.14681
6.87436
6.17115
3.68672
1.13958
0.380793
0.138189
0.0567054
0.0266396
0.0139828
0.00799823
0.00491431
0.0031806
0.00215343
0.0015245
0.001131
0.000880716
0.000719515
0.000614429
0.000544848
0.000497725
0.000464784
0.000440708
0.000422033
0.000406827
0.000394317
0.000384113
2.87275
0.922742
0.31723
0.117081
0.0493371
0.0238191
0.0128385
0.00754425
0.00474274
0.00313455
0.00216206
0.00155636
0.0011705
0.000920456
0.000756108
0.000646536
0.000572193
0.000520566
0.000483593
0.000455946
0.000434017
0.000415745
0.000400237
0.000387759
1.99492
0.693925
0.250089
0.0965393
0.0423929
0.0212319
0.0118208
0.00716294
0.0046161
0.0031176
0.00219214
0.00160437
0.00122266
0.000970397
0.000801118
0.000685704
0.000605516
0.000548478
0.000506674
0.000474723
0.000448808
0.000426708
0.000407545
0.000392316
1.40716
0.516707
0.194291
0.0788866
0.0363687
0.0190034
0.0109726
0.00686851
0.0045449
0.00313549
0.0022475
0.0016716
0.00129002
0.00103275
0.000856506
0.000733696
0.0006464
0.000582846
0.000535191
0.000497956
0.000467118
0.000440402
0.000417226
0.000398368
1.01945
0.387752
0.151625
0.0648371
0.0314665
0.0171911
0.010332
0.00667286
0.00453004
0.00319506
0.00233343
0.00176234
0.00137614
0.00111053
0.000924873
0.000792788
0.00069685
0.000625444
0.000570715
0.000527057
0.000490233
0.000457959
0.000429931
0.000406354
0.761614
0.296763
0.120434
0.0542056
0.0276978
0.0158297
0.00990227
0.00659548
0.00458826
0.00330542
0.00245702
0.00188229
0.00148572
0.00120766
0.00100956
0.000865854
0.000759373
0.000678482
0.000615207
0.000563749
0.000519613
0.000480483
0.000446373
0.000416618
0.58856
0.233716
0.0983048
0.0464954
0.0249749
0.0149293
0.0096932
0.00664471
0.00473348
0.00347798
0.00262752
0.00203899
0.00162493
0.00132928
0.00111489
0.00095661
0.000837211
0.000744832
0.000671222
0.000610276
0.000557137
0.000509401
0.000467511
0.000429652
0.472205
0.190797
0.0831225
0.0412161
0.0232048
0.0144834
0.00972321
0.00684493
0.00498349
0.00372768
0.00285714
0.00224237
0.00180192
0.00148213
0.00124653
0.00106989
0.000934568
0.000828205
0.000742063
0.000669549
0.000605277
0.000546654
0.000494702
0.000446141
0.395046
0.162487
0.0732986
0.0379881
0.022328
0.0144796
0.0100185
0.00722415
0.00536258
0.00407457
0.00316217
0.00250565
0.00202747
0.0016751
0.00141193
0.00121203
0.00105692
0.000933408
0.000831991
0.00074534
0.00066729
0.000594869
0.00052982
0.000467023
0.346202
0.145143
0.0677621
0.0365715
0.0223145
0.0149618
0.0106262
0.00782308
0.00590448
0.004546
0.00356464
0.00284662
0.00231605
0.00192009
0.00162097
0.00139137
0.00121143
0.00106669
0.000946526
0.00084254
0.000747443
0.000657564
0.000575432
0.00049356
0.319374
0.136758
0.0660058
0.0367438
0.0232214
0.0160057
0.0116164
0.00870024
0.00665646
0.00517984
0.00409486
0.0032896
0.00268734
0.00223318
0.00188697
0.0016191
0.00140762
0.00123629
0.00109289
0.000967536
0.000851342
0.000739442
0.000635035
0.00052742
0.312002
0.136105
0.0673093
0.0387698
0.0251894
0.0177396
0.0130952
0.00994042
0.00768574
0.00602929
0.00479505
0.00386834
0.00316853
0.00263652
0.00222821
0.00191048
0.00165844
0.00145332
0.00128075
0.00112883
0.000986463
0.00084686
0.000713433
0.000570752
0.319243
0.143174
0.0728458
0.0429542
0.0284772
0.0203689
0.0152221
0.0116676
0.00908908
0.00717027
0.00572518
0.00463057
0.00379799
0.00316132
0.00267038
0.00228699
0.00198204
0.00173332
0.00152357
0.00133819
0.00116316
0.000988757
0.000817499
0.000626262
0.348077
0.160151
0.0832685
0.0499201
0.0335236
0.0242143
0.0182374
0.014065
0.011008
0.008713
0.00697184
0.00564499
0.00463088
0.0038525
0.00325066
0.00277984
0.00240508
0.00209937
0.00184149
0.00161327
0.00139702
0.00117888
0.000958203
0.000697644
0.40052
0.189618
0.100321
0.0607371
0.0410378
0.0297735
0.0225055
0.0174069
0.0136522
0.01082
0.00866224
0.00701229
0.00574805
0.00477609
0.0040241
0.00343607
0.00296866
0.00258817
0.00226776
0.00198437
0.00171563
0.00144252
0.00115731
0.000792891
0.483551
0.236334
0.126875
0.0771481
0.0521466
0.0378205
0.0285846
0.0221091
0.0173381
0.013735
0.0109863
0.00888243
0.00726975
0.00603061
0.00507364
0.00432787
0.0037382
0.00326155
0.00286329
0.00251346
0.00218319
0.00184534
0.00147595
0.000958284
0.607995
0.307899
0.167565
0.101953
0.0686331
0.0495644
0.0373378
0.02881
0.0225485
0.0178288
0.014232
0.0114817
0.00937664
0.00776353
0.00652344
0.00556429
0.00481498
0.00422047
0.00373738
0.00332984
0.00296442
0.0026047
0.00221739
0.001901
0.789331
0.415706
0.229575
0.139558
0.0933026
0.0668964
0.0501082
0.0384995
0.0300305
0.0236733
0.0188417
0.0151556
0.012342
0.0101947
0.00855468
0.00730003
0.0063381
0.00560021
0.00503778
0.00461939
0.00432614
0.00415176
0.00414585
0.00455452
1.04828
0.575702
0.323503
0.196691
0.1305
0.0927577
0.0689857
0.0527191
0.0409486
0.0321604
0.0255042
0.0204392
0.0165842
0.0136539
0.0114306
0.00974838
0.00848413
0.00755051
0.00689186
0.00647947
0.00630482
0.00638198
0.00679612
0.00769881
1.41249
0.808573
0.463907
0.283109
0.186737
0.131631
0.0971877
0.0738601
0.0571216
0.044691
0.0353043
0.0281746
0.022758
0.0186521
0.0155516
0.0132262
0.0115075
0.0102799
0.00947366
0.0090547
0.00901233
0.00933355
0.0101376
0.0114556
1.93223
1.14138
0.669376
0.411967
0.271233
0.190077
0.139528
0.105564
0.0813617
0.0634592
0.0499584
0.0397027
0.0319082
0.0260014
0.0215491
0.0182254
0.0157933
0.0140919
0.0130236
0.0125361
0.0125967
0.0131464
0.0143357
0.0160878
2.68615
1.60444
0.960556
0.598946
0.395795
0.276974
0.2028
0.153141
0.117887
0.0918372
0.0721587
0.0571597
0.0457169
0.0370173
0.0304461
0.0255383
0.021954
0.0194591
0.0179063
0.0172044
0.017284
0.0180138
0.0195817
0.0218225
3.79504
2.19418
1.33531
0.851051
0.570463
0.401996
0.295381
0.223654
0.172619
0.134769
0.105996
0.083888
0.0668766
0.0538393
0.043923
0.0364724
0.0309986
0.0271558
0.024714
0.0235134
0.0234426
0.0242474
0.0261535
0.028957
6.21627
3.50052
1.95832
1.2185
0.81532
0.577566
0.427122
0.32563
0.253111
0.198934
0.157302
0.124877
0.0995636
0.0798886
0.0647284
0.0531988
0.0446175
0.0384818
0.0344396
0.032226
0.0316419
0.0323524
0.0344691
0.0379098
)
;

boundaryField
{
    rotor
    {
        type            epsilonWallFunction;
        value           nonuniform List<scalar> 
144
(
1.95301
2.48451
3.00849
3.11597
2.79847
2.75682
1.95301
0.866252
0.232721
0.255274
0.270571
1.19054
1.31172
1.45226
1.57581
1.67645
1.7529
1.80577
1.8373
1.83725
1.80244
1.73235
1.62805
1.49232
1.33222
1.19061
0.263725
0.240391
0.884537
1.95545
1.95545
2.54828
4.62974
6.19228
6.53506
26.4837
1.76444
1.75459
2.69707
3.82929
5.04304
6.14474
1.76444
0.832361
0.226343
0.251099
0.269586
0.28042
1.2253
1.30248
1.36753
1.413
1.43574
1.43478
1.40939
1.36196
1.30072
1.23231
1.18713
0.279654
0.272642
0.260236
0.242582
0.219776
0.814842
1.8297
1.8297
1.95102
1.98855
1.89499
1.6706
2.82621
2.32691
8.22629
10.9383
11.784
10.8105
57.3312
2.32691
0.930354
1.28744
1.81545
2.31411
2.75745
3.12909
3.42085
3.63055
3.76045
3.81598
3.80531
3.73936
3.62135
3.44305
3.20481
2.91043
2.56524
2.17574
1.75047
1.30272
0.266833
1.00181
2.30947
2.30947
3.84752
5.95683
7.80238
7.63203
26.3097
2.34306
2.37179
2.85447
3.96066
5.27662
29.9387
2.34306
0.940289
0.249018
0.27084
1.24963
1.54761
1.82283
2.06923
2.2724
2.4226
2.51444
2.54656
2.52622
2.45721
2.36189
2.25368
2.11674
1.94028
1.71704
1.44116
1.19337
0.257085
0.965825
2.25877
2.25877
4.92883
7.01212
7.14681
6.87436
6.17115
)
;
    }
    freestream
    {
        type            inletOutlet;
        inletValue      uniform 0.000375;
        value           nonuniform List<scalar> 
96
(
0.0492817
0.0639774
0.0834758
0.110106
0.147121
0.19861
0.268451
0.358931
0.468891
0.601087
0.782734
1.06437
1.46803
1.92024
2.17418
2.14372
1.90897
1.80836
1.80753
1.69882
1.26372
0.717534
0.490484
0.399624
0.350838
0.29938
0.256579
0.222984
0.191678
0.163438
0.13866
0.116869
0.0978193
0.081277
0.0669125
0.0544382
0.0436262
0.0342442
0.0260726
0.0189017
0.0124658
0.0063971
0.000375
0.000375
0.000375
0.000375
0.000375
0.000375
0.000375
0.000375
0.000375
0.000375
0.000375
0.000375
0.000375
0.000375
0.000375
0.000375
0.000375
0.000375
0.000375
0.000375
0.000375
0.000375
0.000375
0.000375
0.000375
0.000375
0.000375
0.000375
0.000375
0.000375
0.000375
0.000375
0.000375
0.000375
0.000375
0.000375
0.000375
0.000375
0.000375
0.000375
0.000375
0.000375
0.000375
0.000375
0.000375
0.000375
0.001901
0.00455452
0.00769881
0.0114556
0.0160878
0.0218225
0.028957
0.0379098
)
;
    }
    frontAndBack
    {
        type            empty;
    }
}


// ************************************************************************* //
