/*--------------------------------*- C++ -*----------------------------------*\
  =========                 |
  \\      /  F ield         | OpenFOAM: The Open Source CFD Toolbox
   \\    /   O peration     | Website:  https://openfoam.org
    \\  /    A nd           | Version:  11
     \\/     M anipulation  |
\*---------------------------------------------------------------------------*/
FoamFile
{
    format      ascii;
    class       volScalarField;
    location    "1.32";
    object      nut;
}
// * * * * * * * * * * * * * * * * * * * * * * * * * * * * * * * * * * * * * //

dimensions      [0 2 -1 0 0 0 0];

internalField   nonuniform List<scalar> 
2880
(
8.0878e-07
3.85027e-06
1.26066e-05
2.89784e-05
5.06381e-05
8.81874e-05
2.88855e-05
6.54613e-05
0.000122399
0.000183498
0.000245658
0.000300321
0.000165122
0.000144534
0.000247658
0.000348676
0.000440443
0.000491737
0.000181252
0.000204185
0.000349326
0.000482751
0.000596498
0.000658178
0.000193131
0.00024481
0.000430395
0.000590403
0.000723164
0.000802603
4.75653e-05
0.000269598
0.00049536
0.000677399
0.000826151
0.000925589
4.85764e-05
0.000295214
0.000548188
0.00074826
0.000911151
0.00102779
5.06233e-05
0.000321688
0.00059206
0.000806576
0.00098215
0.0011138
5.20313e-05
0.000346868
0.000628187
0.000854258
0.00104138
0.0011863
5.3118e-05
0.000369214
0.000656695
0.000892071
0.00108994
0.0012468
5.39146e-05
0.00038736
0.000677129
0.000920232
0.00112821
0.00129606
5.44519e-05
0.00039994
0.000688963
0.00093846
0.00115608
0.00133431
5.47665e-05
0.00040551
0.00069166
0.000946184
0.00117304
0.00136138
5.47647e-05
0.00040426
0.000684566
0.000942572
0.00117821
0.00137675
5.4415e-05
0.00039627
0.000666734
0.000926539
0.0011703
0.00137948
5.36984e-05
0.0003811
0.000638
0.000896501
0.00114748
0.00136814
5.25972e-05
0.000358275
0.000597412
0.000851335
0.00110714
0.00134061
5.10684e-05
0.000327279
0.000544414
0.000788997
0.00104638
0.00129456
4.88022e-05
0.000287588
0.000478675
0.000707798
0.00096183
0.0012204
4.74735e-05
0.000238644
0.000400224
0.000606678
0.000847611
0.001108
0.000188604
0.000181725
0.000309675
0.000485323
0.000699046
0.000944192
0.000170795
0.000117407
0.000208498
0.000345218
0.000515245
0.000710859
2.95037e-05
4.93247e-05
0.000101121
0.000192045
0.000307891
0.000382189
8.09998e-07
3.95981e-06
1.94065e-05
5.75409e-05
0.000118073
4.51425e-05
0.000277896
0.000374184
0.000579001
0.000765346
0.000948564
0.00112677
0.00129703
0.00145514
0.00159936
0.00173106
0.00185442
0.0019755
0.00210146
0.00224032
0.00240129
0.00259546
0.00283585
0.00313469
0.00349618
0.00388445
0.00426714
0.00463183
0.00494963
0.0051152
0.000335149
0.000394719
0.000465889
0.000616683
0.000779337
0.000949308
0.0011154
0.0012714
0.00141407
0.00154297
0.00166067
0.00177181
0.00188252
0.00200008
0.00213317
0.00229268
0.00249256
0.00274875
0.00307331
0.00345797
0.0038408
0.00421983
0.00456525
0.0047774
0.000473527
0.00049747
0.000509011
0.00055268
0.000659765
0.000795126
0.00094468
0.0010951
0.00123646
0.00136518
0.00148123
0.00158729
0.00168796
0.0017892
0.00189839
0.00202501
0.00218183
0.00238555
0.00265406
0.0029974
0.00337187
0.00374673
0.00409252
0.00435433
0.000655954
0.000606488
0.000630654
0.000637197
0.000660685
0.000721771
0.000818392
0.000939302
0.00106956
0.00119608
0.00131243
0.0014178
0.00151422
0.00160579
0.00169818
0.00179881
0.00191791
0.00206994
0.00227368
0.00254701
0.00289374
0.00324357
0.00357527
0.00386182
0.000826347
0.000774715
0.000766656
0.000785498
0.000786895
0.000794732
0.000821903
0.000874132
0.000953225
0.00105171
0.0011572
0.00125977
0.00135499
0.00144305
0.00152675
0.00161103
0.00170315
0.00181378
0.00195852
0.00215747
0.00242945
0.00275224
0.00306213
0.00333799
0.000976085
0.000953981
0.000943272
0.000950773
0.000963464
0.000960703
0.000955172
0.000956477
0.0009705
0.00100433
0.00106017
0.00113319
0.0012145
0.00129638
0.00137519
0.00145133
0.00152815
0.00161209
0.0017137
0.00184887
0.00203836
0.00230292
0.00259276
0.00282447
0.00110422
0.00112154
0.00112497
0.00113677
0.00114927
0.00115635
0.00114967
0.00113352
0.00111568
0.00110082
0.00109627
0.00110846
0.00114031
0.00118936
0.0012494
0.00131423
0.00138073
0.00144961
0.00152551
0.00161779
0.00174189
0.0019222
0.00217422
0.00237344
0.00121457
0.00126551
0.00129229
0.00131584
0.00133623
0.00134866
0.00135052
0.00134016
0.0013158
0.00128433
0.00124923
0.00121669
0.00119351
0.0011857
0.00119658
0.00122533
0.00126775
0.00131912
0.00137718
0.00144381
0.00152602
0.00163861
0.00182472
0.00199944
0.00130676
0.00138405
0.00143413
0.00147258
0.00150376
0.00152558
0.00153522
0.00153176
0.00151816
0.00148804
0.0014462
0.00139824
0.0013477
0.00130026
0.00126204
0.00123854
0.00123316
0.00124611
0.00127488
0.00131648
0.00137033
0.00143909
0.00155546
0.00170571
0.00138326
0.0014807
0.00154839
0.00159984
0.00164054
0.00167097
0.00168982
0.00169654
0.00168954
0.00167308
0.00163888
0.00158937
0.00153474
0.00147433
0.00141279
0.00135517
0.00130686
0.00127279
0.00125621
0.00125792
0.0012773
0.00131139
0.0013686
0.00148799
0.0014458
0.00155814
0.00163704
0.00169703
0.00174522
0.00178267
0.00180882
0.00182249
0.0018235
0.00181257
0.00179455
0.00176062
0.00171
0.00165251
0.00158848
0.00152136
0.00145422
0.00139167
0.00133838
0.0012984
0.00127517
0.00126912
0.00127932
0.00135317
0.00149537
0.00161784
0.00170311
0.00176734
0.00181901
0.00186043
0.00189168
0.0019122
0.00192163
0.00191971
0.00190595
0.00188378
0.00184817
0.00180355
0.00175329
0.00169262
0.00162519
0.00155583
0.00148869
0.00142648
0.00137257
0.00133063
0.00130096
0.00132803
0.00153256
0.0016617
0.001749
0.00181379
0.00186538
0.00190769
0.00194157
0.0019669
0.00198328
0.00199032
0.00198769
0.0019753
0.00195394
0.00192039
0.00187856
0.00183668
0.00179049
0.00173569
0.00167109
0.00160309
0.00153733
0.00147861
0.00143063
0.00142803
0.0015576
0.00169108
0.00177769
0.00183914
0.00188727
0.0019274
0.00196137
0.00198953
0.00201162
0.00202718
0.00203573
0.00203618
0.00202893
0.00201319
0.0019889
0.00195612
0.00191883
0.00187946
0.00184084
0.0017978
0.00174736
0.00169067
0.00164115
0.00162713
0.00157036
0.00170677
0.00179008
0.00184507
0.00188632
0.00192082
0.00195155
0.0019796
0.00200514
0.00202782
0.00204719
0.00206194
0.00207085
0.00207334
0.00206804
0.00205536
0.00203554
0.00200892
0.00197584
0.00194099
0.0019099
0.00188688
0.00187194
0.00186949
0.00157037
0.00170935
0.00178712
0.00183259
0.00186318
0.00188757
0.00190997
0.00193251
0.00195617
0.00198106
0.0020082
0.00203458
0.00205928
0.00208142
0.00209563
0.00210522
0.00210821
0.00210332
0.00209056
0.0020713
0.00204783
0.00202418
0.00200706
0.00200077
0.00155668
0.00169891
0.00176959
0.00180258
0.00181837
0.00182705
0.00183395
0.00184246
0.00185483
0.00187022
0.0018871
0.00190669
0.0019308
0.0019596
0.00198732
0.00201481
0.00204279
0.00206737
0.00208632
0.00209864
0.00210523
0.0021075
0.00210694
0.00210757
0.00152694
0.00167556
0.00173854
0.00175639
0.00175353
0.00174082
0.00172417
0.00170821
0.00169328
0.00168254
0.00168083
0.00169127
0.00171269
0.00174273
0.00177573
0.00181105
0.00184865
0.00188702
0.00192305
0.00195474
0.00198085
0.0020012
0.00201555
0.00202292
0.00147907
0.0016391
0.00169773
0.00169746
0.00167242
0.0016347
0.00158838
0.00153816
0.00149292
0.00146189
0.00144743
0.00144995
0.00146303
0.00148467
0.00151451
0.00155406
0.00159783
0.00164127
0.00168498
0.00172677
0.00176563
0.00180027
0.00182937
0.00185386
0.00140974
0.00159271
0.00164752
0.00163049
0.00158424
0.00151935
0.00144531
0.00136979
0.00130772
0.00125928
0.001223
0.00120219
0.00120858
0.00122317
0.00124735
0.00127382
0.00130655
0.00134563
0.00138704
0.00142829
0.00146761
0.00150326
0.00153476
0.00156679
0.0013167
0.00153431
0.00159054
0.00156151
0.0014988
0.00141508
0.00132471
0.00124154
0.00117313
0.00112023
0.00107811
0.00104749
0.00101872
0.00101764
0.0010205
0.00103653
0.00106313
0.00109654
0.0011327
0.00116671
0.00119532
0.00121544
0.00122434
0.00124269
0.00119487
0.00146328
0.00152979
0.0014989
0.00142673
0.00133379
0.00123655
0.00115252
0.00108693
0.00103717
0.00100087
0.000970707
0.000941522
0.000919182
0.000917933
0.000935188
0.000968527
0.0010133
0.00106453
0.00112026
0.00117115
0.00121305
0.00124846
0.00131471
0.00103871
0.00138441
0.00147094
0.0014516
0.00137883
0.0012829
0.0011923
0.00111951
0.00106552
0.00102524
0.000994597
0.000961165
0.000921142
0.000908309
0.000917033
0.000950271
0.00100754
0.00108379
0.00116949
0.00124992
0.00132763
0.00140143
0.00148705
0.00160901
0.000849321
0.00131137
0.00143005
0.00141615
0.00134502
0.00126088
0.0011858
0.00112751
0.0010831
0.00104722
0.00101149
0.000961722
0.000932438
0.000922359
0.000941488
0.000990935
0.00106478
0.00115393
0.00124969
0.00135189
0.00146204
0.00158628
0.00174466
0.00192032
7.30218e-07
2.72126e-06
1.12819e-05
3.55342e-05
9.1125e-05
0.000197704
2.77468e-05
4.6847e-05
8.43033e-05
0.000137309
0.000206596
0.000323999
0.000160612
0.00010221
0.000162784
0.000238286
0.000336717
0.000510677
0.000178067
0.000149104
0.000229758
0.000327382
0.000455962
0.000661904
0.000190372
0.000188814
0.000287442
0.000405826
0.000557135
0.000769074
0.000199262
0.000221712
0.000336936
0.000471881
0.000637334
0.000841226
4.79117e-05
0.000249073
0.000378619
0.000525292
0.000696061
0.000884176
4.87604e-05
0.000270913
0.00041259
0.00056619
0.000734943
0.000902643
4.95493e-05
0.000287379
0.000438924
0.000595094
0.000756314
0.000901249
5.00907e-05
0.000298452
0.000457772
0.00061322
0.000762412
0.000883604
5.03572e-05
0.000304701
0.000469677
0.0006209
0.000755572
0.000852904
5.03458e-05
0.000306383
0.000474438
0.00061954
0.000737898
0.00081179
5.00469e-05
0.00030333
0.000472729
0.000610201
0.000711211
0.000762292
4.94789e-05
0.000295771
0.000465019
0.000593865
0.000677028
0.000705769
4.87272e-05
0.000283657
0.000451872
0.000571361
0.000636595
0.000643821
4.78851e-05
0.000268436
0.000433808
0.000543454
0.00059163
0.00057957
4.71595e-05
0.00025349
0.000411387
0.000510914
0.000544162
0.000517934
0.00019825
0.000245527
0.000384634
0.000474174
0.000496296
0.00046273
0.000193443
0.000231576
0.000352795
0.000432729
0.00044842
0.000413696
0.000184662
0.000209937
0.000313203
0.000384352
0.000398795
0.000368442
0.000172132
0.000176355
0.000261066
0.000324
0.000342712
0.00032514
0.000155941
0.000126294
0.000190608
0.000243222
0.000269544
0.000275283
2.71645e-05
5.70832e-05
9.65941e-05
0.000135231
0.000162717
0.00020718
7.57101e-07
3.02516e-06
8.343e-06
1.76563e-05
3.02919e-05
9.08856e-05
0.000844719
0.00126813
0.00139362
0.00138692
0.00132743
0.00125869
0.00119846
0.0011499
0.00110691
0.00106928
0.00101354
0.000968477
0.000940614
0.000945336
0.000988684
0.00106513
0.00116489
0.0012787
0.00140124
0.00153197
0.00167653
0.00185316
0.00205454
0.00226418
0.000891482
0.00124709
0.00136692
0.00136473
0.00131635
0.00126053
0.00121021
0.00116391
0.00111694
0.00106805
0.0010069
0.000968603
0.000964368
0.0010048
0.0010873
0.0011998
0.00133237
0.00148073
0.00164468
0.00183002
0.00204688
0.00230705
0.00259996
0.00283549
0.000959325
0.00124924
0.00134581
0.00134295
0.00130202
0.00125402
0.00120837
0.00115285
0.00111095
0.00104156
0.000998751
0.000988319
0.00102516
0.00110898
0.00122649
0.00136475
0.00151993
0.00169531
0.00190084
0.00215091
0.00245861
0.00282238
0.00318851
0.00347652
0.00101944
0.0012508
0.0013228
0.00131503
0.00127773
0.0012324
0.00117765
0.0011378
0.00107028
0.00102356
0.00100816
0.00104233
0.00112659
0.00124615
0.00138694
0.00154446
0.00172401
0.00193751
0.00220092
0.00252986
0.00293065
0.00336334
0.00377502
0.0040688
0.0010613
0.00124168
0.00129143
0.00127745
0.00124008
0.00118458
0.00114871
0.00109308
0.00103946
0.00102301
0.00105753
0.00114294
0.00126321
0.00140385
0.00156088
0.00174025
0.0019553
0.00222421
0.00256555
0.00299034
0.00347784
0.00397306
0.00442919
0.00472191
0.00108053
0.00121863
0.00124835
0.00122769
0.00118224
0.0011421
0.00110205
0.00104835
0.0010343
0.00106928
0.00115399
0.00127238
0.00141037
0.0015642
0.00173918
0.0019477
0.00220821
0.00254258
0.0029684
0.00348627
0.0040397
0.00459714
0.00507227
0.00536119
0.0010791
0.00118063
0.00119286
0.0011678
0.00112356
0.00109886
0.00104861
0.00103448
0.00107069
0.00115643
0.00127468
0.00141111
0.00156156
0.00173024
0.00192794
0.00217202
0.00248538
0.00289087
0.00339993
0.00399099
0.00459882
0.00519097
0.00566504
0.00594526
0.00105916
0.00112873
0.00112726
0.00109145
0.00108035
0.00103965
0.00102496
0.00106312
0.00115054
0.00126917
0.00140419
0.00155093
0.00171274
0.00189884
0.00212433
0.00241045
0.0027822
0.00325972
0.00384435
0.00448697
0.00513761
0.00573717
0.00619757
0.00646845
0.00102363
0.00106596
0.00105783
0.00104218
0.0010182
0.00100273
0.00104621
0.00113609
0.00125596
0.00139055
0.00153428
0.00168969
0.00186483
0.00207236
0.00233023
0.0026617
0.00309122
0.00363313
0.00427697
0.00495367
0.0056249
0.00621602
0.00665625
0.00691326
0.000976039
0.000996557
0.000983173
0.000981226
0.000970477
0.00101487
0.00110686
0.00123084
0.00136865
0.00151219
0.00166285
0.00182803
0.00201902
0.00225076
0.00254277
0.00291852
0.00339954
0.00399247
0.00467553
0.00536779
0.00603859
0.00660794
0.00702997
0.00726166
0.000920134
0.000927096
0.000934308
0.000929298
0.000961992
0.00105968
0.00119225
0.00133731
0.00148375
0.00163196
0.0017891
0.0019659
0.00217547
0.00243359
0.00275957
0.0031749
0.00369618
0.00432204
0.00502186
0.00571106
0.00636221
0.00689976
0.00729806
0.00750373
0.000858735
0.000862047
0.000880867
0.000895309
0.00099382
0.00113688
0.00129292
0.00144688
0.00159682
0.0017491
0.00191427
0.00210486
0.00233465
0.00261898
0.00297528
0.00342121
0.00396733
0.00460518
0.00529873
0.00596714
0.00658113
0.00707781
0.0074449
0.00762987
0.000792761
0.000806039
0.000833384
0.000896572
0.00105427
0.00122803
0.00139716
0.0015554
0.00170769
0.00186472
0.0020395
0.00224552
0.00249611
0.00280475
0.00318528
0.00364992
0.0042028
0.00483012
0.00549421
0.0061243
0.0066846
0.00713266
0.00746156
0.00762553
0.000720714
0.000766038
0.000801193
0.000941918
0.00113925
0.00132918
0.00150333
0.00166241
0.00181658
0.0019796
0.00216575
0.00238833
0.00265909
0.00298834
0.00338497
0.00385478
0.00439551
0.00498988
0.00560182
0.00617558
0.00666604
0.00705596
0.00733687
0.00747773
0.000640222
0.000735681
0.000799693
0.00100099
0.00122905
0.00143137
0.00160814
0.00176761
0.00192459
0.00209517
0.0022941
0.00253357
0.00282272
0.00316769
0.00357151
0.00403302
0.00454393
0.0050848
0.0056233
0.00611888
0.00652494
0.00683713
0.00705946
0.00717065
0.000553805
0.000718188
0.000819901
0.00106837
0.00132706
0.0015365
0.00171293
0.00187219
0.0020329
0.00221253
0.00242535
0.00268145
0.0029865
0.00334179
0.00374426
0.00418594
0.00465292
0.00512407
0.00557101
0.00596162
0.00626823
0.00647271
0.00660598
0.0066704
0.000474555
0.000707046
0.000852203
0.00115935
0.00143288
0.00164372
0.00181775
0.00197696
0.00214267
0.00233285
0.00256036
0.00283237
0.00315045
0.00351096
0.00390512
0.00431893
0.00473339
0.00512523
0.00546812
0.00573486
0.00590254
0.00596296
0.00593834
0.00589807
0.000417696
0.00070598
0.000909489
0.00126737
0.00154649
0.0017525
0.00192275
0.00208251
0.00225473
0.00245695
0.00269977
0.00298672
0.00331511
0.0036767
0.00405796
0.0044402
0.00480037
0.00511254
0.00534946
0.00548325
0.00548621
0.00533708
0.00504231
0.00467814
0.000379886
0.000720462
0.000986674
0.00138831
0.00166215
0.00186169
0.00202848
0.00218991
0.0023702
0.00258577
0.00284415
0.00314488
0.00348117
0.00384093
0.0042072
0.00455837
0.00486903
0.00511166
0.00525791
0.00527814
0.00513664
0.00478026
0.00411068
0.00300507
0.000369668
0.000747263
0.00108318
0.00150923
0.00177464
0.00197202
0.00213585
0.00229992
0.00248972
0.00271963
0.00299339
0.00330649
0.00364852
0.00400454
0.00435556
0.00467881
0.00494877
0.00513896
0.0052238
0.00517959
0.00498341
0.00460861
0.0040158
0.00317342
0.000374581
0.000783209
0.0012117
0.00163773
0.00189865
0.00208667
0.00224571
0.00241306
0.00261362
0.00285837
0.00314668
0.00347014
0.00381545
0.00416585
0.00450141
0.00479944
0.00503564
0.00518593
0.00522852
0.0051452
0.00492143
0.00454429
0.00399753
0.00327852
0.00038827
0.000844284
0.00137485
0.00178208
0.00202843
0.00220382
0.00235769
0.0025294
0.00274176
0.00300116
0.00330229
0.00363324
0.00397863
0.00432068
0.00463934
0.00491266
0.00511812
0.00523467
0.0052448
0.00513582
0.00489972
0.00453162
0.00402837
0.00340513
0.000409152
0.000949822
0.00153912
0.00192944
0.00216243
0.0023228
0.00247142
0.00264855
0.00287337
0.00314648
0.00345781
0.00379256
0.00413403
0.0044641
0.00476307
0.00501015
0.0051849
0.00526945
0.00525059
0.00512086
0.00487809
0.00452403
0.00406358
0.0035119
0.000440596
0.00108342
0.00173704
0.00209929
0.00230207
0.00244234
0.00258592
0.00276948
0.00300705
0.00329227
0.00361046
0.00394479
0.00427794
0.00459192
0.00486773
0.00508589
0.00522816
0.00527989
0.005232
0.00508182
0.00483222
0.00449018
0.0040663
0.00357522
9.65844e-07
1.27872e-05
4.59257e-05
0.000109698
0.000196412
6.12863e-05
3.1106e-05
0.000115774
0.000234646
0.000386693
0.000476083
0.000570298
4.8742e-05
0.00023911
0.000453068
0.000694471
0.0009186
0.00112584
5.46785e-05
0.000342435
0.000648949
0.000962882
0.00127131
0.00156882
5.93004e-05
0.000422898
0.000812549
0.00118325
0.00153971
0.0018807
6.28771e-05
0.000486032
0.000943043
0.00135888
0.00174651
0.00209991
6.55886e-05
0.000535945
0.00104416
0.0014939
0.00189956
0.00225215
6.75699e-05
0.000575801
0.00112012
0.00159451
0.00200868
0.00235439
6.89264e-05
0.000607484
0.00117431
0.00166363
0.0020813
0.00241823
6.97426e-05
0.000631708
0.00120912
0.00170465
0.00212311
0.00245146
7.00889e-05
0.000648192
0.00122533
0.00172026
0.00213806
0.00245851
7.00289e-05
0.000656195
0.00122309
0.00171257
0.00212791
0.00244307
6.96273e-05
0.000654258
0.00120242
0.00168276
0.00209397
0.00240695
6.88929e-05
0.000641619
0.00116311
0.00163001
0.00203645
0.00235069
6.77504e-05
0.000618766
0.00110515
0.001555
0.00195501
0.00227129
6.61585e-05
0.00058584
0.0010302
0.00145858
0.00185271
0.00217249
6.40755e-05
0.00054268
0.000937945
0.0013392
0.00172589
0.00204886
6.14409e-05
0.000489049
0.000829425
0.00119695
0.00157214
0.00189618
5.81599e-05
0.000424469
0.000706296
0.00103304
0.00138786
0.0017084
5.40849e-05
0.000349538
0.000570868
0.000849347
0.0011697
0.0014776
4.89953e-05
0.000264372
0.000426085
0.000650241
0.000916393
0.00119118
0.000190166
0.000170309
0.000275915
0.00044107
0.000639413
0.000833152
3.35523e-05
7.21422e-05
0.0001289
0.000235003
0.000361813
0.000413711
9.61018e-07
6.02384e-06
2.5147e-05
7.30175e-05
0.000138442
4.70108e-05
0.000538297
0.00138578
0.002008
0.00228739
0.00244051
0.00255898
0.00269944
0.00289051
0.00314082
0.00343614
0.00375748
0.00408703
0.0044075
0.0047014
0.00495055
0.0051369
0.00524447
0.00526181
0.00518398
0.00501306
0.00475672
0.00442641
0.00403663
0.00360119
0.00122125
0.00190253
0.0022716
0.00245809
0.00256537
0.00266867
0.00280995
0.00301066
0.00327301
0.00357582
0.00389643
0.00421703
0.00452088
0.00479113
0.00501052
0.00516241
0.00523309
0.00521442
0.00510574
0.00491399
0.00465154
0.00433362
0.00397759
0.00359757
0.00172262
0.00222172
0.00246899
0.00259293
0.00267222
0.00276988
0.00291683
0.00312899
0.00340249
0.00370941
0.0040254
0.00433334
0.00461724
0.00486092
0.00504794
0.00516307
0.00519489
0.00513878
0.00499875
0.0047869
0.00452029
0.00421738
0.00389739
0.00357466
0.00206394
0.00243379
0.00261467
0.00269939
0.00276482
0.00286382
0.00302019
0.00324469
0.00352783
0.00383523
0.00414308
0.00443528
0.0046966
0.00491141
0.005064
0.00514045
0.00513182
0.00503748
0.00486669
0.00463721
0.00437058
0.00408749
0.00380724
0.00354247
0.00230097
0.00259128
0.00272444
0.00278463
0.00284642
0.00295176
0.00311996
0.0033568
0.0036475
0.00395193
0.00424875
0.00452287
0.00475968
0.00494393
0.00506046
0.00509674
0.00504672
0.00491446
0.00471535
0.00447306
0.00421278
0.0039555
0.00371794
0.00350851
0.00246689
0.00270575
0.00280616
0.00285326
0.00291917
0.00303432
0.00321575
0.00346427
0.00376
0.00405858
0.00434225
0.00459669
0.00480769
0.00496017
0.00503947
0.00503465
0.0049432
0.00477498
0.00455227
0.0043043
0.00405797
0.00383185
0.00363736
0.00347724
0.00258272
0.00278535
0.00286565
0.00290882
0.00298447
0.00311162
0.00330687
0.00356626
0.00386366
0.00415476
0.00442395
0.00465775
0.00484216
0.00496211
0.00500343
0.00495724
0.00482564
0.00462541
0.00438608
0.00414095
0.00391577
0.00372377
0.00356961
0.00345067
0.0026607
0.00283807
0.00290767
0.00295407
0.00304288
0.00318325
0.00339234
0.00366153
0.00395833
0.00424069
0.00449463
0.00470735
0.00486482
0.00495183
0.00495489
0.00486799
0.00469905
0.00447279
0.00422536
0.00399151
0.00379254
0.00363455
0.00351559
0.00342922
0.00270866
0.00286987
0.00293586
0.00299118
0.00309376
0.00324838
0.0034711
0.00374908
0.00404389
0.00431682
0.00455531
0.00474694
0.00487746
0.00493147
0.0048966
0.00477071
0.00456889
0.00432416
0.0040775
0.0038617
0.00369102
0.00356418
0.00347419
0.00341258
0.00273178
0.00288458
0.0029527
0.00302115
0.00313677
0.00330613
0.00354222
0.00382824
0.00412043
0.00438385
0.00460713
0.00477803
0.00488187
0.0049032
0.00483142
0.00466947
0.00444067
0.00418576
0.00394771
0.00375405
0.00361087
0.00351069
0.00344347
0.00340011
0.0027343
0.00288487
0.00295969
0.003044
0.00317205
0.00335593
0.00360503
0.00389865
0.00418828
0.00444264
0.00465135
0.00480212
0.00487982
0.00486922
0.00476233
0.00456841
0.00431947
0.00406238
0.00383871
0.00366844
0.00354988
0.0034713
0.00342127
0.00339111
0.00271902
0.00287249
0.00295766
0.00305932
0.00319896
0.00339704
0.00365897
0.00396018
0.00424795
0.00449415
0.0046892
0.00482068
0.00487304
0.00483173
0.00469234
0.00447145
0.0042095
0.00395693
0.00375091
0.00360298
0.00350514
0.00344333
0.00340543
0.00338491
0.00268758
0.00284848
0.00294697
0.00306605
0.00321646
0.00342864
0.00370363
0.00401292
0.0043001
0.00453939
0.00472192
0.00483511
0.0048632
0.00479292
0.00462441
0.00438211
0.00411373
0.00387048
0.00368301
0.00355485
0.00347365
0.00342328
0.00339533
0.00338094
0.00264074
0.00281334
0.00292788
0.00306194
0.00322304
0.00344987
0.00373876
0.00405715
0.00434546
0.00457933
0.00475066
0.00484676
0.00485197
0.00475498
0.0045613
0.00430323
0.00403389
0.00380264
0.00363269
0.00352091
0.00345221
0.003411
0.00338937
0.00337862
0.00257855
0.00276712
0.00290058
0.00304338
0.00321703
0.00346003
0.00376431
0.00409332
0.00438481
0.00461496
0.00477651
0.00485689
0.00484093
0.00472001
0.0045055
0.0042369
0.00397063
0.00375219
0.00359758
0.00349872
0.00343905
0.003404
0.00338597
0.00337733
0.00249948
0.0027095
0.00286256
0.00301117
0.00319799
0.00345891
0.00378052
0.00412208
0.00441896
0.00464714
0.00480044
0.00486662
0.00483155
0.00468988
0.004459
0.00418444
0.00392373
0.00371747
0.00357533
0.00348581
0.00343229
0.0034013
0.00338508
0.00337698
0.00240559
0.00264048
0.00281085
0.00296412
0.00316534
0.00344656
0.00378797
0.00414427
0.00444875
0.00467669
0.00482327
0.00487694
0.0048251
0.00466615
0.00442323
0.00414635
0.00389236
0.00369665
0.00356408
0.00348109
0.0034314
0.00340214
0.00338587
0.00337725
0.00229433
0.00256044
0.00273983
0.00290024
0.00311861
0.00342341
0.00378751
0.00416096
0.00447502
0.00470433
0.00484571
0.00488866
0.00482263
0.00465003
0.00439908
0.00412256
0.00387532
0.00368828
0.00356202
0.00348269
0.0034344
0.0034054
0.00338822
0.00337807
0.00216341
0.00246769
0.00264686
0.00281863
0.00305803
0.00339044
0.0037805
0.00417345
0.00449865
0.00473068
0.00486828
0.0049024
0.00482494
0.00464235
0.00438696
0.00411283
0.00387201
0.00369056
0.00356806
0.00349001
0.00344128
0.00341082
0.00339158
0.0033792
0.00201115
0.00235823
0.00253212
0.00271986
0.00298507
0.00334947
0.0037688
0.00418339
0.0045206
0.00475632
0.00489141
0.0049186
0.00483258
0.00464362
0.00438687
0.00411621
0.00388031
0.00370273
0.00358141
0.00350248
0.00345166
0.00341842
0.00339612
0.00338074
0.00183653
0.00222493
0.00239599
0.00260445
0.0029018
0.00330325
0.00375498
0.00419274
0.00454189
0.00478178
0.00491544
0.00493757
0.00484586
0.00465377
0.00439844
0.00413209
0.0039003
0.00372421
0.00360173
0.00351999
0.00346554
0.0034283
0.00340197
0.0033828
0.00163467
0.00206002
0.00224141
0.00247557
0.00281177
0.00325579
0.00374237
0.00420382
0.0045637
0.00480761
0.00494068
0.00495943
0.00486478
0.00467296
0.0044215
0.00416015
0.00393129
0.00375471
0.00362903
0.00354269
0.00348312
0.00344069
0.00340934
0.00338554
0.00137995
0.00187283
0.00207915
0.00234026
0.00272197
0.00321296
0.00373513
0.00421899
0.00458679
0.0048338
0.00496651
0.00498379
0.00488939
0.00470103
0.00445546
0.00419967
0.00397293
0.00379427
0.00366359
0.00357097
0.00350484
0.00345596
0.00341855
0.00338919
0.00106153
0.00170008
0.00192056
0.00221031
0.00264366
0.0031829
0.00373787
0.00423989
0.00461122
0.00486008
0.00499246
0.0050104
0.00491896
0.00473691
0.0044995
0.00425007
0.00402502
0.0038431
0.00370592
0.00360546
0.00353128
0.00347465
0.00343001
0.00339403
9.74343e-07
3.69939e-06
1.19493e-05
3.63892e-05
9.49453e-05
4.96327e-05
3.14246e-05
6.06175e-05
8.79663e-05
0.000105573
0.000109877
0.00012682
0.00017706
0.000120016
0.00014811
0.000152721
0.000167775
0.000235059
0.000192549
0.000165101
0.000195394
0.000200488
0.000230718
0.000333793
4.81998e-05
0.000202279
0.000238304
0.000254599
0.000283627
0.000424972
5.17783e-05
0.000236116
0.0002803
0.000300263
0.000334978
0.000509278
5.46901e-05
0.000266479
0.000321724
0.000343045
0.000390215
0.000583714
5.70493e-05
0.000293364
0.000360752
0.000386957
0.000446919
0.000649328
5.88545e-05
0.000317353
0.000397175
0.000432497
0.000505037
0.000707756
6.01195e-05
0.000338192
0.000431123
0.000479907
0.000564711
0.000760425
6.08656e-05
0.000355318
0.000463298
0.000527863
0.000623112
0.000810614
6.11189e-05
0.000368269
0.000493508
0.000574672
0.000677819
0.000847991
6.09484e-05
0.000376556
0.000520773
0.000618205
0.000728168
0.000888113
6.03776e-05
0.00037971
0.000544214
0.000656909
0.000779889
0.000923998
5.95626e-05
0.000377368
0.000561995
0.000688562
0.000820167
0.000954469
5.86174e-05
0.000368828
0.000571601
0.000710425
0.000847453
0.000978247
5.73841e-05
0.000354291
0.000571273
0.000723323
0.00085791
0.000992951
5.57223e-05
0.000334909
0.000558766
0.000724397
0.000850458
0.000992906
5.34859e-05
0.000310697
0.000532158
0.000706068
0.000829
0.000965937
5.06412e-05
0.00027908
0.000487466
0.00065846
0.000792052
0.00090463
4.71106e-05
0.000235832
0.000418811
0.000579711
0.000717693
0.00082174
0.000181705
0.000174753
0.000317501
0.00045684
0.000585313
0.000686085
3.21876e-05
8.84483e-05
0.000177136
0.000275292
0.000383155
0.000416396
9.36335e-07
7.6604e-06
2.94438e-05
6.65908e-05
0.000124563
0.000197619
0.00091653
0.00154542
0.00176231
0.00210302
0.00259413
0.00317417
0.00375485
0.00426554
0.00463662
0.00488519
0.00501781
0.00503855
0.0049529
0.00478004
0.00455287
0.00431082
0.00408748
0.00390158
0.00375667
0.00364692
0.00356322
0.00349742
0.00344409
0.00340023
0.000841904
0.00139795
0.00166211
0.0020488
0.00257995
0.00319005
0.00378754
0.00429369
0.00466205
0.00490891
0.00504314
0.00506777
0.00499044
0.00482951
0.00461474
0.00438143
0.00416034
0.00397022
0.00381671
0.00369635
0.00360161
0.00352499
0.00346115
0.00340783
0.000874238
0.00132643
0.00161592
0.00203402
0.00259765
0.00322782
0.00383218
0.0043248
0.00468648
0.00493024
0.00506629
0.00509683
0.00503045
0.00488414
0.00468412
0.00446132
0.00424365
0.00404972
0.00388716
0.00375501
0.00364755
0.00355813
0.00348173
0.00341697
0.000908614
0.0012819
0.00159528
0.00204911
0.0026402
0.00328174
0.00388236
0.0043562
0.00470728
0.00494879
0.00508618
0.00512429
0.00507137
0.00494235
0.00475958
0.00454953
0.00433713
0.00414051
0.003969
0.00382412
0.00370218
0.00359779
0.00350687
0.00342828
0.000931367
0.00125697
0.00159655
0.00208653
0.0027004
0.00334671
0.00392726
0.00438408
0.00472364
0.00496099
0.00510057
0.00514806
0.005111
0.00500188
0.00483897
0.00464433
0.00443968
0.00424228
0.00406267
0.00390468
0.0037668
0.00364531
0.00353741
0.00344202
0.000947342
0.00124837
0.00161644
0.00214002
0.00277052
0.00341296
0.00396599
0.00440182
0.00473154
0.00496399
0.00510669
0.00516536
0.00514641
0.00505961
0.00491922
0.00474292
0.0045491
0.00435363
0.0041677
0.00399701
0.00384226
0.00370164
0.00357392
0.00345813
0.000961546
0.00125438
0.00165158
0.00220401
0.00284392
0.00347031
0.00399517
0.00441025
0.0047267
0.00495445
0.00510136
0.00517285
0.00517396
0.00511165
0.00499629
0.0048414
0.00466191
0.00447184
0.00428233
0.00410039
0.00392863
0.00376719
0.00361666
0.00347634
0.000977978
0.00127348
0.00169826
0.00227232
0.00291315
0.00351268
0.00400761
0.00440212
0.00470528
0.00492885
0.00508103
0.00516675
0.00518944
0.00515338
0.00506529
0.00493475
0.00477325
0.0045926
0.00440314
0.00421248
0.00402462
0.0038414
0.0036653
0.00349605
0.000999266
0.00130349
0.00175171
0.00233762
0.0029695
0.00353307
0.00400126
0.0043736
0.0046636
0.0048837
0.00504213
0.00514307
0.00518836
0.00517975
0.00512067
0.00501707
0.0048771
0.00471001
0.00452483
0.00432893
0.00412703
0.00392215
0.0037184
0.00351598
0.00102657
0.00134143
0.00180538
0.00239263
0.00299744
0.00353189
0.00397025
0.00432075
0.00459833
0.00481586
0.00498129
0.00509798
0.00516626
0.00518565
0.00515668
0.00508201
0.0049666
0.00481702
0.00464046
0.00444339
0.00423047
0.00400523
0.0037728
0.00353373
0.00105963
0.00138428
0.00184835
0.00242252
0.00300174
0.00350155
0.00391076
0.00424062
0.00450702
0.00472286
0.00489572
0.00502813
0.00511914
0.00516637
0.00516785
0.00512335
0.00503481
0.00490608
0.00474217
0.00454809
0.0043277
0.00408431
0.00382331
0.00354531
0.00108745
0.00141173
0.00188004
0.00243213
0.00297353
0.00343875
0.00382053
0.00413165
0.00438832
0.00460323
0.0047835
0.00493101
0.00504382
0.00511802
0.00514956
0.00513566
0.00507548
0.00497016
0.00482228
0.00463495
0.00441064
0.00415171
0.00386289
0.00354485
0.00111868
0.00143702
0.00188676
0.00240758
0.00291012
0.00334241
0.00369925
0.00399386
0.00424221
0.0044566
0.00464379
0.00480524
0.00493832
0.005038
0.00509857
0.00511504
0.005084
0.0050039
0.00487475
0.00469734
0.00447224
0.00420009
0.00388396
0.00352488
0.00114027
0.00144371
0.00186465
0.00234759
0.00281202
0.00321385
0.00354858
0.00382885
0.00406998
0.00428384
0.00447697
0.00465068
0.00480203
0.00492528
0.00501345
0.0050597
0.00505827
0.00500494
0.00489696
0.00473239
0.00450926
0.00422555
0.00388105