/*--------------------------------*- C++ -*----------------------------------*\
  =========                 |
  \\      /  F ield         | OpenFOAM: The Open Source CFD Toolbox
   \\    /   O peration     | Website:  https://openfoam.org
    \\  /    A nd           | Version:  11
     \\/     M anipulation  |
\*---------------------------------------------------------------------------*/
FoamFile
{
    format      ascii;
    class       volVectorField;
    location    "1.32";
    object      U;
}
// * * * * * * * * * * * * * * * * * * * * * * * * * * * * * * * * * * * * * //

dimensions      [0 1 -1 0 0 0 0];

internalField   nonuniform List<vector> 
2880
(
(0.0420399 0.00680948 -2.41866e-20)
(0.0617797 -0.0256575 -5.16102e-19)
(0.112039 -0.104329 2.11998e-20)
(0.14041 -0.150521 3.82177e-19)
(0.203158 -0.256724 -6.33074e-19)
(0.172631 -0.23978 0)
(0.0433516 -0.0207172 6.47592e-19)
(0.0639073 -0.0639449 0)
(0.108415 -0.135557 8.02163e-19)
(0.132491 -0.181328 -6.804e-19)
(0.172859 -0.245815 3.57095e-19)
(0.169088 -0.232054 -3.37075e-19)
(0.040753 -0.0341202 -8.83002e-21)
(0.0582469 -0.0827937 0)
(0.095421 -0.146453 -3.05977e-19)
(0.11505 -0.185768 5.71278e-19)
(0.140935 -0.223376 2.02781e-19)
(0.14538 -0.211022 3.80988e-19)
(0.0366227 -0.0460116 8.25849e-21)
(0.0510331 -0.0962851 -4.24376e-19)
(0.0805495 -0.151112 0)
(0.0960979 -0.181868 3.71232e-21)
(0.114866 -0.202126 -5.20587e-19)
(0.127169 -0.187753 0)
(0.0318031 -0.058374 -5.27343e-19)
(0.0433637 -0.106091 4.07244e-19)
(0.0654475 -0.151551 -3.2569e-19)
(0.0772951 -0.173477 -2.79465e-19)
(0.0913699 -0.181978 2.51639e-19)
(0.106646 -0.165462 0)
(0.0263874 -0.0688606 5.54239e-19)
(0.0352147 -0.11208 2.54667e-20)
(0.0503823 -0.148435 2.94286e-19)
(0.0587683 -0.162174 3.43564e-19)
(0.0689152 -0.162105 -6.02949e-20)
(0.0835017 -0.14361 -2.28868e-19)
(0.0141032 -0.0765422 0)
(0.0253838 -0.114049 0)
(0.0351007 -0.142477 0)
(0.040323 -0.148938 3.5466e-20)
(0.0466173 -0.142295 3.16629e-20)
(0.0583014 -0.121738 1.68577e-19)
(0.000366776 -0.0787328 -6.84798e-19)
(0.0138617 -0.112908 1.20139e-20)
(0.0195276 -0.134601 -3.85439e-20)
(0.0217604 -0.134606 -4.58257e-19)
(0.0243232 -0.122365 -8.92474e-20)
(0.0317311 -0.099616 1.09454e-19)
(-0.0103061 -0.079819 6.5149e-19)
(0.00146684 -0.110212 -3.82795e-19)
(0.00386181 -0.125652 -3.79268e-20)
(0.0032887 -0.119741 3.05036e-20)
(0.00199293 -0.102316 0)
(0.00438032 -0.0772932 -1.62413e-19)
(-0.0199838 -0.0807109 6.64997e-19)
(-0.0111009 -0.10663 3.99606e-19)
(-0.0116221 -0.116251 2.77038e-19)
(-0.0149062 -0.104647 2.22998e-19)
(-0.0201086 -0.0823483 2.84336e-20)
(-0.0230646 -0.0547884 2.68012e-19)
(-0.0283783 -0.0804831 -1.32919e-18)
(-0.02339 -0.102506 3.98477e-19)
(-0.0266744 -0.106772 -2.72867e-19)
(-0.0326134 -0.089631 -2.85791e-19)
(-0.0416108 -0.0626243 0)
(-0.0499496 -0.0321987 0)
(-0.0355163 -0.0788332 -1.25224e-21)
(-0.0351161 -0.0980768 -3.70925e-19)
(-0.0411205 -0.097453 -2.91992e-19)
(-0.0495861 -0.0749767 5.06442e-19)
(-0.0621487 -0.0433021 0)
(-0.0756426 -0.00965931 2.10778e-19)
(-0.041523 -0.075752 6.86048e-19)
(-0.0460782 -0.0934371 1.21037e-20)
(-0.0548368 -0.0884616 2.73646e-19)
(-0.0656112 -0.0609231 -2.52694e-19)
(-0.0813787 -0.0245684 0)
(-0.0995564 0.0126639 -2.09541e-19)
(-0.0464783 -0.0712191 -1.05413e-20)
(-0.0561285 -0.0886269 1.80276e-19)
(-0.0677367 -0.0799386 1.55313e-19)
(-0.0805502 -0.047665 -1.42537e-19)
(-0.0990103 -0.00664812 -9.94851e-20)
(-0.121152 0.0345594 0)
(-0.050408 -0.0652749 -5.20419e-21)
(-0.0651596 -0.083649 -1.87564e-19)
(-0.0797953 -0.0719717 -2.21295e-19)
(-0.0943389 -0.035412 1.43366e-19)
(-0.114828 0.010189 9.97303e-20)
(-0.139979 0.055771 5.22855e-20)
(-0.0532827 -0.0580503 1.66764e-19)
(-0.0730939 -0.0784339 0)
(-0.0910549 -0.0646126 7.47765e-20)
(-0.106996 -0.0243879 0)
(-0.128713 0.0256102 0)
(-0.155666 0.0759791 -3.03651e-23)
(-0.0549825 -0.0498911 -1.67221e-19)
(-0.07988 -0.0728452 -3.05187e-21)
(-0.101631 -0.0578785 2.34982e-21)
(-0.118643 -0.0148377 0)
(-0.140662 0.039202 0)
(-0.167924 0.0947714 -5.94628e-20)
(-0.055283 -0.0413668 0)
(-0.0854264 -0.066646 0)
(-0.111708 -0.0517348 -3.75824e-20)
(-0.129515 -0.00702563 -2.06628e-21)
(-0.150818 0.0504473 8.93622e-22)
(-0.176554 0.111573 0)
(-0.0541463 -0.0297681 0)
(-0.0894814 -0.0594357 0)
(-0.121532 -0.0460635 4.54055e-20)
(-0.139983 -0.00121504 -6.31304e-20)
(-0.159515 0.0586866 -7.28048e-21)
(-0.181423 0.125569 0)
(-0.0503046 -0.0169889 4.3612e-21)
(-0.0916813 -0.0506338 -2.20252e-19)
(-0.131396 -0.0406315 1.06471e-20)
(-0.15059 0.00234361 6.1831e-20)
(-0.167395 0.0630865 -1.54796e-20)
(-0.182353 0.135641 -1.51888e-20)
(-0.0454327 -0.00599887 0)
(-0.0927694 -0.0398314 2.40335e-19)
(-0.141536 -0.0352098 1.14174e-20)
(-0.162078 0.00336536 5.44653e-22)
(-0.175565 0.0625367 -4.73323e-20)
(-0.178748 0.140238 2.7289e-20)
(-0.0409763 0.00407059 2.86472e-19)
(-0.093747 -0.027147 1.5186e-20)
(-0.151882 -0.0297557 1.7644e-19)
(-0.175274 0.00147241 0)
(-0.185724 0.0556029 3.27457e-20)
(-0.168761 0.137526 -5.8561e-20)
(-0.0353867 0.015318 -3.29878e-19)
(-0.0924352 -0.0117234 0)
(-0.161303 -0.0237259 -5.79589e-19)
(-0.190493 -0.00284016 -2.03942e-20)
(-0.199565 0.0411716 0)
(-0.146234 0.126614 6.3316e-20)
(-0.0219583 0.0343891 0)
(-0.0736931 0.0183185 3.42402e-20)
(-0.162753 -0.0017156 8.25638e-19)
(-0.205483 0.00581335 0)
(-0.216729 0.0352918 -2.79776e-19)
(-0.118021 0.12794 -2.05431e-19)
(0.804946 -0.426145 2.25226e-20)
(1.10621 -0.481851 1.14124e-20)
(1.23867 -0.459978 4.87593e-20)
(1.31155 -0.429067 -8.64267e-20)
(1.35594 -0.395766 0)
(1.38226 -0.364623 -5.279e-20)
(1.39724 -0.331586 3.19098e-20)
(1.40539 -0.299089 -8.00038e-21)
(1.40886 -0.267824 2.28332e-20)
(1.40883 -0.238036 0)
(1.40596 -0.209885 0)
(1.4006 -0.183496 0)
(1.39304 -0.158961 -1.05711e-20)
(1.3835 -0.136338 0)
(1.37213 -0.115668 2.71839e-20)
(1.35904 -0.0969936 -1.91352e-20)
(1.34421 -0.080384 0)
(1.3275 -0.0659471 -1.98573e-20)
(1.30863 -0.0538498 0)
(1.28707 -0.0441843 -1.61777e-20)
(1.26184 -0.0370826 2.08685e-20)
(1.23222 -0.033954 -2.49825e-20)
(1.19845 -0.039765 2.07788e-20)
(1.15724 -0.0562467 -2.22886e-20)
(0.50752 -0.225782 -6.18724e-20)
(0.939666 -0.351601 5.40021e-20)
(1.17254 -0.397443 -1.91126e-19)
(1.28734 -0.396793 1.66918e-19)
(1.35035 -0.378593 -1.35578e-19)
(1.38867 -0.352038 5.28548e-20)
(1.41332 -0.324429 -9.86914e-20)
(1.42767 -0.295936 0)
(1.43524 -0.265783 -2.17669e-20)
(1.43792 -0.235895 -1.80289e-20)
(1.43675 -0.207026 3.7129e-20)
(1.4324 -0.179546 1.37119e-20)
(1.42532 -0.153711 8.12862e-21)
(1.41584 -0.129714 -5.98927e-21)
(1.40424 -0.107697 5.68028e-21)
(1.39067 -0.0877794 1.10776e-20)
(1.37518 -0.0700814 -2.25311e-20)
(1.3577 -0.0547508 1.23411e-20)
(1.33803 -0.0419637 2.81451e-20)
(1.31579 -0.0318718 -1.02338e-20)
(1.29006 -0.0246076 -6.3265e-20)
(1.26002 -0.0215067 4.22572e-20)
(1.22581 -0.0275186 -3.5338e-20)
(1.18394 -0.0456124 7.12438e-20)
(0.332425 -0.15457 2.69972e-19)
(0.703628 -0.223292 -2.44638e-19)
(0.99759 -0.288656 1.18701e-19)
(1.19676 -0.330639 3.71495e-20)
(1.30874 -0.339364 2.14679e-19)
(1.37261 -0.328648 -5.59619e-20)
(1.41132 -0.308747 6.77426e-20)
(1.4369 -0.283353 2.95285e-20)
(1.4535 -0.257617 4.07405e-20)
(1.46214 -0.230019 -6.56314e-21)
(1.46505 -0.201418 -8.31652e-20)
(1.46339 -0.173389 -1.38575e-20)
(1.45796 -0.146598 1.3352e-20)
(1.44937 -0.121418 -9.02801e-21)
(1.43809 -0.0981246 -1.08213e-20)
(1.4244 -0.0769422 0)
(1.40849 -0.0580723 -1.07668e-20)
(1.39035 -0.0417195 1.56668e-20)
(1.36988 -0.0280916 -2.43928e-20)
(1.34687 -0.0173859 1.77047e-20)
(1.32064 -0.0097191 -8.95275e-21)
(1.29035 -0.00635558 -5.54068e-20)
(1.25593 -0.0121107 2.33844e-20)
(1.21384 -0.0315767 -2.82208e-20)
(0.243556 -0.130253 -2.26736e-19)
(0.507716 -0.142773 -9.00842e-20)
(0.781887 -0.186839 -2.61891e-19)
(1.01094 -0.23237 2.96731e-19)
(1.18698 -0.266428 -3.36155e-19)
(1.30602 -0.280972 3.00285e-20)
(1.37821 -0.276577 5.6005e-20)
(1.42356 -0.261792 -8.79435e-21)
(1.45286 -0.240115 -6.3263e-20)
(1.47253 -0.214962 -5.58857e-20)
(1.48436 -0.189829 1.15796e-19)
(1.4888 -0.163154 -7.18714e-20)
(1.48756 -0.136174 4.25547e-20)
(1.48167 -0.110238 -6.28937e-20)
(1.47198 -0.0859442 3.57779e-20)
(1.45908 -0.0636507 -1.84118e-20)
(1.44337 -0.0436534 4.10989e-22)
(1.42502 -0.0262376 3.43204e-21)
(1.40405 -0.011682 6.42057e-21)
(1.38033 -0.000205514 0)
(1.35358 0.00802266 1.42711e-20)
(1.32318 0.011939 3.38593e-20)
(1.28883 0.00700045 -2.59401e-20)
(1.24718 -0.0134129 -8.66278e-21)
(0.186166 -0.116171 0)
(0.367493 -0.0997118 2.56263e-19)
(0.588605 -0.115228 1.03979e-19)
(0.802841 -0.146072 1.14037e-20)
(0.992221 -0.178445 -9.9801e-20)
(1.14965 -0.20352 5.71619e-20)
(1.27409 -0.218153 6.19466e-20)
(1.36219 -0.219622 -9.61275e-20)
(1.41978 -0.208938 0)
(1.45779 -0.191531 -3.51383e-21)
(1.48253 -0.168746 -4.96719e-20)
(1.49835 -0.143855 -1.22134e-20)
(1.50635 -0.119375 -4.09331e-20)
(1.5069 -0.0942559 2.27775e-20)
(1.50159 -0.0695496 4.65146e-20)
(1.4915 -0.0464793 -6.12526e-20)
(1.47746 -0.0255939 4.0826e-20)
(1.45998 -0.00724995 -1.54293e-20)
(1.43931 0.00820585 -6.64851e-21)
(1.41548 0.0204748 1.15012e-21)
(1.3884 0.0293489 -5.23871e-21)
(1.35801 0.0340194 7.16216e-21)
(1.32408 0.0304502 6.30682e-21)
(1.28381 0.00973735 0)
(0.1404 -0.101627 0)
(0.267155 -0.0741126 6.61118e-20)
(0.43296 -0.0702304 -5.99995e-20)
(0.611763 -0.0834917 9.54245e-20)
(0.785818 -0.10458 7.23004e-20)
(0.946872 -0.126082 0)
(1.0909 -0.143716 1.32286e-19)
(1.2147 -0.154243 0)
(1.31624 -0.156717 -1.00228e-19)
(1.39226 -0.150422 7.55466e-20)
(1.4441 -0.135675 -8.49037e-20)
(1.4788 -0.116385 -5.55456e-20)
(1.50063 -0.0933286 5.38906e-20)
(1.5132 -0.0692563 1.09804e-19)
(1.51765 -0.0461812 -3.7433e-20)
(1.51446 -0.0236036 -5.34567e-20)
(1.50516 -0.00226091 -3.07395e-20)
(1.49087 0.0167565 1.35812e-20)
(1.47228 0.0329251 -5.6953e-21)
(1.44975 0.0458747 -2.6164e-21)
(1.42333 0.0553649 1.18032e-20)
(1.39339 0.060752 -1.84054e-20)
(1.36035 0.058946 3.8712e-21)
(1.32285 0.0388395 0)
(0.0989164 -0.084539 -3.10942e-19)
(0.188216 -0.0541842 0)
(0.309656 -0.0403967 0)
(0.44924 -0.0410764 0)
(0.595438 -0.0506866 0)
(0.740674 -0.0641558 7.60539e-20)
(0.880848 -0.0775135 -3.43702e-19)
(1.01281 -0.0879448 1.26212e-19)
(1.1337 -0.0935224 2.0271e-19)
(1.24068 -0.0929962 -6.77833e-21)
(1.33155 -0.0866211 -1.04535e-20)
(1.40249 -0.074477 -6.63178e-20)
(1.45213 -0.0568388 6.27054e-20)
(1.48509 -0.0364538 4.38876e-20)
(1.5048 -0.0141497 -4.57175e-20)
(1.51445 0.00803123 -5.97905e-20)
(1.51559 0.0284534 1.03161e-19)
(1.50893 0.0472307 2.82862e-20)
(1.49582 0.0638513 -2.15143e-20)
(1.4773 0.0773649 -6.24757e-21)
(1.45381 0.0873626 -6.41675e-21)
(1.42587 0.0932962 6.69436e-22)
(1.39451 0.0933857 3.62016e-21)
(1.36151 0.0749342 -1.3598e-21)
(0.0589497 -0.0651508 3.42876e-19)
(0.120614 -0.0348773 -3.44873e-19)
(0.207761 -0.0171235 0)
(0.312665 -0.0108794 0)
(0.428447 -0.0127082 0)
(0.549956 -0.0190902 0)
(0.6737 -0.0269796 -9.35043e-21)
(0.79716 -0.0338907 9.19186e-21)
(0.918044 -0.0379978 -1.19554e-19)
(1.03405 -0.0381116 1.07197e-19)
(1.14252 -0.0336093 1.84872e-19)
(1.24005 -0.0240705 1.06943e-21)
(1.32474 -0.0105211 0)
(1.39243 0.00635878 0)
(1.44147 0.0258023 4.59254e-20)
(1.47343 0.0462431 0)
(1.49166 0.0666835 6.12271e-20)
(1.49899 0.0857 -8.15723e-20)
(1.4973 0.102042 2.26353e-20)
(1.48759 0.115631 6.14194e-20)
(1.4709 0.126135 -2.64981e-20)
(1.44829 0.132525 -5.36949e-21)
(1.42061 0.134396 -1.01253e-21)
(1.39471 0.11868 3.93512e-21)
(0.0198109 -0.0439556 -3.74833e-20)
(0.059506 -0.0145415 2.71167e-19)
(0.119474 0.0041835 -6.00389e-20)
(0.195268 0.0133401 5.49973e-20)
(0.282924 0.0155283 1.94496e-19)
(0.379151 0.0134263 -8.32628e-20)
(0.481537 0.00947653 2.2519e-19)
(0.588288 0.00570992 -1.31731e-19)
(0.697703 0.00382877 -1.02216e-21)
(0.808102 0.00500318 -1.0554e-19)
(0.917815 0.00998396 -9.48375e-20)
(1.02433 0.0191796 -1.70296e-19)
(1.12492 0.0323388 8.16231e-20)
(1.21623 0.0490892 0)
(1.29563 0.0683305 5.05132e-20)
(1.36047 0.088631 -1.62277e-19)
(1.40857 0.108956 7.6956e-20)
(1.44034 0.128147 -1.34004e-19)
(1.45775 0.145573 -1.00745e-20)
(1.46371 0.160212 2.7129e-20)
(1.46001 0.17124 2.89242e-20)
(1.44818 0.178272 -3.25138e-20)
(1.42824 0.181933 -2.12084e-21)
(1.4132 0.169596 -9.22163e-22)
(-0.0184127 -0.0214067 -3.70891e-20)
(0.00281467 0.00717058 2.72424e-19)
(0.0403738 0.0255242 -6.02774e-20)
(0.0916667 0.0352522 5.52452e-20)
(0.154478 0.0387577 -1.91996e-19)
(0.226755 0.0383285 0)
(0.306944 0.0360527 0)
(0.393871 0.0337768 0)
(0.486516 0.0329867 -1.22538e-19)
(0.583647 0.0348638 2.26321e-19)
(0.684016 0.0402601 -9.96378e-20)
(0.786282 0.0495793 -8.81364e-20)
(0.888531 0.0630065 5.18595e-21)
(0.988173 0.0802506 1.51574e-19)
(1.08246 0.100475 -6.18743e-20)
(1.16838 0.122654 1.72796e-19)
(1.24302 0.145569 -4.9349e-20)
(1.30441 0.167704 0)
(1.35098 0.187728 -3.29646e-20)
(1.38248 0.204656 0)
(1.40045 0.217949 0)
(1.40514 0.227548 -2.80912e-20)
(1.40039 0.230897 1.96888e-20)
(1.40257 0.226714 4.75963e-21)
(-0.0552618 0.00215956 2.98438e-19)
(-0.0501075 0.0301699 -2.02108e-19)
(-0.0316176 0.0476208 -3.06303e-19)
(-0.00128574 0.0566661 -2.74583e-19)
(0.039747 0.0598093 -1.4809e-19)
(0.0902095 0.0591806 -8.62141e-20)
(0.14916 0.0567024 8.03471e-20)
(0.215893 0.0540565 0)
(0.289805 0.05268 1.24155e-19)
(0.370278 0.0537312 -2.28873e-19)
(0.456378 0.0581622 2.06388e-19)
(0.547088 0.0666271 -3.33751e-21)
(0.641365 0.0793315 0)
(0.737536 0.0961653 -2.21256e-19)
(0.833542 0.116698 2.63266e-19)
(0.927068 0.140139 4.65085e-20)
(1.01547 0.165334 -5.76441e-20)
(1.09604 0.190882 0)
(1.16626 0.215382 3.28637e-20)
(1.22423 0.237451 0)
(1.26875 0.256114 0)
(1.30028 0.269754 0)
(1.31553 0.278787 -5.62289e-21)
(1.34078 0.28031 1.00125e-20)
(-0.0901302 0.0264797 -4.4428e-19)
(-0.0991981 0.0542494 0)
(-0.0971732 0.0706304 2.43089e-19)
(-0.084934 0.0783599 2.18918e-19)
(-0.0629528 0.0801595 2.96342e-19)
(-0.0319803 0.0780691 0)
(0.0074645 0.0739327 0)
(0.0550012 0.0693387 0)
(0.110344 0.0657147 -6.43551e-20)
(0.173172 0.064308 0)
(0.243055 0.0661013 0)
(0.319246 0.0718333 0)
(0.400909 0.0819784 7.97236e-20)
(0.487085 0.096687 -2.11247e-21)
(0.576296 0.115773 -3.30784e-21)
(0.666829 0.138592 -1.45046e-19)
(0.756826 0.16423 0)
(0.844161 0.191629 0)
(0.926514 0.21953 7.92939e-20)
(1.00163 0.24648 -6.0514e-20)
(1.06715 0.271221 -2.40945e-20)
(1.12268 0.29207 5.27041e-20)
(1.16247 0.308395 -1.93632e-20)
(1.21145 0.318126 2.03469e-22)
(-0.122359 0.0513461 1.8457e-19)
(-0.144039 0.0792501 6.77962e-20)
(-0.156181 0.0944879 3.04582e-20)
(-0.15945 0.100507 0)
(-0.153941 0.100427 -1.48623e-19)
(-0.139976 0.0959963 -4.26157e-20)
(-0.117784 0.0890895 8.23657e-20)
(-0.0875022 0.0812255 0)
(-0.0491862 0.0738291 6.40934e-20)
(-0.0029572 0.0682131 0)
(0.0509415 0.0655124 0)
(0.112131 0.0666342 -8.72741e-20)
(0.179946 0.0722438 8.30753e-20)
(0.253636 0.0827034 -6.74262e-20)
(0.332246 0.0980026 5.80315e-21)
(0.414439 0.117884 1.59997e-19)
(0.498704 0.141745 -5.65284e-21)
(0.583492 0.168611 -5.93827e-20)
(0.667149 0.197348 4.10508e-20)
(0.747918 0.226809 -5.54923e-20)
(0.823777 0.255888 1.32431e-20)
(0.893649 0.28321 -3.03499e-20)
(0.953362 0.307256 0)
(1.01837 0.322353 -2.17622e-22)
(-0.151315 0.076571 3.71247e-20)
(-0.183903 0.104779 -2.01718e-19)
(-0.208187 0.119025 6.1378e-20)
(-0.224497 0.123268 2.72847e-20)
(-0.232613 0.120783 -5.12077e-20)
(-0.23293 0.113324 1.38047e-19)
(-0.225252 0.102699 -4.20138e-20)
(-0.209523 0.0903492 -7.50378e-20)
(-0.185577 0.0777172 6.67931e-20)
(-0.153394 0.066229 0)
(-0.11315 0.0571916 -2.59289e-21)
(-0.0651717 0.0517031 -1.60653e-21)
(-0.00993914 0.0506885 -7.42156e-20)
(0.0518216 0.0547781 7.07811e-20)
(0.119295 0.0642879 0)
(0.191519 0.0791089 -2.55135e-20)
(0.267343 0.0987568 0)
(0.345483 0.12254 1.79941e-20)
(0.424581 0.149612 0)
(0.5033 0.178954 0)
(0.580323 0.209386 8.41576e-21)
(0.654714 0.239513 -4.19059e-21)
(0.724923 0.266827 -1.95281e-21)
(0.796425 0.281452 2.97152e-22)
(-0.176458 0.101979 5.56839e-20)
(-0.218368 0.130806 -1.71675e-20)
(-0.252365 0.144054 -6.3743e-22)
(-0.279128 0.146341 -2.69583e-22)
(-0.29812 0.141071 2.51989e-20)
(-0.309525 0.130085 -1.40734e-19)
(-0.313164 0.114925 0)
(-0.308665 0.0969559 3.79115e-20)
(-0.2956 0.0776503 2.96975e-21)
(-0.273788 0.058613 0)
(-0.24342 0.0414247 5.17685e-20)
(-0.204945 0.0274421 2.1203e-20)
(-0.158914 0.0179474 -4.09309e-20)
(-0.106118 0.0138862 -3.07284e-20)
(-0.0474614 0.0157782 1.57605e-20)
(0.016089 0.0236943 -4.16122e-20)
(0.0835857 0.037398 4.86761e-20)
(0.154069 0.0563191 -6.78734e-21)
(0.226562 0.079603 0)
(0.300078 0.106178 -1.77089e-20)
(0.37363 0.134752 1.36066e-20)
(0.446497 0.163427 2.89206e-21)
(0.518438 0.188473 1.93445e-21)
(0.592258 0.200624 2.00975e-23)
(-0.197357 0.127444 -9.31454e-20)
(-0.246977 0.157056 -2.38538e-22)
(-0.288253 0.169321 7.84645e-20)
(-0.322546 0.169494 0)
(-0.349177 0.161227 0)
(-0.368333 0.146275 2.41579e-20)
(-0.379773 0.125914 -2.25255e-20)
(-0.382875 0.101234 0)
(-0.37688 0.0736839 -5.34348e-20)
(-0.361249 0.0452652 0)
(-0.336095 0.0181891 0)
(-0.302199 -0.00574871 -2.31784e-20)
(-0.260443 -0.0250003 1.02943e-20)
(-0.211971 -0.0383964 0)
(-0.157875 -0.0451264 1.35757e-20)
(-0.0993086 -0.0449927 1.94915e-20)
(-0.037364 -0.0381977 -2.33105e-20)
(0.027039 -0.0252768 2.08369e-20)
(0.0930983 -0.00703105 -1.84163e-20)
(0.160062 0.01547 4.68403e-21)
(0.227154 0.0406806 5.62041e-21)
(0.293687 0.0659237 1.00395e-21)
(0.360487 0.087223 0)
(0.434034 0.0997823 9.09066e-23)
(-0.213718 0.152853 9.34078e-21)
(-0.269439 0.183298 -1.30442e-20)
(-0.315373 0.194515 7.99705e-21)
(-0.354063 0.192454 1.49765e-20)
(-0.384833 0.181046 -1.38735e-20)
(-0.407994 0.161879 -1.27107e-20)
(-0.423054 0.135711 2.51224e-22)
(-0.428921 0.103269 1.08134e-20)
(-0.425203 0.0663254 1.85334e-20)
(-0.411277 0.0274924 -1.63841e-20)
(-0.387139 -0.0103588 1.5562e-20)
(-0.353567 -0.0459456 0)
(-0.31132 -0.0765151 -2.02884e-20)
(-0.261977 -0.100186 9.44286e-21)
(-0.207299 -0.116008 0)
(-0.148835 -0.123657 0)
(-0.0880194 -0.123381 2.93738e-21)
(-0.0259669 -0.115844 -1.46985e-20)
(0.0364797 -0.10196 4.72264e-21)
(0.0985652 -0.0828573 1.63352e-21)
(0.15939 -0.0599465 -8.20788e-23)
(0.218516 -0.0350881 -4.01623e-22)
(0.278142 -0.0116653 0)
(0.345186 0.00404517 0)
(-0.22542 0.178111 0)
(-0.285712 0.209263 3.56428e-20)
(-0.333488 0.219276 0)
(-0.373197 0.214846 3.14406e-20)
(-0.404286 0.200169 0)
(-0.427105 0.176398 -2.78087e-20)
(-0.441086 0.144033 0)
(-0.445825 0.104122 5.68855e-21)
(-0.440352 0.0581316 1.66289e-20)
(-0.424003 0.00792373 4.53445e-21)
(-0.39608 -0.0438407 -4.30524e-21)
(-0.356729 -0.0924734 1.49938e-20)
(-0.308122 -0.135332 0)
(-0.252415 -0.169952 0)
(-0.191911 -0.194896 -3.36211e-21)
(-0.128723 -0.209747 -2.70792e-21)
(-0.0646175 -0.214886 -4.24543e-21)
(-0.000849252 -0.211244 0)
(0.0617633 -0.199996 0)
(0.122636 -0.182369 -1.22096e-21)
(0.181255 -0.159637 0)
(0.237653 -0.133281 -2.30944e-23)
(0.293783 -0.106035 2.38301e-22)
(0.351839 -0.085412 6.29217e-24)
(-0.232546 0.203149 0)
(-0.296038 0.234633 -1.08723e-19)
(-0.342638 0.243138 0)
(-0.379768 0.236258 -3.16352e-20)
(-0.407238 0.218427 -1.53258e-20)
(-0.42588 0.19044 -1.67552e-20)
(-0.435304 0.152313 0)
(-0.434425 0.104345 -5.28496e-20)
(-0.421532 0.0476642 -4.53263e-20)
(-0.39527 -0.0151983 -2.29632e-20)
(-0.355738 -0.0803538 0)
(-0.304315 -0.143089 -1.52019e-20)
(-0.24331 -0.199003 3.74359e-21)
(-0.175684 -0.244625 2.3497e-20)
(-0.10453 -0.277986 0)
(-0.0326301 -0.298667 -7.21836e-21)
(0.0379683 -0.307545 -5.04874e-21)
(0.106065 -0.30615 6.20007e-21)
(0.171138 -0.296158 -3.74844e-21)
(0.233126 -0.2792 2.89602e-21)
(0.292337 -0.256721 -1.33788e-21)
(0.349456 -0.230101 3.07298e-22)
(0.40517 -0.201551 1.77598e-22)
(0.458483 -0.176824 -2.59705e-22)
(-0.235383 0.227871 -1.22794e-19)
(-0.300956 0.258977 3.63404e-20)
(-0.343123 0.265477 1.72104e-20)
(-0.373676 0.256082 1.35411e-19)
(-0.392889 0.235404 0)
(-0.402005 0.203678 -6.57808e-20)
(-0.400499 0.160181 0)
(-0.386765 0.104411 -6.18531e-20)
(-0.358802 0.037127 1.08474e-19)
(-0.315538 -0.0387327 4.51574e-20)
(-0.257669 -0.118307 8.95107e-20)
(-0.187399 -0.195148 0)
(-0.108266 -0.263447 -2.88561e-20)
(-0.0243292 -0.318809 4.46933e-20)
(0.0602881 -0.358553 -7.64792e-20)
(0.142382 -0.382661 4.5752e-20)
(0.219969 -0.392686 2.63486e-20)
(0.291983 -0.391046 -2.24385e-20)
(0.358307 -0.380325 1.60272e-20)
(0.41949 -0.362897 -1.37058e-20)
(0.476467 -0.340779 7.10951e-22)
(0.530431 -0.315686 -4.13992e-22)
(0.581776 -0.289134 -4.40051e-22)
(0.631326 -0.261899 8.66617e-22)
(-0.234731 0.252366 1.64655e-19)
(-0.301356 0.281667 -1.53479e-19)
(-0.335589 0.285422 0)
(-0.3551 0.273323 -1.36398e-19)
(-0.360744 0.25004 0)
(-0.354004 0.215039 1.26614e-19)
(-0.334008 0.166681 -1.28824e-19)
(-0.298811 0.103623 1.16441e-19)
(-0.24674 0.0264108 -2.27854e-19)
(-0.178002 -0.0615986 0)
(-0.0946802 -0.154452 -9.03346e-20)
(-0.000515926 -0.244207 8.70738e-20)
(0.0996439 -0.323104 0)
(0.200689 -0.385675 0)
(0.297745 -0.429145 0)
(0.387393 -0.453541 3.50501e-20)
(0.467892 -0.461577 6.52482e-20)
(0.539014 -0.456693 -1.19512e-20)
(0.60144 -0.442495 -2.51419e-20)
(0.656403 -0.422267 0)
(0.705312 -0.398717 3.62308e-21)
(0.74985 -0.374019 -3.27894e-21)
(0.790245 -0.349805 -1.56006e-21)
(0.832799 -0.324415 -2.92277e-22)
(-0.232613 0.27762 1.91466e-20)
(-0.299083 0.301933 -2.91247e-21)
(-0.321007 0.301679 0)
(-0.324722 0.286573 7.29458e-20)
(-0.311173 0.26073 -2.08277e-19)
(-0.282004 0.222691 0)
(-0.235912 0.169928 -5.39918e-21)
(-0.171172 0.100589 -4.83994e-21)
(-0.0873956 0.015349 -3.58202e-21)
(0.0130716 -0.082081 -2.49518e-21)
(0.125624 -0.184419 1.07431e-19)
(0.244396 -0.283137 -1.81957e-19)
(0.363353 -0.369495 2.24168e-19)
(0.47644 -0.436421 -2.02593e-19)
(0.57832 -0.480547 5.17312e-20)
(0.665995 -0.502618 4.31185e-21)
(0.73951 -0.506556 2.24212e-20)
(0.800301 -0.496911 -6.69742e-20)
(0.850294 -0.478025 0)
(0.891547 -0.453803 0)
(0.926007 -0.427461 0)
(0.955525 -0.401325 -2.01992e-21)
(0.980294 -0.377238 0)
(1.00822 -0.354779 0)
(-0.235115 0.305204 1.45836e-19)
(-0.296726 0.318133 3.21556e-19)
(-0.301589 0.312342 -7.74332e-20)
(-0.283895 0.294037 7.15579e-20)
(-0.246017 0.265607 7.08124e-20)
(-0.188909 0.224565 -6.84089e-20)
(-0.111198 0.167796 0)
(-0.0123596 0.0933719 2.68458e-19)
(0.105336 0.00244579 1.2915e-19)
(0.236749 -0.100176 -1.26168e-19)
(0.375 -0.206562 -1.07514e-19)
(0.512355 -0.308141 9.45679e-20)
(0.641795 -0.396094 -8.02494e-20)
(0.755677 -0.462558 6.56001e-20)
(0.848895 -0.503796 4.57122e-20)
(0.921096 -0.521345 -1.32445e-19)
(0.975341 -0.520861 1.10002e-19)
(1.01541 -0.507502 -8.40083e-20)
(1.04457 -0.485812 1.73811e-20)
(1.06563 -0.459735 -1.23987e-20)
(1.08075 -0.432113 1.6896e-20)
(1.09113 -0.404903 -1.50359e-20)
(1.09808 -0.379087 -1.06766e-20)
(1.09785 -0.352704 7.12153e-21)
(-0.259201 0.325134 2.1642e-19)
(-0.298953 0.324549 -2.45804e-19)
(-0.278346 0.314394 4.64914e-19)
(-0.234414 0.293812 -1.48469e-19)
(-0.168402 0.263083 2.14438e-19)
(-0.0802089 0.219151 0)
(0.0306641 0.158891 -2.81726e-19)
(0.162538 0.0809493 1.38884e-19)
(0.310521 -0.0125621 -2.4694e-22)
(0.466785 -0.115879 -1.25918e-19)
(0.622488 -0.221215 0)
(0.769583 -0.32005 1.88891e-19)
(0.898472 -0.403175 -1.12028e-20)
(1.0011 -0.463497 0)
(1.07499 -0.49801 1.01366e-19)
(1.12327 -0.509635 -1.83569e-19)
(1.15296 -0.505883 -1.18535e-19)
(1.16973 -0.491377 1.6381e-19)
(1.17735 -0.46948 4.74487e-20)
(1.17859 -0.443932 -9.61349e-20)
(1.1754 -0.417011 6.52724e-20)
(1.16874 -0.389912 -3.64118e-20)
(1.1583 -0.362942 1.43877e-20)
(1.14051 -0.333201 -7.00121e-21)
(-0.0160476 0.0330605 1.13503e-21)
(-0.0325986 0.0483966 -9.36905e-19)
(-0.074406 0.0455601 8.55101e-22)
(-0.092596 0.0524127 6.09955e-19)
(-0.100977 0.0829407 -1.04185e-18)
(-0.285969 0.0915289 0)
(-0.0371923 0.0272703 1.15526e-18)
(-0.0680673 0.0387323 0)
(-0.12038 0.0294313 1.49095e-18)
(-0.149425 0.032059 -1.2326e-18)
(-0.189676 0.0519631 6.18927e-19)
(-0.296452 0.0568785 -5.15435e-19)
(-0.0499599 0.0250144 -1.54547e-20)
(-0.0936137 0.0344094 0)
(-0.151426 0.0214991 -5.80101e-19)
(-0.189727 0.0207113 1.02944e-18)
(-0.241613 0.0370353 3.4349e-19)
(-0.312768 0.0670485 5.82401e-19)
(-0.0621627 0.0240745 1.42428e-20)
(-0.115833 0.0317869 -7.98353e-19)
(-0.176439 0.0176997 0)
(-0.218806 0.0147955 -4.44085e-21)
(-0.269 0.0299162 -8.72929e-19)
(-0.317767 0.0664844 0)
(-0.0756992 0.0231955 -9.67391e-19)
(-0.136251 0.0298205 7.66124e-19)
(-0.19717 0.0162816 -6.01811e-19)
(-0.239572 0.0122229 -5.009e-19)
(-0.282757 0.0259018 4.18597e-19)
(-0.313781 0.0605207 0)
(-0.0893964 0.0213273 1.09744e-18)
(-0.154775 0.0276436 4.62116e-20)
(-0.213983 0.0163194 5.46688e-19)
(-0.253861 0.011734 5.98327e-19)
(-0.288097 0.0233703 -1.00789e-19)
(-0.30345 0.0530801 -3.33043e-19)
(-0.10419 0.0205154 0)
(-0.170629 0.0256421 0)
(-0.227144 0.0173903 0)
(-0.263156 0.012786 5.49166e-20)
(-0.287782 0.0218708 4.6274e-20)
(-0.289207 0.0457521 2.46086e-19)
(-0.118893 0.0224074 -1.19731e-18)
(-0.183051 0.0248467 2.19424e-20)
(-0.237033 0.0194166 -6.89094e-20)
(-0.268467 0.0151912 -7.94269e-19)
(-0.283911 0.0214249 -1.40618e-19)
(-0.272354 0.0393342 1.61001e-19)
(-0.129449 0.0230006 1.14062e-18)
(-0.192367 0.02539 -6.91109e-19)
(-0.244033 0.0225237 -6.75167e-20)
(-0.270557 0.0188108 5.72865e-20)
(-0.277694 0.0223001 0)
(-0.253818 0.0345194 -2.43393e-19)
(-0.13866 0.0243965 1.15565e-18)
(-0.199071 0.0271806 7.26308e-19)
(-0.248437 0.0268981 5.00523e-19)
(-0.270629 0.0236344 3.88702e-19)
(-0.270074 0.0246681 4.74569e-20)
(-0.234329 0.0318482 4.0222e-19)
(-0.146451 0.0263171 -2.30902e-18)
(-0.203403 0.030221 7.18988e-19)
(-0.250727 0.0326136 -4.97786e-19)
(-0.269451 0.0297029 -4.97071e-19)
(-0.261673 0.02868 0)
(-0.21449 0.0316951 0)
(-0.152319 0.0284692 8.46872e-22)
(-0.205613 0.0344737 -6.75654e-19)
(-0.251446 0.0396433 -5.28826e-19)
(-0.267415 0.0370856 8.84722e-19)
(-0.253143 0.0345028 0)
(-0.194902 0.0341908 3.32397e-19)
(-0.155948 0.0308835 1.18999e-18)
(-0.205946 0.0398504 2.1074e-20)
(-0.250974 0.0479661 4.96768e-19)
(-0.264983 0.0458409 -4.4454e-19)
(-0.245059 0.0421887 0)
(-0.176279 0.0391312 -3.36555e-19)
(-0.157188 0.0340476 -1.79872e-20)
(-0.204656 0.0462334 3.27912e-19)
(-0.249602 0.0575587 2.83023e-19)
(-0.262582 0.0559609 -2.52742e-19)
(-0.238019 0.0517075 -1.7116e-19)
(-0.159303 0.0457446 0)
(-0.156054 0.0395751 -9.00261e-21)
(-0.202127 0.0535156 -3.42196e-19)
(-0.247561 0.0683603 -4.02828e-19)
(-0.260543 0.0673727 2.55139e-19)
(-0.232694 0.0628924 1.73191e-19)
(-0.145035 0.0526835 8.92087e-20)
(-0.152277 0.0509033 2.88199e-19)
(-0.198858 0.0614295 0)
(-0.245043 0.0802236 1.35725e-19)
(-0.259205 0.0799601 0)
(-0.229879 0.0757668 0)
(-0.135018 0.058788 1.10989e-21)
(-0.14229 0.0666959 -2.68005e-19)
(-0.195212 0.0688876 -5.47749e-21)
(-0.242065 0.0927416 4.26948e-21)
(-0.258746 0.093637 0)
(-0.230318 0.0907596 0)
(-0.130715 0.0638526 -1.04567e-19)
(-0.133892 0.0667661 0)
(-0.190659 0.0741164 0)
(-0.238273 0.105282 -6.78653e-20)
(-0.259024 0.108362 -3.72161e-21)
(-0.234403 0.108656 1.65022e-21)
(-0.132629 0.0692545 0)
(-0.124729 0.060774 0)
(-0.18404 0.0771778 0)
(-0.232991 0.117435 8.04699e-20)
(-0.25949 0.124063 -1.14978e-19)
(-0.241935 0.130204 -1.3477e-20)
(-0.140109 0.0769887 0)
(-0.111951 0.0547085 6.9607e-21)
(-0.174213 0.0781072 -3.75825e-19)
(-0.225422 0.1289 1.85314e-20)
(-0.259088 0.140311 1.0971e-19)
(-0.252013 0.156211 -2.81532e-20)
(-0.151613 0.0886785 -2.17681e-20)
(-0.097681 0.0482141 0)
(-0.161016 0.076682 4.01154e-19)
(-0.214967 0.139324 1.96337e-20)
(-0.256005 0.15539 5.40075e-22)
(-0.263973 0.189252 -8.73595e-20)
(-0.16537 0.105283 5.24733e-20)
(-0.0847719 0.0406637 5.00747e-19)
(-0.144804 0.0725233 2.50233e-20)
(-0.201541 0.148049 2.97784e-19)
(-0.248059 0.168287 0)
(-0.276314 0.230283 6.1863e-20)
(-0.180883 0.128068 -1.02348e-19)
(-0.0708461 0.030765 -5.70637e-19)
(-0.124748 0.0639784 0)
(-0.184567 0.152894 -9.6794e-19)
(-0.233421 0.174304 -3.5089e-20)
(-0.287004 0.280385 0)
(-0.194341 0.149536 9.68734e-20)
(-0.0453045 0.00660664 1.23853e-18)
(-0.0899923 0.034999 0)
(-0.151619 0.137849 1.41712e-18)
(-0.192155 0.152534 7.61032e-20)
(-0.280002 0.335735 -6.37766e-20)
(-0.166253 0.131103 0)
(-0.332994 0.295441 -3.54756e-19)
(-0.303924 0.313809 4.11696e-20)
(-0.250895 0.305317 -3.88846e-19)
(-0.177653 0.284677 -2.95716e-19)
(-0.0816612 0.252377 1.49036e-19)
(0.0379028 0.206142 -4.22859e-19)
(0.180179 0.143509 7.04451e-19)
(0.341073 0.0643353 -2.70716e-19)
(0.513383 -0.0282823 3.92959e-19)
(0.687248 -0.1284 0)
(0.853277 -0.228345 0)
(1.00104 -0.319394 -1.86047e-19)
(1.1191 -0.392694 -1.4723e-19)
(1.20225 -0.44281 1.48064e-19)
(1.2517 -0.468871 0)
(1.27526 -0.474509 1.71939e-19)
(1.28349 -0.468399 0)
(1.28154 -0.455048 -4.99659e-20)
(1.27216 -0.434197 0)
(1.25815 -0.410477 7.95849e-20)
(1.24101 -0.385297 -2.86035e-20)
(1.2212 -0.359377 -1.48152e-20)
(1.19778 -0.332478 9.50855e-21)
(1.16617 -0.300354 -3.7327e-21)
(-0.352126 0.244494 -1.05652e-19)
(-0.296228 0.289015 9.00274e-20)
(-0.216099 0.285769 -3.89121e-19)
(-0.114109 0.266782 5.2021e-19)
(0.0115414 0.234041 -4.24091e-19)
(0.161111 0.186732 2.83904e-19)
(0.331965 0.123647 -5.51997e-19)
(0.517803 0.045979 0)
(0.709078 -0.0426897 -2.5955e-19)
(0.894491 -0.135843 -2.32522e-19)
(1.06281 -0.226417 4.28071e-19)
(1.2001 -0.305332 1.80918e-19)
(1.29693 -0.365591 1.52655e-19)
(1.35366 -0.404309 2.4102e-19)
(1.37685 -0.423106 -2.2876e-19)
(1.37864 -0.42452 -8.24327e-20)
(1.37184 -0.420041 1.14321e-19)
(1.35579 -0.407846 -6.28872e-20)
(1.33342 -0.389383 -6.8995e-20)
(1.30852 -0.368048 3.71444e-20)
(1.28161 -0.344861 7.41647e-20)
(1.25255 -0.320158 -5.62679e-20)
(1.21985 -0.293299 1.01078e-20)
(1.17935 -0.259393 -3.08351e-20)
(-0.34809 0.202373 3.67861e-19)
(-0.275434 0.255536 -3.46674e-19)
(-0.173056 0.258394 2.32627e-19)
(-0.0441015 0.241804 7.18557e-20)
(0.110207 0.209873 5.61992e-19)
(0.288376 0.163273 -1.29945e-19)
(0.485512 0.102299 2.68495e-19)
(0.692845 0.0289018 1.27832e-19)
(0.89757 -0.0522177 2.42108e-19)
(1.08665 -0.135359 -9.17117e-21)
(1.24472 -0.212889 -6.08475e-19)
(1.35844 -0.277503 -1.80655e-19)
(1.4254 -0.324586 1.20908e-19)
(1.45394 -0.353808 -3.64884e-20)
(1.45441 -0.368334 -2.07684e-19)
(1.44433 -0.371283 0)
(1.42426 -0.367068 1.68202e-19)
(1.3967 -0.356253 -1.08459e-19)