/*--------------------------------*- C++ -*----------------------------------*  =========                 |
  \      /  F ield         | OpenFOAM: The Open Source CFD Toolbox
   \    /   O peration     | Website:  https://openfoam.org
    \  /    A nd           | Version:  11
     \/     M anipulation  |
\*---------------------------------------------------------------------------*/
FoamFile
{
    format      ascii;
    class       volScalarField;
    object      U;
}
// * * * * * * * * * * * * * * * * * * * * * * * * * * * * * * * * * * * * * //

dimensions      [0 1 -1 0 0 0 0];

internalField   nonuniform List<scalar> 
2880
( 
0.13869327694506478
0.2704216236652278
0.434622479521689
0.47100274841166445
0.567941464697185
0.27247275883243227
0.19814317940702159
0.3344295551500527
0.4703493465832108
0.5014685412450473
0.5411488751868969
0.3313524634085091
0.2211330869607151
0.34736372199119037
0.4590461646425472
0.4729906859902687
0.47916518073752845
0.3518560234718775
0.23914035963385347
0.3472698897066268
0.4248041817022421
0.4231991805807179
0.42327421212799987
0.3638270471484446
0.260249756201659
0.3372042766013788
0.38943768304469106
0.37475131385658683
0.3741234216788161
0.3753597607925785
0.2747436006211568
0.3235008648632885
0.35290074969033247
0.32774082011307054
0.33015190369732367
0.37667084394329636
0.2940825109186017
0.31415112759658154
0.31683061671165214
0.28560231640972383
0.2947189160463616
0.36214476335324525
0.30350815574759094
0.30668993297415953
0.28651769352570083
0.24909375351876353
0.2623568801326663
0.3531129630577943
0.3177870611348904
0.2980170279832636
0.26318148934864194
0.21876442021597095
0.232986554638782
0.32828442526315493
0.3283615918657599
0.29582984797222
0.24454203952370734
0.19569642511460206
0.21009978180830824
0.307858922669705
0.33355040895076205
0.29403152072312577
0.23734874102824033
0.18098483502585913
0.18674064997848805
0.27530821315053383
0.3321425885014295
0.29600210848948416
0.23644270148456992
0.17863120757554862
0.1847593989261864
0.25309272360868335
0.33095377080897814
0.2983577808513678
0.24295886737771935
0.19033199602596348
0.19352338454618023
0.2560499528924912
0.3209306188686661
0.3025269885547088
0.25456246939549865
0.21377752646612358
0.21983733253143112
0.2735984532091127
0.31035014232492675
0.305643503301432
0.2684494061088011
0.24163110396977197
0.2570230927487846
0.29320960174388866
0.29107791627410606
0.3072829825151089
0.2848800634646692
0.2718691214135672
0.29068406875792085
0.32103182955449533
0.2728387891347435
0.3084520401384572
0.30037907046931095
0.3015754973864182
0.31781442528170994
0.34407284570075847
0.2503685971316816
0.30744707839109225
0.3144173389124721
0.32589057031487484
0.34723384841833854
0.3736061523272914
0.22489946775290148
0.3030065657000285
0.325995762688228
0.34639118015704184
0.370089585956374
0.39425859371484734
0.19988120026343048
0.2984494406193132
0.3384504858391697
0.36227576284945034
0.38699109214105293
0.41580149186822823
0.17266811249544742
0.29001502686268116
0.34595290457164435
0.3719997327323423
0.3971749068860547
0.42277194498832804
0.14964254118123568
0.2803612975452524
0.3495920200632145
0.3723375928359325
0.39469712909487964
0.42545302797354223
0.12266235621717897
0.2647842210259494
0.3448894941659222
0.36260993597310465
0.3741238951724609
0.4116496124169359
0.08296273888435904
0.22581717407688967
0.32478349679450635
0.3334766815848655
0.31350458711173484
0.3689113212490542
1.3334994417137693
1.523177265128031
1.5557453934331498
1.5463905496106536
1.5133702510703448
1.4656880300236808
1.4338866909494454
1.3971042525137165
1.3653041354459705
1.335856384996113
1.3132965840284903
1.2887034303337463
1.2685999634429383
1.2489699002140628
1.228504647633175
1.2094023408912993
1.1912031322428895
1.1713907679898163
1.1516061710417551
1.1298019317973909
1.1082245018375994
1.0830327888056044
1.0547498505337167
1.0213729006556311
1.093286858298843
1.5286041669611898
1.6134799271152678
1.6030493650699977
1.5814856617559092
1.5319368666788538
1.4893214047102012
1.450113139460088
1.4152940197489796
1.3774098570515219
1.348862571647329
1.3218238265115907
1.295396014175844
1.2740047705316637
1.2534141897602742
1.2311290938407426
1.2110656222819831
1.1908695831649476
1.1712508137017805
1.1480382547475274
1.1243558733592924
1.0967202503135953
1.0664264839401463
1.0314765566529798
0.8854420583881298
1.4697824114335283
1.6232991608198497
1.6534684743453716
1.6352039889285799
1.5959197029759098
1.5473587432873792
1.4982964999169681
1.4537927542737905
1.4161890923820262
1.3809049338635013
1.3505971818838254
1.325855028029064
1.300810859322094
1.2787122199936967
1.2567698062602568
1.233378311494929
1.2111457396348129
1.1894070806423624
1.1653949157899095
1.1394202663063884
1.1100411073933403
1.0791992427640256
1.0415876668872242
0.781307922879262
1.3601502505899905
1.6096669316605505
1.6785631759677986
1.6677672169467925
1.6435116383679274
1.5879362570136597
1.542229239716602
1.499266022634733
1.4548734293590027
1.4168887490877937
1.3841915020789084
1.3545767801112822
1.3272703783046176
1.3022213772024933
1.2772308879219982
1.2554740627180372
1.2334611490821943
1.2083268545979204
1.1826750701158892
1.1551234623439708
1.125076929670031
1.0927254628675969
1.052752151504049
0.7306083797852208
1.2650985673459376
1.5490878307277938
1.6667165313227583
1.6957089562055572
1.679186512677103
1.624232945515001
1.583573950848574
1.5351316533164503
1.489240366009384
1.4520911804529861
1.4148982074428151
1.3846149632164495
1.3567451204932373
1.325566726952911
1.3027493084603248
1.274615542905127
1.2523103399258912
1.226616244909221
1.2000344839377717
1.1711349885674398
1.140424722103095
1.105640908447789
1.0651392785353149
0.6979433835300599
1.18370975818528
1.4845566137089934
1.6362216109444234
1.694223411282008
1.6935867435898753
1.6506734376720016
1.6129434208045996
1.5674036684617554
1.5215986495616873
1.4826356945179786
1.4466306666100326
1.4135491006686611
1.3820235632923161
1.3522263035233169
1.3256323795158234
1.2976170590189855
1.2718648002060535
1.245058488000898
1.2168635117781146
1.1871207409153364
1.155012782675963
1.118844158157993
1.0769736615859156
0.6615232833133082
1.0932887718749655
1.4120492228168886
1.586269536759437
1.662992376162248
1.6854198013039248
1.6745420668139381
1.6403699782044352
1.5980604983479518
1.5585708699154928
1.5137431635130092
1.47351030137651
1.4358980944732753
1.409427986699368
1.3775508825137168
1.3490110166762634
1.3188826076770725
1.2903801358585913
1.2626160540746283
1.2325827130986493
1.2047666840669096
1.1680562174932714
1.1329751766531004
1.0895965756704216
0.618133915185358
1.0142567768247657
1.3215892628635486
1.5246099358355587
1.6116871534174775
1.662888087179599
1.6588544466645447
1.646040649441819
1.6068632094357245
1.576295760927244
1.5374370485306792
1.5048125689171998
1.460536516701625
1.430573249297391
1.4002019987113759
1.367748833710761
1.338731300756764
1.3090227918720299
1.2802529870316866
1.2495339944431318
1.2181143651283899
1.1837274292049818
1.1454173324639434
1.1016697788768524
0.582508065274739
0.924186541303
1.2137675334660982
1.4321910973065461
1.5564860287438567
1.6085712884503556
1.6413795270665177
1.6309352651592914
1.6133807363380748
1.5867114999937022
1.553291892386782
1.521845915345677
1.4853355653848632
1.453092405471938
1.4207680331633885
1.3893784887801288
1.361389976678767
1.328289954032402
1.2959497982145174
1.2671161176421248
1.2308200196261938
1.1960974518825582
1.1590557357003024
1.1133072154317203
0.5275032944565212
0.8401505221287474
1.1372823024012928
1.3386803684187503
1.4676610750523378
1.5483777080059578
1.5949142836829253
1.6006509959345356
1.6024252430883312
1.5854339344639172
1.5587367672944943
1.528706717351296
1.4982153432756553
1.465017664902071
1.4372390007542666
1.4027922209733377
1.3773261924838147
1.3441530340061274
1.3136767204328343
1.2805259020141024
1.2472405817910437
1.209455238094149
1.1705302103792081
1.1242327545272386
0.4786455633198948
0.7686610531866626
1.0320341965429174
1.2489372561368366
1.3804221448641432
1.4780971619953533
1.5344128688983343
1.5654945869996646
1.5680758315207513
1.5655346290787402
1.5473894707174476
1.5296426180903069
1.504220276288024
1.4758834846376612
1.4456058528218727
1.4138574486801208
1.3862724249610325
1.3565236193069694
1.3268669883027897
1.2927356541657906
1.2566502346419477
1.220531976169334
1.1819298104650078
1.1368193884561897
0.4287610713677909
0.6723816679658886
0.928865124144469
1.133018637839393
1.2743988964161501
1.3792037206088266
1.4555093659131806
1.5006144808705182
1.5274600309303474
1.5324577484520405
1.5251424502620319
1.5136030693057463
1.5001075979436431
1.4768326148921764
1.4507903663933805
1.4206016613329446
1.3951002329452917
1.3676764542749362
1.3334699046767313
1.3031108848265562
1.2686407912717395
1.2303699031804376
1.1936999240495254
1.1483901801322318
0.3979748081136527
0.6030216117939419
0.8193196059452581
1.0059976274599562
1.1642130649463804
1.2768544147475809
1.3632766791425608
1.4269869654467975
1.4615867468487542
1.4803975753960437
1.4889469606600327
1.4866062826702697
1.4750636302417548
1.457643832565504
1.4437966617895335
1.4217167122901084
1.3938181103662368
1.3674891836003693
1.3400133954521265
1.3071616574664775
1.274484535525393
1.241980653934163
1.2043755006994137
1.1597039633870552
0.36519432900813853
0.5317345982442284
0.7106726965774296
0.8941793176925709
1.0456865617741538
1.1569825852281903
1.2664017172975832
1.3345536894536851
1.3805788077059846
1.4168843610453565
1.4342594532069164
1.443062596913337
1.4442784704917453
1.4312656234794159
1.4192058353549883
1.4047249493773415
1.3832129273197427
1.3622125593777763
1.3365724097720588
1.3075678811872589
1.2794698308565717
1.2455120739711072
1.2097074909202608
1.1704417939074803
0.3668000251761768
0.4738373680632628
0.6358977670730602
0.7875682389741456
0.9222623872331522
1.0525753560798332
1.1556974428791764
1.2299935434201985
1.2898260915561783
1.3393384807222823
1.363859078869113
1.3801341847334159
1.3894272785531439
1.3891223947628175
1.38644013259617
1.3745404558440173
1.3648332310303894
1.3476312300424014
1.325454569606734
1.3038078479194106
1.2765968960781442
1.248424832615465
1.2152574410069101
1.1785855546618953
0.3683587012985421
0.44472909920098835
0.5577746785290607
0.6903527502679467
0.8180265920190712
0.9348969413783597
1.050478627422603
1.1271636498400945
1.187008666714758
1.2429248055865325
1.2817425283369381
1.3085043762198711
1.321765269297581
1.3335020017744232
1.338193334441196
1.3353323540110706
1.3272993348729143
1.318023848359501
1.3021853414677838
1.2874476592794881
1.2642279290943899
1.2420972541997544
1.2140024080303884
1.1845909244570216
0.37245615637708895
0.4233420818047324
0.5022697545700829
0.6189113103223232
0.7402590608480262
0.848966256817518
0.9400483725230561
1.0307676952373008
1.0942936221374713
1.147974638620486
1.1897049222866312
1.2150006390236616
1.245329377764896
1.2636697146825586
1.2738591396840298
1.2827851990626327
1.2807686270592917
1.2766666478106146
1.269586765224942
1.2595502871381976
1.2467390090625605
1.2270997370302825
1.2057746683041886
1.1801038713888978
0.38126856837785894
0.40151809801013394
0.45593476939146044
0.5452814401607089
0.6558749115277572
0.7534847165435091
0.8529983693611863
0.9310332325363808
0.9916556074316238
1.0541143202084289
1.0912461957539874
1.1348508961789832
1.1570150112902142
1.1818373377200757
1.1983946571033273
1.2159738604942714
1.221278691839005
1.2277167201100019
1.2240970456198215
1.2223249471665134
1.214854154213171
1.2022724040434731
1.18738896714704
1.1720030248400328
0.3949692676539509
0.37960804304247514
0.41506337041442454
0.496641634978711
0.5950331982614623
0.6768327154757096
0.7728537466510499
0.8446117396028305
0.9042280124239616
0.9571415561303914
1.0034964954810226
1.0420972823516128
1.0678649700397833
1.089444602676302
1.1118820088867387
1.136194862326924
1.1494821056949567
1.1568156025538476
1.1662565726206182
1.1729079958253334
1.169740537696457
1.1675643628570653
1.1611100075994276
1.1511566047545445
0.3909612761323608
0.35162063153385786
0.37602097597611894
0.45242657600672725
0.5256638904729662
0.6134144128367334
0.6935869119856202
0.7593875031331516
0.8149056316171044
0.8697909279806605
0.9070869152815362
0.9403948216460193
0.9742539441917061
1.0064266272835192
1.0196847432135283
1.0462283289056789
1.0663030256986679
1.0877676564750096
1.1025350503724674
1.1116757200427334
1.1185359464614044
1.1229148005045586
1.1226130587921812
1.121390686450223
0.3864661029951004
0.32830982991491287
0.33798881277440085
0.405180256646102
0.4746506803209226
0.5500300064152438
0.618979056275023
0.6854207063870534
0.733217053336044
0.7789643269334271
0.8224162436727604
0.8503638974916599
0.8789249371538883
0.9107636296202676
0.934344174649654
0.9597943141138721
0.9820224324014815
1.007516587192633
1.0276708235360847
1.042388625584322
1.060621978405847
1.065134239287492
1.0742544589721696
1.0823235666372133
0.3653893354972004
0.2983082093772954
0.3145348852931562
0.3590431159126759
0.42147257259809034
0.49184344389034884
0.5496513450390886
0.6044476405367998
0.6434980719907997
0.6894636876904008
0.7290185070739242
0.764420942271401
0.7856969385840593
0.8051149162685078
0.8479859909510514
0.8762957421370283
0.8998188648386537
0.9265224328617602
0.9489129501500806
0.9746140899710865
0.9907221965072943
1.011508705010948
1.0202127769997826
1.03437657991372
0.3106774391122243
0.2776865804406188
0.28397892208216813
0.3213289360467656
0.37469811635986927
0.4236061124360271
0.47586037726063524
0.530863732341399
0.5683935810800474
0.5976494239169234
0.6304766211001267
0.6592483806357077
0.69566341102916
0.7242168427945539
0.7542692133162859
0.7867601961608026
0.8208117232913961
0.8487164892192026
0.8755504567725826
0.8953999557375955
0.9241824384561284
0.9408249647286765
0.9629646456426315
0.9805796356917734
0.25095525473462643
0.24449010076019506
0.25015746322949783
0.2844968882513458
0.33108844521888736
0.3791121081558413
0.41315402028740833
0.4488920406760757
0.4772632806133794
0.5206042280615366
0.5480400428899727
0.5721807758570086
0.6081666636130657
0.6406406735190886
0.6655297262953157
0.704526265808084
0.7372757641981087
0.7741950274058874
0.804434006347267
0.828326482821409
0.8537192843853555
0.8746845814926151
0.8923592808027144
0.9253397512932796
0.04698181356967657
0.12206976982891657
0.21430660048099542
0.26109187551073204
0.2763356308936235
0.26196754017075574
0.08066940823917906
0.17056612714074226
0.23735120346877336
0.26302337259272535
0.2670772257869142
0.242873487862696
0.09906606676315963
0.18634821440373175
0.2365441725935352
0.25289552547805655
0.24768120676550834
0.22304832501993943
0.11548893761077353
0.19578510498094023
0.23324720744682717
0.2411441045729437
0.22173246544625747
0.2021588145785923
0.1334025073284364
0.20438466512342912
0.23192690768653496
0.23318254136770253
0.2072268494830082
0.18015619895946317
0.1508423009422339
0.20853478462991726
0.22700672852415038
0.2220805948919385
0.19539393408347605
0.1645344260021201
0.16582569281868165
0.2123399540654384
0.2257764697585739
0.21393908603035391
0.18805647525590158
0.1537591876549983
0.17501187134863888
0.2168699015677542
0.2286598089062361
0.2067692371823537
0.1817827976279842
0.15060176376275752
0.1826430030625224
0.2169708805760674
0.22288084555514603
0.20215770824531992
0.1736949820535303
0.13636891574125076
0.19380161414887356
0.21646606279362435
0.22516079901690628
0.2026388863104201
0.17030963392500217
0.1337086278944264
0.1973821646764533
0.22218789344900927
0.22399385070634215
0.20897906768615046
0.1800668019812391
0.13655136669936518
0.2016518896763514
0.22186358886920785
0.22753433490426167
0.21133761927917744
0.18058434931256712
0.1423741148938853
0.20375127940659682
0.22086439719036002
0.22601619369504522
0.22061714518988002
0.19079792723201383
0.14451235175817145
0.20208807856092734
0.22053946449995535
0.23323378828081648
0.2226639608578451
0.18839833651745816
0.14801082168515717
0.19994258130840065
0.22122119235202883
0.2371298054249046
0.2291431174708201
0.20155664140501298
0.14986430467577277
0.19600864684778238
0.22234022910065948
0.2425097657948393
0.23805956883600632
0.20664004557251583
0.15304189956655295
0.19012837511995714
0.219285477621515
0.2452341659848535
0.24521203410327708
0.21760114955322948
0.16268485457302123
0.18195697248905984
0.2188634096865358
0.25196544377905916
0.2542808352965309
0.2258731037717851
0.16500967026729035
0.1719202079044948
0.21564717923690632
0.2554597348493457
0.2620691585557496
0.2375635386045987
0.17234413630348389
0.15805074088977136
0.20768307880388667
0.25611370920011495
0.27351341279332064
0.2571650690074566
0.19030086301817856
0.13885475575275313
0.1952939427120217
0.25586543205967804
0.2820261704077639
0.2818812921642105
0.1982317813812709
0.1225806436785086
0.18073535521389877
0.25119913210934597
0.2861652089286628
0.30969167535138
0.21692351429796
0.1028549685824778
0.16323697456465894
0.24488251628509053
0.28103379604943607
0.3491091655716716
0.2378649884171091
0.06014991367939844
0.12098510480381645
0.2192760650874021
0.24043490217731
0.3775352726729526
0.2026784688288911
0.20791554162079384
0.21564436790854125
0.22930201310950304
0.26259870751081194
0.28682454260869383
0.32432291443884287
0.3578993197775763
0.3821722032084899
0.3999764732506115
0.4303669720269393
0.46116826341372275
0.4946515836854022
0.5255761395689595
0.5639382267803569
0.599840267269864
0.6361496246261026
0.6669075055265984
0.7088281615891896
0.7292661362760384
0.761088218646183
0.7855337778749776
0.8073368837408736
0.8303757580671085
0.8560182452937636
0.2163567011523575
0.20442908135652083
0.2209197320857681
0.23043387169484542
0.24405982663072567
0.2625180288095704
0.29192226180633907
0.3020430146136259
0.32367751620620067
0.33930001476952987
0.39006918414010205
0.4352929500799789
0.4572549909490098
0.49835991524714196
0.5318125045186549
0.577718872018039
0.5982035903062612
0.6391863045012154
0.6639726587286661
0.6919227110429078
0.7169315712663513
0.7450313041627933
0.7673753786193642
0.7880521748072813
0.20297906332158072
0.19233545428851206
0.20178703106359275
0.19327364277526293
0.2055467581198911
0.19949810722900985
0.2090471329648359
0.24182613477485282
0.2603008065290374
0.30352903911918194
0.32750336154321424
0.3679210710219134
0.4129159285642289
0.4475722126551791
0.48808104018097087
0.5137550500662253
0.5401528318054486
0.5793239171841664
0.60002721842685
0.6158090376311466
0.6542408064830225
0.6781207852098905
0.6955517798578619
0.7176593084567118
0.18793705991179033
0.18107288050684367
0.15639833010235193
0.15824368568178182
0.14929831445805897
0.13623899541197992
0.13502658930020572
0.1726908963118925
0.20436826806188857
0.2490935163528314
0.2879821967707007
0.32685181874796176
0.364088610422421
0.39327796444243013
0.42637971987052337
0.46047790792114873
0.4852379097688445
0.5166628710586925
0.539027750930132
0.5692680165564101
0.585070883540348
0.6074228175880896
0.6293668288302618
0.6510586486367596
0.17786638933185223
0.16517350888460258
0.1421445752828907
0.11985066938802091
0.09090742018229891
0.07471558209763007
0.09054119437202712
0.1287094908688866
0.17131973814935797
0.21745584809393725
0.2644775425427972
0.30089884456482063
0.3310981323955723
0.3658852328664878
0.39320694547721713
0.41157787670332635
0.43735563041916026
0.46071561900827696
0.4823629387981866
0.5036143516382896
0.528417796407731
0.5468849318230067
0.5739021482416167
0.595371524527029
0.1592168051331695
0.13912139283393932
0.10518377737745466
0.07067768069878311
0.034998703339296666
0.049462467083370765
0.06461187611459174
0.11539528153558665
0.17763258277291005
0.22031909605592925
0.2576232073286232
0.29894409836015745
0.3204651275652788
0.352165384507769
0.3752640752565062
0.39583302893303574
0.4119429056732714
0.4367687228345126
0.45644992050663713
0.478865020840366
0.4997984543116094
0.5115630926960691
0.5374133684034121
0.5647773158713696
0.1381808565223437
0.11069686079442498
0.08381756581650845
0.03979678148522536
-0.002691622870238164
0.02888252333278829
0.09307576672370621
0.14926829330252767
0.20446667933848517
0.25718226748773
0.2906942912859378
0.3138764759032886
0.34124402463374837
0.3532500322971587
0.37624730186749467
0.4006196098763882
0.40022878624018376
0.42921281914291787
0.44901374811338124
0.46633115634245803
0.49231995119469807
0.5024965364321528
0.52556127538491
0.5539892786631833
0.12410476317346247
0.07744673573086047
0.05364755453607539
0.006216434520851188
0.001114325528986826
0.056316768469155676
0.12944097048174408
0.219977578662247
0.27473311673439627
0.3146071580328966
0.3574568328517377
0.36559597920674125
0.38172892155056215
0.39649411608821217
0.4064941649213527
0.43462814846569897
0.44163874509865353
0.4628853655934879
0.4676578060851826
0.48645308003995946
0.5049439498693501
0.5263215756298139
0.551810126428576
0.5841509154183198
0.11761255975212392
0.07303963646981249
0.014685386510412846
-0.014754641674025515
0.02384320901467618
0.12246577323398711
0.2310108657381691
0.3011317730847306
0.3770517915206466
0.41078414226273285
0.43642182691724674
0.45079614634933673
0.46246925754023405
0.47426601416431
0.47067119414591996
0.4870839708751029
0.5068649292270696
0.5160001289920385
0.5267195606197691
0.5488342459480748
0.560399349148174
0.5753297035532638
0.6086446798821171
0.6389415920409588
0.09203097744526911
0.05647055550217739
0.00824151148538288
-0.013187327631668078
0.08748605679798183
0.2215761169052871
0.34588378394319064
0.42469712501372836
0.4801722984578374
0.4952695946313206
0.5283194863559534
0.5414541226025261
0.5455599618090851
0.5497081641660841
0.5498409581503315
0.569242488077642
0.574782945327273
0.5971096680725556
0.6180527157013909
0.6271073122075854
0.6351917704572128
0.65587140099087
0.6844164213649218
0.7288019085805131
0.09177663489815763
0.0422849146746892
0.0030759537272484483
0.052414704495562736
0.20481065172377177
0.34943838334277266
0.4744814633805555
0.5377321815636369
0.5896678634890007
0.6211511151802297
0.6178572168860373
0.62422759072096
0.6443527730519798
0.6585004238513332
0.6449129542006227
0.6640789047471489
0.6888157177397923
0.6853027642422
0.6963039842169774
0.7159669304857224
0.7485906927040078
0.7696445491230346
0.8009187702071221
0.8359922677987559
0.09152182231665007
0.028486710347139343
0.009313587380104238
0.12827660144542852
0.31873998987640206
0.4998437715168318
0.6033736807326882
0.6579215143204207
0.6918155655972598
0.713005129287372
0.7232397413984855
0.7456148789218331
0.7244999150012758
0.7441272455183822
0.7464481154835371
0.769396250385338
0.7813845728455702
0.7918460212899743
0.803458862736366
0.8256370331960283
0.857008147813789
0.8920730670142017
0.9261023745284556
0.9517986270627272
0.08700670588848358
0.03336302101313271
0.04536465282333435
0.2309096379660639
0.46362412606143283
0.6223209863500463
0.7290599676200014
0.7641640410251849
0.7990657030627365
0.8069726271438113
0.8125632990764075
0.8260889178730532
0.8367677968630494
0.8436805778620697
0.8673459005082998
0.8662365820564459
0.902614082768557
0.8903039636138345
0.9195228736096486
0.9448216605856596
0.990411876560921
1.011875541727241
1.044667274553531
1.0811928707996474
0.08757806643710042
0.019170453256255438
0.11493931236831423
0.38546854361758137
0.6165257874605716
0.7513836334256533
0.8160824173714538
0.8599067864625056
0.8691898444755719
0.8904217632317573
0.9083162958586634
0.9169581610327988
0.9198446866429935
0.9432890452833742
0.9575087255486385
0.977601482312881
1.004663842868921
1.0177261908669077
1.0369677617422635
1.0621660255353047
1.1010630111408255
1.1306971687835383
1.154822226271503
1.1786000515819395
0.07391805210484848
0.0365664675220031
0.23073015007735365
0.5448256858635314
0.7614483252883051
0.8659571929717536
0.9100158311434624
0.9507025264680258
0.9615230929262953
0.9768343089813517
0.9891288676179852
1.0035924923530997
1.0080356064085116
1.017820678755385
1.0430629665250468
1.081075496671051
1.1053727703004754
1.1323329794201966
1.1580692319014068
1.1808557088913187
1.200628768479985
1.2205264334794537
1.2333081073263108
1.250924273107336
0.06975654203438453
0.0713630272506699
0.384460628596083
0.7090784062119695
0.8898385231313265
0.9743135748121269
1.0051483914872268
1.0203372992037416
1.032262724823137
1.0445520290921224
1.0576058430319444
1.0681859165130727
1.0805980830374737
1.1111164341571722
1.1372386089173607
1.1626139303237581
1.184808674802637
1.212029519762773
1.2416493942077886
1.2580725909124533
1.281343118678797
1.285224653344528
1.2887742214601476
1.2994091977039073
0.05936972072425051
0.14585077032056548
0.5373783424238101
0.8532881571677977
0.992349337854836
1.059735987230447
1.0826339705882675
1.1069991633867566
1.1084264901273848
1.1128961180874417
1.1319526238703264
1.1537323308055047
1.1503562886432135
1.196264268853451
1.2107547800775127
1.2340889503336459
1.2553189352352805
1.281082304086756
1.2967454882877276
1.3159768792967244
1.3218255682004278
1.3231978907739919
1.3195449841436127
1.3147263072413484
0.04879319240426472
0.2593552804841827
0.7234659160878845
0.9791424489380427
1.0841960401528643
1.1417602395474535
1.1622832765741093
1.1758265611396912
1.18356632518076
1.1947008270569064
1.198279867485294
1.2202092386049541
1.2410386417078205
1.2563234004579493
1.2749384745474428
1.2929271668773845
1.310026983078604
1.326280081715433
1.3371518823179867
1.340147511530742
1.34566163015505
1.3379429979159956
1.317026638690044
1.3029533125292239
0.04891297921440496
0.4309383979665008
0.8855980925305802
1.0869381655342012
1.1729340429006458
1.1998443409016943
1.2137718451925428
1.2306598044997785
1.2332178845753332
1.2414225067883131
1.27130618353878
1.2797541067416969
1.3018941101637127
1.3175494465757136
1.3298125670917713
1.3372314812183201
1.3443630767833945
1.3522568588850763
1.3539730204315612
1.3492286617771727
1.3402436081414466
1.327852594225841
1.3047362789200965
1.2791729047831641
0.07163875353058147
0.6459917523201777
1.0243930517927742
1.1842849365750245
1.229137646723293
1.2566758744989812
1.2671852213599806
1.2752041624326351
1.2960564540051789
1.3029898617273203
1.3177283288664394
1.3318469449365749
1.3397734862030242
1.3518982282183873
1.351602288574424
1.36198337923563
1.3593582700512112
1.3573872507716842
1.3535803261404533
1.3413189553012126
1.3257224781743984
1.3047468012642145
1.2756169339531724
1.2466492295879745
0.15817052559246758
0.8569359144726825
1.13229751632812
1.231018164097636
1.2742395056659759
1.291190889493016
1.3043820423358852
1.3348117540552287
1.3379717367833464
1.348634970630401
1.3563141723500989
1.3599448727891654
1.365178274069663
1.3639643220278983
1.3646656955436813
1.3613540602965588
1.35540677165934
1.3483160294408634
1.3388942405239583
1.322111774811811
1.2987667999464025
1.2699546821857433
1.2431462662311743
1.2117250304462568
0.35881836869749684
1.028114815297557
1.2122569198754245
1.276741021103661
1.311697807592106
1.3338103970084734
1.343886294504839
1.3465674072610097
1.3629798556266381
1.3725107605676796
1.373206169669246
1.3733706295541541
1.3712361541962412
1.3673307084733561
1.3603461033068425
1.3532335301230134
1.344289512973316
1.3318283065051817
1.3112973516665225
1.293407403739065
1.2787055576921684
1.2451711666679248
1.213911005038223
1.1772797085911337
0.6607087241357962
1.1249578809555683
1.256795258146444
1.3146040747067302
1.3291199209126077
1.354575205411354
1.367522629319931
1.3734582427535864
1.3778518676064504
1.3779662500743424
1.3760120998135774
1.3732042377543958
1.3682153320157016
1.3598964826577902
1.3532201623458213
1.3397665117204829
1.3283280769041999
1.3109194743085877
1.284695315555527
1.2662385823359037
1.2439500540400863
1.2196527763899745
1.1874639937023908
1.152951451743939
0.9611230202592231
1.1837289843342647
1.2787330512267878
1.3241767601945127
1.343722005006761
1.366383760296231
1.3747595352805257
1.3801339252945795
1.3851954523215393
1.381664267117095
1.3752377177946258
1.366888430956009
1.3527538216709152
1.344846947580734
1.336356078328956
1.3216740954104875
1.2946584668018424
1.2801269691218724
1.2622250365033274
1.2450405138074168
1.2174484394838048
1.1914675354051523
1.1627098774799274
1.127791584570126
0.08798928272419276
0.15048402600349545
0.13722031086972336
0.1778180345567193
0.2508751665474245
0.7398263506687405
0.1223117296866313
0.13678436729877796
0.1191486503472266
0.1829034604273922
0.3266115316007835
0.6580029215421203
0.132151809067901
0.11856423394121073
0.11771688146661546
0.1997998890001753
0.38918612442261663
0.6805871272890271
0.1385028322514761
0.11078513816708635
0.12436845948737468
0.2356077909188959
0.4402059836536598
0.7088186292325125
0.145018871681305
0.10701625134269678
0.13863117188031893
0.2684514029270393
0.48194397187828153
0.7375986657562366
0.14896393824335802
0.10419566917661564
0.1545015038738441
0.29687504159968947
0.5147126278542189
0.7543808688801503
0.15165918050781166
0.10439080044656081
0.16652376449106268
0.32566784842955265
0.5454906862985796
0.7748315611813943
0.15396440166727707
0.10360295236108022
0.1770767977517974
0.3439290913038864
0.5683616561531404
0.7929835967810686
0.15641261983883856
0.1045344917206772
0.18477728361300025
0.3612301032333088
0.5828879253274568
0.7988846910593943
0.15811341950437013
0.10513598859495855
0.18757311132359797
0.3720994735001496
0.5981988885515441
0.8154099889413164
0.1592748534667901
0.10287058342416804
0.188926878205748
0.37479562331696337
0.5987183384191874
0.8109550549876028
0.15987322833437936
0.10286740031845189
0.1871938743419582
0.3695274997410888
0.5982914257694698
0.8186563423619178
0.16164002480007372
0.10260784806129902
0.1786596386183325
0.3601277850422551
0.5933259622695236
0.8137565993977126
0.16184162517347506
0.10089174451301408
0.16967779974086283
0.34752702347358627
0.5812060500028371
0.8013435380963263
0.16234653046943553
0.098999010525569
0.15497107920449366
0.3260738659271048
0.5615540754362454
0.7856947984912486
0.16334861359232494
0.09941730410792855
0.14305395250220526
0.30058278093007523
0.53477617210572
0.7650003936254096
0.16160556675093932