/*--------------------------------*- C++ -*----------------------------------*\
  =========                 |
  \\      /  F ield         | OpenFOAM: The Open Source CFD Toolbox
   \\    /   O peration     | Website:  https://openfoam.org
    \\  /    A nd           | Version:  11
     \\/     M anipulation  |
\*---------------------------------------------------------------------------*/
FoamFile
{
    format      ascii;
    class       volScalarField;
    location    "0.3";
    object      epsilon;
}
// * * * * * * * * * * * * * * * * * * * * * * * * * * * * * * * * * * * * * //

dimensions      [0 2 -3 0 0 0 0];

internalField   nonuniform List<scalar> 
2880
(
2.00543
2.80923
3.46902
3.56489
3.101
3.11627
0.895302
1.25621
1.63927
1.77958
1.73978
2.04035
0.239548
0.993839
1.30703
1.41042
1.44055
1.69907
0.261635
0.95395
1.21392
1.29529
1.33995
1.54241
0.275651
0.988482
1.19278
1.26308
1.31094
1.4702
1.20191
1.07267
1.201
1.26382
1.31288
1.4436
1.33536
1.13541
1.22551
1.28462
1.33512
1.44398
1.45907
1.18255
1.25577
1.31601
1.36971
1.46493
1.56381
1.21653
1.28753
1.35339
1.41203
1.49971
1.64535
1.23975
1.31955
1.39466
1.45948
1.54372
1.7028
1.25464
1.35193
1.43907
1.51069
1.59388
1.73748
1.26372
1.38535
1.48663
1.56504
1.6479
1.75089
1.26916
1.42051
1.53781
1.6224
1.70424
1.73663
1.27147
1.45839
1.5935
1.68322
1.76219
1.69064
1.27023
1.50004
1.65509
1.74876
1.82211
1.61369
1.26495
1.54655
1.72471
1.82146
1.88581
1.50875
1.25547
1.59919
1.80572
1.90565
1.95724
1.38135
1.24131
1.65876
1.90387
2.00896
2.04412
1.24478
1.22149
1.72605
2.02725
2.14434
2.16327
0.280367
1.19573
1.80236
2.19038
2.33943
2.34609
0.263672
1.17934
1.89255
2.42231
2.64757
2.66861
0.23895
1.17775
2.02
2.78553
3.19187
3.36013
0.883787
1.26721
2.31964
3.50052
4.27629
5.3781
1.92634
1.99978
3.60447
5.62789
6.44767
6.15588
5.66409
4.35985
2.84418
2.01337
1.50001
1.14439
0.875747
0.665026
0.498849
0.369632
0.271484
0.198807
0.146186
0.108715
0.0823158
0.0638514
0.0510664
0.0424222
0.036903
0.0338264
0.0327154
0.0331614
0.0349591
0.0378889
5.15268
4.96003
3.70512
2.54318
1.87493
1.4447
1.1336
0.888397
0.688385
0.525428
0.39535
0.294438
0.218407
0.162558
0.12233
0.0937829
0.0738267
0.0602143
0.0513834
0.0462377
0.0439799
0.0440634
0.0458587
0.0493034
3.65992
5.13387
4.6036
3.35128
2.39346
1.8087
1.4236
1.13986
0.911181
0.719389
0.558781
0.427336
0.323076
0.242977
0.183161
0.139538
0.108409
0.0867864
0.0724211
0.0636531
0.059205
0.0582371
0.0598242
0.0636396
2.61634
4.65005
4.88885
4.32957
3.20251
2.34944
1.79824
1.43102
1.16094
0.942707
0.757018
0.598237
0.465279
0.357408
0.272781
0.208444
0.160941
0.126949
0.103631
0.0887103
0.0803033
0.0770835
0.0780075
0.0818804
2.11855
3.69287
4.69474
4.65668
4.13176
3.16478
2.37484
1.82989
1.46175
1.1945
0.981392
0.799932
0.642729
0.508491
0.397169
0.307942
0.238859
0.187261
0.150332
0.125462
0.110257
0.10277
0.102018
0.105476
1.8723
2.94574
4.06866
4.58085
4.48795
4.0095
3.17994
2.43834
1.88932
1.50945
1.23723
1.02498
0.846255
0.690697
0.555836
0.441735
0.348363
0.274775
0.21923
0.179563
0.153469
0.138625
0.133822
0.136495
1.74974
2.47858
3.40062
4.16052
4.45457
4.35003
3.93536
3.21614
2.51848
1.96464
1.56819
1.28576
1.07099
0.893777
0.740145
0.605694
0.490029
0.393579
0.316291
0.257385
0.215545
0.189026
0.176692
0.177456
1.69913
2.21075
2.90795
3.6148
4.1465
4.32992
4.23043
3.87732
3.24929
2.59565
2.04273
1.63079
1.33597
1.11645
0.939848
0.788637
0.655986
0.540497
0.442641
0.363022
0.301821
0.259026
0.234814
0.231096
1.68775
2.06951
2.59291
3.1735
3.70713
4.08798
4.20734
4.11611
3.81374
3.2609
2.65208
2.10904
1.68828
1.38286
1.15833
0.982119
0.833984
0.704628
0.591262
0.494005
0.413771
0.352061
0.311775
0.300002
1.70292
2.00557
2.40811
2.86929
3.33131
3.73276
4.00697
4.08239
3.99678
3.72911
3.2362
2.67396
2.15246
1.7336
1.42307
1.19503
1.01933
0.874606
0.749619
0.64011
0.545328
0.466356
0.40785
0.384805
1.73516
1.98452
2.30519
2.67253
3.05331
3.41285
3.71303
3.90709
3.9473
3.86319
3.61456
3.17043
2.6575
2.16899
1.76392
1.45557
1.22669
1.05164
0.909921
0.789526
0.684843
0.593642
0.518256
0.482235
1.77641
1.98525
2.247
2.5429
2.85224
3.15519
3.43102
3.65305
3.78589
3.79878
3.71258
3.47187
3.07065
2.60994
2.16386
1.78314
1.484
1.25724
1.08266
0.941439
0.823908
0.723769
0.635198
0.58649
1.82131
1.99691
2.20973
2.4477
2.6965
2.9448
3.18175
3.39294
3.55684
3.64585
3.64171
3.54797
3.31185
2.95505
2.55069
2.15402
1.80527
1.52089
1.29717
1.12096
0.977912
0.859464
0.755623
0.69408
1.86619
2.01012
2.17848
2.36567
2.56193
2.76108
2.95803
3.14541
3.31045
3.43419
3.49473
3.47961
3.37925
3.1567
2.85138
2.50746
2.16432
1.85175
1.58365
1.36087
1.17811
1.02962
0.901103
0.819263
1.90914
2.01947
2.14498
2.28608
2.43635
2.59255
2.75267
2.91325
3.06672
3.20042
3.29757
3.34042
3.31851
3.21887
3.02963
2.78058
2.49741
2.20708
1.92955
1.67773
1.45769
1.27043
1.10755
0.99936
1.94982
2.02243
2.10627
2.20621
2.31781
2.43866
2.56754
2.70227
2.83836
2.96727
3.07695
3.15289
3.18233
3.15721
3.06846
2.91839
2.72461
2.49893
2.25821
2.0176
1.78922
1.58029
1.39339
1.26869
1.98915
2.01981
2.06308
2.12817
2.21026
2.30554
2.41143
2.52419
2.64089
2.75528
2.85886
2.94214
2.99206
3.00533
2.97436
2.89589
2.77374
2.61875
2.44137
2.25251
2.06031
1.87294
1.70222
1.59109
2.02913
2.01238
2.01803
2.05575
2.11933
2.20078
2.29564
2.39974
2.50543
2.60443
2.68915
2.75331
2.79256
2.80755
2.79173
2.74296
2.66318
2.55592
2.42689
2.28371
2.13497
1.98894
1.85832
1.76928
2.07443
2.00026
1.97419
1.99231
2.04946
2.13227
2.23374
2.34346
2.4508
2.54634
2.62266
2.67095
2.69178
2.68372
2.6447
2.57924
2.49239
2.38992
2.27696
2.15775
2.03763
1.92227
1.81929
1.73199
2.13208
1.98606
1.93202
1.93976
2.00276
2.10014
2.21402
2.33614
2.45544
2.56046
2.63916
2.68187
2.69593
2.67558
2.62158
2.54007
2.43719
2.31906
2.19142
2.05949
1.92842
1.80476
1.69436
1.59112
2.21533
1.97235
1.89161
1.89901
1.97954
2.09735
2.23955
2.39402
2.5456
2.6782
2.77639
2.82825
2.84328
2.81396
2.74363
2.642
2.51789
2.37895
2.23283
2.08555
1.94229
1.80854
1.68804
1.57183
2.34893
1.96018
1.85347
1.87146
1.97796
2.13083
2.31518
2.51577
2.71212
2.88134
3.00494
3.07178
3.07999
3.02328
2.92465
2.79692
2.65057
2.49499
2.3369
2.18131
2.03289
1.89563
1.77012
1.64404
2.56896
1.94875
1.82003
1.86096
2.00472
2.20402
2.44189
2.69675
2.93678
3.12719
3.23328
3.2402
3.18488
3.0946
2.96951
2.82048
2.65792
2.49057
2.32469
2.16547
2.01684
1.8811
1.76055
1.63089
2.90722
1.9367
1.79956
1.8781
2.07093
2.32947
2.63165
2.94058
3.20193
3.34703
3.35199
3.27356
3.12816
2.93226
2.7162
2.49746
2.28792
2.09402
1.91802
1.7595
1.61868
1.4901
1.38884
1.25958
1.86026
2.15556
4.4696
5.70664
6.10555
6.17724
0.850572
1.57866
2.88153
3.74557
4.82488
6.4019
0.234752
1.51745
2.41536
3.00473
3.59582
3.91251
0.261289
1.49899
2.17446
2.58786
2.86122
2.89253
0.279087
1.46788
1.99496
2.28038
2.43174
2.42541
1.24056
1.43632
1.84172
2.04594
2.15133
2.17174
1.3597
1.3941
1.70725
1.85811
1.94903
2.00576
1.45745
1.34921
1.58953
1.70432
1.78802
1.87858
1.52933
1.30399
1.48529
1.57305
1.65254
1.77336
1.57386
1.25915
1.39195
1.45775
1.53421
1.68368
1.58993
1.21528
1.30766
1.35454
1.42865
1.6083
1.58374
1.17284
1.2311
1.26107
1.33385
1.54844
1.55036
1.13249
1.16123
1.17606
1.24871
1.50552
1.50351
1.09571
1.09718
1.09856
1.17235
1.48078
1.44391
1.06057
1.03781
1.0274
1.10421
1.47623
1.36844
1.02189
0.981498
0.961589
1.04356
1.49501
1.26415
0.969573
0.925716
0.900275
0.989557
1.54275
1.18585
0.886511
0.86748
0.842788
0.941117
1.61926
0.27278
0.763521
0.806101
0.789437
0.896691
1.71278
0.261141
0.673754
0.750868
0.741145
0.854719
1.80389
0.244714
0.620276
0.713548
0.705901
0.81739
1.88368
0.223166
0.631009
0.720014
0.707262
0.798969
1.98289
0.836046
0.824202
0.848462
0.80859
0.848267
2.18119
2.00046
1.92998
1.77004
1.55742
1.33487
2.08919
2.86886
1.91645
1.80861
1.93909
2.19491
2.52796
2.90396
3.25492
3.47399
3.51227
3.36362
3.07109
2.71015
2.34972
2.02226
1.72885
1.48307
1.27899
1.10873
0.964058
0.843526
0.73517
0.656677
0.55889
2.58027
1.91707
1.86409
2.06317
2.39639
2.81878
3.26653
3.61206
3.73691
3.56763
3.16426
2.62637
2.11347
1.68596
1.35049
1.10904
0.923393
0.773234
0.649032
0.545307
0.459121
0.386236
0.327862
0.273526
2.33363
1.9545
1.98106
2.26126
2.68999
3.21253
3.70327
3.9643
3.86394
3.47649
2.79219
2.15115
1.65151
1.29059
1.03976
0.85128
0.700366
0.576439
0.473967
0.389313
0.319656
0.262496
0.216866
0.183077
2.20569
2.02403
2.15481
2.5354
3.0852
3.70918
4.17021
4.22008
3.89901
3.15987
2.37077
1.7736
1.36754
1.09159
0.88667
0.724263
0.591578
0.482019
0.39158
0.317295
0.256714
0.208014
0.170466
0.146742
2.14284
2.11578
2.3735
2.89001
3.59368
4.28808
4.57709
4.33881
3.67051
2.72583
1.98536
1.49291
1.16424
0.926941
0.74527
0.599907
0.48179
0.38606
0.309096
0.247926
0.200083
0.1638
0.138343
0.124823
2.10001
2.22587
2.63738
3.34307
4.22128
4.86398
4.78314
4.26692
3.20439
2.27975
1.66478
1.26776
0.988821
0.778556
0.613682
0.481936
0.377455
0.295668
0.232624
0.18497
0.150034
0.125856
0.111151
0.105095
2.06896
2.35216
2.96453
3.92626
4.92701
5.21756
4.8302
3.7901
2.65676
1.89475
1.41267
1.0841
0.840486
0.652493
0.504713
0.389373
0.300567
0.233239
0.183085
0.146638
0.121219
0.104807
0.0958281
0.0929216
2.04712
2.50521
3.39448
4.65855
5.54076
5.34373
4.50543
3.15822
2.21108
1.61495
1.21742
0.928539
0.708193
0.537945
0.407723
0.309562
0.236654
0.183306
0.144986
0.118227
0.100438
0.0896629
0.0844569
0.0834029
2.03721
2.71077
3.98129
5.47976
5.8077
5.23624
3.83899
2.64179
1.88766
1.39658
1.04722
0.785027
0.585711
0.435646
0.324342
0.243027
0.184486
0.143024
0.11431
0.0951127
0.083045
0.076337
0.0737145
0.0737817
2.04843
3.00858
4.76217
6.11364
5.86689
4.70947
3.21391
2.25594
1.64131
1.21127
0.893214
0.654953
0.478261
0.349298
0.256591
0.190807
0.144707
0.112909
0.0915117
0.0777131
0.0694733
0.0653434
0.06425
0.0648093
2.09381
3.45214
5.68321
6.35185
5.65681
4.01429
2.7721
1.97936
1.43639
1.04234
0.751614
0.538909
0.385834
0.27747
0.201772
0.149438
0.113635
0.089515
0.0737018
0.0638459
0.0582791
0.0558475
0.0556604
0.0564979
2.19127
4.10132
6.50709
6.38833
5.12212
3.48752
2.44493
1.74806
1.25084
0.887906
0.625096
0.438395
0.308287
0.218921
0.158099
0.116964
0.089363
0.0711282
0.059449
0.0524119
0.0486924
0.0473753
0.0476747
0.0487129
2.35629
4.98461
6.88488
6.26386
4.49722
3.10559
2.18968
1.54599
1.08101
0.747661
0.513729
0.353116
0.244656
0.172119
0.123806
0.0916918
0.0704602
0.0566389
0.0479533
0.042885
0.0404005
0.039776
0.0403314
0.0414546
2.59533
6.0066
6.98142
5.89859
4.05011
2.81799
1.96611
1.35724
0.923963
0.622572
0.418182
0.282371
0.19324
0.135006
0.0969126
0.0719351
0.0555979
0.0450712
0.0385486
0.034848
0.0331727
0.0329574
0.03364
0.0347439
2.9152
6.92042
6.97712
5.47318
3.74259
2.57997
1.76097
1.18194
0.781891
0.513439
0.337707
0.224528
0.152133
0.105759
0.0758604
0.0564508
0.0438404
0.0357578
0.0307872
0.0280209
0.0268518
0.0268459
0.0275597
0.0286062
3.34934
7.52074
6.98483
5.07771
3.47213
2.35366
1.56295
1.01798
0.65476
0.419805
0.27102
0.177831
0.119522
0.0827816
0.0593624
0.0442651
0.0344859
0.0282168
0.0243555
0.0222121
0.021331
0.0213861
0.0220612
0.0230269
3.99297
7.87698
6.91138
4.80932
3.24789
2.14027
1.37573
0.868517
0.543633
0.340951
0.2165
0.14046
0.093769
0.0647436
0.0464056
0.0346372
0.0270128
0.0220966
0.0190296
0.0172875
0.0165346
0.0165444
0.0171008
0.0179639
4.83309
8.12957
6.82711
4.62931
3.02813
1.9258
1.19681
0.733375
0.447747
0.275368
0.172365
0.11075
0.0735012
0.0505938
0.0362172
0.0270148
0.021037
0.017141
0.0146505
0.0131602
0.012421
0.01228
0.0126304
0.013345
5.84614
8.39106
6.80856
4.44117
2.79308
1.71213
1.02998
0.613901
0.366451
0.22151
0.136948
0.0872635
0.0576057
0.039517
0.0282172
0.0209912
0.0162768
0.013161
0.0111022
0.00977452
0.00897682
0.00859134
0.00859418
0.00903186
7.22787
8.82529
6.80733
4.21368
2.54057
1.5024
0.876906
0.509747
0.298293
0.177661
0.108706
0.0687874
0.0451921
0.0308857
0.0219726
0.0162693
0.0125276
0.0100167
0.00829735
0.00709569
0.00622867
0.00556487
0.00503319
0.00481788
9.11305
9.53655
6.71474
3.92301
2.27097
1.29995
0.738764
0.420152
0.241725
0.142221
0.08631
0.0543199
0.0355481
0.0242095
0.0171529
0.0126299
0.00964561
0.00761656
0.00618786
0.00513176
0.00428898
0.00353697
0.00277556
0.00165627
11.3889
10.4235
6.37328
3.5606
1.99238
1.1096
0.616238
0.343985
0.195161
0.113744
0.06862
0.0430293
0.0280872
0.0190822
0.01348
0.00988495
0.00750602
0.00588051
0.00472771
0.00386846
0.00317936
0.00256915
0.00196107
0.00115739
14.2999
10.8987
5.84829
3.14624
1.71326
0.933536
0.508858
0.279827
0.157087
0.090956
0.0546773
0.0342242
0.0223164
0.0151478
0.0106886
0.00782638
0.00593218
0.00463874
0.00372368
0.00304493
0.0025031
0.00202401
0.00155469
0.000977394
18.7525
10.9452
5.18327
2.6927
1.4423
0.774348
0.416223
0.226366
0.126171
0.0727862
0.0436939
0.0273434
0.0178332
0.0121077
0.00854511
0.00625815
0.00474522
0.00371322
0.00298433
0.00244427
0.00201214
0.00162911
0.00126126
0.000839241
2.38647
5.87783
8.90142
9.87273
10.7845
53.2154
0.9768
2.59886
4.14903
5.13025
6.53299
14.4071
0.260186
1.98663
2.99871
3.79458
4.87177
7.64633
1.21421
1.81476
2.50346
3.14097
3.93066
5.16338
1.50539
1.74696
2.22196
2.71654
3.28924
3.91964
1.76372
1.71901
2.033
2.40521
2.81013
3.14627
1.98671
1.69796
1.89704
2.16431
2.44026
2.61038
2.16677
1.67513
1.78971
1.97208
2.15034
2.21834
2.2986
1.64571
1.6995
1.81599
1.92139
1.92331
2.38052
1.60837
1.62145
1.68871
1.74038
1.69776
2.41463
1.56458
1.55386
1.58617
1.59837
1.52471
2.40655
1.51736
1.49734
1.50577
1.48878
1.3932
2.36538
1.47046
1.4531
1.44601
1.40704
1.29532
2.28956
1.42605
1.42262
1.4068
1.35006
1.22558
2.17297
1.3849
1.40864
1.38973
1.31705
1.18058
2.01753
1.34779
1.40874
1.39163
1.30722
1.15998
1.82904
1.31542
1.42758
1.41792
1.32113
1.16188
1.61663
1.28781
1.46858
1.47394
1.36588
1.19179
1.39473
1.26366
1.53723
1.56972
1.45368
1.26021
1.18575
1.23933
1.64207
1.72488
1.61031
1.39252
0.262431
1.21175
1.79747
1.98001
1.89252
1.65323
0.239076
1.19927
2.03715
2.43332
2.4378
2.25364
0.88403
1.27182
2.48219
3.40204
3.65358
4.22874
1.94707
2.02841
3.72034
6.03797
6.70549
26.4735
22.6525
8.6926
4.19187
2.22069
1.19095
0.634263
0.337652
0.182316
0.101237
0.0583393
0.0350357
0.0219457
0.0143266
0.00973478
0.0068752
0.00503876
0.00382395
0.00299567
0.00241098
0.0019777
0.00163054
0.00132425
0.00103835
0.000731027
10.9297
5.85068
3.26098
1.80018
0.970888
0.51444
0.272202
0.146456
0.0812652
0.0468797
0.0282012
0.0176932
0.0115649
0.00786525
0.00555865
0.00407658
0.00309626
0.00242824
0.00195721
0.00160873
0.00133047
0.00108793
0.000868803
0.000646293
6.81521
4.39135
2.59408
1.45635
0.785649
0.414568
0.218687
0.117614
0.0653698
0.0378048
0.0227968
0.0143287
0.0093769
0.0063817
0.00451233
0.00331101
0.00251695
0.00197676
0.00159697
0.00131733
0.00109579
0.000905964
0.000740249
0.000580476
4.88613
3.4254
2.07633
1.17375
0.632514
0.333024
0.175626
0.0946455
0.052775
0.030622
0.0185141
0.0116571
0.00763568
0.00519896
0.00367725
0.0026999
0.00205504
0.00161776
0.00131192
0.00108853
0.000913668
0.000766937
0.000643317
0.000529701
3.74286
2.70415
1.6651
0.944494
0.508516
0.267637
0.1414
0.0764745
0.0428177
0.0249329
0.0151125
0.00952905
0.00624579
0.00425374
0.00300989
0.00221226
0.00168765
0.00133373
0.00108811
0.000910695
0.000773963
0.000661896
0.000570795
0.000490741
2.974
2.16229
1.34188
0.761751
0.409809
0.215871
0.114405
0.0621463
0.034947
0.0204197
0.0124042
0.00783004
0.00513431
0.00349776
0.00247693
0.00182412
0.00139678
0.00111053
0.000913913
0.000773897
0.000667955
0.000583292
0.000516843
0.000460902
2.42177
1.75363
1.08999
0.617849
0.332084
0.175187
0.0931879
0.0508542
0.0287174
0.0168314
0.010243
0.00647108
0.00424471
0.00289336
0.00205212
0.00151631
0.00116776
0.000936428
0.000779564
0.000669729
0.000588323
0.000524943
0.000476852
0.000438051
2.0119
1.44416
0.894591
0.505319
0.271227
0.143312
0.0765196
0.041942
0.0237748
0.013971
0.00851457
0.00538267
0.00353253
0.00241069
0.00171441
0.00127324
0.000988513
0.00080166
0.000676871
0.000591157
0.000529024
0.0004819
0.000447282
0.000420567
1.70302
1.20858
0.743201
0.417561
0.223657
0.118331
0.0633989
0.0348873
0.0198407
0.0116846
0.00712949
0.00451007
0.00296251
0.00202583
0.00144675
0.00108216
0.000849086
0.000698135
0.000599052
0.000532401
0.000485194
0.000450307
0.000425481
0.000407249
1.46932
1.02813
0.625744
0.349081
0.186417
0.0986987
0.0530324
0.0292806
0.016698
0.00985148
0.00601738
0.00380994
0.0025065
0.00171953
0.00123528
0.000932671
0.000741316
0.00061922
0.000540572
0.000488811
0.00045301
0.000427241
0.0004095
0.000397207
1.2921
0.889376
0.534356
0.295483
0.157153
0.0831987
0.0448014
0.0248037
0.0141772
0.0083774
0.00512278
0.00324785
0.00214194
0.00147623
0.00106879
0.000816309
0.000658575
0.000559545
0.000496994
0.000456723
0.000429543
0.000410526
0.000397912
0.000389762
1.15793
0.782479
0.462993
0.253336
0.134033
0.0708898
0.0382275
0.0212099
0.0121466
0.00718838
0.0044019
0.00279639
0.00185076
0.00128344
0.000938232
0.000726251
0.000595527
0.000514816
0.000464815
0.000433309
0.000412589
0.00039856
0.000389663
0.000384385
1.05746
0.700222
0.407056
0.220004
0.115652
0.0610513
0.032943
0.0183086
0.0105036
0.00622636
0.00382006
0.00243374
0.0016185
0.0011311
0.000836326
0.000657022
0.000547909
0.000481637
0.000441316
0.000416423
0.000400505
0.000390156
0.000383964
0.000380645
0.984165
0.637296
0.363063
0.193472
0.10094
0.0531377
0.0286646
0.0159516
0.00916785
0.00544566
0.00334985
0.00214255
0.00143363
0.00101121
0.000757267
0.000604254
0.000512337
0.000457345
0.000424412
0.000404452
0.000392061
0.000384398
0.000380201
0.00037817
0.933613
0.589802
0.328368
0.17219
0.0891045
0.0467293
0.0251733
0.0140238
0.00807661
0.00481031
0.00296959
0.00190908
0.001287
0.000917412
0.000696459
0.000564495
0.000486145
0.00043987
0.000412509
0.000396186
0.000386341
0.00038063
0.000377843
0.000376605
0.903067
0.554881
0.30095
0.155046
0.0794956
0.0414806
0.0222979
0.0124355
0.00718065
0.00429203
0.00266218
0.00172248
0.00117146
0.000844754
0.000650336
0.000535084
0.000467307
0.000427663
0.000404438
0.000390761
0.000382728
0.000378406
0.000376435
0.000375663
0.8916
0.530426
0.279196
0.141251
0.0715838
0.0371197
0.0199075
0.0111168
0.00644147
0.00386858
0.00241417
0.00157425
0.00108138
0.0007894
0.000616175
0.000514029
0.00045434
0.000419621
0.000399377
0.00038755
0.000380738
0.000377257
0.000375744
0.000375204
0.898321
0.514808
0.262092
0.129919
0.064936
0.0334337
0.0178979
0.0100128
0.00582888
0.00352249
0.00221497
0.00145772
0.00101239
0.000748365
0.000591869
0.000499801
0.000446123
0.000414916
0.000396701
0.000386064
0.000380002
0.00037693
0.00037557
0.000375082
0.925394
0.506556
0.248924
0.12035
0.0592
0.030255
0.0161801
0.00908038
0.00531931
0.00324011
0.00205632
0.00136766
0.000961077
0.000719326
0.000575779
0.000491216
0.000441794
0.000412927
0.00039596
0.000385977
0.000380196
0.000377142
0.000375702
0.000375108
0.976573
0.504993
0.238259
0.111868
0.0540738
0.0274459
0.0146867
0.008286
0.00489455
0.00301091
0.00193183
0.00130006
0.000924835
0.000700539
0.000566705
0.000487433
0.000440757
0.00041322
0.000396828
0.000387014
0.0003812
0.000377884
0.000376119
0.000375228
1.05875
0.509393
0.22856
0.103802
0.0492941
0.0248967
0.0133671
0.00760463
0.00454096
0.00282696
0.00183673
0.00125198
0.000901778
0.000690776
0.000563859
0.00048788
0.000442661
0.000415584
0.000399166
0.000389092
0.000382884
0.000379084
0.000376807
0.000375466
1.18352
0.51767
0.217964
0.0954643
0.0446391
0.022527
0.0121862
0.00701883
0.00424888
0.00268268
0.0017677
0.00122136
0.00089064
0.000689229
0.000566539
0.000492329
0.000447377
0.000419949
0.000402948
0.000392209
0.00038529
0.00038075
0.000377769
0.000375829
1.37738
0.51923
0.203618
0.0861777
0.039957
0.0202927
0.0111257
0.00651852
0.00401236
0.00257456
0.00172267
0.00120704
0.000890759
0.000695471
0.000575022
0.000500794
0.000454977
0.000426415
0.000408278
0.000396465
0.000388509
0.000382966
0.000379084
0.000376388
1.65094
0.493205
0.182002
0.0755333
0.0352264
0.0181962
0.0101867
0.00610075
0.00382894
0.002501
0.00170085
0.00120864
0.000902064
0.00070993
0.000589288
0.00051351
0.000465725
0.000435239
0.000415387
0.000402059
0.000392717
0.000385889
0.000380892
0.00037726
2.00317
1.53461
2.40815
4.06857
5.11095
5.51605
0.882784
1.20659
2.13873
3.1732
3.51271
2.59865
0.237723
1.30326
2.06763
2.52093
2.40093
1.44549
0.262837
1.40839
1.92249
2.07421
1.70934
0.921367
1.1963
1.46834
1.78062
1.73689
1.26721
0.648546
1.35809
1.48621
1.66198
1.47602
0.985298
0.497547
1.61536
1.48489
1.56099
1.28334
0.808517
0.40996
1.83758
1.48116
1.47862
1.14796
0.700562
0.360567
2.02031
1.48164
1.4161
1.05957
0.63966
0.337024
2.15881
1.489
1.37633
1.01014
0.613565
0.333331
2.25102
1.50523
1.36074
0.99466
0.614394
0.345228
2.29669
1.53114
1.36634
1.00416
0.638599
0.375641
2.2985
1.56694
1.39448
1.04375
0.688581
0.424494
2.26924
1.61242
1.44654
1.11205
0.764833
0.495067
2.23323
1.66599
1.51894
1.20871
0.870671
0.592837
2.17776
1.72072
1.60789
1.33466
1.01081
0.725511
2.09094
1.76776
1.70771
1.49048
1.19106
0.903422
1.96102
1.79766
1.81373
1.67428
1.4176
1.14068
1.77621
1.80229
1.92899
1.87849
1.69744
1.45642
1.52536
1.78366
2.05735
2.11208
2.03375
1.87322
1.20089
1.74997
2.21561
2.39824
2.43243
2.41337
0.25651
1.7452
2.4831
2.78988
2.94772
3.23726
0.975125
2.0701
3.16723
3.59089
3.85849
4.90582
2.34608
4.40525
6.39337
6.60512
6.26511
6.17259
1.23905
0.408705
0.151325
0.0639247
0.0306211
0.016284
0.00939342
0.00576886
0.00369934
0.00246307
0.00170271
0.00122671
0.000925167
0.000732869
0.000609854
0.000530966
0.000480078
0.000446828
0.000424626
0.000409296
0.000398174
0.000389748
0.000383392
0.000378613
0.818579
0.299783
0.118984
0.0528575
0.0264796
0.0146472
0.00875996
0.0055292
0.00362731
0.00246174
0.00172965
0.0012624
0.000960993
0.000765239
0.000637546
0.000553888
0.000498667
0.000461721
0.000436458
0.000418572
0.000405236
0.000394863
0.000386806
0.000380639
0.550567
0.216667
0.0921088
0.0436146
0.0230773
0.0133734
0.00830405
0.00538979
0.00361719
0.00250119
0.00178449
0.00131792
0.00101134
0.000808518
0.000673604
0.000583324
0.000522381
0.000480677
0.000451535
0.000430458
0.000414382
0.000401552
0.000391219
0.000383414
0.385675
0.15991
0.0724581
0.0366583
0.0205396
0.0125019
0.00804247
0.00536315
0.00367648
0.00258689
0.00187145
0.00139659
0.00107889
0.00086491
0.000719872
0.000620838
0.000552553
0.000504822
0.000470782
0.000445671
0.000426095
0.000410089
0.000396925
0.000387073
0.285002
0.123127
0.0591847
0.0318801
0.0189006
0.0120266
0.00798831
0.00545849
0.00381524
0.00272647
0.00199651
0.00150314
0.00116744
0.000937536
0.000778961
0.000668646
0.000591066
0.00053573
0.000495471
0.000465185
0.000441112
0.000421137
0.000404728
0.000392133
0.22392
0.100381
0.0509163
0.0290033
0.0180937
0.01195
0.00815916
0.0056942
0.00404682
0.00293038
0.00216782
0.00164399
0.00128215
0.00103059
0.000854345
0.000729657
0.00064037
0.000575466
0.000527336
0.000490463
0.000460678
0.000435728
0.000415271
0.000399022
0.188058
0.0874058
0.046498
0.0277912
0.0180562
0.0122882
0.00858112
0.00609303
0.00438947
0.00321278
0.00239636
0.00182775
0.00142985
0.0011496
0.000950544
0.000807618
0.000703609
0.000626685
0.000568622
0.000523383
0.000486314
0.000454988
0.000429294
0.000408128
0.169207
0.0815209
0.0451928
0.0280016
0.018776
0.0130824
0.00929461
0.00668759
0.00486837
0.00359292
0.00269692
0.0020659
0.00161959
0.00130181
0.00107346
0.00090741
0.000784882
0.000692872
0.0006223
0.000566444
0.000520031
0.000480402
0.000447783
0.000419976
0.162837
0.0811498
0.0462789
0.0296684
0.0203511
0.0144082
0.0103605
0.00752442
0.00551851
0.00409711
0.00308944
0.0023738
0.00186338
0.00149677
0.00123083
0.00103543
0.000889555
0.000778592
0.000692276
0.000622953
0.000564533
0.000514014
0.000472126
0.000435277
0.165394
0.0854611
0.0503103
0.0329455
0.0229142
0.0163843
0.0118688
0.00866989
0.0063887
0.00476148
0.00360106
0.00277211
0.00217726
0.00174716
0.00143288
0.00120007
0.00102466
0.00088982
0.000783668
0.000697279
0.000623443
0.000558631
0.000504255
0.000454995
0.178287
0.095301
0.0573937
0.0381134
0.0267124
0.019193
0.0139514
0.010219
0.00754756
0.00563618
0.00426893
0.00328889
0.0025828
0.00206993
0.00169318
0.00141242
0.00119943
0.00103438
0.000903181
0.000795168
0.000701589
0.000618072
0.000546845
0.000480439
0.201721
0.111261
0.0682871
0.0457206
0.0321357
0.0231097
0.016802
0.0123083
0.00909249
0.00679151
0.00514463
0.00396266
0.00310939
0.00248793
0.00202992
0.00168725
0.0014261
0.00122257
0.00105962
0.00092418
0.000805383
0.000697495
0.00060358
0.000513369
0.237822
0.135132
0.0842337
0.0566351
0.0397816
0.028546
0.0207056
0.0151366
0.0111634
0.00832733
0.00630066
0.00484706
0.00379752
0.00303243
0.00246771
0.00204439
0.00172096
0.00146807
0.00126461
0.00109431
0.000943358
0.000803875
0.000679518
0.000556099
0.29033
0.169793
0.107188
0.0721889
0.0505548
0.0361193
0.0260855
0.0189961
0.013964
0.0103877
0.00784055
0.00601797
0.00470398
0.00374684
0.00304055
0.002511
0.00210619
0.00178932
0.00153379
0.00131898
0.00112702
0.000946766
0.000781693
0.000611585
0.364768
0.219507
0.140117
0.0943991
0.0658236
0.0467598
0.0335763
0.0243223
0.0177958
0.0131838
0.00991481
0.00758473
0.00590994
0.00469286
0.00379637
0.00312523
0.00261281
0.00221204
0.00188886
0.00161673
0.0013724
0.00113974
0.000920311
0.000683581
0.469083
0.290487
0.187423
0.126289
0.0876519
0.0618756
0.0441392
0.0317728
0.0231116
0.017031
0.0127464
0.00970807
0.00753396
0.00596011
0.00480477
0.00394253
0.00328612
0.00277406
0.00236193
0.00201519
0.00170352
0.00140374
0.00111182
0.000777423
0.61435
0.391578
0.255486
0.17232
0.119131
0.0835985
0.0592388
0.0423521
0.030602
0.0224078
0.0166714
0.0126288
0.00975272
0.00768193
0.00616958
0.0050465
0.00419573
0.00353516
0.00300559
0.00256131
0.00216278
0.00177745
0.00138894
0.000906109
0.815435
0.53488
0.353231
0.238894
0.164807
0.115128
0.0811058
0.0576039
0.0413319
0.0300515
0.0222057
0.0167142
0.0128342
0.0100601
0.00804852
0.00656606
0.0054524
0.00459567
0.00391548
0.00335036
0.00284813
0.002362
0.00185002
0.0011657
1.09198
0.736164
0.492481
0.33478
0.231134
0.161157
0.113099
0.079896
0.056953
0.0411099
0.0301513
0.0225322
0.0171897
0.0134017
0.0106805
0.00869678
0.00722698
0.00611712
0.00525912
0.00457399
0.00399849
0.00348026
0.00302539
0.00287863
1.4719
1.0149
0.687658
0.471078
0.326717
0.228266
0.160134
0.112807
0.0800163
0.0573779
0.0417661
0.03097
0.0234545
0.0181726
0.014418
0.011717
0.00975205
0.00831078
0.00725329
0.00649035
0.00596563
0.00565481
0.00563816
0.00621392
2.00856
1.39427
0.954006
0.660048
0.461854
0.324971
0.229008
0.161555
0.114387
0.0816426
0.059028
0.043424
0.032619
0.0250834
0.0197797
0.0160129
0.0133221
0.0114069
0.010079
0.00922782
0.00879376
0.00876883
0.0092268
0.0103262
2.74983
1.89114
1.30192
0.911583
0.64651
0.460808
0.328238
0.233255
0.165676
0.11813
0.0850187
0.0620987
0.046248
0.0352467
0.0275629
0.0221636
0.0183664
0.0157321
0.0139906
0.0129837
0.0126197
0.0128469
0.0137189
0.0152592
3.79735
2.5026
1.72588
1.22639
0.885883
0.643613
0.466663
0.336483
0.241389
0.172926
0.124403
0.0904361
0.0668236
0.0504335
0.0390297
0.0310738
0.0255405
0.0217694
0.01935
0.0180317
0.0176535
0.0180737
0.0193247
0.0212967
5.73012
3.52227
2.2662
1.60128
1.17635
0.874945
0.650081
0.479318
0.350132
0.253954
0.183805
0.133615
0.0982203
0.0734651
0.0562065
0.0441926
0.0358834
0.0302678
0.026702
0.0247722
0.0241986
0.024715
0.026293
0.0287235
)
;

boundaryField
{
    rotor
    {
        type            epsilonWallFunction;
        value           nonuniform List<scalar> 
144
(
2.00543
2.80923
3.46902
3.56489
3.101
3.11627
2.00543
0.895302
0.239548
0.261635
0.275651
1.20191
1.33536
1.45907
1.56381
1.64535
1.7028
1.73748
1.75089
1.73663
1.69064
1.61369
1.50875
1.38135
1.24478
0.280367
0.263672
0.23895
0.883787
1.92634
1.92634
1.99978
3.60447
5.62789
6.44767
6.15588
1.86026
2.15556
4.4696
5.70664
6.10555
6.17724
1.86026
0.850572
0.234752
0.261289
0.279087
1.24056
1.3597
1.45745
1.52933
1.57386
1.58993
1.58374
1.55036
1.50351
1.44391
1.36844
1.26415
1.18585
0.27278
0.261141
0.244714
0.223166
0.836046
2.00046
2.00046
1.92998
1.77004
1.55742
1.33487
2.08919
2.38647
5.87783
8.90142
9.87273
10.7845
53.2154
2.38647
0.9768
0.260186
1.21421
1.50539
1.76372
1.98671
2.16677
2.2986
2.38052
2.41463
2.40655
2.36538
2.28956
2.17297
2.01753
1.82904
1.61663
1.39473
1.18575
0.262431
0.239076
0.88403
1.94707
1.94707
2.02841
3.72034
6.03797
6.70549
26.4735
2.00317
1.53461
2.40815
4.06857
5.11095
5.51605
2.00317
0.882784
0.237723
0.262837
1.1963
1.35809
1.61536
1.83758
2.02031
2.15881
2.25102
2.29669
2.2985
2.26924
2.23323
2.17776
2.09094
1.96102
1.77621
1.52536
1.20089
0.25651
0.975125
2.34608
2.34608
4.40525
6.39337
6.60512
6.26511
6.17259
)
;
    }
    freestream
    {
        type            inletOutlet;
        inletValue      uniform 0.000375;
        value           nonuniform List<scalar> 
96
(
0.0378889
0.0493034
0.0636396
0.0818804
0.105476
0.136495
0.177456
0.231096
0.300002
0.384805
0.482235
0.58649
0.69408
0.819263
0.99936
1.26869
1.59109
1.76928
1.73199
1.59112
1.57183
1.64404
1.63089
1.25958
0.55889
0.273526
0.183077
0.146742
0.124823
0.105095
0.0929216
0.0834029
0.0737817
0.0648093
0.0564979
0.0487129
0.0414546
0.0347439
0.0286062
0.0230269
0.0179639
0.013345
0.00903186
0.00481788
0.000375
0.000375
0.000375
0.000375
0.000375
0.000375
0.000375
0.000375
0.000375
0.000375
0.000375
0.000375
0.000375
0.000375
0.000375
0.000375
0.000375
0.000375
0.000375
0.000375
0.000375
0.000375
0.000375
0.000375
0.000375
0.000375
0.000375
0.000375
0.000375
0.000375
0.000375
0.000375
0.000375
0.000375
0.000375
0.000375
0.000375
0.000375
0.000375
0.000375
0.000375
0.000375
0.000375
0.000375
0.000375
0.000375
0.00287863
0.00621392
0.0103262
0.0152592
0.0212967
0.0287235
)
;
    }
    frontAndBack
    {
        type            empty;
    }
}


// ************************************************************************* //
