/*--------------------------------*- C++ -*----------------------------------*\
  =========                 |
  \\      /  F ield         | OpenFOAM: The Open Source CFD Toolbox
   \\    /   O peration     | Website:  https://openfoam.org
    \\  /    A nd           | Version:  11
     \\/     M anipulation  |
\*---------------------------------------------------------------------------*/
FoamFile
{
    format      ascii;
    class       surfaceScalarField;
    location    "0.3";
    object      meshPhi;
}
// * * * * * * * * * * * * * * * * * * * * * * * * * * * * * * * * * * * * * //

dimensions      [0 3 -1 0 0 0 0];

internalField   nonuniform List<scalar> 
5640
(
1.36987e-16
9.81747e-07
2.42153e-16
1.37445e-06
3.77095e-16
1.76715e-06
-1.33922e-15
2.15984e-06
-3.68144e-15
2.55254e-06
2.94524e-06
5.95143e-15
1.86283e-18
9.81747e-07
-3.88773e-16
1.37445e-06
-2.60407e-15
1.76715e-06
1.9438e-15
2.15984e-06
8.06649e-15
2.55254e-06
2.94524e-06
-9.02972e-15
-1.1645e-16
9.81747e-07
1.86411e-16
1.37445e-06
-1.56225e-15
1.76715e-06
-4.2124e-15
2.15984e-06
-7.49827e-15
2.55254e-06
2.94524e-06
7.72383e-16
8.69923e-17
9.81747e-07
-1.01875e-16
1.37445e-06
2.6933e-15
1.76715e-06
7.44286e-15
2.15984e-06
3.26e-15
2.55254e-06
2.94524e-06
-2.79776e-15
-4.83246e-17
9.81747e-07
3.95663e-17
1.37445e-06
1.94415e-16
1.76715e-06
-1.80592e-15
2.15984e-06
-4.20843e-15
2.55254e-06
2.94524e-06
5.01358e-15
-1.80072e-16
9.81747e-07
4.35249e-18
1.37445e-06
-1.84764e-15
1.76715e-06
-3.88602e-15
2.15984e-06
3.15712e-15
2.55254e-06
2.94524e-06
4.98323e-16
2.53988e-16
9.81747e-07
2.55451e-16
1.37445e-06
2.06609e-15
1.76715e-06
4.50423e-15
2.15984e-06
-2.30983e-15
2.55254e-06
2.94524e-06
5.41024e-16
2.1687e-17
9.81747e-07
-3.21623e-16
1.37445e-06
-1.14877e-15
1.76715e-06
-5.28542e-15
2.15984e-06
-3.76573e-16
2.55254e-06
2.94524e-06
-5.63983e-15
-1.43332e-16
9.81747e-07
1.66484e-16
1.37445e-06
4.19126e-15
1.76715e-06
6.34963e-15
2.15984e-06
-8.05354e-16
2.55254e-06
2.94524e-06
8.3951e-16
-6.87477e-17
9.81747e-07
-9.19864e-17
1.37445e-06
-2.76924e-15
1.76715e-06
-3.6875e-16
2.15984e-06
-1.45065e-15
2.55254e-06
2.94524e-06
-1.7641e-16
1.66334e-16
9.81747e-07
-8.86193e-17
1.37445e-06
5.69853e-16
1.76715e-06
-2.10345e-15
2.15984e-06
9.66015e-15
2.55254e-06
2.94524e-06
5.29051e-15
-1.77771e-16
9.81747e-07
-2.04507e-17
1.37445e-06
-3.45424e-16
1.76715e-06
-4.1725e-15
2.15984e-06
-2.62215e-15
2.55254e-06
2.94524e-06
5.36974e-15
1.77819e-16
9.81747e-07
2.0569e-17
1.37445e-06
3.45569e-16
1.76715e-06
4.17284e-15
2.15984e-06
2.6226e-15
2.55254e-06
2.94524e-06
-5.36915e-15
-1.66264e-16
9.81747e-07
8.87993e-17
1.37445e-06
-5.69556e-16
1.76715e-06
2.10367e-15
2.15984e-06
-9.65977e-15
2.55254e-06
2.94524e-06
-5.28976e-15
6.88476e-17
9.81747e-07
9.21115e-17
1.37445e-06
2.76946e-15
1.76715e-06
3.68931e-16
2.15984e-06
1.45107e-15
2.55254e-06
2.94524e-06
1.76815e-16
1.43423e-16
9.81747e-07
-1.66334e-16
1.37445e-06
-4.19099e-15
1.76715e-06
-6.34936e-15
2.15984e-06
8.05899e-16
2.55254e-06
2.94524e-06
-8.38997e-16
-2.1624e-17
9.81747e-07
3.21752e-16
1.37445e-06
1.14897e-15
1.76715e-06
5.28576e-15
2.15984e-06
3.76948e-16
2.55254e-06
2.94524e-06
5.64022e-15
-2.5394e-16
9.81747e-07
-2.55445e-16
1.37445e-06
-2.06585e-15
1.76715e-06
-4.50391e-15
2.15984e-06
2.31012e-15
2.55254e-06
2.94524e-06
-5.4067e-16
1.80155e-16
9.81747e-07
-4.23205e-18
1.37445e-06
1.84791e-15
1.76715e-06
3.88633e-15
2.15984e-06
-3.157e-15
2.55254e-06
2.94524e-06
-4.97988e-16
4.84153e-17
9.81747e-07
-3.94411e-17
1.37445e-06
-1.94182e-16
1.76715e-06
1.80625e-15
2.15984e-06
4.20865e-15
2.55254e-06
2.94524e-06
-5.01309e-15
-8.68988e-17
9.81747e-07
1.01976e-16
1.37445e-06
-2.69312e-15
1.76715e-06
-7.44258e-15
2.15984e-06
-3.25963e-15
2.55254e-06
2.94524e-06
2.7983e-15
1.16486e-16
9.81747e-07
-1.86275e-16
1.37445e-06
1.56245e-15
1.76715e-06
4.21263e-15
2.15984e-06
7.49841e-15
2.55254e-06
2.94524e-06
-7.71871e-16
-1.79525e-18
9.81747e-07
3.88867e-16
1.37445e-06
2.60428e-15
1.76715e-06
-1.94343e-15
2.15984e-06
-8.06613e-15
2.55254e-06
2.94524e-06
9.03017e-15
-1.36907e-16
-2.42075e-16
-3.76925e-16
1.33942e-15
3.68158e-15
-5.95106e-15
-1.13355e-14
4.53785e-06
-4.53785e-06
-4.808e-16
5.23599e-06
-5.23599e-06
-5.35632e-15
5.93412e-06
-5.93412e-06
-1.13023e-14
6.63225e-06
-6.63225e-06
4.87026e-15
7.33038e-06
-7.33038e-06
-1.1081e-15
8.02851e-06
-8.02851e-06
-8.15673e-15
8.72664e-06
-8.72664e-06
1.30466e-14
9.42478e-06
-9.42478e-06
5.95209e-15
1.01229e-05
-1.01229e-05
-1.99574e-15
1.0821e-05
-1.0821e-05
2.43892e-14
1.15192e-05
-1.15192e-05
1.61902e-14
1.22173e-05
-1.22173e-05
-3.27834e-14
1.29154e-05
-1.29154e-05
-3.04866e-15
1.36136e-05
-1.36136e-05
-1.44397e-14
1.43117e-05
-1.43117e-05
-2.68991e-14
1.50098e-05
-1.50098e-05
7.74169e-15
1.5708e-05
-1.5708e-05
-4.43241e-15
1.64061e-05
-1.64061e-05
-1.79954e-14
1.71042e-05
-1.71042e-05
2.18282e-14
1.78024e-05
-1.78024e-05
8.21684e-15
1.85005e-05
-1.85005e-05
-6.07424e-15
1.91986e-05
-1.91986e-05
3.89266e-14
1.98967e-05
-1.98967e-05
2.05949e-05
-2.05949e-05
9.39965e-15
4.53785e-06
5.20717e-16
5.23599e-06
7.5292e-15
5.93412e-06
-4.41089e-15
6.63225e-06
3.78371e-15
7.33038e-06
1.33858e-14
8.02851e-06
-2.10885e-15
8.72664e-06
8.53019e-15
9.42478e-06
-1.00257e-14
1.01229e-05
1.86575e-15
1.0821e-05
-2.02003e-14
1.15192e-05
-7.01108e-15
1.22173e-05
7.51326e-15
1.29154e-05
2.36135e-14
1.36136e-05
-2.03837e-15
1.43117e-05
1.48354e-14
1.50098e-05
-1.38751e-14
1.5708e-05
2.39646e-15
1.64061e-05
2.0418e-14
1.71042e-05
-7.01329e-15
1.78024e-05
1.20754e-14
1.85005e-05
-2.59356e-14
1.91986e-05
1.85257e-15
1.98967e-05
2.05949e-05
-8.67579e-15
4.53785e-06
1.22929e-14
5.23599e-06
1.8837e-15
5.93412e-06
8.90301e-15
6.63225e-06
-5.10772e-15
7.33038e-06
-2.199e-14
8.02851e-06
1.22649e-14
8.72664e-06
-5.37327e-15
9.42478e-06
4.45821e-15
1.01229e-05
-1.43042e-14
1.0821e-05
-7.32411e-15
1.15192e-05
7.04221e-15
1.22173e-05
2.39974e-14
1.29154e-05
-7.55255e-15
1.36136e-05
9.80573e-15
1.43117e-05
-1.62343e-14
1.50098e-05
4.03009e-14
1.5708e-05
1.44489e-14
1.64061e-05
-1.36979e-14
1.71042e-05
-7.89425e-15
1.78024e-05
-3.92427e-14
1.85005e-05
4.276e-14
1.91986e-05
-8.8445e-15
1.98967e-05
2.05949e-05
5.98635e-15
4.53785e-06
2.19453e-16
5.23599e-06
-6.43502e-15
5.93412e-06
6.0646e-15
6.63225e-06
-2.09155e-15
7.33038e-06
1.61776e-14
8.02851e-06
-1.88301e-14
8.72664e-06
-2.35005e-15
9.42478e-06
9.17357e-15
1.01229e-05
-4.70936e-15
1.0821e-05
2.16294e-14
1.15192e-05
-2.96426e-14
1.22173e-05
-9.28609e-15
1.29154e-05
-1.89037e-14
1.36136e-05
4.47035e-15
1.43117e-05
3.01599e-14
1.50098e-05
-2.62125e-14
1.5708e-05
4.41687e-16
1.64061e-05
-2.11676e-14
1.71042e-05
1.87202e-14
1.78024e-05
-3.91647e-15
1.85005e-05
-2.91512e-14
1.91986e-05
1.5238e-14
1.98967e-05
2.05949e-05
6.71537e-15
4.53785e-06
-7.30608e-15
5.23599e-06
1.11014e-14
5.93412e-06
-4.24029e-15
6.63225e-06
1.51037e-14
7.33038e-06
-5.20824e-15
8.02851e-06
1.70152e-14
8.72664e-06
-3.94002e-15
9.42478e-06
-2.92977e-16
1.01229e-05
6.61214e-15
1.0821e-05
1.37077e-14
1.15192e-05
1.01863e-14
1.22173e-05
1.8221e-14
1.29154e-05
1.43707e-14
1.36136e-05
2.33448e-14
1.43117e-05
-2.53398e-14
1.50098e-05
2.90795e-14
1.5708e-05
-7.81964e-15
1.64061e-05
3.54199e-14
1.71042e-05
-4.5077e-15
1.78024e-05
4.23767e-14
1.85005e-05
-5.79801e-16
1.91986e-05
-8.72751e-15
1.98967e-05
2.05949e-05
-4.63009e-15
4.53785e-06
5.79842e-15
5.23599e-06
-1.61498e-14
5.93412e-06
-5.9735e-15
6.63225e-06
-8.55374e-15
7.33038e-06
4.22554e-15
8.02851e-06
-8.18583e-15
8.72664e-06
7.0001e-15
9.42478e-06
-2.42286e-14
1.01229e-05
-7.76704e-15
1.0821e-05
-2.27621e-14
1.15192e-05
8.35058e-15
1.22173e-05
-7.40174e-15
1.29154e-05
2.82703e-14
1.36136e-05
-4.57079e-14
1.43117e-05
-8.21578e-15
1.50098e-05
-2.8221e-14
1.5708e-05
-2.33514e-15
1.64061e-05
-6.93547e-15
1.71042e-05
2.21573e-14
1.78024e-05
-3.41053e-14
1.85005e-05
-3.73602e-15
1.91986e-05
-3.23371e-14
1.98967e-05
2.05949e-05
-8.92477e-15
4.53785e-06
-2.28837e-15
5.23599e-06
-2.22357e-15
5.93412e-06
6.61714e-15
6.63225e-06
-3.3871e-15
7.33038e-06
-3.9056e-15
8.02851e-06
-6.41717e-15
8.72664e-06
-7.15706e-15
9.42478e-06
6.81209e-15
1.01229e-05
6.98495e-15
1.0821e-05
-9.06243e-15
1.15192e-05
6.76169e-15
1.22173e-05
-2.88879e-14
1.29154e-05
-1.22314e-14
1.36136e-05
4.80668e-15
1.43117e-05
2.50297e-14
1.50098e-05
3.86434e-15
1.5708e-05
3.61159e-15
1.64061e-05
-2.04766e-14
1.71042e-05
-2.17538e-14
1.78024e-05
3.47274e-15
1.85005e-05
2.90425e-14
1.91986e-05
-1.65424e-15
1.98967e-05
2.05949e-05
6.21606e-15
4.53785e-06
-3.87881e-15
5.23599e-06
1.54226e-14
5.93412e-06
-7.06445e-15
6.63225e-06
-2.20993e-15
7.33038e-06
1.43069e-15
8.02851e-06
-5.49174e-15
8.72664e-06
1.32273e-14
9.42478e-06
6.04705e-15
1.01229e-05
-1.74489e-14
1.0821e-05
2.08894e-14
1.15192e-05
-2.14422e-14
1.22173e-05
1.91365e-14
1.29154e-05
-7.31313e-15
1.36136e-05
3.8488e-14
1.43117e-05
-1.29204e-14
1.50098e-05
-1.87941e-15
1.5708e-05
5.72275e-15
1.64061e-05
-7.58248e-15
1.71042e-05
2.76652e-14
1.78024e-05
1.41054e-14
1.85005e-05
-5.31401e-14
1.91986e-05
3.90906e-14
1.98967e-05
2.05949e-05
-1.49808e-15
4.53785e-06
1.08974e-14
5.23599e-06
-6.59915e-15
5.93412e-06
7.26614e-15
6.63225e-06
6.1754e-15
7.33038e-06
2.48968e-15
8.02851e-06
-9.63523e-16
8.72664e-06
-4.36402e-15
9.42478e-06
-8.89911e-15
1.01229e-05
1.38643e-14
1.0821e-05
1.06924e-14
1.15192e-05
6.25273e-15
1.22173e-05
-1.25329e-16
1.29154e-05
-3.43558e-15
1.36136e-05
-1.10407e-14
1.43117e-05
-1.77617e-14
1.50098e-05
1.76845e-14
1.5708e-05
9.95873e-15
1.64061e-05
3.33426e-15
1.71042e-05
-3.29631e-14
1.78024e-05
-1.04168e-14
1.85005e-05
3.00739e-14
1.91986e-05
-5.99864e-14
1.98967e-05
2.05949e-05
5.17055e-15
4.53785e-06
-7.45512e-15
5.23599e-06
-7.5629e-16
5.93412e-06
6.84019e-15
6.63225e-06
-9.97348e-15
7.33038e-06
-1.66383e-15
8.02851e-06
9.22021e-15
8.72664e-06
-1.34574e-14
9.42478e-06
2.32224e-14
1.01229e-05
1.04729e-14
1.0821e-05
-1.72711e-14
1.15192e-05
-3.02516e-15
1.22173e-05
1.14006e-14
1.29154e-05
-1.98145e-14
1.36136e-05
-4.6759e-15
1.43117e-05
5.03123e-14
1.50098e-05
-2.40418e-14
1.5708e-05
-6.65534e-15
1.64061e-05
1.42679e-14
1.71042e-05
1.65439e-15
1.78024e-05
-6.80505e-15
1.85005e-05
1.44453e-14
1.91986e-05
5.07672e-14
1.98967e-05
2.05949e-05
-6.19691e-15
4.53785e-06
2.87628e-17
5.23599e-06
1.15124e-14
5.93412e-06
-2.0625e-14
6.63225e-06
5.36733e-15
7.33038e-06
1.22313e-15
8.02851e-06
-4.58001e-17
8.72664e-06
1.23948e-14
9.42478e-06
-1.32252e-14
1.01229e-05
-1.88932e-14
1.0821e-05
-4.96222e-15
1.15192e-05
-7.15259e-15
1.22173e-05
-1.48831e-14
1.29154e-05
3.53412e-14
1.36136e-05
5.24613e-19
1.43117e-05
-4.31338e-14
1.50098e-05
1.35655e-14
1.5708e-05
-2.82509e-14
1.64061e-05
2.46064e-15
1.71042e-05
-1.02353e-14
1.78024e-05
2.38107e-14
1.85005e-05
1.38817e-14
1.91986e-05
-4.55565e-14
1.98967e-05
2.05949e-05
-1.9065e-15
4.53785e-06
1.13112e-15
5.23599e-06
-2.16612e-14
5.93412e-06
9.62457e-15
6.63225e-06
1.51381e-14
7.33038e-06
-1.40636e-14
8.02851e-06
8.09386e-15
8.72664e-06
-2.69583e-14
9.42478e-06
-1.96347e-15
1.01229e-05
2.97189e-14
1.0821e-05
-1.17433e-14
1.15192e-05
1.98701e-14
1.22173e-05
-2.74413e-14
1.29154e-05
-2.06116e-14
1.36136e-05
1.6045e-14
1.43117e-05
-4.61084e-15
1.50098e-05
4.69377e-15
1.5708e-05
4.79716e-14
1.64061e-05
-1.3733e-14
1.71042e-05
3.23755e-14
1.78024e-05
-3.51799e-14
1.85005e-05
-2.48999e-14
1.91986e-05
7.1921e-14
1.98967e-05
2.05949e-05
1.907e-15
4.53785e-06
-1.13031e-15
5.23599e-06
2.16626e-14
5.93412e-06
-9.62304e-15
6.63225e-06
-1.51364e-14
7.33038e-06
1.40663e-14
8.02851e-06
-8.09116e-15
8.72664e-06
2.696e-14
9.42478e-06
1.96875e-15
1.01229e-05
-2.97146e-14
1.0821e-05
1.17476e-14
1.15192e-05
-1.9864e-14
1.22173e-05
2.74465e-14
1.29154e-05
2.06202e-14
1.36136e-05
-1.60368e-14
1.43117e-05
4.61577e-15
1.50098e-05
-4.68895e-15
1.5708e-05
-4.79617e-14
1.64061e-05
1.37441e-14
1.71042e-05
-3.23647e-14
1.78024e-05
3.51919e-14
1.85005e-05
2.49095e-14
1.91986e-05
-7.19117e-14
1.98967e-05
2.05949e-05
6.19763e-15
4.53785e-06
-2.81886e-17
5.23599e-06
-1.15111e-14
5.93412e-06
2.06268e-14
6.63225e-06
-5.36683e-15
7.33038e-06
-1.21954e-15
8.02851e-06
4.83732e-17
8.72664e-06
-1.23925e-14
9.42478e-06
1.32278e-14
1.01229e-05
1.88961e-14
1.0821e-05
4.96635e-15
1.15192e-05
7.15544e-15
1.22173e-05
1.48884e-14
1.29154e-05
-3.53354e-14
1.36136e-05
5.33877e-18
1.43117e-05
4.314e-14
1.50098e-05
-1.35596e-14
1.5708e-05
2.82627e-14
1.64061e-05
-2.44831e-15
1.71042e-05
1.02403e-14
1.78024e-05
-2.37925e-14
1.85005e-05
-1.38701e-14
1.91986e-05
4.55739e-14
1.98967e-05
2.05949e-05
-5.16964e-15
4.53785e-06
7.45583e-15
5.23599e-06
7.57298e-16
5.93412e-06
-6.83875e-15
6.63225e-06
9.97492e-15
7.33038e-06
1.66509e-15
8.02851e-06
-9.21699e-15
8.72664e-06
1.34607e-14
9.42478e-06
-2.32195e-14
1.01229e-05
-1.04712e-14
1.0821e-05
1.72743e-14
1.15192e-05
3.02919e-15
1.22173e-05
-1.13948e-14
1.29154e-05
1.98196e-14
1.36136e-05
4.68104e-15
1.43117e-05
-5.03036e-14
1.50098e-05
2.40488e-14
1.5708e-05
6.66037e-15
1.64061e-05
-1.42577e-14
1.71042e-05
-1.64791e-15
1.78024e-05
6.81887e-15
1.85005e-05
-1.44334e-14
1.91986e-05
-5.07483e-14
1.98967e-05
2.05949e-05
1.49909e-15
4.53785e-06
-1.08969e-14
5.23599e-06
6.60013e-15
5.93412e-06
-7.26565e-15
6.63225e-06
-6.17359e-15
7.33038e-06
-2.48741e-15
8.02851e-06
9.66034e-16
8.72664e-06
4.36485e-15
9.42478e-06
8.90201e-15
1.01229e-05
-1.38616e-14
1.0821e-05
-1.06876e-14
1.15192e-05
-6.24881e-15
1.22173e-05
1.29888e-16
1.29154e-05
3.44308e-15
1.36136e-05
1.10437e-14
1.43117e-05
1.77699e-14
1.50098e-05
-1.76755e-14
1.5708e-05
-9.94962e-15
1.64061e-05
-3.3242e-15
1.71042e-05
3.29732e-14
1.78024e-05
1.04247e-14
1.85005e-05
-3.00616e-14
1.91986e-05
6.00004e-14
1.98967e-05
2.05949e-05
-6.21555e-15
4.53785e-06
3.87965e-15
5.23599e-06
-1.54213e-14
5.93412e-06
7.06552e-15
6.63225e-06
2.21066e-15
7.33038e-06
-1.42805e-15
8.02851e-06
5.49522e-15
8.72664e-06
-1.32255e-14
9.42478e-06
-6.04338e-15
1.01229e-05
1.74528e-14
1.0821e-05
-2.08849e-14
1.15192e-05
2.14463e-14
1.22173e-05
-1.91325e-14
1.29154e-05
7.32007e-15
1.36136e-05
-3.84848e-14
1.43117e-05
1.29277e-14
1.50098e-05
1.88683e-15
1.5708e-05
-5.71219e-15
1.64061e-05
7.59023e-15
1.71042e-05
-2.76545e-14
1.78024e-05
-1.40919e-14
1.85005e-05
5.3147e-14
1.91986e-05
-3.90832e-14
1.98967e-05
2.05949e-05
8.92529e-15
4.53785e-06
2.28943e-15
5.23599e-06
2.22473e-15
5.93412e-06
-6.61561e-15
6.63225e-06
3.3888e-15
7.33038e-06
3.90791e-15
8.02851e-06
6.42071e-15
8.72664e-06
7.15946e-15
9.42478e-06
-6.80813e-15
1.01229e-05
-6.98143e-15
1.0821e-05
9.0669e-15
1.15192e-05
-6.75846e-15
1.22173e-05
2.88903e-14
1.29154e-05
1.2237e-14
1.36136e-05
-4.80006e-15
1.43117e-05
-2.50233e-14
1.50098e-05
-3.8596e-15
1.5708e-05
-3.60538e-15
1.64061e-05
2.04872e-14
1.71042e-05
2.17652e-14
1.78024e-05
-3.46233e-15
1.85005e-05
-2.9034e-14
1.91986e-05
1.66639e-15
1.98967e-05
2.05949e-05
4.63057e-15
4.53785e-06
-5.79713e-15
5.23599e-06
1.61513e-14
5.93412e-06
5.97492e-15
6.63225e-06
8.55615e-15
7.33038e-06
-4.22324e-15
8.02851e-06
8.18823e-15
8.72664e-06
-6.99933e-15
9.42478e-06
2.42313e-14
1.01229e-05
7.77172e-15
1.0821e-05
2.27667e-14
1.15192e-05
-8.34696e-15
1.22173e-05
7.40359e-15
1.29154e-05
-2.8265e-14
1.36136e-05
4.57141e-14
1.43117e-05
8.22479e-15
1.50098e-05
2.82292e-14
1.5708e-05
2.34034e-15
1.64061e-05
6.95002e-15
1.71042e-05
-2.21452e-14
1.78024e-05
3.41121e-14
1.85005e-05
3.74425e-15
1.91986e-05
3.23523e-14
1.98967e-05
2.05949e-05
-6.71456e-15
4.53785e-06
7.30714e-15
5.23599e-06
-1.11004e-14
5.93412e-06
4.24158e-15
6.63225e-06
-1.51018e-14
7.33038e-06
5.211e-15
8.02851e-06
-1.70123e-14
8.72664e-06
3.94153e-15
9.42478e-06
2.95756e-16
1.01229e-05
-6.6087e-15
1.0821e-05
-1.37026e-14
1.15192e-05
-1.01823e-14
1.22173e-05
-1.82148e-14
1.29154e-05
-1.43643e-14
1.36136e-05
-2.33391e-14
1.43117e-05
2.53463e-14
1.50098e-05
-2.90684e-14
1.5708e-05
7.83066e-15
1.64061e-05
-3.54101e-14
1.71042e-05
4.51529e-15
1.78024e-05
-4.23675e-14
1.85005e-05
5.90965e-16
1.91986e-05
8.73934e-15
1.98967e-05
2.05949e-05
-5.98534e-15
4.53785e-06
-2.18343e-16
5.23599e-06
6.4362e-15
5.93412e-06
-6.0636e-15
6.63225e-06
2.09345e-15
7.33038e-06
-1.61753e-14
8.02851e-06
1.88317e-14
8.72664e-06
2.35224e-15
9.42478e-06
-9.17074e-15
1.01229e-05
4.71234e-15
1.0821e-05
-2.16263e-14
1.15192e-05
2.96465e-14
1.22173e-05
9.29223e-15
1.29154e-05
1.8909e-14
1.36136e-05
-4.46331e-15
1.43117e-05
-3.0156e-14
1.50098e-05
2.62204e-14
1.5708e-05
-4.28858e-16
1.64061e-05
2.11741e-14
1.71042e-05
-1.87088e-14
1.78024e-05
3.93032e-15
1.85005e-05
2.91628e-14
1.91986e-05
-1.52252e-14
1.98967e-05
2.05949e-05
8.67649e-15
4.53785e-06
-1.22921e-14
5.23599e-06
-1.88273e-15
5.93412e-06
-8.90122e-15
6.63225e-06
5.10907e-15
7.33038e-06
2.19923e-14
8.02851e-06
-1.22636e-14
8.72664e-06
5.3757e-15
9.42478e-06
-4.45536e-15
1.01229e-05
1.43073e-14
1.0821e-05
7.32627e-15
1.15192e-05
-7.03916e-15
1.22173e-05
-2.39919e-14
1.29154e-05
7.55777e-15
1.36136e-05
-9.79392e-15
1.43117e-05
1.62388e-14
1.50098e-05
-4.02913e-14
1.5708e-05
-1.44405e-14
1.64061e-05
1.37095e-14
1.71042e-05
7.90089e-15
1.78024e-05
3.92592e-14
1.85005e-05
-4.27453e-14
1.91986e-05
8.85547e-15
1.98967e-05
2.05949e-05
-9.39862e-15
4.53785e-06
-5.19684e-16
5.23599e-06
-7.52812e-15
5.93412e-06
4.41315e-15
6.63225e-06
-3.78291e-15
7.33038e-06
-1.33835e-14
8.02851e-06
2.11054e-15
8.72664e-06
-8.52796e-15
9.42478e-06
1.00291e-14
1.01229e-05
-1.86408e-15
1.0821e-05
2.02041e-14
1.15192e-05
7.01451e-15
1.22173e-05
-7.50718e-15
1.29154e-05
-2.36026e-14
1.36136e-05
2.04592e-15
1.43117e-05
-1.48296e-14
1.50098e-05
1.38824e-14
1.5708e-05
-2.38823e-15
1.64061e-05
-2.04062e-14
1.71042e-05
7.02128e-15
1.78024e-05
-1.20632e-14
1.85005e-05
2.59493e-14
1.91986e-05
-1.83894e-15
1.98967e-05
2.05949e-05
1.13363e-14
4.53785e-06
4.81727e-16
5.23599e-06
5.35804e-15
5.93412e-06
1.13047e-14
6.63225e-06
-4.86922e-15
7.33038e-06
1.1107e-15
8.02851e-06
8.15933e-15
8.72664e-06
-1.30437e-14
9.42478e-06
-5.94686e-15
1.01229e-05
1.99746e-15
1.0821e-05
-2.43847e-14
1.15192e-05
-1.61876e-14
1.22173e-05
3.2789e-14
1.29154e-05
3.05714e-15
1.36136e-05
1.44454e-14
1.43117e-05
2.69043e-14
1.50098e-05
-7.73718e-15
1.5708e-05
4.44278e-15
1.64061e-05
1.80044e-14
1.71042e-05
-2.18157e-14
1.78024e-05
-8.2067e-15
1.85005e-05
6.08534e-15
1.91986e-05
-3.89083e-14
1.98967e-05
2.05949e-05
1.36978e-16
9.81747e-07
2.42099e-16
1.37445e-06
3.77073e-16
1.76715e-06
-1.33914e-15
2.15984e-06
-3.68135e-15
2.55254e-06
2.94524e-06
5.95158e-15
1.86283e-18
9.81747e-07
-3.88773e-16
1.37445e-06
-2.60407e-15
1.76715e-06
1.9438e-15
2.15984e-06
8.06649e-15
2.55254e-06
2.94524e-06
-9.02972e-15
-1.1645e-16
9.81747e-07
1.86411e-16
1.37445e-06
-1.56225e-15
1.76715e-06
-4.2124e-15
2.15984e-06
-7.49827e-15
2.55254e-06
2.94524e-06
7.72383e-16
8.69923e-17
9.81747e-07
-1.01875e-16
1.37445e-06
2.6933e-15
1.76715e-06
7.44286e-15
2.15984e-06
3.26e-15
2.55254e-06
2.94524e-06
-2.79776e-15
-4.83246e-17
9.81747e-07
3.95663e-17
1.37445e-06
1.94415e-16
1.76715e-06
-1.80592e-15
2.15984e-06
-4.20843e-15
2.55254e-06
2.94524e-06
5.01358e-15
-1.80072e-16
9.81747e-07
4.35249e-18
1.37445e-06
-1.84764e-15
1.76715e-06
-3.88602e-15
2.15984e-06
3.15712e-15
2.55254e-06
2.94524e-06
4.98323e-16
2.53988e-16
9.81747e-07
2.55451e-16
1.37445e-06
2.06609e-15
1.76715e-06
4.50423e-15
2.15984e-06
-2.30983e-15
2.55254e-06
2.94524e-06
5.41024e-16
2.1687e-17
9.81747e-07
-3.21623e-16
1.37445e-06
-1.14877e-15
1.76715e-06
-5.28542e-15
2.15984e-06
-3.76573e-16
2.55254e-06
2.94524e-06
-5.63983e-15
-1.43332e-16
9.81747e-07
1.66484e-16
1.37445e-06
4.19126e-15
1.76715e-06
6.34963e-15
2.15984e-06
-8.05354e-16
2.55254e-06
2.94524e-06
8.3951e-16
-6.87477e-17
9.81747e-07
-9.19864e-17
1.37445e-06
-2.76924e-15
1.76715e-06
-3.6875e-16
2.15984e-06
-1.45065e-15
2.55254e-06
2.94524e-06
-1.7641e-16
1.66334e-16
9.81747e-07
-8.86193e-17
1.37445e-06
5.69853e-16
1.76715e-06
-2.10345e-15
2.15984e-06
9.66015e-15
2.55254e-06
2.94524e-06
5.29051e-15
-1.77771e-16
9.81747e-07
-2.04507e-17
1.37445e-06
-3.45424e-16
1.76715e-06
-4.1725e-15
2.15984e-06
-2.62215e-15
2.55254e-06
2.94524e-06
5.36974e-15
1.77819e-16
9.81747e-07
2.0569e-17
1.37445e-06
3.45569e-16
1.76715e-06
4.17284e-15
2.15984e-06
2.6226e-15
2.55254e-06
2.94524e-06
-5.36915e-15
-1.66264e-16
9.81747e-07
8.87993e-17
1.37445e-06
-5.69556e-16
1.76715e-06
2.10367e-15
2.15984e-06
-9.65977e-15
2.55254e-06
2.94524e-06
-5.28976e-15
6.88476e-17
9.81747e-07
9.21115e-17
1.37445e-06
2.76946e-15
1.76715e-06
3.68931e-16
2.15984e-06
1.45107e-15
2.55254e-06
2.94524e-06
1.76815e-16
1.43423e-16
9.81747e-07
-1.66334e-16
1.37445e-06
-4.19099e-15
1.76715e-06
-6.34936e-15
2.15984e-06
8.05899e-16
2.55254e-06
2.94524e-06
-8.38997e-16
-2.1624e-17
9.81747e-07
3.21752e-16
1.37445e-06
1.14897e-15
1.76715e-06
5.28576e-15
2.15984e-06
3.76948e-16
2.55254e-06
2.94524e-06
5.64022e-15
-2.5394e-16
9.81747e-07
-2.55445e-16
1.37445e-06
-2.06585e-15
1.76715e-06
-4.50391e-15
2.15984e-06
2.31012e-15
2.55254e-06
2.94524e-06
-5.4067e-16
1.80155e-16
9.81747e-07
-4.23205e-18
1.37445e-06
1.84791e-15
1.76715e-06
3.88633e-15
2.15984e-06
-3.157e-15
2.55254e-06
2.94524e-06
-4.97988e-16
4.84153e-17
9.81747e-07
-3.94411e-17
1.37445e-06
-1.94182e-16
1.76715e-06
1.80625e-15
2.15984e-06
4.20865e-15
2.55254e-06
2.94524e-06
-5.01309e-15
-8.68988e-17
9.81747e-07
1.01976e-16
1.37445e-06
-2.69312e-15
1.76715e-06
-7.44258e-15
2.15984e-06
-3.25963e-15
2.55254e-06
2.94524e-06
2.7983e-15
1.16486e-16
9.81747e-07
-1.86275e-16
1.37445e-06
1.56245e-15
1.76715e-06
4.21263e-15
2.15984e-06
7.49841e-15
2.55254e-06
2.94524e-06
-7.71871e-16
-1.79525e-18
9.81747e-07
3.88867e-16
1.37445e-06
2.60428e-15
1.76715e-06
-1.94343e-15
2.15984e-06
-8.06613e-15
2.55254e-06
2.94524e-06
9.03017e-15
-1.36943e-16
-2.42054e-16
-3.76878e-16
1.33951e-15
3.68163e-15
-5.95107e-15
-1.13356e-14
4.53785e-06
-4.80466e-16
5.23599e-06
-5.35658e-15
5.93412e-06
-1.13023e-14
6.63225e-06
4.86995e-15
7.33038e-06
-1.1081e-15
8.02851e-06
-8.15704e-15
8.72664e-06
1.30456e-14
9.42478e-06
5.95202e-15
1.01229e-05
-1.99537e-15
1.0821e-05
2.43889e-14
1.15192e-05
1.61903e-14
1.22173e-05
-3.27831e-14
1.29154e-05
-3.04677e-15
1.36136e-05
-1.44398e-14
1.43117e-05
-2.6899e-14
1.50098e-05
7.74306e-15
1.5708e-05
-4.43242e-15
1.64061e-05
-1.7994e-14
1.71042e-05
2.18271e-14
1.78024e-05
8.21845e-15
1.85005e-05
-6.0716e-15
1.91986e-05
3.89241e-14
1.98967e-05
2.05949e-05
9.39965e-15
4.53785e-06
5.20717e-16
5.23599e-06
7.5292e-15
5.93412e-06
-4.41089e-15
6.63225e-06
3.78371e-15
7.33038e-06
1.33858e-14
8.02851e-06
-2.10885e-15
8.72664e-06
8.53019e-15
9.42478e-06
-1.00257e-14
1.01229e-05
1.86575e-15
1.0821e-05
-2.02003e-14
1.15192e-05
-7.01108e-15
1.22173e-05
7.51326e-15
1.29154e-05
2.36135e-14
1.36136e-05
-2.03837e-15
1.43117e-05
1.48354e-14
1.50098e-05
-1.38751e-14
1.5708e-05
2.39646e-15
1.64061e-05
2.0418e-14
1.71042e-05
-7.01329e-15
1.78024e-05
1.20754e-14
1.85005e-05
-2.59356e-14
1.91986e-05
1.85257e-15
1.98967e-05
2.05949e-05
-8.67579e-15
4.53785e-06
1.22929e-14
5.23599e-06
1.8837e-15
5.93412e-06
8.90301e-15
6.63225e-06
-5.10772e-15
7.33038e-06
-2.199e-14
8.02851e-06
1.22649e-14
8.72664e-06
-5.37327e-15
9.42478e-06
4.45821e-15
1.01229e-05
-1.43042e-14
1.0821e-05
-7.32411e-15
1.15192e-05
7.04221e-15
1.22173e-05
2.39974e-14
1.29154e-05
-7.55255e-15
1.36136e-05
9.80573e-15
1.43117e-05
-1.62343e-14
1.50098e-05
4.03009e-14
1.5708e-05
1.44489e-14
1.64061e-05
-1.36979e-14
1.71042e-05
-7.89425e-15
1.78024e-05
-3.92427e-14
1.85005e-05
4.276e-14
1.91986e-05
-8.8445e-15
1.98967e-05
2.05949e-05
5.98635e-15
4.53785e-06
2.19453e-16
5.23599e-06
-6.43502e-15
5.93412e-06
6.0646e-15
6.63225e-06
-2.09155e-15
7.33038e-06
1.61776e-14
8.02851e-06
-1.88301e-14
8.72664e-06
-2.35005e-15
9.42478e-06
9.17357e-15
1.01229e-05
-4.70936e-15
1.0821e-05
2.16294e-14
1.15192e-05
-2.96426e-14
1.22173e-05
-9.28609e-15
1.29154e-05
-1.89037e-14
1.36136e-05
4.47035e-15
1.43117e-05
3.01599e-14
1.50098e-05
-2.62125e-14
1.5708e-05
4.41687e-16
1.64061e-05
-2.11676e-14
1.71042e-05
1.87202e-14
1.78024e-05
-3.91647e-15
1.85005e-05
-2.91512e-14
1.91986e-05
1.5238e-14
1.98967e-05
2.05949e-05
6.71537e-15
4.53785e-06
-7.30608e-15
5.23599e-06
1.11014e-14
5.93412e-06
-4.24029e-15
6.63225e-06
1.51037e-14
7.33038e-06
-5.20824e-15
8.02851e-06
1.70152e-14
8.72664e-06
-3.94002e-15
9.42478e-06
-2.92977e-16
1.01229e-05
6.61214e-15
1.0821e-05
1.37077e-14
1.15192e-05
1.01863e-14
1.22173e-05
1.8221e-14
1.29154e-05
1.43707e-14
1.36136e-05
2.33448e-14
1.43117e-05
-2.53398e-14
1.50098e-05
2.90795e-14
1.5708e-05
-7.81964e-15
1.64061e-05
3.54199e-14
1.71042e-05
-4.5077e-15
1.78024e-05
4.23767e-14
1.85005e-05
-5.79801e-16
1.91986e-05
-8.72751e-15
1.98967e-05
2.05949e-05
-4.63009e-15
4.53785e-06
5.79842e-15
5.23599e-06
-1.61498e-14
5.93412e-06
-5.9735e-15
6.63225e-06
-8.55374e-15
7.33038e-06
4.22554e-15
8.02851e-06
-8.18583e-15
8.72664e-06
7.0001e-15
9.42478e-06
-2.42286e-14
1.01229e-05
-7.76704e-15
1.0821e-05
-2.27621e-14
1.15192e-05
8.35058e-15
1.22173e-05
-7.40174e-15
1.29154e-05
2.82703e-14
1.36136e-05
-4.57079e-14
1.43117e-05
-8.21578e-15
1.50098e-05
-2.8221e-14
1.5708e-05
-2.33514e-15
1.64061e-05
-6.93547e-15
1.71042e-05
2.21573e-14
1.78024e-05
-3.41053e-14
1.85005e-05
-3.73602e-15
1.91986e-05
-3.23371e-14
1.98967e-05
2.05949e-05
-8.92477e-15
4.53785e-06
-2.28837e-15
5.23599e-06
-2.22357e-15
5.93412e-06
6.61714e-15
6.63225e-06
-3.3871e-15
7.33038e-06
-3.9056e-15
8.02851e-06
-6.41717e-15
8.72664e-06
-7.15706e-15
9.42478e-06
6.81209e-15
1.01229e-05
6.98495e-15
1.0821e-05
-9.06243e-15
1.15192e-05
6.76169e-15
1.22173e-05
-2.88879e-14
1.29154e-05
-1.22314e-14
1.36136e-05
4.80668e-15
1.43117e-05
2.50297e-14
1.50098e-05
3.86434e-15
1.5708e-05
3.61159e-15
1.64061e-05
-2.04766e-14
1.71042e-05
-2.17538e-14
1.78024e-05
3.47274e-15
1.85005e-05
2.90425e-14
1.91986e-05
-1.65424e-15
1.98967e-05
2.05949e-05
6.21606e-15
4.53785e-06
-3.87881e-15
5.23599e-06
1.54226e-14
5.93412e-06
-7.06445e-15
6.63225e-06
-2.20993e-15
7.33038e-06
1.43069e-15
8.02851e-06
-5.49174e-15
8.72664e-06
1.32273e-14
9.42478e-06
6.04705e-15
1.01229e-05
-1.74489e-14
1.0821e-05
2.08894e-14
1.15192e-05
-2.14422e-14
1.22173e-05
1.91365e-14
1.29154e-05
-7.31313e-15
1.36136e-05
3.8488e-14
1.43117e-05
-1.29204e-14
1.50098e-05
-1.87941e-15
1.5708e-05
5.72275e-15
1.64061e-05
-7.58248e-15
1.71042e-05
2.76652e-14
1.78024e-05
1.41054e-14
1.85005e-05
-5.31401e-14
1.91986e-05
3.90906e-14
1.98967e-05
2.05949e-05
-1.49808e-15
4.53785e-06
1.08974e-14
5.23599e-06
-6.59915e-15
5.93412e-06
7.26614e-15
6.63225e-06
6.1754e-15
7.33038e-06
2.48968e-15
8.02851e-06
-9.63523e-16
8.72664e-06
-4.36402e-15
9.42478e-06
-8.89911e-15
1.01229e-05
1.38643e-14
1.0821e-05
1.06924e-14
1.15192e-05
6.25273e-15
1.22173e-05
-1.25329e-16
1.29154e-05
-3.43558e-15
1.36136e-05
-1.10407e-14
1.43117e-05
-1.77617e-14
1.50098e-05
1.76845e-14
1.5708e-05
9.95873e-15
1.64061e-05
3.33426e-15
1.71042e-05
-3.29631e-14
1.78024e-05
-1.04168e-14
1.85005e-05
3.00739e-14
1.91986e-05
-5.99864e-14
1.98967e-05
2.05949e-05
5.17055e-15
4.53785e-06
-7.45512e-15
5.23599e-06
-7.5629e-16
5.93412e-06
6.84019e-15
6.63225e-06
-9.97348e-15
7.33038e-06
-1.66383e-15
8.02851e-06
9.22021e-15
8.72664e-06
-1.34574e-14
9.42478e-06
2.32224e-14
1.01229e-05
1.04729e-14
1.0821e-05
-1.72711e-14
1.15192e-05
-3.02516e-15
1.22173e-05
1.14006e-14
1.29154e-05
-1.98145e-14
1.36136e-05
-4.6759e-15
1.43117e-05
5.03123e-14
1.50098e-05
-2.40418e-14
1.5708e-05
-6.65534e-15
1.64061e-05
1.42679e-14
1.71042e-05
1.65439e-15
1.78024e-05
-6.80505e-15
1.85005e-05
1.44453e-14
1.91986e-05
5.07672e-14
1.98967e-05
2.05949e-05
-6.19691e-15
4.53785e-06
2.87628e-17
5.23599e-06
1.15124e-14
5.93412e-06
-2.0625e-14
6.63225e-06
5.36733e-15
7.33038e-06
1.22313e-15
8.02851e-06
-4.58001e-17
8.72664e-06
1.23948e-14
9.42478e-06
-1.32252e-14
1.01229e-05
-1.88932e-14
1.0821e-05
-4.96222e-15
1.15192e-05
-7.15259e-15
1.22173e-05
-1.48831e-14
1.29154e-05
3.53412e-14
1.36136e-05
5.24613e-19
1.43117e-05
-4.31338e-14
1.50098e-05
1.35655e-14
1.5708e-05
-2.82509e-14
1.64061e-05
2.46064e-15
1.71042e-05
-1.02353e-14
1.78024e-05
2.38107e-14
1.85005e-05
1.38817e-14
1.91986e-05
-4.55565e-14
1.98967e-05
2.05949e-05
-1.9065e-15
4.53785e-06
1.13112e-15
5.23599e-06
-2.16612e-14
5.93412e-06
9.62457e-15
6.63225e-06
1.51381e-14
7.33038e-06
-1.40636e-14
8.02851e-06
8.09386e-15
8.72664e-06
-2.69583e-14
9.42478e-06
-1.96347e-15
1.01229e-05
2.97189e-14
1.0821e-05
-1.17433e-14
1.15192e-05
1.98701e-14
1.22173e-05
-2.74413e-14
1.29154e-05
-2.06116e-14
1.36136e-05
1.6045e-14
1.43117e-05
-4.61084e-15
1.50098e-05
4.69377e-15
1.5708e-05
4.79716e-14
1.64061e-05
-1.3733e-14
1.71042e-05
3.23755e-14
1.78024e-05
-3.51799e-14
1.85005e-05
-2.48999e-14
1.91986e-05
7.1921e-14
1.98967e-05
2.05949e-05
1.907e-15
4.53785e-06
-1.13031e-15
5.23599e-06
2.16626e-14
5.93412e-06
-9.62304e-15
6.63225e-06
-1.51364e-14
7.33038e-06
1.40663e-14
8.02851e-06
-8.09116e-15
8.72664e-06
2.696e-14
9.42478e-06
1.96875e-15
1.01229e-05
-2.97146e-14
1.0821e-05
1.17476e-14
1.15192e-05
-1.9864e-14
1.22173e-05
2.74465e-14
1.29154e-05
2.06202e-14
1.36136e-05
-1.60368e-14
1.43117e-05
4.61577e-15
1.50098e-05
-4.68895e-15
1.5708e-05
-4.79617e-14
1.64061e-05
1.37441e-14
1.71042e-05
-3.23647e-14
1.78024e-05
3.51919e-14
1.85005e-05
2.49095e-14
1.91986e-05
-7.19117e-14
1.98967e-05
2.05949e-05
6.19763e-15
4.53785e-06
-2.81886e-17
5.23599e-06
-1.15111e-14
5.93412e-06
2.06268e-14
6.63225e-06
-5.36683e-15
7.33038e-06
-1.21954e-15
8.02851e-06
4.83732e-17
8.72664e-06
-1.23925e-14
9.42478e-06
1.32278e-14
1.01229e-05
1.88961e-14
1.0821e-05
4.96635e-15
1.15192e-05
7.15544e-15
1.22173e-05
1.48884e-14
1.29154e-05
-3.53354e-14
1.36136e-05
5.33877e-18
1.43117e-05
4.314e-14
1.50098e-05
-1.35596e-14
1.5708e-05
2.82627e-14
1.64061e-05
-2.44831e-15
1.71042e-05
1.02403e-14
1.78024e-05
-2.37925e-14
1.85005e-05
-1.38701e-14
1.91986e-05
4.55739e-14
1.98967e-05
2.05949e-05
-5.16964e-15
4.53785e-06
7.45583e-15
5.23599e-06
7.57298e-16
5.93412e-06
-6.83875e-15
6.63225e-06
9.97492e-15
7.33038e-06
1.66509e-15
8.02851e-06
-9.21699e-15
8.72664e-06
1.34607e-14
9.42478e-06
-2.32195e-14
1.01229e-05
-1.04712e-14
1.0821e-05
1.72743e-14
1.15192e-05
3.02919e-15
1.22173e-05
-1.13948e-14
1.29154e-05
1.98196e-14
1.36136e-05
4.68104e-15
1.43117e-05
-5.03036e-14
1.50098e-05
2.40488e-14
1.5708e-05
6.66037e-15