/*--------------------------------*- C++ -*----------------------------------*\
  =========                 |
  \\      /  F ield         | OpenFOAM: The Open Source CFD Toolbox
   \\    /   O peration     | Website:  https://openfoam.org
    \\  /    A nd           | Version:  11
     \\/     M anipulation  |
\*---------------------------------------------------------------------------*/
FoamFile
{
    format      ascii;
    class       volScalarField;
    location    "0.3";
    object      p;
}
// * * * * * * * * * * * * * * * * * * * * * * * * * * * * * * * * * * * * * //

dimensions      [0 2 -2 0 0 0 0];

internalField   nonuniform List<scalar> 
2880
(
-0.375868
-0.360741
-0.359419
-0.367119
-0.385172
-0.430307
-0.377479
-0.364009
-0.3662
-0.377682
-0.397679
-0.44662
-0.381148
-0.368516
-0.374418
-0.38797
-0.40588
-0.433973
-0.384093
-0.372164
-0.380801
-0.395075
-0.411588
-0.429658
-0.383527
-0.37449
-0.385394
-0.400161
-0.41637
-0.430386
-0.380283
-0.376349
-0.388975
-0.40439
-0.420847
-0.433746
-0.379772
-0.378786
-0.392217
-0.408249
-0.42514
-0.438404
-0.381192
-0.381695
-0.395322
-0.411862
-0.429267
-0.443561
-0.382739
-0.384749
-0.398258
-0.415229
-0.433192
-0.448733
-0.384224
-0.387762
-0.400941
-0.418303
-0.436863
-0.453668
-0.385652
-0.390603
-0.403283
-0.421025
-0.440243
-0.458231
-0.386995
-0.393166
-0.405219
-0.423342
-0.44327
-0.462354
-0.388217
-0.395388
-0.406688
-0.425194
-0.445853
-0.466022
-0.389293
-0.39725
-0.407617
-0.426547
-0.447965
-0.469283
-0.390225
-0.398724
-0.407991
-0.427396
-0.449597
-0.472291
-0.39107
-0.399788
-0.407863
-0.427737
-0.450697
-0.475044
-0.391925
-0.400455
-0.407322
-0.42759
-0.45119
-0.477415
-0.39261
-0.400768
-0.406493
-0.426999
-0.450968
-0.479251
-0.391482
-0.400808
-0.405547
-0.426038
-0.44991
-0.480343
-0.388357
-0.400824
-0.404782
-0.424884
-0.447912
-0.480267
-0.387738
-0.401444
-0.404719
-0.423955
-0.444886
-0.477396
-0.3903
-0.403087
-0.405851
-0.423804
-0.440519
-0.467342
-0.393409
-0.405337
-0.40813
-0.423968
-0.433904
-0.442109
-0.39477
-0.40658
-0.407619
-0.419789
-0.427054
-0.396524
-0.20026
-0.131116
-0.0983406
-0.0820956
-0.0672913
-0.0504726
-0.0331474
-0.0157004
0.00168393
0.0187439
0.0352219
0.0509186
0.0656986
0.0794709
0.0921607
0.103691
0.113994
0.123043
0.130864
0.137444
0.143434
0.1536
0.173605
0.158713
-0.298661
-0.231238
-0.185827
-0.156492
-0.135128
-0.115727
-0.0954527
-0.0745349
-0.0535581
-0.0329493
-0.013036
0.00591654
0.0237124
0.0402214
0.0553526
0.0690268
0.0811773
0.0917865
0.100917
0.108653
0.115705
0.126352
0.145861
0.134581
-0.35232
-0.299072
-0.25828
-0.228435
-0.202897
-0.180765
-0.159216
-0.136572
-0.112603
-0.0885058
-0.064982
-0.0424636
-0.0212577
-0.00157669
0.0164408
0.0326982
0.0471266
0.0597101
0.0705203
0.0797244
0.0880461
0.0992414
0.118235
0.111323
-0.390007
-0.347328
-0.315239
-0.291527
-0.269915
-0.246982
-0.223724
-0.200033
-0.174939
-0.14803
-0.120909
-0.0945601
-0.0695322
-0.0461778
-0.0247312
-0.00533997
0.0119071
0.0269843
0.0399542
0.05103
0.0609046
0.0728155
0.0913162
0.08915
-0.414283
-0.384598
-0.361702
-0.344781
-0.329337
-0.311741
-0.290065
-0.26517
-0.239014
-0.210967
-0.180875
-0.150645
-0.121433
-0.0938798
-0.0683911
-0.0452176
-0.0245009
-0.00629518
0.00944247
0.0229142
0.0347533
0.0476625
0.0657524
0.0683827
-0.430127
-0.413965
-0.399276
-0.388949
-0.379815
-0.368723
-0.353436
-0.332116
-0.305239
-0.275891
-0.244179
-0.210645
-0.177133
-0.144917
-0.114764
-0.087108
-0.0621919
-0.0401258
-0.0209032
-0.00438426
0.00998704
0.0243491
0.0422915
0.0495346
-0.442239
-0.436547
-0.429557
-0.425065
-0.421774
-0.417115
-0.408631
-0.393985
-0.371977
-0.342692
-0.309291
-0.273592
-0.236298
-0.199226
-0.163902
-0.131098
-0.101247
-0.0745613
-0.0510934
-0.0307591
-0.0131382
0.00333721
0.0216749
0.0331596
-0.452378
-0.454113
-0.453789
-0.454389
-0.455999
-0.456904
-0.454721
-0.446956
-0.43144
-0.407479
-0.375733
-0.338044
-0.297414
-0.255977
-0.215354
-0.176936
-0.141533
-0.109551
-0.0811307
-0.0562384
-0.0346223
-0.015201
0.00436626
0.0196632
-0.461221
-0.468137
-0.472975
-0.4778
-0.483267
-0.48854
-0.491545
-0.48982
-0.481007
-0.463474
-0.436356
-0.400638
-0.358744
-0.313605
-0.267937
-0.223774
-0.182454
-0.144699
-0.110813
-0.0808205
-0.0545604
-0.0313397
-0.00955888
0.00922974
-0.46903
-0.479572
-0.488012
-0.495929
-0.504196
-0.512472
-0.519248
-0.522127
-0.518791
-0.507336
-0.486151
-0.454736
-0.414448
-0.368023
-0.318721
-0.269483
-0.222447
-0.178873
-0.139374
-0.104143
-0.072989
-0.0454277
-0.0204889
0.00174224
-0.475945
-0.489031
-0.4998
-0.509541
-0.51937
-0.529232
-0.538091
-0.543843
-0.544154
-0.537172
-0.521179
-0.494769
-0.458024
-0.412938
-0.362539
-0.310131
-0.258571
-0.209843
-0.16532
-0.124936
-0.0892969
-0.0576201
-0.0289766
-0.00330576
-0.482158
-0.49698
-0.50911
-0.519557
-0.529671
-0.539645
-0.548751
-0.555346
-0.557199
-0.552425
-0.5395
-0.516987
-0.484099
-0.441845
-0.392743
-0.339848
-0.286181
-0.234204
-0.18575
-0.142737
-0.103482
-0.0667813
-0.0348228
-0.00633078
-0.487908
-0.503904
-0.516685
-0.526956
-0.536279
-0.544968
-0.552553
-0.557831
-0.558809
-0.553751
-0.541266
-0.520288
-0.489986
-0.450594
-0.403966
-0.352783
-0.299818
-0.247557
-0.198061
-0.152802
-0.110642
-0.0725211
-0.0389313
-0.00776041
-0.49344
-0.51039
-0.523353
-0.532852
-0.54059
-0.546883
-0.55142
-0.55324
-0.551125
-0.543308
-0.528683
-0.506614
-0.47669
-0.438997
-0.394754
-0.346194
-0.295728
-0.245543
-0.197468
-0.152698
-0.111595
-0.0740496
-0.0396162
-0.00815108
-0.49906
-0.517011
-0.530043
-0.538497
-0.544208
-0.547402
-0.547873
-0.544913
-0.537572
-0.524894
-0.505986
-0.480581
-0.448808
-0.411059
-0.368294
-0.322228
-0.274891
-0.228133
-0.183467
-0.141875
-0.103757
-0.0689108
-0.0372552
-0.00799791
-0.505345
-0.524314
-0.537727
-0.545254
-0.548859
-0.548713
-0.544613
-0.536064
-0.522462
-0.503342
-0.478586
-0.448344
-0.413099
-0.373649
-0.331073
-0.286784
-0.242398
-0.199404
-0.158953
-0.121788
-0.0882417
-0.0582507
-0.0316335
-0.0078027
-0.512737
-0.533112
-0.547445
-0.554353
-0.556194
-0.552921
-0.544299
-0.529993
-0.509745
-0.483581
-0.452021
-0.415903
-0.376247
-0.33401
-0.290498
-0.247027
-0.204876
-0.165188
-0.128825
-0.0963207
-0.0679352
-0.0437621
-0.0238765
-0.00763954
-0.521729
-0.544172
-0.560026
-0.566901
-0.567573
-0.561763
-0.549157
-0.52949
-0.502699
-0.469361
-0.430695
-0.388139
-0.343218
-0.297483
-0.252224
-0.208718
-0.168062
-0.131055
-0.098238
-0.0699175
-0.0462355
-0.0273122
-0.0133452
-0.00346445
-0.532869
-0.558122
-0.576193
-0.583701
-0.583995
-0.576581
-0.561145
-0.536923
-0.50368
-0.463123
-0.417211
-0.367952
-0.317436
-0.267513
-0.219691
-0.175254
-0.135127
-0.0998815
-0.0697727
-0.0448191
-0.0248687
-0.00944307
0.00245769
0.00998067
-0.546789
-0.575484
-0.596391
-0.605274
-0.606325
-0.59865
-0.580921
-0.551989
-0.513138
-0.466052
-0.41284
-0.356396
-0.299603
-0.244798
-0.193699
-0.147591
-0.107247
-0.0729741
-0.0447477
-0.0223293
-0.00524641
0.00798169
0.0205903
0.028252
-0.564073
-0.596657
-0.620668
-0.631501
-0.634107
-0.626939
-0.608117
-0.576528
-0.53304
-0.479255
-0.418272
-0.353985
-0.290146
-0.229651
-0.174478
-0.125936
-0.0846576
-0.0507312
-0.0239054
-0.00373663
0.0104634
0.020429
0.0290882
0.0307501
-0.584452
-0.622147
-0.648653
-0.661554
-0.6667
-0.661558
-0.643382
-0.610651
-0.563111
-0.502816
-0.433812
-0.361081
-0.28936
-0.222296
-0.162355
-0.110846
-0.0682032
-0.0342631
-0.0085372
0.00963014
0.0209812
0.0266845
0.0278802
0.0215921
-0.610266
-0.65332
-0.679579
-0.694169
-0.702471
-0.700862
-0.685244
-0.652714
-0.602304
-0.536118
-0.458936
-0.376939
-0.296593
-0.22246
-0.157458
-0.102709
-0.0583881
-0.0240405
0.00114078
0.0180897
0.0276268
0.0308065
0.0279573
0.0197406
-0.66112
-0.692344
-0.711783
-0.727313
-0.739338
-0.742386
-0.730701
-0.700021
-0.648192
-0.577042
-0.492552
-0.402
-0.314259
-0.234097
-0.164605
-0.106977
-0.0611183
-0.0262597
-0.00116901
0.0154519
0.0242655
0.0262558
0.0214785
0.0162975
-0.810431
-0.827506
-0.841566
-0.865357
-0.905981
-1.01082
-0.806439
-0.825229
-0.838383
-0.860315
-0.881964
-0.906168
-0.798148
-0.82108
-0.832794
-0.852481
-0.865752
-0.861808
-0.7926
-0.817026
-0.827108
-0.843805
-0.851278
-0.839861
-0.794801
-0.81404
-0.822401
-0.835721
-0.838759
-0.826598
-0.801475
-0.81193
-0.818723
-0.828714
-0.828878
-0.817932
-0.804686
-0.810006
-0.815671
-0.822786
-0.821283
-0.811599
-0.804422
-0.807999
-0.812948
-0.817875
-0.815452
-0.806803
-0.803685
-0.805883
-0.810437
-0.813821
-0.810944
-0.803044
-0.803197
-0.803628
-0.808175
-0.810361
-0.807375
-0.799919
-0.802718
-0.8012
-0.806095
-0.807323
-0.804454
-0.797139
-0.801961
-0.798598
-0.804051
-0.804635
-0.801993
-0.794524
-0.800773
-0.795815
-0.801998
-0.802267
-0.799857
-0.792014
-0.799065
-0.79291
-0.799969
-0.800198
-0.797966
-0.789741
-0.796823
-0.789746
-0.798082
-0.798454
-0.796257
-0.787948
-0.794178
-0.786243
-0.796329
-0.797146
-0.794639
-0.786689
-0.791157
-0.782571
-0.794773
-0.796433
-0.793119
-0.785852
-0.791091
-0.779446
-0.79363
-0.796529
-0.792103
-0.786516
-0.795334
-0.778139
-0.793076
-0.797616
-0.792585
-0.792176
-0.797186
-0.777774
-0.792805
-0.799572
-0.795794
-0.806958
-0.794788
-0.776964
-0.792305
-0.802011
-0.801912
-0.830569
-0.788961
-0.774885
-0.791081
-0.804318
-0.809419
-0.861276
-0.781074
-0.771753
-0.789499
-0.80561
-0.81663
-0.896765
-0.777294
-0.769607
-0.789264
-0.806867
-0.823487
-0.931737
-0.777711
-0.734224
-0.741853
-0.758252
-0.77422
-0.782374
-0.775516
-0.747507
-0.695743
-0.621258
-0.532114
-0.436825
-0.34447
-0.260886
-0.188956
-0.129745
-0.0831064
-0.0479954
-0.0225603
-0.00466985
0.00719149
0.0142558
0.0157773
0.0140858
-0.800996
-0.764619
-0.766486
-0.784176
-0.803736
-0.816178
-0.813085
-0.787127
-0.7354
-0.660053
-0.568604
-0.471122
-0.377232
-0.292905
-0.221118
-0.162603
-0.116357
-0.0803181
-0.052742
-0.0322422
-0.0172639
-0.00626704
0.00148615
0.00702023
-0.798243
-0.779198
-0.783707
-0.803337
-0.825246
-0.839901
-0.837855
-0.81166
-0.75886
-0.682294
-0.589916
-0.492443
-0.399776
-0.317411
-0.248158
-0.191892
-0.146765
-0.110741
-0.081966
-0.0588819
-0.0400849
-0.0241931
-0.0101443
0.00165733
-0.79635
-0.786442
-0.794402
-0.815211
-0.837569
-0.851438
-0.847303
-0.818387
-0.762679
-0.684479
-0.592428
-0.497647
-0.409076
-0.330651
-0.264803
-0.210871
-0.166737
-0.130632
-0.100985
-0.0763933
-0.0555876
-0.0373831
-0.0205943
-0.00456544
-0.795624
-0.790494
-0.800015
-0.820285
-0.840377
-0.850607
-0.841814
-0.807774
-0.748068
-0.668579
-0.578535
-0.488741
-0.405646
-0.332785
-0.271886
-0.22076
-0.178235
-0.142808
-0.113046
-0.0876809
-0.0655883
-0.0457563
-0.027002
-0.00815395
-0.794717
-0.792205
-0.801383
-0.818795
-0.834363
-0.838506
-0.822917
-0.782156
-0.718413
-0.638428
-0.551812
-0.467928
-0.391889
-0.325929
-0.269357
-0.221451
-0.18118
-0.147116
-0.117966
-0.0926299
-0.0701711
-0.0496813
-0.0297765
-0.00916468
-0.793833
-0.791792
-0.798789
-0.811386
-0.820329
-0.81689
-0.792548
-0.744766
-0.677543
-0.598517
-0.516773
-0.439531
-0.370419
-0.310354
-0.258373
-0.21389
-0.17598
-0.143481
-0.115289
-0.0904716
-0.0682577
-0.0477927
-0.0275561
-0.00709144
-0.792765
-0.789459
-0.792533
-0.798638
-0.799709
-0.787041
-0.753158
-0.698941
-0.629349
-0.55266
-0.476559
-0.405966
-0.343223
-0.288305
-0.240698
-0.199641
-0.164248
-0.133563
-0.106673
-0.0828106
-0.0613348
-0.0413594
-0.0211805
-0.00213917
-0.791345
-0.785391
-0.782931
-0.781324
-0.773671
-0.750283
-0.707452
-0.647536
-0.576973
-0.503569
-0.433096
-0.368687
-0.311415
-0.261239
-0.217581
-0.179708
-0.146836
-0.118157
-0.0929075
-0.0704499
-0.0502373
-0.0311261
-0.0111741
0.00551054
-0.78953
-0.779741
-0.770211
-0.760513
-0.742609
-0.708373
-0.657189
-0.592837
-0.522628
-0.452943
-0.387682
-0.328621
-0.27623
-0.230252
-0.190117
-0.155156
-0.124685
-0.0980254
-0.0745433
-0.0536949
-0.0349516
-0.0168582
0.00270596
0.0159673
-0.787358
-0.772517
-0.754727
-0.736258
-0.706971
-0.662456
-0.603606
-0.53635
-0.467474
-0.401562
-0.340979
-0.286607
-0.23848
-0.196212
-0.159239
-0.12696
-0.0987795
-0.0741166
-0.0524297
-0.0332634
-0.016035
0.00104883
0.0202238
0.0292332
-0.784845
-0.763336
-0.736908
-0.708113
-0.667447
-0.612746
-0.547642
-0.479006
-0.412079
-0.349783
-0.293371
-0.243106
-0.198733
-0.159762
-0.125639
-0.0958268
-0.0698109
-0.0470878
-0.0271773
-0.00969407
0.0059856
0.0220482
0.0408972
0.0451722
-0.782052
-0.7517
-0.716984
-0.676245
-0.62383
-0.559578
-0.490033
-0.421201
-0.356565
-0.297711
-0.24508
-0.198494
-0.157484
-0.121489
-0.0899654
-0.0624272
-0.0384301
-0.0175351
0.000683403
0.0165593
0.0307321
0.0458227
0.0644319
0.0637082
-0.779241
-0.736913
-0.694117
-0.640371
-0.575486
-0.503313
-0.431092
-0.36298
-0.30087
-0.245339
-0.196233
-0.153041
-0.115132
-0.0818877
-0.0527722
-0.0273421
-0.00520907
0.01401
0.0306802
0.0450686
0.057824
0.0720368
0.0905299
0.0848121
-0.776461
-0.718318
-0.666293
-0.599067
-0.522273
-0.444289
-0.370852
-0.304163
-0.244818
-0.19261
-0.146917
-0.10697
-0.0720099
-0.0413782
-0.0145427
0.00891006
0.0293262
0.047039
0.0623409
0.0754024
0.0868721
0.100323
0.118852
0.108469
-0.772796
-0.696478
-0.631322
-0.550968
-0.464341
-0.382521
-0.309099
-0.244497
-0.188232
-0.139464
-0.0972012
-0.0604719
-0.0284224
-0.000358026
0.024254
0.0458107
0.0646299
0.081002
0.0951381
0.107076
0.117448
0.130266
0.148981
0.134659
-0.763029
-0.674178
-0.588323
-0.495141
-0.401593
-0.317863
-0.245583
-0.183742
-0.130957
-0.0858572
-0.0471568
-0.0137278
0.015354
0.0408089
0.0631745
0.0828445
0.100125
0.115275
0.128434
0.139497
0.149025
0.161367
0.180425
0.163449
-0.744228
-0.653843
-0.538081
-0.431305
-0.333698
-0.250011
-0.180011
-0.121667
-0.0728515
-0.0317508
0.00315696
0.0331114
0.0590813
0.0817994
0.101808
0.119505
0.135203
0.149152
0.161452
0.171909
0.180957
0.193041
0.212567
0.195305
-0.715535
-0.629745
-0.480154
-0.359367
-0.260094
-0.178458
-0.112045
-0.0580681
-0.013821
0.0228636
0.0536768
0.0799204
0.102573
0.122358
0.139808
0.155327
0.169238
0.181806
0.193165
0.203159
0.212075
0.223825
0.243453
0.232424
-0.678071
-0.586428
-0.410673
-0.278681
-0.180242
-0.102772
-0.0414793
0.00712348
0.0461341
0.0779468
0.10434
0.126621
0.145732
0.162355
0.176983
0.189989
0.201674
0.212299
0.222054
0.2309
0.238722
0.247543
0.263596
0.278147
-0.63356
-0.51007
-0.323413
-0.187922
-0.0936936
-0.0227339
0.0317171
0.0738319
0.106903
0.133394
0.155072
0.173181
0.188584
0.201878
0.213481
0.223688
0.232712
0.240723
0.247835
0.253845
0.258038
0.261706
0.275318
0.307516
-0.585577
-0.39382
-0.211853
-0.085485
-0.000254336
0.0614581
0.107253
0.141742
0.168201
0.188987
0.205738
0.219567
0.231217
0.241184
0.2498
0.257287
0.263796
0.269443
0.274229
0.277672
0.279194
0.282781
0.301792
0.321917
-0.527212
-0.227828
-0.0706861
0.0296763
0.0995099
0.148894
0.184317
0.210203
0.229527
0.244354
0.256084
0.265639
0.273612
0.280383
0.286201
0.291224
0.295565
0.299318
0.302423
0.304297
0.304732
0.30936
0.331361
0.342128
-0.356142
-0.00151281
0.095735
0.1556
0.203699
0.23791
0.261629
0.278263
0.290174
0.298971
0.305728
0.311125
0.315584
0.319365
0.322626
0.325463
0.327944
0.330126
0.331888
0.332589
0.332226
0.337172
0.36018
0.36578
1.53328
1.57466
1.60597
1.63451
1.60505
1.44901
1.53267
1.5688
1.58735
1.60236
1.52141
1.34847
1.53183
1.56026
1.56564
1.56433
1.47323
1.29541
1.53253
1.55285
1.54779
1.53204
1.44131
1.27692
1.53284
1.54793
1.53461
1.50786
1.41917
1.27322
1.53184
1.54379
1.52437
1.48974
1.40369
1.27525
1.53018
1.53915
1.51564
1.47568
1.39307
1.27953
1.52794
1.53367
1.50772
1.46449
1.38584
1.28454
1.52513
1.52748
1.50044
1.45551
1.38093
1.28947
1.5219
1.52085
1.4939
1.44834
1.37763
1.29381
1.51843
1.51416
1.48829
1.44277
1.37554
1.2975
1.51489
1.5078
1.48378
1.43869
1.37439
1.30053
1.51144
1.50206
1.48045
1.43599
1.37404
1.30298
1.50818
1.49717
1.47827
1.43456
1.37443
1.30496
1.5052
1.4932
1.47722
1.43428
1.37555
1.30667
1.50254
1.49014
1.47718
1.43505
1.37755
1.30845
1.5002
1.48791
1.47792
1.43673
1.3806
1.3108
1.4982
1.48637
1.47907
1.43904
1.38484
1.31433
1.49673
1.48532
1.48016
1.44168
1.39038
1.31967
1.49704
1.48431
1.48054
1.44411
1.39718
1.3277
1.49855
1.48255
1.47931
1.44544
1.40513
1.34143
1.49743
1.47945
1.47572
1.44481
1.41433
1.36946
1.49487
1.4754
1.47087
1.44332
1.42724
1.42804
1.4937
1.47287
1.47072
1.44822
1.44855
1.52919
0.192621
0.235605
0.262926
0.284689
0.308452
0.325978
0.337467
0.34472
0.349287
0.352207
0.354182
0.355637
0.356814
0.35785
0.358813
0.359732
0.360621
0.361492
0.362166
0.361943
0.360913
0.365774
0.38887
0.391403
0.548672
0.434774
0.412839
0.406767
0.408488
0.410139
0.409977
0.408368
0.405999
0.403403
0.400922
0.398733
0.39691
0.395468
0.394389
0.393631
0.39315
0.392903
0.392651
0.391642
0.390014
0.394577
0.417175
0.417669
0.755244
0.604192
0.54564
0.516469
0.500239
0.488235
0.477755
0.468183
0.459552
0.451965
0.445454
0.439982
0.435473
0.431834
0.428964
0.426751
0.42509
0.42388
0.422825
0.42114
0.419002
0.423176
0.444881
0.443984
0.881893
0.7343
0.657102
0.611728
0.582189
0.559047
0.53987
0.523446
0.509366
0.497405
0.487353
0.478998
0.47214
0.466593
0.46218
0.458722
0.456053
0.454018
0.452274
0.450021
0.447475
0.451229
0.471742
0.469913
0.973817
0.835246
0.749163
0.693466
0.653604
0.622015
0.595817
0.573708
0.55504
0.539361
0.526284
0.515464
0.506603
0.499437
0.493723
0.48922
0.485706
0.482974
0.480647
0.477933
0.475087
0.478418
0.497514
0.49511
1.04244
0.913583
0.82431
0.762215
0.715167
0.677131
0.645423
0.61875
0.596339
0.577595
0.562008
0.54914
0.538618
0.530117
0.523336
0.517979
0.513772
0.510464
0.507655
0.504587
0.501548
0.504463
0.521971
0.519275
1.09327
0.97406
0.884973
0.819279
0.767398
0.724642
0.688753
0.658533
0.633166
0.611975
0.594373
0.579857
0.568003
0.558439
0.550814
0.544783
0.540024
0.536253
0.533061
0.529738
0.526601
0.529107
0.5449
0.542133
1.13079
1.0206
0.933421
0.866018
0.81104
0.764973
0.726028
0.693152
0.665534
0.64246
0.623298
0.60751
0.594633
0.584261
0.576
0.56946
0.564281
0.56015
0.556663
0.553177
0.550021
0.55212
0.56611
0.563436
1.15863
1.05608
0.971637
0.903738
0.846913
0.79864
0.757561
0.722783
0.693528
0.669073
0.648765
0.632045
0.618431
0.607484
0.598777
0.59188
0.586396
0.581997
0.578296
0.574724
0.571611
0.573301
0.585439
0.582969
1.17903
1.08296
1.0013
0.933611
0.875819
0.826181
0.783706
0.747652
0.717285
0.691885
0.670797
0.653453
0.639356
0.628047
0.619064
0.611941
0.606254
0.601666
0.597821
0.594226
0.591199
0.59248
0.60276
0.60056
1.19363
1.10286
1.02372
0.956634
0.898482
0.848113
0.804823
0.768003
0.736963
0.710996
0.689449
0.671752
0.657401
0.645916
0.636806
0.629569
0.623764
0.619055
0.615122
0.611555
0.608646
0.609524
0.617979
0.616082
1.20362
1.11695
1.03992
0.973628
0.915531
0.864904
0.82125
0.784077
0.752734
0.726522
0.704795
0.686984
0.672579
0.661081
0.651968
0.644713
0.638859
0.634085
0.630114
0.626614
0.623844
0.624336
0.631046
0.629451
1.20979
1.1261
1.05068
0.985241
0.927485
0.876956
0.833291
0.7961
0.764764
0.738587
0.716923
0.699207
0.684922
0.67355
0.664539
0.657339
0.651495
0.646704
0.642735
0.639334
0.636721
0.636868
0.641958
0.640601
1.21262
1.1309
1.05655
0.991968
0.934748
0.884589
0.841197
0.804267
0.77321
0.747313
0.725929
0.708492
0.694476
0.683345
0.67452
0.667437
0.66165
0.656883
0.652952
0.649671
0.647231
0.647105
0.650724
0.649399
1.21235
1.13168
1.05788
0.994156
0.937613
0.888041
0.845167
0.808751
0.778216
0.752824
0.731914
0.714917
0.7013
0.690505
0.681933
0.675015
0.669324
0.664615
0.660745
0.657587
0.655304
0.654934
0.657246
0.655924
1.209
1.12857
1.05486
0.991991
0.936268
0.88748
0.845357
0.809699
0.779923
0.755244
0.734986
0.718575
0.705468
0.695088
0.686823
0.68011
0.674549
0.669928
0.666142
0.663107
0.660937
0.660287
0.661527
0.66055
1.2024
1.12151
1.04747
0.985531
0.930802
0.883011
0.841891
0.80725
0.778466
0.754704
0.735266
0.71957
0.707067
0.697167
0.689256
0.682787
0.677393
0.672898
0.669227
0.66633
0.664259
0.66336
0.663791
0.663249
1.19212
1.11019
1.0355
0.974713
0.921218
0.874703
0.834878
0.801538
0.773989
0.751345
0.732883
0.71802
0.706202
0.696837
0.689319
0.68313
0.677942
0.673609
0.670083
0.667334
0.665366
0.664299
0.664198
0.663973
1.17742
1.09405
1.01852
0.959353
0.907457
0.862603
0.824436
0.792712
0.766656
0.745329
0.727989
0.714061
0.702995
0.694208
0.687116
0.68124
0.676288
0.672145
0.66878
0.666176
0.664319
0.66322
0.662826
0.662745
1.15719
1.07213
0.99597
0.939156
0.889444
0.846773
0.810711
0.78096
0.756663
0.736842
0.720755
0.707846
0.697583
0.689408
0.682769
0.677232
0.672546
0.66862
0.665432
0.662969
0.661212
0.660148
0.65973
0.659718
1.13024
1.04283
0.967049
0.913767
0.867133
0.827338
0.793915
0.766524
0.744252
0.726106
0.711379
0.69955
0.690126
0.682583
0.676417
0.67124
0.666842
0.66315
0.660149
0.657821
0.656151
0.655199
0.655011
0.65496
1.09541
1.00305
0.930561
0.882852
0.840609
0.804559
0.774373
0.749732
0.729718
0.713378
0.700081
0.68937
0.680799
0.673896
0.66821
0.663408
0.659311
0.655865
0.653055
0.650848
0.649253
0.648492
0.648782
0.648595
1.04236
0.946009
0.885274
0.846429
0.810268
0.778929
0.752571
0.731008
0.713412
0.698948
0.687108
0.677515
0.669789
0.663517
0.658311
0.653885
0.650095
0.646899
0.644277
0.642177
0.640641
0.640143
0.641146
0.640723
0.913429
0.863323
0.831631
0.805478
0.777085
0.751285
0.729172
0.710865
0.695726
0.683126
0.672713
0.664204
0.65729
0.651626
0.646885
0.642827
0.639338
0.636387
0.633947
0.631937
0.630448
0.630284
0.63222
0.631459
0.629677
0.591701
0.566856
0.523435
0.423469
0.111272
0.631201
0.594786
0.572066
0.533723
0.468365
0.354324
0.635685
0.600402
0.581185
0.547099
0.50047
0.451572
0.638716
0.606979
0.591989
0.561495
0.525523
0.497029
0.637707
0.613303
0.602522
0.575349
0.548429
0.530103
0.638507
0.619285
0.612036
0.588344
0.56835
0.554728
0.641907
0.625317
0.620628
0.600487
0.58447
0.571747
0.6459
0.631557
0.628715
0.611638
0.597018
0.582656
0.650221
0.638071
0.636497
0.621618
0.606655
0.589438
0.654542
0.644891
0.643978
0.630342
0.613943
0.593395
0.65894
0.652051
0.651112
0.63788
0.61932
0.595235
0.663503
0.659571
0.657897
0.644339
0.62297
0.595133
0.668252
0.66744
0.664346
0.649782
0.624944
0.593071
0.673154
0.675594
0.670488
0.654351
0.625434
0.589078
0.678126
0.683864
0.67641
0.658269
0.624689
0.583167
0.68301
0.692067
0.682187
0.661731
0.622951
0.575393
0.687612
0.699913
0.687822
0.664904
0.620435
0.565861
0.691746
0.707041
0.693286
0.667978
0.617285
0.554713
0.695257
0.713098
0.698612
0.671277
0.613724
0.54206
0.697642
0.717963
0.704095
0.675541
0.610625
0.527975
0.696782
0.722295
0.710903
0.682556
0.610374
0.513518
0.694948
0.728104
0.721539
0.695578
0.617444
0.501963
0.699123
0.735682
0.736844
0.715107
0.634443
0.489173
0.702539
0.741385
0.749018
0.729303
0.64757
0.474264
0.633001
0.769529
0.774968
0.762681
0.742791
0.722802
0.704973
0.689855
0.677059
0.666223
0.65715
0.649652
0.643493
0.638397
0.634092
0.630384
0.627181
0.624464
0.622195
0.620259
0.61881
0.619064
0.622154
0.620888
0.569051
0.694804
0.723426
0.722243
0.709533
0.694717
0.680756
0.668484
0.657778
0.648522
0.64065
0.634058
0.628578
0.623993
0.620086
0.616697
0.613757
0.611254
0.609137
0.607257
0.605825
0.60652
0.610985
0.609237
0.567521
0.652694
0.682458
0.686515
0.678703
0.667902
0.657083
0.647136
0.638173
0.630255
0.62341
0.617596
0.612702
0.608563
0.605004
0.601894
0.59918
0.596857
0.594862
0.592994
0.591487
0.592497
0.598512
0.596858
0.568689
0.627175
0.650973
0.655876
0.650805
0.642754
0.634225
0.626028
0.61843
0.611586
0.605577
0.600406
0.596
0.592235
0.588969
0.586094
0.583563
0.58138
0.579465
0.577557
0.575889
0.577114
0.584735
0.583487
0.569976
0.608741
0.62605
0.629653
0.625716
0.619279
0.612222
0.605237
0.598637
0.592609
0.587251
0.582589
0.578577
0.575118
0.572095
0.569412
0.567033
0.56496
0.563097
0.561125
0.559295
0.560808
0.570054
0.568721
0.572598
0.594352
0.605634
0.606915
0.602974
0.597226
0.590961
0.584727
0.578802
0.573357
0.568484
0.564212
0.560509
0.557295
0.554471
0.55195
0.549697
0.547715
0.54589
0.543848
0.541868
0.543715
0.554642
0.553021
0.574943
0.582992
0.588329
0.586724
0.581983
0.576219
0.570228
0.564378
0.558866
0.553812
0.549286
0.545306
0.541842
0.538826
0.536165
0.533781
0.531636
0.529731
0.527937
0.52582
0.523689
0.525864
0.538475
0.536549
0.575718
0.573927
0.572982
0.56819
0.562113
0.555843
0.549759
0.544024
0.538726
0.533921
0.529637
0.525875
0.522599
0.519744
0.517224
0.514961
0.512915
0.511085
0.509321
0.507137
0.504859
0.507337
0.521599
0.519396
0.575048
0.56557
0.558606
0.550504
0.542766
0.535686
0.529268
0.523471
0.518256
0.513602
0.509493
0.505901
0.502782
0.500069
0.497678
0.495531
0.493586
0.491835
0.490112
0.48788
0.485468
0.48822
0.504067
0.501656
0.572964
0.556826
0.544284
0.532926
0.523385
0.515344
0.50847
0.502513
0.497311
0.49276
0.488792
0.485352
0.48238
0.479806
0.477546
0.475521
0.473687
0.47203
0.470369
0.46812
0.465602
0.468597
0.485927
0.483429
0.569179
0.54679
0.52923
0.514815
0.503486
0.494454
0.487088
0.480948
0.475742
0.471287
0.467463
0.464184
0.461373
0.458954
0.456842
0.454958
0.453254
0.451713
0.450144
0.447921
0.44534
0.448546
0.467218
0.464826
0.563297
0.534986
0.512897
0.495665
0.482648
0.472679
0.464861
0.458569
0.453394
0.449071
0.445429
0.442348
0.439736
0.437509
0.435579
0.433868
0.432327
0.430934
0.429493
0.427349
0.42476
0.428138
0.447969
0.445963
0.555138
0.521066
0.49482
0.475022
0.460483
0.449699
0.441527
0.435172
0.430108
0.425992
0.422603
0.419791
0.417444
0.415469
0.413778
0.412291
0.410957
0.409755
0.408489
0.406484
0.40395
0.407449
0.428188
0.426978
0.544451
0.504624
0.47453
0.452441
0.436604
0.425191
0.416822
0.410541
0.405712
0.40192
0.398894
0.396454
0.394468
0.392836
0.391465
0.390276
0.389217
0.388265
0.387232
0.385439
0.383028
0.386562
0.407862
0.408069
0.530844
0.485147
0.451504
0.427446
0.410604
0.398815
0.390467
0.384451
0.380028
0.376717
0.3742
0.372269
0.370776
0.369609
0.368675
0.367891
0.367204
0.36659
0.365871
0.364382
0.362169
0.365583
0.386938
0.389591
0.513765
0.461953
0.425121
0.399506
0.38204
0.370203
0.36216
0.356656
0.35286
0.350227
0.348405
0.347157
0.346323
0.345782
0.345439
0.345209
0.345035
0.344891
0.344617
0.343577
0.341663
0.344667
0.365247
0.37228
0.492477
0.434132
0.394621
0.36801
0.350419
0.338961
0.331583
0.326897
0.323993
0.32228
0.321372
0.321016
0.321041
0.321325
0.321769
0.322291
0.322832
0.32336
0.323748
0.323436
0.322042
0.324053
0.342172
0.357731
0.466011
0.400478
0.359088
0.332265
0.315204
0.304664
0.298391
0.294892
0.293195
0.292678
0.292937
0.293709
0.294821
0.296153
0.297613
0.299129
0.300641
0.302131
0.303528
0.304455
0.30419
0.304661
0.317495
0.349212
0.432937
0.359459
0.317466
0.291516
0.275824
0.266866
0.262229
0.260344
0.260214
0.261202
0.262902
0.265053
0.267488
0.270095
0.2728
0.27555
0.278314
0.281094
0.283907
0.286557
0.288386
0.290422
0.302083
0.33392
0.391033
0.309287
0.268579
0.244971
0.231703
0.225126
0.222735
0.222949
0.224781
0.227607
0.231035
0.234814
0.238789
0.242863
0.246974
0.251089
0.255201
0.259328
0.263435
0.267208
0.270464
0.276663
0.29424
0.296419
0.337324
0.24797
0.211251
0.191896
0.182324
0.179039
0.179573
0.182407
0.18662
0.191632
0.197076
0.202722
0.208426
0.214096
0.219669
0.225104
0.230377
0.235472
0.24027
0.24434
0.24785
0.255773
0.275822
0.263545
0.26823
0.173191
0.144572
0.131774
0.127331
0.128317
0.132465
0.138442
0.14546
0.153012
0.160768
0.168521
0.176139
0.183536
0.190641
0.197397
0.203756
0.209682
0.215042
0.21944
0.223267
0.231954
0.252646
0.235436
0.174625
0.0834488
0.0687055
0.0645218
0.0666465
0.0728594
0.0812437
0.0908309
0.10105
0.111488
0.121858
0.131973
0.141715
0.151002
0.159761
0.16792
0.175419
0.182216
0.188216
0.19315
0.197535
0.206763
0.227451
0.209087
0.0329797
-0.0185185
-0.0121728
-0.00804077
0.00107793
0.012979
0.025948
0.039452
0.0531779
0.0668111
0.0800942
0.0928498
0.104963
0.116354
0.126949
0.136672
0.145455
0.153263
0.160063
0.165723
0.170832
0.180534
0.200951
0.183567
)
;

boundaryField
{
    rotor
    {
        type            zeroGradient;
    }
    freestream
    {
        type            freestreamPressure;
        freestreamValue uniform 0;
        supersonic      false;
        value           nonuniform List<scalar> 
96
(
0.0496214
0.0383977
0.0289196
0.0210583
0.0146832
0.00967802
0.00590959
0.00320933
0.00138718
0.000242714
-0.000429847
-0.000773244
-0.000895882
-0.000889194
-0.000819403
-0.000732173
-0.000617207
-0.000211038
0.000339101
0.000199698
5.83571e-05
0.000417111
0.000720741
0.000809819
0.000884395
0.00054992
0.000157975
-0.000511016
-0.00104007
-0.0013146
-0.00113738
-0.000381246
0.00108692
0.0034776
0.0070121
0.0118995
0.018377
0.0267065
0.0371636
0.050025
0.0655975
0.0843502
0.107568
0.137277
0.161039
0.179386
0.202421
0.228895
0.258028
0.28894
0.321105
0.354037
0.38727
0.42034
0.452777
0.484119
0.513921
0.541775
0.567317
0.590234
0.610251
0.627046
0.640522
0.650911
0.658084
0.661921
0.662398
0.659654
0.653775
0.644927
0.633277
0.619032
0.602382
0.583674
0.563373
0.541369
0.517449
0.492211
0.465967
0.438961
0.411435
0.383633
0.355795
0.328159
0.300965
0.274477
0.249041
0.225189
0.203864
0.186759
0.167263
0.138829
0.114823
0.0949735
0.0777651
0.0627056
)
;
    }
    frontAndBack
    {
        type            empty;
    }
}


// ************************************************************************* //
