/*--------------------------------*- C++ -*----------------------------------*\
  =========                 |
  \\      /  F ield         | OpenFOAM: The Open Source CFD Toolbox
   \\    /   O peration     | Website:  https://openfoam.org
    \\  /    A nd           | Version:  11
     \\/     M anipulation  |
\*---------------------------------------------------------------------------*/
FoamFile
{
    format      ascii;
    class       surfaceScalarField;
    location    "0.3";
    object      phi;
}
// * * * * * * * * * * * * * * * * * * * * * * * * * * * * * * * * * * * * * //

dimensions      [0 3 -1 0 0 0 0];

internalField   nonuniform List<scalar> 
5640
(
4.35071e-08
-4.35071e-08
4.78535e-07
-4.35028e-07
1.24437e-06
-7.65838e-07
2.46717e-06
-1.2228e-06
4.05801e-06
-1.59084e-06
-2.17573e-06
6.23375e-06
1.68634e-07
-2.12141e-07
6.95879e-07
-9.62273e-07
1.52847e-06
-1.59842e-06
2.60286e-06
-2.29719e-06
3.86088e-06
-2.84886e-06
-3.15033e-06
4.83547e-06
2.38083e-07
-4.50225e-07
7.82194e-07
-1.50638e-06
1.58165e-06
-2.39788e-06
2.50143e-06
-3.21698e-06
3.41803e-06
-3.76546e-06
-3.77064e-06
4.03834e-06
2.83024e-07
-7.33249e-07
8.1603e-07
-2.03939e-06
1.54824e-06
-3.13008e-06
2.33238e-06
-4.00113e-06
3.06488e-06
-4.49795e-06
-4.33863e-06
3.63287e-06
3.13475e-07
-1.04672e-06
8.11546e-07
-2.53746e-06
1.46125e-06
-3.77979e-06
2.13047e-06
-4.67034e-06
2.74999e-06
-5.11748e-06
-4.91074e-06
3.3221e-06
3.24741e-07
-1.37146e-06
7.72302e-07
-2.98502e-06
1.33312e-06
-4.34061e-06
1.90013e-06
-5.23735e-06
2.43415e-06
-5.65149e-06
-5.46545e-06
2.98886e-06
2.98121e-07
-1.66959e-06
6.96544e-07
-3.38345e-06
1.17057e-06
-4.81463e-06
1.6417e-06
-5.70849e-06
2.09536e-06
-6.10515e-06
-5.97484e-06
2.60475e-06
2.54241e-07
-1.92383e-06
5.92658e-07
-3.72186e-06
9.8005e-07
-5.20203e-06
1.35629e-06
-6.08473e-06
1.72387e-06
-6.47272e-06
-6.41073e-06
2.15976e-06
1.98312e-07
-2.12214e-06
4.69016e-07
-3.99257e-06
7.68106e-07
-5.50112e-06
1.04692e-06
-6.36354e-06
1.31769e-06
-6.74349e-06
-6.74655e-06
1.65351e-06
1.34328e-07
-2.25647e-06
3.32111e-07
-4.19035e-06
5.41007e-07
-5.71001e-06
7.18421e-07
-6.54096e-06
8.80314e-07
-6.90539e-06
-6.95862e-06
1.09238e-06
6.57899e-08
-2.32226e-06
1.87538e-07
-4.3121e-06
3.04762e-07
-5.82724e-06
3.77301e-07
-6.6135e-06
4.19616e-07
-6.9477e-06
-7.02749e-06
4.88482e-07
-4.04558e-09
-2.31821e-06
4.01401e-08
-4.35628e-06
6.51669e-08
-5.85226e-06
3.11351e-08
-6.57947e-06
-5.34135e-08
-6.86315e-06
-6.93941e-06
-1.41487e-07
-7.20053e-08
-2.2462e-06
-1.05824e-07
-4.32247e-06
-1.72061e-07
-5.78602e-06
-3.11777e-07
-6.43975e-06
-5.25345e-07
-6.64959e-06
-6.6877e-06
-7.77062e-07
-1.35369e-07
-2.11084e-06
-2.4641e-07
-4.21142e-06
-4.01545e-07
-5.63089e-06
-6.43204e-07
-6.19809e-06
-9.81605e-07
-6.31118e-06
-6.27279e-06
-1.39651e-06
-1.914e-07
-1.91944e-06
-3.77828e-07
-4.025e-06
-6.18294e-07
-5.39042e-06
-9.5477e-07
-5.86162e-06
-1.40742e-06
-5.85854e-06
-5.7047e-06
-1.97551e-06
-2.37512e-07
-1.68192e-06
-4.9626e-07
-3.76625e-06
-8.17996e-07
-5.06869e-06
-1.23932e-06
-5.44029e-06
-1.79019e-06
-5.30766e-06
-5.00154e-06
-2.49334e-06
-2.71262e-07
-1.41066e-06
-5.98023e-07
-3.43949e-06
-9.97019e-07
-4.66969e-06
-1.49113e-06
-4.94618e-06
-2.11899e-06
-4.6798e-06
-4.18899e-06
-2.93154e-06
-2.90002e-07
-1.12066e-06
-6.79516e-07
-3.04997e-06
-1.15239e-06
-4.19682e-06
-1.70646e-06
-4.39212e-06
-2.38567e-06
-4.00059e-06
-3.30115e-06
-3.27351e-06
-2.90343e-07
-8.30318e-07
-7.36877e-07
-2.60344e-06
-1.28176e-06
-3.65193e-06
-1.884e-06
-3.78988e-06
-2.58611e-06
-3.29848e-06
-2.3803e-06
-3.50696e-06
-2.6706e-07
-5.63258e-07
-7.66926e-07
-2.10357e-06
-1.38316e-06
-3.0357e-06
-2.02565e-06
-3.14739e-06
-2.72229e-06
-2.60184e-06
-1.47837e-06
-3.62422e-06
-2.32412e-07
-3.30846e-07
-7.72328e-07
-1.56366e-06
-1.4542e-06
-2.35382e-06
-2.13719e-06
-2.46441e-06
-2.8065e-06
-1.93253e-06
-6.64508e-07
-3.62036e-06
-1.88159e-07
-1.42687e-07
-7.47273e-07
-1.00454e-06
-1.48821e-06
-1.61289e-06
-2.22716e-06
-1.72545e-06
-2.86179e-06
-1.2979e-06
-4.44675e-08
-3.48183e-06
-1.24225e-07
-1.84618e-08
-6.74833e-07
-4.53935e-07
-1.46555e-06
-8.22177e-07
-2.29228e-06
-8.98722e-07
-2.91246e-06
-6.77722e-07
2.07901e-07
-3.16483e-06
-1.84618e-08
-4.72396e-07
-1.29457e-06
-2.19329e-06
-2.87102e-06
-2.66312e-06
1.38693e-05
9.84506e-06
-1.74806e-05
1.73142e-05
1.98014e-05
-2.32463e-05
1.95117e-05
2.44946e-05
-2.66922e-05
2.11978e-05
2.7118e-05
-2.8804e-05
2.25177e-05
2.87886e-05
-3.01086e-05
2.35103e-05
2.98751e-05
-3.08677e-05
2.42549e-05
3.04974e-05
-3.1242e-05
2.4806e-05
3.07677e-05
-3.13188e-05
2.5206e-05
3.07547e-05
-3.11547e-05
2.54907e-05
3.05073e-05
-3.07919e-05
2.56905e-05
3.00648e-05
-3.02646e-05
2.58309e-05
2.94615e-05
-2.96019e-05
2.59322e-05
2.87272e-05
-2.88285e-05
2.601e-05
2.78862e-05
-2.7964e-05
2.60756e-05
2.69564e-05
-2.70221e-05
2.61381e-05
2.59478e-05
-2.60103e-05
2.62046e-05
2.48626e-05
-2.49291e-05
2.62808e-05
2.36954e-05
-2.37716e-05
2.63707e-05
2.24345e-05
-2.25244e-05
2.64769e-05
2.10603e-05
-2.11665e-05
2.6603e-05
1.95426e-05
-1.96687e-05
2.67562e-05
1.78423e-05
-1.79955e-05
2.69522e-05
1.59042e-05
-1.61002e-05
1.3638e-05
-1.39116e-05
1.04553e-05
4.22522e-06
1.59352e-05
1.43215e-05
1.96983e-05
2.07316e-05
2.22557e-05
2.45606e-05
2.4186e-05
2.68584e-05
2.56856e-05
2.83754e-05
2.6807e-05
2.9376e-05
2.76452e-05
2.99296e-05
2.82659e-05
3.0134e-05
2.87196e-05
3.00535e-05
2.90488e-05
2.97356e-05
2.92891e-05
2.92212e-05
2.94701e-05
2.85462e-05
2.96153e-05
2.7741e-05
2.97428e-05
2.68289e-05
2.98661e-05
2.58245e-05
2.99957e-05
2.4733e-05
3.01389e-05
2.35522e-05
3.03e-05
2.22733e-05
3.04796e-05
2.08807e-05
3.06777e-05
1.93445e-05
3.08984e-05
1.76216e-05
3.11556e-05
1.5647e-05
1.33098e-05
7.85537e-06
4.08197e-07
1.33939e-05
8.783e-06
1.84874e-05
1.56381e-05
2.23986e-05
2.06493e-05
2.52152e-05
2.40417e-05
2.73541e-05
2.62366e-05
2.9023e-05
2.77071e-05
3.02772e-05
2.86753e-05
3.12068e-05
2.92045e-05
3.18922e-05
2.9368e-05
3.23943e-05
2.92335e-05
3.27627e-05
2.88528e-05
3.30389e-05
2.827e-05
3.32569e-05
2.75231e-05
3.34433e-05
2.66425e-05
3.36186e-05
2.56492e-05
3.37981e-05
2.45535e-05
3.39928e-05
2.33575e-05
3.4209e-05
2.20572e-05
3.44469e-05
2.06428e-05
3.47033e-05
1.90881e-05
3.4978e-05
1.73468e-05
3.5282e-05
1.5343e-05
1.29422e-05
6.21142e-06
-2.17035e-06
1.08381e-05
4.15635e-06
1.61142e-05
1.03619e-05
2.10912e-05
1.56724e-05
2.51842e-05
1.99487e-05
2.82862e-05
2.31346e-05
3.06483e-05
2.5345e-05
3.24811e-05
2.68426e-05
3.38657e-05
2.78199e-05
3.48863e-05
2.83475e-05
3.56359e-05
2.8484e-05
3.61856e-05
2.8303e-05
3.65929e-05
2.78626e-05
3.69049e-05
2.72111e-05
3.71595e-05
2.63879e-05
3.73862e-05
2.54225e-05
3.76073e-05
2.43324e-05
3.78392e-05
2.31255e-05
3.8093e-05
2.18035e-05
3.83719e-05
2.03638e-05
3.86706e-05
1.87895e-05
3.89839e-05
1.70335e-05
3.93182e-05
1.50087e-05
1.25538e-05
5.18426e-06
-4.03251e-06
8.7819e-06
5.58716e-07
1.3516e-05
5.62781e-06
1.86789e-05
1.05095e-05
2.36599e-05
1.49678e-05
2.7964e-05
1.88305e-05
3.13688e-05
2.19401e-05
3.39728e-05
2.42386e-05
3.59796e-05
2.58131e-05
3.74974e-05
2.68297e-05
3.8614e-05
2.73674e-05
3.94329e-05
2.74841e-05
4.00359e-05
2.72597e-05
4.04877e-05
2.67592e-05
4.08404e-05
2.60352e-05
4.11347e-05
2.51282e-05
4.14019e-05
2.40653e-05
4.16657e-05
2.28618e-05
4.19437e-05
2.15254e-05
4.22462e-05
2.00613e-05
4.25703e-05
1.84653e-05
4.29062e-05
1.66976e-05
4.32529e-05
1.4662e-05
1.21658e-05
4.45501e-06
-5.49867e-06
7.22332e-06
-2.20959e-06
1.11785e-05
1.67264e-06
1.59359e-05
5.75207e-06
2.10573e-05
9.8463e-06
2.60861e-05
1.38018e-05
3.06063e-05
1.74198e-05
3.43275e-05
2.05174e-05
3.72085e-05
2.29321e-05
3.94096e-05
2.46286e-05
4.10747e-05
2.57023e-05
4.22999e-05
2.62588e-05
4.32012e-05
2.63584e-05
4.38706e-05
2.60898e-05
4.43794e-05
2.55264e-05
4.47831e-05
2.47245e-05
4.51237e-05
2.37247e-05
4.54331e-05
2.25524e-05
4.57362e-05
2.12223e-05
4.60524e-05
1.97451e-05
4.63884e-05
1.81293e-05
4.6733e-05
1.6353e-05
4.70764e-05
1.43186e-05
1.17994e-05
3.81235e-06
-6.70626e-06
5.98599e-06
-4.38324e-06
9.19637e-06
-1.53773e-06
1.33065e-05
1.64197e-06
1.80722e-05
5.08061e-06
2.31834e-05
8.69053e-06
2.82773e-05
1.23259e-05
3.2994e-05
1.58006e-05
3.70176e-05
1.89086e-05
4.02069e-05
2.14392e-05
4.26364e-05
2.32728e-05
4.44693e-05
2.44259e-05
4.58288e-05
2.49989e-05
4.68365e-05
2.50821e-05
4.75948e-05
2.47682e-05
4.81811e-05
2.41381e-05
4.86526e-05
2.32532e-05
4.90507e-05
2.21543e-05
4.9407e-05
2.08659e-05
4.97482e-05
1.9404e-05
5.00935e-05
1.77839e-05
5.04404e-05
1.60061e-05
5.07707e-05
1.39883e-05
1.14717e-05
3.15175e-06
-7.69826e-06
4.88709e-06
-6.11857e-06
7.47678e-06
-4.12742e-06
1.09102e-05
-1.79147e-06
1.50946e-05
8.96219e-07
1.98606e-05
3.92454e-06
2.49671e-05
7.21949e-06
3.01229e-05
1.06448e-05
3.49957e-05
1.40358e-05
3.92753e-05
1.71597e-05
4.27741e-05
1.9774e-05
4.54823e-05
2.17177e-05
4.75253e-05
2.29559e-05
4.90542e-05
2.35533e-05
5.02054e-05
2.36169e-05
5.10888e-05
2.32548e-05
5.1785e-05
2.2557e-05
5.23505e-05
2.15888e-05
5.28245e-05
2.03919e-05
5.32377e-05
1.89908e-05
5.36184e-05
1.74033e-05
5.39802e-05
1.56443e-05
5.43034e-05
1.36651e-05
1.11888e-05
2.42915e-06
-8.47389e-06
3.80069e-06
-7.49011e-06
5.87692e-06
-6.20365e-06
8.69408e-06
-4.60862e-06
1.22398e-05
-2.64952e-06
1.64517e-05
-2.87347e-07
2.1197e-05
2.47421e-06
2.62824e-05
5.55937e-06
3.14757e-05
8.84246e-06
3.64706e-05
1.21648e-05
4.09565e-05
1.5288e-05
4.47257e-05
1.79485e-05
4.77257e-05
1.99559e-05
5.0036e-05
2.1243e-05
5.17976e-05
2.18554e-05
5.31521e-05
2.19003e-05
5.42144e-05
2.14946e-05
5.50667e-05
2.07365e-05
5.57634e-05
1.96953e-05
5.63407e-05
1.84135e-05
5.6828e-05
1.6916e-05
5.72524e-05
1.52199e-05
5.76044e-05
1.3313e-05
1.09318e-05
1.633e-06
-9.01451e-06
2.66264e-06
-8.51975e-06
4.28294e-06
-7.82396e-06
6.54553e-06
-6.87121e-06
9.47112e-06
-5.5751e-06
1.3053e-05
-3.86923e-06
1.72432e-05
-1.71603e-06
2.19307e-05
8.71913e-07
2.69664e-05
3.80678e-06
3.2158e-05
6.97316e-06
3.72284e-05
1.02177e-05
4.18831e-05
1.32938e-05
4.59042e-05
1.59347e-05
4.92049e-05
1.79424e-05
5.18266e-05
1.92336e-05
5.38859e-05
1.98411e-05
5.55148e-05
1.98657e-05
5.68248e-05
1.94265e-05
5.78936e-05
1.86265e-05
5.87699e-05
1.75371e-05
5.94833e-05
1.62026e-05
6.00691e-05
1.4634e-05
6.05332e-05
1.2849e-05
1.06379e-05
7.70877e-07
-9.29691e-06
1.45415e-06
-9.20302e-06
2.63627e-06
-9.00608e-06
4.37504e-06
-8.60998e-06
6.70482e-06
-7.90488e-06
9.6424e-06
-6.80682e-06
1.31847e-05
-5.25836e-06
1.72932e-05
-3.23653e-06
2.18757e-05
-7.75721e-07
2.68174e-05
2.03146e-06
3.19558e-05
5.07929e-06
3.70467e-05
8.20284e-06
4.18271e-05
1.11544e-05
4.60834e-05
1.3686e-05
4.97037e-05
1.56134e-05
5.26896e-05
1.68551e-05
5.51204e-05
1.74349e-05
5.71079e-05
1.7439e-05
5.87582e-05
1.69762e-05
6.01315e-05
1.61638e-05
6.12339e-05
1.51002e-05
6.21295e-05
1.37385e-05
6.28407e-05
1.21378e-05
1.01879e-05
-1.37095e-07
-9.3013e-06
1.86862e-07
-9.52698e-06
9.28358e-07
-9.74758e-06
2.14892e-06
-9.83055e-06
3.88973e-06
-9.64568e-06
6.17905e-06
-9.09614e-06
9.03354e-06
-8.11285e-06
1.24551e-05
-6.65811e-06
1.64113e-05
-4.73194e-06
2.08303e-05
-2.38752e-06
2.56275e-05
2.82157e-07
3.06644e-05
3.16592e-06
3.57337e-05
6.08502e-06
4.06077e-05
8.81203e-06
4.50861e-05
1.1135e-05
4.90413e-05
1.29e-05
5.24345e-05
1.40417e-05
5.52968e-05
1.45767e-05
5.77205e-05
1.45525e-05
5.98042e-05
1.40802e-05
6.15854e-05
1.33189e-05
6.30346e-05
1.22894e-05
6.41702e-05
1.10021e-05
9.39541e-06
-1.06436e-06
-9.014e-06
-1.10845e-06
-9.48289e-06
-8.13077e-07
-1.0043e-05
-1.12743e-07
-1.05309e-05
1.03702e-06
-1.07954e-05
2.6718e-06
-1.07309e-05
4.82017e-06
-1.02612e-05
7.50192e-06
-9.33985e-06
1.07241e-05
-7.95417e-06
1.44637e-05
-6.12704e-06
1.86731e-05
-3.92728e-06
2.32908e-05
-1.45175e-06
2.81971e-05
1.17868e-06
3.32196e-05
3.78952e-06
3.81653e-05
6.18934e-06
4.28542e-05
8.21105e-06
4.71548e-05
9.74103e-06
5.10018e-05
1.07297e-05
5.43733e-05
1.1181e-05
5.72924e-05
1.11611e-05
5.98505e-05
1.07609e-05
6.20525e-05
1.00874e-05
6.3904e-05
9.15063e-06
7.98131e-06
-1.97808e-06
-8.43243e-06
-2.38991e-06
-9.07105e-06
-2.53721e-06
-9.89566e-06
-2.35113e-06
-1.0717e-05
-1.78516e-06
-1.13614e-05
-7.99146e-07
-1.17169e-05
6.43705e-07
-1.17041e-05
2.57855e-06
-1.12747e-05
5.02531e-06
-1.04009e-05
8.00538e-06
-9.1071e-06
1.15034e-05
-7.42531e-06
1.54927e-05
-5.44109e-06
1.99225e-05
-3.25111e-06
2.46897e-05
-9.77664e-07
2.96515e-05
1.22751e-06
3.46458e-05
3.21675e-06
3.9515e-05
4.87186e-06
4.41293e-05
6.11547e-06
4.83941e-05
6.91608e-06
5.22611e-05
7.29403e-06
5.57149e-05
7.30716e-06
5.87841e-05
7.01816e-06
6.14973e-05
6.43744e-06
5.67696e-06
-2.84552e-06
-7.56242e-06
-3.61424e-06
-8.30234e-06
-4.18199e-06
-9.32791e-06
-4.48566e-06
-1.04133e-05
-4.47339e-06
-1.13737e-05
-4.10114e-06
-1.20892e-05
-3.32618e-06
-1.2479e-05
-2.10667e-06
-1.24942e-05
-3.971e-07
-1.21105e-05
1.82255e-06
-1.13268e-05
4.58027e-06
-1.0183e-05
7.86673e-06
-8.72755e-06
1.16629e-05
-7.04726e-06
1.59198e-05
-5.23459e-06
2.0548e-05
-3.40065e-06
2.54276e-05
-1.66289e-06
3.04237e-05
-1.24183e-07
3.53998e-05
1.13933e-06
4.02313e-05
2.08457e-06
4.48208e-05
2.70449e-06
4.91088e-05
3.01924e-06
5.3068e-05
3.05896e-06
5.6675e-05
2.83039e-06
2.34033e-06
-3.63191e-06
-6.42386e-06
-4.73327e-06
-7.20097e-06
-5.68819e-06
-8.37299e-06
-6.43215e-06
-9.66933e-06
-6.91585e-06
-1.089e-05
-7.08832e-06
-1.19167e-05
-6.90027e-06
-1.26671e-05
-6.30336e-06
-1.30911e-05
-5.25007e-06
-1.31638e-05
-3.69661e-06
-1.28802e-05
-1.62243e-06
-1.22572e-05
9.91997e-07
-1.1342e-05
4.13634e-06
-1.01916e-05
7.78643e-06
-8.88467e-06
1.18907e-05
-7.50494e-06
1.63701e-05
-6.14224e-06
2.11246e-05
-4.87869e-06
2.60424e-05
-3.7785e-06
3.10109e-05
-2.88392e-06
3.59299e-05
-2.21456e-06
4.07207e-05
-1.77153e-06
4.53263e-05
-1.54667e-06
4.97098e-05
-1.55302e-06
-1.95718e-06
-4.31122e-06
-5.04418e-06
-5.70368e-06
-5.80852e-06
-6.99485e-06
-7.08182e-06
-8.11579e-06
-8.54838e-06
-9.01522e-06
-9.99056e-06
-9.63627e-06
-1.12957e-05
-9.92114e-06
-1.23822e-05
-9.81762e-06
-1.31946e-05
-9.27761e-06
-1.37038e-05
-8.25881e-06
-1.3899e-05
-6.73015e-06
-1.37859e-05
-4.68013e-06
-1.3392e-05
-2.107e-06
-1.27647e-05
9.72095e-07
-1.19638e-05
4.52296e-06
-1.10558e-05
8.49089e-06
-1.01102e-05
1.28037e-05
-9.19149e-06
1.73801e-05
-8.35487e-06
2.21365e-05
-7.64035e-06
2.69951e-05
-7.07316e-06
3.18911e-05
-6.66755e-06
3.67802e-05
-6.43575e-06
4.16466e-05
-6.41943e-06
-6.85056e-06
-4.85994e-06
-3.45775e-06
-6.49454e-06
-4.17393e-06
-8.05617e-06
-5.52019e-06
-9.47628e-06
-7.12827e-06
-1.06996e-05
-8.76723e-06
-1.16613e-05
-1.0334e-05
-1.22921e-05
-1.17514e-05
-1.25356e-05
-1.29512e-05
-1.23444e-05
-1.3895e-05
-1.16819e-05
-1.45616e-05
-1.05267e-05
-1.4941e-05
-8.87152e-06
-1.50472e-05
-6.72274e-06
-1.49135e-05
-4.0964e-06
-1.45901e-05
-1.01921e-06
-1.4133e-05
2.46702e-06
-1.35964e-05
6.31063e-06
-1.30351e-05
1.04519e-05
-1.24962e-05
1.48301e-05
-1.20185e-05
1.93899e-05
-1.1633e-05
2.40885e-05
-1.13661e-05
2.89035e-05
-1.12507e-05
3.38327e-05
-1.13486e-05
-1.1801e-05
-5.26166e-06
-1.70304e-06
-7.08238e-06
-2.35321e-06
-8.83912e-06
-3.76345e-06
-1.04697e-05
-5.4977e-06
-1.19201e-05
-7.31681e-06
-1.31156e-05
-9.13848e-06
-1.3971e-05
-1.0896e-05
-1.44185e-05
-1.25037e-05
-1.4409e-05
-1.39045e-05
-1.39203e-05
-1.50503e-05
-1.29405e-05
-1.59209e-05
-1.14751e-05
-1.65125e-05
-9.54376e-06
-1.68449e-05
-7.17452e-06
-1.69594e-05
-4.40214e-06
-1.69054e-05
-1.26466e-06
-1.67339e-05
2.19501e-06
-1.64948e-05
5.93189e-06
-1.6233e-05
9.90048e-06
-1.59871e-05
1.40577e-05
-1.57902e-05
1.83658e-05
-1.56742e-05
2.27944e-05
-1.56793e-05
2.7308e-05
-1.58622e-05
-1.62777e-05
-5.50821e-06
1.80949e-07
-7.45366e-06
-4.07765e-07
-9.3203e-06
-1.8968e-06
-1.10603e-05
-3.75771e-06
-1.26114e-05
-5.76571e-06
-1.38983e-05
-7.85159e-06
-1.48499e-05
-9.94441e-06
-1.53802e-05
-1.19733e-05
-1.54215e-05
-1.38632e-05
-1.49404e-05
-1.55313e-05
-1.39433e-05
-1.6918e-05
-1.24568e-05
-1.79991e-05
-1.05193e-05
-1.87824e-05
-8.17784e-06
-1.93008e-05
-5.47974e-06
-1.96035e-05
-2.47051e-06
-1.97431e-05
8.05257e-07
-1.97705e-05
4.30364e-06
-1.97314e-05
7.98132e-06
-1.96648e-05
1.17944e-05
-1.96033e-05
1.56949e-05
-1.95747e-05
1.96235e-05
-1.9608e-05
2.34974e-05
-1.97361e-05
-2.00332e-05
-5.60158e-06
2.16217e-06
-7.60597e-06
1.59662e-06
-9.48652e-06
-1.62488e-08
-1.12261e-05
-2.01813e-06
-1.27763e-05
-4.21555e-06
-1.40641e-05
-6.5638e-06
-1.49885e-05
-9.01992e-06
-1.5436e-05
-1.15258e-05
-1.5338e-05
-1.39612e-05
-1.46678e-05
-1.62015e-05
-1.34401e-05
-1.81457e-05
-1.1702e-05
-1.97372e-05
-9.51757e-06
-2.09668e-05
-6.95825e-06
-2.18601e-05
-4.08917e-06
-2.24725e-05
-9.66296e-07
-2.2866e-05
2.3623e-06
-2.30991e-05
5.85454e-06
-2.32237e-05
9.47203e-06
-2.32823e-05
1.31773e-05
-2.33086e-05
1.69285e-05
-2.33259e-05
2.06689e-05
-2.33484e-05
2.43281e-05
-2.33952e-05
-2.35988e-05
-5.5631e-06
4.24345e-06
-7.55046e-06
3.58399e-06
-9.33499e-06
1.76828e-06
-1.09589e-05
-3.94209e-07
-1.23856e-05
-2.7889e-06
-1.3523e-05
-5.42638e-06
-1.42406e-05
-8.30226e-06
-1.44273e-05
-1.13391e-05
-1.39959e-05
-1.43926e-05
-1.29169e-05
-1.72805e-05
-1.12199e-05
-1.98427e-05
-8.98154e-06
-2.19756e-05
-6.3012e-06
-2.36471e-05
-3.27973e-06
-2.48816e-05
-2.5812e-09
-2.57497e-05
3.46545e-06
-2.6334e-05
7.07646e-06
-2.67101e-05
1.07958e-05
-2.6943e-05
1.45994e-05
-2.70859e-05
1.84713e-05
-2.71805e-05
2.23996e-05
-2.72541e-05
2.63751e-05
-2.7324e-05
3.03803e-05
-2.74003e-05
-2.76174e-05
-5.459e-06
6.53762e-06
-7.31416e-06
5.43915e-06
-8.86205e-06
3.31618e-06
-1.02207e-05
9.64483e-07
-1.13523e-05
-1.65736e-06
-1.21476e-05
-4.63103e-06
-1.24598e-05
-7.99009e-06
-1.21564e-05
-1.16425e-05
-1.11442e-05
-1.54048e-05
-9.40036e-06
-1.90244e-05
-6.98415e-06
-2.22589e-05
-4.01531e-06
-2.49444e-05
-6.3703e-07
-2.70254e-05
3.02425e-06
-2.85429e-05
6.8694e-06
-2.95948e-05
1.08263e-05
-3.0291e-05
1.4849e-05
-3.07328e-05
1.89126e-05
-3.10067e-05
2.30103e-05
-3.11836e-05
2.71505e-05
-3.13207e-05
3.13491e-05
-3.14526e-05
3.56315e-05
-3.16064e-05
4.00092e-05
-3.1778e-05
-3.21078e-05
-5.52293e-06
9.39744e-06
-6.93828e-06
6.8545e-06
-8.06817e-06
4.44607e-06
-8.99078e-06
1.88709e-06
-9.62921e-06
-1.01892e-06
-9.85175e-06
-4.40849e-06
-9.49229e-06
-8.34954e-06
-8.4181e-06
-1.27167e-05
-6.54546e-06
-1.72774e-05
-3.88869e-06
-2.16811e-05
-5.4728e-07
-2.56004e-05
3.30466e-06
-2.87963e-05
7.48817e-06
-3.12089e-05
1.18542e-05
-3.2909e-05
1.6286e-05
-3.40266e-05
2.07103e-05
-3.47153e-05
2.50931e-05
-3.51156e-05
2.94274e-05
-3.5341e-05
3.37279e-05
-3.54841e-05
3.80263e-05
-3.56192e-05
4.23609e-05
-3.57872e-05
4.67808e-05
-3.60264e-05
5.13424e-05
-3.63396e-05
-3.67964e-05
-2.19121e-07
2.19121e-07
-9.14013e-07
6.94893e-07
-1.77917e-06
8.65158e-07
-2.65549e-06
8.76314e-07
-3.74093e-06
1.08544e-06
2.48158e-06
-6.2225e-06
-4.64829e-07
6.83949e-07
-1.28455e-06
1.51461e-06
-2.16243e-06
1.74304e-06
-3.12584e-06
1.83973e-06
-4.32937e-06
2.28897e-06
3.8948e-06
-5.74259e-06
-5.43712e-07
1.22766e-06
-1.37975e-06
2.35065e-06
-2.27595e-06
2.63924e-06
-3.23296e-06
2.79674e-06
-4.30185e-06
3.35786e-06
4.72332e-06
-5.13037e-06
-5.82216e-07
1.80988e-06
-1.38129e-06
3.14972e-06
-2.23587e-06
3.49382e-06
-3.10168e-06
3.66256e-06
-3.93998e-06
4.19616e-06
5.19881e-06
-4.41548e-06
-6.07639e-07
2.41752e-06
-1.33028e-06
3.87235e-06
-2.0994e-06
4.26294e-06
-2.83492e-06
4.39808e-06
-3.4483e-06
4.80954e-06
5.41024e-06
-3.65973e-06
-6.18465e-07
3.03598e-06
-1.24455e-06
4.49844e-06
-1.89796e-06
4.91636e-06
-2.48749e-06
4.98761e-06
-2.89166e-06
5.2137e-06
5.41058e-06
-2.892e-06
-5.8854e-07
3.62452e-06
-1.12087e-06
5.03076e-06
-1.6515e-06
5.447e-06
-2.09454e-06
5.43064e-06
-2.31611e-06
5.43527e-06
5.23817e-06
-2.1437e-06
-5.31579e-07
4.1561e-06
-9.66286e-07
5.46547e-06
-1.37504e-06
5.85575e-06
-1.67981e-06
5.7354e-06
-1.74742e-06
5.50288e-06
4.92957e-06
-1.43881e-06
-4.54642e-07
4.61074e-06
-7.87895e-07
5.79872e-06
-1.08009e-06
6.14795e-06
-1.26064e-06
5.91595e-06
-1.2024e-06
5.44465e-06
4.52051e-06
-7.93344e-07
-3.62465e-07
4.97321e-06
-5.92411e-07
6.02867e-06
-7.75821e-07
6.33136e-06
-8.47318e-07
5.98745e-06
-6.91505e-07
5.28883e-06
4.0445e-06
-2.15491e-07
-2.58531e-07
5.23174e-06
-3.85715e-07
6.15585e-06
-4.68457e-07
6.4141e-06
-4.46285e-07
5.96528e-06
-2.20199e-07
5.06275e-06
3.53199e-06
2.92309e-07
-1.46106e-07
5.37784e-06
-1.72405e-07
6.18215e-06
-1.61789e-07
6.40348e-06
-6.19666e-08
5.86545e-06
2.09587e-07
4.79119e-06
3.01001e-06
7.31562e-07
-2.68236e-08
5.40467e-06
4.34888e-08
6.11184e-06
1.41438e-07
6.30554e-06
3.03994e-07
5.7029e-06
5.99115e-07
4.49607e-06
2.50289e-06
1.10624e-06
9.2031e-08
5.31264e-06
2.61543e-07
5.94233e-06
4.38896e-07
6.12818e-06
6.51603e-07
5.49019e-06
9.5257e-07
4.19511e-06
2.03088e-06
1.42457e-06
2.11542e-07
5.1011e-06
4.76714e-07
5.67716e-06
7.29085e-07
5.87581e-06
9.8239e-07
5.23689e-06
1.27458e-06
3.90291e-06
1.60986e-06
1.69561e-06
3.32176e-07
4.76892e-06
6.87066e-07
5.32227e-06
1.01103e-06
5.55185e-06
1.29773e-06
4.95018e-06
1.56707e-06
3.63357e-06
1.25891e-06
1.91802e-06
4.70516e-07
4.2984e-06
8.88884e-07
4.9039e-06
1.28335e-06
5.15738e-06
1.59892e-06
4.63462e-06
1.82909e-06
3.4034e-06
1.03106e-06
2.05695e-06
5.97268e-07
3.70114e-06
1.07139e-06
4.42977e-06
1.54324e-06
4.68553e-06
1.88942e-06
4.28844e-06
2.0676e-06
3.22522e-06
1.01124e-06
2.08742e-06
6.6181e-07
3.03933e-06
1.22239e-06
3.8692e-06
1.7868e-06
4.12112e-06
2.17656e-06
3.89867e-06
2.31384e-06
3.08794e-06
1.22113e-06
2.10396e-06
6.90762e-07
2.34856e-06
1.3409e-06
3.21906e-06
2.00941e-06
3.45261e-06
2.47112e-06
3.43696e-06
2.62535e-06
2.93372e-06
1.45385e-06
2.39263e-06
6.9608e-07
1.65248e-06
1.42463e-06
2.49051e-06
2.20022e-06
2.67701e-06
2.77881e-06
2.85837e-06
3.05554e-06
2.65699e-06
1.52642e-06
2.98297e-06
6.75191e-07
9.77293e-07
1.47025e-06
1.69545e-06
2.34353e-06
1.80374e-06
3.08879e-06
2.11311e-06
3.62025e-06
2.12552e-06
1.34282e-06
3.80386e-06
6.11398e-07
3.65895e-07
1.462e-06
8.44848e-07
2.39467e-06
8.71066e-07
3.34009e-06
1.16769e-06
4.25096e-06
1.21466e-06
8.33778e-07
4.76e-06
3.65895e-07
1.21074e-06
2.08181e-06
3.2495e-06
4.46416e-06
5.29794e-06
-5.70883e-06
8.88377e-06
-6.38543e-06
7.5311e-06
-6.95548e-06
5.01611e-06
-7.27959e-06
2.2112e-06
-7.22523e-06
-1.07328e-06
-6.62989e-06
-5.00383e-06
-5.33338e-06
-9.64605e-06
-3.21508e-06
-1.4835e-05
-2.50481e-07
-2.0242e-05
3.47316e-06
-2.54048e-05
7.79421e-06
-2.99214e-05
1.24928e-05
-3.3495e-05
1.73331e-05
-3.60492e-05
2.21466e-05
-3.77225e-05
2.6836e-05
-3.87159e-05
3.13617e-05
-3.9241e-05
3.57304e-05
-3.94842e-05
3.99832e-05
-3.95938e-05
4.41675e-05
-3.96684e-05
4.82946e-05
-3.97462e-05
5.23646e-05
-3.98572e-05
5.63611e-05
-4.00229e-05
6.03052e-05
-4.02837e-05
-4.06799e-05
-5.57069e-06
8.71186e-06
-5.58692e-06
7.54733e-06
-5.5335e-06
4.96269e-06
-5.15808e-06
1.83578e-06
-4.27189e-06
-1.95946e-06
-2.6973e-06
-6.57843e-06
-3.03746e-07
-1.20396e-05
2.96289e-06
-1.81016e-05
6.9978e-06
-2.4277e-05
1.16295e-05
-3.00364e-05
1.66065e-05
-3.48985e-05
2.16076e-05
-3.8496e-05
2.63984e-05
-4.08401e-05
3.08828e-05
-4.22069e-05
3.50542e-05
-4.28873e-05
3.89609e-05
-4.31477e-05
4.26639e-05
-4.31872e-05
4.62017e-05
-4.31315e-05
4.95843e-05
-4.30511e-05
5.28302e-05
-4.29921e-05
5.59739e-05
-4.3001e-05
5.90375e-05
-4.30865e-05
6.20118e-05
-4.32579e-05
-4.34246e-05
-4.92812e-06
8.50961e-06
-4.51295e-06
7.13216e-06
-3.87347e-06
4.32321e-06
-2.7752e-06
7.37506e-07
-1.02526e-06
-3.70939e-06
1.53573e-06
-9.13943e-06
4.98792e-06
-1.54918e-05
9.23144e-06
-2.23452e-05
1.40345e-05
-2.908e-05
1.90945e-05
-3.50964e-05
2.40177e-05
-3.98216e-05
2.85028e-05
-4.29812e-05
3.24582e-05
-4.47955e-05
3.59833e-05
-4.57319e-05
3.9198e-05
-4.61021e-05
4.22029e-05
-4.61526e-05
4.50708e-05
-4.60551e-05
4.78438e-05
-4.59045e-05
5.05484e-05
-4.57557e-05
5.3198e-05
-4.56417e-05
5.57739e-05
-4.55768e-05
5.82447e-05
-4.55573e-05
6.05518e-05
-4.5565e-05
-4.54553e-05
-4.05254e-06
8.14667e-06
-3.26805e-06
6.34767e-06
-2.09539e-06
3.15055e-06
-3.22289e-07
-1.0356e-06
2.23494e-06
-6.26662e-06
5.69228e-06
-1.25968e-05
1.00055e-05
-1.9805e-05
1.49238e-05
-2.72635e-05
2.00817e-05
-3.42379e-05
2.50095e-05
-4.00242e-05
2.93277e-05
-4.41398e-05
3.29264e-05
-4.65799e-05
3.59376e-05
-4.78066e-05
3.86194e-05
-4.84137e-05
4.10916e-05
-4.85743e-05
4.3434e-05
-4.84951e-05
4.57095e-05
-4.83306e-05
4.79491e-05
-4.81441e-05
5.01631e-05
-4.79696e-05
5.23409e-05
-4.78196e-05
5.44546e-05
-4.76905e-05
5.64626e-05
-4.75653e-05
5.82974e-05
-4.73998e-05
-4.70108e-05
-3.08208e-06
7.56903e-06
-1.97614e-06
5.24173e-06
-3.31528e-07
1.50594e-06
2.04577e-06
-3.41289e-06
5.3178e-06
-9.53866e-06
9.53679e-06
-1.68158e-05
1.44955e-05
-2.47637e-05
1.97674e-05
-3.25354e-05
2.48405e-05
-3.9311e-05
2.91998e-05
-4.43836e-05
3.26794e-05
-4.76195e-05
3.54395e-05
-4.934e-05
3.77563e-05
-5.01234e-05
3.98556e-05
-5.0513e-05
4.18263e-05
-5.0545e-05
4.37375e-05
-5.04063e-05
4.56212e-05
-5.02144e-05
4.74858e-05
-5.00087e-05
4.93214e-05
-4.98052e-05
5.11063e-05
-4.96045e-05
5.2811e-05
-4.93953e-05
5.43976e-05
-4.91519e-05
5.58092e-05
-4.88115e-05
-4.81867e-05
-2.10968e-06
6.78672e-06
-7.24644e-07
3.85669e-06
1.32803e-06
-5.46738e-07
4.2393e-06
-6.32416e-06
8.15884e-06
-1.34582e-05
1.30145e-05
-2.16715e-05
1.83649e-05
-3.01141e-05
2.36242e-05
-3.77946e-05
2.816e-05
-4.38468e-05
3.16701e-05
-4.78937e-05
3.42951e-05
-5.02445e-05
3.63618e-05
-5.14066e-05
3.81958e-05
-5.19574e-05
3.98531e-05
-5.21703e-05
4.14256e-05
-5.21175e-05
4.29892e-05
-5.19698e-05
4.45525e-05
-5.17777e-05
4.61064e-05
-5.15626e-05
4.76317e-05
-5.13304e-05
4.91049e-05
-5.10777e-05
5.05017e-05
-5.0792e-05
5.17945e-05
-5.04447e-05
5.29462e-05
-4.99632e-05
-4.91732e-05
-1.18946e-06
5.83248e-06
4.28729e-07
2.2385e-06
2.83858e-06
-2.95659e-06
6.26045e-06
-9.74603e-06
1.07908e-05
-1.79885e-05
1.61051e-05
-2.69858e-05
2.15243e-05
-3.55333e-05
2.63106e-05
-4.25809e-05
2.99896e-05
-4.75258e-05
3.26367e-05
-5.05408e-05
3.45877e-05
-5.21954e-05
3.62001e-05
-5.30191e-05
3.76395e-05
-5.33968e-05
3.89461e-05
-5.34769e-05
4.0239e-05
-5.34104e-05
4.15348e-05
-5.32657e-05
4.28323e-05
-5.30752e-05
4.41198e-05
-5.28501e-05
4.53818e-05
-5.25924e-05
4.6603e-05
-5.22989e-05
4.77693e-05
-5.19583e-05
4.88627e-05
-5.15381e-05
4.98609e-05
-5.09614e-05
-5.00737e-05
-3.54184e-07
4.74785e-06
1.45741e-06
4.26906e-07
4.21181e-06
-5.71099e-06
8.1665e-06
-1.37007e-05
1.32323e-05
-2.30543e-05
1.87235e-05
-3.2477e-05
2.37834e-05
-4.05932e-05
2.77428e-05
-4.65403e-05
3.05401e-05
-5.03231e-05
3.25139e-05
-5.25145e-05
3.40171e-05
-5.36986e-05
3.52827e-05
-5.42848e-05
3.64082e-05
-5.45223e-05
3.74954e-05
-5.45641e-05
3.85777e-05
-5.44927e-05
3.96634e-05
-5.43514e-05
4.07481e-05
-5.41598e-05
4.18232e-05
-5.39252e-05
4.28804e-05
-5.36496e-05
4.39126e-05
-5.33311e-05
4.49112e-05
-5.29569e-05
4.58622e-05
-5.24892e-05
4.67537e-05
-5.18528e-05
-5.09128e-05
3.80588e-07
3.57392e-06
2.3644e-06
-1.5569e-06
5.50529e-06
-8.85188e-06
1.00135e-05
-1.82089e-05
1.54114e-05
-2.84523e-05
2.07045e-05
-3.777e-05
2.50101e-05
-4.48989e-05
2.8062e-05
-4.95921e-05
3.01474e-05
-5.24085e-05
3.16408e-05
-5.40079e-05
3.28083e-05
-5.48661e-05
3.38068e-05
-5.52833e-05
3.47305e-05
-5.5446e-05
3.56273e-05
-5.54609e-05
3.65207e-05
-5.53861e-05
3.74187e-05
-5.52494e-05
3.83209e-05
-5.5062e-05
3.92242e-05
-5.48285e-05
4.01252e-05
-5.45506e-05
4.10193e-05
-5.42253e-05
4.18972e-05
-5.38348e-05
4.27459e-05
-5.33379e-05
4.3558e-05
-5.26649e-05
-5.16991e-05
1.01258e-06
2.34584e-06
3.17961e-06
-3.72393e-06
6.7827e-06
-1.2455e-05
1.17817e-05
-2.32078e-05
1.71923e-05
-3.38629e-05
2.18742e-05
-4.24519e-05
2.52712e-05
-4.8296e-05
2.75602e-05
-5.18811e-05
2.91257e-05
-5.3974e-05
3.02682e-05
-5.51505e-05
3.11786e-05
-5.57765e-05
3.19721e-05
-5.60769e-05
3.27129e-05
-5.61867e-05
3.34361e-05
-5.61842e-05
3.41604e-05
-5.61103e-05
3.48937e-05
-5.59827e-05
3.56391e-05
-5.58074e-05
3.63973e-05
-5.55867e-05
3.71671e-05
-5.53204e-05
3.79438e-05
-5.50019e-05
3.8717e-05
-5.4608e-05
3.94769e-05
-5.40977e-05
4.02195e-05
-5.34075e-05
-5.24366e-05
1.55109e-06
1.08706e-06
3.95767e-06
-6.13051e-06
8.08571e-06
-1.6583e-05
1.33593e-05
-2.84815e-05
1.83924e-05
-3.8896e-05
2.22197e-05
-4.62792e-05
2.47994e-05
-5.08756e-05
2.65071e-05
-5.35888e-05
2.76827e-05
-5.51497e-05
2.85518e-05
-5.60195e-05
2.92526e-05
-5.64772e-05
2.98674e-05
-5.66917e-05
3.04454e-05
-5.67646e-05
3.10144e-05
-5.67533e-05
3.15901e-05
-5.6686e-05
3.21806e-05
-5.65732e-05
3.27907e-05
-5.64175e-05
3.34226e-05
-5.62186e-05
3.40753e-05
-5.59731e-05
3.47432e-05
-5.56698e-05
3.54173e-05
-5.52821e-05
3.60906e-05
-5.4771e-05
3.67622e-05
-5.40791e-05
-5.31192e-05
2.01193e-06
-1.93306e-07
4.75219e-06
-8.87077e-06
9.37665e-06
-2.12075e-05
1.46019e-05
-3.37067e-05
1.89267e-05
-4.32207e-05
2.18955e-05
-4.92481e-05
2.38206e-05
-5.28007e-05
2.50843e-05
-5.48525e-05
2.59538e-05
-5.60191e-05
2.6596e-05
-5.66618e-05
2.71131e-05
-5.69944e-05
2.75678e-05
-5.71463e-05
2.79978e-05
-5.71946e-05
2.84259e-05
-5.71814e-05
2.88658e-05
-5.71259e-05
2.93262e-05
-5.70337e-05
2.98129e-05
-5.69042e-05
3.03282e-05
-5.67339e-05
3.08706e-05
-5.65155e-05
3.14341e-05
-5.62333e-05
3.20115e-05
-5.58595e-05
3.25975e-05
-5.5357e-05
3.3193e-05
-5.46746e-05
-5.3737e-05
2.41784e-06
-1.50491e-06
5.59993e-06
-1.20529e-05
1.05548e-05
-2.61623e-05
1.53699e-05
-3.85219e-05
1.88533e-05
-4.67041e-05
2.10912e-05
-5.14859e-05
2.2503e-05
-5.42125e-05
2.34138e-05
-5.57633e-05
2.40291e-05
-5.66344e-05
2.44739e-05
-5.71066e-05
2.48257e-05
-5.73462e-05
2.51326e-05
-5.74532e-05
2.54244e-05
-5.74865e-05
2.57199e-05
-5.74769e-05
2.60316e-05
-5.74375e-05
2.63681e-05
-5.73702e-05
2.67354e-05
-5.72715e-05
2.71358e-05
-5.71343e-05
2.75675e-05
-5.69472e-05
2.80253e-05
-5.66911e-05
2.85034e-05
-5.63376e-05
2.89979e-05
-5.58515e-05
2.95107e-05
-5.51874e-05
-5.42803e-05
2.80369e-06
-2.88403e-06
6.4899e-06
-1.57391e-05
1.15006e-05
-3.1173e-05
1.56305e-05
-4.26517e-05
1.83172e-05
-4.93909e-05
1.99572e-05
-5.31259e-05
2.09561e-05
-5.52114e-05
2.15751e-05
-5.63823e-05
2.19704e-05
-5.70297e-05
2.22372e-05
-5.73735e-05
2.24356e-05
-5.75445e-05
2.26032e-05
-5.76208e-05
2.27638e-05
-5.7647e-05
2.29326e-05
-5.76458e-05
2.31205e-05
-5.76254e-05
2.33356e-05
-5.75852e-05
2.35834e-05
-5.75193e-05
2.38664e-05
-5.74173e-05
2.41833e-05
-5.72642e-05
2.45305e-05
-5.70383e-05
2.49038e-05
-5.6711e-05
2.53007e-05
-5.62484e-05
2.57233e-05
-5.56101e-05
-5.47401e-05
3.21732e-06
-4.40574e-06