/*--------------------------------*- C++ -*----------------------------------*\
  =========                 |
  \\      /  F ield         | OpenFOAM: The Open Source CFD Toolbox
   \\    /   O peration     | Website:  https://openfoam.org
    \\  /    A nd           | Version:  11
     \\/     M anipulation  |
\*---------------------------------------------------------------------------*/
FoamFile
{
    format      ascii;
    class       volVectorField;
    location    "0.3";
    object      U;
}
// * * * * * * * * * * * * * * * * * * * * * * * * * * * * * * * * * * * * * //

dimensions      [0 1 -1 0 0 0 0];

internalField   nonuniform List<vector> 
2880
(
(0.0382999 0.0167009 1.15357e-20)
(0.0514511 -0.00919271 -3.19698e-20)
(0.0901813 -0.0961906 5.00928e-20)
(0.113676 -0.155971 -2.05997e-20)
(0.168364 -0.291121 3.85779e-20)
(0.139578 -0.277204 2.49528e-19)
(0.0374021 -0.00181139 0)
(0.0475542 -0.0446648 0)
(0.081819 -0.133173 -3.84874e-19)
(0.10016 -0.197333 -2.84264e-19)
(0.136749 -0.288351 -3.45181e-20)
(0.136274 -0.280257 -4.78881e-19)
(0.0350635 -0.0123792 5.83597e-19)
(0.0398034 -0.0659328 2.8873e-20)
(0.0665841 -0.150228 3.34869e-19)
(0.0808738 -0.210596 3.04089e-19)
(0.104678 -0.270871 7.05101e-20)
(0.112777 -0.265633 1.9632e-19)
(0.0313826 -0.0220344 -5.40464e-19)
(0.0310414 -0.082592 -4.38426e-19)
(0.050179 -0.161219 0)
(0.061376 -0.215157 3.7962e-20)
(0.0799326 -0.256027 2.34897e-19)
(0.099298 -0.25043 0)
(0.0279056 -0.0320845 0)
(0.0222234 -0.0960325 4.22354e-19)
(0.0341892 -0.168124 -4.27868e-20)
(0.0429587 -0.215047 -1.40449e-21)
(0.0590956 -0.243419 -2.2648e-19)
(0.0839278 -0.237791 0)
(0.0227127 -0.0411724 1.00037e-20)
(0.0133333 -0.106081 -4.43865e-19)
(0.0187956 -0.171439 6.20548e-20)
(0.0253546 -0.211795 -3.48362e-20)
(0.0397701 -0.231863 2.56608e-19)
(0.0657542 -0.226086 0)
(0.0105187 -0.0468856 0)
(0.00301809 -0.111487 4.08957e-19)
(0.00358774 -0.171631 3.24742e-19)
(0.00800218 -0.206275 0)
(0.020547 -0.220478 -2.50871e-19)
(0.0449956 -0.214331 -2.90476e-19)
(0.00205592 -0.0480915 -4.29365e-20)
(-0.0083303 -0.113557 2.53322e-20)
(-0.0116764 -0.169448 -3.59539e-19)
(-0.00945901 -0.199059 3.12808e-19)
(0.000737375 -0.20867 3.14586e-19)
(0.0219215 -0.201845 -5.91774e-20)
(-0.0071498 -0.0489606 6.88802e-19)
(-0.0201532 -0.11356 0)
(-0.0269649 -0.165546 0)
(-0.0271206 -0.190526 -2.74771e-19)
(-0.0198939 -0.196098 -3.10489e-19)
(-0.00315976 -0.188168 2.8393e-19)
(-0.0159195 -0.0488535 -6.87378e-19)
(-0.0319819 -0.112075 0)
(-0.0421214 -0.160389 0)
(-0.0449078 -0.18093 2.75699e-19)
(-0.0412887 -0.182601 3.11462e-19)
(-0.029895 -0.173032 1.73733e-19)
(-0.0237726 -0.0475105 -2.17017e-20)
(-0.0434226 -0.109465 4.3723e-19)
(-0.0569468 -0.154281 -5.98069e-20)
(-0.0626482 -0.170443 -2.04619e-19)
(-0.0631793 -0.168148 -2.76147e-19)
(-0.0577782 -0.156305 -2.85713e-19)
(-0.0304903 -0.0449277 -1.09765e-20)
(-0.0541614 -0.105937 -3.84785e-19)
(-0.0712393 -0.147411 0)
(-0.0801209 -0.159208 0)
(-0.0851656 -0.152743 0)
(-0.0862178 -0.138023 2.29909e-19)
(-0.035928 -0.0411565 0)
(-0.0639613 -0.101592 0)
(-0.0848094 -0.139883 3.18535e-19)
(-0.0970937 -0.14732 0)
(-0.106834 -0.136461 -2.48067e-19)
(-0.114497 -0.118306 -2.28267e-19)
(-0.0399789 -0.0362307 0)
(-0.07259 -0.0964236 0)
(-0.0974578 -0.13174 -6.61856e-19)
(-0.113371 -0.134907 1.68934e-20)
(-0.127754 -0.119479 4.9625e-19)
(-0.141845 -0.097374 2.30557e-19)
(-0.0425855 -0.0301851 -2.20614e-20)
(-0.0797797 -0.0903853 1.26084e-20)
(-0.109087 -0.12301 1.62072e-19)
(-0.128726 -0.122076 1.39505e-19)
(-0.147519 -0.102033 -2.80959e-19)
(-0.167511 -0.0754644 -2.02096e-19)
(-0.0437409 -0.0231903 3.623e-19)
(-0.0852294 -0.0833833 -6.40672e-21)
(-0.119597 -0.113638 1.64712e-19)
(-0.143035 -0.108963 1.81274e-20)
(-0.165807 -0.084405 7.82208e-20)
(-0.190928 -0.0528232 1.44901e-19)
(-0.0434706 -0.0157579 -3.52185e-19)
(-0.0886226 -0.0752641 0)
(-0.128924 -0.103524 1.07528e-20)
(-0.156234 -0.0957086 -1.70501e-19)
(-0.182386 -0.0669326 -9.52517e-20)
(-0.211558 -0.0298132 -1.31396e-19)
(-0.0416257 -0.00850806 5.59186e-21)
(-0.0896143 -0.0657904 -3.36262e-21)
(-0.137018 -0.0924917 1.1032e-20)
(-0.168336 -0.0824454 -8.92222e-21)
(-0.197141 -0.0500189 0)
(-0.228964 -0.00686717 5.95483e-20)
(-0.0377339 0.0035026 -2.04724e-20)
(-0.0876264 -0.0545906 0)
(-0.143829 -0.0802632 -1.11016e-20)
(-0.179446 -0.0692619 9.39029e-21)
(-0.210104 -0.0341487 0)
(-0.242872 0.0153951 -6.83924e-20)
(-0.0312342 0.0116784 1.85181e-20)
(-0.0824059 -0.0411243 0)
(-0.149289 -0.0664472 5.77354e-20)
(-0.189787 -0.0561697 -9.75075e-21)
(-0.22155 -0.0198988 2.19368e-21)
(-0.253201 0.0359876 -1.87173e-21)
(-0.0244784 0.0192134 2.13559e-21)
(-0.0759646 -0.0252426 1.22993e-19)
(-0.153215 -0.0507223 -5.45961e-20)
(-0.199726 -0.04312 4.96911e-21)
(-0.232162 -0.00792953 0)
(-0.259965 0.0535581 0)
(-0.0187758 0.0267716 -2.94337e-19)
(-0.0680511 -0.00734921 -3.75526e-19)
(-0.154674 -0.0329451 1.92786e-19)
(-0.209645 -0.03012 0)
(-0.243163 0.00108765 -1.46422e-19)
(-0.261464 0.065774 -3.65029e-20)
(-0.0122777 0.0337792 3.38438e-19)
(-0.0567198 0.0126188 7.38669e-21)
(-0.150488 -0.0130892 -2.45466e-19)
(-0.219057 -0.0166463 -6.99794e-22)
(-0.256253 0.008078 1.74811e-19)
(-0.251086 0.0722481 0)
(-0.00241512 0.042692 6.06089e-21)
(-0.0334968 0.0395663 6.00127e-19)
(-0.130039 0.0240213 1.46622e-20)
(-0.224629 0.0150384 2.43499e-20)
(-0.266766 0.0214849 -3.99038e-20)
(-0.221113 0.096621 1.7147e-19)
(0.805665 -0.574536 -1.64048e-20)
(1.10088 -0.645414 1.39751e-20)
(1.23445 -0.617227 0)
(1.31548 -0.571731 0)
(1.36602 -0.524434 0)
(1.39764 -0.472056 -2.75241e-20)
(1.41642 -0.420229 -3.47875e-20)
(1.42585 -0.370747 1.57318e-20)
(1.42819 -0.324483 1.2556e-21)
(1.42506 -0.281923 0)
(1.41768 -0.243278 1.33588e-20)
(1.40707 -0.208557 -3.793e-20)
(1.39404 -0.177622 1.60677e-20)
(1.37918 -0.150246 -2.23376e-20)
(1.36291 -0.126171 2.95432e-21)
(1.34541 -0.105163 -2.53022e-20)
(1.32663 -0.0870519 2.39138e-20)
(1.30635 -0.0717544 -3.04199e-20)
(1.28415 -0.0592514 2.71023e-20)
(1.25933 -0.0494761 -3.70124e-20)
(1.23094 -0.04238 -9.02467e-21)
(1.19825 -0.0392784 0)
(1.16131 -0.0447386 2.79345e-20)
(1.11731 -0.0582317 -6.31566e-20)
(0.5268 -0.333119 -3.88088e-20)
(0.963685 -0.500243 0)
(1.19176 -0.552858 -1.34792e-19)
(1.30844 -0.543143 0)
(1.37886 -0.507394 -8.21721e-20)
(1.42431 -0.465901 -2.92136e-20)
(1.45131 -0.418052 7.91199e-20)
(1.46558 -0.369302 -1.72559e-20)
(1.47037 -0.322182 2.96179e-20)
(1.46802 -0.277911 -1.25634e-20)
(1.46025 -0.237156 4.99268e-21)
(1.4484 -0.200233 1.27563e-20)
(1.43358 -0.167214 -1.30115e-20)
(1.41662 -0.138006 8.41167e-21)
(1.39811 -0.112431 1.83963e-20)
(1.37834 -0.0902977 -1.19992e-20)
(1.35736 -0.0714605 0)
(1.335 -0.0558379 -2.26417e-20)
(1.3109 -0.0434004 2.30793e-20)
(1.28442 -0.0340666 4.09244e-20)
(1.25455 -0.0278072 2.31584e-20)
(1.22049 -0.0258535 0)
(1.18219 -0.0326044 7.16734e-20)
(1.1364 -0.0481893 -2.16571e-20)
(0.344168 -0.237963 -3.22087e-20)
(0.751937 -0.355105 7.71291e-20)
(1.05565 -0.443248 2.71877e-19)
(1.25228 -0.483786 0)
(1.36252 -0.475812 1.98583e-19)
(1.4301 -0.444318 6.66913e-20)
(1.47373 -0.405057 -5.282e-20)
(1.49824 -0.360883 -6.50481e-20)
(1.50926 -0.314616 2.18386e-20)
(1.51024 -0.269638 2.04523e-20)
(1.50375 -0.227403 -1.23466e-20)
(1.49172 -0.188662 9.53527e-21)
(1.47569 -0.153777 -9.00863e-21)
(1.45684 -0.122851 0)
(1.43603 -0.0958286 1.23786e-20)
(1.41379 -0.0725907 4.43192e-22)
(1.3903 -0.0530274 0)
(1.3655 -0.0370713 0)
(1.33916 -0.0246784 3.03929e-20)
(1.31077 -0.0157677 -7.88194e-20)
(1.27934 -0.0102957 1.68964e-20)
(1.24393 -0.00941477 3.74412e-20)
(1.20438 -0.01738 -1.85227e-20)
(1.15703 -0.0351882 1.63912e-20)
(0.248407 -0.209221 3.09071e-19)
(0.561876 -0.260122 -5.69398e-20)
(0.866051 -0.334012 -2.86927e-19)
(1.11316 -0.390861 -4.21902e-20)
(1.29221 -0.417244 -1.18483e-19)
(1.40322 -0.408869 1.26821e-19)
(1.47164 -0.379956 0)
(1.51494 -0.341379 6.52348e-20)
(1.53857 -0.299515 -5.22229e-20)
(1.54726 -0.255374 -1.52468e-20)
(1.54503 -0.212556 -9.10957e-20)
(1.53486 -0.172599 -2.47144e-20)
(1.51895 -0.13626 2.33625e-20)
(1.49899 -0.103895 0)
(1.47628 -0.0756141 0)
(1.45163 -0.0513963 0)
(1.42551 -0.0311859 0)
(1.39803 -0.0149424 0)
(1.36912 -0.00261946 1.87214e-20)
(1.33851 0.00585971 -1.76971e-20)
(1.30533 0.0105871 4.91054e-21)
(1.26858 0.010473 0)
(1.22784 0.0014366 4.27542e-20)
(1.17917 -0.0186145 -7.64022e-20)
(0.189957 -0.201101 -6.91536e-19)
(0.417935 -0.210954 6.73369e-20)
(0.682587 -0.253707 -2.54902e-20)
(0.933001 -0.301841 -9.29031e-20)
(1.14858 -0.337096 4.15855e-21)
(1.31658 -0.35038 -5.48274e-20)
(1.43185 -0.340047 0)
(1.50369 -0.311566 0)
(1.54788 -0.273427 -8.20666e-20)
(1.57152 -0.233036 1.38622e-19)
(1.57856 -0.190935 4.85259e-20)
(1.57371 -0.150521 -5.47498e-20)
(1.56034 -0.113278 4.27756e-20)
(1.54095 -0.0799009 0)
(1.5174 -0.0506963 -2.9336e-20)
(1.491 -0.0257615 4.49934e-20)
(1.46254 -0.00510475 -2.34671e-20)
(1.43243 0.0112794 1.19674e-20)
(1.40082 0.0234194 0)
(1.36769 0.0314015 1.14246e-20)
(1.33253 0.035366 -1.83353e-21)
(1.29437 0.0343229 0)
(1.25248 0.0244059 0)
(1.20274 0.00220288 -9.87458e-21)
(0.146622 -0.196553 6.27532e-19)
(0.314433 -0.187648 6.70774e-20)
(0.526642 -0.204806 1.66509e-19)
(0.751899 -0.234572 0)
(0.969522 -0.262844 2.0014e-19)
(1.16517 -0.280301 -8.31923e-20)
(1.32638 -0.281701 7.69823e-20)
(1.44681 -0.267224 -2.69014e-19)
(1.52441 -0.237989 1.02983e-20)
(1.57105 -0.200091 1.89609e-19)
(1.59536 -0.160816 -8.43324e-20)
(1.60149 -0.12094 5.51549e-20)
(1.59466 -0.0833821 -4.30826e-20)
(1.57868 -0.049464 0)
(1.55634 -0.0197526 0)
(1.52962 0.00552748 -6.39314e-20)
(1.49983 0.026308 3.51849e-20)
(1.46773 0.0425677 -1.80459e-20)
(1.43374 0.0543086 0)
(1.39808 0.0616327 -3.55096e-21)
(1.36076 0.0646885 -3.0182e-22)
(1.32108 0.0627384 0)
(1.2781 0.0521272 2.62514e-20)
(1.22761 0.0279966 -3.13566e-20)
(0.108982 -0.190547 -2.73298e-19)
(0.235291 -0.175309 -3.57782e-19)
(0.400706 -0.177322 6.35826e-20)
(0.589416 -0.190835 0)
(0.787673 -0.206993 -1.97917e-19)
(0.983474 -0.218442 -1.99644e-19)
(1.16536 -0.22069 -1.8334e-19)
(1.32228 -0.211047 2.95649e-19)
(1.44606 -0.189906 -1.41637e-19)
(1.53119 -0.158928 0)
(1.58172 -0.120912 2.06622e-19)
(1.60757 -0.08261 6.71764e-20)
(1.61365 -0.0454478 -2.16173e-20)
(1.60565 -0.011388 -1.82739e-19)
(1.58786 0.0184643 0)
(1.56331 0.0437099 2.71827e-20)
(1.53407 0.0642342 -1.29702e-20)
(1.50143 0.0800203 8.13513e-20)
(1.46613 0.0910693 4.81088e-21)
(1.42863 0.0974657 1.37898e-20)
(1.38931 0.0993814 -1.30131e-20)
(1.34812 0.0964231 -4.77554e-21)
(1.30421 0.0852526 5.65307e-21)
(1.25337 0.0595512 0)
(0.0725386 -0.181884 0)
(0.168982 -0.165655 -1.00249e-20)
(0.297468 -0.16078 -1.31085e-19)
(0.449919 -0.164048 1.20146e-19)
(0.61944 -0.169737 0)
(0.798627 -0.172936 1.97627e-19)
(0.978597 -0.169932 -8.09301e-21)
(1.14997 -0.158456 3.50809e-19)
(1.30352 -0.137903 -1.62481e-19)
(1.4287 -0.108804 -1.36274e-19)
(1.51977 -0.0741421 1.32959e-19)
(1.57618 -0.0363507 8.61553e-20)
(1.60466 0.000775808 -1.85951e-19)
(1.6119 0.0348854 6.31019e-20)
(1.60392 0.0647089 0)
(1.58542 0.0896529 5.02603e-20)
(1.55972 0.109583 -2.90482e-20)
(1.52894 0.124539 -2.90515e-20)
(1.49435 0.134578 -1.44328e-20)
(1.45666 0.13977 -2.33471e-20)
(1.41641 0.140311 -8.85772e-21)
(1.3742 0.136069 9.66514e-21)
(1.32977 0.124425 -3.94956e-21)
(1.27922 0.0976192 2.26261e-21)
(0.0354374 -0.170355 0)
(0.108566 -0.155101 2.88279e-19)
(0.207981 -0.148055 -2.73228e-19)
(0.329299 -0.146407 2.54035e-19)
(0.469114 -0.145861 1.17062e-19)
(0.623902 -0.142548 -1.08699e-19)
(0.788736 -0.133738 -2.04807e-19)
(0.956007 -0.117539 1.91827e-19)
(1.11864 -0.0934063 -1.01341e-20)
(1.26808 -0.0619944 -3.19951e-19)
(1.39378 -0.0252229 -1.40905e-19)
(1.48818 0.014174 1.29858e-19)
(1.54982 0.0527607 -1.13591e-19)
(1.58241 0.0880041 -2.57282e-19)
(1.59239 0.118336 1.54234e-19)
(1.58611 0.143144 -5.05774e-20)
(1.56857 0.162397 0)
(1.54327 0.176308 6.65128e-20)
(1.5124 0.185105 -2.75503e-20)
(1.4772 0.188927 9.10562e-20)
(1.43832 0.187949 -4.56324e-20)
(1.39661 0.182188 -4.47585e-21)
(1.3526 0.170042 -2.75938e-21)
(1.30357 0.142734 1.97162e-21)
(-0.00281249 -0.156005 0)
(0.0504339 -0.142228 0)
(0.125842 -0.135387 2.69777e-19)
(0.220807 -0.132355 1.37026e-19)
(0.333778 -0.129209 -1.19089e-19)
(0.462894 -0.122523 0)
(0.605979 -0.109817 -2.18652e-19)
(0.758897 -0.089488 4.0845e-19)
(0.915156 -0.0611628 1.79735e-19)
(1.0694 -0.0255128 -1.76935e-19)
(1.21381 0.0157632 1.50661e-19)
(1.33804 0.0599162 0)
(1.43448 0.10323 3.44181e-19)
(1.5002 0.142452 6.85771e-20)
(1.53749 0.175497 -1.82998e-19)
(1.55182 0.201602 -1.98515e-19)
(1.54923 0.220933 1.77562e-19)
(1.53475 0.2341 -8.25114e-20)
(1.51188 0.241666 2.77475e-20)
(1.4828 0.244082 4.68832e-21)
(1.44872 0.241737 0)
(1.41035 0.234564 -2.57664e-20)
(1.36882 0.221868 3.20708e-20)
(1.32343 0.194892 -8.16081e-22)
(-0.0420651 -0.138992 -4.24126e-20)
(-0.00689156 -0.126612 1.49209e-19)
(0.0474765 -0.121071 -6.86759e-20)
(0.119486 -0.118652 -2.56514e-19)
(0.208482 -0.115398 0)
(0.313473 -0.107955 2.34509e-19)
(0.433266 -0.0937806 -6.04947e-21)
(0.566145 -0.0713792 -2.051e-19)
(0.70814 -0.0403064 0)
(0.853997 -0.00116803 1.86531e-19)
(0.999627 0.0445884 0)
(1.13747 0.0942364 -3.03236e-19)
(1.25826 0.14405 1.61721e-21)
(1.35492 0.189913 0)
(1.42406 0.228717 -1.008e-19)
(1.46671 0.258947 -7.11524e-20)
(1.48718 0.280471 7.99859e-20)
(1.49027 0.294347 9.69708e-20)
(1.48173 0.301418 0)
(1.46408 0.303179 -9.89225e-20)
(1.4391 0.299689 4.40427e-20)
(1.40791 0.291317 0)
(1.3721 0.278289 -1.07026e-20)
(1.33352 0.252847 0)
(-0.0817837 -0.119506 -4.09384e-19)
(-0.0635974 -0.108268 -2.29073e-19)
(-0.0284693 -0.104501 0)
(0.0227719 -0.103793 1.32775e-19)
(0.0899514 -0.101948 -2.47985e-19)
(0.172503 -0.0955243 -2.34892e-19)
(0.269731 -0.0819264 2.20228e-19)
(0.380657 -0.0595133 1.07251e-19)
(0.503604 -0.0277371 0)
(0.634762 0.0129551 -3.71091e-19)
(0.770281 0.0612183 3.46672e-19)
(0.906535 0.114743 -6.8996e-21)
(1.03636 0.169933 2.73296e-19)
(1.15207 0.222607 -3.62404e-19)
(1.24762 0.268766 2.17167e-19)
(1.31964 0.305763 8.83073e-20)
(1.36833 0.332648 0)
(1.39645 0.349883 -1.5009e-19)
(1.40703 0.358424 9.13843e-20)
(1.40592 0.359594 7.73357e-20)
(1.39816 0.357434 -7.06104e-20)
(1.38019 0.349389 -1.37363e-20)
(1.35433 0.336184 1.31236e-20)
(1.32668 0.313565 5.6819e-22)
(-0.12121 -0.0977556 3.2444e-19)
(-0.119159 -0.0874192 3.77789e-19)
(-0.101922 -0.0856543 2.14946e-19)
(-0.0698624 -0.0873121 -1.99805e-19)
(-0.0228356 -0.0878157 -3.12592e-19)
(0.0387556 -0.0835983 0)
(0.114487 -0.0720286 2.22973e-19)
(0.203748 -0.0513995 -4.22694e-19)
(0.30563 -0.020949 1.99193e-19)
(0.418321 0.0190264 -3.73822e-19)
(0.538529 0.0672716 0)
(0.663546 0.121696 1.5418e-19)
(0.789632 0.179306 -2.87648e-19)
(0.910509 0.236238 -1.18783e-19)
(1.02023 0.288408 2.19456e-19)
(1.1139 0.332415 -8.81089e-20)
(1.18859 0.366309 -7.25939e-20)
(1.24379 0.389599 5.76413e-20)
(1.28063 0.402715 -7.87998e-20)
(1.30195 0.407193 4.27746e-20)
(1.31096 0.404789 4.47899e-20)
(1.31094 0.399403 1.36068e-20)
(1.30317 0.390146 -2.48038e-20)
(1.2918 0.371885 1.87771e-20)
(-0.159515 -0.0738596 4.15909e-20)
(-0.17268 -0.0643951 -3.74125e-20)
(-0.171987 -0.0647755 -2.83383e-19)
(-0.157563 -0.0692879 1.98273e-19)
(-0.129031 -0.0728495 1.86112e-19)
(-0.0867937 -0.0717696 0)
(-0.0311409 -0.0634136 1.10787e-19)
(0.0375557 -0.0461079 2.10147e-19)
(0.118723 -0.0189874 -9.74861e-20)
(0.211452 0.0179435 2.76771e-19)
(0.313896 0.0634666 -1.65181e-19)
(0.423452 0.115672 1.57034e-19)
(0.537919 0.17208 1.3976e-19)
(0.653495 0.229448 -1.15189e-19)
(0.765231 0.284133 1.10198e-19)
(0.868657 0.332669 0)
(0.959972 0.372573 7.22984e-20)
(1.03666 0.402511 -5.74731e-20)
(1.09769 0.422265 2.13334e-20)
(1.14366 0.43297 8.99129e-20)
(1.17606 0.436815 -2.82014e-20)
(1.19727 0.435103 -3.715e-20)
(1.20761 0.428109 -9.23736e-21)
(1.21704 0.416422 6.98962e-21)
(-0.195556 -0.0481598 1.66318e-19)
(-0.223437 -0.0393214 -1.54463e-19)
(-0.237386 -0.0421973 0)
(-0.238767 -0.0500676 0)
(-0.226683 -0.05739 -9.55596e-22)
(-0.201656 -0.0603729 0)
(-0.163918 -0.0564095 -2.20102e-19)
(-0.113757 -0.0438739 1.02912e-19)
(-0.0514307 -0.0219848 0)
(0.022424 0.0094319 8.63253e-20)
(0.106731 0.0495509 -8.17803e-20)
(0.199805 0.0965997 0)
(0.299563 0.148393 0)
(0.403813 0.202391 -5.37884e-20)
(0.509178 0.255544 1.3646e-19)
(0.61201 0.304846 -8.68093e-20)
(0.708959 0.347785 3.11836e-20)
(0.797135 0.382712 2.47621e-20)
(0.874482 0.408978 3.22619e-20)
(0.940009 0.427005 -1.22615e-19)
(0.993609 0.437927 3.97086e-20)
(1.03637 0.442801 6.341e-21)
(1.06795 0.442208 -1.2059e-20)
(1.09729 0.436421 8.44114e-21)
(-0.228558 -0.0206704 -2.08706e-19)
(-0.26991 -0.0125196 3.89472e-19)
(-0.297171 -0.0183983 1.10974e-19)
(-0.311774 -0.0301154 -1.36962e-19)
(-0.313545 -0.0419628 1.26063e-19)
(-0.302885 -0.0500276 0)
(-0.27999 -0.05175 1.09003e-19)
(-0.245132 -0.0455516 -1.99328e-19)
(-0.198577 -0.030632 2.33658e-21)
(-0.140733 -0.00688248 -8.17908e-20)
(-0.0723777 0.0252943 7.74347e-20)
(0.00529037 0.0645937 6.46908e-20)
(0.0906212 0.109115 -5.62408e-20)
(0.181776 0.156725 5.33476e-20)
(0.276577 0.205036 -5.05702e-21)
(0.372356 0.251528 6.59457e-20)
(0.466474 0.29401 -1.47026e-19)
(0.556477 0.33091 2.62256e-20)
(0.640276 0.36139 4.99785e-20)
(0.71639 0.385314 -4.15343e-20)
(0.783956 0.403085 0)
(0.842918 0.415278 -6.30484e-21)
(0.892795 0.422066 1.08806e-20)
(0.938052 0.419568 -6.60286e-21)
(-0.258029 0.00853538 -8.55777e-20)
(-0.31149 0.0157342 -1.97064e-19)
(-0.349606 0.00644601 -1.47631e-19)
(-0.375125 -0.00994091 1.01452e-19)
(-0.387651 -0.0270581 0)
(-0.388001 -0.0412643 -5.87675e-20)
(-0.376225 -0.0500164 -3.00102e-22)
(-0.352616 -0.051713 9.90164e-20)
(-0.317599 -0.0454997 9.07165e-20)
(-0.271661 -0.0310638 0)
(-0.215536 -0.00864878 0)
(-0.150279 0.0209312 -9.4147e-20)
(-0.0772365 0.0562889 8.12682e-20)
(0.00201838 0.095607 2.12935e-20)
(0.0857917 0.136907 -7.47212e-20)
(0.172135 0.178165 3.31902e-20)
(0.259008 0.217543 -3.28056e-20)
(0.344506 0.253592 8.6546e-21)
(0.42697 0.28535 3.84262e-20)
(0.50509 0.312349 -5.84279e-21)
(0.577957 0.334499 1.96447e-20)
(0.645143 0.351813 8.40918e-21)
(0.706193 0.363464 -5.55418e-21)
(0.761566 0.36189 0)
(-0.283437 0.0394222 8.58164e-20)
(-0.347642 0.0452686 0)
(-0.394016 0.031955 -3.85027e-20)
(-0.427462 0.0103038 6.99389e-20)
(-0.447552 -0.0129147 -6.3897e-22)
(-0.455384 -0.0342563 -3.02694e-20)
(-0.450834 -0.0513091 0)
(-0.434154 -0.062315 -9.77656e-20)
(-0.405985 -0.0662361 4.52902e-20)
(-0.367112 -0.0624584 0)
(-0.318459 -0.0508711 0)
(-0.261286 -0.0319848 2.67206e-21)
(-0.196926 -0.00677934 4.32515e-22)
(-0.126807 0.0232429 -1.16852e-20)
(-0.0523824 0.0564331 0)
(0.0249093 0.0911384 0)
(0.103555 0.125766 -1.09495e-20)
(0.18209 0.158951 0)
(0.259248 0.189649 -3.88244e-21)
(0.334013 0.217125 1.50006e-21)
(0.405686 0.240818 -3.77652e-21)
(0.473879 0.260005 -1.73106e-21)
(0.538128 0.272898 -8.75999e-22)
(0.598901 0.273111 0)
(-0.30452 0.0720361 5.23891e-21)
(-0.378136 0.0759027 1.05633e-20)
(-0.429856 0.0579066 4.85979e-20)
(-0.467952 0.030433 9.30316e-21)
(-0.492177 0.000570644 4.19585e-20)
(-0.504105 -0.0287329 7.87124e-21)
(-0.503193 -0.0555231 -2.07825e-20)
(-0.489303 -0.0773115 6.45865e-21)
(-0.463272 -0.0923143 0)
(-0.426569 -0.100014 -2.30112e-20)
(-0.380359 -0.099881 3.25112e-20)
(-0.326228 -0.0919471 -1.78511e-20)
(-0.265771 -0.076922 1.2966e-20)
(-0.200505 -0.056109 -1.1059e-20)
(-0.131923 -0.0309501 -7.76291e-21)
(-0.061292 -0.00293118 0)
(0.0102514 0.0264765 -6.86609e-21)
(0.0816757 0.0559622 1.83291e-21)
(0.15209 0.0844027 2.31478e-21)
(0.220756 0.11084 -3.30366e-21)
(0.287071 0.134348 2.64043e-21)
(0.350663 0.153726 0)
(0.411732 0.167047 2.89847e-22)
(0.473869 0.172204 -3.1686e-22)
(-0.321319 0.106455 -2.95345e-21)
(-0.403118 0.107423 -7.99434e-21)
(-0.456816 0.0839929 -1.0021e-20)
(-0.495883 0.0502773 -9.3568e-21)
(-0.520355 0.0134479 -4.46451e-20)
(-0.531362 -0.0245176 -7.85865e-21)
(-0.529422 -0.0612706 -2.24254e-20)
(-0.514856 -0.0939991 3.28609e-20)
(-0.487901 -0.121817 -1.76935e-20)
(-0.449029 -0.142146 1.0241e-20)
(-0.400491 -0.15396 8.61517e-21)
(-0.344499 -0.156985 -1.58907e-20)
(-0.28308 -0.151682 3.05893e-21)
(-0.218027 -0.139196 0)
(-0.151021 -0.120994 -5.87005e-21)
(-0.0832746 -0.0986231 0)
(-0.0157636 -0.0735824 0)
(0.0506992 -0.0472246 0)
(0.115453 -0.0207153 0)
(0.17791 0.00493159 0)
(0.237422 0.0287587 0)
(0.293617 0.0497192 0)
(0.348213 0.066807 0)
(0.407666 0.0789583 0)
(-0.334247 0.142739 0)
(-0.423172 0.139517 -9.20904e-20)
(-0.474786 0.10971 0)
(-0.510695 0.0695067 8.20469e-20)
(-0.531223 0.0252965 -3.98631e-20)
(-0.538608 -0.0209111 6.98297e-20)
(-0.532692 -0.0673866 2.99861e-20)
(-0.51274 -0.11291 -2.68592e-20)
(-0.478609 -0.153652 2.33435e-20)
(-0.432246 -0.187102 -1.98326e-20)
(-0.376048 -0.211142 0)
(-0.3129 -0.224866 1.32867e-20)
(-0.245448 -0.228512 -2.05558e-20)
(-0.175958 -0.223129 0)
(-0.106359 -0.210362 -4.90709e-21)
(-0.0378474 -0.191973 -1.2941e-20)
(0.0287658 -0.169623 1.2385e-20)
(0.092934 -0.144788 0)
(0.154294 -0.118705 0)
(0.212531 -0.0923727 0)
(0.267218 -0.0665756 0)
(0.318326 -0.0419206 1.25463e-21)
(0.368095 -0.0190807 -2.31438e-21)
(0.423268 -0.000831385 0)
(-0.345526 0.182352 -1.85775e-19)
(-0.439356 0.171586 9.30546e-20)
(-0.4838 0.134249 -1.39082e-19)
(-0.511781 0.0880026 -1.24787e-19)
(-0.524479 0.037618 7.7275e-20)
(-0.52369 -0.0166432 -7.11993e-20)
(-0.508044 -0.0737835 0)
(-0.476674 -0.131546 -1.21819e-19)
(-0.430035 -0.186075 -1.05405e-19)
(-0.370199 -0.233155 -8.83854e-20)
(-0.300378 -0.26948 7.16282e-20)
(-0.224458 -0.293325 4.93938e-20)
(-0.145993 -0.304519 -6.282e-20)
(-0.0679499 -0.304152 3.49931e-20)
(0.00762696 -0.294451 2.87493e-20)
(0.0796973 -0.277702 -4.13668e-20)
(0.147764 -0.25595 1.67412e-20)
(0.211705 -0.230931 -7.41364e-21)
(0.271629 -0.204034 5.09651e-21)
(0.327755 -0.176314 0)
(0.380255 -0.14845 4.81681e-21)
(0.429746 -0.120784 1.8245e-21)
(0.477909 -0.0936833 -5.13893e-21)
(0.530523 -0.0710736 0)
(-0.361774 0.228524 2.70902e-19)
(-0.453358 0.20176 -4.87634e-20)
(-0.483709 0.156067 1.38258e-19)
(-0.497665 0.105084 4.44551e-20)
(-0.496678 0.0497527 0)
(-0.481453 -0.0114737 -1.61471e-19)
(-0.449691 -0.0784236 -1.47894e-19)
(-0.400172 -0.148499 -8.73827e-21)
(-0.333694 -0.216698 -7.80798e-21)
(-0.253263 -0.277199 8.97219e-20)
(-0.163494 -0.324895 -7.27248e-20)
(-0.0698941 -0.356853 -5.1932e-20)
(0.0227886 -0.372923 4.62988e-21)
(0.111316 -0.374811 0)
(0.193985 -0.365375 2.12672e-20)
(0.27006 -0.347626 1.34553e-20)
(0.339542 -0.32418 0)
(0.402911 -0.29719 -4.61768e-22)
(0.460888 -0.268361 1.70886e-21)
(0.514414 -0.238992 2.82422e-21)
(0.564204 -0.209888 1.30699e-21)
(0.611654 -0.181393 -1.73776e-20)
(0.656732 -0.15342 1.12055e-20)
(0.710031 -0.127453 -1.67231e-21)
(-0.40147 0.274296 -2.88122e-19)
(-0.468131 0.223615 0)
(-0.473731 0.172503 1.02037e-19)
(-0.466455 0.119606 -9.41184e-20)
(-0.445051 0.0614226 0)
(-0.407896 -0.00511727 1.63315e-19)
(-0.351699 -0.0805077 -1.60336e-21)
(-0.27523 -0.161755 4.09088e-19)
(-0.180335 -0.242353 -1.23119e-19)
(-0.0721761 -0.314526 1.07308e-19)
(0.0422548 -0.371381 0)
(0.155908 -0.408867 -1.12133e-19)
(0.263429 -0.426786 7.02378e-20)
(0.361509 -0.427685 7.74398e-20)
(0.448867 -0.415441 -2.16319e-20)
(0.525615 -0.394022 0)
(0.592696 -0.366818 1.07369e-20)
(0.651539 -0.336489 -1.32342e-20)
(0.703685 -0.305106 -1.58933e-24)
(0.751082 -0.274185 8.00014e-21)
(0.794505 -0.244784 -6.62464e-21)
(0.836943 -0.217222 -9.59058e-21)
(0.874166 -0.192707 1.24492e-22)
(0.931928 -0.167306 8.69644e-21)
(-0.0298951 0.0283906 0)
(-0.098956 0.0357328 0)
(-0.213575 0.017681 0)
(-0.25578 0.019613 1.00764e-19)
(-0.316227 0.0410724 -8.48848e-20)
(-0.515105 0.0832746 7.70151e-19)
(-0.0756807 0.0326981 0)
(-0.173171 0.0351244 0)
(-0.274832 0.0161273 -8.97871e-19)
(-0.321009 0.0145439 -6.51863e-19)
(-0.388587 0.0123916 -7.9963e-20)
(-0.49854 0.0429949 -1.00073e-18)
(-0.0992821 0.0378866 1.21912e-18)
(-0.204838 0.0445298 6.8843e-20)
(-0.302977 0.0226368 8.0357e-19)
(-0.352559 0.0208636 7.14668e-19)
(-0.419978 0.0268034 1.51994e-19)
(-0.488174 0.0726226 3.94036e-19)
(-0.121038 0.0442052 -1.12555e-18)
(-0.227987 0.0558742 -1.03833e-18)
(-0.318701 0.0342033 0)
(-0.36584 0.0323725 8.48482e-20)
(-0.422377 0.0432644 4.98106e-19)
(-0.464439 0.090605 0)
(-0.143449 0.0483619 0)
(-0.248104 0.066089 9.96994e-19)
(-0.327506 0.0478895 -9.78959e-20)
(-0.368613 0.0462692 -8.07918e-22)
(-0.411351 0.0592951 -4.8147e-19)
(-0.434149 0.100875 0)
(-0.165658 0.0531786 2.10741e-20)
(-0.265579 0.0733845 -1.01915e-18)
(-0.331266 0.0618618 1.40887e-19)
(-0.364592 0.0608957 -7.72586e-20)
(-0.393386 0.0745981 5.22397e-19)
(-0.399555 0.109877 0)
(-0.187782 0.0673989 0)
(-0.277298 0.0805186 9.30958e-19)
(-0.330999 0.0754028 7.26181e-19)
(-0.356041 0.0754887 0)
(-0.371677 0.0887633 -5.12653e-19)
(-0.362927 0.117689 -5.47773e-19)
(-0.201649 0.074174 -9.0827e-20)
(-0.283974 0.0880084 5.64644e-20)
(-0.327782 0.0884376 -7.97535e-19)
(-0.344483 0.089702 6.59742e-19)
(-0.348224 0.101839 6.23627e-19)
(-0.326184 0.124785 -1.0699e-19)
(-0.213335 0.080894 1.44501e-18)
(-0.286848 0.0957213 0)
(-0.322193 0.101063 0)
(-0.331412 0.103412 -5.79014e-19)
(-0.32443 0.114005 -6.18814e-19)
(-0.290727 0.131405 5.4178e-19)
(-0.223094 0.0874524 -1.44316e-18)
(-0.28669 0.103598 0)
(-0.315021 0.113358 0)
(-0.317674 0.116679 5.70818e-19)
(-0.301331 0.125477 6.1252e-19)
(-0.257541 0.137729 3.22444e-19)
(-0.23023 0.0931228 -4.50024e-20)
(-0.284037 0.111558 9.46725e-19)
(-0.306919 0.125439 -1.27811e-19)
(-0.303864 0.129655 -4.2867e-19)
(-0.279738 0.136486 -5.52497e-19)
(-0.22733 0.143932 -5.41075e-19)
(-0.234318 0.0976156 -2.24199e-20)
(-0.279399 0.119554 -8.38211e-19)
(-0.298184 0.137515 0)
(-0.290571 0.142461 0)
(-0.260295 0.14725 0)
(-0.200618 0.150175 4.34503e-19)
(-0.235209 0.100989 0)
(-0.273145 0.127592 0)
(-0.289075 0.14973 6.7927e-19)
(-0.278283 0.15525 0)
(-0.24352 0.157978 -4.93148e-19)
(-0.177809 0.156608 -4.39584e-19)
(-0.232837 0.103496 0)
(-0.26546 0.135709 0)
(-0.279866 0.162153 -1.40675e-18)
(-0.267398 0.168148 3.57379e-20)
(-0.229752 0.168891 9.95508e-19)
(-0.159189 0.163349 4.43156e-19)
(-0.227307 0.105543 -4.47071e-20)
(-0.256415 0.14386 2.75754e-20)
(-0.270854 0.174839 3.44731e-19)
(-0.258152 0.181264 2.88023e-19)
(-0.219264 0.180173 -5.6605e-19)
(-0.145017 0.17024 -3.93492e-19)
(-0.21934 0.108896 7.35606e-19)
(-0.246316 0.152011 -1.39773e-20)
(-0.262196 0.187779 3.48154e-19)
(-0.250723 0.194616 3.60459e-20)
(-0.212375 0.191923 1.59129e-19)
(-0.135813 0.17638 2.85352e-19)
(-0.205201 0.120839 -7.15282e-19)
(-0.235772 0.159754 0)
(-0.25391 0.200857 2.20815e-20)
(-0.245284 0.208064 -3.51523e-19)
(-0.209526 0.204223 -1.93774e-19)
(-0.132762 0.179571 -2.60446e-19)
(-0.184234 0.13276 1.03559e-20)
(-0.225091 0.165064 -7.18878e-21)
(-0.245831 0.213506 2.24603e-20)
(-0.241773 0.221431 -1.87577e-20)
(-0.211229 0.217454 0)
(-0.138312 0.178233 1.18075e-19)
(-0.167772 0.129373 -3.68671e-20)
(-0.213939 0.165938 0)
(-0.237351 0.224867 -2.28385e-20)
(-0.239748 0.234674 1.91553e-20)
(-0.217633 0.232646 0)
(-0.153817 0.1733 -1.34473e-19)
(-0.1503 0.119943 3.62284e-20)
(-0.200475 0.163341 0)
(-0.227462 0.234441 1.16757e-19)
(-0.238493 0.247728 -1.95644e-20)
(-0.227535 0.251795 4.24661e-21)
(-0.174728 0.170044 -3.84594e-21)
(-0.128271 0.109791 4.46986e-21)
(-0.183643 0.157646 2.38643e-19)
(-0.21534 0.241927 -1.0826e-19)
(-0.236126 0.259092 1.01198e-20)
(-0.239082 0.278348 0)
(-0.193985 0.173839 0)
(-0.109152 0.0984714 -5.99128e-19)
(-0.164117 0.148744 -7.13793e-19)
(-0.200856 0.24687 3.74929e-19)
(-0.229725 0.266599 0)
(-0.249843 0.314427 -2.905e-19)
(-0.206554 0.187554 -5.83565e-20)
(-0.0894054 0.0832937 6.83263e-19)
(-0.140884 0.134256 1.83424e-20)
(-0.183213 0.246346 -4.74324e-19)
(-0.217494 0.264269 -7.47632e-22)
(-0.255822 0.357941 3.37127e-19)
(-0.209864 0.203289 0)
(-0.0525339 0.0391823 1.19411e-20)
(-0.101316 0.0869029 5.4976e-19)
(-0.149591 0.215786 5.56292e-20)
(-0.178133 0.221398 4.74403e-20)
(-0.238934 0.393411 -4.7628e-19)
(-0.172791 0.159708 1.27445e-19)
(-0.511507 0.262129 1.12175e-19)
(-0.480106 0.227022 5.93253e-20)
(-0.450983 0.18092 1.07342e-19)
(-0.416156 0.130242 -2.00184e-19)
(-0.36765 0.0716165 -1.4877e-21)
(-0.300517 0.00177823 -9.83065e-20)
(-0.210931 -0.0799692 -5.049e-19)
(-0.0984704 -0.170055 3.06491e-19)
(0.0322461 -0.2604 1.23591e-19)
(0.172437 -0.341325 -1.16432e-19)
(0.313104 -0.404238 0)
(0.44539 -0.444232 2.67249e-19)
(0.562368 -0.461244 -2.08288e-19)
(0.661876 -0.458955 1.50661e-19)
(0.744353 -0.442039 -5.47952e-21)
(0.811669 -0.415572 0)
(0.866746 -0.384027 0)
(0.91262 -0.350738 1.55583e-21)
(0.952259 -0.318003 -7.50246e-21)
(0.988093 -0.287021 4.60522e-21)
(1.01941 -0.258825 -5.92288e-22)
(1.04985 -0.233048 0)
(1.07184 -0.212677 -5.67195e-21)
(1.11307 -0.190242 3.88327e-21)
(-0.52453 0.214848 -8.00418e-20)
(-0.466199 0.219023 0)
(-0.41021 0.182229 -4.46985e-19)
(-0.345984 0.136371 0)
(-0.265475 0.0789904 -4.0225e-19)
(-0.162156 0.0074387 -1.32212e-20)
(-0.0327408 -0.0785452 6.9478e-19)
(0.120476 -0.174099 -3.08045e-19)
(0.28807 -0.269809 2.81583e-19)
(0.457083 -0.354782 -2.00171e-20)
(0.616139 -0.419905 -1.19272e-20)
(0.752461 -0.458719 -2.79013e-19)
(0.860468 -0.471768 2.28697e-19)
(0.94204 -0.464415 -9.57182e-20)
(1.00132 -0.443282 -5.55591e-20)
(1.04408 -0.414335 4.57108e-20)
(1.0755 -0.381809 0)
(1.09934 -0.348677 1.50976e-20)
(1.1176 -0.316782 -8.48668e-21)
(1.13082 -0.286964 -1.38429e-20)
(1.14119 -0.26013 -1.04668e-21)
(1.15026 -0.236093 0)
(1.15671 -0.216971 3.29187e-21)
(1.17229 -0.19674 3.76478e-22)
(-0.501774 0.185423 -7.22825e-20)
(-0.429931 0.205816 1.87474e-19)
(-0.351507 0.17909 7.9373e-19)
(-0.258105 0.138171 0)
(-0.143417 0.082406 8.16523e-19)
(-0.00145725 0.00994358 3.82017e-19)
(0.168903 -0.0783987 -3.55126e-19)
(0.360134 -0.175697 -3.27933e-19)
(0.556084 -0.271658 5.1507e-21)
(0.741125 -0.355101 2.38842e-19)
(0.898788 -0.416135 -1.94578e-19)
(1.01563 -0.449257 1.41727e-19)
(1.0932 -0.456782 -1.34041e-19)
(1.14096 -0.446752 0)
(1.16874 -0.425431 -1.18817e-19)
(1.18412 -0.397847 6.75479e-20)
(1.19213 -0.367813 0)
(1.19574 -0.337623 0)
(1.19661 -0.308568 -3.1566e-20)
(1.19616 -0.281533 6.13254e-20)
(1.1949 -0.257197 -1.05653e-20)