/*--------------------------------*- C++ -*----------------------------------*\
  =========                 |
  \\      /  F ield         | OpenFOAM: The Open Source CFD Toolbox
   \\    /   O peration     | Website:  https://openfoam.org
    \\  /    A nd           | Version:  11
     \\/     M anipulation  |
\*---------------------------------------------------------------------------*/
FoamFile
{
    format      ascii;
    class       surfaceVectorField;
    location    "0.3";
    object      Uf;
}
// * * * * * * * * * * * * * * * * * * * * * * * * * * * * * * * * * * * * * //

dimensions      [0 1 -1 0 0 0 0];

internalField   nonuniform List<vector> 
5640
(
(0.0438062 0.00640976 -8.96211e-21)
(0.037493 0.00730191 5.76783e-21)
(0.070509 -0.0522704 5.77808e-21)
(0.0509673 -0.0263445 -1.59849e-20)
(0.101528 -0.125061 1.59319e-20)
(0.0884808 -0.113692 -1.6739e-19)
(0.138628 -0.217154 8.1595e-21)
(0.110294 -0.175305 -1.52432e-19)
(0.166046 -0.316777 1.814e-19)
(0.156398 -0.288204 2.0299e-21)
(0.143461 -0.276522 -8.94391e-20)
(0.402718 -0.360893 1.38658e-19)
(0.0411018 -0.0195249 0)
(0.0372578 -0.00660637 2.91799e-19)
(0.0643461 -0.087924 -1.84248e-19)
(0.0444639 -0.0549244 1.44365e-20)
(0.0907237 -0.16427 -3.36268e-19)
(0.074905 -0.141365 -2.83031e-20)
(0.116574 -0.23844 -1.67493e-19)
(0.0910727 -0.203699 7.30507e-21)
(0.145282 -0.304439 -2.51373e-19)
(0.120324 -0.279797 1.7996e-20)
(0.121734 -0.274276 -1.28183e-19)
(0.288127 -0.277238 -3.50727e-19)
(0.0363595 -0.0358012 3.22237e-19)
(0.0338177 -0.0168738 2.4453e-20)
(0.0530608 -0.107131 1.76321e-19)
(0.0355121 -0.0742122 -2.04777e-19)
(0.0736102 -0.179629 3.19999e-19)
(0.0583143 -0.155761 1.67434e-19)
(0.0921241 -0.239274 1.90574e-19)
(0.0708409 -0.213036 1.71025e-19)
(0.113347 -0.277423 1.55616e-19)
(0.092021 -0.263608 1.52704e-19)
(0.106514 -0.257764 9.81602e-20)
(0.203133 -0.242291 1.01044e-19)
(0.0303131 -0.0490613 -4.92388e-19)
(0.0294897 -0.0271597 -2.70232e-19)
(0.0407186 -0.121086 -2.28541e-19)
(0.0263887 -0.0894705 -6.80522e-21)
(0.0557049 -0.18747 1.83397e-20)
(0.0420082 -0.164785 -2.13934e-20)
(0.0704167 -0.235057 1.33728e-19)
(0.0519582 -0.215238 1.82787e-20)
(0.0917617 -0.257235 1.20264e-19)
(0.0694245 -0.249781 3.75606e-21)
(0.0919346 -0.243902 0)
(0.158593 -0.228497 1.28855e-19)
(0.0243172 -0.0609064 1.98994e-19)
(0.024538 -0.0372043 5.00186e-21)
(0.0284869 -0.131312 1.9968e-19)
(0.0175375 -0.101237 -1.07558e-20)
(0.0385081 -0.190911 -2.30277e-20)
(0.0263734 -0.16987 9.63404e-21)
(0.0509506 -0.22905 -1.1114e-19)
(0.0340823 -0.213477 -1.81204e-20)
(0.0723411 -0.24229 -1.15955e-19)
(0.0494175 -0.237652 1.50641e-20)
(0.0749917 -0.231826 0)
(0.127009 -0.220883 -2.88308e-19)
(0.0174759 -0.0707312 -2.03838e-19)
(0.016898 -0.043788 5.00186e-21)
(0.0164134 -0.137952 -2.02423e-19)
(0.0081831 -0.108778 -1.74953e-20)
(0.0220262 -0.191013 1.54066e-20)
(0.011157 -0.171565 1.93398e-19)
(0.0325454 -0.22178 1.068e-19)
(0.0166593 -0.209052 -1.74181e-20)
(0.0529985 -0.229729 1.3138e-19)
(0.0301549 -0.226173 2.84818e-21)
(0.0554496 -0.220145 -1.45238e-19)
(0.0990146 -0.213205 2.61624e-19)
(0.00625272 -0.0765202 1.92682e-19)
(0.00708954 -0.0467071 -2.14683e-20)
(0.00369111 -0.140718 3.68641e-19)
(-0.00261358 -0.112481 2.17145e-19)
(0.00578326 -0.188437 1.67857e-19)
(-0.00404556 -0.170541 -1.74057e-20)
(0.0142776 -0.213374 -1.21919e-19)
(-0.000731781 -0.20267 1.56404e-19)
(0.0327628 -0.21779 -2.70199e-19)
(0.0106425 -0.214574 3.18578e-20)
(0.0334954 -0.208052 -1.75045e-19)
(0.0714743 -0.204198 -2.82721e-19)
(-0.00345847 -0.078339 -9.61014e-21)
(-0.00249141 -0.0484644 3.22933e-19)
(-0.00958769 -0.140645 -1.58915e-19)
(-0.014226 -0.113541 1.26661e-20)
(-0.0105319 -0.183824 -3.48868e-20)
(-0.0193157 -0.167492 -1.79769e-19)
(-0.00434542 -0.203882 3.13673e-19)
(-0.0182885 -0.194791 1.90273e-20)
(0.0112429 -0.2055 1.32721e-19)
(-0.00957652 -0.202382 2.05984e-21)
(0.00939517 -0.194991 1.12286e-19)
(0.042938 -0.19344 -3.45058e-20)
(-0.0137423 -0.0790043 3.6427e-19)
(-0.0115762 -0.0489597 4.27808e-22)
(-0.023144 -0.138675 0)
(-0.0260607 -0.112809 0)
(-0.0269528 -0.177688 -1.32744e-19)
(-0.0345383 -0.162961 0)
(-0.0234721 -0.193349 -2.92129e-19)
(-0.036012 -0.185725 4.64161e-22)
(-0.0116128 -0.192325 -2.0751e-20)
(-0.0305912 -0.189349 4.86504e-22)
(-0.0165225 -0.180594 2.28831e-19)
(0.012911 -0.180724 1.65557e-19)
(-0.0237759 -0.078428 -3.63517e-19)
(-0.0198686 -0.0482148 -3.5454e-19)
(-0.0366545 -0.135338 0)
(-0.0376982 -0.110764 2.18615e-19)
(-0.0433622 -0.17039 1.33193e-19)
(-0.0495308 -0.15733 -2.99034e-20)
(-0.0430305 -0.181829 2.93079e-19)
(-0.0537762 -0.175683 3.55533e-20)
(-0.0356368 -0.177999 2.44511e-19)
(-0.0522324 -0.175372 1.76692e-20)
(-0.0438356 -0.164667 -5.59821e-20)
(-0.0185749 -0.165955 1.01302e-19)
(-0.0331387 -0.0766315 1.94612e-19)
(-0.0271454 -0.0462425 -1.63391e-20)
(-0.0498135 -0.130973 1.99387e-19)
(-0.0487921 -0.107701 2.62215e-20)
(-0.059574 -0.16217 -1.30011e-19)
(-0.0640904 -0.150842 -2.99034e-20)
(-0.0627983 -0.169397 -2.39208e-19)
(-0.0713825 -0.164822 -1.0231e-19)
(-0.0604644 -0.162419 -2.80815e-19)
(-0.0741695 -0.160441 -1.38073e-19)
(-0.072 -0.147168 -2.79017e-20)
(-0.0511516 -0.149136 -1.8446e-19)
(-0.041586 -0.0737037 -1.87142e-19)
(-0.0332233 -0.0430698 -5.48825e-21)
(-0.0623578 -0.12578 -2.00579e-19)
(-0.0590639 -0.103769 -1.92393e-19)
(-0.0753815 -0.153192 0)
(-0.0780205 -0.14364 1.59267e-19)
(-0.0824724 -0.156121 0)
(-0.0886068 -0.153263 0)
(-0.0856161 -0.145595 1.12199e-19)
(-0.0959997 -0.144602 -1.24034e-19)
(-0.100362 -0.128174 7.79792e-22)
(-0.0842415 -0.130373 -3.66183e-20)
(-0.048909 -0.0697372 0)
(-0.0379712 -0.038735 0)
(-0.0740726 -0.119861 1.5249e-19)
(-0.0682765 -0.0990095 0)
(-0.0905593 -0.143563 1.64648e-19)
(-0.0911328 -0.13581 -1.71653e-19)
(-0.101719 -0.142093 -1.20556e-19)
(-0.105233 -0.141116 8.4467e-21)
(-0.110521 -0.127626 -2.38404e-19)
(-0.117295 -0.127973 1.24104e-19)
(-0.128179 -0.107859 1.14535e-21)
(-0.117088 -0.109836 2.16183e-21)
(-0.0549588 -0.0647415 0)
(-0.0413089 -0.0332834 -1.10307e-20)
(-0.0847539 -0.113229 -3.16846e-19)
(-0.0761852 -0.0934056 6.30419e-21)
(-0.104913 -0.133361 -3.34149e-19)
(-0.103275 -0.127382 -2.4986e-19)
(-0.120252 -0.127452 2.49852e-19)
(-0.121049 -0.128493 7.81991e-20)
(-0.134595 -0.108705 3.66588e-19)
(-0.137636 -0.110754 1.07652e-19)
(-0.15468 -0.086426 1.42e-20)
(-0.148907 -0.0876897 1.51775e-19)
(-0.0595744 -0.0587187 -6.10526e-21)
(-0.0431919 -0.0267893 1.70119e-19)
(-0.0942179 -0.105874 8.416e-20)
(-0.0825058 -0.0868888 3.10082e-21)
(-0.118278 -0.122653 1.51169e-19)
(-0.114346 -0.118336 1.63418e-19)
(-0.137759 -0.112367 -6.48325e-20)
(-0.135882 -0.115524 7.88059e-20)
(-0.157253 -0.0890743 -2.425e-19)
(-0.156662 -0.0932151 -1.01369e-19)
(-0.179218 -0.0641392 -2.85975e-20)
(-0.178781 -0.0642151 -4.85009e-20)
(-0.0626229 -0.0517149 1.88813e-19)
(-0.0435834 -0.0193688 5.28552e-21)
(-0.102255 -0.0977255 7.55116e-20)
(-0.0869278 -0.0793324 -3.20336e-21)
(-0.130543 -0.111473 9.38956e-20)
(-0.124264 -0.108599 8.77321e-20)
(-0.154025 -0.0970474 4.7385e-20)
(-0.149636 -0.102343 -7.6203e-20)
(-0.178066 -0.0689927 1.10761e-19)
(-0.174095 -0.0756618 -8.50035e-21)
(-0.201242 -0.0413142 6.76138e-21)
(-0.206011 -0.0395678 -2.52118e-21)
(-0.06399 -0.0439291 -1.86252e-19)
(-0.0424109 -0.0111867 -1.73297e-19)
(-0.108666 -0.0886587 5.1476e-21)
(-0.0891208 -0.0705435 -1.68131e-21)
(-0.141644 -0.0998326 -7.66182e-20)
(-0.132975 -0.0980355 1.08924e-20)
(-0.168911 -0.0817298 -1.33954e-19)
(-0.162286 -0.0890885 -8.97118e-20)
(-0.196681 -0.0488074 -1.12925e-19)
(-0.189762 -0.058466 -4.76258e-20)
(-0.22026 -0.0183339 -3.59237e-20)
(-0.230034 -0.0139857 -1.12294e-19)
(-0.0634328 -0.0355866 1.5091e-21)
(-0.0396757 -0.00245115 -7.44025e-21)
(-0.113254 -0.0784672 3.52841e-21)
(-0.0886253 -0.0602534 -1.68131e-21)
(-0.151559 -0.0877041 1.63181e-21)
(-0.140428 -0.0864354 -3.48077e-23)
(-0.182381 -0.0666815 -4.58619e-21)
(-0.173893 -0.0758814 2.34038e-22)
(-0.212854 -0.0289398 2.90604e-20)
(-0.203622 -0.0420756 0)
(-0.235916 0.00428678 -4.39782e-21)
(-0.250307 0.0122786 7.04997e-20)
(-0.060317 -0.0239106 -1.08267e-20)
(-0.0344982 0.00650932 -8.34024e-22)
(-0.115788 -0.0668231 -5.3146e-21)
(-0.0850187 -0.048051 0)
(-0.160301 -0.0749821 -1.2018e-21)
(-0.14656 -0.0734794 2.33334e-20)
(-0.194531 -0.052189 4.82679e-21)
(-0.184618 -0.0627901 -1.90061e-22)
(-0.226522 -0.00995109 -3.33764e-20)
(-0.215827 -0.0270147 1.09684e-21)
(-0.248034 0.0258465 -3.51321e-20)
(-0.266457 0.0389123 -3.82305e-20)
(-0.0541664 -0.0131767 9.79322e-21)
(-0.0278488 0.0153031 1.03268e-20)
(-0.116175 -0.0532813 2.76393e-20)
(-0.0791763 -0.0333545 6.14963e-20)
(-0.167921 -0.0614637 2.51323e-20)
(-0.151244 -0.058738 1.48838e-21)
(-0.205651 -0.0385511 -3.94598e-21)
(-0.194751 -0.0497625 -2.39082e-21)
(-0.23791 0.00735661 1.43702e-22)
(-0.226859 -0.0138638 1.09684e-21)
(-0.256611 0.0453071 -9.35864e-22)
(-0.278258 0.0654318 -2.32271e-21)
(-0.0473889 -0.00161727 5.90779e-20)
(-0.0217048 0.0236488 -1.46101e-19)
(-0.115243 -0.0376362 3.79768e-20)
(-0.0720256 -0.016146 -1.26107e-19)
(-0.174422 -0.0469419 -2.6076e-20)
(-0.153942 -0.0418512 6.90951e-20)
(-0.216296 -0.0260869 2.55421e-21)
(-0.2047 -0.0364954 2.48455e-21)
(-0.24783 0.0218981 0)
(-0.237693 -0.00315925 -7.32109e-20)
(-0.260871 0.06099 -1.82515e-20)
(-0.285408 0.0912099 0)
(-0.040435 0.0109316 -3.32589e-19)
(-0.0157025 0.0312237 2.00082e-20)
(-0.11246 -0.0200487 -1.04966e-19)
(-0.0625379 0.00345741 -1.85841e-19)
(-0.179273 -0.0312834 9.96497e-20)
(-0.152763 -0.0220376 -2.42299e-20)
(-0.227195 -0.015145 -7.11583e-20)
(-0.214589 -0.0221001 -3.49897e-22)
(-0.257586 0.0318224 -9.27799e-20)
(-0.249739 0.00475377 1.38264e-20)
(-0.256544 0.0704595 -1.82515e-20)
(-0.286658 0.115871 -1.08813e-19)
(-0.031233 0.0242447 1.81777e-19)
(-0.0072637 0.0379099 1.72249e-19)
(-0.105461 -0.000533464 -1.1366e-19)
(-0.0452135 0.0265066 3.02852e-19)
(-0.180338 -0.0140888 -1.29931e-19)
(-0.139765 0.00350288 -1.15402e-19)
(-0.238027 -0.00482682 8.52119e-20)
(-0.22101 -0.00408309 1.18251e-20)
(-0.268317 0.0361937 8.95008e-20)
(-0.260597 0.0111904 6.74536e-20)
(-0.232696 0.0710325 8.57351e-20)
(-0.278613 0.141486 1.12942e-19)
(-0.0159272 0.0415466 2.85958e-19)
(-0.0840696 0.0308653 3.17559e-19)
(-0.170846 0.0210955 2.34609e-20)
(-0.238411 0.020107 2.52131e-21)
(-0.275218 0.0492676 6.32496e-20)
(-0.263877 0.180071 1.39986e-20)
(0.95402 -0.620986 -2.34424e-20)
(0.648449 -0.460922 -2.76068e-20)
(0.917345 -0.685703 -1.12793e-21)
(1.16685 -0.633231 7.13387e-21)
(1.03655 -0.571126 6.98754e-21)
(1.11914 -0.679247 6.98754e-21)
(1.27463 -0.59607 0)
(1.21581 -0.583962 -6.73958e-20)
(1.2335 -0.628877 7.26499e-22)
(1.34044 -0.548786 0)
(1.31243 -0.557248 0)
(1.3053 -0.577086 -6.69741e-22)
(1.38153 -0.498486 -1.35529e-20)
(1.37245 -0.515909 -4.1086e-20)
(1.35124 -0.524045 0)
(1.40689 -0.446481 -3.12024e-20)
(1.41131 -0.468843 -3.06937e-20)
(1.37965 -0.46999 -1.9509e-20)
(1.42108 -0.395809 -9.85235e-21)
(1.4341 -0.419048 2.05831e-20)
(1.39658 -0.417988 -2.18206e-20)
(1.42701 -0.347888 8.58936e-21)
(1.4458 -0.369989 -1.51393e-22)
(1.40513 -0.369089 -2.56275e-21)
(1.42664 -0.303437 6.34785e-22)
(1.44932 -0.323319 1.54368e-20)
(1.40727 -0.323821 -7.30637e-21)
(1.42141 -0.262802 6.60973e-21)
(1.44655 -0.279911 -6.28169e-21)
(1.40441 -0.282452 4.90333e-21)
(1.41243 -0.226092 -1.20603e-20)
(1.43897 -0.240214 9.17574e-21)
(1.39764 -0.245046 6.67939e-21)
(1.40062 -0.193239 -1.11477e-20)
(1.42774 -0.204392 -1.2541e-20)
(1.38786 -0.211511 -4.67315e-21)
(1.38668 -0.164059 -2.96633e-21)
(1.41382 -0.172414 1.52811e-21)
(1.37579 -0.181643 -2.89013e-20)
(1.37112 -0.138311 -9.78661e-21)
(1.39792 -0.144121 -6.96296e-21)
(1.36194 -0.155177 3.04541e-21)
(1.35423 -0.115751 -1.10617e-20)
(1.38053 -0.119294 1.07982e-20)
(1.34666 -0.131834 1.01747e-20)
(1.33609 -0.0961789 -8.67081e-22)
(1.36189 -0.0977217 -1.86507e-20)
(1.33012 -0.111369 -2.88221e-20)
(1.31657 -0.0794636 -3.05602e-21)
(1.34202 -0.079247 1.19569e-20)
(1.31226 -0.0936052 2.72471e-20)
(1.29533 -0.0655472 -1.85079e-21)
(1.3207 -0.0637866 -2.66938e-20)
(1.29285 -0.0784583 -2.2675e-20)
(1.27184 -0.0544396 -4.74122e-21)
(1.29755 -0.0513165 2.52525e-20)
(1.27146 -0.0659112 3.72361e-20)
(1.24533 -0.0462368 -2.31083e-20)
(1.2719 -0.0417621 2.11469e-21)
(1.24739 -0.0559034 1.94781e-20)
(1.21481 -0.0411596 -4.5402e-21)
(1.24277 -0.0350854 7.20818e-21)
(1.21972 -0.0483779 -1.00592e-20)
(1.17903 -0.0396082 1.38841e-20)
(1.20939 -0.0325589 0)
(1.18776 -0.044673 -2.95351e-20)
(1.13615 -0.0423424 4.7464e-20)
(1.17177 -0.0386621 4.99644e-20)
(1.15156 -0.0494703 1.39673e-20)
(1.12692 -0.0531849 -4.19675e-20)
(1.10862 -0.0620319 -3.03902e-20)
(0.743319 -0.422251 -1.98696e-20)
(0.428949 -0.288658 -3.55088e-20)
(1.07546 -0.526302 -6.59844e-20)
(0.854738 -0.42914 3.85645e-20)
(1.2493 -0.548742 -6.8649e-20)
(1.12384 -0.497989 6.75922e-20)
(1.34328 -0.526083 -4.0399e-20)
(1.28145 -0.512946 0)
(1.40136 -0.487245 -5.60951e-20)
(1.37081 -0.491542 5.73073e-20)
(1.43759 -0.442247 2.41991e-20)
(1.42709 -0.455162 1.95202e-20)
(1.45833 -0.393949 3.1551e-20)
(1.46271 -0.411463 1.44975e-20)
(1.46793 -0.346003 5.90151e-21)
(1.48214 -0.364981 -4.1152e-20)
(1.4692 -0.300282 8.76196e-21)
(1.4899 -0.318356 2.6355e-20)
(1.46417 -0.25774 -3.91587e-21)
(1.48916 -0.27376 3.73432e-21)
(1.45438 -0.218875 8.83641e-21)
(1.48201 -0.232273 -3.58643e-21)
(1.44106 -0.18388 -2.8942e-23)
(1.47007 -0.194443 1.11458e-20)
(1.42518 -0.152743 -2.36986e-21)
(1.45464 -0.160491 -1.10101e-20)
(1.40744 -0.125327 1.33624e-20)
(1.43674 -0.130422 4.20583e-21)
(1.3883 -0.101453 3.31927e-21)
(1.41709 -0.104121 1.53875e-20)
(1.36793 -0.080954 -6.04509e-21)
(1.39609 -0.0814335 -5.61974e-21)
(1.34627 -0.0637138 -1.12387e-20)
(1.37386 -0.0622319 0)
(1.32304 -0.04967 5.99646e-23)
(1.35028 -0.0464421 -1.13208e-20)
(1.29777 -0.0388129 3.19423e-20)
(1.32506 -0.0340268 2.67361e-20)
(1.2697 -0.0312215 3.20984e-20)
(1.29762 -0.0249048 -1.91296e-20)
(1.23776 -0.0271385 1.16507e-20)
(1.26697 -0.0190402 2.00274e-20)
(1.20052 -0.027067 3.56233e-20)
(1.23223 -0.017624 1.87206e-20)
(1.15578 -0.0320297 8.60934e-20)
(1.19331 -0.0249791 2.65754e-20)
(1.14679 -0.0416543 -2.63298e-21)
(0.544376 -0.297469 1.65833e-20)
(0.295523 -0.22402 1.38431e-19)
(0.900513 -0.398059 1.71798e-19)
(0.654924 -0.308724 1.00946e-20)
(1.15245 -0.463742 1.38466e-19)
(0.959735 -0.389256 -1.5656e-20)
(1.30648 -0.479863 9.76313e-20)
(1.18291 -0.43722 -2.10951e-20)
(1.39595 -0.460604 1.33639e-19)
(1.32843 -0.445929 4.78354e-20)
(1.4517 -0.425135 7.76751e-21)
(1.41698 -0.426414 9.67559e-20)
(1.48581 -0.383224 -5.88555e-20)
(1.47259 -0.392561 -2.641e-20)
(1.50363 -0.337921 -2.21228e-20)
(1.50666 -0.351091 -4.355e-22)
(1.50972 -0.292328 2.11532e-20)
(1.52413 -0.306943 -1.36018e-20)
(1.50701 -0.248717 4.22393e-21)
(1.52885 -0.262451 2.60276e-21)
(1.49779 -0.20821 -1.51303e-21)
(1.52443 -0.219958 -5.17211e-20)
(1.48378 -0.171377 3.25051e-22)
(1.51331 -0.18062 -7.58955e-21)
(1.46635 -0.138451 -4.54386e-21)
(1.49733 -0.14501 7.17695e-21)
(1.44653 -0.109454 6.1377e-21)
(1.47793 -0.113364 0)
(1.425 -0.0843032 6.44464e-21)
(1.45617 -0.0857105 6.18932e-21)
(1.40213 -0.062887 2.23276e-22)
(1.43273 -0.0619805 2.21596e-22)
(1.37799 -0.0451164 0)
(1.40793 -0.0420919 0)
(1.35243 -0.030932 1.50909e-20)
(1.38179 -0.0259913 0)
(1.32509 -0.0203045 -2.43011e-20)
(1.35417 -0.0136328 2.45571e-20)
(1.29528 -0.0132923 -2.92244e-20)
(1.32467 -0.00493798 -4.82583e-20)
(1.26189 -0.0101488 2.71054e-20)
(1.29236 0.000160993 1.11022e-20)
(1.2233 -0.0114977 2.42746e-20)
(1.25628 0.000542783 1.87206e-20)
(1.17693 -0.0186818 -1.16612e-21)
(1.21614 -0.00795442 1.18911e-20)
(1.16818 -0.026856 -3.05954e-20)
(0.400845 -0.233169 1.30453e-19)
(0.218295 -0.205737 -1.97948e-19)
(0.710799 -0.296328 -1.69649e-19)
(0.489221 -0.235982 5.19854e-21)
(0.987662 -0.36249 -1.65001e-19)
(0.773925 -0.294115 -1.53226e-19)
(1.20136 -0.404105 -7.96987e-20)
(1.02287 -0.34649 -6.75466e-20)
(1.34674 -0.412905 2.30522e-21)
(1.22063 -0.377017 -5.71623e-20)
(1.43699 -0.394673 6.4293e-20)
(1.36086 -0.379002 4.32518e-20)
(1.49307 -0.361014 3.21984e-20)
(1.45232 -0.359631 0)
(1.52661 -0.320688 7.2063e-21)
(1.50932 -0.326466 3.26174e-20)
(1.54277 -0.27753 -3.39406e-20)
(1.54327 -0.286445 -6.71448e-20)
(1.54611 -0.234105 -5.33636e-20)
(1.55959 -0.244071 6.01268e-20)
(1.53997 -0.192735 -5.82308e-20)
(1.56191 -0.201671 -2.21625e-20)
(1.52696 -0.154579 -7.75989e-22)
(1.55434 -0.161523 -3.97321e-20)
(1.50905 -0.120211 1.17838e-20)
(1.53968 -0.124746 3.3069e-20)
(1.48773 -0.0898703 0)
(1.52 -0.0918797 0)
(1.46405 -0.0636016 0)
(1.49686 -0.063138 -1.4668e-20)
(1.43867 -0.0413712 0)
(1.47134 -0.0385612 2.24967e-20)
(1.41187 -0.0231323 0)
(1.44405 -0.0181268 -1.17335e-20)
(1.38368 -0.00884289 9.29564e-21)
(1.41526 -0.00181233 5.98369e-21)
(1.35394 0.0015389 1.53273e-22)
(1.385 0.0104193 9.36068e-21)
(1.32216 0.00798516 -6.46579e-21)
(1.35313 0.0186497 -3.13629e-21)
(1.28724 0.0102481 2.47043e-21)
(1.31896 0.0229951 1.75456e-21)
(1.24737 0.00757403 2.12498e-20)
(1.2815 0.0224151 0)
(1.19956 -0.00175835 8.94623e-20)
(1.24019 0.0129446 2.13771e-20)
(1.19105 -0.00814569 -4.31384e-20)
(0.300283 -0.204574 -3.15551e-19)
(0.167713 -0.199257 -2.7435e-20)
(0.547473 -0.231858 2.18953e-20)
(0.365929 -0.199492 6.72071e-20)
(0.805703 -0.277666 -5.85699e-20)
(0.604276 -0.229509 7.31919e-20)
(1.03922 -0.319501 -4.71247e-20)
(0.842217 -0.26838 -4.64515e-20)
(1.23137 -0.343724 -2.53568e-20)
(1.05894 -0.300058 1.0215e-19)
(1.37328 -0.345088 -2.77953e-20)
(1.24103 -0.315228 -6.90099e-20)
(1.4672 -0.325821 0)
(1.37991 -0.310286 3.84912e-20)
(1.52556 -0.292769 -4.0544e-20)
(1.47605 -0.288797 -1.34507e-19)
(1.55955 -0.253433 2.72374e-20)
(1.53633 -0.255569 -3.58842e-20)
(1.57486 -0.212 9.40439e-20)
(1.57136 -0.216504 1.64116e-19)
(1.57608 -0.170815 -2.60513e-21)
(1.58718 -0.175717 -1.79032e-20)
(1.56705 -0.132019 -6.4391e-21)
(1.58775 -0.135624 -9.32653e-22)
(1.55071 -0.0967085 2.15756e-20)
(1.57759 -0.0982643 5.43421e-22)
(1.52926 -0.0654076 -1.45457e-20)
(1.55988 -0.0646365 0)
(1.5043 -0.0383234 7.58405e-21)
(1.53692 -0.035188 -1.4668e-20)
(1.47688 -0.0155129 1.10382e-20)
(1.51035 -0.0100857 -9.46901e-21)
(1.4476 0.00301957 -5.96439e-21)
(1.48122 0.0106295 5.85892e-21)
(1.41675 0.0172869 6.02527e-21)
(1.45012 0.0269488 -2.7717e-21)
(1.3844 0.0273315 5.67417e-21)
(1.41731 0.0388866 0)
(1.35037 0.0331689 2.99801e-21)
(1.38291 0.0465394 3.9368e-21)
(1.31376 0.0345754 -9.22427e-22)
(1.34667 0.0500485 -1.06768e-21)
(1.27265 0.0306852 0)
(1.30775 0.0485507 0)
(1.22359 0.0193397 -4.9089e-21)
(1.26533 0.0382961 1.31257e-20)
(1.21527 0.0151731 -2.06156e-20)
(0.227869 -0.191398 3.54023e-19)
(0.12757 -0.193748 1.7518e-19)
(0.418101 -0.195779 1.1471e-19)
(0.274593 -0.181708 -1.45352e-19)
(0.63734 -0.219618 8.48026e-20)
(0.463452 -0.191254 1.15046e-19)
(0.859091 -0.248723 9.83968e-20)
(0.670428 -0.2129 0)
(1.06599 -0.271607 6.06265e-20)
(0.878428 -0.235063 -3.04695e-22)
(1.24474 -0.281091 -4.7396e-21)
(1.07428 -0.24941 -1.41418e-19)
(1.38569 -0.274386 -9.37938e-20)
(1.246 -0.251088 -5.3179e-20)
(1.48487 -0.252432 -1.27929e-19)
(1.38512 -0.238647 8.54222e-21)
(1.54744 -0.219219 9.92197e-20)
(1.48616 -0.213156 -6.56694e-20)
(1.583 -0.18056 5.33032e-20)
(1.55157 -0.179127 9.48046e-20)
(1.59822 -0.140852 -1.52733e-20)
(1.58869 -0.140739 6.1145e-20)
(1.598 -0.102203 6.49142e-21)
(1.60475 -0.101589 6.11657e-20)
(1.58668 -0.0665034 -2.17305e-20)
(1.60434 -0.0642586 -3.235e-20)
(1.56758 -0.0346977 0)
(1.59229 -0.0303158 -9.13693e-20)
(1.54307 -0.00719703 -3.17118e-20)
(1.5722 -0.000562077 0)
(1.51484 0.015843 -1.4703e-20)
(1.54654 0.0246832 -1.90049e-20)
(1.4839 0.0343733 8.76251e-21)
(1.51701 0.0453226 1.11074e-20)
(1.45087 0.0483811 -9.08565e-21)
(1.48463 0.061335 3.12521e-20)
(1.41607 0.0578953 -1.76364e-21)
(1.44997 0.0727213 2.40544e-21)
(1.37968 0.062975 -1.93681e-21)
(1.41338 0.079575 4.86778e-21)
(1.34125 0.0634613 -1.51842e-22)
(1.37506 0.082055 -6.8538e-21)
(1.29894 0.0584405 1.30475e-20)
(1.33462 0.0795991 -2.38777e-21)
(1.24889 0.0452773 8.58148e-20)
(1.29119 0.0687191 1.62383e-20)
(1.24058 0.0438532 -1.56783e-20)
(0.170226 -0.182676 -3.14527e-19)
(0.090671 -0.186302 -1.36649e-19)
(0.316023 -0.176028 -1.50416e-19)
(0.201959 -0.170655 -1.82333e-19)
(0.493358 -0.18401 3.23824e-20)
(0.348945 -0.169189 -3.3751e-20)
(0.687046 -0.198954 -9.73039e-20)
(0.519528 -0.177578 6.00729e-20)
(0.88426 -0.212821 -1.98768e-19)
(0.703421 -0.188498 -9.89587e-20)
(1.0733 -0.219716 -1.91606e-19)
(0.89095 -0.195787 -1.1678e-22)
(1.24285 -0.215972 5.30777e-20)
(1.07198 -0.195308 -9.57415e-20)
(1.38332 -0.200478 7.8445e-20)
(1.2363 -0.184584 3.23229e-19)
(1.48776 -0.174156 -7.16065e-20)
(1.37518 -0.163519 -1.52059e-19)
(1.55599 -0.139892 1.02234e-19)
(1.48076 -0.133078 -6.81369e-20)
(1.59439 -0.101809 1.36504e-19)
(1.55147 -0.0968214 1.76215e-19)
(1.61036 -0.0639614 1.96913e-20)
(1.59226 -0.0591056 7.66659e-20)
(1.60955 -0.0284167 -1.03555e-19)
(1.60942 -0.0220755 -1.03784e-19)
(1.59676 0.00349172 -9.21314e-20)
(1.60899 0.0119601 -6.17428e-20)
(1.57565 0.0310267 1.34834e-20)
(1.59606 0.0417532 0)
(1.54879 0.0539105 7.25846e-21)
(1.5745 0.0668118 3.87215e-20)
(1.51787 0.0720707 3.38557e-20)
(1.547 0.0870102 -2.00829e-20)
(1.48391 0.0854951 4.34712e-20)
(1.51527 0.102357 2.61499e-20)
(1.44754 0.0942028 9.72587e-21)
(1.4803 0.11288 -4.2989e-21)
(1.40923 0.0982748 3.3572e-21)
(1.44268 0.118654 -4.44516e-21)
(1.36906 0.0976723 -4.2648e-21)
(1.40288 0.11987 -1.09354e-20)
(1.32569 0.0915359 4.07713e-22)
(1.36118 0.116262 2.29816e-21)
(1.27501 0.0767797 2.84279e-21)
(1.31701 0.104862 8.51755e-22)
(1.26638 0.0786643 1.13131e-21)
(0.119335 -0.173706 -4.8923e-21)
(0.0539515 -0.17616 0)
(0.231699 -0.163095 -6.92871e-20)
(0.138672 -0.16049 1.40089e-19)
(0.372243 -0.162352 -7.55959e-21)
(0.252624 -0.154529 -2.02156e-19)
(0.533359 -0.166938 6.10774e-20)
(0.389529 -0.155316 1.87091e-19)
(0.707843 -0.171476 9.73123e-20)
(0.544192 -0.157894 5.8531e-20)
(0.88755 -0.171638 9.6199e-20)
(0.711189 -0.157825 4.44639e-20)
(1.06334 -0.164419 1.67425e-19)
(0.88362 -0.151886 -1.0645e-19)
(1.22582 -0.14829 9.70993e-20)
(1.05302 -0.137958 2.71318e-19)
(1.36521 -0.123314 -1.49523e-19)
(1.21131 -0.115405 -8.63078e-20)
(1.47338 -0.0912823 1.88743e-22)
(1.34882 -0.0849261 -2.28112e-19)
(1.54729 -0.0550357 1.06523e-19)
(1.45741 -0.0489829 -3.97295e-21)
(1.59 -0.0176759 -5.30509e-20)
(1.53289 -0.010299 1.08006e-19)
(1.60801 0.0179079 -6.25181e-20)
(1.57782 0.0274127 -1.49771e-19)
(1.60778 0.0498277 3.18141e-20)
(1.59758 0.0619176 -9.70899e-20)
(1.59465 0.077168 2.49306e-20)
(1.59847 0.0918712 7.71169e-20)
(1.57263 0.0995824 1.09066e-20)
(1.586 0.116662 2.09224e-21)
(1.54443 0.117019 -2.90499e-20)
(1.56433 0.136191 -1.45241e-20)
(1.51177 0.129518 -2.1793e-20)
(1.53624 0.150574 1.74397e-20)
(1.47566 0.137128 -1.88602e-20)
(1.50347 0.159949 -2.09915e-20)
(1.43677 0.13993 -1.61489e-20)
(1.46699 0.164417 3.32661e-20)
(1.39565 0.137996 3.46511e-22)
(1.4274 0.164166 -2.75494e-20)
(1.35172 0.130668 -4.82516e-21)
(1.38542 0.159139 2.68591e-21)
(1.30104 0.11456 -8.61332e-22)
(1.34119 0.147243 -3.35447e-21)
(1.29145 0.120245 2.11712e-21)
(0.0709087 -0.162728 1.40684e-19)
(0.0162928 -0.163205 0)
(0.157112 -0.15155 1.34051e-20)
(0.0794423 -0.148737 1.4414e-19)
(0.267449 -0.147194 -1.44986e-20)
(0.166835 -0.141818 -9.39138e-22)
(0.39807 -0.146166 1.86694e-19)
(0.274981 -0.139473 1.94792e-19)
(0.545475 -0.14435 6.72174e-21)
(0.401385 -0.137612 -1.01337e-21)
(0.705364 -0.138366 -1.56084e-19)
(0.543338 -0.132612 -5.43497e-20)
(0.871489 -0.125905 -1.09142e-20)
(0.697314 -0.121833 -2.11729e-19)
(1.03647 -0.105711 9.20506e-20)
(0.857435 -0.103536 3.00138e-19)
(1.19249 -0.0778463 -1.63608e-19)
(1.01696 -0.0772076 8.41781e-20)
(1.32996 -0.043531 -2.28825e-19)
(1.16897 -0.043458 -2.48443e-19)
(1.44001 -0.0052889 -3.05225e-21)
(1.30426 -0.00413385 5.62231e-23)
(1.51819 0.0337269 9.26167e-21)
(1.41375 0.0378565 6.49288e-20)
(1.56553 0.0706021 -1.84805e-19)
(1.49283 0.078867 1.08246e-19)
(1.58705 0.103307 -4.92705e-20)
(1.54192 0.116008 -1.00659e-19)
(1.58909 0.1308 5.26415e-20)
(1.56543 0.147537 -1.43822e-20)
(1.57731 0.15278 -2.54804e-20)
(1.56934 0.172844 -1.24546e-19)
(1.55597 0.169335 3.30153e-20)
(1.55918 0.192023 8.87809e-20)
(1.52794 0.180679 1.98081e-20)
(1.53922 0.205467 -5.87357e-21)
(1.49494 0.186987 3.13574e-20)
(1.5123 0.213583 -1.49919e-21)
(1.45798 0.188365 2.49079e-20)
(1.48012 0.216655 4.90905e-20)
(1.41778 0.184929 -2.51812e-20)
(1.44358 0.214922 -2.28162e-20)
(1.37454 0.176315 -3.62273e-21)
(1.4035 0.2084 -1.51211e-20)
(1.32506 0.159131 -4.07478e-22)
(1.36071 0.195954 1.46645e-20)
(1.31353 0.168853 2.52785e-22)
(0.0229775 -0.149138 0)
(-0.0224573 -0.147526 -2.12063e-20)
(0.0872609 -0.138815 1.32064e-19)
(0.0217343 -0.134474 7.46045e-20)
(0.172372 -0.133849 2.04635e-19)
(0.0866011 -0.128314 1.00551e-19)
(0.276347 -0.130807 1.11018e-20)
(0.170084 -0.125594 -6.04442e-20)
(0.397452 -0.125988 -6.0449e-20)
(0.271063 -0.1224 -5.95444e-20)
(0.533623 -0.116393 -1.07804e-19)
(0.388116 -0.115338 1.17255e-19)
(0.681644 -0.0999211 9.08715e-20)
(0.519564 -0.101885 -1.11687e-19)
(0.836249 -0.0756082 2.96789e-19)
(0.662482 -0.0804895 1.01244e-19)
(0.991513 -0.0436042 4.12722e-21)
(0.811637 -0.0507514 8.98675e-20)
(1.14073 -0.0049992 -1.48457e-20)
(0.96176 -0.0132516 4.79814e-21)
(1.27487 0.0379514 7.60696e-20)
(1.10694 0.0304944 7.53303e-20)
(1.38517 0.0818462 1.70496e-19)
(1.23818 0.0776845 -1.51618e-19)
(1.46638 0.123162 1.99097e-19)
(1.34695 0.124479 1.72899e-19)
(1.51814 0.15924 -6.27679e-20)
(1.42821 0.167125 3.42886e-20)
(1.54423 0.188717 -1.90695e-19)
(1.48138 0.202996 -1.41899e-19)
(1.55032 0.211349 -9.59163e-21)
(1.50977 0.231011 -1.40512e-19)
(1.54194 0.227541 4.84682e-20)
(1.51859 0.251261 1.3308e-19)
(1.52337 0.237876 -2.7765e-20)
(1.51281 0.26466 3.86687e-21)
(1.49745 0.242856 1.62948e-20)
(1.497 0.27182 1.38737e-20)
(1.46594 0.242866 2.35919e-21)
(1.4735 0.273724 -4.63967e-20)
(1.42978 0.238074 -1.28036e-20)
(1.44399 0.27084 2.20213e-20)
(1.38968 0.228276 3.48944e-21)
(1.40921 0.263061 -1.28832e-20)
(1.34354 0.210456 1.57219e-20)
(1.37048 0.250109 1.09195e-20)
(1.32849 0.223894 -4.0804e-22)
(-0.0250859 -0.132831 5.18671e-20)
(-0.0619412 -0.129277 -2.25898e-19)
(0.0196568 -0.123857 4.2309e-20)
(-0.0352762 -0.117493 -3.9932e-20)
(0.0827349 -0.119835 -1.60849e-19)
(0.00945812 -0.112863 -3.43379e-20)
(0.163225 -0.117042 -1.30402e-19)
(0.0710702 -0.111321 -6.18697e-20)
(0.260239 -0.111771 1.15473e-19)
(0.149148 -0.108788 -1.23993e-19)
(0.372694 -0.101068 1.15904e-19)
(0.24291 -0.10187 -1.15165e-21)
(0.499038 -0.0828431 -1.04296e-19)
(0.351413 -0.0879985 1.08162e-19)
(0.636448 -0.0561257 -1.03773e-19)
(0.473322 -0.0655789 -4.89247e-20)
(0.780381 -0.0210342 9.22278e-20)
(0.605809 -0.0341285 0)
(0.926084 0.0214515 9.42384e-20)
(0.744335 0.00581961 -9.28266e-20)
(1.0676 0.0693413 -1.5013e-19)
(0.884963 0.0529184 1.73336e-19)
(1.19669 0.119304 -1.48306e-19)
(1.02214 0.104715 -1.56735e-19)
(1.30539 0.167275 8.15706e-22)
(1.1476 0.157475 1.33881e-19)
(1.38844 0.20964 -4.99796e-20)
(1.25392 0.206967 -1.81202e-19)
(1.44461 0.244097 -8.60939e-20)
(1.33634 0.249583 5.19666e-20)
(1.47644 0.269899 8.28064e-21)
(1.39367 0.283189 8.57749e-21)
(1.48854 0.287471 8.84168e-20)
(1.42818 0.307267 3.9993e-20)
(1.48595 0.297911 4.88223e-20)
(1.44364 0.322582 -2.31115e-20)
(1.4729 0.302332 -4.91313e-20)
(1.44457 0.330242 4.56922e-20)
(1.45182 0.30135 -2.92201e-20)
(1.43525 0.331804 -1.38805e-20)
(1.42366 0.295487 2.21573e-20)
(1.41879 0.328834 -1.32838e-20)
(1.39015 0.284815 -5.31941e-21)
(1.39406 0.320382 -6.86814e-21)
(1.35055 0.26716 -5.38205e-21)
(1.36321 0.307229 1.27185e-21)
(1.33011 0.283224 2.84095e-22)
(-0.0730797 -0.113927 -3.20712e-19)
(-0.101512 -0.108661 -4.22547e-20)
(-0.0464462 -0.106399 -1.16935e-19)
(-0.091408 -0.097902 7.47751e-20)
(-0.00340805 -0.104108 6.51531e-20)
(-0.0652368 -0.0951586 1.07473e-19)
(0.0557744 -0.102872 -5.45629e-20)
(-0.0236006 -0.0956609 -3.35149e-20)
(0.13064 -0.0988072 -2.41742e-19)
(0.0334881 -0.0950188 -2.80289e-19)
(0.220562 -0.0888872 -1.10622e-20)
(0.105546 -0.0897249 -1.17446e-19)
(0.324665 -0.0709647 1.65245e-19)
(0.192012 -0.0771686 2.22963e-19)
(0.441555 -0.0439014 5.4265e-20)
(0.292091 -0.0556749 -1.59279e-19)
(0.568562 -0.00767734 -1.83481e-19)
(0.404493 -0.0245868 9.95964e-20)
(0.701882 0.0367978 -1.64207e-20)
(0.526411 0.0157348 -3.72457e-19)
(0.837635 0.0877754 1.7094e-19)
(0.65427 0.0639807 1.73336e-19)
(0.970379 0.142339 1.319e-19)
(0.784932 0.118007 7.36403e-20)
(1.09296 0.196449 -4.61082e-20)
(0.912966 0.174562 -7.1762e-21)
(1.19861 0.245952 -6.5834e-20)
(1.03136 0.229561 -2.40594e-19)
(1.28258 0.28754 1.53249e-19)
(1.1341 0.278932 2.15855e-19)
(1.3432 0.319437 4.44884e-20)
(1.21704 0.319607 3.79375e-21)
(1.38184 0.341454 -7.45011e-20)
(1.27878 0.350095 -3.62969e-20)
(1.40157 0.354198 -2.89419e-20)
(1.32045 0.37038 -4.62246e-20)
(1.40667 0.358899 8.44069e-20)
(1.34407 0.381037 6.29225e-21)
(1.40196 0.358578 2.9425e-21)
(1.35402 0.383568 6.00551e-20)
(1.3891 0.353507 -4.23489e-20)
(1.35458 0.381158 -1.32438e-20)
(1.36758 0.34269 -3.86322e-22)
(1.34565 0.374555 -1.19517e-21)
(1.33834 0.326179 6.88198e-21)
(1.32882 0.36329 -4.94985e-21)
(1.30922 0.342685 9.67263e-21)
(-0.120424 -0.0926106 3.50475e-19)
(-0.140377 -0.0858424 1.83015e-19)
(-0.110745 -0.0865438 2.97991e-19)
(-0.145945 -0.0759653 1.70188e-19)
(-0.0862768 -0.0864272 1.14265e-20)
(-0.136992 -0.0753035 -3.48308e-20)
(-0.0467661 -0.0875485 -2.5532e-19)
(-0.113764 -0.0784197 6.16756e-23)
(0.00752133 -0.0857527 -1.58671e-19)
(-0.0759998 -0.0804877 -6.21672e-20)
(0.0761898 -0.0779389 1.09934e-19)
(-0.0241041 -0.0778819 0)
(0.158708 -0.0619237 -9.57134e-20)
(0.0415678 -0.0679655 1.6688e-19)
(0.254246 -0.0364333 -1.15458e-19)
(0.12054 -0.049015 -1.04467e-19)
(0.361441 -0.00122727 -8.3463e-20)
(0.21204 -0.0202867 5.08533e-20)
(0.477844 0.0428759 -1.8886e-19)
(0.314704 0.0180592 -4.55817e-20)
(0.600385 0.0942351 7.63334e-20)
(0.425996 0.0648653 -8.25906e-20)
(0.725711 0.150372 -6.64352e-20)
(0.543254 0.118112 1.55607e-19)
(0.848921 0.207812 -2.03957e-19)
(0.66353 0.17512 -6.99868e-20)