/*--------------------------------*- C++ -*----------------------------------*  =========                 |
  \      /  F ield         | OpenFOAM: The Open Source CFD Toolbox
   \    /   O peration     | Website:  https://openfoam.org
    \  /    A nd           | Version:  11
     \/     M anipulation  |
\*---------------------------------------------------------------------------*/
FoamFile
{
    format      ascii;
    class       volScalarField;
    object      U;
}
// * * * * * * * * * * * * * * * * * * * * * * * * * * * * * * * * * * * * * //

dimensions      [0 1 -1 0 0 0 0];

internalField   nonuniform List<scalar> 
2880
( 
0.0779314443723577
0.1553099112003745
0.2370773942094719
0.27816865357195625
0.3497759038322844
0.44237300660709056
0.11111840022465608
0.1880605008620137
0.2605458552630638
0.2986594863448031
0.36146595774844953
0.42903992583530914
0.12612927904522345
0.19787235266141945
0.26296091621179224
0.3013624981717641
0.36691518414362806
0.4468115644707015
0.13934849269186533
0.2044451697199119
0.2624601602202842
0.3018996417442171
0.37388877342701193
0.4627480308481712
0.15330657527028882
0.20984485736796762
0.260710661463515
0.30301180096862235
0.37845788821017234
0.4737234899656493
0.1666269241503597
0.2136732077683841
0.2583336521883921
0.3035535816630335
0.3811303708684791
0.47737317835891707
0.17912985707645276
0.21690810478184624
0.25648561043881496
0.30313791994136624
0.3818598442795848
0.47737358919785006
0.1895798368067308
0.21943822607127036
0.2548915929851266
0.3026893253634142
0.3809973914101978
0.47480206906713196
0.19800006435610004
0.2206510875261444
0.25290779053555573
0.30182413657084006
0.37946533886995126
0.470856374520136
0.2045668119529886
0.2217211896159594
0.25162370766019826
0.3005530934626031
0.37795988976261397
0.4671335114379356
0.20957915479186573
0.2230339660351537
0.25181335043770586
0.3009670031361057
0.3760955600411428
0.46280872341639245
0.21135194115604386
0.22395052899178297
0.253660706575834
0.3011930959185728
0.37488440215785296
0.45980055022273464
0.2120790926406336
0.22514340214557102
0.2554975816270733
0.30368424343159267
0.3758275159199048
0.45868864257888586
0.20958772519518892
0.22529724613057997
0.25772503900819616
0.3078675964061488
0.3792500134959436
0.460503215536391
0.205406488833283
0.22571318771995047
0.2600833735983488
0.3117720476758073
0.38357909955250163
0.4643612723961092
0.19912468801274594
0.22485901868721736
0.26285272359055356
0.3147592557236072
0.38635085672305547
0.4678612319032048
0.1907096442064665
0.2245133786395115
0.26511610108276157
0.3175538756909578
0.38904837963080324
0.4703841986846938
0.18113759064111565
0.22305750884012274
0.2671284568721757
0.3181391049908971
0.3900526024806237
0.4720160712251151
0.16848341681978476
0.218981183911684
0.2688934915241265
0.31830480411087386
0.38964827882740505
0.47175922074217586
0.1537696520965184
0.21338665078132102
0.2690787728602085
0.3161737793798174
0.38667232557268794
0.4682032016348048
0.13746849188945526
0.2044505588362591
0.2681873212002859
0.31525131959913133
0.3822059198049683
0.46084217939015215
0.12108033495687408
0.19349961829876774
0.2654661157115766
0.3119414837618645
0.37735552764374125
0.4484980868431495
0.1029932143749094
0.17857308683879852
0.257316774760156
0.30561231441421993
0.3756364620073768
0.43158787205200183
0.06814949806974457
0.14293832112918162
0.23232232843887937
0.27885117736460535
0.3732231559171674
0.42015257245523246
0.8367670101126539
0.9143136393906345
0.9474311051643339
0.9661962772582653
0.98050599969551
0.9902603856332086
0.99664445993951
1.0130181142146142
1.0317389599535192
1.049058188547926
1.0683180654788673
1.0835886798855578
1.095354791511668
1.1009467095548202
1.1023406406902638
1.1030927658671188
1.1004868641442176
1.0951861864555386
1.0880962315601295
1.079094140210863
1.0664254960306498
1.0558760570846408
1.0410044461395263
1.0220690401667378
0.7573657808564904
0.8975423415134194
0.944885878230733
0.9703534693811422
0.9850398797612582
0.9971572353058681
1.0117512990899378
1.0285997905841462
1.050233551265428
1.0704643315878266
1.0892161344882247
1.1017560825863493
1.1090636865340684
1.1130475278926515
1.1144748037805146
1.1103016469634865
1.107072913563754
1.1003984070224635
1.0914384831332453
1.0815151364729056
1.0675948990737418
1.054767484257531
1.0391482237084313
1.0201562905774562
0.7002219561178545
0.8636474029107178
0.928251836438509
0.9653693503590935
0.9869405984800818
1.0041781658464393
1.0240759929647498
1.0469441427521642
1.072871263340675
1.0920505823061113
1.1075516927798212
1.1184743067126004
1.1228744562787933
1.1237636412801728
1.1212976641237578
1.1164085629320828
1.1103932584833358
1.100528581608796
1.0931798387958127
1.0797842818165937
1.0699997541160169
1.0564154852083913
1.0387894683457506
1.0201755350098782
0.667935680440458
0.8264530027824154
0.9058354323333272
0.951097726512207
0.9812155249438735
1.00630555230888
1.037132657630795
1.0642560849098295
1.0881382519992224
1.1099549772512711
1.1222991562166917
1.1299697422194959
1.1323265845845876
1.130966234740134
1.1263358566508197
1.1181832368076956
1.113083996843359
1.1021780084989872
1.0917919062308334
1.082810287617257
1.0688105787344746
1.0560027175043871
1.0373050398509467
1.0188074603860915
0.6449956366555606
0.7920479686087617
0.878314819751844
0.9329678310235657
0.974245303220132
1.008355162796183
1.0432381086265572
1.075839690237583
1.1043917291005954
1.124191637232202
1.132962840369029
1.138222465503268
1.138353548206583
1.1346499626792184
1.1289058783235975
1.1219800467986745
1.1142316311099814
1.102858559585554
1.093043199103873
1.0822266105691876
1.0699995943281697
1.0548441680892242
1.0365650942487477
1.0172919870610289
0.6265125509895076
0.7630262400703317
0.8537548130686395
0.9172452747104239
0.9651337263066473
1.0091802232711242
1.0512420968133749
1.088417537989799
1.1136284953860516
1.1317181477691367
1.1390581505873418
1.1406373871893225
1.1382918103115647
1.13647293553698
1.128010711650432
1.1215467620304524
1.1098888719533784
1.1040754477926877
1.0926639362140025
1.081207432872712
1.06682462234067
1.050907466538351
1.0343220131783086
1.0170385475465724
0.6126802652651517
0.7384400180202243
0.830975036176461
0.9012367045194153
0.9597724514320427
1.010564987051645
1.057664586752715
1.093840886124263
1.123371113847701
1.1355447299635537
1.1413035389214166
1.1428118435038082
1.1399522479637867
1.134587799434748
1.126633553974937
1.1184052093898327
1.110767207133721
1.1013539867147673
1.0907981793341017
1.0794367730509298
1.066858618126159
1.052113228777924
1.0341486301008564
1.017073396560311
0.5976276975901339
0.7183332406733604
0.8139595071521649
0.889006365634054
0.9557615999080796
1.0151906320197546
1.0662773845528548
1.102866272703021
1.1247227553299812
1.1380551587917072
1.1412426704025966
1.1409996889149683
1.1366632753001076
1.1323202737599798
1.1245931972558412
1.1170964555097906
1.1116188892325034
1.1012823410704675
1.0912009186799638
1.0790145753674565
1.0650364731530948
1.0504634176235745
1.03512534176022
1.0189018071028293
0.5860766898460845
0.7042111447963773
0.8013824822056408
0.8830574836343822
0.9556637167311957
1.0228772717365366
1.072172206149277
1.101996405057489
1.1229490368629311
1.1339344094125356
1.1365629064731526
1.1351005559281704
1.1317878164055462
1.1265501977890764
1.122271650572391
1.1156163374937584
1.1055122733523668
1.0949057526784367
1.0874957622607224
1.0760549877490102
1.0660744767786103
1.052239181658624
1.0355171586259588
1.0167138236700353
0.5778807621216998
0.6941618075288664
0.7933682451769992
0.8806708100001938
0.9597562051978693
1.0267978302291085
1.0756575364068948
1.104447994597566
1.1207522404038646
1.1298691031164858
1.1309422269866245
1.130528901281914
1.1270036007726858
1.1226187468935367
1.1168580846597966
1.1091001304634829
1.1018925807729163
1.096086118249457
1.0840497072505273
1.0760483530040588
1.0643855034594918
1.0512237958379222
1.0361530314711915
1.018539634906163
0.5702723946326
0.6871457635166015
0.7903773369207017
0.8855030163112986
0.968157583464133
1.0341169420861738
1.0760799284853861
1.1009267251676884
1.1155679214246874
1.122918411638757
1.1246517841433208
1.122954677485083
1.1204623293270513
1.1174469062534143
1.111183765125851
1.1064754292525216
1.0991498214332065
1.0930714024109576
1.083345925376762
1.0739379885049871
1.064322540192051
1.052655867886921
1.0380734867999901
1.0217948255984435
0.5656642755570372
0.6854714801197781
0.7923033441384608
0.8926800486726184
0.977149112790405
1.0378676894370038
1.07751805307302
1.0995250906683727
1.109567541706486
1.114207939657763
1.1167998482706352
1.1157514217796123
1.1141872492441012
1.1095290696451574
1.1066753162608205
1.099827543477081
1.094517235303235
1.0890446719384164
1.0821183468404312
1.074492244472592
1.062611248413095
1.053324237908104
1.03982184058372
1.0240917478457425
0.5648970755681113
0.6876804203253044
0.7987831815129938
0.9045225244668058
0.9873578058002047
1.0408584249027348
1.0757148123743894
1.0929936944254215
1.1037075715044486
1.1061032521451595
1.1096854782539936
1.1080497145005568
1.1071701519784263
1.1038058109492603
1.1009528599487584
1.0954931934757655
1.0905548332395356
1.0862664554290133
1.0809084898447883
1.0732739038658277
1.0659363167212579
1.0542538439585543
1.041558857178088
1.0258240274957537
0.5682752351923559
0.692717968234793
0.8127090279985175
0.9191356515061434
0.9954524754470103
1.0452864707944103
1.0698118494672617
1.0880142853053578
1.0958262881695053
1.0995845444413805
1.1034336596457492
1.101541369093681
1.1006706940232605
1.0973996777133384
1.0954925220533
1.0928495597520689
1.0873531358801534
1.0824213892383692
1.0795856131908217
1.071944136638284
1.064269991700083
1.055514713016998
1.0415670119130263
1.0295952237367558
0.5734339399904574
0.700658459611274
0.8277819750843329
0.9329112853963146
1.000606169138973
1.041175921075882
1.0654926912645677
1.0806630835795796
1.0871271795616975
1.0898987617364926
1.0930134919854007
1.0944425004027143
1.0939498154976437
1.094286566744296
1.0905833347225988
1.0896480266492452
1.0845322606090944
1.0827359639644998
1.0790606151503137
1.0735408998466636
1.0674385389083936
1.0575116183224873
1.0458868809245871
1.0321333686025516
0.5803955108594695
0.7167238542043006
0.8504678435057013
0.9467270215063626
1.0071642297026637
1.0412566013066333
1.0615290656672647
1.0720845407212916
1.0820833756553991
1.0851185670515413
1.0875718959324039
1.0880082544987826
1.088781853711329
1.0864044953548369
1.087319139264359
1.0865686007172288
1.0838376335159006
1.079945169163498
1.0787440367380652
1.07197722340497
1.0661577388434338
1.0575973806718326
1.0444789916728217
1.0321651172624409
0.589826360136838
0.7395304100834882
0.8731334108365
0.9597030407582726
1.008516870484714
1.0369169067275585
1.0554943710322657
1.0682064962661642
1.0747090460927047
1.0771462306926123
1.0798751275209335
1.0818178685619293
1.084455003824866
1.0827677720975142
1.0822298960970131
1.083529109112447
1.0826463123995074
1.0797861904392474
1.0766456257065184
1.0721833292090368
1.0650026177740348
1.0567746834624914
1.044776302532305
1.0302052351079394
0.6008947328564692
0.7658272969697417
0.8960541251953683
0.9710337096749848
1.0111633132529194
1.0364136373177568
1.0508986201500679
1.0587769542746948
1.066310130490523
1.070032537769145
1.0727441393190338
1.07798324941315
1.077950461849824
1.07859256158609
1.0799880151923644
1.0816768421265142
1.0799088040207563
1.078133360541611
1.0747822266578688
1.0732677911837125
1.0666773437445733
1.0565162598562305
1.0442452019741029
1.0311807022207715
0.6140378323101484
0.7977760629004685
0.9166361735349763
0.9756481557943241
1.0092441929075542
1.027947291854726
1.0418897851255748
1.0524679973753164
1.0603300041184633
1.062138254322498
1.0672428230718947
1.0711095917222013
1.072791616293507
1.075247298289128
1.0798767832594134
1.079517331868626
1.0784646394548694
1.0779718598833845
1.0764478037644933
1.0720648228200391
1.0665626365585983
1.0567529553464734
1.0429102003917072
1.0280272900414018
0.6316345707717376
0.8314587857388852
0.9303382543164973
0.9799187268467651
1.0081272189629165
1.0233291810051581
1.0348638300259092
1.043510592574204
1.0500430725492227
1.0547094399571466
1.0616506368560619
1.0635992494787425
1.0701533541320705
1.0739056622032777
1.0761732297461686
1.0799236566432444
1.0774802034930215
1.0751623499280258
1.075316376682388
1.068573608058879
1.0637322849637105
1.0550584417929207
1.0423285502182793
1.0264938312925702
0.6594625109714594
0.863239024780169
0.9399257193795184
0.9761545572108947
1.0008492853271227
1.016621869923722
1.0276142149651462
1.0341295820749985
1.0423977380868197
1.0487634944947244
1.0563659948829283
1.0617808151543418
1.0664504213837314
1.0714132557556675
1.0736361402297667
1.07368585418103
1.0757340242745819
1.0749781128252711
1.0744296045284343
1.0665851236926949
1.0625716922959099
1.0524341069799483
1.0398149035717592
1.0245500226512356
0.7009997922372402
0.8852333134179798
0.944980908245433
0.9751070888610783
0.9949005848445963
1.0078235399335582
1.0182623129490498
1.0261149242837688
1.034269651509133
1.0421912339255524
1.051512667920555
1.0570108625229861
1.06282564927719
1.06887766179397
1.070876595075322
1.073158685677761
1.0763210326228416
1.073479170743364
1.0719774987778246
1.0664120732485245
1.059324151634441
1.0500769546201931
1.0383544954426531
1.0235244293072694
0.7594132172343601
0.8970173345818439
0.9420371865170142
0.9680288967909118
0.9868752417733054
0.996706204157356
1.0092976245417222
1.0170997938863662
1.0246206976884777
1.0363325603317775
1.045281033981172
1.0543053215321012
1.0633398603622788
1.0665611686249161
1.067955850299479
1.0726733107332456
1.0711674750711802
1.0712151609134581
1.0680503305993183
1.063313513375564
1.055127532975583
1.0456224529162246
1.0337463469974133
1.021733301320808
0.8177016515949908
0.8955783516686434
0.9312509874767066
0.9574165685614786
0.9754951593898897
0.9876710470246569
0.997401992935144
1.0103251580783121
1.0205794516684037
1.0321312448268802
1.0432885255996676
1.0507515327340633
1.0601192425363395
1.0659550456906701
1.067298346556371
1.070687445005807
1.0716419589128172
1.068368337218289
1.0653718631616802
1.059724449670388
1.0531690400413445
1.0441172686553521
1.0332224747497925
1.0184443464586057
0.06480222385059532
0.12811311072479592
0.20496247436556614
0.2599054564651021
0.3256169192397267
0.4461964215177571
0.09081229856320282
0.15596989114625484
0.22711919536490233
0.2759747287597417
0.33498413059689824
0.403520486105353
0.10345774083658398
0.16739123166087155
0.2322605857852923
0.27801374133940737
0.3362148661913112
0.4012399986627222
0.11488235655691925
0.17622616743926528
0.2347839111621237
0.27761203364474246
0.33402562236827177
0.40191238973307203
0.12664005158291294
0.18330578495170954
0.2351392820622191
0.2761254719938205
0.3314104799562607
0.3970445901445928
0.13783105627452813
0.18873405724514108
0.23552389841625468
0.27504077770469815
0.3278497901830874
0.390513730856885
0.14805242802539995
0.1926695733230569
0.23554835916340913
0.2732014248312104
0.32384886811963964
0.38234937851565776
0.1563846584999578
0.19547178016453784
0.23418085612660786
0.2709572139832994
0.31914881808665463
0.37413277161294906
0.16280405559615888
0.19751052654209536
0.23389054555542385
0.2701226939250739
0.3159437030262598
0.36773436737260023
0.16823931090220237
0.19876193244647541
0.23406118066175402
0.26955374171792457
0.31399088499584965
0.3639751543576974
0.17157009294016592
0.1999934399148983
0.23530550214650683
0.2704955024792713
0.3144042781688892
0.3631777109576472
0.17369157121778048
0.2010183865591326
0.23632503540536826
0.27302194848088757
0.317738594727832
0.3653185656748732
0.17395916339934878
0.20173619719076516
0.23858775804072885
0.2772200094106265
0.3220074482971019
0.37008408395507936
0.17210376968177502
0.20217515833199465
0.24065523793770094
0.2813770824140527
0.32834603213077657
0.3775983105986272
0.16916411134073536
0.20128322245454583
0.24283745336898124
0.28563600314735177
0.33542368414050033
0.385305138377041
0.16408964394623204
0.20024446419247302
0.24443737904993446
0.29037275673082863
0.34239057884661234
0.394052508784211
0.15758119698442147
0.19808248129838088
0.24540594925113965
0.2943666946145831
0.3494176052994301
0.40376107997719596
0.1494871667039416
0.19524961481901906
0.2463489096439138
0.2964444204353203
0.3548324494827368
0.4125638588580113
0.13911757161344507
0.1907880152018864
0.2458112209854179
0.2979716962373182
0.35961479638221605
0.4196915552867252
0.1270599194004483
0.18382306073380558
0.24332392940785771
0.2967751205173624
0.3614098997561829
0.4262328643818418
0.11308942897266808
0.17362008861981257
0.23999904532361505
0.2942686075325555
0.3624022444982597
0.42977172700828403
0.0992118342387847
0.16162273320753753
0.2331302099417636
0.28932232864841695
0.36033057815448627
0.4302609598506943
0.08440957147605038
0.14653925536126566
0.2229470741256832
0.28031831991451495
0.35595015187579904
0.42814530585616384
0.05821287510944081
0.11571241599746697
0.1957289613984668
0.2546072129513931
0.3425578856985998
0.43868311182224307
0.7821329023613313
0.8698884185672997
0.9139226587229408
0.9424026584611767
0.9597733389256042
0.9759312742634428
0.987052234322795
0.9998141906029958
1.0137717866198765
1.0279540830237555
1.0415265792597863
1.0493319858768395
1.0561975859695076
1.0616320128112662
1.069574010603949
1.0691586989927597
1.067772847907352
1.0647247130558148
1.0624488933158343
1.0566175663294644
1.0508639818575498
1.0409529291921669
1.0302306774051535
1.0187442453116013
0.6695678321030731
0.8175621618134602
0.8829418039518113
0.919937681072114
0.9428869587870298
0.9595611362043944
0.97489313004152
0.9917199285995212
1.0085789357799473
1.0247001812508825
1.037182831400622
1.046750985835818
1.0542522613945287
1.0610608694441184
1.0635955984186836
1.0658098900257245
1.0639867305382997
1.062930298757136
1.0581329046700407
1.0531164757278204
1.0457266173572606
1.036214585894298
1.0259975221368889
1.01407865007711
0.5981890027862947
0.754656029918951
0.8378917426134561
0.8857214969603411
0.917889509329819
0.9399263551285253
0.9615156593013992
0.9819632250553213
1.0027400673809324
1.0187766546794657
1.0322190599105563
1.0428245898967914
1.0514534545874112
1.0567774924946862
1.0605399589561377
1.060699150196528
1.059013942361825
1.057169025285316
1.0524532329280354
1.0471565734777777
1.0402718884844817
1.0319339706936128
1.0211693795267274
1.0131408809924578
0.5532737110816057
0.6954995612966486
0.7844474120000465
0.8429155853508244
0.8834296240598015
0.9131746432957437
0.9422465031852469
0.9683807467582876
0.9929442233729847
1.0120508271272317
1.026816830259176
1.0394575081447839
1.0458939661386708
1.0509142445331372
1.0548748146779547
1.0537817726820453
1.0518745875167153
1.0494745042168512
1.0466707610791928
1.0427005874798587
1.034444652099759
1.0260757515413959
1.0169497742460625
1.0045657961849588
0.5199831814513668
0.6460133814990439
0.7341638266804387
0.7991674428203536
0.8444193515302545
0.8845848899945017
0.9217247814634599
0.9535888608572414
0.9783662687761172
1.0008903751499731
1.016605731920111
1.0281167180344903
1.036276031285936
1.0404102381124356
1.041217769793122
1.0430927217792494
1.0423093784233657
1.0403840207184833
1.0356443398250728
1.0330959578111754
1.0281827802928882
1.0203746579894177
1.009459398032024
1.0003437693684913
0.4931954700651957
0.6029548813800395
0.6916252788059549
0.758100629970155
0.8090021823853781
0.8558686046837423
0.8966092255127326
0.9343556753070443
0.9622467999924047
0.9879713081302501
1.0032252403748778
1.015367409589652
1.0241989318508853
1.0279176777078056
1.0307001742544908
1.032029536226362
1.032484874993977
1.0309956047796283
1.0269302505657985
1.0229067713284128
1.0186188430141014
1.0107231675494035
1.0033965434198413
0.9929075785859174
0.4721021352817162
0.5694337910067049
0.6528569970840152
0.7214874290699822
0.7788519635766531
0.8308034243352815
0.8776864911529229
0.9181585938519192
0.9509921503772056
0.9734132385970875
0.9901460895928471
1.0007249266590332
1.009209536240174
1.01397783518015
1.018385609579928
1.0209883358720535
1.018786717449245
1.0201375123500829
1.0175286754833628
1.0133489716415265
1.0095573488321805
1.0031254243049288
0.9962864761190715
0.987852415545431
0.4535775991872306
0.5429079554915645
0.6224093721674048
0.6910007641671717
0.7535235059367826
0.8121284726150624
0.8632009510914745
0.9066467596579623
0.9352080440446829
0.9578881227751479
0.9762317503425887
0.9870941852181416
0.9929176573787833
1.0011213494236368
1.0048528105392114
1.008658431553846
1.008550853681174
1.0097886112217302
1.009061939865175
1.005727844714792
1.0005420446408508
0.996390254816671
0.9884547321521913
0.9835103073258787
0.4378751442011448
0.5208252372679674
0.5992455997757795
0.6680597434482382
0.7364221541738818
0.8012679613166435
0.8548553679775318
0.8958751119643479
0.9261742748582912
0.9478849820885302
0.9621689318306955
0.9737463821254217
0.9813476740018241
0.9901867810625576
0.9929582534339579
0.9968687995582296
0.9979046250359481
1.0004373365742858
0.9989270563619487
0.999065249098917
0.997514749638404
0.9913378819650223
0.9839348092492892
0.978590486272393
0.4300609453404822
0.5074573603304221
0.5821262227615339
0.653438618870921
0.7293884218745686
0.7969034382703608
0.8501897485953248
0.8896153909030489
0.9182336065666872
0.93853989110424
0.9535901034632315
0.9625062898288522
0.9751852134533409
0.9815237953866768
0.98387577852498
0.9875893621718093
0.9907275424289129
0.9911510543278366
0.9926651045699497
0.9938037049433749
0.9922556393917279
0.9891421486375249
0.9826746880024024
0.9782185076963551
0.42745228206373315
0.5012892358457713
0.5762560488899047
0.6534902857889153
0.7301979524375191
0.7988111787160479
0.8501579347764627
0.8877863274770704
0.9125745356395896
0.9322548798160079
0.9460291798554136
0.9573373394355277
0.9665087517969969
0.9743865941215849
0.9789608193562535
0.9834509862398566
0.9851939653318651
0.9894313604482775
0.990437609673561
0.989408987240978
0.9895716186769572
0.9893987794223471
0.9848193537013911
0.9794358364223268
0.42812049927476614
0.5027097556756878
0.5780293337478046
0.6618513388542804
0.7430746640229838
0.8080291068926058
0.8560514277369144
0.8868887356134284
0.9110603191998294
0.9293041091771884
0.9425604028903992
0.9529925694179489
0.9639010604532204
0.9709623756751302
0.9772335821691905
0.9818240586494122
0.9844944439389436
0.9870320912742641
0.9896058159697843
0.9914942445159081
0.9920071586388811
0.9928389962943728
0.9892782769209896
0.9859486559771898
0.4315323477885138
0.5069862633057023
0.5879770315282224
0.6800588434159902
0.7592943194969385
0.819184997787582
0.8623814280619212
0.891000124505963
0.9125320935177131
0.9299524223673195
0.9445243296128121
0.9535858191272004
0.9633843411497744
0.9696506675836954
0.9774484960529133
0.9821456346960563
0.986164018371333
0.989063858760738
0.9906451725181262
0.9957282670119669
0.9962246650816142
0.9989606013642446
0.9958416658584037
0.992414494061459
0.43937333077679397
0.5153940080522582
0.6057673065323976
0.7015663761194115
0.7795906252588976
0.8324707184650406
0.8706610194724745
0.8995536382846583
0.9179573059421441
0.9328061413479893
0.946091731361275
0.9564747081550438
0.9668188164860696
0.9744893630172314
0.9805614548790226
0.9837450546050824
0.9899139723413345
0.9969395127573736
0.999850364688881
1.0049642080730596
1.006959325612427
1.0056958214809777
1.0020285283772903
0.99915781122541
0.45030137174358775
0.5310784900485147
0.6302314718173414
0.7283462989314144
0.800170933604485
0.8467939459536146
0.8790231648217794
0.9042794655020697
0.9222226592960325
0.9383191433660242
0.9536451236779945
0.9629605533530248
0.9729772777852962
0.9782688135287733
0.9867497158233073
0.9951860344498464
0.9984579697706366
1.0044017485836525
1.0093430784898612
1.0137230977269225
1.0151007031267345
1.0161765629235382
1.0120698069346272
1.0068031267556854
0.4620541890588444
0.5528607750500462
0.6623662092840437
0.7572029683372934
0.818837849667378
0.8598559090363721
0.8894576748569856
0.9125733648155667
0.9318351976797311
0.9463517454871415
0.9572396882315883
0.970390316289582
0.9797563478246397
0.9875294182637153
0.9958213991059066
1.0023856993236124
1.0106595676161627
1.016282815777739
1.0208228315242756
1.0249700891824312
1.0275980742036648
1.0267734405099365
1.02049693547572
1.0143616317399955
0.4761051755619336
0.5836060146110119
0.7007600210705722
0.7853236822755674
0.837487065673769
0.8725039785564873
0.8988436374265854
0.9187386370450382
0.9373730749781819
0.9548253644115146
0.9680561899287262
0.9778340309681813
0.9883870736569509
0.9985929945794159
1.0079686948109896
1.0145723930639503
1.0209648277104366
1.0271986068675263
1.0332644922764807
1.0341641293595474
1.0371486472100113
1.035542214759011
1.0273965503955371
1.0229669252410065
0.4933435475246209
0.6212841503260217
0.7418036316518567
0.8142869419426112
0.8583144508329591
0.887517999308049
0.910491325667169
0.930279766904183
0.9477792479704514
0.9613600376864098
0.9755667142151865
0.986535944030357
0.997694759291612
1.009829409007986
1.0190512169238504
1.0275712873043525
1.0355650351642056
1.0402039151528788
1.043909835293768
1.0468319899128005
1.045685216745883
1.042537182501745
1.0337130476790344
1.0287702949352562
0.5147433141913831
0.66779839665066
0.7810507041663884
0.842579185482496
0.877893065319334
0.9022044651869173
0.9228888480444182
0.9405523137379987
0.9568455038874017
0.9736592902827215
0.9860270909726707
0.9987614887727496
1.0107097165975785
1.0222674885775267
1.0323351677065529
1.0401575128518543
1.0475205930142608
1.0521241715347875
1.0556754518788936
1.0554259304838065
1.0544793388153388
1.0475266279152093
1.04050078679941
1.0319586064642396
0.5422274835081772
0.7206197786887106
0.818841976403856
0.8669270911550676
0.8967612433178783
0.919804168872574
0.9361780250981137
0.9544874868967681
0.9686251842462312
0.9843449983596076
0.9967400832314289
1.0121325832351744
1.0244527579075984
1.034824949194205
1.0451418887125143
1.0538086302688587
1.0601316772591403
1.0622478616688422
1.0644918555862906
1.0615300829351597
1.059283849126126
1.0525359129036755
1.0441196772159258
1.032305194523398
0.5836732671011982
0.7751656075717009
0.853232215408254
0.8918635466715089
0.9155035031991161
0.93621009612023
0.9521416473954847
0.9681260619593632
0.9820813289588876
0.9956614480247827
1.011319940608464
1.0261548595031296
1.0384279940643955
1.050140335165268
1.0572841192414864
1.063951103972889
1.069289213132831
1.0714341277514166
1.071649700119036
1.0695556618451556
1.0643438046161113
1.0554604441698356
1.0440430450446427
1.0332016905167896
0.6428671410492989
0.8232333843038848
0.8851555886800425
0.9138473642229361
0.9376229928733125
0.9516717730975909
0.9698139044231803
0.9833329961042591
0.9984130177865403
1.0115513024711706
1.0248526956801955
1.0397865762501475
1.0520126275025892
1.0624792408484376
1.0703010125262142
1.0769942192209292
1.0781170944650689
1.078931231202487
1.0759588759078067
1.0734770775428522
1.0664202471897255
1.058311933498651
1.0440190097322448
1.031468432535907
0.7269780981586125
0.8639214133981844
0.9094153952997956
0.9350721708866283
0.954900419912122
0.968724706690457
0.9862011839196649
1.0011703428126881
1.013679522070548
1.0289756275507744
1.0440890396615194
1.0553461810634246
1.064698020495469
1.074495399010186
1.0809681284262838
1.0848848588592854
1.0871407366326478
1.083287540582784
1.0804479025953593
1.0772868711500967
1.0668546063766227
1.057421523552162
1.042819800167868
1.0288235744557508
0.8223098888858674
0.8950071251067756
0.9291696035537542
0.9530326922537933
0.9720532268209205
0.9878030648134022
1.002166378707688
1.0158907879131152
1.0287029930514737
1.0444746355431813
1.058889516842724
1.0715498381725495
1.078993375662276
1.0856621426725699
1.0899288377680476
1.0916623569360717
1.0925224585038074
1.0872967547584085
1.0840448911233103
1.07545976570083
1.0669533942529978
1.0550408893799215
1.0415767281494366
1.0253030043250755
0.0826414331229912
0.17021486597776694
0.2576616856066855
0.29958754305901497
0.36922583962173394
0.45017889533393496
0.11897943728633678
0.20490729692125395
0.2798824043798213
0.3173125945047629
0.377399828201418
0.4375688272040159
0.13675860367904055
0.21518648258950906
0.2810130923508389
0.3182637167081534
0.38007248108783287
0.4531579248147917
0.15180167598860403
0.2213572715922939
0.2783709486336344
0.31678252456964406
0.38381188206181754
0.4680198511741835
0.16754195400339777
0.2257218948401041
0.27559010305380366
0.3153863416532235
0.38672801787220956
0.47801657498335925
0.18156872610827757
0.22986001641907505
0.271698455535753
0.3131048996596265
0.3870800447089542
0.47959309340325207
0.19501283589543494
0.23217244210856994
0.2682902571584346
0.31143325173844655
0.38590578999451863
0.4788784701628598
0.2062723794054237
0.23382546351925282
0.26578358066424373
0.30990029772825767
0.38316123072367037
0.4759268853675642
0.21510960549441666
0.2349366840474759
0.2633401090526089
0.3080801622261905
0.38052068739981487
0.46884323488099405
0.22249085793559104
0.23618687061468926
0.2613735068684281
0.3055227209487857
0.3778183159938562
0.4647056621078646
0.2280758305188829
0.2369701676646811
0.26131755437616133
0.30407639516669804
0.37459138140448084
0.46089389605562164
0.2307598565387156
0.23741162820245207
0.26220391408754573
0.30470475556024623
0.37371420610033934
0.4588774131448327
0.23059941508949355
0.23889740030999496
0.2643443514970088
0.3075695221419957
0.3757435473813597
0.4599701708466384
0.22834560978745205
0.2391012073059445
0.26663100974936715
0.31124160983794164
0.3808746650184336
0.4638780454272502
0.22335904162902598
0.23839073522278148
0.26896303743398087
0.3154586034698461
0.3854268882088862
0.46893454742953833
0.2163031741364683
0.23847956923864108
0.27250172560433006
0.3200338233470213
0.3903290841913982
0.4732920565867231
0.20723518289013107
0.2379980344702447
0.2760572278558341
0.32332542132745506
0.3931194884318938
0.47821241867641995
0.1962532555923156
0.23642709763257871
0.27815750334136974
0.32628533669358034
0.3962294633420956
0.47975089037211455