/*--------------------------------*- C++ -*----------------------------------*\
  =========                 |
  \\      /  F ield         | OpenFOAM: The Open Source CFD Toolbox
   \\    /   O peration     | Website:  https://openfoam.org
    \\  /    A nd           | Version:  11
     \\/     M anipulation  |
\*---------------------------------------------------------------------------*/
FoamFile
{
    format      ascii;
    class       volScalarField;
    location    "0.9";
    object      epsilon;
}
// * * * * * * * * * * * * * * * * * * * * * * * * * * * * * * * * * * * * * //

dimensions      [0 2 -3 0 0 0 0];

internalField   nonuniform List<scalar> 
2880
(
3.21364
8.3951
11.2147
12.1462
10.7468
46.0536
1.1591
4.36387
5.96756
7.12187
10.057
15.8429
1.71913
3.41905
4.52656
5.51953
7.05761
9.32341
2.37769
3.05572
3.89835
4.74113
5.7541
6.76657
2.98439
2.88675
3.55269
4.27474
5.00361
5.48508
3.52352
2.80817
3.33869
3.96479
4.51176
4.7326
3.98675
2.77446
3.19693
3.74641
4.16982
4.24996
4.36983
2.76363
3.09913
3.5876
3.92773
3.92629
4.67081
2.76353
3.03006
3.47175
3.75861
3.70794
4.88905
2.76706
2.98086
3.38981
3.64543
3.56802
5.02554
2.77006
2.94596
3.33578
3.57857
3.49185
5.0846
2.77055
2.9216
3.30555
3.5526
3.47182
5.08094
2.76849
2.90502
3.29617
3.56411
3.50343
5.00471
2.76002
2.89407
3.30507
3.61136
3.58947
4.8518
2.7419
2.88731
3.33037
3.69752
3.73341
4.61924
2.71127
2.88395
3.3737
3.82232
3.94369
4.30543
2.66625
2.88471
3.43639
3.98955
4.23516
3.90995
2.60918
2.89319
3.521
4.20772
4.63164
3.43456
2.54676
2.9191
3.63556
4.49021
5.17878
2.88509
2.49357
2.98525
3.79959
4.86334
5.97822
2.27468
2.48137
3.14231
4.06114
5.38396
7.27797
1.62829
2.60021
3.51442
4.55441
6.1897
9.84705
1.117
3.20037
4.55885
5.76512
7.66398
16.5329
2.82324
6.92254
9.34311
10.5329
10.8884
51.8066
13.7736
4.7018
1.78938
0.703591
0.279974
0.118106
0.0545339
0.0276121
0.0151039
0.0088267
0.0054118
0.00344967
0.0022854
0.00157905
0.00114309
0.000870264
0.000697656
0.000587488
0.000516467
0.00046978
0.000437848
0.000415071
0.000398617
0.000387263
8.966
3.93348
1.60477
0.643205
0.258334
0.10983
0.0510691
0.0259746
0.014226
0.00830142
0.00506571
0.00320861
0.00211186
0.00145141
0.00104777
0.000798354
0.000643142
0.000546197
0.000485406
0.000446756
0.000421305
0.000403873
0.000391786
0.000383546
6.76458
3.32717
1.42697
0.583979
0.23781
0.102302
0.0480281
0.0245771
0.013492
0.00786872
0.00478276
0.00301263
0.00197155
0.00134879
0.000971608
0.000741294
0.000600238
0.000514007
0.000461423
0.000429121
0.000408695
0.000395337
0.000386571
0.000380694
5.45361
2.86987
1.27266
0.530733
0.219474
0.0957159
0.0454312
0.0234122
0.0128937
0.00752097
0.00455709
0.0028572
0.0018608
0.00126815
0.000912033
0.000696905
0.000567093
0.000489347
0.000443213
0.000415839
0.000399251
0.000388942
0.000382622
0.000378558
4.57982
2.51995
1.14467
0.485446
0.203876
0.0901826
0.0432891
0.0224727
0.0124296
0.00725314
0.00438455
0.002739
0.00177689
0.00120723
0.000867149
0.000663583
0.000542338
0.000471048
0.000429794
0.000406118
0.000392396
0.000384341
0.000379739
0.000377049
3.97789
2.25452
1.04236
0.44863
0.191203
0.0857409
0.0416055
0.0217566
0.0120923
0.00706143
0.00426231
0.0026557
0.00171786
0.00116436
0.000835548
0.000640129
0.000524946
0.000458229
0.000420413
0.000399327
0.000387619
0.000381172
0.000377793
0.00037607
3.55672
2.0562
0.96351
0.420058
0.18144
0.082388
0.0403784
0.0212609
0.011875
0.00694326
0.00418858
0.00260577
0.00168234
0.00113835
0.000816184
0.00062563
0.000514121
0.0004502
0.000414486
0.000394984
0.000384531
0.000379188
0.000376634
0.00037548
3.26251
1.91232
0.905669
0.399243
0.174489
0.0801045
0.0396043
0.0209835
0.0117757
0.00689755
0.00416252
0.0025884
0.00166956
0.00112847
0.000808388
0.000619474
0.00050932
0.000446501
0.000411634
0.000392776
0.000382963
0.000378159
0.000376017
0.000375179
3.06253
1.81394
0.866734
0.385706
0.170253
0.0788756
0.039282
0.0209247
0.0117929
0.00692124
0.00418112
0.00260109
0.00167767
0.00113344
0.000811233
0.000621014
0.000510111
0.000446861
0.00041172
0.000392696
0.000382806
0.000377985
0.000375868
0.000375103
2.93691
1.75516
0.845241
0.379122
0.168682
0.0786972
0.039403
0.0210716
0.0119163
0.00700909
0.0042411
0.00264125
0.00170451
0.00115155
0.000823939
0.000630157
0.000516589
0.000451278
0.000414633
0.000394535
0.000383834
0.000378504
0.000376075
0.000375139
2.874
1.73244
0.840492
0.379362
0.169712
0.0795288
0.0399593
0.0214319
0.0121553
0.00716706
0.0043474
0.00271482
0.00175626
0.00118832
0.000849877
0.000648216
0.000529121
0.000459941
0.000420545
0.000398488
0.000386333
0.000379883
0.000376713
0.000375293
2.86779
1.74419
0.852698
0.386511
0.173464
0.0814686
0.0410057
0.0220357
0.0125299
0.00741091
0.00451156
0.00282746
0.00183439
0.00124266
0.000887918
0.000675018
0.000547993
0.00047314
0.000429665
0.000404671
0.00039037
0.000382266
0.000377841
0.0003756
2.91616
1.79106
0.882756
0.40129
0.180331
0.0847015
0.0426275
0.0229207
0.0130546
0.00774447
0.00473297
0.00297784
0.00193812
0.00131521
0.000939169
0.00071144
0.000573871
0.000491403
0.000442396
0.00041337
0.00039608
0.000385715
0.000379615
0.000376178
3.02243
1.87588
0.932156
0.424388
0.190542
0.0892934
0.0448453
0.0240948
0.0137328
0.00816908
0.00501241
0.00316759
0.00206967
0.00140781
0.00100508
0.00075866
0.000607709
0.0005155
0.000459354
0.000425071
0.00040385
0.000390493
0.000382158
0.00037708
3.19246
2.00352
1.0036
0.457068
0.204609
0.0954394
0.0477301
0.0255844
0.0145753
0.00869102
0.00535478
0.00340041
0.00223183
0.0015227
0.00108748
0.000818167
0.000650731
0.000546436
0.000481345
0.000440402
0.000414147
0.000396929
0.000385691
0.000378426
3.43726
2.1814
1.10103
0.501087
0.223224
0.103397
0.0513804
0.0274305
0.0156002
0.00931962
0.00576583
0.00368039
0.00242778
0.00166246
0.00118849
0.000891753
0.00070444
0.000585458
0.000509384
0.000460162
0.000427572
0.000405456
0.000390501
0.000380368
3.77417
2.42021
1.22976
0.558756
0.247276
0.11349
0.0559167
0.0296809
0.0168279
0.0100653
0.00625182
0.00401194
0.00266097
0.00182995
0.00131055
0.000981494
0.000770607
0.000634066
0.000544718
0.00048535
0.000444889
0.000416618
0.000396944
0.000383078
4.23072
2.73513
1.39666
0.632979
0.277861
0.126112
0.0614818
0.0323916
0.0182822
0.0109395
0.00681935
0.00439964
0.00293499
0.0020282
0.00145629
0.0010897
0.000851253
0.00069401
0.000588833
0.000517185
0.000467047
0.000431098
0.000405449
0.000386756
4.85272
3.14763
1.61033
0.727204
0.316257
0.141715
0.0682363
0.0356243
0.0199901
0.0119544
0.00747515
0.00484801
0.0032534
0.00226025
0.00162842
0.00121881
0.000948576
0.000767242
0.000643427
0.000557101
0.000495191
0.000449743
0.000416555
0.00039166
5.71459
3.68782
1.88068
0.845135
0.363813
0.160772
0.0763449
0.039439
0.0219875
0.0131233
0.00822584
0.00536134
0.00361954
0.00252902
0.00182962
0.00137132
0.00106488
0.000855881
0.000710421
0.000606794
0.000530758
0.000473621
0.000430768
0.000397966
6.95251
4.40046
2.218
0.989999
0.42169
0.183709
0.0859616
0.0438954
0.0243009
0.0144582
0.00907759
0.00594349
0.0040364
0.00283718
0.00206242
0.00154968
0.00120254
0.000962194
0.000791921
0.000668145
0.000575296
0.000503859
0.000448864
0.000405936
8.87421
5.33102
2.62888
1.16301
0.490358
0.210754
0.0971906
0.04904
0.0269448
0.0159687
0.0100357
0.00659785
0.00450662
0.00318712
0.00232917
0.00175627
0.00136396
0.00108854
0.00089018
0.000743214
0.000630584
0.000541872
0.000471817
0.000415939
12.4426
6.60512
3.11641
1.36121
0.568796
0.241718
0.110024
0.0548862
0.0299284
0.0176618
0.0111047
0.00732737
0.00503248
0.00358094
0.00263202
0.00199332
0.00155144
0.00123726
0.00100752
0.000834216
0.000698632
0.000589346
0.000500849
0.000428451
21.1852
8.58989
3.67666
1.57431
0.653556
0.27575
0.124285
0.0614045
0.033251
0.0195424
0.0122884
0.00813468
0.00561602
0.00402047
0.0029728
0.00226281
0.00176711
0.00141063
0.00114628
0.000943476
0.000781659
0.000648241
0.000537425
0.000444057
4.49733
3.3704
2.28548
1.73782
1.69593
4.27659
1.38563
1.82624
1.52307
1.3283
1.75026
5.08989
1.95116
1.86022
1.50307
1.46992
2.18975
6.05925
2.4177
2.0366
1.64076
1.68495
2.66607
6.72377
2.7744
2.16029
1.79698
1.91396
3.09787
7.10224
3.06636
2.24349
1.9444
2.14444
3.47172
7.24599
3.31716
2.30765
2.0854
2.37408
3.78859
7.23256
3.53557
2.3638
2.22386
2.60124
4.05547
7.10048
3.72457
2.41759
2.36132
2.82365
4.27535
6.89789
3.88544
2.47438
2.49791
3.03838
4.44263
6.66408
4.01927
2.53835
2.63767
3.23807
4.5606
6.4224
4.12759
2.61405
2.78057
3.41812
4.63861
6.18724
4.21301
2.70825
2.92396
3.57598
4.69225
5.96639
4.24329
2.81438
3.06572
3.71561
4.73235
5.77081
4.22034
2.93033
3.20763
3.84415
4.76689
5.61429
4.12866
3.05977
3.35503
3.97072
4.8088
5.50912
3.96742
3.21035
3.51672
4.10652
4.87306
5.47279
3.73347
3.39385
3.7059
4.26528
4.97685
5.51219
3.41999
3.62843
3.94327
4.46523
5.14179
5.64807
3.01337
3.93496
4.26454
4.7348
5.40436
5.93446
2.50308
4.35459
4.74229
5.12705
5.82858
6.44686
1.88141
5.04912
5.55716
5.76969
6.52476
7.46454
1.25369
6.51145
7.42472
7.12155
7.6922
10.4728
4.69824
10.6289
13.4262
11.7345
9.36934
30.0439
18.3387
9.6809
4.12712
1.77027
0.737519
0.311228
0.139621
0.0685248
0.0369029
0.0216137
0.0135906
0.00902267
0.00625934
0.00450746
0.00335319
0.00256647
0.00201287
0.0016107
0.00130869
0.00107336
0.00088204
0.000720753
0.000583261
0.000463475
14.9651
9.47151
4.3656
1.92184
0.813614
0.346381
0.155624
0.0761641
0.0408738
0.0238809
0.0150168
0.00999523
0.00696511
0.00504385
0.00377482
0.00290589
0.00229039
0.00183936
0.00149685
0.00122618
0.00100225
0.000809302
0.000640336
0.000487567
12.763
9.02221
4.41125
2.02207
0.878135
0.38001
0.17199
0.0842678
0.0451652
0.0263546
0.0165758
0.0110583
0.00773721
0.00563227
0.00423963
0.0032827
0.00260127
0.00209832
0.00171273
0.00140421
0.00114481
0.000916504
0.00071091
0.000517353
11.2624
8.33601
4.34862
2.08031
0.931615
0.411856
0.188631
0.0928404
0.0498003
0.0290554
0.0182818
0.0122211
0.00858151
0.00627665
0.00475041
0.00369907
0.00294738
0.00238939
0.00195826
0.00160964
0.00131227
0.00104517
0.000797555
0.000554025
10.1771
7.65595
4.2379
2.10866
0.97608
0.44223
0.205641
0.101952
0.0548296
0.0320159
0.0201556
0.0134967
0.00950668
0.0069829
0.00531147
0.00415835
0.00333152
0.00271509
0.00223587
0.00184501
0.00150744
0.00119841
0.00090327
0.000598979
9.33609
7.04934
4.10726
2.11461
1.01385
0.471716
0.223249
0.11173
0.0603318
0.0352831
0.0222259
0.0149034
0.0105248
0.00775966
0.00592945
0.00466606
0.00375852
0.00307979
0.00254961
0.00211414
0.00173414
0.00138026
0.00103194
0.000653966
8.64677
6.52051
3.95828
2.10864
1.0474
0.501073
0.241782
0.122358
0.0664148
0.0389192
0.0245302
0.0164647
0.0116517
0.00861857
0.00661392
0.00523085
0.00423673
0.00349176
0.00290764
0.00242492
0.00199984
0.00159791
0.00119025
0.000721878
8.05737
6.06443
3.797
2.09631
1.07819
0.531268
0.261743
0.134084
0.0732184
0.0430038
0.0271154
0.0182093
0.0129062
0.0095736
0.00737685
0.00586448
0.00477887
0.00396536
0.00332613
0.00279511
0.00232326
0.00187033
0.00139629
0.000813029
7.54116
5.67455
3.63336
2.08049
1.10734
0.562617
0.28357
0.14728
0.0809468
0.047643
0.0300409
0.0201717
0.0143094
0.010639
0.00822979
0.00657877
0.00539932
0.0045196
0.00383081
0.00325908
0.00274909
0.00225367
0.00172003
0.00102024
7.0857
5.34594
3.48688
2.06436
1.1359
0.595552
0.307561
0.162205
0.0898068
0.0529671
0.0333805
0.0223926
0.0158831
0.011826
0.0091789
0.00737829
0.00610438
0.00516653
0.00444533
0.00386173
0.00336081
0.00291015
0.00252591
0.00231686
6.6864
5.07348
3.36077
2.05067
1.16518
0.630496
0.334076
0.179193
0.100049
0.0591392
0.0372296
0.0249236
0.0176528
0.0131445
0.0102241
0.00825728
0.00688591
0.00589969
0.00517112
0.00462164
0.00420384
0.00389816
0.00372785
0.00375062
6.3431
4.85206
3.25718
2.04189
1.19617
0.66796
0.363541
0.198652
0.111994
0.0663747
0.0417185
0.0278385
0.0196571
0.0146117
0.0113698
0.00921176
0.00773407
0.00670321
0.00598166
0.00548858
0.00517752
0.00502639
0.00503531
0.00518262
6.05682
4.67864
3.17843
2.03893
1.23014
0.708509
0.396455
0.221075
0.126051
0.0749629
0.0470313
0.0312479
0.0219603
0.016264
0.0126358
0.010252
0.00865309
0.00757572
0.00686695
0.0064371
0.00623156
0.00621497
0.00635178
0.00659545
5.82849
4.55376
3.12562
2.04481
1.26843
0.752913
0.433418
0.24706
0.142744
0.0852937
0.0534283
0.0353158
0.0246632
0.0181631
0.0140598
0.0114003
0.00965379
0.00851778
0.00781684
0.0074465
0.00733927
0.00743361
0.00769089
0.00802045
5.66203
4.48293
3.10876
2.06595
1.31344
0.802297
0.47519
0.277341
0.162739
0.0978893
0.0612747
0.0402816
0.0279185
0.0204056
0.0157026
0.0126933
0.0107551
0.00953367
0.00882305
0.00849908
0.00847943
0.00867207
0.00905011
0.00947366
5.5672
4.47461
3.13093
2.10788
1.36867
0.858458
0.522886
0.312859
0.18689
0.113446
0.0710798
0.0464921
0.0319539
0.0231393
0.0176594
0.0141912
0.0119925
0.0106405
0.00988856
0.00958882
0.00963364
0.00992575
0.0104233
0.0109554
5.56965
4.54099
3.20528
2.17901
1.43929
0.924237
0.578185
0.354887
0.216307
0.132894
0.0835541
0.054449
0.0371085
0.0265891
0.020079
0.015992
0.0134295
0.0118771
0.0110346
0.010724
0.0108077
0.0111859
0.0118049
0.0124623
5.65272
4.70316
3.35044
2.29286
1.53366
1.00433
0.643801
0.40528
0.252499
0.1575
0.0996951
0.0648843
0.0438926
0.031102
0.0231964
0.0182559
0.0151757
0.0133188
0.0123117
0.011936
0.0120248
0.0124589
0.0131947
0.0139937
5.86784
4.9815
3.58944
2.46897
1.66511
1.10675
0.724388
0.466996
0.297662
0.189043
0.12093
0.0788806
0.0530862
0.0372232
0.0273889
0.021246
0.0174181
0.0151006
0.0138184
0.0132956
0.0133406
0.0137778
0.0146105
0.0155625
6.23494
5.38401
3.93834
2.72899
1.85254
1.24459
0.828135
0.545159
0.355313
0.230204
0.149379
0.0980798
0.065909
0.0458291
0.0332774
0.025404
0.0204767
0.0174607
0.0157364
0.0149429
0.0148652
0.0152351
0.0161056
0.0172141
6.7449
5.87207
4.37779
3.07874
2.11331
1.43524
0.968214
0.648745
0.431554
0.285383
0.1884
0.125079
0.0843305
0.0583731
0.0419157
0.0314935
0.0249128
0.0208226
0.018397
0.0171464
0.0167918
0.0170306
0.0178218
0.0190644
7.35073
6.31126
4.81946
3.47949
2.44323
1.69059
1.16009
0.791248
0.536677
0.362183
0.243701
0.164242
0.111686
0.0773655
0.0551654
0.0408876
0.0317496
0.0259656
0.0224141
0.0204027
0.0195308
0.0195258
0.0200822
0.0213727
7.83224
6.4309
5.07854
3.82528
2.79268
1.99744
1.40966
0.985707
0.684447
0.47257
0.324947
0.223179
0.153891
0.107347
0.0764675
0.0561789
0.0429495
0.0344019
0.0289862
0.0257024
0.0239431
0.0233728
0.0236297
0.0247059
7.53776
5.97872
4.9587
3.95353
3.06067
2.30204
1.69661
1.23216
0.885047
0.630325
0.446007
0.31429
0.22138
0.156767
0.112491
0.0825542
0.062543
0.0493106
0.0406849
0.0352036
0.0319071
0.0302186
0.0298745
0.0305014
1.80522
2.03862
2.3856
2.41428
2.25079
2.63312
0.826762
0.866817
1.04903
1.13386
1.16838
1.37837
0.223378
0.641921
0.799058
0.87645
0.932544
1.06994
0.24668
0.587801
0.72067
0.792637
0.853296
0.956698
0.264243
0.584405
0.696217
0.763688
0.825566
0.911122
0.275567
0.607982
0.693917
0.757256
0.818884
0.894401
0.280475
0.651098
0.702892
0.761861
0.822554
0.891052
1.20294
0.693941
0.716764
0.772446
0.832278
0.895662
1.26488
0.722975
0.731932
0.786349
0.845955
0.905893
1.32666
0.743624
0.746942
0.802498
0.863047
0.921376
1.37839
0.758612
0.761636
0.820614
0.883952
0.943092
1.41519
0.769429
0.776222
0.841053
0.909678
0.972938
1.43158
0.776425
0.791087
0.86446
0.941627
1.01347
1.42584
0.779988
0.806691
0.891627
0.981467
1.06777
1.39788
0.780187
0.823516
0.923422
1.03107
1.13945
1.34949
0.77692
0.842089
0.960781
1.09249
1.23268
1.28494
0.770095
0.863088
1.00478
1.16809
1.35236
1.21469
0.759103
0.887588
1.05689
1.26085
1.50455
0.280633
0.742181
0.917679
1.11962
1.37527
1.69733
0.269885
0.737759
0.958052
1.19816
1.51969
1.94371
0.252542
0.754476
1.01939
1.30529
1.71276
2.27068
0.228526
0.814114
1.1317
1.47822
2.00435
2.75106
0.843632
1.01401
1.41543
1.86388
2.56617
3.6152
1.80382
2.07317
2.82088
3.52456
4.40479
5.96879
4.27752
4.59522
4.37934
3.80113
3.14246
2.52476
1.97243
1.50931
1.13656
0.845087
0.62212
0.45466
0.330903
0.240796
0.176188
0.130857
0.0998458
0.0787377
0.0644791
0.0549745
0.0487719
0.0448975
0.0428368
0.0425818
2.30961
3.10043
3.40242
3.3268
3.02499
2.60871
2.18629
1.78731
1.43266
1.12998
0.879302
0.676403
0.515867
0.393593
0.302315
0.23465
0.184908
0.148958
0.12328
0.105096
0.0923475
0.0834342
0.0774631
0.0735105
1.50216
2.09104
2.52381
2.70824
2.69327
2.55034
2.30845
2.04034
1.76894
1.51108
1.27533
1.065
0.881817
0.72694
0.601353
0.500772
0.420955
0.358291
0.309489
0.271451
0.242432
0.218924
0.202776
0.183923
1.19212
1.56268
1.9234
2.18452
2.32862
2.36188
2.32126
2.22399
2.08997
1.94547
1.79835
1.65401
1.51647
1.38662
1.26527
1.15602
1.06019
0.97692
0.904384
0.839099
0.780358
0.721092
0.675202
0.607103
1.06471
1.30976
1.57893
1.82324
2.01688
2.15013
2.23305
2.26832
2.27183
2.26219
2.24162
2.20949
2.17403
2.13725
2.09914
2.05934
2.01731
1.97165
1.91985
1.85935
1.79014
1.71071
1.63166
1.52736
1.00955
1.1859
1.38907
1.59372
1.78222
1.94486
2.08035
2.1894
2.27817
2.3522
2.41318
2.46297
2.50444
2.53729
2.55994
2.57043
2.56861
2.55599
2.5294
2.4826
2.41921
2.34652
2.2682
2.18924
0.985968
1.12152
1.2794
1.44556
1.60956
1.76468
1.90774
2.03773
2.15567
2.26235
2.35764
2.44113
2.51176
2.56833
2.60947
2.63385
2.64064
2.63259
2.60895
2.56515
2.5076
2.44171
2.37062
2.30431
0.97774
1.08692
1.21163
1.34492
1.48005
1.61279
1.74029
1.86076
1.973
2.07569
2.1673
2.24621
2.3107
2.35924
2.39073
2.40473
2.40206
2.38588
2.35433
2.31196
2.26323
2.21012
2.15082
2.09556
0.978716
1.07062
1.17024
1.27548
1.38288
1.4892
1.59182
1.68875
1.77802
1.85751
1.92515
1.97913
2.01803
2.04119
2.04895
2.04306
2.02442
1.99531
1.96012
1.92264
1.88537
1.84946
1.81724
1.78678
0.988431
1.06781
1.1512
1.23506
1.31783
1.39797
1.47422
1.54426
1.60595
1.65738
1.69693
1.72364
1.73734
1.73895
1.73074
1.71537
1.69766
1.68232
1.67202
1.66768
1.66924
1.67593
1.68681
1.68921
1.00816
1.08042
1.15264
1.22343
1.29078
1.35293
1.40816
1.45568
1.49449
1.5238
1.54345
1.55417
1.55761
1.55628
1.55325
1.55163
1.55413
1.56151
1.57388
1.5915
1.61377
1.6404
1.67171
1.70799
1.04087
1.11265
1.18107
1.24518
1.30366
1.35556
1.4002
1.43682
1.46519
1.48562
1.49911
1.5074
1.51281
1.51786
1.52495
1.53598
1.5519
1.57226
1.59503
1.6173
1.63626
1.64948
1.66486
1.71215
1.0907
1.17007
1.2434
1.31027
1.36986
1.42173
1.4657
1.50193
1.5311
1.55444
1.57376
1.59131
1.60943
1.63018
1.65475
1.68298
1.71249
1.73971
1.75741
1.76042
1.74266
1.69216
1.61992
1.60645
1.16277
1.25964
1.34801
1.42831
1.50021
1.56389
1.61977
1.6687
1.71193
1.75115
1.78827
1.82513
1.86309
1.90247
1.94199
1.97903
2.0061
2.02325
2.01038
1.95975
1.86089
1.73563
1.59562
1.48964
1.26338
1.38962
1.50434
1.60952
1.70526
1.79228
1.87139
1.94363
2.01024
2.07247
2.1314
2.18723
2.23963
2.28578
2.32276
2.34612
2.33357
2.27876
2.17523
2.04284
1.89656
1.73552
1.55463
1.3792
1.40012
1.56939
1.72213
1.86318
1.99283
2.11197
2.22113
2.32076
2.41127
2.49251
2.56389
2.62302
2.66973
2.69292
2.66948
2.60581
2.49351
2.36025
2.20417
2.02572
1.82275
1.6043
1.38671
1.16995
1.58217
1.80883
2.00956
2.19466
2.36381
2.51726
2.65429
2.77384
2.87485
2.95632
3.01435
3.03621
3.0007
2.92274
2.80538
2.66449
2.49515
2.29311
2.06274
1.81276
1.55693
1.30966
1.08537
0.883184
1.82037
2.11668
2.36992
2.60051
2.80586
2.98423
3.13307
3.24975
3.32941
3.35549
3.31359
3.22404
3.10061
2.94495
2.75216
2.52019
2.25746
1.97417
1.68381
1.40128
1.14184
0.918834
0.735172
0.603494
2.12714
2.49724
2.79658
3.06246
3.2868
3.46398
3.59108
3.6462
3.60862
3.51808
3.3815
3.20417
2.97704
2.70839
2.40826
2.089
1.76439
1.45066
1.16406
0.917792
0.718605
0.567794
0.459085
0.402711
2.51585
2.94503
3.26743
3.54265
3.75186
3.8809
3.88923
3.80799
3.66551
3.46412
3.19898
2.88654
2.54206
2.18156
1.82146
1.47827
1.1687
0.906611
0.697815
0.540505
0.42853
0.353545
0.305663
0.28952
3.00014
3.43761
3.74169
3.98466
4.11813
4.09168
3.97668
3.76441
3.4666
3.10698
2.71001
2.29961
1.89735
1.52082
1.18692
0.9093
0.692412
0.531489
0.416859
0.337755
0.284146
0.247958
0.224437
0.22008
3.59387
3.93072
4.16398
4.31274
4.27303
4.12386
3.83161
3.43455
2.98
2.50637
2.04631
1.62436
1.25633
0.954238
0.721537
0.55095
0.429393
0.343508
0.282224
0.237243
0.203979
0.180264
0.166184
0.16601
4.32365
4.36775
4.4813
4.44988
4.27877
3.91642
3.42284
2.87774
2.33696
1.84175
1.4161
1.06957
0.803726
0.60951
0.47051
0.370519
0.297031
0.241373
0.198276
0.165578
0.142411
0.127778
0.12167
0.123794
5.2257
4.70857
4.6475
4.46246
4.06299
3.48515
2.85259
2.24783
1.72155
1.29434
0.965265
0.72332
0.549532
0.423673
0.330434
0.259884
0.205609
0.164008
0.133247
0.112034
0.0986793
0.0916539
0.0904684
0.0937111
2.27323
3.79528
7.0682
8.62431
7.93756
26.8705
0.931104
2.35057
3.87873
4.82944
5.66191
8.17378
0.255294
1.94072
2.98238
3.84213
4.80924
5.97262
1.18598
1.75672
2.59607
3.43337
4.41775
5.36414
1.31739
1.64574
2.38634
3.23292
4.25331
5.19427
1.51076
1.57181
2.25843
3.13233
4.20612
5.18181
1.67199
1.52191
2.17344
3.08649
4.23318
5.27679
1.79775
1.48504
2.11133
3.07112
4.31331
5.43354
1.88728
1.4537
2.06005
3.07209
4.42711
5.62753
1.94056
1.42314
2.01159
3.07965
4.56161
5.84471
1.95689
1.39045
1.96014
3.08534
4.70731
6.07865
1.94369
1.35446
1.90136
3.08208
4.85652
6.32532
1.90246
1.31611
1.83181
3.0623
5.00246
6.58134
1.84183
1.27465
1.75007
3.01798
5.13519
6.84667
1.76053
1.22709
1.65546
2.94185
5.24018
7.12707
1.65809
1.1706
1.54737
2.82622
5.30199
7.43073
1.53352
1.10165
1.42542
2.66485
5.30231
7.7626
1.38258
1.01446
1.28999
2.45415
5.21729
8.12571
1.18915
0.897962
1.14372
2.19594
5.01931
8.52233
0.266413
0.729737
0.997512
1.90128
4.67957
8.95732
0.250647
0.630188
0.870799
1.59234
4.17738
9.45356
0.229405
0.616808
0.804031
1.3189
3.52977
10.0584
0.864731
0.802926
0.894819
1.19648
2.8692
11.0981
2.14147
1.9079
1.8267
1.94266
2.71444
26.9108
6.01879
4.92708
4.70135
4.30452
3.66649
2.94452
2.26628
1.69786
1.25584
0.927503
0.690357
0.519338
0.393654
0.299754
0.229152
0.176179
0.137107
0.109181
0.0901071
0.0778814
0.07084
0.0679577
0.0685819
0.0721606
5.60891
5.03019
4.67011
4.00451
3.18661
2.41117
1.77433
1.29246
0.942173
0.691022
0.50964
0.376759
0.279043
0.207513
0.155688
0.118713
0.0927833
0.0749765
0.0631982
0.0559456
0.0521727
0.051237
0.052417
0.0559133
5.45465
5.07585
4.51143
3.6125
2.70717
1.96163
1.40553
1.00717
0.723951
0.521191
0.375092
0.270271
0.195739
0.143336
0.106868
0.0816656
0.0643828
0.0527463
0.0452569
0.0408735
0.0388966
0.0388703
0.040232
0.0433409
5.41738
5.07662
4.25322
3.19513
2.28773
1.61152
1.13257
0.796227
0.559055
0.391665
0.274448
0.193273
0.137698
0.0999565
0.0744084
0.0571297
0.045497
0.0378045
0.0329627
0.0302556
0.0292253
0.0294901
0.0308483
0.0334518
5.44091
5.00284
3.92744
2.80515
1.94597
1.34081
0.921894
0.631582
0.430798
0.293309
0.200437
0.138526
0.0976034
0.0706069
0.0527292
0.0408178
0.0328674
0.0276336
0.0243573
0.0225645
0.0219588
0.0222741
0.0234529
0.0255204
5.48364
4.87685
3.58847
2.46948
1.67092
1.12497
0.753088
0.500594
0.331159
0.219352
0.146755
0.100099
0.0701676
0.0508369
0.0381947
0.029812
0.0242092
0.0204968
0.0181457
0.0168387
0.0163808
0.0166144
0.0175161
0.0191133
5.52717
4.70341
3.28082
2.19024
1.44648
0.948251
0.615631
0.396262
0.254416
0.164528
0.10834
0.0733362
0.0513673
0.0373599
0.0282452
0.0221927
0.018115
0.0153679
0.0135738
0.0125138
0.0120584
0.0121356
0.0127293
0.0139128
5.57072
4.50343
3.01207
1.95672
1.25926
0.801205
0.503332
0.313734
0.196026
0.124335
0.0809957
0.0546421
0.0383434
0.0280182
0.0212986
0.0168093
0.0137444
0.011628
0.0101805
0.00924174
0.00872322
0.00859634
0.00889002
0.00968865
5.62231
4.29876
2.77604
1.75842
1.10077
0.678187
0.411973
0.24909
0.152032
0.0950305
0.0615081
0.0414779
0.0291955
0.0214272
0.016353
0.0129334
0.0105622
0.00887836
0.0076656
0.00679673
0.00620178
0.00586249
0.00584608
0.00627355
5.68827
4.09892
2.57312
1.58988
0.966121
0.575527
0.338229
0.198905
0.119083
0.0736675
0.0475276
0.0320899
0.022661
0.0166887
0.0127664
0.0100987
0.00822126
0.00685397
0.0058233
0.00502062
0.00438001
0.0038728
0.00351069
0.0034541
5.75844
3.92253
2.40221
1.44652
0.851632
0.49023
0.279134
0.160185
0.0944448
0.0580226
0.0373916
0.0252939
0.0179116
0.0132214
0.0101237
0.00799989
0.00648817
0.0053679
0.00449832
0.00378489
0.00316115
0.00258402
0.00200384
0.00123616
5.83254
3.77799
2.26099
1.32464
0.754467
0.419759
0.232076
0.130406
0.0759797
0.0464702
0.0299458
0.0202936
0.0143987
0.010641
0.00814741
0.00642834
0.00519696
0.00427785
0.00355842
0.00296157
0.00242978
0.00192148
0.00142089
0.000838963
5.91812
3.6694
2.14649
1.22133
0.672349
0.361886
0.194781
0.107513
0.062065
0.0378475
0.0243953
0.0165517
0.011754
0.00868678
0.00664503
0.00523334
0.00421988
0.00346278
0.00287129
0.00238367
0.00195414
0.00155003
0.00115587
0.000725655
6.02756
3.59919
2.05607
1.13426
0.603319
0.314622
0.165316
0.0898804
0.0514963
0.0313313
0.0201937
0.0137035
0.00972726
0.00718012
0.00548192
0.00430685
0.0034634
0.00283418
0.0023441
0.00194228
0.00159147
0.00126692
0.000960874
0.000647289
6.17377
3.56684
1.98748
1.06152
0.545662
0.276244
0.142075
0.0762489
0.043391
0.0263418
0.0169643
0.0114998
0.00814806
0.00599902
0.00456632
0.00357619
0.00286722
0.00234031
0.00193218
0.00160021
0.0013138
0.00105394
0.000816486
0.000585391
6.36902
3.5699
1.9388
1.00149
0.498023
0.245235
0.123671
0.0656127
0.0371065
0.0224705
0.0144455
0.00976899
0.00689918
0.00505992
0.00383594
0.00299282
0.00239201
0.00194837
0.00160765
0.00133359
0.00110062
0.000893602
0.000709659
0.00053775
6.6305
3.60992
1.90962
0.953178
0.459049
0.220089
0.10899
0.0572287
0.0321822
0.0194283
0.0124542
0.00839107
0.00589884
0.00430454
0.00324736
0.002523
0.00201046
0.00163538
0.0013505
0.00112445
0.000935495
0.000771105
0.000628819
0.000500681
6.97318
3.70001
1.89773
0.915533
0.426993
0.199562
0.0971871
0.0505552
0.02828
0.0170081
0.0108603
0.00728104
0.00508895
0.00369132
0.00276946
0.0021424
0.00170279
0.00138468
0.0011463
0.000960129
0.00080732
0.000677201
0.000567337
0.000471809
7.41463
3.83009
1.90038
0.886037
0.400371
0.182648
0.0876065
0.0451897
0.02515
0.0150605
0.00957035
0.0063777
0.0044275
0.00318997
0.00237935
0.00183293
0.00145409
0.00118359
0.00098404
0.000830943
0.000707725
0.000605054
0.000520406
0.00044929
7.98081
4.00971
1.91347
0.862247
0.377769
0.168501
0.0797333
0.0408259
0.0226112
0.0134768
0.00851618
0.00563636
0.00388358
0.00277797
0.00205975
0.00158069
0.00125279
0.0010222
0.000855063
0.000729349
0.000630285
0.000549549
0.000484503
0.00043169
8.70832
4.24439
1.93436
0.841423
0.357846
0.156404
0.0731602
0.0372305
0.0205287
0.0121765
0.00764762
0.00502389
0.00343406
0.00243822
0.00179738
0.00137491
0.00108982
0.000892694
0.000752596
0.000649504
0.000570102
0.000506851
0.000457016
0.000417912
9.6569
4.50384
1.95359
0.819884
0.339265
0.145742
0.0675637
0.0342255
0.0188014
0.0110998
0.00692723
0.00451546
0.00306139
0.0021576
0.00158187
0.00120707
0.000957992
0.000788899
0.000671299
0.000586841
0.000523399
0.000474045
0.000435982
0.000407123
10.9311
4.72906
1.95658
0.792744
0.320639
0.135989
0.0626902
0.0316754
0.0173532
0.0102018
0.00632686
0.00409216
0.00275204
0.00192581
0.00140502
0.0010704
0.000851558
0.000705888
0.000606945
0.000537774
0.000487234
0.000448894
0.000419928
0.000398704
12.628
4.89048
1.9091
0.754704
0.300974
0.126829
0.058382
0.0294924
0.0161334
0.00945188
0.0058267
0.00374037
0.00249598
0.00173502
0.00126045
0.000959549
0.000765985
0.000639778
0.000556208
0.000499489
0.000459317
0.000429685
0.000407753
0.000392197
)
;

boundaryField
{
    rotor
    {
        type            epsilonWallFunction;
        value           nonuniform List<scalar> 
144
(
3.21364
8.3951
11.2147
12.1462
10.7468
46.0536
3.21364
1.1591
1.71913
2.37769
2.98439
3.52352
3.98675
4.36983
4.67081
4.88905
5.02554
5.0846
5.08094
5.00471
4.8518
4.61924
4.30543
3.90995
3.43456
2.88509
2.27468
1.62829
1.117
2.82324
2.82324
6.92254
9.34311
10.5329
10.8884
51.8066
4.49733
3.3704
2.28548
1.73782
1.69593
4.27659
4.49733
1.38563
1.95116
2.4177
2.7744
3.06636
3.31716
3.53557
3.72457
3.88544
4.01927
4.12759
4.21301
4.24329
4.22034
4.12866
3.96742
3.73347
3.41999
3.01337
2.50308
1.88141
1.25369
4.69824
4.69824
10.6289
13.4262
11.7345
9.36934
30.0439
1.80522
2.03862
2.3856
2.41428
2.25079
2.63312
1.80522
0.826762
0.223378
0.24668
0.264243
0.275567
0.280475
1.20294
1.26488
1.32666
1.37839
1.41519
1.43158
1.42584
1.39788
1.34949
1.28494
1.21469
0.280633
0.269885
0.252542
0.228526
0.843632
1.80382
1.80382
2.07317
2.82088
3.52456
4.40479
5.96879
2.27323
3.79528
7.0682
8.62431
7.93756
26.8705
2.27323
0.931104
0.255294
1.18598
1.31739
1.51076
1.67199
1.79775
1.88728
1.94056
1.95689
1.94369
1.90246
1.84183
1.76053
1.65809
1.53352
1.38258
1.18915
0.266413
0.250647
0.229405
0.864731
2.14147
2.14147
1.9079
1.8267
1.94266
2.71444
26.9108
)
;
    }
    freestream
    {
        type            inletOutlet;
        inletValue      uniform 0.000375;
        value           nonuniform List<scalar> 
96
(
0.000375
0.000375
0.000375
0.000375
0.000375
0.000375
0.000375
0.000375
0.000375
0.000375
0.000375
0.000375
0.000375
0.000375
0.000375
0.000375
0.000375
0.000375
0.000375
0.000375
0.000375
0.000375
0.000375
0.000375
0.000375
0.000375
0.000375
0.000375
0.000375
0.000375
0.000375
0.000375
0.000375
0.00231686
0.00375062
0.00518262
0.00659545
0.00802045
0.00947366
0.0109554
0.0124623
0.0139937
0.0155625
0.0172141
0.0190644
0.0213727
0.0247059
0.0305014
0.0425818
0.0735105
0.183923
0.607103
1.52736
2.18924
2.30431
2.09556
1.78678
1.68921
1.70799
1.71215
1.60645
1.48964
1.3792
1.16995
0.883184
0.603494
0.402711
0.28952
0.22008
0.16601
0.123794
0.0937111
0.0721606
0.0559133
0.0433409
0.0334518
0.0255204
0.0191133
0.0139128
0.00968865
0.00627355
0.0034541
0.000375
0.000375
0.000375
0.000375
0.000375
0.000375
0.000375
0.000375
0.000375
0.000375
0.000375
0.000375
0.000375
0.000375
)
;
    }
    frontAndBack
    {
        type            empty;
    }
}


// ************************************************************************* //
