/*--------------------------------*- C++ -*----------------------------------*\
  =========                 |
  \\      /  F ield         | OpenFOAM: The Open Source CFD Toolbox
   \\    /   O peration     | Website:  https://openfoam.org
    \\  /    A nd           | Version:  11
     \\/     M anipulation  |
\*---------------------------------------------------------------------------*/
FoamFile
{
    format      ascii;
    class       volScalarField;
    location    "0.9";
    object      k;
}
// * * * * * * * * * * * * * * * * * * * * * * * * * * * * * * * * * * * * * //

dimensions      [0 2 -2 0 0 0 0];

internalField   nonuniform List<scalar> 
2880
(
0.00689382
0.0348209
0.0765106
0.123352
0.152776
0.170569
0.0223092
0.068433
0.111286
0.157424
0.208098
0.28729
0.0319703
0.0888353
0.13374
0.181025
0.234228
0.300254
0.0396864
0.102603
0.149184
0.19696
0.247453
0.297831
0.0461781
0.112905
0.160598
0.207979
0.254444
0.291837
0.0515836
0.120929
0.169287
0.215696
0.257959
0.285698
0.0560103
0.127232
0.175952
0.221148
0.259527
0.280363
0.0595427
0.132113
0.181024
0.22504
0.260078
0.276073
0.0622457
0.135745
0.184781
0.227799
0.260235
0.272943
0.0641693
0.138235
0.187408
0.229717
0.260392
0.271051
0.0653572
0.139646
0.189026
0.230989
0.260775
0.27043
0.0658669
0.140008
0.189702
0.231727
0.261493
0.271102
0.0658354
0.13932
0.189457
0.231958
0.262575
0.273094
0.0651762
0.137597
0.188268
0.231664
0.263978
0.276433
0.0638432
0.134829
0.186067
0.230735
0.26556
0.281088
0.0617881
0.130988
0.182746
0.228987
0.267073
0.287008
0.058959
0.12603
0.178158
0.226135
0.268199
0.294052
0.0552928
0.119897
0.17212
0.22179
0.268486
0.30191
0.0507167
0.112503
0.164396
0.215424
0.267114
0.310172
0.0451538
0.103701
0.154651
0.206316
0.262836
0.318132
0.0385378
0.093184
0.142322
0.193423
0.253689
0.324407
0.03084
0.0801736
0.126267
0.175119
0.23639
0.325167
0.0215051
0.0620824
0.103462
0.148395
0.20498
0.307744
0.00605846
0.0287062
0.0637221
0.10702
0.154831
0.184771
0.329258
0.268063
0.178767
0.116473
0.0764657
0.053064
0.039131
0.0301466
0.0238523
0.019171
0.0155768
0.0127856
0.0106128
0.00892219
0.00760946
0.00659463
0.00581637
0.00522704
0.00478788
0.00446485
0.00422718
0.00405119
0.00392159
0.00383
0.340911
0.262204
0.175326
0.114009
0.0749571
0.0521714
0.038557
0.0297054
0.0234541
0.0187789
0.0151826
0.0123936
0.0102306
0.00855726
0.0072685
0.0062835
0.00554026
0.0049901
0.00459246
0.00431091
0.0041127
0.00397269
0.00387428
0.00380642
0.327583
0.251389
0.16992
0.110922
0.0733185
0.0513003
0.0380398
0.0293273
0.0231195
0.0184502
0.0148513
0.0120635
0.00990856
0.00825014
0.00698235
0.00602376
0.00531176
0.00479647
0.0044352
0.00418901
0.00402328
0.00391189
0.00383783
0.00378822
0.311078
0.239969
0.16389
0.107661
0.0716974
0.0504973
0.0375946
0.0290186
0.0228518
0.018187
0.0145844
0.0117962
0.00964691
0.0080001
0.00674943
0.00581302
0.00512767
0.00464222
0.00431171
0.00409471
0.00395502
0.00386582
0.00381011
0.00377452
0.295673
0.229319
0.15804
0.10457
0.0702215
0.0498072
0.0372391
0.0287881
0.022656
0.0179925
0.0143844
0.0115934
0.00944633
0.00780703
0.00656882
0.00564956
0.00498548
0.0045241
0.00421823
0.00402422
0.00390465
0.00383223
0.00378976
0.00376474
0.282657
0.220104
0.152839
0.101871
0.0689816
0.0492662
0.0369896
0.028645
0.0225381
0.0178712
0.0142544
0.0114569
0.00930778
0.00767105
0.0064399
0.00553199
0.00488304
0.00443928
0.0041515
0.0039742
0.00386912
0.00380876
0.00377581
0.00375831
0.272208
0.212568
0.14854
0.0996947
0.068037
0.0489011
0.03686
0.0285976
0.0225044
0.0178279
0.0141973
0.0113885
0.00923211
0.00759222
0.006362
0.00545896
0.00481833
0.00438522
0.00410874
0.00394198
0.00384614
0.00379365
0.00376717
0.0037544
0.26425
0.206784
0.145272
0.0981176
0.0674256
0.0487311
0.0368608
0.0286461
0.0225528
0.017861
0.0142136
0.0113894
0.00921996
0.0075706
0.00633462
0.0054294
0.00478978
0.00435999
0.00408791
0.00392565
0.00383392
0.00378584
0.00376271
0.0037524
0.258623
0.202759
0.143101
0.0971837
0.0671724
0.048767
0.0369864
0.0287885
0.022681
0.0179662
0.0142955
0.0114506
0.00926387
0.00760055
0.00635375
0.00544055
0.00479553
0.00436225
0.00408803
0.00392457
0.00383245
0.00378445
0.00376159
0.00375186
0.255189
0.20048
0.142065
0.0969219
0.0672874
0.0490056
0.0372467
0.029033
0.0228961
0.0181495
0.0144498
0.0115795
0.00937047
0.00768767
0.00642378
0.00549553
0.00483709
0.00439235
0.00410887
0.00393829
0.00384088
0.00378883
0.00376342
0.0037522
0.25386
0.199946
0.14219
0.0973373
0.0677764
0.0494684
0.0376609
0.0293996
0.0232182
0.0184317
0.0146962
0.0117929
0.00955287
0.00784041
0.00654897
0.00559574
0.00491509
0.00445093
0.00415109
0.00396741
0.00385995
0.00379979
0.0037685
0.00375343
0.254566
0.201172
0.143522
0.0984937
0.0686989
0.0501956
0.0382513
0.0298973
0.0236492
0.01881
0.0150285
0.0120822
0.00980183
0.00805211
0.00672618
0.00574087
0.00503045
0.00453919
0.00421578
0.00401273
0.00388997
0.003818
0.00377743
0.00375585
0.257329
0.2042
0.146109
0.100422
0.0700677
0.0511858
0.0390126
0.0305208
0.0241834
0.0192781
0.0154411
0.0124448
0.0101178
0.0083243
0.00695711
0.00593267
0.00518509
0.00465922
0.00430501
0.00407603
0.00393237
0.00384391
0.00379079
0.00376004
0.262181
0.209098
0.150016
0.103164
0.0719012
0.0524454
0.0399455
0.0312683
0.0248185
0.0198348
0.0159343
0.0128814
0.0105018
0.00865844
0.00724368
0.00617343
0.00538166
0.00481391
0.00442167
0.00415999
0.00398939
0.00387935
0.00380961
0.0037664
0.269195
0.215957
0.155324
0.106777
0.0742319
0.0539903
0.0410566
0.0321419
0.0255546
0.0204797
0.0165078
0.0133923
0.0109545
0.00905594
0.00758786
0.00646569
0.00562323
0.00500672
0.00456932
0.0042679
0.0040638
0.00392644
0.00383535
0.00377571
0.278462
0.224889
0.162125
0.111324
0.0770962
0.055837
0.0423517
0.0331421
0.0263904
0.0212109
0.01716
0.0139766
0.0114762
0.00951774
0.00799143
0.00681201
0.00591305
0.00524144
0.00475199
0.00440364
0.00415898
0.00398783
0.00386983
0.0037889
0.290072
0.236008
0.170509
0.116871
0.0805307
0.0580013
0.0438352
0.0342681
0.0273225
0.0220247
0.0178879
0.0146324
0.0120659
0.0100441
0.00845569
0.00721465
0.00625428
0.00552196
0.00497406
0.00457162
0.00427888
0.00406666
0.00391523
0.00380702
0.304114
0.249421
0.180545
0.123468
0.0845655
0.0604958
0.0455088
0.0355166
0.028346
0.0229159
0.0186869
0.0153561
0.0127214
0.0106341
0.00898109
0.00767529
0.00664968
0.00585199
0.00523993
0.00477653
0.00442794
0.00416659
0.00397405
0.00383127
0.320654
0.265187
0.192249
0.131135
0.0892144
0.0633247
0.0473702
0.036882
0.0294534
0.023877
0.0195505
0.0161427
0.0134391
0.0112857
0.00956687
0.00819454
0.00710114
0.0062346
0.0055536
0.00502297
0.00461082
0.0042917
0.00404916
0.00386303
0.339619
0.283227
0.205505
0.139814
0.0944564
0.0664773
0.0494095
0.0383551
0.030635
0.0248983
0.0204701
0.0169849
0.0142133
0.0119948
0.0102108
0.00877168
0.00760943
0.0066719
0.00591849
0.00531542
0.00483257
0.00444657
0.00414299
0.00390324
0.360365
0.303236
0.219961
0.149316
0.100208
0.069917
0.0516061
0.0399208
0.0318781
0.0259687
0.0214357
0.0178742
0.0150372
0.0127562
0.010909
0.00940467
0.00817409
0.007165
0.0063371
0.00565749
0.0050973
0.00463503
0.0042589
0.00395316
0.381035
0.323872
0.234801
0.159233
0.106289
0.0735675
0.0539234
0.0415569
0.033167
0.0270752
0.0224361
0.0188009
0.0159023
0.013563
0.0116567
0.0100902
0.00879347
0.0077138
0.00681078
0.00605179
0.00540856
0.00486103
0.00440043
0.00401427
0.395428
0.343039
0.248607
0.168843
0.112379
0.0772984
0.0563048
0.0432336
0.0344828
0.0282037
0.0234593
0.0197543
0.0167996
0.0144077
0.0124476
0.0108236
0.00946453
0.00831682
0.00733952
0.00649973
0.00576906
0.00512822
0.00457124
0.00408828
0.36842
0.354142
0.259125
0.177097
0.118023
0.0809262
0.0586755
0.0449155
0.035805
0.0293396
0.0244932
0.0207238
0.0177195
0.0152819
0.0132745
0.011599
0.0101828
0.00897108
0.00792188
0.00700145
0.00618053
0.00543963
0.00477475
0.00417682
0.0096625
0.0140141
0.015618
0.0176751
0.0239742
0.0802561
0.0267005
0.0353595
0.0360339
0.0388031
0.054081
0.121653
0.0348215
0.0447745
0.0484399
0.0543629
0.0784324
0.156559
0.0401688
0.0526862
0.059436
0.0686611
0.0992151
0.180164
0.0440253
0.0602845
0.0699702
0.0821307
0.11709
0.195862
0.0470593
0.0676403
0.0800173
0.0948006
0.132421
0.205435
0.0495894
0.0747734
0.0895216
0.106595
0.145117
0.210715
0.0517414
0.0816011
0.0984498
0.117484
0.155375
0.213278
0.0535684
0.0880106
0.106752
0.127372
0.163653
0.214159
0.0550997
0.0939107
0.114377
0.136227
0.170422
0.214065
0.0563581
0.0992095
0.121285
0.144112
0.176051
0.213499
0.057367
0.103809
0.127452
0.151114
0.180866
0.212841
0.0581573
0.107598
0.132858
0.15732
0.185173
0.212417
0.0584378
0.110613
0.137477
0.162807
0.189218
0.212603
0.0582284
0.112844
0.141274
0.167621
0.193127
0.213512
0.0573832
0.114212
0.14419
0.171763
0.196998
0.215458
0.0558791
0.114512
0.146124
0.17515
0.200845
0.218883
0.0536575
0.113661
0.146811
0.177564
0.204453
0.223787
0.0506129
0.111211
0.146166
0.178555
0.207284
0.229569
0.0465194
0.106671
0.143631
0.17751
0.208408
0.234813
0.0411091
0.0992289
0.13848
0.173289
0.206201
0.23705
0.0339864
0.0874254
0.129452
0.16405
0.197405
0.232569
0.0241593
0.0682934
0.114104
0.146677
0.176022
0.211603
0.0100946
0.04414
0.0916389
0.119336
0.132902
0.128674
0.324608
0.349036
0.263199
0.182867
0.122745
0.0842572
0.0609562
0.0465669
0.0371139
0.0304692
0.0255266
0.0216994
0.0186528
0.0161769
0.0141297
0.0124098
0.0109428
0.00967223
0.00855498
0.00755572
0.00664352
0.0057974
0.00501387
0.00428138
0.293714
0.335272
0.261569
0.185768
0.12628
0.0871553
0.063086
0.0481594
0.0383944
0.0315822
0.0265506
0.0226724
0.019591
0.0170846
0.0150054
0.0132487
0.0117378
0.0104148
0.00923469
0.00816007
0.0071574
0.00620274
0.00529083
0.00440311
0.274287
0.315722
0.257278
0.185972
0.128622
0.0895779
0.0650361
0.0496785
0.039638
0.0326718
0.0275588
0.0236366
0.0205273
0.017998
0.0158945
0.0141086
0.0125613
0.0111929
0.00995606
0.008811
0.00772053
0.00665596
0.00560721
0.00454274
0.262259
0.297254
0.250848
0.184734
0.130041
0.0915747
0.0668118
0.0511233
0.0408432
0.0337361
0.0285483
0.0245877
0.021457
0.0189118
0.0167912
0.0149836
0.0134075
0.0120008
0.0107142
0.00950467
0.00833068
0.0071568
0.00596419
0.00470059
0.25434
0.280765
0.242268
0.182529
0.130782
0.093226
0.0684383
0.0525037
0.0420142
0.0347763
0.0295186
0.0255243
0.0223777
0.0198229
0.0176925
0.0158706
0.014273
0.0128355
0.0115061
0.0102385
0.00898631
0.00770539
0.00636323
0.00487676
0.248407
0.266244
0.233503
0.179948
0.131044
0.0946106
0.0699478
0.0538344
0.0431585
0.035796
0.0304709
0.0264463
0.0232889
0.0207311
0.0185985
0.0167704
0.0151595
0.0136989
0.012334
0.0110149
0.00969001
0.00830508
0.00680832
0.00507195
0.243351
0.253479
0.22495
0.176982
0.130982
0.0958046
0.0713734
0.0551318
0.0442847
0.0367997
0.0314074
0.0273546
0.0241913
0.0216382
0.0195127
0.0176891
0.016076
0.0146031
0.0132123
0.0118497
0.0104579
0.00897176
0.00731407
0.00529115
0.23868
0.242256
0.216854
0.173742
0.130739
0.0968752
0.0727475
0.0564128
0.0454012
0.0377912
0.0323292
0.028249
0.0250849
0.0225456
0.0204401
0.0186368
0.0170398
0.0155742
0.0141771
0.0127888
0.0113444
0.00976568
0.0079412
0.00557138
0.234228
0.232575
0.209274
0.170349
0.130356
0.0978688
0.0741019
0.0576945
0.0465165
0.0387739
0.0332358
0.0291265
0.0259657
0.0234502
0.0213809
0.0196206
0.0180689
0.0166471
0.0152879
0.013926
0.0124897
0.0108885
0.00897413
0.00628447
0.230018
0.224405
0.202283
0.16687
0.129875
0.0988137
0.0754553
0.0589923
0.0476419
0.039752
0.0341251
0.0299802
0.0268232
0.0243395
0.0223224
0.0206305
0.0191619
0.0178386
0.0165969
0.0153826
0.0141535
0.0129065
0.0117668
0.0111011
0.226196
0.217672
0.195994
0.163601
0.12937
0.0997338
0.0768286
0.0603253
0.0487903
0.040731
0.0349954
0.0308013
0.0276422
0.0251922
0.0232378
0.0216352
0.0202848
0.0191168
0.018083
0.0171549
0.0163258
0.0156306
0.0151909
0.0151886
0.222947
0.212304
0.190573
0.160645
0.128903
0.100662
0.0782448
0.0617153
0.0499797
0.0417222
0.0358498
0.031585
0.0284104
0.0259889
0.0241001
0.0225986
0.0213885
0.0204084
0.0196237
0.0190212
0.0186044
0.0183959
0.0184434
0.0187381
0.220496
0.208279
0.186195
0.158126
0.128558
0.101634
0.0797306
0.063189
0.0512354
0.0427452
0.0367001
0.0323352
0.0291246
0.0267199
0.0248936
0.0234977
0.0224383
0.0216585
0.0211281
0.020834
0.0207694
0.0209202
0.0212815
0.0217559
0.219206
0.205754
0.183006
0.156189
0.128396
0.102699
0.0813187
0.0647792
0.0525914
0.0438304
0.0375694
0.0330668
0.0297917
0.0273848
0.02561
0.0243147
0.0234032
0.0228179
0.0225254
0.0225044
0.0227178
0.0231543
0.0237454
0.0243519
0.219515
0.205334
0.181272
0.155017
0.128493
0.103913
0.0830471
0.066525
0.0540906
0.0450193
0.0384931
0.0338066
0.0304296
0.0279923
0.026248
0.0250364
0.0242563
0.0238446
0.0237616
0.0239567
0.0244187
0.0250835
0.0258649
0.0265938
0.221311
0.206474
0.181306
0.154903
0.129123
0.105392
0.0849816
0.0684782
0.0557863
0.0463661
0.0395203
0.034595
0.0310683
0.0285615
0.0268152
0.0256583
0.0249804
0.0247107
0.0247889
0.0251687
0.0258349
0.0266933
0.027646
0.028499
0.225623
0.210402
0.183427
0.156211
0.130558
0.107314
0.0872251
0.0707118
0.0577466
0.0479389
0.0407154
0.0354876
0.0317522
0.0291246
0.027332
0.0261892
0.0255738
0.0254055
0.0255918
0.0261217
0.026948
0.0279704
0.0290802
0.030062
0.233004
0.217907
0.188627
0.159579
0.133232
0.109957
0.0899467
0.0733367
0.0600627
0.049825
0.0421618
0.0365592
0.0325438
0.0297314
0.0278354
0.0266545
0.0260518
0.0259358
0.0261815
0.0268105
0.0277541
0.0289076
0.0301563
0.0312699
0.242814
0.228853
0.197488
0.165767
0.137778
0.113767
0.0934319
0.0765368
0.0628696
0.0521421
0.0439691
0.0379097
0.0335303
0.0304542
0.0283843
0.0271017
0.0264523
0.0263319
0.0265869
0.0272543
0.0282659
0.0295092
0.0308699
0.0321117
0.253489
0.24185
0.209917
0.175273
0.144898
0.119371
0.0981404
0.0806251
0.0663879
0.0550643
0.0462897
0.0396765
0.0348329
0.0313977
0.0290673
0.0276058
0.0268401
0.0266506
0.0268636
0.0274981
0.0285193
0.0298005
0.031233
0.0325891
0.262212
0.253867
0.223653
0.187327
0.154765
0.12732
0.104656
0.0860797
0.0709786
0.05887
0.0493534
0.0420589
0.0366264
0.0327135
0.030015
0.0282797
0.027314
0.0269791
0.0271
0.0276225
0.0285842
0.0298389
0.031288
0.0327286
0.264656
0.259663
0.234135
0.199099
0.166111
0.137402
0.113297
0.0933924
0.0771253
0.0639769
0.0535125
0.0453582
0.0391715
0.0346269
0.031422
0.0292918
0.0280217
0.027446
0.0274262
0.0277626
0.0285721
0.0297283
0.0311246
0.0326059
0.255333
0.254058
0.235229
0.205935
0.175869
0.147941
0.123426
0.102565
0.0851498
0.070825
0.059222
0.050002
0.0428529
0.0374761
0.0335812
0.0308966
0.0291866
0.0282608
0.0279782
0.0281156
0.0286579
0.0296332
0.0308925
0.032347
0.217931
0.231311
0.224501
0.204185
0.180167
0.156024
0.133143
0.112581
0.0946944
0.0794862
0.0668028
0.0564348
0.048158
0.0417392
0.0369335
0.0334882
0.0311587
0.0297316
0.0290358
0.0289216
0.0291467
0.0298031
0.0308507
0.0321985
0.00386776
0.00845152
0.0162633
0.0245216
0.0318936
0.0496834
0.0159053
0.0238651
0.035056
0.044187
0.0520251
0.0641318
0.019827
0.0313432
0.0444851
0.0547073
0.0634237
0.073736
0.0218971
0.0363989
0.0509351
0.0620591
0.0714781
0.0811652
0.0234536
0.0404577
0.0560407
0.0678786
0.077835
0.0872728
0.0244464
0.0439831
0.0603333
0.0727306
0.0831117
0.0924895
0.0249428
0.0472089
0.0640189
0.0768563
0.0875869
0.0970054
0.0251974
0.0500937
0.0671703
0.0803731
0.091411
0.100928
0.0260352
0.0525404
0.0698096
0.0833474
0.0946832
0.104349
0.0268733
0.0545029
0.071949
0.0858245
0.0974813
0.107363
0.0275673
0.0559651
0.0736011
0.08784
0.0998729
0.110073
0.0280558
0.0569263
0.0747763
0.0894205
0.101916
0.112578
0.0282725
0.0573937
0.0754774
0.090581
0.103655
0.114974
0.0281974
0.0573632
0.0756915
0.0913195
0.105115
0.117334
0.0278284
0.0568195
0.0754047
0.0916126
0.106294
0.119709
0.027184
0.0557342
0.07457
0.091408
0.107153
0.12211
0.0263123
0.0540635
0.0731221
0.0906175
0.107605
0.124502
0.0253482
0.0517408
0.0709664
0.0891062
0.107499
0.126785
0.0249471
0.0486624
0.0679689
0.0866758
0.106598
0.12876
0.0239845
0.044896
0.063936
0.083036
0.104535
0.130092
0.0224238
0.0402217
0.0585438
0.0777378
0.100734
0.130233
0.0202879
0.034127
0.0511471
0.0699837
0.0942073
0.128349
0.016235
0.0251598
0.0400192
0.0579112
0.0829347
0.123076
0.00386726
0.00859675
0.0192176
0.0357618
0.0623135
0.11234
0.146798
0.18846
0.198473
0.192848
0.177611
0.159215
0.14022
0.121757
0.104696
0.0894535
0.0761862
0.0649082
0.0555538
0.0480024
0.0421064
0.0376847
0.0345254
0.0324117
0.0311675
0.0306102
0.0305646
0.0308063
0.0314636
0.0325962
0.108538
0.147658
0.167309
0.171778
0.16805
0.157631
0.144033
0.129412
0.114769
0.100782
0.0878736
0.0763024
0.0662157
0.0576425
0.0506641
0.0452057
0.0410841
0.0381098
0.0360769
0.0348338
0.0342287
0.0341311
0.0343274
0.0348502
0.0968018
0.123155
0.142707
0.152856
0.155405
0.153204
0.146641
0.13741
0.127019
0.116182
0.105431
0.0951182
0.0855175
0.0769269
0.0694741
0.0631616
0.0579862
0.0538761
0.0507114
0.0483605
0.046725
0.0455893
0.0450093
0.0446825
0.0959998
0.114107
0.129879
0.141362
0.148185
0.151129
0.150741
0.148357
0.143892
0.138495
0.132671
0.126751
0.120928
0.11534
0.110061
0.105245
0.100976
0.0972432
0.0939799
0.0910431
0.0883263
0.0855872
0.0831847
0.0800579
0.0990407
0.112902
0.126084
0.13733
0.146198
0.152772
0.157378
0.160409
0.16211
0.162995
0.1635
0.163874
0.16419
0.164477
0.164738
0.164932
0.164958
0.16471
0.164054
0.162806
0.160904
0.158261
0.154967
0.150799
0.103073
0.114914
0.126465
0.137212
0.146887
0.15545
0.163033
0.169763
0.175808
0.181429
0.186815
0.192037
0.197082
0.201878
0.206305
0.210195
0.213343
0.215577
0.216785
0.216954
0.216332
0.214961
0.212623
0.20999
0.107117
0.117952
0.128471
0.13857
0.148191
0.157337
0.166057
0.174392
0.182422
0.190202
0.197726
0.204922
0.21167
0.217813
0.223182
0.227622
0.23103
0.233327
0.234506
0.234655
0.234057
0.232682
0.230516
0.228345
0.110859
0.121123
0.130886
0.140254
0.149302
0.158092
0.166666
0.17509
0.183327
0.191322
0.198975
0.206151
0.212692
0.218442
0.223262
0.227047
0.229748
0.231391
0.232076
0.231962
0.231237
0.22983
0.227833
0.225758
0.114251
0.124176
0.133356
0.141995
0.150235
0.158175
0.165861
0.173363
0.180609
0.187479
0.193845
0.199554
0.204464
0.208468
0.211511
0.213597
0.214799
0.215254
0.215142
0.214617
0.213706
0.212427
0.210774
0.208813
0.117367
0.127153
0.135943
0.143979
0.151423
0.158389
0.164945
0.171028
0.176643
0.181741
0.186202
0.189899
0.192757
0.194756
0.195935
0.196398
0.196321
0.195924
0.195443
0.195094
0.194994
0.194879
0.194825
0.194433
0.120343
0.130232
0.138904
0.1466
0.15348
0.159654
0.165185
0.170091
0.174324
0.177811
0.180509
0.182438
0.183628
0.184162
0.184172
0.183828
0.183311
0.182781
0.182371
0.182228
0.182641
0.183977
0.185878
0.187969
0.123342
0.133647
0.142556
0.150303
0.157031
0.162839
0.167791
0.171917
0.175234
0.177765
0.179548
0.180639
0.181138
0.181183
0.180925
0.18051
0.180033
0.179519
0.178918
0.178131
0.176903
0.176262
0.176704
0.179358
0.126525
0.137632
0.1472
0.155458
0.162547
0.168568
0.173593
0.177676
0.180868
0.183236
0.184863
0.18586
0.186351
0.186467
0.186308
0.185934
0.185286
0.184151
0.1823
0.179589
0.175665
0.17038
0.16538
0.164514
0.130046
0.142401
0.153077
0.162324
0.170291
0.177099
0.182835
0.18757
0.191379
0.194345
0.196568
0.198144
0.199166
0.199701
0.199721
0.19928
0.198082
0.195585
0.191258
0.184985
0.177327
0.16852
0.158813
0.152907
0.134035
0.148125
0.160342
0.170989
0.180246
0.18826
0.195131
0.200934
0.205738
0.209604
0.212604
0.214749
0.216082
0.216608
0.216042
0.213903
0.209619
0.203325
0.195672
0.186948
0.177066
0.165736
0.153542
0.144031
0.138596
0.154921
0.169027
0.181343
0.192083
0.201429
0.209476
0.216277
0.221874
0.226249
0.229478
0.231326
0.231462
0.229664
0.225804
0.220089
0.213004
0.204328
0.194013
0.181987
0.168704
0.154815
0.14106
0.130126
0.143799
0.162831
0.179016
0.193031
0.205137
0.215535
0.224305
0.231453
0.23699
0.240604
0.241789
0.240827
0.238109
0.233385
0.226803
0.218168
0.207381
0.194693
0.180475
0.165252
0.149809
0.135038
0.121805
0.112855
0.149662
0.171782
0.189988
0.205418
0.218378
0.229083
0.237605
0.24364
0.24661
0.246991
0.245639
0.242112
0.235896
0.227123
0.215981
0.202741
0.187792
0.171654
0.155021
0.138729
0.123776
0.111168
0.101705
0.0978011
0.156124
0.181532
0.201368
0.217557
0.230446
0.240222
0.246198
0.248729
0.248769
0.246365
0.240835
0.231998
0.220564
0.206846
0.191295
0.174468
0.157024
0.139812
0.123789
0.109891
0.0988605
0.0912689
0.0875793
0.0880481
0.163011
0.191604
0.212308
0.228234
0.239633
0.245874
0.248434
0.247452
0.243167
0.234867
0.22327
0.209104
0.192967
0.175511
0.157469
0.139658
0.123022
0.108498
0.0966934
0.0878848
0.0821965
0.0797254
0.0799943
0.0821607
0.170016
0.201219
0.221736
0.235974
0.243384
0.246143
0.244019
0.237631
0.226484
0.212123
0.19542
0.17729
0.158625
0.140248
0.123096
0.108101
0.0958128
0.0863166
0.0794529
0.0750601
0.0730279
0.0730917
0.0741831
0.0774052
0.176756
0.209371
0.228572
0.238921
0.242562
0.23987
0.231723
0.218035
0.201104
0.182243
0.162707
0.143575
0.125712
0.109992
0.0969946
0.0867467
0.0789183
0.0731469
0.0692105
0.0670119
0.0665591
0.0671459
0.0690005
0.0727452
0.183096
0.215301
0.231778
0.238093
0.235943
0.227172
0.21146
0.192354
0.171775
0.151351
0.132271
0.115318
0.101079
0.0896464
0.080633
0.0735639
0.0680997
0.0640558
0.0614129
0.0603216
0.0605416
0.0617152
0.0642339
0.0678845
0.190114
0.219446
0.232115
0.232715
0.22487
0.208245
0.187353
0.165359
0.144274
0.125331
0.109101
0.0957777
0.0850714
0.076436
0.0694372
0.0638311
0.0594763
0.0563858
0.0546764
0.0544092
0.0550476
0.0567729
0.059518
0.0629766
0.00488172
0.015793
0.0483566
0.0878349
0.112724
0.118277
0.0179315
0.0341842
0.0714092
0.111595
0.148531
0.182168
0.0227054
0.0479562
0.0862307
0.127031
0.167867
0.205099
0.0249004
0.0571801
0.0955253
0.136824
0.178362
0.213904
0.0267481
0.0638821
0.101782
0.143237
0.184486
0.218095
0.0293554
0.0685457
0.106035
0.147451
0.188317
0.220437
0.0314103
0.0717218
0.108787
0.150126
0.190878
0.222029
0.0329649
0.0737128
0.110315
0.151652
0.192715
0.223402
0.0340492
0.0746977
0.110782
0.152256
0.194112
0.224795
0.0346861
0.0747864
0.110283
0.152067
0.195191
0.226301
0.0348797
0.0740477
0.108875
0.151105
0.195974
0.227922
0.0347216
0.0725235
0.10659
0.149363
0.196415
0.229616
0.0342281
0.0702297
0.103446
0.146777
0.196419
0.231294
0.0334962
0.0671998
0.099447
0.143229
0.19577
0.232878
0.0325023
0.0634981
0.094591
0.138556
0.194152
0.234342
0.0312281
0.0591875
0.0888777
0.132561
0.191188
0.235613
0.029644
0.0543355
0.08232
0.12503
0.186425
0.236519
0.0276677
0.0490306
0.0749652
0.115741
0.17927
0.236681
0.0250105
0.0434397
0.0669257
0.104537
0.168992
0.235708
0.0236544
0.0380653
0.0584196
0.0914272
0.154814
0.232152
0.0222525
0.0331992
0.0497075
0.0767235
0.13592
0.223792
0.0203665
0.0283282
0.0406937
0.0608936
0.11114
0.206044
0.0166419
0.0220338
0.0301154
0.0433089
0.0793845
0.166715
0.00459316
0.00790961
0.0124555
0.0197585
0.0386275
0.117936
0.200801
0.223564
0.230314
0.22489
0.209181
0.18689
0.163547
0.141654
0.122499
0.106408
0.0932358
0.0824892
0.0736305
0.0663206
0.0603629
0.0556343
0.0521204
0.0498699
0.0489293
0.0491068
0.0501023
0.0521144
0.0548231
0.0580119
0.218371
0.228333
0.226933
0.214349
0.191262
0.166454
0.143316
0.123329
0.106663
0.0929351
0.0815767
0.0721062
0.0642497
0.0578146
0.0526661
0.048729
0.0459676
0.0443692
0.0439172
0.0443099
0.0455281
0.0475288
0.0500862
0.0529747
0.228141
0.230068
0.221802
0.200558
0.174098
0.14913
0.127602
0.109658
0.094771
0.0823461
0.0719455
0.0633159
0.0562536
0.0505952
0.0462013
0.0429564
0.0407787
0.0396146
0.039415
0.0398973
0.0411338
0.042989
0.0453164
0.0478985
0.23249
0.229492
0.21365
0.186372
0.159163
0.135405
0.115515
0.0989128
0.0849844
0.073312
0.0636411
0.0557562
0.0494556
0.0445366
0.040808
0.0381134
0.0363417
0.0354201
0.0352925
0.0357484
0.0368524
0.0384765
0.0405239
0.0428051
0.23371
0.226265
0.203259
0.173762
0.147099
0.124591
0.105712
0.0898049
0.0764541
0.0654077
0.0564418
0.0493126
0.0437518
0.0394933
0.036305
0.0340082
0.0324813
0.0316493
0.0314634
0.0317964
0.0326611
0.0339921
0.0357273
0.0377172
0.233481
0.221442
0.193046
0.163194
0.137423
0.115681
0.0972646
0.0817468
0.068898
0.0585017
0.050278
0.0438916
0.0389975
0.0352854
0.0325048
0.0304725
0.0290675
0.0282182
0.0278857
0.0280169
0.0285697
0.0295565
0.030952
0.0326578
0.232111
0.215785
0.18417
0.154655
0.129449
0.107962
0.0897147
0.0745262
0.0622301
0.0525396
0.0450578
0.0393524
0.0350238
0.0317422
0.0292571
0.0273906
0.0260254
0.0250931
0.0245611
0.0244166
0.0246233
0.0252071
0.0262271
0.0276458
0.230294
0.209943
0.177004
0.147734
0.122616
0.101048
0.082882
0.0680768
0.0564072
0.0474436
0.0406602
0.0355483
0.031681
0.0287297
0.0264548
0.024688
0.0233164
0.0222707
0.0215172
0.0210486
0.0208733
0.0210132
0.0215838
0.022686
0.228508
0.204684
0.171227
0.141973
0.116565
0.0947597
0.0767054
0.06237
0.0513746
0.0431176
0.0369598
0.0323458
0.0288456
0.0261451
0.024021
0.0223163
0.0209213
0.0197627
0.0187979
0.0180121
0.0174154
0.0170573
0.0170846
0.0177323
0.227078
0.200284
0.16665
0.137076
0.111114
0.0890305
0.0711653
0.0573725
0.0470598
0.0394557
0.0338371
0.0296307
0.0264197
0.0239112
0.0219005
0.0202421
0.0188302
0.0175872
0.0164573
0.015406
0.0144214
0.0135224
0.0127703
0.0124467
0.226233
0.196809
0.163108
0.132869
0.106179
0.0838398
0.0662453
0.0530353
0.043378
0.0363537
0.0311876
0.0273102
0.0243273
0.0219697
0.0200511
0.0184383
0.0170315
0.0157526
0.0145365
0.013326
0.0120664
0.0106951
0.00901852
0.00645909
0.225918
0.194429
0.160486
0.129248
0.101725
0.0791791
0.0619184
0.0492966
0.0402417
0.0337171
0.0289238
0.0253099
0.022508
0.0202725
0.0184348
0.0168738
0.0154989
0.0142375
0.0130274
0.0118088
0.0105179
0.00909263
0.00750176
0.00545981
0.226122
0.193192
0.158708
0.126162
0.0977419
0.0750369
0.0581454
0.0460878
0.0375685
0.0314647
0.0269738
0.0235693
0.0209114
0.0187763
0.017011
0.0155061
0.0141798
0.0129676
0.0118157
0.010674
0.0094893
0.00821201
0.00681798
0.00516882
0.226917
0.193152
0.15773
0.123587
0.0942221
0.0713931
0.0548782
0.0433406
0.035285
0.029529
0.0252799
0.0220399
0.0194958
0.0174427
0.0157408
0.0142901
0.0130158
0.0118593
0.0107726
0.00971175
0.00863142
0.00749418
0.00629591
0.00495803
0.22836
0.194301
0.157494
0.12151
0.091157
0.0682182
0.0520646
0.0409916
0.033329
0.0278554
0.0237964
0.020684
0.0182285
0.0162416
0.0145941
0.0131933
0.0119697
0.0108691
0.00984784
0.00886669
0.0078869
0.0068809
0.00585571
0.00476546
0.230511
0.196709
0.157818
0.119928
0.0885298
0.0654743
0.0496528
0.0389858
0.0316494
0.0264004
0.0224881
0.0194727
0.0170856
0.0151519
0.0135511
0.0121961
0.0110214
0.00997602
0.00901953
0.00811664
0.00723392
0.00635086
0.00547908
0.00459084
0.233536
0.200357
0.159171
0.118865
0.0863134
0.0631218
0.0475966
0.0372763
0.0302044
0.0251297
0.0213276
0.0183843
0.0160493
0.0141589
0.0125991
0.0112869
0.0101597
0.00916915
0.00827696
0.00745082
0.00666129
0.00589234
0.00515635
0.00443667
0.237501
0.205327
0.161258
0.118254
0.0844663
0.0611216
0.045853
0.0358217
0.0289589
0.0240155
0.0202936
0.0174026
0.0151072
0.0132525
0.0117296
0.0104584
0.00937799
0.00844177
0.00761313
0.00686172
0.00616085
0.00549699
0.00488101
0.00430299
0.242506
0.211753
0.164025
0.118034
0.0829451
0.0594328
0.0443812
0.0345855
0.0278837
0.0230357
0.0193695
0.0165152
0.0142499
0.0124257
0.010937
0.00970541
0.00867136
0.00778906
0.00702289
0.00634375
0.00572657
0.00515882
0.00464851
0.00418927
0.24883
0.219773
0.167387
0.118083
0.081692
0.0580109
0.0431418
0.033535
0.0269538
0.0221721
0.0185424
0.0157128
0.0134708
0.0116734
0.010217
0.00902422
0.008036
0.00720689
0.00650174
0.00589195
0.00535322
0.00487275
0.00445472
0.00409418
0.256992
0.229545
0.170883
0.118253
0.0806375
0.0568063
0.0420958
0.0326407
0.0261481
0.0214098
0.0178019
0.0149883
0.0127649
0.0109916
0.00956631
0.00841166
0.00746854
0.00669155
0.00604552
0.00550181
0.00503598
0.00463393
0.00429554
0.00401585
0.268018
0.241153
0.174227
0.118454
0.0797025
0.0557648
0.0412045
0.0318755
0.0254481
0.0207365
0.01714
0.0143365
0.0121282
0.0103776
0.00898232
0.0078649
0.00696584
0.00623946
0.0056502
0.0051688
0.00476996
0.00443746
0.00416672
0.00395218
0.283504
0.254073
0.177074
0.118487
0.0787697
0.0548241
0.04043
0.0312147
0.0248379
0.0201421
0.0165501
0.0137529
0.011558
0.00982871
0.00846255
0.00738124
0.00652476
0.00584696
0.00531158
0.00488822
0.00455004
0.00427824
0.00406406
0.00390115
0.30462
0.26373
0.178907
0.117926
0.0777216
0.0539365
0.0397456
0.0306422
0.0243079
0.019621
0.0160292
0.0132359
0.0110528
0.00934369
0.00800527
0.0069584
0.00614245
0.00551059
0.00502552
0.0046552
0.00437091
0.00415117
0.00398358
0.00386095
)
;

boundaryField
{
    rotor
    {
        type            kqRWallFunction;
        value           nonuniform List<scalar> 
144
(
0.00689382
0.0348209
0.0765106
0.123352
0.152776
0.170569
0.00689382
0.0223092
0.0319703
0.0396864
0.0461781
0.0515836
0.0560103
0.0595427
0.0622457
0.0641693
0.0653572
0.0658669
0.0658354
0.0651762
0.0638432
0.0617881
0.058959
0.0552928
0.0507167
0.0451538
0.0385378
0.03084
0.0215051
0.00605846
0.00605846
0.0287062
0.0637221
0.10702
0.154831
0.184771
0.0096625
0.0140141
0.015618
0.0176751
0.0239742
0.0802561
0.0096625
0.0267005
0.0348215
0.0401688
0.0440253
0.0470593
0.0495894
0.0517414
0.0535684
0.0550997
0.0563581
0.057367
0.0581573
0.0584378
0.0582284
0.0573832
0.0558791
0.0536575
0.0506129
0.0465194
0.0411091
0.0339864
0.0241593
0.0100946
0.0100946
0.04414
0.0916389
0.119336
0.132902
0.128674
0.00386776
0.00845152
0.0162633
0.0245216
0.0318936
0.0496834
0.00386776
0.0159053
0.019827
0.0218971
0.0234536
0.0244464
0.0249428
0.0251974
0.0260352
0.0268733
0.0275673
0.0280558
0.0282725
0.0281974
0.0278284
0.027184
0.0263123
0.0253482
0.0249471
0.0239845
0.0224238
0.0202879
0.016235
0.00386726
0.00386726
0.00859675
0.0192176
0.0357618
0.0623135
0.11234
0.00488172
0.015793
0.0483566
0.0878349
0.112724
0.118277
0.00488172
0.0179315
0.0227054
0.0249004
0.0267481
0.0293554
0.0314103
0.0329649
0.0340492
0.0346861
0.0348797
0.0347216
0.0342281
0.0334962
0.0325023
0.0312281
0.029644
0.0276677
0.0250105
0.0236544
0.0222525
0.0203665
0.0166419
0.00459316
0.00459316
0.00790961
0.0124555
0.0197585
0.0386275
0.117936
)
;