/*--------------------------------*- C++ -*----------------------------------*\
  =========                 |
  \\      /  F ield         | OpenFOAM: The Open Source CFD Toolbox
   \\    /   O peration     | Website:  https://openfoam.org
    \\  /    A nd           | Version:  11
     \\/     M anipulation  |
\*---------------------------------------------------------------------------*/
FoamFile
{
    format      ascii;
    class       surfaceScalarField;
    location    "0.9";
    object      meshPhi;
}
// * * * * * * * * * * * * * * * * * * * * * * * * * * * * * * * * * * * * * //

dimensions      [0 3 -1 0 0 0 0];

internalField   nonuniform List<scalar> 
5640
(
1.36926e-16
9.81747e-07
2.42042e-16
1.37445e-06
3.76899e-16
1.76715e-06
-1.33939e-15
2.15984e-06
-3.68171e-15
2.55254e-06
2.94524e-06
5.95116e-15
1.81387e-18
9.81747e-07
-3.88832e-16
1.37445e-06
-2.60421e-15
1.76715e-06
1.94342e-15
2.15984e-06
8.06616e-15
2.55254e-06
2.94524e-06
-9.02988e-15
-1.16486e-16
9.81747e-07
1.86332e-16
1.37445e-06
-1.56236e-15
1.76715e-06
-4.2127e-15
2.15984e-06
-7.4986e-15
2.55254e-06
2.94524e-06
7.72103e-16
8.69368e-17
9.81747e-07
-1.01993e-16
1.37445e-06
2.69304e-15
1.76715e-06
7.44269e-15
2.15984e-06
3.25962e-15
2.55254e-06
2.94524e-06
-2.79818e-15
-4.8376e-17
9.81747e-07
3.94376e-17
1.37445e-06
1.94157e-16
1.76715e-06
-1.80624e-15
2.15984e-06
-4.20869e-15
2.55254e-06
2.94524e-06
5.0133e-15
-1.80108e-16
9.81747e-07
4.25787e-18
1.37445e-06
-1.84789e-15
1.76715e-06
-3.88625e-15
2.15984e-06
3.15678e-15
2.55254e-06
2.94524e-06
4.97963e-16
2.53952e-16
9.81747e-07
2.55388e-16
1.37445e-06
2.06585e-15
1.76715e-06
4.50388e-15
2.15984e-06
-2.31012e-15
2.55254e-06
2.94524e-06
5.40547e-16
2.16172e-17
9.81747e-07
-3.21755e-16
1.37445e-06
-1.14896e-15
1.76715e-06
-5.2857e-15
2.15984e-06
-3.76723e-16
2.55254e-06
2.94524e-06
-5.64011e-15
-1.43432e-16
9.81747e-07
1.66389e-16
1.37445e-06
4.19116e-15
1.76715e-06
6.34933e-15
2.15984e-06
-8.05484e-16
2.55254e-06
2.94524e-06
8.39181e-16
-6.88319e-17
9.81747e-07
-9.20855e-17
1.37445e-06
-2.76943e-15
1.76715e-06
-3.68846e-16
2.15984e-06
-1.45081e-15
2.55254e-06
2.94524e-06
-1.76828e-16
1.66285e-16
9.81747e-07
-8.87672e-17
1.37445e-06
5.69612e-16
1.76715e-06
-2.10367e-15
2.15984e-06
9.65983e-15
2.55254e-06
2.94524e-06
5.28994e-15
-1.77814e-16
9.81747e-07
-2.06089e-17
1.37445e-06
-3.4552e-16
1.76715e-06
-4.17283e-15
2.15984e-06
-2.62245e-15
2.55254e-06
2.94524e-06
5.36917e-15
1.77766e-16
9.81747e-07
2.04704e-17
1.37445e-06
3.45374e-16
1.76715e-06
4.17254e-15
2.15984e-06
2.62233e-15
2.55254e-06
2.94524e-06
-5.36945e-15
-1.66377e-16
9.81747e-07
8.86889e-17
1.37445e-06
-5.69762e-16
1.76715e-06
2.10334e-15
2.15984e-06
-9.6601e-15
2.55254e-06
2.94524e-06
-5.29037e-15
6.87819e-17
9.81747e-07
9.20671e-17
1.37445e-06
2.76927e-15
1.76715e-06
3.68656e-16
2.15984e-06
1.45072e-15
2.55254e-06
2.94524e-06
1.76561e-16
1.43377e-16
9.81747e-07
-1.66429e-16
1.37445e-06
-4.19118e-15
1.76715e-06
-6.34947e-15
2.15984e-06
8.05545e-16
2.55254e-06
2.94524e-06
-8.39464e-16
-2.16975e-17
9.81747e-07
3.2164e-16
1.37445e-06
1.14883e-15
1.76715e-06
5.28552e-15
2.15984e-06
3.76586e-16
2.55254e-06
2.94524e-06
5.63964e-15
-2.54017e-16
9.81747e-07
-2.555e-16
1.37445e-06
-2.06606e-15
1.76715e-06
-4.5042e-15
2.15984e-06
2.30986e-15
2.55254e-06
2.94524e-06
-5.41017e-16
1.80082e-16
9.81747e-07
-4.34917e-18
1.37445e-06
1.84771e-15
1.76715e-06
3.886e-15
2.15984e-06
-3.15718e-15
2.55254e-06
2.94524e-06
-4.98236e-16
4.83703e-17
9.81747e-07
-3.95303e-17
1.37445e-06
-1.94382e-16
1.76715e-06
1.806e-15
2.15984e-06
4.20842e-15
2.55254e-06
2.94524e-06
-5.01338e-15
-8.69932e-17
9.81747e-07
1.01887e-16
1.37445e-06
-2.69314e-15
1.76715e-06
-7.44291e-15
2.15984e-06
-3.2601e-15
2.55254e-06
2.94524e-06
2.79781e-15
1.16436e-16
9.81747e-07
-1.86412e-16
1.37445e-06
1.5623e-15
1.76715e-06
4.21249e-15
2.15984e-06
7.49818e-15
2.55254e-06
2.94524e-06
-7.72368e-16
-1.84114e-18
9.81747e-07
3.88763e-16
1.37445e-06
2.60409e-15
1.76715e-06
-1.94367e-15
2.15984e-06
-8.06629e-15
2.55254e-06
2.94524e-06
9.02974e-15
-1.36977e-16
-2.42111e-16
-3.77061e-16
1.33923e-15
3.68147e-15
-5.9514e-15
-1.13364e-14
4.53785e-06
-4.53785e-06
-4.81273e-16
5.23599e-06
-5.23599e-06
-5.35757e-15
5.93412e-06
-5.93412e-06
-1.13038e-14
6.63225e-06
-6.63225e-06
4.86828e-15
7.33038e-06
-7.33038e-06
-1.1104e-15
8.02851e-06
-8.02851e-06
-8.15926e-15
8.72664e-06
-8.72664e-06
1.30431e-14
9.42478e-06
-9.42478e-06
5.94814e-15
1.01229e-05
-1.01229e-05
-1.99785e-15
1.0821e-05
-1.0821e-05
2.43855e-14
1.15192e-05
-1.15192e-05
1.61881e-14
1.22173e-05
-1.22173e-05
-3.27878e-14
1.29154e-05
-1.29154e-05
-3.0533e-15
1.36136e-05
-1.36136e-05
-1.44429e-14
1.43117e-05
-1.43117e-05
-2.69036e-14
1.50098e-05
-1.50098e-05
7.73616e-15
1.5708e-05
-1.5708e-05
-4.44159e-15
1.64061e-05
-1.64061e-05
-1.80001e-14
1.71042e-05
-1.71042e-05
2.18197e-14
1.78024e-05
-1.78024e-05
8.21085e-15
1.85005e-05
-1.85005e-05
-6.08573e-15
1.91986e-05
-1.91986e-05
3.89143e-14
1.98967e-05
-1.98967e-05
2.05949e-05
-2.05949e-05
9.3984e-15
4.53785e-06
5.20169e-16
5.23599e-06
7.52815e-15
5.93412e-06
-4.41195e-15
6.63225e-06
3.78289e-15
7.33038e-06
1.33841e-14
8.02851e-06
-2.11036e-15
8.72664e-06
8.52715e-15
9.42478e-06
-1.00276e-14
1.01229e-05
1.86472e-15
1.0821e-05
-2.02033e-14
1.15192e-05
-7.01487e-15
1.22173e-05
7.5096e-15
1.29154e-05
2.36067e-14
1.36136e-05
-2.04226e-15
1.43117e-05
1.48305e-14
1.50098e-05
-1.38807e-14
1.5708e-05
2.3865e-15
1.64061e-05
2.04064e-14
1.71042e-05
-7.01715e-15
1.78024e-05
1.20641e-14
1.85005e-05
-2.59421e-14
1.91986e-05
1.84399e-15
1.98967e-05
2.05949e-05
-8.67638e-15
4.53785e-06
1.22923e-14
5.23599e-06
1.88309e-15
5.93412e-06
8.90149e-15
6.63225e-06
-5.10894e-15
7.33038e-06
-2.19919e-14
8.02851e-06
1.22631e-14
8.72664e-06
-5.37499e-15
9.42478e-06
4.45565e-15
1.01229e-05
-1.43047e-14
1.0821e-05
-7.32742e-15
1.15192e-05
7.03763e-15
1.22173e-05
2.39933e-14
1.29154e-05
-7.55667e-15
1.36136e-05
9.79942e-15
1.43117e-05
-1.62399e-14
1.50098e-05
4.02921e-14
1.5708e-05
1.44418e-14
1.64061e-05
-1.3707e-14
1.71042e-05
-7.8985e-15
1.78024e-05
-3.92509e-14
1.85005e-05
4.27518e-14
1.91986e-05
-8.85468e-15
1.98967e-05
2.05949e-05
5.9859e-15
4.53785e-06
2.18602e-16
5.23599e-06
-6.43588e-15
5.93412e-06
6.06369e-15
6.63225e-06
-2.09296e-15
7.33038e-06
1.61753e-14
8.02851e-06
-1.88308e-14
8.72664e-06
-2.3514e-15
9.42478e-06
9.17148e-15
1.01229e-05
-4.71169e-15
1.0821e-05
2.16263e-14
1.15192e-05
-2.96465e-14
1.22173e-05
-9.29141e-15
1.29154e-05
-1.89093e-14
1.36136e-05
4.46208e-15
1.43117e-05
3.01531e-14
1.50098e-05
-2.62206e-14
1.5708e-05
4.31173e-16
1.64061e-05
-2.11713e-14
1.71042e-05
1.87068e-14
1.78024e-05
-3.91979e-15
1.85005e-05
-2.91628e-14
1.91986e-05
1.52267e-14
1.98967e-05
2.05949e-05
6.71486e-15
4.53785e-06
-7.30664e-15
5.23599e-06
1.11008e-14
5.93412e-06
-4.2416e-15
6.63225e-06
1.51015e-14
7.33038e-06
-5.21053e-15
8.02851e-06
1.70131e-14
8.72664e-06
-3.94216e-15
9.42478e-06
-2.95845e-16
1.01229e-05
6.61069e-15
1.0821e-05
1.37052e-14
1.15192e-05
1.01831e-14
1.22173e-05
1.82171e-14
1.29154e-05
1.4368e-14
1.36136e-05
2.33388e-14
1.43117e-05
-2.53453e-14
1.50098e-05
2.90725e-14
1.5708e-05
-7.83119e-15
1.64061e-05
3.54178e-14
1.71042e-05
-4.51733e-15
1.78024e-05
4.23657e-14
1.85005e-05
-5.90087e-16
1.91986e-05
-8.73761e-15
1.98967e-05
2.05949e-05
-4.63073e-15
4.53785e-06
5.79745e-15
5.23599e-06
-1.61511e-14
5.93412e-06
-5.97484e-15
6.63225e-06
-8.55515e-15
7.33038e-06
4.22241e-15
8.02851e-06
-8.18788e-15
8.72664e-06
6.99807e-15
9.42478e-06
-2.42305e-14
1.01229e-05
-7.77023e-15
1.0821e-05
-2.27648e-14
1.15192e-05
8.34877e-15
1.22173e-05
-7.40366e-15
1.29154e-05
2.82628e-14
1.36136e-05
-4.57104e-14
1.43117e-05
-8.22057e-15
1.50098e-05
-2.82277e-14
1.5708e-05
-2.34461e-15
1.64061e-05
-6.94622e-15
1.71042e-05
2.21453e-14
1.78024e-05
-3.41135e-14
1.85005e-05
-3.74702e-15
1.91986e-05
-3.23495e-14
1.98967e-05
2.05949e-05
-8.92554e-15
4.53785e-06
-2.28949e-15
5.23599e-06
-2.22453e-15
5.93412e-06
6.61577e-15
6.63225e-06
-3.38827e-15
7.33038e-06
-3.90849e-15
8.02851e-06
-6.41985e-15
8.72664e-06
-7.15918e-15
9.42478e-06
6.80946e-15
1.01229e-05
6.98134e-15
1.0821e-05
-9.0648e-15
1.15192e-05
6.75877e-15
1.22173e-05
-2.88892e-14
1.29154e-05
-1.22362e-14
1.36136e-05
4.80149e-15
1.43117e-05
2.50284e-14
1.50098e-05
3.85926e-15
1.5708e-05
3.60334e-15
1.64061e-05
-2.04845e-14
1.71042e-05
-2.17628e-14
1.78024e-05
3.46918e-15
1.85005e-05
2.90369e-14
1.91986e-05
-1.66972e-15
1.98967e-05
2.05949e-05
6.2155e-15
4.53785e-06
-3.87951e-15
5.23599e-06
1.54218e-14
5.93412e-06
-7.06544e-15
6.63225e-06
-2.21136e-15
7.33038e-06
1.4279e-15
8.02851e-06
-5.49447e-15
8.72664e-06
1.32252e-14
9.42478e-06
6.04443e-15
1.01229e-05
-1.74514e-14
1.0821e-05
2.08857e-14
1.15192e-05
-2.14482e-14
1.22173e-05
1.91308e-14
1.29154e-05
-7.31717e-15
1.36136e-05
3.84839e-14
1.43117e-05
-1.29239e-14
1.50098e-05
-1.88459e-15
1.5708e-05
5.71159e-15
1.64061e-05
-7.58573e-15
1.71042e-05
2.76567e-14
1.78024e-05
1.40995e-14
1.85005e-05
-5.31416e-14
1.91986e-05
3.90816e-14
1.98967e-05
2.05949e-05
-1.4991e-15
4.53785e-06
1.08967e-14
5.23599e-06
-6.59948e-15
5.93412e-06
7.26553e-15
6.63225e-06
6.17389e-15
7.33038e-06
2.48739e-15
8.02851e-06
-9.65325e-16
8.72664e-06
-4.36642e-15
9.42478e-06
-8.90101e-15
1.01229e-05
1.3863e-14
1.0821e-05
1.06893e-14
1.15192e-05
6.24998e-15
1.22173e-05
-1.31308e-16
1.29154e-05
-3.43947e-15
1.36136e-05
-1.1044e-14
1.43117e-05
-1.77654e-14
1.50098e-05
1.76777e-14
1.5708e-05
9.94957e-15
1.64061e-05
3.32487e-15
1.71042e-05
-3.29705e-14
1.78024e-05
-1.04219e-14
1.85005e-05
3.00628e-14
1.91986e-05
-5.99954e-14
1.98967e-05
2.05949e-05
5.16981e-15
4.53785e-06
-7.45608e-15
5.23599e-06
-7.56968e-16
5.93412e-06
6.83921e-15
6.63225e-06
-9.97461e-15
7.33038e-06
-1.6655e-15
8.02851e-06
9.21828e-15
8.72664e-06
-1.34604e-14
9.42478e-06
2.32205e-14
1.01229e-05
1.04728e-14
1.0821e-05
-1.72746e-14
1.15192e-05
-3.02787e-15
1.22173e-05
1.13953e-14
1.29154e-05
-1.9819e-14
1.36136e-05
-4.68008e-15
1.43117e-05
5.03064e-14
1.50098e-05
-2.40471e-14
1.5708e-05
-6.66201e-15
1.64061e-05
1.42596e-14
1.71042e-05
1.64716e-15
1.78024e-05
-6.81019e-15
1.85005e-05
1.44385e-14
1.91986e-05
5.07575e-14
1.98967e-05
2.05949e-05
-6.19766e-15
4.53785e-06
2.80131e-17
5.23599e-06
1.15113e-14
5.93412e-06
-2.06263e-14
6.63225e-06
5.3656e-15
7.33038e-06
1.22005e-15
8.02851e-06
-4.7926e-17
8.72664e-06
1.23915e-14
9.42478e-06
-1.32272e-14
1.01229e-05
-1.88942e-14
1.0821e-05
-4.9664e-15
1.15192e-05
-7.1554e-15
1.22173e-05
-1.48876e-14
1.29154e-05
3.5336e-14
1.36136e-05
-1.97607e-18
1.43117e-05
-4.31405e-14
1.50098e-05
1.35626e-14
1.5708e-05
-2.82581e-14
1.64061e-05
2.44963e-15
1.71042e-05
-1.02456e-14
1.78024e-05
2.38004e-14
1.85005e-05
1.38701e-14
1.91986e-05
-4.55672e-14
1.98967e-05
2.05949e-05
-1.90714e-15
4.53785e-06
1.13052e-15
5.23599e-06
-2.16623e-14
5.93412e-06
9.62325e-15
6.63225e-06
1.51362e-14
7.33038e-06
-1.40653e-14
8.02851e-06
8.09091e-15
8.72664e-06
-2.69611e-14
9.42478e-06
-1.96694e-15
1.01229e-05
2.97168e-14
1.0821e-05
-1.17465e-14
1.15192e-05
1.98664e-14
1.22173e-05
-2.74461e-14
1.29154e-05
-2.0619e-14
1.36136e-05
1.60407e-14
1.43117e-05
-4.61731e-15
1.50098e-05
4.68633e-15
1.5708e-05
4.7965e-14
1.64061e-05
-1.37418e-14
1.71042e-05
3.23636e-14
1.78024e-05
-3.51882e-14
1.85005e-05
-2.49096e-14
1.91986e-05
7.19098e-14
1.98967e-05
2.05949e-05
1.90608e-15
4.53785e-06
-1.13083e-15
5.23599e-06
2.16616e-14
5.93412e-06
-9.62513e-15
6.63225e-06
-1.51375e-14
7.33038e-06
1.40655e-14
8.02851e-06
-8.09392e-15
8.72664e-06
2.69587e-14
9.42478e-06
1.96414e-15
1.01229e-05
-2.97174e-14
1.0821e-05
1.17434e-14
1.15192e-05
-1.98677e-14
1.22173e-05
2.74433e-14
1.29154e-05
2.06117e-14
1.36136e-05
-1.60429e-14
1.43117e-05
4.61127e-15
1.50098e-05
-4.69759e-15
1.5708e-05
-4.79694e-14
1.64061e-05
1.37379e-14
1.71042e-05
-3.23757e-14
1.78024e-05
3.51841e-14
1.85005e-05
2.48994e-14
1.91986e-05
-7.19187e-14
1.98967e-05
2.05949e-05
6.19697e-15
4.53785e-06
-2.87793e-17
5.23599e-06
-1.15118e-14
5.93412e-06
2.06256e-14
6.63225e-06
-5.36657e-15
7.33038e-06
-1.2222e-15
8.02851e-06
4.66172e-17
8.72664e-06
-1.23947e-14
9.42478e-06
1.32247e-14
1.01229e-05
1.88939e-14
1.0821e-05
4.96154e-15
1.15192e-05
7.15217e-15
1.22173e-05
1.48864e-14
1.29154e-05
-3.53388e-14
1.36136e-05
-4.45789e-19
1.43117e-05
4.31347e-14
1.50098e-05
-1.35654e-14
1.5708e-05
2.82534e-14
1.64061e-05
-2.45644e-15
1.71042e-05
1.02392e-14
1.78024e-05
-2.38107e-14
1.85005e-05
-1.38776e-14
1.91986e-05
4.55607e-14
1.98967e-05
2.05949e-05
-5.17027e-15
4.53785e-06
7.45478e-15
5.23599e-06
7.56547e-16
5.93412e-06
-6.84023e-15
6.63225e-06
9.97374e-15
7.33038e-06
1.66385e-15
8.02851e-06
-9.21929e-15
8.72664e-06
1.34586e-14
9.42478e-06
-2.32231e-14
1.01229e-05
-1.04727e-14
1.0821e-05
1.72709e-14
1.15192e-05
3.02619e-15
1.22173e-05
-1.13996e-14
1.29154e-05
1.98135e-14
1.36136e-05
4.67738e-15
1.43117e-05
-5.03127e-14
1.50098e-05
2.40435e-14
1.5708e-05
6.65541e-15
1.64061e-05
-1.42659e-14
1.71042e-05
-1.65028e-15
1.78024e-05
6.8044e-15
1.85005e-05
-1.44456e-14
1.91986e-05
-5.07592e-14
1.98967e-05
2.05949e-05
1.49852e-15
4.53785e-06
-1.08974e-14
5.23599e-06
6.59911e-15
5.93412e-06
-7.26641e-15
6.63225e-06
-6.1755e-15
7.33038e-06
-2.48954e-15
8.02851e-06
9.64229e-16
8.72664e-06
4.36263e-15
9.42478e-06
8.90047e-15
1.01229e-05
-1.38642e-14
1.0821e-05
-1.06936e-14
1.15192e-05
-6.25166e-15
1.22173e-05
1.25572e-16
1.29154e-05
3.43607e-15
1.36136e-05
1.10398e-14
1.43117e-05
1.7761e-14
1.50098e-05
-1.76817e-14
1.5708e-05
-9.95815e-15
1.64061e-05
-3.33091e-15
1.71042e-05
3.29652e-14
1.78024e-05
1.04171e-14
1.85005e-05
-3.00751e-14
1.91986e-05
5.9991e-14
1.98967e-05
2.05949e-05
-6.21601e-15
4.53785e-06
3.87871e-15
5.23599e-06
-1.54224e-14
5.93412e-06
7.06387e-15
6.63225e-06
2.21021e-15
7.33038e-06
-1.43027e-15
8.02851e-06
5.49282e-15
8.72664e-06
-1.32272e-14
9.42478e-06
-6.04672e-15
1.01229e-05
1.745e-14
1.0821e-05
-2.08887e-14
1.15192e-05
2.14439e-14
1.22173e-05
-1.91369e-14
1.29154e-05
7.31356e-15
1.36136e-05
-3.84899e-14
1.43117e-05
1.29187e-14
1.50098e-05
1.88029e-15
1.5708e-05
-5.72108e-15
1.64061e-05
7.5852e-15
1.71042e-05
-2.76628e-14
1.78024e-05
-1.41044e-14
1.85005e-05
5.31328e-14
1.91986e-05
-3.90886e-14
1.98967e-05
2.05949e-05
8.92474e-15
4.53785e-06
2.28881e-15
5.23599e-06
2.22378e-15
5.93412e-06
-6.61641e-15
6.63225e-06
3.38744e-15
7.33038e-06
3.90592e-15
8.02851e-06
6.41798e-15
8.72664e-06
7.15709e-15
9.42478e-06
-6.81156e-15
1.01229e-05
-6.98269e-15
1.0821e-05
9.06452e-15
1.15192e-05
-6.76091e-15
1.22173e-05
2.88861e-14
1.29154e-05
1.22328e-14
1.36136e-05
-4.80945e-15
1.43117e-05
-2.50296e-14
1.50098e-05
-3.86253e-15
1.5708e-05
-3.61042e-15
1.64061e-05
2.04801e-14
1.71042e-05
2.17558e-14
1.78024e-05
-3.46846e-15
1.85005e-05
-2.905e-14
1.91986e-05
1.65713e-15
1.98967e-05
2.05949e-05
4.6302e-15
4.53785e-06
-5.79767e-15
5.23599e-06
1.61502e-14
5.93412e-06
5.97399e-15
6.63225e-06
8.55418e-15
7.33038e-06
-4.22491e-15
8.02851e-06
8.18585e-15
8.72664e-06
-6.99995e-15
9.42478e-06
2.42298e-14
1.01229e-05
7.76892e-15
1.0821e-05
2.27624e-14
1.15192e-05
-8.35113e-15
1.22173e-05
7.40097e-15
1.29154e-05
-2.82685e-14
1.36136e-05
4.57047e-14
1.43117e-05
8.21766e-15
1.50098e-05
2.82212e-14
1.5708e-05
2.33824e-15
1.64061e-05
6.94169e-15
1.71042e-05
-2.21547e-14
1.78024e-05
3.41077e-14
1.85005e-05
3.73557e-15
1.91986e-05
3.23462e-14
1.98967e-05
2.05949e-05
-6.71543e-15
4.53785e-06
7.30652e-15
5.23599e-06
-1.1101e-14
5.93412e-06
4.24044e-15
6.63225e-06
-1.51027e-14
7.33038e-06
5.20845e-15
8.02851e-06
-1.70145e-14
8.72664e-06
3.93975e-15
9.42478e-06
2.93529e-16
1.01229e-05
-6.61328e-15
1.0821e-05
-1.37077e-14
1.15192e-05
-1.01859e-14
1.22173e-05
-1.82197e-14
1.29154e-05
-1.43701e-14
1.36136e-05
-2.33435e-14
1.43117e-05
2.53421e-14
1.50098e-05
-2.90758e-14
1.5708e-05
7.82555e-15
1.64061e-05
-3.54193e-14
1.71042e-05
4.50832e-15
1.78024e-05
-4.23733e-14
1.85005e-05
5.81854e-16
1.91986e-05
8.73109e-15
1.98967e-05
2.05949e-05
-5.9863e-15
4.53785e-06
-2.19188e-16
5.23599e-06
6.4352e-15
5.93412e-06
-6.06423e-15
6.63225e-06
2.09219e-15
7.33038e-06
-1.61775e-14
8.02851e-06
1.88294e-14
8.72664e-06
2.35079e-15
9.42478e-06
-9.17402e-15
1.01229e-05
4.70844e-15
1.0821e-05
-2.16295e-14
1.15192e-05
2.96422e-14
1.22173e-05
9.28749e-15
1.29154e-05
1.89046e-14
1.36136e-05
-4.46993e-15
1.43117e-05
-3.01577e-14
1.50098e-05
2.62123e-14
1.5708e-05
-4.38755e-16
1.64061e-05
2.11688e-14
1.71042e-05
-1.87147e-14
1.78024e-05
3.91732e-15
1.85005e-05
2.91525e-14
1.91986e-05
-1.52384e-14
1.98967e-05
2.05949e-05
8.67566e-15
4.53785e-06
-1.22926e-14
5.23599e-06
-1.88363e-15
5.93412e-06
-8.90283e-15
6.63225e-06
5.10834e-15
7.33038e-06
2.19897e-14
8.02851e-06
-1.22652e-14
8.72664e-06
5.37319e-15
9.42478e-06
-4.45787e-15
1.01229e-05
1.43045e-14
1.0821e-05
7.32449e-15
1.15192e-05
-7.04294e-15
1.22173e-05
-2.39976e-14
1.29154e-05
7.55239e-15
1.36136e-05
-9.80109e-15
1.43117e-05
1.62345e-14
1.50098e-05
-4.0299e-14
1.5708e-05
-1.44503e-14
1.64061e-05
1.36997e-14
1.71042e-05
7.89493e-15
1.78024e-05
3.9249e-14
1.85005e-05
-4.2752e-14
1.91986e-05
8.84824e-15
1.98967e-05
2.05949e-05
-9.39907e-15
4.53785e-06
-5.20503e-16
5.23599e-06
-7.5288e-15
5.93412e-06
4.41122e-15
6.63225e-06
-3.78376e-15
7.33038e-06
-1.33854e-14
8.02851e-06
2.10892e-15
8.72664e-06
-8.53023e-15
9.42478e-06
1.00279e-14
1.01229e-05
-1.86769e-15
1.0821e-05
2.0201e-14
1.15192e-05
7.01117e-15
1.22173e-05
-7.51311e-15
1.29154e-05
-2.3609e-14
1.36136e-05
2.04154e-15
1.43117e-05
-1.48347e-14
1.50098e-05
1.38752e-14
1.5708e-05
-2.39415e-15
1.64061e-05
-2.04144e-14
1.71042e-05
7.01441e-15
1.78024e-05
-1.20718e-14
1.85005e-05
2.59384e-14
1.91986e-05
-1.85471e-15
1.98967e-05
2.05949e-05
1.13358e-14
4.53785e-06
4.80817e-16
5.23599e-06
5.35691e-15
5.93412e-06
1.13031e-14
6.63225e-06
-4.86956e-15
7.33038e-06
1.10925e-15
8.02851e-06
8.15778e-15
8.72664e-06
-1.30459e-14
9.42478e-06
-5.95007e-15
1.01229e-05
1.99401e-15
1.0821e-05
-2.43884e-14
1.15192e-05
-1.61911e-14
1.22173e-05
3.27845e-14
1.29154e-05
3.05016e-15
1.36136e-05
1.44394e-14
1.43117e-05
2.68987e-14
1.50098e-05
-7.74118e-15
1.5708e-05
4.43701e-15
1.64061e-05
1.79971e-14
1.71042e-05
-2.18266e-14
1.78024e-05
-8.21557e-15
1.85005e-05
6.07742e-15
1.91986e-05
-3.89258e-14
1.98967e-05
2.05949e-05
1.36926e-16
9.81747e-07
2.42053e-16
1.37445e-06
3.76893e-16
1.76715e-06
-1.33939e-15
2.15984e-06
-3.68171e-15
2.55254e-06
2.94524e-06
5.95114e-15
1.81387e-18
9.81747e-07
-3.88832e-16
1.37445e-06
-2.60421e-15
1.76715e-06
1.94342e-15
2.15984e-06
8.06616e-15
2.55254e-06
2.94524e-06
-9.02988e-15
-1.16486e-16
9.81747e-07
1.86332e-16
1.37445e-06
-1.56236e-15
1.76715e-06
-4.2127e-15
2.15984e-06
-7.4986e-15
2.55254e-06
2.94524e-06
7.72103e-16
8.69368e-17
9.81747e-07
-1.01993e-16
1.37445e-06
2.69304e-15
1.76715e-06
7.44269e-15
2.15984e-06
3.25962e-15
2.55254e-06
2.94524e-06
-2.79818e-15
-4.8376e-17
9.81747e-07
3.94376e-17
1.37445e-06
1.94157e-16
1.76715e-06
-1.80624e-15
2.15984e-06
-4.20869e-15
2.55254e-06
2.94524e-06
5.0133e-15
-1.80108e-16
9.81747e-07
4.25787e-18
1.37445e-06
-1.84789e-15
1.76715e-06
-3.88625e-15
2.15984e-06
3.15678e-15
2.55254e-06
2.94524e-06
4.97963e-16
2.53952e-16
9.81747e-07
2.55388e-16
1.37445e-06
2.06585e-15
1.76715e-06
4.50388e-15
2.15984e-06
-2.31012e-15
2.55254e-06
2.94524e-06
5.40547e-16
2.16172e-17
9.81747e-07
-3.21755e-16
1.37445e-06
-1.14896e-15
1.76715e-06
-5.2857e-15
2.15984e-06
-3.76723e-16
2.55254e-06
2.94524e-06
-5.64011e-15
-1.43432e-16
9.81747e-07
1.66389e-16
1.37445e-06
4.19116e-15
1.76715e-06
6.34933e-15
2.15984e-06
-8.05484e-16
2.55254e-06
2.94524e-06
8.39181e-16
-6.88319e-17
9.81747e-07
-9.20855e-17
1.37445e-06
-2.76943e-15
1.76715e-06
-3.68846e-16
2.15984e-06
-1.45081e-15
2.55254e-06
2.94524e-06
-1.76828e-16
1.66285e-16
9.81747e-07
-8.87672e-17
1.37445e-06
5.69612e-16
1.76715e-06
-2.10367e-15
2.15984e-06
9.65983e-15
2.55254e-06
2.94524e-06
5.28994e-15
-1.77814e-16
9.81747e-07
-2.06089e-17
1.37445e-06
-3.4552e-16
1.76715e-06
-4.17283e-15
2.15984e-06
-2.62245e-15
2.55254e-06
2.94524e-06
5.36917e-15
1.77766e-16
9.81747e-07
2.04704e-17
1.37445e-06
3.45374e-16
1.76715e-06
4.17254e-15
2.15984e-06
2.62233e-15
2.55254e-06
2.94524e-06
-5.36945e-15
-1.66377e-16
9.81747e-07
8.86889e-17
1.37445e-06
-5.69762e-16
1.76715e-06
2.10334e-15
2.15984e-06
-9.6601e-15
2.55254e-06
2.94524e-06
-5.29037e-15
6.87819e-17
9.81747e-07
9.20671e-17
1.37445e-06
2.76927e-15
1.76715e-06
3.68656e-16
2.15984e-06
1.45072e-15
2.55254e-06
2.94524e-06
1.76561e-16
1.43377e-16
9.81747e-07
-1.66429e-16
1.37445e-06
-4.19118e-15
1.76715e-06
-6.34947e-15
2.15984e-06
8.05545e-16
2.55254e-06
2.94524e-06
-8.39464e-16
-2.16975e-17
9.81747e-07
3.2164e-16
1.37445e-06
1.14883e-15
1.76715e-06
5.28552e-15
2.15984e-06
3.76586e-16
2.55254e-06
2.94524e-06
5.63964e-15
-2.54017e-16
9.81747e-07
-2.555e-16
1.37445e-06
-2.06606e-15
1.76715e-06
-4.5042e-15
2.15984e-06
2.30986e-15
2.55254e-06
2.94524e-06
-5.41017e-16
1.80082e-16
9.81747e-07
-4.34917e-18
1.37445e-06
1.84771e-15
1.76715e-06
3.886e-15
2.15984e-06
-3.15718e-15
2.55254e-06
2.94524e-06
-4.98236e-16
4.83703e-17
9.81747e-07
-3.95303e-17
1.37445e-06
-1.94382e-16
1.76715e-06
1.806e-15
2.15984e-06
4.20842e-15
2.55254e-06
2.94524e-06
-5.01338e-15
-8.69932e-17
9.81747e-07
1.01887e-16
1.37445e-06
-2.69314e-15
1.76715e-06
-7.44291e-15
2.15984e-06
-3.2601e-15
2.55254e-06
2.94524e-06
2.79781e-15
1.16436e-16
9.81747e-07
-1.86412e-16
1.37445e-06
1.5623e-15
1.76715e-06
4.21249e-15
2.15984e-06
7.49818e-15
2.55254e-06
2.94524e-06
-7.72368e-16
-1.84114e-18
9.81747e-07
3.88763e-16
1.37445e-06
2.60409e-15
1.76715e-06
-1.94367e-15
2.15984e-06
-8.06629e-15
2.55254e-06
2.94524e-06
9.02974e-15
-1.3697e-16
-2.42127e-16
-3.77039e-16
1.33921e-15
3.6814e-15
-5.9514e-15
-1.13364e-14
4.53785e-06
-4.81273e-16
5.23599e-06
-5.35757e-15
5.93412e-06
-1.13039e-14
6.63225e-06
4.86849e-15
7.33038e-06
-1.11064e-15
8.02851e-06
-8.1588e-15
8.72664e-06
1.30432e-14
9.42478e-06
5.94794e-15
1.01229e-05
-1.99785e-15
1.0821e-05
2.43855e-14
1.15192e-05
1.61881e-14
1.22173e-05
-3.27878e-14
1.29154e-05
-3.0533e-15
1.36136e-05
-1.44429e-14
1.43117e-05
-2.69028e-14
1.50098e-05
7.73779e-15
1.5708e-05
-4.44258e-15
1.64061e-05
-1.80019e-14
1.71042e-05
2.18186e-14
1.78024e-05
8.21013e-15
1.85005e-05
-6.08727e-15
1.91986e-05
3.89155e-14
1.98967e-05
2.05949e-05
9.3984e-15
4.53785e-06
5.20169e-16
5.23599e-06
7.52815e-15
5.93412e-06
-4.41195e-15
6.63225e-06
3.78289e-15
7.33038e-06
1.33841e-14
8.02851e-06
-2.11036e-15
8.72664e-06
8.52715e-15
9.42478e-06
-1.00276e-14
1.01229e-05
1.86472e-15
1.0821e-05
-2.02033e-14
1.15192e-05
-7.01487e-15
1.22173e-05
7.5096e-15
1.29154e-05
2.36067e-14
1.36136e-05
-2.04226e-15
1.43117e-05
1.48305e-14
1.50098e-05
-1.38807e-14
1.5708e-05
2.3865e-15
1.64061e-05
2.04064e-14
1.71042e-05
-7.01715e-15
1.78024e-05
1.20641e-14
1.85005e-05
-2.59421e-14
1.91986e-05
1.84399e-15
1.98967e-05
2.05949e-05
-8.67638e-15
4.53785e-06
1.22923e-14
5.23599e-06
1.88309e-15
5.93412e-06
8.90149e-15
6.63225e-06
-5.10894e-15
7.33038e-06
-2.19919e-14
8.02851e-06
1.22631e-14
8.72664e-06
-5.37499e-15
9.42478e-06
4.45565e-15
1.01229e-05
-1.43047e-14
1.0821e-05
-7.32742e-15
1.15192e-05
7.03763e-15
1.22173e-05
2.39933e-14
1.29154e-05
-7.55667e-15
1.36136e-05
9.79942e-15
1.43117e-05
-1.62399e-14
1.50098e-05
4.02921e-14
1.5708e-05
1.44418e-14
1.64061e-05
-1.3707e-14
1.71042e-05
-7.8985e-15
1.78024e-05
-3.92509e-14
1.85005e-05
4.27518e-14
1.91986e-05
-8.85468e-15
1.98967e-05
2.05949e-05
5.9859e-15
4.53785e-06
2.18602e-16
5.23599e-06
-6.43588e-15
5.93412e-06
6.06369e-15
6.63225e-06
-2.09296e-15
7.33038e-06
1.61753e-14
8.02851e-06
-1.88308e-14
8.72664e-06
-2.3514e-15
9.42478e-06
9.17148e-15
1.01229e-05
-4.71169e-15
1.0821e-05
2.16263e-14
1.15192e-05
-2.96465e-14
1.22173e-05
-9.29141e-15
1.29154e-05
-1.89093e-14
1.36136e-05
4.46208e-15
1.43117e-05
3.01531e-14
1.50098e-05
-2.62206e-14
1.5708e-05
4.31173e-16
1.64061e-05
-2.11713e-14
1.71042e-05
1.87068e-14
1.78024e-05
-3.91979e-15
1.85005e-05
-2.91628e-14
1.91986e-05
1.52267e-14
1.98967e-05
2.05949e-05
6.71486e-15
4.53785e-06
-7.30664e-15
5.23599e-06
1.11008e-14
5.93412e-06
-4.2416e-15
6.63225e-06
1.51015e-14
7.33038e-06
-5.21053e-15
8.02851e-06
1.70131e-14
8.72664e-06
-3.94216e-15
9.42478e-06
-2.95845e-16
1.01229e-05
6.61069e-15
1.0821e-05
1.37052e-14
1.15192e-05
1.01831e-14
1.22173e-05
1.82171e-14
1.29154e-05
1.4368e-14
1.36136e-05
2.33388e-14
1.43117e-05
-2.53453e-14
1.50098e-05
2.90725e-14
1.5708e-05
-7.83119e-15
1.64061e-05
3.54178e-14
1.71042e-05
-4.51733e-15
1.78024e-05
4.23657e-14
1.85005e-05
-5.90087e-16
1.91986e-05
-8.73761e-15
1.98967e-05
2.05949e-05
-4.63073e-15
4.53785e-06
5.79745e-15
5.23599e-06
-1.61511e-14
5.93412e-06
-5.97484e-15
6.63225e-06
-8.55515e-15
7.33038e-06
4.22241e-15
8.02851e-06
-8.18788e-15
8.72664e-06
6.99807e-15
9.42478e-06
-2.42305e-14
1.01229e-05
-7.77023e-15
1.0821e-05
-2.27648e-14
1.15192e-05
8.34877e-15
1.22173e-05
-7.40366e-15
1.29154e-05
2.82628e-14
1.36136e-05
-4.57104e-14
1.43117e-05
-8.22057e-15
1.50098e-05
-2.82277e-14
1.5708e-05
-2.34461e-15
1.64061e-05
-6.94622e-15
1.71042e-05
2.21453e-14
1.78024e-05
-3.41135e-14
1.85005e-05
-3.74702e-15
1.91986e-05
-3.23495e-14
1.98967e-05
2.05949e-05
-8.92554e-15
4.53785e-06
-2.28949e-15
5.23599e-06
-2.22453e-15
5.93412e-06
6.61577e-15
6.63225e-06
-3.38827e-15
7.33038e-06
-3.90849e-15
8.02851e-06
-6.41985e-15
8.72664e-06
-7.15918e-15
9.42478e-06
6.80946e-15
1.01229e-05
6.98134e-15
1.0821e-05
-9.0648e-15
1.15192e-05
6.75877e-15
1.22173e-05
-2.88892e-14
1.29154e-05
-1.22362e-14
1.36136e-05
4.80149e-15
1.43117e-05
2.50284e-14
1.50098e-05
3.85926e-15
1.5708e-05
3.60334e-15
1.64061e-05
-2.04845e-14
1.71042e-05
-2.17628e-14
1.78024e-05
3.46918e-15
1.85005e-05
2.90369e-14
1.91986e-05
-1.66972e-15
1.98967e-05
2.05949e-05
6.2155e-15
4.53785e-06
-3.87951e-15
5.23599e-06
1.54218e-14
5.93412e-06
-7.06544e-15
6.63225e-06
-2.21136e-15
7.33038e-06
1.4279e-15
8.02851e-06
-5.49447e-15
8.72664e-06
1.32252e-14
9.42478e-06
6.04443e-15
1.01229e-05
-1.74514e-14
1.0821e-05
2.08857e-14
1.15192e-05
-2.14482e-14
1.22173e-05
1.91308e-14
1.29154e-05
-7.31717e-15
1.36136e-05
3.84839e-14
1.43117e-05
-1.29239e-14
1.50098e-05
-1.88459e-15
1.5708e-05
5.71159e-15
1.64061e-05
-7.58573e-15
1.71042e-05
2.76567e-14
1.78024e-05
1.40995e-14
1.85005e-05
-5.31416e-14
1.91986e-05
3.90816e-14
1.98967e-05
2.05949e-05
-1.4991e-15
4.53785e-06
1.08967e-14
5.23599e-06
-6.59948e-15
5.93412e-06
7.26553e-15
6.63225e-06
6.17389e-15
7.33038e-06
2.48739e-15
8.02851e-06
-9.65325e-16
8.72664e-06
-4.36642e-15
9.42478e-06
-8.90101e-15
1.01229e-05
1.3863e-14
1.0821e-05
1.06893e-14
1.15192e-05
6.24998e-15
1.22173e-05
-1.31308e-16
1.29154e-05
-3.43947e-15
1.36136e-05
-1.1044e-14
1.43117e-05
-1.77654e-14
1.50098e-05
1.76777e-14
1.5708e-05
9.94957e-15
1.64061e-05
3.32487e-15
1.71042e-05
-3.29705e-14
1.78024e-05
-1.04219e-14
1.85005e-05
3.00628e-14
1.91986e-05
-5.99954e-14
1.98967e-05
2.05949e-05
5.16981e-15
4.53785e-06
-7.45608e-15
5.23599e-06
-7.56968e-16
5.93412e-06
6.83921e-15
6.63225e-06
-9.97461e-15
7.33038e-06
-1.6655e-15
8.02851e-06
9.21828e-15
8.72664e-06
-1.34604e-14
9.42478e-06
2.32205e-14
1.01229e-05
1.04728e-14
1.0821e-05
-1.72746e-14
1.15192e-05
-3.02787e-15
1.22173e-05
1.13953e-14
1.29154e-05
-1.9819e-14
1.36136e-05
-4.68008e-15
1.43117e-05
5.03064e-14
1.50098e-05
-2.40471e-14
1.5708e-05
-6.66201e-15
1.64061e-05
1.42596e-14
1.71042e-05
1.64716e-15
1.78024e-05
-6.81019e-15
1.85005e-05
1.44385e-14
1.91986e-05
5.07575e-14
1.98967e-05
2.05949e-05
-6.19766e-15
4.53785e-06
2.80131e-17
5.23599e-06
1.15113e-14
5.93412e-06
-2.06263e-14
6.63225e-06
5.3656e-15
7.33038e-06
1.22005e-15
8.02851e-06
-4.7926e-17
8.72664e-06
1.23915e-14
9.42478e-06
-1.32272e-14
1.01229e-05
-1.88942e-14
1.0821e-05
-4.9664e-15
1.15192e-05
-7.1554e-15
1.22173e-05
-1.48876e-14
1.29154e-05
3.5336e-14
1.36136e-05
-1.97607e-18
1.43117e-05
-4.31405e-14
1.50098e-05
1.35626e-14
1.5708e-05
-2.82581e-14
1.64061e-05
2.44963e-15
1.71042e-05
-1.02456e-14
1.78024e-05
2.38004e-14
1.85005e-05
1.38701e-14
1.91986e-05
-4.55672e-14
1.98967e-05
2.05949e-05
-1.90714e-15
4.53785e-06
1.13052e-15
5.23599e-06
-2.16623e-14
5.93412e-06
9.62325e-15
6.63225e-06
1.51362e-14
7.33038e-06
-1.40653e-14
8.02851e-06
8.09091e-15
8.72664e-06
-2.69611e-14
9.42478e-06
-1.96694e-15
1.01229e-05
2.97168e-14
1.0821e-05
-1.17465e-14
1.15192e-05
1.98664e-14
1.22173e-05
-2.74461e-14
1.29154e-05
-2.0619e-14
1.36136e-05
1.60407e-14
1.43117e-05
-4.61731e-15
1.50098e-05
4.68633e-15
1.5708e-05
4.7965e-14
1.64061e-05
-1.37418e-14
1.71042e-05
3.23636e-14
1.78024e-05
-3.51882e-14
1.85005e-05
-2.49096e-14
1.91986e-05
7.19098e-14
1.98967e-05
2.05949e-05
1.90608e-15
4.53785e-06
-1.13083e-15
5.23599e-06
2.16616e-14
5.93412e-06
-9.62513e-15
6.63225e-06
-1.51375e-14
7.33038e-06
1.40655e-14
8.02851e-06
-8.09392e-15
8.72664e-06
2.69587e-14
9.42478e-06
1.96414e-15
1.01229e-05
-2.97174e-14
1.0821e-05
1.17434e-14
1.15192e-05
-1.98677e-14
1.22173e-05
2.74433e-14
1.29154e-05
2.06117e-14
1.36136e-05
-1.60429e-14
1.43117e-05
4.61127e-15
1.50098e-05
-4.69759e-15
1.5708e-05
-4.79694e-14
1.64061e-05
1.37379e-14
1.71042e-05
-3.23757e-14
1.78024e-05
3.51841e-14
1.85005e-05
2.48994e-14
1.91986e-05
-7.19187e-14
1.98967e-05
2.05949e-05
6.19697e-15
4.53785e-06
-2.87793e-17
5.23599e-06
-1.15118e-14
5.93412e-06
2.06256e-14
6.63225e-06
-5.36657e-15
7.33038e-06
-1.2222e-15
8.02851e-06
4.66172e-17
8.72664e-06
-1.23947e-14
9.42478e-06
1.32247e-14
1.01229e-05
1.88939e-14
1.0821e-05
4.96154e-15
1.15192e-05
7.15217e-15
1.22173e-05
1.48864e-14
1.29154e-05
-3.53388e-14
1.36136e-05
-4.45789e-19
1.43117e-05
4.31347e-14
1.50098e-05
-1.35654e-14
1.5708e-05
2.82534e-14
1.64061e-05
-2.45644e-15
1.71042e-05
1.02392e-14
1.78024e-05
-2.38107e-14
1.85005e-05
-1.38776e-14
1.91986e-05
4.55607e-14
1.98967e-05
2.05949e-05
-5.17027e-15
4.53785e-06
7.45478e-15
5.23599e-06
7.56547e-16
5.93412e-06
-6.84023e-15
6.63225e-06
9.97374e-15
7.33038e-06
1.66385e-15
8.02851e-06
-9.21929e-15
8.72664e-06
1.34586e-14
9.42478e-06
-2.32231e-14
1.01229e-05
-1.04727e-14
1.0821e-05
1.72709e-14
1.15192e-05
3.02619e-15
1.22173e-05
-1.13996e-14
1.29154e-05
1.98135e-14
1.36136e-05
4.67738e-15
1.43117e-05
-5.03127e-14
1.50098e-05
2.40435e-14