/*--------------------------------*- C++ -*----------------------------------*\
  =========                 |
  \\      /  F ield         | OpenFOAM: The Open Source CFD Toolbox
   \\    /   O peration     | Website:  https://openfoam.org
    \\  /    A nd           | Version:  11
     \\/     M anipulation  |
\*---------------------------------------------------------------------------*/
FoamFile
{
    format      ascii;
    class       volScalarField;
    location    "0.9";
    object      p;
}
// * * * * * * * * * * * * * * * * * * * * * * * * * * * * * * * * * * * * * //

dimensions      [0 2 -2 0 0 0 0];

internalField   nonuniform List<scalar> 
2880
(
1.14503
1.1465
1.16546
1.21393
1.20931
1.40267
1.14635
1.14848
1.16396
1.2015
1.17787
1.28185
1.14736
1.15079
1.16211
1.1893
1.15729
1.20136
1.14744
1.15147
1.15907
1.17693
1.1428
1.14395
1.14692
1.15067
1.15508
1.16468
1.13128
1.1108
1.146
1.14913
1.15065
1.15341
1.12145
1.09267
1.14473
1.14727
1.14609
1.14347
1.11308
1.08161
1.14317
1.14528
1.14158
1.13479
1.10573
1.07382
1.14142
1.14323
1.13726
1.12717
1.09903
1.0675
1.13961
1.14125
1.13323
1.12045
1.09268
1.06159
1.13785
1.13947
1.12958
1.11447
1.08649
1.05538
1.13623
1.138
1.12639
1.10916
1.08029
1.04844
1.13488
1.13676
1.12371
1.10447
1.074
1.04047
1.13379
1.1359
1.12156
1.10042
1.06758
1.03129
1.13297
1.13537
1.11996
1.09703
1.06101
1.02078
1.1324
1.13509
1.11885
1.09437
1.05443
1.00903
1.13203
1.13492
1.11818
1.09256
1.04815
0.996591
1.13178
1.13473
1.11793
1.09184
1.04268
0.984256
1.13158
1.13444
1.11813
1.0926
1.03846
0.969198
1.13136
1.13411
1.11908
1.09547
1.03667
0.956124
1.13113
1.13413
1.12136
1.10142
1.03881
0.94797
1.13105
1.13513
1.12563
1.11118
1.04755
0.953245
1.13146
1.13712
1.13105
1.12259
1.06724
0.990014
1.13211
1.1386
1.13393
1.12894
1.10375
1.07085
0.555034
0.612415
0.585611
0.585858
0.577156
0.563276
0.546871
0.530807
0.5166
0.504745
0.494985
0.486888
0.4802
0.474773
0.470462
0.467085
0.464438
0.462334
0.46054
0.458733
0.457185
0.458524
0.465864
0.464196
0.716178
0.709371
0.661617
0.643669
0.62358
0.601715
0.579475
0.559065
0.5416
0.527271
0.515585
0.505962
0.498071
0.491709
0.486685
0.482768
0.479711
0.477289
0.475264
0.473359
0.471846
0.47293
0.478859
0.476897
0.814567
0.783527
0.725419
0.69453
0.665376
0.636719
0.609355
0.585053
0.564633
0.548029
0.534552
0.523499
0.514477
0.507237
0.501541
0.497114
0.493665
0.490932
0.488674
0.486657
0.485139
0.4859
0.490452
0.488448
0.881844
0.838146
0.776611
0.737451
0.701642
0.667566
0.635934
0.608306
0.58531
0.566688
0.551598
0.539245
0.529191
0.521145
0.514833
0.509935
0.506118
0.503087
0.500599
0.49846
0.496888
0.497246
0.500526
0.498789
0.928385
0.878497
0.816801
0.772607
0.732126
0.693909
0.658865
0.628498
0.603335
0.582981
0.56648
0.55298
0.542009
0.533246
0.526382
0.521061
0.516907
0.513602
0.510903
0.508647
0.506996
0.506924
0.509114
0.507904
0.959694
0.908073
0.84771
0.800582
0.756929
0.715657
0.677976
0.64543
0.618505
0.596709
0.579007
0.564524
0.552762
0.543378
0.536033
0.53034
0.525891
0.522343
0.519459
0.517106
0.51539
0.514963
0.516242
0.515413
0.980519
0.929255
0.870768
0.822046
0.776314
0.732865
0.693216
0.658991
0.630678
0.607718
0.589028
0.573726
0.561304
0.551397
0.543646
0.537636
0.532933
0.529176
0.526136
0.523698
0.521928
0.521211
0.521756
0.521239
0.993799
0.943674
0.887112
0.837625
0.790595
0.745652
0.704583
0.669106
0.639737
0.615873
0.596401
0.580448
0.567499
0.557174
0.549095
0.542827
0.537916
0.533989
0.530819
0.528311
0.526494
0.525554
0.525553
0.525277
1.00128
0.952442
0.897607
0.847844
0.800057
0.754143
0.712103
0.675742
0.645613
0.621085
0.601033
0.5846
0.571259
0.56062
0.552291
0.545822
0.540748
0.536689
0.533421
0.530857
0.528999
0.527901
0.527555
0.527451
1.00403
0.956293
0.902869
0.853097
0.804937
0.758472
0.715847
0.678932
0.648315
0.62335
0.602913
0.586154
0.572545
0.561686
0.553178
0.546564
0.54137
0.537214
0.533874
0.531263
0.529368
0.528198
0.527713
0.527683
1.00268
0.955679
0.903287
0.853656
0.80542
0.758761
0.71589
0.678715
0.647851
0.622655
0.602007
0.58507
0.571312
0.560328
0.55171
0.544999
0.539726
0.535512
0.53213
0.529485
0.52756
0.52639
0.52598
0.52595
0.997526
0.95079
0.899035
0.849646
0.801578
0.755038
0.712219
0.675045
0.644153
0.618919
0.598236
0.581273
0.567493
0.556482
0.547831
0.541086
0.535787
0.531558
0.528165
0.5255
0.523552
0.522456
0.522328
0.522218
0.988568
0.941579
0.890078
0.841016
0.793346
0.74722
0.704746
0.667834
0.637142
0.612075
0.591547
0.574721
0.561056
0.55013
0.541535
0.534824
0.529552
0.52535
0.521981
0.519311
0.517347
0.516396
0.51675
0.516481
0.97553
0.927753
0.876181
0.827569
0.78057
0.735189
0.693384
0.657026
0.626785
0.602111
0.581937
0.565421
0.552013
0.541287
0.532837
0.526232
0.521043
0.516916
0.513602
0.510944
0.508972
0.508234
0.509252
0.508751
0.957835
0.908767
0.856889
0.808965
0.763007
0.718782
0.67803
0.642562
0.613055
0.589016
0.569409
0.553383
0.540381
0.529977
0.521772
0.515351
0.510308
0.506303
0.503082
0.500454
0.498485
0.498018
0.499863
0.499064
0.934497
0.883771
0.831502
0.78469
0.740301
0.697757
0.658529
0.62435
0.595905
0.572775
0.553968
0.538628
0.526194
0.516246
0.508394
0.502244
0.497414
0.493585
0.490496
0.487921
0.485968
0.485821
0.488633
0.487484
0.903819
0.851518
0.799048
0.754064
0.711992
0.671813
0.634692
0.602281
0.575287
0.553382
0.535637
0.521198
0.509511
0.500163
0.492782
0.486997
0.482457
0.478861
0.475947
0.473454
0.471533
0.471746
0.475637
0.4741
0.863364
0.810373
0.758256
0.716236
0.67754
0.640615
0.606324
0.576259
0.551177
0.530858
0.514465
0.501163
0.490413
0.481822
0.475039
0.469722
0.465551
0.462252
0.45956
0.457182
0.455317
0.455932
0.460993
0.459011
0.81227
0.758464
0.707518
0.670203
0.636355
0.60383
0.573252
0.546216
0.523579
0.50526
0.490537
0.478625
0.469017
0.461348
0.455296
0.450555
0.446838
0.443903
0.441486
0.439264
0.437481
0.438526
0.444832
0.442368
0.743827
0.692872
0.644838
0.61486
0.587859
0.561176
0.535368
0.51215
0.492558
0.476693
0.46398
0.453729
0.445477
0.438899
0.433716
0.429658
0.426481
0.423974
0.421883
0.419854
0.418162
0.419607
0.427194
0.42444
0.655857
0.606743
0.567646
0.549118
0.53159
0.512501
0.492682
0.474162
0.458265
0.445332
0.434986
0.42667
0.41999
0.414674
0.410494
0.407227
0.404673
0.402657
0.400939
0.399138
0.397547
0.399352
0.408194
0.405304
0.533203
0.496875
0.473483
0.472089
0.467354
0.457887
0.445391
0.432501
0.420964
0.411446
0.403821
0.397709
0.392807
0.388916
0.385867
0.383494
0.381642
0.380177
0.378881
0.377351
0.375889
0.378034
0.388071
0.38512
0.333563
0.355463
0.359721
0.383454
0.395462
0.397793
0.393961
0.387602
0.381059
0.375405
0.370831
0.367167
0.364231
0.361911
0.360111
0.358723
0.357646
0.356791
0.355963
0.354749
0.353455
0.355931
0.367074
0.364107
0.0140452
0.18232
0.229527
0.284732
0.317158
0.333225
0.339204
0.340131
0.339107
0.337695
0.336445
0.33543
0.334614
0.333988
0.333534
0.333211
0.332974
0.33278
0.332464
0.331611
0.330531
0.333333
0.345463
0.342524
-0.846178
-0.902579
-0.99344
-1.02658
-1.0439
-1.14172
-0.85757
-0.914026
-1.0001
-1.03537
-1.03589
-1.08909
-0.868714
-0.925598
-1.00855
-1.0478
-1.03737
-1.06884
-0.880506
-0.937829
-1.01942
-1.06218
-1.048
-1.06719
-0.893998
-0.95089
-1.03255
-1.07615
-1.06372
-1.0721
-0.907594
-0.964699
-1.04582
-1.08886
-1.08022
-1.07911
-0.920185
-0.978441
-1.05716
-1.09956
-1.09434
-1.0853
-0.931375
-0.990275
-1.06575
-1.10729
-1.10454
-1.08852
-0.940322
-0.999268
-1.07119
-1.11136
-1.10971
-1.0871
-0.946345
-1.00486
-1.07324
-1.11129
-1.10907
-1.07999
-0.948951
-1.00671
-1.07176
-1.1068
-1.10228
-1.0667
-0.947828
-1.00469
-1.06673
-1.09781
-1.08942
-1.04717
-0.942829
-0.998911
-1.0582
-1.08447
-1.071
-1.02163
-0.933982
-0.990017
-1.04639
-1.06715
-1.04761
-0.990718
-0.921771
-0.978444
-1.03161
-1.0463
-1.01977
-0.955381
-0.906968
-0.964653
-1.01426
-1.02253
-0.98836
-0.915973
-0.890526
-0.949236
-0.994836
-0.996503
-0.954395
-0.874007
-0.873489
-0.932934
-0.973912
-0.96889
-0.918832
-0.831092
-0.856857
-0.916685
-0.95214
-0.94036
-0.882517
-0.788382
-0.841561
-0.901762
-0.930408
-0.911655
-0.846259
-0.746806
-0.828882
-0.88961
-0.910342
-0.883766
-0.810506
-0.706315
-0.820727
-0.881447
-0.894087
-0.857228
-0.773953
-0.662935
-0.81904
-0.875408
-0.881489
-0.828917
-0.73278
-0.610071
-0.822251
-0.865313
-0.858519
-0.790705
-0.689875
-0.562285
-0.47387
-0.0268932
0.0848257
0.17994
0.235062
0.265895
0.282337
0.291001
0.295824
0.298902
0.301163
0.302937
0.30435
0.305508
0.306475
0.30728
0.307934
0.308444
0.308679
0.308231
0.307414
0.310537
0.323514
0.320652
-0.680579
-0.233607
-0.0535187
0.0770886
0.153041
0.198109
0.224897
0.241313
0.252047
0.259693
0.265539
0.270163
0.273862
0.276853
0.279288
0.281264
0.28285
0.284098
0.284916
0.284913
0.284406
0.287841
0.301506
0.298794
-0.760177
-0.385627
-0.169641
-0.0174867
0.0747188
0.132186
0.16847
0.192212
0.208643
0.220755
0.23014
0.237595
0.243577
0.248413
0.252337
0.255509
0.258051
0.260062
0.261488
0.261966
0.261811
0.26554
0.279722
0.277266
-0.815024
-0.493306
-0.264352
-0.101154
0.00246385
0.0699424
0.114413
0.144733
0.166426
0.182746
0.195511
0.2057
0.21391
0.220566
0.225973
0.230349
0.233863
0.236655
0.238711
0.239699
0.239932
0.243923
0.258437
0.256401
-0.863695
-0.573568
-0.342335
-0.17383
-0.0626126
0.0125284
0.0637324
0.0997178
0.126089
0.146241
0.162139
0.174903
0.185242
0.193662
0.200526
0.206103
0.2106
0.214191
0.216897
0.218423
0.219069
0.223268
0.237914
0.236547
-0.902473
-0.634749
-0.406202
-0.236028
-0.120039
-0.0394142
0.017117
0.0578021
0.0881873
0.111714
0.130434
0.145562
0.157895
0.167998
0.176284
0.183054
0.188549
0.192965
0.196355
0.198454
0.199533
0.20385
0.218385
0.218099
-0.929464
-0.680164
-0.457364
-0.288261
-0.16945
-0.085614
-0.0249806
0.0194365
0.0531321
0.0795294
0.100709
0.117952
0.132114
0.143804
0.153466
0.161429
0.167954
0.173249
0.177389
0.180137
0.181688
0.185961
0.199998
0.201549
-0.945464
-0.711926
-0.49684
-0.330782
-0.21179
-0.12529
-0.0621884
-0.0150714
0.0211998
0.0499358
0.0731811
0.0922576
0.108057
0.121214
0.132197
0.141357
0.148965
0.155238
0.160271
0.16386
0.166039
0.170006
0.182692
0.187704
-0.951769
-0.731806
-0.525612
-0.364088
-0.246438
-0.159099
-0.0945375
-0.0455809
-0.00742508
0.0230815
0.0479732
0.0685707
0.0857785
0.10025
0.112468
0.122811
0.131566
0.13897
0.145165
0.150039
0.153457
0.157315
0.167411
0.178831
-0.949186
-0.741116
-0.54458
-0.388923
-0.273549
-0.186934
-0.121967
-0.0720512
-0.0327155
-0.000975051
0.025132
0.0469049
0.0652475
0.0808188
0.0941195
0.105543
0.115408
0.123982
0.131449
0.137767
0.142908
0.148741
0.159743
0.164016
-0.93818
-0.74082
-0.554484
-0.405807
-0.293494
-0.208956
-0.144535
-0.0944745
-0.054631
-0.0222049
0.00466536
0.0272361
0.0463889
0.0627709
0.0768765
0.0890944
0.0997367
0.109047
0.117132
0.123839
0.129264
0.136076
0.148148
0.141045
-0.919188
-0.731674
-0.555897
-0.415169
-0.306776
-0.225383
-0.162369
-0.112901
-0.0731854
-0.0406124
-0.0134323
0.00954599
0.0291613
0.0460289
0.0606166
0.0732877
0.0843275
0.0939457
0.102204
0.108922
0.114338
0.12148
0.13369
0.12319
-0.89278
-0.714378
-0.549263
-0.417277
-0.314317
-0.236362
-0.175615
-0.127443
-0.0884449
-0.0562279
-0.0291688
-0.00615812
0.0135864
0.0306365
0.0454242
0.0582832
0.0694758
0.0791981
0.0875155
0.0942944
0.0998813
0.107339
0.119705
0.108973
-0.859728
-0.689731
-0.53532
-0.412448
-0.316414
-0.242381
-0.184545
-0.138274
-0.100517
-0.069107
-0.0425605
-0.0198591
-0.000285262
0.0166836
0.0314414
0.0442947
0.0554904
0.0652252
0.0735927
0.0805305
0.0864305
0.0942569
0.106865
0.0969347
-0.820938
-0.65858
-0.514849
-0.401498
-0.313007
-0.243871
-0.189462
-0.145608
-0.109544
-0.0793339
-0.053642
-0.0315481
-0.0124041
0.0042613
0.0188042
0.0315062
0.042603
0.0522983
0.0607276
0.067879
0.074132
0.0823452
0.0952674
0.0866078
-0.777637
-0.621776
-0.488631
-0.385184
-0.304595
-0.241179
-0.190717
-0.149706
-0.115712
-0.0870288
-0.0624767
-0.0412385
-0.0227385
-0.00655799
0.00762193
0.0200585
0.0309763
0.0405886
0.0490686
0.0564236
0.0630193
0.0716114
0.0848848
0.0777627
-0.73068
-0.580432
-0.457652
-0.364341
-0.291985
-0.234729
-0.188669
-0.150867
-0.119248
-0.0923528
-0.0691644
-0.0489762
-0.031288
-0.0157343
-0.00203447
0.0100432
0.0207104
0.0301863
0.0386637
0.0461668
0.0530599
0.0619754
0.0755853
0.070165
-0.681187
-0.535996
-0.423225
-0.340005
-0.276021
-0.22515
-0.183788
-0.149458
-0.120436
-0.0955146
-0.0738492
-0.0548485
-0.0380909
-0.0232668
-0.0101352
0.00150728
0.0118551
0.0211264
0.0295183
0.0370783
0.0441757
0.0533052
0.0671747
0.0635546
-0.629831
-0.489533
-0.386773
-0.313402
-0.257668
-0.213192
-0.176637
-0.145912
-0.119612
-0.0967718
-0.076721
-0.0589866
-0.0432289
-0.029196
-0.01669
-0.0055394
0.00442693
0.0134158
0.0216218
0.0291207
0.0362816
0.0454544
0.0594167
0.0576399
-0.57639
-0.441283
-0.349484
-0.2858
-0.238004
-0.199705
-0.167868
-0.14073
-0.117165
-0.0964291
-0.0780146
-0.0615659
-0.0468261
-0.0336029
-0.0217444
-0.0111172
-0.00157925
0.00705425
0.0149693
0.0222719
0.0293169
0.0382892
0.0520537
0.0521002
-0.52033
-0.390981
-0.312124
-0.258314
-0.218097
-0.18559
-0.158197
-0.134474
-0.113537
-0.0948338
-0.0780041
-0.0628004
-0.0490452
-0.0366051
-0.0253771
-0.0152747
-0.00618945
0.00203648
0.00957195
0.0165386
0.0232722
0.0317363
0.0448484
0.0465956
-0.462545
-0.338857
-0.275323
-0.231849
-0.19888
-0.171705
-0.148355
-0.127737
-0.109204
-0.0923686
-0.0769967
-0.0629357
-0.050081
-0.038352
-0.0276861
-0.0180677
-0.00943397
-0.00163958
0.00545144
0.0119664
0.0182095
0.025829
0.0376559
0.0407989
-0.405274
-0.286092
-0.240524
-0.207576
-0.181253
-0.158849
-0.13904
-0.121114
-0.104656
-0.0894342
-0.0753181
-0.0622368
-0.0501499
-0.0390141
-0.0288677
-0.0197643
-0.0114967
-0.00403265
0.00261171
0.00861138
0.0142283
0.0207293
0.030557
0.034437
-0.339735
-0.235376
-0.210061
-0.186981
-0.166349
-0.147896
-0.130971
-0.115206
-0.100398
-0.0864446
-0.0733034
-0.0609752
-0.049482
-0.038853
-0.0291253
-0.0202807
-0.0124078
-0.00537257
0.00097167
0.00651549
0.0114508
0.0166857
0.0239454
0.0277955
-0.143653
-0.135008
-0.133157
-0.131606
-0.135876
-0.140296
-0.144856
-0.136649
-0.136317
-0.136207
-0.141674
-0.145994
-0.147301
-0.139026
-0.140344
-0.141437
-0.148219
-0.15315
-0.149276
-0.141206
-0.143814
-0.145688
-0.152675
-0.158157
-0.150329
-0.142881
-0.14648
-0.148848
-0.155353
-0.16074
-0.150223
-0.144254
-0.148631
-0.151298
-0.15702
-0.161767
-0.149382
-0.145683
-0.150578
-0.153379
-0.158149
-0.161929
-0.149768
-0.147956
-0.152536
-0.155245
-0.158958
-0.161577
-0.1511
-0.150717
-0.15455
-0.157004
-0.15961
-0.160967
-0.152442
-0.153454
-0.156582
-0.158732
-0.160241
-0.160301
-0.153706
-0.155951
-0.158582
-0.160482
-0.160959
-0.159732
-0.154853
-0.158202
-0.160526
-0.162304
-0.161869
-0.15941
-0.155897
-0.160213
-0.162398
-0.164254
-0.163084
-0.159503
-0.156845
-0.161966
-0.164187
-0.166394
-0.164704
-0.160205
-0.157711
-0.163449
-0.165887
-0.168778
-0.166797
-0.161635
-0.158537
-0.164659
-0.167497
-0.171447
-0.169445
-0.164036
-0.159244
-0.16559
-0.169022
-0.174433
-0.172754
-0.167811
-0.159041
-0.166262
-0.170468
-0.177752
-0.17679
-0.173386
-0.15796
-0.166858
-0.171844
-0.18139
-0.181543
-0.181306
-0.157656
-0.167562
-0.173156
-0.185252
-0.186858
-0.192281
-0.158359
-0.168404
-0.174295
-0.189036
-0.192225
-0.207287
-0.159497
-0.16934
-0.175048
-0.192044
-0.196627
-0.227473
-0.160627
-0.170169
-0.175219
-0.193334
-0.199216
-0.252314
-0.161107
-0.170685
-0.174966
-0.19295
-0.201101
-0.274669
-0.200225
-0.195386
-0.187459
-0.171403
-0.155191
-0.139734
-0.124928
-0.110693
-0.0970171
-0.0838936
-0.071347
-0.0594406
-0.0482631
-0.0378892
-0.0283422
-0.0196831
-0.011999
-0.00532173
0.000394691
0.00533685
0.00958104
0.0133227
0.0179497
0.0228497
-0.181853
-0.18116
-0.175143
-0.162336
-0.148813
-0.135208
-0.121706
-0.108381
-0.095297
-0.0825176
-0.0701204
-0.0582255
-0.0469479
-0.0364146
-0.0268155
-0.0182107
-0.0105809
-0.00401254
0.00147838
0.00592314
0.00926259
0.0118294
0.0141671
0.0176583
-0.178622
-0.178184
-0.170912
-0.159531
-0.14743
-0.134907
-0.122069
-0.109096
-0.0961413
-0.0832534
-0.0705651
-0.0582959
-0.0466476
-0.0357898
-0.0258182
-0.0168359
-0.00900495
-0.00237502
0.00305243
0.00730394
0.0102953
0.0123616
0.0129609
0.0141835
-0.176251
-0.176928
-0.170448
-0.160595
-0.149673
-0.138058
-0.1258
-0.113074
-0.100054
-0.0868419
-0.0735987
-0.0606241
-0.0482384
-0.0366949
-0.0261446
-0.0166862
-0.0084765
-0.00167289
0.00363434
0.00753447
0.0100517
0.0117535
0.0116675
0.0119678
-0.173739
-0.175086
-0.170328
-0.162267
-0.152821
-0.142379
-0.131062
-0.118993
-0.10624
-0.0930194
-0.0795873
-0.0662306
-0.0532615
-0.040979
-0.0296303
-0.0194624
-0.0107191
-0.00353839
0.00205187
0.00610817
0.00869303
0.0102044
0.0105226
0.0102357
-0.171029
-0.172281
-0.168774
-0.162272
-0.154287
-0.145197
-0.135145
-0.124152
-0.112278
-0.0997716
-0.0869145
-0.0739262
-0.0610648
-0.0486522
-0.036983
-0.0263121
-0.016882
-0.00889364
-0.00247792
0.00229142
0.00539228
0.00700095
0.00722004
0.00540004
-0.168131
-0.168628
-0.165457
-0.159832
-0.152854
-0.144865
-0.135969
-0.126162
-0.11552
-0.104235
-0.0924924
-0.0804574
-0.0683472
-0.0564144
-0.044908
-0.0340548
-0.0240951
-0.0152952
-0.0079394
-0.002237
0.00167755
0.0035894
0.00303473
0.000265812
-0.165109
-0.164367
-0.160718
-0.155175
-0.148542
-0.141132
-0.133037
-0.124265
-0.114882
-0.105006
-0.0947395
-0.0841929
-0.0734973
-0.0627645
-0.0522072
-0.0420216
-0.0323923
-0.0235537
-0.0157596
-0.00920189
-0.00408858
-0.000739053
0.000608953
0.000432697
-0.162041
-0.159708
-0.154978
-0.148835
-0.141919
-0.134557
-0.126872
-0.118907
-0.110729
-0.10242
-0.0940137
-0.0855854
-0.0772296
-0.069046
-0.0611992
-0.053709
-0.0463373
-0.0392203
-0.0322531
-0.0253035
-0.0181595
-0.0100697
0.000643194
0.0100559
-0.158997
-0.154795
-0.148568
-0.141341
-0.133707
-0.126036
-0.118515
-0.111267
-0.104317
-0.0977433
-0.0915919
-0.0859157
-0.0806937
-0.0758264
-0.0710791
-0.0659531
-0.0603023
-0.0538228
-0.0461129
-0.0368913
-0.0260373
-0.0129445
0.00323728
0.016297
-0.156054
-0.149803
-0.141747
-0.133191
-0.124662
-0.116482
-0.108846
-0.101828
-0.0956465
-0.0904584
-0.0863286
-0.0831814
-0.0808532
-0.0790669
-0.0774079
-0.0755001
-0.0729621
-0.0690686
-0.0633953
-0.0555878
-0.0456395
-0.033309
-0.0192309
-0.00559733
-0.153266
-0.144801
-0.134672
-0.12446
-0.114583
-0.105447
-0.0973376
-0.0905267
-0.0852792
-0.081645
-0.0796706
-0.0792725
-0.0802389
-0.0822266
-0.0847753
-0.0873539
-0.0890053
-0.088934
-0.0863118
-0.0804424
-0.0704447
-0.0566005
-0.0403703
-0.020913
-0.150641
-0.139812
-0.127289
-0.115123
-0.103737
-0.0936306
-0.0851898
-0.0787631
-0.0744727
-0.0724348
-0.0726827
-0.0751098
-0.0794408
-0.0852126
-0.0917692
-0.0982573
-0.103592
-0.106689
-0.106335
-0.101326
-0.0908125
-0.0744893
-0.0529171
-0.0245439
-0.148188
-0.134861
-0.119705
-0.105496
-0.09262
-0.0816166
-0.0728871
-0.0667466
-0.0633764
-0.0628735
-0.0652112
-0.0701973
-0.0774377
-0.0863042
-0.0959158
-0.105227
-0.113024
-0.117975
-0.118687
-0.113735
-0.102057
-0.0829831
-0.0564516
-0.020657
-0.146004
-0.129954
-0.111938
-0.0956022
-0.0812141
-0.0693294
-0.0603333
-0.0545092
-0.0520198
-0.052897
-0.0570016
-0.0639844
-0.0732659
-0.0840838
-0.0954321
-0.106112
-0.114747
-0.119794
-0.119803
-0.113576
-0.100406
-0.0794724
-0.051088
-0.0133106
-0.144108
-0.125102
-0.104019
-0.0855234
-0.0696578
-0.0569563
-0.047743
-0.0422345
-0.0405045
-0.0424482
-0.0477746
-0.0560424
-0.0665188
-0.0781966
-0.0899022
-0.100248
-0.107847
-0.111421
-0.109889
-0.102357
-0.0883499
-0.0669303
-0.0396702
-0.00520165
-0.142429
-0.120314
-0.0960313
-0.0754621
-0.0582599
-0.0448501
-0.0354727
-0.0302178
-0.0290392
-0.0317883
-0.0379822
-0.046843
-0.0574206
-0.0685873
-0.0791728
-0.0879631
-0.093747
-0.0955193
-0.0922444
-0.0835039
-0.0695791
-0.0494466
-0.0253754
0.0022387
-0.14092
-0.115611
-0.0881038
-0.0656877
-0.0473786
-0.0334255
-0.0239459
-0.0190087
-0.0184012
-0.0216023
-0.0278557
-0.0362974
-0.0460244
-0.0558711
-0.0646059
-0.0712221
-0.0745051
-0.0741596
-0.0691936
-0.0582596
-0.0426623
-0.0253585
-0.00936022
0.00825116
-0.139455
-0.110991
-0.0804193
-0.0564998
-0.0374031
-0.0231669
-0.0138703
-0.00922541
-0.00873993
-0.0117266
-0.0174949
-0.0250691
-0.0333072
-0.0409987
-0.0470436
-0.0510613
-0.0516266
-0.0467704
-0.0384836
-0.0289403
-0.0192063
-0.00882106
0.00214543
0.0151798
-0.137727
-0.106479
-0.0731728
-0.0481688
-0.0287083
-0.0145215
-0.00534043
-0.000686249
-2.37862e-05
-0.00259511
-0.00736241
-0.0132268
-0.0193056
-0.0245046
-0.0275577
-0.0267746
-0.0232061
-0.0181141
-0.0126268
-0.00722838
-0.000435105
0.00797607
0.0169543
0.0242497
-0.135335
-0.102018
-0.0664728
-0.0408876
-0.0214308
-0.00731785
0.00184766
0.00657061
0.00767112
0.00609485
0.00293981
-0.00072212
-0.00417454
-0.00571601
-0.00431764
-0.00165834
0.00144654
0.00415632
0.00773507
0.0127665
0.018325
0.0238918
0.0302776
0.0338104
-0.13222
-0.0961132
-0.060187
-0.0346167
-0.0153402
-0.00135285
0.00784376
0.0129607
0.0149031
0.0147142
0.0134903
0.012422
0.0130517
0.0146773
0.0170315
0.0190285
0.020799
0.0236246
0.0275554
0.0315187
0.0348439
0.0381885
0.0438115
0.0445599
-0.126152
-0.0868411
-0.0537609
-0.0290697
-0.0101386
0.00376005
0.0132039
0.0190098
0.0221862
0.0238492
0.0253317
0.0275285
0.0301741
0.0328992
0.0343455
0.0363624
0.0395604
0.042914
0.0458582
0.0481313
0.0498169
0.0523487
0.0589339
0.0575096
-0.112135
-0.0730588
-0.0468457
-0.0239278
-0.00544077
0.00852966
0.0184927
0.0254071
0.0301935
0.0341854
0.0382235
0.0423992
0.0456797
0.0482207
0.0509577
0.0542239
0.0574162
0.0601256
0.0621787
0.0635893
0.0646604
0.0674061
0.0756989
0.0719547
-0.0943625
-0.098434
-0.0834859
-0.0474384
0.00715674
0.0908765
-0.0890255
-0.096859
-0.0850172
-0.0589618
-0.0233591
0.0202772
-0.0792038
-0.09432
-0.0854534
-0.0682206
-0.045274
-0.0199028
-0.0792974
-0.0937401
-0.0872709
-0.0766903
-0.0612433
-0.0468881
-0.0889205
-0.0951392
-0.0909897
-0.0845269
-0.0727686
-0.0626315
-0.0957046
-0.0973583
-0.0954182
-0.0913509
-0.0814193
-0.0719834
-0.0986815
-0.0996926
-0.0997761
-0.096988
-0.0878194
-0.0776625
-0.101448
-0.102043
-0.103739
-0.101496
-0.0923288
-0.0808742
-0.104583
-0.104352
-0.107196
-0.105019
-0.0953097
-0.0823356
-0.107718
-0.106471
-0.110121
-0.107728
-0.0970946
-0.0824834
-0.110458
-0.108275
-0.112538
-0.109801
-0.0979605
-0.0816511
-0.112573
-0.109685
-0.114505
-0.111426
-0.0981523
-0.0801367
-0.113958
-0.110671
-0.116078
-0.112799
-0.0979626
-0.0780808
-0.1146
-0.111163
-0.117368
-0.114138
-0.097623
-0.0754995
-0.114518
-0.111114
-0.118483
-0.115703
-0.0973221
-0.0728036
-0.113718
-0.11055
-0.119526
-0.117738
-0.0973657
-0.070908
-0.112224
-0.109509
-0.120625
-0.120394
-0.0981411
-0.0706982
-0.110342
-0.108162
-0.121919
-0.123791
-0.100048
-0.073278
-0.111359
-0.107293
-0.123537
-0.128002
-0.103203
-0.0805674
-0.116753
-0.10763
-0.125766
-0.132969
-0.10739
-0.0961951
-0.119504
-0.107964
-0.128173
-0.138572
-0.112671
-0.124645
-0.114414
-0.107162
-0.129815
-0.144499
-0.121605
-0.166217
-0.105639
-0.105453
-0.130537
-0.149877
-0.135909
-0.223418
-0.101362
-0.104503
-0.131572
-0.156163
-0.157877
-0.351096
-0.0833115
-0.061757
-0.0404037
-0.0191424
-0.000872775
0.0134522
0.0243459
0.0327344
0.0395743
0.0456001
0.0513766
0.0557434
0.05958
0.0635663
0.0673382
0.0707516
0.0736998
0.0760393
0.0777216
0.0788169
0.0797046
0.0829218
0.0929128
0.0867781
-0.0754988
-0.0556804
-0.0355794
-0.0146449
0.00399626
0.0190497
0.0311848
0.0411821
0.0499098
0.0575894
0.0637329
0.0690086
0.0740689
0.0786396
0.082674
0.0861636
0.0890527
0.0912669
0.0928362
0.0938558
0.0947718
0.0985967
0.110178
0.101761
-0.0752313
-0.0526543
-0.0314276
-0.00970893
0.00958126
0.0256982
0.0392142
0.0507918
0.0607269
0.0692155
0.0763531
0.0826722
0.088264
0.0931676
0.0974091
0.100991
0.103898
0.106129
0.107776
0.10892
0.110003
0.11445
0.127395
0.116895
-0.0738442
-0.0498744
-0.0269044
-0.00403389
0.0162097
0.0335942
0.0484673
0.0612329
0.0722266
0.0815428
0.089482
0.0963313
0.102269
0.107398
0.111789
0.115485
0.118514
0.120915
0.122778
0.124123
0.125369
0.130295
0.144298
0.132116
-0.0711868
-0.046529
-0.0215632
0.0025621
0.0240977
0.0428555
0.0589936
0.0727919
0.0845315
0.0944722
0.102896
0.110078
0.116229
0.121508
0.126031
0.129872
0.133079
0.135708
0.137816
0.139356
0.140732
0.145991
0.160777
0.147499
-0.0680491
-0.0424025
-0.0153695
0.0103035
0.0333728
0.0535113
0.0707589
0.085368
0.0976666
0.107992
0.116675
0.124018
0.130273
0.135638
0.140256
0.144224
0.14761
0.150473
0.152828
0.154542
0.156004
0.161448
0.176772
0.163197
-0.064592
-0.0374537
-0.00821545
0.0193515
0.0440912
0.0655362
0.0837092
0.0989165
0.111569
0.122087
0.130861
0.138236
0.144499
0.149874
0.154527
0.158575
0.1621
0.165165
0.167742
0.169606
0.171107
0.176582
0.192187
0.179401
-0.0607887
-0.0316863
5.78845e-05
0.029795
0.056252
0.0788898
0.0978057
0.113419
0.126247
0.136797
0.145525
0.152818
0.158989
0.164284
0.168886
0.172929
0.176511
0.179699
0.182445
0.184456
0.186002
0.191348
0.206883
0.196446
-0.0566171
-0.0250911
0.00959182
0.0416984
0.0698546
0.0935533
0.11304
0.128886
0.141731
0.152177
0.160738
0.16784
0.173817
0.178927
0.183367
0.187283
0.190791
0.193971
0.196792
0.198977
0.200701
0.205752
0.220458
0.2152
-0.0520784
-0.0175888
0.0205163
0.0551164
0.0849147
0.109539
0.129435
0.145354
0.158074
0.16829
0.176577
0.183387
0.189068
0.193882
0.198029
0.201662
0.2049
0.207839
0.210498
0.212726
0.214549
0.21813
0.228859
0.239177
-0.0471229
-0.00902276
0.0329204
0.0701051
0.101476
0.126894
0.147044
0.162883
0.175341
0.185213
0.193125
0.199554
0.204851
0.209275
0.213017
0.216218
0.218981
0.221377
0.223433
0.225079
0.226047
0.225725
0.22444
0.272233
-0.0415734
0.000767126
0.0468806
0.0867405
0.119619
0.145698
0.165941
0.181542
0.193597
0.203012
0.210462
0.216438
0.22129
0.225273
0.22857
0.23131
0.233589
0.235493
0.237047
0.237949
0.237644
0.238397
0.25074
0.269506
-0.0352054
0.0118685
0.0625194
0.105159
0.139472
0.166058
0.186213
0.201403
0.212897
0.221747
0.228653
0.234114
0.238483
0.242007
0.244867
0.247187
0.249067
0.250596
0.25175
0.252093
0.25143
0.254085
0.270399
0.276976
-0.0279549
0.0243033
0.0800544
0.125585
0.16121
0.188094
0.207939
0.222515
0.233309
0.241463
0.247734
0.252622
0.25647
0.259525
0.261962
0.263907
0.265459
0.266704
0.267583
0.267621
0.266865
0.270324
0.287627
0.289315
-0.0198214
0.0383216
0.0997822
0.14832
0.185034
0.211952
0.231217
0.24495
0.254854
0.262179
0.267716
0.271958
0.27524
0.277801
0.279813
0.281397
0.282645
0.283637
0.284285
0.284095
0.283222
0.286926
0.304435
0.303909
-0.0107647
0.0545681
0.122119
0.17371
0.211192
0.237776
0.256133
0.268754
0.277556
0.283891
0.288576
0.292086
0.29474
0.296769
0.298336
0.29955
0.300498
0.301241
0.301671
0.301277
0.300268
0.303984
0.321277
0.319585
-0.00055212
0.0737204
0.147739
0.20213
0.239918
0.265712
0.282766
0.293958
0.301409
0.306567
0.31026
0.312934
0.314885
0.316327
0.317411
0.318233
0.318861
0.319342
0.319545
0.318951
0.317804
0.321413
0.338193
0.335888
0.0115338
0.0969577
0.177203
0.233965
0.271456
0.295897
0.311169
0.320555
0.326372
0.330142
0.332685
0.334404
0.335562
0.336352
0.336906
0.337301
0.337586
0.337785
0.33775
0.336962
0.335691
0.339116
0.355143
0.352543
0.0265807
0.125816
0.211201
0.269684
0.30606
0.328433
0.341349
0.348495
0.352359
0.354508
0.355728
0.356362
0.356629
0.356694
0.356666
0.356596
0.356509
0.356407
0.356123
0.355147
0.353773
0.356966
0.372049
0.36936
0.0452416
0.161758
0.250698
0.30985
0.343968
0.363369
0.373249
0.377664
0.379229
0.379512
0.379228
0.378643
0.37792
0.377188
0.376523
0.375951
0.375465
0.375043
0.374502
0.37335
0.371896
0.374824
0.388811
0.386174
0.0661234
0.20684
0.297029
0.355059
0.385366
0.400656
0.406711
0.407863
0.406773
0.404944
0.402981
0.40105
0.399243
0.397644
0.396296
0.395187
0.394282
0.393525
0.392724
0.391411
0.389901
0.392536
0.405308
0.402822
0.0877027
0.266723
0.352487
0.405994
0.430277
0.440064
0.441433
0.438785
0.434701
0.430537
0.426741
0.42335
0.420378
0.417858
0.415787
0.414119
0.412778
0.41168
0.41062
0.409161
0.407616
0.409936
0.421403
0.419132
0.126259
0.355227
0.420527
0.462838
0.478227
0.481034
0.476899
0.469986
0.462631
0.455961
0.450214
0.445282
0.441088
0.437606
0.43479
0.432548
0.430766
0.429327
0.428013
0.426424
0.424861
0.426847
0.436948
0.434929
0.256413
0.483232
0.501504
0.524043
0.5279
0.522564
0.512357
0.500885
0.490103
0.480835
0.473078
0.466561
0.461117
0.456658
0.453089
0.450273
0.448053
0.446277
0.444718
0.443014
0.441447
0.443093
0.451804
0.450036
)
;

boundaryField
{
    rotor
    {
        type            zeroGradient;
    }
    freestream
    {
        type            freestreamPressure;
        freestreamValue uniform 0;
        supersonic      false;
        value           nonuniform List<scalar> 
96
(
0.424107
0.444094
0.462511
0.479157
0.493879
0.506187
0.515892
0.5228
0.526767
0.527677
0.525493
0.520202
0.511842
0.500506
0.486333
0.469517
0.450299
0.428943
0.405779
0.381246
0.355612
0.329218
0.302448
0.275705
0.249382
0.223858
0.19948
0.176562
0.155374
0.136159
0.119148
0.104682
0.0937935
0.0808634
0.0650221
0.0528597
0.0433083
0.0354992
0.0290717
0.0237899
0.0194445
0.0158491
0.0128413
0.0102857
0.00807648
0.00614128
0.00444127
0.00301784
0.00204301
0.00125796
0.000780211
0.000515327
0.000375622
0.00017776
7.54313e-06
8.41347e-06
5.08374e-05
5.20738e-05
-0.000163999
-0.00115436
-0.00174545
-0.00157841
-0.00104207
-0.000424529
0.000194001
0.000777155
0.00157214
0.00279524
0.00436961
0.0064829
0.00943134
0.0132868
0.0179922
0.0236061
0.0302119
0.0378635
0.0466402
0.056642
0.0679897
0.0808771
0.0957751
0.114547
0.139597
0.147287
0.160933
0.177992
0.19714
0.217708
0.239384
0.261927
0.285124
0.308755
0.332577
0.356326
0.379712
0.402435
)
;
    }
    frontAndBack
    {
        type            empty;
    }
}


// ************************************************************************* //
