/*--------------------------------*- C++ -*----------------------------------*\
  =========                 |
  \\      /  F ield         | OpenFOAM: The Open Source CFD Toolbox
   \\    /   O peration     | Website:  https://openfoam.org
    \\  /    A nd           | Version:  11
     \\/     M anipulation  |
\*---------------------------------------------------------------------------*/
FoamFile
{
    format      ascii;
    class       surfaceScalarField;
    location    "0.9";
    object      phi;
}
// * * * * * * * * * * * * * * * * * * * * * * * * * * * * * * * * * * * * * //

dimensions      [0 3 -1 0 0 0 0];

internalField   nonuniform List<scalar> 
5640
(
-3.11536e-07
3.11536e-07
-8.18861e-07
5.07326e-07
-1.27854e-06
4.59682e-07
-1.40835e-06
1.29811e-07
3.50602e-07
-1.75896e-06
-3.7939e-06
4.1445e-06
-3.76526e-07
6.88062e-07
-8.04348e-07
9.35148e-07
-1.09479e-06
7.50128e-07
-1.0133e-06
4.8317e-08
-2.69209e-07
-2.50305e-06
-5.50517e-06
1.44206e-06
-3.83598e-07
1.07166e-06
-7.31594e-07
1.28314e-06
-9.42849e-07
9.61383e-07
-8.57341e-07
-3.7191e-08
-5.94412e-07
-2.76598e-06
-6.04533e-06
-5.425e-08
-3.69714e-07
1.44137e-06
-6.58008e-07
1.57144e-06
-8.38494e-07
1.14187e-06
-8.26572e-07
-4.91133e-08
-8.45367e-07
-2.74718e-06
-6.04077e-06
-8.49933e-07
-3.42037e-07
1.78341e-06
-5.88198e-07
1.8176e-06
-7.67245e-07
1.32092e-06
-8.6107e-07
4.47118e-08
-1.11042e-06
-2.49783e-06
-5.56643e-06
-1.58477e-06
-3.05134e-07
2.08854e-06
-5.21381e-07
2.03385e-06
-7.16323e-07
1.51586e-06
-9.24315e-07
2.52703e-07
-1.37658e-06
-2.04556e-06
-4.75726e-06
-2.18575e-06
-2.62399e-07
2.35094e-06
-4.55776e-07
2.22722e-06
-6.73853e-07
1.73394e-06
-9.89486e-07
5.68336e-07
-1.61236e-06
-1.42269e-06
-3.71844e-06
-2.65118e-06
-2.15586e-07
2.56653e-06
-3.8897e-07
2.40061e-06
-6.29903e-07
1.97487e-06
-1.03711e-06
9.75538e-07
-1.79454e-06
-6.65248e-07
-2.52385e-06
-2.98912e-06
-1.65706e-07
2.73224e-06
-3.18469e-07
2.55337e-06
-5.76147e-07
2.23255e-06
-1.05316e-06
1.45255e-06
-1.90897e-06
1.90557e-07
-1.22737e-06
-3.20545e-06
-1.13061e-07
2.8453e-06
-2.42171e-07
2.68248e-06
-5.0609e-07
2.49647e-06
-1.02785e-06
1.97431e-06
-1.94686e-06
1.10957e-06
1.29783e-07
-3.304e-06
-5.78652e-08
2.90316e-06
-1.58522e-07
2.78314e-06
-4.15093e-07
2.75304e-06
-9.54601e-07
2.51382e-06
-1.90285e-06
2.05781e-06
1.51416e-06
-3.28722e-06
7.55083e-10
2.90241e-06
-6.67674e-08
2.85066e-06
-3.00393e-07
2.98666e-06
-8.29576e-07
3.043e-06
-1.77393e-06
3.00217e-06
2.8967e-06
-3.15648e-06
5.82352e-08
2.84417e-06
3.28456e-08
2.87605e-06
-1.61144e-07
3.18065e-06
-6.51309e-07
3.53317e-06
-1.55885e-06
3.90971e-06
4.25017e-06
-2.91232e-06
1.1725e-07
2.72692e-06
1.39206e-07
2.85409e-06
1.83576e-09
3.31802e-06
-4.20624e-07
3.95562e-06
-1.25779e-06
4.74688e-06
5.54704e-06
-2.55467e-06
1.75118e-07
2.5518e-06
2.49759e-07
2.77945e-06
1.8435e-07
3.38343e-06
-1.40848e-07
4.28082e-06
-8.72521e-07
5.47856e-06
6.75751e-06
-2.08299e-06
2.29604e-07
2.3222e-06
3.609e-07
2.64816e-06
3.81905e-07
3.36242e-06
1.82093e-07
4.48064e-06
-4.06639e-07
6.06729e-06
7.8471e-06
-1.49623e-06
2.77953e-07
2.04425e-06
4.67776e-07
2.45833e-06
5.86439e-07
3.24376e-06
5.39093e-07
4.52798e-06
1.33866e-07
6.47252e-06
8.774e-06
-7.93034e-07
3.1686e-07
1.72738e-06
5.6447e-07
2.21073e-06
7.87909e-07
3.02032e-06
9.17409e-07
4.39848e-06
7.37787e-07
6.65214e-06
9.51236e-06
-5.7275e-10
3.42605e-07
1.38478e-06
6.44273e-07
1.90906e-06
9.7401e-07
2.69059e-06
1.29959e-06
4.0729e-06
1.39624e-06
6.55548e-06
9.94494e-06
9.63661e-07
3.51305e-07
1.03347e-06
7.00075e-07
1.56029e-06
1.13038e-06
2.26028e-06
1.66241e-06
3.54088e-06
2.08119e-06
6.1367e-06
9.99804e-06
2.0281e-06
3.39451e-07
6.94024e-07
7.24896e-07
1.17484e-06
1.24083e-06
1.74435e-06
1.97453e-06
2.80718e-06
2.75673e-06
5.3545e-06
9.52661e-06
3.22815e-06
3.05001e-07
3.89023e-07
7.12251e-07
7.67593e-07
1.28729e-06
1.16931e-06
2.19249e-06
1.90197e-06
3.36895e-06
4.17805e-06
8.24648e-06
4.64908e-06
2.46113e-07
1.4291e-07
6.52936e-07
3.60769e-07
1.24714e-06
5.75107e-07
2.24641e-06
9.02704e-07
3.86811e-06
2.55635e-06
5.49343e-06
6.62115e-06
1.4291e-07
5.03679e-07
1.07879e-06
1.98149e-06
4.53784e-06
1.00313e-05
-1.38677e-06
-2.58124e-05
3.13437e-05
-5.10323e-06
-2.9464e-05
3.31805e-05
-8.13308e-06
-3.05878e-05
3.36176e-05
-1.08883e-05
-3.06604e-05
3.34157e-05
-1.34815e-05
-3.06096e-05
3.32027e-05
-1.59605e-05
-3.06687e-05
3.31478e-05
-1.8359e-05
-3.0896e-05
3.32945e-05
-2.07005e-05
-3.12517e-05
3.35932e-05
-2.29998e-05
-3.16847e-05
3.3984e-05
-2.52651e-05
-3.21573e-05
3.44227e-05
-2.75008e-05
-3.26459e-05
3.48816e-05
-2.97087e-05
-3.31396e-05
3.53474e-05
-3.18891e-05
-3.36328e-05
3.58132e-05
-3.4042e-05
-3.41212e-05
3.62742e-05
-3.61671e-05
-3.46011e-05
3.67262e-05
-3.82634e-05
-3.50694e-05
3.71658e-05
-4.03302e-05
-3.5524e-05
3.75907e-05
-4.23658e-05
-3.59651e-05
3.80007e-05
-4.43685e-05
-3.6395e-05
3.83977e-05
-4.63362e-05
-3.68173e-05
3.87851e-05
-4.82672e-05
-3.72349e-05
3.91659e-05
-5.01604e-05
-3.7649e-05
3.95421e-05
-5.20161e-05
-3.80631e-05
3.99188e-05
-3.85432e-05
4.03779e-05
-2.13587e-06
-2.22344e-05
-5.53143e-06
-2.60685e-05
-8.646e-06
-2.74732e-05
-1.1521e-05
-2.77854e-05
-1.42267e-05
-2.79039e-05
-1.68103e-05
-2.80852e-05
-1.93087e-05
-2.83976e-05
-2.17474e-05
-2.8813e-05
-2.41417e-05
-2.92905e-05
-2.65001e-05
-2.97989e-05
-2.88268e-05
-3.03191e-05
-3.11237e-05
-3.08428e-05
-3.33912e-05
-3.13653e-05
-3.56293e-05
-3.18831e-05
-3.78378e-05
-3.23927e-05
-4.00158e-05
-3.28914e-05
-4.21623e-05
-3.33775e-05
-4.42759e-05
-3.38515e-05
-4.63548e-05
-3.43161e-05
-4.83974e-05
-3.47747e-05
-5.04023e-05
-3.523e-05
-5.23685e-05
-3.56827e-05
-5.42951e-05
-3.61365e-05
-3.66333e-05
-2.8849e-06
-1.94038e-05
-6.08606e-06
-2.28673e-05
-9.19971e-06
-2.43595e-05
-1.21337e-05
-2.48514e-05
-1.49148e-05
-2.51227e-05
-1.7579e-05
-2.5421e-05
-2.01601e-05
-2.58164e-05
-2.26822e-05
-2.62909e-05
-2.51594e-05
-2.68132e-05
-2.75999e-05
-2.73584e-05
-3.00075e-05
-2.79116e-05
-3.23836e-05
-2.84667e-05
-3.47288e-05
-2.90201e-05
-3.70431e-05
-2.95688e-05
-3.93261e-05
-3.01098e-05
-4.15769e-05
-3.06405e-05
-4.37946e-05
-3.11598e-05
-4.59776e-05
-3.16685e-05
-4.81246e-05
-3.21691e-05
-5.02344e-05
-3.2665e-05
-5.23062e-05
-3.31582e-05
-5.43393e-05
-3.36496e-05
-5.63329e-05
-3.41429e-05
-3.46582e-05
-3.59119e-06
-1.66625e-05
-6.66631e-06
-1.97922e-05
-9.74938e-06
-2.12765e-05
-1.27072e-05
-2.18936e-05
-1.55367e-05
-2.22932e-05
-1.82614e-05
-2.26963e-05
-2.09094e-05
-2.31684e-05
-2.35014e-05
-2.3699e-05
-2.60496e-05
-2.4265e-05
-2.85611e-05
-2.48469e-05
-3.1039e-05
-2.54337e-05
-3.34844e-05
-2.60213e-05
-3.58977e-05
-2.66068e-05
-3.82787e-05
-2.71877e-05
-4.0627e-05
-2.77615e-05
-4.29417e-05
-2.83259e-05
-4.52215e-05
-2.888e-05
-4.74653e-05
-2.94247e-05
-4.9672e-05
-2.99624e-05
-5.18409e-05
-3.0496e-05
-5.39721e-05
-3.1027e-05
-5.60658e-05
-3.15559e-05
-5.81221e-05
-3.20867e-05
-3.26283e-05
-4.22338e-06
-1.40239e-05
-7.21145e-06
-1.68041e-05
-1.02581e-05
-1.82299e-05
-1.32215e-05
-1.89302e-05
-1.60812e-05
-1.94335e-05
-1.88507e-05
-1.99269e-05
-2.15517e-05
-2.04673e-05
-2.42009e-05
-2.10497e-05
-2.68085e-05
-2.16574e-05
-2.93801e-05
-2.22753e-05
-3.19177e-05
-2.28961e-05
-3.44222e-05
-2.35168e-05
-3.68938e-05
-2.41353e-05
-3.93321e-05
-2.47494e-05
-4.17364e-05
-2.53571e-05
-4.41059e-05
-2.59564e-05
-4.64391e-05
-2.65467e-05
-4.87351e-05
-2.71287e-05
-5.0993e-05
-2.77044e-05
-5.3213e-05
-2.82761e-05
-5.53954e-05
-2.88446e-05
-5.75408e-05
-2.94104e-05
-5.96511e-05
-2.99764e-05
-3.05495e-05
-4.76134e-06
-1.14483e-05
-7.68761e-06
-1.38779e-05
-1.06999e-05
-1.52176e-05
-1.366e-05
-1.59702e-05
-1.65379e-05
-1.65555e-05
-1.93397e-05
-1.71251e-05
-2.20815e-05
-1.77255e-05
-2.47765e-05
-1.83548e-05
-2.74323e-05
-1.90016e-05
-3.00531e-05
-1.96546e-05
-3.264e-05
-2.03091e-05
-3.51935e-05
-2.09633e-05
-3.77135e-05
-2.16153e-05
-4.01995e-05
-2.22634e-05
-4.26507e-05
-2.29059e-05
-4.50659e-05
-2.35413e-05
-4.74438e-05
-2.41688e-05
-4.97835e-05
-2.47891e-05
-5.20845e-05
-2.54034e-05
-5.43472e-05
-2.60134e-05
-5.65723e-05
-2.66195e-05
-5.87607e-05
-2.7222e-05
-6.09138e-05
-2.78233e-05
-2.84288e-05
-5.19283e-06
-8.90668e-06
-8.07504e-06
-1.09956e-05
-1.10573e-05
-1.22353e-05
-1.40097e-05
-1.30178e-05
-1.68977e-05
-1.36675e-05
-1.9722e-05
-1.43009e-05
-2.24941e-05
-1.49534e-05
-2.52239e-05
-1.56249e-05
-2.79174e-05
-1.63081e-05
-3.05768e-05
-1.69952e-05
-3.32027e-05
-1.76832e-05
-3.57951e-05
-1.83708e-05
-3.83537e-05
-1.90567e-05
-4.08778e-05
-1.97393e-05
-4.33664e-05
-2.04173e-05
-4.58183e-05
-2.10894e-05
-4.8232e-05
-2.17551e-05
-5.06066e-05
-2.24144e-05
-5.29421e-05
-2.30679e-05
-5.5239e-05
-2.37165e-05
-5.74981e-05
-2.43604e-05
-5.97203e-05
-2.49998e-05
-6.1907e-05
-2.56366e-05
-2.62749e-05
-5.51169e-06
-6.38411e-06
-8.36159e-06
-8.14575e-06
-1.13183e-05
-9.27856e-06
-1.4261e-05
-1.0075e-05
-1.71532e-05
-1.07753e-05
-1.99917e-05
-1.14624e-05
-2.27847e-05
-1.21604e-05
-2.55396e-05
-1.287e-05
-2.82604e-05
-1.35873e-05
-3.09483e-05
-1.43073e-05
-3.36031e-05
-1.50284e-05
-3.62244e-05
-1.57495e-05
-3.88117e-05
-1.64694e-05
-4.13642e-05
-1.71868e-05
-4.38808e-05
-1.79007e-05
-4.63599e-05
-1.86103e-05
-4.88003e-05
-1.93147e-05
-5.12011e-05
-2.00136e-05
-5.35624e-05
-2.07067e-05
-5.58846e-05
-2.13942e-05
-5.81689e-05
-2.20762e-05
-6.04159e-05
-2.27527e-05
-6.26271e-05
-2.34255e-05
-2.40968e-05
-5.71477e-06
-3.8748e-06
-8.53975e-06
-5.32077e-06
-1.14748e-05
-6.34347e-06
-1.4407e-05
-7.14283e-06
-1.72989e-05
-7.88347e-06
-2.01447e-05
-8.61656e-06
-2.29502e-05
-9.35492e-06
-2.57208e-05
-1.00994e-05
-2.84592e-05
-1.08489e-05
-3.11655e-05
-1.1601e-05
-3.38392e-05
-1.23548e-05
-3.64794e-05
-1.31092e-05
-3.90856e-05
-1.38632e-05
-4.16567e-05
-1.46157e-05
-4.41915e-05
-1.53659e-05
-4.66885e-05
-1.61132e-05
-4.91465e-05
-1.68568e-05
-5.15645e-05
-1.75955e-05
-5.39426e-05
-1.83286e-05
-5.62814e-05
-1.90554e-05
-5.85819e-05
-1.97757e-05
-6.08447e-05
-2.049e-05
-6.30712e-05
-2.11989e-05
-2.19037e-05
-5.80033e-06
-1.37847e-06
-8.60488e-06
-2.51622e-06
-1.15216e-05
-3.42671e-06
-1.44431e-05
-4.22138e-06
-1.73311e-05
-4.99549e-06
-2.01783e-05
-5.76932e-06
-2.29886e-05
-6.54466e-06
-2.57659e-05
-7.32206e-06
-2.85122e-05
-8.10264e-06
-3.1227e-05
-8.88621e-06
-3.39094e-05
-9.67239e-06
-3.65585e-05
-1.04602e-05
-3.91734e-05
-1.12483e-05
-4.17531e-05
-1.2036e-05
-4.42965e-05
-1.28226e-05
-4.68021e-05
-1.36076e-05
-4.92686e-05
-1.43903e-05
-5.16949e-05
-1.51692e-05
-5.40811e-05
-1.59425e-05
-5.64276e-05
-1.67089e-05
-5.87353e-05
-1.7468e-05
-6.10049e-05
-1.82203e-05
-6.32379e-05
-1.8966e-05
-1.97048e-05
-5.76741e-06
1.10172e-06
-8.55418e-06
2.70549e-07
-1.14557e-05
-5.25242e-07
-1.43667e-05
-1.31032e-06
-1.72481e-05
-2.1141e-06
-2.00912e-05
-2.92624e-06
-2.28986e-05
-3.73722e-06
-2.56739e-05
-4.5468e-06
-2.84185e-05
-5.35806e-06
-3.11318e-05
-6.17293e-06
-3.38127e-05
-6.99146e-06
-3.64604e-05
-7.81245e-06
-3.90741e-05
-8.63462e-06
-4.16528e-05
-9.45719e-06
-4.41955e-05
-1.02799e-05
-4.67004e-05
-1.11027e-05
-4.91662e-05
-1.19245e-05
-5.15919e-05
-1.27435e-05
-5.39771e-05
-1.35572e-05
-5.63224e-05
-1.43636e-05
-5.86285e-05
-1.5162e-05
-6.0896e-05
-1.59528e-05
-6.31262e-05
-1.67358e-05
-1.75093e-05
-5.61541e-06
3.56065e-06
-8.38614e-06
3.04127e-06
-1.12754e-05
2.36403e-06
-1.41766e-05
1.59091e-06
-1.70488e-05
7.58071e-07
-1.98823e-05
-9.27007e-08
-2.26796e-05
-9.39978e-07
-2.54441e-05
-1.78229e-06
-2.81776e-05
-2.62457e-06
-3.08796e-05
-3.47088e-06
-3.35494e-05
-4.32173e-06
-3.61861e-05
-5.17577e-06
-3.87889e-05
-6.03172e-06
-4.13571e-05
-6.88904e-06
-4.38893e-05
-7.74777e-06
-4.6384e-05
-8.60791e-06
-4.884e-05
-9.46862e-06
-5.12559e-05
-1.03276e-05
-5.36314e-05
-1.11817e-05
-5.59666e-05
-1.20283e-05
-5.82621e-05
-1.28665e-05
-6.05185e-05
-1.36964e-05
-6.27369e-05
-1.45174e-05
-1.53262e-05
-5.34387e-06
5.9922e-06
-8.10005e-06
5.79746e-06
-1.09803e-05
5.24427e-06
-1.38725e-05
4.48315e-06
-1.67332e-05
3.61877e-06
-1.95523e-05
2.72633e-06
-2.23324e-05
1.84013e-06
-2.50779e-05
9.63212e-07
-2.77912e-05
8.88059e-08
-3.04727e-05
-7.89451e-07
-3.31217e-05
-1.67275e-06
-3.57376e-05
-2.55981e-06
-3.83199e-05
-3.44947e-06
-4.08675e-05
-4.34136e-06
-4.33796e-05
-5.23575e-06
-4.58546e-05
-6.13287e-06
-4.82913e-05
-7.03195e-06
-5.06883e-05
-7.93054e-06
-5.30451e-05
-8.82501e-06
-5.53613e-05
-9.7121e-06
-5.76374e-05
-1.05904e-05
-5.98737e-05
-1.14601e-05
-6.20714e-05
-1.23197e-05
-1.31648e-05
-4.95259e-06
8.39012e-06
-7.69622e-06
8.54109e-06
-1.0571e-05
8.11905e-06
-1.34556e-05
7.36777e-06
-1.63031e-05
6.46623e-06
-1.9103e-05
5.52628e-06
-2.18594e-05
4.59648e-06
-2.45779e-05
3.68172e-06
-2.72623e-05
2.77322e-06
-2.99138e-05
1.86199e-06
-3.25323e-05
9.45771e-07
-3.51176e-05
2.55186e-08
-3.76693e-05
-8.97791e-07
-4.01867e-05
-1.824e-06
-4.26688e-05
-2.75363e-06
-4.51145e-05
-3.68713e-06
-4.75226e-05
-4.6239e-06
-4.98916e-05
-5.56151e-06
-5.22206e-05
-6.49603e-06
-5.4509e-05
-7.42369e-06
-5.67568e-05
-8.3426e-06
-5.89643e-05
-9.25259e-06
-6.11323e-05
-1.01517e-05
-1.1034e-05
-4.44156e-06
1.07487e-05
-7.17583e-06
1.12754e-05
-1.00497e-05
1.09929e-05
-1.29287e-05
1.02468e-05
-1.57617e-05
9.2992e-06
-1.85383e-05
8.30291e-06
-2.12644e-05
7.32262e-06
-2.3948e-05
6.36527e-06
-2.65945e-05
5.41975e-06
-2.92065e-05
4.47397e-06
-3.17848e-05
3.52404e-06
-3.43295e-05
2.57031e-06
-3.68407e-05
1.61341e-06
-3.93179e-05
6.53192e-07
-4.17604e-05
-3.11131e-07
-4.41673e-05
-1.28029e-06
-4.65373e-05
-2.25392e-06
-4.8869e-05
-3.22976e-06
-5.11612e-05
-4.20382e-06
-5.3413e-05
-5.17195e-06
-5.56238e-05
-6.13176e-06
-5.77937e-05
-7.08264e-06
-5.99234e-05
-8.02197e-06
-8.94272e-06
-3.81138e-06
1.30638e-05
-6.54133e-06
1.40053e-05
-9.42001e-06
1.38716e-05
-1.22962e-05
1.31231e-05
-1.51138e-05
1.21168e-05
-1.78631e-05
1.10521e-05
-2.05526e-05
1.00121e-05
-2.31931e-05
9.00581e-06
-2.57927e-05
8.01933e-06
-2.83556e-05
7.03686e-06
-3.08837e-05
6.05218e-06
-3.3378e-05
5.06461e-06
-3.58388e-05
4.07419e-06
-3.82659e-05
3.08035e-06
-4.06591e-05
2.08199e-06
-4.30174e-05
1.07804e-06
-4.53398e-05
6.85422e-08
-4.76251e-05
-9.44555e-07
-4.98715e-05
-1.95742e-06
-5.20777e-05
-2.9657e-06
-5.42429e-05
-3.96654e-06
-5.63667e-05
-4.95882e-06
-5.84495e-05
-5.93921e-06
-6.89953e-06
-3.06418e-06
1.5335e-05
-5.79712e-06
1.67383e-05
-8.68799e-06
1.67624e-05
-1.15648e-05
1.59998e-05
-1.43662e-05
1.49182e-05
-1.70839e-05
1.37698e-05
-1.97301e-05
1.26583e-05
-2.23194e-05
1.15951e-05
-2.48627e-05
1.05627e-05
-2.73668e-05
9.5409e-06
-2.98348e-05
8.52021e-06
-3.22686e-05
7.49837e-06
-3.46689e-05
6.47454e-06
-3.70362e-05
5.4476e-06
-3.93701e-05
4.41597e-06
-4.16703e-05
3.37823e-06
-4.39358e-05
2.33402e-06
-4.61652e-05
1.28483e-06
-4.83568e-05
2.34151e-07
-5.05088e-05
-8.13702e-07
-5.26198e-05
-1.85551e-06
-5.4689e-05
-2.8896e-06
-5.67164e-05
-3.91185e-06
-4.91282e-06
-2.20441e-06
1.75388e-05
-4.95018e-06
1.9484e-05
-7.86247e-06
1.96747e-05
-1.07433e-05
1.88807e-05
-1.35273e-05
1.77022e-05
-1.62087e-05
1.64512e-05
-1.88045e-05
1.52541e-05
-2.1334e-05
1.41246e-05
-2.38117e-05
1.30403e-05
-2.62469e-05
1.19761e-05
-2.86446e-05
1.0918e-05
-3.10077e-05
9.86143e-06
-3.33376e-05
8.80442e-06
-3.5635e-05
7.74499e-06
-3.79001e-05
6.68105e-06
-4.01325e-05
5.6107e-06
-4.23316e-05
4.5331e-06
-4.4496e-05
3.44919e-06
-4.66237e-05
2.36192e-06
-4.87128e-05
1.27536e-06
-5.07612e-05
1.92901e-07
-5.27674e-05
-8.8337e-07
-5.47307e-05
-1.94859e-06
-2.99036e-06
-1.23262e-06
1.97351e-05
-4.01175e-06
2.22632e-05
-6.95667e-06
2.26196e-05
-9.84425e-06
2.17683e-05
-1.26083e-05
2.04663e-05
-1.52474e-05
1.90903e-05
-1.77849e-05
1.77916e-05
-2.02454e-05
1.65851e-05
-2.26473e-05
1.54423e-05
-2.50034e-05
1.43322e-05
-2.73205e-05
1.32351e-05
-2.96026e-05
1.21435e-05
-3.18518e-05
1.10536e-05
-3.40694e-05
9.96258e-06
-3.62559e-05
8.86748e-06
-3.84111e-05
7.7659e-06
-4.05344e-05
6.65644e-06
-4.26246e-05
5.5394e-06
-4.46797e-05
4.41703e-06
-4.66973e-05
3.29292e-06
-4.86747e-05
2.17034e-06
-5.06096e-05
1.05155e-06
-5.24996e-05
-5.864e-08
-1.13867e-06
-1.34092e-07
2.18973e-05
-2.99961e-06
2.51287e-05
-5.99043e-06
2.56104e-05
-8.88445e-06
2.46623e-05
-1.16229e-05
2.32047e-05
-1.42116e-05
2.16791e-05
-1.66812e-05
2.02612e-05
-1.90624e-05
1.89663e-05
-2.13783e-05
1.77582e-05
-2.36446e-05
1.65985e-05
-2.58706e-05
1.5461e-05
-2.80612e-05
1.43341e-05
-3.02195e-05
1.3212e-05
-3.23473e-05
1.20903e-05
-3.44453e-05
1.09655e-05
-3.65136e-05
9.83426e-06
-3.85519e-05
8.69467e-06
-4.05588e-05
7.54629e-06
-4.25323e-05
6.39055e-06
-4.44697e-05
5.23032e-06
-4.63678e-05
4.06849e-06
-4.82234e-05
2.90716e-06
-5.00331e-05
1.75105e-06
6.35757e-07
9.9073e-07
2.41347e-05
-1.95268e-06
2.80721e-05
-4.99288e-06
2.86506e-05
-7.88648e-06
2.75559e-05
-1.05882e-05
2.59064e-05
-1.31147e-05
2.42055e-05
-1.55045e-05
2.2651e-05
-1.7795e-05
2.12568e-05
-2.00136e-05
1.99769e-05
-2.21793e-05
1.87641e-05
-2.43031e-05
1.75849e-05
-2.63917e-05
1.64228e-05
-2.84489e-05
1.52691e-05
-3.04768e-05
1.41182e-05
-3.24766e-05
1.29652e-05
-3.44485e-05
1.18062e-05
-3.63923e-05
1.06385e-05
-3.83068e-05
9.46077e-06
-4.01899e-05
8.27367e-06
-4.20388e-05
7.0792e-06
-4.385e-05
5.87966e-06
-4.56197e-05
4.6769e-06
-4.73442e-05
3.47553e-06
2.32369e-06
2.16018e-06
2.66236e-05
-9.18748e-07
3.1151e-05
-4.0063e-06
3.17382e-05
-6.87993e-06
3.04295e-05
-9.5248e-06
2.85513e-05
-1.19716e-05
2.66523e-05
-1.42667e-05
2.49461e-05
-1.64531e-05
2.34432e-05
-1.85625e-05
2.20862e-05
-2.06159e-05
2.08176e-05
-2.26268e-05
1.95958e-05
-2.46028e-05
1.83988e-05
-2.65486e-05
1.72149e-05
-2.84667e-05
1.60363e-05
-3.03586e-05
1.48571e-05
-3.22248e-05
1.36725e-05
-3.40651e-05
1.24788e-05
-3.58784e-05
1.12741e-05
-3.76627e-05
1.0058e-05
-3.94151e-05
8.8316e-06
-4.11319e-05
7.59653e-06
-4.28092e-05
6.35416e-06
-4.44424e-05
5.10871e-06
3.91781e-06
3.26017e-06
2.99846e-05
-6.92977e-09
3.44181e-05
-3.09303e-06
3.48243e-05
-5.90252e-06
3.3239e-05
-8.45587e-06
3.11046e-05
-1.07977e-05
2.89942e-05
-1.29794e-05
2.71278e-05
-1.50467e-05
2.55105e-05
-1.70336e-05
2.40732e-05
-1.89632e-05
2.27471e-05
-2.08501e-05
2.14827e-05
-2.27031e-05
2.02518e-05
-2.45274e-05
1.90392e-05
-2.63261e-05
1.7835e-05
-2.81008e-05
1.66318e-05
-2.98522e-05
1.54239e-05
-3.15802e-05
1.42068e-05
-3.32839e-05
1.29778e-05
-3.49614e-05
1.17354e-05
-3.66097e-05
1.04799e-05
-3.82252e-05
9.21202e-06
-3.98034e-05
7.93243e-06
-4.13393e-05
6.64455e-06
5.41152e-06
4.423e-06
3.55929e-05
7.27519e-07
3.81136e-05
-2.32783e-06
3.78797e-05
-4.99535e-06
3.59065e-05
-7.40404e-06
3.35133e-05
-9.60723e-06
3.11974e-05
-1.16526e-05
2.91731e-05
-1.35839e-05
2.74419e-05
-1.54349e-05
2.59242e-05
-1.72289e-05
2.45411e-05
-1.89812e-05
2.3235e-05
-2.07012e-05
2.19718e-05
-2.23945e-05
2.07325e-05
-2.40645e-05
1.9505e-05
-2.57131e-05
1.82804e-05
-2.73411e-05
1.70519e-05
-2.89486e-05
1.58143e-05
-3.05347e-05
1.45639e-05
-3.20976e-05
1.32984e-05
-3.36347e-05
1.2017e-05
-3.5142e-05
1.07194e-05
-3.6615e-05
9.40538e-06
-3.80476e-05
8.0772e-06
6.79885e-06
1.37797e-06
-1.37797e-06
2.95815e-06
-1.58017e-06
3.93854e-06
-9.80394e-07
4.79128e-06
-8.52738e-07
4.86831e-06
-7.70289e-08
1.99608e-06
2.87223e-06
1.7363e-06
-3.11428e-06
3.29249e-06
-3.13636e-06
4.38695e-06
-2.07486e-06
4.94755e-06
-1.41334e-06
4.48405e-06
3.86475e-07
4.0503e-06
2.42983e-06
1.76905e-06
-4.88333e-06
3.19103e-06
-4.55834e-06
4.20852e-06
-3.09235e-06
4.54295e-06
-1.74776e-06
3.90564e-06
1.02378e-06
6.03843e-06
1.91751e-06
1.69123e-06
-6.57456e-06
2.96192e-06
-5.82903e-06
3.84411e-06
-3.97454e-06
4.01048e-06
-1.91413e-06
3.30551e-06
1.72874e-06
7.8809e-06
1.46304e-06
1.55141e-06
-8.12596e-06
2.66078e-06
-6.9384e-06
3.39446e-06
-4.70822e-06
3.46063e-06
-1.98029e-06
2.74582e-06
2.44355e-06
9.47871e-06
1.148e-06
1.3776e-06
-9.50356e-06
2.31585e-06
-7.87666e-06
2.91425e-06
-5.30662e-06
2.91771e-06
-1.98375e-06
2.24603e-06
3.11523e-06
1.07801e-05
9.4464e-07
1.17677e-06
-1.06803e-05
1.9631e-06
-8.663e-06
2.43269e-06
-5.77621e-06
2.39599e-06
-1.94704e-06
1.80972e-06
3.7015e-06
1.17805e-05
8.09324e-07
9.64869e-07
-1.16452e-05
1.60179e-06
-9.29992e-06
1.95821e-06
-6.13262e-06
1.90085e-06
-1.88968e-06
1.42554e-06
4.1768e-06
1.24897e-05
7.16353e-07
7.43733e-07
-1.23889e-05
1.23557e-06
-9.79175e-06
1.49389e-06
-6.39095e-06
1.4316e-06
-1.82739e-06
1.08073e-06
4.52766e-06
1.29222e-05
6.48274e-07
5.16031e-07
-1.2905e-05
8.67861e-07
-1.01436e-05
1.04077e-06
-6.56385e-06
9.84688e-07
-1.77131e-06
7.6395e-07
4.7484e-06
1.30942e-05
5.91911e-07
2.84403e-07
-1.31894e-05
5.01374e-07
-1.03606e-05
5.98616e-07
-6.66109e-06
5.55429e-07
-1.72812e-06
4.64075e-07
4.83976e-06
1.30231e-05
5.35163e-07
4.87239e-08
-1.32381e-05
1.37496e-07
-1.04493e-05
1.6616e-07
-6.68976e-06
1.38759e-07
-1.70072e-06
1.68695e-07
4.80982e-06
1.27256e-05
4.66157e-07
-1.76861e-07
-1.30612e-05
-2.20251e-07
-1.04059e-05
-2.57618e-07
-6.65239e-06
-2.7061e-07
-1.68773e-06
-1.248e-07
4.66401e-06
1.22274e-05
3.73458e-07
-3.99766e-07
-1.26615e-05
-5.72735e-07
-1.0233e-05
-6.75595e-07
-6.54953e-06
-6.78046e-07
-1.68528e-06
-4.2909e-07
4.41505e-06
1.15524e-05
2.45923e-07
-6.16338e-07
-1.20451e-05
-9.19886e-07
-9.92942e-06
-1.09014e-06
-6.37928e-06
-1.08922e-06
-1.6862e-06
-7.58757e-07
4.0846e-06
1.07176e-05
7.60565e-08
-8.23794e-07
-1.12213e-05
-1.26103e-06
-9.49219e-06
-1.50332e-06
-6.13699e-06
-1.50803e-06
-1.6815e-06
-1.11831e-06
3.69488e-06
9.76389e-06
-1.64648e-07
-1.01951e-06
-1.02018e-05
-1.59545e-06
-8.91625e-06
-1.91695e-06
-5.81549e-06
-1.93698e-06
-1.66147e-06
-1.50992e-06
3.26782e-06
8.73125e-06
-4.77272e-07
-1.20025e-06
-9.00157e-06
-1.92186e-06
-8.19463e-06
-2.33244e-06
-5.40491e-06
-2.37762e-06
-1.61629e-06
-1.93242e-06
2.82262e-06
7.65033e-06
-8.51495e-07
-1.36166e-06
-7.63991e-06
-2.23797e-06
-7.31833e-06
-2.75077e-06
-4.8921e-06
-2.83118e-06
-1.53588e-06
-2.38416e-06
2.37559e-06
6.55585e-06
-1.28969e-06
-1.49826e-06
-6.14165e-06
-2.53958e-06
-6.277e-06
-3.17216e-06
-4.25953e-06
-3.2995e-06
-1.40854e-06
-2.8599e-06
1.936e-06
5.473e-06
-1.77705e-06
-1.59514e-06
-4.5465e-06
-2.82715e-06
-5.045e-06
-3.59548e-06
-3.49119e-06
-3.78626e-06
-1.21776e-06
-3.34957e-06
1.49931e-06
4.3977e-06
-2.27427e-06
-1.64158e-06
-2.90493e-06
-3.09278e-06
-3.5938e-06
-4.01633e-06
-2.56764e-06
-4.298e-06
-9.36089e-07
-3.84194e-06
1.04324e-06
3.25335e-06
-2.69759e-06
-1.61585e-06
-1.28907e-06
-3.30016e-06
-1.90949e-06
-4.41431e-06
-1.45349e-06
-4.82453e-06
-5.25872e-07
-4.32217e-06
5.40879e-07
1.83991e-06
-2.90873e-06
-1.28907e-06
-3.19856e-06
-4.65205e-06
-5.17792e-06
-4.63704e-06
-2.79713e-06
4.06566e-06
3.43994e-05
8.58335e-07
4.13209e-05
-1.79091e-06
4.05289e-05
-4.18368e-06
3.82993e-05
-6.38207e-06
3.57117e-05
-8.40818e-06
3.32235e-05
-1.02928e-05
3.10577e-05
-1.20711e-05
2.92202e-05
-1.37729e-05
2.7626e-05
-1.54201e-05
2.61883e-05
-1.70278e-05
2.48427e-05
-1.86054e-05
2.35494e-05
-2.01589e-05
2.22859e-05
-2.16916e-05
2.10377e-05
-2.32058e-05
1.97945e-05
-2.47023e-05
1.85485e-05
-2.61814e-05
1.72934e-05
-2.76425e-05
1.60249e-05
-2.90838e-05
1.47397e-05
-3.05027e-05
1.34359e-05
-3.18955e-05
1.21121e-05
-3.32571e-05
1.0767e-05
-3.45809e-05
9.401e-06
8.07434e-06
2.52094e-06
3.43083e-05
6.65658e-07
4.31762e-05
-1.39789e-06
4.25925e-05
-3.44298e-06
4.03444e-05
-5.38222e-06
3.7651e-05
-7.1991e-06
3.50403e-05
-8.90156e-06
3.27602e-05
-1.05115e-05
3.08302e-05
-1.20523e-05
2.91667e-05
-1.35428e-05
2.76788e-05
-1.4997e-05
2.62969e-05
-1.6424e-05
2.49764e-05
-1.78295e-05
2.36915e-05
-1.92173e-05
2.24255e-05
-2.05895e-05
2.11667e-05
-2.19472e-05
1.99062e-05
-2.32908e-05
1.8637e-05
-2.46197e-05
1.73539e-05
-2.59327e-05
1.60527e-05
-2.72271e-05
1.47303e-05
-2.84992e-05
1.33842e-05
-2.97439e-05
1.20116e-05
-3.09534e-05
1.06106e-05
9.23316e-06
1.73707e-06
3.44888e-05
5.37016e-07
4.43762e-05
-1.03574e-06
4.41652e-05
-2.72244e-06
4.20311e-05
-4.38249e-06
3.9311e-05
-5.97114e-06
3.6629e-05
-7.47638e-06
3.42654e-05
-8.9063e-06
3.22601e-05
-1.02765e-05
3.0537e-05
-1.16022e-05
2.90045e-05
-1.28955e-05
2.75901e-05
-1.41648e-05
2.62457e-05
-1.54157e-05
2.49424e-05
-1.66518e-05
2.36616e-05
-1.78753e-05
2.23902e-05
-1.90875e-05
2.11184e-05
-2.0289e-05
1.98385e-05
-2.14794e-05
1.85443e-05
-2.26577e-05
1.7231e-05
-2.38216e-05
1.58942e-05
-2.49674e-05
1.453e-05
-2.60897e-05
1.3134e-05
-2.718e-05
1.17009e-05
1.02711e-05
1.2724e-06
3.46794e-05
5.34784e-07
4.51139e-05
-6.31182e-07
4.53312e-05
-1.97873e-06
4.33786e-05
-3.36016e-06
4.06924e-05
-4.71376e-06
3.79826e-05
-6.0134e-06
3.55651e-05
-7.25553e-06
3.35022e-05
-8.44841e-06
3.17299e-05
-9.60315e-06
3.01592e-05
-1.07298e-05
2.87167e-05
-1.18359e-05
2.73518e-05
-1.29267e-05
2.60332e-05
-1.40055e-05
2.47405e-05
-1.50748e-05
2.34594e-05
-1.61358e-05
2.21794e-05
-1.71892e-05
2.0892e-05
-1.82352e-05
1.95903e-05
-1.9273e-05
1.82687e-05
-2.03005e-05
1.69217e-05
-2.13146e-05
1.55441e-05
-2.23096e-05
1.4129e-05
-2.3276e-05
1.26674e-05
1.11843e-05
1.01331e-06
3.48141e-05
6.47073e-07
4.54801e-05
-1.62368e-07
4.61406e-05
-1.19137e-06
4.44076e-05
-2.3009e-06
4.1802e-05
-3.41912e-06
3.91008e-05
-4.50961e-06
3.66556e-05
-5.55962e-06
3.45522e-05
-6.57087e-06
3.27411e-05
-7.55059e-06
3.1139e-05
-8.50669e-06
2.96728e-05
-9.44571e-06
2.82908e-05
-1.03724e-05
2.69598e-05
-1.12899e-05
2.5658e-05
-1.22004e-05
2.437e-05
-1.31055e-05
2.30844e-05
-1.40059e-05
2.17924e-05
-1.49021e-05
2.04865e-05
-1.57936e-05
1.91602e-05
-1.66792e-05
1.78073e-05
-1.7556e-05
1.64208e-05
-1.84187e-05
1.49917e-05
-1.9257e-05
1.35056e-05
1.19697e-05
9.16238e-07
3.48425e-05
8.63737e-07
4.55326e-05
3.74571e-07
4.66298e-05
-3.54398e-07
4.51366e-05
-1.19783e-06
4.26454e-05
-2.08326e-06
3.99862e-05
-2.96379e-06
3.75361e-05
-3.81984e-06
3.54083e-05
-4.6473e-06
3.35686e-05
-5.4498e-06
3.19415e-05
-6.23319e-06
3.04562e-05
-7.00294e-06
2.90606e-05
-7.76318e-06
2.77201e-05
-8.51682e-06
2.64116e-05
-9.26588e-06
2.5119e-05
-1.00117e-05
2.38303e-05
-1.07553e-05
2.2536e-05
-1.14971e-05
2.12283e-05
-1.22372e-05
1.99003e-05
-1.29749e-05
1.85449e-05
-1.37083e-05
1.71543e-05
-1.44334e-05
1.57168e-05
-1.5139e-05
1.42112e-05
1.2624e-05
9.39249e-07
3.47126e-05
1.16612e-06
4.53057e-05
9.77864e-07
4.6818e-05
5.38569e-07
4.55759e-05
-5.3659e-08
4.32376e-05
-7.05932e-07
4.06385e-05
-1.37644e-06
3.82066e-05
-2.03858e-06
3.60704e-05
-2.68166e-06
3.42116e-05
-3.30636e-06
3.25662e-05
-3.91657e-06
3.10664e-05
-4.51662e-06
2.96606e-05
-5.11004e-06
2.83135e-05
-5.69934e-06
2.70009e-05
-6.28624e-06
2.57059e-05
-6.87183e-06
2.44159e-05
-7.45679e-06
2.3121e-05
-8.04146e-06
2.1813e-05
-8.62589e-06
2.04847e-05
-9.20981e-06
1.91288e-05
-9.79262e-06
1.77371e-05
-1.03725e-05
1.62967e-05
-1.094e-05
1.47788e-05
1.31431e-05
1.04594e-06
3.4383e-05
1.53796e-06
4.48137e-05
1.63972e-06
4.67163e-05
1.48644e-06
4.57292e-05
1.14396e-06
4.35801e-05
7.13168e-07
4.10693e-05
2.47576e-07
3.86722e-05
-2.19338e-07
3.65373e-05
-6.78312e-07
3.46706e-05
-1.12598e-06
3.30138e-05
-1.56399e-06
3.15044e-05
-1.99561e-06
3.00923e-05
-2.42379e-06
2.87417e-05
-2.85066e-06
2.74278e-05
-3.2776e-06
2.61328e-05
-3.70526e-06
2.48435e-05
-4.13376e-06
2.35495e-05
-4.56275e-06
2.2242e-05
-4.99147e-06
2.09134e-05
-5.4187e-06
1.95561e-05
-5.84315e-06
1.81616e-05
-6.26535e-06
1.67188e-05
-6.68676e-06
1.52002e-05
1.35205e-05
1.20723e-06
3.3824e-05
1.96356e-06
4.40574e-05
2.34899e-06
4.63308e-05
2.47275e-06
4.56054e-05
2.37701e-06
4.36758e-05
2.17221e-06
4.12741e-05
1.91348e-06
3.89309e-05
1.636e-06
3.68148e-05
1.35844e-06
3.49482e-05
1.08593e-06
3.32863e-05
8.17975e-07
3.17724e-05
5.52159e-07
3.03581e-05
2.85962e-07
2.90079e-05
1.73572e-08
2.76964e-05
-2.54889e-07
2.64051e-05
-5.31264e-07
2.51199e-05
-8.11487e-07
2.38297e-05
-1.09451e-06
2.2525e-05
-1.37845e-06
2.11974e-05
-1.6602e-06
1.98378e-05
-1.93376e-06
1.84351e-05
-2.18846e-06
1.69735e-05
-2.4194e-06
1.54311e-05
1.37745e-05
1.39974e-06
3.30162e-05
2.42452e-06
4.30326e-05
3.09458e-06
4.56608e-05
3.48879e-06
4.52112e-05
3.64296e-06
4.35217e-05
3.66168e-06
4.12554e-05
3.60726e-06
3.89853e-05
3.52064e-06
3.69014e-05
3.42357e-06
3.50452e-05
3.3243e-06
3.33856e-05
3.22399e-06
3.18727e-05
3.12095e-06
3.04611e-05
3.01281e-06
2.9116e-05
2.89746e-06
2.78117e-05
2.77333e-06
2.65292e-05
2.63954e-06
2.52537e-05
2.49605e-06
2.39732e-05
2.34377e-06
2.26773e-05
2.18473e-06
2.13564e-05
2.02261e-06
1.99999e-05
1.86435e-06
1.85934e-05
1.72254e-06
1.71154e-05
1.60777e-06
1.55459e-05
1.39133e-05
1.60341e-06
3.1948e-05
2.90308e-06
4.17329e-05
3.86297e-06
4.47009e-05
4.52277e-06
4.45514e-05
4.9325e-06
4.31119e-05
5.17608e-06
4.10118e-05
5.32673e-06
3.88347e-05
5.43014e-06
3.6798e-05
5.5124e-06
3.4963e-05
5.58473e-06
3.33133e-05
5.65002e-06
3.18074e-05
5.70737e-06
3.04038e-05
5.75464e-06
2.90687e-05
5.78959e-06
2.77768e-05
5.81039e-06
2.65084e-05
5.81596e-06
2.52481e-05
5.80626e-06
2.39829e-05
5.7828e-06
2.27008e-05
5.7492e-06
2.139e-05
5.71181e-06
2.00373e-05
5.67901e-06
1.86262e-05
5.65702e-06
1.71373e-05
5.64807e-06
1.55549e-05
1.38667e-05
1.79993e-06
3.06142e-05
3.38087e-06
4.0152e-05
4.63919e-06
4.34426e-05
5.56299e-06
4.36276e-05
6.23334e-06
4.24416e-05
6.70678e-06
4.05384e-05
7.06497e-06
3.84765e-05
7.35907e-06
3.65039e-05
7.62027e-06
3.47018e-05
7.86331e-06
3.30702e-05
8.09314e-06
3.15776e-05
8.30995e-06
3.01869e-05
8.51211e-06
2.88666e-05
8.69765e-06
2.75912e-05
8.86502e-06
2.63411e-05
9.01354e-06
2.50996e-05
9.14387e-06
2.38525e-05
9.25841e-06
2.25862e-05
9.36174e-06
2.12867e-05
9.46045e-06
1.99386e-05
9.56199e-06
1.85247e-05
9.67292e-06
1.70264e-05
9.80052e-06
1.54273e-05
1.37113e-05
1.97157e-06
2.90161e-05
3.83833e-06
3.82852e-05
5.39739e-06
4.18835e-05
6.60098e-06
4.2424e-05
7.53757e-06
4.1505e-05
8.2452e-06
3.98307e-05
8.8141e-06
3.79076e-05
9.30088e-06
3.60171e-05
9.74181e-06
3.42608e-05
1.01557e-05
3.26564e-05
1.05501e-05
3.11832e-05
1.09266e-05
2.98104e-05
1.12846e-05
2.85086e-05
1.16226e-05
2.72532e-05
1.19396e-05
2.60241e-05
1.22354e-05
2.48038e-05
1.25112e-05
2.35768e-05
1.27695e-05
2.23279e-05
1.30146e-05
2.10416e-05
1.32517e-05
1.97015e-05
1.34867e-05
1.82897e-05
1.37248e-05
1.67883e-05
1.39725e-05
1.51795e-05
1.34445e-05
2.10095e-06
2.71611e-05
4.2565e-06
3.61297e-05
6.12426e-06
4.00158e-05
7.62364e-06
4.09246e-05
8.82341e-06
4.03052e-05
9.77719e-06
3.8877e-05
1.05637e-05
3.71211e-05
1.12473e-05
3.53336e-05
1.18703e-05
3.36379e-05
1.24563e-05
3.20704e-05
1.30162e-05
3.06233e-05
1.35536e-05
2.9273e-05
1.4069e-05
2.79932e-05
1.45617e-05
2.67606e-05
1.5031e-05
2.55547e-05