/*--------------------------------*- C++ -*----------------------------------*\
  =========                 |
  \\      /  F ield         | OpenFOAM: The Open Source CFD Toolbox
   \\    /   O peration     | Website:  https://openfoam.org
    \\  /    A nd           | Version:  11
     \\/     M anipulation  |
\*---------------------------------------------------------------------------*/
FoamFile
{
    format      ascii;
    class       volScalarField;
    location    "1.06";
    object      epsilon;
}
// * * * * * * * * * * * * * * * * * * * * * * * * * * * * * * * * * * * * * //

dimensions      [0 2 -3 0 0 0 0];

internalField   nonuniform List<scalar> 
2880
(
2.14246
1.88493
2.6355
4.55052
5.83325
26.6952
0.903353
1.29339
2.29692
3.9024
5.51094
7.4221
0.240662
1.37392
2.35419
3.38612
3.93733
3.59424
0.262604
1.49838
2.33639
2.83574
2.81735
1.98461
1.19527
1.60502
2.21751
2.42223
2.08429
1.25086
1.43194
1.65861
2.07417
2.0966
1.60634
0.878768
1.68033
1.67362
1.95225
1.83549
1.29125
0.674397
1.91196
1.67721
1.85046
1.63449
1.08302
0.557182
2.10527
1.67964
1.76997
1.48747
0.949883
0.489459
2.25028
1.6862
1.71217
1.38786
0.871211
0.454881
2.3429
1.69963
1.67762
1.33039
0.834623
0.44653
2.38234
1.72006
1.66736
1.31164
0.832727
0.457405
2.37476
1.74648
1.67625
1.32198
0.859757
0.493348
2.32665
1.77807
1.70724
1.36746
0.920668
0.553706
2.27047
1.81341
1.75747
1.44757
1.01564
0.643306
2.19739
1.84612
1.82211
1.55987
1.14845
0.769689
2.09343
1.86841
1.89698
1.70194
1.32444
0.943167
1.9465
1.87247
1.98142
1.86671
1.55124
1.17793
1.7449
1.8551
2.07776
2.05388
1.83491
1.49409
1.479
1.81756
2.18728
2.27864
2.17349
1.91867
1.19079
1.78422
2.335
2.56209
2.57397
2.47756
0.25583
1.80271
2.60561
2.95812
3.10662
3.31296
0.967148
2.16499
3.31385
3.7771
4.03765
5.41245
2.24302
4.62598
6.67504
6.8513
6.5195
26.3381
2.37253
0.68972
0.236685
0.0915849
0.0404807
0.0201669
0.0110489
0.00653976
0.00410082
0.00269018
0.00184161
0.00131741
0.000988215
0.000779148
0.000645377
0.000559181
0.000503017
0.000465711
0.000440189
0.000421948
0.000408094
0.000397032
0.000388183
0.000381034
1.675
0.523457
0.188408
0.0758408
0.0347635
0.0179226
0.0101333
0.00617749
0.00396722
0.00265875
0.00185318
0.00134632
0.00102205
0.00081217
0.000675119
0.000584808
0.00052452
0.000483471
0.000454698
0.000433639
0.000417254
0.000403851
0.000392745
0.000383855
1.08188
0.377581
0.145174
0.0618068
0.0297543
0.0160012
0.00940023
0.00590862
0.00389115
0.00266251
0.00188979
0.00139329
0.00106935
0.00085552
0.000712984
0.000616951
0.000551325
0.00050558
0.000472791
0.000448275
0.000428774
0.000412422
0.000398459
0.000387481
0.723284
0.273571
0.111744
0.0505457
0.0257014
0.014478
0.00886053
0.00574208
0.00387674
0.00270792
0.00195536
0.0014614
0.00113263
0.000911335
0.000760817
0.000657224
0.000584846
0.000533259
0.00049548
0.000466638
0.0004432
0.00042317
0.000405956
0.000392291
0.509342
0.203462
0.0877246
0.0421308
0.0226466
0.0133953
0.00852454
0.00569039
0.0039332
0.00280165
0.00205533
0.00155501
0.00121547
0.000982602
0.000821157
0.000707816
0.000626972
0.000568127
0.000524133
0.000489877
0.00046153
0.000437017
0.00041599
0.000398792
0.37951
0.157374
0.0712379
0.0362232
0.0205433
0.0127455
0.00840341
0.0057648
0.00407287
0.00295299
0.00219708
0.00168004
0.00132268
0.00107327
0.000897313
0.000771527
0.000680098
0.000612245
0.00056053
0.00051953
0.000485078
0.00045501
0.000429228
0.000407363
0.299424
0.127762
0.0604715
0.0324133
0.0193379
0.0125182
0.00851417
0.00598479
0.00431105
0.00317436
0.00239049
0.00184436
0.0014606
0.00118853
0.00099357
0.000851957
0.000747294
0.000668263
0.00060697
0.000557571
0.000515468
0.000478364
0.000446478
0.000418432
0.250436
0.109627
0.0540825
0.0303832
0.0189795
0.0127045
0.00888281
0.00637603
0.00466893
0.00348257
0.00264881
0.00205847
0.00163762
0.00133517
0.00111553
0.000953805
0.000832563
0.000739641
0.000666463
0.000606589
0.000554842
0.000508709
0.000468855
0.000432584
0.222383
0.0999334
0.0512184
0.0299605
0.0193674
0.0133708
0.00955517
0.00697578
0.00517598
0.00390063
0.00298997
0.00233644
0.00186492
0.00152223
0.0012706
0.00108324
0.000941146
0.000830899
0.000742937
0.000669983
0.000606052
0.000548276
0.000497918
0.000450618
0.209851
0.097145
0.0513038
0.0309521
0.0206717
0.0145854
0.0105985
0.00783753
0.0058735
0.00446024
0.00343844
0.00269734
0.00215757
0.00176176
0.00146861
0.00124842
0.00107993
0.000947942
0.000841518
0.0007522
0.000672882
0.000600087
0.000535816
0.000473607
0.209729
0.0993747
0.0542918
0.0337371
0.0229989
0.0164782
0.0121142
0.00903855
0.00681989
0.00520568
0.00402804
0.00316732
0.00253603
0.00207008
0.00172275
0.00146022
0.00125802
0.00109854
0.000968918
0.000859071
0.000760329
0.000668213
0.00058549
0.000502993
0.221385
0.108487
0.0607774
0.0385305
0.0266167
0.0192519
0.0142534
0.0106909
0.00809863
0.00619952
0.00480615
0.00378269
0.00302858
0.00246952
0.002051
0.00173333
0.00148767
0.00129306
0.00113403
0.000998299
0.000875028
0.000758127
0.000650963
0.000540663
0.24709
0.124899
0.0714663
0.045924
0.0319539
0.023216
0.0172405
0.0129587
0.00983043
0.00753143
0.00584012
0.00459472
0.00367484
0.00299122
0.00247824
0.00208801
0.00178562
0.00154557
0.00134886
0.00118024
0.00102592
0.000877306
0.000737798
0.000589028
0.289444
0.150888
0.0878335
0.0568929
0.0396804
0.0288411
0.0214116
0.0160846
0.0121924
0.00933187
0.00722725
0.00567701
0.00453138
0.00367943
0.00303973
0.00255285
0.00217547
0.00187585
0.00163023
0.00141935
0.00122551
0.00103637
0.000854023
0.000651113
0.35337
0.190085
0.112241
0.0729736
0.0508302
0.036844
0.0272737
0.0204322
0.0154479
0.0117938
0.00911058
0.00713717
0.00568057
0.00459844
0.00378669
0.00316954
0.00269185
0.00231318
0.0020032
0.00173727
0.00149266
0.00125173
0.00101255
0.000731114
0.446392
0.247988
0.148308
0.0965362
0.0669919
0.0483203
0.0355985
0.0265527
0.0199947
0.0152071
0.011704
0.00913536
0.0072446
0.0058436
0.00479544
0.00400091
0.00338796
0.00290382
0.0025088
0.00217082
0.00186061
0.00155372
0.00123909
0.000838918
0.579429
0.332758
0.201491
0.131184
0.090592
0.0649473
0.0475689
0.0352909
0.0264418
0.0200144
0.0153326
0.011914
0.0094078
0.00755864
0.00618169
0.0051437
0.00434838
0.0037253
0.00322153
0.0027945
0.00240605
0.00202115
0.00160893
0.00104441
0.767648
0.455995
0.279746
0.18227
0.125287
0.0892782
0.0649991
0.0479498
0.0357308
0.0269002
0.0204979
0.0158452
0.0124515
0.00996175
0.0081206
0.00674514
0.00570437
0.00490375
0.00427388
0.00376157
0.00332173
0.00291326
0.00253135
0.00236677
1.03117
0.6333
0.394105
0.257449
0.176438
0.125134
0.0906494
0.0665374
0.0493259
0.0369336
0.0279835
0.0215077
0.0168087
0.0133836
0.0108718
0.00901694
0.00763814
0.00660914
0.00584441
0.00528911
0.00490926
0.00469171
0.00470383
0.00522096
1.39753
0.884625
0.558851
0.367009
0.251529
0.17803
0.128621
0.0941087
0.069495
0.0517898
0.0390231
0.0298108
0.0231537
0.0183293
0.0148191
0.0122563
0.0103852
0.00903306
0.00809014
0.00749454
0.00721743
0.00726581
0.00772263
0.00875777
1.92018
1.23562
0.790924
0.523509
0.360189
0.255437
0.184727
0.135165
0.0996851
0.0740743
0.0555634
0.0421984
0.032555
0.0255915
0.0205548
0.0169109
0.0142901
0.0124468
0.0112293
0.010553
0.0103747
0.010667
0.0115323
0.0130158
2.66875
1.71134
1.10573
0.739384
0.512989
0.366346
0.266522
0.195935
0.144916
0.107734
0.0806394
0.0609634
0.0467245
0.0364412
0.0290222
0.0236837
0.0198808
0.0172515
0.0155702
0.0147024
0.0145674
0.0150652
0.0163196
0.0182629
3.74873
2.31167
1.50321
1.02003
0.717772
0.519303
0.382368
0.28411
0.211925
0.158422
0.118818
0.0896805
0.0683948
0.0529342
0.0417536
0.0337125
0.0280021
0.0240758
0.0215822
0.0202957
0.0200674
0.0206965
0.0223089
0.0247591
6.45422
3.48561
2.09746
1.39206
0.983698
0.721181
0.539625
0.407555
0.308552
0.233431
0.17648
0.133658
0.101807
0.0783592
0.0612468
0.0488688
0.0400447
0.0339484
0.0300267
0.0279017
0.0273079
0.0279333
0.0298228
0.032841
1.94748
2.50345
3.0263
3.1358
2.78649
2.78489
0.865978
1.08776
1.37423
1.50679
1.50978
1.78014
0.232585
0.839665
1.08668
1.18768
1.24627
1.48772
0.255075
0.803166
1.01218
1.09931
1.17042
1.36751
0.270368
0.836079
1.00118
1.08277
1.15855
1.32474
1.18586
0.915363
1.01896
1.09873
1.17957
1.32278
1.2811
0.986026
1.05125
1.13256
1.21951
1.34968
1.4122
1.03826
1.0889
1.17578
1.2702
1.39487
1.52706
1.07655
1.12789
1.22403
1.32718
1.45087
1.62039
1.10454
1.16705
1.27516
1.38769
1.51295
1.69095
1.12554
1.20644
1.32816
1.44995
1.57765
1.73942
1.14241
1.24653
1.38264
1.51289
1.64249
1.76833
1.15777
1.28783
1.43875
1.5761
1.70591
1.76792
1.17107
1.33112
1.49716
1.6399
1.76739
1.73482
1.18203
1.37745
1.55918
1.70559
1.82765
1.66856
1.19076
1.42825
1.62707
1.77586
1.88907
1.57048
1.1977
1.48557
1.70452
1.85554
1.95634
1.44363
1.20367
1.55252
1.79759
1.95298
2.03685
1.29511
1.21003
1.63414
1.91646
2.07959
2.14838
1.18637
1.21917
1.73926
2.07749
2.26198
2.32489
0.263137
1.23549
1.88611
2.31401
2.55235
2.63993
0.239165
1.28664
2.12469
2.7065
3.06309
3.30791
0.878585
1.46007
2.65382
3.53912
4.08212
5.35674
1.92978
2.36747
4.52785
6.25805
6.64109
26.5018
5.58095
4.37654
2.7267
1.82766
1.3031
0.96987
0.740053
0.570953
0.441452
0.340385
0.261327
0.200008
0.153101
0.117751
0.0914781
0.0722094
0.0583135
0.0485837
0.0421692
0.0384577
0.0369895
0.0373647
0.0393396
0.0429783
4.908
4.82064
3.65509
2.4082
1.69958
1.2684
0.980854
0.772859
0.612348
0.484007
0.380143
0.29645
0.229952
0.178075
0.138365
0.108526
0.0865519
0.0708284
0.0601305
0.0535318
0.0502759
0.0498795
0.0516594
0.0558217
3.27539
4.88315
4.45918
3.29882
2.2858
1.66572
1.27765
1.01364
0.818075
0.662925
0.534867
0.427968
0.339339
0.267104
0.209494
0.164594
0.130442
0.105223
0.0874039
0.0757404
0.0691259
0.0667843
0.0680087
0.0723989
2.31334
4.31066
4.68162
4.22102
3.20159
2.31136
1.7157
1.33094
1.06908
0.875659
0.721881
0.593182
0.483358
0.389968
0.311876
0.248092
0.197377
0.158289
0.12937
0.109273
0.0966711
0.0903994
0.0902026
0.0942117
1.90386
3.36694
4.429
4.48622
4.08966
3.24862
2.44377
1.8437
1.43281
1.15162
0.94802
0.789528
0.658183
0.545324
0.447648
0.364092
0.294207
0.237463
0.193109
0.160235
0.137788
0.124542
0.120332
0.123661
1.72316
2.71492
3.79764
4.37802
4.37177
4.05183
3.36836
2.64341
2.03801
1.58659
1.26727
1.03919
0.867439
0.72947
0.612589
0.511038
0.422825
0.34752
0.285132
0.235655
0.198887
0.174363
0.16232
0.163701
1.65393
2.34338
3.22435
3.96848
4.33223
4.31923
4.06662
3.51936
2.87793
2.28069
1.79068
1.42198
1.155
0.959016
0.807879
0.684243
0.57849
0.486451
0.406882
0.339877
0.285955
0.245875
0.22119
0.217798
1.64145
2.15143
2.83364
3.5212
4.05025
4.30768
4.29918
4.10678
3.67508
3.11644
2.54576
2.03272
1.61611
1.30089
1.06914
0.895984
0.760471
0.648656
0.55299
0.470376
0.400124
0.342934
0.301707
0.289168
1.66377
2.06565
2.59845
3.17947
3.70563
4.09555
4.29287
4.29089
4.14692
3.80867
3.33077
2.80293
2.28897
1.8387
1.47666
1.20196
0.99778
0.843348
0.721486
0.620938
0.535737
0.463326
0.404261
0.378833
1.70605
2.03755
2.46639
2.94631
3.4152
3.81782
4.11132
4.26739
4.27183
4.16379
3.89896
3.49703
3.02379
2.53155
2.06977
1.674
1.35833
1.11798
0.937566
0.799796
0.690848
0.601695
0.525002
0.483957
1.75777
2.03866
2.39252
2.78845
3.18831
3.5563
3.86363
4.08737
4.21019
4.21953
4.13767
3.9296
3.59703
3.18616
2.73555
2.28786
1.88008
1.53559
1.26121
1.05051
0.890538
0.767732
0.665657
0.603092
1.81201
2.05336
2.34619
2.6715
3.00352
3.3194
3.60124
3.83414
4.00496
4.10146
4.11352
4.05133
3.88875
3.62071
3.27625
2.8834
2.47365
2.07939
1.72645
1.42924
1.19045
1.00538
0.857114
0.753913
1.86407
2.06947
2.30834
2.5701
2.83738
3.09555
3.33419
3.54474
3.71911
3.84886
3.92495
3.93875
3.89211
3.76713
3.56094
3.28901
2.96502
2.61119
2.25461
1.91763
1.61684
1.36059
1.14881
0.985597
1.91127
2.07968
2.26696
2.46923
2.67484
2.875
3.06392
3.23716
3.39049
3.51904
3.61672
3.67655
3.69129
3.65855
3.56722
3.41303
3.2089
2.96347
2.6841
2.38583
2.08642
1.8017
1.54791
1.34038
1.95267
2.0805
2.21648
2.36235
2.51065
2.65657
2.79689
2.92931
3.05148
3.16052
3.25274
3.3236
3.3673
3.37998
3.35752
3.29382
3.18491
3.03464
2.85069
2.64164
2.41709
2.18334
1.95921
1.77332
1.9889
2.07131
2.15588
2.24933
2.34706
2.4466
2.54582
2.64286
2.73532
2.82014
2.89473
2.95587
3.00009
3.02358
3.02677
3.0043
2.95388
2.87456
2.76729
2.63425
2.4811
2.31979
2.16922
2.04763
2.02197
2.0527
2.0869
2.1338
2.18999
2.25435
2.32453
2.39805
2.47152
2.53928
2.59897
2.6466
2.67714
2.6915
2.68974
2.66911
2.63083
2.57595
2.50532
2.42017
2.32385
2.22337
2.12939
2.03576
2.05609
2.02617
2.01252
2.02051
2.04565
2.08779
2.14351
2.20932
2.2815
2.35717
2.42697
2.48046
2.51019
2.52025
2.50588
2.46835
2.4114
2.33907
2.25587
2.16473
2.06959
1.97677
1.89158
1.79505
2.09752
1.99415
1.93444
1.91445
1.91926
1.95294
2.00961
2.08641
2.18071
2.27961
2.3676
2.43408
2.47176
2.48505
2.46852
2.42617
2.36045
2.27716
2.18151
2.07883
1.97324
1.8685
1.76579
1.66021
2.15302
1.96012
1.85647
1.81784
1.81453
1.85263
1.92506
2.02836
2.14771
2.27063
2.38324
2.47155
2.52363
2.54033
2.51556
2.45822
2.38063
2.28902
2.18753
2.0808
1.97308
1.86656
1.75879
1.65377
2.23417
1.92736
1.78284
1.73422
1.73475
1.79021
1.88957
2.0247
2.18458
2.34812
2.48814
2.57815
2.61049
2.58776
2.53858
2.46225
2.36595
2.25701
2.14266
2.02847
1.91816
1.81269
1.71023
1.61402
2.36012
1.89907
1.71914
1.66938
1.68877
1.77539
1.91752
2.10689
2.32003
2.516
2.64626
2.69189
2.64098
2.54896
2.41746
2.27047
2.12081
1.9749
1.83601
1.70714
1.58994
1.48366
1.39134
1.30512
2.55686
1.87784
1.67489
1.63732
1.69436
1.831
2.0404
2.30221
2.56926
2.76691
2.84669
2.77478
2.58189
2.32971
2.07458
1.8414
1.63623
1.45579
1.29432
1.15304
1.03025
0.921376
0.831054
0.739963
2.88032
1.86924
1.66816
1.65896
1.77095
1.9865
2.28633
2.62708
2.92323
3.08018
3.05751
2.81444
2.43246
2.05107
1.71879
1.44764
1.22867
1.0493
0.903517
0.779352
0.671913
0.578194
0.497943
0.430444
1.79199
1.75177
2.92255
4.16338
5.25993
6.20068
0.839218
1.11126
1.89643
2.80371
4.06349
5.20488
0.227969
1.06207
1.72995
2.44177
3.25322
3.66264
0.252403
1.07846
1.66579
2.23621
2.74368
2.92888
0.269639
1.09971
1.61207
2.06662
2.42622
2.57201
1.18661
1.11873
1.5548
1.92075
2.21093
2.38552
1.25611
1.12557
1.49432
1.79794
2.05279
2.27237
1.34606
1.1234
1.43256
1.69055
1.92932
2.19687
1.41917
1.1142
1.37091
1.59378
1.82626
2.1427
1.4689
1.09926
1.31015
1.50436
1.73553
2.10259
1.49317
1.07993
1.25067
1.42012
1.65243
2.07394
1.49208
1.05692
1.19262
1.33971
1.57424
2.05636
1.46546
1.03067
1.13605
1.26232
1.4994
2.05071
1.41621
1.00137
1.08081
1.1876
1.42723
2.0583
1.35374
0.968762
1.02648
1.11563
1.35714
2.08111
1.27916
0.927626
0.97241
1.04642
1.28859
2.12131
1.19935
0.868256
0.917512
0.979983
1.22121
2.17661
0.28073
0.770723
0.862051
0.916677
1.15488
2.23931
0.273561
0.692724
0.809351
0.857953
1.08945
2.29566
0.261143
0.634485
0.765418
0.80771
1.02608
2.3399
0.24358
0.604857
0.740902
0.775675
0.969909
2.37712
0.220929
0.628811
0.7585
0.786015
0.938445
2.43172
0.820931
0.826154
0.905989
0.916004
0.992706
2.5842
1.86756
1.94263
1.9426
1.81158
1.57135
2.4851
2.74271
1.88238
1.71466
1.76017
1.95716
2.27613
2.67784
3.08102
3.35321
3.39857
3.19566
2.7481
2.24387
1.81046
1.4729
1.21829
1.02302
0.86666
0.735617
0.623115
0.52572
0.441659
0.370629
0.320265
2.60708
1.9516
1.84792
1.98091
2.28797
2.72562
3.22207
3.63831
3.79933
3.67199
3.2337
2.59292
2.02005
1.58707
1.27568
1.04932
0.877912
0.73928
0.622624
0.523247
0.438653
0.367348
0.309399
0.271307
2.47872
2.09204
2.08916
2.34025
2.781
3.34555
3.89836
4.23099
4.17832
3.7834
3.03568
2.30816
1.74839
1.36047
1.08844
0.887922
0.732921
0.607106
0.503273
0.41779
0.348194
0.293148
0.253018
0.231157
2.43677
2.2853
2.43264
2.83853
3.44046
4.1151
4.62985
4.70532
4.34879
3.56906
2.67569
1.96401
1.47815
1.15269
0.921036
0.746852
0.608642
0.496263
0.40525
0.332577
0.276112
0.234652
0.207881
0.195763
2.44967
2.524
2.8671
3.47513
4.25079
4.95603
5.22927
4.92491
4.16476
3.10125
2.22176
1.62595
1.23973
0.973944
0.776779
0.623006
0.500561
0.403386
0.32724
0.26881
0.225596
0.195867
0.178302
0.171471
2.49002
2.80207
3.38903
4.24243
5.15829
5.69575
5.49313
4.82379
3.59477
2.53341
1.81429
1.35646
1.04745
0.821245
0.64675
0.510012
0.403597
0.32195
0.260525
0.215606
0.184252
0.164134
0.153446
0.150215
2.55289
3.11711
4.00403
5.12224
6.03252
6.04981
5.49178
4.20051
2.92531
2.0555
1.50784
1.14397
0.881321
0.681802
0.528061
0.410257
0.321139
0.254904
0.206845
0.173184
0.1509
0.137596
0.131439
0.130345
2.6315
3.47989
4.72756
6.04982
6.55231
6.13714
4.91417
3.41482
2.36695
1.7081
1.27488
0.96602
0.734594
0.558691
0.425698
0.326457
0.253629
0.201251
0.164571
0.1399
0.124341
0.115757
0.112491
0.112583
2.72866
3.91443
5.56479
6.85023
6.7141
5.76887
4.05062
2.78022
1.97476
1.44998
1.08076
0.807877
0.603306
0.450762
0.338457
0.257028
0.198981
0.158462
0.130999
0.113214
0.102569
0.0972613
0.0958799
0.0965799
2.85278
4.45404
6.46879
7.19598
6.59936
4.92244
3.34324
2.33524
1.68742
1.2383
0.910581
0.667918
0.489299
0.359576
0.266729
0.201217
0.155719
0.124779
0.104408
0.0916806
0.084496
0.0813748
0.0811399
0.0821884
3.01552
5.1296
7.28334
7.24478
6.03432
4.1039
2.83138
2.01676
1.45813
1.05502
0.760013
0.545705
0.392324
0.284172
0.208855
0.156988
0.121751
0.0983037
0.0832447
0.0741577
0.0693612
0.0676647
0.0680414
0.0693301
3.22936
5.94688
7.66988
7.07084
5.18004
3.53487
2.47869
1.76567
1.25828
0.891101
0.627398
0.441165
0.311841
0.223186
0.162939
0.122298
0.095175
0.0774355
0.0662768
0.0597663
0.0565826
0.0557813
0.0564805
0.0578767
3.5054
6.83914
7.74357
6.59719
4.51463
3.12741
2.20069
1.54807
1.07938
0.745731
0.512864
0.353561
0.246223
0.174538
0.126849
0.095211
0.0743751
0.0609135
0.0525777
0.0478578
0.0457319
0.0454616
0.0463213
0.0476949
3.85881
7.62042
7.62725
5.98188
4.0835
2.83363
1.9682
1.35283
0.918383
0.618244
0.415658
0.281437
0.193509
0.136131
0.098636
0.0740807
0.0580519
0.0477658
0.0414511
0.0379499
0.0364834
0.0364852
0.0373831
0.0386841
4.31999
8.09911
7.49447
5.44179
3.74351
2.57894
1.75383
1.17315
0.774532
0.508315
0.334575
0.222907
0.151598
0.10599
0.0766224
0.0575719
0.0451944
0.037257
0.0323793
0.0296849
0.0285914
0.0286724
0.0295208
0.0307192
4.92238
8.3408
7.28839
5.08866
3.49014
2.35464
1.55562
1.00953
0.647939
0.414995
0.267875
0.175927
0.118519
0.0824218
0.0594508
0.0446474
0.0350383
0.028842
0.024984
0.0228031
0.0218722
0.0218964
0.022595
0.0236633
5.64807
8.46913
7.08337
4.87629
3.26849
2.13879
1.36834
0.861334
0.538043
0.336897
0.213663
0.138551
0.0925567
0.0640413
0.0460603
0.0345204
0.027014
0.0221196
0.0189932
0.0171281
0.0162108
0.0160448
0.016485
0.0173657
6.42734
8.58835
6.99543
4.69271
3.04617
1.92665
1.19313
0.729167
0.444015
0.272324
0.170017
0.109022
0.0722785
0.0497529
0.035643
0.0266057
0.020702
0.016795
0.0142107
0.0125447
0.0115483
0.0110725
0.0110768
0.0116064
7.29291
8.83245
6.98002
4.50299
2.81545
1.71915
1.03127
0.612849
0.36451
0.219453
0.135146
0.085832
0.0565207
0.0387027
0.0275891
0.0204714
0.0157951
0.0126498
0.0104896
0.00897634
0.00788516
0.00705134
0.00637146
0.00606514
8.49351
9.31591
6.96719
4.27896
2.57162
1.51729
0.883348
0.511573
0.297906
0.176488
0.107452
0.0677123
0.0443398
0.0302173
0.0214289
0.0157933
0.0120689
0.00952863
0.00773164
0.00639602
0.00532539
0.00436775
0.00339106
0.00193432
10.1595
10.0629
6.84772
3.9999
2.31524
1.32372
0.749926
0.42432
0.242567
0.141786
0.0855533
0.0536016
0.0349593
0.0237416
0.0167701
0.0122954
0.00932882
0.00729412
0.00584266
0.00475268
0.00387208
0.00308907
0.00230909
0.00128337
12.2741
10.8975
6.52787
3.66246
2.05181
1.14106
0.630921
0.349775
0.196871
0.113872
0.0682708
0.0426162
0.0277311
0.0187977
0.0132506
0.00969001
0.00732886
0.00570993
0.00455754
0.00369638
0.0030046
0.00239177
0.00179266
0.00106597
15.1852
11.3419
6.07217
3.27589
1.7859
0.970691
0.525784
0.286578
0.159348
0.0914825
0.0546325
0.0340405
0.0221313
0.0149921
0.01056
0.00771523
0.00582931
0.00453738
0.00361921
0.00293406
0.00238313
0.00189508
0.00142829
0.000901816
19.7113
11.3843
5.43471
2.84307
1.52436
0.814739
0.43411
0.233497
0.128717
0.0735665
0.0438569
0.0273157
0.0177591
0.0120291
0.00847003
0.00618475
0.0046698
0.00363244
0.00289568
0.00234608
0.00190415
0.00151526
0.00115446
0.000774914
2.58804
7.26765
10.1444
11.0058
10.7416
55.8338
0.996348
3.2268
4.72169
5.7349
8.42462
15.843
1.19396
2.42416
3.37654
4.2079
5.60303
8.50117
1.49962
2.14967
2.79723
3.47727
4.42244
5.7899
1.9007
2.03403
2.47334
3.01862
3.70408
4.43782
2.26148
1.97924
2.26404
2.69059
3.18972
3.60556
2.56767
1.945
2.11649
2.44032
2.79941
3.03206
2.8078
1.91493
2.00293
2.24189
2.49501
2.61223
2.97865
1.88038
1.90901
2.08155
2.25436
2.29469
3.08177
1.83825
1.82814
1.95135
2.06346
2.05026
3.12199
1.78929
1.75846
1.84656
1.91311
1.86195
3.10697
1.73658
1.70061
1.76435
1.79711
1.71868
3.04733
1.68434
1.65578
1.70339
1.7115
1.61295
2.94449
1.63522
1.62568
1.66478
1.65383
1.53995
2.7908
1.58963
1.61251
1.64928
1.62527
1.49793
2.58711
1.54854
1.61567
1.65585
1.62305
1.48649
2.33783
1.51349
1.63974
1.69001
1.65244
1.50736
2.04964
1.48548
1.68906
1.75807
1.72156
1.56999
1.73276
1.46547
1.77012
1.87153
1.84576
1.69264
1.40211
1.45552
1.89329
2.05212
2.0553
1.9167
1.19775
1.45487
2.07692
2.34493
2.41319
2.34483
0.255827
1.48677
2.36704
2.85001
3.06991
3.28727
0.956732
1.6805
2.95429
3.89337
4.39056
6.08314
2.17521
2.84159
4.81749
6.87155
7.0654
26.9045
23.6566
9.21545
4.48689
2.38657
1.27737
0.675266
0.355378
0.189379
0.103867
0.059259
0.0353281
0.0220158
0.0143187
0.00969809
0.00682525
0.00497971
0.00375642
0.00291938
0.00232576
0.00188404
0.00153063
0.00122407
0.000949177
0.000676706
11.8463
6.38665
3.5654
1.96799
1.05616
0.553863
0.288966
0.15315
0.0838412
0.0478557
0.0285652
0.0178193
0.0115935
0.00784952
0.0055194
0.00402235
0.0030309
0.00235384
0.00187535
0.00152134
0.00124082
0.00100202
0.000795316
0.000601186
7.53908
4.86523
2.88222
1.61669
0.865967
0.450956
0.234017
0.123777
0.0678071
0.0387812
0.0231925
0.0144833
0.00942387
0.00637586
0.00447769
0.00325898
0.00245352
0.00190549
0.00152047
0.00123817
0.0010175
0.000833814
0.000680495
0.000543513
5.48407
3.85299
2.34423
1.32254
0.705819
0.365646
0.189318
0.100197
0.0550295
0.0315645
0.0189162
0.0118231
0.00769084
0.0051978
0.00364543
0.00265047
0.00199519
0.00155185
0.001243
0.00101929
0.000847355
0.000707761
0.000595471
0.000499775
4.25859
3.09226
1.91086
1.07954
0.573869
0.296298
0.153431
0.0814054
0.0448742
0.0258231
0.0155058
0.00969667
0.00630377
0.00425521
0.00298095
0.00216666
0.00163308
0.00127482
0.00102796
0.000851818
0.000719107
0.000614222
0.000532924
0.000466721
3.43471
2.51491
1.56461
0.882271
0.467107
0.240742
0.124878
0.0664937
0.0368094
0.0212497
0.0127805
0.00799388
0.00519265
0.00350137
0.00245154
0.00178349
0.00134863
0.00105945
0.000862816
0.000724994
0.000623445
0.000545433
0.000487146
0.000441762
2.84132
2.07384
1.29002
0.724171
0.381795
0.196655
0.102273
0.0546825
0.0303998
0.0176
0.0105987
0.0066287
0.0043025
0.00289928
0.00203095
0.00148139
0.00112656
0.000893286
0.000737136
0.000629885
0.000552767
0.000495227
0.000453759
0.000422921
2.39758
1.73497
1.07328
0.598523
0.314163
0.16183
0.0844068
0.0453248
0.0252956
0.0146808
0.0088488
0.00553327
0.00358965
0.00241925
0.00169788
0.00124431
0.000954241
0.000766062
0.00064232
0.000559214
0.000500991
0.000458814
0.000429483
0.000408733
2.05991
1.47304
0.902559
0.49913
0.260757
0.134361
0.0702796
0.037891
0.0212192
0.0123398
0.00744287
0.00465375
0.00301917
0.00203728
0.001435
0.00105914
0.000821352
0.000669388
0.000571406
0.000507161
0.000463356
0.00043256
0.000411918
0.000398129
1.80175
1.26945
0.768147
0.42064
0.218623
0.112673
0.059081
0.0319647
0.0179522
0.0104573
0.00631138
0.00394725
0.00256298
0.00173397
0.00122821
0.000915189
0.000719521
0.000596506
0.000518835
0.000469157
0.000436215
0.00041377
0.000399322
0.000390319
1.60408
1.11096
0.66228
0.358625
0.185342
0.0954992
0.050169
0.0272193
0.0153237
0.00893912
0.0053992
0.00337949
0.00219849
0.00149363
0.00106611
0.000803865
0.000642034
0.000542039
0.00048024
0.000441677
0.000416828
0.000400474
0.000390438
0.0003847
1.45369
0.987778
0.578841
0.30951
0.159006
0.0818449
0.0430413
0.0234003
0.0131999
0.00771103
0.00466262
0.0029231
0.00190756
0.00130363
0.000939547
0.000718283
0.000583557
0.000501756
0.000452234
0.000422049
0.000403168
0.000391238
0.000384348
0.000380798
1.34146
0.892636
0.513063
0.270485
0.138113
0.0709319
0.0373069
0.0203095
0.0114762
0.00671457
0.00406693
0.00255621
0.00167569
0.0011539
0.000841223
0.00065298
0.000539881
0.000472352
0.000432224
0.000408273
0.000393734
0.000384983
0.000380384
0.000378224
1.26118
0.820139
0.461268
0.239432
0.121414
0.0621469
0.0326612
0.0177925
0.0100706
0.00590367
0.0035846
0.00226145
0.00149133
0.00103642
0.000765367
0.000603651
0.000507708
0.00045127
0.000418244
0.000398868
0.000387425
0.000380992
0.000377925
0.00037662
1.20898
0.766326
0.42059
0.214709
0.107977
0.0550156
0.0288673
0.0157289
0.00891883
0.00524192
0.00319384
0.00202505
0.00134538
0.000944915
0.000707483
0.000566967
0.000484507
0.000436577
0.000408843
0.00039278
0.000383519
0.000378662
0.000376492
0.000375673
1.18321
0.728355
0.388734
0.195126
0.0970823
0.0491676
0.0257395
0.0140245
0.00797024
0.00470056
0.00287737
0.00183611
0.00123067
0.000874492
0.000664115
0.000540404
0.0004684
0.000426873
0.000402988
0.000389249
0.000381445
0.000377526
0.000375835
0.000375222
1.18347
0.704282
0.36421
0.179465
0.0881344
0.0443088
0.0231316
0.0126048
0.00718482
0.00425674
0.00262145
0.00168601
0.00114155
0.00082133
0.000632581
0.000522023
0.00045796
0.00042111
0.000399906
0.000387698
0.000380806
0.000377302
0.000375721
0.000375118
1.21236
0.692778
0.345941
0.166789
0.0806493
0.0402023
0.020927
0.0114109
0.00653078
0.0038923
0.00241518
0.00156789
0.00107358
0.000782426
0.000610783
0.000510318
0.000452097
0.000418498
0.000399027
0.000387694
0.00038117
0.000377662
0.00037595
0.000375173
1.27529
0.692908
0.333209
0.156318
0.0742205
0.0366541
0.0190317
0.0103966
0.00598288
0.00359278
0.00224988
0.00147637
0.00102327
0.00075546
0.00059713
0.000504178
0.000450044
0.000418484
0.000399945
0.000388934
0.000382403
0.000378616
0.000376507
0.000375349
1.38207
0.705202
0.324244
0.147241
0.0684856
0.0335025
0.0173703
0.0095244
0.00552115
0.00334681
0.00211879
0.00140726
0.00098796
0.000738691
0.000590453
0.000502805
0.000451162
0.000420717
0.000402445
0.000391285
0.000384372
0.000380057
0.000377359
0.000375645
1.54869
0.730509
0.317477
0.138718
0.0631127
0.0306133
0.0158839
0.00876404
0.00513007
0.00314559
0.00201669
0.00135739
0.000965684
0.000730867
0.000589945
0.000505597
0.000455337
0.000425058
0.000406455
0.000394724
0.0003871
0.000381988
0.000378492
0.000376066
1.8003
0.767226
0.310239
0.129834
0.0577997
0.0278792
0.0145274
0.00809468
0.00479827
0.00298264
0.00193979
0.00132452
0.000955095
0.000731197
0.000595072
0.000512586
0.000462412
0.00043151
0.00041202
0.000399308
0.000390652
0.000384479
0.000379983
0.000376683
2.17737
0.800742
0.298157
0.119538
0.0522993
0.0252297
0.0132717
0.00750455
0.00451837
0.00285361
0.00188555
0.00130723
0.000955416
0.000739235
0.000605992
0.000523668
0.000472513
0.00044023
0.0004193
0.000405194
0.000395172
0.000387668
0.000381964
0.000377607
2.6589
0.792182
0.275502
0.106849
0.046485
0.0226441
0.0121086
0.00698629
0.00428628
0.00275623
0.00185308
0.00130493
0.000966443
0.000755221
0.000622659
0.000539081
0.000485924
0.00045151
0.000428578
0.000412638
0.000400891
0.000391762
0.000384615
0.000378985
)
;

boundaryField
{
    rotor
    {
        type            epsilonWallFunction;
        value           nonuniform List<scalar> 
144
(
2.14246
1.88493
2.6355
4.55052
5.83325
26.6952
2.14246
0.903353
0.240662
0.262604
1.19527
1.43194
1.68033
1.91196
2.10527
2.25028
2.3429
2.38234
2.37476
2.32665
2.27047
2.19739
2.09343
1.9465
1.7449
1.479
1.19079
0.25583
0.967148
2.24302
2.24302
4.62598
6.67504
6.8513
6.5195
26.3381
1.94748
2.50345
3.0263
3.1358
2.78649
2.78489
1.94748
0.865978
0.232585
0.255075
0.270368
1.18586
1.2811
1.4122
1.52706
1.62039
1.69095
1.73942
1.76833
1.76792
1.73482
1.66856
1.57048
1.44363
1.29511
1.18637
0.263137
0.239165
0.878585
1.92978
1.92978
2.36747
4.52785
6.25805
6.64109
26.5018
1.79199
1.75177
2.92255
4.16338
5.25993
6.20068
1.79199
0.839218
0.227969
0.252403
0.269639
1.18661
1.25611
1.34606
1.41917
1.4689
1.49317
1.49208
1.46546
1.41621
1.35374
1.27916
1.19935
0.28073
0.273561
0.261143
0.24358
0.220929
0.820931
1.86756
1.86756
1.94263
1.9426
1.81158
1.57135
2.4851
2.58804
7.26765
10.1444
11.0058
10.7416
55.8338
2.58804
0.996348
1.19396
1.49962
1.9007
2.26148
2.56767
2.8078
2.97865
3.08177
3.12199
3.10697
3.04733
2.94449
2.7908
2.58711
2.33783
2.04964
1.73276
1.40211
1.19775
0.255827
0.956732
2.17521
2.17521
2.84159
4.81749
6.87155
7.0654
26.9045
)
;
    }
    freestream
    {
        type            inletOutlet;
        inletValue      uniform 0.000375;
        value           nonuniform List<scalar> 
96
(
0.000375
0.000375
0.000375
0.000375
0.000375
0.000375
0.000375
0.000375
0.000375
0.000375
0.000375
0.000375
0.000375
0.000375
0.000375
0.000375
0.000375
0.00236677
0.00522096
0.00875777
0.0130158
0.0182629
0.0247591
0.032841
0.0429783
0.0558217
0.0723989
0.0942117
0.123661
0.163701
0.217798
0.289168
0.378833
0.483957
0.603092
0.753913
0.985597
1.34038
1.77332
2.04763
2.03576
1.79505
1.66021
1.65377
1.61402
1.30512
0.739963
0.430444
0.320265
0.271307
0.231157
0.195763
0.171471
0.150215
0.130345
0.112583
0.0965799
0.0821884
0.0693301
0.0578767
0.0476949
0.0386841
0.0307192
0.0236633
0.0173657
0.0116064
0.00606514
0.000375
0.000375
0.000375
0.000375
0.000375
0.000375
0.000375
0.000375
0.000375
0.000375
0.000375
0.000375
0.000375
0.000375
0.000375
0.000375
0.000375
0.000375
0.000375
0.000375
0.000375
0.000375
0.000375
0.000375
0.000375
0.000375
0.000375
0.000375
0.000375
)
;
    }
    frontAndBack
    {
        type            empty;
    }
}


// ************************************************************************* //
