/*--------------------------------*- C++ -*----------------------------------*\
  =========                 |
  \\      /  F ield         | OpenFOAM: The Open Source CFD Toolbox
   \\    /   O peration     | Website:  https://openfoam.org
    \\  /    A nd           | Version:  11
     \\/     M anipulation  |
\*---------------------------------------------------------------------------*/
FoamFile
{
    format      ascii;
    class       volVectorField;
    location    "1.06";
    object      U;
}
// * * * * * * * * * * * * * * * * * * * * * * * * * * * * * * * * * * * * * //

dimensions      [0 1 -1 0 0 0 0];

internalField   nonuniform List<vector> 
2880
(
(-0.025221 -0.0428144 9.57578e-19)
(-0.0424148 -0.0765827 -6.38199e-19)
(0.0273254 -0.0702514 -4.65259e-19)
(0.0813762 -0.0820159 -3.64424e-20)
(0.222806 -0.120039 -1.95922e-19)
(0.749976 -0.124119 4.36122e-20)
(-0.00884278 -0.0312899 0)
(0.017606 -0.0638964 1.26794e-18)
(0.14165 -0.0449078 -3.67884e-20)
(0.255661 -0.0485393 0)
(0.453534 -0.0454486 -2.47884e-19)
(0.788466 -0.0427268 0)
(0.00640334 -0.0248677 -7.39381e-19)
(0.0766274 -0.0556842 -6.38653e-19)
(0.23225 -0.0350835 4.63529e-19)
(0.381009 -0.0427204 0)
(0.596004 -0.0569633 2.41538e-19)
(0.851723 -0.105852 1.97746e-19)
(0.0213625 -0.0197585 6.93318e-19)
(0.130565 -0.0514661 0)
(0.304369 -0.0355523 0)
(0.472408 -0.0482495 -3.38803e-19)
(0.687914 -0.078312 -6.42661e-20)
(0.896245 -0.15183 -8.25313e-20)
(0.0403422 -0.0143109 0)
(0.180315 -0.0499808 0)
(0.362622 -0.0424127 -4.33713e-19)
(0.540656 -0.0601574 3.29418e-19)
(0.745353 -0.0991982 -6.78261e-20)
(0.915276 -0.174743 5.70715e-20)
(0.0671812 -0.00992318 0)
(0.223094 -0.0509016 5.44756e-19)
(0.409243 -0.0527306 8.49783e-19)
(0.591104 -0.0762665 -3.46688e-19)
(0.780747 -0.120348 -2.87035e-19)
(0.923085 -0.191428 -6.09814e-20)
(0.0917477 -0.00717342 1.39504e-20)
(0.257686 -0.0540645 -5.27346e-19)
(0.445977 -0.0652307 9.46952e-21)
(0.627036 -0.0948706 4.24151e-19)
(0.801486 -0.14173 1.36003e-19)
(0.924544 -0.206298 -1.00136e-21)
(0.111094 -0.00708297 0)
(0.284889 -0.0588856 -3.27265e-20)
(0.473934 -0.0793439 -8.1854e-19)
(0.651278 -0.11486 0)
(0.812232 -0.163232 -2.92501e-19)
(0.921866 -0.221068 0)
(0.127477 -0.00999188 2.78256e-20)
(0.305557 -0.0650868 -5.73235e-19)
(0.493933 -0.094641 3.91949e-19)
(0.666252 -0.135666 4.39857e-20)
(0.815949 -0.184898 2.86276e-19)
(0.916593 -0.236889 2.46741e-19)
(0.14067 -0.014766 2.81025e-20)
(0.320295 -0.0724023 4.65156e-19)
(0.506846 -0.110836 2.62802e-20)
(0.673876 -0.157028 4.33018e-20)
(0.814746 -0.206799 -3.66267e-20)
(0.909797 -0.254016 -2.43835e-19)
(0.15055 -0.0207026 2.84174e-20)
(0.329601 -0.080609 -1.6327e-20)
(0.513512 -0.127651 4.24265e-19)
(0.675549 -0.178729 -3.51944e-19)
(0.809898 -0.2292 -7.16057e-20)
(0.902115 -0.272769 1.86083e-21)
(0.157041 -0.0273537 2.87665e-20)
(0.333932 -0.0894958 -1.63506e-20)
(0.514663 -0.144825 -4.16812e-19)
(0.672341 -0.200671 -5.30679e-21)
(0.802303 -0.252346 0)
(0.893934 -0.293299 0)
(0.160095 -0.0344188 9.52503e-19)
(0.333747 -0.0988251 0)
(0.510968 -0.162011 0)
(0.664975 -0.222613 3.8423e-20)
(0.792437 -0.2761 -3.26001e-19)
(0.885349 -0.315592 -2.40514e-19)
(0.159695 -0.0416793 -9.68036e-19)
(0.329476 -0.108327 2.52042e-19)
(0.502924 -0.178861 2.62642e-20)
(0.653882 -0.244347 3.88253e-19)
(0.780475 -0.300511 7.14216e-20)
(0.876171 -0.339911 2.70268e-19)
(0.155922 -0.0488425 -4.63826e-19)
(0.3215 -0.117716 -5.51789e-19)
(0.490864 -0.195117 0)
(0.639166 -0.265867 2.12726e-20)
(0.76623 -0.325655 1.24614e-19)
(0.866082 -0.366446 0)
(0.148978 -0.0553713 4.87047e-19)
(0.310138 -0.12655 2.93432e-19)
(0.474979 -0.210408 -2.65329e-20)
(0.620735 -0.287025 -1.02211e-20)
(0.749317 -0.351533 1.83602e-20)
(0.854615 -0.395385 5.76781e-20)
(0.139156 -0.0603848 -3.80267e-21)
(0.295626 -0.134104 -8.89531e-21)
(0.455349 -0.224152 2.01145e-20)
(0.598331 -0.307449 -9.95905e-20)
(0.729141 -0.37807 0)
(0.841126 -0.426861 -4.43559e-20)
(0.126965 -0.0625304 0)
(0.278022 -0.139283 0)
(0.431866 -0.235538 0)
(0.571505 -0.32646 8.89871e-20)
(0.704838 -0.404952 8.91414e-21)
(0.824713 -0.460969 1.35113e-20)
(0.113201 -0.05984 -1.97218e-21)
(0.257076 -0.140551 1.17163e-21)
(0.404154 -0.243419 0)
(0.539591 -0.343084 0)
(0.675172 -0.431449 -9.03274e-21)
(0.803984 -0.498058 -5.4786e-21)
(0.0972651 -0.0499589 0)
(0.232089 -0.13592 0)
(0.37149 -0.246292 7.23004e-21)
(0.501499 -0.356311 7.73788e-20)
(0.638471 -0.456464 -6.34447e-20)
(0.776808 -0.538621 0)
(0.0740499 -0.0326156 -7.37438e-21)
(0.202147 -0.123063 2.07319e-20)
(0.332995 -0.242566 -2.66579e-19)
(0.455963 -0.364975 -2.74804e-19)
(0.59271 -0.478534 5.53862e-20)
(0.740577 -0.582477 -2.29155e-20)
(0.0610196 -0.0156726 4.46815e-19)
(0.167797 -0.10036 0)
(0.288444 -0.230438 2.34422e-19)
(0.402927 -0.36733 2.39168e-19)
(0.536309 -0.49521 0)
(0.693445 -0.62977 0)
(0.0491861 0.00328896 -9.95126e-19)
(0.129404 -0.0684781 0)
(0.238387 -0.205652 3.75329e-20)
(0.343733 -0.359967 2.6388e-20)
(0.468967 -0.500384 -4.79345e-20)
(0.624231 -0.690267 9.42212e-20)
(0.0270307 0.0318421 5.32491e-19)
(0.0800477 -0.0123137 -7.96866e-19)
(0.169404 -0.150125 -4.17135e-20)
(0.262794 -0.331083 6.41179e-20)
(0.366185 -0.474042 -4.16353e-19)
(0.518397 -0.773523 4.96974e-20)
(0.819444 -0.468439 1.50228e-20)
(0.849779 -0.391217 -1.07835e-19)
(0.8639 -0.33009 9.48304e-20)
(0.88563 -0.279119 4.12159e-19)
(0.903973 -0.241174 -3.63177e-19)
(0.920717 -0.211559 2.54125e-19)
(0.935525 -0.187672 0)
(0.948583 -0.167792 3.12287e-19)
(0.960077 -0.150833 9.78644e-20)
(0.970092 -0.136039 0)
(0.978727 -0.122864 0)
(0.98606 -0.110883 -1.56323e-19)
(0.99215 -0.0997622 2.25838e-19)
(0.997054 -0.0892462 0)
(1.00084 -0.0791727 -2.07961e-19)
(1.0036 -0.0694704 -1.31608e-19)
(1.00542 -0.0601369 6.69115e-20)
(1.00641 -0.0511931 3.14795e-19)
(1.00665 -0.0426363 6.12102e-20)
(1.00628 -0.0344064 5.90488e-20)
(1.00538 -0.02642 0)
(1.00356 -0.0188103 -1.07868e-19)
(0.999708 -0.0121812 2.12822e-19)
(0.995076 -0.00644607 2.70931e-19)
(0.919114 -0.382509 2.80549e-19)
(0.917208 -0.376833 -3.21923e-19)
(0.912138 -0.328708 3.41971e-19)
(0.920442 -0.284155 -3.28863e-19)
(0.931309 -0.248939 2.87879e-19)
(0.943185 -0.22058 -2.53419e-19)
(0.954566 -0.197221 0)
(0.965093 -0.177483 -8.09246e-21)
(0.974605 -0.160423 0)
(0.983001 -0.145375 0)
(0.990263 -0.13183 0)
(0.996388 -0.119392 2.93099e-21)
(1.00138 -0.107745 1.44718e-19)
(1.00527 -0.0966512 -1.41272e-19)
(1.0081 -0.0859588 2.7054e-19)
(1.00994 -0.0756036 -2.5853e-19)
(1.01087 -0.0655891 1.27593e-19)
(1.01098 -0.0559458 -2.44175e-19)
(1.01036 -0.0466812 -1.15973e-19)
(1.00916 -0.0377332 1.11933e-19)
(1.00745 -0.0290085 0)
(1.00474 -0.0207088 1.07771e-19)
(0.99951 -0.0136967 0)
(0.99386 -0.00839511 -1.86687e-19)
(0.961442 -0.32195 -6.44523e-19)
(0.958431 -0.351059 1.13242e-19)
(0.948322 -0.320669 -4.21458e-19)
(0.949687 -0.284493 0)
(0.955615 -0.253362 1.30956e-19)
(0.963866 -0.227086 -3.46265e-19)
(0.972546 -0.204785 1.04747e-19)
(0.981008 -0.185552 -4.8535e-19)
(0.988844 -0.168662 1.79346e-19)
(0.995836 -0.153563 1.63472e-19)
(1.00187 -0.139814 0)
(1.0069 -0.127061 2.94535e-19)
(1.01087 -0.115018 -2.8413e-19)
(1.01379 -0.10347 1.36658e-19)
(1.01568 -0.0922759 -3.91012e-19)
(1.0166 -0.0813783 6.34907e-19)
(1.01663 -0.0707838 2.43488e-19)
(1.01584 -0.0605302 1.15488e-19)
(1.01431 -0.0506351 1.14989e-19)
(1.0122 -0.0410326 -3.32248e-19)
(1.00963 -0.0316109 0)
(1.00599 -0.0226449 -1.01731e-19)
(0.999392 -0.0153624 0)
(0.992821 -0.0107508 9.16101e-20)
(0.981575 -0.291632 2.84871e-19)
(0.982929 -0.327667 6.54942e-19)
(0.974175 -0.311098 2.23109e-19)
(0.973217 -0.282725 -7.09301e-20)
(0.976551 -0.255856 2.52044e-22)
(0.982459 -0.231938 4.49123e-19)
(0.989242 -0.210949 -1.01005e-19)
(0.996144 -0.192417 -1.83778e-19)
(1.00265 -0.175858 1.51523e-21)
(1.00848 -0.160839 -2.34748e-21)
(1.01347 -0.147 -1.50773e-19)
(1.01751 -0.134036 -2.03666e-21)
(1.02055 -0.121699 0)
(1.02257 -0.109796 0)
(1.02356 -0.0981998 1.28718e-19)
(1.02358 -0.0868572 0)
(1.0227 -0.0757752 -1.1989e-19)
(1.02099 -0.0649966 -1.15837e-19)
(1.01853 -0.0545486 0)
(1.01548 -0.044363 2.12594e-19)
(1.01199 -0.0343145 -3.07189e-19)
(1.00742 -0.0247918 5.04948e-19)
(0.999505 -0.0174985 -3.8296e-19)
(0.991679 -0.0134129 0)
(0.989364 -0.276384 3.22876e-19)
(0.997169 -0.310643 -1.09249e-20)
(0.992597 -0.302782 -3.73765e-19)
(0.991905 -0.280688 6.47969e-20)
(0.994348 -0.257599 -1.16868e-19)
(0.999015 -0.235931 1.0545e-19)
(1.00463 -0.216267 1.91129e-19)
(1.01046 -0.19849 -1.27199e-21)
(1.01598 -0.182319 -1.65182e-19)
(1.02089 -0.167441 -1.53866e-19)
(1.02501 -0.153573 2.89055e-19)
(1.02821 -0.140465 1.35775e-19)
(1.03042 -0.127904 0)
(1.03159 -0.115721 0)
(1.03174 -0.103804 1.19745e-19)
(1.03089 -0.0920997 -1.19332e-19)
(1.02912 -0.080614 3.39193e-19)
(1.02649 -0.0693912 -2.19342e-19)
(1.02308 -0.0584661 2.12685e-19)
(1.01906 -0.0477674 0)
(1.01463 -0.0371598 3.48525e-21)
(1.00906 -0.027169 0)
(0.999783 -0.0200251 -9.22439e-20)
(0.990515 -0.0164749 2.2158e-19)
(0.990405 -0.269784 -2.81797e-19)
(1.00484 -0.299933 -8.71554e-21)
(1.00577 -0.296908 4.12246e-19)
(1.00679 -0.279487 -2.47055e-19)
(1.00949 -0.259445 1.10542e-19)
(1.01379 -0.239703 1.9573e-19)
(1.01885 -0.221218 -3.51359e-21)
(1.02403 -0.204134 -1.64904e-19)
(1.02888 -0.188326 1.58486e-19)
(1.03311 -0.173588 0)
(1.03653 -0.159707 -3.10858e-21)
(1.03901 -0.146484 -2.69122e-19)
(1.04048 -0.133741 -2.53626e-19)
(1.04089 -0.121332 2.44005e-19)
(1.04024 -0.109156 -1.1931e-19)
(1.03857 -0.097162 -2.25828e-19)
(1.03594 -0.0853493 -3.28958e-19)
(1.03239 -0.0737608 2.11256e-19)
(1.02802 -0.0624344 0)
(1.02302 -0.0512926 0)
(1.01758 -0.040188 1.90752e-19)
(1.01095 -0.0297886 3.76555e-19)
(1.00027 -0.0228904 -6.29029e-19)
(0.989502 -0.020001 7.1019e-19)
(0.9879 -0.269216 -4.2421e-20)
(1.00858 -0.29496 -2.2502e-19)
(1.01531 -0.293977 -4.02849e-19)
(1.01882 -0.279766 2.34539e-19)
(1.02256 -0.261974 -1.05056e-19)
(1.02714 -0.243729 -1.95309e-19)
(1.03212 -0.226182 -3.54062e-19)
(1.03701 -0.209646 3.28833e-19)
(1.04146 -0.194114 0)
(1.04521 -0.179466 -2.72766e-21)
(1.04808 -0.165551 1.34957e-19)
(1.04996 -0.152212 0)
(1.05078 -0.139305 -1.1945e-19)
(1.0505 -0.126704 0)
(1.04912 -0.114316 -1.14204e-19)
(1.04667 -0.102091 1.10938e-19)
(1.04319 -0.0900211 2.09246e-19)
(1.03875 -0.0781429 9.90236e-20)
(1.03343 -0.0664921 0)
(1.02741 -0.0549805 -2.84844e-19)
(1.02091 -0.0434433 2.73383e-19)
(1.01315 -0.0326863 8.75911e-20)
(1.00108 -0.0261072 -8.61801e-20)
(0.988754 -0.0240242 1.94822e-19)
(0.984103 -0.27264 0)
(1.01041 -0.295112 0)
(1.02246 -0.294196 0)
(1.02886 -0.281873 -1.12044e-19)
(1.03415 -0.265562 1.00248e-19)
(1.03946 -0.248342 1.78246e-19)
(1.04471 -0.231436 0)
(1.04961 -0.215251 0)
(1.05388 -0.199864 0)
(1.05732 -0.185221 -4.10146e-19)
(1.05977 -0.171221 4.63841e-22)
(1.06115 -0.157743 1.22833e-19)
(1.0614 -0.14467 1.19366e-19)
(1.06049 -0.131892 -1.13933e-19)
(1.05842 -0.119327 2.14808e-19)
(1.05523 -0.106919 -2.07097e-19)
(1.05095 -0.0946539 1.9939e-19)
(1.04564 -0.0825583 -1.97317e-19)
(1.03936 -0.0706604 0)
(1.03231 -0.0588565 -9.22772e-20)
(1.0247 -0.0469572 -2.65356e-19)
(1.01576 -0.0358944 2.53975e-19)
(1.00231 -0.0296871 4.23739e-19)
(0.988368 -0.0285606 2.3112e-20)
(0.979161 -0.280318 -3.18677e-19)
(1.01125 -0.298487 0)
(1.02821 -0.297422 0)
(1.03768 -0.28594 -2.09738e-19)
(1.0448 -0.27042 0)
(1.05115 -0.253758 -3.4898e-19)
(1.05695 -0.237167 0)
(1.06207 -0.221105 0)
(1.06632 -0.205704 1.36243e-19)
(1.06957 -0.190957 6.15212e-21)
(1.07171 -0.176801 -1.23638e-19)
(1.07267 -0.163143 1.1759e-19)
(1.07241 -0.149886 1.14089e-19)
(1.07093 -0.136936 -4.27672e-19)
(1.06823 -0.124214 1.04798e-19)
(1.06433 -0.111662 1.00627e-19)
(1.05928 -0.0992564 -2.83553e-19)
(1.05311 -0.0870114 -1.8395e-19)
(1.04589 -0.0749442 -1.77742e-19)
(1.03779 -0.0629309 1.72711e-19)
(1.02903 -0.0507505 -8.52747e-20)
(1.01887 -0.0394405 -7.99679e-20)
(1.00405 -0.033638 7.97634e-20)
(0.98845 -0.0336162 0)
(0.9743 -0.291376 2.38001e-19)
(1.01201 -0.305817 6.7468e-20)
(1.03334 -0.303487 0)
(1.04591 -0.29201 2.09349e-19)
(1.05503 -0.276661 9.15188e-20)
(1.06261 -0.260095 3.98909e-21)
(1.06913 -0.243484 2.27205e-19)
(1.07462 -0.227302 -1.42698e-19)
(1.07898 -0.211711 -3.06893e-21)
(1.08213 -0.196737 2.51033e-19)
(1.08402 -0.182339 1.15498e-19)
(1.08462 -0.168447 0)
(1.08391 -0.154979 5.19548e-21)
(1.08189 -0.141851 3.08006e-19)
(1.07859 -0.128984 -4.00028e-22)
(1.07403 -0.116319 -9.18676e-20)
(1.06824 -0.103821 2.73478e-19)
(1.06125 -0.09149 -3.45749e-19)
(1.0531 -0.0793307 8.32302e-20)
(1.04395 -0.067196 3.27729e-19)
(1.03401 -0.0548271 -1.59104e-19)
(1.02257 -0.04334 7.97016e-20)
(1.00643 -0.037958 -7.97103e-20)
(0.98911 -0.0391881 2.96759e-19)
(0.969816 -0.305372 3.9796e-20)
(1.0129 -0.316385 0)
(1.0384 -0.312265 2.77011e-19)
(1.05406 -0.300074 4.83059e-20)
(1.06527 -0.284317 -8.84765e-20)
(1.07421 -0.267403 -1.55789e-19)
(1.08156 -0.250438 -7.80302e-21)
(1.0875 -0.233886 -1.33017e-19)
(1.09204 -0.217922 -1.27538e-19)
(1.09515 -0.202586 -2.39448e-19)
(1.09684 -0.187854 -2.81725e-21)
(1.09711 -0.173667 2.73334e-21)
(1.09598 -0.159952 2.52444e-21)
(1.09347 -0.14663 0)
(1.0896 -0.133625 -9.04915e-20)
(1.0844 -0.12087 -1.7825e-19)
(1.0779 -0.108321 1.72002e-19)
(1.0701 -0.0959645 8.50539e-20)
(1.06105 -0.0837892 -8.23047e-20)
(1.05087 -0.0716249 0)
(1.03974 -0.0591712 7.34316e-20)
(1.027 -0.04759 0)
(1.00956 -0.0426302 0)
(0.990465 -0.0452628 1.36233e-19)
(0.965799 -0.322068 0)
(1.01426 -0.329792 0)
(1.0439 -0.323578 -1.67636e-19)
(1.06263 -0.310077 -9.34395e-22)
(1.07595 -0.293376 3.76507e-20)
(1.08628 -0.275688 2.33997e-19)
(1.0945 -0.258037 -8.09607e-21)
(1.10094 -0.240864 6.9064e-20)
(1.10568 -0.224338 6.10029e-20)
(1.10879 -0.208502 2.28439e-19)
(1.1103 -0.193334 -3.02236e-21)
(1.11026 -0.178783 2.06636e-19)
(1.10873 -0.164779 0)
(1.10573 -0.151244 0)
(1.10131 -0.1381 2.66708e-19)
(1.0955 -0.125274 -8.6961e-20)
(1.08831 -0.112712 1.62728e-19)
(1.07974 -0.100386 -1.57305e-19)
(1.06982 -0.0882702 0)
(1.05863 -0.0761713 0)
(1.04631 -0.0637457 -7.31572e-20)
(1.03226 -0.052165 6.84282e-20)
(1.01356 -0.0476146 -6.97422e-20)
(0.992629 -0.0518111 -1.92224e-19)
(0.962355 -0.341424 1.12375e-19)
(1.01644 -0.345994 9.2708e-20)
(1.05025 -0.337302 -1.55578e-19)
(1.07201 -0.321949 -8.80519e-20)
(1.08742 -0.303806 -2.43465e-19)
(1.09913 -0.284928 7.24953e-20)
(1.10822 -0.266265 -2.7171e-19)
(1.11514 -0.248218 6.21516e-20)
(1.12009 -0.230936 0)
(1.12318 -0.214454 -1.64344e-19)
(1.12451 -0.198745 -1.05312e-19)
(1.12417 -0.183755 0)
(1.12224 -0.169412 9.16708e-20)
(1.11877 -0.155637 -2.79074e-23)
(1.11381 -0.142347 -8.34677e-20)
(1.10739 -0.129464 -8.23186e-20)
(1.09953 -0.116922 0)
(1.09023 -0.104681 3.61136e-20)
(1.07947 -0.0926994 -1.43514e-19)
(1.0673 -0.080765 6.11156e-22)
(1.05382 -0.0684905 1.35165e-19)
(1.03849 -0.0570133 -1.00604e-19)
(1.01858 -0.0528334 1.02945e-19)
(0.99571 -0.0587783 -8.82174e-20)
(0.959462 -0.363621 -1.13362e-19)
(1.01965 -0.364977 -3.11569e-20)
(1.05778 -0.353377 5.37193e-21)
(1.08257 -0.335646 4.80203e-20)
(1.10002 -0.315569 4.01591e-20)
(1.11305 -0.295093 -6.86446e-20)
(1.12296 -0.275089 6.35857e-20)
(1.13032 -0.25591 1.14914e-19)
(1.13543 -0.237674 -5.47321e-20)
(1.13848 -0.220393 5.30015e-20)
(1.13962 -0.204028 0)
(1.13896 -0.188514 0)
(1.13661 -0.173774 0)
(1.13265 -0.159721 -8.25255e-20)
(1.12715 -0.14627 -6.01764e-23)
(1.12014 -0.133335 3.89116e-20)
(1.11163 -0.120841 0)
(1.10161 -0.108735 -2.10318e-19)
(1.09004 -0.0969634 1.35681e-19)
(1.07694 -0.0852995 3.19071e-20)
(1.06236 -0.0733134 1.27925e-19)
(1.04579 -0.0620482 -9.26566e-20)
(1.02474 -0.0581395 -3.32214e-20)
(0.999786 -0.0660634 0)
(0.957098 -0.388896 -1.41218e-19)
(1.02414 -0.386834 0)
(1.06684 -0.371805 9.86173e-20)
(1.09467 -0.351138 8.46858e-20)
(1.11407 -0.328632 0)
(1.12831 -0.306144 -6.21463e-20)
(1.13894 -0.284467 0)
(1.14667 -0.263894 -5.71271e-20)
(1.15189 -0.244497 0)
(1.15485 -0.226255 4.62268e-20)
(1.15574 -0.209106 4.36261e-20)
(1.15473 -0.19297 0)
(1.15194 -0.177758 0)
(1.14748 -0.163377 0)
(1.14142 -0.149733 0)
(1.1338 -0.136735 1.07957e-19)
(1.12464 -0.1243 -3.52393e-20)
(1.11391 -0.112368 3.40537e-20)
(1.10157 -0.100876 3.10039e-20)
(1.08759 -0.0895969 -9.36661e-20)
(1.07197 -0.0780646 1.80807e-19)
(1.05427 -0.0671282 4.19459e-21)
(1.0322 -0.0632439 -1.19106e-19)
(1.00488 -0.0734628 0)
(0.955251 -0.417528 1.41866e-19)
(1.03018 -0.411687 0)
(1.07778 -0.392601 2.19499e-20)
(1.10865 -0.368401 -9.26446e-22)
(1.12989 -0.342956 -1.71047e-20)
(1.14521 -0.318037 6.30366e-20)
(1.15642 -0.294351 2.75056e-20)
(1.1644 -0.272113 -1.28236e-21)
(1.16963 -0.251337 0)
(1.17243 -0.23196 -4.67657e-20)
(1.17302 -0.213885 -4.40967e-20)
(1.17161 -0.197012 0)
(1.16834 -0.181233 -3.82357e-20)
(1.16335 -0.166445 3.62865e-20)
(1.15671 -0.152545 0)
(1.14846 -0.139439 0)
(1.13863 -0.127039 -3.32425e-20)
(1.1272 -0.11528 0)
(1.11409 -0.104104 2.91382e-20)
(1.09925 -0.0933189 -5.83411e-20)
(1.08265 -0.0824559 -1.37706e-20)
(1.06398 -0.0719975 5.74072e-20)
(1.04113 -0.0675269 -1.15206e-19)
(1.01093 -0.0804911 9.11389e-20)
(0.953913 -0.449805 -9.12022e-21)
(1.03812 -0.439614 0)
(1.09101 -0.415723 1.01366e-20)
(1.12491 -0.387366 -9.12565e-21)
(1.14782 -0.358473 1.44659e-20)
(1.16403 -0.330712 0)
(1.17565 -0.30468 -7.16527e-22)
(1.18373 -0.280504 1.05139e-20)
(1.18886 -0.258125 -1.15246e-20)
(1.19139 -0.237423 -9.79894e-21)
(1.19161 -0.218263 2.89471e-20)
(1.18974 -0.200513 -1.85173e-20)
(1.18596 -0.184043 -8.46626e-21)
(1.18039 -0.168734 0)
(1.17313 -0.154472 -7.79415e-21)
(1.16424 -0.141153 0)
(1.15372 -0.128686 -7.2581e-21)
(1.14155 -0.117007 0)
(1.12764 -0.106073 2.14913e-20)
(1.11191 -0.0957868 6.26285e-23)
(1.09427 -0.0857903 -1.29896e-20)
(1.07454 -0.0759862 0)
(1.05115 -0.069653 0)
(1.01893 -0.0858365 3.10266e-20)
(0.95308 -0.485979 -7.72951e-22)
(1.04835 -0.470555 -3.24278e-21)
(1.10694 -0.440988 0)
(1.14381 -0.407862 3.66782e-21)
(1.16821 -0.375051 -1.46886e-20)
(1.18507 -0.344066 6.14619e-21)
(1.19688 -0.315374 -1.7743e-20)
(1.20488 -0.288994 2.45709e-21)
(1.20976 -0.264783 -2.28002e-20)
(1.21192 -0.242559 1.92644e-20)
(1.21168 -0.222138 -4.28411e-22)
(1.20929 -0.20335 -1.0484e-20)
(1.20493 -0.186036 6.62256e-21)
(1.19876 -0.170053 -1.86364e-21)
(1.19088 -0.155265 7.86031e-21)
(1.18134 -0.141551 -1.63496e-20)
(1.17014 -0.128806 3.36976e-20)
(1.15724 -0.116952 -1.51856e-20)
(1.14253 -0.105955 6.85344e-21)
(1.12585 -0.0958006 -1.56581e-21)
(1.10698 -0.0862971 -1.11597e-20)
(1.0855 -0.0771719 -2.71497e-22)
(1.06076 -0.0696796 1.23715e-20)
(1.03148 -0.0867326 -1.22332e-20)
(0.952791 -0.526031 5.92096e-22)
(1.06124 -0.504156 -2.07567e-20)
(1.12592 -0.467933 1.98497e-21)
(1.16569 -0.429525 -1.78888e-20)
(1.19135 -0.392436 0)
(1.20861 -0.357928 1.10366e-20)
(1.22037 -0.326314 -1.02252e-20)
(1.22809 -0.297494 -1.09709e-20)
(1.23255 -0.271236 1.40217e-22)
(1.23421 -0.24729 2.07117e-21)
(1.23342 -0.225422 2.02442e-21)
(1.23043 -0.20542 1.36116e-22)
(1.22546 -0.187092 -1.78646e-21)
(1.21867 -0.170261 5.42695e-21)
(1.21018 -0.154763 -3.4906e-21)
(1.20005 -0.140447 5.07165e-21)
(1.18827 -0.127182 7.90166e-21)
(1.17476 -0.114872 -4.4086e-21)
(1.15936 -0.103461 0)
(1.14181 -0.0928706 -4.5123e-21)
(1.1216 -0.0829076 4.34494e-21)
(1.09809 -0.0741522 -1.1694e-20)
(1.07118 -0.0708978 5.86783e-21)
(1.04293 -0.0831815 -1.01083e-20)
(0.953061 -0.569428 -4.78326e-20)
(1.07705 -0.539574 1.95581e-20)
(1.1481 -0.495667 0)
(1.1907 -0.451683 -6.78396e-21)
(1.21743 -0.41017 -4.84304e-21)
(1.23486 -0.372001 1.00602e-20)
(1.24634 -0.337312 9.1206e-21)
(1.25358 -0.305883 8.5987e-21)
(1.25745 -0.277398 0)
(1.25848 -0.251548 -1.31904e-20)
(1.25701 -0.228053 0)
(1.25335 -0.206664 -1.26009e-20)
(1.24771 -0.187157 -1.11818e-21)
(1.24028 -0.169327 1.27041e-20)
(1.2312 -0.152986 0)
(1.22052 -0.137968 1.23543e-20)
(1.20825 -0.124139 -1.80052e-20)
(1.19426 -0.111415 6.07931e-21)
(1.17833 -0.0997639 0)
(1.16006 -0.0891012 0)
(1.13885 -0.0792895 2.19713e-20)
(1.11402 -0.0714983 -1.56129e-20)
(1.08555 -0.0711304 0)
(1.05398 -0.0813109 1.4879e-20)
(0.954121 -0.615774 1.41635e-19)
(1.09581 -0.575303 0)
(1.17322 -0.522751 0)
(1.21865 -0.473243 -6.44368e-21)
(1.24638 -0.427503 0)
(1.26383 -0.385794 -1.5682e-20)
(1.27489 -0.348063 0)
(1.2815 -0.313978 -2.1315e-20)
(1.28465 -0.283159 0)
(1.28491 -0.255262 3.46712e-20)
(1.28267 -0.229982 -2.43387e-20)
(1.27823 -0.207044 3.56719e-20)
(1.27184 -0.186205 -1.24863e-20)
(1.26372 -0.167239 -2.20495e-21)
(1.25399 -0.149948 4.45868e-20)
(1.24273 -0.13416 2.11288e-20)
(1.22991 -0.119752 6.34977e-22)
(1.21538 -0.106668 -6.31919e-20)
(1.19883 -0.094908 4.05372e-20)
(1.17975 -0.0844187 0)
(1.15743 -0.0751152 1.85379e-20)
(1.13124 -0.0683675 1.85979e-20)
(1.10121 -0.0697135 1.96693e-20)
(1.06673 -0.0797272 -1.80513e-20)
(0.957914 -0.664861 -9.32699e-20)
(1.11692 -0.608941 1.15141e-20)
(1.20033 -0.546968 0)
(1.2488 -0.492532 2.65004e-20)
(1.27768 -0.443262 -1.14443e-20)
(1.29524 -0.398534 9.10761e-21)
(1.30591 -0.358078 -8.40728e-21)
(1.31187 -0.321481 2.15955e-20)
(1.31425 -0.288347 -1.49418e-20)
(1.31367 -0.258338 -2.1582e-20)
(1.31057 -0.231157 0)
(1.30526 -0.206535 -1.69175e-20)
(1.29804 -0.184224 1.99694e-20)
(1.28911 -0.163997 -4.00704e-20)
(1.27863 -0.145653 3.9574e-20)
(1.26668 -0.129026 -5.81298e-20)
(1.2532 -0.11401 3.85626e-20)
(1.238 -0.100572 1.85788e-20)
(1.2207 -0.0887409 -3.60185e-20)
(1.20073 -0.0784989 0)
(1.17728 -0.0697823 -1.85282e-20)
(1.14975 -0.0640356 -1.0901e-19)
(1.11826 -0.0666771 3.38644e-20)
(1.08142 -0.0774194 4.33838e-20)
(0.968048 -0.717577 1.29735e-20)
(1.13831 -0.636158 1.02215e-20)
(1.22661 -0.564589 7.57873e-21)
(1.27897 -0.506963 0)
(1.3098 -0.455682 8.4609e-21)
(1.3281 -0.409042 2.8918e-21)
(1.33882 -0.366593 0)
(1.34442 -0.327913 0)
(1.34618 -0.292671 1.51267e-20)
(1.34483 -0.260608 0)
(1.34085 -0.231489 -3.707e-21)
(1.33463 -0.205092 6.20999e-20)
(1.32646 -0.181196 -6.14118e-20)
(1.31661 -0.159594 3.03535e-20)
(1.30525 -0.140097 1.43213e-20)
(1.29244 -0.122555 1.46411e-20)
(1.27814 -0.106879 1.47988e-20)
(1.26212 -0.0930553 -3.2322e-20)
(1.24399 -0.0811368 1.47211e-20)
(1.22309 -0.0711217 1.4538e-20)
(1.19857 -0.0629716 1.43407e-20)
(1.16981 -0.0581601 2.02703e-21)
(1.13699 -0.0619278 8.18689e-20)
(1.09808 -0.0739128 -4.27477e-20)
(0.982687 -0.736828 2.5743e-20)
(1.15362 -0.633416 -1.49667e-20)
(1.24878 -0.56217 -7.52485e-21)
(1.30584 -0.511682 0)
(1.34 -0.462166 0)
(1.36049 -0.415672 2.94613e-21)
(1.37236 -0.372509 -8.99519e-21)
(1.37837 -0.33254 -2.61041e-21)
(1.38002 -0.295653 -5.19202e-21)
(1.37821 -0.26177 5.31271e-21)
(1.37352 -0.230796 -1.12113e-20)
(1.36642 -0.202608 -2.14774e-20)
(1.35728 -0.17706 2.88857e-20)
(1.34641 -0.15399 2.53633e-20)
(1.33401 -0.133246 -2.77527e-20)
(1.32019 -0.114702 -4.22664e-20)
(1.30488 -0.0982916 2.28835e-20)
(1.28788 -0.0840165 -2.8742e-20)
(1.26878 -0.0719476 5.04241e-20)
(1.24694 -0.0620911 5.2604e-20)
(1.22142 -0.0544459 -1.21925e-19)
(1.19157 -0.0504732 1.25161e-19)
(1.15758 -0.0552596 -5.55127e-20)
(1.11685 -0.0688301 0)
(0.0415633 0.00669299 -7.21204e-19)
(0.058854 -0.0269896 4.76851e-19)
(0.105531 -0.113083 3.90636e-19)
(0.131163 -0.164219 4.3017e-20)
(0.190879 -0.284025 2.27723e-19)
(0.159336 -0.262446 3.64483e-19)
(0.0411312 -0.0198179 0)
(0.0583205 -0.0667414 -1.03163e-18)
(0.0999718 -0.147428 3.17472e-20)
(0.121793 -0.19982 0)
(0.16013 -0.274815 3.01103e-19)
(0.155443 -0.260488 0)
(0.0379408 -0.0330888 5.85725e-19)
(0.0512556 -0.0870979 5.09741e-19)
(0.085888 -0.160331 -3.9192e-19)
(0.103687 -0.206769 0)
(0.128217 -0.251611 -2.82829e-19)
(0.132865 -0.240003 -2.65856e-19)
(0.0332792 -0.0449086 -5.51089e-19)
(0.0429092 -0.102068 0)
(0.0701606 -0.166688 0)
(0.084446 -0.20463 3.08527e-19)
(0.10321 -0.230516 7.01633e-20)
(0.117631 -0.217405 1.31847e-19)
(0.0277867 -0.0574472 0)
(0.0343301 -0.113338 0)
(0.0545266 -0.16862 3.44241e-19)
(0.0658089 -0.197513 -2.95188e-19)
(0.0808663 -0.210877 6.7916e-20)
(0.0993041 -0.196252 -6.04619e-20)
(0.0222792 -0.0682148 0)
(0.0255951 -0.12072 -4.22389e-19)
(0.0391971 -0.166786 -6.66553e-19)
(0.0476356 -0.187192 2.90126e-19)
(0.0595351 -0.19155 2.61122e-19)
(0.0779252 -0.175383 6.01922e-20)
(0.0107266 -0.0760082 -1.01147e-20)
(0.0155401 -0.123893 4.13858e-19)
(0.0238323 -0.161838 -2.16414e-21)
(0.0295802 -0.17471 -3.53849e-19)
(0.0382178 -0.172162 -1.27032e-19)
(0.0541031 -0.154175 1.21941e-21)
(-0.00393858 -0.0781117 0)
(0.00387173 -0.123522 2.61135e-20)
(0.00824279 -0.154659 6.22069e-19)
(0.0113969 -0.160793 0)
(0.0166441 -0.15258 2.52009e-19)
(0.0285452 -0.132445 0)
(-0.0146616 -0.0787577 -2.18655e-20)
(-0.00866165 -0.121256 4.43752e-19)
(-0.00745055 -0.146133 -2.94856e-19)
(-0.00685313 -0.146085 -3.36048e-20)
(-0.0051873 -0.132672 -2.48095e-19)
(0.0017269 -0.110161 -2.30877e-19)
(-0.0244488 -0.0793593 -2.19313e-20)
(-0.021343 -0.11788 -3.60323e-19)
(-0.0230108 -0.136874 -1.92016e-20)
(-0.0249528 -0.130996 -3.47236e-20)
(-0.0271172 -0.112492 3.02055e-20)
(-0.0257056 -0.0873619 2.27701e-19)
(-0.0329431 -0.0788861 -2.19936e-20)
(-0.0337137 -0.113753 1.22545e-20)
(-0.0381941 -0.127316 -3.12168e-19)
(-0.0427196 -0.115728 2.71184e-19)
(-0.0487991 -0.0922503 6.21361e-20)
(-0.0530804 -0.0641275 1.52245e-21)
(-0.0401178 -0.0769827 -2.20499e-20)
(-0.0454815 -0.109121 1.21818e-20)
(-0.0528189 -0.117711 3.1055e-19)
(-0.0599422 -0.10054 5.53315e-22)
(-0.0698353 -0.0721151 0)
(-0.0797399 -0.0405853 0)
(-0.0460571 -0.0736215 -7.09602e-19)
(-0.0564417 -0.1041 0)
(-0.0667637 -0.108207 0)
(-0.0763923 -0.0856892 -3.40802e-20)
(-0.0898529 -0.0522755 2.72075e-19)
(-0.10504 -0.0168958 2.24018e-19)
(-0.0508225 -0.0687722 7.20484e-19)
(-0.0664007 -0.098732 -1.85154e-19)
(-0.0799551 -0.0989495 -1.92216e-20)
(-0.0919118 -0.0713765 -3.0402e-19)
(-0.108516 -0.0329665 -6.05148e-20)
(-0.128362 0.00671366 -2.5053e-19)
(-0.0544313 -0.0624701 3.3879e-19)
(-0.0752529 -0.0930238 4.05042e-19)
(-0.092326 -0.0900085 0)
(-0.106413 -0.0578179 -1.72674e-20)
(-0.125559 -0.0144736 -1.06289e-19)
(-0.149159 0.0299762 0)
(-0.0568523 -0.054897 -3.55842e-19)
(-0.0828744 -0.0868989 -2.14874e-19)
(-0.103902 -0.0814269 1.99914e-20)
(-0.11989 -0.0452413 9.06978e-21)
(-0.140811 0.0028542 -1.48915e-20)
(-0.166971 0.0525649 -5.59779e-20)
(-0.0580005 -0.0465236 2.74652e-21)
(-0.0891568 -0.0802116 6.50038e-21)
(-0.11477 -0.0732008 -1.53506e-20)
(-0.13244 -0.0338917 7.74793e-20)
(-0.154223 0.018583 0)
(-0.18141 0.074058 4.18582e-20)
(-0.0576007 -0.0377913 0)
(-0.093946 -0.0727226 0)
(-0.125083 -0.0652655 0)
(-0.144281 -0.0240259 -7.06306e-20)
(-0.165895 0.0321731 -7.7334e-21)
(-0.192188 0.0938592 -1.43866e-20)
(-0.0554413 -0.0249196 1.29226e-21)
(-0.0968573 -0.0640084 -8.41177e-22)
(-0.135041 -0.0574594 0)
(-0.155775 -0.0158899 0)
(-0.176132 0.0429422 7.92348e-21)
(-0.199112 0.111094 5.32502e-21)
(-0.0499278 -0.0128034 0)
(-0.0975609 -0.0534806 0)
(-0.144872 -0.0495014 -5.67451e-21)
(-0.167466 -0.0096977 -6.03382e-20)
(-0.185573 0.0500442 5.63782e-20)
(-0.201997 0.124549 0)
(-0.0437225 -0.0020331 4.22612e-21)
(-0.097173 -0.0406609 -1.50723e-20)
(-0.154703 -0.0411353 1.98706e-19)
(-0.180102 -0.00568402 2.13903e-19)
(-0.195361 0.0523854 -5.09173e-20)
(-0.200178 0.132437 3.18736e-20)
(-0.0382102 0.00823866 -2.96657e-19)
(-0.0960984 -0.025702 0)
(-0.164576 -0.0323049 -1.73927e-19)
(-0.194476 -0.00419947 -1.85494e-19)
(-0.207267 0.0485736 0)
(-0.191495 0.13252 0)
(-0.0315305 0.0192855 7.01555e-19)
(-0.0918469 -0.00779919 0)
(-0.172719 -0.0225691 -2.6959e-20)
(-0.210645 -0.00461054 -2.20506e-20)
(-0.222781 0.0375198 3.6365e-20)
(-0.168287 0.123535 -7.44386e-20)
(-0.0175455 0.0368105 -3.60557e-19)
(-0.0693378 0.0238304 5.94925e-19)
(-0.169193 0.00472025 -2.8036e-20)
(-0.224268 0.00946415 0)
(-0.238578 0.0379463 0)
(-0.134525 0.128265 -2.75503e-20)
(0.822684 -0.507692 0)
(1.11917 -0.56741 0)
(1.24627 -0.538099 0)
(1.31858 -0.497318 -8.01614e-20)
(1.36264 -0.457491 6.07626e-20)
(1.38859 -0.416027 -3.13692e-20)
(1.404 -0.374307 -7.27185e-21)
(1.41204 -0.334293 -2.1169e-20)
(1.4147 -0.296538 -4.86932e-22)
(1.41317 -0.261302 0)
(1.40826 -0.228722 0)
(1.40056 -0.198845 -1.42835e-20)
(1.39056 -0.17165 2.37274e-20)
(1.37866 -0.147066 -1.37124e-20)
(1.36513 -0.124999 -1.09088e-20)
(1.35012 -0.105367 -1.60831e-20)
(1.33362 -0.0881317 -5.6189e-20)
(1.31544 -0.073314 -1.60232e-20)
(1.29525 -0.0609966 3.05082e-20)
(1.27242 -0.0511982 3.36481e-20)
(1.24595 -0.0439569 -4.38007e-20)
(1.21513 -0.0406852 -2.10791e-20)
(1.18014 -0.0463648 4.92098e-20)
(1.13788 -0.0617264 -5.36704e-20)
(0.526798 -0.278892 -2.61853e-19)
(0.96921 -0.427454 1.86265e-19)
(1.19452 -0.473136 -1.54943e-19)
(1.30408 -0.465691 8.08846e-20)
(1.36575 -0.438612 -6.10292e-20)
(1.40497 -0.404415 4.6238e-20)
(1.42877 -0.369193 0)
(1.44205 -0.331421 -1.93057e-20)
(1.44795 -0.294063 0)
(1.44823 -0.258277 0)
(1.44412 -0.224588 0)
(1.43651 -0.193306 3.29068e-21)
(1.42605 -0.164601 -3.02609e-21)
(1.41331 -0.138541 -4.35021e-21)
(1.39869 -0.115129 2.31766e-20)
(1.38244 -0.0943492 -1.44448e-20)
(1.36461 -0.076205 2.05085e-20)
(1.34509 -0.0607461 -3.0127e-20)
(1.32362 -0.048062 -1.45028e-20)
(1.29969 -0.038204 1.53851e-20)
(1.27231 -0.0312255 0)
(1.24064 -0.0284712 2.13434e-20)
(1.2048 -0.0348609 0)
(1.16132 -0.0520818 -4.04392e-20)
(0.343842 -0.192743 6.05951e-19)
(0.742436 -0.285814 -1.71942e-20)
(1.04129 -0.361173 2.05728e-19)
(1.2333 -0.401318 0)
(1.33795 -0.401033 -4.96132e-20)
(1.39896 -0.381507 1.40759e-19)
(1.43741 -0.351797 -3.11913e-20)
(1.46199 -0.320158 1.21679e-19)
(1.47514 -0.286162 -4.59216e-20)
(1.48014 -0.25118 -3.96438e-20)
(1.47888 -0.217211 0)
(1.47275 -0.185069 -3.37949e-20)
(1.4628 -0.155194 1.75466e-20)
(1.44983 -0.127848 -5.74598e-21)
(1.43447 -0.103177 -3.23217e-21)
(1.41712 -0.0812615 2.84802e-20)
(1.39798 -0.0621704 2.19715e-20)
(1.37704 -0.0459957 1.22174e-20)
(1.35415 -0.0328442 1.8892e-20)
(1.32896 -0.022809 -4.01586e-20)
(1.30063 -0.0159273 0)
(1.26822 -0.0134833 -1.31951e-20)
(1.23169 -0.020304 0)
(1.18735 -0.0393251 1.86981e-20)
(0.250055 -0.163571 -2.68204e-19)
(0.544703 -0.193113 -5.16223e-19)
(0.836485 -0.251069 -1.712e-19)
(1.07188 -0.302113 3.54551e-20)
(1.24398 -0.332786 -7.57627e-21)
(1.3533 -0.337343 -2.09055e-19)
(1.41929 -0.322728 4.7734e-20)
(1.46071 -0.297835 6.86477e-20)