/*--------------------------------*- C++ -*----------------------------------*\
  =========                 |
  \\      /  F ield         | OpenFOAM: The Open Source CFD Toolbox
   \\    /   O peration     | Website:  https://openfoam.org
    \\  /    A nd           | Version:  11
     \\/     M anipulation  |
\*---------------------------------------------------------------------------*/
FoamFile
{
    format      ascii;
    class       volScalarField;
    location    "1.74";
    object      nut;
}
// * * * * * * * * * * * * * * * * * * * * * * * * * * * * * * * * * * * * * //

dimensions      [0 2 -1 0 0 0 0];

internalField   nonuniform List<scalar> 
2880
(
1.10503e-06
8.55973e-06
3.32106e-05
7.94787e-05
0.00016244
5.21002e-05
3.40057e-05
8.0403e-05
0.000159515
0.000252462
0.000361867
0.000378053
0.000189022
0.000155724
0.000267343
0.000375157
0.000485274
0.000584738
4.76473e-05
0.000211041
0.000337857
0.000447287
0.00055148
0.000637379
5.03052e-05
0.000247659
0.000378768
0.00048706
0.000566665
0.000665731
5.22101e-05
0.000270476
0.000400465
0.000501759
0.000563921
0.000689496
5.35708e-05
0.000283762
0.000409627
0.000500679
0.00056658
0.000700521
5.44831e-05
0.000290773
0.000411086
0.000492862
0.000572062
0.000715385
5.50282e-05
0.000293631
0.00040844
0.000483256
0.000578989
0.000735417
5.52735e-05
0.000293773
0.00040346
0.000474847
0.000585416
0.000757273
5.52743e-05
0.000291774
0.000397069
0.000467222
0.00059055
0.000778569
5.50803e-05
0.000287682
0.000389701
0.000459032
0.000593028
0.000797159
5.46916e-05
0.000281395
0.000381041
0.000449062
0.000592457
0.000810829
5.40584e-05
0.000272827
0.000370562
0.000437019
0.000587557
0.000818882
5.31553e-05
0.000261846
0.000357711
0.00042201
0.000576826
0.000820829
5.19444e-05
0.000248468
0.000341821
0.000403723
0.000558654
0.000815878
5.03972e-05
0.000232919
0.000322119
0.000381858
0.000531492
0.000802411
4.86347e-05
0.000215342
0.000298158
0.000355844
0.000494406
0.000778971
4.68881e-05
0.000195654
0.000269278
0.000325244
0.000447004
0.000742521
0.000190555
0.000174142
0.000234164
0.000289484
0.000387513
0.000685945
0.000179335
0.000145171
0.000191892
0.000246245
0.000316952
0.000599639
0.00016334
0.000105241
0.000141243
0.000190606
0.000238123
0.000473189
2.8732e-05
4.96616e-05
7.72401e-05
0.000114956
0.000154164
0.000281398
8.41453e-07
2.57755e-06
9.05175e-06
3.40431e-05
7.94807e-05
0.000123144
0.000200543
0.000561848
0.000893799
0.00119209
0.00151202
0.00185749
0.00221214
0.00256366
0.00290731
0.0032421
0.00356731
0.00388077
0.00417843
0.0044547
0.00470332
0.0049183
0.00509468
0.00522871
0.00531751
0.00535882
0.00535263
0.00530576
0.00524312
0.00521715
0.000576653
0.000872838
0.00106236
0.00133043
0.00167627
0.00205157
0.00242506
0.00278674
0.00313532
0.00347108
0.00379304
0.0040981
0.00438103
0.00463511
0.00485299
0.00502767
0.00515327
0.00522518
0.00523977
0.00519407
0.00508718
0.00492533
0.00473098
0.00456513
0.000757096
0.000924496
0.0011619
0.00149105
0.0018688
0.00225647
0.00263551
0.00300014
0.00334935
0.00368264
0.00399801
0.00429129
0.00455632
0.00478563
0.00497146
0.00510669
0.00518549
0.00520342
0.00515666
0.00504043
0.00484641
0.00455933
0.00414924
0.00356041
0.000819204
0.00101169
0.00129069
0.00164777
0.00204386
0.00244363
0.00282981
0.00319746
0.00354596
0.00387463
0.00418092
0.00445996
0.00470502
0.0049084
0.00506258
0.00516121
0.0051998
0.00517571
0.0050876
0.00493407
0.00471196
0.00441458
0.00403043
0.00353301
0.000853938
0.00108466
0.00140468
0.00179353
0.00220904
0.00261929
0.00301028
0.00337864
0.00372415
0.00404595
0.00434096
0.00460378
0.00482738
0.00500418
0.00512739
0.00519209
0.00519583
0.00513857
0.00502192
0.00484791
0.00461735
0.00432859
0.0039772
0.00354615
0.000879596
0.00115325
0.00151275
0.00192956
0.00236174
0.00278058
0.00317468
0.00354197
0.00388265
0.00419567
0.00447754
0.00472247
0.00492327
0.00507277
0.00516526
0.00519762
0.00516983
0.00508473
0.004947
0.00476153
0.00453153
0.00425757
0.0039388
0.00356283
0.000914558
0.00122315
0.00161484
0.00205515
0.0025013
0.00292675
0.0033222
0.00368674
0.0040209
0.00432347
0.00459057
0.00481608
0.00499283
0.00511423
0.00517586
0.00517662
0.00511907
0.00500881
0.00485321
0.00465942
0.00443237
0.00417437
0.00388751
0.00356348
0.000953324
0.00129039
0.00170849
0.00216905
0.002627
0.00305728
0.00345245
0.0038127
0.00413887
0.00442956
0.00468051
0.00488532
0.00503696
0.00512958
0.00516027
0.00513017
0.00504451
0.00491167
0.00474145
0.00454288
0.00432212
0.00408261
0.00382811
0.00355313
0.000993229
0.00135288
0.00179243
0.00227079
0.00273861
0.00317203
0.00356544
0.00392009
0.00423706
0.00451473
0.00474845
0.00493161
0.00505741
0.00512094
0.00512105
0.00506129
0.00494975
0.00479751
0.00461655
0.00441727
0.00420644
0.00398782
0.00376564
0.00353598
0.00103092
0.00140818
0.00186541
0.00236019
0.00283618
0.00327121
0.00366159
0.00400956
0.00431642
0.00458025
0.00479604
0.00495701
0.00505671
0.00509134
0.00506176
0.0049742
0.00483967
0.00467184
0.00448446
0.00428868
0.00409112
0.00389505
0.00370422
0.00351534
0.00106349
0.00145453
0.0019282
0.00243743
0.00292
0.00335532
0.00374164
0.00408214
0.00437827
0.00462781
0.00482537
0.00496406
0.00503787
0.00504436
0.00498658
0.0048737
0.00471966
0.00454051
0.00435119
0.00416285
0.00398121
0.0038084
0.00364694
0.00349371
0.00108929
0.00149319
0.00198119
0.00250258
0.0029905
0.00342505
0.00380655
0.0041391
0.00442422
0.00465939
0.00483884
0.0049556
0.00500425
0.00498384
0.00489993
0.00476471
0.00459507
0.00440901
0.00422203
0.00404444
0.00388044
0.00373054
0.00359568
0.00347274
0.00110893
0.00152441
0.00202466
0.00255575
0.00304828
0.0034813
0.00385749
0.00418188
0.00445605
0.00467712
0.00483899
0.00493462
0.00495929
0.00491372
0.00480614
0.00465194
0.00447076
0.00428206
0.00410111
0.00393669
0.00379099
0.00366272
0.00355125
0.00345347
0.00112226
0.00154835
0.00205879
0.00259747
0.00309405
0.00352503
0.00389572
0.00421204
0.0044756
0.00468322
0.00482841
0.00490413
0.00490639
0.00483775
0.0047093
0.00453962
0.00435085
0.00416329
0.00399124
0.00384139
0.00371367
0.00360512
0.00351371
0.00343644
0.00112924
0.00156521
0.00208393
0.00262834
0.00312863
0.00355731
0.00392255
0.00423113
0.00448472
0.00467982
0.00480959
0.00486697
0.00484875
0.00475943
0.00461303
0.00443132
0.00423854
0.00405519
0.00389396
0.00375905
0.00364828
0.00355716
0.00348265
0.00342191
0.00112978
0.00157527
0.00210057
0.00264901
0.00315286
0.00357923
0.0039393
0.00424069
0.00448518
0.00466898
0.00478489
0.00482581
0.0047893
0.00468184
0.00452044
0.00432989
0.0041361
0.00395918
0.0038097
0.00368933
0.00359393
0.00351791
0.00345745
0.00340991
0.00112352
0.00157871
0.00210932
0.0026603
0.00316766
0.00359191
0.00394728
0.00424222
0.00447865
0.00465258
0.00475642
0.00478299
0.00473059
0.00460761
0.00443402
0.0042374
0.00404492
0.00387576
0.00373813
0.00363127
0.00354943
0.00348625
0.0034374
0.00340034
0.00111018
0.0015757
0.00211112
0.00266319
0.00317396
0.00359647
0.00394778
0.00423709
0.00446664
0.00463226
0.00472602
0.00474056
0.00467477
0.0045389
0.00435567
0.00415522
0.00396561
0.00380474
0.00367841
0.00358363
0.00351345
0.00346105
0.00342175
0.00339299
0.00108965
0.00156823
0.00210785
0.00265907
0.00317276
0.00359407
0.00394205
0.0042266
0.00445051
0.0046095
0.00469527
0.00470021
0.00462363
0.00447738
0.00428674
0.00408415
0.00389822
0.00374548
0.0036294
0.00354511
0.00348472
0.00344117
0.00340972
0.00338752
0.00106146
0.0015542
0.00210039
0.00265294
0.00316504
0.00358592
0.00393132
0.00421194
0.00443145
0.00458549
0.00466545
0.00466331
0.00457857
0.00442435
0.00422819
0.00402452
0.00384241
0.00369704
0.00358987
0.00351441
0.00346209
0.00342571
0.00340054
0.00338348
0.00102503
0.00153761
0.00208925
0.00263983
0.00315611
0.00357531
0.00391684
0.00419426
0.00441051
0.00456124
0.00463757
0.00463091
0.00454068
0.00438081
0.00418068
0.00397649
0.00379775
0.00365854
0.00355867
0.0034904
0.00344462
0.00341398
0.00339369
0.00338056
0.000979347
0.00152197
0.00208082
0.00262738
0.00313855
0.00356209
0.0039026
0.00417626
0.00438851
0.00453754
0.00461237
0.00460376
0.00451074
0.0043475
0.00414473
0.00394016
0.00376388
0.00362929
0.00353495
0.00347218
0.00343144
0.00340526
0.0033887
0.00337861
0.0009248
0.00151532
0.00208079
0.00261917
0.00312151
0.00354376
0.00388316
0.0041566
0.00436929
0.00451635
0.00459026
0.00458221
0.00448923
0.00432491
0.00412072
0.00391564
0.00374059
0.0036088
0.00351809
0.00345911
0.00342197
0.00339904
0.00338513
0.00337736
0.000899541
0.00154428
0.00209816
0.00261889
0.00310748
0.00352587
0.00386126
0.00413247
0.0043456
0.0044963
0.00457421
0.00456819
0.00447643
0.0043132
0.00410885
0.003903
0.00372774
0.00359675
0.00350768
0.00345077
0.00341584
0.00339474
0.00338281
0.00337658
1.06389e-06
7.29382e-06
2.96424e-05
6.09127e-05
9.68624e-05
0.000135408
3.24067e-05
4.07874e-05
9.43223e-05
0.000164746
0.00026877
0.000475907
0.000199824
0.000101905
0.000187599
0.000307174
0.000488579
0.000809371
5.13445e-05
0.000165841
0.000281127
0.000450099
0.000695261
0.00104625
5.55563e-05
0.000223925
0.000371781
0.000582472
0.000866837
0.00121173
5.92716e-05
0.000275995
0.000456803
0.000698844
0.00100112
0.00132601
6.21052e-05
0.000322325
0.000534027
0.000797731
0.00110345
0.00140945
6.42172e-05
0.000360944
0.000601863
0.000879883
0.0011843
0.00146635
6.57513e-05
0.000391881
0.000659176
0.000948003
0.00124269
0.00150682
6.68113e-05
0.000415272
0.000705066
0.0010011
0.00128626
0.00153545
6.74692e-05
0.00043124
0.000739953
0.00104101
0.00131806
0.00155517
6.77726e-05
0.0004395
0.000762847
0.00106818
0.00133999
0.00156775
6.77832e-05
0.000438775
0.000773662
0.00108269
0.00135282
0.00157404
6.76732e-05
0.000427634
0.00077254
0.00108496
0.00135598
0.00157407
6.73844e-05
0.000407445
0.000759138
0.00107501
0.00134869
0.00156689
6.68589e-05
0.00038007
0.000733148
0.00105206
0.00132996
0.00155173
6.60287e-05
0.000347242
0.000694959
0.00101512
0.00129579
0.00152822
6.48036e-05
0.000310637
0.000644014
0.000961889
0.00124378
0.00148575
6.30508e-05
0.000271775
0.000581805
0.000891655
0.00116833
0.00141627
6.05624e-05
0.000229967
0.000509143
0.000795195
0.00106497
0.0013081
5.70366e-05
0.00018773
0.000421408
0.000668668
0.000920032
0.00113714
5.2036e-05
0.000140808
0.000312402
0.000502199
0.000705715
0.000868039
3.80324e-05
7.73429e-05
0.000173061
0.000288272
0.000415356
0.000459002
1.31029e-06
6.33496e-06
2.3595e-05
5.84389e-05
0.000120327
4.79106e-05
0.000971544
0.00163133
0.00213877
0.00262875
0.00309802
0.00350873
0.00383921
0.00410797
0.00432083
0.00447382
0.00455663
0.00455767
0.00447272
0.00431285
0.00410919
0.00390232
0.00372533
0.00359304
0.00350353
0.00344684
0.00341255
0.00339225
0.00338154
0.00337624
0.00123652
0.00176409
0.0021983
0.00264743
0.00309306
0.00349194
0.00381653
0.00408286
0.00429617
0.0044526
0.00454169
0.00455113
0.00447484
0.00432206
0.00412162
0.00391384
0.00373361
0.00359777
0.00350551
0.00344728
0.00341194
0.00339169
0.00338121
0.00337614
0.00144119
0.00187852
0.00225767
0.00266865
0.00309015
0.00347425
0.00379239
0.00405652
0.00427094
0.00443183
0.00452876
0.00454883
0.00448417
0.00434123
0.004146
0.00393789
0.00375334
0.00361182
0.00351455
0.00345265
0.00341503
0.00339326
0.00338191
0.00337634
0.00157694
0.00196195
0.00230558
0.00268601
0.00308558
0.00345394
0.00376568
0.0040281
0.00424436
0.00441066
0.0045168
0.00454952
0.00449926
0.00436928
0.00418195
0.00397473
0.00378521
0.00363603
0.00353131
0.00346354
0.00342202
0.00339708
0.00338372
0.00337692
0.00165887
0.0020138
0.00233725
0.00269491
0.00307563
0.0034291
0.00373515
0.00399666
0.00421556
0.00438817
0.0045047
0.00455182
0.00451852
0.00440477
0.00422856
0.0040243
0.00382998
0.00367163
0.00355707
0.00348096
0.00343309
0.00340399
0.00338702
0.00337805
0.00171188
0.00203998
0.00235209
0.00269296
0.00305681
0.00339796
0.00369953
0.00396114
0.0041836
0.00436338
0.0044913
0.00455426
0.00454017
0.00444583
0.0042844
0.00408612
0.00388825
0.0037199
0.00359333
0.0035063
0.00344972
0.00341413
0.00339254
0.00338004
0.00174679
0.00204979
0.00235133
0.00267885
0.00302727
0.00335902
0.00365763
0.00392049
0.00414748
0.00433525
0.00447535
0.00455525
0.0045622
0.00449019
0.00434743
0.00415905
0.00396015
0.00378208
0.00364185
0.0035413
0.00347332
0.00342881
0.0034005
0.00338313
0.00176894
0.00204856
0.0023359
0.00265147
0.0029867
0.00331122
0.00360833
0.00387364
0.00410614
0.00430267
0.00445561
0.0045532
0.00458252
0.0045353
0.00441505
0.00424115
0.00404504
0.00385896
0.00370436
0.00358796
0.00350567
0.00344935
0.00341176
0.0033876
0.00178179
0.00203874
0.00230914
0.00261126
0.00293496
0.00325377
0.00355062
0.00381949
0.00405848
0.00426451
0.00443079
0.00454653
0.00459904
0.00457848
0.00448419
0.00432964
0.00414135
0.00395061
0.00378231
0.00364839
0.00354879
0.00347735
0.00342752
0.003394
0.00178777
0.00202245
0.0022733
0.00255989
0.00287225
0.00318608
0.00348356
0.00375696
0.00400333
0.00421957
0.00439961
0.00453371
0.00460977
0.00461703
0.00455148
0.00442097
0.00424627
0.00405585
0.00387634
0.00372445
0.00360494
0.00351478
0.00344909
0.00340292
0.00178876
0.00200171
0.00223063
0.00249906
0.00279907
0.00310779
0.00340631
0.00368494
0.00393949
0.00416659
0.00436076
0.00451326
0.00461283
0.00464838
0.00461343
0.00451094
0.00435571
0.00417183
0.00398554
0.00381703
0.00367603
0.00356371
0.00347798
0.00341491
0.00178614
0.00197838
0.00218345
0.00243071
0.00271628
0.00301883
0.00331815
0.00360236
0.0038657
0.00410424
0.00431285
0.0044837
0.00460645
0.00467012
0.00466664
0.00459506
0.00446455
0.00429392
0.00410695
0.00392536
0.00376304
0.00362585
0.00351565
0.00343048
0.00178078
0.0019542
0.00213418
0.00235712
0.00262519
0.00291946
0.00321858
0.00350823
0.00378067
0.00403111
0.00425444
0.00444354
0.00458893
0.00468008
0.00470801
0.00466891
0.00456712
0.00441601
0.00423541
0.00404629
0.00386509
0.00370191
0.0035632
0.00345004
0.0017729
0.00193056
0.0020852
0.00228089
0.00252766
0.0028105
0.00310748
0.00340174
0.00368321
0.00394576
0.00418401
0.0043912
0.00455864
0.0046763
0.00473486
0.00472854
0.00465789
0.00453128
0.00436385
0.00417403
0.00397865
0.00379066
0.00362074
0.0034736
0.00176166
0.00190845
0.00203865
0.00220487
0.00242619
0.00269341
0.00298523
0.00328242
0.00357224
0.00384681
0.00409998
0.0043251
0.00451396
0.00465705
0.00474497
0.0047707
0.00473198
0.004633
0.00448427
0.00430055
0.0040972
0.00388801
0.00368644
0.00350038
0.00174371
0.00188865
0.00199604
0.00213185
0.00232381
0.00257045
0.00285292
0.00315032
0.00344706
0.00373301
0.00400086
0.00424361
0.00445328
0.00462071
0.00473653
0.00479291
0.00478559
0.00471544
0.0045889
0.00441678
0.00421175
0.00398667
0.00375567
0.00352811
0.00171671
0.00186927
0.00195742
0.00206409
0.00222388
0.00244471
0.00271259
0.00300626
0.00330747
0.00360349
0.00388531
0.0041452
0.00437505
0.0045658
0.00470806
0.00479341
0.00481608
0.0047744
0.0046714
0.00451422
0.00431243
0.00407689
0.00382062
0.00355232
0.00168714
0.00183892
0.00192044
0.00200266
0.00212962
0.00231999
0.00256729
0.00285205
0.0031541
0.00345792
0.00375239
0.00402858
0.00427783
0.00449095
0.00465832
0.00477097
0.00482188
0.00480733
0.00472753
0.00458639
0.00439045
0.00414831
0.00387107
0.0035658
0.00164815
0.0017917
0.00188297
0.00194733
0.00204351
0.00220035
0.00242105
0.00269066
0.00298859
0.00329681
0.00360176
0.00389284
0.00416048
0.00439497
0.0045863
0.0047248
0.00480229
0.00481322
0.00475533
0.00462965
0.0044399
0.00419237
0.00389641
0.00355891
0.00158389
0.00172044
0.00184153
0.00189597
0.00196653
0.00208946
0.00227856
0.00252626
0.00281387
0.0031218
0.00343399
0.0037378
0.00402234
0.00427708
0.00449131
0.00465453
0.00475732
0.00479233
0.00475496
0.00464347
0.00445871
0.00420445
0.00388835
0.0035211
0.00146677
0.00161938
0.00178651
0.00184333
0.00189724
0.00198959
0.00214445
0.00236393
0.0026342
0.00293583
0.00325076
0.00356419
0.00386353
0.00413708
0.0043732
0.00456034
0.0046877
0.00474607
0.00472845
0.0046302
0.00444899
0.00418524
0.00384378
0.00344333
0.00125957
0.00146588
0.00170182
0.00178062
0.00183122
0.00190068
0.00202232
0.0022091
0.00245497
0.00274326
0.00305518
0.00337396
0.00368518
0.00397568
0.00423263
0.00444326
0.00459526
0.0046774
0.00468009
0.00459558
0.00441769
0.00414199
0.00376733
0.00332112
0.000871409
0.00124865
0.00156024
0.00169798
0.00176125
0.00181966
0.00191358
0.00206645
0.00228213
0.0025497
0.00285175
0.00317044
0.00348966
0.00379468
0.00407136
0.0043056
0.0044835
0.00459176
0.00461808
0.00455118
0.00438019
0.00409356
0.00367817
0.0031603
0.000328766
0.000861838
0.0012925
0.0015685
0.00167294
0.00173856
0.00181582
0.00193839
0.00212107
0.00236144
0.00264624
0.00295831
0.00328056
0.00359695
0.00389211
0.00415079
0.00435777
0.00449808
0.00455713
0.00452044
0.00437248
0.00409388
0.00365478
0.00301821
9.80261e-07
5.7839e-06
1.88135e-05
3.89944e-05
6.01401e-05
9.37675e-05
3.15395e-05
7.58423e-05
0.000139616
0.000195913
0.000233599
0.00025572
4.77355e-05
0.000145224
0.000255887
0.000337761
0.000381473
0.000388969
5.26529e-05
0.000196307
0.000344243
0.000444185
0.000497758
0.000509397
5.6387e-05
0.00023748
0.000412807
0.000526162
0.000589609
0.000615042
5.92766e-05
0.000274269
0.000467512
0.000591323
0.00066451
0.00070256
6.1534e-05
0.000307765
0.000512711
0.000644469
0.000727212
0.000775239
6.32983e-05
0.000337852
0.000549937
0.000687802
0.000779137
0.000836599
6.46655e-05
0.00036401
0.000579611
0.000722225
0.000821215
0.000887341
6.5708e-05
0.000385214
0.000601646
0.000748246
0.000854374
0.000928265
6.64895e-05
0.00040032
0.000615873
0.000766166
0.00087955
0.000961275
6.70024e-05
0.000408714
0.000622193
0.000775997
0.000897117
0.000988262
6.7122e-05
0.000410776
0.000619945
0.000777186
0.000906845
0.00100791
6.69075e-05
0.000407137
0.000610095
0.000770002
0.000908159
0.00102014
6.62842e-05
0.000397617
0.000591666
0.000753501
0.000900579
0.00102637
6.52336e-05
0.000381939
0.000564276
0.000726814
0.000881919
0.00102422
6.37157e-05
0.000359698
0.000527639
0.000688785
0.000850638
0.00101152
6.16613e-05
0.00033049
0.000481834
0.000637871
0.000803278
0.000985069
5.89442e-05
0.00029399
0.000426352
0.000572301
0.000734765
0.000939936
5.53437e-05
0.0002496
0.000360834
0.00049159
0.000644318
0.000868101
5.10913e-05
0.000197075
0.000285366
0.000395371
0.000529498
0.000749262
0.000199317
0.000135525
0.000200361
0.000284584
0.000392164
0.000567835
3.32406e-05
6.44491e-05
0.000105177
0.000163938
0.000241167
0.000332683
9.4022e-07
6.15261e-06
2.16158e-05
5.61191e-05
0.000114416
0.000198864
0.000215584
0.00064373
0.00106866
0.0014045
0.0015696
0.0016538
0.00172587
0.00182521
0.00197571
0.00218452
0.00244509
0.00274328
0.00306244
0.00338595
0.00369772
0.00398195
0.00422316
0.00440637
0.00451731
0.00454259
0.00447173
0.00430884
0.00410574
0.00397726
0.000168788
0.000510697
0.000869066
0.00120691
0.00145502
0.00156342
0.00164017
0.0017251
0.00184775
0.00202374
0.00225463
0.00253161
0.00284045
0.00316521
0.00348999
0.00379955
0.00407984
0.00431871
0.00450638
0.00463566
0.00470303
0.0047148
0.00469757
0.00469673
0.00023378
0.000435191
0.000738799
0.00105911
0.00132519
0.00147151
0.0015578
0.00163602
0.00173697
0.00188194
0.00208012
0.00232945
0.0026201
0.00293845
0.00327001
0.00360119
0.00392051
0.00421921
0.00449084
0.0047293
0.00492702
0.00507692
0.00517575
0.00525099
0.000387515
0.000415141
0.000641805
0.000909487
0.00117726
0.0013795
0.00147719
0.00155498
0.00164123
0.00175959
0.00192501
0.00214225
0.00240724
0.00271038
0.00304003
0.00338538
0.00373811
0.0040924
0.00444218
0.00477672
0.00507842
0.00531973
0.00550013
0.00561347
0.000568521
0.000453707
0.000602187
0.000801475
0.00104428
0.00126717
0.0013954
0.00147837
0.00155697
0.0016549
0.00179045
0.00197398
0.00220755
0.00248676
0.00280421
0.00315288
0.00352819
0.00392685
0.00434179
0.00475585
0.00513879
0.00544483
0.00569014
0.00582622
0.00069921
0.000533224
0.000612231
0.000728752
0.000931877
0.00114821
0.00131401
0.00140436
0.00148077
0.00156479
0.00167547
0.00182672
0.00202581
0.00227391
0.00256867
0.00290766
0.00329052
0.00371687
0.00417924
0.00465534
0.00509666
0.00546546
0.00575672
0.00591566
0.000793034
0.000653498
0.00065134
0.000701
0.0008459
0.00103767
0.00121709
0.00132611
0.00140764
0.00148492
0.00157719
0.00170025
0.00186508
0.00207772
0.00234088
0.002657
0.00303026
0.003464
0.00395224
0.00447043
0.00495694
0.00537827
0.00570696
0.00589179
0.000867231
0.000778036
0.000719881
0.000719283
0.000794788
0.000947447
0.00111635
0.00124612
0.0013349
0.00141095
0.00149152
0.00159232
0.00172619
0.00190254
0.00212834
0.00241041
0.00275735
0.00317697
0.00366729
0.00420554
0.00472442
0.00518678
0.00554577
0.00576021
0.000928674
0.000882851
0.000804516
0.000777051
0.000779968
0.00088393
0.00102925
0.00115737
0.00125867
0.00133907
0.00141431
0.00149945
0.00160776
0.0017504
0.00193705
0.00217776
0.00248466
0.00287012
0.00333817
0.00387209
0.0044084
0.00489765
0.00528369
0.00552534
0.000979654
0.000964556
0.000894468
0.000853161
0.000800612
0.000856089
0.000961793
0.00108009
0.00118269
0.00126735
0.00134168
0.00141743
0.00150668
0.00162075
0.00177043
0.00196734
0.00222562
0.0025611
0.00298438
0.00348811
0.00402406
0.00452229
0.00493613
0.00519432
0.00102153
0.00102866
0.000981033
0.000927701
0.000875654
0.000849655
0.000922554
0.00101997
0.00111348
0.00119786
0.0012721
0.00134271
0.00141904
0.001511
0.00162893
0.00178438
0.00199161
0.00226788
0.00262898
0.0030779
0.00359141
0.00407985
0.0045116
0.00478219
0.00105804
0.00108047
0.00105531
0.00100633
0.000961036
0.000891521
0.000906185
0.000975604
0.00105512
0.00113418
0.00120651
0.00127358
0.00134141
0.0014174
0.00151023
0.00163006
0.00178962
0.00200526
0.00229512
0.00267142
0.00312736
0.00359979
0.00402413
0.0043081
0.0010868
0.00112247
0.00111674
0.00108075
0.0010425
0.00096696
0.000934315
0.000957027
0.00101572
0.00108197
0.00114814
0.00121076
0.00127198
0.00133672
0.00141088
0.00150243
0.00162163
0.00178206
0.00200074
0.00229438
0.00266902
0.00310374
0.00349976
0.00379314
0.00111088
0.00115781
0.00116685
0.00114899
0.00111368
0.00106193
0.000995586
0.000982339
0.00100463
0.00104969
0.00110314
0.0011578
0.00121191
0.00126735
0.00132785
0.00139826
0.00148592
0.00160091
0.00175672
0.00196972
0.00225414
0.00261001
0.00298162
0.00325929
0.00113126
0.00118861
0.00120918
0.00120586
0.00118214
0.00114604
0.00108187
0.0010456
0.00103635
0.00105176
0.00108338
0.00112309
0.00116626
0.00121167
0.00126025
0.00131459
0.00137882
0.00145939
0.00156546
0.0017095
0.00190643
0.00216792
0.00248416
0.00274261
0.00114694
0.00121569
0.00124522
0.00125416
0.00124514
0.00122093
0.00117757
0.0011307
0.00110475
0.00109464
0.00110073
0.00111909
0.00114542
0.00117691
0.00121246
0.0012523
0.00129814
0.0013533
0.00142294
0.0015147
0.00163939
0.00181053
0.00203678
0.00227416
0.00115725
0.00124017
0.00127703
0.00129548
0.00129964
0.00128857
0.00126549
0.00122751
0.0011971
0.00117316
0.001159
0.00115538
0.00116113
0.00117441
0.0011936
0.00121768
0.0012466
0.00128141
0.00132435
0.00137914
0.00145152
0.0015504
0.00169023
0.00187589
0.00116058
0.00126307
0.00130682
0.00133211
0.00134693
0.00134998
0.00134058
0.00132211
0.00129622
0.00127142
0.00124819
0.00122965
0.00121746
0.00121202
0.0012129
0.00121932
0.00123068
0.00124683
0.00126828
0.00129625
0.00133302
0.00138228
0.001452
0.00157547
0.00115349
0.00128489
0.00133686
0.00136706
0.00138931
0.00140302
0.00140712
0.00140157
0.00138884
0.00137059
0.00134856
0.00132546
0.00130376
0.00128518
0.00127067
0.00126056
0.00125478
0.00125317
0.00125565
0.00126236
0.00127381
0.00129126
0.00131389
0.00138205
0.0011348
0.00130478
0.00136898
0.0014036
0.00143063
0.00145124
0.00146437
0.00146905
0.00146562
0.00145652
0.00144135
0.00142113
0.00139849
0.00137523
0.00135273
0.00133197
0.00131358
0.00129785
0.00128488
0.00127471
0.00126722
0.00126348
0.00125812
0.00128639
0.001104
0.00131903
0.00140339
0.00144407
0.0014756
0.00150056
0.00151828
0.00152844
0.00153105
0.001527
0.00151719
0.00150212
0.00148279
0.00146086
0.00143734
0.00141323
0.00138959
0.00136677
0.00134473
0.00132395
0.00130418
0.00128707
0.00126755
0.00127277
0.00105481
0.00132468
0.00143727
0.00148734
0.0015262
0.00155664
0.00157798
0.00159014
0.00159445
0.001592
0.00158361
0.00157032
0.00155288
0.00153224
0.00150975
0.00148645
0.0014631
0.00144092
0.00141969
0.00139851
0.00137712
0.00135397
0.00132703
0.00132111
0.000981153
0.0013219
0.00146386
0.00152599
0.00157701
0.00161813
0.00164729
0.00166381
0.00166959
0.00166771
0.00165845
0.00164372
0.00162498
0.00160353
0.00158054
0.00155688
0.00153316
0.00150979
0.00148847
0.0014708
0.00145777
0.0014513
0.00144772
0.00145256
0.000908623
0.00131403
0.00147344
0.00154478
0.00160755
0.00166282
0.00170867
0.0017385
0.00175402
0.00176016
0.00175575
0.00174315
0.00172458
0.00170209
0.00167751
0.00165241
0.0016281
0.0016057
0.00158611
0.00156987
0.00155724
0.00154909
0.00154873
0.00156031
7.29847e-07
4.31463e-06
2.3817e-05
6.24233e-05
0.000119001
0.000199669
2.62087e-05
2.59217e-05
8.25061e-05
0.000162806
0.00027674
0.000485505
0.000159352
6.68057e-05
0.000165039
0.000283198
0.000448139
0.00070745
0.000179938
0.000112203
0.000243416
0.000391792
0.000588915
0.000842077
0.000193753
0.0001572
0.000312135
0.000482534
0.000691072
0.000907387
4.76366e-05
0.00019802
0.000370068
0.000553642
0.00075719
0.000931235
4.91225e-05
0.000233689
0.000417372
0.000607092
0.000793126
0.000933076
5.0238e-05
0.000262731
0.000454433
0.00064294
0.000809455
0.000919844
5.10178e-05
0.000284956
0.000481749
0.00066456
0.000812603
0.000897516
5.1496e-05
0.00030044
0.000500191
0.000674969
0.000806024
0.000870594
5.16826e-05
0.000309327
0.000510378
0.000676489
0.000792497
0.000841684
5.16423e-05
0.000311546
0.000512916
0.000670466
0.00077396
0.000811985
5.13973e-05
0.000306362
0.000508093
0.000657765
0.000751378
0.000781466
5.10282e-05
0.000293772
0.000496113
0.000638992
0.000724837
0.000748891
5.05068e-05
0.000275303
0.000477313
0.00061445
0.000693844
0.000712454
4.98042e-05
0.000252818
0.000452346
0.000584271
0.000657663
0.000669749
4.88699e-05
0.000228567
0.000422378
0.000548517
0.000615574
0.000618886
4.7429e-05
0.000206463
0.000389163
0.000507098
0.000566954
0.000561364
0.00019507
0.000200123
0.000354343
0.000459187
0.000510872
0.000496082
0.000187948
0.000188991
0.000314151
0.000402662
0.00044631
0.00041992
0.000177203
0.000166613
0.00026153
0.000332837
0.000370453
0.000340177
0.00016254
0.000125114
0.000191278
0.000245518
0.000277962
0.000260614
2.88266e-05
5.86091e-05
9.63146e-05
0.000132051
0.000155871
0.000179747
8.96595e-07
3.31907e-06
8.34164e-06
1.72754e-05
2.81751e-05
5.13397e-05
0.000946896
0.00130954
0.001453
0.00152163
0.00158787
0.00165133
0.00171421
0.00175609
0.00178692
0.00181078
0.0018231
0.00182585
0.00182092
0.00181019
0.00179543
0.00177831
0.00176031
0.00174281
0.00172696
0.00171369
0.00170365
0.00169732
0.00169539
0.00169654
0.00104021
0.00129821
0.00140469
0.00146738
0.0015342
0.00160476
0.0016784
0.00173085
0.00177148
0.00180719
0.00183203
0.00184734
0.00185455
0.00185522
0.00185089
0.00184306
0.00183315
0.00182248
0.00181228
0.00180368
0.00179763
0.00179484
0.00179552
0.00179867
0.00109085
0.00126663
0.00133719
0.00138498
0.00144175
0.0015053
0.00157486
0.00163302
0.00168003
0.00172843
0.00176975
0.00180339
0.00182985
0.00184996
0.00186466
0.00187497
0.00188155
0.0018852
0.00188671
0.00188686
0.00188641
0.00188611
0.00188656
0.00188807
0.00110176
0.00121547
0.00124762
0.00127324
0.00131128
0.00135895
0.00141529
0.00147394
0.00152379
0.00157618
0.00162768
0.00167426
0.00171684
0.00175492
0.00178843
0.00181742
0.00184225
0.0018632
0.0018807
0.00189545
0.00190796
0.00191876
0.00192839
0.00193721
0.00108844
0.001146
0.00114407
0.00114443
0.0011607
0.00119103
0.00123279
0.00128083
0.00132588
0.0013759
0.00142854
0.00148226
0.00153307
0.00157904
0.0016203
0.00165736
0.0016906
0.00172035
0.00174661
0.00176935
0.00178898
0.00180592
0.0018201
0.00183366
0.00105598
0.00106739
0.00103486
0.00100966
0.0010035
0.00101524
0.00104364
0.00108538
0.00114583
0.00121239
0.00127939
0.00134319
0.0014049
0.00146077
0.00151065
0.00155556
0.00159536
0.00163009
0.00166013
0.00168593
0.00170792
0.00172671
0.00174178
0.00175719
0.00101112
0.000986745
0.000927129
0.000877417
0.000848951
0.000840838
0.00085482
0.000892997
0.000935414
0.000983174
0.00103505
0.00109161
0.0011497
0.00120641
0.00125957
0.00130901
0.00135407
0.00139432
0.00142957
0.00145981
0.00148506
0.0015063
0.00152185
0.00153838
0.000961651
0.000909452
0.00082689
0.000755155
0.000706788
0.000682568
0.000674358
0.000673977
0.00069091
0.00072108
0.000761187
0.000807947
0.000858396
0.000909576
0.000959173
0.00100543
0.00104721
0.00108379
0.00111473
0.00114014
0.0011595
0.00117583
0.00118409
0.00119669
0.000912425
0.00083951
0.000739598
0.000654765
0.000591025
0.000550863
0.000519654
0.000500248
0.000507195
0.000528499
0.000561648
0.000602929
0.000650518
0.000699251
0.000746483
0.000790173
0.00082909
0.000862681
0.000890317
0.000912523
0.000927258
0.000937897
0.000937367
0.00094021
0.000866321
0.000779424
0.000669423
0.000578091
0.000511753
0.000471334
0.00042115
0.000414698
0.000438394
0.000486454
0.000544615
0.000605955
0.00066092
0.000710344
0.000754839
0.000794737
0.000829
0.000858499
0.000884403
0.000908481
0.000930824
0.000955271
0.000978044
0.00102849
0.000824507
0.000729406
0.000614768
0.000518513
0.000457958
0.000422573
0.000379214
0.000395078
0.000444113
0.00050803
0.000578755
0.000647249
0.000713154
0.000777586
0.000839366
0.000897679
0.000954184
0.00100841
0.00106153
0.00111752
0.0011808
0.00125473
0.00134352
0.00146056
0.000786319
0.000686957
0.000569946
0.000473947
0.000424315
0.000370968
0.00036515
0.000407321
0.00047395
0.000551345
0.00062916
0.000706678
0.000784726
0.000864651
0.000948575
0.00103777
0.00113249
0.00123242
0.00133687
0.00144646
0.00156943
0.00172229
0.00190596
0.00207743
0.000748762
0.000646162
0.000526691
0.000430451
0.000398322
0.000344755
0.00036873
0.000438279
0.000530237
0.000631522
0.000734913
0.000836861
0.000937045
0.00103568
0.00113402
0.0012356
0.00134608
0.0014724
0.00162172
0.00180122
0.00201556
0.00226907
0.00253696
0.00273566
0.000707785
0.000601756
0.000476458
0.000396405
0.000350894
0.000335339
0.000401834
0.00050287
0.000620386
0.00074629