/*--------------------------------*- C++ -*----------------------------------*\
  =========                 |
  \\      /  F ield         | OpenFOAM: The Open Source CFD Toolbox
   \\    /   O peration     | Website:  https://openfoam.org
    \\  /    A nd           | Version:  11
     \\/     M anipulation  |
\*---------------------------------------------------------------------------*/
FoamFile
{
    format      ascii;
    class       volScalarField;
    location    "1.74";
    object      p;
}
// * * * * * * * * * * * * * * * * * * * * * * * * * * * * * * * * * * * * * //

dimensions      [0 2 -2 0 0 0 0];

internalField   nonuniform List<scalar> 
2880
(
1.11801
1.14133
1.16297
1.17217
1.11393
0.862735
1.11907
1.13746
1.14757
1.1443
1.04751
0.85748
1.11991
1.13214
1.13276
1.1197
1.02487
0.861814
1.11927
1.12728
1.12227
1.10273
1.01679
0.876601
1.11868
1.12385
1.11565
1.09239
1.01558
0.89314
1.11835
1.12158
1.11143
1.08649
1.01642
0.90765
1.1179
1.11997
1.10861
1.08313
1.01775
0.920456
1.1172
1.1187
1.10671
1.081
1.01958
0.93203
1.1163
1.11752
1.10541
1.07961
1.02199
0.942684
1.11529
1.11629
1.10452
1.07891
1.025
0.952571
1.11423
1.11497
1.10397
1.079
1.02867
0.961736
1.11315
1.11356
1.10375
1.07984
1.03282
0.97057
1.11206
1.11213
1.10386
1.08145
1.03762
0.978974
1.11096
1.11078
1.10426
1.08378
1.04302
0.987007
1.10993
1.10958
1.10492
1.08671
1.04894
0.994709
1.10905
1.10858
1.10573
1.0901
1.05524
1.00206
1.10842
1.10786
1.10656
1.09377
1.06177
1.00899
1.10805
1.1074
1.10726
1.0975
1.06826
1.01529
1.10782
1.10707
1.10756
1.10097
1.07423
1.02048
1.10708
1.10661
1.10716
1.10373
1.07903
1.02403
1.10577
1.10567
1.10566
1.10496
1.08224
1.02634
1.10575
1.10405
1.10283
1.10366
1.08368
1.02787
1.10745
1.10216
1.09898
1.09955
1.08174
1.0157
1.10854
1.10054
1.09496
1.09396
1.06659
0.92966
-0.0428951
-0.0482764
0.00890884
0.0384501
0.0604417
0.0798821
0.0971713
0.112849
0.127205
0.140333
0.152304
0.16321
0.173153
0.18223
0.190528
0.19812
0.205076
0.21146
0.217254
0.222208
0.226461
0.233707
0.25061
0.248122
0.266843
0.140005
0.147383
0.149421
0.151084
0.156136
0.163117
0.170937
0.179026
0.187028
0.194736
0.202046
0.208917
0.215338
0.221311
0.226845
0.231958
0.236689
0.241062
0.244898
0.247777
0.250921
0.262038
0.29148
0.457988
0.302404
0.268085
0.246963
0.233187
0.226776
0.225024
0.225962
0.228464
0.231842
0.235664
0.239663
0.243673
0.247583
0.251313
0.254796
0.257979
0.260846
0.26336
0.265155
0.265519
0.266567
0.279834
0.30589
0.585007
0.430334
0.369328
0.331873
0.306777
0.291347
0.282374
0.277469
0.275147
0.274474
0.274852
0.275892
0.277331
0.27898
0.280692
0.282341
0.283833
0.285115
0.286061
0.286112
0.284801
0.286373
0.303107
0.31551
0.671073
0.528215
0.453578
0.40513
0.371861
0.349638
0.334963
0.325265
0.318887
0.314748
0.312148
0.310614
0.309813
0.3095
0.309475
0.309575
0.30968
0.30972
0.309518
0.308448
0.306346
0.308617
0.327121
0.332069
0.732121
0.602394
0.52261
0.46785
0.429091
0.401915
0.382856
0.369313
0.359595
0.35256
0.347445
0.343727
0.341027
0.339058
0.337584
0.336415
0.335409
0.334481
0.333423
0.331581
0.32897
0.331512
0.350603
0.351635
0.777027
0.659682
0.579395
0.521477
0.479222
0.448564
0.426201
0.409664
0.397268
0.387865
0.380675
0.375145
0.370872
0.367538
0.364882
0.36269
0.360806
0.359133
0.357439
0.355058
0.352109
0.354731
0.373831
0.372643
0.811172
0.704869
0.626357
0.567315
0.523023
0.490025
0.465273
0.446459
0.431964
0.42067
0.411804
0.404806
0.399257
0.394821
0.391218
0.388214
0.385643
0.383394
0.381222
0.378457
0.375289
0.377898
0.396632
0.394147
0.838074
0.741208
0.665471
0.606513
0.561244
0.526784
0.500375
0.479882
0.463785
0.451018
0.44083
0.43267
0.426111
0.420807
0.416461
0.412826
0.409724
0.407039
0.404515
0.401489
0.398207
0.400753
0.418827
0.41562
0.859958
0.770937
0.698254
0.640111
0.594584
0.559318
0.531824
0.510143
0.492862
0.478979
0.467778
0.458722
0.451386
0.445415
0.440502
0.436389
0.432889
0.429881
0.427108
0.423923
0.420615
0.423061
0.440229
0.43669
0.878257
0.795611
0.725916
0.668974
0.623671
0.588075
0.559938
0.537461
0.519339
0.504641
0.492689
0.482966
0.475052
0.468588
0.463257
0.458793
0.455005
0.45177
0.44883
0.445571
0.44231
0.444619
0.460676
0.457079
0.893868
0.816335
0.749391
0.693826
0.649049
0.613462
0.585014
0.56205
0.543367
0.528102
0.515618
0.505419
0.497094
0.490282
0.484658
0.47995
0.475965
0.472578
0.46954
0.466276
0.463119
0.465257
0.480035
0.476569
0.907347
0.83389
0.769392
0.71525
0.67118
0.635835
0.607327
0.584115
0.565094
0.549462
0.536624
0.526108
0.517511
0.51047
0.504656
0.499791
0.495682
0.492205
0.489122
0.485907
0.482896
0.484827
0.498196
0.494987
0.919076
0.848821
0.786457
0.733714
0.690453
0.655507
0.62712
0.603846
0.584659
0.56882
0.555772
0.545066
0.536308
0.529134
0.523212
0.518259
0.514083
0.510564
0.507479
0.504353
0.501515
0.50321
0.515075
0.512201
0.929291
0.861504
0.800982
0.749589
0.707185
0.672745
0.644612
0.621412
0.602194
0.586272
0.573125
0.562328
0.553496
0.546265
0.540297
0.53531
0.531112
0.527587
0.524529
0.521521
0.518874
0.520306
0.530615
0.528113
0.938117
0.872179
0.813258
0.763159
0.721642
0.687778
0.659992
0.636968
0.617818
0.601905
0.588744
0.57793
0.569089
0.561857
0.555891
0.550909
0.546721
0.543215
0.540207
0.537336
0.534887
0.536039
0.544777
0.542656
0.945576
0.880975
0.823487
0.774651
0.734044
0.700804
0.673429
0.650653
0.631641
0.615802
0.602685
0.591907
0.583103
0.575907
0.569977
0.565027
0.560871
0.557401
0.554456
0.551732
0.549483
0.550354
0.557553
0.555789
0.951593
0.887948
0.831819
0.78425
0.74458
0.711997
0.685074
0.66259
0.643761
0.628038
0.615003
0.604293
0.595553
0.588419
0.582543
0.577642
0.57353
0.570106
0.567231
0.564658
0.562616
0.563241
0.568982
0.567443
0.956012
0.893087
0.838365
0.79213
0.753424
0.721516
0.695063
0.672895
0.654271
0.638684
0.625748
0.61512
0.606456
0.599393
0.59358
0.588734
0.584671
0.581294
0.578484
0.576055
0.574222
0.574661
0.579005
0.577334
0.958694
0.89635
0.843197
0.798444
0.760751
0.729521
0.703529
0.681672
0.663253
0.647803
0.634964
0.624418
0.615828
0.608833
0.603082
0.598287
0.594266
0.590925
0.588165
0.585849
0.584169
0.584375
0.587404
0.585741
0.959549
0.897682
0.846416
0.803361
0.766732
0.736165
0.710602
0.689026
0.670786
0.655452
0.642695
0.632214
0.623685
0.616748
0.611049
0.606296
0.602308
0.598992
0.596266
0.594034
0.592436
0.592319
0.59423
0.593025
0.957621
0.897139
0.848293
0.807154
0.771565
0.741595
0.71639
0.695043
0.676939
0.661683
0.648976
0.638534
0.630043
0.623147
0.617487
0.612769
0.608807
0.60551
0.602815
0.600654
0.599112
0.598702
0.599723
0.598983
0.949647
0.895568
0.84951
0.810225
0.775485
0.745956
0.720988
0.699784
0.681754
0.666532
0.653836
0.643398
0.634916
0.628037
0.622399
0.617704
0.61376
0.610478
0.607807
0.605703
0.604208
0.60358
0.603931
0.603522
0.934653
0.895386
0.85104
0.812993
0.778711
0.749364
0.724465
0.703292
0.685259
0.670012
0.657282
0.646812
0.638307
0.631418
0.625783
0.621097
0.617163
0.613888
0.611231
0.609166
0.607699
0.606921
0.606822
0.606646
1.09532
1.0696
1.04203
1.01851
1.03784
1.09232
1.09883
1.07287
1.0457
1.02003
1.02715
1.04649
1.10211
1.0786
1.05121
1.02452
1.02125
1.01742
1.10251
1.08317
1.05531
1.02814
1.01743
1.00229
1.10045
1.08488
1.05694
1.02959
1.01311
0.991747
1.09762
1.08442
1.05677
1.02931
1.00806
0.982474
1.09497
1.08298
1.0555
1.02792
1.00272
0.974005
1.09163
1.08124
1.05361
1.02577
0.997254
0.96605
1.08789
1.07962
1.05146
1.02313
0.99164
0.958228
1.08442
1.07849
1.04937
1.02018
0.985831
0.95022
1.08177
1.07809
1.04759
1.01708
0.979807
0.941744
1.08035
1.07864
1.0463
1.01398
0.973523
0.932534
1.08041
1.08026
1.04562
1.01101
0.966921
0.92232
1.08208
1.08289
1.04574
1.00827
0.959944
0.91082
1.08524
1.0867
1.04665
1.00589
0.952539
0.897718
1.08966
1.0915
1.04839
1.00398
0.944667
0.882643
1.09497
1.09695
1.05089
1.00261
0.936367
0.865171
1.10067
1.10261
1.054
1.00183
0.927713
0.844887
1.10619
1.10794
1.05746
1.00172
0.918768
0.821541
1.11095
1.11248
1.06103
1.00266
0.909856
0.795162
1.11455
1.1161
1.06513
1.00594
0.902264
0.766755
1.1173
1.11971
1.07136
1.01356
0.898968
0.739632
1.12039
1.12436
1.08064
1.02435
0.902754
0.717206
1.12363
1.12774
1.08697
1.0258
0.915674
0.700554
0.948986
0.898293
0.853345
0.815634
0.781302
0.751854
0.726846
0.705581
0.687462
0.672131
0.659317
0.648773
0.640209
0.633284
0.627632
0.622941
0.619007
0.615733
0.613081
0.611033
0.609577
0.608711
0.608388
0.608351
0.953331
0.90282
0.856098
0.817766
0.783074
0.753333
0.728084
0.706628
0.68835
0.672877
0.659936
0.649278
0.640621
0.633629
0.627938
0.623227
0.619284
0.616004
0.613349
0.611298
0.609831
0.608937
0.608625
0.608635
0.949563
0.90392
0.857555
0.818762
0.783719
0.753631
0.728077
0.706369
0.687882
0.672227
0.659122
0.648315
0.639533
0.632445
0.626691
0.621945
0.617983
0.61469
0.612019
0.609941
0.608445
0.607617
0.607539
0.607473
0.944817
0.902107
0.857068
0.818208
0.782971
0.752574
0.726707
0.704718
0.685995
0.670134
0.65684
0.645861
0.636928
0.62972
0.623881
0.619084
0.615093
0.611781
0.609089
0.606965
0.605422
0.60472
0.605106
0.604875
0.939924
0.898473
0.854701
0.815958
0.780659
0.750017
0.723859
0.701589
0.682622
0.666545
0.653052
0.641886
0.632783
0.625435
0.619493
0.614631
0.610602
0.607267
0.604546
0.602361
0.60076
0.600257
0.601336
0.600831
0.934585
0.893476
0.850636
0.812003
0.77669
0.745852
0.719431
0.696896
0.677692
0.661402
0.64771
0.636355
0.627074
0.619572
0.613514
0.608574
0.604499
0.601137
0.598384
0.596129
0.594468
0.594252
0.596257
0.595281
0.928578
0.887276
0.844979
0.806355
0.771002
0.739993
0.713333
0.690554
0.671133
0.654646
0.640767
0.629228
0.619771
0.612111
0.605926
0.600897
0.596767
0.593371
0.59058
0.588238
0.586475
0.586526
0.589691
0.588509
0.921762
0.87988
0.837741
0.798987
0.763535
0.732354
0.705476
0.682482
0.662869
0.646211
0.632169
0.620466
0.610845
0.603029
0.596714
0.591588
0.587393
0.583951
0.581105
0.578644
0.576701
0.576925
0.581403
0.580507
0.913972
0.871168
0.828846
0.789825
0.754206
0.722841
0.695763
0.672587
0.65282
0.636028
0.621858
0.610023
0.600261
0.592307
0.585869
0.580645
0.576379
0.572886
0.569979
0.567381
0.565244
0.565694
0.571562
0.570579
0.90501
0.860929
0.818132
0.778727
0.742886
0.711331
0.684082
0.660767
0.640897
0.624023
0.609774
0.597851
0.587988
0.579925
0.573382
0.568072
0.563743
0.560204
0.557238
0.554503
0.552179
0.552915
0.560298
0.559031
0.89462
0.848868
0.805337
0.765472
0.729388
0.697664
0.670293
0.646904
0.626999
0.610111
0.59585
0.5839
0.57399
0.565862
0.559248
0.553876
0.5495
0.545927
0.542913
0.540049
0.537541
0.538581
0.547552
0.545959
0.882474
0.834593
0.790098
0.749749
0.713457
0.681633
0.654226
0.630857
0.611011
0.594201
0.580014
0.568116
0.55823
0.550097
0.54346
0.538061
0.533666
0.530081
0.527038
0.524061
0.521378
0.522721
0.533312
0.531383
0.868138
0.817597
0.771934
0.731144
0.694761
0.662974
0.635672
0.612459
0.592803
0.576191
0.562189
0.550445
0.54067
0.532609
0.526014
0.520639
0.516263
0.512697
0.509653
0.506592
0.503752
0.505393
0.517597
0.515344
0.851029
0.797224
0.750228
0.709126
0.672874
0.64136
0.614381
0.591519
0.572227
0.555971
0.542295
0.53083
0.521278
0.513385
0.506912
0.501625
0.49732
0.493815
0.490809
0.487705
0.484738
0.486666
0.500438
0.497907
0.830359
0.772648
0.724193
0.683028
0.647273
0.616395
0.590057
0.567817
0.549123
0.533426
0.520252
0.509222
0.500029
0.49242
0.486165
0.481048
0.476877
0.473486
0.470566
0.46747
0.464425
0.466629
0.481884
0.479164
0.805059
0.74283
0.692822
0.652021
0.617318
0.587605
0.562358
0.541109
0.523316
0.508435
0.495985
0.485578
0.476907
0.469722
0.463804
0.458953
0.454995
0.451781
0.449002
0.445977
0.442915
0.445384
0.461997
0.459224
0.77374
0.706334
0.654815
0.61509
0.582252
0.554444
0.5309
0.511129
0.494628
0.480883
0.469425
0.459871
0.451917
0.445322
0.439881
0.435412
0.43176
0.428796
0.426225
0.423342
0.420333
0.423055
0.440852
0.438215
0.734567
0.661053
0.608603
0.571061
0.541221
0.516304
0.495263
0.477598
0.462879
0.450662
0.440519
0.432089
0.425084
0.419275
0.414477
0.410526
0.407293
0.404669
0.402378
0.399714
0.396839
0.399792
0.418543
0.416292
0.68486
0.604077
0.552418
0.518668
0.493317
0.47255
0.455022
0.440243
0.427904
0.417685
0.409238
0.402248
0.396459
0.391666
0.387705
0.384437
0.381755
0.379577
0.377654
0.375297
0.372637
0.375778
0.395184
0.393656
0.620877
0.531785
0.484331
0.456608
0.43764
0.422566
0.409771
0.398817
0.38956
0.381892
0.37558
0.370392
0.366123
0.362608
0.359711
0.357319
0.355352
0.353751
0.352304
0.350352
0.347993
0.351245
0.370917
0.370608
0.538311
0.439833
0.402275
0.383633
0.373373
0.365828
0.35918
0.353141
0.347746
0.343266
0.33958
0.336595
0.334187
0.332245
0.330672
0.329386
0.328332
0.327476
0.326644
0.325223
0.323256
0.32648
0.345897
0.34764
0.43093
0.323655
0.304331
0.298816
0.299962
0.302013
0.303052
0.30306
0.302507
0.301855
0.301316
0.300964
0.300785
0.30074
0.300784
0.300872
0.300975
0.301083
0.301059
0.300354
0.298899
0.301843
0.320214
0.325603
0.280013
0.179533
0.188645
0.201643
0.217244
0.2311
0.241424
0.248689
0.253855
0.257747
0.260906
0.26363
0.26606
0.268255
0.270235
0.272004
0.273563
0.274922
0.275998
0.27633
0.27564
0.277832
0.293595
0.305975
0.0349365
0.0153353
0.0589141
0.0939093
0.126249
0.153669
0.174653
0.190265
0.202002
0.211118
0.218508
0.224741
0.230147
0.234914
0.239152
0.242926
0.246283
0.249268
0.251881
0.253836
0.254609
0.255872
0.266688
0.29147
-0.583741
-0.570466
-0.575615
-0.596333
-0.627211
-0.69932
-0.58594
-0.575936
-0.585159
-0.608901
-0.635383
-0.693836
-0.588434
-0.58241
-0.595553
-0.620388
-0.640207
-0.669235
-0.590855
-0.588123
-0.604256
-0.629352
-0.64686
-0.665795
-0.59363
-0.593568
-0.611601
-0.636781
-0.655457
-0.672151
-0.596875
-0.599293
-0.618306
-0.643536
-0.664386
-0.681107
-0.600401
-0.605294
-0.6246
-0.649763
-0.672501
-0.690959
-0.603978
-0.611319
-0.630425
-0.655365
-0.679503
-0.700299
-0.607419
-0.617116
-0.635665
-0.660222
-0.685284
-0.708306
-0.610586
-0.622499
-0.640233
-0.664245
-0.689771
-0.714539
-0.613394
-0.627331
-0.644095
-0.667389
-0.69296
-0.718878
-0.615816
-0.631504
-0.647281
-0.669642
-0.694938
-0.721352
-0.617861
-0.635006
-0.649825
-0.671085
-0.695776
-0.722085
-0.619578
-0.637826
-0.651749
-0.671973
-0.695479
-0.72137
-0.621036
-0.639977
-0.653109
-0.672537
-0.694197
-0.719491
-0.622308
-0.641509
-0.654043
-0.672808
-0.692496
-0.71665
-0.623451
-0.642517
-0.654705
-0.672796
-0.690971
-0.713236
-0.624507
-0.64313
-0.655253
-0.672678
-0.689789
-0.710245
-0.625511
-0.643514
-0.655876
-0.67286
-0.689145
-0.708901
-0.626735
-0.64393
-0.656833
-0.673805
-0.689727
-0.710294
-0.627297
-0.644918
-0.658456
-0.675908
-0.692324
-0.714913
-0.627997
-0.647021
-0.660985
-0.679238
-0.697056
-0.721183
-0.628846
-0.649822
-0.663848
-0.682777
-0.703554
-0.731615
-0.629524
-0.651958
-0.665157
-0.683838
-0.711841
-0.810651
-0.325413
-0.174054
-0.0851741
-0.0217799
0.0294592
0.0711202
0.103551
0.1283
0.147305
0.16223
0.174325
0.184448
0.193149
0.200771
0.207534
0.213589
0.219051
0.224028
0.228596
0.232603
0.235576
0.23883
0.249996
0.268763
-0.462166
-0.351598
-0.229133
-0.138655
-0.0695965
-0.0144928
0.0293381
0.0635529
0.0902669
0.111432
0.128603
0.142914
0.155141
0.165795
0.175217
0.183645
0.191252
0.198173
0.204435
0.209774
0.21404
0.220232
0.235013
0.232596
-0.545238
-0.468255
-0.35101
-0.249343
-0.167566
-0.100852
-0.0465463
-0.00305841
0.0314982
0.0591477
0.081641
0.100337
0.116221
0.129968
0.142036
0.152728
0.162245
0.170705
0.178069
0.184002
0.188636
0.195975
0.211943
0.20021
-0.615596
-0.538886
-0.449089
-0.350781
-0.26228
-0.186377
-0.122866
-0.0706546
-0.0283716
0.00584052
0.0337896
0.0569878
0.0765941
0.0934421
0.108103
0.120949
0.132211
0.142011
0.150315
0.156848
0.161951
0.169876
0.185906
0.171904
-0.662255
-0.595416
-0.530429
-0.442472
-0.352501
-0.270079
-0.19864
-0.138462
-0.0887382
-0.0480082
-0.0145528
0.0132103
0.0365735
0.0565132
0.0737192
0.0886475
0.101579
0.112673
0.121953
0.129265
0.135111
0.143562
0.159292
0.145853
-0.689063
-0.648426
-0.598717
-0.52378
-0.437121
-0.351059
-0.273088
-0.205735
-0.148979
-0.10188
-0.0629358
-0.0305818
-0.00344166
0.0195835
0.0393039
0.056274
0.07085
0.0832561
0.0935987
0.101863
0.108638
0.117622
0.132963
0.121606
-0.707599
-0.694439
-0.655842
-0.594516
-0.514903
-0.428193
-0.345367
-0.271696
-0.208433
-0.155208
-0.110851
-0.0739107
-0.0429809
-0.0168668
0.00535734
0.0243563
0.040583
0.0543476
0.0658514
0.0752056
0.0830215
0.0925619
0.107535
0.0991857
-0.722628
-0.729641
-0.703764
-0.655236
-0.584561
-0.500132
-0.4144
-0.33547
-0.266309
-0.207301
-0.157694
-0.116224
-0.0815114
-0.0523014
-0.0275682
-0.0065345
0.0113623
0.0265331
0.039278
0.0498158
0.0587431
0.0688692
0.0835134
0.0786916
-0.734535
-0.754109
-0.742727
-0.706315
-0.644818
-0.565243
-0.47876
-0.395897
-0.321621
-0.257319
-0.202736
-0.156876
-0.118434
-0.0861382
-0.0588911
-0.0358125
-0.0162277
0.000381183
0.0144145
0.0261848
0.0362569
0.0469954
0.0613489
0.0602515
-0.743452
-0.770151
-0.771868
-0.747077
-0.694733
-0.621569
-0.536679
-0.451516
-0.373148
-0.304202
-0.245086
-0.195117
-0.153077
-0.117752
-0.0880102
-0.0628905
-0.0416152
-0.0235621
-0.0082311
0.00477466
0.0159906
0.0273525
0.0414738
0.0440425
-0.749499
-0.779866
-0.791121
-0.776455
-0.733579
-0.667275
-0.58609
-0.500532
-0.419367
-0.346661
-0.283627
-0.230073
-0.184692
-0.146492
-0.114324
-0.0871993
-0.0642599
-0.0447879
-0.0281913
-0.013998
-0.00166601
0.0103283
0.0242858
0.0302269
-0.752738
-0.784471
-0.801262
-0.79429
-0.760274
-0.700925
-0.624798
-0.54088
-0.458535
-0.383124
-0.317397
-0.260641
-0.21229
-0.171659
-0.137207
-0.108172
-0.0836497
-0.0628343
-0.0450511
-0.0297525
-0.016378
-0.00376068
0.0100873
0.0188877
-0.753322
-0.784685
-0.803523
-0.801342
-0.774027
-0.721622
-0.651014
-0.570475
-0.488869
-0.412439
-0.344321
-0.285817
-0.235388
-0.192198
-0.155887
-0.125214
-0.0993052
-0.0773016
-0.0584634
-0.0421853
-0.0279111
-0.0146987
-0.00091957
0.0100383
-0.751588
-0.78116
-0.799298
-0.798929
-0.77554
-0.729062
-0.663858
-0.587756
-0.508579
-0.432765
-0.364119
-0.304253
-0.25214
-0.207588
-0.16984
-0.137795
-0.110828
-0.0878881
-0.0681946
-0.0511231
-0.0361145
-0.0223939
-0.00867791
0.00370095
-0.748128
-0.774615
-0.79006
-0.788793
-0.766755
-0.724072
-0.66366
-0.592189
-0.516559
-0.442847
-0.374992
-0.314878
-0.262734
-0.217104
-0.178278
-0.145749
-0.11809
-0.0944726
-0.0741727
-0.056542
-0.0410056
-0.0269204
-0.0132738
-0.000175291
-0.743491
-0.766038
-0.777225
-0.772976
-0.750105
-0.708868
-0.652028
-0.584684
-0.512981
-0.442296
-0.376424
-0.317346
-0.265538
-0.220478
-0.181711
-0.148831
-0.120895
-0.0970043
-0.0764414
-0.0585613
-0.0427827
-0.0285171
-0.0150359
-0.00189208
-0.738354
-0.756391
-0.762334
-0.753578
-0.728144
-0.686513
-0.631579
-0.567472
-0.499413
-0.432071
-0.36891
-0.311812
-0.261359
-0.217402
-0.179437
-0.146977
-0.119281
-0.0955753
-0.0751655
-0.0574207
-0.04177
-0.0276344
-0.0145299
-0.00183904
-0.733413
-0.746739
-0.746843
-0.73272
-0.703473
-0.660027
-0.605484
-0.543539
-0.478461
-0.414283
-0.35401
-0.29936
-0.250917
-0.208594
-0.171968
-0.14052
-0.113612
-0.0905679
-0.0707452
-0.0535449
-0.038431
-0.0248223
-0.0124275
-0.000527152
-0.729377
-0.738185
-0.73218
-0.712241
-0.67821
-0.632194
-0.576889
-0.515972
-0.453089
-0.391595
-0.334031
-0.281878
-0.23566
-0.195292
-0.160372
-0.13037
-0.104692
-0.0827226
-0.0638762
-0.0475976
-0.0334039
-0.0207166
-0.00945577
0.0013599
-0.726947
-0.731826
-0.719653
-0.693877
-0.654997
-0.605532
-0.548595
-0.487676
-0.426125
-0.366697
-0.311459
-0.261623
-0.217599
-0.179258
-0.146187
-0.117848
-0.0936593
-0.0730431
-0.0554593
-0.0404012
-0.0274439
-0.016027
-0.00625683
0.00314531
-0.727011
-0.728365
-0.710327
-0.679022
-0.635351
-0.582166
-0.522986
-0.461286
-0.400158
-0.342039
-0.288596
-0.240741
-0.198738
-0.162363
-0.131153
-0.104544
-0.0819461
-0.0628029
-0.0466155
-0.0329314
-0.0213824
-0.0114683
-0.00329544
0.00428997
-0.730658
-0.728184
-0.705048
-0.668749
-0.620677
-0.563905
-0.502123
-0.439008
-0.377531
-0.319891
-0.267527
-0.221125
-0.180801
-0.146199
-0.116771
-0.091896
-0.0709487
-0.0533452
-0.0385896
-0.0262747
-0.0160934
-0.00771115
-0.00112723
0.00421565
-0.740584
-0.731676
-0.704332
-0.663678
-0.611802
-0.551758
-0.487375
-0.422474
-0.360047
-0.30217
-0.250118
-0.204435
-0.1653
-0.132072
-0.104136
-0.0808148
-0.0614389
-0.0453968
-0.0321761
-0.0213544
-0.0126052
-0.0056586
-0.000448013
0.00284245
-0.764569
-0.739244
-0.707828
-0.66383
-0.608884
-0.545859
-0.478872
-0.41194
-0.348156
-0.289518
-0.23715
-0.191249
-0.153032
-0.120679
-0.0937687
-0.0716145
-0.0534912
-0.0387233
-0.02682
-0.0173287
-0.00989426
-0.00429056
-0.000452987
0.00143456
-0.796853
-0.809124
-0.820669
-0.826447
-0.793387
-0.724454
-0.790809
-0.807478
-0.819219
-0.828096
-0.80777
-0.764406
-0.778942
-0.80379
-0.815489
-0.826123
-0.814549
-0.792113
-0.773129
-0.800947
-0.812893
-0.824739
-0.819774
-0.808942
-0.779436
-0.800486
-0.812645
-0.825626
-0.826135
-0.822756
-0.79196
-0.801995
-0.814333
-0.828195
-0.83345
-0.836041
-0.799869
-0.804028
-0.816967
-0.831618
-0.841033
-0.848779
-0.802979
-0.805999
-0.819925
-0.835373
-0.848382
-0.860608
-0.805312
-0.807735
-0.822892
-0.839101
-0.855111
-0.871149
-0.807904
-0.80909
-0.82558
-0.842487
-0.860869
-0.879948
-0.810297
-0.809916
-0.827758
-0.845256
-0.865344
-0.886525
-0.811934
-0.810081
-0.829317
-0.847221
-0.868305
-0.890488
-0.81251
-0.809618
-0.830144
-0.848298
-0.869641
-0.89165
-0.811944
-0.80842
-0.830371
-0.848523
-0.86939
-0.890055
-0.810297
-0.806493
-0.830035
-0.848015
-0.867749
-0.885961
-0.807723
-0.803922
-0.829269
-0.846947
-0.865027
-0.879742
-0.804735
-0.80077
-0.828293
-0.845634
-0.861597
-0.871915
-0.804895
-0.79772
-0.827479
-0.844536
-0.857988
-0.863743
-0.810053
-0.796675
-0.827173
-0.844143
-0.855227
-0.857782
-0.813093
-0.796757
-0.826991
-0.844696
-0.854767
-0.856933
-0.810598
-0.796202
-0.826262
-0.845974
-0.857826
-0.867932
-0.803087
-0.793897
-0.824429
-0.847594
-0.86399
-0.901433
-0.792671
-0.790233
-0.822156
-0.849014
-0.871045
-0.947205
-0.787673
-0.787852
-0.821806
-0.851378
-0.877423
-0.972383
-0.773508
-0.749469
-0.715543
-0.669381
-0.61194
-0.545988
-0.476092
-0.406622
-0.340933
-0.281039
-0.228141
-0.182879
-0.143691
-0.111355
-0.084897
-0.0634641
-0.0462808
-0.0327151
-0.0221404
-0.0139413
-0.00754458
-0.00286408
0.000181443
0.00174806
-0.780975
-0.760002
-0.727685
-0.68082
-0.621271
-0.552163
-0.478653
-0.405717
-0.337139
-0.275063
-0.220571
-0.173938
-0.134601
-0.10216
-0.0758569
-0.0549055
-0.0385752
-0.0261663
-0.0169453
-0.0105499
-0.00492614
-0.00102142
0.00248403
0.00540196
-0.795372
-0.774819
-0.744678
-0.698291
-0.637048
-0.564319
-0.486159
-0.408529
-0.3358
-0.27045
-0.213541
-0.165205
-0.124918
-0.0919213
-0.0653379
-0.0442658
-0.0278363
-0.0152037
-0.00565476
0.00156926
0.00542528
0.00830501
0.0113475
0.0119956
-0.810709
-0.793279
-0.766529
-0.721942
-0.659479
-0.582566
-0.498502
-0.41468
-0.336351
-0.266486
-0.206249
-0.155629
-0.113892
-0.0800562
-0.05309
-0.0319775
-0.0157899
-0.00371808
0.00489693
0.0105531
0.0135702
0.0148721
0.0155048
0.0126825
-0.826414
-0.814579
-0.793049
-0.751832
-0.688866
-0.607297
-0.516104
-0.424694
-0.339588
-0.264248
-0.199971
-0.146579
-0.10308
-0.0682364
-0.0408142
-0.0196609
-0.00377121
0.00768186
0.0153568
0.0197608
0.0212947
0.0205136
0.0179293
0.0119633
-0.842808
-0.838139
-0.823743
-0.787598
-0.725082
-0.638417
-0.538691
-0.438037
-0.344753
-0.263168
-0.19466
-0.138677
-0.0937944
-0.0583796
-0.0308996
-0.0100126
0.00538634
0.0161763
0.023063
0.026616
0.027231
0.0253922
0.0211786
0.0141587
-0.85966
-0.863145
-0.857646
-0.828717
-0.767236
-0.674914
-0.564514
-0.452565
-0.350036
-0.261908
-0.189349
-0.131245
-0.085577
-0.0502323
-0.0232857
-0.00311262
0.0115027
0.0214583
0.0274678
0.0302742
0.0304394
0.0286608
0.0240643
0.0181176
-0.876237
-0.888375
-0.89307
-0.872557
-0.813449
-0.715194
-0.592528
-0.469657
-0.358304
-0.264139
-0.188122
-0.128453
-0.0824575
-0.0475283
-0.0214317
-0.00207132
0.011944
0.0213589
0.0265388
0.0283109
0.0278478
0.0263455
0.0214187
0.0183172
-0.891572
-0.912214
-0.927753
-0.917119
-0.860327
-0.755663
-0.623661
-0.491592
-0.373733
-0.275726
-0.197789
-0.137291
-0.0910439
-0.0562352
-0.030694
-0.0119209
0.00210125
0.0120887
0.0192377
0.0239564
0.0256902
0.0248164
0.0213905
0.0207294
-0.904569
-0.932667
-0.958632
-0.956921
-0.901401
-0.79157
-0.652094
-0.514128
-0.393038
-0.293874
-0.216016
-0.155907
-0.109765
-0.0743308
-0.0468725
-0.0262974
-0.0115103
-0.000839901
0.00701902
0.0129567
0.0166799
0.018233
0.018704
0.0231525
-0.914136
-0.947893
-0.982689
-0.985516
-0.929088
-0.813637
-0.669161
-0.528749
-0.407659
-0.309799
-0.233699
-0.174899
-0.129247
-0.0935934
-0.065533
-0.0433936
-0.0260844
-0.0127116
-0.00268795
0.00494876
0.0104203
0.0143009
0.0186375
0.0258269
-0.919377
-0.956663
-0.996644
-0.997978
-0.937175
-0.815491
-0.669107
-0.530461
-0.412109
-0.317762
-0.244366
-0.187105
-0.141906
-0.106018
-0.0773884
-0.0544159
-0.0359464
-0.0210031
-0.00910395
0.000266949
0.00798943
0.0152241
0.0236524
0.0296363
-0.919719
-0.957879
-0.998393
-0.992311
-0.923019
-0.796054
-0.651532
-0.517671
-0.40535
-0.317037
-0.24677
-0.191478
-0.147269
-0.111563
-0.0825869
-0.0589669
-0.0396165
-0.023644
-0.0103908
0.000441519
0.00989551
0.0188664
0.0290754
0.0344224
-0.915112
-0.951704
-0.985252
-0.968863
-0.888103
-0.7577
-0.617839
-0.492272
-0.38955
-0.306743
-0.240549
-0.187832
-0.145245
-0.110443
-0.0818185
-0.0581275
-0.0383784
-0.0217888
-0.00770426
0.00428015
0.0144372
0.0243923
0.0372057
0.042777
-0.906119
-0.939238
-0.956641
-0.928611
-0.8362
-0.704886
-0.572526
-0.45772
-0.363862
-0.287728
-0.226303
-0.17654
-0.135868
-0.102327
-0.0744853
-0.051228
-0.0316491
-0.0150213
-0.000795785
0.0114146
0.0220976
0.0332789
0.0485871
0.0530643
-0.89373
-0.922166
-0.915395
-0.872959
-0.770849
-0.641964
-0.518704
-0.414986
-0.330413
-0.261261
-0.204754
-0.158421
-0.12013
-0.0882178
-0.0614417
-0.0388485
-0.0196716
-0.00328499
0.0108032
0.0229436
0.0336563
0.0454328
0.0623158
0.0646645
-0.878562
-0.896124
-0.867452
-0.805165
-0.695197
-0.571571
-0.459648
-0.366591
-0.290602
-0.228263
-0.176835
-0.13421
-0.0986516
-0.0687613
-0.0434598
-0.0219159
-0.00347471
0.0123891
0.026079
0.0378655
0.048315
0.0604
0.0783396
0.0778232
-0.862413
-0.852522
-0.814496
-0.728638
-0.612481
-0.496678
-0.396275
-0.313621
-0.246005
-0.190217
-0.143826
-0.105018
-0.072351
-0.0446724
-0.0210813
-0.00087481
0.0165047
0.0315107
0.0444941
0.0556576
0.0655836
0.0776766
0.0963366
0.0926323
-0.846639
-0.796371
-0.749019
-0.643764
-0.525265
-0.41867
-0.329831
-0.257182
-0.197548
-0.148108
-0.10674
-0.0718668
-0.0422672
-0.0169855
0.00471865
0.0234164
0.0395593
0.0535225
0.0655981
0.0759315
0.0851159
0.0969201
0.115943
0.108951
-0.824873
-0.744428
-0.668197
-0.549828
-0.434459
-0.338406
-0.260873
-0.197877
-0.146029
-0.102835
-0.0664765
-0.0356071
-0.00920479
0.013516
0.0331566
0.0501754
0.064932
0.0777277
0.0887833
0.0981673
0.106467
0.117801
0.136991
0.126906
-0.775735
-0.692127
-0.574002
-0.44699
-0.339914
-0.255991
-0.189842
-0.136386
-0.0922718
-0.0553126
-0.0239803
0.00283446
0.0259585
0.0460175
0.0634848
0.0787169
0.091993
0.103547
0.113524
0.121897
0.129243
0.14
0.159245
0.14656
-0.699478
-0.605085
-0.459243
-0.334571
-0.241375
-0.171561
-0.11737
-0.0735736
-0.0371875
-0.00643054
0.0198902
0.0426305
0.0624252
0.0797535
0.094975
0.108358
0.120111
0.130405
0.139306
0.146676
0.153067
0.163172
0.182378
0.167935
-0.615157
-0.457102
-0.315738
-0.212791
-0.139923
-0.086216
-0.0444832
-0.010388
0.0183468
0.0429867
0.0643547
0.0830435
0.0994995
0.114064
0.126997
0.138491
0.148695
0.157729
0.16559
0.17203
0.177532
0.18692
0.205956
0.191145
-0.477338
-0.258132
-0.149994
-0.0851485
-0.0379026
-0.00158808
0.0275586
0.0521219
0.0734261
0.0921394
0.108692
0.123414
0.13657
0.148374
0.158996
0.168566
0.17719
0.184948
0.191801
0.197447
0.202245
0.210849
0.229386
0.216784
)
;

boundaryField
{
    rotor
    {
        type            zeroGradient;
    }
    freestream
    {
        type            freestreamPressure;
        freestreamValue uniform 0;
        supersonic      false;
        value           nonuniform List<scalar> 
96
(
0.116097
0.145886
0.162795
0.178767
0.19959
0.223289
0.248985
0.276028
0.303947
0.332325
0.360773
0.388926
0.416439
0.442993
0.468298
0.492094
0.514153
0.534229
0.551884
0.567225
0.580477
0.591335
0.599618
0.605263
0.608213
0.608445
0.605931
0.600705
0.592802
0.582232
0.569363
0.554288
0.536475
0.516374
0.494248
0.4703
0.444764
0.417908
0.390023
0.361421
0.332425
0.303372
0.274624
0.246587
0.219752
0.19476
0.172499
0.154368
0.133498
0.108132
0.0867634
0.0691658
0.0542823
0.0417162
0.0312562
0.0227072
0.0158723
0.0105623
0.00658184
0.00372492
0.00178856
0.000594169
-2.52755e-05
-0.000243943
-0.000210653
-5.31361e-05
0.000119022
0.000234825
0.000267137
0.000212681
0.000111828
4.12692e-05
3.11601e-05
3.61702e-05
3.32404e-06
4.00033e-05
0.000140917
0.000308218
0.000570508
0.000768333
0.00114186
0.00166198
0.00235484
0.00334686
0.00463932
0.00671982
0.00955941
0.0131979
0.0178266
0.0236447
0.0308003
0.0395075
0.0499808
0.0624266
0.0770798
0.0943841
)
;
    }
    frontAndBack
    {
        type            empty;
    }
}


// ************************************************************************* //
