/*--------------------------------*- C++ -*----------------------------------*\
  =========                 |
  \\      /  F ield         | OpenFOAM: The Open Source CFD Toolbox
   \\    /   O peration     | Website:  https://openfoam.org
    \\  /    A nd           | Version:  11
     \\/     M anipulation  |
\*---------------------------------------------------------------------------*/
FoamFile
{
    format      ascii;
    class       volVectorField;
    location    "1.74";
    object      U;
}
// * * * * * * * * * * * * * * * * * * * * * * * * * * * * * * * * * * * * * //

dimensions      [0 1 -1 0 0 0 0];

internalField   nonuniform List<vector> 
2880
(
(-0.0493701 -0.0609095 4.30787e-21)
(-0.0536778 -0.0687607 -3.11094e-21)
(-0.0402806 0.0321122 1e-20)
(-0.0415906 0.249306 -6.39831e-23)
(0.0686107 0.417225 1.15878e-20)
(0.118951 1.02809 -9.97159e-21)
(-0.0588294 -0.071547 0)
(-0.0373339 -0.0351615 -1.87869e-19)
(0.00227535 0.0887165 -1.44775e-19)
(0.0343319 0.294659 -1.10087e-19)
(0.128785 0.504207 -1.18986e-20)
(0.296907 0.859211 0)
(-0.0609267 -0.0689868 -6.92369e-21)
(-0.0189147 -0.00568497 5.19702e-19)
(0.0437478 0.12594 1.34949e-19)
(0.106307 0.319397 1.10187e-19)
(0.234807 0.533507 3.91457e-20)
(0.413173 0.793258 -3.43069e-20)
(-0.063045 -0.065148 -9.29142e-19)
(0.000430733 0.0187352 3.24959e-19)
(0.0831141 0.153671 0)
(0.172163 0.335842 0)
(0.31537 0.537481 0)
(0.494839 0.736736 -3.05326e-19)
(-0.0657147 -0.0554052 1.00846e-18)
(0.0191068 0.0383187 -6.28703e-19)
(0.118941 0.174442 0)
(0.229121 0.34624 -4.0261e-19)
(0.379517 0.529228 7.67723e-20)
(0.551778 0.681274 1.82291e-19)
(-0.0657162 -0.0462892 0)
(0.0361459 0.0534208 0)
(0.150427 0.18893 -9.63353e-19)
(0.276514 0.3514 3.99794e-19)
(0.429825 0.513428 0)
(0.588956 0.631379 0)
(-0.0646204 -0.0392682 1.93755e-18)
(0.0511111 0.0641216 3.76882e-20)
(0.17745 0.197769 9.57582e-19)
(0.31534 0.35149 0)
(0.468077 0.493618 -6.53446e-19)
(0.613439 0.586368 -5.18705e-19)
(-0.0627947 -0.0349848 -3.99029e-18)
(0.0638959 0.0707207 0)
(0.200107 0.201667 -9.53017e-19)
(0.346668 0.34684 0)
(0.496465 0.472161 6.52447e-19)
(0.6291 0.545518 1.04007e-18)
(-0.0603342 -0.033373 1.99213e-18)
(0.0744221 0.0736526 0)
(0.218484 0.201299 9.42677e-22)
(0.371402 0.338327 0)
(0.517088 0.449873 -1.5713e-19)
(0.638258 0.50848 1.42284e-19)
(-0.0574746 -0.0340459 0)
(0.0825923 0.0734451 1.11694e-18)
(0.232675 0.197316 8.98251e-19)
(0.390168 0.326906 1.98688e-19)
(0.531465 0.427154 5.71103e-19)
(0.642694 0.474418 -5.23887e-19)
(-0.0545409 -0.0365047 -2.01745e-18)
(0.0882707 0.0706428 -1.23048e-18)
(0.242751 0.190287 6.02588e-20)
(0.403429 0.313267 8.02645e-19)
(0.54071 0.404163 -6.54015e-19)
(0.643688 0.442573 -1.27497e-19)
(-0.0518222 -0.0401859 1.9255e-18)
(0.0913054 0.0657269 -1.23239e-18)
(0.248711 0.18068 6.04882e-20)
(0.411634 0.29775 -8.05579e-19)
(0.545723 0.380906 -1.59493e-19)
(0.642033 0.412294 2.65894e-19)
(-0.0496433 -0.0445872 -9.3124e-20)
(0.091556 0.0591091 1.27753e-18)
(0.250494 0.168812 1.19894e-19)
(0.415171 0.280407 -1.02413e-19)
(0.547127 0.35732 -1.60582e-19)
(0.638274 0.383057 1.37813e-19)
(-0.0483585 -0.0492288 3.10552e-20)
(0.088879 0.0511271 -1.20927e-18)
(0.248027 0.154872 0)
(0.414222 0.261177 -2.00452e-19)
(0.54529 0.333177 1.69623e-19)
(0.632877 0.354425 1.30738e-19)
(-0.0482626 -0.0535452 0)
(0.0831001 0.0420253 1.29801e-18)
(0.241192 0.138944 6.03746e-20)
(0.408822 0.239929 7.21769e-19)
(0.540497 0.308175 0)
(0.626175 0.325973 5.44598e-19)
(-0.0497075 -0.0569879 0)
(0.0740579 0.0319865 -7.71314e-20)
(0.229838 0.121047 -9.32585e-19)
(0.398848 0.216445 -8.32549e-19)
(0.532872 0.281918 8.47288e-19)
(0.618436 0.297269 -1.36707e-19)
(-0.0531294 -0.0590704 0)
(0.0616134 0.0211386 0)
(0.213777 0.101159 1.13252e-18)
(0.383967 0.190458 -2.14065e-21)
(0.522335 0.253876 -7.75364e-19)
(0.609878 0.267824 -5.51591e-19)
(-0.0590471 -0.0597245 2.00652e-18)
(0.0457189 0.00956739 -1.27441e-18)
(0.192801 0.0792688 0)
(0.363606 0.161637 1.059e-19)
(0.508534 0.223387 6.15672e-19)
(0.600685 0.237072 0)
(-0.0647036 -0.0585476 -8.20633e-22)
(0.0266153 -0.00269918 2.59812e-18)
(0.166724 0.0554435 0)
(0.336884 0.129626 -7.66782e-19)
(0.49076 0.189684 -8.07202e-19)
(0.591049 0.204374 -1.38531e-19)
(-0.0678673 -0.0568157 -1.67328e-18)
(0.00551322 -0.0152701 -6.63775e-19)
(0.135438 0.0299237 5.33465e-19)
(0.302585 0.0941445 8.90095e-19)
(0.467768 0.151732 3.68781e-19)
(0.581095 0.168796 -1.41122e-19)
(-0.069515 -0.0543887 0)
(-0.0160569 -0.0272834 -6.83732e-19)
(0.0989136 0.00336028 -4.80435e-19)
(0.259148 0.0551535 -5.70074e-20)
(0.437129 0.107815 -8.49421e-19)
(0.570391 0.12801 7.64296e-20)
(-0.0695927 -0.0513839 -8.50633e-19)
(-0.0373297 -0.0378358 0)
(0.057106 -0.022729 0)
(0.20413 0.013295 0)
(0.393301 0.0553395 3.89486e-19)
(0.557182 0.0752572 7.39982e-20)
(-0.0679594 -0.0473789 4.46791e-19)
(-0.0569849 -0.0462036 2.36243e-20)
(0.00942267 -0.046619 0)
(0.131562 -0.0303088 1.81529e-19)
(0.317455 -0.00895442 5.04879e-20)
(0.542849 0.00618867 0)
(-0.0489178 -0.0390448 5.4375e-19)
(-0.0635804 -0.0500976 0)
(-0.0393846 -0.0607225 -1.5269e-19)
(0.0300779 -0.0667416 -2.50996e-19)
(0.170728 -0.0569766 1.02802e-19)
(0.530557 -0.0134645 3.80347e-20)
(0.929587 1.12726 0)
(1.22159 0.870556 0)
(1.3195 0.685624 0)
(1.34831 0.560949 1.95188e-22)
(1.34896 0.465303 -8.41954e-22)
(1.33985 0.39088 9.35203e-22)
(1.32762 0.332686 -2.54892e-21)
(1.31434 0.28638 2.33711e-21)
(1.30071 0.248877 2.74965e-21)
(1.28701 0.218034 -2.55306e-21)
(1.27333 0.192314 1.84046e-21)
(1.25969 0.170585 -2.15265e-21)
(1.24601 0.152004 4.86576e-21)
(1.23221 0.135927 5.52948e-21)
(1.21813 0.12186 -5.42206e-21)
(1.20363 0.109421 0)
(1.18853 0.0983187 0)
(1.17262 0.0883452 -1.71208e-22)
(1.15564 0.0793559 0)
(1.13726 0.0711872 -1.47369e-20)
(1.11696 0.0636345 9.97391e-21)
(1.09411 0.0573934 -5.54949e-21)
(1.06847 0.0562498 5.01898e-21)
(1.04087 0.0647285 1.69019e-22)
(0.893589 0.972203 0)
(1.15124 0.825393 0)
(1.24785 0.67176 2.07862e-20)
(1.2827 0.556163 -5.03571e-21)
(1.29214 0.46637 -1.92676e-22)
(1.29123 0.395918 -1.00617e-20)
(1.28573 0.340177 -5.28918e-21)
(1.27784 0.295307 -1.23755e-20)
(1.26857 0.258573 0)
(1.25843 0.228058 0)
(1.2477 0.202376 -6.98392e-21)
(1.2365 0.180498 -7.43192e-22)
(1.22486 0.161647 0)
(1.21275 0.145226 -6.42453e-21)
(1.2001 0.130773 6.27946e-21)
(1.1868 0.117928 0)
(1.17272 0.10641 0)
(1.1577 0.0960095 6.25465e-21)
(1.14155 0.0865801 0)
(1.12402 0.0779768 -1.66235e-22)
(1.10474 0.0699428 -1.63709e-22)
(1.08322 0.062495 -5.56142e-21)
(1.05898 0.0575097 0)
(1.03153 0.0687553 5.7472e-21)
(0.845455 0.904663 -9.00173e-20)
(1.08594 0.786502 5.26459e-20)
(1.18107 0.648385 4.05543e-20)
(1.22145 0.543311 2.88941e-20)
(1.23902 0.461267 -1.77629e-20)
(1.24537 0.395815 1.31141e-20)
(1.24573 0.343146 -4.11813e-21)
(1.2426 0.300184 -1.2443e-21)
(1.23725 0.264619 7.36126e-21)
(1.23038 0.234779 -1.71453e-20)
(1.22239 0.209431 1.65544e-20)
(1.21352 0.18765 -2.41351e-20)
(1.20387 0.168731 -1.16357e-21)
(1.19347 0.152129 1.45817e-20)
(1.1823 0.137421 -1.38673e-20)
(1.1703 0.124273 0)
(1.15739 0.112428 2.6396e-20)
(1.14346 0.101697 -3.14859e-20)
(1.12836 0.0919498 2.49859e-20)
(1.11194 0.0830307 -2.42216e-20)
(1.09405 0.0745523 2.37337e-20)
(1.07443 0.0664107 -1.75616e-20)
(1.05195 0.0617924 0)
(1.0229 0.0769827 -2.72412e-20)
(0.821962 0.820643 1.56707e-19)
(1.02706 0.728586 -1.133e-19)
(1.12113 0.616574 -1.69451e-20)
(1.16716 0.525132 -1.29664e-19)
(1.19088 0.451311 -6.29677e-20)
(1.20282 0.391219 5.41411e-20)
(1.208 0.342048 8.09321e-20)
(1.20895 0.301381 5.1509e-20)
(1.20706 0.267317 1.99277e-20)
(1.20314 0.238432 0)
(1.19769 0.213651 0)
(1.191 0.192159 -3.58967e-20)
(1.18325 0.173322 4.98723e-20)
(1.17453 0.156645 3.42127e-20)
(1.16486 0.141736 3.26812e-20)
(1.15421 0.128283 0)
(1.14255 0.11604 -3.01799e-20)
(1.12979 0.10482 0)
(1.11584 0.0944769 0)
(1.10056 0.0847676 5.25525e-20)
(1.08387 0.0751754 -1.0243e-19)
(1.06537 0.0659951 -2.76945e-20)
(1.04311 0.0622417 -2.50571e-21)
(1.01419 0.0741238 2.47822e-20)
(0.804968 0.7423 -2.60639e-19)
(0.980313 0.673265 0)
(1.07069 0.582675 0)
(1.1194 0.503622 4.33268e-20)
(1.14733 0.437741 6.9728e-20)
(1.16362 0.383052 -6.62556e-20)
(1.17274 0.33756 -8.8045e-20)
(1.17716 0.299403 -5.09128e-20)
(1.17827 0.267052 0)
(1.17697 0.239316 -4.87244e-20)
(1.17381 0.215277 0)
(1.16914 0.194223 3.99763e-20)
(1.16318 0.175591 -3.78099e-20)
(1.15606 0.15893 -3.40664e-20)
(1.14783 0.143881 3.14169e-21)
(1.13851 0.130149 9.96748e-20)
(1.12808 0.117497 -3.28032e-20)
(1.11648 0.105743 6.07873e-20)
(1.10364 0.0947293 -8.94272e-20)
(1.08948 0.0841656 -5.6784e-20)
(1.07393 0.07352 8.39381e-20)
(1.05648 0.0634488 -8.57022e-20)
(1.03492 0.0598398 -3.31617e-20)
(1.00815 0.069194 1.37284e-19)
(0.792283 0.674528 5.37991e-19)
(0.942321 0.621727 -4.49868e-20)
(1.02761 0.548018 3.91898e-20)
(1.07749 0.480026 0)
(1.1083 0.421587 1.33409e-19)
(1.12782 0.372111 -4.12424e-20)
(1.14008 0.330289 -6.8231e-20)
(1.14736 0.294724 1.88958e-19)
(1.15105 0.264202 -5.65608e-20)
(1.15204 0.237746 4.83277e-20)
(1.15092 0.214579 -9.39374e-20)
(1.14809 0.194084 1.76297e-19)
(1.14379 0.175766 -1.65616e-19)
(1.13817 0.159219 7.85002e-20)
(1.13132 0.144114 -1.09991e-19)
(1.12327 0.130179 7.12068e-20)
(1.11404 0.117191 3.52487e-20)
(1.10358 0.104985 -3.17843e-20)
(1.09184 0.0934105 3.06506e-20)
(1.07879 0.0821726 1.5425e-19)
(1.0644 0.0707736 -2.98071e-19)
(1.0481 0.0600885 1.46855e-19)
(1.02744 0.0562687 -9.15299e-20)
(1.0027 0.0634738 1.90932e-19)
(0.781565 0.616592 3.0611e-19)
(0.911411 0.574881 0)
(0.991078 0.514042 3.31418e-19)
(1.04085 0.455414 -2.63805e-19)
(1.0734 0.403662 -2.17135e-19)
(1.09528 0.35905 -1.84152e-19)
(1.10999 0.320768 1.60059e-19)
(1.11962 0.287782 1.44168e-19)
(1.12548 0.259137 5.09078e-21)
(1.12846 0.234039 -5.98272e-20)
(1.12916 0.211836 1.07082e-19)
(1.12799 0.192 0)
(1.12521 0.174095 -8.93158e-20)
(1.12099 0.157762 8.85237e-20)
(1.11543 0.142703 1.60913e-19)
(1.10861 0.128668 1.13153e-19)
(1.10053 0.11546 -1.07001e-19)
(1.09119 0.10293 3.90476e-20)
(1.08057 0.090948 1.36372e-19)
(1.06867 0.0792311 -1.6453e-19)
(1.05553 0.0673236 3.08741e-20)
(1.04053 0.0562242 9.8601e-20)
(1.02096 0.0520611 -1.25155e-19)
(0.998152 0.057442 0)
(0.771683 0.566749 -1.1806e-18)
(0.885634 0.532374 0)
(0.959807 0.48124 -4.08913e-19)
(1.00873 0.4304 3.32362e-19)
(1.04225 0.384557 2.14793e-19)
(1.0658 0.344395 1.82331e-19)
(1.0824 0.309454 -3.30476e-19)
(1.09393 0.278971 -2.93e-19)
(1.10161 0.252201 -2.63721e-19)
(1.10631 0.228498 1.15641e-19)
(1.10861 0.207323 -1.06595e-19)
(1.10893 0.188224 0)
(1.10753 0.170822 0)
(1.10461 0.154799 -1.78276e-19)
(1.10027 0.139888 8.66925e-20)
(1.09461 0.125868 1.64149e-19)
(1.08766 0.112563 4.01907e-21)
(1.07943 0.0998517 -3.0422e-19)
(1.06994 0.0876227 2.21574e-19)
(1.05924 0.0756147 -1.42013e-19)
(1.04741 0.0634167 0)
(1.03378 0.0520928 0)
(1.01544 0.0475613 0)
(0.994536 0.051342 0)
(0.762108 0.523004 5.97178e-19)
(0.863582 0.493518 -1.09213e-19)
(0.932765 0.449768 9.09504e-21)
(0.980474 0.405386 -6.30763e-20)
(1.01444 0.364705 1.24025e-19)
(1.03915 0.328568 2.09169e-19)
(1.05719 0.296733 1.70525e-19)
(1.07024 0.268638 1.51261e-19)
(1.07944 0.243701 1.36177e-19)
(1.08561 0.221403 1.32408e-19)
(1.08932 0.201295 0)
(1.09097 0.182994 0)
(1.09084 0.166171 0)
(1.08911 0.150547 0)
(1.08593 0.135884 9.46709e-20)
(1.08138 0.121989 1.74983e-19)
(1.07552 0.108713 -2.50748e-19)
(1.0684 0.0959569 1.6195e-19)
(1.06005 0.0836356 7.98228e-20)
(1.05056 0.0715121 -1.51421e-19)
(1.04007 0.0592224 -1.46147e-19)
(1.02787 0.047851 1.42477e-19)
(1.01084 0.0429654 -7.3888e-20)
(0.991836 0.0453331 -1.29044e-19)
(0.752596 0.48382 -6.25206e-19)
(0.84429 0.457658 0)
(0.909132 0.419611 0)
(0.95552 0.380609 1.45209e-19)
(0.989579 0.344422 -1.30052e-19)
(1.01506 0.311895 -2.07623e-19)
(1.03419 0.282918 1.91551e-19)
(1.04847 0.257075 0)
(1.05894 0.233911 -1.47102e-19)
(1.06638 0.213005 -2.67939e-19)
(1.07132 0.193986 2.50536e-19)
(1.07416 0.176529 -1.17388e-19)
(1.07518 0.16035 3.2805e-19)
(1.07457 0.145203 -2.0687e-19)
(1.07246 0.13088 5.18293e-21)
(1.06898 0.117215 9.55639e-20)
(1.06419 0.104085 0)
(1.05816 0.0914179 4.4743e-21)
(1.05094 0.0791511 -8.50663e-20)
(1.04268 0.0670763 1.59473e-19)
(1.03354 0.0548774 -1.55194e-19)
(1.02276 0.0436198 0)
(1.00712 0.0384109 -3.05541e-19)
(0.989985 0.0395348 2.15829e-19)
(0.743027 0.448008 7.04493e-19)
(0.827085 0.424201 -6.09106e-19)
(0.888269 0.390681 -3.82335e-19)
(0.933366 0.356204 8.1423e-20)
(0.967314 0.323925 0)
(0.993304 0.294624 -2.28259e-19)
(1.01326 0.268263 -1.90526e-19)
(1.02852 0.24453 0)
(1.04006 0.223063 0)
(1.04858 0.203523 1.39204e-19)
(1.05461 0.185603 4.34735e-21)
(1.05852 0.169025 -1.60006e-21)
(1.06059 0.153543 1.15993e-19)
(1.06101 0.138944 -3.22716e-19)
(1.05992 0.125047 3.11593e-19)
(1.05746 0.111711 -9.77414e-20)
(1.0537 0.0988393 -1.89576e-19)
(1.04874 0.086386 -4.78629e-22)
(1.04264 0.074312 -9.03454e-20)
(1.03559 0.0624381 -8.19799e-20)
(1.02777 0.0504941 2.47426e-19)
(1.01839 0.0394911 -2.43428e-19)
(1.00418 0.0339994 3.89492e-19)
(0.988891 0.0340409 -2.33365e-19)
(0.733353 0.414687 -2.35896e-19)
(0.811503 0.392674 6.20102e-19)
(0.869677 0.362862 3.88355e-19)
(0.913597 0.332227 -1.5576e-19)
(0.947329 0.303357 1.39623e-19)
(0.973643 0.276938 3.40377e-19)
(0.994231 0.252968 -3.03522e-19)
(1.01029 0.231203 1.92352e-22)
(1.02272 0.211355 5.53872e-21)
(1.03218 0.193149 1.51408e-19)
(1.03917 0.176327 -4.11236e-19)
(1.04404 0.160654 2.58274e-19)
(1.04707 0.145918 1.21209e-19)
(1.04845 0.13193 -1.11121e-19)
(1.04833 0.118537 0)
(1.04683 0.105622 -1.05523e-19)
(1.04408 0.0931148 0)
(1.04015 0.0809938 1.9101e-19)
(1.03515 0.0692411 -2.77807e-19)
(1.02928 0.0577058 -1.72157e-19)
(1.02273 0.0461603 1.72913e-19)
(1.01469 0.035531 -3.36931e-19)
(1.00195 0.0298054 3.2586e-19)
(0.988452 0.0289231 2.503e-19)
(0.723598 0.383203 0)
(0.797219 0.362696 0)
(0.852966 0.336005 4.07514e-19)
(0.895868 0.308679 0)
(0.929347 0.282802 0)
(0.955868 0.258969 0)
(0.976943 0.237185 -2.13772e-19)
(0.993661 0.217257 1.84179e-19)
(1.00685 0.198952 1.73577e-19)
(1.01713 0.182044 -1.57351e-19)
(1.02497 0.166316 1.40418e-19)
(1.03071 0.151569 -5.31433e-19)
(1.03463 0.137618 -1.23876e-19)
(1.0369 0.1243 2.99199e-21)
(1.03768 0.111484 4.52376e-19)
(1.03711 0.0990775 -1.11388e-19)
(1.03532 0.0870344 0)
(1.03239 0.0753555 -9.80636e-20)
(1.02845 0.0640409 -9.77968e-20)
(1.02371 0.0529658 1.90392e-19)
(1.01836 0.0419397 -2.71978e-19)
(1.01159 0.0317815 -9.13143e-20)
(1.00033 0.0258815 3.39006e-19)
(0.98856 0.0242332 0)
(0.713799 0.353079 7.26024e-19)
(0.784005 0.333934 -6.49271e-19)
(0.837842 0.309955 -4.05928e-19)
(0.8799 0.285525 0)
(0.913133 0.262308 0)
(0.93979 0.240808 0)
(0.961255 0.221032 2.13233e-19)
(0.978522 0.202822 1.90671e-19)
(0.992362 0.185988 -5.23772e-19)
(1.00336 0.170342 3.25793e-19)
(1.01197 0.155703 3.73244e-21)
(1.01851 0.141899 4.16561e-19)
(1.02323 0.128771 2.60339e-19)
(1.02634 0.116176 -2.45526e-19)
(1.02797 0.104006 5.90612e-19)
(1.02829 0.0921887 -1.1195e-19)
(1.0274 0.0807025 0)
(1.02543 0.0695662 -2.07986e-19)
(1.02251 0.0587936 1.03493e-19)
(1.01883 0.0482827 9.93524e-20)
(1.01459 0.0378744 0)
(1.009 0.0282656 9.26594e-20)
(0.999218 0.0222625 9.01822e-20)
(0.989108 0.0200052 -2.82347e-19)
(0.704004 0.323908 -6.53552e-19)
(0.771705 0.306097 5.14623e-19)
(0.824077 0.284557 0)
(0.865467 0.262718 0)
(0.898486 0.241894 1.51767e-19)
(0.925244 0.222516 1.29193e-19)
(0.947031 0.204594 0)
(0.964769 0.187998 0)
(0.979182 0.17257 0)
(0.990823 0.158153 -1.6303e-19)
(1.00012 0.144597 4.40661e-21)
(1.00738 0.131753 -1.40915e-19)
(1.01286 0.119481 -1.32711e-19)
(1.01674 0.10766 2.54407e-19)
(1.01918 0.0961995 -2.46407e-19)
(1.02032 0.0850486 -3.50149e-19)
(1.0203 0.0742046 1.14085e-19)
(1.01924 0.0637009 -1.09877e-19)
(1.01726 0.0535607 1.05475e-19)
(1.01458 0.0437007 -2.01817e-19)
(1.01136 0.0339879 0)
(1.00687 0.0249915 -9.28408e-20)
(0.998528 0.0189687 2.56171e-21)
(0.989993 0.0162568 0)
(0.694283 0.295349 5.05927e-19)
(0.760218 0.278937 1.36105e-19)
(0.811501 0.25967 -5.27412e-19)
(0.852385 0.240201 -2.61425e-19)
(0.885238 0.22156 -1.39064e-19)
(0.912084 0.204132 5.77247e-21)
(0.934151 0.187933 3.45772e-19)
(0.952303 0.17286 2.00955e-19)
(0.967225 0.158781 -8.32906e-22)
(0.979445 0.145566 0)
(0.989365 0.133088 -1.55479e-19)
(0.997293 0.121218 1.46261e-19)
(1.00346 0.109836 -1.40078e-19)
(1.00807 0.098837 0)
(1.01126 0.088146 -1.26734e-19)
(1.01319 0.0777317 2.01429e-21)
(1.01398 0.067607 1.188e-19)
(1.01377 0.0578154 -1.12929e-19)
(1.01268 0.0483844 2.1635e-19)
(1.0109 0.0392465 0)
(1.0086 0.0302897 0)
(1.00511 0.0219574 -3.92767e-19)
(0.998172 0.0160084 6.55219e-19)
(0.991117 0.0129902 -3.43507e-19)
(0.684737 0.267106 -6.66994e-19)
(0.749487 0.252249 0)
(0.799986 0.235169 5.283e-19)
(0.840506 0.217917 -9.61124e-20)
(0.873246 0.201295 -2.98172e-19)
(0.900181 0.185674 -1.28324e-19)
(0.922504 0.171089 -1.11228e-19)
(0.941032 0.157462 0)
(0.956418 0.144684 -1.87374e-19)
(0.969164 0.132647 -3.56429e-21)
(0.979658 0.121244 -1.63312e-19)
(0.988197 0.110365 3.02985e-19)
(0.995012 0.0999048 -1.43893e-19)
(1.00029 0.0897722 1.37244e-19)
(1.00418 0.0799077 0)
(1.00684 0.0702944 -2.48107e-19)
(1.00839 0.0609577 2.40334e-19)
(1.00896 0.0519465 -1.13346e-19)
(1.00869 0.0432895 2.22699e-19)
(1.00774 0.0349319 2.13594e-19)
(1.00626 0.0267791 -6.20016e-19)
(1.00367 0.0191566 2.98912e-19)
(0.998065 0.0133812 0)
(0.992382 0.0101907 0)
(0.675492 0.238923 0)
(0.73949 0.225867 0)
(0.789434 0.210949 -1.04843e-19)
(0.829704 0.19581 4.48199e-19)
(0.862382 0.18108 -3.06689e-19)
(0.889422 0.167148 0)
(0.911992 0.154084 0)
(0.930873 0.141839 2.09258e-19)
(0.946688 0.130322 -5.19255e-21)
(0.959921 0.119444 -3.98112e-21)
(0.970945 0.109117 -1.6367e-19)
(0.980048 0.0992463 2.9706e-21)
(0.987457 0.0897387 0)
(0.993352 0.080516 -4.14605e-19)
(0.997893 0.0715304 1.33195e-19)
(1.00122 0.0627763 -2.54589e-19)
(1.00348 0.0542872 1.22536e-19)
(1.00477 0.0461139 -2.36344e-19)
(1.00524 0.038284 1.12256e-19)
(1.00504 0.0307536 -5.49919e-19)
(1.00429 0.0234442 2.69882e-22)
(1.0025 0.0165774 2.02845e-19)
(0.998115 0.0110818 0)
(0.993683 0.0078199 3.34946e-19)
(0.666707 0.210594 8.85431e-20)
(0.730212 0.199683 0)
(0.779763 0.186936 -1.05818e-19)
(0.819863 0.173826 4.56385e-19)
(0.852534 0.160889 3.06727e-19)
(0.879705 0.148544 0)
(0.902527 0.136924 1.17812e-19)
(0.92175 0.126006 -3.27374e-21)
(0.937975 0.115718 -9.60255e-20)
(0.951664 0.105988 1.83205e-19)
(0.963181 0.0967418 -1.66828e-19)
(0.972805 0.0878975 1.59206e-19)
(0.98076 0.0793741 0)
(0.987226 0.0711031 -1.41466e-19)
(0.992359 0.0630454 1.3436e-19)
(0.996301 0.0552029 1.31665e-19)
(0.999185 0.0476131 -1.2607e-19)
(1.00113 0.0403254 2.403e-19)
(1.00226 0.0333655 1.1527e-19)
(1.00273 0.0267006 4.48041e-19)
(1.00263 0.0202707 -2.16647e-19)
(1.00155 0.0142248 1.03712e-19)
(0.998309 0.00918428 1.01236e-19)
(0.994867 0.00580037 -2.55662e-19)
(0.658502 0.181951 8.932e-20)
(0.721621 0.173629 -1.31156e-19)
(0.77088 0.163077 -1.0638e-19)
(0.810885 0.151932 -1.80466e-19)
(0.843592 0.140682 0)
(0.870936 0.129837 1.3387e-19)
(0.89403 0.119599 -2.42892e-19)
(0.9136 0.109965 -1.06696e-19)
(0.930222 0.100882 -1.95562e-19)
(0.944348 0.0922937 -1.81425e-19)
(0.956326 0.0841362 1.72728e-19)
(0.966435 0.0763398 1.59412e-19)
(0.974892 0.0688328 -2.29413e-19)
(0.981877 0.0615545 7.12219e-20)
(0.987544 0.0544718 -1.75799e-21)
(0.992034 0.0475898 -1.32011e-19)
(0.995477 0.0409456 2.55217e-19)
(0.997993 0.0345851 -1.24843e-19)
(0.999702 0.0285317 0)
(1.00075 0.0227629 -3.41299e-19)
(1.00121 0.0172355 3.85415e-19)
(1.00076 0.0120497 -4.26881e-19)
(0.998614 0.00761647 3.0962e-19)
(0.99601 0.00412628 -4.58179e-19)
(0.650781 0.152744 8.38829e-20)
(0.713671 0.147694 -2.75389e-19)
(0.762637 0.139339 -5.73796e-20)
(0.802643 0.130071 -1.83231e-19)
(0.835463 0.120411 0)
(0.863033 0.110988 0)
(0.886432 0.102077 0)
(0.906367 0.093696 2.21167e-19)
(0.923389 0.0858063 -9.9842e-20)
(0.937937 0.0783599 1.86762e-19)
(0.950354 0.071305 0)
(0.960911 0.0645804 -1.61681e-19)
(0.969828 0.0581226 3.07581e-19)
(0.977283 0.0518773 -2.21007e-19)
(0.983428 0.0458143 7.06482e-20)
(0.988402 0.0399379 -6.79314e-20)
(0.992332 0.0342807 1.29595e-19)
(0.995337 0.0288816 -1.8823e-19)
(0.997537 0.0237601 0)
(0.999063 0.0188996 -5.82763e-20)
(0.999991 0.0142654 -1.68021e-19)
(1.00011 0.00991115 3.78409e-19)
(0.998912 0.00610063 -2.09587e-19)
(0.997206 0.00288015 -4.73689e-20)
(0.64312 0.122677 3.90138e-20)
(0.706309 0.121945 2.01428e-19)
(0.754848 0.115705 -4.02645e-22)
(0.79496 0.108158 -1.85223e-19)
(0.828023 0.0999932 2.36511e-19)
(0.85593 0.091935 -7.0809e-20)
(0.87969 0.0843156 -6.31535e-20)
(0.900016 0.0771685 -2.80083e-19)
(0.917446 0.0704664 0)
(0.93241 0.0641727 9.44502e-20)
(0.945245 0.0582403 0)
(0.956221 0.0526145 -1.64388e-19)
(0.965557 0.0472391 2.33589e-19)
(0.973434 0.0420649 -1.23291e-22)
(0.980003 0.0370626 7.08429e-20)
(0.985399 0.0322322 6.80409e-20)
(0.989749 0.0275978 -1.31194e-19)
(0.99317 0.0231889 1.89829e-19)
(0.995781 0.01902 0)
(0.997701 0.0150785 1.17213e-19)
(0.999008 0.0113352 -5.6786e-20)
(0.999591 0.00780898 5.43586e-20)
(0.999166 0.00465599 -5.31638e-20)
(0.99827 0.00196421 4.72934e-20)
(0.635848 0.0925135 4.2202e-20)
(0.699289 0.0963559 -1.01044e-19)
(0.747189 0.0920661 2.23661e-19)
(0.787664 0.0860516 2.32929e-19)
(0.821157 0.0792877 -1.59028e-19)
(0.84955 0.0725751 1.31286e-21)
(0.873769 0.0662451 2.50134e-19)
(0.894539 0.0603365 1.12244e-19)
(0.912392 0.0548348 0)
(0.927763 0.0497116 -1.88566e-19)
(0.940995 0.0449251 1.33536e-19)
(0.952358 0.0404279 1.6519e-19)
(0.962073 0.0361691 -3.97466e-20)
(0.970322 0.0321025 -7.47063e-20)
(0.977258 0.0281986 0)
(0.983016 0.0244504 0)
(0.987717 0.0208709 1.32401e-19)
(0.991483 0.0174792 -1.28046e-19)
(0.994427 0.0142846 0)
(0.996662 0.0112786 5.92721e-20)
(0.998266 0.00843928 -1.71472e-19)
(0.999207 0.00576705 1.10277e-19)
(0.999369 0.00334605 -5.35076e-20)
(0.999096 0.00126906 6.51334e-22)
(0.631367 0.0703529 -3.72278e-22)
(0.691845 0.0703726 8.32691e-20)
(0.739235 0.0680466 -1.34061e-21)
(0.780616 0.0634769 -2.38466e-20)
(0.814831 0.0581119 3.93224e-20)
(0.843876 0.0527743 -1.05978e-19)
(0.868655 0.0477691 -6.25601e-20)
(0.88993 0.0431368 2.79786e-20)
(0.908234 0.0388725 -2.62298e-20)
(0.924013 0.0349527 0)
(0.937618 0.0313445 -6.61827e-20)
(0.949332 0.0280073 4.21031e-20)
(0.959381 0.0248968 -7.87947e-20)
(0.96795 0.0219723 9.43737e-20)
(0.975192 0.019202 -3.63091e-20)
(0.981244 0.01657 0)
(0.986226 0.0140762 0)
(0.990259 0.0117279 1.60842e-20)
(0.993456 0.00952944 0)
(0.995924 0.00747548 0)
(0.997743 0.00555242 0)
(0.998939 0.00375585 -6.92967e-20)
(0.999508 0.00212822 4.0201e-20)
(0.999657 0.000738526 9.58628e-20)
(0.0448019 -0.0468218 0)
(0.209616 -0.0882241 0)
(0.415517 -0.121153 0)
(0.520321 -0.134275 1.22656e-19)
(0.557393 -0.136788 0)
(0.534757 -0.110462 -1.026e-20)
(0.105094 -0.086732 0)
(0.294993 -0.13646 -1.85086e-19)
(0.453221 -0.15823 -1.37568e-19)
(0.526274 -0.161748 -9.9675e-20)
(0.552829 -0.160531 -1.11103e-20)
(0.549547 -0.1232 0)
(0.135568 -0.105849 -7.88195e-21)
(0.320105 -0.170447 5.22569e-19)
(0.449167 -0.184619 1.29816e-19)
(0.510978 -0.180411 1.02087e-19)
(0.540847 -0.170504 4.20029e-20)
(0.550035 -0.130371 -3.48749e-20)
(0.161355 -0.12816 -9.78406e-19)
(0.334905 -0.19894 3.28827e-19)
(0.440812 -0.209355 0)
(0.497508 -0.199062 0)
(0.529378 -0.182629 0)
(0.547336 -0.142436 -3.21194e-19)
(0.187939 -0.165335 9.83554e-19)
(0.343362 -0.224495 -6.18461e-19)
(0.432342 -0.232896 0)
(0.485677 -0.218854 -3.64726e-19)
(0.519851 -0.198583 7.32634e-20)
(0.544759 -0.160118 1.85544e-19)
(0.209015 -0.190981 0)
(0.34763 -0.246976 0)
(0.424062 -0.255062 -8.85385e-19)
(0.475072 -0.23958 3.47828e-19)
(0.511662 -0.217745 0)
(0.542439 -0.182073 0)
(0.226167 -0.213642 1.86171e-18)
(0.349112 -0.266504 3.54114e-20)
(0.415862 -0.276109 8.47421e-19)
(0.465238 -0.261245 0)
(0.504299 -0.23963 -5.44862e-19)
(0.540169 -0.207153 -4.60594e-19)
(0.24047 -0.234435 -3.81895e-18)
(0.348362 -0.283617 0)
(0.407462 -0.296362 -8.13903e-19)
(0.455773 -0.283919 0)
(0.497347 -0.263958 5.32708e-19)
(0.537771 -0.234874 9.05365e-19)
(0.252063 -0.252423 1.90036e-18)
(0.345473 -0.29883 0)
(0.398529 -0.316087 1.58952e-21)
(0.44628 -0.307618 0)
(0.490456 -0.290565 -1.27757e-19)
(0.535138 -0.265077 1.09523e-19)
(0.260892 -0.266974 0)
(0.340356 -0.312511 9.71641e-19)
(0.388728 -0.335499 7.23643e-19)
(0.436389 -0.332336 1.53655e-19)
(0.483299 -0.319365 4.43828e-19)
(0.532133 -0.297717 -4.4006e-19)
(0.266704 -0.277897 -1.90696e-18)
(0.332962 -0.324939 -1.05291e-18)
(0.377764 -0.354748 4.78634e-20)
(0.425738 -0.358062 6.03702e-19)
(0.475549 -0.350278 -5.04326e-19)
(0.528613 -0.332855 -1.05817e-19)
(0.269049 -0.285225 1.81755e-18)
(0.323309 -0.336317 -1.04699e-18)
(0.36538 -0.373917 4.73067e-20)
(0.413978 -0.384756 -5.97976e-19)
(0.466884 -0.38326 -1.21592e-19)
(0.524427 -0.370623 2.1338e-19)
(0.267465 -0.289157 -8.78657e-20)
(0.311431 -0.346777 1.08045e-18)
(0.35134 -0.393029 9.10734e-20)
(0.400763 -0.412358 -7.53431e-20)
(0.456973 -0.418275 -1.20109e-19)
(0.519406 -0.411193 1.07939e-19)
(0.261587 -0.290036 2.93462e-20)
(0.297287 -0.356362 -1.03063e-18)
(0.335464 -0.412036 0)
(0.385744 -0.440756 -1.44097e-19)
(0.445462 -0.455264 1.25034e-19)
(0.513343 -0.45476 1.01132e-19)
(0.251247 -0.288179 0)
(0.280823 -0.365039 1.11163e-18)
(0.317617 -0.430791 4.39673e-20)
(0.36859 -0.469726 5.14791e-19)
(0.431958 -0.49411 0)
(0.505978 -0.501514 4.06941e-19)
(0.236388 -0.28386 0)
(0.262121 -0.372679 -6.60706e-20)
(0.29771 -0.448981 -7.09874e-19)
(0.349002 -0.498901 -5.94884e-19)
(0.416036 -0.53453 5.9791e-19)
(0.496968 -0.551577 -1.12257e-19)
(0.217138 -0.277262 0)
(0.24135 -0.378924 0)
(0.275746 -0.466079 8.67555e-19)
(0.326707 -0.527665 -4.28423e-21)
(0.397213 -0.57602 -5.48005e-19)
(0.485893 -0.604799 -4.02686e-19)
(0.193926 -0.268319 1.92949e-18)
(0.218755 -0.383076 -1.15818e-18)
(0.25179 -0.481238 0)
(0.301443 -0.555075 7.37917e-20)
(0.374909 -0.617714 4.20127e-19)
(0.472178 -0.660726 0)
(0.167599 -0.256334 9.02285e-21)
(0.194663 -0.383967 2.40608e-18)
(0.225962 -0.493124 0)
(0.272957 -0.579684 -5.53521e-19)
(0.348433 -0.65816 -5.57794e-19)
(0.454885 -0.718556 -9.02174e-20)
(0.139432 -0.239433 -1.98865e-18)
(0.169242 -0.37975 -6.2474e-19)
(0.198429 -0.499634 4.32459e-19)
(0.240875 -0.599598 6.52359e-19)
(0.316969 -0.694998 2.49579e-19)
(0.432488 -0.776846 -8.73564e-20)
(0.1107 -0.21467 0)
(0.14254 -0.367615 -6.5717e-19)
(0.169366 -0.497865 -3.99902e-19)
(0.204825 -0.612643 -4.43589e-20)
(0.279673 -0.724555 -5.80527e-19)
(0.402441 -0.833796 5.26072e-20)
(0.0834081 -0.18009 -1.01112e-18)
(0.115328 -0.344186 0)
(0.139424 -0.484247 0)
(0.165212 -0.616655 0)
(0.236001 -0.741475 2.77471e-19)
(0.360498 -0.889269 4.10619e-20)
(0.0616174 -0.136356 4.74306e-19)
(0.0895472 -0.304337 2.33488e-20)
(0.111147 -0.452746 0)
(0.124095 -0.609037 1.58242e-19)
(0.184206 -0.733465 4.07581e-20)
(0.294661 -0.954906 0)
(0.0462934 -0.0696428 5.31132e-19)
(0.0606026 -0.214392 1.24467e-20)
(0.0755793 -0.367974 0)
(0.0589244 -0.571761 -3.69908e-19)
(0.138638 -0.654663 2.27257e-20)
(0.16404 -1.09024 7.29906e-20)
(0.600442 0.0269515 5.80535e-21)
(0.681023 0.0429028 -6.68072e-20)
(0.730871 0.0430203 0)
(0.773881 0.0400601 1.46084e-21)
(0.809124 0.0362472 1.11286e-20)
(0.838975 0.0324 -9.00208e-21)
(0.8644 0.028798 -1.55244e-20)
(0.886221 0.0255046 1.44532e-20)
(0.904992 0.0225326 -1.28587e-20)
(0.921176 0.0198665 1.21278e-20)
(0.935137 0.017479 -1.12119e-20)
(0.947165 0.0153378 -1.05635e-20)
(0.957497 0.0134091 0)
(0.966326 0.0116585 -3.77238e-20)
(0.973811 0.0100534 1.76417e-20)
(0.980085 0.008569 0)
(0.985274 0.00719084 0)
(0.989494 0.00591325 -1.65904e-20)
(0.992861 0.00473452 0)
(0.995479 0.00365187 -2.93592e-20)
(0.997433 0.00266009 5.80436e-20)
(0.998781 0.00175806 -1.39388e-20)
(0.999571 0.000965011 1.34227e-20)
(0.999935 0.000305952 -2.36967e-20)
(0.592021 -0.0085341 0)
(0.670899 0.0130274 0)
(0.7232 0.0164347 8.1856e-20)
(0.767862 0.0155306 -2.53768e-20)
(0.804266 0.0135359 -1.25894e-21)
(0.83499 0.0113493 -3.54249e-20)
(0.861103 0.00926489 -1.60317e-20)
(0.883487 0.00739585 -4.30502e-20)
(0.902723 0.00578345 0)
(0.919294 0.00442679 0)
(0.933579 0.00330826 -2.2175e-20)
(0.945881 0.00240519 1.89424e-22)
(0.956445 0.00169349 0)
(0.965472 0.00114655 -1.88362e-20)
(0.973128 0.00073473 1.87743e-20)
(0.979551 0.00042602 0)
(0.984866 0.000191394 0)
(0.989192 1.09312e-05 1.6601e-20)
(0.992644 -0.000124597 0)
(0.995329 -0.000216332 -4.66673e-22)
(0.997337 -0.000259665 -4.4994e-22)
(0.998737 -0.000247044 -1.38557e-20)
(0.999547 -0.000183124 0)
(0.999918 -9.60754e-05 2.37064e-20)
(0.590977 -0.0416385 -1.3934e-19)
(0.664055 -0.0181194 1.13463e-19)
(0.717347 -0.0115557 8.14146e-20)
(0.763108 -0.0100859 6.94286e-20)
(0.800546 -0.0100425 -4.10973e-20)
(0.8321 -0.010412 3.52933e-20)
(0.858892 -0.0108606 6.22947e-22)
(0.881823 -0.011212 3.74949e-22)
(0.901501 -0.0113893 2.59322e-20)
(0.918427 -0.0113747 -4.86372e-20)
(0.932994 -0.0111738 4.43183e-20)
(0.945518 -0.010798 -6.29031e-20)
(0.956256 -0.0102597 3.5525e-22)
(0.965415 -0.00957508 3.75678e-20)
(0.973169 -0.00876907 -3.63073e-20)
(0.979661 -0.00787808 0)
(0.985019 -0.00694387 6.6621e-20)
(0.989363 -0.00600131 -8.05431e-20)
(0.992812 -0.00506897 6.1774e-20)
(0.995476 -0.00414748 -5.97027e-20)
(0.997451 -0.0032228 5.74269e-20)
(0.998779 -0.00228275 -4.16414e-20)
(0.999443 -0.00136315 0)
(0.999614 -0.000538035 -9.59746e-20)
(0.591151 -0.0724969 2.33067e-19)
(0.659893 -0.049251 -2.24309e-19)
(0.713536 -0.040371 -5.29191e-20)
(0.759926 -0.0365644 -2.79206e-19)
(0.798189 -0.0343992 -1.19996e-19)
(0.830473 -0.0328533 1.06867e-19)
(0.857892 -0.0315684 1.89707e-19)
(0.881329 -0.030315 1.14043e-19)
(0.901409 -0.0289829 5.21923e-20)
(0.918643 -0.0275353 0)
(0.93344 -0.0259645 0)
(0.946128 -0.0242696 -8.29033e-20)
(0.956974 -0.0224506 1.1893e-19)
(0.966194 -0.0205113 7.48007e-20)
(0.973968 -0.0184686 7.15899e-20)
(0.980447 -0.0163593 0)
(0.985761 -0.014235 -6.61514e-20)
(0.990034 -0.0121453 0)
(0.993388 -0.0101204 0)
(0.995942 -0.00816235 1.18414e-19)
(0.997798 -0.00625021 -2.28735e-19)
(0.998951 -0.00437632 -5.49842e-20)
(0.999264 -0.00262082 -1.40859e-23)