/*--------------------------------*- C++ -*----------------------------------*\
  =========                 |
  \\      /  F ield         | OpenFOAM: The Open Source CFD Toolbox
   \\    /   O peration     | Website:  https://openfoam.org
    \\  /    A nd           | Version:  11
     \\/     M anipulation  |
\*---------------------------------------------------------------------------*/
FoamFile
{
    format      ascii;
    class       volScalarField;
    location    "0.26";
    object      nut;
}
// * * * * * * * * * * * * * * * * * * * * * * * * * * * * * * * * * * * * * //

dimensions      [0 2 -1 0 0 0 0];

internalField   nonuniform List<scalar> 
2880
(
1.00722e-06
5.59235e-06
1.83061e-05
3.94021e-05
6.26209e-05
0.000102861
3.29027e-05
7.50677e-05
0.000137084
0.000197433
0.000243067
0.000284774
0.000183086
0.000149209
0.000254943
0.000342766
0.000399817
0.00042824
4.75599e-05
0.000199435
0.000343299
0.000450102
0.000519309
0.000554794
5.17603e-05
0.000238361
0.000410699
0.000531961
0.000613407
0.000662293
5.48595e-05
0.000271244
0.000462219
0.000594471
0.000687855
0.00075065
5.71995e-05
0.000300319
0.000502535
0.000643391
0.00074772
0.000823315
5.8977e-05
0.000325849
0.000534109
0.000681717
0.000795859
0.000882625
6.03137e-05
0.000347471
0.000557847
0.000710887
0.000833916
0.000930607
6.12931e-05
0.000364648
0.000573964
0.000731546
0.000862968
0.000969006
6.19806e-05
0.000376474
0.000582428
0.000743952
0.000883839
0.000999604
6.24188e-05
0.000382081
0.000583142
0.000748117
0.000896786
0.00102387
6.24961e-05
0.000381766
0.000575892
0.000743789
0.000901518
0.00104084
6.22256e-05
0.000375958
0.000560898
0.000730836
0.000897174
0.00105114
6.15663e-05
0.000364705
0.000538075
0.000708522
0.000883512
0.00105416
6.051e-05
0.000347946
0.000507456
0.000675945
0.000858107
0.00104793
5.90198e-05
0.00032564
0.000468974
0.000632303
0.000818379
0.00103186
5.70358e-05
0.000297712
0.000422777
0.000576934
0.000762267
0.000998891
5.4471e-05
0.000263953
0.000369336
0.000509279
0.000687522
0.000940409
5.12334e-05
0.00022379
0.000309611
0.000429053
0.000592405
0.000845552
0.000200751
0.000176796
0.00024403
0.000337789
0.000477079
0.000703641
0.000179914
0.000121604
0.00017145
0.00023917
0.00034535
0.000504711
3.22246e-05
5.73147e-05
8.8906e-05
0.000138933
0.000207405
0.000276203
9.57637e-07
4.68995e-06
1.69779e-05
4.99982e-05
0.000111625
0.000200604
0.000381857
0.000709933
0.00104247
0.00131814
0.00151242
0.00161027
0.00168254
0.00175923
0.00186489
0.00201547
0.00221699
0.00246668
0.00275587
0.00307283
0.00340468
0.00373863
0.00406304
0.004368
0.00464495
0.00488514
0.00507871
0.00521829
0.0053073
0.00537585
0.000313159
0.000568215
0.000857746
0.00113023
0.00137142
0.00150787
0.00159085
0.00166245
0.00174784
0.00186736
0.00203358
0.00225036
0.0025142
0.00281688
0.00314825
0.00349843
0.00385914
0.00422325
0.00458216
0.00492186
0.00522244
0.00545426
0.00563519
0.00574086
0.000342274
0.000512761
0.000698244
0.000960139
0.0011943
0.0013897
0.00149349
0.00157074
0.00164599
0.00174149
0.00187447
0.00205508
0.00228595
0.00256392
0.00288292
0.00323697
0.00362173
0.00403279
0.00446037
0.00488374
0.00526458
0.00557056
0.00581679
0.00594574
0.00050293
0.000513466
0.000614876
0.000809522
0.00103706
0.00124533
0.00139095
0.00148055
0.0015547
0.00163481
0.00174014
0.0018853
0.00207875
0.00232306
0.00261728
0.00296017
0.00335194
0.00379157
0.00426904
0.00475806
0.00520052
0.00557318
0.0058682
0.00602038
0.000657639
0.000564623
0.000621283
0.000703435
0.000889378
0.00109504
0.00127862
0.00138706
0.00146808
0.00154192
0.0016277
0.00174219
0.00189807
0.00210321
0.00236205
0.0026785
0.0030578
0.0035034
0.00400748
0.00454147
0.00503293
0.00546157
0.00579707
0.00597527
0.00077774
0.000687778
0.000664187
0.000679823
0.000788623
0.000961916
0.0011376
0.0012822
0.00137958
0.00145647
0.00153191
0.00162339
0.00174586
0.00191101
0.00212791
0.00240524
0.00275322
0.00318076
0.00368522
0.0042405
0.0047679
0.00524054
0.00560885
0.00581818
0.000872584
0.000825358
0.00074244
0.000725625
0.000739005
0.000862073
0.00102323
0.00117069
0.00128615
0.0013729
0.00144664
0.00152397
0.00162033
0.00174933
0.00192304
0.00215363
0.00245537
0.00284263
0.00332034
0.00386997
0.00441754
0.00491977
0.0053126
0.00555692
0.000948556
0.000941286
0.000855561
0.000797534
0.000765535
0.000806743
0.000928169
0.00106476
0.00118808
0.00128609
0.00136483
0.00143688
0.00151624
0.0016166
0.00175114
0.00193377
0.00218097
0.0025112
0.00293734
0.00345225
0.00399997
0.00451137
0.00493243
0.00519669
0.00100955
0.00102873
0.000966418
0.000886439
0.000850854
0.000802876
0.000869255
0.000980976
0.00109544
0.00119855
0.00128378
0.00135653
0.00142722
0.00150785
0.00161101
0.0017504
0.00194256
0.00220742
0.00256376
0.00301648
0.00354081
0.00403898
0.00448
0.00475719
0.00105841
0.00109473
0.00105991
0.000986946
0.000932683
0.000877274
0.000849296
0.000920467
0.0010165
0.00111524
0.00120372
0.00127939
0.00134742
0.00141667
0.00149766
0.00160247
0.00174586
0.00194653
0.00222556
0.00259822
0.00305907
0.00353954
0.00397225
0.00426063
0.00109861
0.00114637
0.001133
0.00107753
0.00101197
0.000968016
0.000893917
0.000897377
0.000961086
0.0010442
0.00112897
0.00120566
0.00127345
0.00133722
0.0014045
0.00148471
0.00158975
0.00173508
0.0019401
0.00222445
0.00259687
0.00303654
0.00343699
0.00373411
0.00113267
0.00118904
0.00118977
0.00115143
0.00109188
0.00104615
0.000975399
0.000922718
0.000938883
0.000995105
0.00106672
0.00113914
0.00120553
0.00126635
0.00132582
0.0013901
0.00146792
0.00157079
0.0017139
0.00191574
0.00219326
0.00254871
0.0029217
0.0032012
0.00116201
0.00122641
0.00123601
0.00121082
0.00116474
0.00111236
0.00106399
0.000983528
0.000959936
0.000978988
0.00102714
0.00108726
0.00114798
0.00120485
0.00125889
0.00131333
0.00137319
0.00144635
0.00154331
0.00167799
0.00186716
0.00212477
0.00244149
0.00269734
0.00118733
0.00126082
0.00127659
0.00126045
0.00122584
0.00117905
0.00113783
0.00106409
0.00101341
0.00100234
0.00102136
0.0010607
0.00110872
0.00115786
0.00120553
0.00125223
0.00130029
0.00135389
0.0014195
0.00150597
0.00162533
0.00179292
0.00201892
0.00225263
0.00120866
0.00129371
0.00131502
0.00130534
0.0012801
0.00124419
0.00120283
0.00115371
0.00108796
0.00105992
0.00105471
0.00107022
0.00109934
0.00113493
0.00117262
0.00121059
0.00124867
0.00128856
0.00133352
0.00138831
0.0014597
0.00155798
0.00169929
0.00188325
0.001225
0.00132569
0.00135361
0.00134952
0.00133225
0.00130638
0.0012726
0.00123646
0.00118109
0.00114616
0.00112627
0.00112183
0.00113058
0.00114846
0.00117173
0.00119762
0.00122459
0.00125247
0.00128231
0.00131613
0.00135703
0.0014097
0.00148502
0.00161229
0.00123466
0.00135654
0.00139363
0.00139574
0.0013861
0.00136995
0.00134733
0.00131931
0.00128628
0.00125021
0.00122764
0.00121238
0.00120568
0.00120678
0.00121397
0.00122527
0.001239
0.00125419
0.00127061
0.00128867
0.00130937
0.00133423
0.00136624
0.001444
0.00123618
0.00138495
0.00143524
0.00144532
0.00144404
0.00143784
0.00142591
0.00140999
0.00139046
0.0013666
0.00134703
0.00132974
0.00131591
0.00130628
0.00130084
0.00129895
0.00129972
0.00130234
0.00130624
0.00131113
0.00131696
0.00132413
0.0013311
0.00137338
0.00122802
0.00140794
0.00147723
0.00149784
0.00150661
0.00151057
0.00151022
0.00150506
0.00149654
0.00148503
0.00147165
0.00145809
0.00144409
0.00143096
0.00141939
0.00140966
0.00140168
0.00139516
0.00138971
0.00138491
0.00138043
0.0013764
0.00137112
0.00139275
0.00120512
0.00142201
0.00151676
0.00155063
0.00157209
0.00158819
0.00159912
0.00160458
0.00160517
0.00160132
0.00159461
0.0015857
0.00157486
0.00156264
0.0015502
0.00153833
0.00152736
0.0015173
0.00150784
0.0014985
0.00148901
0.00148011
0.00147233
0.00148525
0.0011624
0.00142495
0.00154914
0.00159802
0.0016348
0.00166603
0.00169064
0.00170776
0.00171718
0.00171972
0.00171764
0.00171137
0.00170191
0.0016907
0.00167882
0.00166737
0.00165738
0.0016493
0.00164366
0.00164064
0.00163968
0.00163987
0.00164281
0.00165734
0.00108913
0.0014145
0.00156802
0.00163114
0.00168374
0.00173235
0.00177421
0.00180726
0.00182918
0.00183939
0.00184413
0.00184196
0.00183461
0.0018239
0.00181153
0.0017988
0.00178666
0.00177624
0.0017685
0.00176436
0.00176476
0.00177054
0.00178225
0.00180152
0.000981663
0.00139162
0.00156623
0.00163589
0.00169664
0.00175692
0.00181288
0.00186536
0.00190289
0.00192665
0.00194668
0.00195663
0.00195873
0.00195518
0.00194792
0.00193871
0.00192923
0.00192095
0.00191479
0.00191132
0.00191085
0.00191357
0.00191994
0.00193029
0.000870794
0.00136169
0.00154057
0.00160629
0.00166875
0.00173425
0.00179831
0.00186383
0.00191155
0.0019457
0.00197663
0.00199675
0.00200807
0.00201251
0.002012
0.0020083
0.00200296
0.00199724
0.00199211
0.00198828
0.00198625
0.00198651
0.00198966
0.00199574
7.60244e-07
4.48893e-06
2.49678e-05
6.38075e-05
0.000120628
0.000201536
2.70914e-05
2.5802e-05
8.33855e-05
0.000158512
0.000250234
0.000353413
0.000163584
6.45453e-05
0.000162788
0.000271982
0.000410115
0.000606004
0.000184186
0.000106581
0.000237043
0.000374496
0.000549441
0.000780488
0.000197965
0.000147908
0.00030132
0.000460283
0.000654107
0.000873623
4.81077e-05
0.000185072
0.00035462
0.000528168
0.000726972
0.000913771
4.95631e-05
0.00021769
0.000397409
0.000579459
0.000769373
0.000926163
5.06406e-05
0.000244448
0.000430729
0.000614375
0.000789804
0.000921664
5.13698e-05
0.000264717
0.000454444
0.000635474
0.00079546
0.000906139
5.17853e-05
0.000278794
0.000469678
0.000645011
0.000790632
0.000883516
5.18989e-05
0.000286583
0.000477164
0.000645146
0.000777662
0.000856056
5.17686e-05
0.000288227
0.000477512
0.000637485
0.000757974
0.000824533
5.14402e-05
0.00028316
0.000471058
0.000623165
0.000732532
0.000788935
5.09865e-05
0.000271537
0.000458156
0.000602895
0.000701897
0.00074862
5.03797e-05
0.000254623
0.000439242
0.000577177
0.000666311
0.000702618
4.95856e-05
0.000234008
0.000415057
0.000546341
0.00062608
0.000649952
4.8536e-05
0.000212143
0.000386885
0.00051062
0.000581282
0.000592224
0.000200489
0.00019624
0.00035658
0.000470118
0.000531862
0.000531106
0.0001941
0.000189802
0.000326192
0.000423964
0.000477719
0.000464206
0.000186777
0.00017959
0.000290396
0.00037164
0.000417998
0.000393312
0.000175828
0.000159021
0.000243508
0.000307935
0.000348552
0.000322793
0.000161031
0.000119999
0.000179108
0.000227696
0.000263027
0.00025327
2.85018e-05
5.67535e-05
9.10351e-05
0.000124019
0.000148639
0.000178874
8.75788e-07
3.19583e-06
7.82889e-06
1.58005e-05
2.60479e-05
5.16156e-05
0.000888571
0.00133873
0.00149357
0.00154845
0.00160337
0.00166318
0.00172419
0.00178907
0.00184153
0.00187905
0.00191852
0.0019489
0.00197083
0.00198545
0.00199401
0.00199775
0.00199801
0.00199584
0.00199216
0.00198785
0.00198398
0.00198189
0.00198276
0.00198704
0.00099719
0.00131918
0.00142487
0.00145802
0.00149364
0.00153561
0.00158116
0.00162992
0.00167626
0.00170698
0.00174175
0.00177157
0.00179502
0.00181376
0.00182835
0.00183905
0.00184615
0.00185012
0.00185143
0.0018507
0.00184882
0.00184697
0.0018469
0.00185159
0.00106997
0.00128422
0.00133662
0.00134198
0.00135102
0.0013679
0.00139136
0.00141918
0.00145049
0.00147296
0.00150099
0.00153382
0.00156612
0.00159429
0.00161809
0.00163768
0.00165335
0.00166557
0.00167487
0.00168204
0.00168806
0.00169465
0.00170158
0.00171498
0.00109508
0.00123112
0.00123627
0.00121128
0.00119102
0.00118054
0.00117947
0.00118665
0.00120329
0.00123311
0.00127153
0.00130723
0.00133885
0.00136735
0.0013932
0.00141595
0.00143531
0.00145112
0.00146329
0.00147196
0.00147723
0.00148029
0.00148007
0.00148544
0.00109276
0.00116406
0.00113203
0.0010778
0.00102964
0.000993718
0.000969025
0.000958747
0.000963989
0.000964624
0.0009698
0.000979402
0.000995162
0.00101443
0.00103511
0.0010552
0.0010734
0.0010888
0.0011008
0.00110926
0.00111342
0.00111522
0.00110909
0.00110336
0.00107077
0.00109289
0.00103179
0.000952654
0.000881466
0.000826315
0.000784281
0.00075571
0.00071464
0.000683124
0.000665406
0.000658094
0.000664876
0.00068186
0.000704305
0.000727106
0.000748286
0.000767188
0.000783399
0.000797548
0.000807789
0.00081954
0.000820384
0.000844732
0.00103653
0.00102427
0.000941995
0.000844992
0.000763413
0.000694163
0.00064435
0.000592859
0.000528619
0.000493413
0.000489893
0.000528921
0.000582195
0.000634498
0.000679081
0.000718669
0.000754755
0.000788517
0.000820923
0.000853473
0.00088678
0.000924154
0.000957123
0.0010324
0.000997035
0.000961962
0.000866523
0.000761983
0.00067477
0.000605296
0.000563369
0.000488405
0.000442237
0.000451619
0.000511519
0.000577955
0.000642144
0.000703734
0.000763109
0.000821675
0.00088051
0.000940692
0.0010036
0.00107135
0.00114709
0.00123329
0.00133686
0.00148803
0.000956445
0.000906953
0.000804485
0.000694955
0.00060587
0.000545337
0.00050012
0.000430584
0.0004281
0.000486999
0.000562588
0.000638531
0.000713683
0.000789166
0.000867486
0.000949555
0.0010369
0.00113138
0.0012354
0.00135219
0.00148679
0.00164819
0.00185514
0.00206537
0.000916118
0.000857402
0.000752216
0.000637427
0.000549968
0.000512845
0.000438567
0.000412941
0.000465325
0.000544394
0.000631551
0.000725237
0.000822163
0.000920596
0.00102085
0.00112484
0.00123557
0.00135733
0.00149615
0.00166037
0.00185924
0.00210907
0.00241809
0.00263921
0.000875184
0.000808202
0.000700099
0.000581317
0.00050513
0.000464838
0.000403283
0.000442682
0.000530089
0.000636812
0.000761071
0.000892405
0.00102574
0.00116166
0.00130186
0.00144841
0.00160447
0.00177549
0.00197027
0.00220075
0.00247967
0.00280713
0.00310199
0.00331857
0.000831168
0.000752202
0.000640748
0.0005181
0.000478324
0.000409151
0.000424089
0.0005133
0.000632878
0.000776181
0.000928674
0.00108378
0.00124266
0.00140778
0.00158202
0.00176948
0.00197655
0.0022125
0.00248837
0.00281215
0.00318081
0.00354164
0.00383976
0.00408897
0.000780748
0.000685692
0.000564764
0.000469554
0.000432846
0.000397779
0.000481616
0.00060781
0.000763424
0.000932681
0.0011041
0.00127755
0.00145466
0.00163771
0.00183074
0.00204079
0.00227874
0.00255857
0.00289333
0.00328573
0.00371555
0.00409922
0.00443384
0.00468305
0.00072254
0.00061415
0.000485299
0.00043834
0.000383112
0.000448445
0.000574475
0.000735732
0.000920817
0.0011116
0.00130854
0.00151209
0.0017227
0.0019424
0.00217577
0.00243085
0.00271925
0.00305407
0.0034435
0.00388069
0.00431074
0.00469469
0.00502848
0.00523339
0.000656093
0.000544425
0.000420461
0.000394753
0.000397566
0.000518942
0.000686119
0.00088482
0.00109352
0.00131036
0.00153468
0.00176644
0.00200709
0.00226019
0.00253204
0.00283209
0.0031719
0.00356091
0.00399855
0.00446651
0.00489181
0.00527149
0.0056011
0.00576972
0.000580326
0.000459972
0.00039569
0.000359459
0.000462764
0.00063407
0.000833395
0.00105619
0.00128788
0.00152808
0.00177621
0.00203205
0.00229706
0.00257551
0.00287496
0.00320596
0.00357967
0.00400206
0.00446548
0.00494235
0.00535808
0.00573067
0.00603399
0.00618187
0.000503974
0.00038498
0.000353325
0.000381653
0.000538671
0.000753839
0.000990859
0.00123735
0.00149403
0.00176011
0.00203404
0.00231535
0.00260582
0.00290991
0.00323495
0.00359048
0.0039853
0.00442129
0.00488597
0.00534542
0.0057386
0.00609008
0.00635402
0.00648623
0.000431766
0.000336616
0.000338294
0.000433498
0.000666059
0.000915086
0.00117256
0.00144129
0.00172118
0.00200959
0.00230433
0.00260536
0.00291503
0.00323786
0.00358032
0.0039499
0.00435212
0.00478503
0.00523315
0.00566397
0.00602227
0.00634034
0.00656722
0.0066843
0.000341183
0.000316699
0.000342788
0.000537227
0.000805621
0.00107823
0.00135942
0.00165354
0.00195694
0.00226563
0.00257791
0.00289449
0.00321792
0.00355205
0.00390173
0.00427194
0.00466525
0.00507725
0.005492
0.00588257
0.00619746
0.00647264
0.00666457
0.00676683
0.000220542
0.000304023
0.000385365
0.000645019
0.000967554
0.0012621
0.00156885
0.0018852
0.00220625
0.00252901
0.00285298
0.00317934
0.00351013
0.0038477
0.00419451
0.00455254
0.0049216
0.00529606
0.00566161
0.00599594
0.0062637
0.00648198
0.00663758
0.00672354
0.000153327
0.000300541
0.000466419
0.000803645
0.00114964
0.0014652
0.00179326
0.00212639
0.00245994
0.00279208
0.00312295
0.00345367
0.00378529
0.0041183
0.0044525
0.00478677
0.00511835
0.005441
0.00574294
0.00600727
0.00621542
0.00636286
0.00647386
0.00653841
0.00016035
0.000331067
0.000594506
0.000993575
0.00133588
0.00168165
0.00202844
0.00237336
0.00271438
0.00305101
0.00338379
0.00371332
0.00403936
0.00436034
0.00467332
0.00497424
0.00525784
0.00551721
0.00574276
0.0059226
0.00604668
0.00611208
0.00615132
0.00618182
0.000182301
0.000393619
0.000780908
0.00120828
0.00156259
0.00191973
0.00227409
0.00262334
0.00296623
0.00330253
0.00363245
0.00395563
0.0042703
0.00457283
0.0048578
0.00511844
0.00534714
0.00553567
0.00567501
0.00575578
0.00577151
0.0057265
0.00565139
0.00560916
0.000205441
0.000502635
0.000993251
0.00141301
0.00179682
0.00216262
0.00251932
0.00286866
0.00320988
0.00354242
0.0038658
0.00417852
0.0044773
0.00475668
0.00500921
0.00522604
0.00539764
0.00551431
0.00556619
0.00554326
0.00543715
0.005248
0.00499931
0.00476431
9.12275e-07
6.52932e-06
2.65312e-05
6.44997e-05
0.000129081
4.98966e-05
3.09474e-05
7.40092e-05
0.000149283
0.00023944
0.000348411
0.000418859
0.000176363
0.000145395
0.000256184
0.000371603
0.000506789
0.000711721
0.00019171
0.000195692
0.000327427
0.000455059
0.00061105
0.000857563
0.000201159
0.000228299
0.000370685
0.000510037
0.000673607
0.00092475
4.79653e-05
0.000248407
0.000396007
0.000541046
0.000712515
0.000990599
4.92084e-05
0.000262491
0.00041063
0.000554665
0.000746245
0.00105006
5.00991e-05
0.000272335
0.000417526
0.00055843
0.00077829
0.00110524
5.07186e-05
0.000278886
0.000418538
0.000559771
0.000806543
0.00115599
5.10961e-05
0.000282661
0.000415116
0.000560264
0.000829542
0.00120112
5.12784e-05
0.000283938
0.000408238
0.000557989
0.000847428
0.00123911
5.13259e-05
0.000282333
0.000398608
0.000551111
0.000859059
0.00126885
5.12981e-05
0.000277547
0.000386355
0.000538576
0.000862979
0.00128894
5.10339e-05
0.000269645
0.000371179
0.000520435
0.000857432
0.00129774
5.04665e-05
0.000258609
0.000352965
0.000495473
0.000840395
0.0012934
4.9594e-05
0.000244384
0.00033163
0.000465708
0.000808647
0.00127377
4.84838e-05
0.000226911
0.000306747
0.00042939
0.000762272
0.00123627
4.73385e-05
0.000206197
0.000278087
0.000386974
0.000697371
0.00117715
0.000197114
0.000182318
0.000244782
0.00033885
0.000612782
0.00109217
0.000189015
0.000154662
0.000205544
0.000285172
0.000509222
0.000973995
0.000176078
0.000124118
0.000159108
0.000225645
0.000390788
0.000812327
0.000159225
8.72735e-05
0.000107573
0.000158384
0.000264874
0.000593796
2.77667e-05
4.10067e-05
5.15962e-05
8.37918e-05
0.000144171
0.000314079
7.72372e-07
2.25478e-06
7.57293e-06
2.55483e-05
5.73853e-05
9.57884e-05
0.000273861
0.00078109
0.00132639
0.00169835
0.00205285
0.00240674
0.00275921
0.00310546
0.0034423
0.00376827
0.0040821
0.00438121
0.00466095
0.00491437
0.00513267
0.00530586
0.00542371
0.00547628
0.00545386
0.00534558
0.00513634
0.00480132
0.00429243
0.00354212
0.000736706
0.00126044
0.00159767
0.00192931
0.00227757
0.00263357
0.00298632
0.00332947
0.00366033
0.00397767
0.00427977
0.0045631
0.00482188
0.00504816
0.0052325
0.00536492
0.00543596
0.00543752
0.005363
0.0052066
0.00496144
0.00461673
0.00415409
0.00353388
0.000989586
0.00144773
0.00177971
0.00212735
0.00248834
0.00284927
0.0032008
0.0035388
0.00386181
0.00416879
0.00445743
0.00472333
0.0049598
0.00515828
0.00530929
0.00540365
0.00543366
0.00539399
0.00528177
0.00509594
0.0048356
0.00449791
0.00407596
0.0035465
0.00114788
0.00160604
0.00195653
0.00232055
0.00268987
0.00305194
0.00339981
0.00373103
0.00404486
0.0043401
0.00461379
0.00486072
0.00507346
0.00524316
0.00536073
0.00541832
0.00541063
0.00533575
0.00519497
0.00499167
0.00472906
0.00440815
0.00402758
0.00357181
0.00128446
0.00174562
0.00212012
0.00250038
0.00287626
0.00323793
0.00358103
0.00390457
0.00420822
0.00449049
0.00474779
0.00497412
0.0051615
0.00530101
0.00538426
0.00540514
0.0053611
0.00525379
0.00508843
0.0048721
0.00461097
0.00430871
0.003968
0.00357902
0.00139176
0.001866
0.0022684
0.00266427
0.00304545
0.00340579
0.00374345
0.00405862
0.0043512
0.00461935
0.00485881
0.00506291
0.00522323
0.005331
0.00537887
0.0053628
0.00528335
0.00514586
0.00495935
0.00473407
0.00447843
0.00419785
0.00389748
0.00357124
0.00148733
0.00197435
0.00240271
0.00281184
0.00319687
0.00355509
0.00388676
0.00419296
0.00447365
0.0047266
0.0049469
0.00512726
0.00525899
0.00533372
0.00534549
0.00529275
0.0051795
0.00501496
0.00481169
0.00458253
0.00433723
0.00408177
0.00382206
0.00355374
0.00157359
0.00207307
0.00252329
0.002943
0.00333054
0.00368599
0.0040112
0.00430788
0.00457596
0.00481277
0.00501277
0.00516816
0.00527015
0.00531104
0.00528667
0.00519843
0.0050541
0.00486681
0.00465225
0.00442499
0.00419491
0.00396734
0.00374739
0.00353104
0.00165006
0.00216287
0.00263022
0.00305803
0.00344696
0.00379907
0.00411739
0.00440407
0.00465895
0.00487888
0.00505774
0.00518731
0.00525889
0.00526581
0.00520609
0.00508455
0.00491301
0.00470836
0.00448872
0.0042692
0.00405857
0.00386036
0.00367784
0.00350657
0.00171634
0.00224369
0.00272357
0.00315747
0.00354689
0.00389518
0.00420625
0.00448258
0.00472382
0.00492638
0.00508361
0.00518696
0.00522806
0.00520157
0.0051082
0.00495659
0.00476276
0.00454692
0.00432859
0.00412207
0.00393383
0.00376486
0.00361613
0.00348264
0.00177329
0.00231361
0.00280331
0.00324197
0.00363122
0.00397533
0.0042789
0.00454464
0.00477204
0.00495705
0.00509255
0.00516978
0.00518091
0.00512231
0.00499783
0.0048203
0.00460986
0.00438928
0.00417817
0.00398867
0.00382412
0.00368278
0.00356337
0.00346062
0.00182024
0.00237164
0.00286959
0.00331223
0.00370094
0.00404064
0.00433658
0.00459168
0.00480528
0.00497289
0.00508696
0.00513867
0.00512093
0.00503222
0.00487996
0.00468137
0.00446032
0.0042411
0.004042
0.00387192
0.00373078
0.00361433
0.00351953
0.00344121
0.00185611
0.00241718
0.00292257
0.00336895
0.00375702
0.00409225
0.00438058
0.0046252
0.00482529
0.004976
0.00506937
0.00509664
0.00505171
0.00493552
0.00475941
0.00454497
0.00431917
0.0041065
0.0039227
0.00377279
0.00365348
0.0035586
0.00348394
0.00342473
0.00187978
0.0024497
0.0029624
0.00341283
0.00380043
0.00413132
0.0044122
0.00464668
0.00483385
0.00496848
0.0050423
0.0050467
0.00497679
0.00483627
0.00464062
0.00441556
0.00419019
0.00398796
0.00382109
0.0036907
0.00359084
0.0035141
0.00345564
0.00341119
0.0018901
0.00246856
0.00298904
0.00344445
0.00383211
0.00415893
0.00443271
0.00465759
0.00483266
0.00495239
0.00500822
0.00499176
0.00489954
0.00473824
0.00452746
0.0042966
0.00407581
0.0038864
0.00373665
0.00362414
0.003541
0.00347918
0.0034336
0.00340046
0.00188578
0.00247283
0.00300212
0.00346431
0.00385291
0.00417611
0.00444326
0.00465928
0.00482336
0.00492968
0.00496944
0.00493456
0.00482307
0.00464472
0.00442308
0.00419049
0.00397718
0.00380155
0.00366798
0.00357116
0.00350198
0.00345224
0.00341682
0.00339227
0.00186528
0.00246116
0.00300076
0.00347277
0.00386361
0.00418378
0.00444492
0.004653
0.00480742
0.00490214
0.00492811
0.00487758
0.00475013
0.0045585
0.00432983
0.00409865
0.00389442
0.00373235
0.0036133
0.00352974
0.00347194
0.00343182
0.00340435
0.00338628
0.00182659
0.00243138
0.00298308
0.00347009
0.00386495
0.00418279
0.0044386
0.00463983
0.00478617
0.00487136
0.00488613
0.00482303
0.00468309
0.00448178
0.00424929
0.00402162
0.00382693
0.00367731
0.00357069
0.003498
0.00344926
0.00341666
0.0033953
0.00338211
0.00176531
0.00238202
0.0029496
0.0034566
0.00385767
0.00417386
0.0044251
0.00462072
0.00476076
0.00483875
0.00484517
0.0047728
0.00462389
0.00441623
0.00418243
0.00395936
0.00377369
0.0036348
0.00353837
0.00347432
0.00343262
0.00340578
0.00338879
0.00337932
0.00167736
0.00231285
0.00290433
0.00343199
0.00384264
0.00415769
0.00440512
0.00459648
0.00473219
0.00480553
0.00480666
0.00472845
0.00457406
0.00436303
0.00412974
0.00391148
0.00373358
0.00360332
0.0035148
0.00345733
0.00342095
0.00339799
0.00338458
0.00337757
0.00155661
0.00222343
0.00284992
0.00340117
0.00382135
0.004135
0.00437927
0.00456783
0.00470131
0.00477266
0.00477169
0.00469116
0.00453472
0.00432298
0.00409142
0.00387751
0.00370563
0.00358168
0.00349879
0.00344593
0.00341321
0.00339297
0.00338209
0.00337658
0.0013943
0.00211598
0.00279213
0.00336943
0.00379526
0.00410638
0.00434813
0.00453543
0.00466884
0.00474091
0.00474105
0.00466173
0.00450656
0.00429651
0.00406749
0.00385701
0.00368907
0.00356899
0.00348947
0.0034394
0.0034087
0.00339034
0.00338074
0.00337609
0.00117963
0.00200176
0.00274216
0.00334218
0.0037654
0.0040723
0.00431229
0.00449998
0.00463542
0.0047108
0.00471515
0.00464048
0.00448981
0.0042837
0.00405785
0.00384963
0.00368339
0.0035647
0.00348631
0.00343709
0.00340724
0.00338974
0.00338056
0.00337604
0.000937116
0.00191576
0.0027179
0.00332341
0.00373199
0.004033
0.00427227
0.00446273
0.00460319
0.00468503
0.00469668
0.00462943
0.00448562
0.00428478
0.00406188
0.00385482
0.0036883
0.00356862
0.00348924
0.00343931
0.00340906
0.00339094
0.00338122
0.00337624
8.69144e-07
3.98641e-06
1.62949e-05
3.49298e-05
5.85109e-05
8.90835e-05
2.98497e-05
2.87646e-05
6.20213e-05
0.000108868
0.000178662
0.000324285
0.00017427
7.95481e-05
0.000135917
0.000232979
0.000386588
0.000689162
4.68277e-05
0.000131735
0.000216148
0.000375002
0.000615265
0.00100197
5.11148e-05
0.000180296
0.000298437
0.000517859
0.000818275
0.00122622
5.45768e-05
0.000226071
0.000379446
0.000646667
0.000980641
0.00137639
5.74204e-05
0.000269089
0.000455887
0.0007551
0.00110375
0.00147668
5.95453e-05
0.000307162
0.000525125
0.000843711
0.00119481
0.00153813
6.11007e-05
0.000338924
0.000584957
0.000912645
0.00125609
0.00157435
6.21961e-05
0.000364169
0.000636055
0.000963827
0.00129635
0.00159254
6.29018e-05
0.000382568
0.000674317
0.00100031
0.0013203
0.00159773
6.32623e-05
0.000393788
0.000700193
0.00102393
0.00133121
0.0015933
6.33004e-05
0.000397045
0.000713647
0.00103476
0.00133153
0.00158136
6.32407e-05
0.000390257
0.000714892
0.00103281
0.00132199
0.0015628
6.30525e-05
0.000374475
0.000703845
0.00101842
0.00130246
0.00153724
6.26744e-05
0.000351304
0.00068054
0.000991254
0.00127231
0.00150517
6.20358e-05
0.000322362
0.000645087
0.000950491
0.00123006
0.00146587
6.10459e-05
0.000289235
0.000599371
0.000894884
0.00117311
0.00141655
5.9573e-05
0.000253398
0.000542171
0.000823316
0.00109522
0.00134478
5.74138e-05
0.000215704
0.000474742
0.00073546
0.000990347
0.00123965
5.42595e-05
0.000175666
0.000393643
0.000619999
0.00085697
0.00108774
4.96733e-05
0.00013209
0.000292927
0.000468636
0.000665151
0.000862847
3.47153e-05
7.30783e-05
0.000164155
0.000270988
0.000399613
0.000501158
1.15769e-06
5.80773e-06
2.17391e-05
5.35763e-05
0.000104288
4.65568e-05
0.000906411
0.00194347
0.00273678
0.0033105
0.00369421
0.00398834
0.00422742
0.00442117
0.00456753
0.00465762
0.00467938
0.00462343
0.00449056
0.00429834
0.00408013
0.00387338
0.0037043
0.00358108
0.0034984
0.00344582
0.0034135
0.00339413
0.0033828
0.00337675
0.00114914
0.00206715
0.0027801
0.00328826
0.00365018
0.00393876
0.004179
0.00437754
0.00453148
0.00463174
0.00466614
0.00462441
0.0045055
0.00432433
0.00411188
0.00390505
0.00373172
0.00360261
0.00351429
0.0034571
0.0034212
0.00339904
0.0033856
0.00337762
0.00141652
0.00219195
0.00281162
0.00325665
0.00360017
0.0038848
0.00412727
0.00433167
0.00449445
0.00460656
0.00465571
0.00463084
0.00452886
0.00436152
0.0041567
0.00395014
0.00377137
0.00363424
0.00353792
0.00347399
0.00343273
0.00340634
0.00338956
0.003379
0.00162507
0.00228687
0.00281237
0.00321503
0.00354468
0.00382689
0.00407243
0.00428342
0.00445595
0.0045811
0.00464667
0.00464094
0.00455876
0.00440835
0.00421376
0.00400877
0.00382417
0.00367727
0.00357061
0.00349758
0.00344894
0.00341666
0.00339527
0.00338115
0.00177527
0.00233796
0.00279209
0.00316476
0.00348406
0.00376505
0.00401422
0.00423229
0.00441513
0.00455414
0.00463739
0.00465268
0.00459294
0.00446273
0.00428166
0.0040806
0.00389084
0.00373312
0.00361394
0.00352934
0.00347099
0.00343088
0.00340331
0.0033844
0.00187098
0.00235099
0.00275644
0.00310694
0.00341831
0.00369883
0.003952
0.00417744
0.00437094
0.00452433
0.0046261
0.00466383
0.00462883
0.00452205
0.00435832
0.00416465
0.00397169
0.00380309
0.00366973
0.00357109
0.00350048
0.00345018
0.0034143
0.00338898
0.00192047
0.0023396
0.00270919
0.00304214
0.00334697
0.00362748
0.00388485
0.00411781
0.00432215
0.00449017
0.00461094
0.00467209
0.00466362
0.00458327
0.00444099
0.00425911
0.00406634
0.0038882
0.00373984
0.00362494
0.00353925
0.00347589
0.00342905
0.00339515
0.00193771
0.00231185
0.00265273
0.00297051
0.00326941
0.00355002
0.00381164
0.00405218
0.00426742
0.00445015
0.00459009
0.00467516
0.0046945
0.00464311
0.0045263
0.00436127
0.00417345
0.00398874
0.0038259
0.0036931
0.00358943
0.0035097
0.00344891
0.00340358
0.00193483
0.00227287
0.00258869
0.0028921
0.00318492
0.0034654
0.00373115
0.00397924
0.00420534
0.0044027
0.00456173
0.00467082
0.00471866
0.0046981
0.00461035
0.00446736
0.00429025
0.00410366
0.00392858
0.00377742
0.0036533
0.00355369
0.00347524
0.00341486
0.00191927
0.00222622
0.00251844
0.00280706
0.00309296
0.00337265
0.00364217
0.00389763
0.00413447
0.00434627
0.0045241
0.00465696
0.00473343
0.00474481
0.0046889
0.00457271
0.00441249
0.00423005
0.00404688
0.00387866
0.00373265
0.00360985
0.0035095
0.00342944
0.00189572
0.00217462
0.00244337
0.00271583
0.00299325
0.00327099
0.00354357
0.00380602
0.00405334
0.00427926
0.00447547
0.00463156
0.00473628
0.00477993
0.00475763
0.00467209
0.00453457
0.00436302
0.00417763
0.00399574
0.00382813
0.00367966
0.003553
0.0034477
0.00186724
0.00212038
0.00236512
0.00261933
0.00288597
0.00315996
0.00343442
0.00370316
0.00396048
0.0042001
0.0044141
0.00459268
0.00472487
0.00480042
0.00481246
0.00476016
0.00465018
0.00449606
0.00431529
0.00412506
0.00393833
0.00376331
0.00360647
0.00346979
0.00183577
0.00206551
0.00228562
0.00251903
0.00277185
0.00303953
0.0033141
0.00358798
0.00385454
0.00410722
0.0043383
0.00453845
0.00469706
0.00480358
0.00484976
0.00483197
0.0047529
0.00462172
0.00445235
0.00426029
0.00405896
0.00385874
0.00366931
0.00349528
0.00180237
0.00201184
0.00220701
0.00241698
0.00265235
0.00291035
0.00318246
0.00345972
0.00373435