/*--------------------------------*- C++ -*----------------------------------*\
  =========                 |
  \\      /  F ield         | OpenFOAM: The Open Source CFD Toolbox
   \\    /   O peration     | Website:  https://openfoam.org
    \\  /    A nd           | Version:  11
     \\/     M anipulation  |
\*---------------------------------------------------------------------------*/
FoamFile
{
    format      ascii;
    class       volVectorField;
    location    "0.26";
    object      U;
}
// * * * * * * * * * * * * * * * * * * * * * * * * * * * * * * * * * * * * * //

dimensions      [0 1 -1 0 0 0 0];

internalField   nonuniform List<vector> 
2880
(
(0.0406459 -0.00799761 1.24624e-19)
(0.0458836 -0.0524106 1.2667e-20)
(0.0634008 -0.168392 -1.96503e-20)
(0.0731528 -0.23668 4.94502e-20)
(0.0947474 -0.395672 2.91848e-20)
(0.0729231 -0.329749 -8.64726e-20)
(0.0297322 -0.0340157 5.07792e-19)
(0.0311653 -0.0918229 3.91793e-19)
(0.0428614 -0.197246 2.9644e-19)
(0.0480521 -0.267767 -3.173e-20)
(0.0668628 -0.368563 2.67258e-20)
(0.0657728 -0.327028 1.02884e-19)
(0.0248712 -0.0444378 -4.67577e-19)
(0.016223 -0.109503 -7.07065e-19)
(0.020954 -0.203966 -3.09764e-19)
(0.0241485 -0.269528 2.91206e-20)
(0.0417039 -0.333536 -2.09681e-19)
(0.0539766 -0.309602 -4.4491e-20)
(0.0176336 -0.0527422 -5.18341e-19)
(0.00125135 -0.121385 6.96957e-19)
(-0.000735813 -0.204773 3.36062e-20)
(0.00161001 -0.264186 2.97608e-20)
(0.022301 -0.309915 3.56071e-19)
(0.0558731 -0.299495 0)
(0.00149646 -0.0600702 5.10075e-19)
(-0.014072 -0.126597 -2.84556e-19)
(-0.0214918 -0.20188 -6.42502e-20)
(-0.0197629 -0.256217 2.73292e-20)
(0.00311793 -0.292548 2.02505e-19)
(0.0493375 -0.291938 0)
(-0.0093834 -0.0613009 0)
(-0.0292452 -0.126714 0)
(-0.041481 -0.196349 -6.3678e-20)
(-0.0406842 -0.247083 4.91878e-19)
(-0.0166743 -0.278999 -3.9131e-19)
(0.0344341 -0.284626 0)
(-0.0213726 -0.0601105 -3.27561e-20)
(-0.0443004 -0.123684 1.95494e-20)
(-0.0610552 -0.189103 0)
(-0.0618797 -0.237477 -4.29313e-19)
(-0.0383423 -0.267804 0)
(0.0137243 -0.277513 0)
(-0.0329639 -0.0573589 1.64412e-20)
(-0.0590802 -0.118713 1.97506e-20)
(-0.0803144 -0.180848 -3.01921e-20)
(-0.083583 -0.227751 0)
(-0.0619971 -0.257818 3.8918e-19)
(-0.0119797 -0.270449 0)
(-0.0433001 -0.0534537 0)
(-0.0732969 -0.112591 0)
(-0.0991549 -0.172049 0)
(-0.105714 -0.218031 -3.72879e-19)
(-0.0874049 -0.248323 -4.32034e-19)
(-0.0415704 -0.262961 0)
(-0.051973 -0.0486296 0)
(-0.0866163 -0.105799 -3.82429e-20)
(-0.117353 -0.162945 -3.15784e-20)
(-0.128024 -0.208282 4.98327e-20)
(-0.114157 -0.238849 0)
(-0.0740452 -0.254673 -4.51003e-19)
(-0.0587771 -0.042994 -1.07258e-18)
(-0.0987137 -0.098591 -5.67616e-19)
(-0.134622 -0.153603 -4.54927e-19)
(-0.150179 -0.198368 2.63397e-19)
(-0.141757 -0.229052 9.46433e-20)
(-0.108513 -0.245341 -2.92125e-21)
(-0.0636013 -0.0365864 9.88579e-19)
(-0.109278 -0.0910561 6.40349e-19)
(-0.150642 -0.14397 4.86304e-19)
(-0.171799 -0.188083 0)
(-0.16968 -0.218651 0)
(-0.14414 -0.234801 2.6655e-19)
(-0.0664033 -0.0294454 1.65708e-20)
(-0.117991 -0.0831888 -3.83342e-20)
(-0.165072 -0.133911 3.04311e-20)
(-0.192492 -0.177193 0)
(-0.197397 -0.207399 9.87262e-20)
(-0.180153 -0.222955 3.82276e-21)
(-0.0671626 -0.0216294 1.66326e-20)
(-0.124514 -0.0749466 3.86792e-20)
(-0.177539 -0.123248 -3.08003e-20)
(-0.211854 -0.165448 0)
(-0.224377 -0.195083 0)
(-0.215834 -0.209751 -3.60672e-19)
(-0.0658546 -0.0132653 -1.08708e-18)
(-0.128499 -0.0662473 -5.84377e-19)
(-0.187639 -0.111766 -3.12862e-20)
(-0.229419 -0.152568 4.35428e-19)
(-0.250154 -0.181617 0)
(-0.250497 -0.195124 7.19507e-19)
(-0.0624123 -0.00454788 -1.96705e-20)
(-0.129599 -0.0569662 6.52346e-19)
(-0.194953 -0.0992245 0)
(-0.244589 -0.138295 -4.41157e-19)
(-0.274364 -0.166741 4.89998e-19)
(-0.283523 -0.179196 -4.47723e-19)
(-0.0567123 0.00425718 2.16077e-18)
(-0.127476 -0.0469458 -4.0725e-20)
(-0.19904 -0.0853821 5.59034e-19)
(-0.25667 -0.122356 0)
(-0.29629 -0.15023 -3.95567e-19)
(-0.314696 -0.16205 -2.66435e-19)
(-0.0485929 0.0127784 -2.17503e-18)
(-0.121807 -0.0360022 0)
(-0.199417 -0.0700078 -5.40768e-19)
(-0.264953 -0.104463 -4.6102e-19)
(-0.315003 -0.131838 0)
(-0.343615 -0.143573 6.29686e-19)
(-0.0378989 0.0204699 1.09497e-18)
(-0.11229 -0.0239292 3.8718e-19)
(-0.195523 -0.0528863 2.45236e-19)
(-0.268763 -0.0843612 2.37037e-19)
(-0.329596 -0.111151 -2.06763e-19)
(-0.369197 -0.123528 -3.68858e-19)
(-0.0244182 0.0269302 5.52661e-19)
(-0.0986273 -0.0105243 -3.5758e-19)
(-0.186703 -0.033848 -3.27448e-19)
(-0.266888 -0.0616519 2.76363e-19)
(-0.339346 -0.0876968 2.13358e-19)
(-0.391344 -0.101552 0)
(-0.00788429 0.0352001 -5.20645e-19)
(-0.0804312 0.00419491 2.36489e-20)
(-0.172249 -0.0129424 -1.88982e-20)
(-0.257651 -0.0360113 0)
(-0.342744 -0.0606696 0)
(-0.41014 -0.0768682 -9.90915e-20)
(0.000665662 0.0384728 0)
(-0.0574755 0.019359 0)
(-0.151228 0.00924827 -8.0579e-20)
(-0.238359 -0.00720882 1.71703e-20)
(-0.336583 -0.028379 1.55291e-20)
(-0.425375 -0.04574 7.81655e-20)
(0.00855095 0.0403696 -4.19434e-21)
(-0.0304675 0.0348329 -1.00139e-20)
(-0.120778 0.0317443 7.98736e-20)
(-0.203635 0.024927 1.81343e-20)
(-0.311624 0.0138129 -1.91953e-20)
(-0.434859 0.000805466 6.76587e-21)
(0.0198227 0.0433556 1.62678e-19)
(0.00410461 0.0490726 1.18185e-19)
(-0.070595 0.0577984 8.96398e-20)
(-0.142718 0.0641487 4.63243e-21)
(-0.240809 0.0548661 -4.09685e-21)
(-0.433261 0.012824 -6.32415e-20)
(0.804303 -0.852198 -1.28802e-20)
(1.11574 -0.888024 -5.53576e-20)
(1.26418 -0.802082 3.53753e-21)
(1.34044 -0.705495 7.7945e-21)
(1.38253 -0.614479 1.23604e-23)
(1.40179 -0.530749 -1.72455e-21)
(1.40533 -0.455554 -1.77479e-21)
(1.3988 -0.389713 -5.34338e-21)
(1.38649 -0.333172 -1.78483e-21)
(1.37133 -0.285318 -4.79686e-21)
(1.35499 -0.245115 0)
(1.33823 -0.211349 1.31878e-20)
(1.32128 -0.182851 -1.71787e-20)
(1.30416 -0.158613 2.80088e-21)
(1.28675 -0.137814 -1.90763e-20)
(1.26891 -0.119812 1.80118e-20)
(1.25042 -0.104122 1.38616e-20)
(1.23099 -0.0904154 -1.79281e-20)
(1.21019 -0.0784864 0)
(1.1874 -0.0681537 -4.76866e-21)
(1.16179 -0.0592627 0)
(1.13242 -0.0528243 8.17218e-21)
(1.09879 -0.053102 -4.80923e-21)
(1.06045 -0.060972 4.55299e-21)
(0.586264 -0.504857 0)
(1.08119 -0.763968 5.11594e-20)
(1.28961 -0.750646 8.26864e-20)
(1.38746 -0.681773 1.63014e-20)
(1.43651 -0.600625 -4.8119e-20)
(1.45871 -0.521261 -2.33392e-20)
(1.46229 -0.447469 9.72803e-21)
(1.45358 -0.381289 2.34762e-21)
(1.43752 -0.323514 3.99115e-21)
(1.41776 -0.274079 0)
(1.39666 -0.232344 0)
(1.37545 -0.197323 7.62192e-21)
(1.35462 -0.167921 9.66106e-21)
(1.33421 -0.143119 -8.07544e-21)
(1.31408 -0.122054 2.9215e-21)
(1.29397 -0.104053 -1.17264e-20)
(1.27358 -0.088626 -1.4676e-20)
(1.25247 -0.0754628 -3.1529e-20)
(1.23009 -0.064387 6.12431e-20)
(1.20569 -0.0552324 -2.98064e-20)
(1.17837 -0.0478788 3.06497e-20)
(1.14723 -0.0433726 -3.74811e-20)
(1.11184 -0.045689 1.46877e-20)
(1.07084 -0.054105 -1.32511e-20)
(0.369656 -0.31293 3.06922e-20)
(0.946362 -0.600092 3.81466e-20)
(1.26278 -0.670959 -2.45371e-21)
(1.40966 -0.639522 0)
(1.47831 -0.573462 1.22038e-19)
(1.50877 -0.500741 1.39626e-20)
(1.51593 -0.430338 -3.11572e-21)
(1.50744 -0.365389 2.50485e-20)
(1.48922 -0.30765 2.9108e-21)
(1.46574 -0.257605 -5.03179e-21)
(1.44017 -0.215024 -1.36784e-21)
(1.41441 -0.17921 -8.35586e-21)
(1.38938 -0.149231 -6.04528e-21)
(1.36533 -0.124123 0)
(1.34213 -0.103029 2.018e-20)
(1.31945 -0.0852729 2.22192e-20)
(1.29686 -0.0703721 -1.00096e-20)
(1.27382 -0.0580327 -1.48293e-20)
(1.24965 -0.0480872 2.40952e-20)
(1.22356 -0.0403685 3.67122e-20)
(1.19459 -0.0347636 1.29454e-21)
(1.16186 -0.0322379 -1.30547e-20)
(1.12495 -0.0364229 2.46419e-20)
(1.08193 -0.0462451 -4.45962e-20)
(0.265355 -0.266999 0)
(0.749054 -0.440022 -1.97333e-19)
(1.16966 -0.568636 -2.96043e-19)
(1.39454 -0.580028 0)
(1.5007 -0.533776 -7.43026e-20)
(1.54768 -0.469763 0)
(1.5629 -0.403812 0)
(1.55774 -0.341374 1.47074e-20)
(1.53958 -0.284805 0)
(1.51387 -0.235158 0)
(1.48465 -0.192558 5.45572e-21)
(1.4546 -0.156589 -4.47156e-21)
(1.42529 -0.126514 -8.07831e-21)
(1.39731 -0.101481 -4.56426e-21)
(1.3707 -0.0806851 -1.22336e-20)
(1.34511 -0.0634724 -1.27598e-20)
(1.32002 -0.0493807 2.51256e-20)
(1.29479 -0.0381255 -2.99424e-20)
(1.26869 -0.0295311 1.81367e-20)
(1.2409 -0.0234191 -5.18012e-20)
(1.21041 -0.0196696 -2.88696e-21)
(1.17631 -0.019164 2.80723e-20)
(1.13815 -0.0252174 5.50052e-20)
(1.09351 -0.0369327 -3.9404e-20)
(0.204064 -0.261862 0)
(0.568461 -0.332878 1.95628e-19)
(1.01967 -0.458242 1.60654e-19)
(1.3308 -0.504295 6.6129e-20)
(1.4945 -0.481962 -2.51965e-19)
(1.57016 -0.428651 -2.37342e-19)
(1.59922 -0.367996 8.84007e-20)
(1.60127 -0.308843 1.34868e-20)
(1.58599 -0.254326 8.2298e-20)
(1.56013 -0.205997 0)
(1.52866 -0.164262 -4.23592e-20)
(1.49511 -0.128911 0)
(1.46177 -0.0993803 -1.79817e-20)
(1.42981 -0.0749433 5.02707e-22)
(1.39955 -0.054875 2.07344e-21)
(1.37075 -0.0385711 1.74562e-21)
(1.34288 -0.0255995 1.60537e-20)
(1.31524 -0.0156857 -2.866e-20)
(1.28709 -0.0086397 0)
(1.25761 -0.00426942 0)
(1.22574 -0.00244989 0)
(1.19051 -0.0039963 0)
(1.15135 -0.0119423 0)
(1.10544 -0.0258493 1.45863e-20)
(0.161303 -0.266111 0)
(0.435514 -0.284398 0)
(0.843469 -0.361204 0)
(1.2132 -0.418811 0)
(1.44854 -0.418168 2.46296e-19)
(1.56853 -0.37768 1.93021e-19)
(1.62035 -0.323111 -7.19663e-20)
(1.6343 -0.267474 -7.014e-20)
(1.62527 -0.215646 1.1211e-19)
(1.60185 -0.169425 -8.05247e-20)
(1.5701 -0.12942 4.261e-20)
(1.5344 -0.0955385 3.14171e-20)
(1.49781 -0.0673207 -1.151e-20)
(1.46216 -0.0441374 0)
(1.42826 -0.0253443 -5.38066e-21)
(1.39611 -0.0103973 -5.31174e-21)
(1.36526 0.00109497 5.5986e-21)
(1.33505 0.00939023 6.5971e-21)
(1.30475 0.0146871 0)
(1.27357 0.0171866 0)
(1.24045 0.0170129 -8.09779e-21)
(1.20432 0.0134009 0)
(1.1644 0.00355859 2.66944e-20)
(1.11757 -0.0126986 -5.62176e-20)
(0.124706 -0.269588 1.24231e-19)
(0.34131 -0.267575 -4.2989e-22)
(0.676489 -0.295735 -5.23168e-19)
(1.05445 -0.336297 0)
(1.35408 -0.34523 0)
(1.53245 -0.31709 -2.73385e-19)
(1.61931 -0.269208 -2.20894e-19)
(1.65211 -0.21742 0)
(1.65349 -0.168557 -1.34094e-19)
(1.63563 -0.124999 -2.09443e-19)
(1.6061 -0.0874537 -8.00206e-20)
(1.5702 -0.0558597 6.02655e-20)
(1.53173 -0.029775 -4.46723e-20)
(1.49324 -0.00860223 0)
(1.4561 0.00825928 -9.60351e-21)
(1.42074 0.0213068 -6.78379e-21)
(1.38691 0.0308912 -7.12949e-21)
(1.35406 0.0372454 1.31085e-20)
(1.32156 0.0405635 0)
(1.2887 0.0410468 0)
(1.25443 0.0388162 8.20849e-21)
(1.2176 0.0331405 0)
(1.17717 0.0214439 0)
(1.12975 0.0027904 1.03264e-20)
(0.0873866 -0.269506 0)
(0.26741 -0.261542 1.16453e-19)
(0.53816 -0.259865 -2.44479e-20)
(0.882671 -0.269837 -9.78155e-20)
(1.21334 -0.272106 0)
(1.4523 -0.249294 7.23069e-19)
(1.58668 -0.207225 9.51265e-20)
(1.64806 -0.159083 1.76879e-19)
(1.66572 -0.113185 -1.90713e-19)
(1.65729 -0.072568 3.39634e-19)
(1.633 -0.0380195 6.18525e-20)
(1.59938 -0.00941975 -2.1334e-19)
(1.56104 0.0137459 4.49355e-20)
(1.52116 0.0321243 0)
(1.48176 0.0463304 2.29106e-20)
(1.44376 0.0568542 0)
(1.40728 0.0640263 2.1039e-20)
(1.37199 0.0680562 -2.33699e-20)
(1.33737 0.0691198 -1.10407e-20)
(1.30286 0.0674084 0)
(1.26755 0.0630403 1.16503e-20)
(1.23019 0.0553124 9.71799e-21)
(1.18951 0.0418461 6.45841e-21)
(1.14189 0.0208679 -2.58547e-20)
(0.0471391 -0.265979 0)
(0.201736 -0.256946 4.78502e-19)
(0.424965 -0.24064 4.33335e-19)
(0.721057 -0.225158 -2.18688e-19)
(1.04497 -0.20859 -5.74015e-19)
(1.32545 -0.180209 -3.09595e-19)
(1.51322 -0.139759 0)
(1.61353 -0.0938073 2.96528e-20)
(1.65539 -0.0502742 1.66976e-19)
(1.66162 -0.0125247 -2.78788e-19)
(1.64632 0.0187402 0)
(1.61805 0.043839 -1.51065e-20)
(1.5824 0.0634406 -7.07996e-20)
(1.54324 0.0783166 -5.43285e-20)
(1.50317 0.0891639 -4.128e-20)
(1.46369 0.0965169 -3.094e-20)
(1.42537 0.100727 0)
(1.38818 0.102001 1.0743e-20)
(1.3518 0.10049 -1.10932e-20)
(1.31582 0.0963701 -7.01888e-21)
(1.2796 0.0897438 -2.00499e-22)
(1.24192 0.0799956 0)
(1.20125 0.0648617 1.45364e-20)
(1.1538 0.0417544 -1.43931e-20)
(0.00378759 -0.25963 6.21639e-20)
(0.138099 -0.250546 -9.57778e-19)
(0.32641 -0.227929 -4.61465e-19)
(0.576647 -0.196574 4.18549e-19)
(0.872006 -0.159606 3.82519e-19)
(1.16232 -0.118259 1.69996e-19)
(1.39419 -0.0719471 -4.73368e-19)
(1.53995 -0.0248014 -2.37926e-19)
(1.61449 0.0181642 -2.36735e-20)
(1.64207 0.0538282 1.51061e-19)
(1.64063 0.0819679 0)
(1.62142 0.103329 9.20085e-20)
(1.59159 0.118944 7.11207e-20)
(1.55589 0.129857 1.18936e-19)
(1.5174 0.136792 -4.09094e-20)
(1.47822 0.140392 1.71731e-19)
(1.43945 0.141104 -5.91335e-20)
(1.40141 0.139179 1.20602e-20)
(1.36404 0.134759 -2.81219e-20)
(1.32713 0.127992 -8.64821e-22)
(1.29029 0.118962 2.14337e-20)
(1.25253 0.107206 0)
(1.21221 0.0905473 0)
(1.16531 0.0656111 -1.73098e-21)
(-0.0421271 -0.250919 5.14867e-19)
(0.0737961 -0.241581 3.56352e-19)
(0.234587 -0.216171 1.03742e-18)
(0.446435 -0.176003 -2.24244e-19)
(0.705648 -0.124681 2.12349e-19)
(0.982309 -0.0682293 3.79767e-19)
(1.2346 -0.0104405 2.91056e-19)
(1.42203 0.0429305 -5.50603e-19)
(1.53512 0.0883955 6.93827e-19)
(1.59113 0.123848 0)
(1.60934 0.149705 0)
(1.60404 0.167598 0)
(1.584 0.179263 0)
(1.5548 0.185893 -6.46163e-20)
(1.52057 0.188648 1.54128e-19)
(1.48407 0.188139 -9.25207e-20)
(1.44685 0.184951 0)
(1.40964 0.179456 2.1489e-20)
(1.37263 0.171837 -1.55866e-20)
(1.33582 0.162214 -5.63152e-20)
(1.29901 0.150663 4.74889e-20)
(1.26164 0.136859 8.41722e-21)
(1.2221 0.118873 -1.08212e-20)
(1.17624 0.0924985 4.9071e-22)
(-0.089778 -0.240127 -4.49134e-19)
(0.00820118 -0.230172 1.25161e-19)
(0.145161 -0.203234 -8.16036e-19)
(0.325041 -0.158632 6.60759e-19)
(0.548358 -0.0990181 -2.05036e-19)
(0.799587 -0.0301508 -7.5865e-19)
(1.04904 0.0396805 1.80071e-19)
(1.26206 0.103338 -2.71938e-19)
(1.41225 0.155098 2.4429e-20)
(1.50159 0.193255 1.84458e-19)
(1.5457 0.218675 -1.73212e-19)
(1.55825 0.23484 0)
(1.55265 0.242183 -1.01853e-19)
(1.53615 0.244712 0)
(1.50895 0.243259 5.69286e-21)
(1.47764 0.238556 -4.87386e-20)
(1.44431 0.231356 0)
(1.41001 0.222153 0)
(1.37523 0.211212 -2.16038e-20)
(1.34011 0.198664 -2.27127e-20)
(1.30461 0.184576 4.99402e-20)
(1.26847 0.168722 -1.53682e-20)
(1.23039 0.149601 2.15854e-20)
(1.18637 0.122339 -6.93589e-22)
(-0.138213 -0.227479 -5.79413e-19)
(-0.0581735 -0.216717 0)
(0.056608 -0.188813 -4.70282e-19)
(0.208623 -0.142231 4.49028e-19)
(0.398963 -0.0782948 -4.23551e-19)
(0.620295 -0.00217507 1.91548e-19)
(0.852584 0.0772401 1.59625e-19)
(1.07104 0.15147 -1.77149e-20)
(1.24743 0.212031 2.41917e-19)
(1.36942 0.25596 -2.27045e-19)
(1.44335 0.283932 -1.57124e-19)
(1.48057 0.2993 1.48136e-19)
(1.49186 0.304184 -6.08996e-21)
(1.48906 0.303477 0)
(1.47737 0.299312 -1.13344e-19)
(1.45471 0.290365 1.62344e-19)
(1.42807 0.279086 7.08846e-20)
(1.39912 0.266148 1.70127e-20)
(1.36875 0.251905 -4.70235e-20)
(1.33734 0.236514 8.1531e-20)
(1.305 0.220021 -4.40237e-20)
(1.27153 0.202279 2.57574e-20)
(1.2361 0.182201 -2.87432e-20)
(1.19507 0.154745 7.17443e-22)
(-0.186436 -0.213196 6.46968e-19)
(-0.124254 -0.201696 3.70844e-19)
(-0.0307824 -0.173352 3.95662e-23)
(0.0957708 -0.126242 -4.46533e-19)
(0.256175 -0.0609103 6.31193e-19)
(0.446825 0.0180963 -3.86973e-19)
(0.65519 0.103185 5.28581e-19)
(0.863461 0.184767 0)
(1.05012 0.25404 -2.63054e-19)
(1.19657 0.305571 0)
(1.2994 0.338745 -1.77916e-19)
(1.36412 0.356162 -1.42406e-19)
(1.39912 0.361422 1.0956e-19)
(1.41415 0.358486 8.86895e-20)
(1.41579 0.351016 -1.35465e-19)
(1.40842 0.340646 9.59401e-20)
(1.39261 0.325977 -1.33545e-19)
(1.37227 0.309694 6.70764e-22)
(1.34903 0.292403 -2.3394e-20)
(1.32375 0.274399 -3.09328e-20)
(1.29682 0.255788 4.69886e-21)
(1.26818 0.236488 0)
(1.2372 0.215761 -4.87023e-21)
(1.20097 0.188852 -2.65014e-21)
(-0.233452 -0.19753 3.8263e-19)
(-0.188718 -0.185609 -8.55874e-19)
(-0.11571 -0.157534 5.83659e-19)
(-0.012958 -0.111134 -3.31188e-19)
(0.119995 -0.0467131 2.05809e-19)
(0.281109 0.0320304 1.88585e-19)
(0.462816 0.118332 -5.23788e-19)
(0.652208 0.203207 0)
(0.834477 0.27836 2.61725e-19)
(0.992588 0.336895 4.20041e-19)
(1.11722 0.376685 1.61962e-19)
(1.20762 0.398882 2.74061e-19)
(1.26793 0.406846 -1.24778e-19)
(1.30506 0.404875 -8.87968e-20)
(1.32554 0.396976 1.26729e-19)
(1.3337 0.384326 -6.72816e-20)
(1.33233 0.367995 4.14381e-20)
(1.32409 0.349616 5.60419e-20)
(1.31105 0.330138 -1.20749e-20)
(1.2946 0.310125 -2.3474e-20)
(1.27553 0.28989 1.26317e-20)
(1.25414 0.26949 7.92354e-21)
(1.23003 0.248595 1.35696e-20)
(1.20139 0.223151 -1.1854e-20)
(-0.278336 -0.180738 -5.13376e-19)
(-0.250196 -0.168942 2.0702e-21)
(-0.196497 -0.142058 1.16287e-19)
(-0.115895 -0.0976516 -3.24773e-19)
(-0.00808577 -0.0360373 6.01144e-19)
(0.125548 0.0396588 0)
(0.280219 0.123447 0)
(0.447003 0.207653 0)
(0.61515 0.284488 0)
(0.772246 0.347513 -2.1496e-19)
(0.907675 0.39329 -1.76035e-19)
(1.01683 0.421526 1.37609e-19)
(1.09963 0.434541 -1.09317e-19)
(1.15939 0.436123 1.59802e-19)
(1.2007 0.429826 4.07307e-20)
(1.22753 0.417706 -1.71555e-19)
(1.24294 0.401351 1.11275e-19)
(1.24953 0.382354 -7.1048e-20)
(1.24951 0.361904 -4.00072e-20)
(1.24455 0.340825 2.13292e-20)
(1.23579 0.31968 1.94885e-20)
(1.22395 0.298734 -2.67317e-20)
(1.20903 0.278076 4.5371e-21)
(1.19118 0.254865 0)
(-0.320306 -0.163042 -1.26841e-19)
(-0.307432 -0.152117 5.39036e-19)
(-0.271436 -0.127523 -4.48368e-19)
(-0.210946 -0.0865021 -4.18654e-19)
(-0.125882 -0.0294242 -3.97667e-19)
(-0.0172289 0.040811 1.75643e-19)
(0.111773 0.119179 1.63764e-19)
(0.255035 0.199095 -1.3452e-19)
(0.404508 0.273818 -1.07962e-19)
(0.551373 0.337821 1.9631e-19)
(0.686736 0.387223 -1.61045e-19)
(0.804699 0.420839 -7.14671e-21)
(0.902691 0.439766 1.08873e-19)
(0.980991 0.446663 -4.75534e-21)
(1.04173 0.444401 -7.22907e-20)
(1.08751 0.435222 0)
(1.12082 0.420975 2.80348e-20)
(1.144 0.403317 -1.16679e-19)
(1.1591 0.383592 -7.50434e-21)
(1.16786 0.362833 3.45491e-20)
(1.17159 0.341839 0)
(1.17139 0.321094 0)
(1.16744 0.301048 4.08197e-21)
(1.16286 0.280165 -3.64197e-21)
(-0.358978 -0.144671 -2.5681e-19)
(-0.359364 -0.135496 5.80761e-20)
(-0.339069 -0.114326 4.46099e-19)
(-0.296252 -0.0781113 4.16432e-19)
(-0.23121 -0.0272251 6.37135e-22)
(-0.144617 0.0356067 -3.55415e-19)
(-0.038844 0.106165 -1.55845e-19)
(0.0818165 0.179029 -1.28591e-19)
(0.211408 0.248624 1.26068e-19)
(0.343251 0.310185 -3.11523e-21)
(0.470671 0.36023 1.59904e-19)
(0.588143 0.39712 -1.28903e-19)
(0.692253 0.421049 4.73497e-20)
(0.781598 0.433554 1.50052e-19)
(0.856389 0.436643 -9.49136e-20)
(0.917725 0.43223 0)
(0.967104 0.422064 5.96302e-20)
(1.00618 0.407734 -8.35791e-20)
(1.03659 0.390613 4.16051e-20)
(1.05985 0.371841 -2.93649e-20)
(1.07721 0.352369 -1.30691e-20)
(1.08997 0.332867 5.43824e-21)
(1.09819 0.313992 6.91601e-21)
(1.10757 0.294752 9.97353e-24)
(-0.394522 -0.125743 1.89219e-19)
(-0.405197 -0.119468 1.16533e-19)
(-0.39828 -0.102673 5.35625e-20)
(-0.370351 -0.0725725 9.99966e-20)
(-0.322241 -0.0292827 2.74528e-19)
(-0.25451 0.0245938 -8.30108e-20)
(-0.168928 0.0855409 -1.3982e-19)
(-0.0686978 0.149334 1.27707e-19)
(0.0417007 0.211465 -1.0138e-19)
(0.157119 0.268007 -1.74432e-19)
(0.272414 0.315889 -6.82136e-20)
(0.383036 0.353521 0)
(0.485585 0.380507 -8.9821e-20)
(0.578069 0.397538 -6.28384e-20)
(0.659675 0.405834 1.54489e-20)
(0.730444 0.406772 6.41169e-20)
(0.79097 0.401742 0)
(0.842182 0.392089 0)
(0.885176 0.379052 1.54606e-21)
(0.921104 0.363733 4.17925e-21)
(0.951003 0.347108 -1.17215e-20)
(0.976094 0.329964 5.68682e-21)
(0.996449 0.31294 3.31735e-21)
(1.01805 0.294522 8.69503e-22)
(-0.426237 -0.106606 0)
(-0.444805 -0.104087 2.3321e-19)
(-0.448276 -0.092651 -2.1534e-19)
(-0.432328 -0.0697214 0)
(-0.397799 -0.0351375 -8.74029e-20)
(-0.345463 0.00862141 -2.32154e-19)
(-0.276651 0.0587552 2.71003e-19)
(-0.19391 0.112053 0)
(-0.10072 0.165094 -8.43323e-20)
(-0.00119273 0.21473 1.69152e-19)
(0.100726 0.25839 1.29796e-19)
(0.201315 0.294492 0)
(0.297446 0.322433 4.24957e-20)
(0.387125 0.342301 0)
(0.469135 0.354689 2.49226e-20)
(0.542953 0.360442 -2.48575e-21)
(0.608586 0.360515 1.1418e-20)
(0.666421 0.355902 -2.23819e-20)
(0.717098 0.347577 2.04687e-20)
(0.761421 0.336462 -4.15809e-21)
(0.800225 0.323417 2.45912e-21)
(0.834506 0.309225 -1.24264e-21)
(0.864664 0.294304 0)
(0.894485 0.276632 1.02777e-23)
(-0.453497 -0.0871673 3.2963e-20)
(-0.478416 -0.0895205 -2.60137e-19)
(-0.488464 -0.0843846 -1.57112e-19)
(-0.481791 -0.0691897 4.81343e-20)
(-0.457385 -0.0441322 8.80458e-20)
(-0.416727 -0.0112707 7.9963e-20)
(-0.360885 0.0272919 -1.66459e-21)
(-0.292075 0.0692651 -5.28714e-20)
(-0.213193 0.112211 9.31952e-20)
(-0.127528 0.153672 -3.54751e-20)
(-0.0383509 0.191627 -8.99277e-20)
(0.0512924 0.224531 -4.21872e-20)
(0.138838 0.251642 5.71839e-20)
(0.22235 0.272685 0)
(0.300538 0.287781 0)
(0.372656 0.297309 -1.59583e-20)
(0.438398 0.301797 -2.89972e-20)
(0.497816 0.30185 2.47055e-20)
(0.551224 0.298109 0)
(0.599139 0.29122 0)
(0.64222 0.281813 0)
(0.681268 0.270474 3.70882e-22)
(0.716869 0.257454 -2.51613e-22)
(0.750263 0.241396 2.07422e-23)
(-0.476042 -0.0670313 1.68635e-20)
(-0.505375 -0.0762292 -4.33364e-20)
(-0.51891 -0.0774475 1.04049e-19)
(-0.518756 -0.0704729 -2.38195e-20)
(-0.501171 -0.0555122 1.65215e-19)
(-0.468379 -0.034015 -3.72049e-20)
(-0.421381 -0.00741973 -9.2666e-20)
(-0.362334 0.0228549 5.25164e-20)
(-0.293897 0.0552525 -2.05369e-20)
(-0.21893 0.0879255 6.64752e-20)
(-0.140261 0.119177 -1.44535e-20)
(-0.0604369 0.147747 -8.89237e-21)
(0.0184241 0.172739 1.5423e-20)
(0.0946371 0.193626 -3.03545e-21)
(0.166995 0.210174 -1.01708e-20)
(0.234724 0.22237 -1.36975e-20)
(0.297417 0.230359 1.03384e-20)
(0.354957 0.234385 -5.81288e-21)
(0.407463 0.234749 4.3784e-21)
(0.45525 0.231772 3.59472e-22)
(0.498785 0.225772 -4.59934e-22)
(0.538657 0.217089 3.7018e-22)
(0.575313 0.206094 0)
(0.609353 0.193252 0)
(-0.493202 -0.0459312 0)
(-0.524779 -0.0640831 -1.86567e-21)
(-0.540335 -0.071584 6.40846e-20)
(-0.543283 -0.0730033 -4.71675e-22)
(-0.529819 -0.0685324 -4.05024e-20)
(-0.501289 -0.0586999 -8.05013e-21)
(-0.458985 -0.0443087 3.01118e-20)
(-0.405189 -0.0258067 0)
(-0.342655 -0.0039767 2.044e-20)
(-0.274119 0.0198517 4.85341e-22)
(-0.202281 0.0442548 2.4588e-20)
(-0.129426 0.0680541 -2.09891e-20)
(-0.057321 0.0902733 0)
(0.0126082 0.110175 0)
(0.0793355 0.127259 0)
(0.14218 0.141205 5.15658e-21)
(0.200749 0.151857 -2.16973e-21)
(0.254877 0.159173 1.25061e-21)
(0.304585 0.163181 1.63136e-23)
(0.350036 0.16394 -1.25263e-23)
(0.39138 0.161389 -2.15991e-22)
(0.428848 0.155581 -3.28029e-23)
(0.462916 0.14709 5.81147e-24)
(0.495427 0.138299 -6.39312e-24)
(-0.508071 -0.0301528 0)
(-0.536165 -0.0531296 6.3239e-20)
(-0.55136 -0.0669725 -6.44855e-21)
(-0.554891 -0.0755386 5.84111e-21)
(-0.543521 -0.0819411 3.98683e-20)
(-0.516241 -0.0844699 3.40036e-20)
(-0.474749 -0.0826402 1.54984e-20)
(-0.421785 -0.0759777 3.66563e-20)
(-0.360472 -0.0645862 1.01751e-20)
(-0.293733 -0.0492657 2.26978e-20)
(-0.224371 -0.0313326 -3.7686e-22)
(-0.154592 -0.0120477 8.82079e-21)
(-0.0859729 0.00748314 0)
(-0.0197269 0.0263124 8.57509e-21)
(0.0433146 0.0436807 -3.92763e-21)
(0.102629 0.0590309 0)
(0.157947 0.0719596 1.25678e-21)
(0.209168 0.0821889 0)
(0.256326 0.0895428 -1.62557e-23)
(0.299509 0.0939498 -6.22153e-23)
(0.338825 0.0955429 8.68512e-23)
(0.374389 0.0945176 0)
(0.407159 0.0915817 2.03142e-22)
(0.440451 0.0892239 -1.65044e-22)
(-0.0479658 0.0355461 1.7175e-19)
(-0.185711 0.0578903 -1.28106e-19)
(-0.371556 0.0659605 -1.44441e-19)
(-0.460526 0.0672216 7.10839e-20)
(-0.502395 0.075614 -3.96962e-20)
(-0.500837 0.0736866 -1.63408e-19)
(-0.104253 0.0663819 6.94797e-19)
(-0.27578 0.0909186 5.8611e-19)
(-0.409724 0.0966826 4.37798e-19)
(-0.471125 0.0940934 -4.41398e-20)
(-0.496634 0.0914837 3.6933e-20)
(-0.495527 0.072619 1.22948e-19)
(-0.130379 0.0860799 -6.05296e-19)
(-0.29558 0.118813 -1.08409e-18)
(-0.405522 0.118389 -4.67624e-19)
(-0.452798 0.111507 4.19396e-20)
(-0.475044 0.10421 -2.83045e-19)
(-0.476363 0.0813547 -5.96654e-20)
(-0.154291 0.105296 -5.77724e-19)
(-0.302268 0.144694 1.06205e-18)
(-0.39376 0.139866 4.96017e-20)
(-0.431086 0.129331 4.11274e-20)
(-0.449513 0.117211 4.74919e-19)
(-0.450937 0.0923262 0)
(-0.180153 0.120913 5.5612e-19)
(-0.306518 0.167039 -4.30169e-19)
(-0.380368 0.160716 -9.40575e-20)
(-0.409035 0.147588 3.85193e-20)
(-0.42244 0.132639 2.63384e-19)
(-0.422313 0.107396 0)
(-0.204858 0.136265 0)
(-0.310935 0.183896 0)
(-0.366165 0.180034 -9.18192e-20)
(-0.386726 0.165769 6.79591e-19)
(-0.394372 0.149706 -5.13463e-19)
(-0.390913 0.125537 0)
(-0.223055 0.163088 -4.5187e-20)
(-0.311243 0.19792 2.86168e-20)
(-0.351179 0.197618 0)
(-0.364173 0.18363 -5.9182e-19)
(-0.365506 0.167732 0)
(-0.357044 0.145536 0)
(-0.233538 0.177169 2.26125e-20)
(-0.307792 0.210136 2.84863e-20)
(-0.335632 0.213667 -4.30679e-20)
(-0.341539 0.201061 0)
(-0.336145 0.18618 5.07627e-19)
(-0.321328 0.166325 0)
(-0.241321 0.189266 0)
(-0.301697 0.220932 0)
(-0.319909 0.22843 0)
(-0.319063 0.217935 -5.0642e-19)
(-0.306772 0.204534 -5.69449e-19)
(-0.284677 0.186977 0)
(-0.247226 0.19985 0)
(-0.293742 0.230444 -5.47993e-20)
(-0.304067 0.242138 -4.37931e-20)
(-0.297023 0.23411 7.13242e-20)
(-0.277999 0.222326 0)
(-0.24821 0.206677 -5.81597e-19)
(-0.25075 0.207873 -1.47108e-18)
(-0.284347 0.238782 -8.09053e-19)
(-0.288159 0.25497 -6.36649e-19)
(-0.27575 0.24949 3.60049e-19)
(-0.250507 0.239185 1.26539e-19)
(-0.213171 0.224748 3.61179e-22)
(-0.251439 0.212862 1.3594e-18)
(-0.273762 0.246119 9.18006e-19)
(-0.272271 0.267017 6.80609e-19)
(-0.255618 0.264038 0)
(-0.225004 0.254867 0)
(-0.180821 0.240707 3.52032e-19)
(-0.249017 0.215058 2.2689e-20)
(-0.262056 0.25258 -5.47049e-20)
(-0.256673 0.278369 4.21728e-20)
(-0.236965 0.277787 0)
(-0.202175 0.269266 1.30076e-19)
(-0.15234 0.25429 1.7632e-21)
(-0.243329 0.21479 2.26854e-20)
(-0.249216 0.258197 5.51809e-20)
(-0.241646 0.289214 -4.24427e-20)
(-0.220073 0.290801 0)
(-0.18265 0.282402 0)
(-0.128727 0.265465 -4.72921e-19)
(-0.234382 0.212468 -1.47066e-18)
(-0.235355 0.263039 -8.2663e-19)
(-0.227202 0.299618 -4.28144e-20)
(-0.205272 0.303165 5.89287e-19)
(-0.166962 0.294407 0)
(-0.110786 0.2744 9.53591e-19)
(-0.222745 0.209432 -1.69739e-20)
(-0.22069 0.267147 9.27682e-19)
(-0.21346 0.3096 0)
(-0.192764 0.314962 -5.96992e-19)
(-0.15553 0.305524 6.60224e-19)
(-0.0993277 0.281401 -6.01196e-19)
(-0.205401 0.212151 2.89501e-18)
(-0.205752 0.270344 -5.78137e-20)
(-0.200545 0.318984 7.56545e-19)
(-0.182632 0.326186 0)
(-0.148657 0.316169 -5.35398e-19)
(-0.095218 0.286947 -3.61223e-19)
(-0.173689 0.2184 -2.69863e-18)
(-0.191516 0.270752 0)
(-0.188451 0.327121 -7.25726e-19)
(-0.174796 0.336653 -6.13125e-19)
(-0.14639 0.326944 0)
(-0.0989103 0.291391 8.55845e-19)
(-0.153187 0.208952 1.18622e-18)
(-0.178743 0.265471 5.23492e-19)
(-0.176739 0.332979 3.24254e-19)
(-0.168822 0.346074 3.11383e-19)
(-0.148238 0.338263 -2.73533e-19)
(-0.111429 0.293721 -4.94769e-19)
(-0.135781 0.19148 5.67384e-19)
(-0.164887 0.256135 -4.70037e-19)
(-0.164412 0.33613 -4.26215e-19)
(-0.164105 0.354325 3.57614e-19)
(-0.153603 0.351198 2.77048e-19)
(-0.136439 0.291145 0)
(-0.112015 0.171878 -5.77813e-19)
(-0.148374 0.243153 3.05351e-20)
(-0.150601 0.336555 -2.39987e-20)
(-0.159518 0.360557 0)
(-0.160423 0.370348 0)
(-0.170204 0.284821 -1.3401e-19)
(-0.0922342 0.152311 0)
(-0.130083 0.226747 0)
(-0.135295 0.334222 -1.01816e-19)
(-0.152652 0.361821 2.1764e-20)
(-0.164302 0.40204 1.99092e-20)
(-0.195507 0.284281 1.01448e-19)
(-0.0731331 0.128236 -5.49426e-21)
(-0.109421 0.204047 -1.24587e-20)
(-0.118428 0.326181 1.01057e-19)
(-0.143237 0.351485 2.28835e-20)
(-0.160098 0.442515 -2.46852e-20)
(-0.192198 0.288719 8.74514e-21)
(-0.0423241 0.0651355 1.20539e-20)
(-0.0799631 0.14038 -1.34783e-19)
(-0.0930421 0.283015 1.77001e-20)
(-0.116169 0.292377 -1.19038e-20)
(-0.136363 0.463264 -4.60734e-23)
(-0.164387 0.23063 7.81958e-20)
(-0.511564 -0.0046871 3.69473e-20)
(-0.53687 -0.0421384 -2.02643e-19)
(-0.551992 -0.0611223 5.35345e-20)
(-0.555491 -0.0779403 -4.84992e-20)
(-0.542854 -0.0950571 -4.14663e-20)
(-0.513537 -0.110325 -3.53145e-20)
(-0.468965 -0.121527 -8.85694e-20)
(-0.412347 -0.126845 -7.16845e-20)
(-0.347498 -0.125695 -1.91005e-20)
(-0.277842 -0.118359 -1.49264e-20)
(-0.206426 -0.10617 0)
(-0.135611 -0.0906472 5.99282e-21)
(-0.0668706 -0.0731407 -3.4292e-21)
(-0.00124104 -0.054882 -2.93947e-20)
(0.0606834 -0.0369036 6.85189e-21)
(0.11861 -0.0200006 0)
(0.172428 -0.00477572 -4.56077e-21)
(0.222163 0.00833664 3.171e-21)
(0.267899 0.0190481 0)
(0.309704 0.0272121 -3.45412e-23)
(0.347553 0.0328796 0)
(0.381658 0.0364397 7.35813e-22)
(0.41373 0.0389082 2.07422e-21)
(0.448401 0.0418086 -2.08808e-21)
(-0.499633 0.00610801 0)
(-0.525872 -0.0294071 1.25643e-19)
(-0.540833 -0.0532206 1.71062e-19)
(-0.542915 -0.0781714 5.03229e-20)
(-0.527004 -0.106497 -1.74256e-19)
(-0.492365 -0.135204 -7.90671e-20)
(-0.440448 -0.160109 6.17609e-20)
(-0.375238 -0.177678 1.00529e-19)
(-0.301709 -0.186419 7.5914e-20)
(-0.22422 -0.186309 0)
(-0.146237 -0.178706 0)
(-0.0703865 -0.16564 -3.02941e-20)
(0.00191177 -0.14891 -2.09592e-20)
(0.0698472 -0.130133 7.92291e-21)
(0.13311 -0.110668 9.75262e-22)
(0.191708 -0.0915789 7.93316e-21)
(0.245816 -0.0736442 4.12162e-21)
(0.29569 -0.0574065 6.25331e-22)
(0.341607 -0.043207 8.24921e-22)
(0.383807 -0.0312063 -1.37252e-21)
(0.422432 -0.021349 3.21612e-21)
(0.457929 -0.0132592 -3.84361e-21)
(0.491843 -0.00602911 1.82235e-21)
(0.529252 0.000698537 -1.53913e-21)
(-0.481533 0.0225962 3.70696e-20)
(-0.505435 -0.0132475 6.41013e-20)
(-0.518099 -0.0417111 -5.29541e-20)
(-0.516516 -0.0748288 0)
(-0.49436 -0.1149 3.59375e-19)
(-0.450128 -0.157859 7.81578e-20)
(-0.385456 -0.197358 -5.69782e-20)
(-0.305613 -0.227596 1.01751e-19)
(-0.217423 -0.245779 -7.41534e-21)
(-0.126655 -0.251923 -1.39067e-20)
(-0.0376634 -0.24746 -4.86035e-20)
(0.0467033 -0.235054 6.00348e-20)
(0.125139 -0.21726 1.53772e-21)
(0.197241 -0.19633 0)
(0.263199 -0.174067 -1.60997e-20)
(0.323486 -0.151824 -8.6077e-21)
(0.378695 -0.130555 1.16581e-21)
(0.429432 -0.110889 -8.57662e-22)
(0.476244 -0.0932024 1.27844e-21)
(0.519621 -0.0776736 5.80015e-21)
(0.559879 -0.0642917 3.89522e-22)
(0.597826 -0.0528244 -1.81071e-21)
(0.634052 -0.042334 3.00554e-21)
(0.675746 -0.0320311 -3.61266e-21)
(-0.456577 0.0418952 0)