/*--------------------------------*- C++ -*----------------------------------*\
  =========                 |
  \\      /  F ield         | OpenFOAM: The Open Source CFD Toolbox
   \\    /   O peration     | Website:  https://openfoam.org
    \\  /    A nd           | Version:  11
     \\/     M anipulation  |
\*---------------------------------------------------------------------------*/
FoamFile
{
    format      ascii;
    class       surfaceVectorField;
    location    "0.26";
    object      Uf;
}
// * * * * * * * * * * * * * * * * * * * * * * * * * * * * * * * * * * * * * //

dimensions      [0 1 -1 0 0 0 0];

internalField   nonuniform List<vector> 
5640
(
(0.0427581 -0.0252134 7.31311e-20)
(0.0365074 -0.0208366 3.16208e-19)
(0.0543811 -0.109098 -2.80406e-21)
(0.040448 -0.0718687 2.0223e-19)
(0.0682398 -0.202714 1.31914e-20)
(0.0561162 -0.182434 1.38395e-19)
(0.0829463 -0.306633 3.46479e-20)
(0.0643308 -0.251742 8.86009e-21)
(0.0883905 -0.408296 -2.72576e-20)
(0.0845331 -0.381637 2.79553e-20)
(0.0743459 -0.327744 2.87005e-21)
(0.372707 -0.493985 -8.3006e-20)
(0.0298525 -0.0578351 4.54305e-19)
(0.0294177 -0.0388116 2.46739e-20)
(0.0368981 -0.143114 3.46145e-19)
(0.0243543 -0.100533 -1.56211e-19)
(0.0455077 -0.232168 1.37899e-19)
(0.0326759 -0.200455 -5.00403e-21)
(0.0565109 -0.312548 -4.50035e-22)
(0.0366647 -0.268536 -1.30472e-21)
(0.070742 -0.375454 6.3892e-20)
(0.0533651 -0.35123 -9.14774e-20)
(0.0567727 -0.318924 2.91965e-20)
(0.277081 -0.366137 5.99907e-20)
(0.0202137 -0.0725636 -5.80413e-19)
(0.0198347 -0.0489659 -4.92959e-19)
(0.0186796 -0.155557 -5.16867e-19)
(0.00843018 -0.115525 -4.3811e-21)
(0.0226942 -0.236494 -1.46756e-19)
(0.0099006 -0.204424 -1.38079e-19)
(0.0325342 -0.300001 -8.69323e-20)
(0.0125345 -0.266948 2.94407e-20)
(0.0504355 -0.333758 -1.29066e-19)
(0.0317618 -0.32179 7.37225e-20)
(0.0567974 -0.304052 -2.22455e-20)
(0.181744 -0.294314 4.15898e-21)
(0.0093475 -0.0831946 5.55809e-20)
(0.00897659 -0.0566042 -2.81845e-21)
(0.000495877 -0.161956 3.79396e-19)
(-0.00669718 -0.124088 2.0556e-19)
(0.000603294 -0.234161 3.23271e-20)
(-0.011332 -0.2034 -1.5322e-20)
(0.0116355 -0.28631 1.88201e-19)
(-0.0093096 -0.26028 2.8545e-20)
(0.0401572 -0.30973 1.82303e-19)
(0.0127744 -0.30121 2.79433e-19)
(0.0533367 -0.29547 0)
(0.141503 -0.280275 0)
(-0.00639462 -0.0899258 1.35682e-19)
(-0.00294676 -0.0602758 2.55037e-19)
(-0.0174146 -0.163198 -1.78485e-19)
(-0.0217114 -0.126677 -1.42278e-19)
(-0.0204766 -0.228612 -2.04236e-20)
(-0.0315658 -0.199147 -6.39641e-20)
(-0.00860291 -0.273981 1.12462e-19)
(-0.0302794 -0.251673 2.59603e-19)
(0.0263617 -0.294093 1.0368e-19)
(-0.00664934 -0.285721 -9.38122e-20)
(0.0421966 -0.288154 0)
(0.11345 -0.278343 0)
(-0.019258 -0.0909723 0)
(-0.0152564 -0.0606462 -1.6378e-20)
(-0.0348818 -0.160541 -3.04841e-20)
(-0.0367623 -0.125194 9.77468e-21)
(-0.0409504 -0.221183 2.04141e-19)
(-0.0512846 -0.192734 -3.1839e-20)
(-0.0289229 -0.2628 6.26649e-20)
(-0.0512856 -0.242282 3.12648e-20)
(0.00856771 -0.282413 -2.00345e-19)
(-0.0274735 -0.273384 -1.95655e-19)
(0.0242966 -0.280963 0)
(0.0872226 -0.276675 0)
(-0.0326079 -0.0892487 -7.49022e-21)
(-0.0272152 -0.0587616 -8.15743e-21)
(-0.0521203 -0.15538 1.01906e-20)
(-0.0516754 -0.12119 1.965e-20)
(-0.0613355 -0.212695 -2.07405e-19)
(-0.0706833 -0.184974 -1.50961e-20)
(-0.0503339 -0.252417 -2.20675e-19)
(-0.0727252 -0.232611 -2.14657e-19)
(-0.0127844 -0.272822 0)
(-0.0501585 -0.262805 1.9459e-19)
(0.000949948 -0.273936 0)
(0.0598568 -0.273951 5.17931e-20)
(-0.0455735 -0.085773 1.76096e-20)
(-0.0381717 -0.0554327 8.22059e-21)
(-0.0690923 -0.148706 -3.86343e-21)
(-0.0661797 -0.115646 9.87528e-21)
(-0.081796 -0.203665 -1.56061e-20)
(-0.0897308 -0.176446 -1.50961e-20)
(-0.0729899 -0.242529 1.89134e-19)
(-0.0946421 -0.222887 -1.86439e-19)
(-0.0375032 -0.264119 1.99255e-19)
(-0.0746931 -0.253065 -2.13866e-20)
(-0.0267479 -0.266687 0)
(0.0293008 -0.269819 0)
(-0.0575781 -0.0811133 0)
(-0.0476711 -0.051068 0)
(-0.0855908 -0.141174 0)
(-0.0799533 -0.109192 -1.91215e-20)
(-0.102241 -0.19438 -1.80141e-19)
(-0.108252 -0.167495 -1.57892e-20)
(-0.0967238 -0.232882 -4.01412e-19)
(-0.116865 -0.213153 -1.61548e-19)
(-0.0649812 -0.255545 -2.21195e-19)
(-0.100775 -0.243581 -2.16017e-19)
(-0.057796 -0.258808 -2.25501e-19)
(-0.00469733 -0.264064 0)
(-0.0682555 -0.0756138 -1.80183e-20)
(-0.0554199 -0.0458509 -5.36288e-19)
(-0.10133 -0.133157 -3.50541e-20)
(-0.0926624 -0.102192 -3.02929e-19)
(-0.122434 -0.184938 7.56304e-21)
(-0.125988 -0.158275 -2.43253e-19)
(-0.121204 -0.223236 2.56149e-20)
(-0.139099 -0.203323 1.56602e-19)
(-0.0945365 -0.246627 -2.20096e-19)
(-0.127954 -0.233948 4.73216e-20)
(-0.0912748 -0.250003 -2.26987e-19)
(-0.0416549 -0.256667 -2.3687e-19)
(-0.0774177 -0.0693773 -8.34662e-19)
(-0.0612357 -0.0398366 -4.17207e-20)
(-0.115996 -0.124828 -5.13806e-19)
(-0.104001 -0.0948284 3.63954e-20)
(-0.142069 -0.175303 -1.07736e-19)
(-0.142635 -0.14879 1.57049e-20)
(-0.146015 -0.213355 1.81107e-19)
(-0.160991 -0.193228 1.31698e-19)
(-0.125487 -0.237052 4.70304e-20)
(-0.155716 -0.223849 4.73216e-20)
(-0.126329 -0.240073 1.31826e-19)
(-0.0808431 -0.247659 2.12949e-19)
(-0.0847137 -0.0626343 8.23753e-19)
(-0.065053 -0.0330734 5.02575e-19)
(-0.129268 -0.11621 5.66604e-19)
(-0.113638 -0.0871272 3.01007e-19)
(-0.160799 -0.165342 2.51367e-19)
(-0.15786 -0.138944 2.58368e-19)
(-0.170708 -0.202997 0)
(-0.182155 -0.182649 0)
(-0.157156 -0.226589 1.3008e-19)
(-0.183538 -0.213024 4.93631e-20)
(-0.162153 -0.228886 1.35186e-19)
(-0.121434 -0.237061 -3.19409e-20)
(-0.0901026 -0.055267 -9.2979e-21)
(-0.0668301 -0.0255984 1.66017e-20)
(-0.140822 -0.107229 -5.031e-21)
(-0.121257 -0.0790733 1.72469e-22)
(-0.178251 -0.154876 1.57296e-20)
(-0.17131 -0.128586 -1.84603e-22)
(-0.194825 -0.191913 4.79791e-20)
(-0.202184 -0.171334 0)
(-0.188894 -0.215062 5.26733e-20)
(-0.210898 -0.201255 4.93631e-20)
(-0.198 -0.216361 -1.78424e-19)
(-0.162584 -0.22491 -2.39116e-19)
(-0.093392 -0.0473208 2.70199e-20)
(-0.0665474 -0.0175051 -5.35226e-19)
(-0.150294 -0.0977842 4.92416e-21)
(-0.126512 -0.0706051 -2.72849e-19)
(-0.194035 -0.143694 -1.59204e-20)
(-0.182596 -0.117517 -3.10433e-20)
(-0.217924 -0.179862 0)
(-0.22064 -0.159013 2.17714e-19)
(-0.220062 -0.202346 -1.76013e-19)
(-0.237288 -0.188384 0)
(-0.233178 -0.202455 1.79509e-19)
(-0.203455 -0.211276 5.94232e-20)
(-0.0944119 -0.0388272 -8.50231e-19)
(-0.0641638 -0.00895892 -5.53121e-19)
(-0.157309 -0.0877268 -3.20193e-19)
(-0.129057 -0.0616193 3.40463e-20)
(-0.207707 -0.131551 1.94187e-19)
(-0.191306 -0.105511 -1.56431e-20)
(-0.239539 -0.166659 2.23818e-19)
(-0.237005 -0.145434 -2.87855e-21)
(-0.250106 -0.188344 3.51129e-19)
(-0.262272 -0.174201 2.44999e-19)
(-0.267038 -0.187208 1.35655e-19)
(-0.243212 -0.196239 5.7906e-19)
(-0.0929712 -0.0298347 2.96113e-19)
(-0.0595895 -0.000200056 1.07081e-18)
(-0.161477 -0.0768781 3.40053e-19)
(-0.128547 -0.0519753 3.05811e-19)
(-0.218774 -0.118185 -2.13127e-19)
(-0.197007 -0.0923243 2.79517e-19)
(-0.259159 -0.152065 1.13666e-20)
(-0.250638 -0.130342 -2.20579e-19)
(-0.278571 -0.172961 3.30664e-20)
(-0.285337 -0.158505 4.71219e-20)
(-0.299143 -0.170691 -3.57079e-19)
(-0.281081 -0.17999 -4.75094e-19)
(-0.0888503 -0.0204161 1.12352e-18)
(-0.0526733 0.00846815 -7.36125e-21)
(-0.162404 -0.0650413 2.47136e-19)
(-0.124655 -0.0415057 -2.03625e-20)
(-0.226688 -0.103333 2.8896e-19)
(-0.19924 -0.0777224 9.00697e-21)
(-0.276073 -0.135834 -1.92238e-19)
(-0.260833 -0.113462 -2.3051e-19)
(-0.304976 -0.156134 -3.32549e-19)
(-0.305667 -0.141083 -1.97784e-19)
(-0.329181 -0.152871 1.81899e-19)
(-0.31663 -0.162648 -2.07338e-19)
(-0.0818119 -0.0106889 -1.15026e-18)
(-0.043219 0.0167027 -5.40381e-19)
(-0.159682 -0.0520077 -2.58878e-19)
(-0.11707 -0.0300286 1.9359e-19)
(-0.230865 -0.0867342 -5.02241e-19)
(-0.197486 -0.0614931 -1.47766e-19)
(-0.289485 -0.117688 -2.36973e-19)
(-0.266883 -0.0944836 -1.11672e-19)
(-0.328596 -0.137706 3.07296e-19)
(-0.32233 -0.121583 -1.03382e-19)
(-0.356448 -0.133672 1.29872e-19)
(-0.349491 -0.144231 2.58953e-19)
(-0.0716246 -0.000854261 7.61494e-19)
(-0.031037 0.0241492 8.23818e-19)
(-0.152897 -0.0375585 3.18423e-19)
(-0.105497 -0.0173696 1.44865e-20)
(-0.230674 -0.0681632 2.41275e-19)
(-0.191137 -0.0434559 -4.13003e-20)
(-0.298633 -0.0972867 2.13582e-20)
(-0.267847 -0.0730837 2.56869e-19)
(-0.348414 -0.117347 -2.85868e-19)
(-0.334503 -0.0995397 3.55173e-21)
(-0.380302 -0.112656 -1.84429e-19)
(-0.3791 -0.124652 -1.3619e-19)
(-0.0579741 0.00895118 1.23798e-19)
(-0.0162661 0.0304958 1.47783e-20)
(-0.141622 -0.0214938 -3.43155e-19)
(-0.0895751 -0.00339208 -1.66966e-19)
(-0.225169 -0.0473445 -3.59681e-20)
(-0.179502 -0.0235229 -1.73173e-19)
(-0.302586 -0.0741948 2.45744e-19)
(-0.262278 -0.0488747 1.38181e-19)
(-0.363938 -0.0946431 1.09236e-19)
(-0.341048 -0.0741964 1.06679e-19)
(-0.400708 -0.0890388 -4.95458e-20)
(-0.405143 -0.103835 0)
(-0.0405793 0.0203426 -2.64199e-19)
(-0.00372004 0.0360121 -2.60322e-19)
(-0.125473 -0.00382685 2.72368e-21)
(-0.0689289 0.011959 1.18245e-20)
(-0.213172 -0.0241434 -9.76831e-21)
(-0.161728 -0.00176994 -4.97386e-20)
(-0.299787 -0.0478635 0)
(-0.247982 -0.0214376 8.58517e-21)
(-0.374324 -0.0687946 -4.8358e-20)
(-0.339648 -0.0444097 7.76457e-21)
(-0.417806 -0.0616613 -1.00814e-20)
(-0.427441 -0.081292 -4.40367e-20)
(-0.0250148 0.029294 0)
(0.00467752 0.0404363 -2.09717e-21)
(-0.104095 0.0146945 -3.8575e-20)
(-0.0439263 0.0277599 -5.00696e-21)
(-0.192908 0.00125587 -3.33555e-20)
(-0.135945 0.021355 -8.0834e-22)
(-0.287268 -0.0173783 1.59748e-20)
(-0.220954 0.00948402 1.76523e-20)
(-0.377979 -0.0370471 4.72206e-20)
(-0.324164 -0.00817705 -1.83309e-21)
(-0.430561 -0.0289822 4.24657e-20)
(-0.445366 -0.0547311 5.26081e-20)
(-0.00811754 0.0377003 -6.79163e-21)
(0.0141885 0.042478 7.92214e-20)
(-0.0763372 0.0334475 3.30173e-20)
(-0.0131783 0.0431668 5.40454e-20)
(-0.160568 0.0284423 5.00468e-20)
(-0.0956865 0.044864 8.47536e-20)
(-0.258147 0.0195976 -6.92227e-22)
(-0.173179 0.0436193 1.13833e-20)
(-0.368017 0.00733262 -7.06754e-21)
(-0.276208 0.0375426 -1.15401e-20)
(-0.434044 0.0129362 -2.82378e-20)
(-0.456702 -0.0187672 3.94511e-21)
(0.0151481 0.0461314 1.4183e-19)
(-0.0344739 0.053165 1.0452e-19)
(-0.107851 0.0607936 4.88161e-20)
(-0.200286 0.0593394 3.90162e-22)
(-0.313777 0.0349799 -3.29602e-20)
(-0.476061 -0.00544314 -3.68755e-20)
(0.957615 -0.883545 -3.36098e-20)
(0.664775 -0.682463 -6.44012e-21)
(0.87279 -0.977281 -7.5123e-21)
(1.18862 -0.848229 -2.82614e-20)
(1.10655 -0.824953 -1.50506e-20)
(1.10832 -0.916372 -2.77291e-20)
(1.3017 -0.75567 4.29415e-21)
(1.28061 -0.775884 4.3112e-20)
(1.23882 -0.808766 -2.65435e-21)
(1.36116 -0.660988 3.9685e-21)
(1.36525 -0.693467 1.20479e-20)
(1.31168 -0.706919 3.89725e-21)
(1.39201 -0.57325 -8.42899e-22)
(1.41008 -0.60748 -2.40533e-20)
(1.35283 -0.61432 -2.76958e-22)
(1.40354 -0.493711 -1.74932e-21)
(1.43058 -0.525962 -1.25319e-20)
(1.37226 -0.530167 -1.42704e-22)
(1.40211 -0.423157 -3.53616e-21)
(1.43403 -0.451483 3.61855e-21)
(1.37687 -0.455501 -2.20707e-21)
(1.39273 -0.361892 -3.48749e-21)
(1.42634 -0.385481 -1.74127e-21)
(1.37217 -0.390679 3.68904e-22)
(1.37901 -0.309612 -3.27409e-21)
(1.41211 -0.328329 1.10316e-21)
(1.36215 -0.335357 -2.5073e-22)
(1.36326 -0.265506 -2.42345e-21)
(1.39463 -0.279688 -2.39843e-21)
(1.34941 -0.288685 1.41702e-21)
(1.3467 -0.228454 6.52919e-21)
(1.37589 -0.238721 0)
(1.33536 -0.249482 1.04811e-22)
(1.32984 -0.19727 -1.95798e-21)
(1.35689 -0.204329 1.04049e-20)
(1.32063 -0.216483 8.99673e-21)
(1.3128 -0.170864 -7.27662e-21)
(1.33799 -0.175381 -3.75882e-21)
(1.30543 -0.188529 -8.58935e-21)
(1.29553 -0.148317 -8.04647e-21)
(1.31922 -0.150861 -2.69397e-21)
(1.28976 -0.164649 6.84081e-21)
(1.2779 -0.128896 -6.51626e-22)
(1.30044 -0.12993 -8.07739e-21)
(1.27357 -0.144062 -1.22734e-20)
(1.25973 -0.112035 1.59524e-20)
(1.28147 -0.111928 3.14269e-21)
(1.25674 -0.126152 9.00588e-21)
(1.24078 -0.0973176 -1.91607e-21)
(1.26203 -0.0963703 -4.07179e-22)
(1.2391 -0.110451 9.4068e-21)
(1.22066 -0.0844731 -9.02634e-21)
(1.24177 -0.0829347 -2.47285e-20)
(1.22042 -0.0966254 -6.29035e-21)
(1.19887 -0.0733673 -2.36843e-21)
(1.22018 -0.0714316 3.06216e-20)
(1.20032 -0.0844566 -2.471e-21)
(1.1747 -0.0639943 -2.39962e-21)
(1.19659 -0.0616873 -1.72875e-20)
(1.17829 -0.0737559 5.17425e-21)
(1.14723 -0.0564341 4.06086e-21)
(1.17013 -0.0535642 1.53249e-20)
(1.15355 -0.0643314 -4.87451e-21)
(1.1155 -0.0507882 1.72013e-21)
(1.1399 -0.048089 -1.47721e-20)
(1.12518 -0.0569959 4.08609e-21)
(1.07879 -0.0472207 -1.55033e-22)
(1.10542 -0.0493819 4.93922e-21)
(1.09257 -0.0558562 -5.36479e-21)
(1.06563 -0.0575411 -4.34904e-21)
(1.05565 -0.0643414 5.0843e-21)
(0.830299 -0.646727 2.49665e-20)
(0.465851 -0.41127 1.53461e-20)
(1.18259 -0.753572 6.65928e-20)
(1.00706 -0.683348 4.4653e-20)
(1.33779 -0.71784 4.87582e-20)
(1.27658 -0.710726 4.13717e-20)
(1.41164 -0.642233 -1.53702e-20)
(1.39934 -0.660494 8.15068e-21)
(1.44745 -0.56164 -3.59174e-20)
(1.45789 -0.586948 3.53969e-20)
(1.46048 -0.484925 -6.941e-21)
(1.48403 -0.510943 -5.64398e-21)
(1.458 -0.414891 5.92083e-21)
(1.48934 -0.438858 4.0625e-21)
(1.44566 -0.352865 3.15958e-21)
(1.48068 -0.373305 1.36981e-20)
(1.42777 -0.299191 2.01778e-21)
(1.4635 -0.315557 3.86798e-21)
(1.40733 -0.253531 0)
(1.44185 -0.265822 -2.5159e-21)
(1.38617 -0.215083 3.77356e-21)
(1.41849 -0.223668 -6.83919e-22)
(1.36514 -0.182812 8.63204e-21)
(1.395 -0.188254 -5.8179e-22)
(1.34451 -0.155664 8.70673e-22)
(1.37206 -0.158565 1.62495e-21)
(1.32423 -0.132696 -2.62283e-21)
(1.34982 -0.133611 -4.03772e-21)
(1.30411 -0.113138 -4.37547e-21)
(1.32815 -0.112533 1.16912e-20)
(1.28386 -0.0964052 -1.32063e-20)
(1.30675 -0.0946552 5.37352e-21)
(1.2631 -0.0820895 -2.30414e-20)
(1.28526 -0.0794919 -1.23428e-20)
(1.24136 -0.0699451 1.44597e-20)
(1.26318 -0.0667409 -2.31791e-20)
(1.21798 -0.059864 1.59287e-20)
(1.2399 -0.0562306 4.26692e-20)
(1.19216 -0.0518443 2.27792e-22)
(1.21466 -0.0477946 3.4529e-21)
(1.16295 -0.0459556 -4.35636e-21)
(1.1865 -0.0413166 1.59721e-20)
(1.12928 -0.0423137 -1.1552e-20)
(1.15457 -0.0378009 -2.52679e-20)
(1.09004 -0.0411286 7.98618e-22)
(1.11842 -0.0410498 1.9563e-20)
(1.07642 -0.050168 -2.88079e-20)
(0.652946 -0.461095 3.43301e-20)
(0.318496 -0.289702 1.53461e-20)
(1.10047 -0.631382 1.29776e-20)
(0.840055 -0.522086 -7.95933e-20)
(1.33474 -0.655045 -1.24967e-21)
(1.21441 -0.620276 -1.55176e-19)
(1.44338 -0.606924 5.99984e-20)
(1.40244 -0.609683 0)
(1.4933 -0.537604 6.88211e-20)
(1.48989 -0.553517 2.51311e-20)
(1.5123 -0.466043 5.51463e-21)
(1.52849 -0.485182 6.98128e-21)
(1.51175 -0.398314 1.07855e-20)
(1.53961 -0.417024 -1.55786e-21)
(1.49846 -0.336959 1.41117e-20)
(1.53276 -0.353337 2.04287e-20)
(1.47764 -0.283026 -6.16008e-22)
(1.51454 -0.296191 1.4554e-21)
(1.45312 -0.236653 -2.8562e-21)
(1.48992 -0.246351 -2.5159e-21)
(1.42744 -0.19739 -4.82755e-21)
(1.4625 -0.203766 2.04394e-21)
(1.40203 -0.164431 -7.21128e-21)
(1.43459 -0.167878 -6.14535e-21)
(1.37747 -0.136835 -3.04918e-21)
(1.40741 -0.137854 -7.29568e-21)
(1.35383 -0.113693 1.00058e-20)
(1.38139 -0.112785 -2.28213e-21)
(1.33088 -0.0942382 2.11915e-20)
(1.35647 -0.0918425 3.79031e-21)
(1.30825 -0.0778876 6.22694e-21)
(1.33233 -0.0743595 4.56679e-21)
(1.28543 -0.064247 -1.2402e-20)
(1.30849 -0.0598646 7.70374e-21)
(1.26182 -0.0530831 4.45049e-21)
(1.28434 -0.0480686 -2.25167e-20)
(1.2367 -0.0442863 3.03616e-20)
(1.25921 -0.0387997 2.1116e-20)
(1.20923 -0.0378329 1.81634e-20)
(1.23226 -0.0318857 -7.64506e-21)
(1.17839 -0.0337794 -6.83539e-21)
(1.20252 -0.02721 -7.96208e-22)
(1.14304 -0.0322634 5.68135e-21)
(1.1691 -0.0256954 7.44077e-21)
(1.10178 -0.033583 4.32821e-20)
(1.13158 -0.0308134 3.99076e-20)
(1.08778 -0.0415739 -4.2187e-20)
(0.500681 -0.349024 -9.63013e-20)
(0.232593 -0.265143 0)
(0.955612 -0.505177 -2.45654e-19)
(0.657788 -0.386776 2.39777e-21)
(1.27963 -0.572983 -1.50774e-19)
(1.09309 -0.513967 -6.24306e-20)
(1.44644 -0.556327 -3.653e-20)
(1.36248 -0.542225 3.30645e-20)
(1.5237 -0.501804 -3.77158e-20)
(1.49794 -0.507754 -1.63134e-19)
(1.55514 -0.437091 0)
(1.5592 -0.449115 -1.18671e-19)
(1.56034 -0.372954 7.25924e-21)
(1.58126 -0.385837 4.42003e-20)
(1.54878 -0.313464 7.4414e-21)
(1.57968 -0.32505 1.46852e-20)
(1.5269 -0.260356 0)
(1.56293 -0.269514 4.1149e-20)
(1.49945 -0.214198 2.69941e-21)
(1.53713 -0.220533 0)
(1.46981 -0.17486 8.68926e-22)
(1.50677 -0.178372 -1.84517e-20)
(1.44011 -0.141779 -6.25822e-21)
(1.47496 -0.142717 -2.23578e-21)
(1.41144 -0.11417 -6.00461e-21)
(1.44361 -0.112918 -1.303e-20)
(1.38413 -0.0912089 -8.16886e-21)
(1.41364 -0.0881865 -2.28662e-21)
(1.35802 -0.0721694 -1.23871e-20)
(1.38519 -0.0677573 -5.08007e-21)
(1.33267 -0.0564924 6.09679e-21)
(1.35799 -0.0510018 -5.50712e-21)
(1.3075 -0.0437985 -2.20879e-21)
(1.3315 -0.0374727 2.05896e-20)
(1.28183 -0.0338555 -6.08126e-21)
(1.30506 -0.0268907 -2.93012e-20)
(1.2549 -0.0265332 -1.6599e-20)
(1.27793 -0.0190728 9.06836e-21)
(1.22582 -0.021781 -2.57494e-20)
(1.24929 -0.0138337 -2.59006e-20)
(1.19354 -0.0196541 1.42672e-20)
(1.2181 -0.0110511 -1.44348e-21)
(1.1568 -0.0203429 4.14586e-20)
(1.18343 -0.011573 1.40362e-20)
(1.11393 -0.0242902 5.5269e-20)
(1.14478 -0.0185713 2.75026e-20)
(1.09954 -0.0313696 -1.24088e-20)
(0.380689 -0.29329 9.54693e-20)
(0.181207 -0.264593 0)
(0.790262 -0.396714 1.78507e-19)
(0.502665 -0.308359 9.78141e-20)
(1.17221 -0.480492 1.1427e-19)
(0.930608 -0.410118 8.03269e-20)
(1.41081 -0.492054 -9.35246e-20)
(1.27148 -0.461765 3.30645e-20)
(1.53136 -0.454663 -2.47234e-19)
(1.47181 -0.449944 -4.84778e-21)
(1.58431 -0.398261 -7.67378e-20)
(1.5697 -0.403019 -2.46055e-20)
(1.60017 -0.338621 5.2138e-20)
(1.61005 -0.345447 1.00007e-20)
(1.5937 -0.281859 4.74822e-20)
(1.61799 -0.288075 -2.83266e-20)
(1.57322 -0.230482 4.16069e-20)
(1.60581 -0.234911 9.84605e-20)
(1.5446 -0.18545 -2.09587e-20)
(1.58115 -0.187646 -4.02624e-20)
(1.51209 -0.146874 -2.13875e-20)
(1.54952 -0.146784 -8.19505e-22)
(1.47863 -0.114384 -8.90751e-21)
(1.51487 -0.112176 1.57085e-20)
(1.44596 -0.0873468 -8.82064e-21)
(1.47989 -0.0833078 -1.54584e-20)
(1.41482 -0.0650448 1.55058e-21)
(1.44608 -0.0595031 2.51354e-22)
(1.38528 -0.0468193 1.91083e-21)
(1.41398 -0.0400771 -1.10948e-21)
(1.35693 -0.0321537 8.84542e-21)
(1.3835 -0.024456 -2.2547e-21)
(1.32916 -0.0206897 -6.24161e-21)
(1.35413 -0.0122282 1.12282e-20)
(1.30126 -0.012193 -1.44296e-20)
(1.32519 -0.00312764 -1.06957e-20)
(1.27246 -0.00650859 0)
(1.29596 0.00304026 0)
(1.24185 -0.0035644 0)
(1.26562 0.00647215 0)
(1.20831 -0.0034277 0)
(1.23312 0.00729245 -4.04889e-21)
(1.17046 -0.00636836 0)
(1.19743 0.00471113 0)
(1.12635 -0.013022 7.25123e-21)
(1.1579 -0.00418147 1.33472e-20)
(1.11157 -0.0192466 -2.12737e-20)
(0.294738 -0.274182 0)
(0.142628 -0.268034 6.21155e-20)
(0.635369 -0.322327 0)
(0.388259 -0.276062 -2.14945e-22)
(1.02529 -0.390335 0)
(0.759731 -0.328591 -2.61584e-19)
(1.32854 -0.417686 1.21089e-19)
(1.13356 -0.377687 0)
(1.50695 -0.396726 2.20064e-19)
(1.40142 -0.381643 1.23148e-19)
(1.59365 -0.349809 6.2372e-20)
(1.55094 -0.347166 -4.01819e-20)
(1.62704 -0.29522 -7.28245e-20)
(1.62019 -0.295983 -1.4643e-19)
(1.62976 -0.241703 1.98983e-20)
(1.64348 -0.242315 -3.507e-20)
(1.61368 -0.19277 1.67016e-20)
(1.6396 -0.191992 -9.40852e-21)
(1.58617 -0.149699 -1.95995e-20)
(1.61894 -0.147116 -1.44984e-19)
(1.55247 -0.112752 3.70685e-20)
(1.58827 -0.108354 -1.87053e-20)
(1.51632 -0.08167 1.08012e-20)
(1.55244 -0.0756287 4.58413e-20)
(1.48018 -0.055923 -5.80553e-21)
(1.51489 -0.0484876 -2.80912e-20)
(1.44538 -0.0348861 -2.66789e-21)
(1.47781 -0.0263181 0)
(1.41233 -0.0179741 -4.90093e-21)
(1.44227 -0.00849798 -8.13504e-21)
(1.38082 -0.00472353 1.02075e-22)
(1.4085 0.0054929 -5.497e-21)
(1.35027 0.00519322 6.09423e-21)
(1.37615 0.0160252 -7.65447e-22)
(1.32001 0.0120064 3.32147e-21)
(1.34461 0.0233443 1.02356e-20)
(1.28928 0.0158892 0)
(1.3132 0.0276468 0)
(1.2572 0.0169266 -4.02293e-21)
(1.28117 0.029134 0)
(1.22258 0.0150289 -4.0739e-21)
(1.24747 0.0279283 2.54178e-22)
(1.18389 0.00982392 1.32677e-20)
(1.21098 0.0232813 0)
(1.13889 0.000440808 2.19215e-20)
(1.17081 0.0125141 1.33472e-20)
(1.12373 -0.00491959 -2.29456e-20)
(0.230691 -0.269132 6.54601e-20)
(0.105979 -0.269586 6.21155e-20)
(0.505177 -0.28096 -2.57699e-19)
(0.303844 -0.264854 5.80115e-20)
(0.862585 -0.316821 -2.66448e-19)
(0.607395 -0.277759 -2.74329e-19)
(1.20164 -0.340457 0)
(0.968617 -0.303036 -4.89078e-20)
(1.44116 -0.329952 -1.34616e-19)
(1.28379 -0.308623 0)
(1.5745 -0.292021 -2.47505e-19)
(1.49281 -0.282943 2.21662e-19)
(1.63508 -0.242844 -1.11866e-19)
(1.60349 -0.237933 -6.64933e-20)
(1.65261 -0.192928 -6.62476e-20)
(1.65047 -0.188033 8.84394e-20)
(1.6446 -0.146898 -1.72242e-19)
(1.6599 -0.1407 -1.64586e-19)
(1.62103 -0.106435 -1.45407e-19)
(1.64671 -0.09864 6.32651e-20)
(1.58837 -0.0718961 -1.05661e-20)
(1.61976 -0.0626145 -1.0643e-20)
(1.5512 -0.0430473 8.28288e-21)
(1.58497 -0.0325367 -7.52218e-20)
(1.51271 -0.0193849 -2.25323e-20)
(1.54653 -0.00792857 -9.65994e-22)
(1.47487 -0.000324032 -4.76171e-21)
(1.50732 0.0118324 0)
(1.43859 0.0146724 -8.20485e-21)
(1.46903 0.0273546 5.89083e-21)
(1.40397 0.0260214 -6.95533e-21)
(1.43234 0.0391306 -3.3919e-21)
(1.37062 0.0340158 2.63487e-21)
(1.39717 0.0475004 6.95475e-21)
(1.33794 0.0388708 6.5998e-21)
(1.36309 0.0526849 -4.69552e-21)
(1.30526 0.0407652 0)
(1.32952 0.054869 -5.52035e-21)
(1.27176 0.0397885 4.07792e-21)
(1.29582 0.054249 0)
(1.23622 0.0358251 4.12959e-21)
(1.26102 0.0509452 9.92938e-21)
(1.19695 0.0283777 0)
(1.22392 0.0442397 4.859e-21)
(1.1514 0.0163022 5.13354e-21)
(1.18337 0.0316609 3.2292e-21)
(1.13589 0.0118705 -7.76413e-21)
(0.175646 -0.266275 5.68306e-20)
(0.0672488 -0.267752 0)
(0.399988 -0.260782 4.76942e-20)
(0.234251 -0.259457 2.97478e-19)
(0.707786 -0.265686 -5.75102e-20)
(0.481471 -0.250314 2.05142e-19)
(1.04534 -0.271109 -4.97256e-20)
(0.801898 -0.247475 -1.58252e-19)
(1.33038 -0.259853 3.56042e-19)
(1.12941 -0.240177 -2.87008e-19)
(1.51754 -0.226906 4.05638e-19)
(1.38924 -0.214513 2.09471e-19)
(1.6162 -0.182206 1.35478e-19)
(1.55055 -0.173097 4.75632e-20)
(1.65639 -0.135774 -9.88996e-21)
(1.63132 -0.1261 1.03266e-19)
(1.66139 -0.092841 7.15098e-20)
(1.66096 -0.0814606 -1.49546e-20)
(1.64523 -0.055413 2.01757e-19)
(1.65978 -0.0423316 3.2888e-20)
(1.61638 -0.0239076 -7.40734e-20)
(1.63993 -0.0094619 3.09262e-20)
(1.58045 0.0019579 -8.5399e-20)
(1.60893 0.0173555 -1.15898e-19)
(1.54134 0.0227459 2.2665e-20)
(1.5719 0.0387114 -1.2932e-20)
(1.50168 0.0390728 1.13597e-20)
(1.53235 0.055316 -2.71642e-20)
(1.46296 0.0514765 1.15463e-20)
(1.49258 0.0678261 -9.1847e-21)
(1.4257 0.0603574 1.04397e-20)
(1.45382 0.0767506 -1.547e-20)
(1.38979 0.0659849 -5.89793e-22)
(1.41641 0.0824297 1.05195e-20)
(1.35482 0.068553 -1.69502e-20)
(1.38015 0.0850709 -6.8009e-21)
(1.32026 0.0682319 -5.55717e-21)
(1.34463 0.0848386 -1.1067e-20)
(1.2854 0.0651111 5.78778e-21)
(1.30938 0.0819157 -3.50944e-21)
(1.24908 0.0590459 8.08121e-21)
(1.27361 0.0764121 5.95496e-21)
(1.20948 0.049411 2.10063e-20)
(1.23608 0.0676691 4.859e-21)
(1.16377 0.0347513 4.28804e-20)
(1.1954 0.0533714 1.04974e-20)
(1.14791 0.0313564 -2.01239e-20)
(0.12289 -0.261999 2.33516e-19)
(0.0254611 -0.262806 3.10819e-20)
(0.311363 -0.249455 4.56392e-19)
(0.169804 -0.253832 -2.40543e-19)
(0.570765 -0.233755 1.13386e-19)
(0.375482 -0.234441 -1.40648e-20)
(0.880658 -0.217509 -3.90422e-19)
(0.648798 -0.210908 1.00367e-19)
(1.18255 -0.193875 -4.43814e-19)
(0.958684 -0.183948 -9.73149e-20)
(1.41702 -0.158842 -1.56953e-19)
(1.24424 -0.148965 -6.97997e-20)
(1.56158 -0.115461 1.46359e-20)
(1.45426 -0.10543 -2.36684e-19)
(1.6335 -0.0713007 1.06007e-19)
(1.57737 -0.0588286 -9.91552e-20)
(1.65814 -0.031146 -5.34259e-20)
(1.63545 -0.0156618 6.75336e-20)
(1.65394 0.00310585 -1.40848e-19)
(1.65225 0.0209619 -6.71113e-20)
(1.63232 0.0311706 -7.47913e-21)
(1.6438 0.0506014 0)
(1.60044 0.0534725 -4.26949e-20)
(1.62 0.0737874 3.6322e-20)
(1.56307 0.0707055 -6.26363e-20)
(1.58721 0.0913599 -1.59397e-21)
(1.52345 0.0835922 -4.78586e-20)
(1.54973 0.104212 3.09996e-20)
(1.48365 0.0927245 -3.6151e-20)
(1.51041 0.113077 -4.21362e-20)
(1.44473 0.0985357 -1.55873e-20)
(1.47106 0.118535 6.95563e-20)
(1.40695 0.101304 5.33257e-21)
(1.43249 0.12098 -2.95668e-20)
(1.37014 0.101209 -9.92348e-23)
(1.39486 0.12064 1.14016e-20)
(1.33396 0.0984023 -9.06964e-21)
(1.35797 0.117664 -2.00221e-20)
(1.2979 0.0929747 -3.63155e-21)
(1.32152 0.112212 -4.26597e-21)
(1.26098 0.0847603 -1.00869e-22)
(1.28498 0.104375 1.06166e-20)
(1.22132 0.0730194 7.22492e-21)
(1.24725 0.093617 0)
(1.17582 0.0559522 4.25391e-20)
(1.20675 0.0777223 7.2682e-21)
(1.15962 0.0537288 -8.06205e-21)
(0.0695331 -0.255442 -4.35582e-19)
(-0.0191722 -0.255276 2.88515e-19)
(0.230745 -0.24004 -7.14818e-19)
(0.105916 -0.246091 -3.00446e-19)
(0.449757 -0.213222 -2.96399e-20)
(0.280352 -0.222178 2.89215e-19)
(0.722389 -0.179051 4.00835e-19)
(0.511444 -0.186373 9.71523e-20)
(1.01462 -0.138834 2.77872e-19)
(0.788787 -0.142179 2.97434e-19)
(1.27572 -0.0942941 -1.53115e-19)
(1.0726 -0.0929936 2.74882e-19)
(1.46478 -0.0470184 -3.57159e-19)
(1.31483 -0.0408169 -9.47982e-20)
(1.57566 -0.00220442 -1.32077e-19)
(1.48161 0.00960438 -3.94264e-19)
(1.62753 0.0365271 6.27215e-20)
(1.5754 0.0537994 3.30055e-19)
(1.64111 0.0680551 7.63183e-20)
(1.61708 0.0892584 7.55305e-20)
(1.63106 0.0926156 4.55527e-20)
(1.62538 0.116182 0)
(1.60668 0.111017 8.16614e-20)
(1.61302 0.135714 4.60043e-20)
(1.57398 0.12425 9.48187e-20)
(1.58799 0.149267 3.55603e-20)
(1.53688 0.133197 3.96801e-20)
(1.55555 0.158058 2.8925e-20)
(1.49804 0.138484 6.34427e-20)
(1.51915 0.162863 5.66091e-20)
(1.45905 0.140661 5.81329e-20)
(1.48126 0.164372 3.96054e-20)
(1.42062 0.140079 -2.37948e-20)
(1.44324 0.163107 -2.95668e-20)
(1.3829 0.13693 -7.33026e-21)
(1.40559 0.159377 1.61975e-20)
(1.34575 0.131349 -1.50717e-20)
(1.36839 0.153343 -2.14222e-20)
(1.30889 0.123425 8.64435e-21)
(1.33151 0.145136 -2.859e-20)
(1.27163 0.112995 1.0783e-20)
(1.29468 0.134837 3.42257e-20)
(1.23223 0.0992486 0)
(1.25711 0.122048 4.20861e-21)
(1.18737 0.08002 -8.60516e-22)
(1.21717 0.104724 -5.41061e-21)
(1.17083 0.0791005 -6.20138e-22)
(0.0145873 -0.246514 4.3751e-19)
(-0.0659616 -0.245532 3.27854e-20)
(0.15294 -0.229606 6.8783e-19)
(0.0409819 -0.235893 2.40757e-19)
(0.339175 -0.197141 4.18318e-19)
(0.1898 -0.209776 1.10032e-19)
(0.574422 -0.151359 -5.70035e-21)
(0.385618 -0.167437 2.19334e-19)
(0.841903 -0.0969124 2.94786e-19)
(0.626901 -0.111951 2.74216e-21)
(1.10585 -0.0388227 3.36029e-19)
(0.891007 -0.0491312 -1.88912e-19)
(1.32578 0.0173306 -1.38946e-19)
(1.14209 0.0148927 2.33107e-19)
(1.47643 0.0669686 7.91359e-20)
(1.34251 0.0735921 -4.1127e-19)
(1.56186 0.106945 3.50774e-19)
(1.47424 0.122298 3.64096e-19)
(1.59969 0.137126 0)
(1.54686 0.159046 9.22288e-20)
(1.60656 0.158731 0)
(1.57787 0.184537 -8.66061e-20)
(1.59411 0.173385 0)
(1.58144 0.201514 0)
(1.56965 0.182415 -3.20245e-20)
(1.56862 0.211018 -5.09266e-20)
(1.53788 0.187197 4.38434e-20)
(1.54564 0.215467 -3.23081e-20)
(1.50255 0.188306 3.29168e-20)
(1.51491 0.216105 8.12754e-20)
(1.46569 0.186461 -4.6611e-20)
(1.48098 0.213472 -7.06297e-20)
(1.42846 0.18214 1.06666e-20)
(1.44567 0.208246 0)
(1.39133 0.175606 3.08001e-21)
(1.40989 0.200871 1.07445e-20)
(1.3544 0.167003 -3.58151e-20)
(1.37398 0.191572 -1.85952e-20)
(1.31759 0.156405 -6.17542e-21)
(1.338 0.180472 -3.98162e-20)
(1.28054 0.143696 2.80737e-20)
(1.30183 0.167642 4.87146e-20)
(1.24186 0.128054 -3.70061e-21)
(1.26507 0.152802 -3.57595e-21)
(1.19817 0.106972 -5.19778e-21)
(1.22625 0.134246 5.46619e-21)
(1.18134 0.107459 2.58343e-22)
(-0.0418427 -0.235382 -1.6887e-19)
(-0.114013 -0.233823 -5.14274e-19)
(0.0756138 -0.217331 -3.34053e-19)
(-0.0250085 -0.22347 6.25803e-20)
(0.23407 -0.181951 -9.61185e-20)
(0.100835 -0.196079 -6.43159e-19)
(0.435378 -0.129837 2.351e-19)
(0.266723 -0.150556 5.54893e-19)
(0.672328 -0.0653566 -4.76035e-19)
(0.473544 -0.0887881 -3.14294e-19)
(0.921941 0.0048757 -2.92301e-19)
(0.709807 -0.0163143 -2.83551e-19)
(1.15295 0.0722579 -3.04197e-20)
(0.950856 0.0585126 1.69848e-19)
(1.33465 0.130427 -1.10171e-19)
(1.16675 0.127631 -1.46746e-19)
(1.45514 0.175175 1.03553e-19)
(1.33021 0.18398 1.33173e-19)
(1.52263 0.206576 9.03306e-22)
(1.43593 0.225093 -2.12936e-20)
(1.55167 0.226905 -8.74561e-20)
(1.49494 0.251776 -1.65168e-19)
(1.55551 0.238441 -5.04545e-20)
(1.51969 0.267388 7.40681e-20)
(1.54443 0.24347 -5.13737e-20)
(1.52239 0.273335 -5.52614e-20)
(1.52275 0.243912 2.82269e-21)
(1.51276 0.274277 0)
(1.49351 0.240844 -2.13067e-20)
(1.49331 0.271459 -5.23558e-20)
(1.46121 0.234883 -2.45541e-20)
(1.46627 0.264571 5.58702e-20)
(1.42738 0.226694 0)
(1.43626 0.255298 3.54423e-20)
(1.39283 0.216644 -1.07268e-20)
(1.40462 0.244208 8.50637e-21)
(1.35785 0.204918 -2.21545e-20)
(1.37203 0.231599 -3.46519e-20)
(1.32254 0.1916 1.19668e-20)
(1.33875 0.217614 2.96226e-20)
(1.28675 0.176608 1.74876e-20)
(1.30482 0.202311 2.95825e-21)
(1.24955 0.159208 2.79412e-21)
(1.27 0.185504 5.19458e-21)
(1.20783 0.136687 1.05099e-20)
(1.23324 0.165897 -3.61057e-21)
(1.19073 0.138557 1.19267e-23)
(-0.0990391 -0.222321 -2.96652e-19)
(-0.16235 -0.220371 3.40435e-20)
(-0.00166931 -0.203317 -2.30216e-19)
(-0.0912475 -0.20925 1.85422e-19)
(0.131775 -0.166427 -1.91744e-20)
(0.012858 -0.181153 -2.34551e-19)
(0.302768 -0.111265 2.00342e-20)
(0.152105 -0.134356 2.89356e-22)
(0.50824 -0.0410546 -1.20674e-19)
(0.32741 -0.0698082 1.05471e-19)
(0.7345 0.0372457 1.74118e-19)
(0.533356 0.0076959 -9.77124e-20)
(0.959314 0.114782 6.14925e-20)
(0.753711 0.089984 3.44103e-19)
(1.15664 0.182665 1.10553e-19)
(0.967177 0.168023 -8.85743e-21)
(1.30624 0.234997 -2.62621e-21)
(1.14885 0.233129 -1.05688e-20)
(1.40497 0.270649 -1.92449e-19)
(1.28319 0.281015 -1.13522e-19)
(1.46129 0.291948 -2.33514e-21)
(1.37162 0.311658 -1.6752e-19)
(1.48615 0.301735 7.17378e-20)
(1.4226 0.328052 2.86498e-21)
(1.4905 0.303811 -3.07172e-21)
(1.44572 0.333093 4.94064e-20)
(1.48322 0.301445 -5.61993e-20)
(1.45172 0.331133 4.43448e-20)
(1.4662 0.294818 2.25866e-20)
(1.4466 0.325187 -1.2422e-19)
(1.44164 0.284651 1.16961e-19)
(1.43163 0.315585 1.29142e-19)
(1.41382 0.272564 4.54716e-20)
(1.4104 0.302606 -3.13304e-20)