/*--------------------------------*- C++ -*----------------------------------*  =========                 |
  \      /  F ield         | OpenFOAM: The Open Source CFD Toolbox
   \    /   O peration     | Website:  https://openfoam.org
    \  /    A nd           | Version:  11
     \/     M anipulation  |
\*---------------------------------------------------------------------------*/
FoamFile
{
    format      ascii;
    class       volScalarField;
    object      U;
}
// * * * * * * * * * * * * * * * * * * * * * * * * * * * * * * * * * * * * * //

dimensions      [0 1 -1 0 0 0 0];

internalField   nonuniform List<scalar> 
2880
( 
0.05838406974257762
0.15524891670768057
0.25726125714194725
0.30138164966721803
0.3042128045994313
0.36313435356878043
0.09300286821070052
0.19879880559649282
0.27050045288043306
0.2938707399013714
0.29030130698516143
0.2780821119318051
0.11665910143656816
0.21670025739849158
0.27061630284719
0.28400576719561677
0.27929610041654773
0.2846115634464078
0.13910270120375498
0.2302888397725557
0.26959647664501174
0.274849074755543
0.27246777073029865
0.29498268351996826
0.15961758521067426
0.23957581322726057
0.2690716712102994
0.27249623026267805
0.27045907547727854
0.2986771499176135
0.17789955007402652
0.24799622638942104
0.26997497108434704
0.2679904978846321
0.27027862628442606
0.3007990700358105
0.19234514934370783
0.25276737032448743
0.2761723229024288
0.2738668275416621
0.2770533899672695
0.3085896499872458
0.20511791625327697
0.2571995998175013
0.2781141383976552
0.279034801721572
0.2853248738454225
0.31538973057705233
0.21570633857667926
0.26126118158972117
0.2835656884213082
0.2890881063342985
0.29919687903420783
0.3296813868999328
0.22239491968368674
0.2647605657226428
0.28682514301728557
0.3006701436316775
0.31186882561774953
0.34619349896807733
0.22874366312089403
0.265730135128543
0.29277208579709896
0.30889059562419025
0.3319964745989412
0.368095322366422
0.2315240635184337
0.26760755602206154
0.2984044382527695
0.3201919993800627
0.35155558184341895
0.39067933707154684
0.2316865981327129
0.269421482557727
0.30483762977952805
0.3378089761430052
0.3734172813882821
0.42014135786823575
0.22796479824510094
0.2693141805398957
0.3146827429369908
0.3512669192094853
0.3976339434888369
0.45220473266012096
0.22457921823197488
0.26896855462646724
0.32000067917359254
0.3659082224613507
0.41984745323683
0.48552805140967986
0.21712185620888771
0.26746852739811366
0.32267460459168645
0.37729631313546225
0.4487203830857408
0.5240766982538814
0.2055268672784582
0.2645792679645301
0.3256083173539485
0.394946872978007
0.47362715899782637
0.5632240718997338
0.19453832937489576
0.2611961561540787
0.32919739184907104
0.40235749973445556
0.4996514839498957
0.6058927681148963
0.17952508681352797
0.2538789106917804
0.3294602200625883
0.4118210500072166
0.5204936529278945
0.6484896976844143
0.16226702622475048
0.24299238151538283
0.32526043110329156
0.4132059561759926
0.5378158802691652
0.6904131807099372
0.14102370821426807
0.22998644038962054
0.31197499913739074
0.4068072772570014
0.5454546753266132
0.7238936562042625
0.11453502158979681
0.2088019041348475
0.2945631756416873
0.3987408322147726
0.5402759142365776
0.7551637448609914
0.08544860715623764
0.17881998909334126
0.2679402535084149
0.37856831858185236
0.508562225477197
0.801454104225251
0.05474089469371747
0.12629430068759367
0.21511343487193652
0.3434897960627429
0.4385288226597289
0.9612096958433021
0.6754460457421156
0.7661041380264818
0.8165297517769168
0.8507064318797868
0.8758494674855453
0.8978635025429784
0.9154146964836346
0.9317640899559981
0.9440483720236216
0.9536329023765989
0.9607431695290285
0.9680275136725959
0.9725861405469285
0.9782833045569826
0.9816290664322848
0.985239421377702
0.9877884145535243
0.9881627782126652
0.9906326817021882
0.9912159889193857
0.9898560380162661
0.9897869488314062
0.986814532902616
0.984316128602852
0.5647197354512479
0.6866302373431264
0.7522814897233454
0.8010050369179317
0.8335991965214495
0.8621636610016956
0.8856182250631464
0.9033454925147412
0.919495591931838
0.9302681743412358
0.9420890868757787
0.9508769080691867
0.9573739257856515
0.9653220352266139
0.9691817754014411
0.9750885599531431
0.979498759134068
0.9826140897394373
0.9849120471850026
0.9870972213700847
0.9875349521486612
0.9881429108875901
0.9871016097552892
0.9856180241331292
0.5056332874718555
0.6264269782657983
0.7022279322782059
0.7554489045320665
0.795910930857397
0.8303688428231837
0.8575373921087361
0.8787638571297951
0.8947977316747396
0.9111009193208728
0.9233013013228524
0.9323799087428093
0.9423184580836778
0.9515500954418139
0.9598891699920242
0.9663236783527518
0.973274854104337
0.9768653010696953
0.9805929730130668
0.9832046393961126
0.985800290552583
0.9873411657994903
0.9867219478682479
0.9871041580398373
0.46266951691200536
0.5835273450864146
0.6616658174963435
0.7212851813560393
0.7668473068272055
0.803840797165306
0.8333006857551836
0.8559241437630655
0.8762417298944262
0.8907755536379762
0.9061262646131991
0.920156347448451
0.9319935526717549
0.9408963202831095
0.9519443044289435
0.9605230190979845
0.9670719042797441
0.9718070140407126
0.9765380397152654
0.9809826540481981
0.9845500806197437
0.9870995318666298
0.987904434624099
0.9887965435404592
0.4321079560755983
0.5508818898152059
0.6307338705096477
0.6952577210400015
0.7449646626686226
0.7830935657545366
0.8128333068349889
0.8390955360985879
0.856144154137424
0.8785846137825262
0.8952966214609018
0.9094688701895978
0.9235672076313757
0.9370656652475583
0.9458728725516308
0.9565561885057519
0.9638933162829906
0.9697745351971232
0.9748311092586545
0.9800149501889218
0.9837080237018934
0.9865252609194218
0.98894321020227
0.9903803701183511
0.412892428893008
0.5248980409516473
0.6090410292045765
0.6738801831473817
0.7272233154826542
0.7666428381404007
0.7982854567357662
0.8250728974508624
0.8480168774741119
0.8673313145198052
0.8867459510124099
0.902063296229803
0.9179781887562763
0.9323589712627846
0.9423513712556968
0.9531516264522508
0.9602353529712581
0.9683207304522308
0.9738305814375299
0.9796669445299491
0.9831385589690277
0.9873491818372582
0.9899739618381636
0.9918120071773333
0.403081998184736
0.5098254722612351
0.5937307469362725
0.6629607578447896
0.7167300376440289
0.7571758672283085
0.7891649346708611
0.8143853758823942
0.8397878933093909
0.8609432434755232
0.8811033317938438
0.8995423578086638
0.9148380824515195
0.9287391026794041
0.9403779672097549
0.9505724565801473
0.9597913973716059
0.96868951236374
0.9731870829883951
0.9801568235014682
0.9842914589600387
0.9881960274210504
0.9907667945500794
0.9928069907108732
0.39958184289101356
0.5039554425630166
0.5877586205824007
0.6558526136082872
0.7094099825337882
0.7486390234504108
0.7827148007416069
0.8085685597540788
0.8355378524164638
0.8594737647038824
0.8800782876400575
0.8992810093704513
0.9141454217192044
0.9281061658131388
0.9423772715320077
0.9522088782396135
0.9604619821298468
0.9681795261618945
0.9748264076250794
0.9804009533428247
0.9853562846980496
0.9886887658214442
0.9912853144918377
0.9932871407848008
0.40499380736388907
0.5050089277668646
0.5866474343265304
0.6561249945600105
0.7058501314449035
0.7480786761503116
0.7786168734488246
0.8085450018256048
0.8369194590240763
0.8575135867902088
0.8800034868545726
0.9003813899499982
0.9173301590369584
0.9312534599946364
0.9442730660787342
0.9546769412751301
0.9620031140714279
0.9699102604037272
0.9768709298163034
0.9822512339372244
0.9860561504210938
0.9894912328225585
0.9919105284961554
0.9935400808399439
0.4161370652206372
0.5131894127035969
0.591222725405053
0.6576469406525638
0.7084798883444361
0.7483328230179582
0.7825440584794313
0.8127972791276332
0.8391797547801079
0.8650730520126801
0.88676755341535
0.9043081783718167
0.9217661735925667
0.9360958022943481
0.9479590013546996
0.9578335821332621
0.9666596053804913
0.9730010382772404
0.9785601166172077
0.9835567387316657
0.9876458836168672
0.9903435784429752
0.9916485926063376
0.9928339638780108
0.4376019550875172
0.5262510219488459
0.6029594306720475
0.6660224898306054
0.7150473977165998
0.7538575780492152
0.7882120108496772
0.8206545190653369
0.8484055182689555
0.8706266799730293
0.8928713327325666
0.9120628435395765
0.9297878645200062
0.9415483563021527
0.9535904438471635
0.9629068550112314
0.9692801684605992
0.977302833408626
0.9816662928992361
0.9855315251035495
0.9888509589361363
0.9905365375019046
0.9912227984446674
0.9913214046623148
0.46243875406691387
0.547991834917577
0.6212570273374464
0.6781605384397345
0.7263417211566492
0.7659450933401266
0.8008628603800082
0.8319193828554021
0.8599969957800603
0.8840732140674473
0.9049407832147639
0.9218422431229916
0.9384525990095569
0.9506047889417493
0.9598469306307396
0.9698350926163248
0.9766032026967787
0.9816916434147578
0.9855434334224289
0.9880996709865266
0.989962942883658
0.9912822022370473
0.9904196773414026
0.989529480893096
0.4938150717605387
0.5753417378429808
0.6452357643388436
0.700137777587561
0.7435996606852179
0.7800752340550502
0.817112451786965
0.8467141437791833
0.8747381987244791
0.8992771832215833
0.9186862531761795
0.9342022451828278
0.9470706768354253
0.9603005686729003
0.970385700263728
0.9763251744250119
0.9833956885395627
0.9868530539297495
0.9895379777173703
0.9909986724348241
0.9917349584381617
0.9912931556341404
0.9897574018679844
0.987336199823988
0.5271085102334534
0.6119577246599709
0.6754098312919
0.7238615910003352
0.76624692089088
0.8032155157074193
0.8373534881089836
0.8680943191682192
0.8928683877684144
0.9152013819063283
0.9335716835473347
0.9495970482593623
0.9618319801855406
0.9716349151884408
0.98018541759298
0.985813096047518
0.9907678231454031
0.9933677066798313
0.9940178152498096
0.994216555495237
0.9932141577903576
0.9923272666375327
0.9891997629327791
0.9853419806044443
0.5719941277519701
0.6535816152949614
0.7107045003371599
0.7563643562261994
0.7947011789350031
0.8307807536194731
0.8646646338572781
0.8909575505532198
0.9162278194118978
0.9356625940375428
0.9526755023537331
0.9659468811228409
0.9769369947680153
0.9852632930693668
0.9921567599501702
0.9968154334832648
0.9988246238314954
1.0003041135071389
0.9990891429664716
0.9979155096894552
0.9959391642633728
0.9934212283148169
0.9887071129050296
0.9836392517955995
0.6224534062807746
0.7011297039308414
0.7520689082916547
0.7938067994707871
0.8331277026838366
0.8645353603079928
0.8936590870812479
0.9191201069177253
0.9410946843282189
0.9597703619917735
0.9734806171717693
0.9852873194654125
0.9949150490392902
1.0010380741696432
1.0046742967924507
1.0069404618114914
1.0083390732127846
1.0071567637938175
1.0052485938156677
1.0030804616618232
0.9992319996858998
0.995008373748009
0.9891955712221241
0.9826420149013424
0.678162309870993
0.7536971667894365
0.8021562825424168
0.8408343990483629
0.8743009229442532
0.9048044427461795
0.9297988455543997
0.951603051673203
0.9693147346516271
0.9841729731107693
0.9970371597494849
1.005502621714348
1.0121309021977054
1.0162709756541992
1.01954446703777
1.0195278195330355
1.0186839680957716
1.0161463127268822
1.012300044919967
1.0091019898584372
1.0037407806622372
0.9976032687956838
0.9900055844607024
0.9818452796826079
0.7414036708313768
0.8167649278638253
0.8602665605596792
0.8945933829903753
0.9232101355403867
0.948777512751052
0.9690183568800319
0.9879394833955776
1.0018994709172075
1.012954522385053
1.02434266258894
1.0292195643890794
1.0334099805516206
1.035864804594472
1.0345483505803128
1.033331392433308
1.0300712986679126
1.0260756149239258
1.0208847638771508
1.0146240183695454
1.0085486685423128
1.001538798024636
0.9922998791203607
0.98142173328214
0.8131860465408584
0.8804647223388189
0.9266255317607092
0.9558576942614271
0.9793618267814497
0.9987655946533616
1.01331628931612
1.0264058498201694
1.0388477687538364
1.0447748623176314
1.0505995210042947
1.0545003393713988
1.0544365963695284
1.054980845008343
1.0515905303871473
1.0482489056041993
1.0435155539685999
1.0365375004359834
1.0311802490632263
1.0225850082691441
1.0155859264317872
1.0067033693382987
0.9951710121309351
0.9829776771328147
0.8899754517771414
0.9604744934300978
1.0023320556232462
1.026011231280779
1.042627958121988
1.0534630064032158
1.061480897580903
1.0695636580579162
1.0754646229472458
1.0778660084603184
1.0796404512107525
1.0803430370678762
1.0781960374787434
1.0744395004426324
1.0701988801754971
1.06421778876569
1.0566394936627506
1.0493110681444564
1.0409699851413377
1.0321533761878003
1.0222259296823526
1.0124414227498442
0.9992503360238932
0.9845435251417213
0.9804447725094851
1.0500434898368651
1.088021489203248
1.1059083810563384
1.1115892850345939
1.1121212362486848
1.114807838039351
1.1141784729470694
1.1146588977986025
1.112826311568693
1.1104961577261832
1.1076254691600644
1.102816557671499
1.0963650552563653
1.0885590824456308
1.081660968779997
1.0721814420689262
1.062716769137975
1.0521657172394057
1.0420606312351834
1.0308491294850075
1.0187362072576926
1.003880844087634
0.9872202854045113
1.0732919776214873
1.1474784891378547
1.1849745893160042
1.1924711035743503
1.187262918412403
1.1783123631420747
1.1689868604170082
1.1625262270275696
1.1544209747647147
1.15020901115543
1.1429073755673609
1.1352824136671278
1.128215188456981
1.1183457708178988
1.1088497922849627
1.0997583211515518
1.0892009417011619
1.0773824325966488
1.0647177109748842
1.0533234997854413
1.0402269516834723
1.0274236890304036
1.0092549604792544
0.9902566746896372
1.1858378037306954
1.2497735927616398
1.2860830691409533
1.2813971158757207
1.2640296902777004
1.2451737904358884
1.2282305903199973
1.2109070350738813
1.1977005554701956
1.186287452970947
1.1759265334708837
1.1638499272834237
1.1532104140333093
1.1413844012231866
1.1300803233727195
1.1183152553605251
1.1046895464378008
1.0921547320593292
1.0789829473344945
1.0651906357324352
1.0509306606421518
1.0355554422158724
1.0158553324994397
0.9944772773566193
1.361022652041151
1.3780959428444817
1.388125554409968
1.3762553033764375
1.34690619242446
1.3111668258360805
1.286822889441984
1.2629023566705566
1.2411017612182098
1.2233568170924938
1.2084896322718508
1.1932523842034488
1.1794510452528633
1.1646730892975334
1.15127151445797
1.1365680950558235
1.1222372720456815
1.1079100454993687
1.0936522818695256
1.0783217493181378
1.061732979180975
1.0440243443868036
1.0231566732863226
0.9986097729596856
0.16332551920388225
0.3142172301304522
0.46929990182944015
0.47817883502635716
0.5842051313795931
0.29233253879633203
0.23015757412001517
0.37212636148162526
0.4989773828386265
0.49924005924609416
0.5344189896869656
0.37488193340535303
0.25619047257634625
0.3804573938121002
0.47386371918460146
0.46200510475569767
0.48518114904359566
0.4389134239833952
0.27378635677991003
0.36796631161419957
0.43473507009503054
0.4201112592739886
0.45550508062064976
0.4992994864417609
0.2904150097226776
0.35291426703427337
0.39199583030625784
0.3764379220212451
0.43258420881240917
0.541585410483771
0.3085465001632305
0.3348718377307677
0.3531627412549009
0.3398600733287601
0.41536747035016947
0.565198170928073
0.32554702683040015
0.3208236651963016
0.31559806427579284
0.309156150525236
0.40037565924694457
0.5786337372614792
0.34146338682479926
0.3123475511617387
0.28307406721319106
0.2828502340128198
0.3870389695116488
0.5838693410340868
0.35547450723019275
0.3062660296594744
0.2618511239923589
0.2607280179019511
0.36946207439625683
0.5670391060232804
0.3657497024777536
0.3026732820882062
0.24835791101508214
0.24364543233868716
0.35102688802938425
0.5461610598085076
0.37297173250426696
0.30200324809233126
0.24110806692051284
0.23166352347401986
0.3385189534033593
0.5198048995192956
0.3705434757651043
0.3039362222489536
0.2421878918253982
0.2282486566099145
0.32706670176110103
0.49638490364649906
0.36653168887764254
0.30765426697773174
0.2508105182160759
0.24309373712907947
0.3332974196440078
0.48718442798839934
0.3575255945466661
0.311000652832071
0.2645753926208678
0.2649050716690696
0.3511138289634847
0.485581237192592
0.3451312214440892
0.3158316278070101
0.2807198691503357
0.2932365379854697
0.37369083303684364
0.48968645651026765
0.3270409529581148
0.31921786835574534
0.29851204327681646
0.31940498034314885
0.398307030984271
0.5013645628344099
0.3060676920177423
0.32379887476921554
0.31550745522142787
0.3430129776802617
0.4138797912362957
0.5075193518500988
0.2838241716027605
0.32708668116463474
0.3320217677015369
0.36416211127437814
0.43177590567026575
0.5182196601933947
0.2588485235494541
0.3266747286995957
0.34635707317362996
0.3804169268863516
0.44282377301447207
0.520760643087246
0.23362672663936307
0.3262370516809434
0.360033182860207
0.39236068969967686
0.44797090703924775
0.5174949637027034
0.2096511199223911
0.32533869990352415
0.37129137472016077
0.3993450212234835
0.44481742660665596
0.5077146312111606
0.18118254644393905
0.32265120013323956
0.3786960529583986
0.3998598884703559
0.43076578431302764
0.4899770515536104
0.15280140618360105
0.31622457995017555
0.3816693883497547
0.3917584471191138
0.40443311031336454
0.45759896814392287
0.10261323765047836
0.2798244079583574
0.37014400126208025
0.36931506522103774
0.3476974895076069
0.4035552085497403
1.3468122127849071
1.4828019353128508
1.479101629322092
1.4599376335898526
1.419648070984422
1.3773671319764151
1.341077721636871
1.312158905730099
1.2842426976926713
1.2616491244734473
1.23973577407556
1.2217702667913917
1.2043519985191746
1.1877346547980776
1.172146742946608
1.1567310209722486
1.140681499579952
1.1244443399290256
1.1080582725201216
1.0912394526157883
1.0725657201598044
1.0540965260990394
1.0306684805727533
1.0042918903818867
1.2171684735618742
1.536236423103329
1.559137934642491
1.53678517810348
1.4916938650157534
1.4388644983100747
1.3995432841772628
1.3587746553454128
1.3265754687631905
1.2985697036714972
1.2717179463084949
1.2521323177797796
1.2303221123671797
1.2113420610117485
1.1943530653539556
1.175990305231598
1.1591136289613864
1.1402067628543437
1.1231518770043387
1.1043276698002675
1.085122973925391
1.0639858861505975
1.0392665209911671
1.0106748593389558
1.0985456820111206
1.54093089091853
1.6148783023492115
1.589691481812852
1.5501722932207334
1.4975758410654514
1.4481624763163312
1.4045827550986205
1.3654460356332705
1.3336522496112573
1.3034379998265206
1.2793066611847574
1.2555823786357099
1.2356615064574754
1.2153595703354285
1.1962980347583518
1.1767796708616471
1.157926687272079
1.1396000826309935
1.1192535740315621
1.0980826909176422
1.074680851873241
1.0480978248446229
1.0174348085516298
1.0379977043144013
1.4977836360641876
1.6266506514152665
1.6347616398953904
1.600675309429568
1.546908028465118
1.5019471791957775
1.442913409077013
1.4031615150619756
1.3662030059426247
1.3351564656066923
1.3039475880347433
1.2797332868396194
1.2592498002306949
1.2359867668298157
1.2151522614968258
1.196145939932694
1.1756798039899368
1.1542206492995117
1.1344840258109856
1.110387418731339
1.086008124955883
1.0575912277872765
1.025227763318897
1.0033320310348004
1.4671746833750743
1.6261261179971451
1.6619748225616395
1.6337406281177598
1.5896486147599218
1.5346530362998694
1.4861103372852944
1.4393729153588526
1.398158977337825
1.3597822800378945
1.3326927975549023
1.3051661682583287
1.2809143951798339
1.2565615170554902
1.2354080834539092
1.2156271081013368
1.1923725811659724
1.170102195051776
1.1469114441258448
1.1234980064626916
1.0970119729312457
1.0678978577543066
1.033594341935084
0.9875696532290417
1.4143418085067379
1.6034969328596578
1.666350928994739
1.6630561178843144
1.6131850565854162
1.5689560606709638
1.5227218351522929
1.4683902592989213
1.43187551930003
1.3910310948321565
1.358201912522842
1.329900945571026
1.3038692242171301
1.279159299316952
1.2558730732684555
1.2332020845789593
1.2087597092295883
1.1875531057191326
1.160850543798324
1.1366211359237648
1.1081626974425698
1.0785354387136619
1.0419857637746137
0.950319414357996
1.3605164336421751
1.5730831647048507
1.655445005257436
1.6696923786086946
1.6324267139310065
1.5963699706362169
1.5425008357951777
1.4982377351449137
1.4563541649072416
1.4191755490836038
1.383740913741029
1.3545164108042538
1.3262216588199163
1.298900834037201
1.2741009913501624
1.2499828383980673
1.2278481122673954
1.2016417615326522
1.174684356089108
1.1488280881614368
1.1198646066427085
1.0885731609375318
1.0508108414368924
0.9265582013077229
1.302537454163712
1.5208591262720832
1.6318882439487123
1.6621267027688855
1.6456552576235988
1.6112674572361656
1.5650859744098184
1.52246784997504
1.478639953792396
1.4422212427640262
1.4059612035836233
1.375821353045977
1.3470465974082857
1.3176256779219726
1.2913308955878944
1.267599537426406
1.2426473342792153
1.2176313618038739
1.1886717082121114
1.1607449706797082
1.1323906850780556
1.0986069952313833
1.0600791878287896
0.8966460906464353
1.2407525793184921
1.474269592751344
1.5894599103970137
1.6414949242527137
1.637990870239109
1.60511698730458
1.5771643394429882
1.5322135716354706
1.4960291900016365
1.4618294840995016
1.4262567938489965
1.3968845349384422
1.3646500894224691
1.3349146806381407
1.3116120020694968
1.2835586191964814
1.255912635567956
1.230233203485776
1.2039106686157024
1.1732024370782934
1.1411997292393272
1.1081354950532312
1.069359700019097
0.8521196972305519
1.1771959941145154
1.401317112073484
1.5370125528996645
1.5921063613796362
1.6121388305527158
1.6018599279093355
1.5721685902873368
1.5453732476059068
1.5101628976383727
1.4759317190103007
1.4437952306662374
1.4122912277791144
1.3803083776078777
1.3550982790269421
1.327496010260654
1.296834549168613
1.267808386365465
1.2449201355734396
1.2141227864609574
1.1840975181890716
1.1539011500702527
1.118310393836476
1.07828412274108
0.8056649250919654
1.1022636550527454
1.3408489727823971
1.475082922870091
1.5432023038650027
1.5739989934640621
1.5786351737614102
1.5590667636406463
1.541074860998488
1.5158541954052034
1.48534022303079
1.456290783741317
1.4240493727419699
1.3949221613023197
1.3658537808744562
1.3348803689969846
1.3084247741955635
1.2831019696285715
1.255036665356087
1.22507260744597
1.1954985640595224
1.1642937455212126
1.1271213436810252
1.086741781625523
0.7500122321347296
1.0401830683921653
1.2460885568366464
1.3921288668631386
1.477097290812086
1.5233071703573668
1.5410019437703903
1.542309011773919
1.526234506415535
1.505982823085137
1.4808358294274875
1.4544939646648996
1.4286192950835601
1.4031914028721992
1.3747901447974908
1.3491716147324853
1.3199016476806218
1.294463120444836
1.2638099835684016
1.2347378606821449
1.2053728614571764
1.1711154247575724
1.1357549600516956
1.0937253355738759
0.70608237698942
0.9618288302298659
1.1589769487568355
1.3078833678057458
1.3961951512530257
1.455980763574201
1.489736104210889
1.4994716181646868
1.5027858846341584
1.491283629353237
1.4708516587741307
1.4524887773822996
1.4291028307150349
1.4015225408909855
1.378416546251468
1.3501437952493338
1.3247824780308082
1.3005108193980792
1.2715892715482526
1.2431717320906885
1.2138810821261832
1.178779508081279
1.1451390941254453
1.106110328978432
0.6674520738046243
0.8855206618939452
1.0723151066531622
1.2092445475373337
1.3124660523520189
1.390081659053136
1.4327449547891369
1.4553248932122678
1.4635534998130932
1.4618128343048198
1.4510531486255887
1.4405255678037854
1.4185318217358598
1.3967052511536044
1.3779693047596435
1.3533777240325418
1.3321980882581363
1.3058408239105843
1.2768628043914299
1.2485181760101192
1.2200351679200179
1.1875072602474128
1.1544965834884793
1.1142625011511185
0.6460663919883117
0.8175303976655479
0.9822648789170151
1.11901720276708
1.2299282777272706
1.3093682997379255
1.3633728784500885
1.3965825202957054
1.4171952868571611
1.4249313119587856
1.4257317370813174
1.4165526974577964
1.4047501247150924
1.3887359171861167
1.371910918642748
1.3499619544345047
1.3283855193479666
1.3052342162850887
1.2821393897211992
1.2537177577563179
1.2267621436994176
1.1956045387632948
1.1615134902485282
1.1244868734292657
0.6213954455705294
0.7579595284458627
0.8945632899797903
1.0380769681673012
1.1406681414852782
1.2212711247963406
1.2872552991457207
1.3318335064180442
1.360911170281303
1.3782433724857075
1.3848654979669086
1.3820896469860304
1.3789603343755001
1.3686882450121716
1.353208797721283
1.3391858936720784
1.3183668702561255
1.3011557571895298
1.2776838830785504
1.2552630941740395
1.228710183182886
1.2020145882436162
1.1702524091322815
1.1336292261448844
0.6092423910338128
0.7081122786094226
0.8248610060257923
0.9425454819338133
1.0486999495960156
1.1427420141970543
1.209800578193942
1.260686823211557
1.2928930433807206
1.3222573997337288
1.336475355612592
1.343171837925999
1.3426319482902838
1.3394608163087263
1.3300193303491623
1.319480469175284
1.3060937242580097
1.2906745743888983
1.270495999532153
1.2520948571881345
1.229878875813396
1.2043769198109513
1.175972246819811
1.1443164897227274
0.5886705406851813
0.6612707421671868
0.7533741199466143
0.859601576173314
0.9721837137527704
1.061117089836394
1.131497737065584
1.1902422863277533
1.2294070180651389
1.2580976259066636
1.2769417575723865
1.2927353614413297
1.2985172438126196
1.3005438357775216
1.2997735440067992
1.2947279442728483
1.285049012873064
1.274302152601553
1.2595821766552757
1.2433617529596601
1.2257234696571113
1.2041048293443746
1.1797321084330696
1.1513477758868123
0.5717131469465125
0.6179303116763134
0.6900857122665975
0.7888433535075612
0.8914087966888018
0.9849675825719164
1.0598002032637628
1.1146928425070926
1.1542531999079466
1.1946703142995847
1.2161897089412952
1.2308275793990935
1.2425053081314266
1.2536188313610497
1.2568549337527999
1.2562963595001997
1.254209198030425
1.2492415604538387
1.2409449325281123
1.2294196594838336
1.2152595145460114
1.1982908663603886
1.1783236204901413
1.1560310818614743
0.5506102277002638
0.5620009515644918
0.6320204339623563
0.7192396863183177
0.8240246687162955
0.9133708101765435
0.9816203590078125
1.0395671099309187
1.080628546839961
1.121493316075477
1.1502896757837435
1.1688366414396523
1.1899499149153832
1.1986133969760493
1.2034410131699185
1.2143254599021147
1.2118302940680614
1.2154728958945042
1.2136277453024404
1.2083077972002048
1.2002234045101319
1.1879064718323318
1.1749086327779672
1.1570909905637068
0.5200974974182637
0.5116096580111218
0.5742045183721762
0.6616000683748713
0.7518866739298145
0.835096902934135
0.9052547964942516
0.9635563969387441
1.0041704175646855
1.0505265279787697
1.0783078144324576
1.1045352853471564
1.121288681664226
1.137004244881776
1.152107480102065
1.1652874758904022
1.1726165390004533
1.180176796024607
1.1814647689859532
1.179285027693165
1.176056970722958
1.1701939193005897
1.159997695264187
1.1511121798620536
0.4726827424193017
0.45886326467965394
0.5088169546335146
0.6038572482167426
0.6782756071384535
0.7618878997404225
0.8280276582388384
0.8800957527637456
0.9372181203995125
0.9744608275521887
1.0057577702263492
1.0306514434250675
1.0536836463730717
1.0816399616050016
1.088778689925398
1.108416579454584
1.1216536110507054
1.131883108283104
1.1395925435966856
1.1428568737611506
1.146385383491322
1.145903133429353
1.1415262018443786
1.1376410562015304
0.40433072169490514
0.39947320613278475
0.4566363433953448
0.5421995499042713
0.6206650225480956
0.6978723571152612
0.7561732661562997
0.8130637339109654
0.8541536020127366
0.900771922956938
0.9337975884122307
0.9594471011146815
0.9783232988612602
1.0051700835479769
1.0268515801604141
1.0452907961151834
1.06712300642459
1.080965204514404
1.0955506455984907
1.0991172600127193
1.1096495000070923
1.1150434736057004
1.115469673116686
1.1192718547169238
0.3074677139876052
0.3463540880941517
0.41561912831957004
0.490681412899232
0.5706792418040334
0.6292954749032194
0.6872987751990034
0.7446868671236553
0.7835218863464065
0.8140610213409174
0.8515842710908583
0.877621349141493
0.9125262973998453
0.9338517873142789
0.9632425302971424
0.9840258608719296
1.004070447177823
1.0231470648772911
1.0371790313406497
1.0549347403849145
1.0645230796958307
1.0701635351817869
1.079105763709163
1.0864274551844681
0.04058522955635376
0.08642226801602303
0.154364277132439
0.1932945890814088
0.21725963651215396
0.1989307691021146
0.05885041171563266
0.11590371895720578
0.1658201404969053
0.18994172725935884
0.19564177567601176
0.1757378907543501
0.06772623589283015
0.12224124867106033
0.16140985573276184
0.17416642049380582
0.169672156185377
0.1442536186794166
0.07691848104233938
0.12532070480609092
0.15407086902339615
0.16058974340048796
0.1457197924392347
0.11388481010413648
0.08624708709826624
0.12940421927402765
0.14853297449469077
0.14368347877098447
0.12453684971439122
0.09357834526723413
0.09710790435330592
0.13180979400997336
0.14123529334587062
0.13155652045228683
0.1033502737359116
0.07624447691585778
0.1029244570850643
0.13328527588463196
0.1369511225227841
0.12098795021321032
0.08724628311971733
0.05703202957098563
0.10845646800261512
0.13199227664084756
0.12868671104734447
0.11118522396917938
0.07902837079604164
0.04563484010567126
0.11161337890013263
0.1296923752247548
0.12715892929219774
0.10438299408934856
0.07256755543577809
0.035717714509459375
0.11474706472347077
0.12681705424914264
0.12220788281368491
0.10403902331031883
0.06962098676907291
0.035314282709314915
0.1197093476298965
0.1286175421536122
0.12580753164718406
0.10447009584123623
0.07633385772108031
0.05031762323278188
0.12244935207643882
0.13023712143470859
0.12961559272745918
0.11242469865639951
0.08943659566078233
0.06217798121152612
0.12467243214532976
0.1321900705354785
0.1346894144832955
0.12080918864484719
0.1018074059129796
0.07314141012071007
0.1225095067641868
0.13415995882235815
0.1401530613771361
0.13124981076668069
0.11314211040499456
0.08072018761755045
0.12356732751751554
0.1370105286643838
0.1445734128451944
0.13848401573697341
0.12146206793448283
0.08619979353780072
0.12031276536647655
0.1370799985019897
0.1506862806892583
0.1509015906528775
0.13150358003424076
0.0972519595360476
0.11850156876944146
0.13904475277021552
0.156961520903653
0.16138389952548185
0.14187585479416254
0.10495552497633626
0.1140565201570687
0.13905148547043536
0.163040274314434