/*--------------------------------*- C++ -*----------------------------------*  =========                 |
  \      /  F ield         | OpenFOAM: The Open Source CFD Toolbox
   \    /   O peration     | Website:  https://openfoam.org
    \  /    A nd           | Version:  11
     \/     M anipulation  |
\*---------------------------------------------------------------------------*/
FoamFile
{
    format      ascii;
    class       volScalarField;
    object      U;
}
// * * * * * * * * * * * * * * * * * * * * * * * * * * * * * * * * * * * * * //

dimensions      [0 1 -1 0 0 0 0];

internalField   nonuniform List<scalar> 
2880
( 
0.07485406091358304
0.1480559001793525
0.22860595465174002
0.2733640984740398
0.3442548155796612
0.4455874755908341
0.10574085052592107
0.17925597577608532
0.2517423831374569
0.29293523747642725
0.35553376188351615
0.4244169625011447
0.11995361761338509
0.18943969821864365
0.25491975517058246
0.29566710864201173
0.3601477182037568
0.4368217174672336
0.13258643321842226
0.1965770348913018
0.25515275212375943
0.2961159984587062
0.36492871537138427
0.4485491014817
0.14592460734993304
0.2024904593645414
0.254362286984803
0.29663586797996
0.3676150986942009
0.4553940972510634
0.15868124539393855
0.20697660579772598
0.2525877966073935
0.29665713291846424
0.3685122760578716
0.45657807139600637
0.17045755497229123
0.21037287059880574
0.25105591996720994
0.2960412968459217
0.3677808139039896
0.4544138316892493
0.18011219248282873
0.21282785286037395
0.24977747640292125
0.295301812669843
0.3661500805784723
0.45040828091625734
0.18800852245783223
0.2142610913439224
0.2482112724241114
0.29425818682340715
0.36401347471899864
0.44561486956832363
0.19417894509533956
0.21540445737524894
0.24695826625834674
0.2932204273643686
0.36234674157669994
0.4418071482364817
0.19870343332621768
0.21658129387884348
0.24733749457048992
0.2935343958109013
0.3612499847825685
0.4388576068619038
0.20069029340707026
0.21762949472368925
0.24911869382567936
0.29454336318683083
0.361163883052002
0.43702143112685693
0.20118295322729535
0.2186091388784247
0.25122624937769794
0.2974187904710525
0.3630462404235493
0.43741587638351315
0.19912032136678823
0.21893135765564664
0.25355460494384013
0.30170002454754585
0.36733982681584715
0.4409469868478002
0.1951106961096063
0.21910236973917763
0.2558840117575733
0.3058867334727149
0.3723603487131649
0.44592346305193176
0.1892091633596775
0.21833841772318777
0.25839162106371294
0.309333041451099
0.37648137952416344
0.45089667138630546
0.18150016050258325
0.2175624481700897
0.2606004298856499
0.3121006116723798
0.38025050154072587
0.4553505463620721
0.1721826821288084
0.2156773736524947
0.26209869855729745
0.3134519242817153
0.3826046658761469
0.4589244744630319
0.16033502994287308
0.2115158549713378
0.2632247465067096
0.31390520620645446
0.3833865747907874
0.46093218969493543
0.14640084493779099
0.20534803269441618
0.26292179561478346
0.3121892464781753
0.3820613823554827
0.4600852669028929
0.13082942994146085
0.1963501431943504
0.2612400088097063
0.31073928543071283
0.3788720784218007
0.45558817458450634
0.11524670483247954
0.18501390484293131
0.2575369664694448
0.30713234455668115
0.3747170499615656
0.4461182029547456
0.09815697837777466
0.1701593162639311
0.2489896306053468
0.299962949528022
0.372228875323648
0.4327472563381937
0.06598525234739933
0.13583716371982324
0.22327877942976707
0.27367852953650734
0.36716840996595534
0.4272372802225106
0.8296133161150843
0.909603678273452
0.9468780502049384
0.9684617338645848
0.9836812794722465
0.9942283636064428
1.0030964602092534
1.018590883946366
1.0360664388130134
1.052903396393735
1.0700467775468263
1.084397689448904
1.0951809184098278
1.101073645186935
1.1033918335464212
1.1040590579606846
1.1018396498656169
1.0971824029934119
1.090871806776982
1.0827188912370462
1.0719851307841803
1.0609523622412214
1.0465224425540203
1.0292568822375514
0.7402643223381649
0.8833214836404895
0.9368089475299186
0.964917626291109
0.9827978367959845
0.9964305885652408
1.01064991900553
1.0282435078597805
1.049225053600999
1.068423133946938
1.0853045543871354
1.0975209918590516
1.105538526563349
1.1100016225928788
1.1111298470883104
1.1085303337191157
1.1053354829618671
1.0996669573997857
1.09186079154086
1.083001035057822
1.0714182362924707
1.0591890305022376
1.0441492191124393
1.0268270362066079
0.6782429356784218
0.8414571060440303
0.9115511481780534
0.9520132213710296
0.9767138774789461
0.9962033729551756
1.0160077844596926
1.0392844922458928
1.0634628975977294
1.0831002749332366
1.0987660236344718
1.109309121006787
1.1146274870534427
1.1162192397845139
1.1151053106976507
1.111529502044585
1.1064415359338273
1.098769058097887
1.0913823315834663
1.0805923192037843
1.0706579207205815
1.05785405709041
1.0419859090321377
1.024643768947386
0.6412739028000065
0.7967866337481635
0.8797009853712464
0.9294104819822705
0.9629189920977357
0.9903823445796264
1.0208357942060378
1.0486543446666405
1.0730631964007131
1.094302567961529
1.1081644438913465
1.1164981716656157
1.1197589844640778
1.1196069174336447
1.1166654845804744
1.1110816465852107
1.105822128397349
1.0974460028132345
1.0884972279972083
1.079558638283813
1.067406069722767
1.0551938352997345
1.0385841009342998
1.0215604296629008
0.615496928625843
0.7572847668892412
0.8455657240305673
0.9036362395463869
0.9464529086146514
0.982918682807146
1.0195117875321669
1.053007469015676
1.081370482335719
1.10151397914871
1.1129295543278899
1.1195418418400198
1.1211354434313514
1.1194730435194418
1.115634717403786
1.1102975715239114
1.1038331955146112
1.0950954640252195
1.0863454024180363
1.076509698505171
1.0654509737227225
1.0522222844871858
1.035819714502693
1.0184479186715512
0.5949779411212845
0.7246175923507702
0.8145767428538605
0.8797494640963822
0.9295831417643052
0.9752949175269595
1.0188298859503628
1.056667688264745
1.084242595096577
1.103561994239632
1.1133505425051233
1.1174230944084829
1.1177451656524677
1.1165900794904362
1.1114606379258625
1.1063119464393327
1.0981643553265186
1.0921575281441416
1.082706109736464
1.0726643028425558
1.060816123986518
1.0473319492653885
1.0319313679295279
1.0157098513888783
0.5783179117635662
0.6974502381765927
0.7876867969466159
0.8577826853458681
0.9166868261594653
0.9701835314297869
1.0183323974415535
1.0566344262691383
1.086128048628897
1.1018353794930495
1.110480911997715
1.1141163663991422
1.1140222777491076
1.1113463253411868
1.1066108533501406
1.1007593307004233
1.09469429124614
1.0871273645235595
1.0783610491717477
1.0687303822531762
1.0580088873394038
1.0452261846446214
1.0294084831387484
1.0140764013877799
0.5626464261959883
0.6752063622511899
0.7665380056903279
0.8407996773461063
0.9071079771326946
0.9680123513277621
1.01987757940675
1.0585883199385273
1.0835425693752005
1.0986869885061628
1.1058214804872928
1.108372929574505
1.1076239980818896
1.1055091642440507
1.1010940490080674
1.095806080196081
1.0910663379912182
1.0834971630214396
1.075307686295383
1.0654514998472653
1.0545001196896089
1.0422297224983017
1.028209009259449
1.0134123031535556
0.5502860401011075
0.6590578273198433
0.7513241210281453
0.829778845468586
0.9027938266135971
0.9696105278980103
1.021389436449001
1.0559791443253645
1.0789637227644315
1.092428104807423
1.0985220786749856
1.1004365419020474
1.100237572392665
1.0979070431368885
1.095248401833065
1.090737092632414
1.0842773516974493
1.0766541879119935
1.0702200451676824
1.0614148870970184
1.0526420843202082
1.0413921957247216
1.027133340416771
1.0120035758131851
0.5418618200099511
0.6479361719013147
0.7415028915210331
0.825228791659931
0.9042380630533965
0.9717430009307675
1.0223300468595025
1.0544186420008854
1.0739385604475375
1.085583876634406
1.090831233715244
1.0931227957734226
1.0929201531247708
1.0913191988490483
1.0880325207412738
1.0834199054165223
1.0786359293723968
1.0738971829363528
1.0659403035059645
1.0591851755074446
1.0504518760496078
1.040156924071929
1.0276161580254843
1.0136833574333604
0.535456359288815
0.6418727944750244
0.7377336070215568
0.8279927241581363
0.9104274936505186
0.9772168881619699
1.0223729667253867
1.0504858050870258
1.067956319146325
1.078176073844002
1.0832464985447776
1.0851395350303512
1.0853988491397004
1.0845243603653745
1.0814163773184702
1.078588848617788
1.0740201388658241
1.0697280958060338
1.063284343610553
1.056914092516023
1.0498404215059745
1.0410878497409632
1.0296536876701987
1.0169596991599394
0.5323028503626316
0.6408633797748
0.7395611040050749
0.8359453247154275
0.9200044534123728
0.9823109814829325
1.0234685726850343
1.0481772800169697
1.0622546159634876
1.070565511684879
1.0756115561529425
1.0778354430061174
1.078693173685681
1.0773133305284395
1.0760318507101867
1.0723404728713934
1.069147424704453
1.0657762575125542
1.061672733035537
1.056920784862778
1.0497423082395516
1.0429413872407198
1.0325624200179149
1.0205584284741749
0.5330347630574628
0.6436308072108066
0.7478280607682026
0.8496111196516333
0.9321035184145832
0.9876733681465085
1.0236707760985981
1.0440385020957381
1.05722571836737
1.0640993034462187
1.0696028726147728
1.071415759926222
1.0728096433963605
1.0718696397715641
1.0706292448475672
1.0682151474145902
1.0661409913822208
1.0641150409339726
1.0615211855192384
1.0575758222035785
1.0529489539789785
1.0455650800389473
1.036029629424672
1.024404717321298
0.5373398567924208
0.6498397402544301
0.7624950376604832
0.8666784229600032
0.943510160379998
0.9935791033006426
1.0218744271918756
1.0411576452617743
1.0522280416569387
1.0594944960107087
1.0647307089728317
1.0659834011725138
1.067355739336067
1.0672941451940121
1.0674020331785592
1.0669992806471333
1.0647847999882005
1.0628877564329886
1.06216587130351
1.0588345018629979
1.0547504803754357
1.0490038588484778
1.039101386835878
1.029215195326996
0.544232312833072
0.6602305324976905
0.7810518426038701
0.884699250186301
0.9533608391068862
0.9953084308896373
1.0209645304140027
1.0379889130567113
1.0477325517137521
1.0535046543405897
1.0586082118326139
1.061891912253004
1.0637090979684083
1.0649979036890747
1.064398419150575
1.065628697586904
1.0647816546660351
1.0653557359780863
1.064438578324188
1.0621874562996958
1.058761226009642
1.052594769862018
1.0438960670516624
1.0330910390235646
0.5532156136744455
0.6785046496151073
0.8064409622821234
0.9027149588414063
0.9633822801635948
0.9988333173798439
1.020915829524852
1.0341402559059014
1.0450542876854019
1.051152784582972
1.0553651893551288
1.0579472733235074
1.0603835854427146
1.061493984090338
1.0642866543436305
1.0659693963186911
1.0662898681344741
1.0661481888350932
1.0669242594442752
1.0643820330166052
1.0612270470862402
1.0555586762454228
1.0456973437150734
1.0353510187363029
0.5641367930777188
0.7032253077557902
0.8338762744129442
0.9206997932237461
0.9706732909479547
1.0001088294016574
1.0198780254947513
1.0335297568889028
1.0418997619896195
1.0469607374160055
1.051397808916442
1.055212850759698
1.0590679132023735
1.0611660791384623
1.063681762827819
1.0670772689349872
1.0689930343226939
1.0692107743427608
1.0688258249557228
1.067311551451565
1.0631866338540092
1.057319491837896
1.0477874639139095
1.0359265331854703
0.5765363880903538
0.7330686528702827
0.8622271782596655
0.9366848297517004
0.9775166277011258
1.0034048858392846
1.0194897318099376
1.0298677878586395
1.038457716797644
1.0441115408550479
1.0488207067613118
1.054521613585565
1.0580706201337664
1.061632110049427
1.0653105487922832
1.0687886249025915
1.070442313682896
1.0715370810927067
1.0710629719457345
1.070242451477782
1.0662167824147504
1.0588454294779968
1.0485082035093878
1.0368069352353548
0.5920364642070703
0.7695450768409782
0.8877988898404029
0.9479538029115149
0.9818707322130357
1.0022700108224891
1.0168522709983283
1.0277975248939522
1.0360722021305757
1.0411149830341633
1.0469045815669686
1.0527342014485386
1.0574273250992805
1.062723844822038
1.0683811981141893
1.0712588618224812
1.072708370469793
1.0743821632203647
1.074465168385764
1.0721467072392714
1.067659809408246
1.059979065803858
1.0484004979612653
1.035121175317503
0.6126635258522185
0.80865080299892
0.9083679123520608
0.9576882468870203
0.9856658175146013
1.0024993372333084
1.0147624628950593
1.024303807006954
1.0317133253752317
1.0380117506252657
1.046094507836872
1.0519933770887595
1.0595423222457998
1.0653828539826409
1.0698123066412197
1.07461473355771
1.0755762143542287
1.0758692592062653
1.0761356118084402
1.0720879570840671
1.0674065576085037
1.059523326135386
1.0481951850785471
1.034046034484995
0.643701742959197
0.8461196997756983
0.9248610491884517
0.9624019487368181
0.9857549886419736
1.001348341644751
1.0125287265978935
1.020511720762063
1.029240912948125
1.0375041886092047
1.0461905539732395
1.0539691353175067
1.0611721310660596
1.0677929765157457
1.072318569410064
1.074824283454047
1.0776953024290128
1.0781710500966812
1.077537056323441
1.072275154118016
1.0673201677213633
1.0582003510153768
1.0464385847491309
1.0320653156452797
0.6908704540290167
0.8753860840798525
0.9364366651258234
0.9665911867592698
0.9855738555823473
0.9985011142555669
1.008931558680298
1.0177281616890368
1.026663090077357
1.0359741032989012
1.0468378291445257
1.0554777137099047
1.063115500696294
1.070071148744478
1.0744582649895131
1.0777574599712196
1.0806094197079916
1.0794424416334212
1.077680790857032
1.0727290769188387
1.0660663790104876
1.0567392059931358
1.0452361750438126
1.0308743790190076
0.7557910182966942
0.8951214625972542
0.9409588211242437
0.9661995453231419
0.9833378285503075
0.9942605185921369
1.005350180328018
1.0141838740255629
1.0240487960875657
1.036405346359146
1.0473727974436418
1.0579495284168576
1.0675890429788728
1.0731213915844655
1.076432608889791
1.0804214438611912
1.080485114186237
1.0797654097473808
1.0767510586457645
1.0715742251360623
1.06400411153692
1.0543976928192687
1.0422341901207468
1.0288831247398358
0.8246142366134808
0.902320843613286
0.9379379381843453
0.9622339343077821
0.9784970822063117
0.9903845305335406
1.0000444634254246
1.0125925607779316
1.0247906207584998
1.0378869352581646
1.0503143890957123
1.0601284050955342
1.0698144265275535
1.0762554140865055
1.0792646510300954
1.082093602062657
1.0823991605520367
1.0796048302222125
1.075988647417436
1.0700053145231354
1.062825845221574
1.0531967480862439
1.0411242245677412
1.0266419635146522
0.06877457872844289
0.13699711801019535
0.2164540844303975
0.2685334454112728
0.3363174522989749
0.4496808374170916
0.09739450779175428
0.16681933551022127
0.23935754971542111
0.2855641392936104
0.34572613346778935
0.4142101133150969
0.11099615560810214
0.17799708238989997
0.24387918491661584
0.28783117644119066
0.34856626344000313
0.41744997338433004
0.12304769792536162
0.18640194395443777
0.24540408364267788
0.28776877740436957
0.348577653290922
0.42197208271801057
0.1355513962824784
0.19311672628279575
0.24523919304587108
0.28685883499715314
0.3475670183300775
0.42099284747107985
0.1475548272408594
0.19819213509719613
0.24502519705384013
0.2859481069353314
0.34551977692463287
0.41717131948187375
0.15860972087030079
0.20177869953319275
0.24422229304204482
0.2844846134142525
0.34256579063809084
0.4111708059992042
0.16765436400605307
0.2045910930704272
0.24263985165712823
0.28261815723550676
0.33890294686726763
0.40429444035433604
0.1748316205696693
0.20664152927613705
0.24210528895253175
0.28148872576070283
0.3358507557215524
0.39809520545835236
0.18063378413550155
0.2080337156788225
0.24213352811164826
0.28098136708430593
0.333851676708701
0.39406721444895476
0.18451824315027976
0.20924028875736828
0.2429552495571433
0.28150851263518295
0.3337392700088424
0.3928628405579199
0.18665261975937308
0.21020663100014764
0.24412735664052587
0.2833489079689006
0.33596100913121074
0.3939911869869792
0.18683631274805879
0.21089149508222244
0.24621384166279142
0.2870493310083125
0.3397569710527701
0.39730465924392233
0.18494491105487837
0.21126793609771805
0.24847049321538633
0.29132447124362604
0.34527526467531033
0.4032043173508917
0.18140420933359808
0.2107688363249016
0.25078866572856473
0.29570671124089143
0.35149553226134345
0.4099034859084463
0.17590870723419216
0.209849525654703
0.2526283366116705
0.3001143099860962
0.3575876265308325
0.41731877120651806
0.16891407926293425
0.208013512498468
0.2538028630992683
0.3036926734206114
0.3633283956905871
0.42503234972105747
0.16008766966635188
0.20521077930144163
0.2550103985384927
0.30567319631672674
0.3678272512224558
0.43195401328585514
0.14910254270390053
0.20086016265543943
0.2548709798983431
0.30651472903880256
0.3711803096422143
0.4374364645858038
0.1362124646785828
0.19414810223833398
0.2532815738814749
0.3056163817197923
0.372066833478796
0.4412853952371311
0.1211949670355193
0.1843181276090171
0.25041628774294605
0.3031182980360226
0.37154204939677726
0.44207531437522735
0.10640667904123999
0.17226611037493386
0.24446557641028824
0.29862778200235574
0.36868303025019167
0.4390157682305296
0.09043868631917652
0.15712704349002635
0.23486249550831434
0.2900639603257643
0.3645742954491578
0.43316790619032686
0.06125917490124676
0.12434247963698546
0.20737538988289628
0.2637635816327786
0.35363903621789133
0.43793338179170543
0.8010902820574834
0.8861510837065153
0.9274049611599285
0.9537198058883884
0.9700094933719074
0.9842375257258805
0.9960525435208639
1.0091628638323096
1.0243939588931554
1.039835850610334
1.0538558410154337
1.063832011554324
1.0715783559187317
1.077497106024629
1.0829532263517672
1.083270715548178
1.08189346002571
1.078552144095868
1.0748427702757601
1.0684017115113158
1.0611841288325083
1.0510641805220367
1.0389861692302658
1.0257214537036425
0.6971101251884217
0.8434515821251033
0.9043670435920369
0.9382044315184636
0.9591846487544935
0.9749583749408871
0.9901916840193513
1.0078696038199066
1.025419950150334
1.042004312218812
1.0560704410565673
1.066320944794723
1.074260587097582
1.0799304594112313
1.082087198696707
1.0828897543327012
1.0807500270213652
1.0777979833161038
1.0723755888910593
1.066261866001388
1.0580401797489245
1.0478098835073122
1.0360496641740753
1.0225440511366095
0.6299484669013645
0.7888167263660946
0.8672773286091698
0.9119356737774764
0.9412059040551968
0.9619600314287117
0.9834789084774109
1.0048644173467636
1.025657968380821
1.042911750062065
1.057019514130642
1.0675371647807792
1.0751660660048212
1.0794663474075277
1.081559327661401
1.080863307547854
1.078224707585826
1.0746823245722221
1.0690967435456347
1.0627450311309097
1.054646343915119
1.0448239891243973
1.032702478307575
1.0210586669852677
0.5877125969337396
0.7356190350319641
0.8222060453603687
0.8773016853850641
0.9148688352873937
0.9442191991145465
0.9721724113248924
0.9986129251311799
1.022823708550646
1.0422266628405885
1.0566766200583748
1.0676267200923653
1.0735699853025344
1.0770236000352191
1.0786946374067854
1.0768663181104563
1.0738855743452673
1.0700295674574478
1.065262523183844
1.0591528779669104
1.0501778813948954
1.040663238631192
1.0290887514891123
1.0155582816810842
0.5573956774862746
0.6900170798205093
0.7787430947758741
0.8408128255494579
0.8850964952528112
0.9231287818312471
0.959164693405724
0.9905974881311618
1.0161072997402263
1.0372992025706442
1.0521567549854816
1.061989568100478
1.068044892635361
1.0706575794054034
1.0705340576386777
1.0698844120509166
1.0672385626466672
1.063499084359891
1.05790255359577
1.0524439515353543
1.045319046480928
1.0359614544723195
1.023638939517008
1.0118897479826483
0.5330220319121844
0.6506709778468248
0.7405162413651494
0.8065749267058111
0.8569613113714561
0.902640173320156
0.9433549168821083
0.9796274285320435
1.0074927332921626
1.030185152835908
1.0441889487295828
1.0537707673003494
1.0596719952613063
1.0619411291587262
1.0625612523770533
1.0617303941891056
1.0598237344783061
1.0564934048559538
1.0512281146414306
1.0452868992761688
1.038627291121582
1.0296639224325161
1.0190167682144227
1.0068717780179985
0.5131205012179418
0.6196484635745181
0.7065644089660601
0.7761150842819796
0.8332387131013868
0.8849363833944739
0.9312096361736736
0.9701529787754654
1.00036783086925
1.0208234586883496
1.034838000628879
1.0433900249104215
1.049095193287429
1.0516059454894098
1.0530942466694775
1.0530672809399801
1.0501627331633587
1.0480499880398202
1.043675686990275
1.0381200509407416
1.0319749526981727
1.0236157047919168
1.013627554866665
1.0027893046268257
0.49581071453695935
0.5947530126422242
0.6795725666437312
0.7509764151936622
0.8139324033398496
0.872513200917425
0.9224469489900352
0.9632290284693001
0.991020237735046
1.0106464234416803
1.0245083519297868
1.0329176463867829
1.0371708538721847
1.0414554092903694
1.0427273836137394
1.0433907939131066
1.041621908810061
1.0400219676924871
1.0367912496037237
1.0319020729982809
1.025437046842427
1.0187271979295898
1.008474610602071
0.9993203722851188
0.4812465272938487
0.5744202435041608
0.659143043384108
0.7322321627085544
0.8017531351629634
0.8658558797510427
0.9180011664281026
0.9571389393200632
0.9842040671180782
1.002493340411697
1.0141783091304302
1.0225758793716666
1.0275969881815397
1.0321972126240544
1.0335050500488432
1.034517741373861
1.0337785625367355
1.0328559480993225
1.0296565182137751
1.0264154457064991
1.0220594225105344
1.0145472620572717
1.0050670184863764
0.9961967446786778
0.47280948766912273
0.5618193410811305
0.6449084526470377
0.7209362504782394
0.7976239287694359
0.8647834512137696
0.9166759803805473
0.9534485831858973
0.9782935792697081
0.9951373123009103
1.0068832805239334
1.0139494675582346
1.0213214383074922
1.024880109902184
1.0262455018062957
1.0273552222094333
1.0275395516375136
1.0260205916686902
1.0245835231452418
1.022270447883814
1.0180588282783654
1.0126173092372945
1.0039166578985002
0.9958448644417414
0.4693241078755696
0.5562582758113954
0.6394338804298426
0.7213172778100844
0.8007411261992917
0.8685069765423103
0.9177311390823277
0.9517998829593757
0.9737826497307318
0.9897072558044715
1.00044582977344
1.0085218248084704
1.0146095290852377
1.0191053474874634
1.0212430732877809
1.0231613073531447
1.0231063764200319
1.0236227716423798
1.022296423651956
1.0194153023971555
1.0165360683796185
1.0128382609994206
1.0055148935816443
0.997327340930094
0.4689138843144772
0.5565596434994557
0.6414727831731666
0.730186746318851
0.812568654015145
0.8768180049184038
0.9219928882491102
0.9509973097693405
0.9717477467283432
0.9865099683779546
0.9969012725083224
1.0046256829880933
1.0114802270894074
1.0157794747933047
1.0193027694278618
1.0210863958376133
1.0215970583943341
1.0217120740856214
1.0214035701783621
1.020474068336442
1.0182188513095856
1.015390176322925
1.0088888028233909
1.001818720132239
0.47093303360129624
0.5599916396140479
0.650380527398831
0.7464565301325825
0.8273304949880286
0.8866567867252843
0.9268051522640594
0.9528948106287871
0.9716337051356612
0.9860645941436562
0.9968502609538964
1.003990590243855
1.0103925658375867
1.0145879250644454
1.0188232630140261
1.0211011695646004
1.0222634580423478
1.0226490228349225
1.022541182658554
1.0236910120064895
1.0218293814724921
1.020128538040799
1.0140337073665464
1.0071831910659403
0.47762136587123244
0.5673858616937525
0.6663203687898185
0.7661001008626209
0.8444529526240183
0.8967949743350392
0.9321542246302247
0.9573647032552117
0.9741606029344093
0.9867613759044227
0.9971484145513939
1.0050498973549384
1.0121531678726714
1.017055686684815
1.0204081707755526
1.0220640334783322
1.0250144770057161
1.0282847218381947
1.0289683197000412
1.0302186849043784
1.0292975543247
1.0259133407455054
1.0195099240774121
1.0126837249613654
0.4872140688331664
0.5811092003388958
0.6884467415084484
0.789101126288081
0.860920830677877
0.9066539327254607
0.9374431107966524
0.9598336123774465
0.9759769095281315
0.9893974785652322
1.0009852051878043
1.0083589207968455
1.0152163478205585
1.019498990698718
1.0245383969024815
1.0293063685841106
1.0314786536930145
1.0342588190681457
1.0362562409948815
1.0373779702290817
1.036271779615935
1.0337813620527487
1.0271330111026922
1.019057568267584
0.49806268625978767
0.6012013192038324
0.7174461547136148
0.8137997954005926
0.8752959785233108
0.915545522071016
0.9430943005085859
0.9639936367063051
0.9805550210963387
0.9931170335355595
1.0026761018098052
1.012595119188601
1.0197627169573047
1.02527027374886
1.0306891327192007
1.0349811314449118
1.0399947769626652
1.043245792927675
1.0450404122630477
1.0460038260297853
1.045193190072077
1.0417683120547891
1.0339924872757034
1.0252010253348474
0.5106106842857462
0.6292104518593101
0.752006600352347
0.8373846224224356
0.8894992627332882
0.9235071363826142
0.9484162378709731
0.9673012531265298
0.9833147914851337
0.997603863478545
1.0085661687742196
1.0168202152019439
1.0248143743888019
1.0322335967106586
1.039230530898165
1.0439514326103072
1.048103410524327
1.0516689706113054
1.0543875580101507
1.0537601181146783
1.0530661931378489
1.048780885343848
1.0398075411051155
1.0315361728640982
0.5257877528491208
0.6642993298563804
0.7878153531491643
0.8608378056218978
0.904502979522182
0.9330245499468791
0.9546472040417763
0.9732206788286841
0.9886489873162844
1.000948743431503
1.0128360950335635
1.0221389114219237
1.0311434289193095
1.0400198002312173
1.0471880170306755
1.0533804660186574
1.058731770321875
1.0614044637582611
1.062793812224403
1.0630703270733266
1.0598742991796235
1.0547765049659503
1.0451125339398393
1.0361182344410926
0.5450530369343243
0.707147852033366
0.8217479414990901
0.8831106134535793
0.9182490548131815
0.9426308572277511
0.9618910767633211
0.9784910018806918
0.9934150217876155
1.0074337039000305
1.0186540830865063
1.029440671549193
1.039678618515444
1.0489270445283494
1.0564533496207102
1.062097269538311
1.0675456988757608
1.0701639125110398
1.0714209435791755
1.069839748986451
1.0665743152842349
1.0593030386117357
1.0499406734108385
1.038789402982836
0.5703193603129002
0.7551041005049983
0.8536147805046009
0.902141461527766
0.9316860373182336
0.953521524919438
0.9703283888218255
0.9865726729341042
0.9998859264896742
1.013664005052988
1.0252579803410853
1.0378676472114818
1.0482373993254734
1.0575668517138903
1.065504431147593
1.0718673765244382
1.0760449923059674
1.0776547604419786
1.077902425823072
1.0748969095857523
1.0706101730686086
1.0629477672603858
1.0527150770694562
1.0399074950013207
0.60786238407841
0.8033425223329285
0.8818349819957816
0.9202217620016029
0.9447008520091484
0.9642484835473432
0.9801253418345804
0.9949981476156643
1.0080640751159076
1.0200177558108416
1.034015535789613
1.046849385441979
1.0576877548365902
1.0669871346909776
1.0736368544364854
1.079244963502586
1.0828958499663306
1.0839398280309493
1.0830595585239333
1.0797509392971236
1.0738586684586824
1.064931763810935
1.0531840390339393
1.040258569528037
0.6636333243509764
0.84532793568377
0.9061997268257754
0.9363204006953421
0.9587273298083897
0.974638987082204
0.9908617452509889
1.0044014710675482
1.0181892252448606
1.0307700330031395
1.0429549346654006
1.0555968483384528
1.0667232470289745
1.0757274636805874
1.082258283162999
1.0874151653044344
1.0886908767074244
1.0887565710330172
1.0858769816269587
1.0820843077302125
1.0750230014783457
1.0661478727194251
1.0526508239994343
1.0390140294867725
0.7408984189118086
0.878677026677965
0.9240199290116567
0.9504750557202887
0.9701264486557657
0.9856365626878756
1.0015685247537698
1.0152912423071516
1.0277993209148266
1.041929237477114
1.0554909559901895
1.0660902217843171
1.0750896301092814
1.0836727893483054
1.0894488856191678
1.092621555247308
1.093927321383286
1.091508022589325
1.0881600820830384
1.0836253600658194
1.0747338019671189
1.0649867159422828
1.0513246641201566
1.036733077054276
0.8266974578522239
0.9006385648381785
0.9365674769691649
0.9615181496978814
0.9811759080532083
0.99698916796807
1.0116633336224237
1.0249122481680202
1.0382120889024444
1.0526757147608417
1.0660264384189408
1.077427579132333
1.0848444017891457
1.0909529042495079
1.0950278005360585
1.096752359608857
1.09691552753819
1.093150576408818
1.0893005019165787
1.08195799000165
1.0736539323533572
1.0626218729190133
1.0492567260773036
1.033234000501578
0.07893788820278219
0.16134090569628629
0.24707268896586582
0.29257723585875495
0.3617969432272429
0.4527277926923499
0.11277106902185557
0.19454226995222226
0.2692252365021616
0.3099440331990255
0.36988799419239093
0.4318873326922951
0.12942598632632843
0.2049934718468845
0.2711358425971246
0.31077231038896136
0.3717157735644271
0.4424667122850212
0.14382238664702118
0.2117821116898149
0.2697859388226454
0.3091095164555908
0.3738223204504462
0.45301495007561565
0.1586071730063652
0.21706742091831988
0.2677721546999776
0.3075843618492155
0.37477020681158707
0.4588937318120908
0.17225038973909715
0.22150220255161251
0.2646939662937796
0.30542077324118955
0.37376819923065385
0.4585786303753616
0.18483368623148538
0.22420583380515516
0.2619683811484609
0.30342346519189317
0.37144002690971906
0.45555720837571795
0.1953235909693146
0.22600455861772212
0.25976057013807974
0.30155048343239343
0.3681429828042221
0.45075000457574826
0.2037967882657319
0.22718878049354688
0.25752550723732076
0.299489154529337
0.36489575518374423
0.4437967205279122
0.21065326474713136
0.22832914383603017
0.25564116740995985
0.29736036106662694
0.3618520447710858
0.4390832642730683
0.21564879944804535
0.22916983118773243
0.2557553822739683
0.2964443665998261
0.3597404360431176
0.43645313294551363
0.21815086521640797
0.22989211666370488
0.256857698193593
0.2974222884763071
0.3596729881709072
0.4355680510786323
0.21827329505325774
0.23094630996535728
0.2589562034908591
0.3005109397940173
0.362519870257271
0.4379187778638915
0.21616930511737703
0.2312308579889411
0.2613059633570495
0.3047116974278611
0.3682156957537197
0.44308306551354576
0.21156919522012063
0.23086642190892445
0.26382398847851607
0.3093195347064478
0.37379310871822063
0.44943212022059276
0.20495876026655976
0.23063294844429674
0.2669777682865035
0.3138844556069869
0.37952170893366854
0.45561252489985965
0.1964663193477668
0.229823622063829
0.270036802308325
0.3174368649698768
0.38389715843898026
0.46180520575686906
0.18604317073785928
0.22796977649013186
0.27196711241351995
0.32048193464785524
0.38777658031105583
0.46581241845752025