/*--------------------------------*- C++ -*----------------------------------*  =========                 |
  \      /  F ield         | OpenFOAM: The Open Source CFD Toolbox
   \    /   O peration     | Website:  https://openfoam.org
    \  /    A nd           | Version:  11
     \/     M anipulation  |
\*---------------------------------------------------------------------------*/
FoamFile
{
    format      ascii;
    class       volScalarField;
    object      U;
}
// * * * * * * * * * * * * * * * * * * * * * * * * * * * * * * * * * * * * * //

dimensions      [0 1 -1 0 0 0 0];

internalField   nonuniform List<scalar> 
2880
( 
0.07835118276428447
0.15629889885227807
0.23823318616768618
0.2788262843324362
0.35053205683999566
0.44194232023545077
0.11185149798117791
0.18926087382399737
0.2617471574881479
0.2994425169210588
0.36227820252877163
0.4296750887835372
0.12697115796262667
0.19902228899880525
0.26405856470849903
0.3021416432977889
0.36784112288465887
0.44817699323332194
0.1402703289901541
0.205518417418529
0.26345799632116007
0.30269079908294105
0.37511305146272855
0.4646862142786508
0.1543129379629723
0.2108483065391096
0.2615780240423957
0.3038835379364585
0.37993832275536077
0.4762236609124954
0.16771015980936585
0.21458724024671705
0.2591190250497499
0.3044961271371
0.3828523217666927
0.4802087894597188
0.1803121129474825
0.21780023589648492
0.2572279512168194
0.3041076869563086
0.38378052224967557
0.48050363580985345
0.19087042964712628
0.22034061502282185
0.25559098585596984
0.30369865250890793
0.3830225580341326
0.47812713430548587
0.1993620422660381
0.22152351876632592
0.2535503523608114
0.30285772190154064
0.38157271409505794
0.4742966877149761
0.20598279509690695
0.2225836713368196
0.2522620234360059
0.3015549287733494
0.3800891805481409
0.4705853119584773
0.21106157002265694
0.22391495771059297
0.25242588161798507
0.3019824385646127
0.37812041806558166
0.4660733990653668
0.2128052643357976
0.22481362885898729
0.25428226374063145
0.30210204818491765
0.3767562122604426
0.4629057664106435
0.21356432210704782
0.22603552304504956
0.2560823480411638
0.30454096286877774
0.3775715841746815
0.461588948375978
0.21101460123720883
0.22616646698747042
0.25829611422063187
0.3087110639642059
0.3808756469943658
0.4631700649579083
0.2068099604884289
0.226615730012802
0.2606584184571321
0.31257718035164017
0.3851107480843437
0.466876051637275
0.2004763427060245
0.22574927703416875
0.2634634113608109
0.31550198588092654
0.38769901822836206
0.4701756718023481
0.19196513878711216
0.22546216523962256
0.26573424476566704
0.31830032650040224
0.3902508222673818
0.4724360340146354
0.18235831630780377
0.2240646542731193
0.2678165563972238
0.31878136190035583
0.3910714410981743
0.47380377253789757
0.16959425228129035
0.21999985707568115
0.26966853205837404
0.31890794649371906
0.39050576025237205
0.47323889230028904
0.15477423151564085
0.21448321988942007
0.2699202254243988
0.31672043314079606
0.3873052266789465
0.46931432962560005
0.1383735702629064
0.20555540142271278
0.2691362618653875
0.3158697103699156
0.38266504358986714
0.46156364706614106
0.12187561611354059
0.19465670701811014
0.2665485654436368
0.3126002377517486
0.37771999637627135
0.44882843429792363
0.10365256248778086
0.17972016904459617
0.2584532391351493
0.30638526215369144
0.37610551941803544
0.4314365584762291
0.06844488684454972
0.14390633460242602
0.23355586829988212
0.2795588861522343
0.37405224390380903
0.41919512790137553
0.8377524354317233
0.9149678158320009
0.9475203497364247
0.9659024258762205
0.9800886060013257
0.9897353135513159
0.9957816059037943
1.012275095273299
1.0311656023177769
1.0485506856107834
1.0680987330085243
1.0834946711811382
1.0953946484786623
1.1009457332917496
1.1022139676959672
1.102977652192645
1.1003191410966013
1.0949308655978345
1.087734797526957
1.0786170681928102
1.0656850539181904
1.0552012013169074
1.0402692915413854
1.0211064731980886
0.7597031250878868
0.8994899408333169
0.9459984818112167
0.9711072093607334
0.9853594167333706
0.9972708275542702
1.0119160784548125
1.0286634711850566
1.050386266154647
1.0707578135355662
1.0897643030816808
1.1023484405959292
1.1095595879707343
1.1134783001115551
1.1149462740514495
1.1105590086975439
1.107325618812841
1.1005141801051805
1.0913971896181722
1.081329026725774
1.0670906452441102
1.0541816723153692
1.0384833640606403
1.0192640307033236
0.7032219002363974
0.8666785028511915
0.9305371963623151
0.9672003329229587
0.9883462385146851
1.0052777539376685
1.0251885818428759
1.048001497975805
1.0741668622143605
1.0932841599112018
1.1087631056661433
1.119737503005515
1.1240128219814238
1.1248064569615788
1.1221565379040819
1.1170887304816306
1.1109472005825438
1.1007841951033595
1.0934405100975237
1.079690349057933
1.0699260619920907
1.0562354414615263
1.0383700587040388
1.0195828607940958
0.6715720949217178
0.8305004468289755
0.9094036393024104
0.9540616952416903
0.983718735100858
1.0084863143005716
1.0393647003399602
1.06639397836374
1.0902048592298839
1.1121004388593663
1.1242383635107929
1.1318188625434222
1.134052781831245
1.1325280613771191
1.1276678846506383
1.11916573878619
1.1140882243985248
1.1028379630638252
1.0922562020178548
1.083268597727283
1.06901743390319
1.05612836608299
1.0371464099872103
1.0184480760198622
0.6490175906460874
0.7967881741663129
0.8827823432517813
0.9369713146509488
0.9780400362130784
1.011829949254606
1.0464807956040585
1.0789612442286916
1.1075394167765116
1.1272928829748983
1.135704528724627
1.1407802427069387
1.1407123957076792
1.136731113562142
1.1307277232125315
1.1235856963845654
1.1156625111293104
1.1039308126974914
1.0939704051647197
1.0830202367812933
1.0706341287677335
1.055216403756586
1.0366818176333357
1.0171498091419904
0.6308111546275603
0.7682618693485823
0.8590964415131459
0.9223590218067605
0.9699835925413692
1.0138042301932717
1.0556663558917663
1.0927522528308136
1.1176420391300783
1.1355646891606062
1.1425717497255543
1.1438118692483785
1.1411034044911676
1.1391942143579727
1.130278540617246
1.1236355941052056
1.11150006109898
1.1057128575789923
1.094034565520844
1.0823854658307066
1.0676576821982533
1.0514093570950895
1.0346624921889431
1.0172343246458533
0.6173632935885963
0.7440263688019806
0.836875392265243
0.907160649561248
0.9656471536695983
1.0160726199824228
1.0630301954883044
1.0989178886578288
1.128453532364935
1.1401466731482999
1.1455129155256667
1.14673190776397
1.143496106001315
1.1377658891835252
1.1293737088559466
1.1208219474931536
1.1129698780160167
1.103305385674893
1.0925060156223843
1.0809090262780798
1.068078142578199
1.0530655706575844
1.0348086854846936
1.0174960960052106
0.6023946883339776
0.7242099818469758
0.8204218173090737
0.8955765871943924
0.9623936011475889
1.0216228367142113
1.072604456972711
1.1089052723846735
1.1303407205317688
1.1434268511065842
1.1460775420875533
1.1454544588963602
1.1406300122364368
1.1359838713365853
1.12780618793266
1.120008898238461
1.1144308921746136
1.103717773307432
1.093378859532934
1.080875388257859
1.0664853848571136
1.0515989063976525
1.0360814160888638
1.0196635643427359
0.5909536012275586
0.7103633130155691
0.8082032716132912
0.8903175031838694
0.9628692126958052
1.0301377421817917
1.0790955360963286
1.108271972327817
1.1289485290113994
1.1395968695284404
1.1417540317443866
1.1398323457622006
1.1360960226044095
1.1304629045497732
1.1259639546219722
1.1190169159240582
1.1084170018825892
1.0974045284328173
1.0898616936951884
1.0780622536776454
1.0679173227142638
1.0537301562061088
1.0366728459802603
1.0173695542174037
0.5827886045370673
0.7004596836440506
0.8004347029048617
0.8882250569460605
0.9673219766345996
1.034301573850324
1.0829270504080555
1.111269322391009
1.1271364140302502
1.1359094916997186
1.1364148527518072
1.1356336024255744
1.1316563022364452
1.1268927177924253
1.1207954593031995
1.1126095617084455
1.1050722511817004
1.0991204721334273
1.0865289856548754
1.078358001477756
1.066296502322661
1.0527446642061087
1.0373295467885484
1.0192152553987464
0.5750165052423348
0.6933139542293713
0.7975496250377101
0.8933386611076438
0.9760243480610116
1.0418717812304803
1.0834010645006324
1.1078039822200905
1.122060551641995
1.1290208736055998
1.1303003663213143
1.1281149037171252
1.1252482379141089
1.1219415606003873
1.1152491625838679
1.110284929882544
1.1025842207329009
1.0962627291328089
1.0860907283861478
1.0762694666637949
1.0663081438405966
1.054244923313836
1.039234106097952
1.0224676172934046
0.5702104620890754
0.6915492107003973
0.7994890601026284
0.900410306967566
0.9849363802481618
1.0454398623208216
1.0848857997089312
1.106525682127943
1.1160194571965516
1.1201606631444727
1.1224187988451166
1.1209252571768145
1.1190316345158866
1.1139274670690955
1.110859811000802
1.1035826044398196
1.097984228245367
1.0922257522560062
1.0849153676780798
1.076898210369527
1.0643774023955779
1.0547520968872284
1.040824651198392
1.0245875018861355
0.569239341623001
0.6936822182237329
0.8057259095893916
0.9120049503330109
0.9948880961353279
1.0481080503284343
1.0828097520644009
1.0996687455926382
1.1100463578957056
1.111832989963208
1.1151539282239882
1.1130490551676675
1.1118602457830176
1.108166096895174
1.105093764000398
1.0992197588146249
1.093891736801868
1.0892955604450263
1.0835615416542672
1.0754250350947134
1.067718627724606
1.055451287217736
1.0423263528766533
1.0260322598917762
0.5724914697646811
0.6985605090042065
0.81955115365227
0.9262844768278765
1.0025323914763662
1.0523351666225125
1.0763481206784815
1.0944038179698383
1.1017727301261075
1.1050538573264796
1.1087143566129467
1.1063942578896315
1.1052184755482877
1.1015108656260413
1.0993295957553537
1.096381881287457
1.0904389665725163
1.0850943670146769
1.0819710178225277
1.0737431679599074
1.06558058131871
1.0564159359112468
1.0419177968671713
1.0296621489512559
0.57741442625642
0.7061678282402573
0.8341504498320721
0.9394828838574991
1.0070472780861799
1.0474302166804077
1.0715651712437186
1.0864836084785725
1.0925017171053129
1.0948652098596072
1.0977094661529814
1.0988862207320846
1.0980793402151818
1.0982865981100969
1.0941611399388649
1.0929312552119468
1.0872347822775759
1.0851160405324904
1.0810654685105283
1.0751010778756172
1.0686346196806389
1.058196054299361
1.0461731460326096
1.03201837773822
0.5841011046621504
0.7219330303650549
0.8564689580028181
0.9527275446268729
1.0131343470870264
1.047042417586519
1.0670689794162027
1.0772615802117298
1.0871360781235833
1.089754643984747
1.0919687398750981
1.092113243588428
1.0926606922388393
1.0898088944217785
1.090468102948405
1.089386578774375
1.0862405148002763
1.0818378115265725
1.0803677224119312
1.0730261811583368
1.0668441857110553
1.0578903331146186
1.0443287255906366
1.0317470431498512
0.5933293789542247
0.7444795677301013
0.8784860805811006
0.9650224574432099
1.0136792715139449
1.0419388790757738
1.0603545190373755
1.072939027242562
1.0791876622399548
1.0812679951896997
1.0837645866824568
1.0854526863396499
1.087924198313879
1.0857220522905668
1.084768823512421
1.085782918218378
1.084519448365587
1.0812406336733373
1.077725204007438
1.0728618517556305
1.0652653853677168
1.0567162146342413
1.0443821831398437
1.0294422676580754
0.6042168427453741
0.7702944548838838
0.9006685203561144
0.9757202074885393
1.0157548924270103
1.0409188183779094
1.0551864023383326
1.062724841156627
1.0701143894551852
1.0735741407338144
1.0760140739424262
1.0811904480186163
1.0806704647688117
1.080915478906813
1.0820004217982424
1.0834459002638261
1.0812124131216088
1.0790465376355822
1.0753040216124339
1.073695177495707
1.0667557717007459
1.0562150786036935
1.0436807995773987
1.0304306799421807
0.6170395409828265
0.8016278420272369
0.9205721798359198
0.9794295739205016
1.0129824604010094
1.0314551219252275
1.045310800470972
1.0558392442747382
1.0636452359528583
1.065013552437489
1.0700250190454217
1.0736248581212724
1.0748973382474658
1.0769666461734633
1.081456389116499
1.0806566204034838
1.0792635633288339
1.078476079561316
1.0767334086113287
1.0720695470837505
1.0664291800030967
1.056329775812204
1.0421788415844648
1.0270775912223098
0.6342243556116313
0.8345734269772324
0.933340422769502
0.9829570128265043
1.0111973322258248
1.0261775949172989
1.037613327299153
1.0461385369081888
1.0525518188811231
1.05699626302212
1.063782287726837
1.0651936157526138
1.0716124992950145
1.075080822954875
1.0770543646968178
1.080661754169603
1.0777551261631149
1.0750821042168213
1.0752208547019302
1.068111397246808
1.0632482497284936
1.0544667393129303
1.0415459934522804
1.02548176943708
0.6616160460747803
0.8655803656996256
0.941988721049318
0.9780396284433691
1.0029172182085375
1.0187144152345373
1.029681345751664
1.035997182808065
1.0442027510701652
1.0503105013261558
1.0577656870174812
1.062859068911158
1.0671841528959654
1.0719215382315028
1.0738312414746962
1.0735468913262898
1.0754831679191605
1.074559715161495
1.0740228264731295
1.0658269475385833
1.0619415269565124
1.0516653548826767
1.0389293362656886
1.0235429525560458
0.7023879555222772
0.8865858301908968
0.9461570770105933
0.976279848428626
0.9961839258870756
1.0091064868098825
1.0195465471304064
1.0272708730184414
1.035319598032683
1.04305230744623
1.0521640970095358
1.0572350406743924
1.0628019491927982
1.0687311388590317
1.0704052613588644
1.0725490393123915
1.0757536518777584
1.0726839304580098
1.071217598560243
1.0655686137091063
1.0584227483458197
1.0491862928371545
1.0374338136141537
1.022539834010734
0.7599171445033805
0.8972884830455976
0.9421978039427225
0.9682920478225642
0.987371002006874
0.997053613185118
1.0098494889005118
1.017511465867754
1.024713647868576
1.03633799346638
1.045011978450308
1.0538252363574405
1.062777620136031
1.0656846286332269
1.0668186439989347
1.071635281778979
1.0699159398223808
1.0700680067033363
1.0668826613983913
1.0622056250510614
1.0539357534043883
1.0444443167807702
1.0326071268193657
1.0207759006770103
0.8167735012561879
0.8946744896256404
0.9303552079550738
0.956775476903443
0.9751012715485249
0.9873165728162917
0.9970573218871511
1.0100316949157537
1.0200217493583539
1.0313636278302856
1.0423483048987003
1.0494916385138542
1.058816190210567
1.0645697626014652
1.0656864829189239
1.0691518226969678
1.0701946215642069
1.06685575828008
1.0639435325968063
1.0583417272634266
1.0518711051622385
1.0428977276255902
1.0321629671610117
1.0173443763880965
0.06426286342883696
0.12690660467933676
0.20340241956189936
0.2587357239905697
0.3241662518266411
0.44572907357023994
0.08991833091134273
0.15449645875371004
0.22545789632271993
0.2746744615967368
0.3335279610614518
0.4020724547586056
0.1024338973233501
0.16595110183415965
0.23068366184452285
0.2766824884713271
0.33453980523731675
0.3990410565739472
0.11377340760144501
0.17484466697594458
0.2333428304283899
0.27623462211047656
0.33205119909655395
0.3991898193808895
0.12542980531044143
0.1819740140753225
0.23376897249233444
0.2746696067848149
0.3292177730819068
0.3937930257179958
0.13651046946069786
0.18745036313266372
0.23423501771594854
0.2735612335814825
0.32545117156136905
0.3868935468851256
0.1466186169010479
0.19143340180019522
0.23437201687935486
0.2716707291494943
0.3213077862230376
0.37843474864535454
0.15485406837460658
0.19423426450974787
0.23303372949718973
0.2693751029520857
0.31646658597835314
0.3700357207168745
0.16117047649862243
0.19627145100339943
0.2327766377762093
0.26858068436155247
0.3132406228030124
0.3636101308162205
0.16655590540713322
0.1975037264771327
0.2329666440867391
0.26800334579164353
0.3112940682921166
0.3598874213306145
0.1698114256516958
0.19873864373951874
0.2342684659885284
0.2690015163979213
0.31177898681672983
0.3591453167677767
0.1719311808890218
0.19977157691235925
0.23526726125917283
0.2716213163093789
0.3152646853581227
0.36142392441565135
0.17221018898791654
0.20049387955033346
0.23755398919236326
0.2758871279988282
0.3195979247536199
0.3663870203302942
0.1703596656185901
0.20094135116632386
0.2395957685738853
0.2800282030193386
0.3260481781475935
0.37412097157049734
0.16750171763044044
0.1999959685724874
0.24175952342720672
0.28427041289588423
0.33324255620310134
0.3819649750636372
0.16248444424416517
0.19894094769405918
0.24332686266714526
0.28905200816517823
0.34032854424021275
0.39089366495134215
0.156042031266009
0.196734594447193
0.24426743305008872
0.29310253152913684
0.3475306312255265
0.40087373845401647
0.14804749937289946
0.1938975873275847
0.24517441992903535
0.2951935096217517
0.3530701481918278
0.4099325166574526
0.1377614754255209
0.18942082580673944
0.24458255067527573
0.29681408271188126
0.35804697749642145
0.4172841045901111
0.12581687126681065
0.18242136966764047
0.24197309201073122
0.29557692429651483
0.3599656923092345
0.42419172745975914
0.11198858792758758
0.1721675115187085
0.23858564427488288
0.293069227673066
0.3611644114129083
0.4281045534073226
0.09823466024909897
0.1601774136890501
0.23159182414037252
0.2880608827965039
0.3591998100498539
0.4290764979765077
0.08359074092136469
0.1451012738833319
0.2213296386563692
0.27899686664988055
0.35478236351688913
0.4274684671654219
0.05779937909295875
0.1145402678564339
0.19414771159390362
0.2533655319369307
0.3410556974016667
0.43879158072518615
0.7795658942369473
0.8676892436132121
0.9121023198935231
0.9408772451414822
0.9583952191552736
0.9748158987346247
0.9858426176895168
0.9985573783610998
1.0123419597075258
1.0263531359493576
1.0398649649001015
1.0473752199594266
1.0541211229056828
1.059489752562976
1.0677699966165948
1.0672550033833728
1.0658679626256093
1.0628596611289212
1.0607787995685214
1.0550303219449997
1.049475785202415
1.03959299985436
1.0290549996655733
1.0178102795170758
0.6658314395965503
0.8140527825719709
0.8800406093758842
0.9174666512014942
0.940684099839731
0.9574810032340985
0.9728266470109186
0.9895379251283272
1.0063031458855984
1.0223616368214767
1.0346290870839474
1.044104570019108
1.0515463299745418
1.058509929460591
1.061096110050515
1.063502458575856
1.0617223316302085
1.0609237251225676
1.0562112725239616
1.051344023148989
1.0440672005665415
1.0346527266526582
1.0246454115590888
1.0129421914644332
0.593877935072343
0.7500206619456786
0.8339071161335524
0.8821689528575501
0.9147315971512298
0.9369432442099589
0.958542447305094
0.9788627366903259
0.9996376137116851
1.0155088756535338
1.0288609777487039
1.0394786179900406
1.0482436252621943
1.0537069931792364
1.0576965986216047
1.0579721179621853
1.0564165654750217
1.0548025102125191
1.0502049566302913
1.0450517269876258
1.038332068564473
1.0301959403475198
1.0196157579552185
1.0120788950397004
0.5485975241848858
0.6900528058844759
0.7793230938740403
0.8382508638891909
0.8791663374988208
0.9089654778202492
0.9381899261761869
0.9642828975890495
0.9888947109283973
1.0079612878182136
1.0227704979535577
1.0356413150641501
1.0421449523140016
1.0473784023896249
1.051650453105269
1.0506574072661845
1.0488962191930815
1.0466941349319523
1.0441573982931578
1.0404781766218734
1.0323199257039717
1.0241067450361665
1.0153136787265948
1.003085463101887
0.5149020318940246
0.6400375621360113
0.7281110226523202
0.7935146673120456
0.8388989453174588
0.8793552427305265
0.9166458469294769
0.9485690610696129
0.9732472141314791
0.9959528599346125
1.0117851276722658
1.0235245489903155
1.03197016725668
1.036311392226373
1.037245577632406
1.0394639528164658
1.0389339357174876
1.0372553059870804
1.0326321035814516
1.0304795316402786
1.0258671203387324
1.0182696411886814
1.007545634384528
0.9987880877498031
0.48778556321988237
0.5964734649811807
0.6849853692225064
0.7515183787847539
0.8024907573895841
0.8495194049341894
0.8902641483803869
0.9282116415556276
0.9561066909386081
0.9822440040173455
0.9976682053528384
1.0101588128066152
1.0193890440141549
1.023305020936505
1.0263816844110503
1.0280048989366124
1.028781523188415
1.027542651616717
1.0236404524018032
1.0198777638692982
1.0159123677158988
1.0081618029306119
1.0012867284975764
0.9910228608391851
0.46652980729345056
0.5626120226141489
0.6455613810349309
0.7140676570841419
0.7714658083136006
0.8234525582896566
0.8704192656165127
0.9110999089003332
0.9442901470875947
0.9669789087335664
0.9840817513756024
0.9949364317948438
1.0037992261695319
1.0088746668947726
1.0136796129054222
1.0166400680976175
1.0145340294654586
1.0163559546472745
1.0139872174048246
1.0099946058527642
1.0065230463863775
1.000353180985609
0.9939424856505821
0.9858353178746476
0.44783976704349354
0.5358640299116391
0.6146432504880244
0.6828531073603044
0.7453178440909677
0.8039269653610948
0.8551550894728449
0.8989638609674323
0.9276303134690016
0.950726117931153
0.9696796170753348
0.9808758885331742
0.9869130340683685
0.9956499279837145
0.999715983405319
1.0039490638485957
1.0040674551925308
1.0056912144747165
1.005305132499717
1.0021825100095925
0.9971706333838003
0.9933667290176228
0.9857462557947895
0.9813743761324835
0.4319822526847532
0.5135429570914487
0.591107223131489
0.6593409033011295
0.7275467380846488
0.7924945759587239
0.8462789324795362
0.8875552688711589
0.9182947731308917
0.9404711846205406
0.9551088587908279
0.9671190072842908
0.9750713678170023
0.9844871779608256
0.9874577747868934
0.9917625446301602
0.9930398213058401
0.9960425633387865
0.9947620187145052
0.9953598607455123
0.9941909453427477
0.9881956126392385
0.9810749669165324
0.9762101642705989
0.4242526569312357
0.500070558583429
0.5735952045403923
0.6442672674101846
0.7201178284528625
0.7876821980388597
0.8411588787275434
0.88094597048532
0.9100778424518213
0.9308554032759309
0.9463552812037674
0.9555232361775049
0.9689241984856898
0.9756409972717645
0.9781272112300095
0.9821950269858046
0.9857350361072384
0.9864227690606564
0.98833825252168
0.989946366243646
0.9887605740868511
0.9859636953914213
0.9797998973934587
0.9758354464171491
0.42176320593140526
0.49381977071486743
0.5676711341250748
0.6442741355290256
0.7206134824257346
0.7893429838713935
0.8409792145673226
0.8790923470161361
0.9042625177410386
0.9244540081479904
0.9386414310831996
0.9503893966078655
0.9599803902690057
0.9683183716378394
0.9732240769103663
0.9780641442205859
0.9800517006054739
0.9847952883730365
0.9861188320775346
0.985342171091041
0.9859185591039701
0.986225183029676
0.9820189201693159
0.9770167277880706
0.4225781224125627
0.4953925385014898
0.5694083159077208
0.6525661576967116
0.7336330943831441
0.798684404836618
0.8470947443205932
0.8781818174433287
0.9028191026202739
0.9215367250334535
0.9351829104217243
0.945983539952407
0.9574436097598025
0.9648807255496442
0.9715257954703039
0.976498127277518
0.9794623173024363
0.9823295282474358
0.9852953314091119
0.9875670824464299
0.98845652502226
0.989786277471906
0.9866254928326235
0.9838045997780281
0.4261794561879221
0.49978397976038985
0.579497615229957
0.6710375001964997
0.7500512815935487
0.8100196138118132
0.8536312806128247
0.8825943999497919
0.9045066012025353
0.9223338110470113
0.9374209378626579
0.9467438774311192
0.957004542265712
0.9635526541243689
0.9718351674986643
0.9768614392965427
0.9812683681503991
0.9845102429078213
0.9863213385757247
0.9919395105274597
0.9927566547069182
0.9960961217097352
0.9933819209568896
0.9904203413567063
0.4341773386018084
0.5083297081375887
0.5975398492134149
0.6927988870053222
0.7707795940955771
0.8237336581303302
0.8623096033730335
0.8917034939401665
0.91032612230236
0.9254809585905284
0.9391610057820633
0.9498816687134859
0.9606667484619417
0.9687139152809852
0.97515601770461
0.9785474671398428
0.985154252623023
0.9926906918388864
0.9959045376679645
1.0015439665503212
1.0039357813253094
1.0029607171414703
0.9996655369727847
0.9973328015238632
0.4452871737726258
0.5242811766811557
0.6223223627297015
0.7200932112155581
0.7919195792158504
0.8386643268862455
0.8710898967898083
0.8967363768065149
0.9149246578098049
0.931385357680661
0.9472200415686202
0.9567997207860388
0.9672463206758195
0.9726751641977535
0.9816243038564989
0.9905597154133058
0.9939812734340221
1.0003554545074045
1.0056972875319876
1.0105205637870776
1.0122360352027502
1.0137969955325676
1.0100358862193448
1.0051511756714868
0.4571631541408555
0.5462936801646223
0.6548840420854439
0.7495158782785053
0.8111705372659964
0.8522937369633814
0.8821751878642594
0.9055926880106527
0.925222120545598
0.9400047388026356
0.9510735959886147
0.9646639819153837
0.9743291827240894
0.9824105230648216
0.9910934282835224
0.9979669037998153
1.006684349618831
1.0126303517176103
1.0175438631252287
1.0221242482064294
1.0252199929202859
1.0247490319433994
1.0186763713327471
1.0129022671370802
0.47141878485172195
0.5774115395593137
0.6937998359425489
0.7782539790774313
0.8304247643090945
0.8655794446931836
0.8921140775242997
0.9121467494580864
0.9311379575474428
0.9490207656564118
0.9625603507815557
0.9725456028516297
0.9834468607063417
0.9940319790409073
1.003731377463766
1.010591271181947
1.0172885470637776
1.0238853492901314
1.0304066235194036
1.031513986739136
1.0349988900962244
1.0337568141763867
1.0257236102068272
1.0218164729414256
0.4889377901105615
0.6154424232778333
0.7355560985233126
0.8079671472161464
0.8520445922949418
0.8813413354348872
0.9044987199830674
0.9244527135974695
0.9422341742278175
0.9559894109191528
0.9705117719443103
0.9817078294117373
0.9931598370987894
1.0057378569923787
1.015239130568264
1.0240759297909199
1.03242922077815
1.037335609860036
1.041356684632081
1.0446387420882333
1.0437706913335738
1.0408878166263844
1.0321777856612837
1.0277860506840295
0.5106282054685974
0.6624559691776893
0.7755266272264965
0.8370785722816445
0.872416837739831
0.8967190211707339
0.9175974245950681
0.9354058142960622
0.951885479888607
0.9690797048052854
0.9816037606220457
0.9946032876293291
1.0067843244343362
1.018656384380831
1.029069889859062
1.0371886598787647
1.0448122795580075
1.0496859752839565
1.0535493716812037
1.0534809806213212
1.0528497835598287
1.0459403010658137
1.0392321697194578
1.0310447511134841
0.5384144525746062
0.7159398876346703
0.8141242993110162
0.8621500637343172
0.8920240454636024
0.915231547523539
0.931546748363374
0.9501373862859843
0.9643874335605367
0.9803715948972456
0.9928758299941802
1.0086470783697847
1.0212327315706153
1.0317469095418843
1.0423876419792906
1.0513678738453316
1.0579828356840746
1.0601679340848755
1.0626835015700458
1.059727635094096
1.0577589169812809
1.0511352669593172
1.0429659806672997
1.0312864044255956
0.58039170231481
0.7713444563166386
0.84935429490569
0.888019461586994
0.9115456290548865
0.9324101701358191
0.9483493964664487
0.9644852484262939
0.9785616897576735
0.992363237704046
1.0082478518967795
1.0233551754835828
1.035823648221262
1.0478643733134352
1.0550754656588661
1.0618865771741441
1.067454261143102
1.069748956754413
1.0701135885907214
1.0681847264877962
1.0630653419213558
1.0541877729147078
1.0428151357138893
1.0322571018453155
0.6400520391141126
0.8202402665858867
0.8823062642382067
0.9108041057245928
0.9347662565023251
0.9485618562803477
0.9669653289396289
0.9804818139953351
0.9957378328697847
1.008952139891288
1.0224055949515063
1.03765144954158
1.050027256297875
1.0606929395280509
1.068690422097343
1.0755926985038433
1.0766948016061209
1.0776107534356645
1.0746257361573506
1.0723222062030457
1.065265880248911
1.0572617486806533
1.042860358610015
1.030457342864336
0.7250954141163393
0.8619271391682798
0.9074423440191974
0.9329909075984011
0.9528435059447933
0.9664386912470698
0.984125511822127
0.9992644329975438
1.011773947050374
1.0272289037257827
1.0425536006284548
1.0539003927505013
1.0633003081880135
1.0732629896227008
1.0798305707647722
1.0838485662099413
1.0862337114309384
1.0821854198384129
1.0794148790830345
1.0764406500927088
1.0657986642290551
1.0564081525108635
1.041678399068705
1.0277629472489709
0.821725259107795
0.8942543797994728
0.9281770936155257
0.951892602343737
0.9708267432344299
0.9865681876178628
1.000889432011654
1.014678721008233
1.027424787580068
1.0433745796916316
1.05793442086597
1.0707662031117275
1.0782134844836884
1.0849585572806888
1.0892514039565615
1.0909861675246433
1.0919410786474717
1.0865166061890805
1.0833460630080627
1.0745917904220181
1.0660577744161799
1.0540253352048077
1.0405475068346592
1.0242394014743899
0.08314641160964524
0.1714244194642701
0.25910581198622384
0.3005455168652959
0.3702417802413603
0.4498388554293948
0.1198256591947549
0.20632017842407235
0.2813361321784512
0.3183195602493232
0.37842717092691436
0.4383480976276855
0.1377580088712232
0.21657611855592535
0.2823607525102395
0.319287405889286
0.3812147829507817
0.4546188471315405
0.1528892640023262
0.22266295886467108
0.279542799379578
0.31783089328934216
0.3851763398679339
0.47006774078344227
0.1687597407681063
0.2269024150954304
0.2766575770480864
0.31645223242877907
0.38836023987696927
0.4806247344853412
0.18283889156709343
0.2310002462369991
0.27265522533967873
0.3141547262759409
0.388896447519813
0.4824585741351108
0.19640028799218745
0.2332594944074782
0.26915412756580676
0.31252734987240666
0.3878791311643293
0.48205771080913873
0.20776468426994543
0.2348927217170317
0.2666067623361406
0.311040623714061
0.38520968020554713
0.47935848341479853
0.2166515562660112
0.23599402905230993
0.264134906843506
0.3092532683786346
0.38265161893702304
0.47225699569197593
0.22410429788202504
0.23725917225889886
0.26215708624584605
0.30663748463771096
0.3799956364373867
0.4681976933011535
0.22976952836944778
0.2380346746765921
0.26207798678251515
0.3051190018546287
0.37661694761396214
0.4642251450381942
0.23247834431325534
0.23843794397208148
0.2629349852711
0.3056998242347568
0.3756296203039682
0.4620547392587103
0.23227942437207566
0.23998244135989227
0.2650811579511019
0.3085341804286522
0.3775477898095827
0.4629764043264453
0.2300052078549731
0.2401752689865489
0.2673592669627724
0.3121344128355299
0.3826021718715453
0.4667134395740887
0.2249659999098524
0.2394177186160573
0.2696660298030137
0.3162983063561869
0.38701501622734025
0.4715942035295198
0.21784944033930811
0.23955039417076684
0.2732571255203102
0.3208749947934495
0.3918048773385923
0.4757038271318167
0.20870302863794324
0.23911343845301042
0.2768802099271861
0.3241311659434023
0.3943797252006537
0.48045120137806435
0.19764493384307083
0.23758095958392705
0.2790036351586587
0.3270795424249755
0.39738508604317085