/*--------------------------------*- C++ -*----------------------------------*\
  =========                 |
  \\      /  F ield         | OpenFOAM: The Open Source CFD Toolbox
   \\    /   O peration     | Website:  https://openfoam.org
    \\  /    A nd           | Version:  11
     \\/     M anipulation  |
\*---------------------------------------------------------------------------*/
FoamFile
{
    format      ascii;
    class       volScalarField;
    location    "1.48";
    object      epsilon;
}
// * * * * * * * * * * * * * * * * * * * * * * * * * * * * * * * * * * * * * //

dimensions      [0 2 -3 0 0 0 0];

internalField   nonuniform List<scalar> 
2880
(
1.67935
2.41732
4.86374
6.25322
6.42352
6.18743
0.767814
1.7262
2.83862
3.30196
3.31091
2.81211
0.219611
1.48503
2.07305
2.2637
2.2271
1.93005
0.248392
1.32896
1.6932
1.78055
1.73698
1.57176
0.268324
1.20616
1.45748
1.50548
1.47636
1.39759
1.18638
1.11636
1.29491
1.33062
1.32263
1.30478
1.28249
1.04387
1.17496
1.21115
1.22471
1.24666
1.36994
0.986124
1.08303
1.12347
1.1559
1.20697
1.43579
0.940418
1.01022
1.05492
1.10284
1.17551
1.47892
0.903991
0.950983
0.998524
1.05792
1.14627
1.49942
0.874603
0.90214
0.949986
1.01671
1.11587
1.49849
0.851298
0.861487
0.906631
0.97676
1.08286
1.47896
0.834728
0.827538
0.866757
0.936883
1.04748
1.44827
0.825077
0.798843
0.829632
0.896792
1.01145
1.40437
0.818295
0.773847
0.795092
0.856814
0.977852
1.34522
0.809744
0.750799
0.762923
0.818412
0.951931
1.26475
0.790558
0.727656
0.732934
0.78365
0.93925
1.19015
0.742329
0.702715
0.705326
0.754437
0.946875
0.274844
0.651477
0.676512
0.681906
0.73331
0.983187
0.265177
0.592308
0.658874
0.668172
0.724489
1.05955
0.250089
0.571267
0.66283
0.67503
0.735052
1.17307
0.229296
0.611125
0.711505
0.727616
0.782309
1.30376
0.864438
0.865542
0.917542
0.934904
0.943689
1.51977
2.14511
2.17469
2.08734
2.01926
1.6991
1.70808
1.8595
1.50418
1.51094
1.63249
1.75972
1.86083
1.92438
1.95413
1.95525
1.92957
1.8829
1.82133
1.7504
1.67461
1.59755
1.52218
1.45065
1.38448
1.32463
1.27145
1.2246
1.18373
1.14936
1.12612
1.60973
1.40159
1.4208
1.52993
1.64042
1.71736
1.75434
1.76183
1.73842
1.69159
1.62961
1.55929
1.48592
1.41345
1.34465
1.2815
1.22544
1.17732
1.13753
1.10608
1.08265
1.06621
1.05534
1.05076
1.45996
1.34981
1.3931
1.50696
1.62043
1.69598
1.72911
1.73104
1.69929
1.64408
1.57471
1.49856
1.42114
1.34631
1.27666
1.21375
1.15847
1.11128
1.07212
1.04053
1.01564
0.996378
0.981886
0.972097
1.37554
1.33475
1.41193
1.55247
1.69261
1.79202
1.83923
1.8484
1.81823
1.75998
1.68486
1.6016
1.51648
1.43373
1.35607
1.28511
1.22163
1.16586
1.11766
1.07665
1.04233
1.01429
0.992345
0.975993
1.33119
1.3484
1.4735
1.66066
1.8497
1.99685
2.07817
2.10708
2.09044
2.0381
1.96313
1.87648
1.78562
1.69539
1.6088
1.52753
1.45243
1.38379
1.32162
1.2658
1.21636
1.17375
1.1384
1.10964
1.30967
1.38544
1.56613
1.81715
2.07446
2.28202
2.40754
2.46018
2.45814
2.41127
2.33351
2.24109
2.14348
2.04623
1.9525
1.86388
1.78105
1.70402
1.63268
1.56687
1.50666
1.45273
1.40531
1.36131
1.30348
1.43503
1.67856
2.00741
2.34492
2.61293
2.77181
2.83354
2.80598
2.71611
2.60172
2.48066
2.36107
2.24718
2.14095
2.04288
1.95265
1.86957
1.79269
1.7212
1.65456
1.59298
1.53792
1.47948
1.30367
1.4887
1.80121
2.21932
2.63855
2.9414
3.08094
3.0518
2.946
2.81458
2.67303
2.5314
2.39631
2.27092
2.15625
2.05202
1.95717
1.8704
1.79036
1.71558
1.64531
1.57852
1.52047
1.44931
1.3039
1.54025
1.92905
2.44886
2.93399
3.20656
3.21141
3.10021
2.92274
2.71995
2.51758
2.32915
2.16002
2.01106
1.88083
1.76647
1.66502
1.57383
1.49056
1.41252
1.33944
1.26509
1.20637
1.1178
1.30016
1.58702
2.06699
2.7105
3.21126
3.35404
3.21949
2.92445
2.58955
2.27605
2.00172
1.76786
1.57162
1.40849
1.27199
1.15373
1.05046
0.958669
0.875964
0.799153
0.730021
0.658248
0.607045
0.522081
1.29059
1.63172
2.23729
3.03098
3.48826
3.39756
3.00813
2.47697
2.01445
1.63555
1.33324
1.08789
0.894864
0.743947
0.625179
0.532996
0.459632
0.399718
0.349815
0.307311
0.2713
0.23848
0.213832
0.182458
1.27614
1.68477
2.48897
3.45057
3.69443
3.34928
2.60955
1.97734
1.49649
1.13397
0.859323
0.661234
0.516885
0.410359
0.330833
0.270612
0.2243
0.188235
0.159684
0.136731
0.118106
0.102551
0.0905092
0.0794624
1.26125
1.76864
2.89402
3.91465
3.79836
3.08367
2.22531
1.61966
1.18693
0.872571
0.642416
0.476515
0.356844
0.270508
0.208438
0.163742
0.131081
0.106649
0.088129
0.0739504
0.0630428
0.0546541
0.0485341
0.0450857
1.25643
1.92895
3.52057
4.29007
3.83876
2.74914
1.93185
1.3726
0.976665
0.695606
0.498564
0.360394
0.263677
0.195801
0.147693
0.113223
0.0882937
0.0700919
0.0567068
0.0468477
0.0396982
0.034777
0.0318522
0.0313376
1.27671
2.24155
4.31787
4.52012
3.6617
2.45389
1.67718
1.142
0.772951
0.523763
0.357552
0.248486
0.176863
0.129211
0.0968768
0.0744123
0.058435
0.0468634
0.0384078
0.0322801
0.0280016
0.0252865
0.0241587
0.024736
1.34405
2.85413
4.99599
4.63076
3.29311
2.16026
1.41382
0.912905
0.589169
0.383297
0.253764
0.172001
0.119726
0.0857202
0.0631909
0.0480047
0.0376189
0.0304385
0.0254847
0.022174
0.0201512
0.0192369
0.0194165
0.0205702
1.49111
3.86014
5.38124
4.59524
2.94846
1.85864
1.15025
0.708556
0.440961
0.280484
0.183981
0.124745
0.0873175
0.0629726
0.046737
0.0357026
0.0281227
0.0229198
0.0194213
0.0172165
0.0160535
0.0158162
0.0162988
0.0177036
1.75652
5.09582
5.54243
4.24196
2.57733
1.53365
0.901034
0.533424
0.323432
0.203227
0.13263
0.0898345
0.0630876
0.0458857
0.0345265
0.0268535
0.0215915
0.017987
0.0155992
0.0141685
0.0135369
0.0136029
0.0142426
0.0156454
2.22827
6.12491
5.63777
3.76896
2.17101
1.21848
0.683481
0.393282
0.236051
0.148102
0.0969031
0.0659322
0.0465501
0.0340644
0.0258265
0.0202934
0.0165473
0.0140391
0.0124452
0.011577
0.011328
0.0115645
0.0123327
0.0136438
3.11991
6.6939
5.63365
3.28106
1.7635
0.931804
0.504923
0.287846
0.173154
0.109413
0.0722559
0.0496887
0.0354938
0.026292
0.0201773
0.0160439
0.0132379
0.0113702
0.0102117
0.00962839
0.0095439
0.00983863
0.0105982
0.0117462
4.72652
6.9788
5.28094
2.74546
1.36046
0.68752
0.368723
0.211113
0.128144
0.0818011
0.054603
0.0379735
0.0274464
0.0205812
0.0159932
0.0128755
0.0107503
0.00933494
0.00846525
0.0080474
0.0080286
0.00831962
0.00900441
0.0099921
7.28359
7.51237
4.74322
2.16163
1.00206
0.498025
0.268801
0.155919
0.0959188
0.0620102
0.0418962
0.0294796
0.0215495
0.0163353
0.0128245
0.0104225
0.00877517
0.00767194
0.00699132
0.00666565
0.00665801
0.00691056
0.00749163
0.00832963
10.0294
7.99391
3.6132
1.55304
0.710016
0.358203
0.197407
0.116579
0.0727963
0.0476884
0.0326155
0.0232121
0.0171481
0.0131246
0.0103917
0.0085048
0.00719665
0.00630732
0.00574459
0.00545856
0.00542357
0.0056106
0.00607031
0.0067681
13.4033
7.55752
2.79737
1.10694
0.504673
0.260635
0.146871
0.088296
0.0559652
0.0371449
0.0257019
0.0184827
0.0137804
0.0106314
0.00847293
0.00696736
0.00590891
0.00517275
0.00468611
0.00440995
0.00432608
0.00442779
0.00475435
0.00531784
2.6186
6.50614
9.17103
9.91064
10.3232
39.596
1.01261
3.30751
5.01304
6.43769
7.4674
11.5041
1.18617
2.69304
4.05876
5.38107
6.19716
6.47487
1.4152
2.49608
3.64621
4.73361
4.99314
4.49954
1.73028
2.41349
3.40176
4.19991
4.08362
3.25293
1.95878
2.37726
3.22997
3.76084
3.42731
2.42765
2.11671
2.35951
3.09967
3.42801
2.94593
1.92037
2.21946
2.34457
2.99813
3.1893
2.58831
1.60037
2.27868
2.32285
2.91686
3.0241
2.33242
1.38171
2.30145
2.28905
2.84948
2.91202
2.15117
1.22764
2.2925
2.24127
2.79148
2.83751
2.02852
1.11791
2.2537
2.18031
2.73983
2.78912
1.95677
1.04194
2.18598
2.10393
2.69563
2.77196
1.92389
0.9942
2.09071
2.01156
2.65736
2.77665
1.92793
0.970437
1.97066
1.90319
2.62203
2.80751
1.97049
0.968701
1.82829
1.77878
2.58379
2.85984
2.05488
0.98899
1.66641
1.63788
2.53386
2.93001
2.18673
1.03341
1.47996
1.47933
2.45992
3.01302
2.3741
1.10612
1.26182
1.2997
2.34692
3.10087
2.62778
1.21612
0.278459
1.09316
2.17898
3.18112
2.96102
1.38166
0.261653
0.925955
1.93997
3.22396
3.38242
1.64209
0.238692
0.817385
1.6439
3.19398
3.88944
2.08215
0.89768
0.881491
1.42223
3.00145
4.51079
2.88613
2.18341
1.69644
1.97379
3.04191
5.15185
4.87498
16.7284
4.72459
1.65106
0.711099
0.353002
0.191195
0.110656
0.0677647
0.0435906
0.0292931
0.0204843
0.0148635
0.0111656
0.00866656
0.00693803
0.00571941
0.00484924
0.00422728
0.00379308
0.00351272
0.00337012
0.00337013
0.00354931
0.00397177
6.76352
2.58572
1.10698
0.518782
0.262818
0.144283
0.0848546
0.0527763
0.034406
0.0233796
0.0164996
0.0120616
0.00911411
0.00710481
0.0057027
0.00470373
0.00397916
0.00344667
0.00305381
0.00276788
0.00256953
0.00245663
0.00247347
0.00272547
3.9389
1.73641
0.772837
0.368849
0.193326
0.109539
0.065911
0.0416708
0.0275052
0.0188741
0.013424
0.00987306
0.00749403
0.00585917
0.00470897
0.00388146
0.00327278
0.00281468
0.0024611
0.00217966
0.00194596
0.00174492
0.0015904
0.00159046
2.61029
1.18229
0.546273
0.272892
0.147555
0.0853281
0.0521471
0.0333887
0.0222671
0.015407
0.0110297
0.00815261
0.00621034
0.00486645
0.00391458
0.00322455
0.002712
0.00232063
0.00201145
0.00175558
0.00152914
0.00131287
0.00109879
0.000806614
1.78039
0.835803
0.402596
0.207258
0.114652
0.0675186
0.041866
0.0271152
0.018247
0.0127143
0.00915155
0.00679229
0.0051899
0.00407556
0.00328279
0.00270581
0.00227568
0.00194633
0.00168599
0.00147112
0.00128204
0.00110282
0.000924821
0.000693248
1.30566
0.624481
0.307697
0.16177
0.0910849
0.0544244
0.0341471
0.0223246
0.0151338
0.010605
0.00766652
0.00570923
0.0043739
0.00344219
0.00277781
0.00229359
0.00193247
0.00165629
0.00143868
0.00125992
0.001103
0.000954625
0.000810963
0.000636007
1.01157
0.485838
0.242504
0.129404
0.0738506
0.0446422
0.0282779
0.018627
0.0127001
0.00893825
0.00648293
0.0048403
0.00371626
0.0029305
0.00236967
0.00196086
0.00165613
0.00142334
0.00124025
0.00109016
0.000958646
0.000835365
0.000719554
0.000586907
0.820589
0.392026
0.196781
0.106013
0.0610821
0.0372514
0.0237702
0.0157468
0.0107814
0.00761085
0.00553246
0.00413796
0.00318215
0.00251358
0.00203651
0.00168905
0.00143041
0.00123319
0.00107848
0.000952083
0.000841874
0.000739919
0.000646967
0.000545725
0.689631
0.3263
0.16401
0.0888498
0.0515061
0.0316104
0.0202771
0.0134849
0.00925718
0.00654619
0.00476407
0.0035666
0.00274555
0.00217161
0.00176263
0.00146536
0.00124463
0.00107684
0.000945737
0.000839204
0.000747058
0.00066319
0.00058889
0.000511499
0.597511
0.279504
0.140288
0.0761097
0.0442539
0.0272686
0.0175494
0.0116961
0.00803855
0.00568712
0.00413939
0.00309933
0.0023869
0.00188981
0.00153653
0.00128059
0.0010913
0.000948071
0.000836807
0.000747074
0.000670265
0.000601596
0.000542366
0.000483217
0.532303
0.246252
0.122892
0.066565
0.0387241
0.0239061
0.015407
0.0102737
0.0070592
0.00499062
0.00362931
0.00271567
0.00209123
0.0016569
0.00134945
0.00112777
0.000964722
0.000842146
0.000747662
0.000672181
0.000608359
0.000552346
0.000505185
0.000459985
0.487247
0.222273
0.110072
0.0594018
0.0344962
0.0212933
0.0137182
0.00913842
0.00626935
0.00442401
0.0032115
0.00239978
0.00184692
0.00146408
0.00119451
0.00100138
0.000860353
0.000755223
0.000674969
0.000611573
0.000558688
0.000513112
0.000475543
0.000440998
0.456679
0.205285
0.100727
0.0540588
0.0312722
0.019264
0.0123862
0.00823134
0.00563135
0.00396229
0.00286869
0.0021393
0.00164482
0.00130432
0.00106619
0.000896918
0.000774445
0.000684087
0.000615904
0.000562726
0.000518996
0.00048196
0.000451979
0.00042557
0.437845
0.193819
0.0941066
0.0501437
0.0288403
0.0176978
0.0113397
0.00750815
0.00511656
0.00358616
0.00258739
0.00192445
0.0014776
0.00117199
0.000959983
0.000810708
0.000703883
0.000626037
0.000568078
0.000523507
0.000487399
0.000457312
0.000433327
0.000413132
0.428923
0.186923
0.0897069
0.0473837
0.0270512
0.016507
0.0105257
0.00693553
0.0047031
0.00328068
0.00235701
0.00174748
0.00133939
0.0010625
0.000872204
0.000739689
0.000646062
0.0005788
0.000529475
0.000492123
0.000462332
0.000437887
0.000418653
0.000403214
0.429021
0.183985
0.0872043
0.0455917
0.025803
0.0156285
0.00990518
0.00648844
0.00437422
0.00303422
0.00216921
0.00160219
0.00122546
0.000972109
0.000799816
0.000681323
0.000598805
0.000540467
0.000498403
0.000467084
0.000442518
0.000422659
0.000407214
0.000395419
0.438551
0.184508
0.0864095
0.0446517
0.0250215
0.0150173
0.00944979
0.00614817
0.00411718
0.00283779
0.00201743
0.00148365
0.00113197
0.000897761
0.000740313
0.000633506
0.000560299
0.000509451
0.00047346
0.00044716
0.000426914
0.00041081
0.000398417
0.000389411
0.457783
0.189096
0.087055
0.0444986
0.0246562
0.0146425
0.00913904
0.00590086
0.00392232
0.00268447
0.00189652
0.00138792
0.00105583
0.00083696
0.00069163
0.000594488
0.00052904
0.000484437
0.000453492
0.000431346
0.000414674
0.000401673
0.00039178
0.000384905
0.487891
0.197595
0.0895941
0.0450395
0.0246731
0.0144837
0.00895875
0.00573651
0.00378252
0.00256901
0.00180253
0.00131193
0.000994585
0.000787683
0.000652066
0.000562818
0.000503774
0.00046434
0.000437557
0.000418823
0.000405087
0.000394671
0.00038688
0.000381644
0.531182
0.210433
0.0938496
0.0464477
0.0250451
0.0145203
0.00889947
0.0056482
0.00369267
0.00248759
0.0017325
0.00125334
0.000946324
0.000748332
0.00062025
0.000537299
0.000483456
0.000448252
0.000424878
0.000408921
0.000397557
0.000389245
0.000383296
0.00037932
0.590997
0.228247
0.0999766
0.0486533
0.0258456
0.0147433
0.008946
0.00563136
0.00364928
0.00243757
0.00168437
0.00121048
0.000909659
0.000717722
0.000595144
0.000517011
0.000467265
0.000435458
0.00041485
0.000401159
0.000391723
0.000385082
0.000380578
0.000377622
0.671998
0.251725
0.108097
0.0516646
0.0270259
0.0152
0.00910033
0.00567548
0.00364995
0.0024174
0.00165681
0.00118225
0.000883677
0.000695064
0.00057605
0.000501327
0.000454641
0.000425457
0.000407037
0.000395173
0.000387304
0.000382002
0.000378577
0.000376469
0.779207
0.28107
0.118126
0.0554444
0.0285676
0.0158635
0.00938414
0.00578845
0.00368816
0.00242486
0.00164916
0.00116807
0.000867855
0.000679876
0.000562527
0.000489838
0.000445204
0.000417897
0.000401108
0.000390649
0.000384011
0.00037978
0.00037721
0.000375762
0.887114
0.312428
0.129394
0.0598304
0.0304362
0.0167171
0.00978459
0.00598114
0.00377405
0.00245795
0.00165956
0.00116778
0.000862007
0.000671911
0.000554307
0.00048226
0.000438671
0.000412507
0.000396811
0.000387349
0.000381625
0.000378213
0.000376308
0.000375351
2.37302
5.43212
7.93226
7.94234
6.78527
5.46594
0.885319
3.73434
4.63672
4.35737
3.44783
2.24795
1.22335
3.13134
3.46367
3.04952
2.32832
1.55042
1.71472
2.83212
2.91941
2.46143
1.86362
1.29624
2.17894
2.64503
2.60052
2.15156
1.64269
1.18646
2.60286
2.51361
2.39401
1.97924
1.53725
1.14382
2.96787
2.41793
2.25742
1.88613
1.49663
1.14087
3.26772
2.35195
2.16907
1.84402
1.49786
1.16543
3.50223
2.30826
2.11644
1.83798
1.52848
1.21593
3.67385
2.28209
2.09162
1.85575
1.5865
1.29043
3.78531
2.27035
2.08993
1.89893
1.66824
1.38982
3.83916
2.27128
2.10436
1.96139
1.77289
1.51619
3.84487
2.28732
2.13723
2.04106
1.90034
1.67254
3.82555
2.32147
2.18389
2.1357
2.05047
1.8624
3.7719
2.36691
2.24124
2.2421
2.22228
2.0894
3.67531
2.41484
2.3055
2.35581
2.41408
2.35473
3.52702
2.4538
2.37039
2.47087
2.62299
2.66043
3.31738
2.46915
2.42766
2.58118
2.84155
3.0153
3.03484
2.45213
2.46734
2.68381
3.06216
3.42738
2.66736
2.39272
2.48633
2.78284
3.27916
3.91935
2.20723
2.27133
2.5117
2.89973
3.50282
4.58288
1.65985
2.14323
2.61982
3.11407
3.82437
5.79279
1.17186
2.26201
3.11366
3.73972
4.54254
9.15643
3.26254
4.34879
6.06341
6.76046
7.2707
30.8826
0.944441
0.336694
0.139961
0.0644972
0.0325684
0.0177464
0.0102985
0.0062474
0.003912
0.00252636
0.00169035
0.00117983
0.000865526
0.000671125
0.000551312
0.000478437
0.000434863
0.000409102
0.000393963
0.000385101
0.000379977
0.000377146
0.000375751
0.000375134
0.843051
0.346155
0.148686
0.0691718
0.0349124
0.0189456
0.0109307
0.00658998
0.00409962
0.00262941
0.00174632
0.0012092
0.0008798
0.000677234
0.000553297
0.000478366
0.000433747
0.000407615
0.000392476
0.000383804
0.000378969
0.000376526
0.000375429
0.000375042
0.773934
0.349057
0.15614
0.073877
0.0374782
0.0203273
0.0116922
0.00701695
0.00434224
0.00276858
0.00182661
0.00125565
0.000906558
0.000692374
0.000561468
0.000482406
0.000435491
0.000408148
0.000392441
0.000383551
0.000378714
0.000376339
0.000375326
0.000375014
0.739079
0.352033
0.163548
0.0788739
0.0403452
0.0219276
0.012603
0.00754082
0.00464794
0.00294933
0.00193474
0.00132098
0.000946295
0.000716541
0.000576017
0.000490991
0.000440423
0.000410902
0.000393937
0.000384343
0.00037911
0.000376526
0.000375411
0.000375045
0.72668
0.359065
0.172075
0.0845448
0.0436501
0.0238064
0.0136932
0.00817938
0.0050279
0.0031789
0.00207546
0.00140842
0.00100125
0.000751327
0.000598051
0.000504858
0.000449064
0.000416253
0.000397259
0.000386415
0.000380346
0.000377217
0.000375772
0.000375186
0.73081
0.37235
0.182888
0.0913334
0.0475735
0.026047
0.0150048
0.00895669
0.00549694
0.00346681
0.00225505
0.00152219
0.00107433
0.000798782
0.000629033
0.00052507
0.000462194
0.000424762
0.000402789
0.000390012
0.000382638
0.000378529
0.000376496
0.000375568
0.750266
0.393772
0.197066
0.099732
0.0523378
0.0287612
0.0165933
0.00990443
0.00607437
0.00382539
0.00248166
0.00166779
0.00116935
0.000861591
0.000670903
0.000553062
0.000480884
0.000437224
0.000411111
0.000395565
0.000386265
0.000380756
0.000377783
0.000376301
0.785878
0.424429
0.2157
0.110316
0.0582237
0.0320923
0.0185318
0.0110638
0.00678506
0.00427044
0.00276569
0.0018523
0.0012912
0.000943229
0.000726183
0.000590703
0.000506541
0.000454702
0.000423023
0.000403669
0.000391683
0.00038423
0.000379882
0.00037753
0.839219
0.466075
0.240155
0.12382
0.065601
0.0362175
0.0209154
0.0124881
0.00766104
0.00482217
0.00312046
0.00208475
0.00144617
0.00104818
0.000798135
0.000640424
0.000541011
0.000478613
0.000439616
0.000415162
0.000399517
0.000389346
0.000383002
0.000379382
0.912576
0.521082
0.272378
0.141225
0.0749586
0.0413771
0.02387
0.0142474
0.0087436
0.00550647
0.00356293
0.00237669
0.00164237
0.00118224
0.000891023
0.000705432
0.000586762
0.000510878
0.000462376
0.000431158
0.00041054
0.000396595
0.000387501
0.000382078
1.0092
0.592826
0.314851
0.163868
0.0869645
0.0479001
0.0275646
0.0164337
0.0100864
0.00635658
0.00411484
0.00274291
0.00189021
0.00135296
0.00101044
0.000789967
0.000647073
0.000554058
0.000493282
0.000453135
0.000425818
0.000406754
0.000393971
0.000385975
1.13346
0.685945
0.370775
0.193592
0.102549
0.0562437
0.0322295
0.0191698
0.0117597
0.00741544
0.00480399
0.00320231
0.00220301
0.00157003
0.00116361
0.00089953
0.0007262
0.000611484
0.000534946
0.000483121
0.00044689
0.000420933
0.00040311
0.000391429
1.29097
0.806412
0.444519
0.233039
0.123028
0.0670521
0.0381829
0.022622
0.0138566
0.00873889
0.00566605
0.00377894
0.00259772
0.0018458
0.00135977
0.00104117
0.000829614
0.000687459
0.000590775
0.000523798
0.000475804
0.000440581
0.000415813
0.000398849
1.48867
0.961861
0.542019
0.285909
0.150277
0.081246
0.0458713
0.0270184
0.0165017
0.0104001
0.00674701
0.00450344
0.00309579
0.00219587
0.00161062
0.00122386
0.000964321
0.000787532
0.000665206
0.000578698
0.000515283
0.000467641
0.000433287
0.000408762
1.73494
1.16189
0.671207
0.357258
0.186961
0.100144
0.0559283
0.0326763
0.0198644
0.0124963
0.0081066
0.00541499
0.00372434
0.00263988
0.00193088
0.00145894
0.00113924
0.000918827
0.000763972
0.000652423
0.000568925
0.000504734
0.000457193
0.000421873
2.03968
1.41826
0.84221
0.453975
0.236885
0.125617
0.0692623
0.0400438
0.0241782
0.0151578
0.00982318
0.00656393
0.00451772
0.00320249
0.00233901
0.00176067
0.00136565
0.00109041
0.000894434
0.000750933
0.000641447
0.000555364
0.000489794
0.000439121
2.41136
1.74509
1.06737
0.585039
0.305405
0.160356
0.0871877
0.0497599
0.0297691
0.0185626
0.012001
0.00801576
0.00551977
0.00391474
0.00285802
0.0021468
0.00165765
0.0013137
0.00106596
0.000881896
0.000738993
0.000624173
0.000534143
0.000461768
2.85275
2.15966
1.36072
0.761558
0.399699
0.208152
0.111607
0.0627424
0.0370981
0.0229567
0.0147809
0.00985681
0.00678705
0.00481593
0.00351673
0.00263938
0.00203273
0.00160297
0.00129033
0.00105509
0.000869524
0.000717271
0.000594329
0.000491473
3.37264
2.67692
1.73628
0.996057
0.528853
0.274267
0.145165
0.0803043
0.0468225
0.0286854
0.018356
0.0122029
0.00839365
0.00595652
0.00435145
0.00326588
0.00251256
0.00197585
0.00158227
0.00128288
0.00104329
0.000842701
0.000675823
0.000530381
3.9965
3.30758
2.20491
1.30058
0.703274
0.365602
0.191557
0.104323
0.0598838
0.0362378
0.0229956
0.0152119
0.0104386
0.00740249
0.00540874
0.00406092
0.00312407
0.00245416
0.00195997
0.00158073
0.00127339
0.00101105
0.000786
0.000581216
4.79284
4.06048
2.77127
1.68334
0.933049
0.490308
0.255729
0.137418
0.0776206
0.0463098
0.0290788
0.0191033
0.0130568
0.00924212
0.00674975
0.00506912
0.00390143
0.00306521
0.00244608
0.00196798
0.00157654
0.00123631
0.000934988
0.000647438
5.95275
4.97865
3.43552
2.14526
1.22499
0.656497
0.343765
0.183104
0.101906
0.0598889
0.0371429
0.024185
0.0164358
0.0115965
0.00845723
0.00635006
0.00488963
0.00384443
0.00306965
0.00246927
0.00197426
0.00153724
0.00113717
0.000733618
8.39128
6.12196
4.20309
2.68148
1.58006
0.870292
0.462046
0.245796
0.135284
0.0783607
0.0479497
0.0308935
0.0208396
0.0146352
0.0106465
0.00798659
0.00615117
0.00484107
0.00387087
0.0031185
0.00249617
0.00194046
0.00141444
0.000846492
15.4636
8.34471
5.21245
3.30355
1.9965
1.13445
0.616176
0.330467
0.181011
0.103617
0.0625681
0.0398462
0.0266423
0.0185982
0.0134815
0.0100976
0.00777747
0.00612905
0.00491201
0.00396966
0.00319039
0.00249066
0.0018075
0.00100296
2.99214
3.84279
4.45984
3.96838
3.07326
2.70895
1.09436
1.9856
2.32018
2.26029
1.95001
2.27242
1.48498
1.87702
2.06193
2.00842
1.81531
2.0758
1.96478
1.99543
2.05949
1.99298
1.84321
2.03261
2.38508
2.13451
2.12828
2.05329
1.94243
2.07469
2.74723
2.24665
2.20728
2.14292
2.07553
2.17852
3.05632
2.326
2.27978
2.24473
2.22407
2.32437
3.31705
2.37865
2.34483
2.34893
2.37555
2.4979
3.53339
2.41322
2.4036
2.44953
2.52468
2.68353
3.70958
2.43779
2.45653
2.54454
2.66539
2.86495
3.85116
2.45897
2.505
2.62991
2.78908
3.02703
3.95123
2.47783
2.54941
2.70282
2.88888
3.15466
3.98402
2.49218
2.58989
2.76218
2.9604
3.23717
3.95752
2.50216
2.62724
2.80845
3.00234
3.2645
3.86007
2.50804
2.66312
2.84382
3.01648
3.25108
3.69221
2.51038
2.69997
2.87285
3.01293
3.19458
3.45378
2.51058
2.7412
2.9024
3.00047
3.10757
3.14546
2.51114
2.79178
2.94155
2.99423
3.0083
2.77039
2.51609
2.85586
3.00358
3.01757
2.92248
2.33649
2.52975
2.94225
3.11297
3.11363
2.88577
1.85491
2.56217
3.07361
3.3054
3.33031
2.97949
1.33961
2.64563
3.30563
3.65978
3.7803
3.41928
0.978177
2.95842
3.8758
4.40813
4.71649
4.73235
2.33612
4.81599
6.2797
6.7836
6.56448
6.16427
12.108
9.20329
6.04595
3.92426
2.44971
1.44355
0.808914
0.441858
0.242934
0.138131
0.0824656
0.0519092
0.0343718
0.0238248
0.0171947
0.0128542
0.00990386
0.00782371
0.00629837
0.00512476
0.00416042
0.00329539
0.00242544
0.00132183
8.35187
8.57179
6.69221
4.48885
2.90656
1.78415
1.03852
0.583315
0.325075
0.184934
0.109587
0.068271
0.0447607
0.0307848
0.0221047
0.016488
0.0127137
0.0100853
0.00818789
0.00676123
0.0056302
0.0046725
0.00385787
0.0034281
5.48062
7.52912
6.6455
4.84182
3.30964
2.13295
1.29776
0.755691
0.431008
0.247454
0.146391
0.0905152
0.0588017
0.0401081
0.0286244
0.0212819
0.0164129
0.0130802
0.0107414
0.00907536
0.00788831
0.0070752
0.00666122
0.00684174
3.82542
6.66468
6.39194
5.12237
3.65456
2.4689
1.57467
0.956162
0.56285
0.329073
0.195767
0.120666
0.0778082
0.0526281
0.0372839
0.0275765
0.0212231
0.0169547
0.0140526
0.0121066
0.0108816
0.010257
0.0102212
0.0107312
3.18071
5.94968
5.92504
5.16338
3.89857
2.76871
1.85466
1.17853
0.720542
0.432522
0.260805
0.161181
0.103479
0.0694552
0.0487966
0.0358321
0.0274476
0.0219144
0.0182615
0.0159361
0.0146151
0.0141108
0.0143107
0.015023
2.98708
5.33555
5.53582
5.08533
4.05702
3.01648
2.12014
1.41227
0.900731
0.558951
0.344307
0.214808
0.137927
0.0920526
0.0641339
0.0466871
0.0355076
0.0282378
0.023545
0.0206594
0.0191155
0.0186198
0.0189424
0.0197934
2.95662
4.87713
5.27304
4.94378
4.12782
3.20371
2.3568
1.64514
1.09682
0.707068
0.448032
0.284228
0.183598
0.122281
0.0846006
0.0610259
0.0459941
0.0363127
0.0301452
0.0264109
0.0244408
0.0238047
0.0241519
0.0250859
3.02009
4.5846
5.13236
4.82476
4.12072
3.32215
2.55044
1.86283
1.29901
0.872594
0.571904
0.371479
0.243022
0.162358
0.111887
0.0800513
0.0597326
0.0466895
0.0384151
0.0334037
0.0307099
0.0297279
0.0299903
0.0309378
3.14488
4.42663
5.08821
4.81117
4.11815
3.39107
2.69635
2.05283
1.49537
1.04791
0.713115
0.477119
0.318302
0.214665
0.148048
0.105338
0.0778538
0.0601463
0.0488702
0.041965
0.0381213
0.0365024
0.036535
0.0373966
3.30212
4.36872
5.10024
4.86353
4.16247
3.44097
2.80154
2.2089
1.67528
1.22369
0.866108
0.599463
0.410363
0.28128
0.195328
0.138821
0.101853
0.0777644
0.0622566
0.0525897
0.0469927
0.044327
0.043849
0.0445606
3.46615
4.37611
5.13533
4.99876
4.31008
3.51707
2.88592
2.33298
1.83124
1.39008
1.0232
0.734345
0.51827
0.363358
0.255784
0.18266
0.133599
0.101004
0.0796394
0.066013
0.0578067
0.0534948
0.0521085
0.0525387
3.60561
4.41698
5.18036
5.16147
4.57249
3.66979
2.98509
2.43969
1.96408
1.54073
1.17575
0.875645
0.639053
0.460604
0.330803
0.238958
0.175254
0.131744
0.1025
0.0833207
0.0713108
0.0644916
0.0616056
0.061518
3.69282
4.45067
5.20097
5.32448
4.90111
3.93852
3.14569
2.55805
2.08486
1.67613
1.319
1.01591
0.767564
0.570701
0.420409
0.309212
0.228963
0.172197
0.132792
0.106075
0.088648
0.0781092
0.0728858
0.0717624
3.71099
4.43941
5.17711
5.4537
5.18724
4.33595
3.42051
2.73479
2.22146
1.8074
1.45482
1.15205
0.897703
0.689228
0.522628
0.393569
0.29627
0.224579
0.172851
0.136383
0.111513
0.0955719
0.086738
0.0838192
3.66406
4.35853
5.0879
5.49666
5.38989
4.76367
3.82133
3.02303
2.42159
1.96381
1.59596
1.28845
1.0291
0.812373
0.634124
0.490447
0.377416
0.290483
0.22502
0.1768
0.142288
0.118785
0.104508
0.0985646
3.5462
4.19281
4.90983
5.41481
5.47154
5.10228
4.28018
3.43649
2.73601
2.19505
1.77674
1.44309
1.16969
0.942815
0.754074
0.598334
0.47172
0.370548
0.29114
0.22998
0.18395
0.150578
0.12841
0.11749
3.36698
3.94055
4.62907
5.18837
5.4126
5.24448
4.67889
3.90591
3.16637
2.54265
2.04604
1.65564
1.34567
1.09526
0.889882
0.720245
0.580314
0.465695
0.372784
0.298421
0.239829
0.194751
0.161988
0.143115
3.14347
3.61326
4.24623
4.82821
5.17334
5.18555
4.88504
4.29563
3.62554
2.98375
2.42628
1.96738
1.59861
1.30339
1.06533
0.871511
0.712534
0.581682
0.474029
0.385794
0.313966
0.256117
0.210637
0.179752
2.90018
3.23497
3.78562
4.3506
4.76172
4.9332
4.83165
4.4841
3.97129
3.4067
2.85844
2.36684
1.94751
1.59967
1.3148
1.08232
0.892271
0.736347
0.607946
0.501928
0.41434
0.342055
0.282623
0.234946
2.66633
2.8381
3.28353
3.79189
4.22376
4.48621
4.54661
4.40676
4.0855
3.66721
3.20842
2.75452
2.33435
1.96211
1.6416
1.37054
1.14364
0.954664
0.797526
0.666746
0.557821
0.466677
0.391533
0.322012
2.45704
2.45881
2.78596
3.21006
3.60893
3.90876
4.06424
4.0668
3.93245
3.67095
3.34452
2.9887
2.62947
2.28666
1.97202
1.691
1.44478
1.23187
1.04935
0.893531
0.761144
0.647707
0.554999
0.460645
2.28424
2.1308
2.33654
2.66329
2.99465
3.27447
3.46196
3.54419
3.52137
3.40599
3.21239
2.97266
2.71
2.4411
2.17845
1.93068
1.70264
1.49679
1.31342
1.1506
1.00722
0.879738
0.774153
0.663079
2.17899
1.86419
1.96669
2.20146
2.45128
2.67345
2.84175
2.9387
2.9687
2.93313
2.83859
2.70005
2.53404
2.35232
2.16473
1.97861
1.79965
1.63164
1.47754
1.33922
1.2157
1.10443
1.00746
0.907015
2.09668
1.65931
1.69144
1.854
2.02982
2.18474
2.3024
2.3737
2.40353
2.39164
2.34291
2.2645
2.16575
2.05387
1.93507
1.8144
1.69566
1.58149
1.47353
1.37326
1.28291
1.20386
1.13921
1.08709
)
;

boundaryField
{
    rotor
    {
        type            epsilonWallFunction;
        value           nonuniform List<scalar> 
144
(
1.67935
2.41732
4.86374
6.25322
6.42352
6.18743
1.67935
0.767814
0.219611
0.248392
0.268324
1.18638
1.28249
1.36994
1.43579
1.47892
1.49942
1.49849
1.47896
1.44827
1.40437
1.34522
1.26475
1.19015
0.274844
0.265177
0.250089
0.229296
0.864438
2.14511
2.14511
2.17469
2.08734
2.01926
1.6991
1.70808
2.6186
6.50614
9.17103
9.91064
10.3232
39.596
2.6186
1.01261
1.18617
1.4152
1.73028
1.95878
2.11671
2.21946
2.27868
2.30145
2.2925
2.2537
2.18598
2.09071
1.97066
1.82829
1.66641
1.47996
1.26182
0.278459
0.261653
0.238692
0.89768
2.18341
2.18341
1.69644
1.97379
3.04191
5.15185
4.87498
2.37302
5.43212
7.93226
7.94234
6.78527
5.46594
2.37302
0.885319
1.22335
1.71472
2.17894
2.60286
2.96787
3.26772
3.50223
3.67385
3.78531
3.83916
3.84487
3.82555
3.7719
3.67531
3.52702
3.31738
3.03484
2.66736
2.20723
1.65985
1.17186
3.26254
3.26254
4.34879
6.06341
6.76046
7.2707
30.8826
2.99214
3.84279
4.45984
3.96838
3.07326
2.70895
2.99214
1.09436
1.48498
1.96478
2.38508
2.74723
3.05632
3.31705
3.53339
3.70958
3.85116
3.95123
3.98402
3.95752
3.86007
3.69221
3.45378
3.14546
2.77039
2.33649
1.85491
1.33961
0.978177
2.33612
2.33612
4.81599
6.2797
6.7836
6.56448
6.16427
)
;
    }
    freestream
    {
        type            inletOutlet;
        inletValue      uniform 0.000375;
        value           nonuniform List<scalar> 
96
(
1.12612
1.05076
0.972097
0.975993
1.10964
1.36131
1.47948
1.44931
1.1178
0.522081
0.182458
0.0794624
0.0450857
0.0313376
0.024736
0.0205702
0.0177036
0.0156454
0.0136438
0.0117462
0.0099921
0.00832963
0.0067681
0.00531784
0.00397177
0.00272547
0.00159046
0.000375
0.000375
0.000375
0.000375
0.000375
0.000375
0.000375
0.000375
0.000375
0.000375
0.000375
0.000375
0.000375
0.000375
0.000375
0.000375
0.000375
0.000375
0.000375
0.000375
0.000375
0.000375
0.000375
0.000375
0.000375
0.000375
0.000375
0.000375
0.000375
0.000375
0.000375
0.000375
0.000375
0.000375
0.000375
0.000375
0.000375
0.000375
0.000375
0.000375
0.000375
0.000375
0.000375
0.000375
0.000375
0.000375
0.0034281
0.00684174
0.0107312
0.015023
0.0197934
0.0250859
0.0309378
0.0373966
0.0445606
0.0525387
0.061518
0.0717624
0.0838192
0.0985646
0.11749
0.143115
0.179752
0.234946
0.322012
0.460645
0.663079
0.907015
1.08709
)
;
    }
    frontAndBack
    {
        type            empty;
    }
}


// ************************************************************************* //
