/*--------------------------------*- C++ -*----------------------------------*\
  =========                 |
  \\      /  F ield         | OpenFOAM: The Open Source CFD Toolbox
   \\    /   O peration     | Website:  https://openfoam.org
    \\  /    A nd           | Version:  11
     \\/     M anipulation  |
\*---------------------------------------------------------------------------*/
FoamFile
{
    format      ascii;
    class       volScalarField;
    location    "1.48";
    object      k;
}
// * * * * * * * * * * * * * * * * * * * * * * * * * * * * * * * * * * * * * //

dimensions      [0 2 -2 0 0 0 0];

internalField   nonuniform List<scalar> 
2880
(
0.00360431
0.01006
0.0333166
0.0637024
0.0911269
0.116751
0.0147821
0.0233364
0.0497852
0.0777333
0.101458
0.122419
0.0195052
0.0349834
0.0613446
0.0857923
0.106201
0.123095
0.0220574
0.0427897
0.0680543
0.0898635
0.10774
0.121907
0.0238104
0.048158
0.0720561
0.0918366
0.107761
0.120077
0.0249358
0.0520101
0.0743737
0.092534
0.106947
0.117949
0.0263191
0.0545902
0.0755635
0.0923894
0.105563
0.115547
0.0274922
0.0562135
0.0759447
0.0915998
0.103736
0.112862
0.0283646
0.0570936
0.0757547
0.0903188
0.101529
0.109886
0.0289298
0.0573702
0.0750603
0.0886348
0.098987
0.10663
0.0291963
0.0571662
0.0739767
0.0866129
0.0961514
0.103133
0.029184
0.0565011
0.0725568
0.0843008
0.0930625
0.0994541
0.0289302
0.0554093
0.0708298
0.0817315
0.0897583
0.0956656
0.0285289
0.0538885
0.0688043
0.0789242
0.0862705
0.0918438
0.0279499
0.0519447
0.0664726
0.0758838
0.0826223
0.0880605
0.0271597
0.0495464
0.0638144
0.0726045
0.0788257
0.0843739
0.0260052
0.046643
0.0608085
0.0690767
0.0748794
0.0808361
0.0250499
0.0433259
0.0574639
0.0652927
0.0707654
0.0775557
0.0244468
0.0400303
0.0538318
0.0612413
0.0664355
0.0745679
0.0235519
0.0369354
0.0499232
0.0568773
0.0618013
0.0715052
0.0222066
0.0337646
0.0455495
0.0520398
0.0567366
0.0677511
0.0203599
0.0299806
0.0401545
0.0462846
0.0506906
0.0626379
0.0166386
0.0240873
0.0320806
0.0382532
0.0416654
0.0559988
0.00460182
0.0090218
0.0142286
0.0204922
0.0240432
0.0321577
0.138777
0.146865
0.155456
0.165345
0.174888
0.182702
0.187962
0.190581
0.191228
0.189977
0.187206
0.183344
0.17877
0.173804
0.168713
0.163719
0.158993
0.154667
0.150826
0.147502
0.144697
0.142505
0.141047
0.140424
0.13623
0.142262
0.149902
0.159289
0.168619
0.176212
0.181076
0.183237
0.183484
0.181855
0.178835
0.174889
0.170407
0.16571
0.161056
0.15665
0.152662
0.149214
0.146382
0.144196
0.142645
0.141678
0.14117
0.141063
0.13383
0.138994
0.146366
0.156028
0.165866
0.173899
0.179099
0.181481
0.181866
0.180363
0.177455
0.173625
0.169271
0.164717
0.160216
0.155963
0.152106
0.148758
0.145986
0.143811
0.142209
0.141114
0.140434
0.140062
0.131381
0.136495
0.144146
0.154529
0.165185
0.174166
0.180597
0.184128
0.185389
0.184785
0.182684
0.179573
0.175832
0.171769
0.167621
0.163567
0.159738
0.156221
0.153075
0.150332
0.148005
0.146102
0.144629
0.143538
0.128916
0.134334
0.142551
0.153885
0.165851
0.176419
0.184475
0.189737
0.192449
0.193217
0.192441
0.190577
0.187953
0.184852
0.181484
0.178001
0.17451
0.171086
0.167785
0.164658
0.161765
0.159195
0.157024
0.155254
0.12631
0.132158
0.141008
0.153307
0.166573
0.178446
0.187664
0.19399
0.19777
0.199525
0.199754
0.198955
0.197418
0.195317
0.192877
0.19023
0.187456
0.184604
0.181708
0.178801
0.175937
0.173213
0.170702
0.168334
0.123481
0.129686
0.139023
0.15203
0.166035
0.178368
0.187819
0.194317
0.198313
0.200354
0.200905
0.200459
0.19937
0.197662
0.195594
0.193299
0.190842
0.188259
0.18557
0.182791
0.179961
0.177171
0.174514
0.17169
0.120354
0.126733
0.136271
0.149491
0.163245
0.174551
0.182487
0.187579
0.190428
0.191633
0.19163
0.190903
0.189718
0.188089
0.186134
0.184015
0.181752
0.179349
0.176799
0.174085
0.171207
0.168199
0.165317
0.161726
0.1169
0.123259
0.132728
0.145593
0.157588
0.165381
0.169018
0.169965
0.169309
0.16793
0.166031
0.16384
0.161495
0.159067
0.156591
0.154059
0.151447
0.148725
0.145852
0.142761
0.139454
0.135747
0.132374
0.127385
0.113151
0.119422
0.128841
0.141088
0.149804
0.151638
0.148334
0.143302
0.138144
0.133319
0.128834
0.12467
0.120792
0.11715
0.11368
0.110273
0.106822
0.103244
0.099498
0.0955304
0.0914559
0.0868798
0.0830142
0.076942
0.109215
0.115621
0.125933
0.137792
0.14181
0.136678
0.125801
0.115915
0.107471
0.100361
0.0940796
0.0884282
0.0832963
0.0785907
0.0741969
0.0700577
0.0661521
0.0624539
0.0589653
0.0556884
0.0526779
0.0498122
0.0475677
0.0449951
0.105259
0.112412
0.125077
0.136889
0.135252
0.123066
0.108339
0.0977387
0.0899231
0.0829671
0.0764233
0.0702907
0.0646562
0.0595662
0.0550304
0.0510329
0.0475259
0.0444564
0.0417854
0.0394928
0.0375727
0.0360298
0.035035
0.0343333
0.101492
0.110577
0.127394
0.137054
0.13023
0.111655
0.0982357
0.0894691
0.0821709
0.0752041
0.0684461
0.0620693
0.0562507
0.051081
0.0465871
0.0427405
0.0394859
0.0367637
0.034532
0.0327729
0.0314865
0.0307032
0.0304621
0.030703
0.0981508
0.111096
0.133154
0.136964
0.123054
0.103714
0.0931327
0.0852798
0.0778224
0.0704113
0.0632654
0.0567168
0.0509304
0.0459448
0.0417145
0.0381668
0.0352289
0.0328359
0.030949
0.0295545
0.0286719
0.0283571
0.0285711
0.0294853
0.0955565
0.114979
0.139003
0.135456
0.114579
0.0993902
0.0903667
0.0820436
0.0736402
0.0654928
0.0579625
0.0513477
0.0457122
0.0410004
0.0371142
0.0339499
0.0314201
0.0294608
0.0280423
0.0271703
0.0268611
0.0270238
0.0277007
0.0291566
0.0941056
0.122438
0.140941
0.130409
0.108594
0.0973527
0.0881592
0.0785913
0.0692745
0.0606279
0.0530391
0.0466281
0.0413206
0.0369816
0.0334756
0.0306887
0.0285374
0.0269737
0.0259789
0.0255591
0.025655
0.0261849
0.0273359
0.0290345
0.0940905
0.131426
0.139016
0.121831
0.106508
0.0961168
0.0853697
0.0746416
0.0647039
0.0559981
0.0486935
0.0426926
0.0378229
0.0339108
0.0308074
0.028398
0.0266045
0.0253838
0.0247202
0.0246084
0.0249095
0.0257289
0.0271017
0.0288819
0.0956775
0.136147
0.133245
0.117913
0.105778
0.0940053
0.0816532
0.0700791
0.0599876
0.0516057
0.0447735
0.0392633
0.0348555
0.0313606
0.0286279
0.0265472
0.0250477
0.0240932
0.0236713
0.0237427
0.0242258
0.025235
0.0266913
0.0284466
0.0987854
0.136459
0.128094
0.117009
0.104812
0.0907218
0.0770552
0.0652053
0.0554835
0.0476302
0.0413368
0.036324
0.0323538
0.0292337
0.0268175
0.0250028
0.0237264
0.0229568
0.0226825
0.0228434
0.0234324
0.0244869
0.0259339
0.0276139
0.0989923
0.133202
0.126301
0.117589
0.1025
0.0861255
0.0718913
0.0604065
0.0512668
0.0440182
0.0382802
0.0337474
0.0301773
0.0273833
0.025228
0.0236181
0.0224974
0.0218383
0.0216315
0.0218232
0.0224257
0.023444
0.0248223
0.0264003
0.095301
0.131387
0.127755
0.118106
0.0983498
0.0805824
0.0666212
0.0557947
0.0473526
0.0407344
0.0355315
0.0314371
0.0282172
0.0256963
0.0237477
0.0222865
0.021262
0.0206506
0.0204459
0.0206129
0.0211553
0.0220805
0.0233487
0.0248134
0.105317
0.134443
0.133019
0.116175
0.092248
0.0745207
0.0614031
0.0514495
0.043756
0.0377505
0.033038
0.0293288
0.0264056
0.0241072
0.0223177
0.0209588
0.0199838
0.0193711
0.0191166
0.0192085
0.0196318
0.0204162
0.0215417
0.0228877
0.126464
0.146582
0.136045
0.10806
0.084744
0.0683946
0.0564562
0.0474271
0.0404583
0.0350191
0.0307445
0.0273688
0.024695
0.0225768
0.0209082
0.0196164
0.0186565
0.0180069
0.0176643
0.0176347
0.0178951
0.0184911
0.0194417
0.0206627
0.148749
0.158945
0.133221
0.0990988
0.0773266
0.0625687
0.0518431
0.04372
0.0374326
0.0325062
0.028616
0.0255258
0.0230601
0.0210876
0.0195113
0.0182623
0.0172957
0.0165873
0.0161314
0.0159343
0.0160012
0.0163546
0.0170817
0.0181606
0.00564561
0.0269229
0.0624077
0.100461
0.146
0.154192
0.0196742
0.0559808
0.0970615
0.138625
0.178922
0.218624
0.0248555
0.0701968
0.112783
0.153438
0.186243
0.2033
0.0279336
0.0789995
0.120211
0.15628
0.17625
0.175176
0.032015
0.0844275
0.122883
0.15245
0.159586
0.15031
0.034784
0.0877125
0.122927
0.145116
0.143849
0.12968
0.0366332
0.0894821
0.121304
0.137003
0.131424
0.114884
0.0378108
0.0901066
0.118787
0.129759
0.121977
0.105188
0.0384806
0.0898165
0.115875
0.123921
0.115141
0.0988443
0.038737
0.0887559
0.112866
0.119489
0.110513
0.0945548
0.0386378
0.0870227
0.109925
0.116235
0.10756
0.0916774
0.0382028
0.084689
0.107131
0.113878
0.105885
0.089855
0.0374362
0.0817636
0.104482
0.112261
0.10517
0.0888789
0.036343
0.078258
0.10189
0.1112
0.105156
0.0886784
0.0349399
0.0741813
0.0991957
0.11049
0.105754
0.0891304
0.033236
0.0695468
0.0961646
0.109928
0.106813
0.0902666
0.0312433
0.0643703
0.0924762
0.109289
0.10816
0.0920449
0.0288704
0.058634
0.0877661
0.108306
0.109543
0.0944196
0.0259751
0.0523147
0.081581
0.106481
0.110493
0.0972988
0.0247017
0.0454755
0.073596
0.102947
0.110861
0.100475
0.0232181
0.0384626
0.0635368
0.0964396
0.109913
0.102845
0.0211855
0.0310103
0.0513289
0.0847789
0.105853
0.103629
0.0172738
0.0219639
0.0358072
0.0641769
0.094858
0.0981707
0.00467982
0.00703161
0.0134853
0.0311195
0.0729218
0.0915058
0.188358
0.164922
0.118759
0.0889995
0.0700676
0.0571124
0.0476011
0.0403341
0.0346653
0.0301915
0.0266333
0.0237854
0.0214933
0.0196393
0.0181347
0.0169136
0.0159297
0.0151538
0.0145727
0.014187
0.0140076
0.0140691
0.0144829
0.0153733
0.203796
0.148487
0.104971
0.0792922
0.0632529
0.0521107
0.043757
0.0372664
0.0321418
0.0280597
0.0247863
0.0221447
0.019999
0.0182438
0.0167978
0.0155979
0.0145962
0.0137572
0.0130568
0.0124816
0.0120282
0.0117244
0.0117115
0.0122791
0.176064
0.123943
0.0908312
0.0707043
0.0574194
0.0477766
0.0403611
0.0345126
0.0298472
0.0260996
0.0230709
0.0206073
0.0185884
0.0169199
0.0155267
0.0143493
0.0133393
0.0124564
0.0116661
0.0109371
0.0102395
0.00956078
0.00897339
0.00884697
0.146036
0.105801
0.0800522
0.0637019
0.0524129
0.0439572
0.0373263
0.0320273
0.0277581
0.0243005
0.0214851
0.0191784
0.0172739
0.0156866
0.0143482
0.0132033
0.0122054
0.0113141
0.0104923
0.0097006
0.00889184
0.00801379
0.0070309
0.00563537
0.121157
0.0912991
0.0713356
0.0578679
0.0481259
0.0406197
0.034634
0.0297958
0.0258636
0.0226556
0.0200268
0.0178603
0.0160616
0.0145544
0.0132769
0.0121787
0.0112176
0.0103578
0.00956719
0.00881278
0.00805502
0.00725171
0.00637384
0.00520791
0.104387
0.0809826
0.0645879
0.0530496
0.0444547
0.0377027
0.0322472
0.0277947
0.0241484
0.0211552
0.0186898
0.016649
0.0149486
0.0135198
0.0123065
0.011263
0.0103515
0.00954027
0.00880112
0.0081052
0.00741642
0.00669894
0.00594207
0.00500017
0.0932482
0.0733909
0.0592067
0.0490319
0.0413118
0.0351594
0.0301362
0.0260038
0.0225987
0.0197895
0.0174666
0.0155379
0.0139275
0.0125726
0.0114222
0.0104343
0.0095744
0.00881352
0.00812649
0.00748725
0.00686326
0.00622587
0.00557666
0.00481394
0.0855547
0.0676369
0.0548746
0.0456746
0.0386217
0.032945
0.0282727
0.0244046
0.0212015
0.018549
0.0163494
0.0145198
0.0129904
0.0117038
0.0106127
0.00967811
0.00886807
0.00815604
0.00751912
0.00693384
0.00637146
0.00580997
0.00525796
0.00464174
0.0800288
0.0631749
0.051359
0.0428677
0.0363249
0.0310231
0.0266328
0.0229806
0.0199452
0.017425
0.0153315
0.0135885
0.0121316
0.0109072
0.00987106
0.00898683
0.00822462
0.00755986
0.0069716
0.00643874
0.00593604
0.00544671
0.00498201
0.00448713
0.0759415
0.0596785
0.0485044
0.0405293
0.0343727
0.0293623
0.0251954
0.0217173
0.0188196
0.01641
0.0144069
0.0127393
0.0113468
0.0101788
0.0091937
0.00835715
0.00764103
0.0070224
0.00648191
0.00600029
0.00555518
0.0051333
0.00474569
0.00435105
0.0729041
0.0569457
0.0462034
0.0385968
0.0327254
0.0279358
0.0239421
0.0206019
0.0178156
0.0154975
0.0135708
0.0119683
0.0106327
0.00951602
0.00857838
0.0077872
0.00711578
0.0065424
0.00604882
0.00561703
0.00522671
0.00486665
0.00454593
0.00423332
0.0706939
0.0548519
0.0443798
0.0370209
0.0313495
0.026721
0.0228573
0.0196233
0.0169253
0.0146815
0.0128186
0.0112721
0.00998684
0.00891661
0.00802323
0.00727536
0.00664734
0.00611827
0.00567047
0.00528655
0.00494747
0.00464292
0.00437922
0.00413298
0.0691831
0.0533134
0.0429753
0.0357614
0.0302176
0.0256987
0.0219276
0.0187722
0.0161417
0.0139568
0.0121464
0.0106474
0.00940638
0.0083783
0.00752617
0.0068196
0.0062336
0.0057476
0.00534394
0.00500528
0.00471321
0.00445753
0.0042417
0.00404862
0.0682952
0.0522727
0.0419465
0.0347876
0.0293078
0.0248537
0.0211421
0.0180405
0.0154587
0.0133189
0.0115504
0.0100912
0.00888864
0.00789857
0.00708476
0.00641738
0.00587175
0.00542715
0.00506541
0.00476877
0.00451903
0.00430566
0.00412955
0.0039787
0.0679845
0.0516933
0.0412634
0.0340769
0.0286037
0.0241738
0.0204919
0.0174213
0.0148712
0.0127633
0.011027
0.00960029
0.00843073
0.00747463
0.00669614
0.00606566
0.00555837
0.00515296
0.00483038
0.00457206
0.00435978
0.00418254
0.00403915
0.00392164
0.0682336
0.051557
0.0409086
0.0336151
0.0280937
0.0236501
0.01997
0.0169093
0.0143745
0.0122862
0.0105727
0.0091715
0.00802964
0.00710347
0.00635716
0.00576098
0.00528958
0.00492068
0.00463397
0.00440999
0.0042304
0.00408374
0.00396722
0.00387593
0.0690435
0.0518627
0.0408767
0.0333948
0.027771
0.0232766
0.0195712
0.0164999
0.0139649
0.0118843
0.0101846
0.0088018
0.0076823
0.00678191
0.00606444
0.00549965
0.00506129
0.00472576
0.00447132
0.00427759
0.00412619
0.0040053
0.00391088
0.00384013
0.0704474
0.0526285
0.0411729
0.0334108
0.0276323
0.0230495
0.0192919
0.0161898
0.0136392
0.0115545
0.00985952
0.00848827
0.0073857
0.00650674
0.00581449
0.00527785
0.00486932
0.0045637
0.00433774
0.00417022
0.00404287
0.00394371
0.00386762
0.00381287
0.0725046
0.0539021
0.0418154
0.0336754
0.0276686
0.0229666
0.0191295
0.0159764
0.0133949
0.0112944
0.0095951
0.00822829
0.007137
0.00627483
0.00560385
0.00509179
0.00470959
0.00443024
0.00422894
0.00408374
0.00397663
0.00389576
0.0038351
0.00379288
0.0753124
0.0557476
0.0428375
0.0341969
0.0278993
0.0230165
0.0190818
0.0158577
0.0132301
0.0111021
0.00938934
0.00801971
0.00693376
0.00608339
0.00542931
0.00493784
0.00457816
0.00432135
0.004141
0.00401448
0.00392404
0.00385822
0.00381089
0.00377847
0.0790104
0.0582529
0.0442745
0.0349917
0.0283209
0.0232204
0.0191385
0.0158323
0.0131434
0.0109763
0.0092409
0.00786103
0.00677422
0.00593026
0.00528826
0.00481295
0.00447168
0.00423357
0.00407066
0.00395965
0.00388292
0.00382917
0.0037924
0.00376784
0.0837744
0.061529
0.0461611
0.0360704
0.0289387
0.0235674
0.0193164
0.0158911
0.0131339
0.0109163
0.00914909
0.00775147
0.0066574
0.00581417
0.00517903
0.00471506
0.00438777
0.00416436
0.00401543
0.00391701
0.00385145
0.00380743
0.00377867
0.00376051
0.08977
0.0656781
0.0485063
0.0374297
0.0297483
0.0240574
0.0196055
0.0160449
0.013193
0.0109207
0.00911376
0.00769088
0.00658302
0.00573454
0.00510072
0.00464289
0.00432482
0.00411193
0.00397343
0.00388465
0.00382783
0.00379153
0.00376909
0.00375592
0.0969938
0.0706592
0.0512454
0.0390362
0.030733
0.0246828
0.0200047
0.0162923
0.0133323
0.0109834
0.00913225
0.00767955
0.00655128
0.00569128
0.00505287
0.00459558
0.00428166
0.00407491
0.00394322
0.00386116
0.0038107
0.00378021
0.00376261
0.00375317
0.0050759
0.0224842
0.0540277
0.0805887
0.0958221
0.102579
0.0170071
0.0442684
0.0740058
0.0961271
0.108386
0.113408
0.0254404
0.0626023
0.0896288
0.107368
0.115686
0.11822
0.0318664
0.0751579
0.10044
0.115018
0.120783
0.121519
0.0373912
0.0842186
0.10843
0.121035
0.125336
0.124607
0.0421008
0.0910048
0.11465
0.126283
0.129863
0.127922
0.045953
0.096182
0.119767
0.131191
0.13453
0.131723
0.0489998
0.100167
0.124128
0.135957
0.139461
0.136174
0.0513174
0.103226
0.127919
0.140677
0.144744
0.141389
0.0529803
0.105525
0.131232
0.145375
0.15044
0.147461
0.0540463
0.107145
0.134106
0.15003
0.156587
0.15446
0.0545576
0.108081
0.136553
0.154577
0.163187
0.162436
0.0546118
0.108269
0.138527
0.158911
0.170179
0.171402
0.0544297
0.107605
0.139912
0.162919
0.17738
0.181331
0.0539214
0.106039
0.140512
0.166393
0.184551
0.192086
0.0529994
0.103473
0.140153
0.168991
0.191343
0.203422
0.0515672
0.0997624
0.138407
0.170249
0.197225
0.214944
0.049507
0.0947586
0.134994
0.169724
0.20144
0.225954
0.0466592
0.0883246
0.129567
0.166697
0.202934
0.235515
0.0428171
0.080358
0.121825
0.160464
0.200823
0.242327
0.0377443
0.0708155
0.111467
0.150252
0.19292
0.244414
0.0312168
0.0595233
0.0979026
0.13485
0.176655
0.239877
0.0225473
0.0451306
0.0790525
0.111769
0.148087
0.219095
0.00699491
0.0180245
0.041311
0.0686211
0.102888
0.130631
0.104327
0.0758946
0.0541864
0.0408137
0.0318628
0.0254312
0.0205085
0.0166296
0.0135525
0.0111194
0.00920649
0.00771382
0.00656114
0.00568475
0.00503563
0.00457275
0.00425758
0.00405239
0.00392379
0.00384552
0.0037991
0.00377254
0.00375846
0.00375164
0.108585
0.0798625
0.0569753
0.0426567
0.0331018
0.0262887
0.021112
0.0170555
0.013851
0.0113259
0.00934624
0.00780438
0.00661531
0.00571356
0.00504783
0.00457444
0.0042526
0.00404413
0.00391473
0.00383719
0.00379236
0.003768
0.00375611
0.00375097
0.110611
0.0826538
0.0594993
0.0445087
0.0344276
0.0272471
0.0218129
0.0175706
0.0142296
0.0116034
0.0095486
0.00795065
0.00671952
0.00578574
0.00509521
0.00460295
0.00426788
0.00405084
0.00391651
0.00383659
0.00379091
0.00376678
0.00375538
0.00375076
0.111917
0.084865
0.0618556
0.0463844
0.0358414
0.0283078
0.0226139
0.0181786
0.0146925
0.0119563
0.00981758
0.00815521
0.00687398
0.00590052
0.00517804
0.00466021
0.0043054
0.00407407
0.00393015
0.0038442
0.0037949
0.00376869
0.00375622
0.00375102
0.113412
0.0870382
0.0642155
0.0483415
0.0373648
0.0294818
0.0235228
0.0188861
0.0152457
0.0123901
0.0101584
0.00842278
0.00708318
0.00606221
0.0053003
0.00474958
0.00436806
0.0041162
0.00395753
0.00386152
0.0038055
0.0037745
0.0037591
0.00375205
0.115491
0.0895288
0.0667476
0.0504536
0.0390322
0.0307876
0.0245518
0.0197025
0.0158972
0.0129119
0.0105772
0.00875908
0.0073524
0.00627578
0.00546664
0.00487545
0.00445985
0.00418063
0.00400131
0.00389046
0.00382389
0.00378524
0.00376469
0.00375462
0.118373
0.0925606
0.0695991
0.0527995
0.0408861
0.0322499
0.025717
0.0206397
0.0166565
0.0135298
0.0110813
0.00917067
0.00768771
0.00654691
0.00568253
0.0050431
0.00458577
0.00427183
0.00406521
0.00393392
0.00385229
0.00380265
0.00377442
0.00375943
0.122197
0.0963016
0.0729062
0.0554627
0.0429759
0.0338983
0.0270376
0.0217118
0.0175347
0.0142531
0.0116789
0.00966494
0.0080959
0.006882
0.00595412
0.00525855
0.00475166
0.00439525
0.00415403
0.00399586
0.00389384
0.00382895
0.00378973
0.00376737
0.127072
0.100901
0.0768031
0.0585334
0.0453571
0.0357676
0.0285364
0.0229348
0.0185442
0.0150921
0.0123789
0.01025
0.00858449
0.00728814
0.00628824
0.00552853
0.00496422
0.0045574
0.00427374
0.00408143
0.00395264
0.00386696
0.00381208
0.00377921
0.133108
0.106515
0.081434
0.0621127
0.0480944
0.0378984
0.0302398
0.024327
0.0196987
0.0160581
0.0131913
0.0109349
0.00916185
0.00777328
0.00669264
0.00586077
0.00523126
0.00476604
0.00443166
0.00419697
0.00403356
0.00392002
0.00384394
0.00379634
0.140419
0.113316
0.0869654
0.0663209
0.0512654
0.0403389
0.0321785
0.025909
0.0210136
0.0171634
0.0141266
0.0117292
0.0098372
0.00834638
0.00717611
0.00626404
0.00556163
0.00503006
0.00463635
0.00435009
0.00414281
0.00399298
0.00388899
0.00382085
0.149131
0.121496
0.0935937
0.0713046
0.0549654
0.043148
0.0343888
0.0277046
0.0225055
0.018421
0.0151961
0.0126435
0.0106205
0.0090171
0.00774819
0.00674781
0.00596483
0.00535902
0.00489729
0.00454979
0.00428838
0.00409222
0.00395142
0.00385477
0.159363
0.13127
0.101548
0.0772426
0.0593129
0.0463982
0.0369148
0.0297415
0.0241935
0.0198453
0.0164118
0.0136884
0.0115219
0.00979547
0.00841876
0.00732188
0.00645066
0.00576284
0.00522455
0.00480603
0.00447944
0.00422516
0.00403621
0.00390032
0.171217
0.142864
0.111092
0.0843524
0.0644557
0.0501808
0.0398108
0.0320529
0.0260989
0.0214515
0.0177857
0.0148746
0.0125516
0.0106914
0.0091977
0.00799611
0.00702899
0.00625158
0.00562849
0.00512933
0.00472607
0.00440039
0.00414935
0.00396012
0.184734
0.156504
0.122509
0.0928912
0.0705772
0.0546109
0.0431452
0.0346792
0.0282469
0.0232565
0.0193306
0.0162127
0.0137194
0.0117145
0.0100945
0.0087801
0.00770958
0.00683519
0.00611939
0.0055303
0.00503881
0.00462736
0.0042978
0.00403725
0.199824
0.172392
0.136078
0.103146
0.0778978
0.0598329
0.0470043
0.0376708
0.0306674
0.0252792
0.0210595
0.0177131
0.0150342
0.0128732
0.0111179
0.00968281
0.00850168
0.00752324
0.00670715
0.00601921
0.00542809
0.0049159
0.00448925
0.00413512
0.216173
0.190661
0.152017
0.115405
0.086669
0.0660223
0.0514966
0.041091
0.0333975
0.0275421
0.022987
0.0193861
0.0165046
0.0141754
0.0122756
0.0107122
0.0094137
0.00832458
0.00740105
0.00660573
0.00590386
0.00527567
0.00473154
0.00425722
0.233593
0.210916
0.170361
0.129895
0.0971527
0.0733837
0.0567558
0.0450202
0.036484
0.0300728
0.02513
0.0212428
0.0181385
0.0156278
0.013574
0.011875
0.0104529
0.009247
0.00820947
0.00729873
0.00647534
0.00571574
0.00503222
0.00440662
0.251434
0.232438
0.190922
0.146701
0.109577
0.0821368
0.0629408
0.0495584
0.0399865
0.0329063
0.0275094
0.0232962
0.0199446
0.0172369
0.0150187
0.0131767
0.011625
0.0102971
0.00913972
0.00810626
0.00715112
0.00624466
0.00539822
0.00458527
0.268598
0.253948
0.213215
0.165652
0.124055
0.0924841
0.0702268
0.0548258
0.0439796
0.0360874
0.030152
0.0255626
0.0219334
0.0190098
0.0166152
0.0146221
0.0129351
0.0114802
0.0101981
0.00903558
0.00793942
0.00687098
0.00583629
0.00479348
0.28347
0.273772
0.236004
0.186127
0.140455
0.104544
0.0787808
0.0609574
0.0485543
0.0396733
0.0330934
0.0280643
0.0241192
0.0209561
0.0183704
0.016217
0.0143883
0.0128018
0.0113906
0.0100938
0.00884878
0.00760427
0.00635422
0.00502987
0.293495
0.289435
0.257293
0.206924
0.15825
0.118247
0.0887149
0.0680872
0.0538147
0.0437348
0.0363796
0.0308316
0.0265226
0.0230908
0.0202959
0.0179708
0.0159933
0.0142701
0.0127256
0.0112901
0.00989001
0.00845739
0.00696371
0.00529238
0.291401
0.29752
0.274263
0.226384
0.176478
0.133225
0.100013
0.0763176
0.059869
0.0483549
0.0400691
0.0339052
0.0291731
0.0254366
0.0224111
0.0199014
0.0177674
0.0159028
0.0142214
0.0126435
0.0110834
0.00945338
0.00768759
0.00558175
0.248295
0.29185
0.281022
0.242858
0.193856
0.148786
0.112457
0.0856716
0.0668101
0.053624
0.044232
0.0373374
0.0321108
0.0280272
0.0247468
0.0220402
0.0197449
0.0177385
0.0159217
0.0142026
0.0124825
0.0106517
0.00858941
0.00592729
0.00638914
0.01594
0.0304445
0.0404053
0.0436559
0.0511724
0.0210063
0.0408584
0.0600303
0.0688621
0.0693801
0.0772814
0.0289293
0.0542944
0.0759477
0.0848939
0.085621
0.0909056
0.0348726
0.0649019
0.0878616
0.0971331
0.0984377
0.10291
0.0396901
0.0741052
0.0977617
0.10759
0.109987
0.114394
0.0436176
0.0821247
0.106221
0.116911
0.120922
0.125734
0.0468343
0.0890048
0.11345
0.125305
0.13123
0.136971
0.0494633
0.0947845
0.119566
0.13281
0.140807
0.148023
0.0515919
0.0995105
0.124647
0.139395
0.149511
0.158641
0.0532925
0.103222
0.128742
0.144997
0.157165
0.16833
0.0546388
0.105936
0.131875
0.149543
0.163586
0.17669
0.0555793
0.107688
0.134054
0.15296
0.168598
0.183392
0.055884
0.108542
0.135267
0.155185
0.172054
0.188171
0.0556338
0.108512
0.135463
0.156091
0.173767
0.190717
0.0547143
0.107581
0.134697
0.155825
0.173878
0.191107
0.0531137
0.105697
0.132876
0.154265
0.172388
0.189487
0.0507992
0.102775
0.129916
0.151405
0.169317
0.185872
0.0477268
0.0986911
0.125694
0.147205
0.164751
0.180504
0.0438512
0.0932586
0.120015
0.141556
0.158774
0.173686
0.0391428
0.0861865
0.112566
0.134227
0.151367
0.16569
0.033559
0.0770077
0.102823
0.124756
0.142269
0.156607
0.0270129
0.0648667
0.0898115
0.112216
0.130704
0.145906
0.0187846
0.0474414
0.071183
0.0944858
0.114778
0.130783
0.00499179
0.0199112
0.0426794
0.0687802
0.0929722
0.116681
0.179631
0.269056
0.276885
0.253593
0.208818
0.163974
0.125606
0.0960502
0.074689
0.0596281
0.0489468
0.0411906
0.0353857
0.0309055
0.027345
0.0244335
0.0219819
0.0198492
0.0179212
0.0160925
0.0142502
0.0122594
0.00992301
0.00665695
0.129398
0.234466
0.265037
0.253596
0.21997
0.177717
0.138825
0.107203
0.0834826
0.0664314
0.0542918
0.0455329
0.0390526
0.0341173
0.0302483
0.027128
0.0245387
0.0223227
0.0203584
0.0185413
0.016773
0.0149787
0.0132585
0.012279
0.113321
0.20137
0.246307
0.248306
0.227453
0.189422
0.151516
0.118784
0.093084
0.0740582
0.0603336
0.0504299
0.0431625
0.037698
0.0334796
0.0301391
0.027431
0.0251904
0.0233087
0.0217182
0.0203823
0.0193151
0.0186951
0.0189311
0.118452
0.17913
0.22602
0.237858
0.226905
0.197992
0.162879
0.130283
0.103263
0.0824632
0.0671091
0.0559359
0.0477582
0.0416694
0.0370385
0.0334447
0.0306148
0.0283787
0.0266416
0.0253621
0.0245309
0.0241697
0.0243598
0.0251269
0.130871
0.168436
0.20846
0.225576
0.222964
0.203817
0.172522
0.14122
0.113699
0.0915165
0.0746082
0.0620864
0.0528768
0.0460518
0.0409236
0.0370225
0.0340473
0.0318189
0.0302437
0.0292785
0.0288964
0.0290595
0.0297413
0.0307825
0.143685
0.167535
0.196363
0.213264
0.215223
0.204439
0.179675
0.150975
0.123954
0.100982
0.0827519
0.0688856
0.058548
0.0508697
0.0451416
0.0408574
0.0376884
0.0354392
0.0340015
0.0333065
0.0332851
0.0338056
0.0348351
0.0360308
0.154199
0.172258
0.191496
0.202715
0.206506
0.201802
0.184516
0.15916
0.133559
0.11052
0.0913689
0.0762849
0.0647838
0.0561503
0.0497108
0.0449465
0.0415062
0.0391724
0.037809
0.0373103
0.0375314
0.0383326
0.0395953
0.0409046
0.163965
0.18224
0.193813
0.196383
0.198367
0.196581
0.185783
0.16513
0.141983
0.119707
0.100191
0.0841632
0.07156
0.061914
0.0546586
0.0493019
0.0454851
0.0429685
0.0415832
0.0411821
0.0415433
0.0425369
0.0439662
0.0453668
0.173816
0.193566
0.200399
0.197152
0.192838
0.190616
0.184086
0.168742
0.148716
0.12803
0.108836
0.0923004
0.0787892
0.0681537
0.0600107
0.0539484
0.0496287
0.0468012
0.0452687
0.0448464
0.0452493
0.0463389
0.0478788
0.0493537
0.183723
0.204049
0.210799
0.202491
0.192067
0.186147
0.181091
0.169849
0.153494
0.135074
0.116886
0.100385
0.086298
0.0748087
0.0657727
0.0589157
0.0539607
0.0506723
0.0488412
0.0482571
0.0485993
0.0496751
0.0512656
0.0527943
0.193083
0.213612
0.222479
0.21435
0.19564
0.185032
0.178153
0.169231
0.156198
0.140451
0.123904
0.108037
0.0938238
0.0817437
0.0719086
0.0642251
0.0585224
0.054616
0.0523139
0.0514006
0.0515715
0.0525013
0.0540687
0.0556245
0.201168
0.222181
0.23396
0.228239
0.206378
0.18781
0.177781
0.168722
0.157587
0.144234
0.129584
0.114895
0.101058
0.0887556
0.0783277
0.0698746
0.0633642
0.0587012
0.0557472
0.054314
0.0541642
0.054816
0.0562495
0.0577938
0.207323
0.229273
0.244009
0.241853
0.223157
0.196884
0.180411
0.169342
0.158609
0.146895
0.134001
0.120672
0.107679
0.0955813
0.0848692
0.0758124
0.0685243
0.0630218
0.0592549
0.0571042
0.0563831
0.0566956
0.0578032
0.0592786
0.21093
0.23413
0.25158
0.253878
0.241045
0.213217
0.189138
0.173178
0.16085
0.149402
0.137645
0.125505
0.113458
0.101942
0.0913075
0.0819159
0.0739945
0.0676685
0.0629885
0.0599324
0.0583955
0.0581929
0.0588063
0.060105
0.211732
0.235791
0.255725
0.263306
0.256003
0.233088
0.205666
0.183327
0.166894
0.15361
0.14162
0.13003
0.118692
0.107759
0.0974549
0.0880186
0.0797017
0.0726899
0.0671115
0.0630409
0.060488
0.0593893
0.0595033
0.0603428
0.209988
0.234461
0.256123
0.268435
0.266891
0.251811
0.226264
0.200824
0.179513
0.162389
0.148198
0.135729
0.124281
0.113562
0.103481
0.0941118
0.0856016
0.0781048
0.0717622
0.0666959
0.0630035
0.0607506
0.0599703
0.060296
0.205567
0.229656
0.252425
0.268292
0.272799
0.265332
0.246319
0.222246
0.198614
0.177742
0.160076
0.145119
0.132184
0.120691
0.110254
0.100687
0.091946
0.0840633
0.07711
0.0711772
0.0663717
0.0628225
0.0607208
0.0603016
0.198803
0.221615
0.244437
0.262859
0.272564
0.271717
0.261127
0.242318
0.220418
0.198445
0.178182
0.160316
0.144842
0.131412
0.119615
0.109114
0.0996872
0.091205
0.0836095
0.0768936
0.0710919
0.0662835
0.0626632
0.0609517
0.190221
0.210953
0.232765
0.252377
0.265708
0.27081
0.267287
0.256051
0.239096
0.219579
0.199553
0.180428
0.162951
0.147353
0.133559
0.12137
0.110566
0.100949
0.0923661
0.0847071
0.0779098
0.0719483
0.0668572
0.0633773
0.180469
0.198591
0.218452
0.237757
0.253198
0.26239
0.264616
0.260205
0.249751
0.23512
0.218276
0.200653
0.183321
0.16694
0.151842
0.138136
0.125799
0.114736
0.104825
0.0959404
0.0879803
0.0808519
0.0744806
0.0690512
0.170256
0.185648
0.20296
0.220763
0.236419
0.247911
0.253953
0.254467
0.250022
0.240928
0.228793
0.2148
0.199936
0.184961
0.170402
0.156592
0.143716
0.131845
0.120977
0.111062
0.102049
0.0938433
0.0864717
0.079374
0.160332
0.173219
0.187851
0.203402
0.217898
0.229657
0.237462
0.240962
0.240331
0.236059
0.228468
0.218702
0.207507
0.195527
0.183283
0.171155
0.159428
0.14826
0.137722
0.127835
0.118636
0.110105
0.102397
0.0947371
0.151281
0.162261
0.174443
0.187609
0.200227
0.210859
0.218596
0.222921
0.224188
0.222554
0.218311
0.212005
0.204272
0.195578
0.186328
0.176872
0.16749
0.158444
0.149852
0.14172
0.133941
0.126535
0.119738
0.113436
0.143385
0.153419
0.163564
0.174749
0.185536
0.194574
0.201114
0.204828
0.206187
0.205326
0.202531
0.198186
0.192745
0.186565
0.179953
0.173165
0.166391
0.159771
0.153507
0.147808
0.142846
0.138469
0.134639
0.131649
)
;

boundaryField
{
    rotor
    {
        type            kqRWallFunction;
        value           nonuniform List<scalar> 
144
(
0.00360431
0.01006
0.0333166
0.0637024
0.0911269
0.116751
0.00360431
0.0147821
0.0195052
0.0220574
0.0238104
0.0249358
0.0263191
0.0274922
0.0283646
0.0289298
0.0291963
0.029184
0.0289302
0.0285289
0.0279499
0.0271597
0.0260052
0.0250499
0.0244468
0.0235519
0.0222066
0.0203599
0.0166386
0.00460182
0.00460182
0.0090218
0.0142286
0.0204922
0.0240432
0.0321577
0.00564561
0.0269229
0.0624077
0.100461
0.146
0.154192
0.00564561
0.0196742
0.0248555
0.0279336
0.032015
0.034784
0.0366332
0.0378108
0.0384806
0.038737
0.0386378
0.0382028
0.0374362
0.036343
0.0349399
0.033236
0.0312433
0.0288704
0.0259751
0.0247017
0.0232181
0.0211855
0.0172738
0.00467982
0.00467982
0.00703161
0.0134853
0.0311195
0.0729218
0.0915058
0.0050759
0.0224842
0.0540277
0.0805887
0.0958221
0.102579
0.0050759
0.0170071
0.0254404
0.0318664
0.0373912
0.0421008
0.045953
0.0489998
0.0513174
0.0529803
0.0540463
0.0545576
0.0546118
0.0544297
0.0539214
0.0529994
0.0515672
0.049507
0.0466592
0.0428171
0.0377443
0.0312168
0.0225473
0.00699491
0.00699491
0.0180245
0.041311
0.0686211
0.102888
0.130631
0.00638914
0.01594
0.0304445
0.0404053
0.0436559
0.0511724
0.00638914
0.0210063
0.0289293
0.0348726
0.0396901
0.0436176