/*--------------------------------*- C++ -*----------------------------------*\
  =========                 |
  \\      /  F ield         | OpenFOAM: The Open Source CFD Toolbox
   \\    /   O peration     | Website:  https://openfoam.org
    \\  /    A nd           | Version:  11
     \\/     M anipulation  |
\*---------------------------------------------------------------------------*/
FoamFile
{
    format      ascii;
    class       volScalarField;
    location    "1.48";
    object      nut;
}
// * * * * * * * * * * * * * * * * * * * * * * * * * * * * * * * * * * * * * //

dimensions      [0 2 -1 0 0 0 0];

internalField   nonuniform List<scalar> 
2880
(
6.96216e-07
3.76791e-06
2.05397e-05
5.84051e-05
0.000116349
0.000198268
2.56128e-05
2.83935e-05
7.85842e-05
0.000164697
0.000279816
0.000479633
0.000155916
7.41705e-05
0.000163375
0.000292631
0.000455788
0.000706567
0.000176283
0.000123997
0.000246176
0.000408182
0.000601447
0.000850971
0.00019016
0.000173051
0.000320614
0.000504198
0.000707908
0.00092851
4.71698e-05
0.000218078
0.000384452
0.000579151
0.000778289
0.000959614
4.86107e-05
0.000256937
0.000437364
0.000634293
0.000818899
0.000963861
4.96545e-05
0.000288398
0.000479288
0.000672157
0.00083787
0.000949812
5.04319e-05
0.000311959
0.000511265
0.00069595
0.000841213
0.000924477
5.09317e-05
0.000327681
0.000533201
0.000708097
0.000833577
0.000892723
5.11652e-05
0.000336288
0.000545957
0.000710708
0.000818381
0.000857884
5.11539e-05
0.000337501
0.000549984
0.000705464
0.000798003
0.00082208
5.09317e-05
0.000331027
0.000545615
0.000693623
0.000773939
0.000786334
5.05782e-05
0.000316768
0.00053335
0.000675737
0.000746923
0.000750581
5.00636e-05
0.000296766
0.000513894
0.000651814
0.000717052
0.000713725
4.93516e-05
0.000272847
0.000488153
0.000621854
0.000683291
0.000673059
4.81238e-05
0.000247675
0.000457346
0.000585923
0.000643939
0.000626141
4.7452e-05
0.000227584
0.000422915
0.000543979
0.000597395
0.000571712
0.000195705
0.000221372
0.000385518
0.000495002
0.000541696
0.00050899
0.000188261
0.000207291
0.000340444
0.000435745
0.000474467
0.000434308
0.000177465
0.000179608
0.000281713
0.000361069
0.00039414
0.000352168
0.000162704
0.000132371
0.000203955
0.00026498
0.00029561
0.000270843
2.88231e-05
6.03296e-05
0.000100949
0.000140868
0.000165564
0.000185704
8.88488e-07
3.36847e-06
8.7292e-06
1.87167e-05
3.062e-05
5.44884e-05
0.000932146
0.00129056
0.0014395
0.00150721
0.0015643
0.00161444
0.00165232
0.00167282
0.00168323
0.00168338
0.00167516
0.00166106
0.00164321
0.00162349
0.00160356
0.0015848
0.00156833
0.00155507
0.00154561
0.00154007
0.00153873
0.00154402
0.00155782
0.00157594
0.0010376
0.00129956
0.00142339
0.0014926
0.00155992
0.00162724
0.00168211
0.00171515
0.00174294
0.00175953
0.0017663
0.00176539
0.00175882
0.00174849
0.00173615
0.0017234
0.00171165
0.00170204
0.00169533
0.00169185
0.00169147
0.00169437
0.00169956
0.00170437
0.0011041
0.00128813
0.00138402
0.00145394
0.00152801
0.00160478
0.00166957
0.00171237
0.00175178
0.0017808
0.00179977
0.00181047
0.00181457
0.00181373
0.00180959
0.00180367
0.00179743
0.00179218
0.00178904
0.00178885
0.00179209
0.0017987
0.0018077
0.00181623
0.00112937
0.00125626
0.00132443
0.00138432
0.00145087
0.00152344
0.00159598
0.00165077
0.00170122
0.00174609
0.0017827
0.00181205
0.00183487
0.0018521
0.00186473
0.00187368
0.00187982
0.00188397
0.00188688
0.00188917
0.00189144
0.00189406
0.00189709
0.00189989
0.00112361
0.00120448
0.00124118
0.00128338
0.00133837
0.00140278
0.00147378
0.00153767
0.00159453
0.00164857
0.00169781
0.00174197
0.00178054
0.00181393
0.00184255
0.0018668
0.00188706
0.0019037
0.00191709
0.00192771
0.00193619
0.00194322
0.00194932
0.00195499
0.00109637
0.0011346
0.00114263
0.00116405
0.00120377
0.00125585
0.00131653
0.00137669
0.00143205
0.00148591
0.00153895
0.00158962
0.00163642
0.0016779
0.00171479
0.00174735
0.00177568
0.00179991
0.00182008
0.00183632
0.00184902
0.00185873
0.00186615
0.00187339
0.00105278
0.00105478
0.00103628
0.00103625
0.00105807
0.00109585
0.0011454
0.00119931
0.00126143
0.00133012
0.00139625
0.00145789
0.00151514
0.00156476
0.00160823
0.00164611
0.00167867
0.00170614
0.00172882
0.00174711
0.00176164
0.00177344
0.00178226
0.00179318
0.000999995
0.000970989
0.00092787
0.000906258
0.000908985
0.000932257
0.000972796
0.00103767
0.00110783
0.00117428
0.00123642
0.00129571
0.00135182
0.00140206
0.00144609
0.00148514
0.00151905
0.00154777
0.00157131
0.00158984
0.00160338
0.00161302
0.00161771
0.0016242
0.000943242
0.000887746
0.000821915
0.000779043
0.000761782
0.000767666
0.000800597
0.000838629
0.000882693
0.00093312
0.000985452
0.00103725
0.00108669
0.00113235
0.00117335
0.00120923
0.00123978
0.0012649
0.00128445
0.00129858
0.00130671
0.00131093
0.00130727
0.00130652
0.000886261
0.000808781
0.000722785
0.000660954
0.000628948
0.000617006
0.000615084
0.000631984
0.000663253
0.000702824
0.000746278
0.000791262
0.000835548
0.000876944
0.000914372
0.000948586
0.000977657
0.00100069
0.00101715
0.00102777
0.00103117
0.00103203
0.00102171
0.00102054
0.000831791
0.000737348
0.000637971
0.000563781
0.000518859
0.000494846
0.000473494
0.000488203
0.000516018
0.000554259
0.000597483
0.000646903
0.00069781
0.00074721
0.000792519
0.000828763
0.000856878
0.000878231
0.000894537
0.000908226
0.000920555
0.000936402
0.000952346
0.000998641
0.000781378
0.00067504
0.000565687
0.00048875
0.000445638
0.000406977
0.000404804
0.000434806
0.000486307
0.00054633
0.000611699
0.000672485
0.000727895
0.000778178
0.000823834
0.000866156
0.000906302
0.000944954
0.000984081
0.00102662
0.00107576
0.00113927
0.00122055
0.0013351
0.000735024
0.000622204
0.000504707
0.000431849
0.000401857
0.000363856
0.000390292
0.0004448
0.000511979
0.000583344
0.000656332
0.000727646
0.000798031
0.000868124
0.000937126
0.00100406
0.0010705
0.00114057
0.00121778
0.00130717
0.00141532
0.00155234
0.00172074
0.00188176
0.000690068
0.000575858
0.00045325
0.000393542
0.00035501
0.000352144
0.000404086
0.000476861
0.000558093
0.000641451
0.000722526
0.000803319
0.000885369
0.000970285
0.00106037
0.00115793
0.00126506
0.00138443
0.0015202
0.00167804
0.00186374
0.00208101
0.00230652
0.00249682
0.000643681
0.000530798
0.000402739
0.000365332
0.000322681
0.000362305
0.000438208
0.000530478
0.000631424
0.000737047
0.000845663
0.000954953
0.00106334
0.0011709
0.00127968
0.00139403
0.0015205
0.00166685
0.00184268
0.00205825
0.00231904
0.00259924
0.00285859
0.00309306
0.000593007
0.000472718
0.000357844
0.000330527
0.000322291
0.00039485
0.000494747
0.000608928
0.000733076
0.00086308
0.000997711
0.00113764
0.00128347
0.00143592
0.00159605
0.00176569
0.00194834
0.00215129
0.00238344
0.0026515
0.00293958
0.00320782
0.00346368
0.00368837
0.000534347
0.00040272
0.000323211
0.000290705
0.000346268
0.000447349
0.000570238
0.00070767
0.000854483
0.00100619
0.00115987
0.001315
0.00147452
0.00164349
0.00182765
0.00203291
0.00226515
0.00253014
0.00283182
0.00316565
0.00347858
0.00376687
0.00405584
0.00424066
0.000469039
0.000327374
0.000288298
0.000294984
0.000390716
0.000518585
0.00066596
0.000828602
0.00100134
0.00117939
0.00136033
0.00154445
0.00173317
0.00192901
0.00213634
0.00236199
0.00261514
0.00290452
0.00323283
0.00358079
0.00390195
0.00421325
0.00450186
0.00465495
0.000394149
0.000273621
0.000261934
0.000326933
0.000455408
0.000607921
0.000781843
0.000972981
0.00117372
0.00137863
0.00158701
0.00180108
0.00202382
0.00225793
0.00250619
0.00277245
0.00306181
0.0033785
0.00372069
0.00405666
0.00436237
0.00466641
0.00490818
0.00502995
0.000282686
0.000238554
0.000254837
0.000379281
0.000536182
0.000716443
0.000921235
0.00114091
0.0013661
0.00159381
0.00182523
0.00206284
0.00230915
0.00256679
0.00283888
0.00312914
0.00344103
0.00377498
0.00412397
0.0044517
0.00474253
0.00502774
0.0052323
0.00534023
0.00017294
0.000222622
0.000278154
0.000457269
0.000639885
0.000850036
0.00108334
0.00132713
0.00157482
0.0018256
0.00208091
0.00234232
0.00261086
0.00288744
0.00317359
0.00347184
0.00378466
0.00411146
0.0044444
0.00475187
0.00501694
0.00527421
0.00544893
0.00554571
0.000137055
0.000216543
0.000335737
0.000561934
0.000764298
0.00100356
0.00126239
0.00152794
0.00179645
0.00206835
0.00234475
0.00262609
0.00291203
0.00320191
0.00349544
0.00379319
0.00409585
0.00440196
0.00470441
0.00498178
0.00520976
0.00542849
0.00557475
0.00566005
0.000143517
0.000241906
0.000461018
0.00067669
0.000910317
0.00117532
0.00145313
0.00173651
0.00202371
0.00231441
0.00260827
0.00290429
0.0032007
0.00349526
0.00378608
0.00407209
0.00435283
0.00462674
0.00488849
0.00512743
0.00531403
0.0054848
0.00560403
0.00567741
0.000148572
0.000300855
0.000571007
0.000798466
0.00106633
0.00135184
0.00164698
0.00194833
0.00225332
0.00256022
0.00286743
0.00317275
0.00347301
0.0037645
0.00404371
0.0043081
0.00455628
0.00478712
0.00499773
0.0051817
0.00532665
0.00543672
0.00552351
0.00558171
1.09546e-06
1.00268e-05
3.82209e-05
9.16515e-05
0.000185838
5.40398e-05
3.44029e-05
8.52747e-05
0.000169136
0.000268654
0.000385835
0.000373926
4.6875e-05
0.000164677
0.000282058
0.000393769
0.000503742
0.000574498
4.96225e-05
0.000225026
0.000356692
0.000464361
0.000559922
0.000613798
5.33132e-05
0.000265806
0.000399506
0.000498033
0.00056129
0.000625094
5.55922e-05
0.000291265
0.000421056
0.000503951
0.000543379
0.00062345
5.70598e-05
0.000305417
0.000427243
0.000492792
0.00052768
0.000618555
5.79734e-05
0.000311667
0.000423575
0.000475137
0.00051735
0.000622233
5.8485e-05
0.00031256
0.000414291
0.000457022
0.00051156
0.0006364
5.86806e-05
0.000309729
0.000402349
0.000441273
0.000510968
0.000655447
5.86081e-05
0.000304097
0.000389585
0.00042853
0.000513289
0.000676645
5.82822e-05
0.000296059
0.000377007
0.000418459
0.000515675
0.000697407
5.77005e-05
0.000285978
0.00036447
0.00040918
0.000517419
0.0007151
5.68578e-05
0.00027401
0.000351605
0.000400803
0.0005162
0.000729308
5.57538e-05
0.000260225
0.000337746
0.000391352
0.00051081
0.000738081
5.43772e-05
0.000244722
0.000322118
0.000380294
0.000499698
0.000741489
5.272e-05
0.000227683
0.000303752
0.000366883
0.000481479
0.000737855
5.06872e-05
0.000209159
0.000281822
0.000350384
0.000454895
0.000725377
4.8124e-05
0.000189517
0.000255225
0.00032908
0.000418143
0.000700617
0.000197213
0.000170261
0.000223717
0.000299838
0.000373557
0.000657599
0.000185426
0.00014379
0.000187283
0.000259635
0.000321448
0.000579713
0.000169232
0.000105883
0.000144242
0.000202528
0.000259278
0.000464185
2.99155e-05
4.92542e-05
8.1136e-05
0.000123501
0.00017953
0.000300532
9.02744e-07
2.6231e-06
8.29204e-06
2.86525e-05
9.28954e-05
0.000154585
0.000190877
0.000518128
0.000768794
0.00100251
0.0012517
0.00153541
0.00184289
0.00216064
0.00248108
0.00280057
0.00311652
0.00342565
0.00372364
0.00400542
0.00426604
0.00450157
0.0047096
0.00488903
0.00503883
0.00515679
0.00523989
0.00528601
0.00531876
0.0053554
0.000552663
0.000767425
0.000895852
0.00109073
0.00137009
0.00169387
0.00203078
0.00236831
0.0027024
0.0030309
0.00335113
0.00365911
0.00394951
0.00421621
0.00445312
0.00465513
0.0048187
0.00494199
0.00502432
0.00506565
0.00506744
0.00503593
0.00499069
0.00497893
0.000708286
0.000796223
0.000960781
0.00121979
0.00153486
0.00187545
0.00222439
0.00257256
0.00291498
0.00324821
0.00356854
0.00387107
0.00414967
0.00439744
0.0046076
0.00477431
0.00489317
0.00496132
0.00497699
0.00493924
0.0048492
0.00471469
0.00455668
0.00442902
0.000735315
0.000852122
0.00105579
0.00133831
0.00167558
0.00203803
0.0024046
0.00276492
0.00311429
0.00344949
0.00376664
0.00406042
0.00432421
0.00455078
0.0047332
0.00486562
0.00494372
0.00496455
0.00492577
0.00482414
0.0046535
0.00440247
0.00404903
0.00354342
0.000742039
0.000897578
0.00113759
0.00145415
0.0018181
0.00219934
0.00257862
0.00294672
0.00329936
0.00363328
0.00394429
0.0042267
0.00447361
0.00467781
0.00483276
0.0049334
0.0049766
0.00496094
0.00488604
0.00475139
0.00455486
0.00429159
0.00395354
0.00352112
0.000751121
0.000945162
0.00122018
0.0015657
0.00195268
0.00235068
0.00274078
0.00311445
0.00346793
0.0037981
0.00410064
0.00436962
0.00459808
0.0047791
0.0049069
0.00497779
0.00499045
0.00494568
0.00484566
0.00469273
0.00448804
0.00423079
0.00391848
0.00353794
0.000773619
0.000997781
0.00130096
0.00167206
0.00207987
0.00249218
0.00289049
0.0032672
0.00361911
0.0039433
0.00423532
0.00448908
0.00469766
0.00485459
0.00495514
0.0049972
0.00498163
0.00491171
0.00479224
0.00462803
0.00442227
0.00417606
0.00388981
0.00355365
0.000802795
0.00105026
0.00137722
0.00177106
0.00219781
0.00262229
0.00302653
0.00340404
0.00375233
0.00406864
0.0043484
0.00458538
0.00477276
0.00490463
0.00497745
0.00499092
0.00494811
0.00485478
0.00471807
0.00454481
0.00433983
0.00410587
0.00384587
0.00355328
0.00083583
0.00110082
0.00144746
0.00186143
0.00230565
0.00274021
0.00314827
0.00352467
0.0038676
0.00417446
0.00444052
0.00465941
0.00482446
0.00493045
0.00497518
0.00496033
0.00489139
0.00477658
0.00462527
0.00444607
0.00424505
0.004026
0.0037933
0.00354271
0.00086867
0.00114681
0.00150933
0.00194241
0.00240281
0.0028455
0.00325554
0.0036292
0.00396539
0.00426157
0.00451284
0.00471267
0.00485459
0.00493421
0.00495087
0.00490849
0.00481507
0.00468137
0.0045188
0.00433734
0.00414373
0.00394212
0.00373721
0.00352605
0.000898644
0.00118518
0.00156339
0.00201419
0.00248903
0.00293803
0.0033485
0.00371818
0.00404658
0.00433122
0.00456696
0.00474714
0.00486555
0.00491876
0.00490791
0.00483932
0.00472374
0.00457435
0.00440432
0.00422444
0.00404147
0.00385915
0.00368161
0.0035064
0.000923117
0.00121825
0.00161041
0.00207652
0.00256408
0.00301789
0.00342764
0.00379243
0.00411236
0.00438496
0.00460484
0.00476519
0.00486015
0.00488741
0.0048501
0.00475723
0.00462234
0.00446092
0.00428742
0.00411281
0.00394311
0.00378105
0.00362949
0.00348604
0.00094326
0.00124611
0.0016502
0.00212915
0.00262787
0.00308544
0.0034937
0.00385304
0.00416415
0.00442456
0.00462862
0.00476938
0.00484139
0.00484361
0.00478142
0.00466667
0.00451575
0.00434615
0.00417305
0.00400684
0.00385222
0.0037104
0.00358265
0.00346646
0.000958742
0.0012688
0.00168273
0.00217208
0.00268046
0.00314127
0.00354763
0.00390126
0.00420351
0.00445192
0.00464057
0.00476237
0.00481235
0.00479088
0.00470575
0.00457187
0.00440836
0.00423434
0.00406503
0.00390961
0.00377094
0.00364847
0.00354187
0.00344854
0.000969801
0.00128661
0.00170823
0.00220564
0.00272208
0.00318613
0.00359051
0.00393844
0.00423205
0.00446893
0.00464292
0.00474678
0.00477601
0.00473252
0.00462672
0.00447661
0.00430391
0.00412884
0.00396606
0.00382289
0.00370014
0.00359552
0.00350726
0.00343275
0.000976699
0.00130028
0.00172717
0.00223063
0.00275291
0.00322101
0.00362355
0.00396598
0.00425138
0.00447748
0.00463784
0.00472508
0.00473517
0.00467163
0.00454757
0.00438412
0.00420533
0.00403203
0.00387765
0.00374734
0.00363978
0.00355114
0.00347849
0.0034193
0.000978291
0.00131202
0.00174033
0.00224783
0.00277404
0.00324706
0.00364801
0.00398528
0.00426305
0.00447929
0.00462732
0.00469954
0.00469236
0.0046109
0.00447104
0.00429696
0.00411476
0.00394532
0.00380041
0.00368279
0.00358921
0.00351456
0.00345504
0.0034082
0.000975692
0.00131826
0.00175255
0.00225772
0.00278709
0.00326551
0.00366517
0.0039977
0.00426853
0.00447598
0.00461314
0.00467215
0.00464977
0.00455265
0.00439938
0.00421709
0.00403358
0.00386936
0.00373421
0.00362856
0.00354744
0.00348482
0.00343627
0.00339934
0.00096973
0.00132336
0.00175645
0.00226608
0.00279249
0.0032776
0.00367622
0.00400452
0.00426914
0.00446894
0.00459685
0.00464463
0.00460927
0.00449879
0.00433435
0.00414586
0.00396252
0.00380419
0.00367849
0.00358367
0.00351337
0.00346093
0.00342151
0.00339253
0.000961021
0.00132918
0.00175978
0.00226596
0.00279709
0.00328356
0.00368229
0.00400693
0.00426605
0.00445939
0.00457972
0.00461839
0.00457236
0.00445082
0.00427726
0.00408413
0.00390183
0.00374938
0.00363236
0.00354701
0.00348587
0.00344186
0.00341005
0.00338741
0.000950662
0.00133805
0.00176462
0.00226496
0.00279298
0.00329145
0.00368493
0.00400606
0.00426038
0.00444834
0.00456283
0.00459456
0.00454028
0.00440995
0.00422908
0.00403242
0.00385142
0.00370433
0.00359485
0.00351755
0.00346402
0.00342688
0.00340116
0.00338352
0.000939934
0.00135355
0.00177411
0.00226648
0.00278882
0.00328869
0.00369011
0.00400447
0.00425345
0.00443653
0.00454701
0.00457404
0.00451397
0.00437716
0.00419063
0.00399113
0.00381119
0.00366846
0.00356511
0.00349433
0.00344698
0.00341539
0.00339442
0.00338071
0.000930791
0.00138124
0.00179263
0.00227415
0.002788
0.00328352
0.00368643
0.00400273
0.00424738
0.00442646
0.00453289
0.00455747
0.00449413
0.00435321
0.00416257
0.00396065
0.00378111
0.00364137
0.00354251
0.00347664
0.00343402
0.00340673
0.00338947
0.0033788
0.000954445
0.00143824
0.00182658
0.00229222
0.00279294
0.00327999
0.00368097
0.00399416
0.0042388
0.00441716
0.00452278
0.0045452
0.00448109
0.00433861
0.00414542
0.00394131
0.00376121
0.00362283
0.00352663
0.00346398
0.00342465
0.00340046
0.00338593
0.00337756
9.77162e-07
8.37584e-06
3.3119e-05
7.3594e-05
0.000121789
0.000173257
2.94039e-05
4.723e-05
0.000106307
0.000190858
0.000306648
0.000514923
4.76145e-05
0.00011264
0.000208738
0.000340223
0.000517319
0.000811282
5.32986e-05
0.000179507
0.000311
0.000483708
0.000704525
0.00102528
5.77478e-05
0.000241339
0.000406891
0.000612788
0.000860679
0.0011778
6.12874e-05
0.000296533
0.000494159
0.000725161
0.00098735
0.00128758
6.40364e-05
0.000344339
0.000571879
0.000821251
0.00108835
0.00136877
6.61281e-05
0.000383943
0.000639307
0.000902158
0.00116864
0.001432
6.76748e-05
0.000415466
0.000695839
0.000969049
0.00123363
0.00147967
6.87622e-05
0.000439156
0.00074103
0.00102495
0.00128389
0.00151656
6.94501e-05
0.000455082
0.000774472
0.00106681
0.00132281
0.00154496
6.97778e-05
0.000462885
0.000797492
0.0010964
0.00135186
0.00156621
6.98127e-05
0.000461234
0.000808094
0.00111351
0.00137159
0.00158087
6.9698e-05
0.000448891
0.000806718
0.00111853
0.00138102
0.00158897
6.93752e-05
0.000427557
0.000792833
0.00111137
0.00137936
0.00158933
6.87844e-05
0.00039903
0.000766797
0.00109101
0.00136495
0.00158161
6.78551e-05
0.000365038
0.000727342
0.00105576
0.00133466
0.00156293
6.64937e-05
0.000327289
0.000675589
0.00100441
0.00128523
0.00152388
6.45625e-05
0.000286327
0.000612349
0.000931853
0.00121039
0.00145653
6.18581e-05
0.000242889
0.000537228
0.000832739
0.0011069
0.00134844
5.80894e-05
0.00019871
0.000445217
0.000700691
0.000956266
0.00117316
5.28385e-05
0.000148781
0.000329275
0.000525551
0.000734404
0.000893989
3.90442e-05
8.10382e-05
0.000180635
0.000300638
0.000434488
0.000471824
1.34974e-06
6.72358e-06
2.53313e-05
6.26876e-05
0.000131037
4.97302e-05
0.00103719
0.00153968
0.00188806
0.00232442
0.00280552
0.00327994
0.00367567
0.0039839
0.00422555
0.00440464
0.00451288
0.004539
0.00447632
0.00433374
0.00413954
0.00393343
0.00375159
0.00361271
0.00351721
0.00345603
0.00341858
0.00339626
0.00338347
0.00337674
0.00125872
0.00165828
0.00196492
0.00236749
0.00282466
0.00328301
0.0036699
0.00397272
0.00421172
0.00439062
0.00450186
0.00453337
0.00447671
0.00433828
0.00414471
0.00393692
0.00375245
0.00361112
0.00351426
0.0034527
0.00341552
0.00339366
0.00338213
0.00337636
0.00142277
0.00176145
0.00204057
0.00241337
0.00284628
0.00328703
0.00366247
0.00395975
0.00419676
0.00437678
0.00449236
0.00453084
0.00448253
0.00435132
0.00416143
0.00395278
0.00376433
0.00361839
0.00351777
0.00345391
0.00341521
0.00339315
0.00338174
0.00337624
0.00152527
0.00184126
0.0021055
0.00245501
0.00286564
0.003289
0.00365192
0.00394406
0.00417995
0.00436224
0.00448363
0.00453121
0.00449399
0.00437303
0.00418927
0.00398088
0.00378791
0.00363548
0.00352886
0.00346048
0.00341883
0.00339491
0.00338249
0.00337643
0.001593
0.00189884
0.00215678
0.00248769
0.00287862
0.00328592
0.00363676
0.00392469
0.00416054
0.00434626
0.00447482
0.00453338
0.00450981
0.00440226
0.00422771
0.00402147
0.00382395
0.00366334
0.00354827
0.00347301
0.00342679
0.00339914
0.00338444
0.00337703
0.00164262
0.00193739
0.00219245
0.0025084
0.0028822
0.0032752
0.00361559
0.00390065
0.00413771
0.00432804
0.00446503
0.00453619
0.0045286
0.00443761
0.00427573
0.00407432
0.0038731
0.00370322
0.00357742
0.00349274
0.00343927
0.00340667
0.00338798
0.0033782
0.00168087
0.00195817
0.00221227
0.00251575
0.00287461
0.00325457
0.00358713
0.00387099
0.00411062
0.00430674
0.00445328
0.00453839
0.00454876
0.00447728
0.00433178
0.0041387
0.00393574
0.00375634
0.00361784
0.00352108
0.00345776
0.00341797
0.00339391
0.00338026
0.00171005
0.00196655
0.00221779
0.0025096
0.0028549
0.00322253
0.00355026
0.00383471
0.00407834
0.00428142
0.00443853
0.00453867
0.00456857
0.00451913
0.00439371
0.00421313
0.0040116
0.00382369
0.00367128
0.00355989
0.00348388
0.00343408
0.00340258
0.0033835
0.00173168
0.00196598
0.00221059
0.00249034
0.00282243
0.00317909
0.00350409
0.00379084
0.00403989
0.00425109
0.00441966
0.00453565
0.00458618
0.0045608
0.00445887
0.00429531
0.00409958
0.00390564
0.00373925
0.00361118
0.0035195
0.00345658
0.0034148
0.00338819
0.00174734
0.00195957
0.0021912
0.00245862
0.00277722
0.00312409
0.00344785
0.00373837
0.00399419
0.00421463
0.0043955
0.00452792
0.00459977
0.00459987
0.00452427
0.00438225
0.00419752
0.00400167
0.00382279
0.00367687
0.00356667
0.00348716
0.0034318
0.00339484
0.00175841
0.00194939
0.00216187
0.00241573
0.00271988
0.00305741
0.00338081
0.00367628
0.00394009
0.00417085
0.00436479
0.00451409
0.00460761
0.00463398
0.00458681
0.00447037
0.00430223
0.00410992
0.00392192
0.00375847
0.00362751
0.00352782
0.00345502
0.0034041
0.00176592
0.00193677
0.00212631
0.00236369
0.0026515
0.00297913
0.00330234
0.00360353
0.00387636
0.00411845
0.00432621
0.00449276
0.00460802
0.00466089
0.00464339
0.00455568
0.00440944
0.00422696
0.004035
0.00385629
0.00370364
0.00358052
0.00348598
0.00341653
0.00177053
0.00192316
0.00208785
0.00230424
0.00257358
0.00288957
0.00321199
0.00351915
0.00380175
0.00405604
0.00427833
0.00446247
0.00459938
0.00467853
0.00469109
0.00463411
0.00451414
0.0043478
0.00415832
0.00396873
0.00379544
0.00364673
0.00352609
0.00343269
0.00177229
0.00190976
0.00204924
0.0022398
0.00248812
0.00278943
0.00310959
0.00342229
0.003715
0.00398216
0.00421963
0.00442167
0.00458007
0.00468498
0.00472726
0.00470185
0.00461113
0.00446636
0.00428617
0.00409178
0.00390119
0.00372659
0.00357624
0.00345294
0.00177032
0.00189726
0.00201242
0.00217375
0.00239784
0.00268026
0.00299555
0.00331243
0.00361499
0.00389537
0.00414851
0.00436874
0.00454845
0.00467846
0.00474962
0.00475557
0.00469555
0.00457626
0.00441144
0.00421901
0.00401645
0.00381809
0.0036361
0.00347722
0.00176188
0.0018859
0.00197879
0.0021092
0.00230545
0.00256492
0.00287092
0.00318945
0.00350083
0.00379431
0.00406336
0.00430196
0.00450283
0.00465723
0.0047562
0.00479256
0.00476334
0.00467158
0.00452658
0.00434231
0.00413406
0.00391626
0.00370319
0.00350456
0.00174415
0.00187477
0.00194855
0.00204885
0.00221358
0.00244646
0.00273744
0.00305391
0.00337213
0.00367789
0.00396268
0.00421967
0.00444149
0.00461966
0.00474531
0.00481073
0.0048114
0.00474755
0.00462478
0.00445315
0.00424497
0.00401322
0.00377217
0.00353241
0.00172147
0.00185386
0.00191962
0.00199401
0.00212529
0.00232842
0.00259759
0.00290734
0.0032292
0.00354553
0.00384528
0.00412031
0.00436278
0.00456415
0.00471544
0.00480852
0.00483763
0.00480086
0.0047008
0.00454409
0.00433997
0.00409924
0.00383472
0.00355593
0.00168702
0.00181643
0.00188944
0.00194457
0.00204337
0.00221383
0.00245609
0.00275257
0.00307336
0.00339734
0.00371044
0.00400266
0.00426524
0.0044892
0.00466526
0.00478473
0.00484076
0.00482965
0.00475148
0.00460997
0.00441151
0.00416473
0.00388071
0.00356766
0.00162468
0.00175478
0.00185562
0.00189888
0.00196947
0.00210556
0.00231713
0.00259319
0.00290694
0.00323438
0.0035582
0.00386605
0.00414777
0.00439359
0.00459364
0.00473848
0.00482015
0.00483326
0.00477563
0.00464833
0.00445512
0.00420251
0.00390026
0.003558
0.00150891
0.00166128
0.00180885
0.00185221
0.00190288
0.0020062
0.00218426
0.00243361
0.00273351
0.00305891
0.0033896
0.00371059
0.00400989
0.00427655
0.0044998
0.00466927
0.00477572
0.00481202
0.00477378
0.00465942
0.00446998
0.00420951
0.00388652
0.00351688
0.00130234
0.00151438
0.00173423
0.00179632
0.00183992
0.00191684
0.0020605
0.00227864
0.00255766
0.00287442
0.00320688
0.00353744
0.00385198
0.00413802
0.00438361
0.00457717
0.00470805
0.00476723
0.00474798
0.00464593
0.00445894
0.00418768
0.00383796
0.00343617
0.000910741
0.00130132
0.00161067
0.00172012
0.00177398
0.00183548
0.00194837
0.00213263
0.00238451
0.0026855
0.00301352
0.00334896
0.00367551
0.00397892
0.00424581
0.00446321
0.00461882
0.00470164
0.00470236
0.0046135
0.0044291
0.00414488
0.00376043
0.00331253
0.000358811
0.000918653
0.00136358
0.00160681
0.00169408
0.00175623
0.00184718
0.00199889
0.00221933
0.00249764
0.00281425
0.00314879
0.00348315
0.0038013
0.00408829
0.00432966
0.00451144
0.00462046
0.00464473
0.00457327
0.00439545
0.0040998
0.0036736
0.00315261
1.22785e-06
5.95073e-06
1.87043e-05
3.7026e-05
5.5812e-05
8.69988e-05
3.62895e-05
7.56683e-05
0.000139786
0.000188816
0.000222165
0.00023654
5.07221e-05
0.000141346
0.000251766
0.000322954
0.000363457
0.000358293
5.57055e-05
0.000189985
0.000337351
0.000426063
0.000473141
0.000468925
5.94435e-05
0.000231548
0.000404158
0.000507381
0.000560507
0.000567667
6.23264e-05
0.000270181
0.000460048
0.000574046
0.000634055
0.000653115
6.4591e-05
0.000306521
0.000508112
0.000629525
0.000696883
0.000726429
6.6383e-05
0.000339928
0.000548715
0.000675821
0.000751152
0.000789452
6.77976e-05
0.000369304
0.000581759
0.000713925
0.000796859
0.000844045
6.8905e-05
0.000393358
0.000607237
0.000743621
0.000834057
0.000890118
6.97676e-05
0.00041075
0.000624825
0.000765302
0.000863526
0.00092822
7.03618e-05
0.000421218
0.000634397
0.000779079
0.000885557
0.000959517
7.05498e-05
0.000425463
0.000635835
0.000784681
0.000899955
0.000984424
7.03876e-05
0.000423529
0.000628611
0.000780785
0.000905146
0.00100278
6.97988e-05
0.000415319
0.000613152
0.000768445
0.000902055
0.00101104
6.87653e-05
0.000400525
0.000588537
0.000745532
0.000887704
0.00101155
6.72452e-05
0.000378656
0.000554153
0.000710831
0.000859909
0.00100057
6.51752e-05
0.000349082
0.000509323
0.000662995
0.000815856
0.000974759
6.24689e-05
0.000311096
0.000453919
0.00060043
0.000751875
0.000929015
5.90177e-05
0.000264267
0.000387596
0.000520893
0.000662277
0.000856199
5.46434e-05
0.000208306
0.000309579
0.000423784
0.000546989
0.000740838
4.90239e-05
0.000143139
0.00021961
0.00030967
0.000406721
0.000560344
3.24661e-05
6.84697e-05
0.000117661
0.000182273
0.000251388
0.00032529
9.59975e-07
7.40884e-06
2.6106e-05
6.27639e-05
0.000118508
0.000198773
0.000239845
0.000707922
0.00114124
0.00147488
0.001602
0.00167635
0.00175533
0.00187913
0.00206665
0.00231662
0.00261468
0.00294168
0.00327866
0.00360816
0.00391385
0.00417995
0.00439106
0.00453229
0.00458932
0.00454797
0.00439288
0.00410461
0.00365376
0.0030173
0.000180432
0.000577205
0.000944686
0.00128942
0.00149827
0.00159319
0.00167018
0.00177319
0.00192953
0.0021477
0.00242075
0.00273311
0.00306652
0.00340296
0.00372528
0.00401708
0.00426257
0.00444679
0.00455571
0.00457612
0.00449718
0.00432154
0.00410096
0.00395835
0.000210881
0.000484718
0.000821617
0.00114606
0.00140684
0.00151398
0.00159208
0.00168039
0.00180928
0.00199478
0.00223793
0.0025287
0.00285145
0.00318894
0.00352424
0.00384142
0.0041261
0.00436615
0.00455216
0.00467762
0.00473985
0.00474568
0.00472217
0.00471439
0.0003301
0.000433312
0.000719288
0.000994047
0.00126793
0.00142901
0.0015163
0.00159768
0.00170505
0.00185982
0.00207046
0.00233366
0.00263823
0.00296934
0.00331152
0.00365055
0.00397462
0.00427501
0.00454576
0.00478181
0.00497708
0.00512581
0.00522505
0.00529504
0.000484627
0.000429157
0.000660077
0.000886939
0.00114764
0.00135035
0.00144433
0.00152299
0.00161472
0.00174274
0.00192088
0.0021524
0.00243175
0.00274809
0.00308888
0.00344273
0.00380104
0.00415797
0.00450792
0.00484126
0.00514194
0.00538602
0.00556291
0.00567667
0.00062204
0.000473453
0.000626875
0.00080493
0.00102757
0.00124701
0.00137042
0.00145256
0.0015352
0.00164194
0.00179
0.00198815
0.00223675
0.00253002
0.00285962
0.00321801
0.00360028
0.00400294
0.00441917
0.00483262
0.00521623
0.00552389
0.00576557
0.00590298
0.000723787
0.000547567
0.000625894
0.00074809
0.000929795
0.00114404
0.00130013
0.00138582
0.0014637
0.00155476
0.00167699
0.00184269
0.00205734
0.00232054
0.00262888
0.00297934
0.00337107
0.00380316
0.0042679
0.0047437
0.00518699
0.00555541
0.00584222
0.00600286
0.000801176
0.000651971
0.000658705
0.000719406
0.000859424
0.00104691
0.00121798
0.00131741
0.00139671
0.00147799
0.00157971
0.00171614
0.00189643
0.00212493
0.00240314
0.00273276
0.00311724
0.00355896
0.00405112
0.00456946
0.00505785
0.00547785
0.00580095
0.00598727
0.000864606
0.000761776
0.000710345
0.000727104
0.000812695
0.000964327
0.00113112
0.00124835
0.0013311
0.00140781
0.00149497
0.00160703
0.00175524
0.00194743
0.00218925
0.00248665
0.00284727
0.00327753
0.00377393
0.0043133
0.00483391
0.00529437
0.00564702
0.00586204
0.000919975
0.000857741
0.000784132
0.000758756
0.000797625
0.000906299
0.00105352
0.00117541
0.00126572
0.00134189
0.0014197
0.00151292
0.00163334
0.00179064
0.00199328
0.00225035
0.00257292
0.00297169
0.0034485
0.00398533
0.00452347
0.00501017
0.00539429
0.00562946
0.000968016
0.00093844
0.000867469
0.000827232
0.000799232
0.000876103
0.000989793
0.00110483
0.00119908
0.00127717
0.00135036
0.00143049
0.00152866
0.00165507
0.00181941
0.0020324
0.00230718
0.00265794
0.00309278
0.00360205
0.0041408
0.00463737
0.00504924
0.00530025
0.00101014
0.00100585
0.000950972
0.000908339
0.000838332
0.000865048
0.000952925
0.00105014
0.00113795
0.00121521
0.00128537
0.00135679
0.00143829
0.00153924
0.00166918
0.00183891
0.00206188
0.002354
0.00272875
0.0031865
0.00370264
0.00419329
0.00462232
0.00488656
0.00104756
0.00106297
0.00103031
0.000988713
0.000914473
0.000885792
0.000931223
0.00100894
0.00108598
0.00115864
0.00122522
0.00129004
0.00135954
0.00144072
0.00154195
0.00167289
0.00184572
0.00207587
0.00237967
0.00276672
0.00322754
0.00370373
0.00412575
0.00440698
0.00107902