/*--------------------------------*- C++ -*----------------------------------*\
  =========                 |
  \\      /  F ield         | OpenFOAM: The Open Source CFD Toolbox
   \\    /   O peration     | Website:  https://openfoam.org
    \\  /    A nd           | Version:  11
     \\/     M anipulation  |
\*---------------------------------------------------------------------------*/
FoamFile
{
    format      ascii;
    class       volScalarField;
    location    "1.48";
    object      p;
}
// * * * * * * * * * * * * * * * * * * * * * * * * * * * * * * * * * * * * * //

dimensions      [0 2 -2 0 0 0 0];

internalField   nonuniform List<scalar> 
2880
(
-0.746022
-0.753693
-0.755451
-0.748192
-0.694983
-0.5885
-0.74064
-0.751922
-0.754546
-0.751039
-0.715544
-0.657351
-0.730243
-0.748446
-0.751622
-0.750783
-0.727375
-0.698275
-0.725151
-0.746119
-0.750116
-0.751543
-0.737514
-0.722241
-0.730821
-0.746258
-0.750965
-0.754823
-0.747982
-0.740003
-0.742143
-0.748371
-0.753775
-0.759813
-0.758699
-0.755963
-0.749498
-0.751169
-0.757671
-0.765661
-0.769356
-0.771257
-0.752868
-0.753997
-0.762066
-0.771873
-0.779758
-0.785998
-0.755721
-0.756567
-0.766605
-0.778129
-0.789718
-0.800071
-0.758585
-0.75876
-0.770981
-0.78415
-0.798997
-0.813186
-0.761284
-0.760465
-0.774929
-0.789664
-0.807313
-0.824903
-0.7634
-0.761561
-0.778284
-0.794447
-0.814385
-0.834704
-0.764611
-0.761996
-0.780952
-0.798351
-0.819959
-0.842097
-0.764789
-0.761732
-0.782951
-0.801313
-0.823858
-0.846709
-0.76396
-0.760679
-0.784287
-0.803399
-0.826036
-0.84835
-0.762279
-0.758759
-0.78503
-0.804729
-0.826606
-0.847024
-0.763619
-0.756076
-0.78541
-0.805533
-0.825844
-0.843035
-0.76773
-0.755051
-0.785832
-0.80619
-0.824315
-0.837456
-0.769379
-0.755443
-0.786295
-0.807047
-0.822983
-0.832501
-0.768185
-0.755799
-0.786518
-0.808129
-0.823296
-0.830939
-0.766057
-0.75532
-0.785915
-0.809412
-0.826266
-0.838892
-0.759487
-0.75297
-0.783933
-0.81064
-0.831822
-0.867772
-0.74989
-0.749227
-0.781294
-0.81138
-0.838259
-0.910776
-0.745255
-0.746826
-0.780632
-0.813148
-0.84405
-0.935163
-0.72723
-0.701766
-0.659677
-0.606736
-0.546019
-0.48094
-0.415561
-0.353152
-0.295801
-0.244636
-0.200108
-0.162122
-0.130118
-0.103414
-0.0812528
-0.0629099
-0.0477698
-0.0353374
-0.0251907
-0.0169842
-0.0105032
-0.00567875
-0.0026632
-0.00139342
-0.717556
-0.697151
-0.658737
-0.606162
-0.544466
-0.477822
-0.410826
-0.347062
-0.288735
-0.236941
-0.192113
-0.15401
-0.122135
-0.0957814
-0.0741801
-0.0566256
-0.0424767
-0.0311412
-0.022111
-0.0150045
-0.00954457
-0.00570526
-0.00376954
-0.00262399
-0.72453
-0.70049
-0.663392
-0.61103
-0.547897
-0.479007
-0.409569
-0.343576
-0.283452
-0.230317
-0.184528
-0.145826
-0.113644
-0.0872784
-0.0660097
-0.0491127
-0.0358338
-0.0254799
-0.0174965
-0.0114714
-0.00709019
-0.00401524
-0.00164405
0.00108203
-0.734351
-0.71006
-0.674172
-0.621572
-0.556432
-0.484376
-0.411437
-0.342155
-0.279258
-0.223982
-0.176605
-0.136777
-0.103817
-0.076931
-0.0552951
-0.0380984
-0.0246227
-0.0142825
-0.00660095
-0.00112583
0.00257475
0.00512477
0.00769032
0.00868944
-0.746196
-0.724558
-0.690563
-0.637875
-0.570211
-0.493901
-0.416133
-0.342288
-0.275515
-0.217227
-0.167636
-0.126257
-0.0922647
-0.064754
-0.0428293
-0.0256462
-0.012465
-0.00265808
0.00430264
0.00887057
0.0114782
0.0128809
0.0142259
0.012742
-0.76041
-0.743098
-0.712199
-0.660011
-0.589401
-0.507678
-0.423678
-0.344015
-0.272422
-0.210442
-0.158168
-0.114962
-0.0798156
-0.0516658
-0.0295191
-0.0124646
0.000279813
0.00936681
0.0153376
0.0186362
0.0196623
0.0190287
0.0174277
0.0128624
-0.776603
-0.765088
-0.738812
-0.687884
-0.613962
-0.525664
-0.434159
-0.347657
-0.270473
-0.204436
-0.14946
-0.104625
-0.0686302
-0.0401807
-0.0181094
-0.00139613
0.0108149
0.0192138
0.0243503
0.0266755
0.0265642
0.0246033
0.0210943
0.0151354
-0.794166
-0.789778
-0.769776
-0.720975
-0.643319
-0.547003
-0.446305
-0.351559
-0.268358
-0.19842
-0.141272
-0.0954359
-0.0592343
-0.0310978
-0.00962432
0.00636633
0.0178584
0.025588
0.0300781
0.03174
0.0308846
0.028471
0.0241011
0.0188904
-0.812309
-0.81612
-0.804048
-0.758161
-0.676242
-0.570101
-0.458639
-0.355367
-0.266346
-0.1931
-0.134501
-0.0884286
-0.052692
-0.0253883
-0.00491868
0.0099799
0.0206195
0.0278466
0.032061
0.0334379
0.0316467
0.0284047
0.022785
0.0195771
-0.830077
-0.842667
-0.83996
-0.7975
-0.710736
-0.594222
-0.472754
-0.361966
-0.268263
-0.19283
-0.133728
-0.0880958
-0.0532618
-0.0270002
-0.00756046
0.00600886
0.0154314
0.0223141
0.0266714
0.0290573
0.029996
0.0290697
0.0249652
0.0229785
-0.846339
-0.867468
-0.875184
-0.835553
-0.743733
-0.618432
-0.489088
-0.373222
-0.27713
-0.201071
-0.14214
-0.0969147
-0.0625875
-0.0366495
-0.0169695
-0.00186458
0.00889951
0.0160146
0.0206942
0.0232285
0.0237996
0.0230673
0.0216603
0.0252224
-0.859884
-0.888348
-0.906798
-0.867105
-0.770308
-0.63766
-0.503337
-0.385313
-0.289067
-0.213791
-0.155685
-0.110881
-0.0761878
-0.0493605
-0.0288393
-0.0132836
-0.00166494
0.0070111
0.013518
0.0177435
0.0200288
0.0214149
0.0232649
0.0293001
-0.869748
-0.905478
-0.927687
-0.886432
-0.783229
-0.645237
-0.508902
-0.39161
-0.297097
-0.223784
-0.167079
-0.122915
-0.0882989
-0.0609945
-0.0393613
-0.0221089
-0.00866071
0.00140023
0.00913987
0.0150252
0.0198883
0.024246
0.0297262
0.0344915
-0.874903
-0.915098
-0.935052
-0.889226
-0.777891
-0.637071
-0.502352
-0.388142
-0.297287
-0.226762
-0.171876
-0.128524
-0.0940186
-0.0664237
-0.0442406
-0.0263087
-0.0116584
-0.000154537
0.00878435
0.0165431
0.0230262
0.0286377
0.0359362
0.039333
-0.874901
-0.916721
-0.925753
-0.872723
-0.75366
-0.612957
-0.482664
-0.374304
-0.289623
-0.222167
-0.169416
-0.127415
-0.0935488
-0.0660809
-0.0436845
-0.025334
-0.0102247
0.00235603
0.0126515
0.021014
0.0279348
0.034928
0.0449456
0.0478135
-0.869823
-0.909965
-0.900665
-0.836781
-0.712133
-0.574229
-0.451548
-0.352334
-0.273068
-0.209814
-0.159733
-0.119538
-0.0868455
-0.0600504
-0.0379525
-0.0196147
-0.0043234
0.00847205
0.0191832
0.0281377
0.0358172
0.0441738
0.0568865
0.0589847
-0.86011
-0.890776
-0.863779
-0.784513
-0.656652
-0.524951
-0.411611
-0.321292
-0.248553
-0.190249
-0.14342
-0.10542
-0.0742415
-0.0484567
-0.0270028
-0.00904933
0.00605846
0.0188325
0.0296742
0.0388721
0.0469058
0.0562544
0.0711441
0.071439
-0.847311
-0.8521
-0.816821
-0.719546
-0.590449
-0.467237
-0.364693
-0.282918
-0.217249
-0.164165
-0.12106
-0.0857462
-0.0565127
-0.0321074
-0.0116051
0.00570492
0.020383
0.0328813
0.0435579
0.0526457
0.0606562
0.0705574
0.0868425
0.0846612
-0.832325
-0.798836
-0.755154
-0.643652
-0.516193
-0.40338
-0.311913
-0.238977
-0.180293
-0.1326
-0.0935152
-0.0611928
-0.0342122
-0.0115084
0.00771672
0.0240733
0.038038
0.0499963
0.0602579
0.0689937
0.0767228
0.0868514
0.10412
0.0991712
-0.81083
-0.746686
-0.678064
-0.55746
-0.436062
-0.33481
-0.254406
-0.19049
-0.138915
-0.0967351
-0.0618714
-0.0327723
-0.00826497
0.0125292
0.0302704
0.0454616
0.0584977
0.0697051
0.079342
0.0875175
0.0947531
0.104832
0.122723
0.114953
-0.763865
-0.694676
-0.588425
-0.46204
-0.350679
-0.262285
-0.193282
-0.138491
-0.0940879
-0.0575197
-0.0270281
-0.00133963
0.0204934
0.0391803
0.0552527
0.0691117
0.0810707
0.0913915
0.100267
0.107732
0.114309
0.124112
0.142333
0.131969
-0.690137
-0.6151
-0.480613
-0.357199
-0.26041
-0.186561
-0.129447
-0.0839682
-0.0468142
-0.0159101
0.0101325
0.0323045
0.0513385
0.0677836
0.0820516
0.0944514
0.105224
0.114568
0.122604
0.129277
0.135102
0.144485
0.162856
0.150402
-0.606377
-0.478923
-0.347094
-0.243529
-0.166725
-0.10898
-0.0641813
-0.0280808
0.00185239
0.027121
0.0487108
0.0673276
0.0834994
0.0976267
0.110012
0.12088
0.130407
0.138736
0.145908
0.151768
0.156812
0.165667
0.184038
0.170334
-0.475011
-0.29297
-0.193733
-0.124665
-0.0722521
-0.031509
0.00102073
0.0279736
0.0509076
0.0707004
0.087928
0.103023
0.116324
0.128099
0.138554
0.147844
0.15609
0.163386
0.16971
0.174806
0.179108
0.187335
0.205514
0.191911
0.979473
1.00201
1.02793
1.04788
1.00464
0.761939
0.981571
0.998512
1.01284
1.01788
0.931265
0.753993
0.983444
0.993671
0.998041
0.992436
0.907409
0.755092
0.982015
0.988938
0.987388
0.975082
0.898987
0.767407
0.980469
0.985416
0.980618
0.964741
0.89796
0.783606
0.979775
0.98301
0.976417
0.959221
0.899393
0.798204
0.97907
0.981287
0.973881
0.956522
0.90129
0.810793
0.978183
0.979937
0.972464
0.955176
0.903302
0.821769
0.977161
0.978775
0.971761
0.954493
0.905501
0.831613
0.976075
0.97768
0.971486
0.95429
0.908104
0.840575
0.974961
0.976578
0.971481
0.954571
0.911322
0.848774
0.973839
0.975562
0.971647
0.95523
0.914644
0.857113
0.972759
0.974545
0.971958
0.95643
0.91866
0.86513
0.971786
0.973569
0.972382
0.958186
0.923347
0.872892
0.970992
0.972688
0.972881
0.96045
0.928645
0.880445
0.970464
0.971968
0.973391
0.963138
0.934461
0.887782
0.970261
0.971512
0.973806
0.966123
0.940643
0.894807
0.970286
0.971421
0.973984
0.969198
0.946884
0.901198
0.969773
0.971585
0.973764
0.971971
0.952603
0.906214
0.968029
0.971526
0.972979
0.973743
0.956975
0.909031
0.966393
0.971005
0.971386
0.973492
0.959542
0.910255
0.967526
0.969766
0.96887
0.970331
0.960278
0.910712
0.970973
0.968348
0.965286
0.963934
0.956239
0.887131
0.972904
0.966987
0.961417
0.956126
0.931534
0.744794
-0.0854802
-0.10132
-0.0461108
-0.00951263
0.0189962
0.0434939
0.0645915
0.0830582
0.0994469
0.114058
0.127106
0.138782
0.14926
0.158689
0.167192
0.174867
0.181793
0.188031
0.193527
0.197977
0.201703
0.209201
0.22678
0.215798
0.192463
0.0710987
0.0839628
0.0946266
0.103652
0.114232
0.125357
0.13629
0.146744
0.156569
0.165695
0.174116
0.181863
0.188982
0.195524
0.201533
0.207056
0.212139
0.216756
0.220656
0.223941
0.230073
0.245788
0.24547
0.367736
0.223863
0.198283
0.186857
0.180886
0.180264
0.182874
0.187164
0.192294
0.197768
0.203283
0.208666
0.213823
0.218706
0.223292
0.227567
0.231532
0.23521
0.238616
0.241562
0.243575
0.245536
0.254982
0.287608
0.488717
0.345759
0.294859
0.267568
0.25046
0.240953
0.236498
0.235139
0.235657
0.237295
0.239575
0.242196
0.244965
0.247752
0.250463
0.25302
0.255366
0.25748
0.259318
0.26051
0.260369
0.261101
0.274055
0.29825
0.57219
0.439747
0.375786
0.3376
0.312327
0.296088
0.286029
0.28001
0.276618
0.274941
0.274387
0.274564
0.275205
0.276117
0.277151
0.278181
0.279115
0.279902
0.280418
0.280116
0.278577
0.280026
0.296255
0.307028
0.631732
0.511629
0.442641
0.398014
0.367126
0.345897
0.331469
0.321683
0.315047
0.310571
0.307594
0.305665
0.304467
0.303763
0.303362
0.303108
0.302888
0.302637
0.302183
0.300919
0.298713
0.300838
0.318639
0.322502
0.675363
0.567567
0.498088
0.450055
0.415464
0.390657
0.372924
0.360171
0.350909
0.344122
0.339119
0.335419
0.332674
0.330614
0.329023
0.327722
0.326583
0.325528
0.324358
0.322443
0.319816
0.322218
0.340536
0.340838
0.708432
0.611942
0.544268
0.494867
0.458038
0.430767
0.410609
0.395578
0.384235
0.37558
0.36892
0.363762
0.359742
0.356572
0.354015
0.351876
0.350015
0.348346
0.34665
0.344288
0.34139
0.34389
0.362201
0.360524
0.734473
0.647845
0.583019
0.533529
0.495517
0.466658
0.444786
0.428054
0.415101
0.404968
0.39698
0.390649
0.385602
0.381541
0.378215
0.375415
0.372993
0.370855
0.36877
0.366098
0.363038
0.36555
0.383504
0.380708
0.755711
0.677458
0.615796
0.566999
0.528556
0.498768
0.475744
0.457781
0.443614
0.432339
0.423312
0.416055
0.4102
0.405439
0.401513
0.398203
0.395354
0.392866
0.390501
0.387628
0.384499
0.386969
0.404288
0.400904
0.773568
0.702306
0.643783
0.596118
0.557754
0.527518
0.503772
0.484956
0.4699
0.457765
0.447942
0.439974
0.433497
0.428202
0.423821
0.420128
0.416961
0.414219
0.411661
0.408676
0.405554
0.407942
0.424392
0.420775
0.789013
0.723495
0.66791
0.621598
0.58364
0.553296
0.52915
0.509774
0.494092
0.481328
0.470913
0.462412
0.455471
0.449781
0.445065
0.441093
0.4377
0.434781
0.4321
0.429075
0.426022
0.42829
0.443675
0.44007
0.802567
0.741812
0.688896
0.644025
0.606671
0.576448
0.552138
0.532425
0.516323
0.503114
0.492272
0.483387
0.476111
0.470138
0.465186
0.46102
0.457474
0.454441
0.451692
0.448684
0.445748
0.447857
0.462018
0.458592
0.814595
0.757813
0.707289
0.663876
0.627238
0.597284
0.57297
0.553088
0.536721
0.523212
0.512074
0.502919
0.495412
0.489247
0.484139
0.479847
0.476203
0.473104
0.47033
0.467384
0.464597
0.466513
0.479324
0.476185
0.825322
0.771899
0.723516
0.68154
0.645669
0.616071
0.591862
0.571925
0.555409
0.541707
0.530369
0.521033
0.513375
0.507088
0.501883
0.497517
0.49382
0.49069
0.487923
0.48507
0.482455
0.484144
0.495516
0.492728
0.834856
0.784359
0.737914
0.697345
0.662251
0.633048
0.609002
0.589087
0.572498
0.558676
0.547209
0.537756
0.530003
0.523645
0.518388
0.513984
0.510266
0.50713
0.504391
0.501652
0.499221
0.500656
0.510538
0.508127
0.843192
0.795374
0.750767
0.711567
0.677233
0.648426
0.624564
0.604708
0.588089
0.574193
0.562638
0.553108
0.545299
0.538903
0.533623
0.529208
0.525487
0.522362
0.519663
0.517052
0.514807
0.515972
0.524351
0.522318
0.850201
0.805065
0.762305
0.72446
0.690841
0.662395
0.638701
0.618906
0.602271
0.588318
0.576697
0.567111
0.559263
0.552848
0.547562
0.543148
0.539436
0.536329
0.533678
0.531199
0.529142
0.530038
0.536947
0.535258
0.855688
0.813599
0.772751
0.736254
0.70328
0.675125
0.651545
0.631784
0.61512
0.601106
0.589418
0.579776
0.571895
0.565465
0.560177
0.55577
0.552069
0.548982
0.546379
0.544032
0.542171
0.542847
0.54837
0.546831
0.859747
0.821215
0.782373
0.747175
0.714743
0.686773
0.663218
0.643431
0.6267
0.612598
0.600823
0.591113
0.583188
0.576736
0.571441
0.567033
0.563338
0.560262
0.557693
0.555461
0.553791
0.554302
0.558452
0.55663
0.862972
0.828146
0.79148
0.757491
0.725417
0.697478
0.67382
0.65392
0.637058
0.622823
0.610928
0.601123
0.593132
0.586641
0.581324
0.576903
0.573198
0.570114
0.567556
0.5654
0.563841
0.564073
0.566944
0.565287
0.865208
0.834963
0.800589
0.76753
0.73549
0.707347
0.683423
0.66329
0.646223
0.631797
0.619737
0.6098
0.601715
0.595162
0.589804
0.585356
0.581627
0.578522
0.575962
0.573859
0.572347
0.572233
0.574041
0.572926
0.863775
0.844053
0.810688
0.777639
0.745105
0.716443
0.692057
0.671554
0.654191
0.639512
0.627239
0.61713
0.608917
0.602276
0.59686
0.59237
0.588608
0.585475
0.582907
0.580845
0.57937
0.578969
0.57993
0.579234
0.865058
0.859717
0.822543
0.787955
0.754268
0.724748
0.699695
0.678688
0.660935
0.645938
0.633403
0.623086
0.614712
0.607955
0.60246
0.597914
0.59411
0.590942
0.588359
0.586321
0.58487
0.584252
0.584569
0.584186
1.10756
1.08486
1.06279
1.05014
1.09551
1.19789
1.11084
1.0881
1.06529
1.04927
1.07311
1.11052
1.11353
1.09377
1.07001
1.05164
1.06032
1.06096
1.11383
1.09777
1.07332
1.05333
1.0508
1.03568
1.11232
1.09883
1.07414
1.05269
1.04183
1.0198
1.10978
1.09781
1.07309
1.05044
1.03329
1.00732
1.10651
1.0958
1.07095
1.04734
1.02539
0.996712
1.10272
1.09351
1.06826
1.04379
1.01808
0.987371
1.09874
1.09139
1.06539
1.03999
1.01114
0.978667
1.09504
1.08976
1.06266
1.03611
1.00438
0.970066
1.0921
1.08886
1.06031
1.03226
0.997611
0.961163
1.09033
1.08888
1.05849
1.02852
0.99074
0.951618
1.08997
1.08996
1.05733
1.02501
0.983658
0.941107
1.09115
1.09207
1.05698
1.0218
0.976271
0.929319
1.09378
1.09532
1.05745
1.01902
0.968507
0.915929
1.09763
1.09954
1.05874
1.01675
0.960321
0.900523
1.10236
1.1044
1.06081
1.01505
0.951746
0.882724
1.10749
1.10946
1.06348
1.01399
0.942844
0.862133
1.11249
1.11423
1.06648
1.01365
0.933736
0.838547
1.1168
1.11822
1.06961
1.01448
0.924861
0.812034
1.12005
1.12137
1.07336
1.01784
0.917603
0.783776
1.12252
1.12467
1.07943
1.02579
0.915033
0.757715
1.12541
1.12917
1.0886
1.03685
0.920082
0.739343
1.12852
1.13247
1.09468
1.03821
0.934829
0.730331
0.927264
0.878973
0.834985
0.798049
0.762743
0.732112
0.70624
0.68462
0.666401
0.651029
0.638188
0.627624
0.619061
0.612164
0.606571
0.601956
0.598099
0.594891
0.592284
0.590253
0.588809
0.588034
0.58792
0.587758
0.953881
0.897065
0.846441
0.806852
0.770002
0.738249
0.711522
0.689241
0.670508
0.654724
0.641546
0.630705
0.621923
0.614862
0.609153
0.604458
0.600543
0.597289
0.59465
0.592607
0.591152
0.590283
0.589954
0.589921
0.957684
0.906479
0.854708
0.813503
0.775553
0.742854
0.71534
0.692415
0.67316
0.656951
0.643418
0.632282
0.623259
0.616014
0.610172
0.605385
0.601405
0.598102
0.595425
0.593354
0.591871
0.590967
0.590645
0.590656
0.956694
0.90957
0.859347
0.817621
0.77908
0.745686
0.717512
0.694003
0.674253
0.657628
0.643742
0.632303
0.623027
0.61558
0.60959
0.604702
0.600652
0.597298
0.594576
0.592454
0.590924
0.590075
0.589989
0.589917
0.953835
0.909166
0.860902
0.819208
0.780451
0.746593
0.717897
0.693884
0.673684
0.656672
0.642449
0.630713
0.621179
0.613522
0.607374
0.602375
0.598253
0.594846
0.592078
0.589892
0.588301
0.587566
0.587938
0.587702
0.949923
0.906557
0.859909
0.818408
0.779639
0.745489
0.716392
0.691958
0.671364
0.654005
0.639472
0.627456
0.617672
0.609802
0.60349
0.598376
0.594178
0.590721
0.587904
0.585643
0.583983
0.583436
0.584485
0.583978
0.945095
0.902183
0.856689
0.815357
0.776656
0.74232
0.712917
0.688137
0.667211
0.649553
0.634748
0.622478
0.612459
0.604384
0.597907
0.592676
0.588402
0.584897
0.582034
0.579693
0.577964
0.577692
0.579645
0.578685
0.939244
0.896204
0.851419
0.810143
0.771507
0.737041
0.707402
0.682343
0.661146
0.643244
0.628213
0.615727
0.6055
0.597235
0.590599
0.585251
0.580901
0.577348
0.574439
0.572006
0.570178
0.570174
0.573256
0.572059
0.93222
0.88863
0.844135
0.802772
0.764156
0.729592
0.699772
0.674495
0.653094
0.635009
0.619806
0.60715
0.596752
0.588321
0.58154
0.57608
0.571653
0.56805
0.565086
0.56254
0.560548
0.560738
0.565103
0.564067
0.923842
0.879328
0.834737
0.793162
0.754516
0.719883
0.689932
0.664504
0.642971
0.624772
0.609463
0.596695
0.586174
0.577614
0.570713
0.565154
0.560655
0.557001
0.553981
0.551307
0.549126
0.549526
0.55526
0.554228
0.913874
0.868033
0.823009
0.781141
0.742436
0.707778
0.677764
0.652264
0.630683
0.612455
0.597119
0.584311
0.573729
0.565091
0.558106
0.552474
0.54792
0.544228
0.541158
0.538358
0.535996
0.536666
0.543871
0.542599
0.902
0.854361
0.808627
0.766438
0.727695
0.693093
0.663113
0.637647
0.616126
0.597972
0.582705
0.569945
0.55938
0.55073
0.543714
0.538047
0.533467
0.529758
0.526657
0.523745
0.521214
0.522182
0.530929
0.529344
0.887782
0.837798
0.791136
0.748661
0.709981
0.675578
0.645784
0.6205
0.599177
0.581227
0.566149
0.553544
0.543092
0.534511
0.527532
0.521883
0.517317
0.513623
0.510517
0.507516
0.50483
0.506102
0.516419
0.514507
0.870626
0.817675
0.769917
0.727284
0.688888
0.654918
0.625541
0.600642
0.579701
0.56212
0.547377
0.535059
0.524835
0.516424
0.509564
0.504
0.4995
0.495863
0.492789
0.489734
0.486918
0.48849
0.500366
0.49814
0.849709
0.793136
0.744165
0.701636
0.663901
0.630726
0.602099
0.577867
0.557548
0.540544
0.526319
0.514445
0.504587
0.496463
0.489823
0.484426
0.480058
0.476531
0.473534
0.470472
0.467566
0.469431
0.482815
0.480322
0.82394
0.763097
0.71285
0.670886
0.634387
0.602541
0.575129
0.551943
0.532557
0.51639
0.502905
0.491668
0.482339
0.474644
0.46834
0.463207
0.459049
0.455693
0.45283
0.44982
0.446875
0.449028
0.463831
0.461157
0.791868
0.726043
0.674639
0.634008
0.599588
0.569825
0.544252
0.522617
0.504561
0.489555
0.47708
0.466708
0.458102
0.450997
0.445168
0.440411
0.436554
0.433443
0.430777
0.427886
0.424969
0.427404
0.443496
0.44077
0.751567
0.679842
0.627898
0.589798
0.558643
0.531983
0.509065
0.489627
0.4734
0.45995
0.448807
0.439566
0.431909
0.425585
0.420389
0.416139
0.412687
0.409906
0.407507
0.404811
0.401996
0.404704
0.421911
0.419307
0.700267
0.621525
0.570792
0.536926
0.510639
0.488397
0.469166
0.452725
0.438933
0.42751
0.418075
0.410275
0.403824
0.398498
0.394117
0.390525
0.387602
0.385246
0.383195
0.380773
0.378141
0.381104
0.399198
0.396941
0.634141
0.547377
0.501271
0.474069
0.454671
0.438469
0.424186
0.411692
0.401056
0.392206
0.38491
0.378901
0.373948
0.369866
0.366507
0.363747
0.361494
0.359676
0.358064
0.356004
0.353636
0.356816
0.375505
0.373896
0.548786
0.452905
0.417179
0.399923
0.389933
0.381704
0.373832
0.366383
0.359716
0.35406
0.349381
0.34555
0.342416
0.339851
0.337749
0.33602
0.334604
0.33346
0.332396
0.330795
0.328775
0.3321
0.35101
0.350491
0.437422
0.333215
0.316578
0.313494
0.315871
0.317822
0.317973
0.316772
0.314941
0.313159
0.311613
0.310373
0.309405
0.308654
0.308068
0.307599
0.307218
0.306913
0.306534
0.305516
0.303927
0.307268
0.325912
0.327223
0.278829
0.183832
0.19754
0.21425
0.232371
0.246875
0.256709
0.262949
0.266928
0.269685
0.271784
0.273563
0.275118
0.276495
0.277709
0.278759
0.279649
0.280396
0.280889
0.280626
0.27958
0.282698
0.300338
0.304921
0.0221273
0.0111826
0.0631424
0.10402
0.140497
0.169535
0.19051
0.205307
0.215919
0.22387
0.230152
0.235351
0.239777
0.243597
0.246907
0.249765
0.25221
0.254286
0.255932
0.256734
0.25648
0.258979
0.274183
0.284821
-0.626265
-0.617227
-0.630544
-0.657956
-0.693291
-0.759387
-0.62972
-0.623853
-0.641242
-0.67113
-0.699489
-0.751968
-0.633334
-0.631387
-0.652479
-0.683148
-0.704038
-0.733231
-0.636873
-0.63845
-0.662277
-0.69334
-0.711651
-0.730189
-0.640946
-0.645486
-0.670935
-0.702295
-0.722647
-0.739845
-0.645596
-0.652884
-0.679034
-0.710531
-0.734094
-0.752528
-0.650505
-0.660477
-0.686647
-0.718003
-0.744178
-0.764706
-0.655343
-0.66791
-0.693592
-0.724501
-0.75249
-0.775422
-0.659847
-0.674876
-0.699697
-0.729882
-0.758966
-0.784142
-0.663827
-0.681164
-0.704869
-0.734118
-0.763547
-0.790289
-0.667181
-0.686633
-0.709099
-0.737231
-0.766255
-0.793652
-0.669887
-0.691194
-0.712495
-0.739217
-0.767286
-0.794357
-0.671984
-0.694864
-0.715187
-0.740158
-0.766899
-0.792735
-0.673569
-0.697668
-0.717198
-0.740465
-0.765263
-0.789275
-0.674773
-0.699659
-0.718508
-0.740664
-0.762603
-0.784533
-0.675733
-0.700931
-0.719308
-0.740846
-0.759551
-0.779118
-0.67657
-0.701628
-0.719872
-0.740929
-0.757246
-0.773344
-0.677374
-0.701941
-0.720409
-0.741107
-0.756289
-0.768033
-0.678185
-0.702113
-0.721108
-0.741889
-0.756686
-0.765536
-0.678992
-0.702458
-0.722204
-0.74371
-0.75887
-0.768194
-0.679709
-0.703409
-0.723958
-0.746803
-0.763606
-0.776703
-0.68065
-0.705411
-0.726447
-0.750927
-0.770796
-0.788723
-0.68182
-0.708264
-0.728896
-0.754515
-0.779912
-0.807953
-0.682821
-0.710327
-0.72957
-0.755392
-0.791384
-0.922261
-0.355856
-0.187052
-0.0867525
-0.0143989
0.0427474
0.0872641
0.120287
0.144461
0.162386
0.176093
0.186993
0.19598
0.203591
0.210142
0.215833
0.220791
0.22511
0.228868
0.232087
0.234515
0.235722
0.237481
0.248152
0.269539
-0.502116
-0.37497
-0.237205
-0.133932
-0.056989
0.00221774
0.0473616
0.081279
0.106939
0.126798
0.14265
0.155706
0.166739
0.176238
0.184524
0.191815
0.198278
0.204052
0.209239
0.213712
0.217055
0.220535
0.231149
0.247726
-0.587402
-0.507172
-0.365669
-0.247001
-0.155179
-0.0831431
-0.0266822
0.0168025
0.0502978
0.0764998
0.0974993
0.114787
0.12937
0.141913
0.15286
0.162522
0.171125
0.178839
0.185719
0.191536
0.196163
0.202396
0.216262
0.213071
-0.665234
-0.589633
-0.46985
-0.350617
-0.249678
-0.167038
-0.100569
-0.0480335
-0.00683912
0.0257258
0.0519356
0.0735057
0.0916517
0.107204
0.120722
0.132582
0.143037
0.152242
0.160184
0.166565
0.171517
0.178739
0.193571
0.182116
-0.724921
-0.648876
-0.557295
-0.444862
-0.33932
-0.248357
-0.173184
-0.112345
-0.0637861
-0.024984
0.006389
0.0322044
0.0538537
0.0723197
0.0882724
0.102154
0.114243
0.124699
0.133513
0.140442
0.145808
0.153518
0.168315
0.155154
-0.761702
-0.702427
-0.632154
-0.52955
-0.423142
-0.326248
-0.243642
-0.175373
-0.119902
-0.0750888
-0.0386761
-0.00870798
0.0163458
0.0376072
0.055858
0.0716168
0.0852095
0.096828
0.106521
0.114157
0.120204
0.128378
0.142842
0.130502
-0.785291
-0.751528
-0.694764
-0.603907
-0.500203
-0.399851
-0.311166
-0.236327
-0.174506
-0.12401
-0.0827505
-0.0487634
-0.0204237
0.00351023
0.0239325
0.0414516
0.0564625
0.0692172
0.0798418
0.0883329
0.0952329
0.103892
0.117976
0.107786
-0.80258
-0.792438
-0.745969
-0.667572
-0.569475
-0.468092
-0.374873
-0.294389
-0.22689
-0.171131
-0.125282
-0.0874441
-0.0559498
-0.0294633
-0.00698276
0.0122008
0.0285697
0.0424548
0.0540684
0.0635201
0.0713661
0.0805358
0.0942816
0.0870233
-0.814967
-0.822612
-0.787108
-0.7204
-0.629839
-0.52975
-0.433723
-0.348679
-0.276259
-0.21576
-0.165662
-0.124188
-0.0896876
-0.0607689
-0.0363341
-0.0155704
0.00210295
0.0171062
0.0297398
0.0402074
0.0490425
0.0587458
0.0721999
0.0682795
-0.822763
-0.841687
-0.818431
-0.762257
-0.680025
-0.58343
-0.486445
-0.398136
-0.321682
-0.257111
-0.203227
-0.158389
-0.121061
-0.0898437
-0.063561
-0.0413014
-0.0223852
-0.00629863
0.00734603
0.0188324
0.0286558
0.0388981
0.0521125
0.0516604
-0.826368
-0.851126
-0.839245
-0.793049
-0.718903
-0.627632
-0.531617
-0.44149
-0.362147
-0.294287
-0.237242
-0.189392
-0.149469
-0.116124
-0.08812
-0.0644611
-0.0443792
-0.027272
-0.0126672
-0.000210609
0.0105615
0.0213343
0.0343761
0.0372862
-0.82615
-0.852786
-0.849186
-0.81226
-0.745867
-0.660871
-0.567774
-0.477535
-0.396246
-0.326505
-0.266817
-0.216422
-0.174267
-0.13903
-0.109476
-0.0845495
-0.0634083
-0.0453752
-0.029904
-0.0165761
-0.00492809
0.00635344
0.0192721
0.0252261
-0.822484
-0.848138
-0.849042
-0.819408
-0.760736
-0.682118
-0.593483
-0.50491
-0.423323
-0.352157
-0.291048
-0.238745
-0.194833
-0.158014
-0.127149
-0.101133
-0.0790766
-0.060244
-0.0440324
-0.029962
-0.0175593
-0.00581633
0.00699804
0.015481
-0.815852
-0.838468
-0.84035
-0.815276
-0.763503
-0.691096
-0.607754
-0.522427
-0.442117
-0.370755
-0.308902
-0.255478
-0.210466
-0.172598
-0.140739
-0.113867
-0.0910805
-0.0716068
-0.0548048
-0.0401483
-0.0271626
-0.0150337
-0.00234095
0.0080031
-0.807187
-0.824851
-0.824974
-0.801784
-0.754959
-0.688358
-0.610502
-0.529423
-0.451717
-0.381407
-0.319878
-0.266608
-0.220714
-0.18229
-0.149902
-0.122502
-0.0992266
-0.0793097
-0.0620975
-0.0470368
-0.0336447
-0.0212567
-0.00872582
0.00279023
-0.797259
-0.808857
-0.804927
-0.781342
-0.737148
-0.675399
-0.60269
-0.526206
-0.451994
-0.383866
-0.323535
-0.270977
-0.225801
-0.187106
-0.15453
-0.126956
-0.103474
-0.0833479
-0.0659374
-0.0506763
-0.0370721
-0.0245695
-0.0122629
-0.000267105
-0.787034
-0.791765
-0.782352
-0.756437
-0.71289
-0.654476
-0.586136
-0.514112
-0.443713
-0.378498
-0.320172
-0.269058
-0.224853
-0.186888
-0.154643
-0.127246
-0.103876
-0.0838309
-0.0664818
-0.0512663
-0.0376887
-0.0252424
-0.0132908
-0.00145276
-0.777438
-0.774801
-0.75898
-0.729392
-0.684964
-0.628245
-0.563269
-0.495152
-0.428448
-0.366381
-0.310549
-0.261378
-0.218639
-0.181836
-0.150387
-0.123573
-0.100674
-0.0810254
-0.0640268
-0.0491361
-0.0358721
-0.0237342
-0.0123204
-0.00108762
-0.768833
-0.759013
-0.736351
-0.702236
-0.65584
-0.599393
-0.536661
-0.471677
-0.408273
-0.349227
-0.295995
-0.249002
-0.208064
-0.172731
-0.142441
-0.116559
-0.0944381
-0.0754672
-0.0590889
-0.0447933
-0.0321349
-0.0206078
-0.010021
0.00032446
-0.761725
-0.745203
-0.715764
-0.676762
-0.627571
-0.570435
-0.508774
-0.446056
-0.385381
-0.329033
-0.278279
-0.233469
-0.194433
-0.160736
-0.13183
-0.107118
-0.0860048
-0.0679344
-0.0523994
-0.0389294
-0.0271322
-0.0164979
-0.00708273
0.00214283
-0.756774
-0.734163
-0.698223
-0.654307
-0.601856
-0.54337
-0.481868
-0.420507
-0.361879
-0.307796
-0.259251
-0.216506
-0.179347
-0.147322
-0.11988
-0.0964463
-0.0764632
-0.0594218
-0.0448679
-0.03238
-0.021625
-0.0121066
-0.0040905
0.00374929
-0.754659
-0.725992
-0.684211
-0.635834
-0.580331
-0.519978
-0.457909
-0.397066
-0.339712
-0.287329
-0.240629
-0.199735
-0.164352
-0.133978
-0.108031
-0.0859246
-0.0671177
-0.0511409
-0.0376053
-0.0261607
-0.0165192
-0.00823462
-0.00155979
0.00458944
-0.75778
-0.718582
-0.673359
-0.621767
-0.563749
-0.50155
-0.43848
-0.377488
-0.320662
-0.26929
-0.223915
-0.184514
-0.150693
-0.121876
-0.0974248
-0.0767178
-0.0591903
-0.0443506
-0.031816
-0.0213209
-0.0127
-0.00568734
-0.000301413
0.0038704
-0.764335
-0.709639
-0.664957
-0.612068
-0.552392
-0.488645
-0.424454
-0.362892
-0.306003
-0.254999
-0.210333
-0.171906
-0.139246
-0.111708
-0.0885893
-0.0692159
-0.0530052
-0.0394598
-0.0281606
-0.0187903
-0.011166
-0.00519972
-0.000939283
0.00144213
)
;

boundaryField
{
    rotor
    {
        type            zeroGradient;
    }
    freestream
    {
        type            freestreamPressure;
        freestreamValue uniform 0;
        supersonic      false;
        value           nonuniform List<scalar> 
96
(
-3.83886e-05
-5.02079e-05
9.47205e-06
1.09353e-05
1.52112e-05
0.000102005
0.000263936
0.000521179
0.000753447
0.00118194
0.00170052
0.00252201
0.00370718
0.0051018
0.00728779
0.0103837
0.0143302
0.0191459
0.025078
0.0322889
0.0409177
0.0511796
0.0632741
0.0774242
0.0940847
0.115106
0.144373
0.159268
0.174544
0.194441
0.217041
0.241493
0.267212
0.293766
0.320775
0.347888
0.374772
0.401112
0.426616
0.451012
0.474057
0.495533
0.515161
0.532392
0.547676
0.561018
0.572007
0.58053
0.586489
0.58981
0.590443
0.588342
0.583522
0.575998
0.565777
0.553181
0.538283
0.520756
0.500817
0.4788
0.454933
0.42947
0.402692
0.374909
0.346448
0.317651
0.288872
0.260484
0.232901
0.20661
0.182225
0.160479
0.142724
0.123066
0.0991156
0.0790019
0.0625134
0.0486517
0.0370441
0.0274733
0.0197316
0.0136188
0.00893679
0.00547898
0.00303681
0.00141298
0.000441682
-3.77318e-05
-0.000182014
-0.000119829
3.10529e-05
0.000175222
0.000256544
0.000256897
0.00017367
5.12542e-05
)
;
    }
    frontAndBack
    {
        type            empty;
    }
}


// ************************************************************************* //
