/*--------------------------------*- C++ -*----------------------------------*\
  =========                 |
  \\      /  F ield         | OpenFOAM: The Open Source CFD Toolbox
   \\    /   O peration     | Website:  https://openfoam.org
    \\  /    A nd           | Version:  11
     \\/     M anipulation  |
\*---------------------------------------------------------------------------*/
FoamFile
{
    format      ascii;
    class       surfaceScalarField;
    location    "1.48";
    object      phi;
}
// * * * * * * * * * * * * * * * * * * * * * * * * * * * * * * * * * * * * * //

dimensions      [0 3 -1 0 0 0 0];

internalField   nonuniform List<scalar> 
5640
(
-5.22484e-07
5.22484e-07
-1.68431e-06
1.16183e-06
-3.05105e-06
1.36674e-06
-4.19013e-06
1.13908e-06
-4.94781e-06
7.57683e-07
-5.03755e-07
-4.44406e-06
-7.95345e-07
1.31783e-06
-1.97858e-06
2.34506e-06
-3.08725e-06
2.47541e-06
-4.01378e-06
2.06561e-06
-4.56947e-06
1.31337e-06
-5.10723e-07
-4.5625e-06
-8.27077e-07
2.14491e-06
-1.90086e-06
3.41884e-06
-2.86404e-06
3.43859e-06
-3.6677e-06
2.86927e-06
-4.19988e-06
1.84555e-06
-1.37666e-07
-4.57294e-06
-8.14416e-07
2.95932e-06
-1.75053e-06
4.35495e-06
-2.606e-06
4.29406e-06
-3.33031e-06
3.59358e-06
-3.88739e-06
2.40263e-06
4.36287e-07
-4.46134e-06
-7.93716e-07
3.75304e-06
-1.58225e-06
5.14348e-06
-2.33426e-06
5.04607e-06
-2.99582e-06
4.25514e-06
-3.5803e-06
2.98711e-06
1.11191e-06
-4.25593e-06
-7.62824e-07
4.51586e-06
-1.40736e-06
5.78802e-06
-2.05073e-06
5.68945e-06
-2.65274e-06
4.85715e-06
-3.24496e-06
3.57933e-06
1.82657e-06
-3.95962e-06
-6.95467e-07
5.21133e-06
-1.21755e-06
6.3101e-06
-1.75426e-06
6.22615e-06
-2.29156e-06
5.39446e-06
-2.8643e-06
4.15207e-06
2.53126e-06
-3.569e-06
-5.99448e-07
5.81078e-06
-1.01166e-06
6.72231e-06
-1.44385e-06
6.65834e-06
-1.90688e-06
5.85748e-06
-2.4314e-06
4.6766e-06
3.18245e-06
-3.08259e-06
-4.86587e-07
6.29736e-06
-7.91726e-07
7.02745e-06
-1.12001e-06
6.98663e-06
-1.49706e-06
6.23453e-06
-1.94571e-06
5.12525e-06
3.7406e-06
-2.50386e-06
-3.62279e-07
6.65964e-06
-5.60448e-07
7.22562e-06
-7.84568e-07
7.21075e-06
-1.06382e-06
6.51378e-06
-1.41204e-06
5.47347e-06
4.17097e-06
-1.8424e-06
-2.2992e-07
6.88956e-06
-3.20753e-07
7.31645e-06
-4.39522e-07
7.32952e-06
-6.1174e-07
6.686e-06
-8.40319e-07
5.70205e-06
4.44579e-06
-1.11515e-06
-9.18836e-08
6.98145e-06
-7.59569e-08
7.30053e-06
-8.81239e-08
7.34168e-06
-1.47856e-07
6.74573e-06
-2.45099e-07
5.79929e-06
4.54775e-06
-3.47054e-07
4.92559e-08
6.93219e-06
1.71935e-07
7.17785e-06
2.65231e-07
7.24839e-06
3.19048e-07
6.69191e-06
3.55496e-07
5.76285e-06
4.47354e-06
4.29708e-07
1.88523e-07
6.74367e-06
4.1935e-07
6.94702e-06
6.15902e-07
7.05183e-06
7.79117e-07
6.5287e-06
9.4146e-07
5.6005e-06
4.23669e-06
1.17831e-06
3.26179e-07
6.41749e-06
6.62773e-07
6.61043e-06
9.59159e-07
6.75545e-06
1.22307e-06
6.26479e-06
1.4934e-06
5.33017e-06
3.86864e-06
1.86145e-06
4.60465e-07
5.95702e-06
8.98774e-07
6.17212e-06
1.29028e-06
6.36395e-06
1.6425e-06
5.91256e-06
1.99494e-06
4.97773e-06
3.41873e-06
2.44486e-06
6.12579e-07
5.34444e-06
1.12263e-06
5.66207e-06
1.60398e-06
5.88259e-06
2.03159e-06
5.48495e-06
2.43544e-06
4.57388e-06
2.95302e-06
2.90115e-06
7.51344e-07
4.5931e-06
1.32159e-06
5.09182e-06
1.89419e-06
5.31e-06
2.38747e-06
4.99167e-06
2.8132e-06
4.14815e-06
2.54273e-06
3.22349e-06
8.23262e-07
3.76984e-06
1.48248e-06
4.4326e-06
2.15457e-06
4.63791e-06
2.71124e-06
4.43501e-06
3.13595e-06
3.72343e-06
2.25108e-06
3.4276e-06
8.54652e-07
2.91519e-06
1.60478e-06
3.68247e-06
2.38022e-06
3.86247e-06
3.00939e-06
3.80583e-06
3.41917e-06
3.31366e-06
2.16516e-06
3.50509e-06
8.56377e-07
2.05881e-06
1.68856e-06
2.85029e-06
2.56756e-06
2.98347e-06
3.29151e-06
3.08188e-06
3.71827e-06
2.88689e-06
2.3838e-06
3.49963e-06
8.29335e-07
1.22948e-06
1.73223e-06
1.94739e-06
2.70488e-06
2.01083e-06
3.56031e-06
2.22645e-06
4.15227e-06
2.29493e-06
2.43862e-06
4.09745e-06
7.55612e-07
4.73863e-07
1.72157e-06
9.81437e-07
2.74735e-06
9.85047e-07
3.77074e-06
1.20306e-06
4.7444e-06
1.32127e-06
1.61393e-06
5.56909e-06
4.73863e-07
1.4553e-06
2.44035e-06
3.6434e-06
4.96468e-06
6.57861e-06
-6.30745e-06
-7.66794e-06
9.53133e-06
-7.40227e-06
-9.52993e-06
1.06248e-05
-8.12416e-06
-1.0353e-05
1.10749e-05
-8.38445e-06
-1.09234e-05
1.11837e-05
-8.1645e-06
-1.13266e-05
1.11066e-05
-7.47286e-06
-1.16024e-05
1.09108e-05
-6.33944e-06
-1.17582e-05
1.06248e-05
-4.8084e-06
-1.18122e-05
1.02811e-05
-2.93095e-06
-1.17964e-05
9.91893e-06
-7.60288e-07
-1.174e-05
9.56931e-06
1.65086e-06
-1.16677e-05
9.2566e-06
4.24911e-06
-1.15973e-05
8.99901e-06
6.98756e-06
-1.15495e-05
8.81104e-06
9.82136e-06
-1.1536e-05
8.70224e-06
1.27105e-05
-1.15687e-05
8.67957e-06
1.56229e-05
-1.16602e-05
8.74783e-06
1.85316e-05
-1.18163e-05
8.90764e-06
2.14165e-05
-1.20429e-05
9.15795e-06
2.42654e-05
-1.23451e-05
9.49624e-06
2.70734e-05
-1.27263e-05
9.91824e-06
2.98432e-05
-1.31882e-05
1.04184e-05
3.25853e-05
-1.373e-05
1.09879e-05
3.53095e-05
-1.43498e-05
1.16256e-05
-1.50655e-05
1.23624e-05
-6.11005e-06
-6.12039e-06
-7.39049e-06
-8.24948e-06
-8.2465e-06
-9.49702e-06
-8.6341e-06
-1.05358e-05
-8.54139e-06
-1.14193e-05
-7.99448e-06
-1.21493e-05
-7.03611e-06
-1.27166e-05
-5.71844e-06
-1.31298e-05
-4.09923e-06
-1.34156e-05
-2.23307e-06
-1.36061e-05
-1.70664e-07
-1.37302e-05
2.0442e-06
-1.38121e-05
4.3681e-06
-1.38734e-05
6.76269e-06
-1.39306e-05
9.19044e-06
-1.39965e-05
1.16175e-05
-1.40873e-05
1.40191e-05
-1.42179e-05
1.63779e-05
-1.44017e-05
1.86847e-05
-1.46519e-05
2.09365e-05
-1.4978e-05
2.31384e-05
-1.53902e-05
2.53057e-05
-1.58973e-05
2.74592e-05
-1.65033e-05
-1.71951e-05
-6.01599e-06
-4.67734e-06
-7.32855e-06
-6.93692e-06
-8.24482e-06
-8.58074e-06
-8.69091e-06
-1.00897e-05
-8.64595e-06
-1.14643e-05
-8.14471e-06
-1.26506e-05
-7.24376e-06
-1.36175e-05
-6.00702e-06
-1.43666e-05
-4.50141e-06
-1.49212e-05
-2.78561e-06
-1.53219e-05
-9.09374e-07
-1.56064e-05
1.08549e-06
-1.5807e-05
3.16348e-06
-1.59514e-05
5.29539e-06
-1.60625e-05
7.45897e-06
-1.61601e-05
9.63093e-06
-1.62592e-05
1.17892e-05
-1.63762e-05
1.3913e-05
-1.65254e-05
1.59975e-05
-1.67365e-05
1.80269e-05
-1.70074e-05
1.99931e-05
-1.73565e-05
2.18902e-05
-1.77943e-05
2.37111e-05
-1.83242e-05
-1.89234e-05
-5.87229e-06
-3.26639e-06
-7.17789e-06
-5.63132e-06
-8.10501e-06
-7.65362e-06
-8.54795e-06
-9.64675e-06
-8.47023e-06
-1.1542e-05
-7.91044e-06
-1.32104e-05
-6.94361e-06
-1.45843e-05
-5.65065e-06
-1.56595e-05
-4.10881e-06
-1.6463e-05
-2.38379e-06
-1.7047e-05
-5.27237e-07
-1.74629e-05
1.42101e-06
-1.77552e-05
3.43014e-06
-1.79605e-05
5.47609e-06
-1.81085e-05
7.53994e-06
-1.82239e-05
9.60856e-06
-1.83279e-05
1.16721e-05
-1.84397e-05
1.37242e-05
-1.85776e-05
1.57465e-05
-1.87587e-05
1.77338e-05
-1.89947e-05
1.96717e-05
-1.92944e-05
2.15377e-05
-1.96604e-05
2.3309e-05
-2.00955e-05
-2.06104e-05
-5.63077e-06
-1.89155e-06
-6.90215e-06
-4.35994e-06
-7.80202e-06
-6.75376e-06
-8.18195e-06
-9.26681e-06
-7.98543e-06
-1.17385e-05
-7.25636e-06
-1.39394e-05
-6.0942e-06
-1.57465e-05
-4.60464e-06
-1.71491e-05
-2.8794e-06
-1.81883e-05
-9.92444e-07
-1.89339e-05
1.00178e-06
-1.94572e-05
3.06524e-06
-1.98187e-05
5.1724e-06
-2.00677e-05
7.30573e-06
-2.02418e-05
9.45314e-06
-2.03713e-05
1.16068e-05
-2.04815e-05
1.3761e-05
-2.0594e-05
1.59108e-05
-2.07273e-05
1.80496e-05
-2.08975e-05
2.01717e-05
-2.11168e-05
2.22709e-05
-2.13936e-05
2.43415e-05
-2.1731e-05
2.6376e-05
-2.21299e-05
-2.26267e-05
-5.27137e-06
-5.79792e-07
-6.4787e-06
-3.15261e-06
-7.30821e-06
-5.92425e-06
-7.55866e-06
-9.01636e-06
-7.14565e-06
-1.21515e-05
-6.12281e-06
-1.49623e-05
-4.62393e-06
-1.72454e-05
-2.78872e-06
-1.89843e-05
-7.31559e-07
-2.02455e-05
1.4624e-06
-2.11279e-05
3.73629e-06
-2.1731e-05
6.05533e-06
-2.21377e-05
8.40136e-06
-2.24137e-05
1.07666e-05
-2.26071e-05
1.3149e-05
-2.27537e-05
1.55501e-05
-2.28826e-05
1.79727e-05
-2.30166e-05
2.04199e-05
-2.31745e-05
2.28935e-05
-2.33711e-05
2.53946e-05
-2.36179e-05
2.79229e-05
-2.39218e-05
3.0478e-05
-2.42861e-05
3.3054e-05
-2.47059e-05
-2.52224e-05
-4.78212e-06
6.33328e-07
-5.88705e-06
-2.04768e-06
-6.59373e-06
-5.21757e-06
-6.63494e-06
-8.97515e-06
-5.88871e-06
-1.28977e-05
-4.42694e-06
-1.6424e-05
-2.43564e-06
-1.92367e-05
-1.02393e-07
-2.13176e-05
2.42261e-06
-2.27705e-05
5.04231e-06
-2.37476e-05
7.70126e-06
-2.439e-05
1.0374e-05
-2.48105e-05
1.30532e-05
-2.50929e-05
1.57428e-05
-2.52966e-05
1.84517e-05
-2.54627e-05
2.11918e-05
-2.56226e-05
2.39753e-05
-2.58001e-05
2.68139e-05
-2.60131e-05
2.97176e-05
-2.62748e-05
3.26944e-05
-2.65947e-05
3.57497e-05
-2.69771e-05
3.8891e-05
-2.74273e-05
4.21122e-05
-2.79271e-05
-2.85048e-05
-4.15508e-06
1.70582e-06
-5.1082e-06
-1.09457e-06
-5.62566e-06
-4.7001e-06
-5.3572e-06
-9.24361e-06
-4.13939e-06
-1.41156e-05
-2.08375e-06
-1.84797e-05
5.38916e-07
-2.18594e-05
3.46141e-06
-2.42401e-05
6.51796e-06
-2.5827e-05
9.60872e-06
-2.68383e-05
1.26889e-05
-2.74702e-05
1.57464e-05
-2.7868e-05
1.87868e-05
-2.81333e-05
2.18254e-05
-2.83352e-05
2.48822e-05
-2.85196e-05
2.79774e-05
-2.87178e-05
3.11302e-05
-2.8953e-05
3.43593e-05
-2.92421e-05
3.76803e-05
-2.95958e-05
4.11041e-05
-3.00186e-05
4.46342e-05
-3.05072e-05
4.82768e-05
-3.107e-05
5.20204e-05
-3.16706e-05
-3.2366e-05
-3.38785e-06
2.58981e-06
-4.12711e-06
-3.5531e-07
-4.3688e-06
-4.45841e-06
-3.66044e-06
-9.95196e-06
-1.81109e-06
-1.59649e-05
9.73738e-07
-2.12645e-05
4.28299e-06
-2.51686e-05
7.82856e-06
-2.77856e-05
1.1422e-05
-2.94205e-05
1.49702e-05
-3.03865e-05
1.84412e-05
-3.09412e-05
2.18405e-05
-3.12673e-05
2.51914e-05
-3.14842e-05
2.85234e-05
-3.16672e-05
3.1869e-05
-3.18652e-05
3.52547e-05
-3.21035e-05
3.87048e-05
-3.24031e-05
4.22418e-05
-3.27791e-05
4.58821e-05
-3.32362e-05
4.96346e-05
-3.3771e-05
5.35084e-05
-3.4381e-05
5.74953e-05
-3.5057e-05
6.16048e-05
-3.57801e-05
-3.6587e-05
-2.48682e-06
3.23423e-06
-2.93755e-06
9.5413e-08
-2.78615e-06
-4.60981e-06
-1.45689e-06
-1.12812e-05
1.21049e-06
-1.86323e-05
4.79609e-06
-2.48501e-05
8.83079e-06
-2.92033e-05
1.29508e-05
-3.19056e-05
1.69776e-05
-3.34473e-05
2.08432e-05
-3.42521e-05
2.45505e-05
-3.46485e-05
2.8135e-05
-3.48518e-05
3.16406e-05
-3.49898e-05
3.51119e-05
-3.51385e-05
3.8595e-05
-3.53482e-05
4.21328e-05
-3.56413e-05
4.57507e-05
-3.6021e-05
4.94479e-05
-3.64763e-05
5.321e-05
-3.69983e-05
5.70083e-05
-3.75693e-05
6.08117e-05
-3.81843e-05
6.45724e-05
-3.88177e-05
6.83305e-05
-3.95382e-05
-4.03616e-05
-1.47225e-06
3.59133e-06
-1.55278e-06
1.7594e-07
-8.56986e-07
-5.3056e-06
1.3239e-06
-1.34621e-05
4.92412e-06
-2.22325e-05
9.33731e-06
-2.92633e-05
1.39144e-05
-3.37804e-05
1.83089e-05
-3.63001e-05
2.24218e-05
-3.75602e-05
2.62588e-05
-3.80892e-05
2.98752e-05
-3.82649e-05
3.33378e-05
-3.83143e-05
3.67124e-05
-3.83644e-05
4.00585e-05
-3.84846e-05
4.33954e-05
-3.86851e-05
4.67087e-05
-3.89547e-05
4.99811e-05
-3.92933e-05
5.32138e-05
-3.97091e-05
5.64099e-05
-4.01944e-05
5.95673e-05
-4.07267e-05
6.26858e-05
-4.13028e-05
6.57796e-05
-4.19115e-05
6.88516e-05
-4.26102e-05
-4.33402e-05
-3.84927e-07
3.62921e-06
-5.55278e-08
-1.53459e-07
1.38896e-06
-6.75009e-06
4.60774e-06
-1.66809e-05
9.14306e-06
-2.67678e-05
1.40671e-05
-3.41874e-05
1.86763e-05
-3.83896e-05
2.27934e-05
-4.04172e-05
2.64928e-05
-4.12596e-05
2.98701e-05
-4.14665e-05
3.30269e-05
-4.14217e-05
3.60447e-05
-4.13322e-05
3.89771e-05
-4.12967e-05
4.18413e-05
-4.13488e-05
4.46505e-05
-4.14943e-05
4.74343e-05
-4.17385e-05
5.0205e-05
-4.2064e-05
5.29555e-05
-4.24596e-05
5.56724e-05
-4.29113e-05
5.83591e-05
-4.34134e-05
6.1028e-05
-4.39717e-05
6.37076e-05
-4.45911e-05
6.63262e-05
-4.52288e-05
-4.57896e-05
7.26311e-07
3.3326e-06
1.58592e-06
-1.01307e-06
3.88687e-06
-9.05103e-06
8.19294e-06
-2.0987e-05
1.3328e-05
-3.19029e-05
1.81595e-05
-3.90188e-05
2.2213e-05
-4.24431e-05
2.56133e-05
-4.38175e-05
2.86112e-05
-4.42575e-05
3.13373e-05
-4.41926e-05
3.39119e-05
-4.39962e-05
3.64117e-05
-4.3832e-05
3.88733e-05
-4.37584e-05
4.13123e-05
-4.37878e-05
4.37391e-05
-4.39211e-05
4.61532e-05
-4.41525e-05
4.8555e-05
-4.44658e-05
5.09335e-05
-4.48381e-05
5.32865e-05
-4.52642e-05
5.56307e-05
-4.57577e-05
5.79633e-05
-4.63044e-05
6.02399e-05
-4.68677e-05
6.23721e-05
-4.73609e-05
-4.76725e-05
1.79281e-06
2.7181e-06
3.18818e-06
-2.40844e-06
6.52304e-06
-1.23859e-05
1.17194e-05
-2.61833e-05
1.69172e-05
-3.71007e-05
2.11223e-05
-4.3224e-05
2.43528e-05
-4.56737e-05
2.70005e-05
-4.64651e-05
2.93555e-05
-4.66126e-05
3.15181e-05
-4.63552e-05
3.36081e-05
-4.60863e-05
3.56786e-05
-4.59025e-05
3.77525e-05
-4.58323e-05
3.98397e-05
-4.5875e-05
4.19375e-05
-4.60189e-05
4.40354e-05
-4.62504e-05
4.61248e-05
-4.65552e-05
4.82011e-05
-4.69144e-05
5.02636e-05
-4.73267e-05
5.2285e-05
-4.77791e-05
5.42279e-05
-4.82473e-05
5.60488e-05
-4.86885e-05
5.77098e-05
-4.9022e-05
-4.90622e-05
2.74689e-06
1.83266e-06
4.7312e-06
-4.39275e-06
9.20956e-06
-1.68642e-05
1.48752e-05
-3.18489e-05
1.9588e-05
-4.18136e-05
2.29407e-05
-4.65767e-05
2.53944e-05
-4.81274e-05
2.7459e-05
-4.85297e-05
2.92728e-05
-4.84263e-05
3.0994e-05
-4.80764e-05
3.27057e-05
-4.7798e-05
3.44379e-05
-4.76347e-05
3.61965e-05
-4.75909e-05
3.79783e-05
-4.76568e-05
3.9776e-05
-4.78167e-05
4.15795e-05
-4.8054e-05
4.33776e-05
-4.83533e-05
4.51643e-05
-4.87011e-05
4.69192e-05
-4.90816e-05
4.86097e-05
-4.94697e-05
5.02023e-05
-4.98399e-05
5.16688e-05
-5.0155e-05
5.29813e-05
-5.03344e-05
-5.01769e-05
3.5509e-06
7.2661e-07
6.25836e-06
-7.10021e-06
1.18378e-05
-2.24437e-05
1.73962e-05
-3.74073e-05
2.12666e-05
-4.5684e-05
2.37565e-05
-4.90665e-05
2.5599e-05
-4.99699e-05
2.71622e-05
-5.00928e-05
2.85201e-05
-4.97842e-05
2.98812e-05
-4.94375e-05
3.12854e-05
-4.92022e-05
3.27383e-05
-4.90876e-05
3.4232e-05
-4.90846e-05
3.5755e-05
-4.91797e-05
3.72955e-05
-4.93572e-05
3.88418e-05
-4.96002e-05
4.03801e-05
-4.98916e-05
4.18934e-05
-5.02143e-05
4.3361e-05
-5.05492e-05
4.47655e-05
-5.08741e-05
4.60862e-05
-5.11606e-05
4.72963e-05
-5.13651e-05
4.83691e-05
-5.14072e-05
-5.11201e-05
4.19763e-06
-5.69869e-07
7.90059e-06
-1.08032e-05
1.42325e-05
-2.87756e-05
1.91159e-05
-4.22907e-05
2.20413e-05
-4.86094e-05
2.3804e-05
-5.08293e-05
2.51483e-05
-5.13142e-05
2.62166e-05
-5.11611e-05
2.72501e-05
-5.08176e-05
2.83521e-05
-5.05395e-05
2.95174e-05
-5.03675e-05
3.07358e-05
-5.0306e-05
3.19957e-05
-5.03446e-05
3.32846e-05
-5.04686e-05
3.45894e-05
-5.06619e-05
3.58966e-05
-5.09075e-05
3.71926e-05
-5.11876e-05
3.84627e-05
-5.14845e-05
3.96924e-05
-5.17789e-05
4.08666e-05
-5.20484e-05
4.19676e-05
-5.22615e-05
4.29761e-05
-5.23736e-05
4.38812e-05
-5.23123e-05
-5.19422e-05
4.76613e-06
-2.11251e-06
9.78009e-06
-1.58171e-05
1.61353e-05
-3.51308e-05
2.00036e-05
-4.6159e-05
2.20589e-05
-5.06647e-05
2.32532e-05
-5.20236e-05
2.41019e-05
-5.21629e-05
2.48584e-05
-5.19175e-05
2.56826e-05
-5.16419e-05
2.65776e-05
-5.14345e-05
2.75363e-05
-5.13262e-05
2.85474e-05
-5.13171e-05
2.9598e-05
-5.13951e-05
3.06747e-05
-5.15454e-05
3.17644e-05
-5.17516e-05
3.28542e-05
-5.19972e-05
3.39319e-05
-5.22654e-05
3.4986e-05
-5.25385e-05
3.6005e-05
-5.27979e-05
3.69768e-05
-5.30202e-05
3.7889e-05
-5.31738e-05
3.87331e-05
-5.32176e-05
3.95094e-05
-5.30887e-05
-5.26729e-05
5.5433e-06
-4.22821e-06
1.18429e-05
-2.21167e-05
1.73324e-05
-4.06203e-05
2.01564e-05
-4.8983e-05
2.1476e-05
-5.19842e-05
2.21894e-05
-5.2737e-05
2.27278e-05
-5.27013e-05
2.32887e-05
-5.24784e-05
2.39134e-05
-5.22667e-05
2.46113e-05
-5.21324e-05
2.53748e-05
-5.20898e-05
2.6191e-05
-5.21332e-05
2.70458e-05
-5.225e-05
2.79257e-05
-5.24252e-05
2.88177e-05
-5.26436e-05
2.97102e-05
-5.28898e-05
3.05926e-05
-5.31477e-05
3.14549e-05
-5.34009e-05
3.22883e-05
-5.36312e-05
3.30838e-05
-5.38157e-05
3.38342e-05
-5.39242e-05
3.45368e-05
-5.39202e-05
3.51962e-05
-5.3748e-05
-5.33125e-05
6.64786e-06
-7.37098e-06
1.37545e-05
-2.92234e-05
1.79118e-05
-4.47776e-05
1.9735e-05
-5.08062e-05
2.04669e-05
-5.27162e-05
2.08341e-05
-5.31042e-05
2.11527e-05
-5.30198e-05
2.15199e-05
-5.28456e-05
2.19652e-05
-5.2712e-05
2.24871e-05
-5.26543e-05
2.30734e-05
-5.26761e-05
2.37093e-05
-5.27691e-05
2.43805e-05
-5.29212e-05
2.50742e-05
-5.31189e-05
2.5779e-05
-5.33485e-05
2.64851e-05
-5.35959e-05
2.7184e-05
-5.38466e-05
2.7868e-05
-5.4085e-05
2.85303e-05
-5.42935e-05
2.9165e-05
-5.44503e-05
2.97683e-05
-5.45275e-05
3.03405e-05
-5.44924e-05
3.08887e-05
-5.42962e-05
-5.38618e-05
8.18213e-06
-1.20535e-05
1.50186e-05
-3.60598e-05
1.79084e-05
-4.76674e-05
1.88892e-05
-5.1787e-05
1.91705e-05
-5.29975e-05
1.92756e-05
-5.32093e-05
1.93981e-05
-5.31423e-05
1.95986e-05
-5.30461e-05
1.98842e-05
-5.29976e-05
2.02454e-05
-5.30154e-05
2.06674e-05
-5.30981e-05
2.11352e-05
-5.32369e-05
2.16348e-05
-5.34209e-05
2.21544e-05
-5.36384e-05
2.26837e-05
-5.38778e-05
2.32145e-05
-5.41266e-05
2.374e-05
-5.43721e-05
2.42549e-05
-5.45999e-05
2.47547e-05
-5.47933e-05
2.52364e-05
-5.4932e-05
2.56993e-05
-5.49905e-05
2.6146e-05
-5.49392e-05
2.65861e-05
-5.47363e-05
-5.43197e-05
1.04324e-05
-1.83884e-05
1.57354e-05
-4.13628e-05
1.74309e-05
-4.9363e-05
1.77447e-05
-5.21008e-05
1.76699e-05
-5.29227e-05
1.75572e-05
-5.30965e-05
1.75155e-05
-5.31006e-05
1.75657e-05
-5.30964e-05
1.77021e-05
-5.3134e-05
1.79108e-05
-5.32241e-05
1.81763e-05
-5.33636e-05
1.84838e-05
-5.35444e-05
1.88204e-05
-5.37575e-05
1.9175e-05
-5.3993e-05
1.95386e-05
-5.42414e-05
1.99042e-05
-5.44922e-05
2.02662e-05
-5.47342e-05
2.06211e-05
-5.49547e-05
2.09663e-05
-5.51385e-05
2.13015e-05
-5.52672e-05
2.16284e-05
-5.53174e-05
2.19515e-05
-5.52622e-05
2.22814e-05
-5.50662e-05
-5.46806e-05
1.31744e-05
-2.59937e-05
1.60022e-05
-4.41906e-05
1.65524e-05
-4.99131e-05
1.63487e-05
-5.18971e-05
1.60068e-05
-5.25809e-05
1.57207e-05
-5.28104e-05
1.55331e-05
-5.29131e-05
1.54436e-05
-5.30068e-05
1.54387e-05
-5.31291e-05
1.55021e-05
-5.32875e-05
1.5618e-05
-5.34794e-05
1.57722e-05
-5.36986e-05
1.59527e-05
-5.3938e-05
1.61497e-05
-5.419e-05
1.63551e-05
-5.44468e-05
1.65629e-05
-5.46999e-05
1.67686e-05
-5.49399e-05
1.69698e-05
-5.5156e-05
1.7166e-05
-5.53347e-05
1.73586e-05
-5.54598e-05
1.75513e-05
-5.55101e-05
1.77503e-05
-5.54611e-05
1.79673e-05
-5.52832e-05
-5.49398e-05
1.51797e-05
-3.45949e-05
1.57919e-05
-4.48028e-05
1.53136e-05
-4.94348e-05
1.4738e-05
-5.13215e-05
1.42111e-05
-5.2054e-05
1.37854e-05
-5.23847e-05
1.34689e-05
-5.25965e-05
1.325e-05
-5.27879e-05
1.31113e-05
-5.29904e-05
1.30355e-05
-5.32117e-05
1.30073e-05
-5.34513e-05
1.30141e-05
-5.37054e-05
1.30449e-05
-5.39689e-05
1.30911e-05
-5.42362e-05
1.31455e-05
-5.45012e-05
1.32026e-05
-5.4757e-05
1.32588e-05
-5.49961e-05
1.33123e-05
-5.52095e-05
1.33638e-05
-5.53862e-05
1.34163e-05
-5.55122e-05
1.34752e-05
-5.5569e-05
1.3548e-05
-5.5534e-05
1.36489e-05
-5.53841e-05
-5.50943e-05
-4.35166e-07
4.35166e-07
-3.7075e-07
-6.44163e-08
6.76842e-07
-1.04759e-06
2.59332e-06
-1.91648e-06
7.13677e-06
-4.54345e-06
-7.81432e-06
1.49511e-05
-3.93928e-07
8.29095e-07
-9.13373e-08
-3.67007e-07
1.09354e-06
-2.23247e-06
3.39113e-06
-4.21407e-06
6.85649e-06
-8.00881e-06
-1.30174e-05
1.20596e-05
-3.05409e-07
1.1345e-06
1.16183e-07
-7.88599e-07
1.32523e-06
-3.44151e-06
3.5576e-06
-6.44645e-06
6.621e-06
-1.10722e-05
-1.67699e-05
1.03735e-05
-2.29569e-07
1.36407e-06
2.5314e-07
-1.27131e-06
1.41887e-06
-4.60724e-06
3.44853e-06
-8.47612e-06
6.05986e-06
-1.36835e-05
-1.94767e-05
8.76666e-06
-1.52027e-07
1.5161e-06
3.31907e-07
-1.75524e-06
1.40467e-06
-5.68001e-06
3.1738e-06
-1.02452e-05
5.29666e-06
-1.58064e-05
-2.13859e-05
7.2059e-06
-9.01562e-08
1.60626e-06
3.60022e-07
-2.20542e-06
1.30344e-06
-6.62342e-06
2.78483e-06
-1.17266e-05
4.44208e-06
-1.74637e-05
-2.26784e-05
5.73453e-06
-4.62985e-08
1.65255e-06
3.44101e-07
-2.59582e-06
1.13167e-06
-7.41099e-06
2.31748e-06
-1.29124e-05
3.54334e-06
-1.86895e-05
-2.34878e-05
4.35277e-06
-1.95312e-08
1.67209e-06
2.91582e-07
-2.90693e-06
9.04708e-07
-8.02412e-06
1.79698e-06
-1.38047e-05
2.63475e-06
-1.95273e-05
-2.39115e-05
3.0584e-06
-7.42093e-09
1.67951e-06
2.10837e-07
-3.12519e-06
6.37936e-07
-8.45122e-06
1.24313e-06
-1.44099e-05
1.73746e-06
-2.00216e-05
-2.40212e-05
1.84716e-06
-6.38536e-09
1.68589e-06
1.10916e-07
-3.24249e-06
3.46579e-07
-8.68688e-06
6.74402e-07
-1.47377e-05
8.64944e-07
-2.02122e-05
-2.38685e-05
7.12221e-07
-1.30418e-08
1.69893e-06
2.4196e-09
-3.25795e-06
4.70699e-08
-8.73153e-06
1.06901e-07
-1.47976e-05
1.60745e-08
-2.01213e-05
-2.35022e-05
-3.50199e-07
-2.26562e-08
1.72159e-06
-1.09955e-07
-3.17065e-06
-2.54687e-07
-8.5868e-06
-4.42924e-07
-1.46093e-05
-7.6805e-07
-1.97962e-05
-2.29309e-05
-1.33929e-06
-3.05866e-08
1.75218e-06
-2.13462e-07
-2.98778e-06
-5.39316e-07
-8.26095e-06
-9.65521e-07
-1.41831e-05
-1.51453e-06
-1.92472e-05
-2.21848e-05
-2.26062e-06
-3.26781e-08
1.78485e-06
-3.01497e-07
-2.71896e-06
-7.97485e-07
-7.76496e-06
-1.44948e-06
-1.35311e-05
-2.20631e-06
-1.84904e-05
-2.12785e-05
-3.11262e-06
-2.51167e-08
1.80997e-06
-3.66751e-07
-2.37733e-06
-1.01847e-06
-7.11324e-06
-1.88412e-06
-1.26655e-05
-2.8379e-06
-1.75366e-05
-2.02219e-05
-3.89453e-06
-4.42116e-09
1.81439e-06
-4.02587e-07
-1.97916e-06
-1.19172e-06
-6.32411e-06
-2.2586e-06
-1.15986e-05
-3.40382e-06
-1.63914e-05
-1.90204e-05
-4.60532e-06
3.11831e-08
1.78321e-06
-4.03122e-07
-1.54485e-06
-1.30644e-06
-5.42079e-06
-2.56075e-06
-1.03443e-05
-3.89772e-06
-1.50544e-05
-1.76745e-05
-5.24367e-06
8.4753e-08
1.69846e-06
-3.63747e-07
-1.09635e-06
-1.35163e-06
-4.43291e-06
-2.77644e-06
-8.91946e-06
-4.31151e-06
-1.35193e-05
-1.61778e-05
-5.80816e-06
1.57572e-07
1.54088e-06
-2.82228e-07
-6.56555e-07
-1.31605e-06
-3.39909e-06
-2.88921e-06
-7.34629e-06
-4.63378e-06
-1.17748e-05
-1.45141e-05
-6.2975e-06
2.20148e-07
1.32074e-06
-1.60128e-07
-2.76278e-07
-1.18835e-06
-2.37086e-06
-2.87916e-06
-5.65548e-06
-4.84803e-06
-9.80591e-06
-1.26528e-05
-6.70932e-06
2.78286e-07
1.04245e-06
-5.46089e-09
7.4688e-09
-9.57269e-07
-1.41905e-06
-2.71397e-06
-3.89878e-06
-4.92251e-06
-7.59737e-06
-1.05398e-05
-7.0355e-06
3.33245e-07
7.09205e-07
1.80839e-07
1.59875e-07
-6.12667e-07
-6.25548e-07
-2.3382e-06
-2.17324e-06
-4.79227e-06
-5.14331e-06
-8.08441e-06
-7.24765e-06
3.80506e-07
3.28699e-07
3.7675e-07
1.63631e-07
-1.42934e-07
-1.05864e-07
-1.63277e-06
-6.83408e-07
-4.23576e-06
-2.54032e-06
-4.92212e-06
-7.39804e-06
3.28699e-07
4.9233e-07
3.86466e-07
-2.96943e-07
-2.83726e-06
-7.75938e-06
1.46326e-05
-3.42764e-05
1.44119e-05
-4.45821e-05
1.37069e-05
-4.87298e-05
1.29639e-05
-5.05785e-05
1.23115e-05
-5.14016e-05
1.17724e-05
-5.18456e-05
1.13417e-05
-5.21658e-05
1.10022e-05
-5.24484e-05
1.07352e-05
-5.27234e-05
1.05244e-05
-5.3001e-05
1.03566e-05
-5.32834e-05
1.02205e-05
-5.35693e-05
1.0107e-05
-5.38554e-05
1.00084e-05
-5.41377e-05
9.91856e-06
-5.44113e-05
9.83244e-06
-5.46709e-05
9.74668e-06
-5.49103e-05
9.65978e-06
-5.51226e-05
9.57267e-06
-5.52991e-05
9.489e-06
-5.54286e-05
9.41486e-06
-5.54949e-05
9.3586e-06
-5.54777e-05
9.3373e-06
-5.53628e-05
-5.51437e-05
1.27669e-05
-3.49837e-05
1.25473e-05
-4.43624e-05
1.18761e-05
-4.80587e-05
1.10669e-05
-4.97693e-05
1.03302e-05
-5.0665e-05
9.70277e-06
-5.12182e-05
9.17089e-06
-5.16339e-05
8.71672e-06
-5.19942e-05
8.32473e-06
-5.23314e-05
7.98181e-06
-5.26581e-05
7.67708e-06
-5.29787e-05
7.40152e-06
-5.32937e-05
7.14763e-06
-5.36015e-05
6.90916e-06
-5.38992e-05
6.6809e-06
-5.41831e-05
6.45871e-06
-5.44487e-05
6.23956e-06
-5.46912e-05
6.0219e-06
-5.49049e-05
5.80617e-06
-5.50834e-05
5.59552e-06
-5.52179e-05
5.39533e-06
-5.52947e-05
5.20888e-06
-5.52913e-05
5.03974e-06
-5.51936e-05
-5.51015e-05
1.13304e-05
-3.59406e-05
1.08117e-05
-4.38438e-05
9.98422e-06
-4.72312e-05
9.12272e-06
-4.89078e-05
8.32705e-06
-4.98693e-05
7.61526e-06
-5.05064e-05
6.98038e-06
-5.0999e-05
6.41051e-06
-5.14244e-05
5.89378e-06
-5.18147e-05
5.41977e-06
-5.21841e-05
4.9798e-06
-5.25387e-05
4.56672e-06
-5.28806e-05
4.17475e-06
-5.32095e-05
3.79915e-06
-5.35236e-05
3.43615e-06
-5.38201e-05
3.08287e-06
-5.40954e-05
2.73738e-06
-5.43457e-05
2.39887e-06
-5.45664e-05
2.06784e-06
-5.47523e-05
1.74665e-06
-5.48967e-05
1.44272e-06
-5.49908e-05
1.17664e-06
-5.50252e-05
9.70004e-07
-5.4987e-05
-5.48044e-05
9.50052e-06
-3.66744e-05
8.91622e-06
-4.32595e-05
8.06361e-06
-4.63785e-05
7.17136e-06
-4.80155e-05
6.31369e-06
-4.90116e-05
5.51615e-06
-4.97088e-05
4.779e-06
-5.02619e-05
4.09455e-06
-5.07399e-05
3.45414e-06
-5.11743e-05
2.85003e-06
-5.158e-05
2.27571e-06
-5.19644e-05
1.72585e-06
-5.23308e-05
1.19619e-06
-5.26799e-05
6.83425e-07
-5.30108e-05
1.85087e-07
-5.33217e-05
-3.00399e-07
-5.36099e-05
-7.73678e-07
-5.38724e-05
-1.23441e-06
-5.41057e-05
-1.68123e-06
-5.43055e-05
-2.11107e-06
-5.44669e-05
-2.51691e-06
-5.45849e-05
-2.88797e-06
-5.46541e-05
-3.23066e-06
-5.46443e-05
-5.44709e-05
7.66445e-06
-3.7133e-05
7.06329e-06
-4.26583e-05
6.17912e-06
-4.54944e-05
5.23791e-06
-4.70743e-05
4.31137e-06
-4.80851e-05
3.42527e-06
-4.88228e-05
2.58404e-06
-4.94206e-05
1.78403e-06
-4.99399e-05
1.01971e-06
-5.04099e-05
2.85673e-07
-5.08459e-05
-4.22747e-07
-5.1256e-05
-1.10943e-06
-5.16441e-05
-1.77748e-06
-5.20118e-05
-2.42935e-06
-5.2359e-05
-3.06682e-06
-5.26843e-05
-3.69105e-06
-5.29857e-05
-4.30259e-06
-5.32609e-05
-4.90141e-06
-5.35068e-05
-5.48682e-06
-5.37201e-05
-6.05733e-06
-5.38964e-05
-6.61164e-06
-5.40306e-05
-7.15331e-06
-5.41125e-05
-7.68547e-06
-5.41121e-05
-5.40299e-05
5.92033e-06
-3.73188e-05
5.26758e-06
-4.20056e-05
4.33963e-06
-4.45664e-05
3.33883e-06
-4.60735e-05
2.33531e-06
-4.70816e-05
1.35601e-06
-4.78434e-05
4.08388e-07
-4.8473e-05
-5.08086e-07
-4.90234e-05
-1.39641e-06
-4.95216e-05
-2.25996e-06
-4.99824e-05
-3.10191e-06
-5.0414e-05
-3.92499e-06
-5.0821e-05
-4.73148e-06
-5.12053e-05
-5.52322e-06
-5.15672e-05
-6.30163e-06
-5.19058e-05
-7.06772e-06
-5.22196e-05
-7.82209e-06
-5.25065e-05
-8.5649e-06
-5.2764e-05
-9.29575e-06
-5.29893e-05
-1.00137e-05
-5.31784e-05
-1.0718e-05
-5.33264e-05
-1.1407e-05
-5.34235e-05
-1.2069e-05
-5.34501e-05
-5.34448e-05
4.28571e-06
-3.72517e-05
3.55088e-06
-4.12708e-05
2.56029e-06
-4.35758e-05
1.48704e-06
-4.50002e-05
3.98314e-07
-4.59928e-05
-6.78871e-07
-4.67663e-05
-1.73518e-06
-4.74167e-05
-2.76885e-06
-4.79898e-05
-3.78087e-06
-4.85096e-05
-4.77306e-06
-4.89902e-05
-5.74733e-06
-4.94397e-05
-6.70547e-06
-4.98629e-05
-7.64908e-06
-5.02617e-05
-8.57952e-06
-5.06368e-05
-9.49784e-06
-5.09875e-05
-1.04048e-05
-5.13126e-05
-1.13007e-05
-5.16105e-05
-1.21855e-05
-5.18793e-05
-1.30581e-05
-5.21166e-05
-1.3917e-05
-5.23195e-05
-1.47598e-05
-5.24836e-05
-1.55819e-05
-5.26014e-05
-1.63717e-05
-5.26603e-05
-5.27217e-05
2.75735e-06
-3.69507e-05
1.91834e-06
-4.04318e-05
8.47903e-07
-4.25054e-05
-3.08492e-07
-4.38438e-05
-1.4893e-06
-4.4812e-05
-2.6681e-06
-4.55875e-05
-3.83469e-06
-4.62501e-05
-4.98572e-06
-4.68387e-05
-6.12064e-06
-4.73747e-05
-7.23994e-06
-4.78709e-05
-8.34453e-06
-4.83351e-05
-9.43541e-06
-4.8772e-05
-1.05136e-05
-4.91836e-05
-1.15799e-05
-4.95705e-05
-1.2635e-05
-4.99324e-05
-1.36793e-05
-5.02683e-05
-1.47128e-05
-5.05771e-05
-1.57347e-05
-5.08574e-05
-1.67435e-05
-5.11078e-05
-1.77367e-05
-5.13262e-05
-1.87108e-05
-5.15095e-05
-1.96601e-05
-5.16521e-05
-2.05741e-05
-5.17463e-05
-5.18692e-05
1.32726e-06
-3.64308e-05
3.70875e-07
-3.94754e-05
-7.92388e-07
-4.13421e-05
-2.0404e-06
-4.25958e-05
-3.31816e-06
-4.35343e-05
-4.60125e-06
-4.43044e-05
-5.879e-06
-4.49724e-05
-7.14691e-06
-4.55708e-05
-8.40324e-06
-4.61184e-05
-9.64744e-06
-4.66267e-05
-1.08796e-05
-4.7103e-05
-1.21e-05
-4.75516e-05
-1.33091e-05
-4.79745e-05
-1.45074e-05
-4.83723e-05
-1.5695e-05
-4.87448e-05
-1.68719e-05
-4.90914e-05
-1.80376e-05
-4.94114e-05
-1.91909e-05
-4.97041e-05
-2.03297e-05
-4.9969e-05
-2.14508e-05
-5.02051e-05
-2.255e-05
-5.04104e-05
-2.36213e-05
-5.05807e-05
-2.46554e-05
-5.07123e-05
-5.08924e-05
-1.08624e-08
-3.57077e-05
-1.09232e-06
-3.83939e-05
-2.3565e-06
-4.00779e-05
-3.70173e-06
-4.12506e-05
-5.07998e-06
-4.2156e-05
-6.46889e-06
-4.29155e-05
-7.85776e-06
-4.35835e-05
-9.24129e-06
-4.41873e-05
-1.06168e-05
-4.47428e-05
-1.19831e-05
-4.52604e-05
-1.33393e-05
-4.57467e-05
-1.46854e-05
-4.62055e-05
-1.60212e-05
-4.66387e-05
-1.73467e-05
-4.70468e-05
-1.86617e-05
-4.74297e-05
-1.99659e-05
-4.77872e-05
-2.12581e-05
-4.81191e-05
-2.25368e-05
-4.84255e-05
-2.37993e-05
-4.87065e-05
-2.50421e-05
-4.89623e-05
-2.62607e-05
-4.91918e-05
-2.74492e-05
-4.93922e-05
-2.85992e-05
-4.95623e-05
-4.97954e-05
-1.26185e-06
-3.47961e-05
-2.47098e-06
-3.71848e-05
-3.84088e-06
-3.8708e-05
-5.28672e-06
-3.98048e-05
-6.7673e-06
-4.06754e-05
-8.26238e-06
-4.14204e-05
-9.76136e-06
-4.20845e-05
-1.12585e-05
-4.26902e-05
-1.27503e-05
-4.32509e-05
-1.42351e-05
-4.37757e-05
-1.57114e-05
-4.42704e-05
-1.71787e-05
-4.47383e-05
-1.86363e-05
-4.5181e-05
-2.00838e-05
-4.55992e-05
-2.15208e-05
-4.59928e-05
-2.29463e-05
-4.63617e-05
-2.4359e-05
-4.67064e-05
-2.57568e-05
-4.70277e-05
-2.71368e-05
-4.73265e-05
-2.84953e-05
-4.76038e-05
-2.98277e-05
-4.78594e-05
-3.11285e-05
-4.80913e-05
-3.23905e-05
-4.83003e-05
-4.85822e-05
-2.42929e-06
-3.37061e-05
-3.76507e-06
-3.5849e-05
-5.24224e-06
-3.72309e-05
-6.79014e-06
-3.82569e-05
-8.37341e-06
-3.90922e-05
-9.97378e-06
-3.982e-05
-1.15809e-05
-4.04774e-05
-1.31887e-05
-4.10824e-05
-1.47934e-05
-4.16463e-05
-1.63925e-05
-4.21766e-05
-1.79843e-05
-4.26785e-05
-1.95677e-05
-4.31548e-05
-2.11419e-05
-4.36069e-05
-2.27058e-05
-4.40352e-05
-2.42588e-05
-4.44398e-05
-2.57996e-05
-4.4821e-05
-2.73265e-05
-4.51796e-05
-2.88371e-05
-4.5517e-05
-3.03283e-05
-4.58352e-05
-3.17964e-05
-4.61357e-05
-3.3237e-05
-4.64188e-05
-3.46453e-05
-4.6683e-05
-3.6015e-05
-4.69306e-05
-4.72571e-05
-3.51489e-06
-3.24518e-05
-4.97384e-06
-3.43901e-05
-6.55769e-06
-3.5647e-05
-8.20729e-06
-3.66073e-05
-9.89216e-06
-3.74073e-05
-1.15958e-05
-3.81163e-05
-1.33082e-05
-3.8765e-05
-1.50231e-05
-3.93675e-05
-1.67363e-05
-3.9933e-05
-1.84451e-05
-4.04679e-05
-2.01474e-05
-4.09763e-05
-2.18416e-05
-4.14606e-05
-2.35264e-05
-4.19221e-05
-2.52009e-05
-4.23608e-05
-2.68637e-05
-4.2777e-05
-2.85133e-05
-4.31713e-05
-3.01479e-05
-4.3545e-05
-3.17648e-05
-4.39001e-05
-3.33608e-05
-4.42392e-05
-3.49325e-05
-4.45641e-05
-3.64757e-05
-4.48755e-05
-3.79864e-05
-4.51724e-05
-3.94593e-05
-4.54576e-05
-4.58247e-05
-4.51929e-06
-3.10451e-05
-6.09641e-06
-3.28129e-05
-7.78449e-06
-3.39589e-05
-9.53381e-06
-3.48579e-05
-1.13179e-05
-3.56232e-05
-1.31217e-05
-3.63125e-05
-1.49357e-05
-3.6951e-05
-1.67533e-05
-3.75499e-05
-1.85703e-05
-3.8116e-05