/*--------------------------------*- C++ -*----------------------------------*\
  =========                 |
  \\      /  F ield         | OpenFOAM: The Open Source CFD Toolbox
   \\    /   O peration     | Website:  https://openfoam.org
    \\  /    A nd           | Version:  11
     \\/     M anipulation  |
\*---------------------------------------------------------------------------*/
FoamFile
{
    format      ascii;
    class       volVectorField;
    location    "1.48";
    object      U;
}
// * * * * * * * * * * * * * * * * * * * * * * * * * * * * * * * * * * * * * //

dimensions      [0 1 -1 0 0 0 0];

internalField   nonuniform List<vector> 
2880
(
(-0.0432448 0.045737 -2.06164e-19)
(-0.172036 0.0932495 -3.8976e-19)
(-0.332491 0.12902 1.05412e-19)
(-0.41598 0.143394 -1.04924e-19)
(-0.422559 0.141441 1.68172e-20)
(-0.352206 0.104691 0)
(-0.0892837 0.0841665 1.67742e-19)
(-0.243751 0.136234 1.31439e-19)
(-0.356358 0.16185 -9.94698e-20)
(-0.399859 0.164684 8.7653e-20)
(-0.406713 0.157787 0)
(-0.353363 0.104558 -6.30254e-21)
(-0.109382 0.107187 -2.21886e-21)
(-0.2519 0.163369 1.23791e-19)
(-0.343518 0.177467 -5.86017e-21)
(-0.375961 0.172326 -4.69913e-21)
(-0.38095 0.151268 0)
(-0.350895 0.0912108 -4.97906e-20)
(-0.127495 0.129308 -2.61344e-19)
(-0.250665 0.18679 1.02241e-19)
(-0.32732 0.193133 1.11363e-20)
(-0.355356 0.180004 0)
(-0.359102 0.150116 -2.90316e-20)
(-0.343734 0.0881554 9.75223e-20)
(-0.147797 0.148936 2.54261e-19)
(-0.249699 0.206827 -2.08785e-19)
(-0.312832 0.20834 2.13862e-20)
(-0.336343 0.189483 -5.17002e-20)
(-0.340512 0.154221 2.88652e-20)
(-0.334058 0.0933372 2.48382e-19)
(-0.167405 0.167427 0)
(-0.250556 0.222278 4.28474e-19)
(-0.299551 0.222442 0)
(-0.318677 0.200184 0)
(-0.323313 0.162421 0)
(-0.322181 0.104196 -1.47278e-19)
(-0.181472 0.191719 1.35726e-18)
(-0.249727 0.234471 -4.12951e-19)
(-0.286791 0.235363 6.43837e-19)
(-0.30185 0.211917 6.65869e-20)
(-0.30631 0.173907 -5.69022e-20)
(-0.307758 0.119312 0)
(-0.189714 0.20844 -1.39593e-18)
(-0.246597 0.244458 2.51751e-20)
(-0.274097 0.247364 -5.88428e-19)
(-0.285414 0.22459 -3.27494e-20)
(-0.288816 0.188034 5.7685e-20)
(-0.290512 0.137616 -5.16666e-20)
(-0.19532 0.22154 1.38302e-18)
(-0.241541 0.252982 -4.97341e-20)
(-0.261269 0.258682 -3.9673e-20)
(-0.269042 0.238035 6.53191e-20)
(-0.270461 0.204193 -4.67697e-19)
(-0.270377 0.158335 3.21472e-19)
(-0.199347 0.232392 -3.76081e-20)
(-0.234734 0.260408 8.57541e-19)
(-0.248274 0.269511 -3.8299e-20)
(-0.252521 0.252018 5.29872e-19)
(-0.251111 0.221782 4.68703e-19)
(-0.247491 0.180734 -8.69794e-19)
(-0.201765 0.240677 -1.34443e-18)
(-0.22644 0.266935 -7.79118e-19)
(-0.234905 0.279982 -7.78653e-20)
(-0.235754 0.26629 -9.29115e-19)
(-0.230844 0.240204 4.21467e-19)
(-0.222232 0.204023 4.41885e-19)
(-0.202168 0.245921 0)
(-0.216796 0.272675 4.93555e-20)
(-0.22108 0.290189 3.99064e-20)
(-0.218776 0.280628 3.99817e-19)
(-0.209945 0.258882 -4.23654e-19)
(-0.195253 0.227341 -1.14995e-19)
(-0.200126 0.248111 -1.31124e-18)
(-0.205901 0.277748 2.51235e-20)
(-0.206813 0.300164 4.02265e-20)
(-0.201749 0.294832 -6.76092e-19)
(-0.188897 0.27729 -4.33017e-19)
(-0.167484 0.249796 0)
(-0.195317 0.247471 1.26948e-18)
(-0.193773 0.282205 -6.95146e-19)
(-0.192196 0.309966 4.06529e-20)
(-0.18493 0.308734 4.76648e-19)
(-0.168359 0.294967 9.97266e-19)
(-0.140139 0.270524 1.18896e-19)
(-0.187634 0.244427 1.35437e-18)
(-0.180461 0.286012 8.6079e-19)
(-0.177418 0.319597 5.97812e-19)
(-0.168599 0.322257 -6.92902e-19)
(-0.149086 0.311567 1.25258e-19)
(-0.114616 0.288835 0)
(-0.177675 0.240833 -1.3784e-18)
(-0.166211 0.289186 5.23709e-20)
(-0.162587 0.329004 -1.33265e-18)
(-0.153214 0.335328 1.19037e-18)
(-0.131893 0.326932 -6.29967e-20)
(-0.0924551 0.304353 0)
(-0.156975 0.242592 -3.98495e-20)
(-0.151777 0.291644 7.98142e-20)
(-0.147989 0.337966 6.17807e-19)
(-0.139143 0.347835 -5.67964e-19)
(-0.117538 0.341116 -3.85981e-19)
(-0.0753993 0.31715 -2.40932e-19)
(-0.128999 0.241542 -1.09153e-18)
(-0.1383 0.291474 -8.78227e-19)
(-0.133885 0.345747 0)
(-0.126646 0.359581 7.30345e-20)
(-0.106595 0.354451 -5.86039e-19)
(-0.065089 0.327688 -1.21995e-19)
(-0.112503 0.228576 1.03367e-18)
(-0.12655 0.286807 8.88775e-19)
(-0.120175 0.351274 8.70932e-20)
(-0.11571 0.37026 -1.47169e-19)
(-0.099254 0.367631 1.98789e-19)
(-0.0629997 0.336092 -2.43992e-19)
(-0.0970027 0.208764 0)
(-0.114476 0.277623 0)
(-0.106204 0.3539 0)
(-0.106152 0.379529 0)
(-0.0949174 0.381722 5.41988e-19)
(-0.0724214 0.341972 4.98093e-19)
(-0.0782098 0.185425 0)
(-0.100678 0.263993 0)
(-0.0912511 0.353402 0)
(-0.0965666 0.386575 -3.96563e-19)
(-0.0931711 0.399608 -1.40615e-19)
(-0.0952768 0.343773 -5.70133e-19)
(-0.0628613 0.162383 5.45041e-19)
(-0.085743 0.246259 2.97225e-20)
(-0.0753139 0.349727 0)
(-0.0865061 0.389111 3.3128e-19)
(-0.08927 0.426415 2.15561e-19)
(-0.119914 0.344682 6.56778e-20)
(-0.0488236 0.135 -2.73379e-20)
(-0.0695354 0.221732 -1.6445e-20)
(-0.0588731 0.340441 2.51566e-20)
(-0.0762827 0.37933 -3.5126e-19)
(-0.07754 0.46347 3.07196e-19)
(-0.124809 0.34789 0)
(-0.030146 0.0689344 -7.2314e-19)
(-0.0517635 0.156461 -1.65916e-20)
(-0.0398898 0.297368 2.76834e-20)
(-0.058296 0.321895 3.0052e-19)
(-0.0497367 0.482767 -4.42421e-19)
(-0.114247 0.300132 0)
(-0.394951 -0.0829927 1.3397e-19)
(-0.43533 -0.106457 0)
(-0.43566 -0.1046 0)
(-0.413539 -0.0956614 3.89299e-20)
(-0.374126 -0.0832403 0)
(-0.322084 -0.0684364 -5.12427e-20)
(-0.261137 -0.0513769 -1.98595e-20)
(-0.194505 -0.0324632 4.93799e-20)
(-0.124916 -0.0125011 1.2336e-20)
(-0.0545857 0.00786658 -2.95496e-20)
(0.0148556 0.0280678 1.10615e-20)
(0.0821199 0.0476183 -9.93555e-21)
(0.146264 0.0661565 -7.53776e-21)
(0.206644 0.083378 6.36072e-22)
(0.262817 0.0990301 1.24065e-20)
(0.314534 0.112891 -4.87954e-21)
(0.361761 0.124839 0)
(0.404579 0.134786 -3.47729e-21)
(0.443194 0.142682 7.14362e-21)
(0.477929 0.1485 -3.19183e-21)
(0.509192 0.152233 5.54289e-22)
(0.537469 0.153986 8.21355e-22)
(0.563022 0.153797 -5.60699e-22)
(0.585395 0.150798 -3.95634e-23)
(-0.375986 -0.0623587 7.82257e-21)
(-0.422555 -0.0987957 0)
(-0.430314 -0.108524 -5.51706e-21)
(-0.415325 -0.112146 -2.70822e-20)
(-0.381644 -0.111389 -8.49655e-21)
(-0.335146 -0.106871 -2.61294e-20)
(-0.280175 -0.0984184 0)
(-0.220155 -0.086328 0)
(-0.157852 -0.0713899 7.93239e-22)
(-0.0954693 -0.0544031 -1.06696e-20)
(-0.0344268 -0.0361078 -7.27828e-21)
(0.0242499 -0.0171539 0)
(0.0798599 0.00194607 2.62165e-22)
(0.131918 0.0207509 0)
(0.180106 0.0388507 2.51638e-21)
(0.224104 0.0557199 -1.02337e-22)
(0.263896 0.0711197 0)
(0.299605 0.0848176 -5.0367e-23)
(0.331457 0.0965288 4.74358e-22)
(0.359788 0.106051 -5.10718e-22)
(0.385046 0.113194 1.93553e-22)
(0.407675 0.117799 -3.25727e-22)
(0.427617 0.119695 7.5861e-23)
(0.444809 0.118767 4.88124e-23)
(-0.368368 -0.040041 -3.98866e-21)
(-0.411966 -0.0868146 6.65044e-21)
(-0.421763 -0.109557 -6.02116e-21)
(-0.409087 -0.126315 -3.73185e-20)
(-0.377085 -0.137907 0)
(-0.331874 -0.143929 2.63116e-20)
(-0.278501 -0.144019 1.12526e-20)
(-0.220823 -0.138445 8.91671e-21)
(-0.161788 -0.128034 1.16811e-20)
(-0.103605 -0.113939 6.09162e-22)
(-0.0475446 -0.0971652 -1.06256e-21)
(0.00558276 -0.0785731 -8.98313e-22)
(0.0553175 -0.0589 -4.11757e-21)
(0.101441 -0.0387393 -2.7737e-21)
(0.143899 -0.0185791 -1.9561e-21)
(0.182826 0.00124949 1.01909e-22)
(0.2182 0.0201124 0)
(0.250062 0.0374546 5.01428e-23)
(0.278633 0.0528471 3.36997e-23)
(0.304162 0.065834 -6.30244e-22)
(0.326809 0.0760242 7.49667e-22)
(0.346676 0.0830644 -2.84085e-22)
(0.363877 0.0870229 8.43906e-23)
(0.380006 0.0891929 -1.33419e-23)
(-0.361357 -0.0202809 -1.47072e-19)
(-0.400324 -0.0733345 -2.7262e-20)
(-0.408962 -0.108533 2.46798e-20)
(-0.394857 -0.13856 8.36294e-20)
(-0.360436 -0.162961 7.12778e-20)
(-0.312086 -0.179735 5.59446e-20)
(-0.255789 -0.188112 -1.69514e-21)
(-0.196169 -0.188484 1.1635e-20)
(-0.136442 -0.181868 -1.77755e-20)
(-0.0787886 -0.169877 -3.78311e-20)
(-0.02438 -0.15393 9.36279e-21)
(0.0262188 -0.135214 1.35356e-20)
(0.0728089 -0.114703 -1.16301e-20)
(0.115425 -0.0931839 7.54607e-21)
(0.154224 -0.0713134 7.96812e-21)
(0.189458 -0.0496471 -1.88853e-21)
(0.22142 -0.0286776 -2.60843e-21)
(0.250434 -0.00886957 1.18341e-21)
(0.2767 0.0093469 -7.15596e-22)
(0.300379 0.0255336 -3.15733e-22)
(0.321596 0.0393919 -2.8222e-22)
(0.34041 0.0507809 1.34843e-23)
(0.357576 0.0597143 -1.09247e-21)
(0.375387 0.0663671 1.51755e-21)
(-0.352032 -0.000340152 3.65306e-19)
(-0.38532 -0.0584088 0)
(-0.390606 -0.105237 4.78665e-20)
(-0.371694 -0.148997 -1.26459e-19)
(-0.330476 -0.186741 -3.69873e-21)
(-0.274257 -0.21445 -5.2847e-20)
(-0.210398 -0.230582 8.59251e-20)
(-0.144589 -0.23587 -3.63654e-20)
(-0.080463 -0.23187 0)
(-0.0201196 -0.220736 -3.24164e-20)
(0.0354766 -0.204487 4.4192e-20)
(0.086078 -0.184721 -2.6257e-20)
(0.131831 -0.162696 2.35728e-20)
(0.17309 -0.13937 -2.0273e-21)
(0.210287 -0.115511 0)
(0.243877 -0.0917608 2.34474e-21)
(0.274304 -0.0686797 1.41513e-21)
(0.301972 -0.0467743 -1.71619e-21)
(0.327215 -0.0265087 -1.42602e-21)
(0.350278 -0.00820998 1.37202e-21)
(0.371315 0.0078836 3.5338e-22)
(0.390628 0.0217336 0)
(0.409505 0.0335978 -5.13617e-22)
(0.43062 0.0432267 1.18265e-21)
(-0.33914 0.021072 -6.4257e-19)
(-0.365859 -0.0415809 6.02904e-20)
(-0.365501 -0.0995292 5.0059e-20)
(-0.338004 -0.157412 -3.08467e-19)
(-0.285032 -0.209065 1.43405e-19)
(-0.215595 -0.247737 -1.74441e-19)
(-0.139188 -0.270821 8.9324e-20)
(-0.0628952 -0.279558 0)
(0.00914089 -0.276533 0)
(0.0749201 -0.264704 0)
(0.133861 -0.246737 2.18751e-20)
(0.186206 -0.224757 -3.54024e-20)
(0.232618 -0.200364 1.64788e-21)
(0.273889 -0.174683 1.89842e-20)
(0.310841 -0.148548 -1.99982e-21)
(0.344217 -0.122623 -7.56642e-21)
(0.374682 -0.0974464 -7.2094e-22)
(0.4028 -0.0734651 -1.62089e-21)
(0.429031 -0.0510487 1.5366e-21)
(0.453721 -0.0304847 -3.55686e-21)
(0.477081 -0.0119633 0)
(0.499473 0.00449033 -2.12377e-21)
(0.521896 0.0190798 0)
(0.547633 0.0311224 -1.14577e-21)
(-0.322069 0.0441262 5.57582e-19)
(-0.341025 -0.022355 0)
(-0.332304 -0.0908662 0)
(-0.291717 -0.163317 1.8206e-19)
(-0.220981 -0.229493 7.06599e-20)
(-0.131974 -0.278988 4.45602e-20)
(-0.0375258 -0.307831 -2.74625e-19)
(0.0534771 -0.318118 7.68064e-20)
(0.136239 -0.313708 -4.9337e-20)
(0.209028 -0.298915 0)
(0.272075 -0.27741 -4.10713e-20)
(0.32656 -0.251887 3.87596e-20)
(0.373876 -0.224271 0)
(0.415387 -0.195829 -8.00403e-21)
(0.452343 -0.167388 4.51657e-21)
(0.485814 -0.139578 0)
(0.516693 -0.11287 -3.5639e-21)
(0.545713 -0.0876225 5.04367e-21)
(0.573452 -0.0641055 5.14837e-21)
(0.600355 -0.042516 1.12026e-20)
(0.62665 -0.0229694 -4.17633e-22)
(0.652836 -0.00543849 -7.87157e-21)
(0.679202 0.0105176 -8.97812e-21)
(0.711564 0.0254331 6.5934e-21)
(-0.300417 0.0690055 -7.94805e-19)
(-0.309926 -0.000278329 -5.93086e-19)
(-0.289522 -0.0786377 0)
(-0.230169 -0.166001 0)
(-0.134166 -0.24708 3.31777e-19)
(-0.0184522 -0.306645 2.58627e-19)
(0.0989943 -0.338938 0)
(0.206719 -0.347431 -6.16842e-20)
(0.300063 -0.338692 8.36613e-21)
(0.378772 -0.318675 6.78956e-20)
(0.444658 -0.292011 0)
(0.500012 -0.261913 0)
(0.547072 -0.230521 0)
(0.587846 -0.199169 -7.79968e-21)
(0.623997 -0.168621 0)
(0.656867 -0.139375 -4.00235e-21)
(0.687519 -0.11179 1.03968e-20)
(0.716815 -0.0861096 0)
(0.745405 -0.0624878 -2.99895e-21)
(0.773785 -0.0409916 -6.36599e-21)
(0.801986 -0.0216493 1.27813e-20)
(0.83092 -0.00429998 0)
(0.858837 0.0113269 2.14778e-21)
(0.898394 0.0291542 1.92299e-22)
(-0.273958 0.0956973 5.87341e-19)
(-0.271763 0.0249159 6.02681e-19)
(-0.235527 -0.0622793 -1.1884e-19)
(-0.149966 -0.164523 1.08706e-19)
(-0.0194186 -0.260092 -3.36725e-19)
(0.129979 -0.327457 -2.62461e-19)
(0.272472 -0.359479 0)
(0.395565 -0.363043 -6.27844e-20)
(0.496963 -0.347394 1.59074e-19)
(0.578747 -0.320176 -6.89155e-20)
(0.644434 -0.287175 -8.13185e-20)
(0.697727 -0.252091 7.30895e-21)
(0.74189 -0.217043 1.56344e-20)
(0.779578 -0.183202 7.9081e-21)
(0.812909 -0.151207 0)
(0.843415 -0.121369 -2.07634e-21)
(0.872252 -0.0938536 -4.67183e-21)
(0.900378 -0.0687749 0)
(0.92837 -0.046151 6.55541e-21)
(0.956712 -0.0258599 -2.87886e-22)
(0.984903 -0.00804404 0)
(1.0155 0.00811735 5.71968e-21)
(1.04133 0.0206445 4.5866e-21)
(1.09028 0.0404066 3.36485e-21)
(-0.242715 0.123906 0)
(-0.225959 0.0531361 0)
(-0.168558 -0.0415199 0)
(-0.0464874 -0.157849 -2.12869e-19)
(0.130104 -0.26542 2.62519e-20)
(0.318636 -0.336495 1.55656e-19)
(0.485198 -0.364378 0)
(0.619642 -0.360024 0)
(0.723163 -0.335644 0)
(0.801406 -0.300704 0)
(0.860634 -0.261774 8.23204e-20)
(0.90649 -0.222659 -7.23738e-21)
(0.943272 -0.185314 -1.58514e-20)
(0.974142 -0.150636 0)
(1.0017 -0.118906 4.47863e-22)
(1.02735 -0.0903037 -5.92578e-21)
(1.05286 -0.0646562 5.24443e-21)
(1.07852 -0.0419414 -4.49758e-21)
(1.10412 -0.0220639 -6.60447e-21)
(1.12947 -0.00465004 -2.51444e-20)
(1.15345 0.00998366 2.45383e-20)
(1.17769 0.0236209 -1.15091e-21)
(1.1945 0.0314987 -2.53789e-20)
(1.23676 0.0497667 -3.8763e-21)
(-0.207073 0.15298 0)
(-0.172442 0.0837425 5.99015e-19)
(-0.0869275 -0.0169171 -1.33418e-19)
(0.0857708 -0.14514 1.22068e-19)
(0.320302 -0.259229 0)
(0.548323 -0.328373 0)
(0.731406 -0.349134 2.21291e-19)
(0.864223 -0.335869 0)
(0.956437 -0.304171 -1.68068e-20)
(1.01942 -0.264001 -8.64169e-20)
(1.06283 -0.222127 0)
(1.09389 -0.182091 2.54997e-20)
(1.11749 -0.145557 -1.50282e-20)
(1.13728 -0.113062 -7.64602e-22)
(1.15574 -0.0844112 -8.37527e-21)
(1.17287 -0.0594765 1.95656e-21)
(1.18824 -0.0380406 0)
(1.20211 -0.0198224 1.04116e-20)
(1.21495 -0.00450877 -4.3952e-21)
(1.2267 0.00856187 5.62483e-21)
(1.23724 0.0193033 4.52756e-21)
(1.24725 0.0290483 -1.70326e-20)
(1.25546 0.0337615 2.11812e-20)
(1.28406 0.0491557 1.21596e-21)
(-0.167913 0.181925 7.32918e-19)
(-0.112235 0.115429 -4.50493e-19)
(0.0109914 0.00882593 -1.4132e-19)
(0.25115 -0.125642 0)
(0.548192 -0.238442 0)
(0.803463 -0.300656 4.50425e-19)
(0.980886 -0.312411 -3.50891e-19)
(1.09014 -0.29353 -3.01985e-19)
(1.15471 -0.259865 3.53539e-19)
(1.19125 -0.2204 6.68607e-20)
(1.21154 -0.18121 -6.27002e-20)
(1.22305 -0.145212 0)
(1.23036 -0.113412 8.35938e-20)
(1.236 -0.0859138 -7.05328e-20)
(1.23984 -0.0626789 2.42648e-20)
(1.24338 -0.0428741 -1.95363e-21)
(1.24725 -0.0259369 -2.9565e-23)
(1.25152 -0.0116338 8.69858e-21)
(1.25542 2.87326e-05 -8.35076e-21)
(1.25898 0.0096252 0)
(1.26251 0.0174595 -4.48448e-21)
(1.2663 0.0238934 -8.7848e-21)
(1.27041 0.0279582 2.7318e-20)
(1.2903 0.0435907 -1.88204e-20)
(-0.126514 0.209457 5.72335e-21)
(-0.0474441 0.145034 0)
(0.125637 0.0328859 0)
(0.449188 -0.0987145 0)
(0.795534 -0.200846 1.89661e-19)
(1.04977 -0.253655 -4.87325e-19)
(1.19221 -0.259104 -2.45489e-20)
(1.26162 -0.240213 -2.60024e-20)
(1.2918 -0.211146 -2.27994e-19)
(1.30053 -0.177943 -8.12126e-20)
(1.29899 -0.145857 5.72656e-20)
(1.29365 -0.116934 7.3595e-20)
(1.28783 -0.0915024 -1.1549e-20)
(1.28232 -0.0695676 -5.29676e-20)
(1.27783 -0.0508801 2.92094e-20)
(1.27447 -0.0352276 7.92964e-21)
(1.27189 -0.0221592 -8.1183e-21)
(1.27034 -0.0110624 1.6846e-21)
(1.26877 -0.00213906 3.27927e-21)
(1.26774 0.00502556 -1.62016e-20)
(1.26781 0.0108858 1.4211e-20)
(1.26806 0.0141344 -4.49818e-21)
(1.26814 0.0184661 4.94364e-21)
(1.27564 0.034103 2.67162e-21)
(-0.0848121 0.233946 -1.59806e-18)
(0.0202421 0.168701 7.98569e-19)
(0.258996 0.0550837 0)
(0.671762 -0.0631454 5.13234e-19)
(1.03674 -0.148658 5.96488e-19)
(1.25462 -0.191618 -7.12353e-21)
(1.34722 -0.196055 7.76494e-19)
(1.37722 -0.181187 -1.8494e-19)
(1.37947 -0.160029 1.33865e-20)
(1.36723 -0.135171 9.45154e-20)
(1.35066 -0.111399 3.93142e-22)
(1.33428 -0.0900466 3.07344e-20)
(1.31977 -0.0713374 -3.85349e-20)
(1.30764 -0.0550839 -1.79982e-20)
(1.29774 -0.0410998 7.74245e-21)
(1.28975 -0.0292337 -1.14309e-20)
(1.28308 -0.0193257 -2.46471e-21)
(1.277 -0.0108679 1.95936e-21)
(1.27202 -0.00379566 -5.36931e-21)
(1.26836 0.00162728 1.44332e-20)
(1.26434 0.00468905 -1.59489e-20)
(1.2588 0.00725755 0)
(1.25153 0.0124203 -7.43349e-21)
(1.24597 0.0293743 -7.79358e-21)
(-0.044919 0.253852 5.05323e-19)
(0.0903431 0.183372 -6.51281e-19)
(0.417594 0.0778864 1.48273e-19)
(0.903601 -0.0148938 -5.15254e-19)
(1.24658 -0.0841219 -5.91614e-19)
(1.40585 -0.121887 -1.38004e-19)
(1.45136 -0.128064 -2.14796e-19)
(1.45171 -0.119014 2.7679e-19)
(1.43601 -0.10777 -1.25717e-19)
(1.40851 -0.0913914 1.57147e-19)
(1.38236 -0.0757194 -5.69761e-20)
(1.35932 -0.0615611 0)
(1.33973 -0.0490463 -7.49962e-20)
(1.32333 -0.0381166 4.4691e-20)
(1.30961 -0.0286553 0)
(1.29802 -0.020544 -1.548e-20)
(1.2881 -0.0137102 8.54474e-21)
(1.27926 -0.00822387 0)
(1.27158 -0.00353519 7.3102e-21)
(1.2636 7.14742e-05 -8.17156e-21)
(1.25441 0.00288637 0)
(1.24342 0.00547253 -3.7594e-20)
(1.23074 0.0114365 3.61205e-20)
(1.21532 0.0295784 2.54972e-21)
(-0.00909895 0.26732 6.78322e-19)
(0.167222 0.187462 1.61257e-19)
(0.610321 0.108576 -1.46565e-19)
(1.12406 0.045256 0)
(1.40748 -0.0114227 0)
(1.50546 -0.0494828 0)
(1.51363 -0.0598586 0)
(1.49844 -0.0604816 -1.05756e-20)
(1.46467 -0.0560712 0)
(1.42874 -0.0492708 -1.47201e-19)
(1.39757 -0.041583 0)
(1.37112 -0.0340204 2.835e-21)
(1.34882 -0.0269902 7.31643e-20)
(1.33003 -0.0206557 -1.34949e-20)
(1.31407 -0.0150893 -3.21994e-20)
(1.30027 -0.0102914 2.02254e-20)
(1.28803 -0.00621814 -5.85419e-21)
(1.27678 -0.00282924 -3.04912e-21)
(1.26577 -7.18188e-05 0)
(1.25429 0.00225786 4.9713e-21)
(1.24147 0.00425129 0)
(1.22649 0.00684342 -3.915e-20)
(1.20929 0.0140505 3.55935e-20)
(1.1877 0.0320222 -4.11199e-21)
(0.0207251 0.271413 -7.75698e-19)
(0.260972 0.185514 3.156e-19)
(0.834759 0.156958 -1.4282e-19)
(1.31165 0.113571 2.12522e-19)
(1.5162 0.0619667 -1.9225e-19)
(1.56155 0.0210384 1.12271e-19)
(1.54979 0.00479239 -1.82287e-19)
(1.51501 -0.00474625 5.35459e-20)
(1.47222 -0.00948488 -1.07541e-19)
(1.4343 -0.0104095 7.01053e-20)
(1.40183 -0.00943921 0)
(1.37427 -0.00755963 -6.21562e-20)
(1.35083 -0.00532415 2.59894e-20)
(1.33079 -0.00304687 0)
(1.31343 -0.000914641 -8.36607e-21)
(1.29808 0.000975443 0)
(1.28405 0.00260292 -2.85638e-21)
(1.2707 0.00400556 -7.62972e-21)
(1.25741 0.00526183 1.00862e-20)
(1.24346 0.00649822 -1.69662e-20)
(1.22784 0.00789314 6.0219e-21)
(1.20962 0.0105249 9.03765e-21)
(1.18888 0.0185278 -4.91286e-20)
(1.16303 0.0359954 5.00036e-20)
(0.0465151 0.26228 9.2982e-19)
(0.387486 0.195746 -1.54821e-19)
(1.06457 0.224408 1.25916e-19)
(1.44891 0.186413 7.99442e-20)
(1.57695 0.131581 -1.73965e-19)
(1.58744 0.0898094 0)
(1.55638 0.0628854 7.10531e-20)
(1.51134 0.0445179 -6.544e-20)
(1.46898 0.0330186 0)
(1.43146 0.0257786 0)
(1.39916 0.0212585 3.46992e-20)
(1.37156 0.0184117 0)
(1.34791 0.0165827 0)
(1.32741 0.0153639 -5.92784e-21)
(1.30932 0.0144979 1.11329e-20)
(1.29296 0.0138324 2.66197e-21)
(1.27768 0.0133012 -2.90161e-21)
(1.26285 0.0129164 0)
(1.24787 0.0127656 0)
(1.23197 0.0129545 -2.20192e-20)
(1.21412 0.0136442 7.95117e-20)
(1.19352 0.0159985 -1.02002e-19)
(1.17034 0.0241644 -4.81349e-21)
(1.14186 0.0408579 5.7682e-20)
(0.0766933 0.241472 -7.65334e-19)
(0.582778 0.24553 7.17313e-19)
(1.25225 0.301979 -1.15038e-19)
(1.53304 0.257174 -7.91775e-20)
(1.60103 0.196528 -1.53018e-19)
(1.58603 0.148746 0)
(1.54398 0.114204 0)
(1.49948 0.0898371 -8.38142e-20)
(1.45815 0.0722502 7.7392e-20)
(1.42189 0.0594571 0)
(1.3907 0.0500618 -3.42287e-20)
(1.3639 0.0430367 -1.42834e-20)
(1.34069 0.037652 7.45687e-21)
(1.3203 0.0334069 -5.75878e-21)
(1.302 0.0299662 -7.88961e-21)
(1.28513 0.0271193 1.91569e-20)
(1.26909 0.0247559 0)
(1.25328 0.0228527 0)
(1.2371 0.0214677 -1.19126e-20)
(1.2198 0.0206694 2.46421e-20)
(1.20039 0.020581 4.5329e-20)
(1.17819 0.0223925 3.79286e-20)
(1.15336 0.0302235 -1.31444e-19)
(1.12316 0.0456977 8.51897e-20)
(0.128509 0.212617 -8.08301e-20)
(0.828839 0.337189 -1.03043e-18)
(1.39141 0.38076 1.0168e-19)
(1.57316 0.321948 2.59931e-19)
(1.59681 0.254465 -2.05427e-19)
(1.56629 0.200536 6.96614e-20)
(1.52294 0.160342 -1.11341e-19)
(1.47968 0.130162 7.62409e-20)
(1.4408 0.107338 -1.23655e-20)
(1.40697 0.0899758 0)
(1.37776 0.0766097 -1.39801e-20)
(1.35242 0.0661324 0)
(1.33018 0.0577436 5.8656e-21)
(1.31032 0.0508836 0)
(1.29219 0.045172 -1.04829e-20)
(1.2752 0.040364 -8.05391e-21)
(1.25878 0.0363213 0)
(1.24239 0.0329957 0)
(1.22544 0.0304171 -1.37661e-20)
(1.20721 0.0286132 0)
(1.18677 0.027646 -1.5361e-20)
(1.16353 0.0286991 3.89917e-20)
(1.13759 0.0358854 2.35165e-20)
(1.10642 0.0499013 -7.76177e-20)
(0.226276 0.200294 -7.71532e-20)
(1.07406 0.452349 7.20794e-19)
(1.47399 0.455112 -1.90299e-20)
(1.57536 0.379451 -1.72015e-20)
(1.57184 0.305056 1.50614e-19)
(1.53595 0.245745 0)
(1.49378 0.200169 0)
(1.45408 0.165223 -8.66137e-20)
(1.41889 0.138293 6.26787e-20)
(1.38821 0.117348 1.41122e-20)
(1.36148 0.100834 5.05859e-21)
(1.33799 0.0875885 -9.13502e-21)
(1.31705 0.0767613 1.06654e-20)
(1.29803 0.0677458 -1.96725e-20)
(1.28038 0.0601218 -1.57852e-21)
(1.26357 0.0536124 -2.94617e-21)
(1.24709 0.0480554 -2.10197e-20)
(1.23045 0.0433842 7.45456e-20)
(1.21309 0.0396061 -4.81338e-20)
(1.19434 0.0367164 5.21617e-20)
(1.17334 0.0347222 -3.93484e-20)
(1.14954 0.0348007 -1.14034e-20)
(1.12303 0.0410985 -9.18384e-21)
(1.09157 0.0536173 -1.14461e-20)
(0.405965 0.308063 0)
(1.24869 0.575619 5.10683e-20)
(1.4996 0.522962 -1.12678e-19)
(1.54975 0.429711 5.9936e-20)
(1.53319 0.34823 0)
(1.49736 0.283598 -1.57682e-20)
(1.45957 0.233773 5.81298e-21)
(1.42471 0.195264 -2.05e-20)
(1.39381 0.165222 -5.57136e-21)
(1.36666 0.141514 4.24737e-21)
(1.34268 0.122532 0)
(1.32128 0.107082 9.31527e-21)
(1.30186 0.0942844 -1.5924e-20)
(1.2839 0.0835058 1.4985e-20)
(1.26695 0.0742968 -3.25376e-21)
(1.25054 0.0663517 1.21013e-20)
(1.23426 0.059481 0)
(1.21764 0.0535952 0)
(1.20018 0.0486755 5.92285e-20)
(1.18127 0.0446854 -8.59176e-21)
(1.16012 0.0415855 -4.65061e-20)
(1.1362 0.0405407 1.13361e-20)
(1.10956 0.0457708 -1.24013e-20)
(1.07833 0.056823 1.13593e-20)
(0.714125 0.563622 -5.78548e-20)
(1.31569 0.681584 5.0024e-20)
(1.47789 0.578926 -8.64411e-20)
(1.50408 0.470838 2.8956e-20)
(1.4849 0.382603 -5.58806e-20)
(1.4539 0.314057 4.93856e-20)
(1.42212 0.261298 -6.50509e-21)
(1.39278 0.220317 1.01141e-23)
(1.36651 0.188092 4.59145e-21)
(1.34308 0.1624 9.04538e-22)
(1.32202 0.141596 -1.5618e-21)
(1.30283 0.124468 -3.17187e-21)
(1.28508 0.11013 0)
(1.26834 0.0979373 -1.40145e-20)
(1.25224 0.0874251 1.12598e-20)
(1.23642 0.0782677 -1.19523e-20)
(1.22052 0.0702531 -2.83514e-20)
(1.20414 0.0632696 4.21116e-20)
(1.18684 0.0572723 0)
(1.16806 0.052191 -1.32728e-20)
(1.1471 0.047952 2.70335e-20)
(1.12343 0.0456936 -5.88824e-20)
(1.09704 0.0497386 7.25638e-20)
(1.06646 0.0594868 -2.02638e-20)
(0.958258 0.839493 0)
(1.31279 0.761761 0)
(1.42473 0.617094 9.74596e-20)
(1.44485 0.499013 -1.10682e-20)
(1.43129 0.407296 3.2848e-20)
(1.40773 0.336875 -1.49992e-20)
(1.38285 0.282681 1.11882e-20)
(1.35937 0.240418 -1.01566e-20)
(1.33785 0.206939 -1.15371e-21)
(1.31819 0.179995 1.04583e-21)
(1.30007 0.157954 3.80814e-20)
(1.28316 0.139626 -1.45678e-21)
(1.26714 0.124143 -5.6226e-21)
(1.25171 0.110866 2.2625e-20)
(1.23658 0.0993239 7.73224e-21)
(1.22147 0.0891789 -1.57291e-20)
(1.2061 0.0801991 0)
(1.19013 0.0722498 -1.50413e-20)
(1.17318 0.0652622 -8.64059e-21)
(1.15478 0.0591298 -6.38969e-21)
(1.1343 0.0537501 -8.33797e-21)
(1.1112 0.050225 -8.36134e-21)
(1.08536 0.0529675 2.52986e-20)
(1.05587 0.0617482 -3.17805e-20)
(-0.0559179 -0.0692071 -2.08522e-19)
(-0.0630624 -0.0923387 5.06712e-19)
(-0.0445627 -0.00393001 -1.39397e-19)
(-0.0299891 0.198655 1.43231e-19)
(0.0914452 0.36995 -2.39208e-20)
(0.169892 0.955471 0)
(-0.0707449 -0.0855937 -2.14242e-19)
(-0.0483681 -0.0662299 -1.64688e-19)
(-0.00192087 0.0461309 1.28705e-19)
(0.044797 0.243174 -1.18583e-19)
(0.152852 0.45027 0)
(0.340076 0.791899 4.98195e-21)
(-0.075517 -0.084553 3.02263e-21)
(-0.0304803 -0.0390845 -1.503e-19)
(0.0403745 0.0807679 7.29328e-21)
(0.118473 0.26699 6.12444e-21)
(0.263624 0.47759 0)
(0.460618 0.734966 5.54272e-20)
(-0.0803181 -0.0814074 4.10698e-19)
(-0.0120254 -0.0166752 -1.22843e-19)
(0.0802644 0.106875 -1.37987e-20)
(0.185753 0.282755 0)
(0.348356 0.483824 3.37027e-20)
(0.545161 0.687006 -1.07639e-19)
(-0.0869924 -0.0729608 -4.1229e-19)
(0.00560806 0.00173003 2.54204e-19)
(0.116378 0.126821 -2.64307e-20)
(0.244414 0.293472 6.52328e-20)
(0.416627 0.479857 -3.75112e-20)
(0.606217 0.639764 -2.75355e-19)
(-0.0895449 -0.0655615 0)
(0.0215245 0.0164369 -5.26311e-19)
(0.147893 0.141392 0)
(0.293677 0.300231 0)
(0.470839 0.469653 0)
(0.646913 0.597021 1.73876e-19)
(-0.0909717 -0.0601574 -1.73922e-18)
(0.035243 0.0273794 5.1922e-19)
(0.174615 0.151158 -8.30984e-19)
(0.334167 0.303073 -8.55288e-20)
(0.512621 0.455821 7.5513e-20)
(0.674114 0.558184 0)
(-0.0915281 -0.0570217 1.78991e-18)
(0.0465905 0.034707 -3.21518e-20)
(0.196602 0.156624 7.80891e-19)
(0.366695 0.301902 4.46617e-20)
(0.543908 0.439975 -7.04014e-20)
(0.691578 0.522966 6.17193e-20)
(-0.0912352 -0.0560396 -1.73244e-18)
(0.0554634 0.0387406 6.40031e-20)
(0.213907 0.158223 5.11315e-20)
(0.392013 0.297028 -8.99424e-20)
(0.566695 0.42272 5.92668e-19)
(0.701903 0.491059 -3.63983e-19)
(-0.0904304 -0.0567503 5.50854e-20)
(0.0617628 0.0399135 -1.12466e-18)
(0.226594 0.156365 5.27513e-20)
(0.410729 0.288961 -7.17746e-19)
(0.582423 0.404464 -5.92976e-19)
(0.707019 0.46178 9.54383e-19)
(-0.0891637 -0.0589727 1.69688e-18)
(0.065405 0.0386995 1.03372e-18)
(0.234685 0.151453 1.05069e-19)
(0.423261 0.27816 1.26474e-18)
(0.592132 0.385455 -5.2047e-19)
(0.70835 0.43454 -4.77334e-19)
(-0.0877278 -0.0622832 0)
(0.0662635 0.0355263 -6.48549e-20)
(0.238143 0.143873 -5.24181e-20)
(0.430003 0.265025 -5.45241e-19)
(0.596869 0.365777 5.19946e-19)
(0.706587 0.40872 1.16535e-19)
(-0.0864055 -0.0660537 1.64496e-18)
(0.0641876 0.0307675 -3.27078e-20)
(0.23687 0.13388 -5.29334e-20)
(0.431277 0.249643 9.12028e-19)
(0.597268 0.345558 5.2477e-19)
(0.70219 0.383869 0)
(-0.0854764 -0.0697066 -1.59415e-18)
(0.0590721 0.0247771 9.26234e-19)
(0.230795 0.121689 -5.35013e-20)
(0.427113 0.232012 -6.41039e-19)
(0.593494 0.324534 -1.20649e-18)
(0.695639 0.359603 -1.18485e-19)
(-0.0852323 -0.0726583 -1.70378e-18)
(0.050813 0.0178456 -1.1393e-18)
(0.219786 0.107453 -8.22388e-19)
(0.417423 0.212071 9.22037e-19)
(0.585676 0.302378 -1.58246e-19)
(0.687176 0.335433 0)
(-0.0860153 -0.0743818 1.73454e-18)
(0.0393423 0.0102111 -6.79808e-20)
(0.203691 0.0912894 1.82777e-18)
(0.401965 0.189638 -1.58215e-18)
(0.573719 0.278639 7.39987e-20)
(0.676957 0.310782 0)
(-0.0881775 -0.07443 5.42921e-20)
(0.0246451 0.00202922 -1.03582e-19)
(0.182344 0.073309 -8.40916e-19)
(0.380277 0.164509 7.51026e-19)
(0.557272 0.252674 4.67913e-19)
(0.665066 0.284966 2.49968e-19)
(-0.0926657 -0.0726472 1.68854e-18)
(0.00693564 -0.0066266 1.15931e-18)
(0.155599 0.0536741 0)
(0.351687 0.136448 -9.40127e-20)
(0.53569 0.223665 7.13266e-19)
(0.651588 0.257151 1.23237e-19)
(-0.0992261 -0.0656868 -1.57658e-18)
(-0.013113 -0.0158117 -1.1815e-18)
(0.123363 0.0326331 -1.15612e-19)
(0.315358 0.105196 1.91865e-19)
(0.507966 0.190595 -2.34791e-19)
(0.636625 0.2264 2.56001e-19)
(-0.100271 -0.0604699 0)
(-0.0340988 -0.025277 0)
(0.085726 0.0106295 0)
(0.270348 0.0705377 0)
(0.472576 0.152488 -6.54141e-19)
(0.620201 0.191523 -5.18347e-19)
(-0.0989158 -0.0556736 0)
(-0.0541573 -0.0337104 0)
(0.0432419 -0.0113838 0)
(0.215499 0.0326349 4.98029e-19)
(0.425343 0.107855 1.68893e-19)
(0.601456 0.149115 5.93967e-19)
(-0.0959718 -0.0501797 -6.92045e-19)
(-0.0723971 -0.0402912 -3.90703e-20)
(-0.00260478 -0.0315769 0)
(0.148991 -0.00742358 -4.10359e-19)
(0.357764 0.0540676 -2.58932e-19)
(0.576612 0.0881404 -6.82764e-20)
(-0.0908932 -0.0440056 2.45135e-20)
(-0.0873405 -0.0445366 2.05474e-20)
(-0.049643 -0.0483132 -3.23998e-20)
(0.0658094 -0.047593 4.20391e-19)
(0.249903 -0.00999065 -3.46291e-19)
(0.547422 0.00804794 0)
(-0.0622073 -0.0342476 9.53333e-19)
(-0.0836819 -0.0449808 3.02244e-19)
(-0.0857726 -0.054858 3.36235e-20)
(-0.0355305 -0.0698254 -4.37206e-19)
(0.0634415 -0.0477289 3.61881e-19)
(0.522746 -0.00294414 -1.19699e-19)
(0.968212 1.03196 2.24925e-21)
(1.26279 0.800847 -2.02291e-21)
(1.3572 0.630397 -1.07971e-21)
(1.38215 0.512156 -1.93491e-21)
(1.37676 0.421994 -3.23843e-21)
(1.36112 0.352193 -4.98775e-21)
(1.3432 0.298185 -3.27831e-21)
(1.32549 0.255786 5.08532e-21)
(1.3086 0.221894 -9.01369e-21)
(1.29259 0.194339 -4.18258e-21)
(1.27735 0.171568 -1.3201e-20)
(1.2627 0.152457 1.57738e-21)
(1.24845 0.136176 -1.77826e-20)
(1.23438 0.122109 -8.69007e-21)
(1.22031 0.109794 -5.64705e-21)
(1.20601 0.098887 1.86302e-20)
(1.19126 0.0891414 0)
(1.17581 0.0803981 0)
(1.15935 0.0725606 8.62613e-21)
(1.14149 0.0654939 -8.50332e-21)
(1.12169 0.0590487 -9.68517e-21)
(1.09937 0.0542302 2.11737e-20)
(1.07438 0.055416 -4.01793e-21)
(1.04655 0.063817 4.62373e-21)
(0.94089 0.903385 -4.94244e-21)
(1.19613 0.769423 0)
(1.29109 0.623381 8.40121e-22)
(1.32056 0.512882 1.03462e-21)
(1.32302 0.427312 1.48594e-21)
(1.31537 0.360601 4.26929e-21)
(1.30422 0.308355 0)
(1.29193 0.266806 0)
(1.27935 0.233187 -4.41432e-22)
(1.26678 0.205543 5.65997e-21)
(1.2543 0.182465 4.8632e-21)
(1.24185 0.162917 0)
(1.22936 0.146132 -3.92882e-22)
(1.21671 0.131529 0)
(1.20376 0.118668 -5.15817e-21)
(1.19035 0.107212 3.62826e-22)
(1.17632 0.0969075 0)
(1.16147 0.0875772 3.45802e-22)
(1.14558 0.0791 -4.8583e-21)
(1.12833 0.0713281 5.3366e-21)
(1.10927 0.0640542 -5.01866e-21)
(1.0878 0.0579323 9.55947e-21)
(1.06378 0.0567081 -4.90217e-21)
(1.03829 0.0658424 -9.31796e-21)
(0.899703 0.847979 1.68062e-21)
(1.13863 0.738282 -2.2275e-21)
(1.22888 0.606681 1.96869e-21)
(1.26226 0.505331 1.44476e-20)
(1.27239 0.426511 0)
(1.27198 0.364004 -1.12357e-20)
(1.26677 0.314182 -5.68992e-21)
(1.25927 0.274006 -4.11906e-21)
(1.25058 0.241112 -8.36252e-21)
(1.24118 0.21377 -4.228e-22)
(1.23128 0.190715 9.62624e-22)
(1.22095 0.171012 -6.51017e-22)
(1.21021 0.153958 7.60745e-21)
(1.19901 0.139022 6.93967e-21)
(1.18725 0.125794 6.6912e-21)
(1.17483 0.113959 -3.60978e-22)
(1.16165 0.103274 0)
(1.14754 0.0935612 -3.45538e-22)
(1.13234 0.0847005 -3.38778e-22)
(1.11582 0.0765699 1.66024e-20)
(1.09765 0.0689253 -2.17217e-20)
(1.0774 0.0617251 5.10881e-21)
(1.05466 0.0565676 -5.86123e-21)
(1.02886 0.0681911 1.10742e-20)
(0.88178 0.774931 1.16338e-19)
(1.08371 0.688891 1.34235e-20)