/*--------------------------------*- C++ -*----------------------------------*  =========                 |
  \      /  F ield         | OpenFOAM: The Open Source CFD Toolbox
   \    /   O peration     | Website:  https://openfoam.org
    \  /    A nd           | Version:  11
     \/     M anipulation  |
\*---------------------------------------------------------------------------*/
FoamFile
{
    format      ascii;
    class       volScalarField;
    object      U;
}
// * * * * * * * * * * * * * * * * * * * * * * * * * * * * * * * * * * * * * //

dimensions      [0 1 -1 0 0 0 0];

internalField   nonuniform List<scalar> 
2880
( 
0.06966735547205385
0.1652440441334886
0.20841566646318688
0.17070225641125095
0.14869351348776516
0.2497354717872155
0.11664954559143925
0.19219231519711624
0.19144242672603282
0.1600890453894567
0.16135556022051878
0.24669516105326844
0.1382480893514531
0.19232810360564181
0.17867203939324933
0.15498010210228302
0.18034176667692936
0.28569067900880596
0.15517810788332753
0.18942358494070333
0.1684211231195017
0.15604043981056934
0.20781740590815845
0.33167140840180864
0.1728062851913192
0.18698085102466117
0.16155662927711817
0.1647284444160677
0.23317082366008057
0.3517442985529586
0.19103243516806012
0.1855582939444076
0.158446784910691
0.17874729272389828
0.26392315163376184
0.37500279667938496
0.20569692280556512
0.18218966563700403
0.15787759714852628
0.18731513733800992
0.273055922609176
0.40024663726665133
0.2140653378115941
0.18334738639170653
0.16007816989218612
0.19591690907557488
0.29610615082764286
0.440439062976353
0.2286125429262157
0.17881056902157574
0.15923979280180905
0.20379846106416316
0.3109313507991333
0.4468933262030583
0.2344196956316512
0.17970319890090508
0.16035130794018265
0.20515594295599465
0.3106504045410099
0.4594744447017251
0.24107853428466375
0.17878241507094697
0.15874390463138344
0.20743567070127975
0.3244475504836549
0.4768259300338035
0.246706446097973
0.18130202747398363
0.15934779401977195
0.20561305054776333
0.3240123508492667
0.4980510530101874
0.24997361014864347
0.18004482588520399
0.15556180624968158
0.20055639620449756
0.3261115573311907
0.508174533171707
0.2479414739591761
0.18033178060720936
0.15205343521418052
0.19772563452352288
0.31566057193197206
0.49845883862512574
0.24497202403909674
0.1838949553228017
0.14938292380087329
0.1952053673274905
0.31192434975773004
0.5142108040464304
0.23871057608582233
0.18734635420571918
0.1573528852642383
0.18387861014532064
0.3008860556408567
0.4893647312842358
0.23409200965468935
0.1931297564068315
0.16286946914407707
0.1734775953259196
0.284255820105908
0.47587987626943096
0.22341004343010124
0.2008933015479983
0.17008381305150935
0.16771683019969816
0.2758532380388518
0.47306381421667565
0.2128098599028308
0.20519680428158046
0.18042023360632453
0.16574996293513705
0.24904168764852516
0.43308403499657727
0.1970143500124179
0.21114426022310886
0.20034297641956333
0.16256815699706786
0.23433305210676486
0.40128289644352183
0.1765047932041254
0.21111682414767707
0.22113066829076855
0.17669236026081586
0.2075886498115053
0.3499469960598554
0.1559262573727584
0.20741370316424518
0.23763320666624366
0.20206103900487515
0.207809807507133
0.28274880591005874
0.13181381634912792
0.19473315838058447
0.2550923103476032
0.23135352475357962
0.2555888003428109
0.2214113176626254
0.07497293567758302
0.14330670080037358
0.24288466308659645
0.22297047929591948
0.37372755248872647
0.17564687694717585
0.42640012159860935
0.5492019197230744
0.5994666915287026
0.7174947122467508
0.7823662515657867
0.8516534582915765
0.9518316640035993
1.0196438458853638
1.1159755374301588
1.2065942150790594
1.2728102066479983
1.3255427631234133
1.3554323913108686
1.3770899100097265
1.4030435329907502
1.4008135734539033
1.3806710887992313
1.371943953712282
1.3471322141574618
1.3325455900793823
1.2942809957751076
1.270023889788415
1.240774806652111
1.192852265388873
0.4676720195227938
0.5738059128167485
0.6679358609727536
0.759675274422466
0.8317903503535443
0.9364273751151001
1.0214044630469552
1.1098545432599027
1.206033376750553
1.2708841082228464
1.3234448730731376
1.367326370055484
1.3851440506388224
1.3991955010626427
1.3965105170483627
1.39502372117076
1.3770707161870153
1.355481150555304
1.33280858222358
1.3078870969027507
1.2793154305958125
1.2554180069222534
1.2227465346827038
1.1760347407299383
0.4868781622525601
0.5991702912331787
0.7184160372969468
0.8126704155731175
0.9163527036148699
1.017624004552275
1.1100972857529767
1.1969640911124682
1.2648361001452908
1.3170641698889882
1.3583204083203162
1.3914385652994716
1.4063287973615912
1.4017783656474436
1.3843694485667908
1.3683398513861922
1.3636290867139633
1.3422336298919635
1.3099086773481536
1.2834994190947582
1.2663120468724027
1.2334287732754932
1.1944223227030548
1.1607824218740705
0.48312263833226254
0.6384722186759964
0.7453020778129933
0.8564187854180546
0.9794398474859396
1.083834990828525
1.1720056225664761
1.2517266606116677
1.3081001676160893
1.3614023215276243
1.3807651620553578
1.3948651020885254
1.3902139769331578
1.393424773162978
1.3831836382196512
1.3718340051839
1.3499042505056995
1.3233205982908702
1.2949173226057291
1.2762367223155875
1.2445208494284856
1.2133767971455218
1.1752384397228863
1.1387440290884374
0.5221408239772314
0.6687013935840341
0.812922302355941
0.9350088176145583
1.0436125583072944
1.1398503821136017
1.2246984740999312
1.292260004500466
1.350222442996774
1.3801946715840794
1.382457979044644
1.3836633504306954
1.3827051843954608
1.3722832722673197
1.3550376867102985
1.3602411142502002
1.3296637646953162
1.302359622921514
1.2827123250623438
1.2542509653962508
1.23041750955395
1.193386911817785
1.1601983202997364
1.1289542225448617
0.5538219267206685
0.7040102439009066
0.8542824587644441
0.991332002989469
1.108784067242084
1.2021533942627338
1.2835620979761064
1.3378231360605601
1.3765580732396976
1.3803638948112977
1.3954864958786366
1.4027589017156916
1.369642815859076
1.367600477193987
1.3413980087287263
1.3190375920639206
1.3045712257943418
1.2915966217509238
1.271231814040581
1.2312935784298398
1.2089794105738487
1.1719021801879959
1.1431824285123764
1.1061634324982768
0.5809300465866872
0.7610703187261879
0.9100652279619492
1.055604726368296
1.1652187428186929
1.2533538506655897
1.3098650492887174
1.3653989045901322
1.3710655100482707
1.3823519718119557
1.3746665038536479
1.3687188107418367
1.3507950875843606
1.352621662947394
1.3343414922816936
1.312648058787162
1.281676901677116
1.2620684729791045
1.2459321186630854
1.2150679048716961
1.1952300011714156
1.1621568261496693
1.1239716001023656
1.093386251677308
0.6280073300546373
0.7780963935696958
0.9559765798891539
1.1033428358768038
1.2158694401190142
1.2866888190267087
1.345361214953874
1.3622007568548584
1.38709293704703
1.36701963868234
1.3687687887845885
1.3574336604042687
1.3330927912969215
1.3250532512990862
1.309327382892494
1.2862097320299026
1.2669269857759868
1.2436331032075212
1.2273422891304986
1.2023012710314536
1.172204416937058
1.1483050907954366
1.1112508987893892
1.0796353231344678
0.6409721064569319
0.8462980558589881
1.0148123300263194
1.1522313080212851
1.2558371611385224
1.3065501295043693
1.351953906776128
1.3742299569165395
1.3747906565026953
1.3699144707495383
1.3559765229728762
1.3341347709184075
1.3276696453087231
1.3174936159587598
1.2879923988270126
1.2708813728644641
1.2404318309330584
1.2292141840609125
1.2112963647733563
1.1889537000967065
1.1625753754887143
1.132514769631859
1.1015116295316059
1.0664752197230742
0.6577361022068471
0.8843851481575571
1.065745347318622
1.1983888777472593
1.2825931525161929
1.3337958728976904
1.347094567497186
1.3611532082996125
1.367511996407896
1.3590020648482162
1.3375175605875365
1.3250442888098257
1.3100994527265168
1.2948011073070635
1.2785813635494911
1.2523312571337744
1.2325865389803037
1.2154959002646868
1.1961075376349857
1.1740666902979748
1.1419580146388733
1.1201715013486586
1.0916631259963696
1.0573223430847458
0.6944193178771869
0.9356837825584592
1.1089995512249693
1.2308797513532328
1.3185395531514061
1.3466363776311876
1.3476983704628545
1.3405670647012042
1.345637926070871
1.333389459373182
1.3193101373221467
1.304717023597349
1.2894036605561132
1.2757143364488757
1.2568801763897692
1.236422686240986
1.2184599192579664
1.199082911797595
1.1773201178756514
1.1578912313544765
1.1371528664414772
1.111231536282604
1.0796212648351535
1.049005401114565
0.7332539080563403
0.9708503588413313
1.157254424779777
1.2719888069199758
1.3269300228166059
1.3366123639579857
1.3393339291053543
1.3386562894864005
1.3286810314575654
1.309625824589663
1.298746002203376
1.2874675444970065
1.2766407481093225
1.2542598097281696
1.2402176820749378
1.2199372692473813
1.2083032788487964
1.1854361627913796
1.1728964457349726
1.147072150765288
1.1215803340324428
1.103251729822553
1.0684436916632514
1.040377064111251
0.7446714088573478
1.0097852655059947
1.1773980534273591
1.2666210103477293
1.312935418891306
1.3296958792644191
1.3336534889483145
1.3195528763805664
1.3088066384250991
1.2998208220943388
1.285966584441315
1.2639872465945872
1.2531114334889955
1.2277262640567081
1.2213018800259343
1.2055881553606116
1.1848862167854948
1.1736300010729714
1.1553235894416805
1.1412691347473751
1.1119282557979056
1.088538019731832
1.0593857445054655
1.0290330026357393
0.7891593172166818
1.0535796319204953
1.2232223856082647
1.281149619613575
1.322453014662797
1.3148461327202634
1.3095858312307183
1.3129030476680905
1.2916882420817313
1.2606047320916738
1.2561468972266878
1.2430768814744853
1.2275988633896882
1.220580789724356
1.2000360679712165
1.189156510887334
1.175952900042056
1.1578689707002623
1.1394892041078324
1.1209965957949262
1.099574053476308
1.0773191002079092
1.0529173889591288
1.0226596705309525
0.8057792256698342
1.0841902070101606
1.2507866420490914
1.2883035996779704
1.3069551884931445
1.3077254120688049
1.2871224042058724
1.2830620648520343
1.2672589170506994
1.2600597563780718
1.2460645660487344
1.2219673993300562
1.2126392143882716
1.1983000332679896
1.1868064289938474
1.1756174554683736
1.1574445968553206
1.1423023257325304
1.1236619516706334
1.1118627543615887
1.0899288673966225
1.0702859148136143
1.0435726212409966
1.0164551614669735
0.8201185245648336
1.0988786330765514
1.2466707389794351
1.2813052512797247
1.2921566355252767
1.2866682929064701
1.2722012487640633
1.2506652957742737
1.2409197418600642
1.230574881856531
1.2174975657516918
1.2132199362068319
1.190742032846939
1.1829455434392093
1.1771627786530492
1.1574624304498669
1.1405946065759625
1.1308705508969135
1.1186625785685023
1.097905933602495
1.0810412142388333
1.059506260105973
1.0383386571035667
1.0111006393411066
0.8535915102561371
1.142109756234413
1.2391847359496568
1.2565196333616335
1.259632429583537
1.264280150000789
1.253722128892768
1.2315844683773003
1.219166196519684
1.2082402157035808
1.2075300054311255
1.1877106517970741
1.1750836066959789
1.17045517928012
1.1533537895297419
1.1429563115921313
1.1338850639593294
1.1212990378788612
1.100811786055148
1.0861274195398356
1.0714164959314505
1.0539131506912416
1.030490906293479
1.0064918807254153
0.8633121427564878
1.14560699321991
1.2429955290153583
1.2554832597999854
1.2715543024937697
1.2409654969822368
1.224775219034033
1.2074620827038465
1.199673511083375
1.1874097846815352
1.1862412649848635
1.1682785116669945
1.159839979683959
1.1481380748374328
1.14082039773699
1.1285777060701054
1.118892088978154
1.1040320862012691
1.0904355926675957
1.0795670762712126
1.0617522900026897
1.0459547069255735
1.0266630653745483
1.002439990480885
0.8744876518617036
1.143546832611348
1.2162896909870577
1.2377278187711744
1.2289537036123757
1.1963975842400147
1.1874665477937927
1.1874448186305604
1.1654401915079833
1.1647128326086316
1.1603162614223137
1.1481434332253813
1.1388416239828776
1.1287060170463137
1.118364161067565
1.112849995661074
1.1053202369299924
1.0944097482905093
1.0800142888497155
1.0697063512828344
1.0549284593861183
1.0390873900400426
1.0202101787751527
0.9990463499998143
0.8858000761680038
1.1332232058119254
1.1962776279101857
1.1981812392509132
1.190603803396148
1.168730192637459
1.1605943338172628
1.1567064826402944
1.1528649448063188
1.1342084826510654
1.1339415141712172
1.1279818417434786
1.1213264365095268
1.114999629869169
1.1105882587832439
1.1031670014036736
1.090221085518254
1.081711789163892
1.0728084472830408
1.0589304312245464
1.0469469284025932
1.0327829276806502
1.0161731742798803
0.9973469652127717
0.8881888366129019
1.1158627468977365
1.1573164652336358
1.1568077038899425
1.1487955218556538
1.1488290650909585
1.1364748968720588
1.1203690796702954
1.12068944288332
1.109542624842228
1.1102400971878459
1.1098560526296168
1.1037367967882963
1.0966067805486364
1.0929446839693269
1.0841606425864678
1.0802543868331311
1.0723340572483573
1.0611321839581662
1.0523116818042741
1.0392747723304918
1.027004590711792
1.0127448456811288
0.9948216428569465
0.8940869765421984
1.1067023730476753
1.1180747973438965
1.1194134909949414
1.1094435514639156
1.1086428004451554
1.1001915025479416
1.0914641538632268
1.0960032440084888
1.0891340019878961
1.0832676581173324
1.0822162443077286
1.0858577187665095
1.0806407101381408
1.0756467688863265
1.071620744478928
1.065885954563257
1.0593256352460925
1.0494106302436177
1.0429521910996775
1.0322875642756348
1.0235787224004766
1.0098021558825894
0.9927484189153364
0.9058422831587529
1.0545022163212492
1.0570262887351671
1.070793704974822
1.060498927773202
1.0617650832104872
1.0575833817363747
1.052994360774459
1.0619700607123015
1.0690456298951516
1.0699270653352142
1.066164969728411
1.065273359856528
1.0637242170253796
1.0632351637750064
1.0559393599130076
1.0555408174213567
1.0488479739779666
1.0429594319116704
1.0362898984759688
1.0262912943079332
1.0182932295031366
1.006055007642146
0.9934574791092237
0.8766078404431938
0.9694904832409373
0.9983198811593254
0.9957407773323466
1.0123096201446768
1.0153811697127666
1.0193886757748567
1.0263075575384826
1.031460952979323
1.0352627355723403
1.0373004337440295
1.0404337954145937
1.045479212786301
1.0419735575755564
1.044626067458157
1.0437994441251248
1.0406474794366238
1.0392549401342595
1.033211418193624
1.0284396757005052
1.0228301793920456
1.0149555819791263
1.0031284010047625
0.9916630875391134
0.06289203896723178
0.12455470277027085
0.17977636902915678
0.2128682435221036
0.2116433481897422
0.3985602463997303
0.0830250488541923
0.13942917975003966
0.17263623899895092
0.1953490949176509
0.1990187884513429
0.2603501194254362
0.09201666791753803
0.14211449010950045
0.17472504944000472
0.1834936437650243
0.1941500839026443
0.2523509725093367
0.10803929979397565
0.15146053971873644
0.16972798631384273
0.17053081718272947
0.18623888835648417
0.2528487998081265
0.11551902931866173
0.15391750829182482
0.1673648343964939
0.16957833807824002
0.1854513735615426
0.24618421171585322
0.11785690694388823
0.155904013123685
0.16169508344698022
0.17054053093440547
0.18307000850358668
0.24225844052115383
0.12691231210590492
0.15753711543240778
0.16769514728206883
0.16427090577134051
0.18155863745903159
0.24399231498248838
0.13011396845962142
0.15815197603583292
0.166439847050796
0.15776494134324634
0.18299464767485718
0.23621850420952778
0.13791694967526796
0.16134411953086358
0.1687862491718642
0.1735279976485733
0.19649811480367999
0.24618108895574992
0.134538448849279
0.15845618916043108
0.16839812286495423
0.1771156910079269
0.2048075850712331
0.25259936265587657
0.13785057635959883
0.15951269881509028
0.16784659014344944
0.18265814380112141
0.21023505675387233
0.25788054941454064
0.14571659527359468
0.16072218513624814
0.17858081721911562
0.1938225570696968
0.22642229402751363
0.2754434201006114
0.14120318442959712
0.15557581636870427
0.1801884878597493
0.207937437196497
0.25255087664334885
0.29947190596881085
0.14418435096473856
0.16255433839254702
0.1794897032328438
0.2153498151573821
0.25621388952929536
0.3280953037901224
0.13610988456684808
0.16043794008455498
0.18650425709372392
0.22739307528335084
0.28510069615162326
0.34689776270630135
0.12756190965316477
0.16446243093479634
0.20069090895242603
0.2476377823673843
0.29763702472263964
0.377372377022374
0.13091542835503997
0.1586949394292485
0.201927919885904
0.2459257188716448
0.3204933589126317
0.4209573846884539
0.11982751853925819
0.15318979520720588
0.20639768830834007
0.2542814093765589
0.33518452651579395
0.43791926864621095
0.11228700859623544
0.15055189017098264
0.20363012055053503
0.2627033187042903
0.35503151079842793
0.46451505935884124
0.10220164778128615
0.14910499824921902
0.20491072016499062
0.2657096671497465
0.372174167135505
0.5019919684942113
0.09347556461943063
0.1379680216714777
0.19766415721333624
0.26074034534882806
0.3643810536476693
0.5283765173333229
0.07731496783396026
0.12731079922204253
0.17600188427422006
0.25229038916755636
0.3669482814550776
0.5283441040234149
0.062184300689965284
0.11582428796354516
0.1672580487845135
0.23822408066509868
0.34871675809289965
0.5677031924531324
0.04981645535430602
0.08833030519725804
0.14680093938724426
0.21550832891037397
0.3084475714780195
0.6912271953337298
0.78271950238957
0.8728469650199373
0.911088891222479
0.943829230914209
0.9641821502229215
0.9740057653963662
0.9854980598530797
0.992358647328775
1.0023895941188585
1.0147069704269787
1.0190677498840994
1.0238914924207723
1.0262548954050361
1.0314787819272542
1.0359086484820672
1.0335635358042974
1.0298826681365105
1.0278442057208035
1.0245449347912765
1.022301015509915
1.0172589928773823
1.0113275386935656
1.000924729666721
0.9919348254488869
0.6321734739482088
0.7694253252789203
0.8328892536105881
0.8877163059227949
0.9129664062008813
0.9304209804115028
0.9528986960414279
0.9652303998696932
0.9785784333042905
0.9857185776203167
0.998922258814513
1.0070903669951206
1.008176540551699
1.0178114317191937
1.0190970869700904
1.0224848212544222
1.0208009019991309
1.017910199545994
1.0209192087309649
1.0164914264491576
1.012454465089112
1.0077974812353614
0.99965794433819
0.9916395362687521
0.545719293728637
0.6887586972677965
0.7714662692058951
0.8222401344766345
0.8655031435432604
0.8946792559527739
0.9129518863694679
0.9343983582948437
0.9538449181159161
0.9647989297724978
0.9770014572313022
0.987201011007961
0.9949097027506676
1.0022099017807902
1.003474146876525
1.0094603576993764
1.011721344890937
1.0127506511704998
1.0123603716431315
1.0098814943857939
1.0088016885992108
1.0047788426548176
1.0000163851493462
0.993142166727309
0.48227103545277134
0.6290143843342801
0.7135654963274236
0.7745823486754798
0.8211346762588433
0.8582554318219531
0.8867674764545098
0.9091604045599982
0.9302205955979888
0.9454434876327337
0.9589118728148626
0.9687663851003485
0.9824830671505099
0.9877673494735989
0.9956902784110391
1.0005583215960865
1.0018701896183657
1.0036263971420207
1.0061501921145808
1.0057629874263263
1.0054464578047753
1.0033563397556013
0.9986751461320131
0.9943668543966812
0.4331223551526092
0.5724601233892862
0.6604915019189259
0.73139749402812
0.7852312291404272
0.824838618250131
0.8585367483136965
0.8855157412624126
0.9076735774864253
0.9256371080412052
0.9420288225582029
0.9564125559803914
0.9684305593277908
0.9753497610610655
0.9862970174572333
0.9910644550271587
0.9971574841884651
0.9971503089055597
1.0023462843822568
1.0012492084584792
1.0033954269884233
1.0013300770952673
0.9979823706266564
0.994711492710645
0.39558364359101356
0.5271201610685389
0.6241610330741851
0.6999703877349706
0.7537879497324385
0.8010093705046742
0.8348791416496525
0.8658786359051378
0.8888801887522084
0.90681903844953
0.9297948332811271
0.9469230669847408
0.9578140515718057
0.9700064943400748
0.9780517798433507
0.985344365260663
0.9891081609704583
0.9943336844612432
0.9956677582063965
0.9997454517753295
0.9989568851654048
1.000380418873193
0.9978490865319252
0.9957723978998664
0.3637529669718744
0.496823020076898
0.5931587149428148
0.6691715658014461
0.7289799357574432
0.7825540002062111
0.8174232883793018
0.8496338672988553
0.8806549309586784
0.902493841863609
0.9183107726063523
0.9358593177254174
0.9489192464580626
0.9612453185208272
0.9705805585327959
0.9771116057681328
0.986071274807758
0.9904155185319722
0.993972496272638
0.9961492303174524
0.9977147224909879
0.9986982726631695
0.9985935433549196
0.9964851388227391
0.34754660995250053
0.47270699057131044
0.5694353341044075
0.6476971577999765
0.7124309624121595
0.7611465585867713
0.798816290307648
0.8373226774616398
0.8654806613916157
0.8908624382258588
0.9141703733608446
0.9300097720720253
0.9437230873556024
0.9546279654547671
0.9666581194800954
0.9762911117343337
0.9804352093398643
0.9852516526725354
0.9923437706520457
0.9940897514617931
0.9970040521117336
0.9982129534929151
0.9982875270712842
0.997210886114999
0.34112865620450283
0.4541504570014432
0.5555418008010766
0.6355081622091429
0.7014273791729051
0.7509971091869976
0.7962308449273987
0.8276799503766578
0.8560437929528403
0.8828181255110605
0.9061593638467228
0.9220338576432101
0.9395191938668368
0.9513863949943722
0.9618038203260846
0.9723693685488386
0.9781751078976215
0.985171584106697
0.9898277220986389
0.9931422398589443
0.997073927721658
0.9978406662548848
0.9985450000765613
0.9981129224581974
0.33310542763266987
0.4548819038930897
0.5481727040354494
0.628871306286
0.6952743509461534
0.746713773847042
0.7875021222480909
0.8248940594554086
0.857373366667974
0.8794131647657286
0.9000988802608704
0.9175122283367543
0.9371119516342599
0.9501735711387304
0.9610895281397861
0.9705345586226607
0.979229402813762
0.9836998127291184
0.9888500022837595
0.9920256044686029
0.9956505292067952
0.9978263520585761
0.9984545207128179
0.9983786247852715
0.34349759973609073
0.4547623336305997
0.5463467625755049
0.6312330703607377
0.6963109208022525
0.7469293705042925
0.7883699605986518
0.8238010802750926
0.8515477600726957
0.8827791027790213
0.9013934093873643
0.9213978042568308
0.9370800062986654
0.9460485716823244
0.962098254259788
0.9697009960224737
0.9782403844227422
0.9824226435959176
0.9891032598827543
0.992333267258359
0.9947789892457204
0.996706858988915
0.9980164298298089
0.9985249588058542
0.361085086836353
0.46837790086299463
0.5623484270418416
0.6367568906803656
0.7012228289882797
0.7471381764466657
0.7933827251850021
0.826894737476037
0.8601874973356293
0.8804899885807773
0.902773023675905
0.9220098637719902
0.9366820677912382
0.9513647824948498
0.962158037587882
0.9701254196788057
0.9779469335782445
0.9842739934390204
0.9897152631056225
0.9929675505719333
0.9955473454547555
0.9970966559046379
0.9981658323369038
0.9983776295664831
0.3864178192197725
0.49098039950010397
0.5810772957048269
0.6546188003367243
0.7130308281497403
0.7591094164940935
0.7997289783540541
0.8361988750563141
0.86583234395245
0.8895190162762299
0.9117299719152997
0.929164349052265
0.9418784239067499
0.9565433467923918
0.9644723448207795
0.9731320347516766
0.9822041133799638
0.9844728552772123
0.9887724669427738
0.9932477608339637
0.9960631965305751
0.9967154535308943
0.9976687391833956
0.9972575546467074
0.41900081581648735
0.518261099220705
0.6013623391633139
0.6753762254642315
0.7260217876399873
0.7741938700317584
0.8083972338592129
0.8460981010416385
0.87833769204832
0.8996369627668217
0.9179686416659723
0.9351348244227187
0.9483318452920086
0.9582691026345274
0.9686126221487722
0.9760006659098919
0.9859541280630271
0.9871253964611664
0.9920610367909276
0.9936610009077189
0.9967225517899826
0.9978924780623855
0.9970227308443421
0.9965270759697212
0.4424386306666255
0.5466358668845794
0.6365337140779994
0.6971501362473699
0.7503140504006316
0.7947013136732493
0.8352025474299759
0.8620762965601002
0.8854825715897241
0.9077326322515387
0.9303687473359207
0.9446854919500993
0.9598777072612235
0.9669746744206982
0.9772744957985644
0.9827441646466525
0.9871357927472902
0.9910784821867696
0.9934958689958887
0.9963063570099248
0.9971721203084561
0.9971713996570988
0.9967983049498514
0.9955557680247134
0.49466416033273936
0.5955872203230048
0.6735441493762689
0.7312430542776317
0.7849190614850499
0.821971527661287
0.8531027442028386
0.8844192589593278
0.9093708593682412
0.9253613392564488
0.9438777337338895
0.9553669106607537
0.9657905784934275
0.9773201279466501
0.9826409711418674
0.9890490535483395
0.9916658459510628
0.9958771591716397
0.9967522607638272
0.9974438047316669
0.9990249957734273
0.9985940609671136
0.9950223651332851
0.994594701797244
0.5362163973844675
0.6430077147823459
0.7164807273674226
0.7658370714089667
0.8172072940915914
0.8535062248610829
0.8829163550263969
0.9071445101322009
0.9204326968253352
0.9426586655015143
0.9563145760839732
0.9712019102964855
0.980323659899652
0.9857484473780862
0.9892673564394253
0.9975611033196181
0.9989001997521224
1.0010215463792556
1.0028826406629738
1.0007515988889013
1.000200983265309
0.9992341453105439
0.9959301508363718
0.9932297459151808
0.5856790564324158
0.6883998621539658
0.7580896244415969
0.8182999811672216
0.8542248179590312
0.8858350045404808
0.9042849662043201
0.9331912344972364
0.9474621639429457
0.9653133541504791
0.9747068379832081
0.9846516995930861
0.9942368413552432
0.9984945066768699
1.0026955497599122
1.0068538120784145
1.0089566908144552
1.005147247932393
1.0080366521919324
1.0039553249377993
1.0029228777008359
1.0000907337927865
0.9958990432701446
0.9923375289454619
0.6472815216249863
0.7581363683761708
0.8228775513932102
0.8739203347545116
0.8954463676103728
0.9209783548577745
0.9443930522577313
0.9582761086545495
0.9743738872396291
0.981905407419438
0.9957385599364222
1.0018594626107526
1.0074142727329276
1.0101808797868261
1.0105929253696442
1.014209222664568
1.0128496840948584
1.0117343316186884
1.0102768073127641
1.0077698533171482
1.0058607936100903
1.002268853852939
0.9961201007455404
0.9906307826677323
0.7136092789204932
0.8301678634843053
0.8786585101758542
0.9213150930320136
0.9490727705731565
0.9635662139240943
0.9737040710301966
0.9946085498258254
0.9995293583749094
1.005790318430191
1.0164994247583374
1.0201475351162537
1.0246601415956662
1.0248067559932135
1.0241684546018979
1.022003555149948
1.025898463525832
1.0201649059311153
1.01740246439034
1.014701344506246
1.0084973907017603
1.003435461953192
0.9977469986917991
0.9913024655057417
0.7974828469163504
0.9062876601245541
0.9518251613587148
0.9966265540341309
0.9991989410567413
1.0070349967968755
1.0171397293292523
1.0240001178159452
1.0366827318147696
1.0342938797324388
1.0382497744303583
1.0386281920076306
1.0402928615325897
1.0398429622303749
1.0399306121780911
1.0318676591342033
1.0321760858807736
1.028087057222306
1.0237783676114867
1.0195172678011288
1.0147667770145072
1.0071855368375051
0.9990158250424757
0.9900173045289035
0.8772680554406507
0.9920259121412965
1.041475791127308
1.0593626572270742
1.066070041998159
1.055918680034463
1.0610426416895498
1.0538412875654704
1.058846158992038
1.060906066385064
1.061378356004423
1.0614677918415383
1.0565776493468635
1.0579987779847373
1.05036545384629
1.0487655752342673
1.0452926023766245
1.0403032412305115
1.0331806399184438
1.0247818691502302
1.0180701393334428
1.0108741889920156
0.9997103612411393
0.9892067217073466
1.0004945216860532
1.1013283964983809
1.1231100298839083
1.1298892270857126
1.1191257363321134
1.1167995626466474
1.096935694997195
1.0895132276228185
1.0880855520241344
1.0862954333254222
1.0802088854335743
1.0766220914884583
1.0734104043008947
1.0713963516781506
1.0691030465528053
1.061688406042464
1.0586712806112524
1.049317078878655
1.04172537848651
1.0286947361475192
1.0229062991353008
1.0137390811766007
1.0017193422474335
0.9896586057586996
1.1572644852862468
1.2081376269775517
1.2163118930806351
1.1980241151420215
1.1884683239118512
1.1585954651247663
1.1392673712769188
1.1309059190580293
1.1198015552463656
1.1094416249956105
1.109042767634954
1.1027308130525804
1.0960392724994612
1.0862547943520107
1.0824850435507947
1.074989295662434
1.0661817219370684
1.0569789038727353
1.053864732542294
1.0380919296419482
1.0288037456167207
1.0177291573448561
1.0059525717929443
0.9901695363148877
0.16624220954982288
0.3202765967186444
0.44872281950598886
0.4466160068253372
0.5518591559022747
0.343709541318202
0.2344692949731989
0.3774969821034061
0.4744214555706815
0.4639411348779794
0.5044312794059791
0.43358748325914537
0.2572992831329144
0.37062366226984556
0.4504142207855961
0.4372534075390381
0.47860642389374075
0.5220182365171303
0.27432466830510216
0.3576703769925819
0.4162329537663514
0.40032999423840854
0.4744795729964669
0.6009969893251088
0.2939852035357332
0.3445480710570855
0.38330782974115535
0.3750849778818418
0.4779186833820761
0.6651955335688793
0.30742011465872626
0.33032411405658296
0.34296682464218997
0.35327441221084727
0.48062146460186966
0.696658257389121
0.3284663160923354
0.31880310287359004
0.31370656353957505
0.3389972709062073
0.4877976307698835
0.7296336857715893
0.3466986683785558
0.31068293766370414
0.29032926570063033
0.32581128840712825
0.4950566268599216
0.7333633791183619
0.3579815587352301
0.30290859272897375
0.27028103159832606
0.3070366902718682
0.4809171683385271
0.7372167608989397
0.373257969707708
0.3005762411776959
0.2542087183939529
0.30040915771915944
0.47143046101313685
0.7109810378946417
0.3791486303798294
0.3003485603753768
0.2550626327272331
0.2906067733569437
0.46362423214078186
0.6925156537996415
0.37702676012626324
0.3028380023976466
0.2614435958801812
0.29781105571576305
0.4570656817313252
0.6908707010647198
0.3733259432427363
0.30633607112158967
0.2665373358988126
0.2977360600938575
0.4503175305400906
0.667858015849306
0.36842815171747634
0.31081717334388737
0.28333911688537505
0.3237933748131268
0.47141370349308437
0.6460296778885876
0.3507134509841614
0.31611904665457874
0.2935153763514347
0.33849457180248926
0.47318988231653725
0.6557464361666432
0.33496969916393604
0.32122837452790326
0.3106974074491082
0.36624697589534105
0.4874544944563487
0.6558654389701128
0.317631922884336
0.3262261421799984
0.3288841791979071
0.38392785622371395
0.49556077938152937
0.6233568410203919
0.29735364127047637
0.33021184172503315