/*--------------------------------*- C++ -*----------------------------------*\
  =========                 |
  \\      /  F ield         | OpenFOAM: The Open Source CFD Toolbox
   \\    /   O peration     | Website:  https://openfoam.org
    \\  /    A nd           | Version:  11
     \\/     M anipulation  |
\*---------------------------------------------------------------------------*/
FoamFile
{
    format      ascii;
    class       volScalarField;
    location    "0.94";
    object      k;
}
// * * * * * * * * * * * * * * * * * * * * * * * * * * * * * * * * * * * * * //

dimensions      [0 2 -2 0 0 0 0];

internalField   nonuniform List<scalar> 
2880
(
0.00678302
0.0319633
0.0779744
0.118632
0.137986
0.129143
0.02127
0.0607509
0.104319
0.143483
0.175543
0.215423
0.0307955
0.081565
0.123379
0.160758
0.194134
0.224735
0.0382307
0.0955643
0.136441
0.17216
0.202539
0.223413
0.0444191
0.105748
0.146041
0.180165
0.206656
0.220625
0.049547
0.113414
0.153371
0.18621
0.209062
0.218349
0.0537421
0.119255
0.159075
0.190926
0.211016
0.217138
0.0570977
0.12367
0.163548
0.194764
0.21307
0.217142
0.0596801
0.126897
0.167039
0.198019
0.215485
0.218386
0.0615339
0.129078
0.169703
0.200873
0.218393
0.220938
0.0626846
0.130289
0.171622
0.203418
0.221828
0.224771
0.0631537
0.130549
0.17282
0.205678
0.225756
0.229874
0.0631078
0.129823
0.173264
0.207604
0.230069
0.23622
0.0626156
0.128064
0.172865
0.209084
0.234588
0.243751
0.0616017
0.125244
0.171483
0.209931
0.239054
0.252339
0.0599791
0.121305
0.168932
0.209837
0.243199
0.261715
0.0576552
0.116172
0.16499
0.208391
0.246534
0.271551
0.0545293
0.109773
0.159426
0.205134
0.248377
0.281337
0.0504881
0.102058
0.152014
0.199526
0.247881
0.290339
0.0454046
0.0929883
0.142515
0.190905
0.243738
0.297481
0.0391615
0.0824503
0.130555
0.178368
0.23401
0.301048
0.0316847
0.0699742
0.115238
0.160463
0.215969
0.298105
0.0224111
0.053527
0.0937845
0.134196
0.185104
0.276857
0.00667158
0.0229684
0.0539767
0.0895056
0.139017
0.16805
0.233294
0.164178
0.100152
0.0645222
0.045093
0.0337957
0.0263166
0.0209159
0.0168159
0.0136268
0.0111411
0.00921561
0.00773223
0.00659782
0.00574113
0.00510742
0.00465234
0.00433692
0.00412549
0.00398664
0.00389529
0.00383433
0.00379374
0.00376644
0.237617
0.16507
0.101695
0.0658281
0.0460572
0.0344683
0.0267704
0.0212015
0.0169712
0.013696
0.0111496
0.00917872
0.00766552
0.00651422
0.00565087
0.00501857
0.00457103
0.00426698
0.00406846
0.00394233
0.00386275
0.00381219
0.0037803
0.00376017
0.229982
0.161872
0.102241
0.0669358
0.0470029
0.0351781
0.0272823
0.0215534
0.0171932
0.0138185
0.0112071
0.00919141
0.00764527
0.0064719
0.00559662
0.00496034
0.00451499
0.00421723
0.00402701
0.00390968
0.00383861
0.00379589
0.00377068
0.00375603
0.219929
0.157654
0.102296
0.0679
0.0479556
0.0359379
0.0278596
0.0219768
0.0174888
0.0140116
0.0113208
0.00925141
0.00766993
0.00647236
0.00557951
0.00493303
0.0044839
0.00418691
0.00400017
0.00388764
0.0038219
0.00378451
0.00376409
0.00375341
0.211197
0.153982
0.102331
0.0688517
0.048964
0.0367679
0.0285088
0.0224736
0.0178588
0.0142778
0.0115055
0.00937272
0.00774365
0.0065121
0.00559745
0.00493652
0.00447789
0.00417583
0.00398748
0.00387563
0.00381197
0.00377741
0.0037601
0.00375192
0.204821
0.151489
0.102674
0.0699808
0.0500851
0.0376839
0.0292363
0.0230441
0.0183
0.0146142
0.0117579
0.00955845
0.0078772
0.00660509
0.00565866
0.00497373
0.00449803
0.00418455
0.00398924
0.00387374
0.00380865
0.0037746
0.00375831
0.00375133
0.200871
0.150384
0.103561
0.0713921
0.0513602
0.0387123
0.0300578
0.0236993
0.01882
0.015024
0.0120778
0.00980565
0.00806577
0.00674654
0.00576213
0.00504668
0.00454686
0.00421511
0.00400688
0.00388296
0.0038128
0.00377607
0.00375862
0.00375132
0.199195
0.150723
0.105188
0.0731541
0.0528418
0.0398842
0.0309926
0.0244526
0.019429
0.0155155
0.0124726
0.0101204
0.0083147
0.00694107
0.0059114
0.00515801
0.00462662
0.00426949
0.00404208
0.0039046
0.00382533
0.00378239
0.00376133
0.00375199
0.199596
0.152519
0.107617
0.0753621
0.0545904
0.0412352
0.0320621
0.0253181
0.0201373
0.0160968
0.0129487
0.0105086
0.00862914
0.00719333
0.0061107
0.00531167
0.00474099
0.00435099
0.00409756
0.00394072
0.00384765
0.00379474
0.0037671
0.00375371
0.201962
0.155806
0.110959
0.0781099
0.0566655
0.0428005
0.0332875
0.0263097
0.0209548
0.0167759
0.0135131
0.0109763
0.00901463
0.00750851
0.00636495
0.00551239
0.0048945
0.00446375
0.00417683
0.00399398
0.00388153
0.00381455
0.00377692
0.00375731
0.206225
0.160649
0.115333
0.0814939
0.0591297
0.044617
0.0346907
0.0274411
0.0218913
0.0175602
0.0141721
0.0115294
0.00947693
0.00789218
0.00667963
0.0057656
0.00509252
0.00461293
0.00428453
0.00406828
0.00393002
0.00384376
0.00379247
0.00376342
0.212367
0.16715
0.120873
0.0856209
0.0620517
0.0467251
0.036295
0.0287265
0.0229562
0.0184571
0.0149322
0.0121739
0.0100219
0.00835018
0.00706062
0.00607726
0.00534112
0.0048046
0.00442641
0.00416862
0.00399713
0.00388527
0.00381541
0.003773
0.220408
0.175441
0.127738
0.0906144
0.0655114
0.0491711
0.0381263
0.0301807
0.0241587
0.0194734
0.0157992
0.0129154
0.0106551
0.00888834
0.00751396
0.00645367
0.00564685
0.00504543
0.00460899
0.00430092
0.00408773
0.00394275
0.00384802
0.00378727
0.230382
0.185671
0.136116
0.0966237
0.0696046
0.05201
0.0402148
0.0318197
0.0255081
0.0206151
0.016778
0.0137587
0.0113817
0.00951212
0.00804553
0.00690107
0.00601631
0.00534241
0.00483945
0.00447212
0.00420795
0.00402077
0.00389274
0.00380727
0.242313
0.19799
0.146205
0.10382
0.0744443
0.0553064
0.0425957
0.0336616
0.0270136
0.0218879
0.0178729
0.0147078
0.012206
0.0102264
0.00866078
0.00742551
0.00645612
0.00570269
0.00512535
0.00468973
0.00436447
0.00412443
0.0039529
0.00383434
0.256185
0.212542
0.158206
0.112387
0.0801587
0.0591356
0.0453095
0.0357268
0.0286854
0.0232971
0.0190873
0.0157658
0.0131313
0.0110353
0.00936461
0.00803266
0.00697271
0.00613338
0.00547432
0.0049616
0.00456467
0.00425982
0.00403269
0.00387025
0.271894
0.229429
0.172291
0.122507
0.0868854
0.0635821
0.0484016
0.0380385
0.0305345
0.0248477
0.0204237
0.0169344
0.0141599
0.0119417
0.010161
0.00872756
0.00757199
0.00664118
0.00589376
0.00529557
0.00481634
0.00443387
0.00413719
0.00391713
0.289134
0.248716
0.188557
0.134325
0.0947581
0.0687358
0.0519227
0.0406224
0.0325729
0.0265445
0.0218838
0.0182144
0.0152927
0.0129474
0.0110529
0.00951414
0.00825897
0.007232
0.00639037
0.00569901
0.00512724
0.00465395
0.00427223
0.00397743
0.307479
0.270163
0.206936
0.147909
0.103884
0.0746836
0.0559263
0.0435071
0.0348137
0.0283925
0.0234685
0.0196053
0.016529
0.0140526
0.0120413
0.0103948
0.00903724
0.00791052
0.0069698
0.00617846
0.00550459
0.00492741
0.00444403
0.00405392
0.326396
0.292994
0.227093
0.163184
0.114311
0.0814955
0.0604638
0.0467228
0.037271
0.0303964
0.0251783
0.0211056
0.017867
0.0152556
0.0131257
0.0113702
0.00990867
0.00867984
0.00763633
0.00673927
0.0059547
0.0052611
0.0046588
0.0041494
0.344841
0.315872
0.248383
0.179848
0.125978
0.0892014
0.0655758
0.0502986
0.0399602
0.0325624
0.0270138
0.0227134
0.0193037
0.0165537
0.0143039
0.012439
0.0108731
0.00954121
0.00839257
0.00738542
0.00648279
0.00566104
0.00492223
0.00426644
0.360544
0.336481
0.269584
0.19724
0.138639
0.0977528
0.0712765
0.0542549
0.0428963
0.0348975
0.0289768
0.0244271
0.0208361
0.0179431
0.0155721
0.0135981
0.0119287
0.0104939
0.00923935
0.00811933
0.00709277
0.00613228
0.00523924
0.00440694
0.365583
0.351506
0.288976
0.214277
0.151787
0.106975
0.0775312
0.0585972
0.0460898
0.0374093
0.0310701
0.0262464
0.0224615
0.0194199
0.0169261
0.0148434
0.0130718
0.0115356
0.0101757
0.00894179
0.00778731
0.00667894
0.00561391
0.00457185
0.328378
0.351497
0.303371
0.229352
0.16462
0.116537
0.0842355
0.0633055
0.0495447
0.0401046
0.0332981
0.0281725
0.0241788
0.0209816
0.0183624
0.016171
0.0142985
0.012663
0.0111995
0.0098523
0.00856799
0.00730451
0.00604994
0.00476105
0.0111425
0.0167896
0.0216654
0.0237859
0.0241557
0.039959
0.0295573
0.0413582
0.0475253
0.0469017
0.0465061
0.0650375
0.0384141
0.0526575
0.0615035
0.0608231
0.0607864
0.0772452
0.0445017
0.0620956
0.0728099
0.072104
0.0719809
0.0867146
0.048947
0.0707867
0.0826657
0.082057
0.0816176
0.0944672
0.0524778
0.0787268
0.0914613
0.0912247
0.0905522
0.101353
0.055446
0.0859837
0.0994462
0.0999712
0.0993632
0.10831
0.0579997
0.0926241
0.106852
0.108566
0.108362
0.115844
0.060212
0.0987335
0.113856
0.117126
0.117803
0.124376
0.062126
0.104334
0.120564
0.125768
0.127883
0.134229
0.0637783
0.109389
0.127015
0.134549
0.138756
0.145616
0.0652062
0.113825
0.13319
0.143444
0.150432
0.158751
0.0662508
0.117612
0.139005
0.152331
0.162758
0.173626
0.0665184
0.120769
0.144308
0.160979
0.175431
0.189995
0.0662339
0.123168
0.148879
0.169036
0.187919
0.207223
0.0650882
0.124594
0.152431
0.176029
0.199425
0.224026
0.0630792
0.124744
0.154589
0.181389
0.208963
0.23879
0.0601112
0.123374
0.154981
0.184345
0.215412
0.249755
0.0560513
0.120032
0.153305
0.184506
0.217497
0.254699
0.0508162
0.11414
0.148992
0.181148
0.214697
0.252807
0.0444085
0.104798
0.141423
0.173543
0.20572
0.242299
0.0363076
0.0907613
0.129657
0.160773
0.189168
0.221769
0.0257218
0.0692512
0.1116
0.140992
0.162319
0.185848
0.00968189
0.0403828
0.0851486
0.111352
0.122772
0.117344
0.261214
0.339494
0.307589
0.240648
0.176222
0.126013
0.0912239
0.0683334
0.0532564
0.0429892
0.035667
0.0302094
0.0259898
0.0226281
0.0198797
0.0175788
0.0156065
0.0138735
0.0123088
0.0108501
0.00943605
0.00801253
0.00655144
0.0049737
0.210423
0.31365
0.30315
0.248577
0.186127
0.13505
0.0983273
0.0736206
0.0572142
0.0460687
0.0381852
0.0323645
0.0279002
0.0243636
0.0214812
0.0190693
0.0169977
0.0151691
0.0135054
0.0119376
0.010395
0.00880875
0.0071251
0.00520928
0.175722
0.28743
0.293193
0.252187
0.193935
0.143352
0.105391
0.0791076
0.0614051
0.0493491
0.0408634
0.0346485
0.0299198
0.0261974
0.0231762
0.0206528
0.0184838
0.0165624
0.0148029
0.0131285
0.0114591
0.00970867
0.00778685
0.00547102
0.153472
0.263835
0.279616
0.251054
0.199382
0.15069
0.112273
0.084739
0.0658187
0.0528371
0.0437143
0.0370746
0.0320612
0.0281428
0.0249805
0.0223487
0.0200894
0.0180848
0.0162397
0.0144678
0.0126781
0.0107657
0.00859077
0.00578712
0.14106
0.243638
0.265612
0.247809
0.203114
0.157029
0.118866
0.090457
0.0704416
0.05654
0.04675
0.0396547
0.0343361
0.0302123
0.0269099
0.0241801
0.0218494
0.0197885
0.017892
0.016063
0.0141975
0.0121695
0.00978088
0.00647042
0.136338
0.226653
0.251941
0.242122
0.205417
0.16241
0.125098
0.0962054
0.0752554
0.0604601
0.0499789
0.0423962
0.0367484
0.0324079
0.028967
0.0261545
0.0237834
0.0217173
0.0198486
0.0180838
0.016333
0.0145274
0.0127429
0.0115077
0.137047
0.21313
0.239101
0.234199
0.205543
0.16665
0.130853
0.101908
0.0802283
0.0645919
0.0534031
0.0452982
0.0392903
0.0347135
0.0311282
0.0282432
0.0258627
0.0238532
0.0221248
0.0206191
0.0193048
0.0181941
0.0174169
0.0172595
0.139804
0.20284
0.227498
0.225742
0.204332
0.169758
0.13604
0.107482
0.085315
0.0689205
0.0570191
0.048355
0.041947
0.0371027
0.0333552
0.0303955
0.0280216
0.0261058
0.0245739
0.0233907
0.0225474
0.0220575
0.0219667
0.022256
0.144718
0.195694
0.217443
0.217384
0.202348
0.171873
0.140582
0.112843
0.0904602
0.0734233
0.0608212
0.0515627
0.0447077
0.0395549
0.0356173
0.0325708
0.0302077
0.0284014
0.0270808
0.0262084
0.0257587
0.0257045
0.025991
0.0264895
0.152369
0.191742
0.209218
0.209644
0.199254
0.173282
0.144431
0.117892
0.0955967
0.0780699
0.0648037
0.0549235
0.0475718
0.0420609
0.0378942
0.0347356
0.032369
0.0306612
0.0295306
0.0289198
0.0287725
0.0290007
0.0295303
0.0301388
0.162107
0.192025
0.203349
0.203052
0.195089
0.173621
0.147563
0.122524
0.10064
0.0828172
0.0689579
0.0584465
0.0505509
0.0446257
0.0401784
0.0368648
0.0344578
0.0328102
0.0318206
0.0314053
0.0314701
0.0318939
0.032585
0.0332698
0.174261
0.194864
0.200373
0.198305
0.191091
0.173145
0.149956
0.126642
0.105492
0.0876084
0.0732698
0.0621453
0.0536688
0.0472695
0.0424774
0.0389471
0.0364401
0.0347912
0.0338756
0.0335832
0.0337733
0.0343383
0.0351378
0.0358823
0.189118
0.201842
0.201415
0.196397
0.188055
0.172367
0.151745
0.130239
0.110068
0.0923765
0.0777144
0.0660325
0.0569583
0.0500278
0.0448167
0.0409899
0.0383018
0.0365702
0.0356474
0.0353989
0.035646
0.0362911
0.0371625
0.0379553
0.206675
0.214432
0.206723
0.19733
0.186998
0.171979
0.153244
0.133418
0.114316
0.0970519
0.0822562
0.0701152
0.0604573
0.0529513
0.0472433
0.043026
0.0400567
0.0381424
0.0371175
0.0368271
0.037066
0.0377272
0.038635
0.0394652
0.226347
0.232178
0.218944
0.202055
0.188135
0.172506
0.154862
0.136369
0.11831
0.101604
0.0868607
0.0743946
0.0642055
0.0561043
0.049829
0.0451206
0.0417549
0.0395404
0.0383021
0.0378711
0.0380342
0.038637
0.0395404
0.0403932
0.247128
0.254182
0.238051
0.213503
0.193117
0.175197
0.157332
0.139513
0.122252
0.1061
0.0915336
0.0788795
0.0682441
0.0595618
0.0526706
0.0473767
0.0434925
0.0408443
0.039262
0.0385706
0.0385817
0.0390347
0.0398782
0.0407316
0.267238
0.277762
0.261676
0.232295
0.204844
0.18201
0.162001
0.143675
0.126602
0.110772
0.0963734
0.0836179
0.0726271
0.0634095
0.0558871
0.0499361
0.0454187
0.0421958
0.0401211
0.039032
0.0387511
0.0390051
0.039701
0.0405253
0.284057
0.298937
0.285759
0.255749
0.223113
0.194593
0.17066
0.150239
0.132283
0.116177
0.101685
0.0887742
0.0774653
0.0677608
0.0596225
0.0529783
0.047739
0.0438091
0.0410827
0.0394312
0.0386967
0.0386836
0.0390934
0.0398348
0.29416
0.313332
0.305208
0.278794
0.244986
0.212605
0.184472
0.160769
0.140681
0.123342
0.108155
0.0947778
0.083032
0.0728201
0.0640728
0.0567259
0.0507148
0.045977
0.0424484
0.0400497
0.0386737
0.0381432
0.0382406
0.0387383
0.29512
0.317255
0.315084
0.294974
0.264692
0.232437
0.202211
0.175658
0.152924
0.133529
0.116875
0.10246
0.0899218
0.0790149
0.0695757
0.0614906
0.0546764
0.0490717
0.0446313
0.0413155
0.0390695
0.0377975
0.0373585
0.0375199
0.284558
0.308301
0.311667
0.298875
0.275868
0.248137
0.219593
0.192632
0.168387
0.147138
0.128724
0.112809
0.0990354
0.0870924
0.0767348
0.0677778
0.0600867
0.0535656
0.0481517
0.0438075
0.0404953
0.0382298
0.0369148
0.036546
0.261929
0.285402
0.293133
0.288595
0.274289
0.253977
0.230883
0.206923
0.183776
0.162355
0.143062
0.125962
0.110938
0.0977932
0.0863151
0.076309
0.0676108
0.0600906
0.0536525
0.0482334
0.0437867
0.0402847
0.0377967
0.0364513
0.228205
0.249759
0.261227
0.26394
0.259604
0.248131
0.231802
0.213509
0.194309
0.175201
0.15698
0.140086
0.12471
0.110886
0.0985529
0.0876083
0.0779344
0.0694176
0.0619598
0.05548
0.0499275
0.0452312
0.0414198
0.0384933
0.184002
0.207456
0.221511
0.229856
0.232923
0.230285
0.222536
0.210473
0.196475
0.181677
0.166589
0.151797
0.137701
0.124526
0.11238
0.101291
0.0912421
0.0821856
0.0740709
0.0668317
0.0604418
0.0547926
0.0500986
0.0454007
0.00338925
0.0077388
0.0167568
0.0284972
0.0455689
0.0772601
0.0146198
0.0224496
0.0351761
0.0489414
0.0672753
0.094351
0.0188451
0.0307208
0.0451208
0.0600212
0.0777915
0.100238
0.0211845
0.03619
0.0517424
0.0673671
0.0842782
0.102845
0.023023
0.0403629
0.0567635
0.0727822
0.0888411
0.104499
0.0243037
0.0437592
0.0607771
0.0769759
0.0923193
0.105946
0.0249525
0.0466167
0.0640398
0.0802971
0.0951005
0.107453
0.0252304
0.0490316
0.0666751
0.0829351
0.0973775
0.109059
0.0256538
0.0509031
0.0687461
0.084997
0.0992461
0.110715
0.026053
0.0522765
0.0702925
0.0865433
0.100746
0.112347
0.0263388
0.0531749
0.0713377
0.0876031
0.101879
0.113863
0.0264671
0.0536092
0.0718937
0.0881832
0.102614
0.115155
0.0264057
0.0535833
0.0719633
0.0882726
0.102899
0.116097
0.0261496
0.0530862
0.0715393
0.0878452
0.102663
0.116541
0.025768
0.0520981
0.0706047
0.0868627
0.10182
0.116324
0.0253056
0.0506113
0.0691323
0.0852774
0.100281
0.115272
0.0249474
0.0486251
0.0670883
0.0830353
0.0979554
0.113219
0.0249473
0.0461744
0.0644387
0.080079
0.0947574
0.110014
0.0245649
0.0433647
0.06115
0.0763409
0.0905993
0.105522
0.0236664
0.0402159
0.0571431
0.0717133
0.0853924
0.0996669
0.0222034
0.0364997
0.0521991
0.0659709
0.0789277
0.0923275
0.0202103
0.0317563
0.0457557
0.0585515
0.0705719
0.0832984
0.0163406
0.0245291
0.0360991
0.0477634
0.058278
0.0714746
0.00421391
0.00884659
0.0163264
0.0263135
0.0347913
0.0481862
0.143526
0.168147
0.182657
0.194136
0.201982
0.204978
0.203614
0.198685
0.190516
0.180486
0.169628
0.15842
0.147229
0.136349
0.125983
0.116253
0.107227
0.0989245
0.091352
0.0844758
0.0783166
0.0726998
0.0681095
0.0629066
0.125781
0.14127
0.153451
0.164774
0.173948
0.179715
0.182039
0.181401
0.178362
0.173221
0.166861
0.159846
0.152609
0.14535
0.138341
0.131743
0.125663
0.120168
0.11529
0.111026
0.107354
0.104191
0.101682
0.0992935
0.118372
0.1273
0.136303
0.145488
0.153666
0.159743
0.163515
0.165163
0.165015
0.163579
0.16103
0.157995
0.15481
0.151801
0.14905
0.146759
0.145058
0.144022
0.143687
0.143937
0.1447
0.145842
0.147206
0.148767
0.115382
0.12124
0.128322
0.135763
0.142407
0.147547
0.15112
0.153344
0.154541
0.155003
0.154993
0.15485
0.154787
0.154956
0.155705
0.157055
0.158963
0.161375
0.164171
0.167155
0.17007
0.172658
0.174718
0.17618
0.114493
0.11943
0.125742
0.132325
0.138051
0.142427
0.145523
0.147607
0.149005
0.150021
0.150928
0.151961
0.153288
0.155004
0.15714
0.159736
0.162732
0.166004
0.169406
0.172726
0.175707
0.178087
0.17968
0.180583
0.114841
0.119927
0.126114
0.132369
0.137734
0.141794
0.144638
0.146552
0.147865
0.14889
0.149888
0.151054
0.152511
0.154309
0.156443
0.158833
0.161395
0.164049
0.166653
0.169061
0.171014
0.172283
0.172759
0.172772
0.116119
0.122085
0.128831
0.135417
0.140973
0.14516
0.148086
0.150035
0.151327
0.152248
0.153035
0.153856
0.154815
0.155953
0.157265
0.158705
0.160175
0.16152
0.162593
0.163257
0.163524
0.163416
0.163
0.162558
0.118032
0.125324
0.133174
0.140674
0.147009
0.151883
0.155406
0.157846
0.159494
0.160604
0.161375
0.161947
0.162403
0.162784
0.163101
0.163329
0.163426
0.163353
0.163091
0.162645
0.162009
0.161276
0.160635
0.160209
0.12038
0.129336
0.138749
0.147658
0.155251
0.161261
0.165802
0.169129
0.171518
0.173195
0.174334
0.175053
0.175427
0.175501
0.175321
0.174861
0.1741
0.17302
0.171632
0.16998
0.168178
0.166472
0.165297
0.164737
0.123005
0.13392
0.145278
0.155956
0.165111
0.172503
0.17827
0.182679
0.18602
0.1885
0.190274
0.191456
0.192123
0.192362
0.192209
0.191666
0.190611
0.189054
0.187002
0.184474
0.181526
0.178286
0.175206
0.172799
0.12576
0.138887
0.152464
0.165069
0.175812
0.184512
0.191354
0.196664
0.200805
0.203907
0.206146
0.207642
0.208447
0.208517
0.207933
0.206705
0.204705
0.201965
0.198492
0.194277
0.189385
0.184151
0.17919
0.174962
0.12848
0.144025
0.159909
0.174293
0.186258
0.195778
0.203057
0.208441
0.212074
0.214447
0.215824
0.216318
0.216072
0.215313
0.213864
0.21167
0.20875
0.205066
0.200598
0.195331
0.189313
0.182533
0.175574
0.168045
0.130975
0.149054
0.167055
0.182652
0.194958
0.203737
0.209644
0.213458
0.21595
0.217277
0.217606
0.21703
0.215737
0.213546
0.210413
0.206437
0.20159
0.195865
0.18926
0.181774
0.17352
0.164327
0.155228
0.14385
0.133029
0.153613
0.173132
0.18858
0.199131
0.206204
0.210586
0.212718
0.21297
0.211798
0.209556
0.206186
0.201922
0.196824
0.190913
0.184197
0.176684
0.168393
0.159347
0.149597
0.139377
0.12848
0.118405
0.105631
0.134402
0.157258
0.176876
0.190396
0.198971
0.203202
0.204049
0.202443
0.199124
0.194218
0.188302
0.181552
0.174096
0.166004
0.157329
0.148079
0.138314
0.128123
0.117678
0.107203
0.0970146
0.0870608
0.0782465
0.0699568
0.1348
0.159517
0.177489
0.188007
0.192286
0.191899
0.18866
0.18263
0.17509
0.166577
0.157416
0.147829
0.137952
0.127859
0.117605
0.107334
0.0972902
0.0877334
0.0787457
0.0707328
0.063955
0.0589052
0.0554131
0.0535695
0.134029
0.159866
0.174309
0.179594
0.178716
0.174256
0.166046
0.156277
0.14569
0.134764
0.123829
0.113094
0.102639
0.0925922
0.0831911
0.0746712
0.067181
0.0607863
0.0557163
0.0517955
0.0489294
0.0471213
0.0463693
0.046819
0.131862
0.158387
0.166585
0.166327
0.161942
0.152645
0.141383
0.129504
0.117655
0.106244
0.0955331
0.0856111
0.0766112
0.0687128
0.0619767
0.0563642
0.0517777
0.0481305
0.0453335
0.0433304
0.0421405
0.0418154
0.0421731
0.0435921
0.128163
0.154855
0.156212
0.153316
0.144886
0.13279
0.120088
0.107723
0.0961817
0.0857259
0.0764301
0.0683398
0.0614877
0.055771
0.0510353
0.047143
0.0439884
0.0415041
0.039675
0.0385501
0.0381917
0.0384119
0.0392321
0.0412669
0.123863
0.150571
0.149236
0.143737
0.131553
0.117754
0.104461
0.0923622
0.0816813
0.0724287
0.0645297
0.057878
0.0523003
0.0476293
0.0437416
0.040554
0.0380199
0.0361303
0.0349145
0.0344289
0.0345683
0.0351898
0.0365549
0.038959
0.121742
0.148536
0.146868
0.137853
0.121938
0.10664
0.0930524
0.0813474
0.0714063
0.0630245
0.0559906
0.0500963
0.045175
0.0411072
0.0378063
0.035204
0.0332565
0.0319503
0.0312957
0.0312914
0.0317022
0.0327138
0.0343829
0.0367803
0.12533
0.14939
0.146989
0.132701
0.113749
0.0974158
0.0837904
0.0725065
0.0631575
0.0554055
0.0489872
0.0437011
0.0393968
0.0359468
0.0332377
0.0311795
0.0297154
0.0288232
0.0285067
0.0286681
0.029281
0.0304507
0.0321461
0.0344172
0.139455
0.158916
0.149055
0.126288
0.105589
0.0889858
0.0756858
0.0649269
0.0561601
0.0490101
0.0432057
0.0385368
0.0348224
0.0319038
0.029653
0.0279779
0.0268246
0.0261731
0.0260261
0.0262746
0.0269753
0.0281417
0.0297725
0.0318658
0.164177
0.17184
0.148435
0.119215
0.0976529
0.0812932
0.0685173
0.0583435
0.0501827
0.0436481
0.03845
0.0343468
0.0311327
0.0286396
0.0267386
0.0253403
0.0243926
0.0238747
0.0237859
0.0240443
0.0247143
0.0257878
0.0272815
0.0291735
0.00545714
0.0281579
0.0721589
0.119707
0.152394
0.15477
0.0173612
0.0556922
0.10538
0.156177
0.20466
0.242244
0.025271
0.0724315
0.123396
0.176014
0.223299
0.248213
0.0308133
0.0829034
0.134053
0.185448
0.225853
0.236744
0.035081
0.0900232
0.140456
0.188761
0.221314
0.220783
0.0383484
0.0949311
0.144059
0.188738
0.21342
0.206023
0.040791
0.0981805
0.145709
0.186768
0.205092
0.193263
0.0425293
0.100073
0.145932
0.18389
0.197609
0.182884
0.0436482
0.100777
0.145111
0.180693
0.191382
0.174768
0.0442072
0.100392
0.143444
0.177453
0.186388
0.168825
0.0442458
0.098951
0.141014
0.174272
0.182414
0.164739
0.0437965
0.0964874
0.137823
0.171119
0.179203
0.16225
0.0429133
0.0930197
0.133831
0.167874
0.176647
0.161012
0.0417237
0.0885668
0.128969
0.164374
0.174575
0.160883
0.0402052
0.0832083
0.123153
0.160376
0.172762
0.161571
0.038344
0.0770263
0.116295
0.155529
0.170961
0.163065
0.0361262
0.0701115
0.108321
0.149329
0.168849
0.165095
0.0335116
0.0625661
0.099193
0.141064
0.166031
0.167334
0.0303405
0.0545124
0.0888485
0.129882
0.16184
0.169333
0.0260401
0.0461643
0.0773099
0.115414
0.154368
0.170399
0.0237515
0.038194
0.0647994
0.0976837
0.141245
0.170463
0.0217261
0.0308556
0.0516125
0.0766958
0.118427
0.165284
0.0178206
0.0226268
0.0367608
0.0530076
0.0827571
0.14222
0.00510585
0.0078014
0.0146173
0.0242302
0.0416742
0.121114
0.20616
0.179108
0.139832
0.110877
0.0899128
0.0742476
0.0621342
0.0525981
0.0450692
0.0391505
0.034524
0.0309238
0.028132
0.0259775
0.0243341
0.0231169
0.0222774
0.0217966
0.0216762
0.0218743
0.0224249
0.0233421
0.0246541
0.026338
0.226565
0.175016
0.131674
0.102784
0.0827123
0.0678764
0.0564754
0.0476066
0.0407174
0.0353894
0.031278
0.0281031
0.0256453
0.0237401
0.0222699
0.0211565
0.020355
0.0198479
0.019638
0.019721
0.0200939
0.0208073
0.0219056
0.0233799
0.221243
0.161729
0.121248
0.0947647
0.0761243
0.0621823
0.0515015
0.0433019
0.0370301
0.032239
0.0285677
0.0257357
0.0235334
0.0218081
0.0204519
0.0193921
0.0185854
0.0180132
0.0176776
0.0175942
0.0177587
0.0182204
0.0190744
0.020337
0.203359
0.148436
0.112138
0.0878421
0.0703141
0.057143
0.0471578
0.0396076
0.0339065
0.0295839
0.0262768
0.0237161
0.0217071
0.0201105
0.0188275
0.0177898
0.0169538
0.0162973
0.0158179
0.0155299
0.0154574
0.0156337
0.0161917
0.017228
0.184772
0.136591
0.10426
0.0817178
0.06513
0.0526965
0.0433921
0.0364515
0.0312569
0.0273294
0.0243165
0.021967
0.0201031
0.0185986
0.017363
0.0163314
0.0154587
0.0147168
0.0140946
0.0135979
0.0132491
0.0131053
0.0133098
0.0140653
0.168848
0.127071
0.0976832
0.0763875
0.0605703
0.0488203
0.0401527
0.0337602
0.0290002
0.0253979
0.0226193
0.0204335
0.0186794
0.0172429
0.0160407
0.0150113
0.0141081
0.0132971
0.0125555
0.011874
0.0112602
0.010759
0.0105227
0.0108682
0.156916
0.119712
0.0921899
0.0717477
0.0565827
0.0454653
0.0373781
0.0314642
0.027068
0.023729
0.0211356
0.0190771
0.0174081
0.0160249
0.0148512
0.0138288
0.0129116
0.0120621
0.0112483
0.0104439
0.00963108
0.00881891
0.00803108
0.00702897
0.148341
0.114001
0.0875815
0.0677309
0.053129
0.042585
0.0350107
0.0295032
0.0254052
0.0222764
0.0198285
0.0178699
0.0162687
0.0149307
0.013786
0.0127807
0.0118713
0.0110215
0.0101986
0.00937023
0.00850076
0.00755937
0.00654957
0.00524348
0.142311
0.109573
0.0837334
0.0642877
0.0501679
0.0401301
0.0329963
0.0278258
0.0239676
0.0210042
0.0186698
0.0167897
0.0152439
0.0139462
0.0128325
0.0118532
0.0109688
0.0101469
0.0093596
0.00857989
0.0077777
0.00692585
0.00601858
0.00492262
0.138093
0.106185
0.0805646
0.0613772
0.0476587
0.0380537
0.0312879
0.02639
0.0227203
0.0198845
0.0176372
0.0158184
0.0143177
0.0130557
0.0119729
0.0110232
0.0101704
0.00938486
0.00864189
0.00791797
0.00718685
0.00642772
0.00564606
0.0047543
0.135347
0.103697
0.0780242
0.0589636
0.0455617
0.0363134
0.0298455
0.0251618
0.0216361
0.0188959
0.0167136
0.0149414
0.013477
0.0122459
0.011192
0.0102722
0.00945195
0.00870397
0.00800562
0.00733595
0.00667215
0.00599892
0.00532748
0.00459821
0.133839
0.10203
0.0760788
0.0570153
0.0438409
0.0348734
0.0286369
0.0241146
0.0206939
0.0180217
0.0158857
0.0141478
0.0127118
0.011507
0.0104798
0.0095887
0.00880088
0.00809033
0.00743604
0.00681906
0.00621953
0.00562632
0.0050526
0.00445625
0.133441
0.101155
0.0747112
0.0555064
0.0424658
0.0337033
0.0276355
0.023227
0.0198772
0.0172492
0.0151433
0.0134291
0.0120148
0.0108322
0.00982945
0.00896604
0.00821013
0.00753672
0.00692593
0.0063603
0.00582228
0.00530343
0.00481634
0.0043308
0.134116
0.101068
0.0739146
0.0544151
0.0414097
0.0327774
0.0268198
0.0224821
0.019173
0.0165685
0.0144787
0.0127791
0.0113806
0.0102168
0.00923649
0.00839977
0.00767533
0.00703876
0.00647088
0.00595521
0.00547576
0.00502545
0.00461479
0.00422187
0.135856
0.101796
0.0736872
0.0537246
0.0406503
0.0320745
0.0261722
0.0218664
0.018571
0.0159716
0.0138859
0.0121928
0.0108052
0.0096571
0.00869749
0.00788657
0.00719318
0.00659309
0.00606745
0.00560019
0.00517614
0.00478845
0.00444467
0.00412879
0.138699
0.103387
0.073994
0.0534158
0.0401704
0.0315778
0.0256788
0.0213691
0.018063
0.0154525
0.0133598
0.0116664
0.0102852
0.00915008
0.00820958
0.00742359
0.00676074
0.00619668
0.0057124
0.00529175
0.00491962
0.00458854
0.00430268
0.00405029
0.142711
0.105922
0.0750007
0.0534649
0.0399543
0.0312737
0.0253281
0.0209812
0.0176423
0.0150059
0.0128967
0.0111966
0.00981782
0.00869314
0.00777021
0.00700819
0.00637522
0.0058465
0.00540245
0.00502627
0.00470229
0.00442174
0.00418546
0.00398486
0.147972
0.109502
0.0766058
0.0538567
0.039979
0.0311487
0.02511
0.020695
0.0173031
0.0146274
0.012493
0.0107806
0.00940054
0.00828391
0.00737696
0.00663783
0.00603387
0.00553951
0.00513419
0.00479993
0.00452003
0.004284
0.0040897
0.00393097
0.154584
0.114254
0.078887
0.0547267
0.0401825
0.0311789
0.0250144
0.0205033
0.0170403
0.0143134
0.0121459
0.0104159
0.00903112
0.0079202
0.00702756
0.00631003
0.00573392
0.00527257
0.00490403
0.00460876
0.00436864
0.00417139
0.00401232
0.00388715
0.16265
0.120327
0.081847
0.0559441
0.0406395
0.0313322
0.0250282
0.0203992
0.0168488
0.0140602
0.0118526
0.0101003
0.00870753
0.00759994
0.00671978
0.00602233
0.0054726
0.00504249
0.00470832
0.0044487
0.00424398
0.0040802
0.00395057
0.00385211
0.172248
0.127895
0.0854665
0.057502
0.0413238
0.0316149
0.0251277
0.0203758
0.016724
0.0138648
0.0116108
0.00983188
0.00842794
0.00732122
0.00645152
0.00577235
0.00524715
0.00484609
0.00454342
0.00431576
0.00414206
0.004007
0.00390204
0.00382473
0.183575
0.1371
0.0896406
0.0593286
0.0421683
0.0320392
0.0253127
0.0204195
0.0166615
0.0137247
0.011419
0.00960925
0.00819088
0.00708234
0.00622077
0.00555771
0.00505482
0.0046802
0.00440579
0.00420615
0.00405908
0.00394844
0.00386445
0.0038039
0.197859
0.147806
0.0939532
0.0611947
0.0431106
0.0325602
0.0255738
0.0205252
0.0166595
0.0136381
0.0112759
0.00943154
0.0079954
0.00688203
0.0060258
0.00537617
0.00489286
0.00454168
0.00429203
0.00411641
0.00399159
0.00390118
0.00383527
0.00378803
0.216265
0.15808
0.0975426
0.0629632
0.0441
0.0331531
0.025914
0.0206916
0.0167097
0.0136051
0.0111823
0.00929948
0.00784187
0.00672011
0.00586577
0.0052262
0.00475908
0.00442785
0.00419933
0.00404397
0.0039376
0.00386348
0.00381187
0.00377558
)
;

boundaryField
{
    rotor
    {
        type            kqRWallFunction;
        value           nonuniform List<scalar> 
144
(
0.00678302
0.0319633
0.0779744
0.118632
0.137986
0.129143
0.00678302
0.02127
0.0307955
0.0382307
0.0444191
0.049547
0.0537421
0.0570977
0.0596801
0.0615339
0.0626846
0.0631537
0.0631078
0.0626156
0.0616017
0.0599791
0.0576552
0.0545293
0.0504881
0.0454046
0.0391615
0.0316847
0.0224111
0.00667158
0.00667158
0.0229684
0.0539767
0.0895056
0.139017
0.16805
0.0111425
0.0167896
0.0216654
0.0237859
0.0241557
0.039959
0.0111425
0.0295573
0.0384141
0.0445017
0.048947
0.0524778
0.055446
0.0579997
0.060212
0.062126
0.0637783
0.0652062
0.0662508
0.0665184
0.0662339
0.0650882
0.0630792
0.0601112
0.0560513
0.0508162
0.0444085
0.0363076
0.0257218
0.00968189
0.00968189
0.0403828
0.0851486
0.111352
0.122772
0.117344
0.00338925
0.0077388
0.0167568
0.0284972
0.0455689
0.0772601
0.00338925
0.0146198
0.0188451
0.0211845
0.023023
0.0243037
0.0249525
0.0252304
0.0256538
0.026053
0.0263388
0.0264671
0.0264057
0.0261496
0.025768
0.0253056
0.0249474
0.0249473
0.0245649
0.0236664
0.0222034
0.0202103
0.0163406
0.00421391
0.00421391
0.00884659
0.0163264
0.0263135
0.0347913
0.0481862
0.00545714
0.0281579
0.0721589
0.119707
0.152394
0.15477
0.00545714
0.0173612
0.025271
0.0308133
0.035081
0.0383484
0.040791
0.0425293
0.0436482
0.0442072
0.0442458
0.0437965
0.0429133
0.0417237
0.0402052
0.038344
0.0361262
0.0335116
0.0303405
0.0260401
0.0237515
0.0217261
0.0178206
0.00510585