/*--------------------------------*- C++ -*----------------------------------*\
  =========                 |
  \\      /  F ield         | OpenFOAM: The Open Source CFD Toolbox
   \\    /   O peration     | Website:  https://openfoam.org
    \\  /    A nd           | Version:  11
     \\/     M anipulation  |
\*---------------------------------------------------------------------------*/
FoamFile
{
    format      ascii;
    class       surfaceScalarField;
    location    "0.94";
    object      meshPhi;
}
// * * * * * * * * * * * * * * * * * * * * * * * * * * * * * * * * * * * * * //

dimensions      [0 3 -1 0 0 0 0];

internalField   nonuniform List<scalar> 
5640
(
1.36969e-16
9.81747e-07
2.42087e-16
1.37445e-06
3.77001e-16
1.76715e-06
-1.33924e-15
2.15984e-06
-3.68165e-15
2.55254e-06
2.94524e-06
5.95129e-15
1.84368e-18
9.81747e-07
-3.88816e-16
1.37445e-06
-2.60417e-15
1.76715e-06
1.94366e-15
2.15984e-06
8.06595e-15
2.55254e-06
2.94524e-06
-9.02995e-15
-1.1645e-16
9.81747e-07
1.86353e-16
1.37445e-06
-1.5624e-15
1.76715e-06
-4.21261e-15
2.15984e-06
-7.49844e-15
2.55254e-06
2.94524e-06
7.72047e-16
8.6976e-17
9.81747e-07
-1.01859e-16
1.37445e-06
2.69314e-15
1.76715e-06
7.4429e-15
2.15984e-06
3.25987e-15
2.55254e-06
2.94524e-06
-2.79794e-15
-4.83746e-17
9.81747e-07
3.95013e-17
1.37445e-06
1.94308e-16
1.76715e-06
-1.80616e-15
2.15984e-06
-4.20855e-15
2.55254e-06
2.94524e-06
5.01333e-15
-1.80104e-16
9.81747e-07
4.33327e-18
1.37445e-06
-1.84782e-15
1.76715e-06
-3.88611e-15
2.15984e-06
3.15709e-15
2.55254e-06
2.94524e-06
4.98148e-16
2.53979e-16
9.81747e-07
2.55462e-16
1.37445e-06
2.06601e-15
1.76715e-06
4.5041e-15
2.15984e-06
-2.30984e-15
2.55254e-06
2.94524e-06
5.4103e-16
2.16688e-17
9.81747e-07
-3.2168e-16
1.37445e-06
-1.1489e-15
1.76715e-06
-5.28564e-15
2.15984e-06
-3.76591e-16
2.55254e-06
2.94524e-06
-5.63987e-15
-1.43404e-16
9.81747e-07
1.66385e-16
1.37445e-06
4.19112e-15
1.76715e-06
6.34937e-15
2.15984e-06
-8.05771e-16
2.55254e-06
2.94524e-06
8.39268e-16
-6.88002e-17
9.81747e-07
-9.20833e-17
1.37445e-06
-2.76946e-15
1.76715e-06
-3.68807e-16
2.15984e-06
-1.45083e-15
2.55254e-06
2.94524e-06
-1.76632e-16
1.66312e-16
9.81747e-07
-8.8694e-17
1.37445e-06
5.69613e-16
1.76715e-06
-2.10359e-15
2.15984e-06
9.65995e-15
2.55254e-06
2.94524e-06
5.29022e-15
-1.77788e-16
9.81747e-07
-2.05198e-17
1.37445e-06
-3.45523e-16
1.76715e-06
-4.1727e-15
2.15984e-06
-2.62228e-15
2.55254e-06
2.94524e-06
5.36958e-15
1.77813e-16
9.81747e-07
2.05177e-17
1.37445e-06
3.45473e-16
1.76715e-06
4.17272e-15
2.15984e-06
2.62234e-15
2.55254e-06
2.94524e-06
-5.36935e-15
-1.66335e-16
9.81747e-07
8.87216e-17
1.37445e-06
-5.69702e-16
1.76715e-06
2.10362e-15
2.15984e-06
-9.65997e-15
2.55254e-06
2.94524e-06
-5.29025e-15
6.88142e-17
9.81747e-07
9.2086e-17
1.37445e-06
2.76931e-15
1.76715e-06
3.68845e-16
2.15984e-06
1.45083e-15
2.55254e-06
2.94524e-06
1.76656e-16
1.43392e-16
9.81747e-07
-1.6642e-16
1.37445e-06
-4.19119e-15
1.76715e-06
-6.34938e-15
2.15984e-06
8.05782e-16
2.55254e-06
2.94524e-06
-8.39004e-16
-2.16491e-17
9.81747e-07
3.21697e-16
1.37445e-06
1.14888e-15
1.76715e-06
5.28554e-15
2.15984e-06
3.76811e-16
2.55254e-06
2.94524e-06
5.64004e-15
-2.53962e-16
9.81747e-07
-2.55402e-16
1.37445e-06
-2.06598e-15
1.76715e-06
-4.50409e-15
2.15984e-06
2.30993e-15
2.55254e-06
2.94524e-06
-5.40806e-16
1.80106e-16
9.81747e-07
-4.31015e-18
1.37445e-06
1.84775e-15
1.76715e-06
3.88616e-15
2.15984e-06
-3.15697e-15
2.55254e-06
2.94524e-06
-4.98119e-16
4.83726e-17
9.81747e-07
-3.95291e-17
1.37445e-06
-1.94396e-16
1.76715e-06
1.80617e-15
2.15984e-06
4.20864e-15
2.55254e-06
2.94524e-06
-5.01341e-15
-8.69687e-17
9.81747e-07
1.01951e-16
1.37445e-06
-2.6932e-15
1.76715e-06
-7.44276e-15
2.15984e-06
-3.2598e-15
2.55254e-06
2.94524e-06
2.79802e-15
1.16467e-16
9.81747e-07
-1.86376e-16
1.37445e-06
1.56239e-15
1.76715e-06
4.21258e-15
2.15984e-06
7.49835e-15
2.55254e-06
2.94524e-06
-7.72419e-16
-1.82374e-18
9.81747e-07
3.88814e-16
1.37445e-06
2.60411e-15
1.76715e-06
-1.94355e-15
2.15984e-06
-8.06625e-15
2.55254e-06
2.94524e-06
9.02991e-15
-1.36923e-16
-2.42077e-16
-3.76994e-16
1.33924e-15
3.68163e-15
-5.95126e-15
-1.13357e-14
4.53785e-06
-4.53785e-06
-4.81287e-16
5.23599e-06
-5.23599e-06
-5.3572e-15
5.93412e-06
-5.93412e-06
-1.13036e-14
6.63225e-06
-6.63225e-06
4.86904e-15
7.33038e-06
-7.33038e-06
-1.10915e-15
8.02851e-06
-8.02851e-06
-8.15801e-15
8.72664e-06
-8.72664e-06
1.30441e-14
9.42478e-06
-9.42478e-06
5.9502e-15
1.01229e-05
-1.01229e-05
-1.99735e-15
1.0821e-05
-1.0821e-05
2.43868e-14
1.15192e-05
-1.15192e-05
1.61899e-14
1.22173e-05
-1.22173e-05
-3.27862e-14
1.29154e-05
-1.29154e-05
-3.05043e-15
1.36136e-05
-1.36136e-05
-1.44404e-14
1.43117e-05
-1.43117e-05
-2.6902e-14
1.50098e-05
-1.50098e-05
7.73978e-15
1.5708e-05
-1.5708e-05
-4.43659e-15
1.64061e-05
-1.64061e-05
-1.79993e-14
1.71042e-05
-1.71042e-05
2.18223e-14
1.78024e-05
-1.78024e-05
8.21193e-15
1.85005e-05
-1.85005e-05
-6.08268e-15
1.91986e-05
-1.91986e-05
3.8918e-14
1.98967e-05
-1.98967e-05
2.05949e-05
-2.05949e-05
9.39893e-15
4.53785e-06
5.20167e-16
5.23599e-06
7.52857e-15
5.93412e-06
-4.41173e-15
6.63225e-06
3.78271e-15
7.33038e-06
1.33847e-14
8.02851e-06
-2.10998e-15
8.72664e-06
8.52941e-15
9.42478e-06
-1.00272e-14
1.01229e-05
1.86568e-15
1.0821e-05
-2.02024e-14
1.15192e-05
-7.01154e-15
1.22173e-05
7.51204e-15
1.29154e-05
2.36083e-14
1.36136e-05
-2.04167e-15
1.43117e-05
1.48322e-14
1.50098e-05
-1.38779e-14
1.5708e-05
2.39062e-15
1.64061e-05
2.04106e-14
1.71042e-05
-7.01919e-15
1.78024e-05
1.20658e-14
1.85005e-05
-2.59421e-14
1.91986e-05
1.84789e-15
1.98967e-05
2.05949e-05
-8.67584e-15
4.53785e-06
1.22923e-14
5.23599e-06
1.88295e-15
5.93412e-06
8.90277e-15
6.63225e-06
-5.10983e-15
7.33038e-06
-2.19913e-14
8.02851e-06
1.22647e-14
8.72664e-06
-5.37424e-15
9.42478e-06
4.45773e-15
1.01229e-05
-1.43055e-14
1.0821e-05
-7.32589e-15
1.15192e-05
7.04089e-15
1.22173e-05
2.39943e-14
1.29154e-05
-7.55457e-15
1.36136e-05
9.80078e-15
1.43117e-05
-1.62377e-14
1.50098e-05
4.02969e-14
1.5708e-05
1.44445e-14
1.64061e-05
-1.37061e-14
1.71042e-05
-7.90027e-15
1.78024e-05
-3.92516e-14
1.85005e-05
4.27568e-14
1.91986e-05
-8.85467e-15
1.98967e-05
2.05949e-05
5.98589e-15
4.53785e-06
2.18766e-16
5.23599e-06
-6.43553e-15
5.93412e-06
6.06429e-15
6.63225e-06
-2.09364e-15
7.33038e-06
1.61763e-14
8.02851e-06
-1.88313e-14
8.72664e-06
-2.3503e-15
9.42478e-06
9.17328e-15
1.01229e-05
-4.71001e-15
1.0821e-05
2.16283e-14
1.15192e-05
-2.96445e-14
1.22173e-05
-9.29013e-15
1.29154e-05
-1.89048e-14
1.36136e-05
4.4672e-15
1.43117e-05
3.01584e-14
1.50098e-05
-2.62146e-14
1.5708e-05
4.34256e-16
1.64061e-05
-2.11679e-14
1.71042e-05
1.87101e-14
1.78024e-05
-3.91872e-15
1.85005e-05
-2.91545e-14
1.91986e-05
1.52321e-14
1.98967e-05
2.05949e-05
6.71519e-15
4.53785e-06
-7.30655e-15
5.23599e-06
1.1101e-14
5.93412e-06
-4.24059e-15
6.63225e-06
1.51025e-14
7.33038e-06
-5.2091e-15
8.02851e-06
1.70128e-14
8.72664e-06
-3.94229e-15
9.42478e-06
-2.93472e-16
1.01229e-05
6.61173e-15
1.0821e-05
1.3705e-14
1.15192e-05
1.01841e-14
1.22173e-05
1.82172e-14
1.29154e-05
1.43691e-14
1.36136e-05
2.33416e-14
1.43117e-05
-2.53424e-14
1.50098e-05
2.90721e-14
1.5708e-05
-7.82968e-15
1.64061e-05
3.54164e-14
1.71042e-05
-4.51195e-15
1.78024e-05
4.23712e-14
1.85005e-05
-5.84702e-16
1.91986e-05
-8.73418e-15
1.98967e-05
2.05949e-05
-4.6308e-15
4.53785e-06
5.79766e-15
5.23599e-06
-1.61503e-14
5.93412e-06
-5.97462e-15
6.63225e-06
-8.55495e-15
7.33038e-06
4.2237e-15
8.02851e-06
-8.18801e-15
8.72664e-06
6.99894e-15
9.42478e-06
-2.4229e-14
1.01229e-05
-7.7691e-15
1.0821e-05
-2.27656e-14
1.15192e-05
8.34916e-15
1.22173e-05
-7.40269e-15
1.29154e-05
2.82657e-14
1.36136e-05
-4.57085e-14
1.43117e-05
-8.22365e-15
1.50098e-05
-2.82258e-14
1.5708e-05
-2.34033e-15
1.64061e-05
-6.94803e-15
1.71042e-05
2.21514e-14
1.78024e-05
-3.41061e-14
1.85005e-05
-3.73927e-15
1.91986e-05
-3.23471e-14
1.98967e-05
2.05949e-05
-8.92517e-15
4.53785e-06
-2.28897e-15
5.23599e-06
-2.22393e-15
5.93412e-06
6.61639e-15
6.63225e-06
-3.38826e-15
7.33038e-06
-3.90652e-15
8.02851e-06
-6.41894e-15
8.72664e-06
-7.15861e-15
9.42478e-06
6.81051e-15
1.01229e-05
6.98263e-15
1.0821e-05
-9.06435e-15
1.15192e-05
6.75915e-15
1.22173e-05
-2.88896e-14
1.29154e-05
-1.2234e-14
1.36136e-05
4.806e-15
1.43117e-05
2.50243e-14
1.50098e-05
3.86341e-15
1.5708e-05
3.60918e-15
1.64061e-05
-2.04852e-14
1.71042e-05
-2.17608e-14
1.78024e-05
3.46658e-15
1.85005e-05
2.90458e-14
1.91986e-05
-1.66379e-15
1.98967e-05
2.05949e-05
6.21565e-15
4.53785e-06
-3.87945e-15
5.23599e-06
1.54225e-14
5.93412e-06
-7.06452e-15
6.63225e-06
-2.21049e-15
7.33038e-06
1.4301e-15
8.02851e-06
-5.49383e-15
8.72664e-06
1.32255e-14
9.42478e-06
6.04581e-15
1.01229e-05
-1.74496e-14
1.0821e-05
2.08898e-14
1.15192e-05
-2.14458e-14
1.22173e-05
1.91341e-14
1.29154e-05
-7.31567e-15
1.36136e-05
3.84849e-14
1.43117e-05
-1.29207e-14
1.50098e-05
-1.88437e-15
1.5708e-05
5.7204e-15
1.64061e-05
-7.58877e-15
1.71042e-05
2.76588e-14
1.78024e-05
1.40982e-14
1.85005e-05
-5.31416e-14
1.91986e-05
3.90835e-14
1.98967e-05
2.05949e-05
-1.49854e-15
4.53785e-06
1.08969e-14
5.23599e-06
-6.5994e-15
5.93412e-06
7.26571e-15
6.63225e-06
6.17477e-15
7.33038e-06
2.48956e-15
8.02851e-06
-9.64653e-16
8.72664e-06
-4.36524e-15
9.42478e-06
-8.9005e-15
1.01229e-05
1.38634e-14
1.0821e-05
1.0692e-14
1.15192e-05
6.25049e-15
1.22173e-05
-1.25584e-16
1.29154e-05
-3.43865e-15
1.36136e-05
-1.10421e-14
1.43117e-05
-1.77629e-14
1.50098e-05
1.76801e-14
1.5708e-05
9.95825e-15
1.64061e-05
3.32956e-15
1.71042e-05
-3.29685e-14
1.78024e-05
-1.04248e-14
1.85005e-05
3.00683e-14
1.91986e-05
-5.99954e-14
1.98967e-05
2.05949e-05
5.17021e-15
4.53785e-06
-7.45539e-15
5.23599e-06
-7.56704e-16
5.93412e-06
6.83936e-15
6.63225e-06
-9.97411e-15
7.33038e-06
-1.66413e-15
8.02851e-06
9.21873e-15
8.72664e-06
-1.34607e-14
9.42478e-06
2.32217e-14
1.01229e-05
1.04742e-14
1.0821e-05
-1.72718e-14
1.15192e-05
-3.02681e-15
1.22173e-05
1.1398e-14
1.29154e-05
-1.98154e-14
1.36136e-05
-4.67808e-15
1.43117e-05
5.03069e-14
1.50098e-05
-2.40477e-14
1.5708e-05
-6.65651e-15
1.64061e-05
1.42627e-14
1.71042e-05
1.64997e-15
1.78024e-05
-6.80809e-15
1.85005e-05
1.44444e-14
1.91986e-05
5.07598e-14
1.98967e-05
2.05949e-05
-6.19713e-15
4.53785e-06
2.86632e-17
5.23599e-06
1.15121e-14
5.93412e-06
-2.06267e-14
6.63225e-06
5.36642e-15
7.33038e-06
1.22196e-15
8.02851e-06
-4.80153e-17
8.72664e-06
1.23944e-14
9.42478e-06
-1.32266e-14
1.01229e-05
-1.88941e-14
1.0821e-05
-4.96353e-15
1.15192e-05
-7.15378e-15
1.22173e-05
-1.48878e-14
1.29154e-05
3.53398e-14
1.36136e-05
6.85009e-20
1.43117e-05
-4.31389e-14
1.50098e-05
1.35648e-14
1.5708e-05
-2.82567e-14
1.64061e-05
2.45736e-15
1.71042e-05
-1.02411e-14
1.78024e-05
2.38062e-14
1.85005e-05
1.38757e-14
1.91986e-05
-4.55613e-14
1.98967e-05
2.05949e-05
-1.90654e-15
4.53785e-06
1.1309e-15
5.23599e-06
-2.1662e-14
5.93412e-06
9.62406e-15
6.63225e-06
1.51365e-14
7.33038e-06
-1.40654e-14
8.02851e-06
8.09182e-15
8.72664e-06
-2.69594e-14
9.42478e-06
-1.96542e-15
1.01229e-05
2.97171e-14
1.0821e-05
-1.17459e-14
1.15192e-05
1.98664e-14
1.22173e-05
-2.74456e-14
1.29154e-05
-2.06153e-14
1.36136e-05
1.60409e-14
1.43117e-05
-4.6152e-15
1.50098e-05
4.69128e-15
1.5708e-05
4.79683e-14
1.64061e-05
-1.37374e-14
1.71042e-05
3.23673e-14
1.78024e-05
-3.51859e-14
1.85005e-05
-2.4907e-14
1.91986e-05
7.19182e-14
1.98967e-05
2.05949e-05
1.90677e-15
4.53785e-06
-1.13068e-15
5.23599e-06
2.16621e-14
5.93412e-06
-9.62388e-15
6.63225e-06
-1.5137e-14
7.33038e-06
1.4065e-14
8.02851e-06
-8.09311e-15
8.72664e-06
2.69602e-14
9.42478e-06
1.96557e-15
1.01229e-05
-2.97178e-14
1.0821e-05
1.17452e-14
1.15192e-05
-1.98673e-14
1.22173e-05
2.74444e-14
1.29154e-05
2.06161e-14
1.36136e-05
-1.60414e-14
1.43117e-05
4.61308e-15
1.50098e-05
-4.69241e-15
1.5708e-05
-4.79672e-14
1.64061e-05
1.3741e-14
1.71042e-05
-3.23725e-14
1.78024e-05
3.51834e-14
1.85005e-05
2.49036e-14
1.91986e-05
-7.19164e-14
1.98967e-05
2.05949e-05
6.19726e-15
4.53785e-06
-2.86996e-17
5.23599e-06
-1.15116e-14
5.93412e-06
2.06261e-14
6.63225e-06
-5.36731e-15
7.33038e-06
-1.22126e-15
8.02851e-06
4.69811e-17
8.72664e-06
-1.23932e-14
9.42478e-06
1.32255e-14
1.01229e-05
1.88931e-14
1.0821e-05
4.96629e-15
1.15192e-05
7.15334e-15
1.22173e-05
1.48868e-14
1.29154e-05
-3.53397e-14
1.36136e-05
2.31779e-18
1.43117e-05
4.31382e-14
1.50098e-05
-1.35628e-14
1.5708e-05
2.82585e-14
1.64061e-05
-2.45472e-15
1.71042e-05
1.02402e-14
1.78024e-05
-2.38036e-14
1.85005e-05
-1.38755e-14
1.91986e-05
4.55637e-14
1.98967e-05
2.05949e-05
-5.17011e-15
4.53785e-06
7.45546e-15
5.23599e-06
7.5667e-16
5.93412e-06
-6.83968e-15
6.63225e-06
9.97394e-15
7.33038e-06
1.66415e-15
8.02851e-06
-9.2191e-15
8.72664e-06
1.34599e-14
9.42478e-06
-2.32217e-14
1.01229e-05
-1.04734e-14
1.0821e-05
1.72731e-14
1.15192e-05
3.02668e-15
1.22173e-05
-1.13975e-14
1.29154e-05
1.98161e-14
1.36136e-05
4.67999e-15
1.43117e-05
-5.03056e-14
1.50098e-05
2.40449e-14
1.5708e-05
6.65658e-15
1.64061e-05
-1.42613e-14
1.71042e-05
-1.65108e-15
1.78024e-05
6.812e-15
1.85005e-05
-1.44442e-14
1.91986e-05
-5.07595e-14
1.98967e-05
2.05949e-05
1.49855e-15
4.53785e-06
-1.08971e-14
5.23599e-06
6.59936e-15
5.93412e-06
-7.26592e-15
6.63225e-06
-6.17509e-15
7.33038e-06
-2.4887e-15
8.02851e-06
9.64354e-16
8.72664e-06
4.36515e-15
9.42478e-06
8.9016e-15
1.01229e-05
-1.38645e-14
1.0821e-05
-1.06904e-14
1.15192e-05
-6.25073e-15
1.22173e-05
1.27416e-16
1.29154e-05
3.43877e-15
1.36136e-05
1.10443e-14
1.43117e-05
1.77651e-14
1.50098e-05
-1.76791e-14
1.5708e-05
-9.95482e-15
1.64061e-05
-3.32766e-15
1.71042e-05
3.29699e-14
1.78024e-05
1.04215e-14
1.85005e-05
-3.00683e-14
1.91986e-05
5.99916e-14
1.98967e-05
2.05949e-05
-6.21569e-15
4.53785e-06
3.87888e-15
5.23599e-06
-1.54219e-14
5.93412e-06
7.06505e-15
6.63225e-06
2.2106e-15
7.33038e-06
-1.42886e-15
8.02851e-06
5.49278e-15
8.72664e-06
-1.32258e-14
9.42478e-06
-6.04494e-15
1.01229e-05
1.74494e-14
1.0821e-05
-2.08874e-14
1.15192e-05
2.14456e-14
1.22173e-05
-1.91343e-14
1.29154e-05
7.31607e-15
1.36136e-05
-3.84863e-14
1.43117e-05
1.29226e-14
1.50098e-05
1.88215e-15
1.5708e-05
-5.71544e-15
1.64061e-05
7.58631e-15
1.71042e-05
-2.76589e-14
1.78024e-05
-1.40996e-14
1.85005e-05
5.31386e-14
1.91986e-05
-3.90834e-14
1.98967e-05
2.05949e-05
8.92505e-15
4.53785e-06
2.28883e-15
5.23599e-06
2.22387e-15
5.93412e-06
-6.6162e-15
6.63225e-06
3.38809e-15
7.33038e-06
3.90752e-15
8.02851e-06
6.41843e-15
8.72664e-06
7.15838e-15
9.42478e-06
-6.80961e-15
1.01229e-05
-6.9827e-15
1.0821e-05
9.0647e-15
1.15192e-05
-6.75783e-15
1.22173e-05
2.88878e-14
1.29154e-05
1.22348e-14
1.36136e-05
-4.80455e-15
1.43117e-05
-2.50269e-14
1.50098e-05
-3.86113e-15
1.5708e-05
-3.60431e-15
1.64061e-05
2.04833e-14
1.71042e-05
2.17581e-14
1.78024e-05
-3.46677e-15
1.85005e-05
-2.90425e-14
1.91986e-05
1.65835e-15
1.98967e-05
2.05949e-05
4.6305e-15
4.53785e-06
-5.79758e-15
5.23599e-06
1.61507e-14
5.93412e-06
5.9743e-15
6.63225e-06
8.55499e-15
7.33038e-06
-4.22399e-15
8.02851e-06
8.1868e-15
8.72664e-06
-6.99984e-15
9.42478e-06
2.42297e-14
1.01229e-05
7.7705e-15
1.0821e-05
2.27652e-14
1.15192e-05
-8.35086e-15
1.22173e-05
7.40433e-15
1.29154e-05
-2.82663e-14
1.36136e-05
4.57093e-14
1.43117e-05
8.2192e-15
1.50098e-05
2.82272e-14
1.5708e-05
2.34027e-15
1.64061e-05
6.94332e-15
1.71042e-05
-2.21514e-14
1.78024e-05
3.41139e-14
1.85005e-05
3.74211e-15
1.91986e-05
3.23467e-14
1.98967e-05
2.05949e-05
-6.71474e-15
4.53785e-06
7.30676e-15
5.23599e-06
-1.11005e-14
5.93412e-06
4.24045e-15
6.63225e-06
-1.51023e-14
7.33038e-06
5.20918e-15
8.02851e-06
-1.70136e-14
8.72664e-06
3.94119e-15
9.42478e-06
2.94352e-16
1.01229e-05
-6.61013e-15
1.0821e-05
-1.3706e-14
1.15192e-05
-1.01861e-14
1.22173e-05
-1.82186e-14
1.29154e-05
-1.43697e-14
1.36136e-05
-2.33405e-14
1.43117e-05
2.53431e-14
1.50098e-05
-2.90745e-14
1.5708e-05
7.82608e-15
1.64061e-05
-3.54141e-14
1.71042e-05
4.51188e-15
1.78024e-05
-4.23682e-14
1.85005e-05
5.89298e-16
1.91986e-05
8.73175e-15
1.98967e-05
2.05949e-05
-5.98579e-15
4.53785e-06
-2.19101e-16
5.23599e-06
6.4356e-15
5.93412e-06
-6.06396e-15
6.63225e-06
2.09209e-15
7.33038e-06
-1.61763e-14
8.02851e-06
1.88312e-14
8.72664e-06
2.35082e-15
9.42478e-06
-9.1726e-15
1.01229e-05
4.71099e-15
1.0821e-05
-2.16283e-14
1.15192e-05
2.96456e-14
1.22173e-05
9.28922e-15
1.29154e-05
1.89061e-14
1.36136e-05
-4.46636e-15
1.43117e-05
-3.0156e-14
1.50098e-05
2.62166e-14
1.5708e-05
-4.35886e-16
1.64061e-05
2.11728e-14
1.71042e-05
-1.87133e-14
1.78024e-05
3.92135e-15
1.85005e-05
2.9158e-14
1.91986e-05
-1.5231e-14
1.98967e-05
2.05949e-05
8.67609e-15
4.53785e-06
-1.22922e-14
5.23599e-06
-1.88311e-15
5.93412e-06
-8.90226e-15
6.63225e-06
5.10845e-15
7.33038e-06
2.19912e-14
8.02851e-06
-1.22655e-14
8.72664e-06
5.37425e-15
9.42478e-06
-4.45678e-15
1.01229e-05
1.43043e-14
1.0821e-05
7.32627e-15
1.15192e-05
-7.04068e-15
1.22173e-05
-2.39962e-14
1.29154e-05
7.55449e-15
1.36136e-05
-9.80085e-15
1.43117e-05
1.6237e-14
1.50098e-05
-4.02953e-14
1.5708e-05
-1.44487e-14
1.64061e-05
1.37032e-14
1.71042e-05
7.89588e-15
1.78024e-05
3.9253e-14
1.85005e-05
-4.27556e-14
1.91986e-05
8.84989e-15
1.98967e-05
2.05949e-05
-9.39869e-15
4.53785e-06
-5.19909e-16
5.23599e-06
-7.52842e-15
5.93412e-06
4.41181e-15
6.63225e-06
-3.78366e-15
7.33038e-06
-1.33851e-14
8.02851e-06
2.10836e-15
8.72664e-06
-8.52913e-15
9.42478e-06
1.00268e-14
1.01229e-05
-1.867e-15
1.0821e-05
2.02009e-14
1.15192e-05
7.01148e-15
1.22173e-05
-7.51207e-15
1.29154e-05
-2.36085e-14
1.36136e-05
2.04201e-15
1.43117e-05
-1.48354e-14
1.50098e-05
1.38777e-14
1.5708e-05
-2.39488e-15
1.64061e-05
-2.04104e-14
1.71042e-05
7.0152e-15
1.78024e-05
-1.20673e-14
1.85005e-05
2.59398e-14
1.91986e-05
-1.84994e-15
1.98967e-05
2.05949e-05
1.13364e-14
4.53785e-06
4.81163e-16
5.23599e-06
5.35699e-15
5.93412e-06
1.13032e-14
6.63225e-06
-4.86958e-15
7.33038e-06
1.10895e-15
8.02851e-06
8.15791e-15
8.72664e-06
-1.30449e-14
9.42478e-06
-5.9498e-15
1.01229e-05
1.9955e-15
1.0821e-05
-2.43883e-14
1.15192e-05
-1.61909e-14
1.22173e-05
3.27863e-14
1.29154e-05
3.05227e-15
1.36136e-05
1.44433e-14
1.43117e-05
2.6899e-14
1.50098e-05
-7.73946e-15
1.5708e-05
4.43579e-15
1.64061e-05
1.8001e-14
1.71042e-05
-2.18251e-14
1.78024e-05
-8.21297e-15
1.85005e-05
6.07549e-15
1.91986e-05
-3.89204e-14
1.98967e-05
2.05949e-05
1.36977e-16
9.81747e-07
2.42086e-16
1.37445e-06
3.77072e-16
1.76715e-06
-1.33929e-15
2.15984e-06
-3.68158e-15
2.55254e-06
2.94524e-06
5.95129e-15
1.84368e-18
9.81747e-07
-3.88816e-16
1.37445e-06
-2.60417e-15
1.76715e-06
1.94366e-15
2.15984e-06
8.06595e-15
2.55254e-06
2.94524e-06
-9.02995e-15
-1.1645e-16
9.81747e-07
1.86353e-16
1.37445e-06
-1.5624e-15
1.76715e-06
-4.21261e-15
2.15984e-06
-7.49844e-15
2.55254e-06
2.94524e-06
7.72047e-16
8.6976e-17
9.81747e-07
-1.01859e-16
1.37445e-06
2.69314e-15
1.76715e-06
7.4429e-15
2.15984e-06
3.25987e-15
2.55254e-06
2.94524e-06
-2.79794e-15
-4.83746e-17
9.81747e-07
3.95013e-17
1.37445e-06
1.94308e-16
1.76715e-06
-1.80616e-15
2.15984e-06
-4.20855e-15
2.55254e-06
2.94524e-06
5.01333e-15
-1.80104e-16
9.81747e-07
4.33327e-18
1.37445e-06
-1.84782e-15
1.76715e-06
-3.88611e-15
2.15984e-06
3.15709e-15
2.55254e-06
2.94524e-06
4.98148e-16
2.53979e-16
9.81747e-07
2.55462e-16
1.37445e-06
2.06601e-15
1.76715e-06
4.5041e-15
2.15984e-06
-2.30984e-15
2.55254e-06
2.94524e-06
5.4103e-16
2.16688e-17
9.81747e-07
-3.2168e-16
1.37445e-06
-1.1489e-15
1.76715e-06
-5.28564e-15
2.15984e-06
-3.76591e-16
2.55254e-06
2.94524e-06
-5.63987e-15
-1.43404e-16
9.81747e-07
1.66385e-16
1.37445e-06
4.19112e-15
1.76715e-06
6.34937e-15
2.15984e-06
-8.05771e-16
2.55254e-06
2.94524e-06
8.39268e-16
-6.88002e-17
9.81747e-07
-9.20833e-17
1.37445e-06
-2.76946e-15
1.76715e-06
-3.68807e-16
2.15984e-06
-1.45083e-15
2.55254e-06
2.94524e-06
-1.76632e-16
1.66312e-16
9.81747e-07
-8.8694e-17
1.37445e-06
5.69613e-16
1.76715e-06
-2.10359e-15
2.15984e-06
9.65995e-15
2.55254e-06
2.94524e-06
5.29022e-15
-1.77788e-16
9.81747e-07
-2.05198e-17
1.37445e-06
-3.45523e-16
1.76715e-06
-4.1727e-15
2.15984e-06
-2.62228e-15
2.55254e-06
2.94524e-06
5.36958e-15
1.77813e-16
9.81747e-07
2.05177e-17
1.37445e-06
3.45473e-16
1.76715e-06
4.17272e-15
2.15984e-06
2.62234e-15
2.55254e-06
2.94524e-06
-5.36935e-15
-1.66335e-16
9.81747e-07
8.87216e-17
1.37445e-06
-5.69702e-16
1.76715e-06
2.10362e-15
2.15984e-06
-9.65997e-15
2.55254e-06
2.94524e-06
-5.29025e-15
6.88142e-17
9.81747e-07
9.2086e-17
1.37445e-06
2.76931e-15
1.76715e-06
3.68845e-16
2.15984e-06
1.45083e-15
2.55254e-06
2.94524e-06
1.76656e-16
1.43392e-16
9.81747e-07
-1.6642e-16
1.37445e-06
-4.19119e-15
1.76715e-06
-6.34938e-15
2.15984e-06
8.05782e-16
2.55254e-06
2.94524e-06
-8.39004e-16
-2.16491e-17
9.81747e-07
3.21697e-16
1.37445e-06
1.14888e-15
1.76715e-06
5.28554e-15
2.15984e-06
3.76811e-16
2.55254e-06
2.94524e-06
5.64004e-15
-2.53962e-16
9.81747e-07
-2.55402e-16
1.37445e-06
-2.06598e-15
1.76715e-06
-4.50409e-15
2.15984e-06
2.30993e-15
2.55254e-06
2.94524e-06
-5.40806e-16
1.80106e-16
9.81747e-07
-4.31015e-18
1.37445e-06
1.84775e-15
1.76715e-06
3.88616e-15
2.15984e-06
-3.15697e-15
2.55254e-06
2.94524e-06
-4.98119e-16
4.83726e-17
9.81747e-07
-3.95291e-17
1.37445e-06
-1.94396e-16
1.76715e-06
1.80617e-15
2.15984e-06
4.20864e-15
2.55254e-06
2.94524e-06
-5.01341e-15
-8.69687e-17
9.81747e-07
1.01951e-16
1.37445e-06
-2.6932e-15
1.76715e-06
-7.44276e-15
2.15984e-06
-3.2598e-15
2.55254e-06
2.94524e-06
2.79802e-15
1.16467e-16
9.81747e-07
-1.86376e-16
1.37445e-06
1.56239e-15
1.76715e-06
4.21258e-15
2.15984e-06
7.49835e-15
2.55254e-06
2.94524e-06
-7.72419e-16
-1.82374e-18
9.81747e-07
3.88814e-16
1.37445e-06
2.60411e-15
1.76715e-06
-1.94355e-15
2.15984e-06
-8.06625e-15
2.55254e-06
2.94524e-06
9.02991e-15
-1.36949e-16
-2.42112e-16
-3.77011e-16
1.33925e-15
3.68165e-15
-5.95127e-15
-1.13358e-14
4.53785e-06
-4.81129e-16
5.23599e-06
-5.35718e-15
5.93412e-06
-1.13041e-14
6.63225e-06
4.86904e-15
7.33038e-06
-1.10943e-15
8.02851e-06
-8.158e-15
8.72664e-06
1.30444e-14
9.42478e-06
5.95092e-15
1.01229e-05
-1.99659e-15
1.0821e-05
2.43867e-14
1.15192e-05
1.61909e-14
1.22173e-05
-3.27864e-14
1.29154e-05
-3.05051e-15
1.36136e-05
-1.44404e-14
1.43117e-05
-2.69019e-14
1.50098e-05
7.73999e-15
1.5708e-05
-4.43772e-15
1.64061e-05
-1.80005e-14
1.71042e-05
2.182e-14
1.78024e-05
8.21462e-15
1.85005e-05
-6.08376e-15
1.91986e-05
3.89163e-14
1.98967e-05
2.05949e-05
9.39893e-15
4.53785e-06
5.20167e-16
5.23599e-06
7.52857e-15
5.93412e-06
-4.41173e-15
6.63225e-06
3.78271e-15
7.33038e-06
1.33847e-14
8.02851e-06
-2.10998e-15
8.72664e-06
8.52941e-15
9.42478e-06
-1.00272e-14
1.01229e-05
1.86568e-15
1.0821e-05
-2.02024e-14
1.15192e-05
-7.01154e-15
1.22173e-05
7.51204e-15
1.29154e-05
2.36083e-14
1.36136e-05
-2.04167e-15
1.43117e-05
1.48322e-14
1.50098e-05
-1.38779e-14
1.5708e-05
2.39062e-15
1.64061e-05
2.04106e-14
1.71042e-05
-7.01919e-15
1.78024e-05
1.20658e-14
1.85005e-05
-2.59421e-14
1.91986e-05
1.84789e-15
1.98967e-05
2.05949e-05
-8.67584e-15
4.53785e-06
1.22923e-14
5.23599e-06
1.88295e-15
5.93412e-06
8.90277e-15
6.63225e-06
-5.10983e-15
7.33038e-06
-2.19913e-14
8.02851e-06
1.22647e-14
8.72664e-06
-5.37424e-15
9.42478e-06
4.45773e-15
1.01229e-05
-1.43055e-14
1.0821e-05
-7.32589e-15
1.15192e-05
7.04089e-15
1.22173e-05
2.39943e-14
1.29154e-05
-7.55457e-15
1.36136e-05
9.80078e-15
1.43117e-05
-1.62377e-14
1.50098e-05
4.02969e-14
1.5708e-05
1.44445e-14
1.64061e-05
-1.37061e-14
1.71042e-05
-7.90027e-15
1.78024e-05
-3.92516e-14
1.85005e-05
4.27568e-14
1.91986e-05
-8.85467e-15
1.98967e-05
2.05949e-05
5.98589e-15
4.53785e-06
2.18766e-16
5.23599e-06
-6.43553e-15
5.93412e-06
6.06429e-15
6.63225e-06
-2.09364e-15
7.33038e-06
1.61763e-14
8.02851e-06
-1.88313e-14
8.72664e-06
-2.3503e-15
9.42478e-06
9.17328e-15
1.01229e-05
-4.71001e-15
1.0821e-05
2.16283e-14
1.15192e-05
-2.96445e-14
1.22173e-05
-9.29013e-15
1.29154e-05
-1.89048e-14
1.36136e-05
4.4672e-15
1.43117e-05
3.01584e-14
1.50098e-05
-2.62146e-14
1.5708e-05
4.34256e-16
1.64061e-05
-2.11679e-14
1.71042e-05
1.87101e-14
1.78024e-05
-3.91872e-15
1.85005e-05
-2.91545e-14
1.91986e-05
1.52321e-14
1.98967e-05
2.05949e-05
6.71519e-15
4.53785e-06
-7.30655e-15
5.23599e-06
1.1101e-14
5.93412e-06
-4.24059e-15
6.63225e-06
1.51025e-14
7.33038e-06
-5.2091e-15
8.02851e-06
1.70128e-14
8.72664e-06
-3.94229e-15
9.42478e-06
-2.93472e-16
1.01229e-05
6.61173e-15
1.0821e-05
1.3705e-14
1.15192e-05
1.01841e-14
1.22173e-05
1.82172e-14
1.29154e-05
1.43691e-14
1.36136e-05
2.33416e-14
1.43117e-05
-2.53424e-14
1.50098e-05
2.90721e-14
1.5708e-05
-7.82968e-15
1.64061e-05
3.54164e-14
1.71042e-05
-4.51195e-15
1.78024e-05
4.23712e-14
1.85005e-05
-5.84702e-16
1.91986e-05
-8.73418e-15
1.98967e-05
2.05949e-05
-4.6308e-15
4.53785e-06
5.79766e-15
5.23599e-06
-1.61503e-14
5.93412e-06
-5.97462e-15
6.63225e-06
-8.55495e-15
7.33038e-06
4.2237e-15
8.02851e-06
-8.18801e-15
8.72664e-06
6.99894e-15
9.42478e-06
-2.4229e-14
1.01229e-05
-7.7691e-15
1.0821e-05
-2.27656e-14
1.15192e-05
8.34916e-15
1.22173e-05
-7.40269e-15
1.29154e-05
2.82657e-14
1.36136e-05
-4.57085e-14
1.43117e-05
-8.22365e-15
1.50098e-05
-2.82258e-14
1.5708e-05
-2.34033e-15
1.64061e-05
-6.94803e-15
1.71042e-05
2.21514e-14
1.78024e-05
-3.41061e-14
1.85005e-05
-3.73927e-15
1.91986e-05
-3.23471e-14
1.98967e-05
2.05949e-05
-8.92517e-15
4.53785e-06
-2.28897e-15
5.23599e-06
-2.22393e-15
5.93412e-06
6.61639e-15
6.63225e-06
-3.38826e-15
7.33038e-06
-3.90652e-15
8.02851e-06
-6.41894e-15
8.72664e-06
-7.15861e-15
9.42478e-06
6.81051e-15
1.01229e-05
6.98263e-15
1.0821e-05
-9.06435e-15
1.15192e-05
6.75915e-15
1.22173e-05
-2.88896e-14
1.29154e-05
-1.2234e-14
1.36136e-05
4.806e-15
1.43117e-05
2.50243e-14
1.50098e-05
3.86341e-15
1.5708e-05
3.60918e-15
1.64061e-05
-2.04852e-14
1.71042e-05
-2.17608e-14
1.78024e-05
3.46658e-15
1.85005e-05
2.90458e-14
1.91986e-05
-1.66379e-15
1.98967e-05
2.05949e-05
6.21565e-15
4.53785e-06
-3.87945e-15
5.23599e-06
1.54225e-14
5.93412e-06
-7.06452e-15
6.63225e-06
-2.21049e-15
7.33038e-06
1.4301e-15
8.02851e-06
-5.49383e-15
8.72664e-06
1.32255e-14
9.42478e-06
6.04581e-15
1.01229e-05
-1.74496e-14
1.0821e-05
2.08898e-14
1.15192e-05
-2.14458e-14
1.22173e-05
1.91341e-14
1.29154e-05
-7.31567e-15
1.36136e-05
3.84849e-14
1.43117e-05
-1.29207e-14
1.50098e-05
-1.88437e-15
1.5708e-05
5.7204e-15
1.64061e-05
-7.58877e-15
1.71042e-05
2.76588e-14
1.78024e-05
1.40982e-14
1.85005e-05
-5.31416e-14
1.91986e-05
3.90835e-14
1.98967e-05
2.05949e-05
-1.49854e-15
4.53785e-06
1.08969e-14
5.23599e-06
-6.5994e-15
5.93412e-06
7.26571e-15
6.63225e-06
6.17477e-15
7.33038e-06
2.48956e-15
8.02851e-06
-9.64653e-16
8.72664e-06
-4.36524e-15
9.42478e-06
-8.9005e-15
1.01229e-05
1.38634e-14
1.0821e-05
1.0692e-14
1.15192e-05
6.25049e-15
1.22173e-05
-1.25584e-16
1.29154e-05
-3.43865e-15
1.36136e-05
-1.10421e-14
1.43117e-05
-1.77629e-14
1.50098e-05
1.76801e-14
1.5708e-05
9.95825e-15
1.64061e-05
3.32956e-15
1.71042e-05
-3.29685e-14
1.78024e-05
-1.04248e-14
1.85005e-05
3.00683e-14
1.91986e-05
-5.99954e-14
1.98967e-05
2.05949e-05
5.17021e-15
4.53785e-06
-7.45539e-15
5.23599e-06
-7.56704e-16
5.93412e-06
6.83936e-15
6.63225e-06
-9.97411e-15
7.33038e-06
-1.66413e-15
8.02851e-06
9.21873e-15
8.72664e-06
-1.34607e-14
9.42478e-06
2.32217e-14
1.01229e-05
1.04742e-14
1.0821e-05
-1.72718e-14
1.15192e-05
-3.02681e-15
1.22173e-05
1.1398e-14
1.29154e-05
-1.98154e-14
1.36136e-05
-4.67808e-15
1.43117e-05
5.03069e-14
1.50098e-05
-2.40477e-14
1.5708e-05
-6.65651e-15
1.64061e-05
1.42627e-14
1.71042e-05
1.64997e-15
1.78024e-05
-6.80809e-15
1.85005e-05
1.44444e-14
1.91986e-05
5.07598e-14
1.98967e-05
2.05949e-05
-6.19713e-15
4.53785e-06
2.86632e-17
5.23599e-06
1.15121e-14
5.93412e-06
-2.06267e-14
6.63225e-06
5.36642e-15
7.33038e-06
1.22196e-15
8.02851e-06
-4.80153e-17
8.72664e-06
1.23944e-14
9.42478e-06
-1.32266e-14
1.01229e-05
-1.88941e-14
1.0821e-05
-4.96353e-15
1.15192e-05
-7.15378e-15
1.22173e-05
-1.48878e-14
1.29154e-05
3.53398e-14
1.36136e-05
6.85009e-20
1.43117e-05
-4.31389e-14
1.50098e-05
1.35648e-14
1.5708e-05
-2.82567e-14
1.64061e-05
2.45736e-15
1.71042e-05
-1.02411e-14
1.78024e-05
2.38062e-14
1.85005e-05
1.38757e-14
1.91986e-05
-4.55613e-14
1.98967e-05
2.05949e-05
-1.90654e-15
4.53785e-06
1.1309e-15
5.23599e-06
-2.1662e-14
5.93412e-06
9.62406e-15
6.63225e-06
1.51365e-14
7.33038e-06
-1.40654e-14
8.02851e-06
8.09182e-15
8.72664e-06
-2.69594e-14
9.42478e-06
-1.96542e-15
1.01229e-05
2.97171e-14
1.0821e-05
-1.17459e-14
1.15192e-05
1.98664e-14
1.22173e-05
-2.74456e-14
1.29154e-05
-2.06153e-14
1.36136e-05
1.60409e-14
1.43117e-05
-4.6152e-15
1.50098e-05
4.69128e-15
1.5708e-05
4.79683e-14
1.64061e-05
-1.37374e-14
1.71042e-05
3.23673e-14
1.78024e-05
-3.51859e-14
1.85005e-05
-2.4907e-14
1.91986e-05
7.19182e-14
1.98967e-05
2.05949e-05
1.90677e-15
4.53785e-06
-1.13068e-15
5.23599e-06
2.16621e-14
5.93412e-06
-9.62388e-15
6.63225e-06
-1.5137e-14
7.33038e-06
1.4065e-14
8.02851e-06
-8.09311e-15
8.72664e-06
2.69602e-14
9.42478e-06
1.96557e-15
1.01229e-05
-2.97178e-14
1.0821e-05
1.17452e-14
1.15192e-05
-1.98673e-14
1.22173e-05
2.74444e-14
1.29154e-05
2.06161e-14
1.36136e-05
-1.60414e-14
1.43117e-05
4.61308e-15
1.50098e-05
-4.69241e-15
1.5708e-05
-4.79672e-14
1.64061e-05
1.3741e-14
1.71042e-05
-3.23725e-14
1.78024e-05
3.51834e-14
1.85005e-05
2.49036e-14
1.91986e-05
-7.19164e-14
1.98967e-05
2.05949e-05
6.19726e-15
4.53785e-06
-2.86996e-17
5.23599e-06
-1.15116e-14
5.93412e-06
2.06261e-14
6.63225e-06
-5.36731e-15
7.33038e-06
-1.22126e-15
8.02851e-06
4.69811e-17
8.72664e-06
-1.23932e-14
9.42478e-06
1.32255e-14
1.01229e-05
1.88931e-14
1.0821e-05
4.96629e-15
1.15192e-05
7.15334e-15
1.22173e-05
1.48868e-14
1.29154e-05
-3.53397e-14
1.36136e-05
2.31779e-18
1.43117e-05
4.31382e-14
1.50098e-05
-1.35628e-14
1.5708e-05
2.82585e-14
1.64061e-05
-2.45472e-15
1.71042e-05
1.02402e-14
1.78024e-05
-2.38036e-14
1.85005e-05
-1.38755e-14
1.91986e-05
4.55637e-14
1.98967e-05
2.05949e-05
-5.17011e-15
4.53785e-06
7.45546e-15
5.23599e-06
7.5667e-16
5.93412e-06
-6.83968e-15
6.63225e-06
9.97394e-15
7.33038e-06
1.66415e-15
8.02851e-06
-9.2191e-15
8.72664e-06
1.34599e-14
9.42478e-06
-2.32217e-14
1.01229e-05
-1.04734e-14
1.0821e-05
1.72731e-14
1.15192e-05
3.02668e-15
1.22173e-05
-1.13975e-14
1.29154e-05
1.98161e-14
1.36136e-05
4.67999e-15
1.43117e-05
-5.03056e-14
1.50098e-05
2.40449e-14
1.5708e-05