/*--------------------------------*- C++ -*----------------------------------*\
  =========                 |
  \\      /  F ield         | OpenFOAM: The Open Source CFD Toolbox
   \\    /   O peration     | Website:  https://openfoam.org
    \\  /    A nd           | Version:  11
     \\/     M anipulation  |
\*---------------------------------------------------------------------------*/
FoamFile
{
    format      ascii;
    class       volScalarField;
    location    "0.94";
    object      nut;
}
// * * * * * * * * * * * * * * * * * * * * * * * * * * * * * * * * * * * * * //

dimensions      [0 2 -1 0 0 0 0];

internalField   nonuniform List<scalar> 
2880
(
1.30874e-06
1.19292e-05
4.78588e-05
0.000108363
0.000175685
4.94503e-05
3.68279e-05
7.03161e-05
0.00015377
0.000272016
0.000385446
0.000408852
5.24841e-05
0.000157141
0.000286159
0.000450261
0.000617752
0.000746744
5.84779e-05
0.000241949
0.000412454
0.000615014
0.000824438
0.00100501
6.30333e-05
0.000319522
0.000527811
0.000763112
0.000993304
0.00119657
6.65725e-05
0.000386777
0.000630903
0.000892592
0.00112909
0.00133898
6.9334e-05
0.00044257
0.000720669
0.00100207
0.00123882
0.00144678
7.14665e-05
0.000487112
0.000796608
0.00109261
0.00132758
0.00152975
7.30658e-05
0.000520806
0.000858813
0.00116571
0.00139927
0.00159409
7.41932e-05
0.000544287
0.00090744
0.00122274
0.00145687
0.00164493
7.48851e-05
0.000558041
0.000942761
0.00126488
0.00150232
0.0016862
7.51662e-05
0.000562128
0.000965066
0.00129302
0.00153786
0.00171728
7.51395e-05
0.000555971
0.000974339
0.00130909
0.0015607
0.00174018
7.48478e-05
0.000539715
0.000970369
0.00131214
0.00157124
0.0017549
7.42423e-05
0.000515231
0.000953463
0.00130197
0.00156831
0.00176039
7.32621e-05
0.00048406
0.000923521
0.00127731
0.00155091
0.00175388
7.18339e-05
0.000447177
0.000880281
0.00123551
0.00151583
0.00173227
6.98653e-05
0.000405875
0.000823326
0.00117329
0.00145811
0.00168816
6.72331e-05
0.00036123
0.000751057
0.00108587
0.00137173
0.0016114
6.37652e-05
0.000312207
0.000659617
0.000966737
0.00124682
0.0014862
5.9226e-05
0.000256683
0.000542715
0.000807705
0.00106927
0.00128483
5.3279e-05
0.000188257
0.000391781
0.00059935
0.000820764
0.00096607
3.88303e-05
9.72958e-05
0.000206198
0.000338961
0.000497026
0.000509817
1.28842e-06
8.56699e-06
3.31073e-05
8.17854e-05
0.000177128
5.64458e-05
0.000944794
0.00138372
0.0014948
0.0017038
0.00205837
0.00252208
0.00300523
0.00345172
0.0038054
0.00407925
0.00428572
0.0044227
0.00447922
0.0044463
0.00432956
0.00415486
0.0039613
0.0037849
0.00364549
0.00354565
0.00347802
0.00343309
0.00340335
0.00338354
0.00118255
0.00150068
0.00158497
0.00177919
0.0021265
0.00258342
0.00305953
0.0034965
0.0038369
0.00410196
0.00430143
0.00443115
0.00447892
0.0044364
0.00430949
0.00412596
0.00392736
0.00375082
0.00361527
0.00352131
0.00346001
0.00342102
0.00339644
0.00338092
0.00135046
0.00161072
0.0016883
0.0018679
0.00220024
0.00264711
0.00311543
0.00354391
0.00387172
0.0041241
0.00431583
0.00443894
0.00448099
0.00443183
0.00429753
0.00410715
0.00390415
0.00372683
0.00359355
0.00350356
0.00344673
0.00341207
0.00339134
0.00337909
0.00146645
0.00170105
0.00178311
0.00195326
0.0022735
0.00271031
0.00317158
0.00359375
0.00391172
0.00415401
0.00433431
0.00444963
0.00448638
0.00443355
0.00429473
0.00409942
0.00389237
0.00371319
0.00358026
0.00349211
0.0034378
0.00340585
0.00338778
0.00337786
0.00155444
0.00177342
0.00186308
0.00202816
0.00234179
0.00276982
0.00322274
0.00363498
0.00394314
0.00417995
0.0043567
0.00446851
0.00450133
0.00444351
0.00430144
0.00410291
0.00389247
0.0037102
0.00357553
0.00348697
0.00343322
0.00340199
0.0033855
0.0033771
0.00162584
0.00182806
0.00192701
0.0020928
0.00240181
0.00281842
0.00326003
0.00366098
0.00396236
0.0041956
0.00437051
0.00448188
0.00451594
0.00446076
0.00431963
0.00411947
0.00390509
0.00371811
0.0035793
0.00348796
0.0034321
0.00340082
0.00338468
0.00337682
0.00168551
0.00186775
0.00197698
0.00214739
0.00244741
0.0028512
0.00328358
0.00367586
0.00397407
0.00420591
0.00438067
0.0044936
0.0045314
0.00448163
0.00434544
0.00414727
0.00393053
0.00373796
0.00359273
0.00349597
0.0034362
0.00340256
0.00338524
0.00337689
0.00173521
0.00189773
0.002017
0.00218596
0.00247657
0.00287036
0.00329639
0.00368321
0.00398068
0.00421335
0.00439009
0.00450672
0.0045506
0.00450893
0.00438075
0.00418713
0.00396914
0.00377013
0.00361625
0.00351143
0.00344608
0.0034076
0.00338739
0.00337739
0.00177611
0.00192009
0.0020451
0.00221168
0.00249346
0.00287776
0.00329833
0.00368235
0.00398152
0.0042173
0.00439812
0.00452049
0.00457264
0.00454167
0.00442453
0.00423841
0.00402095
0.00381539
0.00365105
0.00353556
0.00346156
0.00341658
0.00339145
0.00337848
0.00181028
0.00193646
0.00206403
0.00222627
0.00249813
0.00287276
0.00328862
0.00367259
0.00397591
0.00421707
0.00440405
0.00453415
0.00459659
0.00457868
0.00447551
0.00430008
0.00408568
0.00387432
0.00369823
0.00356948
0.00348376
0.00343014
0.00339807
0.00338039
0.00183838
0.00194811
0.00207474
0.00223049
0.00249092
0.00285518
0.00326668
0.00365321
0.00396306
0.00421185
0.00440711
0.00454684
0.00462143
0.00461866
0.00453212
0.00437069
0.00416255
0.00394722
0.00375903
0.00361488
0.00351446
0.00344876
0.00340781
0.00338341
0.00186155
0.00195638
0.00207766
0.00222497
0.00247236
0.00282516
0.00323214
0.00362341
0.00394202
0.00420068
0.00440629
0.00455753
0.00464597
0.00466012
0.00459251
0.00444824
0.00425004
0.00403366
0.00383424
0.00367327
0.00355533
0.00347429
0.00342128
0.00338789
0.00188039
0.00196315
0.00207173
0.00221032
0.00244322
0.00278308
0.00318483
0.0035823
0.00391168
0.00418238
0.00440042
0.004565
0.00466885
0.0047014
0.00465457
0.0045303
0.00434589
0.00413232
0.00392394
0.0037459
0.00360805
0.00350828
0.00343969
0.00339426
0.00189484
0.00196845
0.00205971
0.00218813
0.00240475
0.00272976
0.00312484
0.00352884
0.00387075
0.00415559
0.0043881
0.00456782
0.00468854
0.0047407
0.00471608
0.00461411
0.00444717
0.00424088
0.00402717
0.00383331
0.00367416
0.00355242
0.00346422
0.00340294
0.0019041
0.00197187
0.00204428
0.00216028
0.00235857
0.00266642
0.00305283
0.00346149
0.00381783
0.00411882
0.00436778
0.00456439
0.00470337
0.00477618
0.00477477
0.0046968
0.00455048
0.00435604
0.00414166
0.00393488
0.00375445
0.00360812
0.00349612
0.00341443
0.00190633
0.00197267
0.00202697
0.00212839
0.00230637
0.00259456
0.0029699
0.00337964
0.00375191
0.00407068
0.00433783
0.00455297
0.00471154
0.00480591
0.00482842
0.00477558
0.00465228
0.00447383
0.0042639
0.00404848
0.0038485
0.00367619
0.00353649
0.00342925
0.00189831
0.00196931
0.00200833
0.00209354
0.0022498
0.00251577
0.00287691
0.00328485
0.00367254
0.0040099
0.00429662
0.00453177
0.00471118
0.00482797
0.00487491
0.00484782
0.00474911
0.00458989
0.00438927
0.00417032
0.0039542
0.00375624
0.00358595
0.00344782
0.00187705
0.00195893
0.00198778
0.0020561
0.00219024
0.00243191
0.00277549
0.00317828
0.00357947
0.00393537
0.00424254
0.00449893
0.00470036
0.0048404
0.00491216
0.00491107
0.00483774
0.00469995
0.0045126
0.00429518
0.00406748
0.00384612
0.00364404
0.00347026
0.00183747
0.00193473
0.00196334
0.00201513
0.00212864
0.00234492
0.00266773
0.00306147
0.00347275
0.00384622
0.00417416
0.00445269
0.00467714
0.0048412
0.00493815
0.00496311
0.00491537
0.00480012
0.00462872
0.00441708
0.00418261
0.00394159
0.00370866
0.00349602
0.00176815
0.00188863
0.00193102
0.00197082
0.00206581
0.00225667
0.00255605
0.00293664
0.00335246
0.00374183
0.00409026
0.00439141
0.00463965
0.00482841
0.00495091
0.00500188
0.00497958
0.00488717
0.00473313
0.00453017
0.00429302
0.00403658
0.00377562
0.0035234
0.00164658
0.00181198
0.00188681
0.00192235
0.00200201
0.00216874
0.00244297
0.00280675
0.00321927
0.00362229
0.00399018
0.00431383
0.00458623
0.00480019
0.00494854
0.00502552
0.00502837
0.00495859
0.00482231
0.00462949
0.00439236
0.00412412
0.00383877
0.00354913
0.00143427
0.00169294
0.00182477
0.00186718
0.00193652
0.00208205
0.00233057
0.00267391
0.00307749
0.00348928
0.00387412
0.00421923
0.00451558
0.0047549
0.00492933
0.00503233
0.0050601
0.0050126
0.00489388
0.00471156
0.00447561
0.00419762
0.00389085
0.00356811
0.00104395
0.00150393
0.00173303
0.00179982
0.00186684
0.00199646
0.00222053
0.00254083
0.00293056
0.00334509
0.00374309
0.00410756
0.0044269
0.0046913
0.0048918
0.00502087
0.00507347
0.00504799
0.00494653
0.00477448
0.00453968
0.00425217
0.00392489
0.00357368
0.000473263
0.00113452
0.00157283
0.00170696
0.00178903
0.00191077
0.0021138
0.00241003
0.00278175
0.0031925
0.00359879
0.00397949
0.00432003
0.00460864
0.00483492
0.00499004
0.00506756
0.00506414
0.00497986
0.00481785
0.00458367
0.00428547
0.00393588
0.00355858
2.14962e-06
6.27134e-06
1.33308e-05
2.18157e-05
3.08855e-05
6.7723e-05
5.11865e-05
6.73169e-05
9.59651e-05
0.000121237
0.00013164
0.000159707
5.86377e-05
0.000107745
0.000164912
0.000208915
0.000217703
0.000230551
6.31245e-05
0.000136039
0.000226325
0.000282682
0.000291351
0.000292139
6.62127e-05
0.000168409
0.000284121
0.000348803
0.000357495
0.000348035
6.85674e-05
0.000203736
0.000340136
0.000409662
0.000418482
0.000400833
7.04859e-05
0.000240557
0.000392854
0.000465559
0.000475106
0.000452578
7.2095e-05
0.000277352
0.000440827
0.0005165
0.000527441
0.000503543
7.34601e-05
0.000312849
0.00048312
0.000561956
0.000576231
0.000553349
7.46205e-05
0.000345132
0.000519176
0.000602188
0.000622313
0.000601965
7.56076e-05
0.000372072
0.000548767
0.000637583
0.000666134
0.00065088
7.64502e-05
0.00039155
0.000571845
0.000668454
0.000707273
0.000701728
7.70554e-05
0.000403255
0.000588415
0.000694374
0.000745412
0.000754333
7.72049e-05
0.000408857
0.000598387
0.000714764
0.000780215
0.000807824
7.70348e-05
0.00040832
0.000600914
0.00072848
0.000810127
0.000859585
7.63595e-05
0.000400994
0.000594625
0.000733686
0.000832199
0.000904773
7.51651e-05
0.000385552
0.00057765
0.000727894
0.000842476
0.000937792
7.33661e-05
0.000361136
0.0005484
0.000706864
0.000835895
0.000952856
7.08359e-05
0.000326054
0.000505753
0.000668869
0.000805167
0.000939965
6.74363e-05
0.000278847
0.000446934
0.000609048
0.000746419
0.000895198
6.30283e-05
0.000219481
0.000369841
0.000522447
0.000647982
0.000796951
5.69779e-05
0.000148082
0.000273275
0.000405237
0.000501498
0.000619987
4.45266e-05
7.03452e-05
0.000157506
0.000257536
0.000319306
0.000322294
1.86452e-06
1.50458e-05
5.21841e-05
0.000101683
0.000156335
4.71186e-05
0.000367581
0.000931906
0.00139776
0.00160073
0.00170674
0.00182425
0.00201091
0.00228351
0.00263409
0.00303461
0.00344358
0.00383643
0.00419553
0.00450684
0.00475823
0.00493931
0.00504197
0.00506102
0.00499432
0.00484257
0.00460865
0.00429807
0.00392208
0.00351649
0.000324456
0.000822239
0.0012521
0.00151211
0.00162848
0.00174232
0.00191194
0.00216247
0.00248994
0.00287454
0.00328027
0.00368043
0.00405467
0.00438658
0.00466206
0.00486892
0.00499719
0.00503957
0.00499155
0.00485105
0.00461781
0.00429356
0.00388581
0.00344366
0.000296504
0.000752816
0.00111696
0.00142346
0.00155347
0.00166592
0.00181984
0.00204673
0.0023504
0.00271492
0.00311175
0.003514
0.00389938
0.00424929
0.00454761
0.00478018
0.004935
0.00500242
0.00497529
0.0048484
0.00461769
0.00427973
0.0038347
0.00334067
0.000287612
0.000708328
0.00102291
0.00133329
0.00148102
0.00159487
0.00173543
0.00193893
0.0022163
0.00255781
0.00294073
0.00333981
0.00373196
0.00409697
0.00441685
0.00467554
0.00485891
0.00495491
0.00495345
0.00484578
0.00462313
0.00427493
0.00378877
0.00321748
0.000296574
0.000671886
0.000944352
0.00125757
0.0014175
0.00152972
0.00165863
0.00183993
0.00208993
0.00240553
0.00276984
0.00316047
0.00355478
0.00393169
0.00427193
0.00455791
0.00477378
0.00490547
0.00494041
0.0048665
0.00467031
0.00433395
0.00382995
0.00315389
0.000323433
0.000642479
0.000885062
0.00117734
0.00136099
0.00147032
0.00158891
0.00174975
0.00197245
0.00225996
0.00260144
0.00297838
0.00336981
0.00375491
0.00411401
0.00442894
0.00468336
0.00486299
0.00495538
0.0049496
0.00483756
0.00462535
0.00436974
0.00419968
0.000365712
0.000622861
0.000845362
0.00110096
0.00130058
0.00141369
0.00152496
0.00166779
0.00186424
0.00212244
0.00243747
0.00279556
0.00317857
0.00356716
0.00394247
0.00428719
0.00458641
0.00482846
0.00500534
0.00511294
0.00515217
0.00513426
0.00509021
0.00506415
0.000411246
0.000612818
0.000814011
0.00103289
0.00124349
0.00135946
0.00146564
0.00159313
0.00176516
0.00199379
0.00227957
0.00261387
0.00298244
0.00336861
0.00375564
0.00412835
0.00447434
0.00478479
0.00505433
0.00527989
0.00545938
0.00559208
0.00568144
0.00573351
0.000461598
0.00061264
0.000789364
0.000972739
0.00119268
0.00130815
0.00141009
0.00152481
0.00167467
0.0018744
0.00212911
0.00243527
0.00278322
0.00316007
0.00355237
0.00394807
0.0043376
0.00471373
0.00506984
0.0053974
0.00568436
0.00591712
0.00607793
0.0061797
0.00051961
0.000622969
0.000770833
0.000923386
0.00114083
0.00126205
0.00135803
0.00146189
0.0015921
0.00176439
0.00198727
0.00226188
0.00258335
0.00294331
0.00333251
0.0037427
0.00416722
0.00459933
0.00502899
0.0054398
0.00580956
0.00610728
0.0063238
0.00645285
0.000581331
0.000650127
0.000759864
0.000888083
0.00108606
0.00121444
0.00130837
0.00140338
0.00151668
0.00166366
0.00185512
0.00209595
0.00238587
0.00272128
0.00309753
0.00351065
0.00395697
0.00443019
0.00491675
0.00539321
0.00582616
0.00617699
0.0064368
0.00658755
0.00065124
0.000681286
0.000758284
0.000867931
0.00103916
0.00116685
0.00126007
0.00134826
0.00144747
0.00157187
0.0017334
0.00193968
0.00219429
0.00249808
0.00285101
0.00325349
0.00370527
0.00420134
0.00472628
0.00525163
0.00573096
0.00613119
0.00642578
0.00659845
0.00072536
0.00072489
0.000767293
0.000862031
0.00100305
0.00112285
0.0012138
0.0012962
0.00138363
0.00148846
0.00162251
0.00179496
0.00201221
0.00227872
0.00259857
0.00297634
0.00341565
0.00391425
0.00445732
0.00501415
0.00552928
0.00597061
0.00629877
0.00649079
0.000802659
0.000792839
0.000794993
0.000867888
0.000982242
0.0010864
0.00117123
0.00124748
0.00132463
0.00141284
0.00152249
0.0016632
0.00184293
0.00206863
0.00234747
0.00268758
0.00309658
0.00357646
0.00411593
0.00468549
0.00522623
0.00569968
0.00606003
0.00627056
0.000880099
0.000871947
0.000850434
0.000886223
0.000971222
0.00105735
0.0011337
0.00120271
0.00127046
0.00134438
0.00143299
0.00154512
0.00168907
0.001873
0.00210581
0.00239806
0.00276084
0.00320121
0.00371404
0.00427494
0.00482926
0.00532368
0.00571436
0.00594273
0.000952107
0.000956435
0.000926574
0.000928015
0.000974621
0.00104065
0.00110417
0.00116374
0.00122183
0.00128303
0.00135362
0.00144087
0.00155235
0.00169612
0.00188148
0.00211982
0.00242441
0.00280693
0.00326989
0.00379749
0.00434946
0.00484985
0.00526593
0.0055128
0.00101315
0.00103688
0.00101329
0.000995952
0.0010084
0.00104453
0.00108855
0.00113451
0.00118109
0.00122985
0.00128457
0.00135044
0.00143357
0.00154094
0.00168095
0.00186431
0.00210449
0.00241598
0.00280862
0.00327811
0.00379761
0.0042976
0.00472658
0.00499649
0.00105721
0.00110222
0.00109573
0.00107605
0.00106521
0.00107283
0.00109313
0.0011208
0.0011526
0.00118762
0.0012272
0.00127431
0.00133315
0.00140899
0.00150852
0.00164055
0.00181682
0.00205188
0.00236012
0.00274836
0.0032053
0.00369009
0.00411125
0.0044028
0.00107697
0.00114435
0.00116019
0.00115135
0.00113163
0.00111998
0.00111871
0.00112647
0.00114089
0.00116025
0.00118424
0.00121398
0.00125176
0.00130098
0.00136627
0.00145394
0.00157282
0.0017349
0.00195481
0.00224612
0.00261345
0.00303493
0.00344762
0.00374079
0.00107024
0.00115885
0.00119792
0.00120516
0.00118986
0.00117167
0.00115708
0.00114862
0.00114643
0.00114974
0.00115795
0.00117118
0.00119032
0.00121718
0.00125446
0.00130612
0.00137783
0.00147779
0.00161733
0.00181034
0.00206934
0.00239562
0.00275947
0.00305202
0.00102807
0.00114517
0.00120316
0.00122738
0.00122586
0.00121193
0.00119446
0.00117758
0.00116361
0.00115348
0.00114747
0.00114572
0.00114855
0.00115675
0.00117164
0.00119533
0.00123096
0.00128321
0.00135901
0.00146806
0.00162158
0.00183464
0.0021034
0.00237587
0.000942631
0.00110447
0.00117707
0.00121504
0.00123153
0.00122976
0.00121802
0.00120136
0.00118299
0.00116501
0.00114877
0.0011351
0.00112456
0.00111765
0.00111501
0.00111762
0.00112698
0.00114538
0.00117625
0.00122475
0.00129757
0.00140363
0.00155791
0.00176781
0.000809765
0.00104152
0.00112899
0.00117834
0.00120824
0.00122205
0.00122103
0.00121097
0.0011953
0.00117633
0.00115594
0.00113554
0.00111613
0.00109842
0.001083
0.00107043
0.00106141
0.00105695
0.00105849
0.00106823
0.00108919
0.00112529
0.00117876
0.00129436
0.000653958
0.00097874
0.00107831
0.00113301
0.00116982
0.00119215
0.00120576
0.00120556
0.00119683
0.00118227
0.00116369
0.00114277
0.00112065
0.0010982
0.0010761
0.00105489
0.00103502
0.00101698
0.00100128
0.000988772
0.000979977
0.00097829
0.000976327
0.00100845
6.54099e-07
2.89041e-06
1.03054e-05
2.61465e-05
5.83832e-05
0.000131601
2.53196e-05
5.12603e-05
9.9141e-05
0.000164029
0.000254979
0.000380648
0.000150591
0.000128073
0.000217837
0.000325218
0.000453425
0.000605
0.000169302
0.000199827
0.000325616
0.000464064
0.000613902
0.000776695
0.000184052
0.00025971
0.000416007
0.000575337
0.000735529
0.000898396
0.000194363
0.000305545
0.000488663
0.000661029
0.000823652
0.000978608
4.70907e-05
0.000336077
0.000544884
0.000724564
0.000884797
0.00102768
4.75342e-05
0.000357675
0.000586683
0.00076911
0.000923767
0.00105356
4.79588e-05
0.000372996
0.000615831
0.000797447
0.000943416
0.00105898
4.83401e-05
0.000382943
0.000633958
0.000811896
0.00094699
0.00104772
4.86019e-05
0.000387905
0.000642561
0.000814568
0.00093729
0.00102262
4.87145e-05
0.000388175
0.000642783
0.000807198
0.000916585
0.00098603
4.8651e-05
0.000383944
0.000635549
0.000791241
0.000886771
0.000939918
4.84091e-05
0.000375139
0.000621589
0.000767904
0.00084949
0.000885968
4.80501e-05
0.000361576
0.000601461
0.000738133
0.000806097
0.000825644
4.76089e-05
0.000344291
0.000575504
0.000702578
0.000757812
0.000760272
4.72273e-05
0.000325464
0.000543614
0.000661441
0.000705587
0.000691219
0.000199581
0.000310328
0.000504938
0.000614275
0.000649962
0.000619793
0.000196158
0.000291447
0.000457694
0.000559525
0.000590658
0.000547129
0.000189117
0.000259595
0.00039888
0.000493813
0.00052551
0.000473321
0.000177448
0.000211874
0.000324807
0.000411919
0.000448539
0.000397311
0.000161529
0.000146238
0.000229609
0.000305141
0.000349287
0.000316205
2.83118e-05
6.28411e-05
0.000111482
0.000164648
0.000210314
0.00021895
8.13922e-07
3.30558e-06
1.00217e-05
2.40511e-05
4.43016e-05
8.14987e-05
0.000690838
0.000961933
0.00105197
0.00110305
0.0011404
0.00116776
0.00118202
0.00119286
0.00119225
0.00118529
0.00117319
0.00115702
0.00113845
0.00111819
0.00109699
0.00107552
0.00105417
0.00103321
0.00101275
0.000993246
0.000973965
0.000957782
0.000938393
0.000928952
0.000793492
0.000996557
0.00107296
0.00111499
0.00114571
0.00116924
0.00118631
0.00119478
0.00120123
0.00120024
0.00119531
0.00118785
0.00117867
0.00116663
0.00115318
0.00114053
0.00112898
0.00111856
0.00110923
0.0011012
0.00109384
0.00108846
0.00108248
0.00108118
0.000910742
0.00107153
0.00114219
0.00117695
0.00120024
0.00121788
0.00123106
0.00124022
0.0012447
0.00124878
0.00125012
0.00125116
0.00125286
0.00125741
0.00126254
0.00126669
0.00127251
0.00128161
0.00129541
0.00131294
0.00133498
0.0013615
0.00139053
0.00142093
0.00101335
0.00115127
0.00122659
0.00127089
0.00129961
0.00131661
0.00132566
0.00133066
0.00133412
0.0013387
0.0013428
0.00135044
0.00136073
0.00137387
0.00139439
0.001422
0.00145532
0.00149216
0.00153231
0.00157478
0.00161823
0.00166104
0.0017002
0.00172942
0.00108805
0.00121191
0.0012947
0.00135464
0.00139825
0.00142834
0.00144783
0.00145992
0.00146728
0.0014719
0.00147627
0.00148315
0.00149392
0.00150947
0.00153024
0.0015574
0.00159027
0.00162785
0.00166935
0.00171317
0.00175733
0.00179969
0.00183589
0.00186059
0.0011353
0.00125033
0.00133693
0.00140591
0.00146119
0.0015042
0.00153721
0.00156169
0.00157984
0.00159439
0.001608
0.00162291
0.00164059
0.00166181
0.00168676
0.00171477
0.00174615
0.00178159
0.00182029
0.00186131
0.00190188
0.00193711
0.00196691
0.00198756
0.00116485
0.00127332
0.00136373
0.0014435
0.00151238
0.00156955
0.00161495
0.00165031
0.00167798
0.00170025
0.00171937
0.00173744
0.00175622
0.00177701
0.00180073
0.00182801
0.00185812
0.00188803
0.00191465
0.00193514
0.00195002
0.00195944
0.00196396
0.00196571
0.00117306
0.00127338
0.00136391
0.00144946
0.00152771
0.00159704
0.00165652
0.00170688
0.00174943
0.00178553
0.00181642
0.00184323
0.00186688
0.00188801
0.00190703
0.00192374
0.0019376
0.00194817
0.00195511
0.00195807
0.001956
0.00194953
0.00194126
0.00193518
0.00116218
0.001253
0.00134091
0.00142855
0.00151215
0.00158903
0.00165786
0.00171866
0.00177206
0.00181872
0.00185919
0.00189385
0.0019229
0.0019465
0.00196523
0.00197828
0.00198501
0.00198477
0.00197703
0.00196186
0.00194037
0.0019152
0.00189217
0.00187736
0.00113483
0.00121514
0.0012989
0.00138646
0.00147246
0.00155314
0.00162686
0.00169329
0.00175291
0.00180532
0.00185103
0.00188976
0.00192119
0.00194618
0.00196486
0.00197699
0.00197994
0.00197327
0.00195536
0.00192835
0.00189434
0.0018548
0.0018141
0.00178388
0.00109348
0.00116267
0.00124178
0.00132825
0.00141479
0.00149671
0.0015717
0.0016396
0.00170091
0.00175471
0.00180044
0.00183769
0.00186539
0.00188341
0.00189295
0.00189406
0.00188466
0.00186698
0.00184515
0.00181841
0.00178731
0.00175743
0.00173191
0.00172299
0.00104031
0.00109801
0.00117242
0.0012573
0.00134293
0.0014242
0.00149673
0.00155972
0.00160776
0.0016482
0.00168109
0.00170888
0.00173404
0.00175682
0.00177362
0.00178347
0.00178707
0.00178358
0.00177072
0.00174941
0.00172051
0.00168535
0.00164301
0.0016084
0.00097713
0.00102285
0.00109244
0.00117511
0.00125768
0.00132855
0.00138588
0.00143815
0.00149275
0.00154307
0.00158665
0.00162223
0.0016491
0.00166546
0.00167108
0.00166782
0.00165568
0.00163499
0.00160699
0.00157231
0.00153102
0.00148646
0.00143265
0.00139281
0.000905314
0.000938242
0.00100242
0.00107852
0.00114697
0.00121499
0.00128998
0.00135599
0.00140402
0.00143778
0.00146156
0.00147401
0.00147895
0.00147659
0.00146706
0.00145054
0.00142744
0.00139832
0.00136367
0.00132498
0.00128315
0.00124314
0.00119477
0.00117872
0.000825931
0.000844942
0.000899962
0.000967127
0.00104349
0.00112601
0.00118768
0.00122953
0.00125992
0.00127685
0.00128496
0.00128513
0.00127816
0.00126471
0.00124563
0.0012216
0.00119453
0.00116587
0.00113646
0.00111569
0.00110472
0.00109863
0.00109983
0.00115813
0.000739427
0.000744702
0.000790966
0.000857919
0.000940737
0.00100508
0.00105769
0.00108948
0.00110796
0.00111594
0.00111551
0.00110843
0.00109608
0.00108016
0.00106335
0.00104891
0.00104633
0.00105305
0.00106727
0.00108078
0.00109907
0.00114975
0.00123988
0.00139848
0.000647286
0.000640518
0.000683003
0.00075133
0.000821141
0.000891805
0.000934911
0.000962427
0.00097774
0.000984221
0.000984988
0.000982899
0.000980345
0.000984473
0.00100079
0.00102593
0.00104408
0.0010661
0.00110903
0.00117702
0.00127504
0.00141282
0.00160329
0.00180518
0.000550122
0.000541708
0.000577363
0.000640783
0.000733822
0.000797953
0.000842234
0.000872529
0.00089322
0.000908823
0.000923637
0.000941684
0.000967931
0.00100159
0.00103385
0.00107507
0.00113058
0.00120535
0.00130434
0.0014334
0.00160135
0.00181899
0.0020686
0.00226566
0.000448789
0.000455387
0.000488332
0.000579043
0.000676674
0.00074416
0.000794314
0.000832311
0.000863746
0.000893755
0.000926642
0.000965654
0.00101391
0.0010656
0.00112706
0.00120197
0.00129355
0.00140607
0.00154637
0.00172531
0.00195329
0.00221225
0.00247833
0.00271114
0.000351052
0.000390255
0.000439296
0.000565907
0.000662727
0.00073401
0.000788471
0.000832979
0.000873488
0.000914612
0.00095945
0.00100985
0.00106581
0.00113327
0.00121563
0.00131698
0.00144348
0.00160427
0.00181168
0.00207794
0.00238789
0.00270383
0.00300229
0.0032809
0.000271594
0.000350159
0.000434529
0.000583801
0.000679662
0.000751493
0.0008083
0.000858231
0.000907506
0.000960595
0.00102084
0.00109166
0.00117809
0.00128432
0.00141552
0.00157755
0.00177709
0.00202115
0.00231408
0.00264932
0.00297107
0.00328189
0.00356777
0.00380108
0.000221248
0.00032234
0.000465588
0.00062612
0.000716994
0.000785956
0.000844751
0.000902186
0.000964307
0.00103571
0.00112082
0.00122423
0.00135003
0.00150148
0.00168031
0.00188743
0.00212452
0.00239505
0.00270228
0.00302268
0.00333493
0.00363663
0.00392521
0.00411501
0.000206509
0.00034286
0.000548091
0.000675517
0.000759417
0.000827193
0.000891501
0.000960486
0.00103961
0.00113334
0.00124549
0.00137868
0.00153397
0.0017114
0.00191162
0.00213747
0.00239416
0.00268736
0.00301831
0.00334998
0.00367329
0.00397527
0.00425032
0.0044067
0.000208313
0.000398199
0.000624611
0.000730527
0.000806917
0.000874882
0.000947374
0.00103095
0.00113008
0.00124846
0.00138881
0.00155271
0.00174087
0.00195359
0.00219113
0.00245406
0.00274332
0.00305868
0.00339512
0.00371403
0.00401257
0.00429329
0.00452426
0.00464345
1.0537e-06
1.05386e-05
4.43529e-05
0.00010949
0.000195026
5.43425e-05
3.00911e-05
7.63932e-05
0.000177245
0.000300728
0.00036858
0.000401377
4.7629e-05
0.00016277
0.000306494
0.000459646
0.000575287
0.000657033
5.26083e-05
0.000237357
0.000405325
0.000564473
0.000681524
0.000754292
5.61434e-05
0.000295978
0.000474621
0.000623878
0.000724803
0.000761432
5.87039e-05
0.000338853
0.000519181
0.000651646
0.000726793
0.000744447
6.05443e-05
0.000367612
0.000544209
0.000656172
0.00070835
0.000718992
6.1818e-05
0.000384655
0.000554442
0.000646444
0.000681961
0.000695111
6.26221e-05
0.000392422
0.000554264
0.000629213
0.000654187
0.000675214
6.30181e-05
0.000392884
0.000546709
0.000608745
0.000627447
0.000659755
6.30424e-05
0.000387335
0.000533828
0.00058657
0.000602572
0.000647397
6.2719e-05
0.000376748
0.000516915
0.000563296
0.000579955
0.000636204
6.20804e-05
0.000361628
0.000496983
0.000539274
0.000557427
0.000624904
6.12111e-05
0.000342148
0.000474669
0.00051431
0.00053437
0.000612371
6.00846e-05
0.000318993
0.000450376
0.000487916
0.000509919
0.000595746
5.86754e-05
0.000292527
0.000424365
0.000459425
0.000483299
0.000574452
5.69515e-05
0.00026341
0.000396398
0.000427978
0.000453655
0.000546411
5.48499e-05
0.000232542
0.000365885
0.000392462
0.00042022
0.000509838
5.21871e-05
0.000201321
0.000332366
0.000351384
0.000381565
0.00046328
4.83435e-05
0.00017253
0.00029448
0.000306849
0.000331956
0.000405391
0.000189948
0.000153387
0.000248504
0.000262776
0.000270022
0.00033935
0.000173752
0.00011712
0.000189628
0.000209731
0.000191731
0.000252861
3.08946e-05
5.38967e-05
0.000102009
0.000132235
0.000113279
0.000131093
9.8657e-07
2.91543e-06
8.98317e-06
2.21761e-05
5.31405e-05
4.79397e-05
0.000263008
0.00056767
0.000717494
0.000793704
0.000855602
0.000926248
0.00101132
0.00111377
0.00123695
0.00138386
0.00155621
0.00175405
0.00197578
0.00221867
0.00248
0.00275793
0.00305168
0.00335995
0.00367746
0.00397436
0.0042414
0.00449127
0.00468566
0.00478942
0.000592238
0.000757583
0.00078994
0.000830697
0.000895671
0.000980742
0.00108455
0.00120985
0.00136018
0.00153751
0.00174139
0.00196917
0.00221669
0.00247922
0.00275239
0.00303302
0.00331921
0.00360907
0.00389774
0.00416802
0.00439805
0.00460924
0.00477307
0.00486347
0.000767608
0.000778397
0.000803255
0.000862114
0.000944405
0.0010457
0.00116888
0.00131854
0.00149736
0.00170498
0.0019383
0.00219232
0.00246089
0.00273739
0.00301566
0.00329078
0.00355958
0.00382004
0.00406921
0.00430053
0.00449243
0.00465322
0.00478793
0.00486553
0.000796498
0.000795327
0.000833548
0.000904587
0.000998553
0.0011157
0.0012608
0.00143752
0.00164604
0.00188311
0.00214303
0.00241863
0.00270191
0.00298462
0.0032591
0.00351922
0.00376108
0.00398301
0.00418429
0.00436304
0.00451467
0.00462368
0.00471985
0.00478834
0.00079098
0.000804182
0.000860728
0.000946394
0.00105537
0.00119171
0.00136128
0.00156619
0.00180367
0.0020675
0.00234967
0.00264132
0.00293315
0.00321579
0.00348053
0.00372017
0.00392995
0.00410802
0.00425511
0.00437344
0.0044653
0.00453225
0.00457676
0.00462511
0.000775029
0.000817029
0.00089351
0.000992823
0.00111658
0.00127309
0.00146832
0.00170151
0.00196626
0.00225353
0.00255352
0.00285625
0.00315163
0.00342962
0.0036808
0.00389723
0.00407322
0.00420605
0.00429627
0.0043481
0.00437004
0.00437415
0.00436985
0.00436637
0.00076647
0.000836182
0.000928835
0.00104038
0.00117986
0.00135831
0.00158022
0.00184097
0.00213049
0.00243741
0.00275079
0.00306013
0.003355
0.00362513
0.00386089
0.00405404
0.00419835
0.00429003
0.00432802
0.00431473
0.00425847
0.00417609
0.00405859
0.00370892
0.000765961
0.000859956
0.000965929
0.0010891
0.00124507
0.00144638
0.001695
0.00198174
0.00229299
0.00261569
0.00293841
0.00325059
0.00354186
0.0038021
0.00402195
0.0041935
0.00431083
0.0043701
0.00436917
0.00430703
0.00418337
0.00399967
0.00375888
0.00342387
0.000772958
0.000886783
0.0010035
0.00113775
0.00131079
0.00153544
0.00181035
0.00212112
0.00245093
0.00278572
0.00311415
0.00342601
0.00371127
0.00396018
0.00416399
0.00431565
0.00441038
0.00444566
0.00442088
0.0043366
0.00419397
0.00399491
0.00374356
0.00344967
0.000784971
0.000915157
0.00104061
0.0011855
0.00137579
0.00162368
0.00192418
0.00225682
0.00260202
0.00294547
0.00327643
0.00358527
0.00386243
0.00409868
0.00428593
0.0044182
0.00449213
0.00450697
0.00446408
0.00436611
0.00421625
0.00401822
0.00377688
0.00349606
0.000799804
0.00094366
0.00107633
0.00123124
0.00143843
0.00170909
0.0020346
0.00238698
0.00274457
0.00309357
0.00342425
0.00372772
0.00399492
0.00421703
0.00438667
0.0044989
0.00455184
0.00454655
0.00448637
0.0043759
0.00421991
0.00402315
0.00379114
0.00352484
0.000815923
0.000971347
0.00110965
0.0012737
0.00149776
0.00179096
0.00214021
0.00251024
0.00287744
0.00322922
0.00355719
0.00385325
0.00410874
0.00431521
0.00446586
0.00455681
0.00458762
0.00456116
0.00448275
0.00435888
0.00419593
0.00400002
0.00377799
0.00353123
0.000831869
0.000997454
0.00114032
0.00131285
0.00155358
0.00186876
0.00223975
0.00262572
0.003
0.00335214
0.00367532
0.0039622
0.00420442
0.00439378
0.00452405
0.00459239
0.0046
0.00455177
0.00445518
0.00431873
0.00415047
0.00395773
0.00374835
0.00352472
0.000846901
0.001022
0.00116827
0.00134824
0.00160533
0.00194177
0.00233283
0.00273297