/*--------------------------------*- C++ -*----------------------------------*\
  =========                 |
  \\      /  F ield         | OpenFOAM: The Open Source CFD Toolbox
   \\    /   O peration     | Website:  https://openfoam.org
    \\  /    A nd           | Version:  11
     \\/     M anipulation  |
\*---------------------------------------------------------------------------*/
FoamFile
{
    format      ascii;
    class       volScalarField;
    location    "0.94";
    object      p;
}
// * * * * * * * * * * * * * * * * * * * * * * * * * * * * * * * * * * * * * //

dimensions      [0 2 -2 0 0 0 0];

internalField   nonuniform List<scalar> 
2880
(
1.09902
1.08676
1.09043
1.10966
1.15925
1.35919
1.10162
1.0897
1.09056
1.103
1.13877
1.24347
1.10361
1.09445
1.09277
1.09914
1.11551
1.15189
1.10381
1.09728
1.09366
1.09467
1.09644
1.09679
1.10283
1.09759
1.09229
1.08874
1.08107
1.06425
1.10113
1.09635
1.08944
1.08219
1.06846
1.04475
1.09887
1.0944
1.08587
1.07572
1.05783
1.03129
1.09617
1.09227
1.08203
1.06955
1.04864
1.02075
1.09327
1.09027
1.07825
1.06374
1.04047
1.01172
1.09048
1.0886
1.07476
1.05828
1.03295
1.00334
1.08811
1.08744
1.0717
1.0532
1.0258
0.99496
1.08638
1.08695
1.0692
1.04852
1.01876
0.986045
1.08545
1.08719
1.06732
1.0443
1.01163
0.97619
1.08539
1.08817
1.06613
1.04056
1.00424
0.96511
1.08616
1.08985
1.06561
1.03732
0.996553
0.952639
1.08763
1.09207
1.06573
1.03466
0.988842
0.93831
1.0896
1.09456
1.06638
1.03264
0.980847
0.921253
1.09179
1.09699
1.06738
1.03135
0.972899
0.902267
1.09389
1.09896
1.06858
1.03107
0.965462
0.881375
1.09559
1.10029
1.07008
1.0325
0.959325
0.8591
1.09674
1.10133
1.07278
1.0372
0.956001
0.837354
1.09765
1.10334
1.07836
1.04695
0.958484
0.822094
1.09916
1.10707
1.08673
1.0592
0.970749
0.82754
1.10102
1.10999
1.09168
1.06183
0.997452
0.862228
0.736409
0.723792
0.697687
0.678155
0.652261
0.626602
0.603178
0.583187
0.566667
0.553038
0.541687
0.532285
0.524627
0.518503
0.513645
0.509758
0.506589
0.503972
0.501787
0.499928
0.498573
0.498725
0.501093
0.499787
0.831006
0.788462
0.742653
0.712543
0.680033
0.649707
0.622891
0.600387
0.581965
0.566853
0.554327
0.543999
0.53562
0.528942
0.523665
0.519459
0.516039
0.513222
0.510892
0.508969
0.507574
0.507385
0.508846
0.507962
0.883407
0.834795
0.779693
0.742174
0.70459
0.670383
0.640593
0.615809
0.595626
0.57912
0.565472
0.554248
0.545164
0.537943
0.532252
0.52773
0.524065
0.521052
0.518579
0.516587
0.515151
0.514679
0.515401
0.514846
0.91509
0.865698
0.808234
0.766272
0.725238
0.688095
0.655885
0.629142
0.607388
0.589614
0.574934
0.562872
0.553118
0.545371
0.539278
0.53445
0.530547
0.527347
0.524738
0.522671
0.521187
0.520487
0.520647
0.520347
0.934787
0.885852
0.829262
0.784906
0.741762
0.702533
0.668443
0.640082
0.616984
0.598101
0.582502
0.569688
0.559324
0.551092
0.544619
0.5395
0.535375
0.532001
0.529263
0.527119
0.52558
0.524711
0.524496
0.524373
0.946722
0.898728
0.844051
0.798549
0.754207
0.713549
0.678043
0.648392
0.62419
0.604376
0.587999
0.574537
0.563637
0.554969
0.548153
0.54277
0.538443
0.534915
0.53206
0.529837
0.528237
0.527261
0.526869
0.526844
0.952704
0.906359
0.853694
0.807702
0.762717
0.721131
0.684608
0.653976
0.628902
0.608331
0.591312
0.577309
0.565953
0.556906
0.549785
0.544166
0.539663
0.536003
0.533047
0.530745
0.529078
0.528055
0.527699
0.527699
0.955714
0.909985
0.858967
0.812764
0.767498
0.725367
0.688159
0.656811
0.631071
0.609905
0.592375
0.577934
0.5662
0.556831
0.549445
0.54362
0.538964
0.535194
0.532152
0.529769
0.528035
0.527058
0.526934
0.526846
0.955422
0.91014
0.860346
0.814056
0.768751
0.726355
0.688715
0.656864
0.630633
0.609025
0.591114
0.576339
0.564311
0.554681
0.547074
0.541076
0.536295
0.532439
0.529329
0.52687
0.525068
0.524194
0.524504
0.524257
0.952185
0.907072
0.858101
0.811785
0.766585
0.724121
0.68625
0.654079
0.627521
0.605619
0.587454
0.572456
0.560221
0.550401
0.542625
0.536492
0.531617
0.5277
0.524542
0.522013
0.520144
0.519437
0.520374
0.519888
0.946166
0.900825
0.85232
0.805982
0.76098
0.718622
0.680707
0.64839
0.621663
0.599616
0.581331
0.566224
0.553881
0.543948
0.536064
0.529841
0.524905
0.520956
0.517773
0.515183
0.513252
0.512775
0.514518
0.513713
0.937288
0.891254
0.84287
0.796521
0.751817
0.709747
0.67199
0.639712
0.612985
0.590949
0.572685
0.557594
0.545249
0.535292
0.527369
0.521109
0.516154
0.512205
0.50902
0.506384
0.504403
0.504225
0.506947
0.505712
0.925264
0.878017
0.829426
0.783138
0.738876
0.697324
0.65996
0.627939
0.6014
0.579548
0.561461
0.546523
0.534294
0.524412
0.516531
0.510297
0.505369
0.501457
0.498299
0.495635
0.493613
0.493777
0.49764
0.495964
0.909583
0.860539
0.811498
0.765437
0.72185
0.68111
0.644436
0.612937
0.586811
0.565339
0.547605
0.532974
0.520993
0.511298
0.503551
0.497415
0.492569
0.488733
0.485631
0.482954
0.480879
0.481367
0.486496
0.484571
0.889401
0.837983
0.788404
0.742877
0.700329
0.660797
0.625193
0.594547
0.569108
0.548249
0.531071
0.516922
0.505339
0.495957
0.488447
0.48249
0.477787
0.474071
0.471056
0.468382
0.46624
0.467024
0.473494
0.47146
0.863491
0.80922
0.7592
0.714733
0.673788
0.636008
0.601968
0.572593
0.548182
0.528211
0.511825
0.498358
0.487342
0.478414
0.471258
0.465574
0.461083
0.457541
0.454651
0.452006
0.449801
0.450865
0.458717
0.456632
0.830946
0.772779
0.722642
0.680084
0.641588
0.606303
0.574465
0.54689
0.523927
0.505175
0.489854
0.477297
0.467037
0.45872
0.452047
0.446739
0.442544
0.439237
0.436521
0.433941
0.431694
0.433035
0.442263
0.44015
0.788923
0.726491
0.677141
0.637807
0.602991
0.571199
0.54238
0.517257
0.496252
0.479114
0.465174
0.453782
0.444488
0.436955
0.430907
0.426092
0.422283
0.419281
0.416795
0.414331
0.412083
0.413706
0.424263
0.422109
0.734553
0.667423
0.620745
0.586616
0.557204
0.530213
0.505425
0.483541
0.465101
0.450038
0.437833
0.427892
0.419793
0.413234
0.407965
0.403766
0.400444
0.397826
0.395635
0.393347
0.391155
0.393077
0.404872
0.402645
0.663856
0.591961
0.551225
0.52518
0.503462
0.482929
0.463385
0.445652
0.43047
0.418006
0.407929
0.399747
0.393095
0.387711
0.383386
0.379936
0.377206
0.375058
0.373231
0.371188
0.369123
0.371364
0.384276
0.381951
0.571923
0.495545
0.466259
0.452273
0.441146
0.429076
0.416174
0.403611
0.392447
0.383148
0.375619
0.369527
0.364583
0.360584
0.357374
0.354813
0.352788
0.351197
0.349809
0.348084
0.346223
0.348801
0.362677
0.360266
0.448892
0.372471
0.363727
0.366917
0.369912
0.368626
0.363904
0.357595
0.351239
0.345687
0.341141
0.337471
0.3345
0.332101
0.330179
0.328649
0.327443
0.326502
0.325628
0.324296
0.322717
0.325642
0.340302
0.337866
0.261077
0.215303
0.241703
0.26866
0.28987
0.301897
0.306948
0.30797
0.307196
0.305957
0.304816
0.30389
0.303146
0.302555
0.302094
0.301736
0.301465
0.301266
0.300983
0.300117
0.298893
0.302161
0.3174
0.315058
-0.0415435
0.0299654
0.102554
0.158801
0.202094
0.229764
0.246025
0.255337
0.260828
0.264407
0.26705
0.269157
0.270874
0.272284
0.273446
0.274399
0.275178
0.275816
0.276199
0.275873
0.275071
0.278653
0.294242
0.292188
-0.778338
-0.820931
-0.898772
-0.943313
-0.965124
-1.00886
-0.789982
-0.832864
-0.911304
-0.95551
-0.967096
-0.984863
-0.800571
-0.845326
-0.925195
-0.971009
-0.974821
-0.978713
-0.811722
-0.858607
-0.940482
-0.989115
-0.991135
-0.990512
-0.825026
-0.873227
-0.956344
-1.00814
-1.01461
-1.01416
-0.839645
-0.888487
-0.971875
-1.0265
-1.04076
-1.04385
-0.85424
-0.903286
-0.986166
-1.04298
-1.06506
-1.07346
-0.867414
-0.916959
-0.998427
-1.0566
-1.08517
-1.09789
-0.878338
-0.928865
-1.00793
-1.06658
-1.09967
-1.1149
-0.886611
-0.937983
-1.01435
-1.07244
-1.10785
-1.12362
-0.891779
-0.943884
-1.01758
-1.07394
-1.10942
-1.12369
-0.89359
-0.9465
-1.01762
-1.07117
-1.10453
-1.11522
-0.892042
-0.946056
-1.01458
-1.06446
-1.09376
-1.09891
-0.887422
-0.942865
-1.00882
-1.05441
-1.07812
-1.07614
-0.880312
-0.93729
-1.00074
-1.04182
-1.05891
-1.0486
-0.871473
-0.929816
-0.990871
-1.02763
-1.03769
-1.01833
-0.861765
-0.921063
-0.979859
-1.01296
-1.0162
-0.987807
-0.852071
-0.911744
-0.968378
-0.998909
-0.996148
-0.959657
-0.843194
-0.902624
-0.957066
-0.986222
-0.979368
-0.936739
-0.835766
-0.894614
-0.946451
-0.974586
-0.968268
-0.921896
-0.83031
-0.889014
-0.937363
-0.964475
-0.963638
-0.916842
-0.827643
-0.886991
-0.930609
-0.956355
-0.963493
-0.925248
-0.828952
-0.88722
-0.92537
-0.945336
-0.964633
-0.954197
-0.83323
-0.882601
-0.911077
-0.929745
-0.971449
-1.06219
-0.490957
-0.185568
-0.0519746
0.041569
0.109284
0.153944
0.182278
0.200548
0.212819
0.221602
0.228326
0.233703
0.238075
0.241656
0.244593
0.24699
0.248936
0.250506
0.251637
0.251921
0.251599
0.25544
0.271121
0.269652
-0.673779
-0.394884
-0.206484
-0.0748787
0.0157311
0.0767754
0.117434
0.144699
0.164003
0.178201
0.18919
0.197993
0.205166
0.211057
0.215902
0.219872
0.223104
0.225714
0.227683
0.228659
0.228867
0.232868
0.248329
0.247926
-0.769082
-0.553855
-0.34128
-0.18375
-0.0747205
0.000849595
0.0528964
0.0891799
0.115308
0.134904
0.150203
0.162498
0.172556
0.180857
0.187725
0.193394
0.198043
0.201823
0.204753
0.206533
0.207331
0.211323
0.226112
0.227622
-0.849614
-0.672084
-0.453364
-0.28224
-0.159567
-0.0718232
-0.00960084
0.0349095
0.0675793
0.0923931
0.111903
0.127658
0.140616
0.151378
0.160356
0.167843
0.174059
0.17918
0.183263
0.186067
0.18762
0.191327
0.204541
0.209601
-0.920799
-0.763202
-0.547282
-0.369941
-0.23735
-0.139823
-0.0688657
-0.0170512
0.0215922
0.0512731
0.0747765
0.0938623
0.109644
0.122849
0.133975
0.143374
0.15131
0.157993
0.163541
0.167826
0.170706
0.174177
0.184402
0.195788
-0.979147
-0.83435
-0.626441
-0.447047
-0.307334
-0.202205
-0.124002
-0.0658834
-0.0219637
0.0120983
0.0392516
0.0614181
0.0798501
0.095383
0.108596
0.119908
0.129636
0.138037
0.145293
0.151373
0.156098
0.1608
0.170334
0.178805
-1.02487
-0.889829
-0.692258
-0.513432
-0.369094
-0.258398
-0.174368
-0.110966
-0.0625334
-0.0246687
0.0056889
0.0305839
0.0513785
0.0689954
0.0840784
0.0970925
0.108385
0.118216
0.126711
0.133738
0.139287
0.145654
0.156873
0.150893
-1.05955
-0.932192
-0.745318
-0.56881
-0.422401
-0.30782
-0.219426
-0.151781
-0.0996565
-0.0586356
-0.0255914
0.00159932
0.0243773
0.0437271
0.0603306
0.0746661
0.0870706
0.0977671
0.106815
0.114029
0.119574
0.12628
0.137623
0.127002
-1.08356
-0.96223
-0.785788
-0.613165
-0.466763
-0.34985
-0.258825
-0.187886
-0.13294
-0.0894535
-0.0542841
-0.0252743
-0.000932766
0.0197674
0.0375323
0.0528442
0.0660286
0.0772907
0.0866852
0.0940713
0.0997432
0.1066
0.117725
0.106946
-1.09643
-0.980056
-0.813635
-0.646512
-0.501503
-0.384286
-0.291919
-0.219067
-0.162103
-0.116819
-0.080097
-0.0497577
-0.0242797
-0.00260769
0.0159828
0.0319818
0.0457159
0.0573958
0.0671069
0.0747873
0.0808155
0.0879259
0.0988131
0.0892893
-1.0978
-0.985697
-0.828819
-0.668491
-0.526955
-0.411196
-0.318006
-0.245118
-0.186893
-0.140468
-0.102761
-0.0715755
-0.0453757
-0.0230914
-0.00398255
0.012455
0.026561
0.0385651
0.0485912
0.056651
0.0631648
0.0705932
0.081309
0.0737162
-1.08793
-0.979279
-0.831377
-0.679046
-0.542899
-0.430019
-0.337823
-0.265384
-0.207112
-0.160207
-0.122049
-0.0904748
-0.063944
-0.0413803
-0.0220309
-0.00537369
0.00895219
0.0212002
0.0315284
0.0400045
0.0470476
0.0548207
0.0654502
0.0601426
-1.06768
-0.961631
-0.821666
-0.678418
-0.549173
-0.440837
-0.351819
-0.27954
-0.222499
-0.175847
-0.137779
-0.106249
-0.0797467
-0.0572049
-0.0378649
-0.0211869
-0.00678642
0.0056141
0.0162005
0.0250772
0.0326296
0.0407386
0.0513541
0.0484777
-1.03827
-0.934254
-0.800988
-0.667308
-0.546206
-0.443659
-0.359055
-0.288896
-0.232846
-0.187287
-0.14986
-0.118765
-0.0926078
-0.0703528
-0.0512438
-0.0347284
-0.0204004
-0.00795928
0.00280316
0.0120148
0.0200131
0.0284216
0.0390706
0.0386179
-1.0014
-0.898616
-0.771348
-0.646922
-0.534732
-0.438962
-0.359337
-0.293152
-0.238708
-0.194666
-0.1583
-0.127973
-0.102429
-0.0806837
-0.0619962
-0.0458088
-0.0316993
-0.0193474
-0.00852407
0.000915307
0.0092596
0.0179001
0.0285891
0.0304279
-0.959026
-0.856353
-0.73486
-0.619111
-0.51596
-0.427644
-0.353622
-0.291808
-0.24031
-0.19812
-0.163148
-0.133885
-0.109185
-0.0881362
-0.0700271
-0.054309
-0.0405537
-0.0284259
-0.0176778
-0.00815037
0.000416544
0.00919279
0.0198647
0.023749
-0.91369
-0.809214
-0.693476
-0.58612
-0.491689
-0.410975
-0.342886
-0.285655
-0.237653
-0.197803
-0.164545
-0.136596
-0.112935
-0.0927309
-0.0753231
-0.0601863
-0.0468987
-0.0351194
-0.0245854
-0.0151188
-0.00647765
0.00229358
0.0128086
0.0183903
-0.867893
-0.75924
-0.648936
-0.54997
-0.463841
-0.390419
-0.328221
-0.275625
-0.231251
-0.194029
-0.162733
-0.136293
-0.113818
-0.0945713
-0.0779546
-0.0634801
-0.0507459
-0.0394169
-0.0292227
-0.019968
-0.0114374
-0.00284448
0.0073056
0.0141358
-0.824098
-0.708314
-0.603021
-0.512204
-0.434022
-0.367438
-0.310826
-0.262708
-0.221879
-0.187353
-0.158124
-0.13329
-0.112081
-0.0938562
-0.0780821
-0.0643174
-0.0521903
-0.0413825
-0.0316259
-0.0227136
-0.0144451
-0.00620556
0.00330137
0.0108396
-0.784586
-0.658543
-0.557158
-0.474115
-0.403554
-0.343337
-0.291881
-0.247921
-0.210418
-0.178489
-0.151285
-0.12804
-0.108094
-0.090891
-0.0759625
-0.0629154
-0.0514131
-0.0411618
-0.0319036
-0.023425
-0.0155322
-0.00778248
0.000798065
0.00842219
-0.750825
-0.61148
-0.512959
-0.437042
-0.37362
-0.31928
-0.272508
-0.232295
-0.197794
-0.168237
-0.142899
-0.121126
-0.102354
-0.0861008
-0.071962
-0.0595917
-0.0486912
-0.0389947
-0.0302584
-0.0222965
-0.014905
-0.00772439
-0.000272691
0.00682987
-0.722368
-0.567392
-0.471774
-0.402434
-0.345415
-0.296376
-0.253778
-0.216861
-0.184977
-0.157485
-0.133769
-0.113268
-0.0954987
-0.0800503
-0.0665773
-0.0547852
-0.0444182
-0.035245
-0.0270454
-0.0196141
-0.0128338
-0.00642432
-0.000237204
0.00600295
-0.698031
-0.521709
-0.434586
-0.37137
-0.320134
-0.275664
-0.236683
-0.202609
-0.172961
-0.147208
-0.124829
-0.105345
-0.0883449
-0.0734852
-0.0604806
-0.0490929
-0.0391212
-0.0303858
-0.0227334
-0.01594
-0.00985096
-0.00410721
0.000910339
0.00617186
-0.653106
-0.467754
-0.399464
-0.345107
-0.298897
-0.258097
-0.22206
-0.190375
-0.16263
-0.138354
-0.117075
-0.0983743
-0.0819051
-0.06739
-0.054604
-0.0433702
-0.0335513
-0.0250234
-0.0176823
-0.0113676
-0.00600168
-0.00114661
0.00243949
0.00660473
-0.39159
-0.38251
-0.363389
-0.332361
-0.317699
-0.229268
-0.390015
-0.381788
-0.364086
-0.336471
-0.32603
-0.263189
-0.387186
-0.381222
-0.365739
-0.342085
-0.335884
-0.292744
-0.38589
-0.381573
-0.368323
-0.348631
-0.343628
-0.31454
-0.386537
-0.38307
-0.371665
-0.355491
-0.35028
-0.330667
-0.388151
-0.385535
-0.375703
-0.362444
-0.356795
-0.342344
-0.391696
-0.388761
-0.380406
-0.369501
-0.363528
-0.351573
-0.396743
-0.39237
-0.385662
-0.376741
-0.370671
-0.359827
-0.400631
-0.395905
-0.391264
-0.384234
-0.378386
-0.368078
-0.403271
-0.399527
-0.397099
-0.392025
-0.386803
-0.376996
-0.405886
-0.403262
-0.403082
-0.400141
-0.39601
-0.387012
-0.408543
-0.406988
-0.409127
-0.408577
-0.406031
-0.398298
-0.411069
-0.410554
-0.415144
-0.417301
-0.416852
-0.410952
-0.413337
-0.413814
-0.421053
-0.426259
-0.428413
-0.425036
-0.415218
-0.416644
-0.426765
-0.435371
-0.440599
-0.440542
-0.416698
-0.418871
-0.43219
-0.444538
-0.453214
-0.457427
-0.417886
-0.420682
-0.437306
-0.453631
-0.465957
-0.475621
-0.420351
-0.422712
-0.442099
-0.462501
-0.478561
-0.494827
-0.424624
-0.425302
-0.446463
-0.470948
-0.491033
-0.514825
-0.427362
-0.427675
-0.450013
-0.478665
-0.503211
-0.536139
-0.427571
-0.428869
-0.452137
-0.485007
-0.514885
-0.560221
-0.425247
-0.428326
-0.452201
-0.488618
-0.525131
-0.587976
-0.421039
-0.426545
-0.450662
-0.488648
-0.532254
-0.61609
-0.418908
-0.425449
-0.450006
-0.488299
-0.536447
-0.634906
-0.483248
-0.415815
-0.372222
-0.324686
-0.282352
-0.244297
-0.210516
-0.180767
-0.154625
-0.13164
-0.111331
-0.0932942
-0.0772241
-0.0628904
-0.0501203
-0.0387998
-0.0288648
-0.0202697
-0.0129872
-0.00691847
-0.00209433
0.00194437
0.00410085
0.00633604
-0.423664
-0.383155
-0.352419
-0.309955
-0.270289
-0.234192
-0.202086
-0.173858
-0.149083
-0.127263
-0.107909
-0.0905717
-0.0749304
-0.0607877
-0.0480316
-0.0365875
-0.0264372
-0.0176188
-0.0102036
-0.00422156
0.000270332
0.00346905
0.00498804
0.00527408
-0.399976
-0.364026
-0.33745
-0.298861
-0.261418
-0.226832
-0.195979
-0.168899
-0.145235
-0.124475
-0.106091
-0.0896035
-0.0746352
-0.0609357
-0.0484019
-0.03704
-0.0269073
-0.0181025
-0.0107674
-0.00504684
-0.00106119
0.00118193
0.00164556
0.000254883
-0.382098
-0.350954
-0.325406
-0.289734
-0.254119
-0.220735
-0.190762
-0.164461
-0.141564
-0.121612
-0.104069
-0.0884368
-0.0743206
-0.0614516
-0.0496512
-0.0388943
-0.0292702
-0.020919
-0.0140171
-0.00875503
-0.0053209
-0.00401747
-0.00542889
-0.00789276
-0.36852
-0.341225
-0.315534
-0.281545
-0.247097
-0.214481
-0.184975
-0.159012
-0.136425
-0.116833
-0.0997666
-0.0847363
-0.0713719
-0.0593986
-0.0485968
-0.0388539
-0.0301713
-0.0226575
-0.0164815
-0.0117984
-0.00879808
-0.00810598
-0.0110745
-0.0143888
-0.360386
-0.334545
-0.307798
-0.274177
-0.239951
-0.207433
-0.177803
-0.151739
-0.129086
-0.109576
-0.0928025
-0.078351
-0.0657996
-0.0548139
-0.0452025
-0.03684
-0.0296763
-0.0237306
-0.0189737
-0.0153214
-0.0128485
-0.0121777
-0.0142956
-0.0144119
-0.356897
-0.330701
-0.302242
-0.267905
-0.232967
-0.199716
-0.169444
-0.142754
-0.119661
-0.0998718
-0.0829872
-0.068628
-0.0564305
-0.046118
-0.037464
-0.0302823
-0.0244016
-0.0196243
-0.0157816
-0.0127474
-0.0103369
-0.00838902
-0.0066023
-0.00329206
-0.356974
-0.329591
-0.298771
-0.262828
-0.226344
-0.191645
-0.160063
-0.132158
-0.107951
-0.0872155
-0.0696694
-0.0550016
-0.0427877
-0.0328426
-0.0248947
-0.0186965
-0.0139997
-0.0105211
-0.00794008
-0.00588955
-0.00391732
-0.00122093
0.00343245
0.00761729
-0.359857
-0.331006
-0.297316
-0.258959
-0.220156
-0.183343
-0.149916
-0.120453
-0.0950126
-0.0734035
-0.0553349
-0.0404689
-0.028601
-0.0193569
-0.0124759
-0.0076762
-0.0046488
-0.00302378
-0.00234938
-0.00208772
-0.00156821
0.000347635
0.00513144
0.0100564
-0.365214
-0.334679
-0.297783
-0.256304
-0.214519
-0.17504
-0.139358
-0.108086
-0.0813057
-0.058832
-0.0403679
-0.0255823
-0.0141588
-0.00575672
-5.33805e-05
0.0032885
0.0046429
0.0044562
0.00329711
0.00185052
0.000930305
0.00170793
0.00544941
0.0103565
-0.373183
-0.340552
-0.29999
-0.254773
-0.209459
-0.166894
-0.128726
-0.0955393
-0.0674138
-0.0441689
-0.0254669
-0.0109428
-0.00019187
0.00721143
0.0116663
0.0135673
0.0133761
0.0116677
0.00910876
0.00643472
0.00445869
0.00440293
0.00709187
0.0122379
-0.383566
-0.348478
-0.3037
-0.254138
-0.204804
-0.158952
-0.118249
-0.0833673
-0.0542817
-0.0306652
-0.0120893
0.0019165
0.0118634
0.0182491
0.021547
0.0222632
0.0209842
0.0183626
0.0150789
0.0119139
0.00956005
0.00920224
0.0106039
0.0163529
-0.396085
-0.358189
-0.308523
-0.253967
-0.20035
-0.151327
-0.108525
-0.0723705
-0.0427063
-0.0190937
-0.000963081
0.012333
0.0214128
0.0268572
0.0292621
0.0292409
0.0274336
0.0244021
0.0206947
0.017382
0.0148921
0.0140434
0.0122748
0.017435
-0.410691
-0.369341
-0.313854
-0.253816
-0.195947
-0.144001
-0.0994079
-0.0624521
-0.0327654
-0.00964077
0.00770782
0.0200806
0.0282642
0.0329561
0.0348338
0.0343969
0.0325656
0.0296811
0.0254006
0.0210911
0.0185463
0.0187451
0.0191277
0.0229035
-0.427173
-0.38136
-0.31894
-0.253105
-0.190988
-0.136425
-0.0907962
-0.0539426
-0.0249665
-0.00278955
0.01356
0.0249998
0.0324625
0.0366734
0.0384192
0.037651
0.0355227
0.0339211
0.033222
0.0322329
0.0300738
0.0280216
0.0259153
0.0294082
-0.445234
-0.393059
-0.323123
-0.251046
-0.185003
-0.128836
-0.0832355
-0.0472346
-0.0194224
0.00152141
0.016741
0.0271964
0.0340042
0.0379146
0.0402538
0.0424972
0.0433724
0.0423315
0.0405435
0.0387925
0.0367016
0.0339181
0.031292
0.0357173
-0.464378
-0.403325
-0.325289
-0.247235
-0.178242
-0.121551
-0.0768759
-0.0423199
-0.0159205
0.0038057
0.0181344
0.0281089
0.0354508
0.0415816
0.045486
0.047259
0.0479991
0.0479037
0.0467338
0.0449587
0.0429051
0.0408487
0.0404376
0.043449
-0.481814
-0.412686
-0.324972
-0.241724
-0.170968
-0.11481
-0.0715785
-0.0384316
-0.0131826
0.00577411
0.019956
0.0311616
0.0395217
0.0454247
0.0498305
0.0524844
0.0536311
0.0539639
0.0541523
0.0537425
0.0523087
0.0505389
0.0509181
0.0507862
-0.495889
-0.41973
-0.321987
-0.234489
-0.163058
-0.108087
-0.0661856
-0.0340978
-0.00947059
0.0095205
0.0242138
0.035723
0.0446886
0.0511506
0.0555037
0.0584187
0.0608244
0.0622515
0.0626744
0.0621182
0.060816
0.0599455
0.0624
0.0588299
-0.501642
-0.423103
-0.315574
-0.224309
-0.153295
-0.099765
-0.0590612
-0.0278036
-0.00359347
0.0154266
0.0305046
0.0423719
0.0512543
0.0575914
0.0625898
0.066474
0.0691261
0.070798
0.0715305
0.0714367
0.0708017
0.0713831
0.0768217
0.0719752
-0.49424
-0.416991
-0.302532
-0.208861
-0.139514
-0.0878702
-0.0485944
-0.0183729
0.00521245
0.0238369
0.0386247
0.050211
0.0592025
0.0662635
0.0716722
0.0758072
0.0788442
0.0809256
0.0821541
0.0826432
0.0827596
0.0848819
0.0935069
0.0875449
-0.472633
-0.390816
-0.276883
-0.185599
-0.119803
-0.0709992
-0.0338826
-0.00526569
0.0171748
0.0351152
0.0493637
0.0606173
0.0695823
0.0766754
0.0822551
0.08661
0.0899283
0.0923401
0.093978
0.0949397
0.095601
0.0988408
0.109653
0.101968
-0.43599
-0.334641
-0.233114
-0.152781
-0.0935136
-0.0489308
-0.0150127
0.0115005
0.0326108
0.0492013
0.0625606
0.0732915
0.0819118
0.0888472
0.0944017
0.0988068
0.102236
0.104826
0.106714
0.107961
0.10897
0.113098
0.12569
0.116297
-0.358384
-0.250525
-0.17369
-0.111219
-0.0614007
-0.0225206
0.00771421
0.031479
0.0504386
0.0656236
0.0779017
0.0878752
0.0959913
0.102606
0.107988
0.112338
0.115814
0.118548
0.120663
0.122156
0.123417
0.128194
0.142123
0.131115
0.37877
0.390286
0.428755
0.490582
0.517877
0.421621
0.38067
0.389539
0.417266
0.455469
0.449011
0.378981
0.381562
0.388255
0.405323
0.429338
0.406733
0.337043
0.380421
0.385485
0.394461
0.410312
0.384393
0.319997
0.378057
0.381671
0.386138
0.396184
0.373552
0.319664
0.375038
0.377648
0.379412
0.386514
0.368793
0.325006
0.371582
0.373771
0.374066
0.380009
0.367104
0.33161
0.367835
0.370087
0.369821
0.375577
0.36682
0.338222
0.363969
0.366561
0.366365
0.372427
0.367218
0.34453
0.360172
0.363174
0.363515
0.369971
0.368039
0.35058
0.35663
0.359926
0.360967
0.367995
0.369202
0.356482
0.353514
0.356846
0.35858
0.366286
0.37066
0.362092
0.350941
0.35399
0.356266
0.364628
0.372309
0.367263
0.349008
0.351478
0.353962
0.362836
0.373869
0.372176
0.347713
0.34944
0.351633
0.360705
0.375053
0.376904
0.347052
0.347922
0.349286
0.357989
0.375675
0.381286
0.347103
0.346989
0.346916
0.354348
0.375569
0.38492
0.347914
0.346703
0.34453
0.349339
0.374472
0.386924
0.34913
0.347022
0.342049
0.342599
0.371832
0.385711
0.34768
0.347417
0.339065
0.3342
0.367022
0.379592
0.342799
0.347135
0.335304
0.324171
0.360352
0.368456
0.343849
0.347016
0.331054
0.31257
0.354408
0.351315
0.352247
0.347351
0.327139
0.301528
0.350947
0.294535
0.356813
0.347143
0.323567
0.291095
0.336309
0.0715695
-0.157275
-0.163838
-0.111467
-0.0648581
-0.0252865
0.00716265
0.0330919
0.0537809
0.0704419
0.0839438
0.094965
0.104016
0.111478
0.11765
0.122762
0.12698
0.130437
0.133242
0.135469
0.137047
0.138365
0.143468
0.158212
0.145967
-0.0227829
-0.0804143
-0.0498611
-0.017168
0.0128646
0.0388344
0.060288
0.077746
0.0919866
0.103673
0.113325
0.121344
0.128043
0.133666
0.138396
0.142375
0.145709
0.148487
0.150731
0.152298
0.153571
0.158806
0.174059
0.161216
0.0649402
-0.000758166
0.00903321
0.0295328
0.0513283
0.0713254
0.0884477
0.102711
0.114538
0.124379
0.132611
0.139538
0.145404
0.150401
0.154678
0.158349
0.161499
0.164192
0.166403
0.167902
0.169051
0.174231
0.189706
0.177153
0.13338
0.0684149
0.063022
0.0739119
0.088902
0.103697
0.116865
0.128126
0.137642
0.145682
0.152501
0.158318
0.163311
0.167628
0.171388
0.174678
0.17757
0.180109
0.182235
0.183653
0.184658
0.18961
0.204971
0.194059
0.186102
0.124307
0.111253
0.115298
0.124847
0.135289
0.14501
0.15356
0.160937
0.167276
0.172731
0.177447
0.181547
0.185141
0.188318
0.191151
0.1937
0.196005
0.198005
0.1994
0.200392
0.204953
0.219598
0.212842
0.225937
0.170254
0.153675
0.153318
0.158776
0.165713
0.172522
0.178698
0.184152
0.188925
0.193097
0.196748
0.199957
0.202796
0.205332
0.207617
0.209703
0.211632
0.213387
0.214762
0.215751
0.218955
0.230694
0.238051
0.256222
0.208434
0.190984
0.18801
0.190564
0.194769
0.199183
0.203334
0.2071
0.210468
0.213459
0.216107
0.218449
0.220526
0.222374
0.224021
0.225489
0.226806
0.227985
0.228882
0.228938
0.227365
0.224743
0.274754
0.279754
0.240044
0.223797
0.219616
0.22025
0.222404
0.224895
0.227353
0.22967
0.231803
0.233734
0.235462
0.236994
0.238343
0.239519
0.240522
0.241353
0.242029
0.242522
0.242469
0.24124
0.24106
0.252575
0.272793
0.298658
0.266735
0.252869
0.248515
0.248006
0.248671
0.249647
0.250714
0.251808
0.252875
0.253874
0.254782
0.255586
0.256282
0.256859
0.257302
0.2576
0.257762
0.257702
0.256938
0.255213
0.25673
0.271955
0.27881
0.314331
0.289701
0.278934
0.275126
0.274065
0.273689
0.273493
0.273432
0.273504
0.273662
0.273854
0.274044
0.274211
0.274339
0.274407
0.27439
0.274274
0.27406
0.27363
0.272469
0.270565
0.272839
0.289082
0.290438
0.327638
0.309807
0.302666
0.299883
0.298693
0.297627
0.296534
0.295558
0.294779
0.294163
0.293657
0.293223
0.292837
0.292479
0.29212
0.291728
0.291283
0.290781
0.290083
0.288659
0.28662
0.289174
0.305662
0.30448
0.33937
0.327946
0.324532
0.323193
0.322193
0.320691
0.318903
0.317174
0.315676
0.314393
0.313277
0.312296
0.311427
0.310649
0.309928
0.309225
0.308515
0.307788
0.30689
0.305286
0.303157
0.305811
0.32216
0.319681
0.350042
0.344687
0.345185
0.345486
0.344876
0.343101
0.340751
0.338378
0.33625
0.334374
0.332711
0.331238
0.329938
0.328789
0.327755
0.326788
0.325857
0.324946
0.323891
0.32216
0.319987
0.322652
0.338589
0.335468
0.359827
0.360521
0.365102
0.367172
0.367051
0.365082
0.362236
0.359273
0.356559
0.35413
0.351956
0.350024
0.348327
0.346841
0.345525
0.344327
0.343207
0.342141
0.340962
0.33915
0.336975
0.339594
0.354894
0.351515
0.368887
0.375855
0.384725
0.388644
0.389026
0.386861
0.383517
0.379961
0.376664
0.373687
0.371009
0.36863
0.366549
0.364743
0.363166
0.361756
0.360467
0.359267
0.357988
0.35613
0.353991
0.356517
0.370994
0.367605
0.377341
0.391086
0.404505
0.410291
0.411109
0.408662
0.404748
0.400542
0.396618
0.393064
0.389863
0.387026
0.384557
0.382434
0.380603
0.378992
0.377545
0.376225
0.374863
0.372986
0.370914
0.373307
0.386807
0.383568
0.385285
0.40668
0.424905
0.432507
0.433618
0.430706
0.42607
0.4211
0.416464
0.412271
0.408502
0.405176
0.402301
0.39985
0.397761
0.395951
0.394351
0.392917
0.391483
0.389611
0.387625
0.389849
0.402244
0.399259
0.392818
0.423282
0.446437
0.455741
0.456855
0.453204
0.447608
0.441701
0.436225
0.431299
0.426896
0.423034
0.419719
0.416921
0.414563
0.412547
0.410794
0.409247
0.407747
0.405893
0.404008
0.406026
0.417219
0.414547
0.400182
0.44178
0.469733
0.480461
0.481108
0.476346
0.469457
0.462378
0.455897
0.450122
0.444998
0.440537
0.436741
0.433566
0.430921
0.42869
0.426776
0.425114
0.423549
0.42172
0.419941
0.421723
0.431644
0.429313
0.407989
0.463201
0.495501
0.507138
0.506637
0.50025
0.491675
0.483128
0.475443
0.46868
0.462738
0.457609
0.453281
0.449696
0.446741
0.44428
0.442195
0.44041
0.438776
0.436976
0.435302
0.436824
0.445435
0.443443
0.417124
0.488776
0.524641
0.536319
0.533656
0.52495
0.514242
0.503898
0.494782
0.486884
0.480021
0.474149
0.469237
0.465205
0.461916
0.459207
0.456939
0.455021
0.453311
0.451536
0.449969
0.451236
0.458539
0.456815
0.428444
0.521838
0.55876
0.568492
0.562223
0.550351
0.537015
0.524561
0.51379
0.504606
0.496722
0.490038
0.484491
0.479975
0.476326
0.47335
0.470884
0.468821
0.467025
0.465271
0.463822
0.46488
0.470894
0.469164
0.450242
0.57181
0.600019
0.603676
0.59207
0.576149
0.559716
0.544888
0.532281
0.521679
0.512688
0.505131
0.498906
0.493875
0.489841
0.486578
0.483895
0.481666
0.479762
0.478004
0.476656
0.477517
0.482219
0.480225
0.530547
0.647065
0.64831
0.640932
0.622467
0.601809
0.58194
0.564558
0.550005
0.537899
0.527741
0.519271
0.512336
0.506765
0.502325
0.498756
0.495836
0.493419
0.491379
0.489581
0.488256
0.488797
0.492247
0.490427
)
;

boundaryField
{
    rotor
    {
        type            zeroGradient;
    }
    freestream
    {
        type            freestreamPressure;
        freestreamValue uniform 0;
        supersonic      false;
        value           nonuniform List<scalar> 
96
(
0.485114
0.49815
0.509008
0.517506
0.523482
0.526806
0.527389
0.525139
0.520053
0.512137
0.501446
0.488063
0.472194
0.454082
0.433825
0.411612
0.387703
0.362398
0.336038
0.309009
0.281722
0.254597
0.22805
0.202484
0.178285
0.155834
0.135513
0.117758
0.103483
0.0888018
0.0702056
0.0551147
0.0430975
0.0332676
0.0252803
0.0188964
0.0138868
0.010034
0.00713165
0.00499116
0.00344287
0.00233962
0.00157192
0.00105824
0.000732753
0.000538962
0.000450735
0.000379264
0.000279436
0.000185022
7.94062e-06
-0.000238279
-0.000403473
-0.000287266
-2.93727e-05
3.98919e-06
2.15127e-05
0.000105344
0.000248122
0.000506905
0.000746254
0.00127973
0.00206448
0.00309724
0.00454936
0.00634297
0.00863668
0.0122675
0.0171039
0.0225894
0.0289899
0.0365105
0.0450871
0.0548786
0.0660495
0.0787848
0.0935785
0.11279
0.139584
0.147591
0.160488
0.177133
0.195924
0.216157
0.237448
0.259517
0.282124
0.305039
0.328029
0.350861
0.373296
0.395096
0.416005
0.435635
0.453583
0.470111
)
;
    }
    frontAndBack
    {
        type            empty;
    }
}


// ************************************************************************* //
