/*--------------------------------*- C++ -*----------------------------------*\
  =========                 |
  \\      /  F ield         | OpenFOAM: The Open Source CFD Toolbox
   \\    /   O peration     | Website:  https://openfoam.org
    \\  /    A nd           | Version:  11
     \\/     M anipulation  |
\*---------------------------------------------------------------------------*/
FoamFile
{
    format      ascii;
    class       surfaceVectorField;
    location    "0.94";
    object      Uf;
}
// * * * * * * * * * * * * * * * * * * * * * * * * * * * * * * * * * * * * * //

dimensions      [0 1 -1 0 0 0 0];

internalField   nonuniform List<vector> 
5640
(
(0.074975 -0.0937461 -2.67695e-20)
(0.0407403 -0.0754566 -5.6882e-19)
(0.194605 -0.158066 6.12598e-20)
(0.158629 -0.152805 4.67988e-20)
(0.269627 -0.191733 6.789e-20)
(0.249782 -0.199139 2.0568e-20)
(0.276691 -0.189267 -2.5155e-19)
(0.287694 -0.207705 3.23055e-20)
(0.209638 -0.14742 -2.72096e-19)
(0.289552 -0.185635 1.31779e-19)
(0.0770042 -0.0740159 0)
(0.141507 0.155692 2.22729e-20)
(0.107853 -0.131285 -5.27217e-19)
(0.0656432 -0.105969 -3.04787e-20)
(0.210064 -0.192125 7.34104e-21)
(0.175822 -0.184469 -2.99736e-19)
(0.26424 -0.209087 -1.76306e-20)
(0.243094 -0.213898 2.36741e-19)
(0.279211 -0.188697 3.76891e-19)
(0.274651 -0.206488 0)
(0.257688 -0.12683 3.97059e-19)
(0.278907 -0.164532 3.2016e-20)
(0.186305 -0.0533089 -1.19331e-19)
(0.20753 0.107661 -1.14478e-19)
(0.121397 -0.155762 2.15136e-19)
(0.0815739 -0.133378 4.9764e-19)
(0.205393 -0.207888 -9.30465e-20)
(0.176481 -0.205426 -1.64376e-20)
(0.250593 -0.213296 2.6237e-19)
(0.230281 -0.224096 1.92803e-20)
(0.267964 -0.181698 -3.43443e-19)
(0.259236 -0.20631 9.54541e-20)
(0.263716 -0.105449 -4.78291e-19)
(0.267583 -0.152543 -2.50388e-19)
(0.23656 -0.0441969 7.76379e-20)
(0.25638 0.0741819 -1.82192e-19)
(0.128705 -0.177995 2.96538e-19)
(0.0932645 -0.158462 1.0687e-22)
(0.198777 -0.221094 9.4203e-20)
(0.174022 -0.221698 3.10595e-19)
(0.237965 -0.218116 -1.50644e-19)
(0.219198 -0.233354 -1.80034e-19)
(0.25763 -0.178924 1.98747e-19)
(0.246858 -0.209011 5.38894e-21)
(0.267673 -0.0999042 3.04518e-19)
(0.261769 -0.150688 1.79918e-19)
(0.266095 -0.0513842 1.32023e-19)
(0.290772 0.0396408 2.95293e-19)
(0.132776 -0.197801 -3.68137e-21)
(0.101614 -0.181145 2.23482e-20)
(0.192319 -0.233028 5.72356e-20)
(0.170668 -0.235022 2.13142e-20)
(0.227679 -0.224882 -3.01604e-20)
(0.20975 -0.242451 2.90553e-21)
(0.25084 -0.182515 -1.80269e-20)
(0.237694 -0.215091 -1.00538e-19)
(0.272906 -0.107278 1.28851e-20)
(0.260094 -0.157306 6.76141e-20)
(0.285643 -0.0699605 -7.4975e-20)
(0.314324 0.0033997 -1.49301e-19)
(0.134924 -0.215015 4.74709e-20)
(0.107517 -0.201406 1.76884e-22)
(0.186274 -0.243841 -3.21781e-20)
(0.166908 -0.246289 1.29134e-19)
(0.219355 -0.233436 -6.39187e-20)
(0.201422 -0.251813 -1.50487e-19)
(0.246691 -0.191562 -1.96116e-20)
(0.230767 -0.224473 -4.11623e-22)
(0.278782 -0.123232 -1.68277e-20)
(0.260498 -0.170628 6.87711e-20)
(0.299695 -0.0957119 -2.22798e-22)
(0.330654 -0.0342511 -3.04682e-21)
(0.135788 -0.229999 7.44127e-20)
(0.111743 -0.219173 -2.23474e-20)
(0.180432 -0.253899 2.27352e-20)
(0.162675 -0.256051 -1.55568e-20)
(0.212317 -0.243704 -9.20512e-20)
(0.193765 -0.261669 -3.61117e-21)
(0.24394 -0.205102 8.60384e-20)
(0.2251 -0.236842 1.01682e-20)
(0.28416 -0.145213 8.70745e-20)
(0.261446 -0.18915 2.6977e-20)
(0.310021 -0.126083 -7.30846e-21)
(0.342402 -0.0731374 9.65014e-22)
(0.135671 -0.24299 -1.12661e-19)
(0.114804 -0.234294 1.46826e-20)
(0.174481 -0.263537 -4.23974e-20)
(0.157767 -0.264683 1.12884e-19)
(0.205919 -0.255591 9.81147e-20)
(0.186343 -0.272113 9.49083e-20)
(0.241605 -0.222279 -4.94119e-20)
(0.219898 -0.251783 1.87408e-20)
(0.288351 -0.171522 -6.61502e-20)
(0.261995 -0.211691 -6.73532e-20)
(0.31741 -0.159712 1.3188e-20)
(0.351057 -0.113032 -1.74182e-20)
(0.134691 -0.254059 2.34573e-19)
(0.11695 -0.246581 7.32647e-21)
(0.168114 -0.272954 2.50954e-19)
(0.151995 -0.272436 4.24842e-21)
(0.199586 -0.268925 1.81077e-20)
(0.178738 -0.283145 -2.21583e-20)
(0.238991 -0.242381 3.15268e-21)
(0.214525 -0.26887 1.91046e-20)
(0.291098 -0.201032 1.0538e-20)
(0.261582 -0.237379 -1.27644e-19)
(0.322356 -0.195829 1.40613e-19)
(0.357347 -0.153906 -1.10343e-19)
(0.132819 -0.263213 -2.22788e-19)
(0.118101 -0.255881 -2.90344e-20)
(0.161064 -0.282238 -2.67705e-19)
(0.145224 -0.279455 -6.8882e-19)
(0.192841 -0.28349 -2.27057e-20)
(0.170592 -0.294699 -4.38789e-20)
(0.235592 -0.26483 -1.07553e-19)
(0.208472 -0.287701 -2.3517e-19)
(0.292278 -0.23306 -3.99957e-21)
(0.259839 -0.265568 -2.36137e-19)
(0.325177 -0.234023 -8.1522e-20)
(0.361747 -0.195841 1.31788e-19)
(0.129853 -0.27041 -4.57387e-19)
(0.117955 -0.262115 -9.55863e-19)
(0.153134 -0.291404 -4.92438e-19)
(0.13738 -0.285811 -4.52311e-19)
(0.185292 -0.299048 -2.50174e-19)
(0.161612 -0.306648 3.24115e-19)
(0.23102 -0.289161 -3.63795e-19)
(0.20132 -0.307893 5.14345e-20)
(0.291791 -0.267178 -3.17093e-19)
(0.256482 -0.295771 1.22625e-19)
(0.326053 -0.274099 2.34222e-20)
(0.364564 -0.239012 -9.96428e-20)
(0.125549 -0.275665 -9.80249e-19)
(0.116162 -0.265272 1.32179e-22)
(0.144172 -0.300397 3.31175e-19)
(0.128418 -0.291522 4.6752e-19)
(0.176628 -0.315337 6.34804e-19)
(0.151581 -0.318805 -3.42482e-19)
(0.224946 -0.314972 5.35757e-19)
(0.192721 -0.329069 2.8698e-19)
(0.289533 -0.303107 4.65914e-19)
(0.251268 -0.327595 4.88484e-21)
(0.325067 -0.315993 1.19154e-21)
(0.365998 -0.283648 2.53663e-19)
(0.119739 -0.27898 1.42087e-18)
(0.112396 -0.265416 9.12401e-19)
(0.134082 -0.309103 -1.71666e-19)
(0.118331 -0.296544 -6.23983e-21)
(0.166605 -0.332057 -7.11575e-19)
(0.14035 -0.330916 -3.43838e-19)
(0.217088 -0.341892 -2.35983e-19)
(0.182396 -0.350823 -2.81971e-19)
(0.285394 -0.340651 -4.59862e-19)
(0.243968 -0.360686 -6.81724e-22)
(0.322202 -0.359694 -1.64657e-19)
(0.366167 -0.330009 -1.53129e-20)
(0.112403 -0.280297 -4.61705e-19)
(0.106439 -0.26268 -2.90064e-20)
(0.12278 -0.317358 -1.64023e-19)
(0.107146 -0.300726 8.49302e-21)
(0.155059 -0.34885 8.37e-20)
(0.127856 -0.34266 3.01717e-19)
(0.20723 -0.369525 -5.45113e-20)
(0.170143 -0.37269 3.67268e-20)
(0.279221 -0.379627 2.98502e-19)
(0.234339 -0.39466 2.42155e-19)
(0.317339 -0.405197 5.17828e-20)
(0.365104 -0.378349 -2.07932e-19)
(0.103306 -0.279684 4.39094e-19)
(0.0981895 -0.257171 -2.90934e-20)
(0.110333 -0.32488 4.61829e-19)
(0.0950048 -0.303862 5.12865e-19)
(0.141886 -0.365273 2.63328e-19)
(0.114129 -0.353596 -6.50432e-20)
(0.195089 -0.397434 3.27643e-19)
(0.155816 -0.394063 3.53446e-19)
(0.270709 -0.41988 0)
(0.2221 -0.429013 -3.05613e-20)
(0.310272 -0.452485 0)
(0.362797 -0.42893 -2.2558e-19)
(0.092569 -0.277052 1.34111e-20)
(0.0877519 -0.248964 -9.23743e-19)
(0.0968744 -0.331288 9.83449e-21)
(0.0821556 -0.305589 1.46678e-20)
(0.127085 -0.380739 1.05595e-20)
(0.0993109 -0.36314 2.19145e-20)
(0.180562 -0.424975 5.6448e-21)
(0.139344 -0.414191 -2.89023e-19)
(0.259897 -0.460932 -3.12939e-20)
(0.206996 -0.463152 -3.05613e-20)
(0.300765 -0.501505 0)
(0.359611 -0.481662 2.25482e-19)
(0.0804493 -0.272207 -9.75383e-19)
(0.075523 -0.237987 -9.70656e-19)
(0.0826611 -0.336029 2.56885e-20)
(0.0689579 -0.305354 1.70725e-20)
(0.11074 -0.394477 -2.66568e-19)
(0.0836593 -0.370512 4.41685e-20)
(0.163449 -0.451336 -3.32839e-19)
(0.120699 -0.432098 -3.04082e-20)
(0.246073 -0.502414 0)
(0.188659 -0.496038 5.80368e-20)
(0.288082 -0.551535 1.4648e-19)
(0.354262 -0.537466 0)
(0.0674293 -0.264745 -3.61956e-20)
(0.0622896 -0.223863 8.88878e-19)
(0.068056 -0.338321 3.43995e-20)
(0.0558813 -0.302335 5.50088e-19)
(0.0930108 -0.405475 2.83393e-19)
(0.0675375 -0.374691 -3.58832e-19)
(0.143567 -0.475371 3.57935e-19)
(0.0998812 -0.446552 2.93302e-19)
(0.228918 -0.543279 2.03569e-19)
(0.166744 -0.526285 -4.66819e-22)
(0.271582 -0.602013 -4.95585e-20)
(0.347632 -0.595497 2.19831e-19)
(0.05426 -0.253896 1.49245e-18)
(0.0492682 -0.205763 9.95435e-19)
(0.0535018 -0.337077 1.96593e-19)
(0.0434592 -0.295364 -4.13974e-20)
(0.0741061 -0.412427 -3.70954e-19)
(0.0513652 -0.374389 1.77982e-20)
(0.12073 -0.495571 -5.68633e-20)
(0.0768815 -0.456092 3.16309e-19)
(0.207839 -0.582187 -2.5336e-19)
(0.140878 -0.551944 1.13003e-21)
(0.250031 -0.651746 -2.49105e-19)
(0.339034 -0.655806 -2.38523e-19)
(0.0418869 -0.2384 -4.76623e-19)
(0.0379336 -0.182468 7.54819e-20)
(0.039426 -0.330876 -2.22944e-19)
(0.032176 -0.282888 -1.18588e-18)
(0.0542324 -0.413757 6.94496e-19)
(0.0355341 -0.368077 -5.45277e-20)
(0.0947105 -0.510012 3.83139e-19)
(0.0516419 -0.459129 -6.08748e-20)
(0.181953 -0.61705 1.31869e-20)
(0.110764 -0.570264 1.55937e-19)
(0.221243 -0.699173 -1.07689e-19)
(0.327831 -0.717952 -6.17912e-20)
(0.0312456 -0.216618 -5.57458e-19)
(0.0294888 -0.15304 -9.58901e-19)
(0.0262387 -0.3181 -1.06677e-18)
(0.0223261 -0.263025 -6.28252e-19)
(0.0337071 -0.407784 -8.08812e-19)
(0.0203424 -0.354027 3.96625e-20)
(0.0653672 -0.516375 -2.92899e-19)
(0.0240919 -0.454108 -3.76282e-19)
(0.14985 -0.644782 5.31326e-20)
(0.0765042 -0.577065 9.63038e-20)
(0.180424 -0.743624 -5.4703e-20)
(0.312684 -0.781912 -9.97792e-20)
(0.0234649 -0.187495 -1.04799e-18)
(0.0243866 -0.117804 3.95779e-20)
(0.0146871 -0.297338 4.48403e-19)
(0.0142635 -0.233184 7.1163e-19)
(0.0134449 -0.393002 4.8607e-19)
(0.00628803 -0.329814 -6.25261e-20)
(0.0333245 -0.511802 0)
(-0.00536164 -0.439365 -4.99922e-20)
(0.109211 -0.66096 0)
(0.0394692 -0.564475 -2.81973e-19)
(0.114094 -0.791412 0)
(0.289858 -0.851731 -7.06339e-20)
(0.0205104 -0.150508 1.76511e-18)
(0.0246669 -0.0744543 1.02943e-18)
(0.0065706 -0.266356 2.3819e-19)
(0.0118282 -0.183119 -6.28844e-20)
(-0.00452721 -0.36715 -5.99012e-19)
(-0.0031243 -0.285952 5.48254e-20)
(0.000593713 -0.490053 -3.24867e-19)
(-0.0332769 -0.410088 -4.99922e-20)
(0.0562281 -0.659402 -2.88732e-19)
(0.00405549 -0.51274 4.89436e-19)
(-0.0202399 -0.87846 -1.11916e-19)
(0.244768 -0.949908 1.15315e-19)
(0.0244295 -0.0933519 -7.35544e-19)
(0.00256422 -0.205257 -2.47007e-19)
(-0.0273788 -0.314431 6.11976e-19)
(-0.0212734 -0.426833 7.9249e-19)
(-0.0127468 -0.656446 8.66336e-19)
(0.155298 -1.14651 1.12599e-19)
(0.558798 0.375597 2.73522e-20)
(0.390665 0.363118 -1.39083e-19)
(0.521972 0.456506 2.35746e-19)
(0.685668 0.313761 0)
(0.62071 0.315691 1.23219e-19)
(0.686825 0.362982 0)
(0.758827 0.254619 4.09612e-20)
(0.709355 0.261427 0)
(0.752716 0.297712 0)
(0.807787 0.20867 4.52123e-21)
(0.773456 0.211718 -5.44209e-21)
(0.80526 0.240489 4.17373e-20)
(0.844411 0.175579 -3.80161e-20)
(0.816925 0.176254 -7.64068e-20)
(0.841769 0.200378 -3.74471e-20)
(0.873691 0.151272 5.18381e-20)
(0.851129 0.15029 0)
(0.871518 0.171378 1.1975e-19)
(0.897785 0.132588 3.93039e-21)
(0.878807 0.130734 5.25368e-20)
(0.89606 0.149596 -2.17335e-21)
(0.917838 0.117504 -9.48594e-20)
(0.901723 0.115265 -1.43984e-24)
(0.916597 0.13232 -3.34147e-21)
(0.934598 0.104802 -4.47114e-20)
(0.920846 0.102472 -9.09927e-20)
(0.933802 0.117968 -1.30046e-19)
(0.948638 0.0937763 1.11407e-19)
(0.936886 0.0914893 4.25966e-20)
(0.948248 0.105596 1.95482e-19)
(0.960408 0.0840135 7.8303e-20)
(0.950345 0.0818649 1.50256e-19)
(0.960355 0.0947041 1.45271e-19)
(0.970242 0.0752141 -3.53182e-20)
(0.961636 0.0732879 -1.05929e-19)
(0.970466 0.0849448 -1.03113e-19)
(0.978389 0.0671352 -6.52776e-22)
(0.971067 0.0655057 3.34205e-20)
(0.978844 0.0760422 0)
(0.98504 0.05958 -6.6405e-22)
(0.978872 0.0583077 3.04283e-20)
(0.985692 0.067769 -3.11177e-20)
(0.990354 0.0524023 5.67892e-22)
(0.985236 0.0515261 0)
(0.991169 0.0599454 0)
(0.994467 0.0455156 2.77562e-20)
(0.990311 0.045046 -2.78932e-20)
(0.995412 0.0524492 2.84424e-20)
(0.997516 0.0388937 1.38129e-21)
(0.994234 0.0388147 -1.18241e-23)
(0.998548 0.0452262 1.85544e-19)
(0.999631 0.0325507 -2.60921e-20)
(0.997134 0.0328336 1.09934e-23)
(1.0007 0.0382817 -1.28891e-19)
(1.00093 0.026506 2.44092e-20)
(0.999146 0.0271231 7.76965e-20)
(1.002 0.0316425 7.41733e-20)
(1.00153 0.0207519 4.77717e-20)
(1.00042 0.0216791 -5.03066e-20)
(1.00261 0.0253049 4.70347e-20)
(1.00149 0.0152568 2.34184e-20)
(1.00107 0.0164715 -2.4093e-20)
(1.00264 0.0192383 6.90934e-20)
(1.00091 0.0100354 -2.22191e-20)
(1.00091 0.0115497 2.24891e-20)
(1.0018 0.0135449 -6.69472e-20)
(0.999919 0.00522712 9.42617e-20)
(0.999453 0.00715803 -2.19235e-20)
(0.999383 0.00862023 4.28849e-20)
(0.997453 0.0032744 7.66022e-20)
(0.99642 0.00441309 1.35967e-19)
(0.496532 0.296909 -2.03197e-20)
(0.366398 0.269725 -1.59373e-19)
(0.639712 0.264132 1.258e-19)
(0.578339 0.254871 7.93836e-22)
(0.724384 0.218211 -4.63021e-20)
(0.674967 0.217528 -2.59128e-20)
(0.781017 0.179772 -8.70566e-20)
(0.745961 0.178055 2.10603e-20)
(0.82282 0.151233 -3.95516e-20)
(0.794831 0.148541 8.06991e-20)
(0.85568 0.129953 1.12761e-22)
(0.832804 0.126427 3.28531e-20)
(0.882411 0.113541 4.93855e-20)
(0.86325 0.109624 -2.97417e-20)
(0.904532 0.100319 5.11892e-21)
(0.888307 0.0963297 5.00048e-20)
(0.922991 0.0892275 -5.26029e-21)
(0.909175 0.0853722 4.77294e-20)
(0.938463 0.0796405 8.02637e-20)
(0.926689 0.0760042 4.18272e-20)
(0.951462 0.0711948 -3.14215e-20)
(0.941407 0.067839 -3.82973e-20)
(0.962376 0.063626 -3.8473e-20)
(0.953791 0.0606072 1.12723e-21)
(0.971492 0.0567156 6.45596e-20)
(0.964191 0.0540879 6.68731e-20)
(0.979031 0.0502842 3.13784e-20)
(0.972873 0.0480947 3.11189e-20)
(0.985168 0.0441967 -2.82682e-20)
(0.980043 0.0424763 6.07272e-20)
(0.990055 0.0383712 -5.59296e-20)
(0.98587 0.0371263 -5.78062e-20)
(0.993832 0.0327793 -1.38351e-21)
(0.990499 0.0319927 -2.7427e-20)
(0.996635 0.0274281 1.03261e-19)
(0.994063 0.0270695 2.6434e-20)
(0.998589 0.0223285 3.68043e-21)
(0.996701 0.0223687 2.50289e-20)
(0.999804 0.0174683 -1.22366e-19)
(0.998556 0.0178852 -4.88908e-20)
(1.00037 0.0128164 -2.53059e-20)
(0.999735 0.0135912 4.92761e-20)
(1.00036 0.00838272 2.30805e-20)
(1.00015 0.00950078 -1.41656e-19)
(0.999908 0.00427963 -4.00981e-20)
(0.999508 0.00575329 -1.54763e-23)
(0.998355 0.00238055 1.42478e-19)
(0.473257 0.223519 -1.41124e-19)
(0.370835 0.18934 5.48504e-20)
(0.609024 0.209932 -1.49339e-19)
(0.552874 0.193769 -4.12626e-20)
(0.697156 0.177428 3.95813e-20)
(0.64984 0.170609 -9.51285e-20)
(0.758362 0.147282 1.87966e-19)
(0.723717 0.141243 6.85617e-20)
(0.804014 0.123988 1.53831e-19)
(0.776201 0.11804 8.13131e-20)
(0.839813 0.106272 3.75966e-21)
(0.817061 0.100217 3.17014e-20)
(0.86881 0.0925216 -3.0053e-20)
(0.849784 0.0865352 -8.94959e-20)
(0.892748 0.0814523 9.27086e-20)
(0.876662 0.0756997 5.25536e-22)
(0.912725 0.0722024 9.47943e-20)
(0.899045 0.0667998 7.09271e-20)
(0.929496 0.0642517 -7.59421e-20)
(0.917858 0.0592344 -2.11394e-20)
(0.943619 0.0572948 -6.16119e-21)
(0.9337 0.0526955 -7.66182e-20)
(0.955517 0.0511054 1.05902e-19)
(0.947064 0.0469575 1.08297e-19)
(0.965511 0.0454957 3.37789e-20)
(0.958331 0.0418341 -1.0835e-21)
(0.973847 0.0403092 6.02207e-20)
(0.967789 0.0371657 0)
(0.980718 0.0354251 3.2192e-20)
(0.975667 0.0328214 2.99655e-20)
(0.986289 0.0307664 -2.95339e-20)
(0.982149 0.028706 5.55662e-22)
(0.990705 0.0263009 0)
(0.987387 0.0247669 -1.42916e-20)
(0.994107 0.0220268 -5.17886e-20)
(0.991521 0.0209891 0)
(0.996623 0.017947 -2.71514e-20)
(0.994686 0.0173748 -3.88687e-20)
(0.998366 0.0140478 1.22124e-19)
(0.997024 0.0139172 8.91791e-20)
(0.99943 0.0103018 -6.59748e-20)
(0.998642 0.0105931 2.34499e-20)
(0.999902 0.00671601 -1.67279e-19)
(0.999524 0.00739838 -1.88522e-19)
(0.999883 0.00337946 1.76681e-19)
(0.999546 0.00440717 -9.40081e-24)
(0.999076 0.00167489 2.24007e-19)
(0.464211 0.157637 1.57016e-19)
(0.380633 0.120884 -9.02399e-21)
(0.589086 0.156005 1.30928e-20)
(0.537386 0.13577 -8.71253e-21)
(0.676744 0.13475 -7.05028e-20)
(0.632209 0.123207 1.34916e-20)
(0.74022 0.112441 -3.7797e-20)
(0.706643 0.102692 2.4019e-20)
(0.788437 0.0945107 -4.0158e-20)
(0.761286 0.0855839 -7.86848e-20)
(0.82646 0.0806284 -6.00839e-20)
(0.804179 0.0721704 3.33275e-20)
(0.857292 0.0697977 -6.0085e-20)
(0.838667 0.0618018 -5.96398e-20)
(0.882753 0.0610971 -2.22744e-20)
(0.867029 0.0536118 2.63659e-20)
(0.904025 0.0538683 -4.40468e-20)
(0.890681 0.0469313 -7.04334e-20)
(0.921917 0.0477108 -2.12578e-20)
(0.910593 0.0413147 -2.10233e-20)
(0.937022 0.0423861 3.60077e-20)
(0.92739 0.0365357 1.98934e-20)
(0.949783 0.0377089 2.34513e-21)
(0.94159 0.0324172 3.62378e-20)
(0.960544 0.0335219 -3.48719e-20)
(0.953593 0.0288058 -3.45684e-20)
(0.969569 0.0296917 -3.05052e-20)
(0.963709 0.0255693 0)
(0.977071 0.0261138 -1.43476e-21)
(0.972182 0.0225981 -2.29375e-20)
(0.983221 0.0227177 1.59038e-20)
(0.979208 0.0198104 4.47368e-20)
(0.988174 0.0194665 -1.43952e-20)
(0.984946 0.0171529 -2.15722e-20)
(0.992072 0.0163482 1.319e-20)
(0.989539 0.0146004 -2.77868e-20)
(0.995047 0.0133581 7.66583e-20)
(0.993125 0.0121438 7.73446e-24)
(0.997218 0.0104828 -9.19661e-21)
(0.995843 0.00977409 5.09194e-20)
(0.998683 0.00770179 -9.78925e-20)
(0.997803 0.00747445 -4.89117e-20)
(0.999531 0.00502135 -2.44814e-20)
(0.999045 0.00523647 -2.39187e-20)
(0.999852 0.00250601 3.97335e-20)
(0.99956 0.00309716 -2.31679e-20)
(0.99959 0.00110699 4.64448e-20)
(0.4612 0.0981619 -1.75226e-19)
(0.390222 0.0605491 -7.78506e-20)
(0.576257 0.103988 -9.40258e-21)
(0.528071 0.0811548 -5.37087e-20)
(0.662031 0.0915441 1.07609e-19)
(0.620269 0.0763392 5.47268e-20)
(0.726399 0.0762062 -1.51551e-20)
(0.694172 0.0633086 1.2165e-22)
(0.776187 0.0634487 -6.87673e-21)
(0.74999 0.0518554 -4.02488e-20)
(0.815793 0.0534615 3.49883e-20)
(0.794233 0.0427654 3.45079e-20)
(0.848044 0.045679 2.57261e-20)
(0.830032 0.0357578 -3.73834e-21)
(0.874742 0.0394804 -2.06029e-20)
(0.859564 0.0303061 3.95612e-20)
(0.89709 0.0344004 -4.80146e-20)
(0.884248 0.0259525 -4.15348e-20)
(0.915915 0.0301587 1.97002e-20)
(0.905059 0.0224007 5.51515e-21)
(0.93183 0.0265822 1.99834e-20)
(0.922631 0.0194934 2.23359e-20)
(0.945301 0.0235252 0)
(0.937503 0.0170962 0)
(0.956691 0.0208604 0)
(0.950094 0.015089 0)
(0.966281 0.0184801 7.75895e-21)
(0.960729 0.01337 0)
(0.974291 0.016298 2.26631e-20)
(0.969665 0.0118547 3.91362e-21)
(0.980905 0.0142493 7.78178e-21)
(0.977106 0.0104737 1.29997e-20)
(0.986279 0.0122912 -3.49264e-20)
(0.983221 0.00917314 -1.89845e-21)
(0.99056 0.0104006 -4.11725e-20)
(0.988154 0.00791612 -2.4316e-20)
(0.993884 0.00856506 -2.60911e-20)
(0.992046 0.00668149 -1.66465e-20)
(0.996374 0.00677284 1.17353e-20)
(0.995033 0.00545711 -1.44198e-20)
(0.998134 0.00501187 2.48968e-20)
(0.997231 0.00423321 2.47794e-20)
(0.999252 0.00328844 -2.29674e-20)
(0.998716 0.00300634 1.48056e-21)
(0.999815 0.00164157 -1.81349e-20)
(0.999543 0.00179432 -2.3174e-20)
(0.999876 0.000623693 5.21266e-21)
(0.460821 0.0431409 4.0783e-20)
(0.398125 0.00544487 -2.25489e-21)
(0.56832 0.0540179 8.07053e-21)
(0.522844 0.0292525 3.44583e-20)
(0.651955 0.0484486 -5.16227e-20)
(0.612669 0.0302835 4.83872e-22)
(0.716468 0.0392208 -2.42612e-20)
(0.685667 0.0236029 -4.81523e-20)
(0.767155 0.0313221 0)
(0.742067 0.0173289 2.07999e-20)
(0.807854 0.025148 -3.6863e-21)
(0.787195 0.0123733 1.78331e-20)
(0.841175 0.0204333 9.54906e-21)
(0.823949 0.00868802 -2.67158e-20)
(0.868847 0.0168057 1.96286e-20)
(0.854375 0.00600963 2.04483e-20)
(0.892051 0.0139695 1.14586e-20)
(0.87986 0.00405712 6.03835e-21)
(0.911619 0.0117461 7.9803e-21)
(0.901365 0.00265805 5.40648e-21)
(0.928172 0.0100135 2.57172e-21)
(0.919531 0.00170958 -7.43134e-21)
(0.942194 0.00866274 0)
(0.93491 0.00111509 9.46638e-21)
(0.954062 0.0075989 0)
(0.947932 0.000787276 8.74788e-21)
(0.96407 0.00674291 -3.88285e-21)
(0.958936 0.000654614 0)
(0.972451 0.00602759 -5.82231e-21)
(0.96819 0.000657895 -1.17708e-20)
(0.979395 0.00539456 3.44742e-21)
(0.975907 0.000743121 3.74886e-21)
(0.985063 0.00479541 8.88289e-21)
(0.982263 0.000857699 1.43963e-20)
(0.989605 0.00419488 1.55694e-22)
(0.987406 0.000953733 -1.74772e-20)
(0.99316 0.00357193 -4.99001e-21)
(0.99148 0.000996482 -3.36161e-21)
(0.995854 0.00291625 -1.62713e-21)
(0.994619 0.000969017 1.2919e-20)
(0.997794 0.00222482 1.49608e-21)
(0.996946 0.000868663 -1.25003e-20)
(0.999072 0.00150448 1.51435e-21)
(0.998554 0.00069945 3.98812e-24)
(0.999775 0.000768294 1.1781e-23)
(0.999492 0.000467033 -5.81055e-21)
(0.999924 0.000170494 5.22937e-21)
(0.461753 -0.00876365 -9.73867e-21)
(0.404533 -0.0463493 -9.51068e-21)
(0.563868 0.00566844 2.75832e-20)
(0.520431 -0.0207556 -6.53489e-20)
(0.645643 0.00567919 4.85871e-21)
(0.608456 -0.0150441 1.37854e-20)
(0.709988 0.00186047 -4.24418e-21)
(0.680584 -0.0162029 -1.25595e-20)
(0.761193 -0.00153191 3.86781e-20)
(0.737291 -0.0177248 2.02904e-20)
(0.802649 -0.00403757 -4.57627e-21)
(0.783022 -0.0187444 -3.5766e-20)
(0.836754 -0.00570877 -1.64204e-20)
(0.820457 -0.0191645 8.34743e-21)
(0.865156 -0.00672508 7.0221e-21)
(0.85153 -0.0190584 -1.97516e-20)
(0.889001 -0.0072491 0)
(0.877596 -0.0185594 4.87869e-20)
(0.909117 -0.00737922 -9.87399e-21)
(0.899593 -0.0177436 -7.00922e-22)
(0.926133 -0.00719351 -7.08079e-22)
(0.91817 -0.0166694 -5.04742e-20)
(0.940543 -0.00676746 1.82209e-20)
(0.933885 -0.0153996 9.89064e-21)
(0.952733 -0.00616541 8.82468e-21)
(0.947179 -0.0139907 1.76776e-20)
(0.96301 -0.00543938 -7.78977e-21)
(0.958397 -0.0124856 -1.64566e-20)
(0.971616 -0.00463575 -2.31917e-21)
(0.967819 -0.0109182 3.11826e-20)
(0.978748 -0.00380306 1.4617e-20)
(0.975666 -0.00932502 -3.20492e-20)
(0.984573 -0.00299338 -1.17292e-20)
(0.982119 -0.00775422 -1.25432e-20)
(0.989245 -0.00225402 -2.10936e-20)
(0.987335 -0.00626281 -1.38195e-20)
(0.992905 -0.00161577 1.44398e-20)
(0.991456 -0.00489958 1.36643e-22)
(0.995682 -0.00108767 2.20283e-21)
(0.994624 -0.00368809 4.04118e-20)
(0.997685 -0.000662854 -1.40701e-20)
(0.996964 -0.00262343 -1.25003e-20)
(0.999003 -0.000339688 -7.2867e-21)
(0.998558 -0.00168892 -1.50181e-21)
(0.999731 -0.000131894 -6.56436e-22)
(0.999417 -0.000907431 9.09279e-24)
(0.999733 -0.000314288 2.36849e-24)
(0.463485 -0.0586246 -6.37823e-20)
(0.409868 -0.0961296 -1.69946e-19)
(0.56205 -0.0415717 -8.07674e-20)
(0.520104 -0.0696233 -1.72477e-22)
(0.642457 -0.0367997 -3.01962e-21)
(0.607024 -0.0598875 -1.43505e-20)
(0.70663 -0.0357443 1.14149e-20)
(0.678548 -0.0560966 1.17085e-20)
(0.758184 -0.0349217 -5.34222e-20)
(0.735498 -0.0531761 8.2635e-20)
(0.800168 -0.0338733 -2.3378e-20)
(0.781658 -0.0503968 5.26065e-20)
(0.834821 -0.0325219 5.38022e-21)
(0.819563 -0.0475903 9.15734e-20)
(0.863729 -0.0309027 2.11379e-20)
(0.851073 -0.0446939 -5.45796e-20)
(0.888009 -0.0290684 4.86885e-20)
(0.877515 -0.0417096 2.48736e-20)
(0.908483 -0.027053 -4.07593e-20)
(0.899811 -0.0386359 2.17226e-20)
(0.925785 -0.0248963 -4.0485e-20)
(0.918616 -0.0354941 -4.08703e-20)
(0.940414 -0.0226435 9.26156e-21)
(0.934495 -0.0323162 -3.73517e-20)
(0.952767 -0.0203302 -7.30736e-21)
(0.947895 -0.0291307 8.92641e-21)
(0.963158 -0.0179822 2.21211e-20)
(0.95917 -0.0259537 -2.94365e-23)
(0.971838 -0.0156241 1.99204e-21)
(0.968606 -0.0227939 3.90406e-20)
(0.979011 -0.0132923 -5.93575e-20)
(0.976433 -0.0196685 -9.70674e-20)
(0.984849 -0.0110396 -1.46245e-20)
(0.982837 -0.0166175 3.60253e-20)
(0.989511 -0.0089236 7.32083e-21)
(0.98798 -0.0137031 6.21669e-20)
(0.993141 -0.00698568 2.58536e-20)
(0.99201 -0.0109868 -5.32242e-20)
(0.995867 -0.00523652 2.6041e-20)
(0.995075 -0.00850039 2.58751e-20)
(0.997804 -0.00366219 0)
(0.997305 -0.00623679 2.46295e-20)
(0.999048 -0.00226058 5.78824e-21)
(0.998745 -0.0041811 0)
(0.999694 -0.00107589 6.66244e-22)
(0.999331 -0.00237585 5.21386e-20)
(0.999309 -0.000883055 -5.56331e-21)
(0.46587 -0.107406 -1.10447e-19)
(0.414387 -0.144928 -1.69157e-19)
(0.562381 -0.0882148 6.64986e-20)
(0.521469 -0.117992 9.66603e-20)
(0.642026 -0.0791749 0)
(0.608032 -0.104575 -2.87631e-20)
(0.706185 -0.0735899 8.17425e-20)
(0.679337 -0.0961706 -4.6965e-20)
(0.758024 -0.0687199 1.88984e-19)
(0.736567 -0.0889684 8.31293e-20)
(0.800377 -0.0641767 1.66932e-19)
(0.783056 -0.0824463 -1.8886e-21)
(0.83539 -0.0598102 3.3467e-20)
(0.821272 -0.0764177 9.00568e-20)
(0.864609 -0.0555366 -5.18494e-20)
(0.853037 -0.0707146 -5.56845e-20)
(0.889132 -0.0513118 -2.05588e-21)
(0.879666 -0.0652163 -2.39133e-20)
(0.909779 -0.0471146 2.22871e-20)
(0.902076 -0.0598535 2.24235e-20)
(0.927189 -0.042951 -3.77591e-20)
(0.92093 -0.0546134 3.98113e-20)
(0.941868 -0.0388381 -3.81261e-20)
(0.9368 -0.0494993 -3.77759e-20)
(0.954222 -0.0347852 1.62875e-20)
(0.95014 -0.0445134 0)
(0.96457 -0.0307926 1.65688e-20)
(0.961312 -0.0396464 1.64318e-20)
(0.97317 -0.0268629 -5.89008e-20)
(0.970607 -0.0348828 0)
(0.980233 -0.0230172 -2.74391e-21)
(0.978259 -0.0302189 -5.93724e-20)
(0.985939 -0.0193042 1.1262e-19)
(0.984464 -0.0256821 5.75653e-20)
(0.990448 -0.0157887 2.42657e-21)
(0.989387 -0.0213344 5.50361e-20)
(0.993909 -0.0125236 -5.37168e-20)
(0.993183 -0.0172473 -5.33609e-20)
(0.996453 -0.00952505 2.44715e-20)
(0.996008 -0.013462 0)
(0.998193 -0.00677579 2.47816e-20)
(0.998 -0.00997229 2.11543e-23)
(0.999229 -0.00427396 4.60399e-20)
(0.999147 -0.00677418 0)
(0.999668 -0.00208696 4.79554e-20)
(0.999246 -0.00396093 2.34707e-20)
(0.998671 -0.00159562 1.01471e-19)
(0.468805 -0.155842 3.15132e-20)
(0.418278 -0.193593 1.50839e-19)
(0.564613 -0.134764 3.54307e-21)
(0.524323 -0.166456 9.57109e-20)
(0.644145 -0.121686 -7.53897e-20)
(0.61132 -0.149467 -5.72947e-20)
(0.70852 -0.111717 -4.74774e-20)
(0.682838 -0.136569 -4.6965e-20)
(0.760648 -0.102851 -1.06741e-19)
(0.740444 -0.125098 -5.28102e-24)
(0.803264 -0.0948124 -8.02253e-20)
(0.787206 -0.114798 -1.08101e-19)
(0.838483 -0.0874105 2.70714e-21)
(0.825604 -0.105502 -3.17652e-20)
(0.867837 -0.0804558 -2.81273e-20)
(0.857461 -0.0969526 2.56759e-20)
(0.892422 -0.0738126 0)
(0.884099 -0.0889086 0)
(0.913062 -0.0674075 3.97766e-20)
(0.906442 -0.0812316 -8.58061e-20)
(0.930403 -0.0612141 4.05904e-20)
(0.925166 -0.0738735 1.19823e-19)
(0.944963 -0.0552225 0)
(0.940853 -0.0668083 3.60776e-20)
(0.957153 -0.0494168 0)
(0.953967 -0.0600128 -6.89434e-20)
(0.967299 -0.0437731 0)
(0.964874 -0.0534531 -6.36411e-20)
(0.975665 -0.0382713 0)
(0.97387 -0.0470903 1.51823e-19)
(0.982466 -0.0329145 0)
(0.981196 -0.0408986 -5.84074e-20)
(0.987888 -0.027742 0)
(0.987049 -0.0348884 -5.5548e-20)
(0.992097 -0.0228212 0)
(0.991602 -0.0291152 5.39134e-20)
(0.995245 -0.0182152 0)
(0.995014 -0.0236558 -7.76725e-20)
(0.997464 -0.0139485 -2.44485e-20)
(0.997457 -0.0185595 2.00042e-19)
(0.998869 -0.0100047 -2.47583e-20)
(0.999073 -0.0138242 -9.06925e-22)
(0.999561 -0.00638494 -2.2709e-20)
(0.99978 -0.00947422 1.1416e-22)
(0.999666 -0.00317938 7.82526e-20)
(0.999192 -0.00568928 -1.13211e-19)
(0.997849 -0.0025041 6.10658e-20)
(0.472261 -0.204591 2.15586e-19)
(0.421702 -0.242846 1.50125e-19)
(0.568652 -0.181693 3.71934e-20)
(0.528603 -0.215583 2.54309e-19)
(0.648736 -0.164595 -2.90621e-20)
(0.61686 -0.194937 2.7894e-20)
(0.713597 -0.150217 0)
(0.689055 -0.177465 4.60765e-20)
(0.766056 -0.137285 0)
(0.747154 -0.161592 -4.20105e-20)
(0.808854 -0.125675 -6.07221e-20)
(0.79415 -0.14738 0)
(0.844138 -0.115174 -9.58557e-21)
(0.832608 -0.134711 -6.15794e-20)
(0.873461 -0.105494 5.41094e-20)
(0.864398 -0.123245 -1.0552e-19)
(0.897931 -0.0964029 -8.48513e-20)
(0.890867 -0.112615 0)
(0.918383 -0.0877708 -7.95263e-21)
(0.912962 -0.102601 -4.27144e-20)
(0.935481 -0.0795358 1.16133e-19)
(0.931377 -0.093114 4.00262e-20)
(0.949751 -0.0716601 -3.1851e-20)
(0.946707 -0.0840954 -7.18735e-20)
(0.961611 -0.064103 -1.32631e-19)
(0.959424 -0.0754949 6.52838e-20)
(0.971396 -0.0568168 8.6323e-20)
(0.969904 -0.0672547 -1.27192e-19)
(0.97937 -0.0497585 9.51493e-20)
(0.978444 -0.0593125 1.80781e-19)
(0.985756 -0.0429105 -1.13977e-19)
(0.985288 -0.0516197 -1.71703e-19)
(0.990742 -0.0362976 -2.46006e-21)
(0.990638 -0.0441661 5.42302e-20)
(0.994501 -0.0299833 -2.28448e-20)
(0.994669 -0.0369942 5.39134e-20)
(0.997187 -0.0240379 1.20616e-19)
(0.997547 -0.0301789 -1.53524e-19)
(0.998935 -0.0184966 2.24319e-19)
(0.999459 -0.0237739 2.00042e-19)
(0.999858 -0.0133485 2.34182e-20)
(1.00056 -0.017784 -1.41747e-19)
(1.00006 -0.00860228 -8.68315e-20)
(1.00067 -0.012282 -1.1583e-22)
(0.999697 -0.00437112 -1.31468e-19)
(0.999197 -0.00758076 2.13592e-20)
(0.99688 -0.00365923 -2.05693e-20)
(0.476291 -0.254263 1.85566e-19)
(0.424815 -0.293328 2.84348e-19)
(0.57452 -0.229476 2.50034e-19)
(0.534367 -0.265918 -6.11912e-20)
(0.655844 -0.208181 1.02695e-19)
(0.624753 -0.241371 2.69991e-19)
(0.721479 -0.189202 5.33283e-21)
(0.698105 -0.219043 7.17882e-22)
(0.774313 -0.17201 -4.26488e-20)
(0.756803 -0.198488 -6.10937e-22)
(0.817212 -0.156668 0)
(0.803979 -0.180128 0)
(0.852419 -0.142957 -1.56966e-19)
(0.842363 -0.163915 -5.9813e-20)
(0.881539 -0.130484 -1.60905e-19)
(0.873915 -0.149427 -2.10529e-19)
(0.905712 -0.11891 4.26194e-20)
(0.900029 -0.136157 0)
(0.925796 -0.108036 4.35599e-21)
(0.92169 -0.123784 4.3099e-20)
(0.942471 -0.0977575 -1.46828e-19)
(0.939611 -0.112164 1.13422e-19)
(0.956277 -0.0880053 2.3991e-20)
(0.954404 -0.101202 -1.07949e-19)
(0.967642 -0.0787123 7.2459e-20)
(0.966554 -0.0908153 1.34012e-19)
(0.976903 -0.069807 -3.5361e-20)
(0.976441 -0.0809217 -1.40348e-21)
(0.984331 -0.0612233 -8.32039e-20)
(0.984367 -0.0714351 -2.9917e-20)
(0.990149 -0.0529209 -5.30444e-21)
(0.990577 -0.0622839 -5.8458e-20)
(0.994549 -0.0449048 1.10574e-19)
(0.995273 -0.0534344 1.09778e-19)
(0.997705 -0.0372278 -7.5316e-20)
(0.998632 -0.0449097 5.06512e-20)
(0.999778 -0.0299622 -7.63489e-20)
(1.00083 -0.0367751 -2.57689e-20)
(1.0009 -0.023154 -1.64373e-19)
(1.00206 -0.0290816 9.5481e-20)
(1.00119 -0.0168034 -1.65933e-19)
(1.00248 -0.0218403 -2.11344e-19)
(1.00076 -0.0109315 1.06652e-19)
(1.00185 -0.0151923 4.40828e-20)
(0.999771 -0.00568085 1.32553e-19)
(0.999286 -0.00963099 1.11723e-19)
(0.995831 -0.00511486 5.93707e-20)
(0.481013 -0.305423 4.5559e-20)
(0.427772 -0.345625 -3.52181e-20)
(0.582357 -0.278579 -4.78146e-20)
(0.541806 -0.317974 -2.51638e-19)
(0.665641 -0.252733 1.73022e-19)
(0.63524 -0.289156 -5.12888e-20)
(0.732326 -0.228785 -5.23561e-21)
(0.710214 -0.261483 -8.70999e-20)
(0.785555 -0.207011 4.20286e-20)
(0.769579 -0.235815 1.22579e-19)
(0.828444 -0.187693 -5.89804e-20)
(0.81684 -0.212969 -1.33534e-19)
(0.863408 -0.170607 -1.11515e-19)
(0.854978 -0.192975 1.15968e-19)
(0.892139 -0.155248 -5.20966e-20)
(0.886094 -0.175318 -3.2009e-22)
(0.915824 -0.141149 0)
(0.91165 -0.15934 -1.79209e-19)
(0.93535 -0.128021 1.51434e-19)
(0.932677 -0.144585 8.36362e-20)