/*--------------------------------*- C++ -*----------------------------------*\
  =========                 |
  \\      /  F ield         | OpenFOAM: The Open Source CFD Toolbox
   \\    /   O peration     | Website:  https://openfoam.org
    \\  /    A nd           | Version:  11
     \\/     M anipulation  |
\*---------------------------------------------------------------------------*/
FoamFile
{
    format      ascii;
    class       volScalarField;
    location    "0.54";
    object      epsilon;
}
// * * * * * * * * * * * * * * * * * * * * * * * * * * * * * * * * * * * * * //

dimensions      [0 2 -3 0 0 0 0];

internalField   nonuniform List<scalar> 
2880
(
1.88426
2.1751
4.38453
5.60036
6.04718
6.23178
0.861164
1.60385
2.89005
3.8188
5.08005
6.77771
0.23651
1.55935
2.47187
3.13382
3.83037
4.17728
0.262597
1.55442
2.25176
2.72249
3.0387
3.04409
1.18564
1.53551
2.08196
2.40477
2.57277
2.51833
1.26984
1.50798
1.932
2.15855
2.26534
2.22887
1.40785
1.46773
1.79619
1.96246
2.04383
2.04709
1.51976
1.42291
1.67426
1.7986
1.87172
1.91124
1.60266
1.37702
1.56555
1.65863
1.72595
1.79467
1.6554
1.33114
1.46788
1.53543
1.59669
1.68852
1.67771
1.28608
1.37957
1.42472
1.47918
1.59117
1.67379
1.24234
1.2994
1.32405
1.37167
1.50487
1.6416
1.20063
1.22641
1.23211
1.27387
1.43319
1.59273
1.16259
1.15971
1.14799
1.18597
1.37999
1.53052
1.12701
1.09837
1.07088
1.10806
1.34808
1.45272
1.0893
1.04079
1.00023
1.03977
1.34046
1.35546
1.04069
0.984341
0.935364
0.980511
1.36085
1.22536
0.964441
0.925338
0.875777
0.929648
1.41501
0.278888
0.827856
0.860933
0.822153
0.886344
1.50007
0.267951
0.726965
0.802524
0.774012
0.849235
1.59307
0.251693
0.665821
0.762521
0.7396
0.820168
1.68315
0.230007
0.673833
0.768327
0.742758
0.811642
1.79165
0.864687
0.872016
0.901596
0.849979
0.870123
2.00482
2.09854
2.02696
1.8681
1.63287
1.37414
1.94294
2.97818
1.89745
1.71878
1.75169
1.91195
2.1472
2.43293
2.70934
2.87578
2.91538
2.82656
2.65526
2.46047
2.27038
2.09259
1.93035
1.78584
1.659
1.54887
1.45347
1.37154
1.29967
1.24122
1.17158
2.62712
1.82544
1.69807
1.77727
1.98837
2.29295
2.65008
2.93905
3.05757
2.94261
2.64051
2.28752
1.97319
1.70979
1.48682
1.29734
1.13861
1.00633
0.897403
0.807862
0.736194
0.674193
0.632842
0.579998
2.31158
1.80764
1.7309
1.86585
2.14717
2.54052
2.96803
3.23967
3.235
2.93347
2.41178
1.95868
1.60481
1.33079
1.11567
0.941491
0.794473
0.669777
0.564957
0.477689
0.406243
0.346541
0.300305
0.255915
2.13837
1.83731
1.82374
2.0328
2.40358
2.9075
3.38545
3.54909
3.35857
2.79774
2.17894
1.71447
1.38363
1.13973
0.945206
0.781711
0.642643
0.524748
0.425855
0.344166
0.27815
0.225713
0.185194
0.154328
2.05814
1.9016
1.97556
2.27525
2.77066
3.4059
3.862
3.83837
3.40455
2.58228
1.94307
1.50916
1.20666
0.981892
0.801868
0.652479
0.528177
0.425448
0.3411
0.272208
0.21624
0.17133
0.1369
0.115003
2.02058
1.9843
2.16713
2.59531
3.27298
4.02678
4.30218
3.98706
3.16116
2.28952
1.70138
1.31455
1.03825
0.827644
0.658786
0.521576
0.411385
0.324014
0.255521
0.202308
0.161249
0.130058
0.107748
0.0952848
1.9907
2.07602
2.39252
3.01839
3.93715
4.66644
4.54638
3.92232
2.77961
1.97113
1.46862
1.13158
0.884598
0.692561
0.538588
0.416471
0.321035
0.247527
0.191712
0.15007
0.119824
0.098956
0.0861253
0.0805984
1.95917
2.17274
2.67215
3.59635
4.73549
5.06193
4.60291
3.40942
2.33425
1.67863
1.26432
0.970009
0.746048
0.570663
0.434611
0.330536
0.251992
0.193373
0.150126
0.118804
0.0969367
0.0827185
0.074822
0.0721013
1.92533
2.28545
3.05705
4.38482
5.43282
5.20435
4.22103
2.83483
1.97301
1.44734
1.08859
0.821858
0.617235
0.461475
0.344676
0.258391
0.195442
0.150033
0.117729
0.0952711
0.0803225
0.0712276
0.0667681
0.0657776
1.89443
2.44525
3.62886
5.33859
5.72251
5.06807
3.51862
2.37478
1.69491
1.24878
0.926133
0.683883
0.502654
0.368982
0.271809
0.202007
0.152377
0.117505
0.0934443
0.0773605
0.0672244
0.0615656
0.0593219
0.0593414
1.87968
2.6994
4.47441
6.06293
5.77853
4.44041
2.92664
2.03497
1.46971
1.07165
0.778262
0.562011
0.404991
0.292806
0.213631
0.158223
0.119729
0.0932771
0.0754713
0.0639516
0.0570486
0.0535746
0.0526498
0.0531193
1.89845
3.11174
5.56819
6.3143
5.50179
3.705
2.51536
1.77801
1.27336
0.909111
0.644847
0.45588
0.323064
0.230931
0.16752
0.124074
0.0944625
0.074509
0.0613885
0.0531784
0.0485326
0.04651
0.0463808
0.0471124
1.97207
3.78127
6.51029
6.33493
4.85003
3.20394
2.21193
1.55724
1.09439
0.7628
0.528713
0.36674
0.256381
0.181807
0.131537
0.0976628
0.0749148
0.0598279
0.0501139
0.0442371
0.0411312
0.0400524
0.0403454
0.0412724
2.1255
4.7843
6.88038
6.12014
4.18513
2.83137
1.96251
1.35883
0.93113
0.632676
0.429189
0.292988
0.20273
0.143044
0.103462
0.0771243
0.0596303
0.0481675
0.0409157
0.0366674
0.0345917
0.0341004
0.0346212
0.0356312
2.36858
5.98827
6.94743
5.64485
3.74921
2.55309
1.74229
1.17521
0.783463
0.519647
0.345924
0.23306
0.160019
0.11257
0.0815066
0.0610297
0.0475313
0.0387589
0.0332817
0.0301625
0.0287604
0.0286142
0.0292495
0.0302498
2.70784
7.01475
6.8892
5.1504
3.42844
2.30722
1.53512
1.00582
0.652669
0.423412
0.277291
0.184835
0.126185
0.0886286
0.064281
0.0483339
0.0378656
0.0310875
0.0268835
0.0245344
0.0235509
0.0235758
0.0242417
0.0251988
3.17983
7.60154
6.83848
4.72078
3.1457
2.07362
1.33902
0.85154
0.538699
0.342711
0.221384
0.146311
0.0994568
0.0697917
0.0507019
0.0382496
0.0300842
0.0247896
0.0214978
0.0196609
0.018912
0.0189825
0.0196123
0.0205038
3.90765
7.87767
6.65297
4.44448
2.90522
1.85221
1.15618
0.714021
0.441357
0.276042
0.176264
0.115669
0.0783489
0.0549317
0.039946
0.0301929
0.0237871
0.0196053
0.0169694
0.0154617
0.0148119
0.0148348
0.0153554
0.01616
4.89998
8.02075
6.49845
4.22551
2.65615
1.63033
0.985049
0.592634
0.359121
0.221436
0.140053
0.0913646
0.061687
0.043192
0.0314033
0.0237377
0.0186843
0.0153475
0.0131905
0.0118882
0.0112391
0.0111208
0.0114517
0.0121276
6.24164
8.25924
6.4157
3.96907
2.39045
1.41468
0.829911
0.488004
0.290745
0.177152
0.111158
0.0721473
0.0485559
0.0339263
0.0246245
0.0185739
0.0145647
0.0118785
0.0100825
0.0089119
0.00820135
0.0078562
0.00786919
0.00829988
8.18431
8.78846
6.27456
3.6586
2.11126
1.20856
0.691229
0.398765
0.234323
0.141431
0.088191
0.0570011
0.0382436
0.0266465
0.0192793
0.014479
0.0112781
0.00909927
0.00758835
0.00651992
0.00574016
0.00513862
0.00466442
0.00450647
10.3489
9.54974
5.90413
3.27879
1.82523
1.01681
0.569722
0.323696
0.18819
0.112789
0.0700145
0.045113
0.0301889
0.0209744
0.0151185
0.0112928
0.00872531
0.00695338
0.00568916
0.00474376
0.0039819
0.0032979
0.00260709
0.00160092
12.873
9.95732
5.34255
2.85102
1.54315
0.842478
0.464866
0.261184
0.150721
0.0899269
0.0556761
0.0358129
0.0239285
0.016593
0.0119277
0.00887421
0.00681821
0.00539186
0.00436702
0.00359504
0.00297126
0.00241692
0.00186585
0.00113635
16.692
9.9303
4.66648
2.39346
1.27467
0.687858
0.375868
0.209692
0.120498
0.0717491
0.0443881
0.0285446
0.0190674
0.0132154
0.00949137
0.00705252
0.00540993
0.00427108
0.00345487
0.00284309
0.00235098
0.00191419
0.00148789
0.000962567
2.14541
4.33375
7.14999
8.27619
9.26947
45.8556
0.921082
1.99004
3.48339
4.47106
5.71302
12.5425
0.249303
1.58708
2.63424
3.40683
4.30833
6.64319
0.270746
1.49289
2.26433
2.85463
3.4723
4.44432
1.19869
1.49266
2.0428
2.46606
2.87721
3.3252
1.33239
1.49817
1.88323
2.1658
2.4213
2.61909
1.45775
1.50081
1.7565
1.9267
2.06634
2.12883
1.56413
1.49262
1.65106
1.73354
1.78886
1.77342
1.64558
1.47093
1.56024
1.57656
1.5721
1.50889
1.69878
1.43852
1.48041
1.44947
1.40312
1.30947
1.7236
1.39866
1.41145
1.34761
1.2722
1.15938
1.72335
1.35481
1.35395
1.26832
1.17249
1.04699
1.70475
1.31022
1.30858
1.20992
1.09882
0.96407
1.66139
1.26653
1.27619
1.17111
1.04753
0.904907
1.59049
1.22463
1.25858
1.15329
1.01677
0.865741
1.49521
1.18473
1.25416
1.15294
1.00655
0.844854
1.38236
1.14638
1.26335
1.17386
1.01519
0.841396
1.26069
1.10841
1.288
1.21991
1.04837
0.856469
1.18655
1.06766
1.32919
1.29799
1.11478
0.895423
0.268178
1.01882
1.38943
1.42057
1.23296
0.97019
0.24823
0.963482
1.47442
1.61351
1.44454
1.11077
0.222336
0.904637
1.58825
1.94262
1.8544
1.403
0.813646
0.889644
1.76213
2.62719
2.78911
2.15243
1.75748
1.34662
2.32879
4.35815
5.38092
5.24738
20.1291
7.71474
3.67857
1.92796
1.03184
0.554861
0.301692
0.167752
0.0962796
0.0573408
0.0355045
0.0228535
0.015278
0.0105955
0.0076134
0.00565988
0.00434452
0.00343341
0.00278144
0.00229323
0.00189945
0.00154892
0.00121376
0.000829154
9.56098
5.05335
2.78859
1.52764
0.825454
0.44376
0.240944
0.133971
0.0769944
0.0459463
0.0285063
0.0183805
0.0123048
0.00854324
0.00614518
0.00457339
0.00351495
0.00278194
0.00225753
0.00186465
0.00154722
0.00126596
0.00100485
0.000724181
5.87267
3.7246
2.17049
1.21012
0.656495
0.353213
0.192044
0.107055
0.0617218
0.0369468
0.0229828
0.014849
0.00995583
0.00692075
0.00498353
0.00371305
0.0028574
0.00226496
0.0018414
0.00152447
0.00126919
0.00104577
0.000845202
0.000641696
4.1441
2.84432
1.69799
0.955585
0.520328
0.280775
0.153227
0.0857858
0.0496681
0.0298382
0.0186119
0.0120486
0.00808929
0.00562903
0.00405721
0.00302617
0.00233212
0.0018522
0.00150994
0.00125494
0.00105112
0.000875804
0.000723841
0.000577484
3.11046
2.19134
1.33057
0.754547
0.412741
0.223731
0.122719
0.0690592
0.0401656
0.0242157
0.0151431
0.00981942
0.00659971
0.00459618
0.00331566
0.00247619
0.00191202
0.00152304
0.00124697
0.00104285
0.00088159
0.000745748
0.000632143
0.00052783
2.41377
1.70963
1.0494
0.598609
0.328984
0.179247
0.0988627
0.0559255
0.0326686
0.0197591
0.0123825
0.00803959
0.00540768
0.00376864
0.00272152
0.00203622
0.00157706
0.00126203
0.00104009
0.000877741
0.000751379
0.000647359
0.000563373
0.000489607
1.91785
1.35514
0.836336
0.478893
0.264274
0.144701
0.0802296
0.0456037
0.0267414
0.0162175
0.0101798
0.0066154
0.0044524
0.00310539
0.00224606
0.00168529
0.00131134
0.00105656
0.000878839
0.000750576
0.000652459
0.000573609
0.000512046
0.00046022
1.55617
1.09373
0.675396
0.38734
0.214386
0.117875
0.0656527
0.0374709
0.0220416
0.0133951
0.00841805
0.00547403
0.00368647
0.00257426
0.00186647
0.00140657
0.00110183
0.000896083
0.00075433
0.000653628
0.000578032
0.000518722
0.000473842
0.000437627
1.29066
0.899383
0.553604
0.317254
0.175852
0.0969804
0.0542081
0.0310389
0.0183022
0.0111394
0.00700615
0.00455837
0.00307247
0.0021496
0.00156437
0.00118623
0.00093769
0.000771738
0.000659046
0.000580378
0.000522472
0.000478084
0.000445459
0.000420287
1.09465
0.753817
0.460995
0.26336
0.145944
0.0806242
0.0451779
0.025929
0.0153155
0.00933131
0.0058725
0.00382329
0.00258056
0.00181073
0.00132476
0.0010129
0.000809913
0.000676119
0.000586722
0.000525461
0.000481255
0.000448118
0.000424433
0.000407053
0.948856
0.643999
0.390089
0.221631
0.122572
0.0677367
0.0380106
0.021849
0.0129205
0.00787789
0.00496075
0.00323291
0.0021868
0.00154092
0.0011354
0.000877242
0.000711076
0.000603127
0.000532232
0.00048456
0.00045084
0.000426123
0.000408953
0.000397066
0.840072
0.560603
0.33536
0.189047
0.104157
0.0575056
0.0322848
0.0185738
0.0109921
0.00670626
0.00422634
0.00275864
0.00187194
0.0013266
0.0009863
0.000771609
0.000635114
0.000547803
0.000491463
0.000454284
0.000428525
0.000410093
0.000397687
0.000389666
0.759214
0.496969
0.292758
0.163364
0.089515
0.0493165
0.0276785
0.01593
0.00943291
0.00575923
0.003634
0.00237765
0.0016205
0.0011568
0.000869377
0.000689807
0.000577128
0.000506178
0.000461175
0.000432023
0.000412276
0.000398543
0.00038964
0.000384329
0.700009
0.448327
0.259313
0.142917
0.0777586
0.0427036
0.0239451
0.0137834
0.00816707
0.00499185
0.00315578
0.00207173
0.00142005
0.0010227
0.000778104
0.000626846
0.000533189
0.000475113
0.000438864
0.000415801
0.000400575
0.000390364
0.000384056
0.000380623
0.65817
0.411245
0.232835
0.126465
0.0682195
0.0373123
0.0208952
0.01203
0.00713526
0.00436871
0.00276956
0.00182638
0.00126068
0.000917217
0.000707257
0.000578731
0.000500175
0.000452152
0.000422606
0.000404132
0.000392278
0.000384692
0.000380328
0.000378172
0.630867
0.383229
0.21169
0.113076
0.0603936
0.0328711
0.0183825
0.0105891
0.00629107
0.00386198
0.00245785
0.00163013
0.00113456
0.000834778
0.000652704
0.00054231
0.000475636
0.000435386
0.000410936
0.000395899
0.000386534
0.000380862
0.000377959
0.000376618
0.616413
0.362439
0.194628
0.102046
0.0539034
0.0291711
0.0162931
0.00939747
0.00559816
0.00344979
0.0022069
0.00147399
0.00103553
0.000771034
0.00061126
0.000515179
0.000457728
0.000423405
0.000402785
0.000390305
0.000382761
0.00037851
0.000376503
0.000375673
0.614245
0.347447
0.180666
0.0928593
0.0484609
0.0260512
0.0145391
0.0084062
0.00502819
0.00311502
0.00200595
0.00135089
0.000958823
0.000722637
0.000580504
0.000495548
0.000445116
0.000415207
0.000397388
0.000386751
0.000380498
0.000377202
0.000375735
0.000375201
0.62393
0.33702
0.169235
0.0849958
0.0437593
0.0233901
0.0130528
0.00757766
0.00455932
0.0028444
0.0018466
0.00125534
0.000900717
0.000686989
0.00055857
0.000482052
0.000436798
0.000410052
0.000394183
0.00038479
0.000379367
0.000376643
0.000375458
0.000375058
0.646703
0.330463
0.159442
0.0779626
0.0395797
0.0210697
0.0117819
0.00688352
0.00417498
0.0026278
0.00172242
0.00118314
0.000858351
0.00066209
0.000544022
0.000473649
0.000432015
0.000407391
0.000392775
0.000384144
0.000379191
0.000376637
0.000375485
0.00037506
0.684337
0.327215
0.150252
0.0713139
0.0357432
0.0190073
0.0106888
0.00630332
0.00386305
0.00245772
0.00162862
0.00113112
0.000829615
0.00064648
0.000535836
0.000469612
0.000430256
0.000406857
0.000392886
0.00038456
0.000379712
0.000377065
0.000375753
0.000375143
0.740947
0.324618
0.14037
0.0646361
0.0321185
0.0171509
0.00974938
0.0058234
0.00361521
0.00232893
0.00156186
0.00109712
0.000813068
0.000639194
0.000533368
0.000469501
0.000431219
0.00040824
0.000394361
0.000385955
0.000380901
0.000377927
0.000376244
0.000375323
0.822163
0.316391
0.128156
0.057599
0.028641
0.0154805
0.00895238
0.00543613
0.00342642
0.00223817
0.00152005
0.00107982
0.000807903
0.000639664
0.000536223
0.000473147
0.000434837
0.000411514
0.000397197
0.000388317
0.000382748
0.000379223
0.000377013
0.000375635
0.894864
0.291264
0.111983
0.0501253
0.0253434
0.0140123
0.00829827
0.00513916
0.00329457
0.00218399
0.0015023
0.00107864
0.000813641
0.000647912
0.000544618
0.000480678
0.000441231
0.000416805
0.000401512
0.000391765
0.000385374
0.000381052
0.000378127
0.000376148
1.81658
1.39367
2.42987
3.50142
4.03998
4.27692
0.85315
1.21788
1.97318
2.41351
2.40531
1.71662
0.232797
1.29775
1.70429
1.802
1.48816
0.855241
0.258392
1.33254
1.53537
1.41256
1.01189
0.526992
0.280379
1.34618
1.41049
1.1479
0.747057
0.379635
1.38295
1.34425
1.3063
0.972078
0.598692
0.307801
1.63552
1.33545
1.22185
0.859945
0.517435
0.273427
1.85555
1.32825
1.16021
0.793838
0.477654
0.261632
2.03497
1.32829
1.12214
0.76233
0.466355
0.264801
2.17172
1.33797
1.10753
0.758669
0.473812
0.282406
2.26515
1.35846
1.11287
0.775869
0.502518
0.313809
2.31521
1.39058
1.13982
0.817644
0.550365
0.359886
2.32394
1.43491
1.18912
0.881609
0.618734
0.42338
2.30855
1.49246
1.25907
0.968669
0.71042
0.508649
2.28312
1.56173
1.34862
1.08013
0.829307
0.62157
2.23739
1.63631
1.45543
1.217
0.979952
0.769838
2.16121
1.70711
1.57528
1.37928
1.16686
0.963386
2.04328
1.76245
1.70188
1.56568
1.39371
1.21433
1.86983
1.78978
1.82814
1.77452
1.66302
1.53589
1.62289
1.78038
1.96014
2.00106
1.97708
1.93977
1.28094
1.73992
2.10812
2.26125
2.34132
2.46905
0.267768
1.68425
2.34101
2.60663
2.80182
3.21574
1.02562
1.95166
2.9457
3.32064
3.62519
4.34527
2.63192
4.09439
5.8665
6.1399
5.83698
6.17933
0.723721
0.234613
0.0920564
0.0426555
0.0223684
0.0128011
0.00779689
0.00493453
0.00322007
0.00216659
0.0015088
0.00109403
0.000831078
0.00066428
0.000558802
0.000492419
0.000450718
0.000424394
0.000407553
0.00039651
0.00038896
0.000383572
0.000379733
0.000376985
0.473282
0.171091
0.0731546
0.0361367
0.0199317
0.0118985
0.00746151
0.0048274
0.00320597
0.00218786
0.00154105
0.00112701
0.000860823
0.000689513
0.000579461
0.000508959
0.000463803
0.000434707
0.000415675
0.000402853
0.000393767
0.000387021
0.000382043
0.000378333
0.311689
0.12546
0.0587565
0.031203
0.0182121
0.0113293
0.00730497
0.00482495
0.0032565
0.00225111
0.00160152
0.00117956
0.00090449
0.000724888
0.000607643
0.00053116
0.000481193
0.000448326
0.000426365
0.000411218
0.000400178
0.000391724
0.000385212
0.000380342
0.220609
0.0969894
0.0492911
0.0279994
0.017244
0.0111119
0.00734041
0.00493681
0.00337904
0.00236167
0.00169422
0.00125476
0.000964498
0.000772322
0.000644896
0.000560288
0.000503933
0.000466114
0.000440338
0.00042219
0.000408637
0.000397939
0.000389365
0.000383066
0.171171
0.0807883
0.0439038
0.0264433
0.0169903
0.0112518
0.0075834
0.00517619
0.00358374
0.00252725
0.00182502
0.0013571
0.00104434
0.000834592
0.000693469
0.000598192
0.00053355
0.000489324
0.000458587
0.000436509
0.000419645
0.000406044
0.00039508
0.000386875
0.145892
0.0729436
0.0417594
0.0263107
0.0174064
0.011781
0.00805819
0.00556219
0.00388506
0.00275872
0.0020021
0.00149284
0.00114888
0.000915532
0.000756451
0.000647398
0.000572124
0.000519656
0.000482491
0.000455285
0.000434124
0.000416852
0.000402968
0.000392215
0.135454
0.0710875
0.0421907
0.0274373
0.0185622
0.0127379
0.00880059
0.00612225
0.00430337
0.00307113
0.00223668
0.00167045
0.00128464
0.00102027
0.00083793
0.000711214
0.000622358
0.000559335
0.000513875
0.000480013
0.000453282
0.000431289
0.000413655
0.000399452
0.135133
0.0734102
0.0451126
0.0299667
0.0205184
0.0141935
0.00986455
0.00689569
0.00486709
0.00348517
0.00254404
0.00190141
0.00146037
0.0011556
0.000943284
0.000793966
0.00068779
0.000611282
0.000555161
0.00051268
0.000478691
0.000450505
0.000427912
0.000409024
0.142668
0.0805827
0.0506621
0.0340197
0.0234255
0.0162596
0.0113294
0.00793835
0.00561574
0.00402917
0.00294484
0.00220107
0.00168773
0.00133055
0.00107963
0.000901371
0.000773093
0.000679374
0.000609582
0.000555951
0.000512472
0.000476064
0.000446797
0.000421506
0.158764
0.0925045
0.0591487
0.0399291
0.0275258
0.0191041
0.0133103
0.0093293
0.00660428
0.00474203
0.00346716
0.00259014
0.00198232
0.00155713
0.0012564
0.001041
0.000884452
0.000768741
0.000681429
0.000613394
0.000557503
0.000510134
0.000471783
0.000437662
0.183768
0.110198
0.0713326
0.0482367
0.0331892
0.0229751
0.0159731
0.0111806
0.00790947
0.00567736
0.0041493
0.00309664
0.00236513
0.00185139
0.00148617
0.0012229
0.00103006
0.000886166
0.000776377
0.000689758
0.000617667
0.000555694
0.000504912
0.000458517
0.219707
0.135341
0.0884274
0.0597734
0.0409697
0.0282377
0.0195586
0.0136521
0.00963942
0.00690978
0.005044
0.00375875
0.0028645
0.00223492
0.00178576
0.00146045
0.00122077
0.00104063
0.00090194
0.000791346
0.000698166
0.000616807
0.000549013
0.000485455
0.26977
0.170445
0.112264
0.0757858
0.0516921
0.0354305
0.0244177
0.0169747
0.0119483
0.00854438
0.00622465
0.00462911
0.00351914
0.00273694
0.00217774
0.00177153
0.00147105
0.00124404
0.00106808
0.000926536
0.000805966
0.000698988
0.000607981
0.000520321
0.338419
0.219215
0.145548
0.0981291
0.0665861
0.0453542
0.0310693
0.0214863
0.015059
0.0107314
0.00779496
0.00578117
0.00438255
0.00339742
0.00269281
0.00218028
0.00180031
0.00151233
0.00128808
0.00110651
0.000950424
0.000809745
0.000687181
0.000565514
0.431952
0.286963
0.192223
0.129546
0.087487
0.0592082
0.0402885
0.0276881
0.0192995
0.0136893
0.00990393
0.00731929
0.00552986
0.00427199
0.00337326
0.0027197
0.00223494
0.00186706
0.00157988
0.00134639
0.00114428
0.000959452
0.000794113
0.000624069
0.558948
0.381116
0.257936
0.174052
0.117127
0.0787959
0.0532452
0.0363353
0.0251604
0.0177416
0.0127698
0.00939457
0.00706866
0.00543955
0.00427864
0.00343597
0.00281168
0.00233815
0.00196831
0.00166711
0.00140534
0.00116295
0.000939742
0.000699812
0.730776
0.511758
0.350546
0.237396
0.159522
0.106823
0.0717146
0.048578
0.0333865
0.0233765
0.0167185
0.0122304
0.00915657
0.00701475
0.00549502
0.00439576
0.00358371
0.0029691
0.00248975
0.00209954
0.00176018
0.00144315
0.00114183
0.000798241
0.962433
0.691995
0.480498
0.327504
0.220427
0.147289
0.0983817
0.0661773
0.0451232
0.0313419
0.0222465
0.0161639
0.0120294
0.00916824
0.00715042
0.00569882
0.00463173
0.00382758
0.00320256
0.00269513
0.00225498
0.00184219
0.00143596
0.000934065
1.27421
0.937956
0.660709
0.454624
0.307692
0.205926
0.137241
0.0918199
0.0621408
0.0427988
0.0301217
0.0217134
0.0160471
0.0121589
0.00943914
0.00749815
0.00608288
0.00502541
0.00421082
0.00355595
0.00299447
0.00247003
0.00193482
0.00122889
1.6961
1.26832
0.905499
0.630724
0.431204
0.290493
0.194027
0.129529
0.0871617
0.0595563
0.0415447
0.0296858
0.0217655
0.0163832
0.0126565
0.0100262
0.00813275
0.00674132
0.00569474
0.00488445
0.0042305
0.0036773
0.00325281
0.00324433
2.25067
1.70005
1.22721
0.86727
0.601779
0.410508
0.27644
0.185086
0.124285
0.0844151
0.0583979
0.0413479
0.0300497
0.0224474
0.0172428
0.013617
0.0110505
0.00921138
0.00788887
0.00695161
0.00631902
0.00595838
0.00596735
0.00664291
2.9598
2.23745
1.62694
1.16948
0.82782
0.575603
0.393655
0.266185
0.179395
0.121602
0.0836041
0.0586877
0.0422528
0.0312835
0.0238523
0.0187412
0.0151838
0.0127005
0.0109982
0.00990565
0.00932793
0.00924063
0.00971887
0.0109283
3.84045
2.82353
2.07505
1.52484
1.10821
0.791316
0.554167
0.381681
0.260218
0.177158
0.121571
0.0847937
0.0605
0.0443506
0.0334951
0.026109
0.0210431
0.0175859
0.0153088
0.0139616
0.0133992
0.0135491
0.0144336
0.0161142
4.81853
3.4251
2.5202
1.89392
1.42265
1.05168
0.760904
0.538904
0.375254
0.258846
0.178532
0.124302
0.0880897
0.0639469
0.0477641
0.0368298
0.0294112
0.0244297
0.0212314
0.0194237
0.0187594
0.0190667
0.020314
0.0224502
2.02461
2.77223
3.39415
3.49126
3.04731
3.17685
0.896415
1.23771
1.60142
1.73811
1.714
2.06781
0.239611
0.977258
1.27543
1.37331
1.41607
1.72274
0.261598
0.937756
1.18214
1.25739
1.31238
1.55567
0.275612
0.971368
1.15917
1.22286
1.27975
1.471
1.20325
1.05414
1.16414
1.22059
1.27753
1.43461
1.33867
1.11354
1.18466
1.23779
1.29568
1.42686
1.46083
1.1565
1.21074
1.26604
1.32721
1.4415
1.56182
1.18622
1.23865
1.30113
1.36805
1.47323
1.63876
1.20561
1.26748
1.3412
1.41569
1.51707
1.69167
1.21739
1.29756
1.3856
1.46885
1.56989
1.72229
1.22459
1.3296
1.43435
1.52685
1.62917
1.73226
1.22931
1.36426
1.48784
1.58941
1.69299
1.71635
1.23175
1.40234
1.54683
1.65673
1.76014
1.66996
1.23152
1.44473
1.61255
1.72983
1.8305
1.59396
1.2281
1.49234
1.68702
1.81095
1.90545
1.49123
1.2214
1.54627
1.77346
1.90444
1.98876
1.36701
1.21113
1.60791
1.87724
2.01822
2.08822
1.23403
1.19667
1.67873
2.0071
2.16483
2.22028
0.27872
1.17896
1.76033
2.17749
2.37195
2.42151
0.262041
1.16975
1.85832
2.41605
2.6971
2.77543
0.237284
1.17676
2.00006
2.78486
3.26691
3.53905
0.875542
1.27429
2.32856
3.51858
4.38179
5.98743
1.9091
1.99417
3.64582
5.68696
6.49855
26.3008
5.3216
4.16805
2.96437
2.2464
1.73864
1.33594
1.00556
0.73879
0.530694
0.374743
0.26226
0.183657
0.129929
0.0936282
0.0691729
0.0526649
0.0415225
0.0341022
0.0293846
0.0267356
0.0257356
0.0260765
0.0276085
0.0302204
5.15023
4.8187
3.59128
2.64657
2.05786
1.62446
1.27025
0.972165
0.725899
0.529887
0.380306
0.270585
0.192676
0.13861
0.101586
0.0763925
0.0593455
0.0479903
0.040747
0.0365942
0.0348346
0.0350008
0.0366696
0.0397798
3.93916
5.13789
4.45537
3.24035
2.44792
1.92958
1.54252
1.22336
0.951072
0.722138
0.536429
0.391943
0.283899
0.205735
0.150552
0.112231
0.0859685
0.0683065
0.0568862
0.050116
0.0468665
0.0464304
0.0480487
0.0516033
2.84398
4.89343
4.87457
4.13291
3.05858
2.33122
1.84651
1.48738
1.19333
0.941527
0.727115
0.550091
0.409568
0.302259
0.223018
0.166049
0.125987
0.0984809
0.0802865
0.0690741
0.0631076
0.0612567
0.0625421
0.0663554
2.25781
4.1036
4.89231
4.67519
3.88754
2.94052
2.2596
1.79455
1.45318
1.17752
0.942171
0.740002
0.570353
0.432926
0.325658
0.24474
0.185524
0.143475
0.114728
0.0962294
0.0855326
0.0808959
0.0812891
0.0849694
1.95735
3.28309
4.50396
4.79691
4.50086
3.73269
2.8741
2.22274
1.76706
1.43582
1.17331
0.951181
0.759495
0.596339
0.461547
0.354006
0.271154
0.209522
0.165472
0.135671
0.117171
0.107559
0.105645
0.108878
1.79796
2.71084
3.82119
4.57685
4.65172
4.35224
3.64272
2.84692
2.21336
1.7592
1.43176
1.17798
0.966457
0.783994
0.626927
0.49479
0.387128
0.302498
0.238616
0.192796
0.162293
0.144415
0.137691
0.139876
1.72328
2.362
3.23401
4.05708
4.52486
4.51979
4.23637
3.58196
2.8394
2.22142
1.76572
1.43773
1.18903
0.985896
0.811756
0.660776
0.531767
0.424611
0.338801
0.273171
0.226091
0.195609
0.180387
0.180249
1.69937
2.16946
2.82875
3.54584
4.14277
4.44338
4.40781
4.13177
3.5294
2.84228
2.24192
1.78377
1.45182
1.20463
1.00754
0.840813
0.696109
0.571055
0.465474
0.379511
0.312988
0.265677
0.237786
0.23215
1.708
2.07761
2.58305
3.16557
3.72783
4.16149
4.35265
4.29676
4.03194
3.48293
2.84875
2.26878
1.80991
1.47227
1.22339
1.02971
0.86913
0.730763
0.610635
0.507976
0.423117
0.357075
0.31252
0.297791
1.74028
2.0453
2.44776
2.91675
3.39908
3.832
4.14259
4.25673
4.18833
3.93424
3.43365
2.84883
2.29528
1.84146
1.4992
1.24621
1.05272
0.896101
0.763236
0.648431
0.549755
0.46721
0.404374
0.377164
1.78651
2.04457
2.37679
2.7593
3.1624
3.5496
3.87823
4.09723
4.1578
4.08016
3.83046
3.37335
2.83903
2.32074
1.88004
1.53605
1.27704
1.08005
0.92317
0.793189
0.683169
0.588665
0.509298
0.467467
1.84002
2.0615
2.33713
2.65193
2.98608
3.31832
3.62432
3.87265
4.02536
4.05027
3.96442
3.71653
3.30352
2.82476
2.34997
1.93042
1.58881
1.32322
1.11874
0.95719
0.825189
0.716125
0.622133
0.564782
1.89598
2.08359
2.30842
2.56424
2.83718
3.11519
3.38462
3.62652
3.81537
3.92252
3.92645
3.833
3.59279
3.23105
2.81329
2.38898
1.99896
1.66605
1.39496
1.17877
1.00704
0.869081
0.751944
0.673177
1.95139
2.1029
2.27806
2.4783
2.69461
2.92046
3.1485
3.36727
3.55998
3.70547
3.78176
3.77395
3.6772
3.46091
3.15791
2.80521
2.43795
2.08591
1.76937
1.49753
1.27116
1.08614
0.932557
0.820111
2.00524
2.11531
2.23976
2.38691
2.55079
2.72752
2.91275
3.0993
3.276
3.42825
3.53915
3.59207
3.57665
3.48539
3.30675
3.06653
2.78227
2.47588
2.1693
1.88
1.61928
1.39146
1.19684
1.04549
2.05802
2.11935
2.1927
2.29053
2.40822
2.54168
2.68648
2.83691
2.98485
3.12066
3.23306
3.30869
3.3393
3.31718
3.23653
3.09511
2.90786
2.68753
2.44769
2.19982
1.95566
1.72472
1.51667
1.35027
2.1118
2.1166
2.13941
2.19375
2.2747
2.37472
2.48674
2.60404
2.71838
2.82367
2.91308
2.97875
3.01382
3.01626
2.98027
2.90424
2.79135
2.64672
2.47699
2.29213
2.10173
1.91456
1.7445
1.61147
2.17131
2.10764
2.08375
2.10196
2.15832
2.23868
2.33142
2.42909
2.5221
2.59997
2.65608
2.68752
2.69647
2.68212
2.64315
2.58136
2.49887
2.39812
2.28203
2.15411
2.01932
1.88517
1.76212
1.65986
2.24443
2.09335
2.02667
2.01898
2.06406
2.14106
2.23757
2.34069
2.43489
2.50727
2.54725
2.56103
2.54305
2.49498
2.42283
2.33242
2.22925
2.11827
2.00371
1.88928
1.77815
1.67393
1.58325
1.49944
2.34424
2.07714
1.96683
1.94572
1.99278
2.08279
2.19779
2.31519
2.4221
2.50203
2.54397
2.55643
2.52972
2.46823
2.38031
2.27351
2.15448
2.02886
1.90111
1.77472
1.65297
1.53991
1.43945
1.34693
2.49808
2.05754
1.90562
1.88009
1.94151
2.05571
2.19564
2.34688
2.48802
2.5973
2.65889
2.68064
2.65143
2.57764
2.47343
2.34941
2.21426
2.07483
1.93618
1.80178
1.67422
1.55574
1.44681
1.34567
2.7441
2.02934
1.84186
1.82101
1.90763
2.05243
2.23364
2.42999
2.61025
2.74282
2.8055
2.8053
2.75201
2.66561
2.55344
2.42432
2.28645
2.14646
2.00936
1.87867
1.75676
1.64442
1.53856
1.43682
3.15428
1.98195
1.7764
1.77277
1.89316
2.07768
2.30661
2.54625
2.7455
2.84981
2.86312
2.82755
2.7457
2.63245
2.5012
2.36195
2.222
2.0863
1.95794
1.83861
1.72917
1.62935
1.53617
1.43979
)
;

boundaryField
{
    rotor
    {
        type            epsilonWallFunction;
        value           nonuniform List<scalar> 
144
(
1.88426
2.1751
4.38453
5.60036
6.04718
6.23178
1.88426
0.861164
0.23651
0.262597
1.18564
1.26984
1.40785
1.51976
1.60266
1.6554
1.67771
1.67379
1.6416
1.59273
1.53052
1.45272
1.35546
1.22536
0.278888
0.267951
0.251693
0.230007
0.864687
2.09854
2.09854
2.02696
1.8681
1.63287
1.37414
1.94294
2.14541
4.33375
7.14999
8.27619
9.26947
45.8556
2.14541
0.921082
0.249303
0.270746
1.19869
1.33239
1.45775
1.56413
1.64558
1.69878
1.7236
1.72335
1.70475
1.66139
1.59049
1.49521
1.38236
1.26069
1.18655
0.268178
0.24823
0.222336
0.813646
1.75748
1.75748
1.34662
2.32879
4.35815
5.38092
5.24738
1.81658
1.39367
2.42987
3.50142
4.03998
4.27692
1.81658
0.85315
0.232797
0.258392
0.280379
1.38295
1.63552
1.85555
2.03497
2.17172
2.26515
2.31521
2.32394
2.30855
2.28312
2.23739
2.16121
2.04328
1.86983
1.62289
1.28094
0.267768
1.02562
2.63192
2.63192
4.09439
5.8665
6.1399
5.83698
6.17933
2.02461
2.77223
3.39415
3.49126
3.04731
3.17685
2.02461
0.896415
0.239611
0.261598
0.275612
1.20325
1.33867
1.46083
1.56182
1.63876
1.69167
1.72229
1.73226
1.71635
1.66996
1.59396
1.49123
1.36701
1.23403
0.27872
0.262041
0.237284
0.875542
1.9091
1.9091
1.99417
3.64582
5.68696
6.49855
26.3008
)
;
    }
    freestream
    {
        type            inletOutlet;
        inletValue      uniform 0.000375;
        value           nonuniform List<scalar> 
96
(
1.17158
0.579998
0.255915
0.154328
0.115003
0.0952848
0.0805984
0.0721013
0.0657776
0.0593414
0.0531193
0.0471124
0.0412724
0.0356312
0.0302498
0.0251988
0.0205038
0.01616
0.0121276
0.00829988
0.00450647
0.000375
0.000375
0.000375
0.000375
0.000375
0.000375
0.000375
0.000375
0.000375
0.000375
0.000375
0.000375
0.000375
0.000375
0.000375
0.000375
0.000375
0.000375
0.000375
0.000375
0.000375
0.000375
0.000375
0.000375
0.000375
0.000375
0.000375
0.000375
0.000375
0.000375
0.000375
0.000375
0.000375
0.000375
0.000375
0.000375
0.000375
0.000375
0.000375
0.000375
0.000375
0.000375
0.000375
0.000375
0.000375
0.000375
0.00324433
0.00664291
0.0109283
0.0161142
0.0224502
0.0302204
0.0397798
0.0516033
0.0663554
0.0849694
0.108878
0.139876
0.180249
0.23215
0.297791
0.377164
0.467467
0.564782
0.673177
0.820111
1.04549
1.35027
1.61147
1.65986
1.49944
1.34693
1.34567
1.43682
1.43979
)
;
    }
    frontAndBack
    {
        type            empty;
    }
}


// ************************************************************************* //
