/*--------------------------------*- C++ -*----------------------------------*\
  =========                 |
  \\      /  F ield         | OpenFOAM: The Open Source CFD Toolbox
   \\    /   O peration     | Website:  https://openfoam.org
    \\  /    A nd           | Version:  11
     \\/     M anipulation  |
\*---------------------------------------------------------------------------*/
FoamFile
{
    format      ascii;
    class       volScalarField;
    location    "0.54";
    object      k;
}
// * * * * * * * * * * * * * * * * * * * * * * * * * * * * * * * * * * * * * //

dimensions      [0 2 -2 0 0 0 0];

internalField   nonuniform List<scalar> 
2880
(
0.00404079
0.00899726
0.0297975
0.0567865
0.0856019
0.118874
0.0165785
0.0246672
0.0491128
0.0737435
0.0985901
0.128281
0.0210078
0.0367086
0.0626908
0.0862565
0.110442
0.135025
0.0233269
0.0453236
0.0715642
0.0943636
0.11724
0.137269
0.0248669
0.0517849
0.0775028
0.0994195
0.120572
0.137885
0.0260872
0.0566955
0.0813293
0.102221
0.121753
0.137521
0.0279675
0.060072
0.0835664
0.103312
0.121444
0.136187
0.0294328
0.0622569
0.0845659
0.103097
0.119827
0.133905
0.0304939
0.0634673
0.0845671
0.101764
0.117139
0.130634
0.0311598
0.0638566
0.0837583
0.0995359
0.113558
0.126464
0.0314399
0.0636093
0.0822589
0.0965854
0.109247
0.121572
0.0313913
0.0627067
0.0801868
0.0930504
0.104367
0.116189
0.030988
0.0612476
0.0776242
0.0890494
0.0990759
0.110561
0.0303692
0.0592404
0.0746314
0.0846839
0.0935178
0.10492
0.0295723
0.0567006
0.0712516
0.0800392
0.0878155
0.0994879
0.0285604
0.0536307
0.0675078
0.075181
0.0820685
0.0944726
0.02727
0.0499973
0.0634082
0.0701532
0.0763572
0.0898575
0.0254979
0.0458229
0.058972
0.0649781
0.0707563
0.0855267
0.0247538
0.0415235
0.0542728
0.0596496
0.0652351
0.0815268
0.0237841
0.0375367
0.0493791
0.0541283
0.0596835
0.0775449
0.0223416
0.0336514
0.0441807
0.0482969
0.0537943
0.0735651
0.0204166
0.0293468
0.038192
0.0418065
0.0468033
0.0691232
0.0166372
0.0231696
0.029923
0.0335887
0.0370285
0.0627423
0.00449723
0.00840997
0.0127512
0.0166076
0.019493
0.0367095
0.159513
0.159805
0.154407
0.151825
0.151109
0.152517
0.155776
0.158575
0.159247
0.157107
0.153146
0.148689
0.144925
0.142187
0.140159
0.138346
0.136547
0.134774
0.133117
0.131625
0.130348
0.129166
0.128153
0.126364
0.152483
0.152966
0.148828
0.147067
0.147128
0.149921
0.154237
0.157014
0.155812
0.147312
0.136739
0.128144
0.122223
0.118043
0.11431
0.110321
0.105958
0.101406
0.0969057
0.0926298
0.0887683
0.0851551
0.0821731
0.0785496
0.14909
0.149724
0.147078
0.146545
0.148378
0.153275
0.158901
0.161171
0.157118
0.143779
0.129554
0.119014
0.112228
0.107679
0.103321
0.0984958
0.093186
0.0876069
0.0819899
0.0765068
0.0713138
0.0663565
0.0618656
0.0578057
0.147979
0.149603
0.148747
0.150249
0.154984
0.162546
0.169048
0.168938
0.159303
0.140293
0.124206
0.113687
0.107688
0.103101
0.0983848
0.093115
0.0873995
0.081434
0.0754519
0.0696634
0.0642785
0.0593731
0.0552472
0.0524996
0.148042
0.151259
0.153125
0.157797
0.165924
0.175794
0.180569
0.175445
0.158105
0.135321
0.119856
0.111529
0.106103
0.101431
0.0964329
0.0908154
0.08476
0.0785553
0.0724675
0.0667104
0.0614424
0.0569315
0.0537858
0.0520055
0.148349
0.154017
0.159278
0.167761
0.179618
0.190204
0.189808
0.177781
0.151783
0.129939
0.117927
0.111055
0.105737
0.10054
0.0947234
0.0883431
0.0817971
0.0754273
0.0694965
0.0642055
0.0596936
0.0563213
0.0541457
0.0535232
0.148148
0.156685
0.165978
0.179007
0.194256
0.201329
0.19393
0.171522
0.143547
0.126554
0.117598
0.111195
0.105302
0.0988892
0.0918583
0.0847002
0.077836
0.0715788
0.0661568
0.0617498
0.0585164
0.0565523
0.0559005
0.056228
0.146932
0.158718
0.172761
0.190983
0.207535
0.206086
0.191557
0.160419
0.13755
0.125598
0.117834
0.111076
0.10385
0.0960724
0.0882232
0.0807501
0.0740047
0.0682344
0.0636176
0.0602883
0.0583373
0.0576605
0.0579775
0.0589132
0.144629
0.160104
0.179907
0.203333
0.214349
0.206589
0.179215
0.15054
0.13529
0.125724
0.117822
0.109618
0.100912
0.0922016
0.0839765
0.0766051
0.0703363
0.0653295
0.0616759
0.0593966
0.0584315
0.0586203
0.0595926
0.0609293
0.141428
0.161367
0.188268
0.214838
0.215871
0.198997
0.165926
0.146845
0.135097
0.125744
0.116402
0.106596
0.0968221
0.0876202
0.0793874
0.0723779
0.066743
0.0625561
0.0598161
0.0584383
0.058257
0.0588834
0.060271
0.0617197
0.137702
0.163468
0.198611
0.220187
0.212713
0.184297
0.160573
0.146119
0.135127
0.12451
0.113423
0.102371
0.0919696
0.0826623
0.0747032
0.0682198
0.0632636
0.0598264
0.0578326
0.0571381
0.0574522
0.0585515
0.0602031
0.0617182
0.133969
0.167609
0.210433
0.220726
0.20394
0.176152
0.159145
0.146271
0.134295
0.121754
0.109176
0.0973049
0.0866708
0.0775456
0.0700272
0.0641247
0.0598034
0.0569893
0.0555561
0.0553266
0.0559453
0.0573377
0.0591126
0.0606519
0.130803
0.174766
0.219019
0.216148
0.193421
0.173999
0.159423
0.146089
0.132007
0.117658
0.103999
0.0917281
0.0811765
0.0724209
0.0654126
0.0600633
0.0562746
0.0539295
0.052876
0.0529185
0.0537233
0.0552306
0.0570265
0.058543
0.128729
0.185103
0.221234
0.210512
0.189675
0.174452
0.159956
0.144615
0.128347
0.112546
0.0982423
0.0859168
0.0756622
0.0673716
0.0608756
0.0560117
0.0526374
0.0506131
0.049782
0.0499373
0.0508256
0.0523267
0.0540778
0.0555489
0.128082
0.196998
0.219083
0.205593
0.189856
0.176468
0.160045
0.14182
0.123535
0.106729
0.0921737
0.0800526
0.0702263
0.0624351
0.0564175
0.0519571
0.0488833
0.0470484
0.0463037
0.0464646
0.0473151
0.0487292
0.0503872
0.0518009
0.128423
0.207375
0.215475
0.204663
0.19392
0.177901
0.158493
0.137621
0.117838
0.100494
0.0860062
0.0742644
0.0649324
0.0576345
0.0520431
0.047905
0.0450323
0.0432772
0.0425068
0.042576
0.043287
0.044542
0.0460638
0.0474114
0.128601
0.213686
0.214463
0.208152
0.198634
0.178735
0.155534
0.132353
0.111572
0.0940771
0.0798894
0.0686318
0.0598154
0.0529824
0.0477616
0.0438758
0.0411254
0.0393652
0.0384788
0.0383577
0.0388446
0.0398609
0.0411962
0.0424662
0.126002
0.216131
0.218101
0.214917
0.202464
0.17791
0.151155
0.126263
0.104981
0.0876517
0.0739243
0.0632067
0.0548997
0.0484937
0.0435925
0.0399038
0.0372197
0.0353941
0.0343225
0.0339208
0.0340959
0.0347655
0.035837
0.0370032
0.1222
0.218169
0.226732
0.223537
0.20453
0.175029
0.145555
0.119615
0.0982689
0.0813448
0.0681825
0.0580282
0.0502105
0.0441925
0.0395672
0.036036
0.0333841
0.0314599
0.0301585
0.0294062
0.0291467
0.0293379
0.0299842
0.0309691
0.125362
0.224758
0.238941
0.232398
0.204982
0.170617
0.139092
0.112655
0.0915849
0.075242
0.0627133
0.0531299
0.0457788
0.0401144
0.0357313
0.0323319
0.0296976
0.0276679
0.0261248
0.0249811
0.0241726
0.0236775
0.0235927
0.0241358
0.147943
0.239239
0.253411
0.237932
0.20204
0.164556
0.131914
0.105525
0.0850271
0.0694033
0.0575562
0.0485455
0.0416426
0.0363075
0.0321455
0.0288665
0.0262532
0.0241373
0.022383
0.020871
0.0194861
0.0181259
0.0167885
0.0159716
0.176939
0.260613
0.268022
0.240335
0.197283
0.157372
0.124278
0.0983677
0.0786733
0.0638715
0.0527395
0.044303
0.0378387
0.0328236
0.0288803
0.0257319
0.0231686
0.0210238
0.0191551
0.0174262
0.0156862
0.0137535
0.0113955
0.00777733
0.209139
0.286207
0.278738
0.238147
0.190284
0.149102
0.116295
0.0912695
0.0725731
0.0586717
0.0482768
0.0404152
0.0343868
0.0296954
0.0259868
0.0230026
0.0205488
0.0184732
0.0166499
0.0149639
0.0132966
0.0115176
0.00946786
0.00659609
0.252986
0.311332
0.283285
0.230616
0.180992
0.139927
0.108112
0.0843162
0.0667671
0.0538158
0.0441649
0.036872
0.0312748
0.0269104
0.0234513
0.0206607
0.0183624
0.0164206
0.0147256
0.0131788
0.0116771
0.0101092
0.00836936
0.00610551
0.0046078
0.0180719
0.049003
0.0844547
0.131858
0.170671
0.0177447
0.0435324
0.085658
0.128524
0.182049
0.276331
0.0221543
0.0561405
0.102115
0.148646
0.20305
0.280971
0.0240554
0.0644185
0.111257
0.157702
0.208413
0.268365
0.0251528
0.0705908
0.116516
0.160637
0.206618
0.252344
0.0270453
0.0751023
0.119373
0.1603
0.200604
0.235837
0.0287282
0.0784517
0.120596
0.15793
0.192736
0.220026
0.0301176
0.0808242
0.120604
0.154404
0.184297
0.205513
0.0311596
0.0822719
0.119645
0.150241
0.175978
0.192552
0.0318304
0.0828224
0.117914
0.145776
0.168141
0.181184
0.0321403
0.082515
0.115574
0.141228
0.160962
0.171325
0.0321363
0.0814002
0.112763
0.136736
0.15447
0.162859
0.0319018
0.0795268
0.109581
0.132367
0.148627
0.155648
0.0313553
0.0769719
0.106084
0.12812
0.143377
0.14953
0.0304525
0.0737945
0.102276
0.123944
0.138637
0.144343
0.0292181
0.0700195
0.0981156
0.119749
0.134294
0.139929
0.0277225
0.0656346
0.0935009
0.1154
0.130215
0.136128
0.0260865
0.0605942
0.088258
0.110698
0.126233
0.132773
0.0248843
0.0547908
0.0821157
0.105366
0.122128
0.129673
0.0237714
0.0481699
0.0746627
0.0989991
0.117596
0.126611
0.022055
0.0406264
0.0652793
0.0909814
0.112148
0.123384
0.0197633
0.0317116
0.0530093
0.080338
0.104853
0.119651
0.0156803
0.0202965
0.0360085
0.0649283
0.0939688
0.114074
0.00377499
0.0056197
0.0160175
0.0445707
0.076629
0.0993867
0.316727
0.322604
0.278194
0.22007
0.170079
0.130154
0.0998964
0.0775941
0.0612887
0.0493056
0.0403877
0.033646
0.0284659
0.024421
0.0212115
0.0186214
0.0164906
0.0146971
0.0131428
0.0117394
0.0103933
0.00900959
0.00752511
0.00572021
0.345826
0.318794
0.262328
0.205909
0.157829
0.120064
0.0918246
0.0711892
0.056166
0.0451369
0.0369228
0.030704
0.0259179
0.0221756
0.0192037
0.0168054
0.0148354
0.0131831
0.0117602
0.0104875
0.00928206
0.00806711
0.00681221
0.00537912
0.323997
0.297813
0.243503
0.190164
0.1451
0.110082
0.0840996
0.0651841
0.05142
0.0413007
0.0337474
0.0280157
0.0235955
0.0201342
0.0173833
0.0151637
0.0133435
0.0118226
0.0105219
0.00937128
0.00829887
0.00724483
0.00619989
0.00507482
0.298599
0.273762
0.223443
0.17406
0.132593
0.100566
0.076877
0.0596321
0.0470574
0.0377843
0.0308407
0.025557
0.0214735
0.0182712
0.0157246
0.0136713
0.0119915
0.010595
0.00941117
0.00837858
0.00743532
0.00653497
0.00567989
0.00480958
0.27342
0.249364
0.203571
0.158528
0.120805
0.0917399
0.0702408
0.054553
0.0430719
0.034572
0.0281845
0.0233099
0.0195349
0.0165711
0.0142142
0.0123168
0.0107703
0.00949358
0.00842369
0.00750648
0.00668846
0.00593278
0.00524608
0.00458394
0.249994
0.226479
0.184987
0.144155
0.110008
0.0837082
0.0642167
0.0499416
0.0394485
0.0316469
0.0257632
0.021261
0.0177683
0.0150248
0.0128451
0.0110952
0.00967683
0.00851669
0.00755849
0.00675389
0.00605571
0.00543307
0.00489179
0.00439626
0.228955
0.205899
0.168212
0.131205
0.100303
0.0764903
0.0587931
0.045778
0.0361674
0.0289924
0.0235633
0.0193995
0.0161657
0.0136262
0.0116127
0.0100033
0.00870863
0.00766226
0.00681313
0.00611712
0.00553123
0.00502756
0.00460824
0.00424302
0.21051
0.187873
0.153405
0.119734
0.0916836
0.0700563
0.0539375
0.0420342
0.0332069
0.0265919
0.0215724
0.0177161
0.0147201
0.0123701
0.010513
0.00903762
0.00786233
0.00692641
0.0061826
0.00558933
0.00510591
0.00470541
0.00438536
0.00411971
0.194561
0.172385
0.14052
0.109679
0.0840833
0.0643498
0.0496065
0.0386789
0.0305444
0.0244292
0.0197786
0.0162021
0.0134246
0.0112509
0.00954104
0.00819325
0.00713265
0.00630289
0.0056591
0.0051607
0.00476806
0.00445424
0.0042128
0.00402178
0.180929
0.159197
0.129396
0.100917
0.0774077
0.0593026
0.0457526
0.0356793
0.0281573
0.0224882
0.0181701
0.0148483
0.0122718
0.010262
0.00869054
0.00746379
0.00651244
0.0057833
0.00523249
0.00481932
0.00450463
0.00426154
0.004081
0.00394507
0.169401
0.148002
0.119825
0.0932962
0.0715519
0.0548433
0.0423281
0.0330033
0.0260233
0.0207529
0.016735
0.0136452
0.0112537
0.00939606
0.00795413
0.00684141
0.00599299
0.00535756
0.0048911
0.00455226
0.00430254
0.00411578
0.00398171
0.003886
0.159726
0.13852
0.111595
0.0866669
0.066412
0.0509024
0.0392868
0.0306197
0.024121
0.0192079
0.0154613
0.0125831
0.0103615
0.0086447
0.00732347
0.00631725
0.00556445
0.00501453
0.00462257
0.00434668
0.00414975
0.00400706
0.0039081
0.00384153
0.151664
0.130499
0.104509
0.0808863
0.0618904
0.0474147
0.0365853
0.0284993
0.0224295
0.0178377
0.014337
0.0116517
0.00958593
0.00799907
0.00678952
0.00588175
0.00521639
0.00474273
0.00441479
0.00419081
0.00403584
0.00392722
0.00385468
0.00380903
0.145
0.123721
0.098387
0.0758241
0.0578973
0.04432
0.0341834
0.0266144
0.0209295
0.0166278
0.0133502
0.0108409
0.00891771
0.00745
0.00634296
0.00552505
0.00493817
0.00453095
0.00425663
0.00407442
0.00395221
0.00386969
0.003817
0.00378619
0.139547
0.117994
0.0930695
0.071362
0.0543505
0.0415627
0.0320435
0.0249394
0.0196026
0.0155643
0.0124898
0.0101408
0.00834758
0.00698843
0.00597446
0.00523731
0.00471945
0.00436875
0.00413827
0.003989
0.00389193
0.00382913
0.00379131
0.00377091
0.135151
0.113147
0.0884096
0.0673912
0.051174
0.0390914
0.0301313
0.0234507
0.0184318
0.0146342
0.0117451
0.00954209
0.00786683
0.00660572
0.00567512
0.00500918
0.00455063
0.00424683
0.00405144
0.00392768
0.00384958
0.00380136
0.00377446
0.0037611
0.13168
0.10903
0.0842701
0.0638092
0.0482965
0.0368584
0.0284151
0.0221268
0.0174017
0.0138258
0.0111065
0.00903633
0.00746756
0.00629409
0.00543696
0.00483243
0.00442347
0.00415752
0.00398955
0.00388525
0.00382126
0.00378345
0.00376409
0.00375513
0.129016
0.105493
0.0805151
0.0605147
0.0456496
0.0348203
0.0268669
0.0209488
0.0164989
0.0131288
0.0105655
0.00861599
0.00714274
0.00604665
0.00525306
0.00470011
0.00433133
0.00409491
0.00394761
0.00385756
0.00380363
0.00377323
0.00375846
0.00375206
0.127044
0.102384
0.076996
0.0574035
0.0431723
0.0329407
0.0254635
0.019901
0.015712
0.0125341
0.0101146
0.00827438
0.00688609
0.00585727
0.00511729
0.00460626
0.00426876
0.00405435
0.00392184
0.00384159
0.00379427
0.0037684
0.00375613
0.00375103
0.125625
0.0995048
0.0735416
0.0543737
0.0408117
0.0311915
0.024188
0.0189719
0.0150321
0.0120347
0.00974737
0.00800572
0.00669207
0.0057205
0.00502432
0.00454587
0.00423137
0.00403226
0.00390949
0.00383534
0.00379183
0.0037679
0.00375617
0.00375103
0.124535
0.0965571
0.0699475
0.0513273
0.0385259
0.0295541
0.0230304
0.0181541
0.0144533
0.0116251
0.00945901
0.00780531
0.00655615
0.00563194
0.00496998
0.00451517
0.00421608
0.00402619
0.00390868
0.00383727
0.00379487
0.00377073
0.00375798
0.0037516
0.123294
0.0930292
0.0659719
0.0481804
0.0362921
0.0280225
0.021988
0.0174452
0.0139727
0.0113021
0.00924603
0.00766968
0.00647492
0.00558834
0.00495142
0.00451165
0.00422064
0.00403465
0.00391829
0.00384653
0.00380284
0.0037767
0.00376152
0.00375289
0.120359
0.0880283
0.0613595
0.0448918
0.0341179
0.0266071
0.0210668
0.0168474
0.0135902
0.0110645
0.00910655
0.00759668
0.00644632
0.00558754
0.00496632
0.00453424
0.00424496
0.00405741
0.00393823
0.00386316
0.00381584
0.00378585
0.00376692
0.00375499
0.11234
0.0803494
0.0559772
0.041521
0.032056
0.0253371
0.0202814
0.0163679
0.0133089
0.0109131
0.00904027
0.00758538
0.00646875
0.00562935
0.00501588
0.00458335
0.00428925
0.00409513
0.00396923
0.00388785
0.00383454
0.00379881
0.00377471
0.00375836
0.00390158
0.00578485
0.0165623
0.0356748
0.0574985
0.0810172
0.0164303
0.0205349
0.0334904
0.0511925
0.06621
0.0740296
0.0206633
0.0330749
0.0469288
0.0607911
0.0677537
0.0689644
0.0228935
0.0425867
0.0560614
0.0650214
0.0679911
0.0647998
0.0249376
0.0502087
0.0624255
0.0678212
0.0682933
0.0621492
0.0277216
0.0561575
0.0670949
0.0705772
0.0689074
0.061128
0.0309225
0.0609174
0.0710176
0.0733967
0.0700759
0.0613997
0.0336295
0.0648942
0.0746424
0.0763845
0.0719522
0.0628476
0.0357642
0.0683335
0.0782071
0.0796562
0.07461
0.0654192
0.0373498
0.0713795
0.0818398
0.0833061
0.0780758
0.0689798
0.0384139
0.0741014
0.0855923
0.0873983
0.0823495
0.0735198
0.0389776
0.0765016
0.0894471
0.0919541
0.087448
0.0790661
0.0390749
0.078522
0.0933348
0.0969633
0.0933682
0.0856669
0.0389002
0.0800429
0.0971317
0.102339
0.100077
0.0933809
0.0386124
0.080893
0.10067
0.107958
0.107478
0.102245
0.0380934
0.0809211
0.103709
0.113588
0.115473
0.112186
0.0372217
0.0799546
0.105931
0.118876
0.123826
0.12303
0.035852
0.0777746
0.106947
0.123327
0.132006
0.134761
0.0337893
0.0742274
0.106478
0.126292
0.139241
0.147008
0.030741
0.0692043
0.104016
0.126882
0.144365
0.158799
0.0262542
0.0625605
0.0988985
0.124547
0.14552
0.168412
0.0237565
0.0539873
0.0901773
0.116957
0.141061
0.172754
0.0197219
0.0421856
0.075191
0.100365
0.125839
0.165339
0.00563366
0.0170087
0.0400866
0.0624854
0.0828118
0.116643
0.094476
0.0694204
0.0501721
0.0382883
0.030207
0.0242573
0.0196528
0.0160174
0.0131343
0.0108506
0.00904847
0.00763676
0.00654422
0.00571436
0.00510028
0.00466025
0.00435521
0.00414946
0.00401282
0.00392196
0.00386012
0.00381661
0.00378579
0.00376376
0.0771348
0.0588891
0.0449452
0.0355108
0.0286867
0.023417
0.0192055
0.0158092
0.0130742
0.0108812
0.00913377
0.00775252
0.00667334
0.00584424
0.00522175
0.00476739
0.00444543
0.00422291
0.00407125
0.00396744
0.00389427
0.00384076
0.00380147
0.00377227
0.0649205
0.051141
0.0409165
0.0334023
0.0275787
0.0228555
0.0189609
0.0157553
0.013135
0.0110097
0.0092997
0.00793556
0.00685908
0.00602194
0.00538352
0.00490822
0.00456338
0.00431879
0.00414755
0.00402701
0.00393944
0.00387331
0.00382275
0.00378475
0.0571706
0.0461924
0.038244
0.0320335
0.0269216
0.0225974
0.0189347
0.0158662
0.0133248
0.0112421
0.00955122
0.00819034
0.00710572
0.0062518
0.00559015
0.00508749
0.00471389
0.00444175
0.00424595
0.00410435
0.0039985
0.00391602
0.00385053
0.00380153
0.052898
0.0434926
0.0368087
0.0313802
0.0267216
0.0226478
0.0191366
0.016151
0.0136515
0.0115854
0.00989461
0.00852281
0.00741913
0.00653979
0.00584783
0.00531166
0.00490349
0.00459805
0.00437204
0.00420395
0.00407468
0.00397131
0.0038882
0.00382474
0.0511413
0.0425084
0.0364262
0.0313833
0.0269464
0.0230191
0.0195758
0.0166185
0.0141236
0.0120475
0.0103377
0.00894049
0.00780669
0.00689335
0.00616415
0.00558847
0.00513998
0.00479529
0.00453285
0.00433199
0.00417335
0.00404395
0.00393926
0.00385682
0.0511801
0.0427773
0.0368556
0.0319756
0.0276239
0.0237127
0.0202601
0.0172784
0.014751
0.0126384
0.0108897
0.00945235
0.00827712
0.00732102
0.00654761
0.00592646
0.00543195
0.00504198
0.00473654
0.00449601
0.00430109
0.00413917
0.00400724
0.00389964
0.0524755
0.0441167
0.0381382
0.0331699
0.0287311
0.0247342
0.0212
0.0181426
0.0155457
0.0133694
0.0115617
0.0100688
0.00884034
0.00783234
0.0070075
0.00633482
0.00578864
0.00534747
0.00499241
0.00470482
0.00446563
0.00426301
0.0040962
0.00395526
0.0550195
0.0464372
0.0401546
0.0349286
0.0302744
0.0260966
0.0224109
0.0192266
0.0165225
0.0142543
0.0123663
0.0108016
0.00950744
0.00843783
0.00755389
0.0068234
0.00621993
0.00572184
0.00531067
0.00496841
0.00467605
0.00442278
0.0042112
0.00402622
0.0585696
0.0496297
0.0428929
0.0372644
0.0322747
0.0278228
0.0239149
0.0205505
0.0176995
0.0153094
0.0133183
0.0116642
0.0102908
0.00914899
0.00819767
0.00740269
0.00673619
0.00617559
0.00570208
0.00529754
0.00494255
0.00462716
0.00435847
0.00411548
0.0631118
0.0537092
0.0463849
0.040216
0.0347708
0.0299477
0.0257422
0.0221404
0.0190989
0.0165539
0.0144345
0.0126717
0.011204
0.00997844
0.0089506
0.00808385
0.00734821
0.00671945
0.00617755
0.00570334
0.00527605
0.00488586
0.00454527
0.00422645
0.0686957
0.0587479
0.050704
0.043852
0.0378222
0.0325212
0.0279339
0.0240297
0.0207484
0.018011
0.0157346
0.0138413
0.0122625
0.01094
0.00982532
0.00887864
0.00806717
0.0073643
0.00674792
0.0061968
0.00568756
0.00520919
0.0047796
0.0043628
0.0754207
0.0648655
0.0559653
0.0482738
0.0415138
0.0356121
0.0305446
0.0262619
0.0226824
0.0197086
0.017242
0.0151927
0.0134833
0.0120487
0.0108356
0.00979967
0.0089048
0.00812124
0.00742399
0.00678867
0.00618789
0.00560747
0.00506973
0.00452796
0.0834175
0.0722217
0.062324
0.053619
0.0459607
0.0393125
0.0336465
0.0288928
0.0249449
0.0216815
0.0189846
0.0167492
0.0148862
0.0133221
0.0119967
0.0108608
0.00987376
0.00900206
0.00821691
0.00748977
0.00678773
0.00609098
0.00542385
0.00472431
0.0928275
0.0810061
0.0699729
0.0600634
0.0513123
0.0437435
0.0373345
0.0319958
0.0275921
0.0239735
0.0209973
0.0185391
0.0164949
0.0147802
0.0133265
0.012078
0.0109887
0.0100202
0.00913922
0.008312
0.00749863
0.00667076
0.00585041
0.0049523
0.103774
0.0914186
0.0791305
0.0678174
0.0577553
0.0490606
0.0417325
0.0356669
0.0306978
0.0266414
0.0233246
0.0205981
0.0183391
0.0164487
0.0148476
0.0134716
0.0122683
0.0111932
0.0102074
0.00927097
0.00833568
0.00736133
0.00636046
0.00521007
0.11632
0.103636
0.0900122
0.0771097
0.0655084
0.055456
0.046999
0.0400314
0.034359
0.0297601
0.0260249
0.0229731
0.0204575
0.0183609
0.0165901
0.0150703
0.0137403
0.0125484
0.0114484
0.0103932
0.0093251
0.00818883
0.00697559
0.0054961
0.130209
0.117759
0.102771
0.0881459
0.074801
0.0631521
0.0533295
0.0452502
0.0387029
0.0334285
0.0291756
0.0257259
0.0229019
0.0205626
0.0185971
0.016917
0.0154499
0.0141347
0.0129159
0.0117367
0.0105291
0.00921928
0.00775769
0.00583429
0.145003
0.13367
0.117381
0.101027
0.0858226
0.0723769
0.0609493
0.0515222
0.0438934
0.0377772
0.0328795
0.0289392
0.0257413
0.0231154
0.0209285
0.0190752
0.0174701
0.0160408
0.0147212
0.0134438
0.0121286
0.0106787
0.00897418
0.00655192
0.160229
0.150613
0.133451
0.115621
0.0986317
0.0833071
0.0700859
0.0590759
0.0501334
0.0429739
0.0372715
0.0327209
0.0290647
0.0260974
0.0236591
0.0216253
0.0198973
0.0183946
0.0170476
0.0157917
0.0145634
0.0133255
0.0122345
0.0120463
0.174809
0.166882
0.150053
0.13139
0.113017
0.0959677
0.0809063
0.0681392
0.0576547
0.0492251
0.0425225
0.0372081
0.0329814
0.0295973
0.0268645
0.024637
0.0228052
0.0212891
0.0200341
0.0190089
0.0182002
0.0176426
0.0175795
0.0185348
0.185253
0.179615
0.165357
0.147155
0.128307
0.110079
0.0934055
0.0788693
0.0666841
0.0567644
0.0488401
0.0425705
0.0376229
0.033712
0.0306111
0.0281492
0.0262042
0.0246973
0.0235887
0.0228701
0.0225516
0.0226762
0.0234149
0.0249784
0.18346
0.183054
0.175837
0.160886
0.143175
0.124869
0.107245
0.091231
0.0773657
0.065813
0.0564547
0.0490114
0.0431509
0.0385595
0.0349759
0.0322013
0.0300983
0.028585
0.0276259
0.0272144
0.0273372
0.0279921
0.0293196
0.0312416
0.162083
0.178363
0.177276
0.169853
0.1556
0.138944
0.121576
0.104826
0.0896265
0.0764937
0.065576
0.0567537
0.0497616
0.0442924
0.0400638
0.0368522
0.0345031
0.0329257
0.0320771
0.031934
0.0324028
0.0335158
0.035276
0.0374702
0.00433944
0.0114885
0.023124
0.0354434
0.04315
0.0598201
0.0172431
0.0301691
0.046346
0.0590462
0.0668914
0.0849504
0.0212621
0.0389972
0.0575826
0.0705028
0.0798672
0.0960098
0.023212
0.0449688
0.0650052
0.07827
0.0885343
0.10331
0.0244541
0.0498134
0.0707088
0.084425
0.0954245
0.109328
0.0251815
0.0542076
0.0754515
0.0897098
0.101417
0.114828
0.0270328
0.0580916
0.079534
0.0944315
0.10688
0.120057
0.0286516
0.0614313
0.0830732
0.0987278
0.111998
0.125207
0.0299574
0.0641938
0.0861071
0.102657
0.116865
0.130374
0.0309344
0.0663649
0.0886497
0.10624
0.121513
0.135571
0.031598
0.0679364
0.0907039
0.109473
0.125936
0.140742
0.0319795
0.0688952
0.0922606
0.11233
0.13009
0.145793
0.0321053
0.0692126
0.0932952
0.114765
0.133907
0.150602
0.0319105
0.0689067
0.0937653
0.116708
0.137296
0.155041
0.0313351
0.0679514
0.0936042
0.118064
0.140149
0.158986
0.0303796
0.0663044
0.0927175
0.118708
0.142344
0.16233
0.029063
0.0639017
0.0909775
0.11848
0.143738
0.164989
0.0274293
0.0606528
0.0882142
0.11717
0.144118
0.16691
0.0256236
0.0564265
0.0841993
0.114499
0.143288
0.167999
0.0247426
0.0509965
0.0786137
0.110065
0.140799
0.167972
0.0232619
0.0444272
0.0709794
0.103279
0.135971
0.166366
0.0210638
0.0360921
0.0604838
0.0932213
0.127556
0.162055
0.0168464
0.0245243
0.0453262
0.0782293
0.113147
0.150499
0.00409291
0.00827321
0.024916
0.0578721
0.0921604
0.115943
0.159897
0.174215
0.176069
0.172871
0.164027
0.150617
0.135044
0.118758
0.103006
0.0886844
0.0762944
0.0659882
0.0576672
0.0510994
0.0460194
0.0421954
0.0394594
0.0377091
0.0368857
0.0369309
0.0376666
0.0391578
0.0412746
0.0437129
0.163652
0.182032
0.179345
0.174903
0.16837
0.158679
0.146143
0.131694
0.116555
0.101853
0.0884257
0.0767623
0.0670337
0.059181
0.0530266
0.0483709
0.0450524
0.0429635
0.0420295
0.0421418
0.0430602
0.0448435
0.0472696
0.0499448
0.154637
0.197363
0.192256
0.181529
0.172643
0.16414
0.154239
0.142384
0.129003
0.11501
0.101362
0.0888174
0.0778536
0.0686711
0.0612711
0.0555571
0.0514181
0.0487671
0.0475258
0.0475704
0.0485296
0.0505104
0.0531991
0.0561121
0.145567
0.199536
0.208193
0.198161
0.182522
0.170501
0.160569
0.150492
0.139273
0.126928
0.114066
0.101459
0.0897798
0.0794934
0.0708445
0.0639194
0.058727
0.0552527
0.0534541
0.0532247
0.0540817
0.0561071
0.0589982
0.0621486
0.141533
0.192446
0.217435
0.215145
0.201786
0.183337
0.168881
0.15761
0.147338
0.136711
0.125364
0.113608
0.102025
0.0911986
0.0815868
0.0734954
0.0671171
0.0625776
0.0599363
0.059147
0.0597474
0.0616111
0.0646104
0.067985
0.140488
0.182566
0.215877
0.226553
0.220586
0.203802
0.183729
0.167485
0.155078
0.144624
0.134547
0.124155
0.113476
0.102904
0.0929349
0.0840276
0.0765619
0.0708465
0.0671085
0.0654351
0.0655931
0.0670266
0.0699835
0.0735423
0.141491
0.175573
0.208982
0.229381
0.232353
0.22433
0.205491
0.18415
0.166402
0.152934
0.14224
0.13263
0.123127
0.113488
0.103922
0.0948385
0.0867004
0.0799641
0.0750428
0.0722312
0.0716108
0.0725041
0.075051
0.078734
0.144078
0.172344
0.202096
0.226203
0.238082
0.237094
0.227351
0.206859
0.184737
0.165726
0.151198
0.14013
0.130843
0.122124
0.113473
0.104911
0.0967573
0.0894736
0.0835797
0.0795681
0.0777867
0.078046
0.0798639
0.0835293
0.147823
0.171979
0.197978
0.22145
0.237965
0.244274
0.241193
0.229422
0.208564
0.185834
0.165657
0.149997
0.138352
0.129166
0.121066
0.11331
0.10573
0.0985421
0.0921878
0.0872236
0.0841918
0.083529
0.0845968
0.0877886
0.152385
0.17381
0.196673
0.218241
0.235802
0.246772
0.249095
0.244538
0.231527
0.210522
0.187383
0.166296
0.149545
0.137134
0.127766
0.120025
0.112985
0.106299
0.100063
0.0946611
0.0906513
0.088731
0.0891027
0.0915612
0.15745
0.177094
0.197409
0.216953
0.233872
0.246554
0.253311
0.253176
0.247464
0.233307
0.212392
0.189376
0.167882
0.150253
0.136945
0.127058
0.119301
0.112673
0.106666
0.101252
0.0967189
0.0936256
0.0931116
0.0947659
0.162719
0.181137
0.199382
0.216878
0.232556
0.245372
0.254231
0.258049
0.256561
0.249524
0.234551
0.214386
0.192112
0.170773
0.152597
0.138376
0.127659
0.119455
0.112754
0.10703
0.102169
0.0982804
0.0964229
0.0974109
0.167909
0.185335
0.201727
0.217236
0.231377
0.243581
0.253167
0.259301
0.261169
0.258695
0.250619
0.235886
0.21692
0.195936
0.175351
0.157089
0.142101
0.130362
0.121258
0.11398
0.107969
0.103088
0.0996239
0.0998165
0.172768
0.189213
0.203748
0.217245
0.229705
0.24091
0.250469
0.257797
0.262148
0.262822
0.259772
0.251365
0.237662
0.22047
0.201357
0.182109
0.16428
0.148825
0.136006
0.125588
0.117199
0.11039
0.104755
0.10325
0.177096
0.192413
0.204954
0.216364
0.227045
0.237049
0.246171
0.253984
0.259887
0.263179
0.26324
0.260011
0.252274
0.240346
0.225402
0.208582
0.191143
0.174241
0.158721
0.145033
0.133321
0.123479
0.115124
0.110851
0.180752
0.194693
0.205053
0.214305
0.223177
0.231904
0.240366
0.248211
0.254928
0.259917
0.262568
0.26238
0.25929
0.252868
0.243265
0.230875
0.216528
0.201162
0.185642
0.170668
0.156766
0.144215
0.133164
0.12603
0.183626
0.195889
0.203929
0.210994
0.218112
0.225604
0.233326
0.240916
0.247892
0.253724
0.257876
0.259873
0.259526
0.256592
0.251054
0.243301
0.23346
0.221871
0.209043
0.195536
0.181958
0.168827
0.156872
0.148561
0.18563
0.195967
0.201545
0.206477
0.211985
0.218378
0.225411
0.232631
0.239515
0.245533
0.250227
0.253134
0.254211
0.253291
0.250214
0.245016
0.237985
0.229442
0.219766
0.209377
0.198598
0.187856
0.178085
0.171211
0.18673
0.194826
0.197922
0.20084
0.204924
0.210402
0.216882
0.223786
0.230496
0.236428
0.241106
0.244097
0.245371
0.244997
0.242796
0.238913
0.233534
0.226875
0.219181
0.210735
0.201965
0.193408
0.185929
0.180365
0.186868
0.192488
0.193084
0.19415
0.196985
0.201694
0.207753
0.214487
0.221152
0.227076
0.23172
0.234559
0.235693
0.23521
0.232978
0.229228
0.2242
0.218151
0.211339
0.204033
0.196526
0.189295
0.183006
0.17757
0.185894
0.188981
0.187056
0.1865
0.188218
0.192272
0.197984
0.204651
0.211467
0.217646
0.222555
0.22562
0.22688
0.226486
0.224294
0.220577
0.215616
0.209703
0.20311
0.196092
0.188974
0.182119
0.175888
0.170135
0.183652
0.184141
0.179756
0.178025
0.178726
0.182097
0.187357
0.193821
0.200677
0.207063
0.212284
0.215909
0.217714
0.218004
0.216599
0.213715
0.209597
0.204535
0.198807
0.19267
0.186379
0.180193
0.174267
0.168657
0.179317
0.177528
0.171397
0.168896
0.168726
0.171245
0.17569
0.181411
0.187579
0.193303
0.197895
0.201242
0.20334
0.204197
0.203835
0.20236
0.199808
0.196424
0.192442
0.188063
0.18346
0.178721
0.173731
0.168638
0.170654
0.169048
0.162534
0.159691
0.158996
0.160555
0.163771
0.167854
0.171982
0.175521
0.177228
0.177942
0.178214
0.178223
0.177904
0.17721
0.176005
0.174265
0.172222
0.169969
0.167589
0.165102
0.162331
0.15897
)
;

boundaryField
{
    rotor
    {
        type            kqRWallFunction;
        value           nonuniform List<scalar> 
144
(
0.00404079
0.00899726
0.0297975
0.0567865
0.0856019
0.118874
0.00404079
0.0165785
0.0210078
0.0233269
0.0248669
0.0260872
0.0279675
0.0294328
0.0304939
0.0311598
0.0314399
0.0313913
0.030988
0.0303692
0.0295723
0.0285604
0.02727
0.0254979
0.0247538
0.0237841
0.0223416
0.0204166
0.0166372
0.00449723
0.00449723
0.00840997
0.0127512
0.0166076
0.019493
0.0367095
0.0046078
0.0180719
0.049003
0.0844547
0.131858
0.170671
0.0046078
0.0177447
0.0221543
0.0240554
0.0251528
0.0270453
0.0287282
0.0301176
0.0311596
0.0318304
0.0321403
0.0321363
0.0319018
0.0313553
0.0304525
0.0292181
0.0277225
0.0260865
0.0248843
0.0237714
0.022055
0.0197633
0.0156803
0.00377499
0.00377499
0.0056197
0.0160175
0.0445707
0.076629
0.0993867
0.00390158
0.00578485
0.0165623
0.0356748
0.0574985
0.0810172
0.00390158
0.0164303
0.0206633
0.0228935
0.0249376
0.0277216
0.0309225
0.0336295
0.0357642
0.0373498
0.0384139
0.0389776
0.0390749
0.0389002
0.0386124
0.0380934
0.0372217
0.035852
0.0337893
0.030741
0.0262542
0.0237565
0.0197219
0.00563366
0.00563366
0.0170087
0.0400866
0.0624854
0.0828118
0.116643
0.00433944
0.0114885
0.023124
0.0354434
0.04315
0.0598201
0.00433944
0.0172431
0.0212621
0.023212
0.0244541
0.0251815
0.0270328
0.0286516
0.0299574
0.0309344
0.031598
0.0319795
0.0321053
0.0319105