/*--------------------------------*- C++ -*----------------------------------*\
  =========                 |
  \\      /  F ield         | OpenFOAM: The Open Source CFD Toolbox
   \\    /   O peration     | Website:  https://openfoam.org
    \\  /    A nd           | Version:  11
     \\/     M anipulation  |
\*---------------------------------------------------------------------------*/
FoamFile
{
    format      ascii;
    class       volScalarField;
    location    "0.54";
    object      nut;
}
// * * * * * * * * * * * * * * * * * * * * * * * * * * * * * * * * * * * * * //

dimensions      [0 2 -1 0 0 0 0];

internalField   nonuniform List<scalar> 
2880
(
7.79889e-07
3.34953e-06
1.82254e-05
5.18223e-05
0.000109058
0.000204081
2.87241e-05
3.41445e-05
7.5115e-05
0.000128163
0.000172203
0.000218517
0.000167941
7.7774e-05
0.000143095
0.000213674
0.000286595
0.000392808
0.000186494
0.000118939
0.000204697
0.000294364
0.000407102
0.000557093
4.69389e-05
0.000157179
0.00025966
0.000369924
0.000508547
0.00067946
4.82333e-05
0.000191842
0.000308127
0.000435675
0.000588934
0.000763652
5.00028e-05
0.00022128
0.000349909
0.000489487
0.000649455
0.000815411
5.13015e-05
0.000245154
0.000384424
0.000531868
0.000690417
0.000844342
5.22189e-05
0.000263272
0.000411129
0.00056193
0.000715518
0.0008558
5.27872e-05
0.000275695
0.000430138
0.000580725
0.000726879
0.000852452
5.3026e-05
0.000283151
0.000441433
0.000589298
0.000726167
0.000835972
5.29859e-05
0.000284859
0.000445354
0.00058854
0.000714689
0.000807367
5.26458e-05
0.000281198
0.000442182
0.000579234
0.000693513
0.000767605
5.21154e-05
0.000271676
0.00043225
0.000562222
0.000663677
0.000717926
5.14249e-05
0.000256738
0.000415991
0.000538402
0.000626355
0.000660795
5.05348e-05
0.000237642
0.000394083
0.00050858
0.000582985
0.000599239
4.93775e-05
0.000216179
0.000367611
0.00047354
0.000535168
0.000533999
4.77515e-05
0.000195944
0.000338247
0.000433894
0.000484679
0.00046525
0.000197741
0.000187446
0.00030792
0.000389497
0.000432119
0.000398779
0.000190003
0.000174438
0.000273445
0.000340678
0.000377505
0.000339714
0.000178484
0.00015307
0.000230386
0.000283846
0.000317549
0.000289377
0.000163106
0.00011503
0.00017086
0.000211779
0.000242902
0.000240015
2.88101e-05
5.5406e-05
8.93801e-05
0.00011946
0.000141819
0.000176721
8.67394e-07
3.14042e-06
7.83326e-06
1.52021e-05
2.48869e-05
6.24221e-05
0.000768928
0.00121131
0.00124841
0.00118433
0.00107484
0.000975009
0.000897661
0.000835315
0.000793652
0.000761971
0.000746785
0.000749366
0.00076827
0.000801422
0.000844894
0.000892356
0.000939648
0.000985397
0.00102966
0.00107278
0.00111492
0.00115532
0.00119083
0.00122664
0.000796539
0.00115363
0.00117396
0.00109527
0.000979803
0.000882211
0.000807908
0.000754938
0.000714604
0.000663719
0.000637294
0.000646059
0.000681367
0.000733462
0.000790955
0.000844314
0.000887439
0.000919651
0.000941789
0.000955888
0.000963309
0.000968011
0.000960299
0.000957423
0.000865423
0.00111613
0.00112478
0.00103588
0.00092282
0.000832266
0.000765643
0.000721627
0.000686785
0.000634241
0.000626339
0.000650841
0.000706353
0.000784139
0.000861156
0.000927388
0.000983706
0.00103131
0.0010709
0.0011028
0.00112669
0.00114355
0.00114704
0.00117514
0.000921645
0.00109633
0.00109188
0.000999472
0.000899413
0.000817856
0.000759712
0.00072374
0.000680045
0.000633151
0.000637212
0.000678474
0.000754322
0.000839397
0.000921664
0.000998241
0.00106977
0.00113737
0.00120316
0.00126907
0.00133689
0.00140561
0.00148333
0.00160735
0.000958378
0.00108285
0.00106819
0.00098494
0.000894289
0.000816615
0.000759831
0.000721731
0.000660804
0.000638222
0.000665392
0.000741791
0.000839677
0.000943026
0.00104374
0.00113761
0.00122418
0.00130541
0.00138563
0.00147139
0.00157124
0.00170261
0.00190183
0.00211656
0.000980245
0.0010759
0.00105358
0.000975973
0.000887152
0.000808583
0.000753669
0.000713445
0.000655908
0.000663709
0.000735648
0.000844388
0.000969161
0.0010992
0.00122578
0.0013467
0.00146376
0.00158029
0.00170114
0.00183389
0.00198885
0.00219508
0.00244884
0.00270584
0.000992272
0.0010643
0.00103631
0.000955448
0.000862601
0.000781752
0.000744502
0.000675054
0.000667182
0.00073127
0.000847479
0.000983388
0.00112816
0.00127081
0.00141001
0.00155034
0.00169844
0.0018629
0.00205467
0.00228676
0.00257191
0.00290871
0.00326545
0.00353038
0.000991755
0.00104348
0.00100525
0.000912792
0.00081858
0.000755131
0.000717474
0.000679315
0.000729489
0.000845775
0.00098839
0.00114473
0.00130104
0.00145566
0.00161178
0.00177546
0.00195602
0.00216698
0.00242628
0.00275344
0.00315971
0.0036174
0.00404326
0.00433236
0.000977794
0.00100943
0.000952876
0.00084861
0.000761131
0.000738056
0.000684814
0.000719482
0.000834921
0.000982896
0.00114771
0.00131586
0.00148482
0.00165795
0.00184139
0.002044
0.00227816
0.00256019
0.00290797
0.00333277
0.0038256
0.00434201
0.00478695
0.00507946
0.000950244
0.000958408
0.000879077
0.000778103
0.000732897
0.000703223
0.000704203
0.000817212
0.000969137
0.00113955
0.00131671
0.00149534
0.0016785
0.00187261
0.0020868
0.00233393
0.00263108
0.00299727
0.00344608
0.003973
0.00454373
0.00506862
0.00551118
0.00577739
0.000907906
0.000890929
0.00079344
0.000719685
0.000704715
0.000688424
0.000792897
0.000944273
0.00111814
0.00130195
0.0014877
0.00167821
0.00187969
0.00210029
0.00235101
0.00264724
0.00300849
0.00345345
0.00398848
0.00459454
0.00520729
0.00575917
0.00619561
0.00645383
0.000850854
0.000812517
0.000715741
0.000694425
0.000680365
0.000753749
0.000906212
0.00108299
0.00127472
0.00146755
0.00166355
0.00186923
0.00209267
0.00234355
0.00263457
0.00298273
0.0034075
0.00392301
0.00452501
0.00518053
0.00580412
0.00636175
0.00678054
0.00702743
0.000780824
0.000726976
0.00066314
0.000663747
0.000694231
0.000850452
0.00103413
0.00123346
0.00143307
0.00163334
0.00184112
0.00206485
0.00231322
0.00259633
0.00292764
0.00332454
0.00380452
0.00437513
0.00502114
0.00569733
0.00631535
0.00685445
0.00725441
0.00747366
0.000701676
0.000644541
0.00064023
0.000651678
0.000773667
0.000967379
0.00117337
0.00138517
0.00159222
0.00180187
0.00202391
0.00226751
0.00254145
0.00285579
0.00322365
0.00366108
0.00418181
0.00478645
0.00545126
0.00612085
0.00672103
0.00722653
0.00760218
0.00779405
0.000623346
0.000583265
0.000621778
0.000673921
0.000865273
0.00109776
0.00132313
0.00154029
0.00175309
0.00197287
0.00221043
0.00247472
0.00277377
0.00311657
0.00351462
0.00398099
0.00452464
0.00513996
0.00579787
0.00644198
0.00700564
0.00746861
0.00781203
0.00798353
0.000548156
0.00055175
0.000606549
0.000731951
0.000987169
0.00123456
0.00147272
0.0016947
0.00191479
0.00214663
0.00240085
0.00268546
0.00300716
0.00337314
0.00379216
0.00427319
0.00481998
0.0054222
0.00604887
0.00664963
0.00716062
0.00757385
0.0078777
0.00802837
0.00046809
0.000540622
0.000605321
0.00082602
0.00112883
0.00138654
0.00162595
0.00185143
0.00207972
0.00232425
0.00259463
0.00289746
0.00323768
0.00361994
0.00404927
0.00452966
0.0050597
0.00562596
0.00619856
0.00673509
0.00718067
0.00753328
0.00778804
0.00791579
0.000365666
0.000533679
0.00064349
0.000935332
0.00126987
0.00153798
0.00177854
0.00200947
0.00224737
0.00250489
0.00279032
0.00310851
0.00346217
0.00385293
0.00428148
0.00474642
0.00524137
0.00575086
0.0062479
0.0066976
0.0070638
0.00733257
0.00752738
0.00762568
0.000274279
0.000534089
0.000711968
0.00106429
0.00141744
0.00169118
0.00193571
0.00217285
0.0024201
0.00268939
0.00298742
0.00331697
0.00367823
0.00406945
0.00448681
0.00492353
0.00536838
0.0058039
0.00620584
0.00654638
0.00680284
0.00696573
0.00706573
0.00711746
0.000226607
0.000550467
0.000800904
0.00122466
0.00158196
0.00185196
0.00209806
0.00234055
0.00259644
0.00287618
0.00318435
0.00352128
0.00388445
0.0042688
0.00466629
0.00506526
0.00544987
0.00580006
0.00609226
0.00630222
0.00641216
0.00642247
0.006366
0.00631675
0.000240686
0.000586132
0.000921104
0.00139262
0.0017401
0.00201653
0.0022657
0.00251324
0.00277678
0.0030652
0.00338067
0.00372098
0.00408093
0.0044524
0.00482382
0.00517957
0.00550009
0.00576255
0.00594196
0.00601292
0.00595346
0.00575434
0.00543834
0.00509449
0.000272269
0.000640094
0.00109504
0.00158549
0.00191912
0.0021921
0.00243987
0.00269036
0.00296006
0.00325528
0.00357541
0.00391568
0.00426842
0.00462299
0.00496521
0.00527698
0.00553681
0.00572095
0.0058045
0.00576137
0.00556144
0.00516217
0.00448285
0.00340044
0.000305796
0.000740389
0.00130884
0.00179032
0.00211172
0.00237494
0.00261841
0.00287043
0.00314499
0.00344517
0.00376747
0.00410479
0.00444745
0.00478295
0.00509554
0.00536621
0.00557373
0.00569627
0.00571318
0.00560564
0.00535528
0.00493977
0.00432383
0.00344591
0.000345085
0.00087847
0.00154775
0.00199984
0.00231295
0.00256179
0.00279868
0.00305128
0.00332957
0.00363283
0.00395486
0.00428659
0.0046168
0.00493175
0.00521492
0.0054474
0.00560932
0.00568179
0.00564878
0.00549796
0.0052199
0.00480497
0.00423698
0.00348542
8.90678e-07
6.78242e-06
3.02262e-05
7.7564e-05
0.000168812
5.71704e-05
3.07666e-05
8.57046e-05
0.000189573
0.000332507
0.000522098
0.00054792
0.000177187
0.000178729
0.000356262
0.000583711
0.000861272
0.00106952
0.000192356
0.000250171
0.000491995
0.000784088
0.00112583
0.00145844
4.75018e-05
0.000300454
0.000598119
0.000941737
0.00133539
0.0017235
4.94076e-05
0.000338836
0.000681
0.00106781
0.0014958
0.00191125
5.09538e-05
0.00036908
0.000745183
0.00116509
0.00161795
0.00204668
5.21928e-05
0.00039389
0.000792877
0.00123772
0.00170884
0.00214343
5.31016e-05
0.000414146
0.000825739
0.00128857
0.00177289
0.00221147
5.36769e-05
0.000429162
0.000845257
0.00131949
0.00181341
0.00225624
5.39393e-05
0.000438123
0.000851726
0.00133205
0.00183287
0.00227856
5.39338e-05
0.000440165
0.00084523
0.00132673
0.00183156
0.00227995
5.37295e-05
0.000434434
0.000825873
0.00130331
0.0018093
0.00226162
5.32589e-05
0.000421007
0.000793641
0.00126148
0.00176617
0.00222378
5.24754e-05
0.000400209
0.000748012
0.00119883
0.00170127
0.00216595
5.13859e-05
0.000372444
0.000690822
0.00111939
0.00161257
0.00208583
5.00363e-05
0.000338206
0.0006228
0.00102102
0.00150321
0.00198216
4.85808e-05
0.00029813
0.000544295
0.000904057
0.00136795
0.00185246
4.69688e-05
0.000253061
0.000456571
0.000769793
0.00120416
0.00169009
0.00018964
0.000204972
0.000361087
0.00062093
0.00100943
0.00148706
0.000176361
0.000154176
0.000260119
0.000461716
0.000783605
0.00123349
0.000158107
0.000100047
0.000159231
0.000299017
0.000533579
0.000918363
2.71967e-05
4.16744e-05
6.62237e-05
0.000144417
0.000284934
0.000544112
7.29764e-07
2.11068e-06
9.91521e-06
4.10241e-05
9.82136e-05
0.000169417
0.000448526
0.00121412
0.00189348
0.00226082
0.00252309
0.00274772
0.002977
0.00323022
0.0035113
0.00381568
0.00413482
0.00445817
0.00477336
0.00506582
0.00531873
0.00551389
0.00563345
0.00566216
0.00558918
0.00540862
0.00511826
0.00471654
0.00419888
0.00355166
0.00112579
0.00181003
0.00222098
0.00249789
0.00271598
0.00292359
0.00314952
0.00340457
0.00368748
0.00399075
0.00430418
0.00461609
0.00491324
0.00518047
0.00540102
0.00555776
0.00563534
0.00562249
0.0055136
0.00530876
0.00501164
0.00462655
0.00415642
0.00359598
0.00160875
0.00214314
0.00245863
0.00268948
0.00288632
0.00308774
0.0033146
0.00357206
0.00385538
0.0041551
0.00445986
0.00475714
0.00503297
0.00527181
0.0054572
0.00557344
0.00560805
0.00555401
0.00541102
0.00518469
0.00488378
0.00451711
0.00409308
0.00361206
0.00193638
0.00237143
0.0026463
0.00285346
0.00304092
0.00324179
0.00347136
0.00373068
0.00401256
0.0043062
0.00459941
0.00487894
0.00513024
0.00533756
0.005485
0.00555868
0.00554931
0.00545447
0.00527922
0.00503453
0.00473357
0.00438857
0.00401124
0.00360509
0.0021631
0.00255389
0.00280308
0.00299756
0.00318225
0.00338558
0.00361833
0.00387845
0.00415697
0.00444216
0.00472115
0.00498011
0.00520402
0.00537708
0.00548427
0.00551385
0.00546021
0.00532587
0.00512142
0.00486288
0.00456697
0.00424782
0.0039183
0.00358282
0.00233028
0.00270021
0.00293483
0.00312436
0.0033107
0.00351825
0.0037541
0.00401382
0.00428719
0.00456181
0.00482429
0.00506029
0.00525441
0.00539106
0.00545635
0.00544112
0.00534392
0.00517266
0.00494357
0.00467719
0.00439253
0.00410381
0.0038228
0.00355273
0.00245996
0.00281557
0.0030449
0.00323523
0.00342626
0.003639
0.00387758
0.00413576
0.00440243
0.00466473
0.00490882
0.00511994
0.00528248
0.00538119
0.00540367
0.00534385
0.00520506
0.00500107
0.00475364
0.00448685
0.0042202
0.0039659
0.00373254
0.00352068
0.00256289
0.00290443
0.0031359
0.00333107
0.00352882
0.00374728
0.00398815
0.00424379
0.00450252
0.00475111
0.0049754
0.00516026
0.00528996
0.00534983
0.00532938
0.00522625
0.00504928
0.00481848
0.00456061
0.00430161
0.00405917
0.00384151
0.00365274
0.00349038
0.00263961
0.00297368
0.00321012
0.0034126
0.00361839
0.00384285
0.00408559
0.00433794
0.00458779
0.00482169
0.00502521
0.0051829
0.00527905
0.00529981
0.00523713
0.00509316
0.00488299
0.0046329
0.00437342
0.00412999
0.00391618
0.00373495
0.00358573
0.00346364
0.00269144
0.00302586
0.00326882
0.00348031
0.00369508
0.00392577
0.00417012
0.00441865
0.00465901
0.00487762
0.0050598
0.00518988
0.00525224
0.00523426
0.00513094
0.00494987
0.00471294
0.00445217
0.00419979
0.00397809
0.00379477
0.00364739
0.00353156
0.00344113
0.0027219
0.00306122
0.00331264
0.0035346
0.00375919
0.00399637
0.00424224
0.00448667
0.00471725
0.0049203
0.00508097
0.00518337
0.00521221
0.00515648
0.0050151
0.00480191
0.00454583
0.0042832
0.00404533
0.003849
0.00369547
0.00357777
0.00348905
0.00342284
0.00273323
0.00308042
0.00334211
0.00357585
0.00381108
0.00405516
0.00430266
0.004543
0.00476377
0.00495132
0.0050906
0.00516565
0.00516169
0.00506993
0.00489403
0.00465481
0.00438769
0.00413123
0.00391308
0.0037431
0.00361668
0.00352381
0.00345647
0.00340847
0.00272674
0.00308411
0.00335767
0.00360442
0.00385117
0.00410276
0.00435226
0.00458875
0.00479996
0.00497229
0.00509063
0.00513897
0.00510344
0.00497808
0.00477213
0.00451366
0.00424336
0.00399942
0.00380362
0.00365875
0.00355568
0.00348287
0.00343207
0.00339757
0.00270317
0.00307282
0.00335965
0.00362053
0.00387982
0.00413979
0.00439193
0.00462508
0.00482719
0.00498485
0.00508291
0.00510556
0.00504018
0.00488437
0.00465359
0.00438282
0.00411617
0.00388888
0.00371573
0.00359326
0.00350945
0.00345243
0.00341422
0.00338963
0.00266286
0.00304691
0.00334817
0.00362415
0.0038971
0.00416675
0.00442258
0.00465316
0.00484684
0.00499054
0.00506924
0.00506754
0.00497459
0.00479214
0.00454216
0.00426561
0.00400778
0.00379903
0.00364708
0.00354362
0.00347519
0.00343029
0.00340144
0.00338411
0.00260583
0.00300658
0.00332309
0.00361476
0.00390257
0.00418398
0.00444504
0.00467408
0.00486018
0.0049908
0.00505127
0.00502697
0.00490925
0.00470449
0.00444096
0.00416417
0.00391843
0.00372819
0.0035949
0.00350697
0.0034505
0.0034147
0.00339241
0.00338043
0.0025317
0.00295187
0.00328385
0.00359097
0.00389455
0.00419142
0.00446003
0.00468889
0.00486836
0.00498691
0.00503055
0.00498578
0.00484659
0.00462418
0.00435241
0.00407959
0.00384735
0.00367415
0.00355646
0.00348077
0.00343343
0.00340363
0.00338683
0.00337817
0.00243886
0.00288273
0.00322939
0.00354927
0.00387013
0.0041887
0.00446827
0.00469852
0.00487239
0.00498
0.00500845
0.00494577
0.00478888
0.00455357
0.00427821
0.00401211
0.00379325
0.00363469
0.00352936
0.00346287
0.00342206
0.00339699
0.00338361
0.00337691
0.00232816
0.00279933
0.00315274
0.00348917
0.00383339
0.00417521
0.00447068
0.0047039
0.0048731
0.00497095
0.00498613
0.00490852
0.00473805
0.00449451
0.00421934
0.00396136
0.00375461
0.00360783
0.00351175
0.00345177
0.00341538
0.00339334
0.0033819
0.00337633
0.0021963
0.00269654
0.00305285
0.00341298
0.00378738
0.00415584
0.00446918
0.004706
0.00487113
0.00496042
0.00496454
0.00487539
0.00469568
0.0044483
0.00417619
0.00392662
0.00372998
0.00359194
0.00350219
0.00344633
0.00341259
0.00339248
0.00338174
0.00337632
0.00203965
0.00256435
0.00293066
0.0033248
0.00373728
0.00413579
0.00446598
0.00470568
0.00486686
0.00494884
0.0049444
0.00484745
0.00466298
0.00441575
0.00414878
0.00390708
0.00371821
0.00358582
0.00349974
0.00344605
0.00341336
0.00339373
0.00338259
0.0033766
0.00184644
0.00239944
0.00279052
0.00323228
0.00369072
0.00412069
0.00446312
0.00470344
0.00486035
0.00493634
0.00492619
0.00482549
0.00464071
0.0043972
0.0041369
0.00390191
0.00371794
0.00358872
0.00350382
0.0034502
0.00341701
0.00339673
0.00338453
0.00337728
0.00158577
0.00220426
0.00264404
0.00314892
0.00365779
0.00411579
0.00446172
0.00469914
0.00485123
0.0049228
0.00491012
0.00480994
0.00462921
0.00439271
0.00413968
0.0039107
0.00372961
0.00360044
0.00351431
0.00345893
0.00342382
0.00340154
0.00338735
0.00337826
0.00126927
0.0019949
0.00251833
0.00309544
0.00364919
0.00412334
0.00446117
0.00469175
0.00483871
0.00490781
0.00489609
0.00480089
0.0046286
0.00440192
0.00415762
0.00393327
0.00375266
0.00362113
0.00353148
0.00347245
0.0034339
0.00340843
0.00339134
0.00337973
7.54167e-07
2.16106e-06
1.01601e-05
3.27131e-05
7.36505e-05
0.000138123
2.84777e-05
3.1162e-05
5.11583e-05
9.77251e-05
0.000164028
0.000287328
0.000165069
7.58664e-05
0.000116299
0.000184573
0.000277626
0.0005005
0.000182552
0.000122493
0.000184229
0.00026937
0.000411161
0.000717111
0.000199621
0.000168538
0.000248655
0.000360637
0.000561882
0.000915688
5.0012e-05
0.000211144
0.000310154
0.000461179
0.000713791
0.00109258
5.26181e-05
0.00025009
0.000371496
0.0005638
0.000854131
0.00124089
5.48543e-05
0.000285348
0.00043219
0.000661487
0.000975479
0.00135872
5.65693e-05
0.000316387
0.000490554
0.000749098
0.00107429
0.00145456
5.78116e-05
0.000342724
0.000544271
0.000823273
0.0011579
0.0015164
5.86302e-05
0.000363789
0.000592472
0.000886054
0.00121454
0.00155019
5.90585e-05
0.00037878
0.000631742
0.000930723
0.00125052
0.00156336
5.91308e-05
0.000386722
0.000659331
0.0009598
0.00126805
0.00156005
5.89939e-05
0.000386355
0.000674395
0.000973081
0.00126882
0.00154291
5.87717e-05
0.000377101
0.000676316
0.000971127
0.00125361
0.0015137
5.83715e-05
0.000360164
0.000665098
0.000954156
0.00122461
0.00147137
5.76947e-05
0.000337031
0.000641114
0.000922101
0.00118262
0.00141406
5.66161e-05
0.000308888
0.000604856
0.000874298
0.00112528
0.00134596
5.49539e-05
0.000277058
0.000558155
0.000808934
0.00104925
0.00126638
5.2407e-05
0.0002421
0.000496774
0.000724076
0.000948733
0.00117001
4.84297e-05
0.000202447
0.000417567
0.000617394
0.000814006
0.00103385
0.000189692
0.000155746
0.000312632
0.0004723
0.000639171
0.000835256
3.41314e-05
8.20668e-05
0.000172737
0.000273012
0.000393138
0.000566211
1.0853e-06
6.35912e-06
2.46526e-05
5.72319e-05
0.00010574
0.000198161
0.00110998
0.00184869
0.00246101
0.00309313
0.00367131
0.00413695
0.00445831
0.00467933
0.0048216
0.00489073
0.00488384
0.00479768
0.00463784
0.00442412
0.0041896
0.00396941
0.00378753
0.00365138
0.00355597
0.00349135
0.00344778
0.00341784
0.00339685
0.00338191
0.00113142
0.00182425
0.00248523
0.00314062
0.00371585
0.00414774
0.00444904
0.00465959
0.0047986
0.00487057
0.0048722
0.00479954
0.00465603
0.00445816
0.00423497
0.00401903
0.00383474
0.00369207
0.00358876
0.00351654
0.00346621
0.00343038
0.00340434
0.00338511
0.00121698
0.00187619
0.00256438
0.0032181
0.00375862
0.00414972
0.00442939
0.00463022
0.00476814
0.0048462
0.00486014
0.00480484
0.00468135
0.00450241
0.00429266
0.00408192
0.00389489
0.00374431
0.00363114
0.00354925
0.00349026
0.00344688
0.00341424
0.00338956
0.00133342
0.00197998
0.00267055
0.00329839
0.00378274
0.00413589
0.0043958
0.00458924
0.00472901
0.0048164
0.00484606
0.00481156
0.00471149
0.00455465
0.00436113
0.00415757
0.00396853
0.00380941
0.00368474
0.00359106
0.00352127
0.00346829
0.0034271
0.00339536
0.00147126
0.00210729
0.00277741
0.00335149
0.00378239
0.0041027
0.0043462
0.00453555
0.00468021
0.00477983
0.00482806
0.00481721
0.00474356
0.00461208
0.00443818
0.00424485
0.00405581
0.0038886
0.00375137
0.00364387
0.0035608
0.00349572
0.00344393
0.00340311
0.00161345
0.00222949
0.00285968
0.00336906
0.00375436
0.00404795
0.00428
0.00446869
0.00462097
0.00473512
0.00480401
0.00481896
0.00477423
0.0046712
0.00452072
0.00434167
0.004156
0.0039825
0.00383262
0.00370966
0.00361076
0.00353079
0.00346579
0.00341332
0.00174041
0.00231674
0.00289756
0.00335381
0.00369986
0.0039729
0.00419772
0.00438872
0.00455067
0.00468086
0.00477169
0.00481379
0.00479978
0.00472792
0.00460469
0.00444461
0.00426691
0.00409046
0.00392923
0.00379004
0.00367308
0.0035752
0.00349378
0.00342631
0.00183397
0.00238612
0.00290179
0.00330439
0.00362079
0.00387926
0.00410051
0.00429598
0.00446885
0.00461575
0.00472892
0.00479866
0.00481636
0.00477768
0.00468518
0.00454893
0.0043847
0.00421016
0.00404058
0.00388582
0.00374932
0.00363058
0.00352899
0.00344227
0.00190963
0.00240842
0.00286437
0.00322757
0.00352131
0.00376966
0.00398984
0.00419097
0.00437511
0.00453858
0.00467371
0.00477073
0.00482022
0.00481585
0.00475675
0.00464879
0.00450383
0.00433715
0.00416399
0.00399614
0.00383999
0.00369801
0.00357227
0.00346126
0.00194462
0.00239642
0.00279942
0.00312997
0.00340587
0.00364686
0.00386716
0.00407415
0.00426912
0.00444831
0.0046043
0.00472748
0.00480799
0.004838
0.00481389
0.00473774
0.00461739
0.00446497
0.00429427
0.00411768
0.00394364
0.00377734
0.00362384
0.00348292
0.00195072
0.00235595
0.0027146
0.00301761
0.00327849
0.00351327
0.00373373
0.00394592
0.00415061
0.00434409
0.00451928
0.00466685
0.0047768
0.00484027
0.00485151
0.00480936
0.00471786
0.00458559
0.00442387
0.00424429
0.00405607
0.00386624
0.00368253
0.00350622
0.00193311
0.00229508
0.00261662
0.00289544
0.00314248
0.00337091
0.00359061
0.00380664
0.00401939
0.00422527
0.00441755
0.00458726
0.00472444
0.00481959
0.00486534
0.0048579
0.00479792
0.00469041
0.00454365
0.00436728
0.00417
0.00395944
0.00374492
0.00352878
0.00189771
0.0022217
0.00251097
0.00276743
0.00300057
0.00322153
0.00343879
0.0036567
0.00387541
0.00409143
0.00429836
0.00448762
0.00464938
0.00477377
0.00485222
0.00487883
0.00485136
0.00477148
0.00464423
0.00447661
0.00427574
0.00404862
0.00380472
0.0035463
0.00185055
0.00214144
0.00240186
0.00263683
0.00285517
0.00306681
0.00327937
0.00349671
0.00371885
0.00394243
0.00416133
0.00436731
0.00455073
0.0047015
0.00481015
0.00486913
0.00487371
0.00482258
0.00471755
0.00456271
0.00436288
0.00412353
0.00385289
0.00355202
0.0017954
0.00205803
0.00229244
0.00250632
0.00270858
0.00290863
0.00311374
0.00332763
0.0035503
0.00377853
0.00400647
0.00422618
0.00442821
0.00460231
0.00473834
0.00482737
0.00486257
0.0048399
0.00475813
0.00461831
0.00442257
0.00417416
0.00387911
0.00353691
0.00173398
0.00197358
0.00218483
0.00237819
0.00256313
0.00274919
0.00294382
0.00315096
0.00337085
0.0036005
0.00383432
0.00406463
0.00428215
0.00447653
0.00463711
0.00475374
0.00481774
0.00482256
0.00476405
0.0046401
0.00444984
0.00419366
0.00387446
0.00349098
0.00166634
0.00188884
0.00208018
0.00225417
0.00242111
0.00259105
0.00277212
0.00296896
0.00318238
0.00340982
0.00364604
0.00388365
0.00411353
0.00432532
0.00450786
0.00465
0.00474136
0.004773
0.00473782
0.00463037
0.00444624
0.00418191
0.00383534
0.00340579
0.00158546
0.00180354
0.0019783
0.00213516
0.0022845
0.00243696
0.00260173
0.00278467
0.00298764
0.00320887
0.00344365
0.003685
0.00392409
0.00415061
0.00435313
0.00451963
0.00463823
0.00469774
0.00468805
0.00460001
0.00442468
0.00415244
0.00377196
0.00327976
0.0014851
0.00171445
0.00187684
0.00202054
0.00215442
0.00228945
0.0024361
0.00260192
0.00279039
0.00300103
0.00323009
0.00347127
0.00371626
0.00395505
0.00417625
0.00436744
0.00451571
0.00460813
0.00463196
0.00457436
0.00442127
0.00415505
0.00374619
0.00314387
0.00136231
0.00160967
0.00177011
0.00190755
0.00203045
0.00215016
0.00227847
0.00242492
0.0025952
0.00279076
0.0030094
0.00324596
0.00349305
0.00374145
0.00398039
0.00419788
0.0043812
0.00451729
0.00459297
0.00459502
0.00451209
0.00434593
0.00414149
0.00402553
0.00122196
0.00147434
0.00165124
0.00179149
0.00191026
0.00201916
0.00213111
0.00225768
0.00240711
0.00258343
0.00278665
0.00301345
0.00325793
0.00351222
0.00376697
0.00401177
0.00423576
0.00442825
0.00457899
0.0046781
0.00471785
0.00470152
0.00466095
0.00465434
0.00104354
0.0012977
0.00151256
0.00166648
0.00178981
0.00189464
0.00199467
0.00210317
0.00223089
0.00238482
0.00256784
0.00277915
0.00301502
0.00326961
0.00353566
0.00380519
0.00407009
0.00432237
0.00455333
0.0047522
0.00490695
0.00500821
0.00507706
0.00513828
0.000788755
0.00106809
0.00134102
0.00152776
0.00166476
0.00177339
0.0018679
0.00196258
0.00207015
0.00220043
0.00235947
0.0025496
0.00276992
0.00301722
0.003287
0.00357438
0.00387452
0.00418172
0.00448678
0.00477424
0.00501964
0.00520478
0.00536022
0.0054513
0.000490685
0.000835947
0.00112229
0.00137097
0.00153166
0.00165213
0.00174828
0.00183515
0.00192659
0.00203448
0.00216779
0.00233214
0.00252991
0.00276109
0.00302444
0.00331872
0.00364288
0.00399387
0.00436167
0.00472516
0.0050372
0.00530231
0.00551323
0.00562852
8.37083e-07
4.2849e-06
1.41787e-05
3.2384e-05
5.49904e-05
0.000101377
2.98514e-05
6.61835e-05
0.000120715
0.00018053
0.000234948
0.000314097
0.000169804
0.000140056
0.000233974
0.000325751
0.000405411
0.000481565
0.000185367
0.000194077
0.000321715
0.000438496
0.000537536
0.000617467
0.000195276
0.000229906
0.00038819
0.000524575
0.000640378
0.000731297
4.74293e-05
0.000250878
0.000440122
0.000593409
0.000724598
0.000827188
4.91303e-05
0.000272749
0.000480568
0.00064838
0.000793482
0.000909152
5.05755e-05
0.000293681
0.000512995
0.000692905
0.000850598
0.000978781
5.17154e-05
0.000312653
0.000538732
0.000728957
0.00089848
0.00103838
5.25545e-05
0.000328787
0.000558028
0.000757408
0.000938693
0.00109035
5.31184e-05
0.000341208
0.000570646
0.00077843
0.00097177
0.00113558
5.34416e-05
0.000348843
0.000576173
0.000791738
0.000997551
0.00117421
5.35528e-05
0.000350713
0.0005742
0.000796724
0.00101535
0.00120573
5.33951e-05
0.000346931
0.000564252
0.000792508
0.00102401
0.0012291
5.29174e-05
0.00033744
0.000545817
0.00077797
0.00102192
0.00124277
5.21111e-05
0.000322175
0.000518438
0.000751769
0.00100696
0.00124464
5.09775e-05
0.000300892
0.000481753
0.000712384
0.000976378
0.00123188
4.95335e-05
0.000273372
0.000435569
0.000658194
0.000926213
0.00120068
4.78844e-05
0.00023946
0.000380082
0.00058786
0.000853574
0.00114406
0.000197681
0.000198529
0.00031597
0.000500707
0.000752209
0.00104865
0.000185851
0.000151861
0.000243999
0.000397337
0.000616929
0.000897521
0.000168286
9.96272e-05
0.000164618
0.000280847
0.000448233
0.000667851
2.91729e-05
4.24783e-05
7.94059e-05
0.000156536
0.000262951
0.000340464
7.89729e-07
3.08908e-06
1.53251e-05
5.30031e-05
0.000117629
4.60003e-05
0.000432398
0.000655365
0.000941189
0.00119728
0.00139272
0.00152827
0.00163223
0.00171808
0.00179939
0.00188888
0.00199754
0.00213387
0.00230354
0.00250996
0.00275543
0.00304264
0.00337489
0.00375277
0.00416715
0.00459126
0.00496158
0.00529213
0.0055535
0.00569063
0.000468016
0.000618884
0.000806066
0.00104029
0.00123981
0.00139499
0.00151324
0.00160558
0.00168435
0.00176202
0.00185041
0.00195991
0.00209895
0.00227411
0.00249112
0.00275651
0.00307815
0.00346169
0.00390172
0.00436774
0.00479053
0.00517086
0.00548403
0.00564365
0.00054634
0.000682322
0.000746657
0.000915256
0.00109583
0.00125664
0.00138803
0.00149145
0.00157481
0.00164853
0.00172376
0.00181141
0.00192148
0.00206291
0.00224424
0.00247519
0.00276781
0.00313353
0.0035735
0.00406387
0.00452265
0.0049454
0.00530114
0.00549133
0.000670568
0.000732273
0.00080027
0.000855109
0.00098029
0.00112231
0.00125665
0.0013704
0.00146291
0.00154001
0.00161047
0.00168418
0.00177123
0.00188159
0.00202542
0.00221448
0.00246372
0.00278995
0.00320304
0.00369108
0.00417121
0.00462513
0.00500896
0.00523877
0.000798489
0.000812257
0.000869732
0.000891055
0.000942651
0.00102877
0.00113598
0.00124583
0.00134448
0.00142849
0.00150126
0.00156974
0.00164252
0.00172904
0.00183959
0.00198636
0.00218529
0.00245643
0.00281807
0.0032719
0.00375621
0.00422312
0.00462183
0.00489559
0.000907514
0.000913686
0.000931241
0.000962988
0.000972976
0.00100147
0.00105706
0.0011358
0.00122488
0.00131107
0.0013886
0.00145851
0.0015259
0.00159814
0.00168416
0.00179505
0.0019456
0.00215601
0.00244947
0.00284038
0.00330476
0.00375917
0.0041724
0.0044707
0.00100212
0.00102342
0.00102863
0.00103464
0.00104454
0.00104065
0.00104329
0.00107204
0.00112592
0.00119656
0.0012718
0.00134397
0.00141178
0.00147853
0.00155039
0.00163603
0.00174756
0.00190243
0.00212403
0.00243553
0.00284381
0.00327608
0.00368172
0.00398863
0.00108413
0.00113176
0.00113662
0.00113507
0.00112743
0.00111935
0.0010981
0.00107515
0.00108174
0.00111274
0.00116523
0.00122922
0.00129583
0.00136149
0.00142758
0.0014991
0.00158449
0.00169684
0.00185567
0.00208586
0.00240863
0.00280256
0.00318228
0.00348376
0.00115728
0.00122699
0.00124704
0.00124473
0.0012302
0.0012086
0.00118781
0.00114651
0.00110922
0.00109352
0.00110165
0.00113518
0.00118659
0.00124648
0.00130925
0.00137429
0.00144532
0.00153041
0.00164321
0.0018042
0.00203823
0.00236354
0.00270873
0.0029878
0.0012236
0.00130866
0.00134772
0.00135414
0.0013424
0.001317
0.00128297
0.00125255
0.00119655
0.00114523
0.0011093
0.00109702
0.00111206
0.00114959
0.00120089
0.00125913
0.00132191
0.00139164
0.00147572
0.00158761
0.00174795
0.00198442
0.00228637
0.00253369
0.00128206
0.00138004
0.00143287
0.00145236
0.00144823
0.00142771
0.00139405
0.00135523
0.00131591
0.00124519
0.00118239
0.00113299
0.00110513
0.00110338
0.00112583
0.00116589
0.00121679
0.00127503
0.00134163
0.00142294
0.00153143
0.00168857
0.0019296
0.00214297
0.00133388
0.00144429
0.00150531
0.00153418
0.00153915
0.00152656
0.00149991
0.0014627
0.00142482
0.00137337
0.00129261
0.00122623
0.00116999
0.00113097
0.00111472
0.00112191
0.00114853
0.00118906
0.00123944
0.0012998
0.00137515
0.00147675
0.00164298
0.00182687
0.00137902
0.0014996
0.00156707
0.00160156
0.00161354
0.0016092
0.00159159
0.00156258
0.00152505
0.00148708
0.00142591
0.00134743
0.00128193
0.00122318
0.0011776
0.00115049
0.00114383
0.00115588
0.00118286
0.00122152
0.00127142
0.00133557
0.00143577
0.00158769
0.0014169
0.00154644
0.0016185
0.00165647
0.00167378
0.00167675
0.00166817
0.00164934
0.00162106
0.0015849
0.00154678
0.00148359
0.00141491