/*--------------------------------*- C++ -*----------------------------------*\
  =========                 |
  \\      /  F ield         | OpenFOAM: The Open Source CFD Toolbox
   \\    /   O peration     | Website:  https://openfoam.org
    \\  /    A nd           | Version:  11
     \\/     M anipulation  |
\*---------------------------------------------------------------------------*/
FoamFile
{
    format      ascii;
    class       surfaceScalarField;
    location    "0.54";
    object      phi;
}
// * * * * * * * * * * * * * * * * * * * * * * * * * * * * * * * * * * * * * //

dimensions      [0 3 -1 0 0 0 0];

internalField   nonuniform List<scalar> 
5640
(
-1.75818e-07
1.75818e-07
-8.01219e-07
6.25401e-07
-1.59863e-06
7.97414e-07
-2.44401e-06
8.45375e-07
-3.65847e-06
1.21446e-06
2.9094e-06
-6.56787e-06
-4.23973e-07
5.99791e-07
-1.19939e-06
1.40082e-06
-2.06598e-06
1.664e-06
-3.0833e-06
1.86269e-06
-4.43275e-06
2.56392e-06
4.62214e-06
-6.14549e-06
-5.13814e-07
1.11361e-06
-1.33159e-06
2.21859e-06
-2.25429e-06
2.58671e-06
-3.29529e-06
2.90369e-06
-4.52264e-06
3.79127e-06
5.65184e-06
-5.55234e-06
-5.63715e-07
1.67732e-06
-1.36518e-06
3.02006e-06
-2.26538e-06
3.48691e-06
-3.22365e-06
3.86196e-06
-4.19721e-06
4.76483e-06
6.2597e-06
-4.80507e-06
-5.98874e-07
2.27619e-06
-1.33962e-06
3.76081e-06
-2.16089e-06
4.30817e-06
-2.98259e-06
4.68366e-06
-3.69738e-06
5.47962e-06
6.54776e-06
-3.98544e-06
-6.15538e-07
2.89173e-06
-1.27049e-06
4.41576e-06
-1.97666e-06
5.01434e-06
-2.63849e-06
5.34549e-06
-3.11104e-06
5.95217e-06
6.57912e-06
-3.1424e-06
-5.91803e-07
3.48353e-06
-1.15701e-06
4.98097e-06
-1.73641e-06
5.59374e-06
-2.23378e-06
5.84286e-06
-2.49019e-06
6.20858e-06
6.39962e-06
-2.31068e-06
-5.39946e-07
4.02348e-06
-1.00797e-06
5.44899e-06
-1.4582e-06
6.04396e-06
-1.79826e-06
6.18292e-06
-1.87008e-06
6.2804e-06
6.0514e-06
-1.52187e-06
-4.67143e-07
4.49062e-06
-8.31986e-07
5.81384e-06
-1.15636e-06
6.36834e-06
-1.35291e-06
6.37947e-06
-1.27365e-06
6.20114e-06
5.57768e-06
-7.99929e-07
-3.77977e-07
4.8686e-06
-6.36189e-07
6.07205e-06
-8.41716e-07
6.57386e-06
-9.12344e-07
6.4501e-06
-7.15957e-07
6.00476e-06
5.02061e-06
-1.58888e-07
-2.75774e-07
5.14437e-06
-4.26833e-07
6.22311e-06
-5.22213e-07
6.66924e-06
-4.85792e-07
6.41368e-06
-2.05518e-07
5.72448e-06
4.42116e-06
3.93937e-07
-1.63866e-07
5.30824e-06
-2.09114e-07
6.26836e-06
-2.03157e-07
6.66329e-06
-7.87319e-08
6.28926e-06
2.54563e-07
5.39119e-06
3.81368e-06
8.62034e-07
-4.45692e-08
5.35281e-06
1.10337e-08
6.21275e-06
1.12189e-07
6.56213e-06
3.06501e-07
6.09494e-06
6.65422e-07
5.03227e-06
3.22863e-06
1.25048e-06
7.67182e-08
5.27609e-06
2.35795e-07
6.05368e-06
4.21354e-07
6.37657e-06
6.69978e-07
5.84632e-06
1.03169e-06
4.67055e-06
2.69323e-06
1.56709e-06
1.98178e-07
5.07791e-06
4.572e-07
5.79465e-06
7.22845e-07
6.11092e-06
1.01375e-06
5.55542e-06
1.36077e-06
4.32353e-06
2.22822e-06
1.82579e-06
3.1909e-07
4.75882e-06
6.74082e-07
5.43966e-06
1.01581e-06
5.7692e-06
1.3407e-06
5.23053e-06
1.66065e-06
4.00358e-06
1.84755e-06
2.04131e-06
4.44276e-07
4.31455e-06
8.83195e-07
5.00074e-06
1.29899e-06
5.35341e-06
1.65352e-06
4.87599e-06
1.93602e-06
3.72108e-06
1.57396e-06
2.20961e-06
5.93377e-07
3.72117e-06
1.0764e-06
4.51772e-06
1.56953e-06
4.86028e-06
1.955e-06
4.49053e-06
2.18865e-06
3.48743e-06
1.47481e-06
2.2878e-06
6.68619e-07
3.05255e-06
1.23458e-06
3.95175e-06
1.82233e-06
4.27253e-06
2.25034e-06
4.06252e-06
2.43532e-06
3.30245e-06
1.64554e-06
2.26459e-06
6.96897e-07
2.35566e-06
1.35742e-06
3.29123e-06
2.05211e-06
3.57783e-06
2.5494e-06
3.56523e-06
2.73192e-06
3.11993e-06
1.95347e-06
2.42399e-06
7.00899e-07
1.65476e-06
1.44365e-06
2.54849e-06
2.24843e-06
2.77305e-06
2.86161e-06
2.95205e-06
3.16263e-06
2.81891e-06
2.0502e-06
3.0659e-06
6.78607e-07
9.7615e-07
1.49065e-06
1.73644e-06
2.39551e-06
1.86819e-06
3.17608e-06
2.17148e-06
3.74845e-06
2.24654e-06
1.7922e-06
4.00645e-06
6.12613e-07
3.63538e-07
1.48286e-06
8.662e-07
2.44757e-06
9.03473e-07
3.42826e-06
1.19079e-06
4.40138e-06
1.27343e-06
1.11154e-06
5.08204e-06
3.63538e-07
1.22974e-06
2.13321e-06
3.324e-06
4.59743e-06
5.70897e-06
-6.05936e-06
1.07962e-05
-1.13047e-05
-6.99785e-06
9.65416e-06
-8.71567e-06
-7.90554e-06
7.06279e-06
-6.1551e-06
-8.67349e-06
4.12085e-06
-3.35291e-06
-9.16016e-06
6.09759e-07
-1.23085e-07
-9.16403e-06
-3.69115e-06
3.69502e-06
-8.43466e-06
-8.90285e-06
8.17348e-06
-6.80393e-06
-1.47102e-05
1.30795e-05
-4.21207e-06
-2.06291e-05
1.80372e-05
-7.63717e-07
-2.59818e-05
2.25335e-05
3.24684e-06
-3.02094e-05
2.61989e-05
7.51886e-06
-3.31692e-05
2.88972e-05
1.18431e-05
-3.5029e-05
3.07047e-05
1.60789e-05
-3.60379e-05
3.18021e-05
2.01604e-05
-3.64601e-05
3.23787e-05
2.40756e-05
-3.6518e-05
3.26028e-05
2.78443e-05
-3.63763e-05
3.26076e-05
3.15035e-05
-3.61484e-05
3.24892e-05
3.50971e-05
-3.5908e-05
3.23143e-05
3.86693e-05
-3.57021e-05
3.21299e-05
4.22705e-05
-3.55701e-05
3.1969e-05
4.59501e-05
-3.55411e-05
3.18615e-05
4.97446e-05
-3.5604e-05
3.18095e-05
-3.58431e-05
3.1888e-05
-6.03397e-06
1.06847e-05
-6.25867e-06
9.87885e-06
-6.53504e-06
7.33917e-06
-6.6138e-06
4.1996e-06
-6.29859e-06
2.94556e-07
-5.3638e-06
-4.62595e-06
-3.6101e-06
-1.06566e-05
-8.93617e-07
-1.74267e-05
2.73409e-06
-2.42568e-05
7.0484e-06
-3.02961e-05
1.17251e-05
-3.48861e-05
1.64162e-05
-3.78603e-05
2.09335e-05
-3.95462e-05
2.52107e-05
-4.03152e-05
2.92491e-05
-4.04986e-05
3.30865e-05
-4.03554e-05
3.6773e-05
-4.00628e-05
4.03599e-05
-3.97353e-05
4.38993e-05
-3.94474e-05
4.7448e-05
-3.92508e-05
5.10453e-05
-3.91675e-05
5.46892e-05
-3.9185e-05
5.84182e-05
-3.9333e-05
-3.96386e-05
-5.42494e-06
1.05573e-05
-5.17779e-06
9.63171e-06
-4.81411e-06
6.97549e-06
-4.11762e-06
3.50312e-06
-2.87254e-06
-9.50533e-07
-8.84795e-07
-6.61369e-06
1.99947e-06
-1.35408e-05
5.76323e-06
-2.11905e-05
1.01863e-05
-2.86798e-05
1.49758e-05
-3.50857e-05
1.9704e-05
-3.96143e-05
2.41026e-05
-4.2259e-05
2.81458e-05
-4.35894e-05
3.18876e-05
-4.40569e-05
3.54006e-05
-4.40116e-05
3.87642e-05
-4.3719e-05
4.2041e-05
-4.33396e-05
4.52721e-05
-4.29664e-05
4.8479e-05
-4.26543e-05
5.16592e-05
-4.24309e-05
5.48013e-05
-4.23095e-05
5.7914e-05
-4.22978e-05
6.09967e-05
-4.24157e-05
-4.25772e-05
-4.50837e-06
1.02606e-05
-3.83353e-06
8.95687e-06
-2.86985e-06
6.01182e-06
-1.40787e-06
2.04113e-06
7.24178e-07
-3.08258e-06
3.72049e-06
-9.61e-06
7.57924e-06
-1.73996e-05
1.21195e-05
-2.57308e-05
1.69906e-05
-3.35509e-05
2.17235e-05
-3.98186e-05
2.59642e-05
-4.3855e-05
2.96155e-05
-4.59103e-05
3.28542e-05
-4.68281e-05
3.58295e-05
-4.70322e-05
3.86282e-05
-4.68103e-05
4.13393e-05
-4.64302e-05
4.40205e-05
-4.60208e-05
4.67023e-05
-4.56481e-05
4.93916e-05
-4.53436e-05
5.20795e-05
-4.51189e-05
5.47475e-05
-4.49775e-05
5.73632e-05
-4.49135e-05
5.98602e-05
-4.49127e-05
-4.48247e-05
-3.44798e-06
9.72313e-06
-2.38848e-06
7.89736e-06
-8.76899e-07
4.50024e-06
1.26035e-06
-9.61241e-08
4.19169e-06
-6.01391e-06
8.00364e-06
-1.34219e-05
1.26171e-05
-2.2013e-05
1.76665e-05
-3.07802e-05
2.2633e-05
-3.85174e-05
2.6968e-05
-4.41536e-05
3.05062e-05
-4.73932e-05
3.33798e-05
-4.87839e-05
3.59057e-05
-4.9354e-05
3.8232e-05
-4.93585e-05
4.04413e-05
-4.90195e-05
4.2615e-05
-4.86039e-05
4.47926e-05
-4.81984e-05
4.69888e-05
-4.78443e-05
4.92015e-05
-4.75563e-05
5.14175e-05
-4.73349e-05
5.36089e-05
-4.71688e-05
5.5731e-05
-4.70357e-05
5.77096e-05
-4.68912e-05
-4.65571e-05
-2.34981e-06
8.93054e-06
-9.60024e-07
6.50758e-06
1.00714e-06
2.53308e-06
3.70095e-06
-2.78993e-06
7.27669e-06
-9.58966e-06
1.18018e-05
-1.7947e-05
1.69949e-05
-2.72061e-05
2.2279e-05
-3.60643e-05
2.69441e-05
-4.31825e-05
3.05741e-05
-4.77836e-05
3.33079e-05
-5.0127e-05
3.55103e-05
-5.09863e-05
3.746e-05
-5.13038e-05
3.92634e-05
-5.11619e-05
4.10439e-05
-5.08001e-05
4.28492e-05
-5.04092e-05
4.46912e-05
-5.00405e-05
4.65612e-05
-4.97143e-05
4.84388e-05
-4.9434e-05
5.0296e-05
-4.9192e-05
5.20976e-05
-4.89704e-05
5.38004e-05
-4.87386e-05
5.53423e-05
-4.84331e-05
-4.78725e-05
-1.29573e-06
7.91559e-06
3.59415e-07
4.85243e-06
2.68231e-06
2.10181e-07
5.83269e-06
-5.94031e-06
1.00102e-05
-1.37672e-05
1.51651e-05
-2.31019e-05
2.07084e-05
-3.27494e-05
2.5822e-05
-4.11779e-05
2.97822e-05
-4.71427e-05
3.25458e-05
-5.05473e-05
3.45285e-05
-5.21097e-05
3.62347e-05
-5.26925e-05
3.77307e-05
-5.27997e-05
3.91396e-05
-5.25709e-05
4.05955e-05
-5.2256e-05
4.2111e-05
-5.19246e-05
4.36768e-05
-5.16063e-05
4.52715e-05
-5.13089e-05
4.68663e-05
-5.10288e-05
4.8429e-05
-5.07547e-05
4.99268e-05
-5.04682e-05
5.13247e-05
-5.01365e-05
5.25796e-05
-4.9688e-05
-4.89535e-05
-3.37826e-07
6.73155e-06
1.51288e-06
3.00173e-06
4.11595e-06
-2.39288e-06
7.71645e-06
-9.54082e-06
1.25235e-05
-1.85742e-05
1.81553e-05
-2.87337e-05
2.36784e-05
-3.82724e-05
2.81182e-05
-4.56177e-05
3.1156e-05
-5.01805e-05
3.31684e-05
-5.25597e-05
3.46716e-05
-5.36128e-05
3.59548e-05
-5.39757e-05
3.71036e-05
-5.39485e-05
3.82862e-05
-5.37534e-05
3.95204e-05
-5.34902e-05
4.08041e-05
-5.32083e-05
4.21233e-05
-5.29255e-05
4.34578e-05
-5.26434e-05
4.47848e-05
-5.23558e-05
4.60824e-05
-5.20523e-05
4.73296e-05
-5.17154e-05
4.85032e-05
-5.13101e-05
4.95762e-05
-5.07611e-05
-4.99177e-05
4.94352e-07
5.43727e-06
2.47977e-06
1.0163e-06
5.35041e-06
-5.26352e-06
9.48568e-06
-1.36761e-05
1.49017e-05
-2.39903e-05
2.06861e-05
-3.45181e-05
2.56689e-05
-4.32552e-05
2.91475e-05
-4.90963e-05
3.13555e-05
-5.23886e-05
3.28326e-05
-5.40368e-05
3.39688e-05
-5.4749e-05
3.495e-05
-5.49569e-05
3.59173e-05
-5.49158e-05
3.69169e-05
-5.4753e-05
3.79617e-05
-5.4535e-05
3.90461e-05
-5.42927e-05
4.01563e-05
-5.40357e-05
4.12755e-05
-5.37626e-05
4.23884e-05
-5.34687e-05
4.34819e-05
-5.31459e-05
4.45432e-05
-5.27767e-05
4.55558e-05
-5.23227e-05
4.65037e-05
-5.1709e-05
-5.0804e-05
1.18815e-06
4.09023e-06
3.27675e-06
-1.0723e-06
6.49281e-06
-8.47958e-06
1.12712e-05
-1.84545e-05
1.70754e-05
-2.97945e-05
2.25366e-05
-3.99793e-05
2.65644e-05
-4.7283e-05
2.91103e-05
-5.16422e-05
3.0706e-05
-5.39842e-05
3.18065e-05
-5.51373e-05
3.26847e-05
-5.56273e-05
3.34918e-05
-5.5764e-05
3.42943e-05
-5.57183e-05
3.5124e-05
-5.55827e-05
3.59911e-05
-5.54021e-05
3.68928e-05
-5.51944e-05
3.78198e-05
-5.49627e-05
3.87619e-05
-5.47046e-05
3.97092e-05
-5.44161e-05
4.06524e-05
-5.4089e-05
4.15795e-05
-5.37038e-05
4.24757e-05
-5.32189e-05
4.33313e-05
-5.25646e-05
-5.16273e-05
1.74758e-06
2.73659e-06
3.95356e-06
-3.27828e-06
7.67064e-06
-1.21967e-05
1.30704e-05
-2.38542e-05
1.8845e-05
-3.55691e-05
2.34838e-05
-4.4618e-05
2.64981e-05
-5.02974e-05
2.8336e-05
-5.34801e-05
2.95074e-05
-5.51557e-05
3.03449e-05
-5.59748e-05
3.10382e-05
-5.63205e-05
3.16847e-05
-5.64105e-05
3.23346e-05
-5.63682e-05
3.30105e-05
-5.62586e-05
3.37197e-05
-5.61113e-05
3.44609e-05
-5.59356e-05
3.52295e-05
-5.57313e-05
3.60203e-05
-5.54954e-05
3.68273e-05
-5.52231e-05
3.76428e-05
-5.49045e-05
3.84547e-05
-5.45157e-05
3.92511e-05
-5.40152e-05
4.00261e-05
-5.33397e-05
-5.23913e-05
2.19203e-06
1.40659e-06
4.59898e-06
-5.68523e-06
8.97751e-06
-1.65752e-05
1.4727e-05
-2.96037e-05
1.99537e-05
-4.07958e-05
2.35573e-05
-4.82217e-05
2.57502e-05
-5.24902e-05
2.70795e-05
-5.48094e-05
2.79425e-05
-5.60187e-05
2.85755e-05
-5.66077e-05
2.91082e-05
-5.68532e-05
2.9612e-05
-5.69143e-05
3.01235e-05
-5.68798e-05
3.066e-05
-5.6795e-05
3.12274e-05
-5.66788e-05
3.18267e-05
-5.65349e-05
3.24565e-05
-5.63611e-05
3.31143e-05
-5.61532e-05
3.37958e-05
-5.59046e-05
3.44935e-05
-5.56022e-05
3.51968e-05
-5.52191e-05
3.5897e-05
-5.47154e-05
3.65919e-05
-5.40346e-05
-5.30922e-05
2.55131e-06
1.05759e-07
5.32045e-06
-8.45437e-06
1.03671e-05
-2.16219e-05
1.60066e-05
-3.52431e-05
2.03113e-05
-4.51005e-05
2.29839e-05
-5.08943e-05
2.45598e-05
-5.40662e-05
2.5512e-05
-5.57616e-05
2.61337e-05
-5.66404e-05
2.65915e-05
-5.70655e-05
2.69798e-05
-5.72415e-05
2.73507e-05
-5.72852e-05
2.77318e-05
-5.72608e-05
2.81366e-05
-5.71998e-05
2.85714e-05
-5.71135e-05
2.9039e-05
-5.70025e-05
2.95405e-05
-5.68626e-05
3.00749e-05
-5.66876e-05
3.06381e-05
-5.64678e-05
3.12229e-05
-5.6187e-05
3.18208e-05
-5.5817e-05
3.24256e-05
-5.53202e-05
3.30376e-05
-5.46466e-05
-5.37227e-05
2.86223e-06
-1.18939e-06
6.19957e-06
-1.17917e-05
1.16845e-05
-2.71068e-05
1.67257e-05
-4.02843e-05
2.00386e-05
-4.84133e-05
2.19717e-05
-5.28274e-05
2.3082e-05
-5.51765e-05
2.37396e-05
-5.64192e-05
2.41582e-05
-5.7059e-05
2.44592e-05
-5.73665e-05
2.47119e-05
-5.74942e-05
2.49553e-05
-5.75287e-05
2.52106e-05
-5.75161e-05
2.5489e-05
-5.74782e-05
2.5797e-05
-5.74215e-05
2.61385e-05
-5.73441e-05
2.6516e-05
-5.72401e-05
2.69292e-05
-5.71008e-05
2.73748e-05
-5.69134e-05
2.78465e-05
-5.66588e-05
2.8338e-05
-5.63084e-05
2.88448e-05
-5.5827e-05
2.93682e-05
-5.517e-05
-5.42739e-05
3.18233e-06
-2.54592e-06
7.20878e-06
-1.58182e-05
1.27253e-05
-3.26234e-05
1.68805e-05
-4.44395e-05
1.93266e-05
-5.08594e-05
2.0679e-05
-5.41798e-05
2.14208e-05
-5.59184e-05
2.18323e-05
-5.68307e-05
2.20698e-05
-5.72965e-05
2.22233e-05
-5.752e-05
2.2345e-05
-5.76159e-05
2.24641e-05
-5.76478e-05
2.25968e-05
-5.76489e-05
2.27522e-05
-5.76337e-05
2.29365e-05
-5.76057e-05
2.31539e-05
-5.75615e-05
2.34076e-05
-5.74938e-05
2.36981e-05
-5.73912e-05
2.40231e-05
-5.72384e-05
2.43783e-05
-5.7014e-05
2.47591e-05
-5.66893e-05
2.51628e-05
-5.62307e-05
2.55912e-05
-5.55984e-05
-5.47376e-05
3.60179e-06
-4.1064e-06
8.27797e-06
-2.04943e-05
1.33602e-05
-3.77057e-05
1.65816e-05
-4.76608e-05
1.83108e-05
-5.25887e-05
1.92008e-05
-5.50697e-05
1.9639e-05
-5.63565e-05
1.98344e-05
-5.70261e-05
1.99041e-05
-5.73662e-05
1.9916e-05
-5.75319e-05
1.99094e-05
-5.76093e-05
1.99061e-05
-5.76445e-05
1.99183e-05
-5.7661e-05
1.99528e-05
-5.76682e-05
2.00147e-05
-5.76676e-05
2.01081e-05
-5.76549e-05
2.0236e-05
-5.76217e-05
2.04001e-05
-5.75553e-05
2.05998e-05
-5.74381e-05
2.08331e-05
-5.72473e-05
2.10977e-05
-5.69539e-05
2.13925e-05
-5.65254e-05
2.17197e-05
-5.59256e-05
-5.51068e-05
4.16013e-06
-6.05693e-06
9.31234e-06
-2.56465e-05
1.35974e-05
-4.19907e-05
1.59521e-05
-5.00155e-05
1.70965e-05
-5.37331e-05
1.76055e-05
-5.55787e-05
1.77797e-05
-5.65307e-05
1.7777e-05
-5.70235e-05
1.76867e-05
-5.72758e-05
1.75601e-05
-5.74054e-05
1.74267e-05
-5.74758e-05
1.73022e-05
-5.75201e-05
1.71953e-05
-5.7554e-05
1.71105e-05
-5.75835e-05
1.70513e-05
-5.76083e-05
1.70204e-05
-5.76241e-05
1.70208e-05
-5.76221e-05
1.70546e-05
-5.75891e-05
1.71235e-05
-5.7507e-05
1.72286e-05
-5.73523e-05
1.73706e-05
-5.70959e-05
1.75502e-05
-5.67051e-05
1.77701e-05
-5.61455e-05
-5.53759e-05
4.80197e-06
-8.5711e-06
1.01489e-05
-3.09935e-05
1.35034e-05
-4.53451e-05
1.50954e-05
-5.16075e-05
1.57516e-05
-5.43894e-05
1.59334e-05
-5.57605e-05
1.58691e-05
-5.64664e-05
1.568e-05
-5.68343e-05
1.54342e-05
-5.703e-05
1.51707e-05
-5.71419e-05
1.4911e-05
-5.72161e-05
1.46662e-05
-5.72753e-05
1.44416e-05
-5.73295e-05
1.42396e-05
-5.73814e-05
1.40612e-05
-5.74299e-05
1.39076e-05
-5.74705e-05
1.37804e-05
-5.74949e-05
1.36821e-05
-5.74908e-05
1.36161e-05
-5.74411e-05
1.35868e-05
-5.7323e-05
1.35988e-05
-5.71079e-05
1.36562e-05
-5.67624e-05
1.37633e-05
-5.62526e-05
-5.55414e-05
5.53784e-06
-1.18444e-05
1.06601e-05
-3.61157e-05
1.31488e-05
-4.78339e-05
1.40883e-05
-5.2547e-05
1.43234e-05
-5.46245e-05
1.4212e-05
-5.5649e-05
1.39256e-05
-5.61801e-05
1.3557e-05
-5.64657e-05
1.3158e-05
-5.6631e-05
1.27577e-05
-5.67415e-05
1.23713e-05
-5.68298e-05
1.20063e-05
-5.69103e-05
1.16652e-05
-5.69884e-05
1.13482e-05
-5.70644e-05
1.10542e-05
-5.7136e-05
1.07822e-05
-5.71985e-05
1.05318e-05
-5.72445e-05
1.03043e-05
-5.72633e-05
1.01037e-05
-5.72405e-05
9.93677e-06
-5.71561e-05
9.81236e-06
-5.69835e-05
9.7393e-06
-5.66893e-05
9.72747e-06
-5.62408e-05
-5.5604e-05
6.55983e-06
-1.59802e-05
1.09348e-05
-4.04907e-05
1.26066e-05
-4.95057e-05
1.29851e-05
-5.29255e-05
1.28434e-05
-5.44828e-05
1.24592e-05
-5.52648e-05
1.19603e-05
-5.56812e-05
1.14158e-05
-5.59212e-05
1.08641e-05
-5.60794e-05
1.03261e-05
-5.62035e-05
9.81201e-06
-5.63157e-05
9.32609e-06
-5.64244e-05
8.86887e-06
-5.65312e-05
8.43888e-06
-5.66344e-05
8.03357e-06
-5.67307e-05
7.65006e-06
-5.68149e-05
7.28596e-06
-5.68804e-05
6.94052e-06
-5.69179e-05
6.61602e-06
-5.69159e-05
6.31903e-06
-5.68591e-05
6.06033e-06
-5.67248e-05
5.85123e-06
-5.64802e-05
5.70255e-06
-5.60921e-05
-5.55783e-05
7.92619e-06
-2.08405e-05
1.10833e-05
-4.36477e-05
1.19415e-05
-5.03639e-05
1.18162e-05
-5.28002e-05
1.13255e-05
-5.39922e-05
1.0682e-05
-5.46214e-05
9.97757e-06
-5.49767e-05
9.25996e-06
-5.52036e-05
8.5558e-06
-5.53752e-05
7.87881e-06
-5.55265e-05
7.235e-06
-5.56719e-05
6.62596e-06
-5.58154e-05
6.05091e-06
-5.59561e-05
5.50771e-06
-5.60912e-05
4.99347e-06
-5.62164e-05
4.50501e-06
-5.63265e-05
4.03943e-06
-5.64148e-05
3.59489e-06
-5.64734e-05
3.17164e-06
-5.64927e-05
2.77362e-06
-5.64611e-05
2.41073e-06
-5.63619e-05
2.10006e-06
-5.61696e-05
1.85654e-06
-5.58486e-05
-5.53932e-05
9.3205e-06
-2.61545e-05
1.11621e-05
-4.54893e-05
1.11859e-05
-5.03877e-05
1.05863e-05
-5.22006e-05
9.77177e-06
-5.31776e-05
8.88292e-06
-5.37325e-05
7.9794e-06
-5.40732e-05
7.09155e-06
-5.43157e-05
6.23538e-06
-5.4519e-05
5.41805e-06
-5.47092e-05
4.64159e-06
-5.48954e-05
3.9054e-06
-5.50792e-05
3.20767e-06
-5.52584e-05
2.54612e-06
-5.54296e-05
1.91832e-06
-5.55886e-05
1.3221e-06
-5.57303e-05
7.55871e-07
-5.58485e-05
2.19067e-07
-5.59365e-05
-2.8759e-07
-5.5986e-05
-7.61581e-07
-5.59871e-05
-1.19466e-06
-5.59288e-05
-1.56463e-06
-5.57996e-05
-1.85314e-06
-5.556e-05
-5.49983e-05
1.06026e-05
-3.16751e-05
1.11537e-05
-4.60404e-05
1.03292e-05
-4.95632e-05
9.28386e-06
-5.11552e-05
8.17332e-06
-5.20671e-05
7.05642e-06
-5.26156e-05
5.96385e-06
-5.29806e-05
4.91125e-06
-5.32631e-05
3.90528e-06
-5.35131e-05
2.94715e-06
-5.37511e-05
2.03525e-06
-5.39835e-05
1.16688e-06
-5.42108e-05
3.3914e-07
-5.44306e-05
-4.50797e-07
-5.46397e-05
-1.20554e-06
-5.48339e-05
-1.92742e-06
-5.50084e-05
-2.6184e-06
-5.51576e-05
-3.28004e-06
-5.52749e-05
-3.91359e-06
-5.53525e-05
-4.51975e-06
-5.53809e-05
-5.09987e-06
-5.53487e-05
-5.66375e-06
-5.52357e-05
-6.23912e-06
-5.49847e-05
-5.45338e-05
1.22941e-05
-3.82602e-05
1.09007e-05
-4.4647e-05
9.31128e-06
-4.79739e-05
7.88713e-06
-4.97311e-05
6.51885e-06
-5.06988e-05
5.19712e-06
-5.12939e-05
3.92999e-06
-5.17135e-05
2.72138e-06
-5.20545e-05
1.57015e-06
-5.23618e-05
4.72463e-07
-5.26534e-05
-5.76284e-07
-5.29348e-05
-1.58056e-06
-5.32065e-05
-2.54435e-06
-5.34668e-05
-3.47125e-06
-5.37128e-05
-4.36451e-06
-5.39406e-05
-5.2272e-06
-5.41457e-05
-6.0623e-06
-5.43225e-05
-6.87274e-06
-5.44645e-05
-7.66135e-06
-5.45639e-05
-8.43095e-06
-5.46113e-05
-9.18498e-06
-5.45947e-05
-9.92692e-06
-5.44938e-05
-1.06435e-05
-5.42681e-05
-5.39317e-05
-2.33557e-07
2.33557e-07
9.38106e-08
-3.27368e-07
1.31801e-06
-1.2242e-06
3.26149e-06
-1.94348e-06
7.58659e-06
-4.3251e-06
-8.12228e-06
1.57089e-05
-5.92322e-08
2.92789e-07
5.34049e-07
-9.20648e-07
1.88642e-06
-2.57658e-06
4.08396e-06
-4.14101e-06
7.12571e-06
-7.36686e-06
-1.24752e-05
1.14786e-05
6.88199e-08
2.23969e-07
7.89366e-07
-1.64119e-06
2.15546e-06
-3.94267e-06
4.1991e-06
-6.18466e-06
6.64521e-06
-9.81296e-06
-1.50031e-05
9.1731e-06
1.62822e-07
6.11472e-08
9.37892e-07
-2.41626e-06
2.22703e-06
-5.2318e-06
3.99252e-06
-7.95015e-06
5.89357e-06
-1.1714e-05
-1.65512e-05
7.44171e-06
2.37317e-07
-1.7617e-07
1.00294e-06
-3.18189e-06
2.15294e-06
-6.38179e-06
3.59737e-06
-9.39459e-06
4.98964e-06
-1.31063e-05
-1.74465e-05
5.88498e-06
2.88209e-07
-4.64378e-07
9.90592e-07
-3.88427e-06
1.96807e-06
-7.35927e-06
3.08629e-06
-1.05128e-05
4.02415e-06
-1.40441e-05
-1.78544e-05
4.432e-06
3.01091e-07
-7.65469e-07
9.12571e-07
-4.49575e-06
1.70217e-06
-8.14887e-06
2.50872e-06
-1.13194e-05
3.05293e-06
-1.45883e-05
-1.7882e-05
3.08053e-06
2.81359e-07
-1.04683e-06
7.83582e-07
-4.99797e-06
1.38128e-06
-8.74658e-06
1.90083e-06
-1.18389e-05
2.10954e-06
-1.4797e-05
-1.76062e-05
1.83378e-06
2.36174e-07
-1.283e-06
6.18492e-07
-5.38029e-06
1.0277e-06
-9.15579e-06
1.28914e-06
-1.21003e-05
1.21435e-06
-1.47223e-05
-1.7084e-05
6.92134e-07
1.72748e-07
-1.45575e-06
4.30928e-07
-5.63847e-06
6.59825e-07
-9.38469e-06
6.92858e-07
-1.21334e-05
3.79773e-07
-1.44092e-05
-1.63588e-05
-3.45398e-07
9.83403e-08
-1.55409e-06
2.32454e-07
-5.77259e-06
2.92261e-07
-9.44449e-06
1.25704e-07
-1.19668e-05
-3.86889e-07
-1.38966e-05
-1.54649e-05
-1.28084e-06
1.98349e-08
-1.57393e-06
3.26984e-08
-5.78545e-06
-6.37592e-08
-9.34804e-06
-4.02591e-07
-1.1628e-05
-1.08164e-06
-1.32175e-05
-1.44287e-05
-2.11781e-06
-5.76498e-08
-1.51628e-06
-1.60836e-07
-5.68226e-06
-3.99857e-07
-9.10902e-06
-8.85864e-07
-1.1142e-05
-1.70233e-06
-1.24011e-05
-1.32731e-05
-2.85794e-06
-1.27992e-07
-1.38828e-06
-3.41521e-07
-5.46873e-06
-7.09845e-07
-8.74069e-06
-1.32006e-06
-1.05318e-05
-2.24795e-06
-1.14732e-05
-1.20182e-05
-3.5029e-06
-1.87349e-07
-1.20093e-06
-5.0391e-07
-5.15217e-06
-9.89331e-07
-8.25527e-06
-1.70297e-06
-9.81812e-06
-2.71827e-06
-1.04579e-05
-1.06825e-05
-4.05392e-06
-2.31901e-07
-9.69033e-07
-6.43154e-07
-4.74092e-06
-1.23499e-06
-7.66344e-06
-2.03366e-06
-9.01945e-06
-3.11367e-06
-9.37789e-06
-9.28438e-06
-4.5118e-06
-2.58289e-07
-7.10744e-07
-7.54516e-07
-4.24469e-06
-1.44418e-06
-6.97377e-06
-2.31251e-06
-8.15112e-06
-3.43528e-06
-8.25512e-06
-7.84289e-06
-4.87677e-06
-2.62289e-07
-4.48455e-07
-8.33002e-07
-3.67398e-06
-1.61483e-06
-6.19194e-06
-2.54116e-06
-7.22479e-06
-3.68561e-06
-7.11068e-06
-6.37955e-06
-5.14894e-06
-2.36765e-07
-2.1169e-07
-8.73774e-07
-3.03697e-06
-1.7448e-06
-5.32091e-06
-2.72245e-06
-6.24715e-06
-3.86892e-06
-5.9642e-06
-4.91992e-06
-5.32855e-06
-1.91292e-07
-2.03988e-08
-8.74379e-07
-2.35388e-06
-1.83089e-06
-4.3644e-06
-2.86063e-06
-5.21741e-06
-3.99255e-06
-4.83228e-06
-3.49631e-06
-5.41616e-06
-1.31802e-07
1.11404e-07
-8.31298e-07
-1.65439e-06
-1.8667e-06
-3.329e-06
-2.96213e-06
-4.12197e-06
-4.0719e-06
-3.72252e-06
-2.15535e-06
-5.41286e-06
-5.89514e-08
1.70355e-07
-7.34085e-07
-9.79254e-07
-1.83708e-06
-2.226e-06
-3.035e-06
-2.92406e-06
-4.14037e-06
-2.61715e-06
-9.85071e-07
-5.31065e-06
3.47059e-08
1.35649e-07
-5.5779e-07
-3.86758e-07
-1.70106e-06
-1.08273e-06
-3.07078e-06
-1.55433e-06
-4.25417e-06
-1.43376e-06
-1.91529e-07
-5.04771e-06
1.35649e-07
-2.51109e-07
-1.33384e-06
-2.88818e-06
-4.32194e-06
-4.51347e-06
1.20649e-05
-3.46162e-05
9.89127e-06
-4.24734e-05
8.0448e-06
-4.61274e-05
6.37419e-06
-4.80605e-05
4.7994e-06
-4.9124e-05
3.30231e-06
-4.97968e-05
1.87975e-06
-5.02909e-05
5.27087e-07
-5.07019e-05
-7.62539e-07
-5.10722e-05
-1.99645e-06
-5.14195e-05
-3.18126e-06
-5.175e-05
-4.32252e-06
-5.20653e-05
-5.42494e-06
-5.23644e-05
-6.49257e-06
-5.26452e-05
-7.52906e-06
-5.29041e-05
-8.53777e-06
-5.3137e-05
-9.52186e-06
-5.33384e-05
-1.04841e-05
-5.35022e-05
-1.14268e-05
-5.36212e-05
-1.23514e-05
-5.36868e-05
-1.32575e-05
-5.36885e-05
-1.41411e-05
-5.36102e-05
-1.49837e-05
-5.34255e-05
-5.31925e-05
1.00071e-05
-3.31447e-05
8.32558e-06
-4.07919e-05
6.52848e-06
-4.43303e-05
4.73336e-06
-4.62654e-05
3.01261e-06
-4.74033e-05
1.37623e-06
-4.81604e-05
-1.7942e-07
-4.87353e-05
-1.66242e-06
-4.92189e-05
-3.08221e-06
-4.96524e-05
-4.44747e-06
-5.00542e-05
-5.76546e-06
-5.0432e-05
-7.0421e-06
-5.07886e-05
-8.28222e-06
-5.11243e-05
-9.48995e-06
-5.14375e-05
-1.06688e-05
-5.17252e-05
-1.1822e-05
-5.19838e-05
-1.29522e-05
-5.22082e-05
-1.40613e-05
-5.23931e-05
-1.51501e-05
-5.25323e-05
-1.6218e-05
-5.26189e-05
-1.7262e-05
-5.26446e-05
-1.82743e-05
-5.25979e-05
-1.92373e-05
-5.24625e-05
-5.23263e-05
8.43455e-06
-3.24061e-05
6.75716e-06
-3.91145e-05
4.89267e-06
-4.24658e-05
3.00953e-06
-4.43822e-05
1.18453e-06
-4.55783e-05
-5.62358e-07
-4.64135e-05
-2.23248e-06
-4.70651e-05
-3.83391e-06
-4.76174e-05
-5.37588e-06
-4.81104e-05
-6.86682e-06
-4.85633e-05
-8.31363e-06
-4.89852e-05
-9.72192e-06
-4.93803e-05
-1.10962e-05
-4.975e-05
-1.24404e-05
-5.00933e-05
-1.37574e-05
-5.04082e-05
-1.50501e-05
-5.06911e-05
-1.63201e-05
-5.09382e-05
-1.75683e-05
-5.11449e-05
-1.87943e-05
-5.13063e-05
-1.99957e-05
-5.14175e-05
-2.11674e-05
-5.14729e-05
-2.23006e-05
-5.14646e-05
-2.33789e-05
-5.13842e-05
-5.1339e-05
6.7464e-06
-3.17108e-05
5.09064e-06
-3.74587e-05
3.19135e-06
-4.05665e-05
1.25008e-06
-4.24409e-05
-6.52529e-07
-4.36756e-05
-2.49079e-06
-4.45753e-05
-4.26223e-06
-4.52937e-05
-5.97262e-06
-4.59071e-05
-7.62958e-06
-4.64535e-05
-9.24022e-06
-4.69526e-05
-1.08105e-05
-4.74149e-05
-1.23453e-05
-4.78455e-05
-1.38486e-05
-4.82467e-05
-1.53235e-05
-4.86184e-05
-1.67727e-05
-4.8959e-05
-1.8198e-05
-4.92659e-05
-1.96003e-05
-4.95359e-05
-2.09795e-05
-4.97656e-05
-2.23341e-05
-4.99518e-05
-2.36601e-05
-5.00915e-05
-2.49516e-05
-5.01814e-05
-2.61994e-05
-5.02169e-05
-2.73885e-05
-5.01952e-05
-5.0235e-05
5.07088e-06
-3.08967e-05
3.40891e-06
-3.57967e-05
1.48521e-06
-3.86429e-05
-5.01531e-07
-4.04542e-05
-2.4691e-06
-4.17081e-05
-4.38791e-06
-4.26565e-05
-6.25191e-06
-4.34297e-05
-8.06394e-06
-4.4095e-05
-9.82936e-06
-4.46881e-05
-1.15536e-05
-4.52284e-05
-1.32414e-05
-4.57271e-05
-1.48967e-05
-4.61902e-05
-1.65227e-05
-4.66207e-05
-1.81218e-05
-4.70192e-05
-1.96961e-05
-4.73848e-05
-2.12465e-05
-4.77155e-05
-2.27733e-05
-4.80091e-05
-2.42754e-05
-4.82635e-05
-2.57502e-05
-4.8477e-05
-2.71931e-05
-4.86486e-05
-2.85974e-05
-4.87771e-05
-2.99539e-05
-4.88604e-05
-3.12495e-05
-4.88996e-05
-4.90184e-05
3.46191e-06
-2.99267e-05
1.76856e-06
-3.41034e-05
-1.84087e-07
-3.66902e-05
-2.21459e-06
-3.84237e-05
-4.24211e-06
-3.96806e-05
-6.23567e-06
-4.06629e-05
-8.18628e-06
-4.14791e-05
-1.0094e-05
-4.21874e-05
-1.19618e-05
-4.28202e-05
-1.37934e-05
-4.33967e-05
-1.55924e-05
-4.39281e-05
-1.73616e-05
-4.4421e-05
-1.91034e-05
-4.4879e-05
-2.08196e-05
-4.5303e-05
-2.25114e-05
-4.5693e-05
-2.41791e-05
-4.60477e-05
-2.58224e-05
-4.63658e-05
-2.74393e-05
-4.66465e-05
-2.90265e-05
-4.68898e-05
-3.05787e-05
-4.70964e-05
-3.20889e-05
-4.72669e-05
-3.35486e-05
-4.74008e-05
-3.49465e-05
-4.75017e-05
-4.76932e-05
1.94697e-06
-2.87931e-05
2.01382e-07
-3.23578e-05
-1.79061e-06
-3.46982e-05
-3.86701e-06
-3.63473e-05
-5.95352e-06
-3.7594e-05
-8.01876e-06
-3.85977e-05
-1.00516e-05
-3.94462e-05
-1.20497e-05
-4.01893e-05
-1.40141e-05
-4.08558e-05
-1.5947e-05
-4.14639e-05
-1.78505e-05
-4.20246e-05
-1.97266e-05
-4.25449e-05
-2.1577e-05
-4.30286e-05
-2.34026e-05
-4.34774e-05
-2.52041e-05
-4.38915e-05
-2.69813e-05
-4.42705e-05
-2.8733e-05
-4.46142e-05
-3.04566e-05
-4.49229e-05
-3.21482e-05
-4.51981e-05
-3.38023e-05
-4.54424e-05
-3.54118e-05
-4.56573e-05
-3.69691e-05
-4.58434e-05
-3.84651e-05
-4.60057e-05
-4.62635e-05
5.39325e-07
-2.74986e-05
-1.27471e-06
-3.05438e-05
-3.31557e-06
-3.26574e-05
-5.44281e-06
-3.422e-05
-7.58916e-06
-3.54477e-05
-9.72425e-06
-3.64626e-05
-1.18357e-05
-3.73348e-05
-1.39193e-05
-3.81056e-05
-1.59746e-05
-3.88005e-05
-1.80023e-05
-3.94362e-05
-2.00035e-05
-4.00234e-05
-2.19794e-05
-4.0569e-05
-2.39308e-05
-4.10772e-05
-2.58581e-05
-4.155e-05
-2.77614e-05
-4.19882e-05
-2.96398e-05
-4.23921e-05
-3.14917e-05
-4.27623e-05
-3.33139e-05
-4.31007e-05
-3.5102e-05
-4.341e-05
-3.68504e-05
-4.3694e-05
-3.85527e-05
-4.39551e-05
-4.02022e-05
-4.41939e-05
-4.1792e-05
-4.44159e-05
-4.47337e-05
-7.57252e-07
-2.60493e-05
-2.64988e-06
-2.86511e-05
-4.74799e-06
-3.05592e-05
-6.93063e-06
-3.20374e-05
-9.13794e-06
-3.32404e-05
-1.13413e-05
-3.42592e-05
-1.35279e-05
-3.51483e-05
-1.56922e-05
-3.59413e-05
-1.78325e-05
-3.66602e-05
-1.99485e-05
-3.73202e-05
-2.20404e-05
-3.79314e-05
-2.41086e-05
-3.85008e-05
-2.61533e-05
-3.90325e-05
-2.81743e-05
-3.9529e-05
-3.01712e-05
-3.99913e-05
-3.21427e-05
-4.04207e-05
-3.40864e-05
-4.08186e-05
-3.59989e-05
-4.11881e-05
-3.78756e-05
-4.15334e-05
-3.97109e-05
-4.18587e-05
-4.14994e-05
-4.21666e-05
-4.32358e-05
-4.24575e-05
-4.49147e-05
-4.2737e-05
-4.31089e-05
-1.94223e-06
-2.44524e-05
-3.91955e-06
-2.66738e-05
-6.08098e-06
-2.83978e-05
-8.32245e-06
-2.97959e-05
-1.05913e-05
-3.09716e-05
-1.28611e-05
-3.19894e-05
-1.51189e-05
-3.28904e-05
-1.73588e-05
-3.37014e-05
-1.95781e-05
-3.4441e-05
-2.17756e-05
-3.51227e-05
-2.39509e-05
-3.57561e-05
-2.61038e-05
-3.6348e-05
-2.82338e-05
-3.69025e-05
-3.03405e-05
-3.74223e-05
-3.24228e-05
-3.79091e-05
-3.44789e-05
-3.83646e-05
-3.65061e-05
-3.87914e-05
-3.85006e-05
-3.91936e-05
-4.04578e-05
-3.95761e-05
-4.23729e-05
-3.99436e-05
-4.42412e-05
-4.02982e-05
-4.60588e-05
-4.06399e-05
-4.78219e-05
-4.09739e-05
-4.13947e-05
-3.01723e-06
-2.2716e-05
-5.08216e-06
-2.46089e-05
-7.31062e-06
-2.61693e-05
-9.61275e-06
-2.74938e-05
-1.19425e-05
-2.86418e-05
-1.42761e-05
-2.96559e-05
-1.6601e-05
-3.05655e-05
-1.89109e-05
-3.13914e-05
-2.12027e-05
-3.21492e-05
-2.34747e-05
-3.28507e-05
-2.57259e-05
-3.35049e-05
-2.79555e-05
-3.41183e-05
-3.01629e-05
-3.46951e-05
-3.23469e-05
-3.52383e-05
-3.45061e-05
-3.57499e-05
-3.66384e-05
-3.62323e-05
-3.87406e-05
-3.66892e-05
-4.08089e-05
-3.71253e-05
-4.28388e-05
-3.75462e-05
-4.48264e-05
-3.7956e-05
-4.67683e-05
-3.83564e-05
-4.86614e-05
-3.87468e-05
-5.05029e-05
-3.91323e-05
-3.95972e-05
-3.98457e-06
-2.08493e-05
-6.13772e-06
-2.24557e-05
-8.43481e-06
-2.38723e-05
-1.07977e-05
-2.51309e-05
-1.31866e-05
-2.62529e-05
-1.55804e-05
-2.72622e-05
-1.79673e-05
-2.81785e-05
-2.03413e-05
-2.90175e-05
-2.26988e-05
-2.97917e-05
-2.50378e-05
-3.05117e-05
-2.73571e-05
-3.11857e-05
-2.96555e-05
-3.18199e-05
-3.19318e-05
-3.24188e-05
-3.41847e-05
-3.29854e-05
-3.64124e-05
-3.35222e-05
-3.86122e-05
-3.40325e-05
-4.0781e-05
-3.45204e-05
-4.29148e-05
-3.49915e-05
-4.50099e-05
-3.54511e-05
-4.70631e-05
-3.59028e-05
-4.9072e-05
-3.63475e-05
-5.10343e-05
-3.67845e-05
-5.29482e-05
-3.72184e-05
-3.77232e-05
-4.84674e-06
-1.88605e-05
-7.08717e-06
-2.02153e-05
-9.45265e-06
-2.15068e-05
-1.18749e-05
-2.27087e-05
-1.43198e-05
-2.38079e-05
-1.67692e-05
-2.48128e-05
-1.92126e-05
-2.57352e-05
-2.16439e-05
-2.65861e-05
-2.40598e-05
-2.73758e-05
-2.64581e-05
-2.81134e-05
-2.88374e-05
-2.88064e-05
-3.11961e-05
-2.94611e-05
-3.3533e-05
-3.00819e-05
-3.58462e-05
-3.06722e-05
-3.81336e-05
-3.12348e-05
-4.03924e-05
-3.17737e-05
-4.26193e-05
-3.22935e-05
-4.48107e-05
-3.28001e-05
-4.69635e-05
-3.32983e-05
-4.90754e-05
-3.3791e-05
-5.11445e-05
-3.42784e-05
-5.31695e-05
-3.47595e-05
-5.5149e-05
-3.52389e-05
-3.57797e-05
-5.6063e-06
-1.67571e-05
-7.93201e-06
-1.78896e-05
-1.03642e-05
-1.90746e-05
-1.28428e-05
-2.02301e-05
-1.53395e-05
-2.13112e-05
-1.7839e-05
-2.23133e-05
-2.03323e-05