/*--------------------------------*- C++ -*----------------------------------*\
  =========                 |
  \\      /  F ield         | OpenFOAM: The Open Source CFD Toolbox
   \\    /   O peration     | Website:  https://openfoam.org
    \\  /    A nd           | Version:  11
     \\/     M anipulation  |
\*---------------------------------------------------------------------------*/
FoamFile
{
    format      ascii;
    class       surfaceVectorField;
    location    "0.54";
    object      Uf;
}
// * * * * * * * * * * * * * * * * * * * * * * * * * * * * * * * * * * * * * //

dimensions      [0 1 -1 0 0 0 0];

internalField   nonuniform List<vector> 
5640
(
(-0.0484341 0.0380715 4.32785e-19)
(-0.0467072 0.0334157 -7.83463e-19)
(-0.138925 0.0389612 2.02793e-20)
(-0.119154 0.0451217 -2.03372e-22)
(-0.214623 0.0377721 -1.50652e-19)
(-0.225892 0.0339024 4.76875e-19)
(-0.275278 0.0544451 -4.0722e-19)
(-0.268491 0.0384872 2.36198e-20)
(-0.366572 0.115655 -2.38195e-19)
(-0.33708 0.0480696 -4.90594e-19)
(-0.520938 0.0756757 3.50251e-20)
(-0.582728 0.205316 1.24974e-20)
(-0.107318 0.0421803 -1.26626e-18)
(-0.0797304 0.0361304 -5.05814e-19)
(-0.209541 0.0396777 4.39652e-19)
(-0.173017 0.0500922 1.68012e-20)
(-0.282176 0.0366344 6.609e-19)
(-0.277347 0.0364276 -4.08755e-19)
(-0.34882 0.0397547 -6.85671e-20)
(-0.329916 0.0407904 4.59141e-19)
(-0.437677 0.0704757 -2.06595e-19)
(-0.412457 0.0547695 4.27878e-19)
(-0.530186 0.113104 3.74375e-19)
(-0.559936 0.165052 -1.7214e-19)
(-0.136285 0.0496782 7.32213e-19)
(-0.102348 0.0438295 1.25304e-18)
(-0.243486 0.0479605 -8.07041e-19)
(-0.203636 0.061648 5.85034e-19)
(-0.320533 0.0439987 -6.31365e-19)
(-0.305473 0.0465064 -4.43788e-19)
(-0.390457 0.0535924 9.68706e-19)
(-0.36174 0.0509777 -8.25772e-20)
(-0.472307 0.0925036 1.04647e-18)
(-0.439441 0.0704758 3.86834e-19)
(-0.51419 0.134565 8.88113e-20)
(-0.540423 0.17442 3.07562e-19)
(-0.160023 0.0585333 1.1444e-18)
(-0.124837 0.0517439 -3.15699e-20)
(-0.266296 0.0595753 9.87269e-19)
(-0.228427 0.0730526 -1.03876e-20)
(-0.34148 0.0559971 9.64521e-20)
(-0.322114 0.0597271 4.69884e-20)
(-0.40622 0.0688592 -6.78043e-19)
(-0.375788 0.0647332 -7.51746e-19)
(-0.471062 0.110849 -5.79132e-19)
(-0.440301 0.0878652 8.85238e-20)
(-0.486581 0.148452 -1.42148e-19)
(-0.508543 0.181407 -4.79116e-20)
(-0.182905 0.0660762 -1.19273e-18)
(-0.14783 0.0590977 -6.06679e-19)
(-0.28321 0.0719249 -9.52517e-19)
(-0.249574 0.082336 -1.08119e-18)
(-0.351661 0.070086 -7.74225e-19)
(-0.331306 0.0738664 -3.78818e-20)
(-0.406688 0.0842384 -9.50256e-21)
(-0.37865 0.0796449 -5.38071e-20)
(-0.4532 0.124195 5.3103e-19)
(-0.427905 0.104263 1.52765e-19)
(-0.452959 0.157693 -5.77938e-20)
(-0.468493 0.184716 -1.42417e-19)
(-0.204455 0.0731957 -4.66991e-19)
(-0.168124 0.0675196 3.43906e-20)
(-0.295473 0.0833058 -2.09069e-19)
(-0.265652 0.090167 4.89655e-19)
(-0.354354 0.0845553 6.81879e-19)
(-0.334845 0.0877993 3.25494e-19)
(-0.397839 0.0992955 1.0149e-19)
(-0.374049 0.0945709 3.33671e-19)
(-0.426982 0.135886 -4.33281e-19)
(-0.408043 0.119036 -5.19618e-19)
(-0.415218 0.164651 -1.24979e-19)
(-0.42407 0.186724 -5.08709e-19)
(-0.222323 0.0842186 9.65999e-19)
(-0.184471 0.0770262 1.19947e-20)
(-0.30249 0.0942326 1.03157e-18)
(-0.276028 0.0980644 5.0367e-19)
(-0.351549 0.0986661 -2.48561e-20)
(-0.334038 0.101266 4.65872e-20)
(-0.383108 0.113537 -2.63713e-19)
(-0.364435 0.109004 -3.51251e-19)
(-0.396298 0.146115 -2.20777e-19)
(-0.384041 0.132155 -4.06487e-21)
(-0.375481 0.170281 5.84487e-20)
(-0.377494 0.18801 3.3943e-20)
(-0.233531 0.0918632 -4.78866e-19)
(-0.198464 0.0858691 4.76957e-20)
(-0.30515 0.10483 -4.62198e-19)
(-0.281781 0.106072 -7.07917e-20)
(-0.344779 0.112186 -2.65446e-19)
(-0.32994 0.114207 7.0631e-20)
(-0.364843 0.126763 -1.00927e-19)
(-0.351599 0.122762 -2.72835e-19)
(-0.363678 0.154935 2.74094e-19)
(-0.358106 0.143832 2.02009e-19)
(-0.335744 0.174896 -2.8554e-19)
(-0.33088 0.188737 5.10323e-19)
(-0.24177 0.099532 4.62812e-19)
(-0.209881 0.0937606 4.76957e-20)
(-0.304365 0.115178 4.56005e-19)
(-0.283808 0.114099 -2.32508e-20)
(-0.335309 0.125088 7.5932e-20)
(-0.323429 0.12665 3.1629e-19)
(-0.344753 0.139016 1.66878e-20)
(-0.336889 0.135834 3.81948e-19)
(-0.330947 0.162634 -3.45937e-19)
(-0.331818 0.154348 3.1453e-20)
(-0.297582 0.178737 -1.14335e-19)
(-0.286015 0.188983 -3.00805e-19)
(-0.247437 0.106941 -4.34174e-19)
(-0.218563 0.100512 -3.55341e-20)
(-0.300846 0.125351 -1.77532e-19)
(-0.28274 0.122136 -4.46525e-19)
(-0.324129 0.137455 6.19947e-19)
(-0.315216 0.138704 -4.33061e-20)
(-0.324141 0.150456 4.0655e-19)
(-0.321331 0.14834 3.96255e-21)
(-0.299482 0.169488 2.66283e-19)
(-0.306377 0.163999 9.71211e-20)
(-0.26217 0.182037 3.98269e-19)
(-0.244193 0.188879 -5.51442e-20)
(-0.250358 0.113748 -2.38283e-20)
(-0.224326 0.106053 -7.72278e-23)
(-0.295201 0.135397 -3.29553e-19)
(-0.279132 0.130171 2.84279e-20)
(-0.312009 0.149426 -6.61311e-19)
(-0.305854 0.150538 -3.8195e-19)
(-0.303987 0.161339 -3.07984e-19)
(-0.305713 0.160465 2.98383e-19)
(-0.270321 0.175779 2.21428e-19)
(-0.282709 0.173106 -3.21474e-19)
(-0.2304 0.18509 5.57027e-20)
(-0.206364 0.188486 5.18491e-19)
(-0.250536 0.119878 5.03272e-20)
(-0.227021 0.11039 -7.19879e-19)
(-0.287963 0.145397 -5.82291e-21)
(-0.27345 0.138185 4.94391e-19)
(-0.299541 0.161205 5.54808e-19)
(-0.295759 0.162354 -4.44804e-20)
(-0.285027 0.1719 3.02324e-19)
(-0.290663 0.172438 2.9863e-19)
(-0.244226 0.181789 -4.95852e-19)
(-0.261536 0.181978 -3.84783e-19)
(-0.202833 0.188138 -1.13679e-19)
(-0.172875 0.188103 -4.56386e-19)
(-0.248008 0.125566 -3.46422e-19)
(-0.226474 0.113635 4.79867e-22)
(-0.279644 0.155182 4.79931e-19)
(-0.266129 0.146238 2.46784e-20)
(-0.287158 0.173017 -3.12265e-19)
(-0.285211 0.174264 -2.22262e-20)
(-0.267874 0.182416 -3.6928e-19)
(-0.276696 0.18449 -5.98683e-19)
(-0.221758 0.187796 -8.04731e-21)
(-0.243399 0.190927 1.97144e-19)
(-0.179889 0.191427 5.75573e-20)
(-0.143877 0.187807 3.23949e-19)
(-0.243111 0.13048 3.70407e-19)
(-0.222645 0.116023 7.56223e-19)
(-0.270138 0.165574 -4.7513e-19)
(-0.257227 0.15426 -9.1351e-19)
(-0.275249 0.18503 -2.89169e-19)
(-0.274612 0.186459 3.81937e-19)
(-0.252996 0.193136 -5.45604e-20)
(-0.264217 0.196805 -1.58921e-20)
(-0.203326 0.194089 2.66654e-19)
(-0.228682 0.200279 2.60412e-19)
(-0.161932 0.195215 -2.32957e-19)
(-0.11921 0.187615 -2.60748e-19)
(-0.235778 0.134889 -4.31363e-19)
(-0.215443 0.118047 -3.75732e-19)
(-0.260018 0.175937 -1.11569e-19)
(-0.246962 0.162228 3.73108e-20)
(-0.264155 0.197392 6.68373e-19)
(-0.264104 0.199005 -4.89391e-21)
(-0.240724 0.204285 2.91291e-19)
(-0.253512 0.209511 4.35582e-19)
(-0.189202 0.200956 -2.27372e-19)
(-0.217643 0.21034 -1.32427e-19)
(-0.149246 0.199564 4.0402e-21)
(-0.0978793 0.187671 -4.3455e-19)
(-0.226197 0.139373 6.91936e-20)
(-0.204422 0.121713 -3.70535e-19)
(-0.24935 0.186495 1.47566e-19)
(-0.235528 0.169984 4.9517e-19)
(-0.254065 0.210178 -2.52746e-19)
(-0.253824 0.211886 -5.70835e-19)
(-0.231294 0.216011 2.7789e-20)
(-0.244759 0.222638 -2.26674e-21)
(-0.179598 0.208571 9.5504e-20)
(-0.210471 0.221356 2.08383e-21)
(-0.142153 0.203762 2.36782e-19)
(-0.0783354 0.188181 5.09368e-19)
(-0.215408 0.145794 8.67908e-22)
(-0.188387 0.133818 3.50181e-19)
(-0.238448 0.197171 -1.76232e-19)
(-0.223475 0.176748 1.50486e-20)
(-0.245099 0.223335 -3.39471e-19)
(-0.243855 0.224807 8.53864e-20)
(-0.224897 0.228336 -2.80861e-20)
(-0.238027 0.236081 -1.73918e-19)
(-0.174838 0.216731 1.37639e-19)
(-0.20741 0.233529 1.51477e-19)
(-0.141521 0.205812 3.1049e-20)
(-0.0589248 0.188186 -1.48255e-21)
(-0.19662 0.15734 3.82238e-19)
(-0.169753 0.14235 3.47982e-19)
(-0.227609 0.207048 2.74906e-19)
(-0.212421 0.18016 2.26422e-20)
(-0.237217 0.236546 2.5958e-19)
(-0.234043 0.236963 1.80055e-19)
(-0.22164 0.241208 -3.3044e-21)
(-0.233167 0.249637 -2.94532e-20)
(-0.175973 0.225003 4.77737e-20)
(-0.208839 0.24729 6.87768e-20)
(-0.14957 0.203861 -6.46034e-20)
(-0.0387081 0.184297 -8.50852e-20)
(-0.181393 0.156828 7.15544e-21)
(-0.151477 0.136212 0)
(-0.21675 0.213425 -7.68223e-20)
(-0.200069 0.178713 1.14425e-20)
(-0.229998 0.249193 -1.02028e-19)
(-0.223464 0.247419 -9.23743e-20)
(-0.221469 0.254775 4.00475e-20)
(-0.229603 0.26306 -2.01497e-20)
(-0.184791 0.234078 -3.59067e-20)
(-0.214792 0.26403 1.65777e-20)
(-0.169015 0.199129 -6.17926e-20)
(-0.0169013 0.175903 -8.84499e-20)
(-0.166618 0.14933 3.62694e-21)
(-0.132196 0.124812 -7.424e-20)
(-0.204569 0.216471 1.57061e-21)
(-0.184821 0.173463 6.62675e-20)
(-0.222644 0.260734 -1.29847e-20)
(-0.211133 0.255701 4.70811e-20)
(-0.223607 0.269634 -4.45619e-20)
(-0.226131 0.275455 4.28373e-20)
(-0.200164 0.247435 -4.87513e-21)
(-0.223906 0.287044 -3.73558e-20)
(-0.193898 0.196828 3.38286e-20)
(0.0108074 0.184918 4.62428e-21)
(-0.147123 0.139572 -1.97055e-20)
(-0.111806 0.112417 1.64733e-19)
(-0.189628 0.216447 1.13042e-19)
(-0.166224 0.164795 -1.32523e-19)
(-0.213785 0.270187 1.03066e-19)
(-0.196274 0.261494 -8.77925e-21)
(-0.225988 0.286576 5.23128e-20)
(-0.220458 0.284789 3.67932e-21)
(-0.216504 0.271422 -1.89143e-21)
(-0.232769 0.319552 7.08212e-21)
(-0.211324 0.203586 2.05271e-21)
(0.0506082 0.235444 2.39383e-21)
(-0.127851 0.127561 6.88798e-20)
(-0.0907411 0.0979548 5.1385e-20)
(-0.172256 0.213528 -2.59493e-19)
(-0.14369 0.151606 2.19409e-19)
(-0.202021 0.276225 -1.08794e-19)
(-0.17833 0.263242 -5.87957e-20)
(-0.225275 0.305011 -3.92162e-20)
(-0.209213 0.286712 -4.95682e-20)
(-0.22862 0.308488 9.61392e-21)
(-0.237052 0.361021 -1.11664e-20)
(-0.217258 0.217977 -1.32759e-19)
(0.0996222 0.316066 -5.65199e-20)
(-0.106638 0.10984 1.93893e-19)
(-0.0671395 0.0658604 -5.85599e-19)
(-0.151983 0.205828 4.30398e-19)
(-0.113434 0.118254 1.2168e-19)
(-0.186273 0.274013 0)
(-0.154996 0.246206 0)
(-0.218164 0.319723 -1.9979e-20)
(-0.185554 0.261525 0)
(-0.233079 0.352917 -1.77513e-19)
(-0.230809 0.399302 -1.84561e-19)
(-0.203007 0.201497 1.3014e-19)
(0.161958 0.417907 -1.04529e-19)
(-0.0703396 0.0602521 -6.95602e-19)
(-0.117845 0.166325 -3.00204e-19)
(-0.151035 0.233596 0)
(-0.186354 0.305497 -1.59407e-19)
(-0.210693 0.364444 1.07489e-19)
(0.216541 0.49495 4.13079e-19)
(-0.509336 0.328577 1.53474e-20)
(-0.537959 0.307758 -2.27812e-19)
(-0.467823 0.370577 2.02983e-19)
(-0.499506 0.280006 -2.24511e-19)
(-0.508699 0.303334 0)
(-0.500071 0.303729 1.40158e-19)
(-0.483953 0.22074 -2.87682e-19)
(-0.478373 0.253505 -1.12297e-19)
(-0.500583 0.245912 -1.16301e-19)
(-0.458692 0.152284 1.42248e-19)
(-0.444532 0.193759 -5.51291e-20)
(-0.494601 0.182279 -1.54455e-19)
(-0.418129 0.0699547 2.14562e-20)
(-0.398012 0.120202 1.48622e-19)
(-0.475326 0.108814 1.02645e-19)
(-0.35631 -0.0287985 -6.52795e-20)
(-0.331008 0.028424 -1.40133e-19)
(-0.438729 0.0215752 -9.5734e-20)
(-0.268737 -0.140884 5.50874e-20)
(-0.236306 -0.083028 1.33691e-19)
(-0.378499 -0.0800488 2.12884e-19)
(-0.157372 -0.255978 -8.35775e-20)
(-0.114032 -0.204248 1.51731e-21)
(-0.292861 -0.188393 -8.25926e-20)
(-0.0292627 -0.359126 -5.32218e-20)
(0.0281707 -0.322455 -1.49542e-19)
(-0.185581 -0.292781 -5.9363e-20)
(0.104886 -0.437349 -1.54423e-20)
(0.177572 -0.420428 1.40487e-19)
(-0.0657858 -0.379661 -4.59646e-20)
(0.232824 -0.485053 -3.20175e-20)
(0.319695 -0.485266 -6.09103e-20)
(0.0557097 -0.440371 7.74525e-20)
(0.346641 -0.504016 -4.6901e-20)
(0.443203 -0.51618 -4.39339e-21)
(0.169722 -0.473051 -1.20604e-20)
(0.443641 -0.499924 -1.94371e-20)
(0.545346 -0.51937 -9.34684e-20)
(0.271223 -0.481351 -4.34314e-20)
(0.523953 -0.479538 -8.87948e-21)
(0.627278 -0.502324 -3.34266e-21)
(0.358644 -0.471272 -5.53814e-20)
(0.589556 -0.448932 3.25004e-20)
(0.692098 -0.472363 6.29935e-20)
(0.432566 -0.448525 5.36826e-20)
(0.643156 -0.412787 2.78258e-21)
(0.743461 -0.435312 9.38914e-21)
(0.494663 -0.4179 -4.84511e-21)
(0.687469 -0.374358 8.2467e-21)
(0.784754 -0.395263 1.17915e-20)
(0.547021 -0.382984 9.19554e-21)
(0.724915 -0.335727 -2.29676e-21)
(0.81882 -0.354857 -2.26172e-20)
(0.591739 -0.346211 -1.02293e-21)
(0.757522 -0.298155 -3.70057e-21)
(0.847863 -0.315707 -1.72888e-21)
(0.630667 -0.309175 5.18158e-21)
(0.78692 -0.262426 2.75649e-21)
(0.873746 -0.278682 -2.68386e-22)
(0.665464 -0.272907 -6.87774e-21)
(0.814589 -0.229128 8.66373e-21)
(0.89789 -0.244559 4.32343e-21)
(0.697352 -0.238111 9.29697e-21)
(0.841639 -0.198267 -3.0724e-21)
(0.922892 -0.213407 1.04154e-21)
(0.728337 -0.205202 1.11488e-20)
(0.868927 -0.170267 -3.52683e-21)
(0.943595 -0.186564 -6.523e-21)
(0.757271 -0.17454 -1.25131e-20)
(0.981085 -0.159782 2.21132e-21)
(0.793723 -0.145989 0)
(-0.529053 0.297544 -2.08868e-19)
(-0.547048 0.272283 -2.85191e-19)
(-0.483099 0.27811 1.15826e-19)
(-0.490918 0.291365 3.41025e-20)
(-0.437218 0.227488 1.20504e-19)
(-0.435618 0.254052 1.18304e-19)
(-0.381914 0.162418 -5.48143e-20)
(-0.371896 0.200728 6.08728e-20)
(-0.308203 0.0790321 -9.37928e-21)
(-0.292222 0.129067 -1.12304e-19)
(-0.208791 -0.0255539 5.26581e-20)
(-0.187283 0.0347289 1.62371e-19)
(-0.0815413 -0.148058 8.30294e-20)
(-0.0510323 -0.0829151 1.06042e-19)
(0.0692527 -0.275468 -6.68463e-20)
(0.112804 -0.213383 -5.17595e-21)
(0.230951 -0.389644 4.79997e-20)
(0.290106 -0.340374 -6.5821e-20)
(0.387838 -0.474352 9.71195e-20)
(0.463359 -0.443425 -3.10162e-20)
(0.526742 -0.521856 -3.76036e-20)
(0.613831 -0.508772 9.19646e-20)
(0.640263 -0.535715 -5.65205e-20)
(0.730971 -0.535275 -1.6109e-20)
(0.728789 -0.52457 -7.81653e-20)
(0.81815 -0.532167 -1.38846e-19)
(0.79617 -0.496879 6.65514e-20)
(0.881469 -0.509002 -1.88791e-20)
(0.847182 -0.459744 4.0308e-20)
(0.927148 -0.473996 2.04608e-20)
(0.886313 -0.418347 1.92391e-20)
(0.960645 -0.433328 1.30226e-20)
(0.917213 -0.376084 -1.28642e-20)
(0.98611 -0.391059 2.59597e-21)
(0.94269 -0.335082 -2.42169e-20)
(1.00649 -0.349704 -1.93421e-20)
(0.964936 -0.296635 -2.22575e-21)
(1.02378 -0.310869 -2.48992e-21)
(0.985805 -0.261586 4.25541e-21)
(1.0397 -0.27554 1.25305e-20)
(1.00644 -0.230314 -9.57371e-22)
(1.05455 -0.244307 2.19966e-21)
(1.02697 -0.20281 -3.96743e-21)
(1.07018 -0.216017 -3.08111e-21)
(1.04853 -0.179977 -3.0781e-20)
(1.08183 -0.193543 -1.88078e-21)
(1.11022 -0.169441 2.21132e-21)
(-0.5086 0.273212 -5.29069e-20)
(-0.523879 0.250796 2.33009e-19)
(-0.443209 0.27007 3.48167e-20)
(-0.452035 0.277726 -2.41514e-19)
(-0.368884 0.229083 5.97409e-20)
(-0.373056 0.250487 2.56182e-19)
(-0.280614 0.168744 9.77052e-21)
(-0.279256 0.203203 6.08728e-20)
(-0.168723 0.0860363 5.13412e-20)
(-0.163584 0.133767 1.81277e-19)
(-0.0272479 -0.021995 2.23493e-19)
(-0.0181548 0.0383669 -1.17141e-19)
(0.143161 -0.150069 1.92651e-20)
(0.160811 -0.0829932 -3.10548e-19)
(0.330974 -0.283176 -1.71128e-21)
(0.36313 -0.217185 -8.92859e-20)
(0.51724 -0.401891 -1.61866e-19)
(0.567421 -0.345094 8.37215e-20)
(0.683372 -0.486863 -1.12854e-20)
(0.750853 -0.446961 -3.74289e-19)
(0.81422 -0.530215 1.37139e-19)
(0.890543 -0.507361 1.27864e-19)
(0.907938 -0.538289 -8.55656e-20)
(0.983971 -0.527276 8.05734e-20)
(0.972116 -0.522124 -7.94514e-20)
(1.04337 -0.519797 4.41921e-20)
(1.01506 -0.49109 -1.0275e-19)
(1.07989 -0.494586 5.13409e-20)
(1.04378 -0.452383 -2.41638e-20)
(1.10161 -0.459413 -1.04413e-19)
(1.06367 -0.410794 0)
(1.11453 -0.420237 5.59824e-20)
(1.07837 -0.369285 1.79832e-20)
(1.12265 -0.380479 4.96905e-20)
(1.09023 -0.329698 1.82404e-20)
(1.12838 -0.342072 -1.2162e-20)
(1.10062 -0.293217 -1.81226e-21)
(1.13312 -0.306179 -5.25284e-21)
(1.11008 -0.260427 3.49416e-22)
(1.13765 -0.273335 1.27903e-20)
(1.11872 -0.231375 9.57901e-22)
(1.14158 -0.244175 2.19966e-21)
(1.12717 -0.206573 -1.44852e-21)
(1.14583 -0.218507 7.99873e-22)
(1.13578 -0.186354 6.89915e-22)
(1.14867 -0.197833 6.85971e-22)
(1.15907 -0.174985 7.78036e-23)
(-0.466887 0.257014 5.27468e-20)
(-0.482606 0.237646 -3.60209e-20)
(-0.383309 0.260179 -3.05715e-20)
(-0.397431 0.264786 7.41412e-22)
(-0.28304 0.226808 2.60946e-19)
(-0.296204 0.244453 6.17652e-20)
(-0.161604 0.170445 2.33857e-19)
(-0.172857 0.201265 -2.47653e-19)
(-0.0119592 0.088258 1.73287e-20)
(-0.0223121 0.1337 -1.17003e-19)
(0.171081 -0.0207276 -6.46399e-19)
(0.162436 0.0370701 -1.11134e-19)
(0.379498 -0.149867 -4.26936e-19)
(0.380298 -0.0843629 -1.03564e-19)
(0.594426 -0.281895 0)
(0.612976 -0.216098 9.13047e-20)
(0.791989 -0.396111 -1.23605e-19)
(0.832225 -0.337801 0)
(0.94908 -0.47434 -1.79664e-19)
(1.00879 -0.430098 1.32795e-19)
(1.05533 -0.51 9.99739e-20)
(1.12275 -0.48084 -1.05222e-19)
(1.11794 -0.513087 2.32428e-19)
(1.18396 -0.493081 8.00948e-20)
(1.1522 -0.495621 1.85891e-19)
(1.21364 -0.48392 5.95469e-20)
(1.16886 -0.465794 6.57032e-20)
(1.2249 -0.460566 8.3137e-20)
(1.17506 -0.430104 -2.04926e-20)
(1.2252 -0.428717 -1.013e-19)
(1.17607 -0.392744 1.05721e-19)
(1.22029 -0.394354 8.08527e-21)
(1.17497 -0.356021 1.38223e-20)
(1.21347 -0.360057 7.75232e-20)
(1.17335 -0.321192 -4.58013e-20)
(1.20646 -0.327136 -5.09909e-20)
(1.1719 -0.288907 7.25038e-21)
(1.19999 -0.296256 -2.08357e-20)
(1.17077 -0.259558 1.47085e-20)
(1.19417 -0.267753 3.3098e-20)
(1.16988 -0.23343 2.89964e-21)
(1.18881 -0.241869 -1.22838e-20)
(1.16889 -0.210696 2.93504e-21)
(1.18365 -0.218535 8.01105e-21)
(1.16604 -0.189889 7.73562e-23)
(1.17763 -0.197858 1.0375e-20)
(1.17224 -0.173824 -4.12775e-22)
(-0.413449 0.245695 -9.38434e-20)
(-0.431921 0.228895 -6.99885e-19)
(-0.312065 0.250109 9.10359e-20)
(-0.333683 0.252653 -7.13778e-20)
(-0.186554 0.221088 -4.3984e-19)
(-0.211079 0.23602 -1.29298e-19)
(-0.0338204 0.166979 -6.01332e-19)
(-0.0601358 0.194925 1.27495e-19)
(0.15226 0.0858391 -2.37513e-19)
(0.123121 0.127586 -2.31822e-19)
(0.371562 -0.0227257 4.28931e-19)
(0.3446 0.0318131 -1.08824e-19)
(0.610817 -0.148538 4.10724e-19)
(0.597212 -0.0860151 3.16736e-19)
(0.842817 -0.273203 9.23935e-20)
(0.851358 -0.209153 -1.04248e-19)
(1.03755 -0.375689 2.54922e-19)
(1.07074 -0.318093 3.05095e-19)
(1.17203 -0.441112 2.11004e-19)
(1.22361 -0.395184 -2.33241e-20)
(1.24612 -0.466852 -1.23554e-19)
(1.30255 -0.434695 -2.99326e-21)
(1.27766 -0.465835 -9.25954e-20)
(1.3318 -0.440406 -4.96883e-21)
(1.28678 -0.449635 -4.56603e-20)
(1.33742 -0.432148 0)
(1.28275 -0.423734 -8.05141e-20)
(1.3294 -0.412535 -4.60647e-20)
(1.27182 -0.393222 -8.21412e-20)
(1.31366 -0.385648 -7.08524e-20)
(1.25879 -0.361823 -2.52498e-20)
(1.29624 -0.357116 -7.60985e-20)
(1.2458 -0.3312 1.64791e-20)
(1.27918 -0.328721 2.68926e-20)
(1.23372 -0.302159 -2.85467e-20)
(1.26327 -0.301403 -2.54033e-20)
(1.22274 -0.275072 8.09676e-22)
(1.24865 -0.275621 -4.67499e-21)
(1.21268 -0.250085 6.39666e-21)
(1.23503 -0.251562 2.5024e-21)
(1.20301 -0.227182 -1.13281e-20)
(1.22186 -0.229203 1.92811e-20)
(1.19284 -0.206127 1.37449e-20)
(1.20832 -0.208263 -3.54587e-20)
(1.17969 -0.184847 9.94686e-21)
(1.19328 -0.187889 2.70565e-20)
(1.17509 -0.162782 -6.12525e-21)
(-0.353417 0.236122 -6.95145e-19)
(-0.377296 0.221982 -3.85765e-19)
(-0.234942 0.239364 -2.92068e-19)
(-0.265666 0.241089 -6.93101e-20)
(-0.0859109 0.211967 4.32402e-19)
(-0.123052 0.225255 6.39025e-20)
(0.0960041 0.158644 5.08558e-19)
(0.0535495 0.18435 3.7427e-19)
(0.315553 0.0781706 -9.66713e-20)
(0.268933 0.117164 1.21903e-19)
(0.569358 -0.0267868 -2.26943e-19)
(0.527825 0.0242116 4.40933e-21)
(0.832877 -0.144121 -1.86496e-19)
(0.810096 -0.0850157 0)
(1.06942 -0.254718 1.10281e-19)
(1.07296 -0.193777 -1.85475e-20)
(1.24439 -0.340689 2.36802e-21)
(1.27237 -0.284904 -2.06231e-20)
(1.34433 -0.391741 -2.6578e-19)
(1.3865 -0.34563 -3.91935e-19)
(1.3837 -0.409245 1.0562e-19)
(1.42787 -0.376288 -7.71222e-20)
(1.38952 -0.406773 8.75806e-20)
(1.43162 -0.379517 9.63763e-20)
(1.38032 -0.394605 0)
(1.42053 -0.37357 0)
(1.36138 -0.374297 -3.61963e-20)
(1.39825 -0.35878 8.46123e-20)
(1.33913 -0.349502 -6.4768e-20)
(1.37247 -0.338375 -7.9167e-20)
(1.31751 -0.324079 -2.84152e-20)
(1.34758 -0.316205 5.13807e-20)
(1.2974 -0.299044 -1.54537e-20)
(1.32436 -0.293619 -7.00109e-20)
(1.27883 -0.274984 -4.15435e-21)
(1.30282 -0.271366 -1.94365e-21)
(1.26145 -0.252188 -4.1958e-21)
(1.2826 -0.24984 -1.72442e-20)
(1.24465 -0.230687 1.40219e-20)
(1.26311 -0.229205 2.72232e-20)
(1.22757 -0.210246 -5.10337e-21)
(1.24355 -0.209388 -7.50115e-21)
(1.20897 -0.190175 -2.37834e-20)
(1.22293 -0.189987 -4.032e-20)
(1.1861 -0.167996 -4.31712e-21)
(1.1999 -0.169626 2.10398e-20)
(1.17173 -0.143555 -4.5635e-21)
(-0.29136 0.227199 2.32151e-19)
(-0.322145 0.215824 5.74422e-19)
(-0.156481 0.227686 2.82866e-19)
(-0.197237 0.229556 2.77064e-19)
(0.0146921 0.199883 0)
(-0.03569 0.212309 -2.55082e-19)
(0.225372 0.146418 0)
(0.166862 0.170631 -2.40588e-19)
(0.480422 0.068108 2.20849e-19)
(0.418588 0.10489 1.11025e-19)
(0.766585 -0.0291767 2.27378e-19)
(0.715995 0.0187482 4.34708e-19)
(1.0435 -0.132911 1.68187e-19)
(1.01752 -0.0762272 -2.7594e-19)
(1.26538 -0.225031 -1.66304e-19)
(1.26756 -0.167209 5.06356e-19)
(1.40268 -0.292698 -4.35646e-19)
(1.4257 -0.23967 -3.14643e-19)
(1.46236 -0.331393 -2.06561e-19)
(1.49548 -0.286775 -1.00442e-19)
(1.4726 -0.346348 -7.42398e-20)
(1.50675 -0.311273 -8.74089e-20)
(1.46172 -0.34602 9.68907e-21)
(1.4947 -0.317056 8.54563e-20)
(1.43871 -0.337293 8.38694e-20)
(1.47083 -0.314184 4.871e-20)
(1.40972 -0.322325 4.39947e-20)
(1.43994 -0.304057 -1.22583e-20)
(1.38146 -0.304612 3.39597e-20)
(1.40935 -0.290266 -7.72992e-20)
(1.35494 -0.285496 1.1964e-20)
(1.38047 -0.274355 5.27613e-20)
(1.33027 -0.265872 -5.69944e-20)
(1.35344 -0.257376 -4.76337e-20)
(1.30708 -0.246285 -1.38419e-20)
(1.3279 -0.239941 -1.40641e-20)
(1.28474 -0.227013 1.38781e-20)
(1.30332 -0.222368 -2.31052e-20)
(1.2625 -0.2081 6.23174e-21)
(1.27903 -0.204781 2.18131e-20)
(1.23943 -0.189281 -3.93288e-20)
(1.25426 -0.187105 -1.05273e-21)
(1.21421 -0.169679 4.82068e-21)
(1.22807 -0.168875 4.53186e-21)
(1.18406 -0.146741 4.57867e-21)
(1.19902 -0.148477 2.48658e-21)
(1.16417 -0.121751 -1.13974e-21)
(-0.230342 0.21842 6.26702e-19)
(-0.268751 0.210011 6.48928e-19)
(-0.0795057 0.214956 -2.4974e-19)
(-0.130971 0.217637 6.92381e-20)
(0.114376 0.185479 -4.9594e-19)
(0.0499761 0.197633 -1.89943e-19)
(0.358171 0.132848 -1.35443e-19)
(0.283555 0.155549 1.21225e-19)
(0.652662 0.0605759 3.09198e-19)
(0.579281 0.0951555 1.00215e-19)
(0.963513 -0.0243899 -6.137e-20)
(0.91005 0.0217964 2.96462e-19)
(1.23384 -0.109917 6.83361e-20)
(1.2097 -0.0559694 -3.49108e-19)
(1.41787 -0.183726 3.39987e-19)
(1.42032 -0.128828 3.28709e-19)
(1.50896 -0.236496 8.93988e-21)
(1.52718 -0.186455 2.41719e-19)
(1.53494 -0.267567 9.13478e-21)
(1.55998 -0.224919 -8.67736e-20)
(1.52722 -0.281878 7.24653e-20)
(1.55319 -0.246471 7.82494e-20)
(1.50354 -0.284556 1.2212e-19)
(1.52984 -0.255264 1.9293e-19)
(1.47193 -0.280387 -4.64024e-20)
(1.49798 -0.256013 -1.51276e-19)
(1.43974 -0.271416 -1.30743e-19)
(1.46451 -0.251277 1.04988e-19)
(1.40866 -0.259492 -5.95306e-20)
(1.43182 -0.242924 -6.93336e-20)
(1.37922 -0.245833 -5.22812e-21)
(1.4007 -0.232252 -2.31982e-20)
(1.35125 -0.231132 -7.05436e-21)
(1.37107 -0.220079 7.49261e-20)
(1.32429 -0.215777 -2.39447e-20)
(1.34252 -0.206879 -1.91725e-20)
(1.29773 -0.199949 -1.53218e-20)
(1.31452 -0.192905 -1.02596e-20)
(1.27096 -0.183642 1.51561e-20)
(1.28654 -0.178246 -3.96721e-20)
(1.24319 -0.166552 4.20427e-20)
(1.25793 -0.162804 3.74008e-20)
(1.21306 -0.147733 2.02072e-21)
(1.22777 -0.146012 -6.64037e-21)
(1.17792 -0.12484 -3.12994e-21)
(1.1946 -0.126126 8.08704e-21)
(1.15551 -0.0996735 -6.60892e-22)
(-0.172211 0.209514 1.05204e-19)
(-0.218724 0.204333 -2.69129e-19)
(-0.00483663 0.201267 1.35436e-19)
(-0.0680695 0.205137 6.92381e-20)
(0.216333 0.170223 4.14319e-19)
(0.13608 0.182083 6.49108e-20)
(0.501907 0.121705 3.58482e-19)
(0.411634 0.142852 3.60891e-19)
(0.834393 0.0613432 7.90401e-20)
(0.7553 0.0941591 -1.24933e-19)
(1.15118 -0.00747279 9.85981e-21)
(1.10102 0.0381497 -1.0982e-19)
(1.3886 -0.0755222 -6.21643e-20)
(1.3692 -0.0239091 3.28469e-19)
(1.52127 -0.134266 2.39458e-19)
(1.52359 -0.0827887 -1.47608e-19)
(1.57179 -0.177248 1.27953e-19)
(1.58525 -0.130593 1.17614e-19)
(1.57505 -0.204686 -2.5243e-20)
(1.59333 -0.164289 9.89437e-20)
(1.55489 -0.219579 1.97588e-19)
(1.5752 -0.185167 6.66214e-20)
(1.52416 -0.226027 -7.91837e-20)
(1.54517 -0.196648 5.60692e-20)
(1.49048 -0.226345 -5.30696e-21)
(1.51123 -0.201308 -1.52471e-19)
(1.45673 -0.222318 1.67771e-19)
(1.47669 -0.201149 1.62275e-19)
(1.4241 -0.215309 -3.54953e-20)
(1.44302 -0.197543 -3.72328e-20)
(1.3928 -0.206229 5.53222e-20)
(1.41064 -0.191413 6.67298e-20)
(1.36256 -0.195641 6.37051e-20)
(1.37938 -0.183367 -3.42272e-20)
(1.33294 -0.18388 -6.34996e-21)
(1.34884 -0.173792 3.07071e-21)
(1.30349 -0.171109 -3.46404e-20)
(1.31862 -0.162926 1.6612e-20)
(1.27369 -0.157293 -1.91094e-20)
(1.28829 -0.150878 -4.85061e-20)
(1.24277 -0.142083 -1.10103e-20)
(1.25724 -0.137552 3.70126e-20)
(1.20933 -0.124531 1.0069e-21)
(1.22448 -0.122326 -2.71722e-20)
(1.17082 -0.10255 1.06064e-20)
(1.1886 -0.103402 1.13145e-20)
(1.14676 -0.0780274 -3.76001e-22)
(-0.117865 0.200356 -3.13191e-19)
(-0.173088 0.198746 -1.32698e-21)
(0.0691349 0.187077 0)
(-0.00816472 0.192024 2.72226e-19)
(0.327407 0.157102 0)
(0.228358 0.167477 -6.22023e-20)
(0.661794 0.119471 -1.14097e-19)
(0.559219 0.138408 1.6978e-19)
(1.01849 0.0748038 -3.15103e-19)
(0.941105 0.10804 -4.3048e-19)
(1.31338 0.0224449 2.0886e-19)
(1.27081 0.0672895 -1.949e-19)
(1.4976 -0.033066 2.47733e-19)
(1.48286 0.0165681 2.45354e-19)
(1.58147 -0.0819014 -2.67748e-19)
(1.58301 -0.0336975 -2.67909e-19)
(1.60306 -0.119293 8.39664e-20)
(1.61281 -0.0756237 -3.25984e-19)
(1.59181 -0.145259 1.89765e-19)
(1.60572 -0.106791 2.72724e-19)
(1.56508 -0.161894 -7.32547e-20)
(1.58088 -0.128337 -1.40835e-19)
(1.53219 -0.171402 -1.62684e-20)
(1.5486 -0.142214 -6.36769e-20)
(1.49752 -0.175648 1.10357e-20)
(1.51388 -0.150338 8.59668e-20)
(1.46311 -0.175977 -3.8491e-20)
(1.4791 -0.154159 -6.73806e-20)
(1.42973 -0.173315 6.32419e-20)
(1.4452 -0.15466 0)
(1.3974 -0.168296 -2.15808e-20)
(1.41237 -0.152495 6.37482e-20)
(1.36584 -0.161344 -9.41964e-20)
(1.38036 -0.148104 -1.12682e-19)
(1.3347 -0.152743 2.5746e-20)
(1.34886 -0.141791 3.03307e-20)
(1.30361 -0.142661 3.15034e-21)
(1.31753 -0.133771 3.22567e-20)
(1.2721 -0.131089 6.06463e-21)
(1.28599 -0.12416 -2.33297e-20)
(1.23929 -0.117688 2.29277e-20)
(1.25353 -0.112879 3.92263e-20)
(1.20368 -0.10159 -1.54251e-20)
(1.2191 -0.0992699 -1.61965e-20)
(1.16291 -0.0810484 -2.04864e-20)
(1.18142 -0.0815828 5.84988e-22)
(1.13773 -0.0577799 2.89438e-21)
(-0.0670509 0.190997 5.77532e-19)
(-0.132269 0.193233 -3.44469e-21)
(0.146536 0.173504 2.17027e-19)
(0.0509775 0.178678 6.50606e-20)
(0.455182 0.15091 1.00377e-19)
(0.335525 0.157972 -1.24145e-19)
(0.834856 0.131208 -1.24836e-19)
(0.727718 0.149136 2.77599e-19)
(1.18902 0.102566 -3.18532e-19)
(1.11993 0.137283 -3.18568e-19)
(1.43528 0.0607239 -1.57898e-19)
(1.4015 0.105278 -1.6495e-19)
(1.56314 0.0132752 -2.80333e-19)
(1.55196 0.0605814 -2.27788e-20)
(1.61065 -0.0296648 -3.23061e-19)
(1.61135 0.0153801 4.52299e-20)
(1.61362 -0.0641339 -1.31872e-19)
(1.62055 -0.0231232 -2.04475e-19)
(1.5941 -0.0899601 -5.52064e-20)
(1.60434 -0.053279 1.41259e-19)
(1.56426 -0.108328 -1.32639e-19)
(1.57614 -0.0757936 -1.83147e-19)
(1.53037 -0.120731 3.71713e-20)
(1.54296 -0.0920107 8.01147e-21)
(1.4956 -0.128471 8.89694e-21)
(1.50839 -0.103224 9.98981e-20)
(1.46134 -0.132525 -2.94516e-20)
(1.4741 -0.110451 -5.83567e-20)
(1.428 -0.133577 0)
(1.44067 -0.114424 0)
(1.39549 -0.132092 -2.53152e-20)
(1.40809 -0.115636 -1.32269e-20)
(1.36353 -0.128397 9.36468e-21)
(1.37612 -0.114429 -2.55086e-20)
(1.33184 -0.122724 3.59364e-20)
(1.34449 -0.111051 2.93945e-20)
(1.30007 -0.115219 5.84729e-21)
(1.31289 -0.105691 0)
(1.26766 -0.105857 8.12384e-21)
(1.28089 -0.0984537 8.41845e-21)
(1.23367 -0.0943379 2.05663e-21)
(1.24768 -0.0892624 -2.39047e-21)
(1.1966 -0.0799266 5.87028e-21)
(1.2122 -0.077445 1.64378e-21)
(1.15428 -0.0612054 -2.33564e-20)
(1.17334 -0.0612678 -4.77563e-21)
(1.12844 -0.0394204 3.27038e-21)
(-0.018207 0.181761 -5.18037e-19)
(-0.0962073 0.187654 1.6016e-22)
(0.23394 0.163508 -2.73843e-19)
(0.114011 0.166307 1.29861e-19)
(0.602418 0.158655 4.27195e-20)
(0.465902 0.160673 -1.22948e-19)
(1.00848 0.158451 1.12176e-19)
(0.906252 0.178583 1.07819e-19)
(1.32803 0.140524 -1.68639e-19)
(1.27102 0.176922 -9.21165e-20)
(1.51398 0.103219 -2.42789e-20)
(1.48814 0.147553 -3.86701e-19)
(1.59658 0.0602544 2.93797e-19)
(1.58759 0.105291 1.37348e-19)
(1.61928 0.0205187 1.57411e-19)
(1.61909 0.0630197 7.19851e-20)
(1.6105 -0.0127013 6.36437e-20)
(1.61515 0.0262269 -7.259e-20)
(1.58621 -0.0390146 1.35111e-20)
(1.59356 -0.00385005 1.31953e-19)
(1.55493 -0.0591639 -4.53803e-20)
(1.56372 -0.0276233 -5.27179e-20)
(1.52114 -0.0741461 7.04525e-20)
(1.53066 -0.0459847 8.01147e-21)
(1.48706 -0.0848767 3.4748e-20)
(1.49693 -0.0598423 6.32528e-20)
(1.45359 -0.0920758 -3.0208e-20)
(1.46366 -0.0699515 -2.99582e-20)
(1.42091 -0.0962627 -1.31218e-20)
(1.43119 -0.0768688 0)
(1.38887 -0.0978027 -1.33271e-20)
(1.39941 -0.0809795 -8.80726e-21)
(1.35723 -0.0969634 -6.2483e-21)
(1.36809 -0.0825567 0)
(1.32569 -0.0939475 -6.33767e-21)
(1.33695 -0.0818122 -2.93377e-21)
(1.29388 -0.0888795 2.51501e-21)
(1.30567 -0.0789124 0)
(1.26116 -0.0817253 -1.08525e-21)
(1.27372 -0.0739567 4.5766e-21)
(1.22651 -0.0722179 -9.58459e-22)
(1.24023 -0.0668745 -1.19386e-21)
(1.18852 -0.0597523 5.92346e-21)
(1.20417 -0.0570078 -7.74337e-22)
(1.14523 -0.0431984 -4.78733e-21)
(1.16466 -0.0425667 -4.75997e-21)
(1.11907 -0.0229697 3.86776e-21)
(0.0315686 0.173239 6.44948e-19)
(-0.0642451 0.181531 -5.21308e-21)
(0.338063 0.162405 2.82116e-19)
(0.188066 0.157729 -2.01305e-19)
(0.763607 0.183701 -6.21395e-20)
(0.620597 0.183898 -6.10051e-20)
(1.16429 0.198707 -8.58535e-20)
(1.07473 0.22261 0)
(1.42737 0.183035 -3.11912e-19)
(1.38224 0.221667 1.61913e-19)
(1.55833 0.147254 -2.24838e-19)
(1.53802 0.190935 -1.50995e-19)
(1.60802 0.106375 -9.00291e-20)
(1.60021 0.149472 -4.95156e-20)
(1.61411 0.0680437 -1.62784e-19)
(1.61302 0.108537 4.4643e-20)
(1.59801 0.0350238 -5.47926e-21)
(1.60074 0.0722689 -7.13469e-20)
(1.57114 0.00778302 6.70133e-20)
(1.57607 0.0416677 6.63215e-20)
(1.53961 -0.0141048 0)
(1.54579 0.0165308 3.50244e-20)
(1.50662 -0.0313419 0)
(1.51351 -0.0037588 -3.27765e-20)
(1.47369 -0.0446206 0)
(1.48105 -0.0198873 0)
(1.44141 -0.0545012 0)
(1.44916 -0.0324487 -1.29484e-20)
(1.40983 -0.0613924 3.88259e-21)