/*--------------------------------*- C++ -*----------------------------------*  =========                 |
  \      /  F ield         | OpenFOAM: The Open Source CFD Toolbox
   \    /   O peration     | Website:  https://openfoam.org
    \  /    A nd           | Version:  11
     \/     M anipulation  |
\*---------------------------------------------------------------------------*/
FoamFile
{
    format      ascii;
    class       volScalarField;
    object      U;
}
// * * * * * * * * * * * * * * * * * * * * * * * * * * * * * * * * * * * * * //

dimensions      [0 1 -1 0 0 0 0];

internalField   nonuniform List<scalar> 
2880
( 
0.08977479484730755
0.21043867685171244
0.33040735940910393
0.3933668309230331
0.429742965227433
0.5687795443584389
0.14613096518871754
0.2710577191801262
0.36494984566117195
0.40749280847140307
0.45111904700238914
0.5366652765370677
0.1771961135186702
0.28994422267258285
0.3770003137182344
0.41934891837064575
0.4794940554551808
0.5812250914831254
0.20241436533177526
0.3077533239472292
0.38117758031328625
0.4272507621594243
0.49884740588085896
0.607044393021279
0.2274414575831682
0.3125239940736726
0.3760678688543839
0.4238050611094064
0.5055374876983847
0.6304378646925693
0.24224310393762025
0.32735371287863874
0.37693890271990177
0.4275861412644566
0.4990704723232398
0.6208762721845235
0.26696306533582953
0.3287118492220474
0.38247110991257727
0.430024034327088
0.5347987822942848
0.61393168509336
0.2923803289923001
0.348245953180648
0.38616458425170197
0.44005638554950377
0.5179957036114224
0.6378941764681112
0.30374610711927946
0.33970488113761277
0.39348670859139845
0.44869593635215543
0.5337804576989702
0.6441747347188063
0.31290235814553646
0.3434455068465585
0.3904328640558047
0.44910858075510196
0.5379210608797801
0.6286680564366367
0.32679991730632774
0.3575112477009816
0.3866339627414479
0.4417888084382467
0.5354714926210844
0.6242460083134719
0.32063462729288295
0.34366508418486263
0.38536860423029207
0.4436542089303364
0.5042080788467473
0.5976468636364489
0.3395333690066373
0.3523114380663125
0.3928686506826116
0.4607678062816697
0.519522796246855
0.5934674929218031
0.31663911608049256
0.3379150483318392
0.388835478546867
0.44518403521278116
0.5224304106081199
0.5881945002805269
0.3197716031706209
0.33904589475162444
0.38662500158923774
0.4538096626525904
0.5184588836984185
0.590946745627337
0.30477064618283595
0.33222126111600697
0.4001571419141181
0.44530534956343026
0.5166835056461888
0.5813119805588511
0.28854033680115954
0.334347047084185
0.3837813802507837
0.45385770167181316
0.5128206040580584
0.5883715657943236
0.2785050871959632
0.3348369567770943
0.3915323124869231
0.44666192733808785
0.5166941722852307
0.6050792617473815
0.2512535559621791
0.31811534175052736
0.39129556730220494
0.44635358434258665
0.5064544591378083
0.5803789240348883
0.23903297902798115
0.3156260519203238
0.3882214797492225
0.4431015439129301
0.5047576351438188
0.5774893838454339
0.20738949825525088
0.29824016300160366
0.37425720400993484
0.43687592399596487
0.5064769841660595
0.5836971503843408
0.17790911676057325
0.2653223717686814
0.369682607129773
0.4358120593019231
0.5116513080765214
0.5824436908720392
0.14533946403384215
0.25420851691362933
0.3589923453874233
0.423927867147214
0.518981886443518
0.5680813783733487
0.08334038518975237
0.18789804740530575
0.3129332519663971
0.3658460461746471
0.5133174332226468
0.5296154948279537
0.8389461164791869
0.813095987550503
0.727938918025745
0.7300057007868527
0.6991967193993631
0.6502222534666158
0.6467197666638186
0.6521635735239605
0.6327607117567609
0.6556650035196093
0.6582018960145306
0.7237460192138097
0.6961345519753874
0.7081434806291795
0.7437880227082441
0.789531474928127
0.7513409563896191
0.7431373850825671
0.8148169303483634
0.796631847161876
0.7798989065816531
0.7954902490639395
0.7812821320237779
0.7909466966517997
0.8706290675993889
0.8598279049703446
0.8024121677578206
0.7603818231991947
0.7086485288588145
0.7438086860860742
0.7439349421130323
0.7312949160326268
0.7079807761841463
0.7087788388934363
0.7157543835154018
0.6907774422569101
0.7421287500467729
0.76572264120273
0.7546609694277607
0.7193988397789302
0.7776569374509602
0.7618202167839814
0.7819646391602326
0.7973230304495309
0.7593319485300803
0.7875066029009092
0.7629855064390374
0.7689767044585953
0.7942334493666957
0.921671903080414
0.9065450070093295
0.8446761591775576
0.7300588464283346
0.7504924828618207
0.7115933980234345
0.718690937189018
0.751884949698339
0.7197172328982131
0.7148700777865291
0.8015026472897251
0.7844002903033873
0.7982970593169315
0.7849020151953982
0.7438276732887434
0.7741927613141912
0.7761861793318844
0.7734287888386019
0.7854628561395488
0.7736299270027915
0.7581555438520204
0.7675083723847832
0.776520211200677
0.8172692897520974
0.9138166451634232
0.9271280200862518
0.9281402110367378
0.8100912031263218
0.7829651357633456
0.7654601703533541
0.7566125650819888
0.8116175486093995
0.8207901429708166
0.8311497419333131
0.8108226414764337
0.8203943584256488
0.7974102457563648
0.7975123361732839
0.8107031003462576
0.8097145646951565
0.7809514093220593
0.8281293922113491
0.7917503837280522
0.821734078762736
0.7813638698462435
0.8042261459881185
0.7615346777051878
0.8214258794483884
0.9110925942042282
0.929210950970842
0.9250434400096929
0.8794349499460601
0.8325654797861735
0.872896187938415
0.8628376314387656
0.8643918510723291
0.8555322869732209
0.8915311063929872
0.8893730165438494
0.8780481491067849
0.8776202079845251
0.85582353596573
0.8956357900151384
0.8063231669575579
0.8288162467404863
0.8376654867200091
0.8418319926179563
0.80440840349545
0.8237414625634394
0.8051803634278338
0.8347502080663323
0.8058022751326303
0.9194121118885874
0.973144678031485
0.9891690044338034
0.9525362362357248
0.9496036503157471
0.9446464137366631
0.9862127956205647
0.9834574347143922
0.9984015570842859
1.0063960312347113
0.996542845526521
0.9852420924034657
1.002276203811939
0.9845381062507539
0.9656654425170088
0.9253603582678549
0.90888340264602
0.8796073361170255
0.9047089088911933
0.8957824338483873
0.8467710144187642
0.8361759433258475
0.8895889774232661
0.799622070131272
0.9195273617471266
0.9835176885683155
0.9841328239516103
0.9989396233321179
1.0114142498491474
1.132382989766185
1.139263573256788
1.121588967916266
1.1769164279124893
1.1403069883901542
1.096738197055754
1.1225866375957543
1.077094229301458
1.039212086466447
1.0713248689819246
1.009465944985906
0.9750922825955206
0.9635562588803641
0.9298645950750037
0.9563303656493054
0.9471920216895081
0.9484943810814765
0.9059149701202976
0.7737018820290247
0.8903209723364489
0.9576708081938136
0.9928259475704964
1.0586435911678511
1.1334659331457884
1.2276331466541635
1.267303907180852
1.2965239462352314
1.246074633387337
1.234917703230455
1.2012239002830114
1.2235864652146453
1.2049932543446187
1.1488460862197694
1.1241354225098414
1.0838163226771493
1.0612136690659406
1.0556735487285602
1.0449280547973694
1.0492809986603355
1.0160653742232595
0.9982975043057268
0.9762978574058303
0.7716655357106551
0.8951419143332401
0.9877370201753923
1.067388721021492
1.1583347588273716
1.2460821002125688
1.3664994140172417
1.3644680670719296
1.4205209898351667
1.3802166322590503
1.3612602437164276
1.332226275752016
1.3228821355274827
1.276668462309169
1.20596649056493
1.192379800197628
1.2317083840241552
1.182560913701856
1.1694360888929676
1.123046465388983
1.1317538413013883
1.0881357112771455
1.084277309306996
1.0483816735478932
0.7208461483538502
0.8809817152970906
0.9092743808789971
1.1127206685465314
1.164505450758292
1.3813779045355437
1.3968997219070778
1.4657484701218624
1.5045921834530596
1.5137121443039236
1.4559080655822179
1.4503214575632577
1.4343614255805646
1.3708787089604435
1.3349290923071369
1.297250997674579
1.306366682994001
1.2651448368977858
1.2246226952164598
1.204304710444807
1.1997883878033615
1.1668141003416204
1.130433094386429
1.1133582064886864
0.7326017860015436
0.8699293240967516
0.9243661498445643
1.0701957696523527
1.291019492396848
1.4687366399330073
1.5571029015454205
1.581088799135137
1.5621016351132628
1.565078014894092
1.5853468730279494
1.4836291650559401
1.5131827470502377
1.4882862037135771
1.4673741295628306
1.3934773864377723
1.4117576830000225
1.338506055694118
1.3153781586306037
1.2564792255481894
1.2827435425047422
1.2341781056708023
1.2142445198703835
1.1734478583462873
0.693736650712142
0.8453544851756802
0.9445629718161814
1.1610888450306482
1.3397738549077878
1.4293561166613857
1.588845384169874
1.6275971313211146
1.6865266733027315
1.6298641985206668
1.6032457935222053
1.5566408450684361
1.5668442512468443
1.5176351331483475
1.5195333855924809
1.4970592064502442
1.424706816951309
1.3986577966607578
1.378931045064121
1.3740778954733854
1.3251623491757631
1.2668119771151962
1.2240321773509404
1.2166066930701784
0.6758274838216971
0.8146956835235395
0.9531954524149564
1.2109818057603166
1.4422733628191577
1.5295703069567321
1.6464789416333332
1.6812125764622843
1.625841417361952
1.6665624956775136
1.625870097320063
1.6129460752030151
1.5998285909743992
1.5699255530495249
1.5755925892178333
1.5724831575074227
1.496203607540997
1.4203827012457821
1.4145528612558733
1.3996386020594893
1.3550715030567075
1.3271754108354838
1.2632966456422963
1.2224627258509966
0.6526129983675103
0.8151135686302946
0.9467790081257678
1.27422515137687
1.4361701031429543
1.5451105821326516
1.6333355532413156
1.6172401047985028
1.6645514477158423
1.6149132651971572
1.6870735220467359
1.6325706254389267
1.6457188014905078
1.6179975534044984
1.5952373119354963
1.5604855479807591
1.5392111760767657
1.5034170999923355
1.4628010650258323
1.4073993441891162
1.347397162799958
1.3158558487073284
1.26104960052239
1.2371534659050234
0.6772693421024425
0.8255990793549994
1.027686946795459
1.2890715245763555
1.4819508271131858
1.5416762714600525
1.6143242069123258
1.6339921773214645
1.6640475813259727
1.6660674678470153
1.6798307399380308
1.6320460100476335
1.6234785450899278
1.642044301851927
1.6331614199813633
1.5700832590870637
1.553106107805481
1.4683088232074566
1.429581961043736
1.431370091364066
1.3670384087884377
1.3241398799341733
1.2846740604577005
1.2240502240972289
0.6822993557434996
0.8427633900256739
1.1359106999377144
1.3633027692211828
1.4969360017702804
1.5807571865796777
1.5744157934892509
1.5683528007087815
1.6563129800418153
1.6010939725536026
1.678632203497116
1.6457196139812602
1.5969099957752904
1.5974161244022191
1.5770689261922142
1.5020263568609893
1.5018882380281116
1.478523940408912
1.4169599172027003
1.4077102046660008
1.3652887997308407
1.3080897767715762
1.2455942636985864
1.2068609814110312
0.6807246097660902
0.9389322845627157
1.2241174919878863
1.3733931015201841
1.5173595566895914
1.5734566585658065
1.5754829123481953
1.5669852291781183
1.6142346179266625
1.5603934598979254
1.5631049416988083
1.5608028351292935
1.5671167351941024
1.5365789025294103
1.455443125907101
1.5286600795501943
1.4802766750840342
1.4024999067585775
1.3880600655461257
1.3393319607665075
1.3082433005568919
1.2672942762335462
1.2519217732099128
1.1798800849885631
0.7058073029570147
0.9409454355553413
1.3171834983231427
1.4811040950839183
1.541772333948112
1.5322588280440848
1.5577996658557642
1.5289296964326131
1.5596355228561247
1.5653853348421136
1.5413129692299496
1.5619252627403921
1.4963805930619416
1.5122524864426372
1.4307755974290237
1.4526497753981915
1.4383307743293203
1.3703941461849336
1.3521686507943893
1.3157206674849482
1.2708113565762702
1.2099894154053445
1.1834272479263999
1.144884166824518
0.7142218760478128
1.0592661990627525
1.346530223627969
1.4481892677234023
1.525159790011074
1.5434229532234207
1.4902462453959835
1.5653716542123863
1.5291380726139094
1.5313464261332816
1.4866113420893896
1.492633749702098
1.4365416779346254
1.3878247199682965
1.374375452083241
1.3651729074543386
1.3485906210956806
1.322298055993329
1.3059426111628747
1.2796091612931346
1.1966892370297073
1.2075986336324824
1.16913309365116
1.1325045900360278
0.7520194336397916
1.2018791080622366
1.4156002087585187
1.510320020014929
1.5106218858779297
1.5161451062522409
1.5556097692231572
1.4632419846318956
1.471560934208199
1.4957267940700194
1.451244259481902
1.4121106053008923
1.3861758791154921
1.3638954623518451
1.3161125418539792
1.317671119737131
1.2711765739248306
1.2615358655238624
1.2091048669134843
1.188226099716428
1.162149566021911
1.1305126935360412
1.125182954973838
1.0782062384666555
0.8150289413819394
1.2719233089040642
1.4706351000237534
1.4878741808654317
1.5220480436511958
1.5101716199521744
1.5036918673482849
1.501670510081352
1.476606205389529
1.4115346882622724
1.3745687939687747
1.3302989263197424
1.3233405821662863
1.266461661561099
1.2423901868509022
1.2111725235882216
1.189543600865489
1.1854715160433213
1.1724945263228674
1.123422199566084
1.1174200409354298
1.0904431154861915
1.057182353565119
1.0488120175561988
0.9183107283798548
1.3708612096490291
1.4703719009142886
1.5161224494674546
1.5022992222010911
1.4937433427156528
1.4886518826410036
1.4350063737218877
1.3834585025674218
1.3777001370421993
1.3152648234720492
1.27728620752895
1.2222511473176771
1.182883029327538
1.1652234949169262
1.1385090600498118
1.1310630796055279
1.116524808870066
1.0770003012476674
1.0699145394713296
1.0579194379833472
1.036899265872903
1.02251901921453
0.9998540665983017
1.1204695652273668
1.3896010555146532
1.4134786730606428
1.465474971368373
1.4475669348559626
1.435304271208113
1.4245200898932193
1.4057686143180301
1.3577239332846418
1.296973918549888
1.2343458262833855
1.1863140004089718
1.1654104316776244
1.1150591202396247
1.0769908583290757
1.063590781563444
1.0573541756825646
1.0245268364736804
1.03977847235056
1.0133780698256802
1.018978135904017
0.9999191048633786
0.9744640009650655
0.9694608930939984
1.2864090266335482
1.4150894150086197
1.4023257385372707
1.4614864076723844
1.4431338015753916
1.3984630676837007
1.371114910165825
1.3041228458189364
1.261459215314528
1.2475609192674513
1.1617035301559469
1.1329372724095237
1.0649959175558965
1.0567201853429253
1.0338612388440434
1.0201880801236412
0.9984597934368173
0.9879446412573942
0.9887140852132612
0.9848320525654539
0.9772212687503746
0.9709318035204988
0.9627990467196125
0.9347739060670204
0.08125497487613703
0.13031547389977696
0.18812062041555228
0.2926001095693417
0.4265167992007406
0.7402278059651219
0.10059547171806113
0.13616467598084275
0.20695106103448987
0.3111775989469131
0.46784330984170047
0.626582186688533
0.10700936000462087
0.13550610258795062
0.21231203543870994
0.31895166190054064
0.4669015764782548
0.6439115619928686
0.10892388262185686
0.14195682877397148
0.22979631352438656
0.33210674139654045
0.4775307619299691
0.6255201080942449
0.11515444182764503
0.14602669675414337
0.23218556943441648
0.3437206910663303
0.4793762910213139
0.6223579902232924
0.11557347885701294
0.1484027673114125
0.23812558411512175
0.35168589014027263
0.47865745751258437
0.6349459374974522
0.11957762742404729
0.15346900693088156
0.2485554976160431
0.3586765155740923
0.48852927973033144
0.5796384424213102
0.12110613440929444
0.16152153114897283
0.2494367597237167
0.3644202804500661
0.47643240821966926
0.5808979228685771
0.12698000141779808
0.1551101263386834
0.2498454934075762
0.3691839092497851
0.463998295736083
0.5857546022296444
0.12485794922160648
0.15424022342648896
0.2529348988800588
0.36963661606436593
0.4940010925406712
0.5784044192621736
0.12255385390855973
0.1594620072232061
0.2569114253256528
0.37985262881625026
0.47569229623580955
0.5835970382026778
0.1251976818926498
0.1611656871207689
0.25819882611851747
0.3806276579721505
0.49354338748662724
0.5738117657372146
0.12821404000417302
0.16317620411642023
0.26350915487446874
0.38197050614581296
0.5022617444592369
0.551276448262762
0.1244029102819009
0.15805781107025596
0.2586802279401828
0.3855729157311575
0.5005961770856315
0.5997897951838125
0.12016206168181959
0.16124397700877702
0.2550177053035609
0.38286655001075165
0.5156256118663969
0.5644143556733588
0.11760357456037156
0.1530034985300341
0.2506310599426019
0.3805688093997948
0.5076811667392754
0.5859667040215123
0.11192728597946716
0.13894862669273517
0.2421963704431105
0.3693753086090659
0.5210772565220391
0.5760460966858492
0.10861372054708687
0.1443663830134023
0.22714119878144398
0.360952852763907
0.5022534581943137
0.5937117558105367
0.10298365799286394
0.14190094349869317
0.22065006030230327
0.3445290619023233
0.4910905082104877
0.599545092281241
0.09676177250605685
0.1297707689241234
0.19861031672894597
0.32229009531231456
0.47852598309708455
0.6019485004795744
0.08644002929334779
0.1282586880680851
0.19011503756295284
0.2987052835257036
0.4433661434624223
0.6119334740880373
0.08090228009281447
0.12261483535887553
0.18235941139283585
0.2690430135199623
0.39802782897549555
0.6035926781000741
0.07517320754676482
0.1197180977426337
0.17184900715991516
0.2504276939026578
0.3377031974496178
0.6076762844745577
0.06233478789474159
0.10753538111376588
0.1547006618872793
0.2264715277907486
0.27806759981084167
0.6095706034323494
1.237994705098962
1.344372399506959
1.3884582265845573
1.4011268297491073
1.3947003970505876
1.3474643820691035
1.2967225831913105
1.2695389122847478
1.2087305626310265
1.1119798687682911
1.0747783200875007
1.0577843730291236
1.0359809364446086
0.988096769473735
0.9939708443155406
0.9709707084693944
0.9588845107182438
0.9557560788665201
0.955538427313658
0.9485817175561964
0.9410294258047122
0.9454356997229487
0.9389330137250835
0.9298329996490339
1.062604597550558
1.2911682469673131
1.3727847483416853
1.3312658938359578
1.3463394751303663
1.3092916894043927
1.2247198157962413
1.1957781776784948
1.1190324797441686
1.0645934134453314
0.9973804386512038
0.9786298587422984
0.9472986324976191
0.9618196308142961
0.9210109321334243
0.9224886171770481
0.9417830273564811
0.9392106780006868
0.9438373832722142
0.9377138993817392
0.9370945050812326
0.9307558054368735
0.9309040812304006
0.9279387853965237
0.9568417015430353
1.1568534052704742
1.2911955213238218
1.298466962529532
1.262072649928464
1.226428234051904
1.1737644406883003
1.1085110416239523
1.0245597624906302
0.9767599325886043
0.9459712960365798
0.918123612277128
0.8970909849174231
0.9306467237356246
0.911919244302835
0.917793841971767
0.9307656753333409
0.9227114888634769
0.9365314027414702
0.9351856297173708
0.9208648773195027
0.9289836832976741
0.9198465355553627
0.920684406811283
0.8983787679685031
1.0784249333799831
1.1692358496542803
1.1913418020532005
1.1715631625998384
1.1374984028689008
1.0706771488706386
0.996889161017919
0.9665255293888955
0.926867040716171
0.8921370892130855
0.888987346360132
0.873854674242231
0.9003993420149852
0.9077203755949621
0.9048078004829736
0.9117713054510846
0.9140831400080215
0.9344985068827022
0.9206770808934569
0.9325553103659735
0.933000522847075
0.9230580107146679
0.9268071506990709
0.8236490262204929
1.0150185795634679
1.0843590932316762
1.1105427780587482
1.0833432246972894
0.9970629385225126
0.9609818122948769
0.9041236064537947
0.879385474107535
0.8617422972534102
0.8580677825306586
0.8471419943202929
0.8710575793136199
0.8807335933188062
0.8866923584192552
0.8988223852452011
0.8959373228814331
0.9247655641858477
0.9267360667622238
0.9147508956108805
0.9199496142217571
0.922353795961315
0.926816160482358
0.9277849626880997
0.8065126032380185
0.9579065608678373
1.0011749103408878
0.9837843124304955
0.9705336377517164
0.9215281522805737
0.8704410217564005
0.8398885468276065
0.8284025288546096
0.8356689788614544
0.8380582179368347
0.8503417539091763
0.8490211167898661
0.8700468586886217
0.8517571207005539
0.8689395547385252
0.9017249826446452
0.897259489806467
0.893099446458179
0.9052229839114478
0.9157782675148772
0.9066139554983362
0.926906905387866
0.9293874894506836
0.7728473595656369
0.8617125135578603
0.9060882525967098
0.8819353175853308
0.8535220564789211
0.8134808252622454
0.7725907424548588
0.7722873535513363
0.7872261492692904
0.782151746281712
0.7903870157701854
0.8215320454616961
0.8262851269731879
0.8488189655276298
0.8615332701830136
0.8602435322900409
0.874555164200518
0.8972861981438847
0.894697145182775
0.9012631757986629
0.9091806250030006
0.9269084464985902
0.9223065919754616
0.9263226806671586
0.7290545015069583
0.7612527675437304
0.816632451531359
0.773560513099795
0.7592316883337987
0.743979622987472
0.7118826949511781
0.7440152156862326
0.7465696972624604
0.7695844568032137
0.7906522752121157
0.8049221216484916
0.8184324192975213
0.8379204761607786
0.8347233081731337
0.8584764023496034
0.8862436676242118
0.8748241639968423
0.9007605718014516
0.9100522471940783
0.9079768734736959
0.9229671621468215
0.9209554000819435
0.9290444020617628
0.6930805363596035
0.7328383156224242
0.7320156927774372
0.6739633376509662
0.6712089488395487
0.6601803970520157
0.6549807954883506
0.7151444052468392
0.7210831836220963
0.7667406821182303
0.7800003711842596
0.8020906130859481
0.8016521265494785
0.832995345878984
0.8337172515830948
0.8478508724045363
0.8628361705517616
0.8739406769908707
0.901108035875227
0.9016065578285632
0.912464596280235
0.9189095805121722
0.9268159610016842
0.9324742044967349
0.6514665240045209
0.6820158466189943
0.6165472686026762
0.6138104168721434
0.6192570440738605
0.6426206753936514
0.6576936903887538
0.6756573337029887
0.702715620388717
0.7487481764957993
0.7622345165759359
0.7886922519613029
0.7971973736358318
0.8361328610045669
0.8509219720471339
0.8563257587041161
0.8674196645657528
0.8820116710829562
0.8878041345128533
0.8947894532131175
0.9117077684849942
0.9290179769091143
0.9234860707788011
0.9378085220491312
0.6333657528709622
0.6292556778780681
0.590987759997271
0.5577722986599074
0.5901345486493021
0.5887521493596272
0.6617353517058275
0.6718333631128632
0.7138520964703993
0.7470887151061462
0.771485228002076
0.7819446211901979
0.8189298225152521
0.8178729380533852
0.8404189910790913
0.8658677543545863
0.8555438983141951
0.8806786679738556
0.8869538440804613
0.9041854247914018
0.9163571059743015
0.928488877464174
0.927098191590061
0.9419372218072646
0.6202427283644544
0.572965776710027
0.5232203813735641
0.5077136802211994
0.5745559385241241
0.6024855897285446
0.6453825965301005
0.6776726100131409
0.7064251569604675
0.7409773272737668
0.777727328941074
0.7973475704409094
0.8148407919636733
0.8147241260629594
0.8395448131249352
0.8697397773576827
0.8684196735347938
0.8914410902338014
0.8901735999144592
0.9160999453393319
0.9199611608390893
0.9369259505750347
0.9438952137349059
0.9593112222031029
0.5897154922956952
0.5343359913408894
0.4371636122405934
0.506741620427148
0.5628952669523535
0.5969864835022944
0.649970722983438
0.6798987324500767
0.7360163455621092
0.7389860409299085
0.7547684952895575
0.7935508997845071
0.8102561453625254
0.8402906291426409
0.8521510077577814
0.8678501854527287
0.8755619461840363
0.8983541370333439
0.9092831084887456
0.9309199703383294
0.9401352626987481
0.9444130549471045
0.9579158471400824
0.9702247635327349
0.5832110759077357
0.48322033874896975
0.4193457723182198
0.49033563018817783
0.5374855632495991
0.5750651402253146
0.6257763861531165
0.6909393028491879
0.7370841766145741
0.7496263594943933
0.7903591084769384
0.7938691794341405
0.8234596059498218
0.8515346527069236
0.860635224236221
0.8731935863768422
0.8946304409738418
0.9114887950247615
0.918886164076653
0.946708517583813
0.9485948188201294
0.9605862058403706
0.9708608207636634
0.9785114271763431
0.5426643766656822
0.4851082418210894
0.43689937139341406
0.4752109247573225
0.563120244742481
0.6155696621484985
0.6561247666834975
0.6867059821170824
0.7483780202447566
0.7859947528819418
0.8011998873963799
0.8290631072853948
0.8123198040537465
0.8521917774503324
0.8666348915238627
0.9029619095363144
0.9162908943798869
0.9195013072646467
0.9266670153798352
0.9524258305312574
0.9651351527810734
0.9798015483687265
0.9840440844618515
0.9909456125402368
0.5476368487554489
0.4543421349670946
0.4506082561807691
0.512071387161203
0.5644053653207708
0.6278655078657631
0.6680087077607126
0.7220176057648389
0.7388335490955984
0.7794700899898045
0.8139924829967494
0.8489593953781392
0.8457802970601733
0.880867768974889
0.8895177253235049
0.9064826880244053
0.929592134630437
0.9601214310008843
0.9568501843065168
0.9714891617081325
0.9836655068129728
0.9919872741543329
0.9976171619798919
1.0070418089037994
0.5508633864298337
0.4246031867931085
0.48053538271787044
0.5414266370456775
0.5660029350733704
0.6625110659408437
0.6890564879365932
0.721731004419523
0.7656388532882417
0.79805903087764
0.8433042540959538
0.8566952823405374
0.8774842276723982
0.8989731726185887
0.9136030765644653
0.9208422443402706
0.9510393031829176
0.9659968109608927
0.9747560017080812
0.9898612840052097
0.9983037339660764
1.0115637499428216
1.0111433137414918
1.0210080521052394
0.5255347083617528
0.4435463284756897
0.5093564420784711
0.5676330623434566
0.6274481397728958
0.6690469565520252
0.7226853080037082
0.7491431528182566
0.7686011495061339
0.832729721223818
0.8365203779917918
0.8679636168468108
0.881066546377594
0.9146004630251221
0.9336981949980974
0.9424586815824039
0.9611524611992878
0.9785925953889808
0.9911672842090439
1.002424281153672
1.0139526998242312
1.0234236562517964
1.0241714605595231
1.0296162707578105
0.5166110215866392
0.4554647898583874
0.542515179946647
0.58268462617668
0.6433267600885575
0.6911542482331999
0.7368094098819147
0.7913256382144076
0.7973486964824628
0.8288750865917672
0.865146476191637
0.8969628591887304
0.9087375611110327
0.9316785345431158
0.9598534587697015
0.9742263793462068
0.9874362688147589
1.001094997504729
1.008980536670251
1.0248007264392998
1.0304411238584281
1.0324225844396313
1.0344780849087076
1.037580878711403
0.5023092182438903
0.4994241124437557
0.564213265263633
0.6262740472522588
0.661419488621478
0.7274396273177945
0.7594908689000528
0.7976783375152354
0.8231692240056642
0.8566399822537905
0.8887667237640022
0.9179096528271876
0.9439497730971524
0.9628412641203856
0.9798608632875794
0.9824310299336981
1.006148709746951
1.0208643996734477
1.032075096742822
1.0354476274851419
1.0364977400126782
1.0393010539995011
1.0439808980184289
1.0405110794426038
0.5180742894505261
0.5548945487169247
0.5882096574998098
0.6505048432785581
0.7423240319501663
0.7503467280122034
0.7944246811720899
0.8202547939820887
0.8615526956866923
0.8961699674941156
0.9286362598281555
0.9388814367740799
0.9707309837150102
0.9761033827897697
0.9917311224217515
1.0092350204136873
1.0268377432178157
1.0331036930130095
1.0450172837643827
1.0454022057712566
1.053581523240151
1.0450916741358638
1.0476579535256594
1.046338916034966
0.5460101047459135
0.6057665319138287
0.665018914341965
0.7175394667088612
0.7441353099398357
0.8117235977169237
0.8169007118638306
0.8582249458560569
0.8905826670253478
0.9332453686338085
0.9384861563412037
0.9580918433700237
0.9820917480658278
0.9987235399837718
1.0190433737555957
1.032174702032715
1.043547079603294
1.0524435442719116
1.0563564390272038
1.0577171491350248
1.0583956491292335
1.054887850284899
1.0489200848486127
1.0481875788070705
0.607342519617008
0.6633896561271797
0.7106510275650323
0.7725124234005207
0.7967508922843544
0.8361035160426282
0.8687736431410625
0.8890128565492561
0.9169900071774464
0.9481977821497077
0.9707632800440011
0.9934000064910361
1.0076056755258713
1.0250698339969209
1.0356392772918002
1.0499727312268663
1.0608922886203012
1.0615619907482805
1.067021663027986
1.0591991151053048
1.0604108690557141
1.0560979630211196
1.0540838693265044
1.0470863242598019
0.6520321125231543
0.7177713227267357
0.7614064315132016
0.8139496646627562
0.8383776547600945
0.8788989773422707
0.9033645259336819
0.9321640573530976
0.9586704607670937
0.9771571791423993
0.9953818199471481
1.024553458275955
1.033672321213601
1.0511621329873604
1.0596089817429126
1.0654127875120696
1.0732573155717113
1.0686669635434916
1.0722504554685244
1.0665446103567264
1.0657608431083327
1.0580900344552149
1.0521594127246245
1.0429310563777077
0.08302343952682305
0.22312757848635706
0.36079175898050564
0.4202276429577028
0.49196985075158794
0.3380224557808814
0.1450866884061682
0.3012564036050659
0.40026496919982685
0.4399242340763773
0.4858085750676667
0.4218227761837728
0.17668127473261058
0.3161621908383603
0.4047825275253678
0.4465085778081034
0.476619669297883
0.4739731135609331
0.20669146786418002
0.32620771397593046
0.4020232410057768
0.43114601119413276
0.4818065712914966
0.5121648239498486
0.23709044283796565
0.33507997418757596
0.38872566169196576
0.437373441493902
0.5005237055305872
0.5363734208719988
0.26460535426563964
0.3563096248324953
0.40145719067526786
0.4354214901087678
0.4898477982570062
0.5505890025315886
0.28508632006468515
0.3554925023272796
0.3867740958616943
0.4360026889245199
0.4918481797584322
0.5652861335491611
0.3009574191647242
0.35462199455395305
0.38777361008085587
0.44215489894024795
0.5006672099618876
0.5753343532575511
0.32352102493919993
0.3489166679593835
0.39943308132600513
0.43305430725327937
0.5031031428595047
0.5766419613493002
0.33310592682182466
0.3471712570445681
0.39102065861208857
0.4378434746162677
0.5118394690442163
0.5820883317963788
0.34411077374144217
0.35270558477128044
0.39239747551218523
0.44510586197850244
0.5119186430280005
0.5952538901607227
0.35515370968990345
0.35722386479309576
0.3936667198826603
0.44950231767888216
0.5101869146409668
0.5951192059118565
0.36303685074011594
0.3712354698185798
0.4084961085046801
0.44889441662305396
0.5249289707182274
0.6001613220371174
0.3545029637266832
0.3780222636691243
0.424104560579158
0.45017237646958186
0.5342919179941213
0.617543526645944
0.33834051713692936
0.36164217845464897
0.40672557552882926
0.46389732587088073
0.5454200264825082
0.6160990313600981
0.3184307597615888
0.35806890435629024
0.41157601417213835
0.4765574144527366
0.5380683406389642
0.6235559457024663
0.31083486799808946
0.36569767491905847
0.4069192912485713
0.4803868788125521
0.5678432911613174
0.6322457871991318
0.3033489917737654
0.357068486514498
0.4236064737811023
0.4811852282771293
0.5525107130575773