/*--------------------------------*- C++ -*----------------------------------*\
  =========                 |
  \\      /  F ield         | OpenFOAM: The Open Source CFD Toolbox
   \\    /   O peration     | Website:  https://openfoam.org
    \\  /    A nd           | Version:  11
     \\/     M anipulation  |
\*---------------------------------------------------------------------------*/
FoamFile
{
    format      ascii;
    class       volScalarField;
    location    "1.52";
    object      nut;
}
// * * * * * * * * * * * * * * * * * * * * * * * * * * * * * * * * * * * * * //

dimensions      [0 2 -1 0 0 0 0];

internalField   nonuniform List<scalar> 
2880
(
7.91041e-07
4.27063e-06
2.36648e-05
6.07174e-05
0.000117478
4.63577e-05
2.82099e-05
2.79464e-05
8.16971e-05
0.000144422
0.000208252
0.00024523
0.000167416
6.80845e-05
0.000156677
0.000246529
0.00034915
0.000477859
0.000187096
0.000110093
0.000226864
0.0003438
0.000480852
0.000661836
4.72952e-05
0.000149932
0.000288967
0.00042708
0.000588365
0.000780541
4.86324e-05
0.000186301
0.000340993
0.000494607
0.000667114
0.000846682
5.05562e-05
0.000217764
0.000382791
0.000546364
0.00071961
0.000877071
5.1838e-05
0.000243502
0.00041492
0.000583995
0.00075061
0.000885222
5.27023e-05
0.000262862
0.000438565
0.000607656
0.000763958
0.000881353
5.32096e-05
0.000275952
0.00045334
0.000619445
0.000764305
0.000867461
5.33768e-05
0.000282994
0.000460341
0.000620861
0.000754505
0.000844808
5.33079e-05
0.000284176
0.000460127
0.00061346
0.000735981
0.000814369
5.29432e-05
0.000279372
0.000453074
0.000598486
0.000709847
0.000776492
5.24513e-05
0.000268107
0.000439527
0.000576868
0.000676974
0.000731462
5.18026e-05
0.000251503
0.000419925
0.000549398
0.00063799
0.000679598
5.0967e-05
0.000230893
0.000394943
0.000516816
0.000593545
0.0006223
4.98802e-05
0.000207999
0.000365704
0.000479835
0.000544681
0.000561543
4.81384e-05
0.00018613
0.000334057
0.000438889
0.000493683
0.000497814
4.70022e-05
0.000174203
0.000302468
0.000393387
0.000440718
0.000431448
0.000191112
0.000165916
0.000269512
0.000342735
0.000384341
0.000366383
0.000179784
0.000148622
0.000228192
0.000284515
0.000320965
0.000299356
0.000164708
0.000113861
0.000169899
0.000211623
0.00024302
0.000239607
2.92208e-05
5.57352e-05
8.87005e-05
0.000118448
0.000139558
0.000171495
9.08643e-07
3.23077e-06
7.81612e-06
1.51098e-05
2.44638e-05
5.16758e-05
0.000791654
0.00125517
0.00134817
0.00133376
0.00130876
0.00129164
0.00128562
0.00129212
0.00131101
0.00133873
0.00137057
0.00141751
0.00146783
0.00151706
0.00156278
0.00160361
0.00163887
0.00166807
0.00169172
0.00171239
0.00173166
0.00175067
0.00176997
0.00179115
0.00087238
0.00119908
0.00125396
0.00120615
0.00115157
0.00110465
0.0010714
0.00105561
0.00105941
0.00108107
0.00111589
0.00115688
0.00120586
0.00126093
0.00131768
0.00137336
0.00142722
0.00147801
0.00152494
0.00156747
0.00160525
0.00163792
0.00166474
0.00168969
0.000944623
0.00115027
0.00115659
0.00108042
0.000999173
0.000925595
0.000867877
0.000837116
0.000817712
0.000810381
0.000812344
0.000832456
0.000869025
0.000917314
0.000972127
0.00102955
0.00108772
0.00114538
0.00120157
0.00125547
0.00130634
0.00135392
0.00139477
0.00143681
0.000982465
0.00110306
0.00106699
0.000970484
0.000870856
0.000786445
0.000715655
0.000670187
0.000623174
0.000586979
0.0005718
0.000579265
0.000608129
0.000648265
0.000694047
0.000740463
0.000785971
0.000830394
0.000873759
0.000915913
0.000955845
0.000994804
0.00102354
0.00106011
0.000994704
0.00105876
0.000994738
0.000887164
0.000784362
0.000700877
0.000640817
0.000587264
0.000520448
0.000486757
0.000497655
0.000541106
0.000601324
0.000664646
0.000718654
0.000763385
0.000800546
0.00083115
0.000855335
0.000874155
0.000888015
0.000897252
0.000894476
0.000897367
0.000992747
0.00102027
0.000941286
0.000831828
0.000730089
0.000649591
0.000595095
0.000555512
0.000490001
0.000476358
0.000506134
0.000573014
0.000648834
0.000718972
0.000781778
0.00083952
0.000892222
0.000939888
0.00098298
0.00102119
0.00105477
0.00108084
0.00109781
0.00114635
0.000985078
0.000987796
0.000905191
0.000799322
0.000699117
0.000622637
0.000577087
0.000531148
0.000474182
0.000484324
0.000547039
0.000627694
0.000708859
0.000786103
0.00086038
0.000931967
0.00100319
0.00107673
0.00115431
0.00123628
0.00132182
0.00141018
0.00151815
0.00167095
0.000971348
0.000959379
0.000879436
0.000777298
0.000674192
0.000598767
0.000559688
0.000484235
0.000470376
0.000529293
0.000620976
0.000723087
0.000830796
0.000934908
0.0010323
0.00112303
0.00120913
0.00129513
0.00138831
0.00149815
0.001633
0.0018179
0.00207366
0.00229755
0.000950911
0.000931328
0.000853151
0.000748228
0.000639967
0.000570695
0.000530563
0.000472389
0.000511964
0.000609361
0.000728826
0.000863268
0.00100016
0.00113356
0.00126412
0.00139394
0.00152505
0.00165988
0.00180328
0.00196523
0.00215837
0.00242817
0.00272942
0.00298843
0.000923843
0.000897545
0.000813946
0.000697512
0.000585564
0.000556246
0.000477402
0.000493561
0.000593442
0.000724655
0.000872851
0.00102975
0.00118175
0.00133071
0.00148127
0.00163918
0.00181178
0.0020085
0.00224057
0.00252056
0.00286191
0.00322498
0.00358184
0.00380907
0.000888911
0.000850252
0.000755916
0.000625673
0.000552014
0.000510037
0.000475008
0.00057071
0.000708206
0.000865687
0.00104164
0.00121559
0.00138807
0.0015609
0.00173724
0.00192301
0.00212849
0.00236946
0.00266558
0.00303302
0.00347129
0.00393316
0.00431557
0.00458429
0.000843693
0.000784584
0.000677949
0.000544773
0.000523594
0.000460947
0.000540109
0.000677562
0.00084377
0.00103539
0.00122816
0.00142246
0.00162037
0.0018252
0.00204205
0.00227876
0.00254715
0.00286281
0.00324103
0.0036863
0.00417876
0.00464934
0.00504114
0.00530513
0.000786527
0.000704566
0.000583983
0.000510152
0.000477072
0.000500962
0.00063715
0.000810956
0.00100961
0.00121825
0.00142962
0.00164547
0.0018688
0.0021042
0.00235931
0.00264589
0.00297939
0.00337515
0.00383937
0.00435765
0.0048814
0.00533378
0.00570472
0.00594255
0.00071926
0.00062279
0.000501025
0.000472775
0.000456433
0.000586416
0.000765029
0.000965367
0.00118724
0.00141231
0.00164348
0.00188375
0.002136
0.00240482
0.00269872
0.00303116
0.00341888
0.0038753
0.00439893
0.00496328
0.00549443
0.00595565
0.00632107
0.00652503
0.000642363
0.000540824
0.000460183
0.000446159
0.000515247
0.00069118
0.000902964
0.00113715
0.00137422
0.00161818
0.00187227
0.00213863
0.00242015
0.00272236
0.00305484
0.00343127
0.00386632
0.00436756
0.00492435
0.00550174
0.00601731
0.00646261
0.00681292
0.00698899
0.000560132
0.000457363
0.00043712
0.000445106
0.000599914
0.000833528
0.00107004
0.00131853
0.00157234
0.00183644
0.00211329
0.00240451
0.00271302
0.00304475
0.00340954
0.00382015
0.00428784
0.00481378
0.00537962
0.00594557
0.00643315
0.00684579
0.00716579
0.00732216
0.000480634
0.000404353
0.000415108
0.000490567
0.000717108
0.000978717
0.00124276
0.00150641
0.00177883
0.00206389
0.00236281
0.00267677
0.00300875
0.00336455
0.00375305
0.00418462
0.0046664
0.00519424
0.00574556
0.00627958
0.00672843
0.00710561
0.00738279
0.00752112
0.000398707
0.000379063
0.000411116
0.000575712
0.000866971
0.00115833
0.00143008
0.00170808
0.00199818
0.00230191
0.00261957
0.00295213
0.00330225
0.0036748
0.0040765
0.00451425
0.00499084
0.00549842
0.00601336
0.00649885
0.00689735
0.00722748
0.0074626
0.00758268
0.00029861
0.000366799
0.000438139
0.000695799
0.00102682
0.00132748
0.00161546
0.00191313
0.0022225
0.00254386
0.00287739
0.00322413
0.00358629
0.00396719
0.00437065
0.00479949
0.00525239
0.00571928
0.00617817
0.00659806
0.006938
0.00720573
0.00739689
0.00749692
0.0001998
0.000361818
0.000513198
0.000841542
0.00120636
0.00151305
0.00182059
0.00213454
0.0024577
0.00279091
0.00313453
0.00348929
0.00385624
0.00423644
0.00463016
0.00503592
0.00544858
0.00585687
0.00624179
0.00657917
0.00684576
0.00703407
0.00717196
0.00724617
0.000159191
0.000383722
0.000613853
0.00101801
0.00139255
0.00171323
0.00203456
0.00236096
0.00269471
0.00303631
0.00338579
0.00374316
0.00410803
0.00447892
0.00485254
0.00522323
0.00558235
0.00591756
0.00621264
0.0064497
0.00661557
0.00670839
0.00676265
0.006796
0.000190452
0.000429638
0.000769168
0.0012232
0.00158526
0.00192564
0.00225895
0.00259385
0.00293368
0.00327897
0.00362925
0.00398351
0.00433961
0.00469347
0.00503843
0.00536513
0.0056617
0.00591423
0.00610749
0.00622682
0.00626329
0.00622298
0.00614136
0.00608789
0.000221309
0.000510438
0.00097433
0.00145103
0.0018112
0.00215413
0.00249071
0.00282871
0.00317042
0.00351542
0.00386224
0.00420854
0.00455033
0.00488112
0.00519146
0.0054691
0.00569969
0.00586773
0.00595733
0.00595314
0.00584307
0.00562588
0.00532784
0.00503213
0.000256471
0.000638239
0.00121129
0.00166819
0.00204455
0.00238798
0.00272379
0.00306135
0.00340168
0.00374305
0.00408285
0.00441734
0.00474077
0.00504466
0.00531753
0.00554552
0.00571334
0.00580548
0.00580668
0.00570102
0.00546861
0.00507823
0.00446749
0.00354289
8.76621e-07
6.11468e-06
2.53727e-05
6.28973e-05
0.000128736
5.10797e-05
3.04608e-05
7.33083e-05
0.000150288
0.000247714
0.000379495
0.000457835
0.000174753
0.000145908
0.000262582
0.000397288
0.000580382
0.000828259
0.00019067
0.000197295
0.000340283
0.00049862
0.000729085
0.00105474
0.000199917
0.000230715
0.000391093
0.000574235
0.000834406
0.00119176
4.76639e-05
0.000250516
0.000423677
0.000627099
0.000912209
0.00129164
4.8643e-05
0.000265507
0.00044571
0.000662718
0.000976431
0.0013806
4.94898e-05
0.000276813
0.000459688
0.00068601
0.00103201
0.00145742
5.01266e-05
0.000284801
0.00046682
0.000704019
0.00107672
0.00152162
5.05407e-05
0.000289696
0.000468117
0.000716961
0.00111142
0.00157317
5.07587e-05
0.000291569
0.00046434
0.000723558
0.0011361
0.00161188
5.0827e-05
0.000289823
0.000456079
0.000722158
0.00114959
0.00163751
5.07819e-05
0.000284127
0.000443461
0.000711502
0.00115025
0.00164968
5.04784e-05
0.000274792
0.000426028
0.000691164
0.00113688
0.00164723
4.98728e-05
0.000261983
0.000403621
0.000659549
0.00110803
0.00162845
4.89878e-05
0.000245794
0.000376115
0.000618643
0.00105983
0.00159108
4.78357e-05
0.000226277
0.000343616
0.000566859
0.000994628
0.00153078
4.73319e-05
0.000203424
0.000306277
0.000504749
0.000907003
0.00144668
0.000195509
0.000178275
0.000263753
0.00043339
0.000795295
0.00133084
0.000186192
0.000149304
0.000215987
0.000354342
0.000659535
0.00117541
0.000172852
0.000117593
0.000162912
0.000269478
0.000503599
0.000969991
0.000155954
8.12748e-05
0.000105589
0.000179768
0.000337312
0.000703736
2.71382e-05
3.72674e-05
4.73716e-05
8.7922e-05
0.000176039
0.000380802
7.46493e-07
2.01835e-06
6.81414e-06
2.53539e-05
6.27011e-05
0.000108593
0.000342179
0.00094638
0.00156666
0.00195393
0.00229414
0.00262225
0.00295271
0.00328747
0.00362406
0.00395921
0.0042892
0.00460906
0.00491155
0.0051867
0.00542199
0.00560326
0.00571617
0.00574759
0.0056864
0.00552313
0.00524774
0.00484574
0.00429191
0.0035338
0.000888018
0.00149218
0.00187293
0.0022022
0.00252092
0.00284323
0.00317159
0.00350332
0.00383451
0.00416129
0.00447922
0.00478226
0.00506198
0.00530742
0.00550575
0.00564352
0.00570838
0.00569055
0.00558358
0.0053839
0.00508905
0.00469468
0.00419028
0.00354697
0.00122299
0.00173841
0.00208591
0.00240842
0.00272794
0.00305153
0.00337874
0.00370627
0.0040303
0.00434678
0.00465062
0.00493482
0.00518997
0.00540451
0.00556581
0.0056618
0.00568286
0.00562324
0.00548154
0.00525978
0.0049609
0.0045859
0.00413192
0.00358137
0.00143566
0.00193132
0.00227539
0.00260066
0.00292334
0.0032476
0.00357214
0.00389384
0.00420906
0.00451348
0.0048013
0.00506458
0.00529311
0.00547503
0.00559836
0.00565286
0.00563205
0.00553441
0.00536332
0.0051254
0.00482749
0.00447408
0.00406742
0.00359722
0.00160385
0.00209372
0.00244598
0.00277815
0.00310453
0.00342861
0.0037493
0.00406394
0.00436899
0.00465974
0.00492965
0.00516989
0.00536962
0.00551703
0.0056011
0.00561387
0.00555233
0.00541928
0.0052226
0.00497292
0.00468002
0.00435074
0.0039907
0.00359444
0.00174896
0.00223335
0.0025984
0.00293925
0.00326936
0.0035926
0.00390864
0.00421527
0.00450898
0.00478459
0.00503478
0.00524998
0.00541894
0.00553013
0.00557396
0.00554511
0.00544437
0.00527893
0.00506099
0.00480454
0.00452139
0.00421956
0.00390612
0.00357814
0.00186781
0.00235292
0.00273332
0.00308328
0.00341674
0.00373861
0.00404938
0.00434726
0.00462861
0.00488775
0.00511665
0.00530511
0.0054417
0.00551553
0.00551879
0.00544924
0.00531177
0.00511809
0.00488433
0.00462704
0.00435889
0.00408766
0.00382011
0.00355398
0.00196894
0.0024558
0.00285162
0.00321009
0.00354638
0.00386643
0.00417146
0.00445995
0.00472809
0.00496965
0.00517599
0.00533644
0.00543963
0.00547562
0.0054388
0.00533046
0.0051599
0.00494329
0.00470012
0.0044484
0.00420028
0.0039619
0.00373827
0.00352658
0.00205383
0.00254445
0.00295403
0.00331996
0.00365851
0.00397638
0.00427531
0.00455391
0.00480814
0.00503129
0.00521419
0.00534587
0.00541524
0.00541366
0.00533816
0.00519398
0.00499512
0.00476195
0.00451643
0.00427661
0.0040526
0.00384783
0.00366465
0.00349923
0.00212213
0.00262125
0.00304116
0.00341342
0.00375379
0.00406922
0.00436178
0.00463011
0.00486995
0.00507418
0.00523318
0.00533585
0.0053716
0.00533346
0.00522156
0.00504553
0.00482418
0.00458154
0.00434074
0.00411824
0.00392087
0.00374869
0.00360125
0.00347388
0.00217599
0.00268442
0.00311322
0.00349117
0.00383311
0.00414597
0.00443197
0.00468981
0.00491502
0.00510014
0.00523522
0.00530917
0.00531213
0.00523917
0.00509399
0.00489103
0.00465373
0.00440884
0.00417909
0.00397777
0.00380765
0.0036655
0.00354847
0.00345152
0.00221603
0.00273359
0.00317062
0.00355404
0.00389751
0.00420777
0.00448715
0.00473443
0.00494503
0.0051112
0.00522279
0.0052688
0.00524041
0.00513505
0.00496051
0.00473621
0.00448978
0.00424935
0.00403551
0.0038573
0.00371332
0.00359762
0.00350567
0.00343254
0.00224219
0.00276866
0.00321378
0.00360285
0.00394807
0.00425585
0.00452867
0.00476551
0.00496175
0.00510949
0.00519842
0.0052178
0.00516003
0.00502536
0.00482598
0.00458631
0.00433729
0.00410682
0.00391194
0.00375691
0.00363668
0.00354344
0.00347173
0.00341698
0.00225401
0.00278952
0.00324305
0.00363837
0.00398583
0.0042914
0.00455787
0.00478456
0.00496697
0.00509712
0.00516463
0.00515914
0.00507452
0.00491415
0.00469488
0.00444575
0.00419982
0.00398322
0.00380846
0.00367521
0.00357566
0.00350098
0.00344535
0.00340464
0.00225077
0.00279586
0.00325855
0.00366122
0.00401173
0.00431556
0.00457603
0.00479305
0.00496239
0.00507611
0.00512383
0.00509569
0.00498721
0.00480517
0.00457107
0.0043179
0.00407949
0.00387892
0.00372386
0.00361005
0.0035279
0.00346826
0.0034253
0.00339522
0.00223145
0.00278711
0.00326002
0.00367178
0.00402661
0.00432938
0.00458433
0.0047923
0.00494958
0.00504834
0.00507828
0.00503012
0.0049012
0.00470176
0.00445768
0.004205
0.00397705
0.00379307
0.00365614
0.003559
0.00349111
0.00344347
0.00341039
0.00338832
0.00219475
0.00276228
0.0032466
0.00367006
0.00403113
0.00433377
0.00458381
0.00478352
0.00492997
0.00501553
0.00503006
0.0049649
0.00481925
0.0046067
0.004357
0.0041082
0.00389215
0.00372404
0.00360303
0.00351973
0.00346325
0.003425
0.00339957
0.00338349
0.00213883
0.00271982
0.00321638
0.00365553
0.00402586
0.00432955
0.00457535
0.00476773
0.00490478
0.00497922
0.00498105
0.00490225
0.00474376
0.00452223
0.00427054
0.00402779
0.00382375
0.00366988
0.00356226
0.00349014
0.00344264
0.00341161
0.00339183
0.00338019
0.00206053
0.00265742
0.0031656
0.00362676
0.00401136
0.00431745
0.00455969
0.00474576
0.00487508
0.00494075
0.00493292
0.0048441
0.00467678
0.00445009
0.00419919
0.00396349
0.00377056
0.00362873
0.00353187
0.0034685
0.0034279
0.00340225
0.00338645
0.00337806
0.0019566
0.00256688
0.00309619
0.00358325
0.00398875
0.00429823
0.0045374
0.00471825
0.00484171
0.00490126
0.00488708
0.00479209
0.00461991
0.00439147
0.00414335
0.00391475
0.00373128
0.00359896
0.00351027
0.0034534
0.00341789
0.00339559
0.00338322
0.00337688
0.00181327
0.00244824
0.00301178
0.00353229
0.00396039
0.00427268
0.00450888
0.00468566
0.00480535
0.00486164
0.00484465
0.00474743
0.00457428
0.0043471
0.00410308
0.0038809
0.00370476
0.00357929
0.00349624
0.00344371
0.00341149
0.00339186
0.00338141
0.00337623
0.00161364
0.00230278
0.00292008
0.00348162
0.00392865
0.00424136
0.00447432
0.00464827
0.00476647
0.00482257
0.00480641
0.00471091
0.00454052
0.00431728
0.00407817
0.00386124
0.00369005
0.00356873
0.00348895
0.00343879
0.0034082
0.0033901
0.00338067
0.00337605
0.00135013
0.0021415
0.00283651
0.00344067
0.00389542
0.00420443
0.00443373
0.00460619
0.00472533
0.00478447
0.00477284
0.00468283
0.00451875
0.00430198
0.00406834
0.00385525
0.00368653
0.00356667
0.0034877
0.0034383
0.00340833
0.00339047
0.00338098
0.00337618
0.00104305
0.00200144
0.00278724
0.00341832
0.00386117
0.00416152
0.00438701
0.00455946
0.00468193
0.00474745
0.00474415
0.00466416
0.00450998
0.00430109
0.00407285
0.00386259
0.00369409
0.00357316
0.00349287
0.0034422
0.00341125
0.00339264
0.00338214
0.00337659
8.36319e-07
3.07084e-06
1.34292e-05
3.13848e-05
5.64774e-05
9.34761e-05
2.99675e-05
2.60104e-05
5.58036e-05
9.84656e-05
0.000163539
0.00028577
0.000176118
7.43285e-05
0.000127591
0.000212539
0.00034958
0.000615881
0.000195694
0.000126927
0.000204322
0.00034616
0.000570297
0.000939938
4.89321e-05
0.000174812
0.000283363
0.000487506
0.000779969
0.00119031
5.25064e-05
0.000219871
0.000362504
0.000620228
0.000954524
0.00136882
5.53188e-05
0.000262389
0.000438708
0.000735356
0.0010899
0.0014947
5.74877e-05
0.000300328
0.000509064
0.000829798
0.00119667
0.00156832
5.91203e-05
0.000332383
0.000571096
0.000906914
0.00126706
0.00161197
6.02985e-05
0.00035848
0.000624618
0.000963037
0.00131314
0.00163352
6.10794e-05
0.00037779
0.00066588
0.00100276
0.00134006
0.00163889
6.15008e-05
0.000389995
0.000694572
0.00102789
0.0013516
0.0016322
6.1589e-05
0.000394273
0.000710295
0.00103949
0.00135033
0.00161608
6.15507e-05
0.00038877
0.000713246
0.00103741
0.00133765
0.00159184
6.13891e-05
0.000374086
0.000703493
0.00102213
0.00131413
0.00155915
6.10406e-05
0.000352392
0.000681288
0.00099361
0.00127935
0.00151921
6.04277e-05
0.00032442
0.000647009
0.000951361
0.00123219
0.00147141
5.94555e-05
0.0002921
0.000601197
0.000894313
0.00117032
0.00141342
5.79898e-05
0.000256869
0.000546146
0.000820443
0.00108984
0.00133883
5.58294e-05
0.000219758
0.000479284
0.000731632
0.000983218
0.00123214
5.26778e-05
0.000179644
0.000397902
0.000617809
0.000846877
0.00108333
4.81292e-05
0.000134903
0.000295967
0.00046686
0.00065987
0.000874486
3.22956e-05
7.40907e-05
0.000164862
0.000268746
0.000398382
0.000597252
1.03409e-06
5.75756e-06
2.20523e-05
5.31136e-05
0.000101583
0.000199318
0.000953238
0.00198433
0.00280049
0.00341448
0.00382382
0.00411185
0.00433419
0.00450907
0.0046371
0.00471039
0.00471837
0.00465166
0.00451074
0.00431322
0.00409195
0.00388343
0.00371299
0.00358844
0.00350443
0.00345061
0.00341713
0.00339668
0.00338447
0.00337736
0.00113659
0.00209161
0.00285582
0.00340784
0.00377889
0.00405458
0.00427516
0.00445372
0.00458957
0.00467443
0.00469661
0.00464601
0.00452158
0.00433786
0.00412477
0.00391778
0.00374376
0.00361328
0.00352322
0.00346424
0.00342663
0.00340285
0.00338792
0.00337862
0.00138488
0.00222814
0.00290791
0.00338368
0.00372312
0.00398965
0.00421047
0.00439459
0.00454002
0.00463813
0.00467689
0.00464539
0.00454057
0.00437352
0.0041706
0.0039657
0.00378715
0.00364874
0.00355028
0.00348395
0.00344036
0.00341174
0.00339297
0.00338064
0.00161053
0.00234198
0.00292523
0.00334056
0.00365764
0.00391792
0.00414074
0.00433172
0.00448791
0.00460062
0.00465775
0.00464776
0.00456546
0.00441822
0.00422823
0.00402703
0.00384391
0.00369609
0.00358701
0.003511
0.00345932
0.00342416
0.00340013
0.0033837
0.00177526
0.00241489
0.00291077
0.00328319
0.00358364
0.00384037
0.00406642
0.00426501
0.00443263
0.00456073
0.00463747
0.00465081
0.0045936
0.00446943
0.00429585
0.00410109
0.00391456
0.00375672
0.0036351
0.00354701
0.00348493
0.00344113
0.00340998
0.00338801
0.00190049
0.0024452
0.00287289
0.00321422
0.00350281
0.00375773
0.00398765
0.00419413
0.00437337
0.00451719
0.00461418
0.00465207
0.00462207
0.00452415
0.00437094
0.00418653
0.00399918
0.00383188
0.00369648
0.003594
0.00351885
0.00346384
0.00342334
0.00339393
0.00197143
0.0024393
0.00281872
0.00313677
0.00341634
0.0036703
0.00390423
0.00411849
0.00430919
0.00446863
0.00458598
0.00464904
0.00464776
0.00457893
0.00445027
0.00428099
0.00409692
0.00392231
0.00377295
0.00365413
0.00356307
0.00349381
0.00344133
0.00340208
0.00200364
0.0024106
0.00275347
0.00305281
0.00332475
0.0035779
0.00381561
0.00403729
0.00423904
0.00441367
0.00455104
0.00463929
0.00466757
0.00463001
0.00452981
0.00438094
0.00420554
0.00402751
0.00386558
0.00372938
0.00361977
0.00353298
0.00346522
0.00341293
0.00200617
0.00236728
0.00268059
0.00296352
0.00322811
0.00348008
0.00372103
0.00394959
0.00416178
0.00435092
0.00450762
0.00462053
0.00467845
0.0046735
0.00460498
0.00448167
0.00432111
0.00414518
0.003974
0.00382094
0.00369091
0.00358327
0.00349632
0.00342688
0.00199033
0.00231478
0.00260237
0.00286959
0.00312628
0.00337624
0.00361963
0.00385432
0.00407623
0.00427904
0.00445409
0.00459069
0.00467761
0.00470568
0.00467099
0.00457763
0.00443813
0.00427097
0.00409582
0.00392846
0.00377761
0.00364629
0.00353588
0.00344423
0.00196322
0.00225677
0.00252056
0.00277166
0.0030192
0.00326582
0.00351054
0.00375045
0.00398118
0.0041967
0.00438892
0.00454788
0.0046626
0.00472313
0.00472321
0.00466294
0.00454997
0.00439853
0.00422613
0.00404919
0.00387916
0.00372265
0.00358472
0.00346508
0.00192919
0.00219588
0.00243671
0.00267054
0.00290706
0.00314852
0.00339307
0.003637
0.0038755
0.00410261
0.00431071
0.00449048
0.00463134
0.00472299
0.00475757
0.004732
0.00464961
0.00452009
0.00435763
0.00417746
0.00399217
0.00381101
0.00364259
0.00348898
0.00189088
0.00213411
0.00235239
0.00256738
0.00279048
0.0030244
0.0032668
0.00351317
0.00375814
0.00399558
0.00421815
0.00441702
0.00458208
0.00470297
0.00477075
0.00478
0.00473042
0.00462746
0.00448138
0.00430489
0.00411001
0.00390709
0.0037072
0.00351451
0.00184966
0.00207302
0.00226925
0.00246376
0.00267068
0.0028941
0.00313176
0.00337851
0.00362828
0.00387456
0.00411004
0.00432624
0.00451343
0.00466131
0.0047603
0.00480322
0.00478693
0.00471313
0.00458818
0.00442152
0.00422324
0.00400326
0.00377335
0.0035385
0.00180585
0.00201381
0.00218892
0.00236161
0.00254947
0.00275896
0.00298865
0.00323308
0.00348548
0.00373876
0.00398542
0.00421708
0.00442427
0.00459677
0.00472456
0.00479919
0.00481523
0.00477126
0.00467003
0.00451752
0.00432118
0.00408928
0.00383265
0.0035554
0.00175621
0.00195761
0.00211265
0.00226298
0.00242923
0.0026211
0.00283895
0.00307764
0.00332986
0.00358783
0.00384361
0.00408872
0.00431376
0.00450852
0.00466261
0.00476656
0.00481311
0.00479818
0.00472129
0.00458507
0.00439403
0.00415422
0.00387442
0.00355688
0.00169816
0.00190314
0.00204059
0.00216952
0.00231263
0.0024834
0.00268512
0.0029139
0.00316235
0.00342205
0.00368446
0.00394076
0.00418143
0.00439614
0.00457413
0.00470502
0.00477994
0.00479248
0.00473925
0.00461965
0.00443514
0.00418915
0.00388792
0.00353262
0.0016317
0.00184377
0.00197084
0.00208185
0.0022021
0.00234922
0.00253055
0.00274466
0.00298491
0.00324259
0.00350853
0.00377338
0.00402731
0.00425974
0.00445944
0.00461517
0.00471657
0.00475504
0.0047244
0.00462086
0.0044426
0.00418985
0.00386558
0.00347221
0.00155988
0.00176712
0.00189991
0.00199902
0.00209915
0.00222189
0.00237932
0.00257384
0.00280077
0.00305181
0.00331738
0.00358758
0.00385213
0.00410006
0.00431962
0.00449869
0.00462544
0.00468914
0.0046808
0.00459326
0.0044209
0.00415955
0.00380682
0.00336812
0.00148036
0.00166688
0.00182375
0.00191832
0.00200372
0.00210392
0.00223569
0.00240627
0.00261441
0.00285337
0.00311379
0.00338542
0.00365752
0.00391869
0.00415668
0.00435851
0.00451097
0.00460127
0.00461754
0.00454895
0.00438511
0.0041152
0.00372634
0.00322162
0.00137089
0.00154139
0.00173418
0.00183464
0.00191355
0.00199616
0.00210317
0.00224707
0.00243137
0.00265235
0.00290198
0.00317022
0.00344614
0.00371806
0.00397341
0.00419868
0.00437966
0.00450197
0.00455132
0.00451343
0.004373
0.00411125
0.00369714
0.0030742
0.0012001
0.00138118
0.00162039
0.00174112
0.0018242
0.00189712
0.00198354
0.00210073
0.00225761
0.00245497
0.00268755
0.00294659
0.00322162
0.00350111
0.00377264
0.00402287
0.00423777
0.00440302
0.0045044
0.00452812
0.0044633
0.00431391
0.00412834
0.00401764
0.00094067
0.00118569
0.00145598
0.00163442
0.00173052
0.00180311
0.00187611
0.00196991
0.00209844
0.00226786
0.0024772
0.0027204
0.00298847
0.0032708
0.00355585
0.00383152
0.00408562
0.00430661
0.00448393
0.00460815
0.00467258
0.00468112
0.00466127
0.00466545
0.00062105
0.000995554
0.00125089
0.00149524
0.00162598
0.00170837
0.00177729
0.00185436
0.00195714
0.00209694
0.00227804
0.00249854
0.00275226
0.00303054
0.00332355
0.00362131
0.00391446
0.00419468
0.00445389
0.00468237
0.00486822
0.00500242
0.00509075
0.00516394
9.25616e-07
4.8849e-06
1.60278e-05
3.54872e-05
5.84883e-05
0.000104943
3.16048e-05
7.02946e-05
0.000127344
0.00018626
0.00023592
0.000303674
0.000177803
0.000144164
0.000241806
0.000329022
0.000395436
0.000451875
0.000192211
0.000196549
0.000328537
0.000437095
0.000517288
0.000574006
4.77393e-05
0.000228838
0.000394016
0.000518611
0.000612326
0.000677222
5.05297e-05
0.00025693
0.00044409
0.000582361
0.000688673
0.000765421
5.26796e-05
0.000282195
0.000483035
0.000632199
0.000750172
0.000839813
5.4312e-05
0.000304736
0.000513713
0.000671631
0.000800339
0.000901287
5.55212e-05
0.00032428
0.000537263
0.000702481
0.000841355
0.000952582
5.6379e-05
0.000340355
0.000553945
0.000725585
0.000874524
0.000995991
5.69417e-05
0.000352008
0.000563619
0.000741212
0.000900638
0.00103324
5.72588e-05
0.000358164
0.000566024
0.000749272
0.000919897
0.00106498
5.73073e-05
0.000358471
0.00056082
0.000749396
0.000931921
0.00109113
5.70536e-05
0.000353426
0.000547961
0.000740967
0.000935827
0.00111099
5.64531e-05
0.000342971
0.000526944
0.000722915
0.000930215
0.00112324
5.54864e-05
0.000326974
0.000497594
0.000694554
0.000913154
0.00112579
5.41289e-05
0.000305312
0.000459817
0.000654146
0.000881686
0.00111557
5.23506e-05
0.000277896
0.000413728
0.000600769
0.000832702
0.00108824
5.01213e-05
0.000244576
0.000359685
0.000533028
0.000762089
0.00103688
4.74575e-05
0.000204946
0.000298454
0.000450353
0.000666061
0.000949225
0.000189935
0.000158489
0.000230785
0.000353724
0.000542259
0.000810304
0.000174864
0.000106057
0.000157054
0.000246884
0.000392519
0.000601382
3.08686e-05
4.72445e-05
7.75048e-05
0.000138338
0.000229834
0.000328917
8.67848e-07
3.65302e-06
1.53013e-05
5.06574e-05
0.000114464
0.00020238
0.000492831
0.000785086
0.0010807
0.00131755
0.0015054
0.00160743
0.00168192
0.00175098
0.00183397
0.00194601
0.00209642
0.0022884
0.00251989
0.00278536
0.00307771
0.00338986
0.00371583
0.00405014
0.00438482
0.00470528
0.00499006
0.0052047
0.00538345
0.00548782
0.000470268
0.000685193
0.000916062
0.00115308
0.0013637
0.00149982
0.00158557
0.00165493
0.00172608
0.00181561
0.00193648
0.00209672
0.00229913
0.00254244
0.00282323
0.00313815
0.00348512
0.00386159
0.00425911
0.00465743
0.00501403
0.00530168
0.00554432
0.00567039
0.000479268
0.000659845
0.000783618
0.000997529
0.00120321
0.00137271
0.00148025
0.00155914
0.00162763
0.00170258
0.00179883
0.00192794
0.00209733
0.00231042
0.00256824
0.00287181
0.00322348
0.00362447
0.00406707
0.00452668
0.00494089
0.00529342
0.00558549
0.00573427
0.000582913
0.000669237
0.00072955
0.000874882
0.00105524
0.00122587
0.00135782
0.00145467
0.00153038
0.00160049
0.00168015
0.0017829
0.00191953
0.00209774
0.00232309
0.00260114
0.00293906
0.00334294
0.00380841
0.00431006
0.00477122
0.00517906
0.00551284
0.00568749
0.000704748
0.000700248
0.000749809
0.000788054
0.00093255
0.00108811
0.00122713
0.00134008
0.00142838
0.00150211
0.00157433
0.00165849
0.00176696
0.00191036
0.00209791
0.0023392
0.00264596
0.0030299
0.0034929
0.00401364
0.00450984
0.00496156
0.00532945
0.00553644
0.000810916
0.000784408
0.000786146
0.000796416
0.000839023
0.000963517
0.00109384
0.00121549
0.00131719
0.0014005
0.00147388
0.00154864
0.00163684
0.0017502
0.00190007
0.00209875
0.00236135
0.00270479
0.00313915
0.00365228
0.00416825
0.0046495
0.00504253
0.00528715
0.000902485
0.000889055
0.000852513
0.000846009
0.000842833
0.00087566
0.000979947
0.00109237
0.00120006
0.00129331
0.00137315
0.0014466
0.00152349
0.00161479
0.00173218
0.00188885
0.00210131
0.00238982
0.00277225
0.003249
0.00376507
0.00425643
0.00466849
0.00494705
0.000979173
0.000989941
0.000949143
0.000909525
0.000896627
0.000869156
0.000906118
0.000989878
0.00108707
0.00118331
0.0012698
0.00134688
0.00142025
0.00149847
0.00159184
0.0017127
0.00187684
0.00210495
0.00241966
0.0028332
0.00332598
0.00380293
0.00423435
0.00452774
0.0010429
0.00107685
0.00105112
0.00100768
0.000968808
0.000942049
0.000906627
0.000929878
0.000995882
0.00108011
0.00116693
0.0012478
0.00132222
0.00139479
0.0014732
0.00156759
0.0016914
0.00186304
0.00210577
0.00244096
0.00287215
0.00332902
0.00375318
0.00405333
0.00109752
0.00114921
0.00114466
0.00111005
0.00106226
0.00102908
0.000988527
0.000940424
0.000954644
0.0010055
0.00107705
0.00115413
0.00122852
0.00129913
0.00136966
0.00144706
0.00154145
0.00166726
0.00184457
0.00209705
0.00244163
0.00285843
0.00325173
0.00355516
0.0011465
0.00121128
0.00122465
0.0012037
0.00116473
0.00111801
0.00108494
0.00102096
0.000984862
0.000987101
0.00102229
0.0010793
0.00114505
0.00121161
0.00127713
0.00134435
0.00141955
0.00151262
0.00163835
0.00181707
0.00207108
0.00241217
0.00277243
0.00305626
0.00119095
0.00126608
0.00129155
0.00128436
0.0012573
0.001218
0.00117599
0.00113395
0.00106334
0.00102691
0.00102061
0.00104332
0.00108661
0.00114037
0.00119774
0.00125659
0.00131902
0.00139044
0.00148004
0.00160207
0.00177609
0.00202281
0.00233859
0.00258877
0.0012311
0.00131593
0.00134943
0.00135275
0.00133696
0.00130839
0.00126962
0.00123607
0.00117557
0.00110965
0.00107476
0.00106155
0.001072
0.00110123
0.00114196
0.00118864
0.00123903
0.0012948
0.0013603
0.00144327
0.00155672
0.00171975
0.00195618
0.00218128
0.00126708
0.00136182
0.00140153
0.00141177