/*--------------------------------*- C++ -*----------------------------------*\
  =========                 |
  \\      /  F ield         | OpenFOAM: The Open Source CFD Toolbox
   \\    /   O peration     | Website:  https://openfoam.org
    \\  /    A nd           | Version:  11
     \\/     M anipulation  |
\*---------------------------------------------------------------------------*/
FoamFile
{
    format      ascii;
    class       volVectorField;
    location    "1.52";
    object      U;
}
// * * * * * * * * * * * * * * * * * * * * * * * * * * * * * * * * * * * * * //

dimensions      [0 1 -1 0 0 0 0];

internalField   nonuniform List<vector> 
2880
(
(-0.038058 0.0322896 -8.39033e-19)
(-0.147298 0.049531 3.98376e-20)
(-0.313133 0.049743 -7.80559e-19)
(-0.383698 0.0523724 0)
(-0.461932 0.0737268 -1.8548e-19)
(-0.596094 0.140793 2.43009e-19)
(-0.0948735 0.0541393 7.87453e-19)
(-0.238492 0.0718967 5.92261e-19)
(-0.371241 0.0704675 5.39476e-19)
(-0.433986 0.0706895 -4.91365e-20)
(-0.508605 0.0735586 -4.26503e-19)
(-0.581781 0.107943 5.5228e-20)
(-0.122342 0.0687278 6.80329e-19)
(-0.268884 0.0946714 -6.19696e-19)
(-0.388693 0.0895069 -4.49638e-19)
(-0.447002 0.0898678 3.75616e-19)
(-0.511878 0.0962221 3.25111e-19)
(-0.56098 0.134244 -2.74953e-19)
(-0.146718 0.0825563 6.06332e-19)
(-0.287776 0.116533 -3.38772e-20)
(-0.3928 0.110207 -4.23724e-19)
(-0.444213 0.110233 -3.58841e-19)
(-0.49658 0.119772 0)
(-0.528407 0.154192 0)
(-0.172366 0.0959288 -1.18844e-18)
(-0.303562 0.135534 -3.24878e-20)
(-0.390467 0.131057 1.63347e-18)
(-0.433379 0.130675 -8.58637e-20)
(-0.472291 0.140937 5.06758e-19)
(-0.490193 0.169832 -2.4805e-19)
(-0.197521 0.113094 0)
(-0.315322 0.151131 1.01661e-18)
(-0.383829 0.150735 -6.8911e-19)
(-0.41746 0.150473 1.35413e-21)
(-0.442981 0.160577 -4.94075e-19)
(-0.448624 0.18402 3.70021e-19)
(-0.217491 0.1342 1.51143e-18)
(-0.320788 0.165002 -9.84341e-19)
(-0.373949 0.168889 -7.64093e-19)
(-0.397949 0.169424 0)
(-0.410719 0.178967 0)
(-0.404091 0.198023 -3.63548e-19)
(-0.231064 0.146656 -1.50573e-18)
(-0.3215 0.177612 -8.95359e-19)
(-0.361824 0.185647 6.98484e-19)
(-0.375885 0.187227 6.23213e-19)
(-0.37711 0.196117 -1.35965e-19)
(-0.358121 0.211221 6.0437e-19)
(-0.242175 0.158387 -1.50331e-18)
(-0.318677 0.189074 8.78108e-19)
(-0.347771 0.201201 4.53519e-20)
(-0.353057 0.203956 -5.39855e-19)
(-0.34314 0.21188 6.80783e-20)
(-0.312411 0.223368 1.21204e-21)
(-0.250715 0.168722 3.05149e-18)
(-0.313025 0.199473 0)
(-0.332754 0.215691 -6.34944e-19)
(-0.329974 0.219621 -7.6139e-20)
(-0.309908 0.226353 0)
(-0.268574 0.23427 0)
(-0.2562 0.176858 -1.59744e-18)
(-0.30516 0.208876 -4.03451e-22)
(-0.317198 0.229343 1.58234e-18)
(-0.307242 0.23431 -7.5853e-20)
(-0.278411 0.23962 -5.33002e-19)
(-0.227996 0.243818 -4.80517e-19)
(-0.258377 0.182522 -1.59697e-18)
(-0.295555 0.21739 8.62199e-20)
(-0.301332 0.24231 -7.67983e-19)
(-0.2855 0.2482 0)
(-0.249537 0.251826 5.36078e-19)
(-0.191831 0.252004 9.64983e-19)
(-0.257127 0.185844 1.50329e-18)
(-0.284486 0.22518 2.87064e-20)
(-0.28547 0.254729 7.21948e-19)
(-0.265276 0.261467 0)
(-0.224024 0.26316 -1.34428e-19)
(-0.160991 0.25892 -4.85986e-19)
(-0.252318 0.187143 1.45019e-18)
(-0.272064 0.232337 8.69817e-20)
(-0.269939 0.266762 -7.72795e-19)
(-0.24697 0.274294 7.69963e-20)
(-0.20246 0.273843 -6.0502e-19)
(-0.136136 0.264773 -1.21352e-19)
(-0.243993 0.186725 -5.80177e-21)
(-0.258379 0.238891 0)
(-0.254909 0.278567 -7.31392e-19)
(-0.230929 0.286856 -5.40079e-19)
(-0.185303 0.28413 -6.48224e-20)
(-0.117801 0.269797 0)
(-0.232325 0.18521 -1.56833e-18)
(-0.2436 0.244815 -9.12513e-19)
(-0.240527 0.290212 7.42302e-19)
(-0.217379 0.299299 7.04492e-19)
(-0.172886 0.294321 1.02833e-18)
(-0.106635 0.274191 0)
(-0.219399 0.18601 2.35336e-20)
(-0.228144 0.250056 9.62741e-19)
(-0.226909 0.301608 0)
(-0.20643 0.311666 -7.91878e-20)
(-0.165418 0.30482 -5.55643e-19)
(-0.103214 0.278194 -4.31493e-19)
(-0.188896 0.197553 6.80385e-19)
(-0.212723 0.253384 -3.93962e-19)
(-0.214077 0.312255 2.86904e-19)
(-0.19799 0.323754 3.99917e-20)
(-0.163065 0.31613 -6.98835e-20)
(-0.107931 0.281116 6.89012e-19)
(-0.165272 0.194713 -6.27406e-19)
(-0.198181 0.250823 5.22931e-19)
(-0.201658 0.320949 -4.13789e-19)
(-0.191706 0.335122 4.07987e-20)
(-0.165535 0.328479 -3.55343e-20)
(-0.122813 0.28059 6.25644e-20)
(-0.146786 0.18114 -2.94714e-19)
(-0.183083 0.243332 0)
(-0.188686 0.326863 1.98851e-19)
(-0.186756 0.345334 -1.24872e-19)
(-0.172306 0.342723 -2.15754e-19)
(-0.150637 0.275051 -3.00609e-20)
(-0.122462 0.164688 2.91116e-19)
(-0.165286 0.231717 1.3454e-19)
(-0.174192 0.329776 -2.04629e-19)
(-0.182478 0.353435 1.73017e-19)
(-0.180793 0.363719 2.22762e-19)
(-0.184719 0.266882 6.88931e-20)
(-0.101644 0.147441 -2.50322e-21)
(-0.145382 0.216556 -1.15212e-19)
(-0.158051 0.329623 6.57518e-21)
(-0.175466 0.35618 1.6787e-20)
(-0.18712 0.397339 -7.66834e-20)
(-0.207104 0.267911 -5.37467e-20)
(-0.0810695 0.12562 1.8351e-19)
(-0.122746 0.19514 -1.73898e-20)
(-0.139994 0.323386 -1.40012e-20)
(-0.165266 0.346902 -1.1691e-20)
(-0.185987 0.438031 0)
(-0.203316 0.274139 0)
(-0.0462327 0.0647621 -1.8915e-19)
(-0.088872 0.132581 2.80808e-19)
(-0.111273 0.281303 -2.34413e-19)
(-0.134373 0.287718 0)
(-0.163471 0.45743 -1.67957e-19)
(-0.1692 0.212702 0)
(-0.570603 0.237688 5.12436e-19)
(-0.563489 0.177401 2.62011e-19)
(-0.568149 0.121623 -3.48735e-19)
(-0.571116 0.0631982 -1.02727e-19)
(-0.562128 -0.00217342 -1.96166e-19)
(-0.535634 -0.0737287 8.18748e-20)
(-0.488407 -0.146986 -1.50863e-19)
(-0.421466 -0.214668 1.1521e-19)
(-0.339975 -0.269593 -5.31876e-21)
(-0.251031 -0.307919 7.83806e-20)
(-0.160907 -0.329149 -2.83829e-20)
(-0.0743502 -0.335019 -2.10021e-20)
(0.00586557 -0.329034 -4.08163e-20)
(0.0786822 -0.314403 2.44452e-20)
(0.143966 -0.293833 -1.27156e-20)
(0.202172 -0.269447 6.08752e-21)
(0.254027 -0.242819 -5.82059e-21)
(0.300343 -0.215039 -1.09894e-21)
(0.34191 -0.186813 1.05486e-21)
(0.379417 -0.158564 -3.25864e-21)
(0.413438 -0.130531 6.94736e-21)
(0.444755 -0.10297 -7.27999e-21)
(0.474769 -0.0767754 3.48175e-21)
(0.505531 -0.0564047 2.55082e-22)
(-0.583071 0.207898 -6.39801e-19)
(-0.559068 0.180279 -2.62842e-19)
(-0.552071 0.130081 -1.00762e-20)
(-0.542875 0.0710843 0)
(-0.522459 -0.000751342 1.99166e-19)
(-0.482246 -0.0844971 8.85768e-20)
(-0.417413 -0.174063 1.46269e-19)
(-0.329111 -0.259025 -7.03486e-20)
(-0.225061 -0.328007 0)
(-0.115591 -0.374719 -7.97033e-20)
(-0.0091403 -0.399134 0)
(0.0889138 -0.403984 6.65971e-21)
(0.176201 -0.394389 3.58874e-20)
(0.252269 -0.374828 -3.3063e-20)
(0.317808 -0.348965 3.22145e-20)
(0.374126 -0.319495 1.0152e-20)
(0.4227 -0.288316 -6.96606e-21)
(0.464975 -0.256691 6.62854e-22)
(0.502258 -0.225375 7.38495e-22)
(0.535716 -0.19477 2.213e-21)
(0.566268 -0.16505 -2.49047e-21)
(0.595061 -0.136412 1.02732e-20)
(0.622669 -0.109208 -7.65002e-21)
(0.652012 -0.086173 -1.91787e-21)
(-0.564683 0.195212 3.19323e-19)
(-0.534598 0.181808 2.8354e-19)
(-0.516096 0.139165 3.81096e-19)
(-0.492904 0.081564 2.44575e-19)
(-0.456364 0.00503033 -1.10582e-19)
(-0.395761 -0.089987 0)
(-0.304889 -0.195987 0)
(-0.18672 -0.298453 -1.52523e-19)
(-0.0536916 -0.380595 0)
(0.079488 -0.433252 0)
(0.202788 -0.456929 -5.73123e-20)
(0.311225 -0.457091 -2.26682e-20)
(0.402628 -0.440484 5.51246e-20)
(0.478291 -0.413128 1.70439e-20)
(0.540373 -0.379854 6.22186e-20)
(0.591413 -0.343995 -1.78108e-20)
(0.633832 -0.307672 -5.09337e-21)
(0.669812 -0.272186 2.21867e-21)
(0.701117 -0.238269 -2.69035e-21)
(0.729267 -0.206239 -2.24335e-21)
(0.755091 -0.176197 1.42231e-22)
(0.780514 -0.148272 -1.1429e-20)
(0.804106 -0.1223 1.04994e-20)
(0.835068 -0.0972909 1.20642e-21)
(-0.528404 0.194127 7.28043e-19)
(-0.491859 0.186406 3.7199e-19)
(-0.460387 0.150528 -1.33384e-19)
(-0.419053 0.0955732 -3.74267e-19)
(-0.359456 0.016176 1.17695e-19)
(-0.269102 -0.0882996 0)
(-0.141292 -0.209938 3.95642e-19)
(0.0159399 -0.328659 3.03569e-19)
(0.183432 -0.421744 -1.39807e-19)
(0.341641 -0.47705 -1.74476e-19)
(0.477886 -0.496766 2.90026e-19)
(0.588666 -0.489443 -6.08113e-20)
(0.675206 -0.463325 -1.06293e-19)
(0.74157 -0.426531 4.86944e-20)
(0.792373 -0.385064 3.10287e-20)
(0.831797 -0.342769 -1.85567e-20)
(0.863189 -0.301879 9.90584e-21)
(0.889371 -0.263522 0)
(0.912217 -0.228252 1.3155e-21)
(0.933583 -0.19612 -1.89163e-21)
(0.953595 -0.167208 2.4122e-21)
(0.976099 -0.140899 -7.50343e-21)
(0.992895 -0.118936 -2.79907e-22)
(1.0304 -0.0937498 3.11942e-21)
(-0.481514 0.199603 -6.47895e-19)
(-0.435567 0.194229 -6.62759e-19)
(-0.386802 0.164122 0)
(-0.3217 0.112441 0)
(-0.230712 0.0318507 0)
(-0.100308 -0.0797853 -4.73461e-19)
(0.0742623 -0.213874 -5.94838e-19)
(0.276102 -0.344501 1.83443e-19)
(0.477275 -0.444576 0)
(0.649118 -0.498175 0)
(0.780419 -0.510912 0)
(0.875048 -0.49514 -1.06927e-19)
(0.94048 -0.46129 7.33928e-20)
(0.985158 -0.418368 -4.87307e-20)
(1.01615 -0.372572 -7.05012e-20)
(1.03857 -0.327525 4.49713e-20)
(1.05587 -0.285272 -1.31404e-20)
(1.07079 -0.246752 1.9404e-20)
(1.0846 -0.212297 0)
(1.09794 -0.181627 4.22668e-21)
(1.10966 -0.155081 -2.33023e-22)
(1.12403 -0.131202 0)
(1.13318 -0.114103 4.72526e-21)
(1.16471 -0.0920828 -2.13752e-21)
(-0.427081 0.208113 0)
(-0.368727 0.203897 1.53652e-19)
(-0.298943 0.178371 4.68625e-21)
(-0.205765 0.129822 -6.86448e-19)
(-0.0779995 0.0490493 2.61018e-19)
(0.0993923 -0.0687287 7.24013e-19)
(0.324168 -0.208868 0)
(0.565425 -0.34257 0)
(0.782706 -0.442856 2.6824e-19)
(0.941345 -0.490589 -2.5177e-19)
(1.04185 -0.495869 0)
(1.10151 -0.475413 1.24904e-19)
(1.13436 -0.439554 -9.07269e-20)
(1.1513 -0.397078 -1.08486e-19)
(1.15972 -0.353333 1.42331e-19)
(1.16411 -0.311261 2.62483e-20)
(1.16718 -0.272268 -1.26417e-19)
(1.16968 -0.23695 3.38533e-20)
(1.17197 -0.205471 0)
(1.17487 -0.177612 -9.15046e-21)
(1.17833 -0.153668 2.31793e-22)
(1.18382 -0.132765 1.45167e-21)
(1.18707 -0.118097 0)
(1.20401 -0.0977192 0)
(-0.368665 0.217132 -9.12346e-19)
(-0.295063 0.213802 1.51324e-19)
(-0.202291 0.191237 5.83767e-19)
(-0.0794116 0.144621 2.70597e-19)
(0.0863307 0.0625108 2.62465e-19)
(0.3126 -0.0589529 -2.48668e-19)
(0.583235 -0.198965 4.25258e-19)
(0.848574 -0.326428 -1.96761e-19)
(1.05705 -0.417005 2.9801e-19)
(1.17897 -0.454855 -2.07988e-19)
(1.2368 -0.45438 3.68041e-19)
(1.25993 -0.434521 -2.38115e-19)
(1.26315 -0.401517 3.64414e-19)
(1.25655 -0.364146 -8.67248e-20)
(1.2465 -0.326825 8.94934e-20)
(1.2364 -0.29147 -8.5147e-20)
(1.22769 -0.258781 2.37499e-20)
(1.22083 -0.228952 0)
(1.2159 -0.202105 0)
(1.21264 -0.178319 6.76786e-21)
(1.21057 -0.157623 -1.60291e-20)
(1.20882 -0.139193 1.39368e-20)
(1.2054 -0.124194 -2.45502e-21)
(1.20924 -0.10238 3.86495e-21)
(-0.308829 0.225971 6.63881e-19)
(-0.218694 0.222459 -6.17792e-19)
(-0.103214 0.200843 -5.85893e-19)
(0.0481973 0.153774 -5.61295e-19)
(0.253472 0.0689617 0)
(0.52984 -0.0518023 2.42472e-19)
(0.837529 -0.184193 -6.66373e-19)
(1.10749 -0.297763 1.91623e-20)
(1.28192 -0.371927 -5.3678e-19)
(1.35565 -0.399 2.52422e-19)
(1.37512 -0.393534 1.4919e-19)
(1.37155 -0.379188 -2.67121e-19)
(1.35363 -0.351609 -9.6739e-20)
(1.33115 -0.320952 -7.05944e-20)
(1.30962 -0.291033 0)
(1.29057 -0.262871 0)
(1.27443 -0.236868 3.15433e-20)
(1.26099 -0.213078 6.26179e-20)
(1.24977 -0.191445 -3.74998e-20)
(1.24013 -0.171929 0)
(1.23126 -0.154435 0)
(1.22201 -0.138359 1.42413e-20)
(1.2115 -0.123083 -1.05398e-20)
(1.20246 -0.101011 -8.56991e-22)
(-0.24988 0.23385 -5.78545e-19)
(-0.143563 0.228789 4.67718e-19)
(-0.0072044 0.20591 0)
(0.172279 0.155908 5.63329e-19)
(0.422907 0.0695637 7.88393e-19)
(0.751839 -0.0452804 -7.97172e-21)
(1.08107 -0.160525 -6.35632e-19)
(1.32543 -0.254133 -3.77908e-19)
(1.44474 -0.312175 -2.92323e-19)
(1.47133 -0.331891 2.06208e-19)
(1.46455 -0.329717 -1.62421e-19)
(1.44318 -0.318227 2.48713e-19)
(1.40985 -0.298066 1.91279e-19)
(1.37874 -0.275637 -1.32653e-19)
(1.35146 -0.25304 2.47018e-20)
(1.328 -0.231293 9.58077e-20)
(1.30789 -0.210807 1.20102e-21)
(1.29039 -0.191753 1.95225e-20)
(1.2747 -0.174147 -5.83474e-20)
(1.25997 -0.157896 -4.20101e-20)
(1.24521 -0.142785 1.41971e-20)
(1.22957 -0.128435 2.50928e-20)
(1.21249 -0.112962 1.09601e-21)
(1.19148 -0.0900818 0)
(-0.193957 0.240224 8.368e-19)
(-0.072938 0.23218 -1.52882e-19)
(0.0825792 0.205696 0)
(0.294769 0.151558 -2.79303e-19)
(0.604633 0.0673299 -7.77416e-19)
(0.978754 -0.0306896 -2.26676e-19)
(1.29938 -0.125583 1.01942e-18)
(1.48515 -0.198523 6.53572e-19)
(1.54549 -0.244194 -1.45464e-20)
(1.53998 -0.263187 -2.0775e-19)
(1.51815 -0.265024 0)
(1.47946 -0.257716 -2.40057e-19)
(1.44126 -0.245714 -9.40979e-20)
(1.4071 -0.231192 -6.95099e-20)
(1.3774 -0.215664 -5.34938e-20)
(1.35152 -0.199983 0)
(1.32867 -0.184577 -6.29092e-20)
(1.308 -0.169675 -6.55933e-20)
(1.28867 -0.155372 4.0812e-20)
(1.26978 -0.141629 0)
(1.25042 -0.128298 0)
(1.22958 -0.114739 -5.84167e-22)
(1.20625 -0.0986488 2.26052e-22)
(1.17754 -0.0752422 3.57762e-21)
(-0.142896 0.244767 0)
(-0.00897398 0.232299 0)
(0.166681 0.199826 2.92579e-19)
(0.42649 0.144256 -2.69816e-19)
(0.807856 0.0715323 5.11229e-19)
(1.19973 -0.00281641 4.30042e-19)
(1.46877 -0.077875 -3.91909e-19)
(1.58203 -0.13717 -2.92563e-19)
(1.59882 -0.176416 0)
(1.57835 -0.194762 0)
(1.53904 -0.201542 0)
(1.49789 -0.200825 8.44819e-21)
(1.4594 -0.195357 -8.29775e-20)
(1.42491 -0.187143 1.90092e-19)
(1.3943 -0.177467 -1.55187e-19)
(1.36691 -0.167058 1.59178e-19)
(1.34192 -0.156296 -6.49329e-20)
(1.31856 -0.145358 2.02843e-21)
(1.29605 -0.134301 4.40049e-20)
(1.27361 -0.123089 -2.60269e-20)
(1.25038 -0.111554 0)
(1.22539 -0.098931 -3.68567e-21)
(1.1975 -0.0827579 -2.19536e-22)
(1.16364 -0.0593666 -3.96431e-22)
(-0.0980862 0.247367 -6.62666e-19)
(0.047483 0.228583 6.09738e-19)
(0.251048 0.189359 -1.43551e-19)
(0.585337 0.140048 6.49924e-19)
(1.02664 0.0944341 -4.62884e-19)
(1.38846 0.0370475 -2.3289e-19)
(1.57509 -0.0237343 -1.8206e-19)
(1.62999 -0.0757886 2.80461e-20)
(1.6222 -0.110841 0)
(1.58718 -0.132038 -1.59446e-19)
(1.54609 -0.143112 0)
(1.50552 -0.147506 1.98354e-19)
(1.46778 -0.147572 -7.88798e-20)
(1.43354 -0.144761 1.09604e-19)
(1.4026 -0.140051 -1.46832e-19)
(1.37432 -0.134069 -3.03035e-20)
(1.34794 -0.127182 8.73e-20)
(1.32274 -0.119587 5.33743e-20)
(1.29804 -0.111356 -1.97528e-20)
(1.27316 -0.102458 0)
(1.24725 -0.0927064 0)
(1.21927 -0.0812403 -2.08084e-21)
(1.18814 -0.0655368 -1.40313e-21)
(1.15088 -0.0429993 3.2527e-21)
(-0.0603818 0.248081 9.20486e-19)
(0.0975047 0.219965 -1.52957e-18)
(0.349479 0.178656 6.93349e-19)
(0.781994 0.154263 -2.42765e-20)
(1.23564 0.133423 2.47502e-19)
(1.51814 0.0859449 -1.98431e-19)
(1.62877 0.0306635 -2.93443e-19)
(1.64623 -0.0167419 2.59484e-19)
(1.6223 -0.0512289 0)
(1.58455 -0.0742922 1.57546e-19)
(1.54377 -0.0890409 0)
(1.50429 -0.0980099 0)
(1.46767 -0.102874 9.28731e-21)
(1.4342 -0.104759 9.47298e-20)
(1.40351 -0.104428 -1.05053e-20)
(1.37497 -0.102382 -6.24683e-21)
(1.3479 -0.0989397 -6.8024e-20)
(1.32166 -0.0942931 0)
(1.29568 -0.08854 -1.12178e-20)
(1.2693 -0.0816875 -3.44815e-21)
(1.24165 -0.0735784 1.25601e-21)
(1.21163 -0.0633196 -1.19379e-21)
(1.1783 -0.0484626 3.30539e-21)
(1.13877 -0.0272993 7.07777e-21)
(-0.0300922 0.24685 -8.36736e-20)
(0.146317 0.206383 1.6386e-19)
(0.482536 0.177865 -5.58701e-19)
(0.999301 0.195133 -9.7018e-19)
(1.40064 0.181337 2.34625e-19)
(1.59064 0.136192 3.42214e-19)
(1.64754 0.0833933 1.43442e-19)
(1.64203 0.0383448 -1.97703e-19)
(1.61164 0.00386409 3.3729e-19)
(1.57308 -0.0214124 0)
(1.53355 -0.0396076 0)
(1.49593 -0.0524732 -6.91985e-22)
(1.46106 -0.0613072 1.02348e-19)
(1.42889 -0.067048 -5.9257e-20)
(1.39897 -0.0703591 -1.08641e-19)
(1.37072 -0.0716841 -1.36147e-20)
(1.34357 -0.0713028 5.56426e-20)
(1.31696 -0.069382 0)
(1.29037 -0.0660086 2.78193e-21)
(1.26314 -0.0611974 2.66345e-21)
(1.23433 -0.0548154 -3.22594e-21)
(1.20289 -0.0459821 -1.74024e-20)
(1.16809 -0.0323121 2.22734e-20)
(1.12708 -0.012927 -6.93894e-21)
(-0.00696497 0.242771 0)
(0.206652 0.191398 1.05744e-18)
(0.664832 0.207595 2.64072e-19)
(1.19922 0.250974 3.55275e-19)
(1.50513 0.233142 0)
(1.62172 0.184982 -2.85787e-19)
(1.644 0.133507 0)
(1.62595 0.0892771 1.69089e-19)
(1.59264 0.0539434 -3.08871e-19)
(1.55502 0.0264569 -9.87725e-20)
(1.51773 0.00535186 9.19406e-20)
(1.48247 -0.0107062 1.24637e-19)
(1.44962 -0.0227947 -5.24366e-20)
(1.41898 -0.0317274 9.7101e-20)
(1.39014 -0.0380888 -5.5376e-20)
(1.36259 -0.0422788 1.18353e-20)
(1.33583 -0.0445579 5.93074e-21)
(1.30939 -0.0450848 -1.29465e-21)
(1.28272 -0.0439443 -4.14292e-22)
(1.25515 -0.0411609 5.67369e-21)
(1.2257 -0.0366223 -9.76021e-21)
(1.19339 -0.0294666 -2.86704e-21)
(1.15768 -0.0172877 0)
(1.1158 3.2238e-05 -1.19509e-20)
(0.00992837 0.233475 -8.29859e-20)
(0.294566 0.184391 5.34942e-20)
(0.879303 0.272318 -1.22536e-19)
(1.34964 0.311747 1.10421e-19)
(1.56103 0.283659 3.19715e-19)
(1.62569 0.23197 4.04129e-19)
(1.62664 0.1806 7.56794e-20)
(1.60195 0.136051 -7.05039e-20)
(1.56823 0.0993943 1.70878e-19)
(1.53258 0.0698711 7.88277e-20)
(1.49788 0.0463201 0)
(1.46511 0.0276141 8.38699e-20)
(1.43436 0.0128127 -1.01219e-20)
(1.40542 0.00119107 -9.60636e-21)
(1.3779 -0.00777771 1.0225e-20)
(1.35137 -0.0144591 -1.16291e-20)
(1.3254 -0.0190961 -5.82391e-21)
(1.2995 -0.0218405 -7.23413e-22)
(1.27315 -0.0227794 4.15202e-21)
(1.24563 -0.0219597 -4.99144e-21)
(1.21598 -0.019308 0)
(1.18331 -0.0139699 -3.04686e-21)
(1.14717 -0.00346749 2.46962e-20)
(1.10497 0.0116361 1.1785e-20)
(0.0271395 0.216726 0)
(0.423027 0.209596 -4.47025e-19)
(1.08093 0.352167 -1.24509e-19)
(1.44668 0.372166 0)
(1.58122 0.331492 -1.79631e-19)
(1.61158 0.276648 -1.22622e-19)
(1.60004 0.224261 -2.60211e-19)
(1.5725 0.178676 1.38743e-20)
(1.5399 0.140545 -6.26221e-20)
(1.50678 0.109194 -2.64434e-20)
(1.47486 0.0835763 -5.6364e-20)
(1.44463 0.0626726 -2.72323e-20)
(1.41607 0.0456233 9.9225e-21)
(1.38895 0.031756 -3.87014e-20)
(1.36294 0.0205741 -1.23523e-20)
(1.33767 0.0117285 2.62694e-21)
(1.31274 0.00498607 4.06428e-21)
(1.28769 0.000202331 8.15169e-22)
(1.26196 -0.00270831 6.66016e-21)
(1.23483 -0.00381307 7.44616e-21)
(1.20535 -0.00308403 0)
(1.17273 0.000342319 -1.32569e-20)
(1.1366 0.00906932 0)
(1.09454 0.0219156 0)
(0.0543048 0.19502 -4.20214e-19)
(0.602028 0.289403 -3.30851e-19)
(1.23067 0.43371 2.70782e-19)
(1.49669 0.429269 -1.58372e-19)
(1.57649 0.377083 5.73444e-20)
(1.5853 0.318552 5.16856e-20)
(1.56714 0.264354 -7.4148e-20)
(1.53918 0.217268 4.34406e-20)
(1.50867 0.177629 -1.06815e-20)
(1.47841 0.144652 -8.10415e-21)
(1.44935 0.117291 -4.6231e-20)
(1.42169 0.0945682 5.30079e-21)
(1.39536 0.0756644 1.42728e-20)
(1.37014 0.0599333 -7.00917e-22)
(1.34576 0.0468882 -4.95828e-22)
(1.32192 0.0361793 -1.63391e-20)
(1.29822 0.02757 -2.03272e-21)
(1.27422 0.0209165 -5.49139e-21)
(1.24936 0.0161336 -6.5918e-21)
(1.2229 0.0131377 -7.38516e-21)
(1.19395 0.0119202 0)
(1.16176 0.0133681 4.26449e-20)
(1.12599 0.0202775 -2.88466e-20)
(1.08448 0.030936 0)
(0.104591 0.173469 -3.23699e-20)
(0.807278 0.406529 2.05072e-19)
(1.33241 0.511895 -1.12001e-19)
(1.51206 0.482053 1.8254e-19)
(1.55458 0.419986 -5.48808e-20)
(1.55052 0.357216 1.43038e-19)
(1.52944 0.300568 5.81572e-20)
(1.5028 0.25182 3.00544e-20)
(1.4751 0.210749 -3.87985e-20)
(1.44794 0.176353 0)
(1.42181 0.147538 1.60251e-21)
(1.39677 0.123327 1.1359e-21)
(1.37271 0.102916 0)
(1.34946 0.0856634 1.59245e-20)
(1.3268 0.0710768 -3.35988e-20)
(1.30447 0.0587909 2.06238e-21)
(1.28211 0.0485526 -6.94914e-21)
(1.2593 0.0402076 7.20779e-21)
(1.23548 0.0336665 0)
(1.20995 0.0288306 -1.08354e-20)
(1.18185 0.0256675 2.25594e-20)
(1.15044 0.0251051 1.34165e-20)
(1.11538 0.0301914 -4.83059e-20)
(1.07482 0.038856 5.01437e-20)
(0.189448 0.17006 5.36374e-19)
(1.00507 0.535929 0)
(1.38918 0.58331 -3.84526e-20)
(1.50001 0.529572 -9.56508e-20)
(1.51947 0.459035 0)
(1.50897 0.391933 -6.11248e-20)
(1.48803 0.332705 0)
(1.46405 0.282328 -8.55357e-21)
(1.43967 0.239944 -8.36746e-21)
(1.4158 0.204329 -3.82713e-21)
(1.39267 0.174318 6.0102e-21)
(1.37029 0.148917 -4.20575e-24)
(1.34856 0.127314 -5.26424e-21)
(1.32733 0.108858 -1.23708e-20)
(1.30644 0.0930391 2.68123e-20)
(1.28565 0.0794646 -1.11028e-20)
(1.26467 0.0678527 3.83573e-20)
(1.24311 0.0580244 -4.21434e-20)
(1.22047 0.0498751 2.68506e-20)
(1.19608 0.0432888 2.40869e-20)
(1.16912 0.0382121 -2.78672e-20)
(1.13884 0.0356317 1.75213e-20)
(1.10483 0.0389013 -4.44769e-20)
(1.06563 0.0459343 -7.62931e-21)
(0.307612 0.261455 -8.67093e-20)
(1.14681 0.664418 2.70806e-20)
(1.40451 0.649298 2.11615e-20)
(1.46749 0.572975 1.8309e-20)
(1.4745 0.493852 -5.14315e-21)
(1.46237 0.422119 -1.55185e-20)
(1.44378 0.36041 0)
(1.42336 0.308521 0)
(1.4027 0.265018 2.29643e-21)
(1.3823 0.228436 2.75279e-21)
(1.36229 0.197513 0)
(1.34265 0.171222 6.13014e-21)
(1.3233 0.148732 -9.46551e-21)
(1.30414 0.129379 1.63361e-21)
(1.28504 0.112632 -6.45539e-21)
(1.26581 0.0980698 0)
(1.2462 0.085375 -4.53379e-21)
(1.2259 0.0743305 0)
(1.20448 0.0647987 0)
(1.18135 0.0566371 9.54026e-21)
(1.15577 0.0497567 -1.66805e-20)
(1.12691 0.0451704 0)
(1.0943 0.0465583 0)
(1.05706 0.0526184 3.19664e-21)
(0.500964 0.502885 -8.23933e-20)
(1.20555 0.774235 -5.35307e-20)
(1.38197 0.708066 5.19478e-21)
(1.41887 0.611121 -7.19425e-21)
(1.42144 0.523084 3.70064e-21)
(1.41158 0.446918 4.21767e-21)
(1.39714 0.383153 0)
(1.38111 0.330091 1.78713e-22)
(1.36455 0.285779 -1.48388e-21)
(1.34783 0.248534 -7.59915e-22)
(1.33105 0.217 -2.97915e-22)
(1.31422 0.190109 -1.10003e-21)
(1.29733 0.167018 8.05534e-21)
(1.28029 0.147051 -1.14714e-21)
(1.26302 0.129666 4.63541e-21)
(1.24536 0.114421 -4.7191e-21)
(1.22712 0.10097 9.65793e-21)
(1.20804 0.0890538 3.33029e-22)
(1.1878 0.0784911 0)
(1.16592 0.0691038 0)
(1.14177 0.0607347 1.01111e-20)
(1.11448 0.0542098 -1.01233e-20)
(1.08354 0.0532399 0)
(1.04912 0.0596997 -1.68058e-23)
(0.708323 0.781349 -4.56613e-20)
(1.21148 0.868245 -2.71774e-21)
(1.32818 0.754256 1.23758e-21)
(1.35731 0.640745 -1.07357e-21)
(1.36238 0.5448 0)
(1.35782 0.465413 -4.22281e-21)
(1.34888 0.40034 0)
(1.33785 0.346661 -1.75926e-22)
(1.32569 0.301989 2.69917e-21)
(1.3128 0.264457 -2.50771e-21)
(1.29934 0.232638 3.24077e-21)
(1.28541 0.205436 -1.2292e-20)
(1.27103 0.182003 2.81281e-21)
(1.25618 0.161668 -5.67953e-21)
(1.24081 0.143891 5.68432e-21)
(1.22479 0.128234 -3.33843e-22)
(1.20798 0.114343 -3.34089e-22)
(1.19017 0.101942 -3.3366e-22)
(1.17112 0.0908263 0)
(1.15047 0.0808106 5.86608e-21)
(1.12775 0.0716443 0)
(1.10226 0.0635317 3.34382e-22)
(1.07328 0.0588771 0)
(1.04036 0.0687515 0)
(0.841661 1.0833 4.7574e-20)
(1.14623 0.93616 1.46629e-21)
(1.24681 0.780582 1.26834e-20)
(1.28569 0.657675 1.20055e-20)
(1.29959 0.557199 -1.48202e-20)
(1.30247 0.476624 -6.37572e-21)
(1.29989 0.41143 -1.40805e-20)
(1.29425 0.357941 -1.07164e-20)
(1.28666 0.31349 0)
(1.27766 0.276111 1.52902e-20)
(1.26757 0.244346 2.14582e-21)
(1.25656 0.217104 3.72021e-20)
(1.24474 0.193546 -1.28841e-20)
(1.23215 0.173019 1.36559e-20)
(1.21878 0.155003 0)
(1.20454 0.139076 -2.69568e-20)
(1.18933 0.124904 2.576e-20)
(1.173 0.112227 2.58064e-20)
(1.15537 0.10086 -2.48886e-20)
(1.13621 0.0906218 -5.92329e-21)
(1.1153 0.0811324 -1.2605e-20)
(1.09231 0.072161 0)
(1.06608 0.0661705 0)
(1.03208 0.0818799 0)
(-0.0389646 -0.046564 7.10153e-19)
(-0.043907 -0.0315377 0)
(-0.0527557 0.0731081 8.1798e-19)
(-0.0963153 0.285251 0)
(-0.025069 0.444704 2.71804e-19)
(-0.059583 1.10941 -3.8779e-19)
(-0.0403612 -0.0400569 -1.3257e-18)
(-0.0326012 0.0137946 -9.50059e-19)
(-0.0233944 0.148636 -8.54291e-19)
(-0.034091 0.348374 7.6362e-20)
(0.0255795 0.557797 5.85541e-19)
(0.138117 0.92889 -8.79117e-20)
(-0.0397813 -0.0299543 -1.16343e-18)
(-0.0177676 0.0479198 9.65777e-19)
(0.00903042 0.195373 6.92338e-19)
(0.0262233 0.386836 -5.55817e-19)
(0.109519 0.601868 -4.41184e-19)
(0.245631 0.853992 3.24975e-19)
(-0.0380891 -0.0203908 -1.04223e-18)
(-0.00143501 0.0761452 5.3186e-20)
(0.0421838 0.229783 6.48856e-19)
(0.0829015 0.412065 5.30074e-19)
(0.178185 0.607736 0)
(0.317829 0.793407 0)
(-0.0362713 -0.0096236 2.05422e-18)
(0.0152005 0.0998195 5.1327e-20)
(0.0736899 0.254874 -2.52363e-18)
(0.132708 0.425431 1.22286e-19)
(0.233684 0.593991 -6.97497e-19)
(0.367489 0.731449 3.03246e-19)
(-0.0329582 0.00151316 0)
(0.0313529 0.118412 -1.61435e-18)
(0.102498 0.271168 1.08089e-18)
(0.174778 0.428378 4.983e-21)
(0.277536 0.569569 6.80196e-19)
(0.402366 0.670409 -4.26814e-19)
(-0.0254677 0.01105 -2.57338e-18)
(0.0470907 0.130351 1.5917e-18)
(0.128463 0.279536 1.20814e-18)
(0.2101 0.422959 0)
(0.311793 0.539473 0)
(0.426796 0.613024 4.40372e-19)
(-0.0197224 0.0153844 2.56915e-18)
(0.0620787 0.136609 1.47051e-18)
(0.151605 0.281415 -1.12295e-18)
(0.239636 0.411282 -9.42239e-19)
(0.338323 0.506762 1.75487e-19)
(0.443843 0.56001 -7.1331e-19)
(-0.012525 0.0169476 2.56046e-18)
(0.0759768 0.13852 -1.46018e-18)
(0.171968 0.278224 -7.4788e-20)
(0.264056 0.395297 8.21866e-19)
(0.358762 0.473166 -8.08872e-20)
(0.455619 0.510939 1.21628e-20)
(-0.00491495 0.0160892 -5.19428e-18)
(0.0884013 0.13703 0)
(0.189555 0.271092 1.03682e-18)
(0.283884 0.376563 1.17484e-19)
(0.374355 0.439611 0)
(0.463513 0.465199 0)
(0.00229738 0.0131668 2.71573e-18)
(0.0989794 0.132909 -6.91853e-22)
(0.204338 0.260907 -2.58877e-18)
(0.299658 0.356068 1.16946e-19)
(0.38601 0.406614 7.0745e-19)
(0.468566 0.422283 5.5746e-19)
(0.00855474 0.00870165 2.70856e-18)
(0.107384 0.126679 -1.43592e-19)
(0.216254 0.248323 1.26337e-18)
(0.311886 0.334394 0)
(0.394476 0.374349 -7.04906e-19)
(0.471483 0.381739 -1.11161e-18)
(0.0133926 0.00312948 -2.54778e-18)
(0.113372 0.118676 -4.82727e-20)
(0.225244 0.233789 -1.19455e-18)
(0.320994 0.311868 0)
(0.40032 0.342843 1.71523e-19)
(0.472702 0.343082 5.46688e-19)
(0.0165142 -0.00324296 -2.46252e-18)
(0.116689 0.109093 -1.45145e-19)
(0.231252 0.217554 1.28272e-18)
(0.327299 0.288659 -1.14081e-19)
(0.403987 0.312058 8.02668e-19)
(0.47258 0.305916 1.35451e-19)
(0.0178887 -0.0100297 3.15292e-21)
(0.117059 0.0980558 0)
(0.23421 0.199694 1.22235e-18)
(0.331032 0.264793 8.29914e-19)
(0.405823 0.281925 9.43003e-20)
(0.471398 0.269892 0)
(0.0177221 -0.0166098 2.67005e-18)
(0.1142 0.0856663 1.5392e-18)
(0.234019 0.180178 -1.24289e-18)
(0.332304 0.240209 -1.07966e-18)
(0.406076 0.252303 -1.36952e-18)
(0.469384 0.234706 0)
(0.0156207 -0.0247949 -3.75498e-20)
(0.107719 0.072004 -1.61924e-18)
(0.230481 0.158864 0)
(0.331121 0.214757 1.20949e-19)
(0.404917 0.223039 7.42713e-19)
(0.466718 0.200062 5.08816e-19)
(0.00938947 -0.0319165 -1.01742e-18)
(0.0970739 0.0568029 6.70388e-19)
(0.2233 0.135522 -4.88098e-19)
(0.32732 0.18812 -6.40482e-20)
(0.402424 0.193934 9.39674e-20)
(0.4636 0.165694 -8.15278e-19)
(0.00114796 -0.0361611 1.01082e-18)
(0.0830178 0.0398379 -8.99691e-19)
(0.212164 0.109885 7.09977e-19)
(0.320516 0.159854 -6.45448e-20)
(0.398497 0.164624 5.10371e-20)
(0.460241 0.131346 -7.39919e-20)
(-0.00708885 -0.0405484 5.04032e-19)
(0.0667623 0.0210614 0)
(0.196656 0.0818159 -3.44859e-19)
(0.309973 0.12936 2.05439e-19)
(0.392767 0.134596 3.15977e-19)
(0.456918 0.0967902 3.55261e-20)
(-0.0142697 -0.0446215 -4.99096e-19)
(0.0482919 0.00104014 -2.39411e-19)
(0.175884 0.0513681 3.57669e-19)
(0.294407 0.0960272 -2.83813e-19)
(0.384454 0.103177 -3.33943e-19)
(0.45409 0.0620511 -8.48941e-20)
(-0.0197035 -0.0470538 4.33218e-21)
(0.0274402 -0.018811 2.05518e-19)
(0.148038 0.0187798 -1.16634e-20)
(0.271599 0.0594317 -2.78944e-20)
(0.372089 0.0694326 1.18286e-19)
(0.452503 0.0272235 6.90637e-20)
(-0.0246904 -0.0482267 -3.20077e-19)
(0.00374826 -0.0379256 3.07012e-20)
(0.108915 -0.0151682 2.4175e-20)
(0.236466 0.0174923 1.93912e-20)
(0.351918 0.0294003 0)
(0.450973 -0.0106721 0)
(-0.0240909 -0.0459391 3.92935e-19)
(-0.0184018 -0.0531273 -3.17287e-20)
(0.049379 -0.0543385 0)
(0.175385 -0.0430389 3.98738e-20)
(0.312545 -0.0331493 -3.35113e-20)
(0.435397 -0.0570495 0)
(0.751431 1.27183 -1.09959e-19)
(1.04321 0.959743 -7.81896e-20)
(1.15944 0.782484 5.67317e-20)
(1.21188 0.658993 -2.7118e-21)
(1.23623 0.559443 7.34793e-20)
(1.24725 0.480133 6.79027e-21)
(1.25128 0.416238 4.9047e-20)
(1.2511 0.363874 1.7405e-20)
(1.24806 0.320288 0)
(1.24291 0.28352 -4.12648e-20)
(1.23612 0.252146 -1.62526e-20)
(1.228 0.225109 -5.072e-20)
(1.21874 0.201601 1.75459e-20)
(1.20842 0.180992 -3.23548e-20)
(1.19708 0.162776 6.3639e-20)
(1.1847 0.146544 0)
(1.17121 0.131963 0)
(1.15649 0.118772 0)
(1.14039 0.106761 5.54622e-20)
(1.12273 0.0956371 -5.38814e-20)
(1.10333 0.0848253 1.27128e-20)
(1.08171 0.0743944 -5.3726e-20)
(1.05563 0.0689817 5.29965e-20)
(1.02066 0.081266 2.92541e-20)
(0.702851 1.07163 3.27018e-19)
(0.961736 0.905827 7.2028e-20)
(1.08079 0.760516 3.80277e-20)
(1.14217 0.645046 0)
(1.1753 0.551327 -5.49472e-20)
(1.19391 0.476008 -2.99142e-20)
(1.20423 0.414973 -4.83429e-20)
(1.20922 0.364683 2.54336e-20)
(1.21049 0.322584 0)
(1.209 0.28686 4.08104e-20)
(1.20537 0.25619 0)
(1.20003 0.229587 -2.54811e-21)
(1.19323 0.206292 -3.77884e-20)
(1.18512 0.185703 7.26986e-20)
(1.17579 0.167333 -6.53783e-20)
(1.16524 0.150781 -6.69497e-20)
(1.15342 0.135713 3.04913e-20)
(1.14027 0.12186 6.2525e-20)
(1.12563 0.108988 -2.89072e-20)
(1.10939 0.0967329 3.07333e-20)
(1.09137 0.0844727 -2.98818e-20)
(1.07097 0.0726838 1.4707e-19)
(1.04564 0.0672387 -1.15405e-19)
(1.01326 0.0766923 -5.99357e-20)
(0.652438 0.97341 -2.03512e-19)
(0.893802 0.852494 -1.71025e-19)
(1.01156 0.725597 -1.5772e-19)
(1.0784 0.62078 -1.0524e-19)
(1.11866 0.535149 4.32165e-20)
(1.14382 0.465507 0)
(1.15966 0.408404 0)
(1.16927 0.360882 6.50624e-20)
(1.17444 0.320754 0)
(1.17632 0.286431 0)
(1.17564 0.25674 4.78315e-20)
(1.1729 0.230787 3.95768e-20)
(1.16843 0.207872 -4.47771e-20)
(1.16243 0.187432 -1.24019e-23)
(1.155 0.169007 -1.8995e-19)
(1.1462 0.15221 7.34557e-20)
(1.13599 0.136721 1.04486e-19)
(1.12432 0.122281 -6.82576e-20)
(1.11109 0.108659 -6.61965e-20)
(1.0962 0.0954885 -3.08808e-20)
(1.07954 0.0821827 -2.38969e-21)
(1.06045 0.0695006 -1.57158e-19)
(1.03621 0.0637956 1.58006e-19)
(1.00644 0.0708969 1.10209e-19)
(0.622748 0.876372 -6.417e-19)
(0.835295 0.786351 -2.67087e-19)
(0.95109 0.680934 7.71759e-20)
(1.02184 0.589474 1.6339e-19)
(1.06744 0.513173 -5.16091e-20)
(1.09776 0.45 0)
(1.11815 0.397397 -1.63375e-19)
(1.13171 0.35307 -1.32453e-19)
(1.14031 0.315251 6.34487e-20)
(1.1452 0.282607 1.14415e-19)