/*--------------------------------*- C++ -*----------------------------------*\
  =========                 |
  \\      /  F ield         | OpenFOAM: The Open Source CFD Toolbox
   \\    /   O peration     | Website:  https://openfoam.org
    \\  /    A nd           | Version:  11
     \\/     M anipulation  |
\*---------------------------------------------------------------------------*/
FoamFile
{
    format      ascii;
    class       volScalarField;
    location    "0.66";
    object      k;
}
// * * * * * * * * * * * * * * * * * * * * * * * * * * * * * * * * * * * * * //

dimensions      [0 2 -2 0 0 0 0];

internalField   nonuniform List<scalar> 
2880
(
0.00511076
0.0183646
0.0549988
0.0976724
0.124338
0.118939
0.0180421
0.0381578
0.079749
0.12344
0.163398
0.196024
0.0226423
0.0526492
0.0950862
0.139646
0.182857
0.217786
0.0250394
0.0623868
0.104642
0.149588
0.192445
0.224305
0.0279978
0.0691683
0.111033
0.15586
0.197441
0.225732
0.0308574
0.0738951
0.115349
0.159815
0.200114
0.225382
0.0330612
0.0771138
0.118122
0.162223
0.201613
0.224456
0.0347007
0.0791237
0.119648
0.163535
0.202544
0.223597
0.0358271
0.0800944
0.120097
0.164008
0.2032
0.222989
0.0364739
0.0801226
0.119566
0.163794
0.203686
0.222642
0.0366554
0.0792632
0.118103
0.16288
0.203993
0.222509
0.0364471
0.0775471
0.115725
0.16125
0.204054
0.222583
0.0358958
0.0749821
0.112431
0.158801
0.203815
0.222759
0.0350856
0.0716018
0.108202
0.155362
0.202912
0.223018
0.033994
0.0674729
0.103013
0.150725
0.201174
0.223421
0.0326066
0.0626639
0.0968414
0.144648
0.198264
0.223902
0.0308996
0.0572492
0.089674
0.136872
0.193718
0.224301
0.0287716
0.0513175
0.0815327
0.127119
0.186907
0.224334
0.0257531
0.0450249
0.0725058
0.115115
0.177011
0.223587
0.0241837
0.0389379
0.0628037
0.10075
0.162926
0.221312
0.0226533
0.0334512
0.0527757
0.0842044
0.143662
0.21488
0.020673
0.0281208
0.0424773
0.0660652
0.118328
0.199095
0.016872
0.0215813
0.0307279
0.0462181
0.0845629
0.161003
0.00468687
0.00762935
0.0123705
0.0207012
0.0405309
0.118266
0.194591
0.208285
0.204813
0.191313
0.170103
0.147949
0.127501
0.109862
0.0951197
0.0829519
0.0728833
0.0645155
0.0576108
0.0519959
0.0475305
0.0441231
0.0417244
0.0403139
0.0398814
0.0401923
0.0412176
0.0429776
0.045309
0.0480921
0.216929
0.212793
0.200566
0.178925
0.154953
0.132626
0.113437
0.0974341
0.0841691
0.073141
0.063978
0.0564453
0.0503392
0.0454824
0.0417259
0.0389518
0.0370795
0.0360631
0.0358717
0.0362773
0.0373473
0.0390008
0.0411432
0.0436408
0.224266
0.214026
0.192955
0.166806
0.141816
0.1203
0.102378
0.0874928
0.0751047
0.0648371
0.0564314
0.0496529
0.0442809
0.0401077
0.0369489
0.0346604
0.0331448
0.0323445
0.0322232
0.0326127
0.0335783
0.0350359
0.0369313
0.0391423
0.225849
0.211317
0.183783
0.155521
0.130835
0.110281
0.0932165
0.0790134
0.067264
0.0576836
0.0500061
0.0439593
0.0392693
0.0356837
0.0329934
0.0310439
0.0297345
0.0290086
0.0288356
0.0291186
0.0298759
0.0310739
0.0326859
0.0346158
0.224698
0.205463
0.174344
0.145684
0.121698
0.101818
0.0852639
0.0715668
0.0604235
0.0515422
0.0445947
0.0392338
0.0351323
0.0320133
0.0296628
0.0279289
0.0267144
0.0259662
0.0256602
0.0257632
0.0262431
0.0271311
0.028431
0.0300862
0.221985
0.198273
0.165674
0.137379
0.113934
0.0944049
0.0781943
0.0649869
0.0544876
0.046323
0.0400676
0.035307
0.0316851
0.0289215
0.0268089
0.0252033
0.0240117
0.0231825
0.0226957
0.0225492
0.0227211
0.0232426
0.024197
0.0255758
0.218711
0.191118
0.158176
0.13034
0.107143
0.08777
0.071874
0.0592046
0.0493837
0.0419149
0.0362805
0.0320237
0.0287813
0.0262828
0.0243341
0.0228002
0.0215914
0.0206542
0.0199658
0.019527
0.019353
0.0194751
0.0200165
0.0210961
0.215371
0.184684
0.151907
0.124308
0.101095
0.0817935
0.0662493
0.0541687
0.0450285
0.0382021
0.0331028
0.0292559
0.026308
0.0240061
0.0221715
0.0206782
0.0194384
0.0183938
0.0175121
0.0167857
0.0162307
0.0159032
0.0159593
0.0166305
0.212241
0.179276
0.146752
0.119084
0.0956676
0.0764252
0.0612864
0.049821
0.04133
0.0350724
0.0304197
0.0269001
0.0241796
0.0220256
0.0202749
0.0188107
0.0175473
0.0164211
0.0153871
0.0144192
0.013514
0.0127054
0.0120901
0.0119598
0.209493
0.175005
0.142571
0.114533
0.0907988
0.0716389
0.056948
0.0460926
0.0381945
0.0324242
0.0281365
0.0248759
0.0223321
0.0202931
0.0186107
0.0171773
0.0159115
0.0147482
0.0136333
0.0125199
0.0113666
0.0101354
0.00867706
0.00642596
0.207267
0.171891
0.139247
0.110576
0.0864587
0.0674118
0.0531874
0.0429095
0.0355342
0.0301712
0.0261773
0.0231207
0.0207157
0.0187697
0.0171483
0.0157537
0.0145113
0.0133605
0.0122487
0.0111254
0.00993634
0.00863086
0.00719239
0.00536363
0.205696
0.16992
0.1367
0.107173
0.0826298
0.063716
0.0499512
0.0401986
0.0332715
0.0282423
0.0244818
0.0215849
0.0192894
0.0174201
0.0158548
0.0145049
0.0133028
0.0121947
0.0111355
0.0100828
0.00899171
0.00782166
0.00655823
0.00507452
0.204996
0.168964
0.134874
0.104302
0.0792963
0.060517
0.0471829
0.0378929
0.031341
0.0265801
0.0230022
0.0202288
0.0180191
0.0162127
0.0146977
0.0133925
0.0122352
0.011177
0.0101774
0.00919983
0.00820594
0.00716565
0.00608092
0.00487717
0.205305
0.168989
0.133755
0.101955
0.0764388
0.0577756
0.0448279
0.035934
0.029689
0.0251395
0.0217014
0.0190218
0.0168783
0.0151229
0.0136518
0.0123887
0.0112761
0.0102685
0.00932927
0.00842565
0.00752508
0.00660571
0.00567798
0.00469645
0.206639
0.170094
0.133322
0.100124
0.0740326
0.0554502
0.042837
0.0342729
0.0282725
0.023885
0.0205509
0.0179405
0.0158473
0.0141331
0.0127002
0.0114767
0.0104077
0.00945059
0.00857127
0.00774021
0.00692935
0.00612265
0.00533353
0.0045332
0.209042
0.172262
0.133502
0.0988067
0.0720506
0.0535032
0.0411678
0.0328692
0.0270572
0.0227889
0.0195287
0.0169675
0.0149118
0.0132311
0.0118322
0.0106461
0.00962004
0.00871317
0.00789327
0.00713318
0.00640811
0.00570561
0.00503889
0.00438963
0.212568
0.175604
0.13455
0.0980121
0.070465
0.0518993
0.0397822
0.0316885
0.0260148
0.0218291
0.018618
0.0160898
0.0140615
0.0124084
0.0110405
0.00989037
0.00890672
0.00804976
0.00728851
0.00659733
0.00595364
0.00534683
0.00478807
0.00426559
0.21726
0.180207
0.136411
0.0976945
0.0692404
0.0506036
0.0386462
0.0307014
0.0251221
0.0209881
0.0178056
0.0152975
0.0132889
0.011659
0.0103198
0.00920471
0.00826303
0.00745553
0.00675183
0.00612714
0.00556011
0.00504061
0.00457668
0.00416031
0.223155
0.186196
0.138958
0.0977701
0.0683361
0.0495814
0.0377283
0.0298824
0.0243597
0.0202517
0.0170813
0.0145832
0.0125883
0.0109784
0.00966613
0.0085853
0.00768506
0.00692626
0.00627867
0.00571772
0.0052224
0.00478201
0.00440071
0.00407234
0.230297
0.193731
0.142194
0.0981193
0.0677071
0.0487968
0.0369987
0.0292088
0.0237112
0.0196082
0.0164369
0.0139409
0.0119553
0.0103629
0.00907638
0.00802893
0.00716933
0.00645816
0.00586487
0.00536454
0.00493576
0.0045663
0.00425616
0.00399981
0.239267
0.202985
0.145876
0.0987176
0.06731
0.0482114
0.0364279
0.0286594
0.0231621
0.0190479
0.0158657
0.013366
0.0113865
0.00980981
0.00854774
0.00753267
0.00671262
0.00604759
0.00550638
0.00506316
0.00469543
0.00438876
0.00413902
0.00394076
0.250879
0.21406
0.149466
0.0994454
0.067074
0.0477794
0.0359854
0.0282144
0.0226997
0.0185626
0.0153624
0.0128549
0.010879
0.0093165
0.00807769
0.00709374
0.00631176
0.00569095
0.0051991
0.004809
0.00449648
0.00424458
0.00404539
0.0038933
0.26654
0.226559
0.152593
0.100118
0.0669027
0.0474485
0.035641
0.0278554
0.0223127
0.0181455
0.0149226
0.0124046
0.0104306
0.00888082
0.00766386
0.00670944
0.00596362
0.00538461
0.00493886
0.00459732
0.00433386
0.00412903
0.00397165
0.00385578
0.287533
0.236357
0.155008
0.100492
0.0666838
0.0471662
0.0353666
0.0275665
0.021992
0.017791
0.0145431
0.0120129
0.0100392
0.00850071
0.00730387
0.00637697
0.00566496
0.00512485
0.00472134
0.00442326
0.00420247
0.00403746
0.0039145
0.00382679
0.00693375
0.0339933
0.076476
0.124763
0.153775
0.162213
0.0222092
0.0664947
0.109123
0.155401
0.20347
0.274469
0.0318794
0.0871365
0.131128
0.177356
0.22751
0.285659
0.0395632
0.101049
0.146284
0.192246
0.239246
0.282364
0.0460095
0.111393
0.157477
0.202612
0.245331
0.2765
0.0513687
0.119395
0.166004
0.20998
0.24845
0.271147
0.0557546
0.125646
0.172571
0.215335
0.250034
0.266824
0.0592533
0.130467
0.177606
0.219291
0.250917
0.263673
0.0619287
0.134044
0.181383
0.22223
0.251634
0.261758
0.0638272
0.13649
0.184086
0.224422
0.25249
0.261104
0.0649874
0.137868
0.185828
0.226044
0.25366
0.261731
0.0654631
0.138206
0.186667
0.227186
0.255226
0.263657
0.065422
0.137492
0.186613
0.227866
0.257183
0.266912
0.0648022
0.135732
0.185624
0.228019
0.259426
0.271467
0.0635436
0.132915
0.183619
0.227533
0.261779
0.277286
0.0615831
0.129009
0.180471
0.226191
0.263983
0.28427
0.0588582
0.123972
0.176022
0.223677
0.265726
0.29219
0.055298
0.11775
0.170083
0.219585
0.266453
0.300744
0.0508206
0.110275
0.162428
0.213387
0.265353
0.309439
0.0453399
0.101426
0.152748
0.204376
0.261112
0.317444
0.038781
0.090938
0.140516
0.191539
0.251821
0.323288
0.0311061
0.0780886
0.124624
0.173264
0.234425
0.323181
0.0217613
0.0603835
0.102052
0.146465
0.203347
0.304879
0.00621691
0.0275059
0.0620752
0.103928
0.15082
0.184437
0.310098
0.241098
0.155845
0.100245
0.0663163
0.046891
0.0351416
0.0273366
0.0217314
0.017496
0.0142219
0.0116782
0.00970352
0.00817437
0.00699541
0.00609349
0.00541241
0.00490775
0.00454214
0.00428199
0.00409727
0.00396513
0.00387065
0.00380466
0.318904
0.237135
0.154169
0.0991703
0.0657654
0.0466075
0.0349565
0.0271605
0.0215283
0.017259
0.0139584
0.0114003
0.00942272
0.00790048
0.00673647
0.00585628
0.00520257
0.00472936
0.00439693
0.00416913
0.0040142
0.00390843
0.00383658
0.0037875
0.305864
0.228247
0.15061
0.0975353
0.0650903
0.04633
0.0348148
0.0270399
0.0213837
0.0170811
0.0137538
0.0111798
0.00919697
0.00767845
0.00652572
0.00566325
0.00503264
0.00458621
0.00428181
0.00408082
0.00394994
0.00386483
0.00381027
0.00377442
0.290264
0.218689
0.146444
0.0957124
0.0644026
0.0460943
0.0347304
0.0269815
0.0213019
0.0169656
0.0136105
0.0110184
0.00902713
0.00750845
0.00636259
0.00551309
0.00490051
0.00447551
0.00419355
0.00401378
0.00390171
0.00383247
0.0037906
0.00376499
0.276156
0.209926
0.142426
0.0939998
0.0638091
0.0459404
0.0347204
0.0269934
0.021289
0.0169168
0.0135314
0.0109182
0.00891445
0.00739095
0.00624686
0.00540486
0.00480453
0.00439494
0.0041294
0.00396517
0.00386685
0.00380929
0.00377678
0.00375871
0.264645
0.202613
0.138987
0.092597
0.0633921
0.0459015
0.0347894
0.0270718
0.0213412
0.0169356
0.0135193
0.0108813
0.0088601
0.00732645
0.00617836
0.00533769
0.00474316
0.00434244
0.00408703
0.00393272
0.00384343
0.00379377
0.00376772
0.00375473
0.255854
0.196965
0.136362
0.0916294
0.0632101
0.0459946
0.034949
0.0272251
0.0214609
0.0170175
0.013569
0.0109055
0.00886456
0.00731562
0.00615725
0.00531112
0.00471531
0.00431648
0.0040648
0.00391483
0.00382991
0.00378482
0.00376274
0.00375252
0.249601
0.193023
0.134674
0.0911762
0.0632993
0.0462387
0.0352129
0.0274621
0.0216553
0.0171686
0.0136823
0.0109874
0.00892117
0.00735281
0.00617975
0.00532295
0.00471989
0.00431638
0.00406197
0.00391081
0.0038258
0.00378168
0.0037607
0.00375175
0.245676
0.190777
0.133996
0.0912863
0.0636775
0.0466585
0.0356053
0.0278081
0.021948
0.0174104
0.0138792
0.0111459
0.00904684
0.00745073
0.00625435
0.00537805
0.00475882
0.0043426
0.00407872
0.00392083
0.00383129
0.00378415
0.00376151
0.00375181
0.243919
0.190215
0.134363
0.0919822
0.0644053
0.0473077
0.0361607
0.0282807
0.0223493
0.0177501
0.0141653
0.0113843
0.00924293
0.00760952
0.00638062
0.00547616
0.00483279
0.00439619
0.00411586
0.00394542
0.00384675
0.00379249
0.00376525
0.00375268
0.244223
0.19135
0.135866
0.0933835
0.0655433
0.048201
0.0368789
0.0288768
0.0228539
0.0181807
0.0145325
0.0116957
0.00950462
0.00782701
0.00655863
0.0056187
0.00494346
0.00447881
0.0041749
0.00398573
0.00387281
0.00380788
0.00377243
0.00375452
0.246549
0.194221
0.138548
0.095497
0.0670911
0.0493387
0.0377588
0.0295943
0.02346
0.0187015
0.0149818
0.012082
0.00983441
0.00810567
0.00679074
0.00580802
0.00509333
0.00459296
0.00425811
0.00404362
0.00391081
0.00383064
0.00378393
0.00375808
0.250898
0.198891
0.142489
0.0983824
0.0690856
0.0507424
0.0388127
0.03044
0.0241718
0.0193153
0.0155154
0.0125454
0.0102346
0.00844807
0.00707975
0.00604715
0.00528565
0.00474199
0.00436873
0.00412195
0.00396314
0.00386263
0.00380068
0.00376374
0.257308
0.205454
0.147788
0.102116
0.0715737
0.052437
0.040053
0.0314201
0.024992
0.0200238
0.0161348
0.0130877
0.0107073
0.00885677
0.00742865
0.00633952
0.00552422
0.00492996
0.00451077
0.00422434
0.00403277
0.00390609
0.00382416
0.00377224
0.265846
0.21402
0.15456
0.106786
0.0746096
0.0544507
0.041493
0.0325399
0.0259227
0.0208277
0.0168405
0.0137098
0.0112542
0.00933401
0.00784034
0.00668863
0.00581313
0.00516138
0.00468887
0.00435515
0.00412337
0.00396381
0.00385626
0.00378453
0.276587
0.224715
0.162926
0.112489
0.0782526
0.0568136
0.0431456
0.0338041
0.0269647
0.0217263
0.017632
0.0144116
0.0118759
0.00988145
0.00831737
0.00709785
0.00615648
0.00544097
0.00490809
0.00451932
0.00423932
0.0040392
0.00389927
0.00380171
0.289594
0.23766
0.173004
0.11932
0.0825632
0.0595567
0.045024
0.0352164
0.0281174
0.0227178
0.0185072
0.0151918
0.0125721
0.0104998
0.00886153
0.00757004
0.00655808
0.00577335
0.00517365
0.00472224
0.00438556
0.00413627
0.0039559
0.00382507
0.304892
0.252947
0.184876
0.127355
0.0875957
0.062709
0.0471397
0.0367792
0.0293788
0.0237983
0.0194623
0.0160474
0.013341
0.0111885
0.0094735
0.00810707
0.00702095
0.00616259
0.00549044
0.00496932
0.00456749
0.00425965
0.00402917
0.00385599
0.322402
0.2706
0.198548
0.136627
0.0933858
0.066292
0.049501
0.0384932
0.0307449
0.0249623
0.0204917
0.0169736
0.0141789
0.0119453
0.0101525
0.00870959
0.00754706
0.00661191
0.0058629
0.00526594
0.00479083
0.00441431
0.004122
0.00389553
0.341775
0.290552
0.213879
0.147081
0.0999289
0.0703116
0.0521095
0.0403561
0.03221
0.0262023
0.0215881
0.017964
0.0150806
0.0127664
0.0108963
0.00937687
0.00813721
0.00712354
0.00629452
0.00561659
0.00506054
0.00460491
0.00423832
0.00394526
0.362433
0.312149
0.230438
0.158508
0.10715
0.074745
0.0549557
0.0423599
0.0337659
0.0275098
0.022743
0.0190106
0.0160394
0.0136465
0.0117011
0.0101068
0.00879088
0.00769848
0.00678769
0.00602486
0.00538107
0.00483624
0.00438226
0.00400693
0.382408
0.333753
0.247315
0.170454
0.11486
0.0795226
0.0580117
0.0444888
0.0354012
0.0288748
0.0239469
0.0201048
0.0170476
0.0145791
0.0125619
0.0108958
0.009506
0.00833615
0.0073433
0.00649304
0.005756
0.00511269
0.00455805
0.00408248
0.395066
0.352892
0.263074
0.182144
0.122711
0.0845084
0.0612245
0.046718
0.0371009
0.0302858
0.0251896
0.021237
0.0180964
0.0155565
0.0134721
0.0117387
0.0102788
0.00903431
0.00796062
0.00702198
0.00618773
0.00543794
0.00476964
0.00417378
0.365213
0.361503
0.275806
0.192489
0.130195
0.0894943
0.0645136
0.0490136
0.0388472
0.0317305
0.0264608
0.0223978
0.0191771
0.0165705
0.0144243
0.012629
0.0111041
0.00978903
0.00863726
0.00761098
0.00667736
0.00581465
0.00502034
0.00428248
0.0103669
0.0151176
0.0169237
0.0184512
0.0217661
0.0640109
0.0279728
0.0372508
0.0384311
0.0392603
0.047536
0.0999773
0.0363212
0.0468359
0.0507628
0.0533194
0.0675272
0.128206
0.0418014
0.0547518
0.0612667
0.0658124
0.0847134
0.149597
0.045702
0.0622672
0.0710231
0.0775045
0.0997574
0.165133
0.0487539
0.0694472
0.0802171
0.088575
0.11296
0.175993
0.051298
0.0763336
0.0888997
0.0990543
0.124587
0.183269
0.053469
0.0828786
0.0970928
0.108957
0.1349
0.187924
0.0553245
0.0890071
0.104785
0.118294
0.143937
0.190859
0.056898
0.0946591
0.111947
0.126949
0.151839
0.192876
0.0582159
0.0997701
0.118549
0.134906
0.158848
0.194535
0.0593045
0.104262
0.124567
0.142211
0.165204
0.196166
0.0601967
0.10803
0.129983
0.148931
0.171149
0.198134
0.0605715
0.11113
0.134775
0.155131
0.176933
0.200886
0.0604201
0.113555
0.138899
0.16085
0.182798
0.20492
0.0595963
0.115206
0.142271
0.166072
0.188886
0.210589
0.0580572
0.115839
0.144749
0.170673
0.195166
0.218054
0.0557197
0.115368
0.146057
0.174368
0.201315
0.226994
0.05245
0.113282
0.145974
0.176611
0.206616
0.236455
0.048186
0.10895
0.14393
0.176706
0.209847
0.244651
0.0426256
0.10147
0.139159
0.173433
0.209058
0.248672
0.0352869
0.0894021
0.130434
0.164992
0.201075
0.244186
0.0252135
0.06992
0.115468
0.148582
0.180116
0.222096
0.0107115
0.0454791
0.0937183
0.122814
0.137384
0.135417
0.314613
0.354888
0.281448
0.200177
0.136739
0.0942396
0.0677838
0.0513367
0.0406217
0.0331975
0.0277511
0.0235784
0.0202809
0.0176128
0.0154106
0.0135594
0.0119753
0.0105949
0.00936927
0.00825782
0.00722458
0.00624436
0.00531264
0.00440977
0.278654
0.338466
0.28014
0.204662
0.141972
0.0985512
0.0709503
0.0536521
0.0424086
0.0346774
0.0290531
0.0247717
0.0214008
0.0186759
0.0164235
0.0145227
0.0128855
0.0114458
0.0101516
0.00895896
0.00782782
0.00672754
0.00564827
0.00455632
0.257025
0.31764
0.275797
0.206257
0.145825
0.102335
0.0739592
0.0559363
0.0441978
0.0361648
0.0303622
0.0259728
0.0225312
0.019754
0.0174567
0.0155122
0.0138283
0.0123356
0.0109787
0.00971019
0.00848465
0.00726391
0.00602839
0.00472221
0.243891
0.298469
0.268802
0.205648
0.148463
0.105591
0.0767914
0.0581791
0.0459855
0.0376579
0.0316767
0.0271796
0.0236695
0.0208438
0.0185066
0.0165241
0.0147996
0.01326
0.0118467
0.0105081
0.00919294
0.00785326
0.00645431
0.00490718
0.236082
0.281691
0.259482
0.203813
0.150172
0.108385
0.0794547
0.0603814
0.0477733
0.0391584
0.0329976
0.0283921
0.0248151
0.0219446
0.019573
0.0175586
0.0158
0.0142202
0.0127568
0.0113539
0.00995416
0.00849817
0.00692958
0.00511153
0.231243
0.267195
0.249868
0.201361
0.151218
0.110807
0.0819734
0.06255
0.0495649
0.0406692
0.0343267
0.0296114
0.0259691
0.0230585
0.0206593
0.0186217
0.0168381
0.0152271
0.0137218
0.0122616
0.0107825
0.00921271
0.00746754
0.00533949
0.227891
0.254701
0.240455
0.198417
0.151765
0.11294
0.0843771
0.0646964
0.0513666
0.0421929
0.035665
0.0308376
0.0271319
0.0241875
0.0217709
0.0197235
0.0179311
0.0163063
0.0147767
0.0132749
0.0117287
0.0100523
0.00812357
0.00562388
0.225195
0.243938
0.231559
0.195008
0.151808
0.114813
0.0866889
0.0668361
0.0531846
0.0437316
0.0370117
0.0320677
0.0282994
0.0253284
0.0229082
0.0208713
0.0190973
0.0174933
0.0159811
0.0144863
0.0129278
0.0112053
0.0091565
0.00630679
0.222772
0.234694
0.223363
0.191169
0.151562
0.116476
0.088931
0.0689791
0.0550256
0.0452882
0.0383637
0.0332936
0.0294599
0.026467
0.0240567
0.022054
0.0203348
0.0188053
0.0173897
0.0160211
0.0146416
0.0132275
0.0118913
0.0110409
0.22054
0.226821
0.215992
0.187224
0.151109
0.117966
0.0911192
0.071138
0.0568996
0.0468659
0.0397171
0.0345039
0.0305947
0.0275782
0.025185
0.0232349
0.0216045
0.0202076
0.0189844
0.0178967
0.0169288
0.0161066
0.0155495
0.0154604
0.218608
0.22031
0.209561
0.183431
0.150523
0.119318
0.0932693
0.0733266
0.0588194
0.0484727
0.0410721
0.0356906
0.0316872
0.0286368
0.0262598
0.0243715
0.0228506
0.021619
0.0206309
0.0198656
0.0193208
0.019014
0.018988
0.0192289
0.217166
0.215522
0.204049
0.179891
0.149893
0.120571
0.0953926
0.0755588
0.0608028
0.0501245
0.0424385
0.0368549
0.0327307
0.0296291
0.0272605
0.0254359
0.0240341
0.0229806
0.0222335
0.0217708
0.0215788
0.0216404
0.0219288
0.0223485
0.216775
0.212544
0.199569
0.176892
0.149342
0.12177
0.0975059
0.0778521
0.0628743
0.0518478
0.0438383
0.0380113
0.0337312
0.0305524
0.0281758
0.026406
0.0251184
0.0242358
0.0237106
0.02351
0.023594
0.0239188
0.0244297
0.0249656
0.217589
0.211844
0.196579
0.17462
0.149007
0.123004
0.0996394
0.0802304
0.0650659
0.0536802
0.0453075
0.0391888
0.0347081
0.0314159
0.0290032
0.0272657
0.0260711
0.0253339
0.0249962
0.0250093
0.0253014
0.0258423
0.0265206
0.0271561
0.220023
0.21292
0.195833
0.173521
0.148972
0.124339
0.101844
0.0827276
0.0674171
0.0556699
0.0468961
0.0404322
0.0356965
0.0322423
0.0297517
0.0280094
0.0268716
0.0262413
0.0260485
0.0262101
0.0266813
0.0273883
0.0282079
0.0289392
0.225148
0.216752
0.196923
0.173727
0.149636
0.125961
0.10421
0.0853963
0.0699779
0.057876
0.0486686
0.041803
0.0367486
0.0330708
0.0304463
0.0286471
0.0275161
0.0269424
0.0268435
0.0271017
0.0277064
0.0285443
0.0294859
0.0303127
0.233753
0.224707
0.201444
0.176172
0.151512
0.128173
0.1069
0.0883286
0.0728178
0.0603711
0.0507046
0.0433812
0.0379367
0.0339615
0.0311322
0.0292099
0.0280228
0.0274454
0.0273827
0.0276864
0.0283727
0.0293051
0.0303479
0.0312689
0.245519
0.236881
0.210776
0.181886
0.15535
0.131464
0.110205
0.0916908
0.0760457
0.0632501
0.0531023
0.0452677
0.0393576
0.0350003
0.0318816
0.0297558
0.0284372
0.0277858
0.027694
0.027989
0.0286949
0.0296788
0.030795
0.0318041
0.259246
0.252687
0.224831
0.191727
0.162104
0.136578
0.114617
0.0957841
0.07985
0.0666519
0.0559888
0.0475901
0.0411373
0.0363056
0.0328006
0.0303765
0.0288378
0.0280306
0.0278343
0.0280626
0.0287127
0.0296937
0.0308433
0.0319258
0.272502
0.269658
0.241966
0.205506
0.17242
0.144353
0.120846
0.101114
0.0845665
0.070809
0.0595491
0.0505184
0.0434412
0.0380368
0.0340382
0.0312078
0.0293457
0.0282874
0.0278994
0.0280094
0.0285223
0.0294346
0.0305669
0.0316983
0.281693
0.283128
0.257924
0.220787
0.185551
0.155049
0.129524
0.108323
0.0907134
0.0761085
0.0640806
0.0543029
0.0464987
0.0404122
0.0358017
0.0324437
0.0301394
0.0287178
0.0280341
0.0279525
0.0282454
0.028982
0.0300257
0.0311631
0.282258
0.286669
0.266364
0.232792
0.19855
0.167349
0.14042
0.117731
0.0987947
0.0830528
0.0700226
0.0593216
0.0506465
0.0437426
0.0383831
0.0343586
0.0314753
0.0295595
0.0284578
0.0280449
0.0281141
0.0285464
0.0294021
0.0304738
0.267839
0.275301
0.262257
0.235845
0.206813
0.178062
0.151716
0.128574
0.10872
0.0919068
0.0777893
0.0660305
0.0563381
0.0484656
0.0422005
0.0373488
0.0337277
0.0311653
0.0295005
0.0285985
0.0283345
0.0284696
0.0289641
0.0298687
0.220823
0.242872
0.242355
0.228371
0.206286
0.183233
0.16032
0.138739
0.119266
0.102139
0.0873237
0.0746676
0.0639828
0.0550838
0.0478006
0.0419736
0.0374462
0.0340658
0.0316833
0.0301466
0.0293315
0.0291084
0.0292525
0.0297673
0.00369376
0.0080908
0.0156659
0.0237636
0.031647
0.0515086
0.0155588
0.0231543
0.0340245
0.0432039
0.0518772
0.0659244
0.0194856
0.0305486
0.0432888
0.05364
0.0631841
0.0752915
0.0215937
0.0355274
0.0496169
0.0609017
0.0710262
0.0819751
0.0232224
0.0394867
0.0546096
0.0666129
0.0771131
0.0873001
0.0243461
0.0428767
0.0587917
0.071348
0.0821183
0.0918532
0.0249602
0.0458943
0.0623728
0.0753642
0.0863642
0.095884
0.025065
0.0486088
0.0654369
0.0787937
0.0900288
0.0995172
0.0252367
0.0509517
0.0680103
0.0817125
0.0932259
0.102844
0.0258353
0.0528128
0.0701037
0.0841695
0.0960371
0.10595
0.0264521
0.0541925
0.0717268
0.0861982
0.0985239
0.108914
0.0269078
0.0550981
0.0728862
0.087819
0.100729
0.111809
0.0271252
0.0555294
0.0735808
0.0890363
0.102675
0.114688
0.0270774
0.0554779
0.0737948
0.0898343
0.104354
0.117577
0.0267674
0.0549262
0.0735059
0.0901726
0.105729
0.120466
0.0262294
0.0538456
0.0726644
0.0899808
0.106716
0.123294
0.0255608
0.0521955
0.0712026
0.0891528
0.107183
0.125935
0.0250748
0.0499198
0.0690274
0.0875392
0.106932
0.128171
0.0247437
0.0469398
0.0660147
0.0849364
0.105682
0.129664
0.0238131
0.0433617
0.0619922
0.0810651
0.103045
0.129905
0.0222439
0.0389351
0.0566633
0.075513
0.0984503
0.128221
0.0201229
0.0331845
0.0494256
0.0675399
0.0909175
0.12362
0.0161229
0.0247117
0.0385896
0.0553277
0.0783181
0.114591
0.00387875
0.00841972
0.0180333
0.0327058
0.0553464
0.0996905
0.146869
0.192409
0.207379
0.20668
0.197565
0.181217
0.163646
0.145811
0.128538
0.112489
0.0979704
0.0850845
0.0738261
0.0641343
0.0559241
0.0491145
0.0436061
0.0392882
0.0360694
0.0337727
0.0322592
0.0314168
0.0311669
0.0312134
0.110314
0.148239
0.17033
0.179134
0.178817
0.173135
0.161835
0.149068
0.135677
0.122379
0.109666
0.0978328
0.0870466
0.0773901
0.0688797
0.061559
0.0554486
0.0504478
0.0464274
0.0432959
0.0410031
0.0393863
0.0385356
0.0379942
0.0984913
0.123123
0.142627
0.154934
0.160427
0.160479
0.157198
0.150326
0.142171
0.133357
0.124427
0.115756
0.107596
0.100114
0.093427
0.0875494
0.0824678
0.0781954
0.0746865
0.0718339
0.0695675
0.0676378
0.0663435
0.0647677
0.09672
0.11316
0.127973
0.13964
0.147526
0.151843
0.153173
0.152457
0.150268
0.147148
0.143799
0.140577
0.137738
0.135439
0.133738
0.132601
0.131932
0.131595
0.131462
0.131373
0.13116
0.130673
0.130084
0.12886
0.0986576
0.110906
0.122672
0.132907
0.141295
0.14779
0.152574
0.156168
0.158916
0.16123
0.163503
0.16601
0.168914
0.172254
0.17596
0.179876
0.183795
0.187481
0.190645
0.193069
0.194616
0.195318
0.195335
0.194963
0.101826
0.112003
0.121912
0.131101
0.139356
0.146688
0.153273
0.159395
0.165229
0.170981
0.176813
0.182796
0.188894
0.194973
0.200836
0.206257
0.211019
0.214939
0.217885
0.219797
0.220676
0.220627
0.219905
0.218666
0.105299
0.11455
0.123365
0.131673
0.139458
0.146812
0.153877
0.16078
0.167622
0.174493
0.181391
0.18824
0.194898
0.20118
0.206894
0.211859
0.215935
0.219036
0.221136
0.222272
0.222495
0.221957
0.220644
0.21888
0.108777
0.117667
0.125889
0.133553
0.140744
0.147603
0.154271
0.160844
0.167369
0.173882
0.18025
0.18633
0.19195
0.196927
0.201112
0.204408
0.206777
0.20825
0.208914
0.208882
0.208312
0.207119
0.20534
0.203442
0.112208
0.12109
0.129077
0.136341
0.143007
0.149222
0.155122
0.160797
0.166257
0.17139
0.176179
0.180509
0.184234
0.18721
0.189372
0.190717
0.191307
0.191269
0.190808
0.190092
0.189332
0.18862
0.187723
0.18659
0.115651
0.124832
0.132927
0.140109
0.146496
0.152222
0.157408
0.162132
0.166419
0.170242
0.173503
0.176096
0.177966
0.179139
0.179659
0.17961
0.179124
0.178367
0.177506
0.176697
0.176151
0.17623
0.176924
0.177627
0.11921
0.129022
0.137597
0.145084
0.151581
0.1572
0.162039
0.16617
0.169633
0.172436
0.174579
0.176073
0.176948
0.177252
0.177092
0.176557
0.175785
0.174882
0.173906
0.172874
0.171791
0.170647
0.170785
0.172247
0.123003
0.133824
0.14328
0.151494
0.158549
0.164546
0.16958
0.173724
0.177036
0.179562
0.181353
0.182468
0.182983
0.183
0.182622
0.181911
0.180921
0.179611
0.17787
0.175555
0.172632
0.169037
0.165246
0.164314
0.127138
0.13939
0.15014
0.15949
0.167527
0.174365
0.180108
0.184842
0.18864
0.191574
0.193718
0.195146
0.195947
0.196198
0.195991
0.195259
0.194029
0.191959
0.1888
0.184079
0.177786
0.170345
0.162514
0.157287
0.131703
0.14584
0.158256
0.169067
0.178383
0.186357
0.193114
0.198754
0.203352
0.206988
0.209721
0.211585
0.212688
0.213038
0.212546
0.210918
0.20756
0.202518
0.195988
0.188416
0.179943
0.170514
0.160084
0.1509
0.13675
0.153226
0.167583
0.18001
0.190669
0.199775
0.207478
0.213894
0.219068
0.223115
0.225972
0.227578
0.227619
0.226151
0.223034
0.218274
0.212379
0.205165
0.196596
0.186633
0.175315
0.162914
0.150117
0.137858
0.142284
0.161511
0.177897
0.191831
0.203569
0.213409
0.221508
0.228051
0.23291
0.235748
0.236641
0.235835
0.233705
0.229864
0.224448
0.217347
0.208412
0.197755
0.185572
0.172151
0.157977
0.143606
0.129924
0.117522
0.148236
0.17052
0.188734
0.203723
0.215882
0.225628
0.233023
0.237641
0.239878
0.240297
0.239109
0.236127
0.230809
0.223354
0.213892
0.202586
0.189669
0.175442
0.160344
0.144933
0.12997
0.11632
0.104605
0.0966202
0.154433
0.179883
0.199349
0.214543
0.226055
0.233849
0.238257
0.240354
0.24
0.237452
0.23221
0.224331
0.214308
0.202349
0.188748
0.173853
0.158114
0.142107
0.126554
0.112301
0.100095
0.0905417
0.0840239
0.0820609
0.160558
0.188975
0.208706
0.22288
0.231542
0.236303
0.237841
0.235968
0.23118
0.223081
0.21249
0.199807
0.185481
0.169968
0.153757
0.137417
0.121689
0.107415
0.0952426
0.0855591
0.0785622
0.0744054
0.0732257
0.0743758
0.166141
0.196884
0.215573
0.226491
0.232184
0.232999
0.229748
0.222461
0.211596
0.198265
0.183144
0.166905
0.150185
0.13357
0.117788
0.103624
0.0916594
0.0821105
0.0749284
0.0699775
0.0672166
0.0665682
0.0671873
0.0696234
0.170632
0.202509
0.218273
0.226119
0.227094
0.223005
0.213733
0.200382
0.184634
0.167543
0.150058
0.132949
0.116862
0.102525
0.0904754
0.0808193
0.073343
0.0677395
0.0637869
0.0613986
0.0605873
0.0608826
0.0621569
0.0652568
0.173771
0.204928
0.217766
0.220735
0.216974
0.206892
0.191625
0.173956
0.155418
0.137261
0.120333
0.105244
0.0924747
0.0821317
0.073929
0.0674686
0.0624347
0.0586723
0.056127
0.0548674
0.0549024
0.0556661
0.0576065
0.0609871
0.176449
0.204966
0.213909
0.212042
0.203077
0.186745
0.167651
0.148004
0.129396
0.112722
0.0984112
0.0866173
0.077093
0.06939
0.0631341
0.0581031
0.0541806
0.0513476
0.0496884
0.0492925
0.04974
0.0510919
0.0534788
0.0567426
0.181666
0.205092
0.20881
0.202271
0.186615
0.166349
0.14559
0.126322
0.109496
0.0953329
0.0837004
0.0741809
0.0663288
0.0598534
0.0545912
0.0504277
0.047321
0.0452932
0.0443811
0.044482
0.04527
0.0469664
0.0493969
0.0524532
)
;

boundaryField
{
    rotor
    {
        type            kqRWallFunction;
        value           nonuniform List<scalar> 
144
(
0.00511076
0.0183646
0.0549988
0.0976724
0.124338
0.118939
0.00511076
0.0180421
0.0226423
0.0250394
0.0279978
0.0308574
0.0330612
0.0347007
0.0358271
0.0364739
0.0366554
0.0364471
0.0358958
0.0350856
0.033994
0.0326066
0.0308996
0.0287716
0.0257531
0.0241837
0.0226533
0.020673
0.016872
0.00468687
0.00468687
0.00762935
0.0123705
0.0207012
0.0405309
0.118266
0.00693375
0.0339933
0.076476
0.124763
0.153775
0.162213
0.00693375
0.0222092
0.0318794
0.0395632
0.0460095
0.0513687
0.0557546
0.0592533
0.0619287
0.0638272
0.0649874
0.0654631
0.065422
0.0648022
0.0635436
0.0615831
0.0588582
0.055298
0.0508206
0.0453399
0.038781
0.0311061
0.0217613
0.00621691
0.00621691
0.0275059
0.0620752
0.103928
0.15082
0.184437
0.0103669
0.0151176
0.0169237
0.0184512
0.0217661
0.0640109
0.0103669
0.0279728
0.0363212
0.0418014
0.045702
0.0487539
0.051298
0.053469
0.0553245
0.056898
0.0582159
0.0593045
0.0601967
0.0605715
0.0604201
0.0595963
0.0580572
0.0557197
0.05245
0.048186
0.0426256
0.0352869
0.0252135
0.0107115
0.0107115
0.0454791
0.0937183
0.122814
0.137384
0.135417
0.00369376
0.0080908
0.0156659
0.0237636
0.031647
0.0515086
0.00369376
0.0155588
0.0194856
0.0215937
0.0232224
0.0243461
0.0249602
0.025065
0.0252367
0.0258353
0.0264521
0.0269078
0.0271252
0.0270774
0.0267674
0.0262294
0.0255608
0.0250748
0.0247437
0.0238131
0.0222439
0.0201229
0.0161229
0.00387875
0.00387875
0.00841972
0.0180333
0.0327058
0.0553464