/*--------------------------------*- C++ -*----------------------------------*\
  =========                 |
  \\      /  F ield         | OpenFOAM: The Open Source CFD Toolbox
   \\    /   O peration     | Website:  https://openfoam.org
    \\  /    A nd           | Version:  11
     \\/     M anipulation  |
\*---------------------------------------------------------------------------*/
FoamFile
{
    format      ascii;
    class       surfaceScalarField;
    location    "0.66";
    object      meshPhi;
}
// * * * * * * * * * * * * * * * * * * * * * * * * * * * * * * * * * * * * * //

dimensions      [0 3 -1 0 0 0 0];

internalField   nonuniform List<scalar> 
5640
(
1.36961e-16
9.81747e-07
2.42107e-16
1.37445e-06
3.77024e-16
1.76715e-06
-1.33928e-15
2.15984e-06
-3.68147e-15
2.55254e-06
2.94524e-06
5.95136e-15
1.83582e-18
9.81747e-07
-3.88719e-16
1.37445e-06
-2.60418e-15
1.76715e-06
1.94361e-15
2.15984e-06
8.06619e-15
2.55254e-06
2.94524e-06
-9.02978e-15
-1.16468e-16
9.81747e-07
1.86406e-16
1.37445e-06
-1.56234e-15
1.76715e-06
-4.21242e-15
2.15984e-06
-7.4983e-15
2.55254e-06
2.94524e-06
7.72426e-16
8.69703e-17
9.81747e-07
-1.01914e-16
1.37445e-06
2.69315e-15
1.76715e-06
7.44274e-15
2.15984e-06
3.25987e-15
2.55254e-06
2.94524e-06
-2.798e-15
-4.83548e-17
9.81747e-07
3.95592e-17
1.37445e-06
1.94406e-16
1.76715e-06
-1.80611e-15
2.15984e-06
-4.20859e-15
2.55254e-06
2.94524e-06
5.01323e-15
-1.8008e-16
9.81747e-07
4.33354e-18
1.37445e-06
-1.8477e-15
1.76715e-06
-3.8861e-15
2.15984e-06
3.15704e-15
2.55254e-06
2.94524e-06
4.98112e-16
2.5398e-16
9.81747e-07
2.55482e-16
1.37445e-06
2.06602e-15
1.76715e-06
4.50422e-15
2.15984e-06
-2.30985e-15
2.55254e-06
2.94524e-06
5.40841e-16
2.16646e-17
9.81747e-07
-3.21673e-16
1.37445e-06
-1.14886e-15
1.76715e-06
-5.28561e-15
2.15984e-06
-3.76739e-16
2.55254e-06
2.94524e-06
-5.63986e-15
-1.43381e-16
9.81747e-07
1.66386e-16
1.37445e-06
4.19112e-15
1.76715e-06
6.34946e-15
2.15984e-06
-8.05723e-16
2.55254e-06
2.94524e-06
8.39298e-16
-6.88225e-17
9.81747e-07
-9.20924e-17
1.37445e-06
-2.76941e-15
1.76715e-06
-3.68735e-16
2.15984e-06
-1.4506e-15
2.55254e-06
2.94524e-06
-1.76416e-16
1.66345e-16
9.81747e-07
-8.86693e-17
1.37445e-06
5.69576e-16
1.76715e-06
-2.1034e-15
2.15984e-06
9.65982e-15
2.55254e-06
2.94524e-06
5.29035e-15
-1.7776e-16
9.81747e-07
-2.04635e-17
1.37445e-06
-3.45487e-16
1.76715e-06
-4.17266e-15
2.15984e-06
-2.62232e-15
2.55254e-06
2.94524e-06
5.36958e-15
1.77816e-16
9.81747e-07
2.05832e-17
1.37445e-06
3.45432e-16
1.76715e-06
4.17264e-15
2.15984e-06
2.62244e-15
2.55254e-06
2.94524e-06
-5.36921e-15
-1.66309e-16
9.81747e-07
8.87653e-17
1.37445e-06
-5.69638e-16
1.76715e-06
2.10356e-15
2.15984e-06
-9.65978e-15
2.55254e-06
2.94524e-06
-5.29003e-15
6.88414e-17
9.81747e-07
9.21162e-17
1.37445e-06
2.76933e-15
1.76715e-06
3.68649e-16
2.15984e-06
1.45078e-15
2.55254e-06
2.94524e-06
1.76614e-16
1.43426e-16
9.81747e-07
-1.66393e-16
1.37445e-06
-4.19115e-15
1.76715e-06
-6.34941e-15
2.15984e-06
8.05638e-16
2.55254e-06
2.94524e-06
-8.39461e-16
-2.16491e-17
9.81747e-07
3.21707e-16
1.37445e-06
1.14893e-15
1.76715e-06
5.28561e-15
2.15984e-06
3.76818e-16
2.55254e-06
2.94524e-06
5.63984e-15
-2.53957e-16
9.81747e-07
-2.5541e-16
1.37445e-06
-2.06594e-15
1.76715e-06
-4.50412e-15
2.15984e-06
2.31009e-15
2.55254e-06
2.94524e-06
-5.40721e-16
1.80126e-16
9.81747e-07
-4.29071e-18
1.37445e-06
1.8478e-15
1.76715e-06
3.88621e-15
2.15984e-06
-3.15709e-15
2.55254e-06
2.94524e-06
-4.98088e-16
4.83696e-17
9.81747e-07
-3.94959e-17
1.37445e-06
-1.94298e-16
1.76715e-06
1.80615e-15
2.15984e-06
4.20855e-15
2.55254e-06
2.94524e-06
-5.01335e-15
-8.69228e-17
9.81747e-07
1.01948e-16
1.37445e-06
-2.69315e-15
1.76715e-06
-7.44262e-15
2.15984e-06
-3.25972e-15
2.55254e-06
2.94524e-06
2.79808e-15
1.16487e-16
9.81747e-07
-1.86338e-16
1.37445e-06
1.56239e-15
1.76715e-06
4.21261e-15
2.15984e-06
7.49853e-15
2.55254e-06
2.94524e-06
-7.72227e-16
-1.79935e-18
9.81747e-07
3.88811e-16
1.37445e-06
2.60422e-15
1.76715e-06
-1.94358e-15
2.15984e-06
-8.06618e-15
2.55254e-06
2.94524e-06
9.03004e-15
-1.36927e-16
-2.42085e-16
-3.76979e-16
1.33926e-15
3.68161e-15
-5.95129e-15
-1.13362e-14
4.53785e-06
-4.53785e-06
-4.80767e-16
5.23599e-06
-5.23599e-06
-5.35666e-15
5.93412e-06
-5.93412e-06
-1.13031e-14
6.63225e-06
-6.63225e-06
4.86984e-15
7.33038e-06
-7.33038e-06
-1.10961e-15
8.02851e-06
-8.02851e-06
-8.1586e-15
8.72664e-06
-8.72664e-06
1.3045e-14
9.42478e-06
-9.42478e-06
5.94843e-15
1.01229e-05
-1.01229e-05
-1.995e-15
1.0821e-05
-1.0821e-05
2.43881e-14
1.15192e-05
-1.15192e-05
1.6191e-14
1.22173e-05
-1.22173e-05
-3.27859e-14
1.29154e-05
-1.29154e-05
-3.05137e-15
1.36136e-05
-1.36136e-05
-1.44392e-14
1.43117e-05
-1.43117e-05
-2.69003e-14
1.50098e-05
-1.50098e-05
7.73729e-15
1.5708e-05
-1.5708e-05
-4.4381e-15
1.64061e-05
-1.64061e-05
-1.79968e-14
1.71042e-05
-1.71042e-05
2.18218e-14
1.78024e-05
-1.78024e-05
8.21787e-15
1.85005e-05
-1.85005e-05
-6.08032e-15
1.91986e-05
-1.91986e-05
3.89205e-14
1.98967e-05
-1.98967e-05
2.05949e-05
-2.05949e-05
9.39895e-15
4.53785e-06
5.20607e-16
5.23599e-06
7.52852e-15
5.93412e-06
-4.41153e-15
6.63225e-06
3.78376e-15
7.33038e-06
1.33849e-14
8.02851e-06
-2.11038e-15
8.72664e-06
8.52924e-15
9.42478e-06
-1.00266e-14
1.01229e-05
1.86787e-15
1.0821e-05
-2.02025e-14
1.15192e-05
-7.01255e-15
1.22173e-05
7.50961e-15
1.29154e-05
2.36089e-14
1.36136e-05
-2.04225e-15
1.43117e-05
1.4834e-14
1.50098e-05
-1.38788e-14
1.5708e-05
2.3914e-15
1.64061e-05
2.0413e-14
1.71042e-05
-7.01599e-15
1.78024e-05
1.2072e-14
1.85005e-05
-2.59379e-14
1.91986e-05
1.84843e-15
1.98967e-05
2.05949e-05
-8.67588e-15
4.53785e-06
1.22924e-14
5.23599e-06
1.88349e-15
5.93412e-06
8.90274e-15
6.63225e-06
-5.10818e-15
7.33038e-06
-2.19911e-14
8.02851e-06
1.22653e-14
8.72664e-06
-5.37377e-15
9.42478e-06
4.45698e-15
1.01229e-05
-1.43047e-14
1.0821e-05
-7.32604e-15
1.15192e-05
7.04277e-15
1.22173e-05
2.3996e-14
1.29154e-05
-7.55445e-15
1.36136e-05
9.80008e-15
1.43117e-05
-1.62349e-14
1.50098e-05
4.02963e-14
1.5708e-05
1.44479e-14
1.64061e-05
-1.37018e-14
1.71042e-05
-7.89352e-15
1.78024e-05
-3.92449e-14
1.85005e-05
4.27544e-14
1.91986e-05
-8.84625e-15
1.98967e-05
2.05949e-05
5.986e-15
4.53785e-06
2.19106e-16
5.23599e-06
-6.43515e-15
5.93412e-06
6.06403e-15
6.63225e-06
-2.09265e-15
7.33038e-06
1.61758e-14
8.02851e-06
-1.88301e-14
8.72664e-06
-2.35095e-15
9.42478e-06
9.17225e-15
1.01229e-05
-4.7094e-15
1.0821e-05
2.16285e-14
1.15192e-05
-2.9645e-14
1.22173e-05
-9.28987e-15
1.29154e-05
-1.89084e-14
1.36136e-05
4.4664e-15
1.43117e-05
3.01576e-14
1.50098e-05
-2.62161e-14
1.5708e-05
4.36152e-16
1.64061e-05
-2.11689e-14
1.71042e-05
1.8715e-14
1.78024e-05
-3.91846e-15
1.85005e-05
-2.91511e-14
1.91986e-05
1.52327e-14
1.98967e-05
2.05949e-05
6.71545e-15
4.53785e-06
-7.3065e-15
5.23599e-06
1.11011e-14
5.93412e-06
-4.24136e-15
6.63225e-06
1.51029e-14
7.33038e-06
-5.21008e-15
8.02851e-06
1.70141e-14
8.72664e-06
-3.94071e-15
9.42478e-06
-2.95364e-16
1.01229e-05
6.61193e-15
1.0821e-05
1.37063e-14
1.15192e-05
1.01851e-14
1.22173e-05
1.82177e-14
1.29154e-05
1.43684e-14
1.36136e-05
2.33399e-14
1.43117e-05
-2.53421e-14
1.50098e-05
2.90783e-14
1.5708e-05
-7.83408e-15
1.64061e-05
3.54167e-14
1.71042e-05
-4.50906e-15
1.78024e-05
4.23743e-14
1.85005e-05
-5.81498e-16
1.91986e-05
-8.7297e-15
1.98967e-05
2.05949e-05
-4.63043e-15
4.53785e-06
5.79797e-15
5.23599e-06
-1.61501e-14
5.93412e-06
-5.97457e-15
6.63225e-06
-8.55458e-15
7.33038e-06
4.22427e-15
8.02851e-06
-8.18517e-15
8.72664e-06
6.99937e-15
9.42478e-06
-2.4229e-14
1.01229e-05
-7.76762e-15
1.0821e-05
-2.27649e-14
1.15192e-05
8.35074e-15
1.22173e-05
-7.40297e-15
1.29154e-05
2.82654e-14
1.36136e-05
-4.57085e-14
1.43117e-05
-8.22094e-15
1.50098e-05
-2.82225e-14
1.5708e-05
-2.34068e-15
1.64061e-05
-6.9433e-15
1.71042e-05
2.2152e-14
1.78024e-05
-3.41072e-14
1.85005e-05
-3.73975e-15
1.91986e-05
-3.23429e-14
1.98967e-05
2.05949e-05
-8.92512e-15
4.53785e-06
-2.28876e-15
5.23599e-06
-2.22411e-15
5.93412e-06
6.6166e-15
6.63225e-06
-3.38806e-15
7.33038e-06
-3.90624e-15
8.02851e-06
-6.41817e-15
8.72664e-06
-7.15739e-15
9.42478e-06
6.81172e-15
1.01229e-05
6.98269e-15
1.0821e-05
-9.06464e-15
1.15192e-05
6.75998e-15
1.22173e-05
-2.88866e-14
1.29154e-05
-1.22324e-14
1.36136e-05
4.80439e-15
1.43117e-05
2.50298e-14
1.50098e-05
3.86468e-15
1.5708e-05
3.61245e-15
1.64061e-05
-2.04832e-14
1.71042e-05
-2.1758e-14
1.78024e-05
3.46585e-15
1.85005e-05
2.90416e-14
1.91986e-05
-1.66132e-15
1.98967e-05
2.05949e-05
6.21604e-15
4.53785e-06
-3.8791e-15
5.23599e-06
1.54221e-14
5.93412e-06
-7.0646e-15
6.63225e-06
-2.21099e-15
7.33038e-06
1.42983e-15
8.02851e-06
-5.4921e-15
8.72664e-06
1.32263e-14
9.42478e-06
6.04674e-15
1.01229e-05
-1.74506e-14
1.0821e-05
2.08875e-14
1.15192e-05
-2.14443e-14
1.22173e-05
1.9136e-14
1.29154e-05
-7.31479e-15
1.36136e-05
3.84865e-14
1.43117e-05
-1.29215e-14
1.50098e-05
-1.88133e-15
1.5708e-05
5.71931e-15
1.64061e-05
-7.58609e-15
1.71042e-05
2.76596e-14
1.78024e-05
1.41059e-14
1.85005e-05
-5.31393e-14
1.91986e-05
3.90869e-14
1.98967e-05
2.05949e-05
-1.4984e-15
4.53785e-06
1.08971e-14
5.23599e-06
-6.59907e-15
5.93412e-06
7.26527e-15
6.63225e-06
6.17454e-15
7.33038e-06
2.48902e-15
8.02851e-06
-9.63794e-16
8.72664e-06
-4.36401e-15
9.42478e-06
-8.9006e-15
1.01229e-05
1.38636e-14
1.0821e-05
1.06908e-14
1.15192e-05
6.25212e-15
1.22173e-05
-1.24257e-16
1.29154e-05
-3.43891e-15
1.36136e-05
-1.10434e-14
1.43117e-05
-1.77646e-14
1.50098e-05
1.76839e-14
1.5708e-05
9.95608e-15
1.64061e-05
3.32948e-15
1.71042e-05
-3.29657e-14
1.78024e-05
-1.04221e-14
1.85005e-05
3.00662e-14
1.91986e-05
-5.99953e-14
1.98967e-05
2.05949e-05
5.17041e-15
4.53785e-06
-7.45534e-15
5.23599e-06
-7.5637e-16
5.93412e-06
6.83958e-15
6.63225e-06
-9.97366e-15
7.33038e-06
-1.66364e-15
8.02851e-06
9.21961e-15
8.72664e-06
-1.34594e-14
9.42478e-06
2.32216e-14
1.01229e-05
1.0473e-14
1.0821e-05
-1.72728e-14
1.15192e-05
-3.02548e-15
1.22173e-05
1.13987e-14
1.29154e-05
-1.98175e-14
1.36136e-05
-4.68176e-15
1.43117e-05
5.03084e-14
1.50098e-05
-2.40432e-14
1.5708e-05
-6.65455e-15
1.64061e-05
1.42623e-14
1.71042e-05
1.6511e-15
1.78024e-05
-6.81027e-15
1.85005e-05
1.44466e-14
1.91986e-05
5.07593e-14
1.98967e-05
2.05949e-05
-6.19712e-15
4.53785e-06
2.86757e-17
5.23599e-06
1.15119e-14
5.93412e-06
-2.0626e-14
6.63225e-06
5.36773e-15
7.33038e-06
1.222e-15
8.02851e-06
-4.6187e-17
8.72664e-06
1.23943e-14
9.42478e-06
-1.32276e-14
1.01229e-05
-1.88935e-14
1.0821e-05
-4.96318e-15
1.15192e-05
-7.15255e-15
1.22173e-05
-1.48852e-14
1.29154e-05
3.53391e-14
1.36136e-05
-3.13762e-18
1.43117e-05
-4.31358e-14
1.50098e-05
1.35645e-14
1.5708e-05
-2.82539e-14
1.64061e-05
2.45585e-15
1.71042e-05
-1.02392e-14
1.78024e-05
2.38062e-14
1.85005e-05
1.388e-14
1.91986e-05
-4.55591e-14
1.98967e-05
2.05949e-05
-1.90637e-15
4.53785e-06
1.13069e-15
5.23599e-06
-2.16622e-14
5.93412e-06
9.62363e-15
6.63225e-06
1.51371e-14
7.33038e-06
-1.40655e-14
8.02851e-06
8.09366e-15
8.72664e-06
-2.69594e-14
9.42478e-06
-1.96628e-15
1.01229e-05
2.97171e-14
1.0821e-05
-1.17475e-14
1.15192e-05
1.98686e-14
1.22173e-05
-2.74445e-14
1.29154e-05
-2.06178e-14
1.36136e-05
1.60428e-14
1.43117e-05
-4.61188e-15
1.50098e-05
4.69331e-15
1.5708e-05
4.79673e-14
1.64061e-05
-1.37335e-14
1.71042e-05
3.23746e-14
1.78024e-05
-3.51825e-14
1.85005e-05
-2.49022e-14
1.91986e-05
7.19138e-14
1.98967e-05
2.05949e-05
1.90664e-15
4.53785e-06
-1.13043e-15
5.23599e-06
2.16622e-14
5.93412e-06
-9.62401e-15
6.63225e-06
-1.51371e-14
7.33038e-06
1.40658e-14
8.02851e-06
-8.09357e-15
8.72664e-06
2.69596e-14
9.42478e-06
1.96502e-15
1.01229e-05
-2.97168e-14
1.0821e-05
1.17461e-14
1.15192e-05
-1.98652e-14
1.22173e-05
2.74447e-14
1.29154e-05
2.06145e-14
1.36136e-05
-1.6037e-14
1.43117e-05
4.6138e-15
1.50098e-05
-4.69382e-15
1.5708e-05
-4.79646e-14
1.64061e-05
1.37435e-14
1.71042e-05
-3.23743e-14
1.78024e-05
3.51879e-14
1.85005e-05
2.4905e-14
1.91986e-05
-7.19143e-14
1.98967e-05
2.05949e-05
6.19737e-15
4.53785e-06
-2.86318e-17
5.23599e-06
-1.15112e-14
5.93412e-06
2.06258e-14
6.63225e-06
-5.36653e-15
7.33038e-06
-1.22108e-15
8.02851e-06
4.72475e-17
8.72664e-06
-1.23937e-14
9.42478e-06
1.32265e-14
1.01229e-05
1.88944e-14
1.0821e-05
4.9657e-15
1.15192e-05
7.1554e-15
1.22173e-05
1.48861e-14
1.29154e-05
-3.53392e-14
1.36136e-05
1.72015e-18
1.43117e-05
4.31385e-14
1.50098e-05
-1.35615e-14
1.5708e-05
2.8256e-14
1.64061e-05
-2.45204e-15
1.71042e-05
1.02403e-14
1.78024e-05
-2.38005e-14
1.85005e-05
-1.38712e-14
1.91986e-05
4.55606e-14
1.98967e-05
2.05949e-05
-5.17029e-15
4.53785e-06
7.45555e-15
5.23599e-06
7.56441e-16
5.93412e-06
-6.83931e-15
6.63225e-06
9.97468e-15
7.33038e-06
1.66454e-15
8.02851e-06
-9.21789e-15
8.72664e-06
1.34606e-14
9.42478e-06
-2.32213e-14
1.01229e-05
-1.0473e-14
1.0821e-05
1.72746e-14
1.15192e-05
3.02577e-15
1.22173e-05
-1.13987e-14
1.29154e-05
1.98195e-14
1.36136e-05
4.68145e-15
1.43117e-05
-5.03068e-14
1.50098e-05
2.40495e-14
1.5708e-05
6.65815e-15
1.64061e-05
-1.42586e-14
1.71042e-05
-1.64785e-15
1.78024e-05
6.81205e-15
1.85005e-05
-1.44417e-14
1.91986e-05
-5.07569e-14
1.98967e-05
2.05949e-05
1.49888e-15
4.53785e-06
-1.08966e-14
5.23599e-06
6.59922e-15
5.93412e-06
-7.2652e-15
6.63225e-06
-6.17472e-15
7.33038e-06
-2.48844e-15
8.02851e-06
9.65027e-16
8.72664e-06
4.36624e-15
9.42478e-06
8.89983e-15
1.01229e-05
-1.38631e-14
1.0821e-05
-1.06904e-14
1.15192e-05
-6.25143e-15
1.22173e-05
1.29356e-16
1.29154e-05
3.44022e-15
1.36136e-05
1.10435e-14
1.43117e-05
1.77638e-14
1.50098e-05
-1.76785e-14
1.5708e-05
-9.95376e-15
1.64061e-05
-3.32646e-15
1.71042e-05
3.29693e-14
1.78024e-05
1.04223e-14
1.85005e-05
-3.00705e-14
1.91986e-05
5.99965e-14
1.98967e-05
2.05949e-05
-6.21544e-15
4.53785e-06
3.87945e-15
5.23599e-06
-1.54221e-14
5.93412e-06
7.0652e-15
6.63225e-06
2.21108e-15
7.33038e-06
-1.42907e-15
8.02851e-06
5.49295e-15
8.72664e-06
-1.32254e-14
9.42478e-06
-6.04741e-15
1.01229e-05
1.74512e-14
1.0821e-05
-2.0887e-14
1.15192e-05
2.14452e-14
1.22173e-05
-1.91341e-14
1.29154e-05
7.31545e-15
1.36136e-05
-3.84848e-14
1.43117e-05
1.29228e-14
1.50098e-05
1.88343e-15
1.5708e-05
-5.7163e-15
1.64061e-05
7.58813e-15
1.71042e-05
-2.76583e-14
1.78024e-05
-1.40962e-14
1.85005e-05
5.31402e-14
1.91986e-05
-3.90873e-14
1.98967e-05
2.05949e-05
8.92499e-15
4.53785e-06
2.2891e-15
5.23599e-06
2.22408e-15
5.93412e-06
-6.61635e-15
6.63225e-06
3.38896e-15
7.33038e-06
3.90857e-15
8.02851e-06
6.41913e-15
8.72664e-06
7.15878e-15
9.42478e-06
-6.80935e-15
1.01229e-05
-6.98271e-15
1.0821e-05
9.06476e-15
1.15192e-05
-6.75981e-15
1.22173e-05
2.88877e-14
1.29154e-05
1.22353e-14
1.36136e-05
-4.80386e-15
1.43117e-05
-2.50263e-14
1.50098e-05
-3.86196e-15
1.5708e-05
-3.60423e-15
1.64061e-05
2.04871e-14
1.71042e-05
2.176e-14
1.78024e-05
-3.46406e-15
1.85005e-05
-2.90388e-14
1.91986e-05
1.65832e-15
1.98967e-05
2.05949e-05
4.63055e-15
4.53785e-06
-5.79735e-15
5.23599e-06
1.61505e-14
5.93412e-06
5.97436e-15
6.63225e-06
8.55525e-15
7.33038e-06
-4.22304e-15
8.02851e-06
8.18774e-15
8.72664e-06
-6.99923e-15
9.42478e-06
2.42309e-14
1.01229e-05
7.77031e-15
1.0821e-05
2.2765e-14
1.15192e-05
-8.35054e-15
1.22173e-05
7.40382e-15
1.29154e-05
-2.82647e-14
1.36136e-05
4.57093e-14
1.43117e-05
8.22302e-15
1.50098e-05
2.82267e-14
1.5708e-05
2.33996e-15
1.64061e-05
6.9443e-15
1.71042e-05
-2.21486e-14
1.78024e-05
3.411e-14
1.85005e-05
3.74127e-15
1.91986e-05
3.23481e-14
1.98967e-05
2.05949e-05
-6.7151e-15
4.53785e-06
7.30676e-15
5.23599e-06
-1.11009e-14
5.93412e-06
4.24121e-15
6.63225e-06
-1.51022e-14
7.33038e-06
5.20935e-15
8.02851e-06
-1.70131e-14
8.72664e-06
3.94155e-15
9.42478e-06
2.94842e-16
1.01229e-05
-6.61047e-15
1.0821e-05
-1.37057e-14
1.15192e-05
-1.0185e-14
1.22173e-05
-1.82164e-14
1.29154e-05
-1.43692e-14
1.36136e-05
-2.3339e-14
1.43117e-05
2.53465e-14
1.50098e-05
-2.90718e-14
1.5708e-05
7.82831e-15
1.64061e-05
-3.54172e-14
1.71042e-05
4.51185e-15
1.78024e-05
-4.2372e-14
1.85005e-05
5.88449e-16
1.91986e-05
8.73717e-15
1.98967e-05
2.05949e-05
-5.98587e-15
4.53785e-06
-2.18717e-16
5.23599e-06
6.43555e-15
5.93412e-06
-6.06378e-15
6.63225e-06
2.09242e-15
7.33038e-06
-1.61767e-14
8.02851e-06
1.88316e-14
8.72664e-06
2.35163e-15
9.42478e-06
-9.17258e-15
1.01229e-05
4.71184e-15
1.0821e-05
-2.16265e-14
1.15192e-05
2.96461e-14
1.22173e-05
9.29051e-15
1.29154e-05
1.89076e-14
1.36136e-05
-4.46795e-15
1.43117e-05
-3.01542e-14
1.50098e-05
2.62181e-14
1.5708e-05
-4.33843e-16
1.64061e-05
2.11734e-14
1.71042e-05
-1.87117e-14
1.78024e-05
3.92244e-15
1.85005e-05
2.91588e-14
1.91986e-05
-1.52298e-14
1.98967e-05
2.05949e-05
8.67596e-15
4.53785e-06
-1.22922e-14
5.23599e-06
-1.88323e-15
5.93412e-06
-8.90192e-15
6.63225e-06
5.10877e-15
7.33038e-06
2.19916e-14
8.02851e-06
-1.22635e-14
8.72664e-06
5.37484e-15
9.42478e-06
-4.45669e-15
1.01229e-05
1.43059e-14
1.0821e-05
7.3255e-15
1.15192e-05
-7.04021e-15
1.22173e-05
-2.3994e-14
1.29154e-05
7.55665e-15
1.36136e-05
-9.80045e-15
1.43117e-05
1.62382e-14
1.50098e-05
-4.02934e-14
1.5708e-05
-1.44436e-14
1.64061e-05
1.3705e-14
1.71042e-05
7.89778e-15
1.78024e-05
3.92547e-14
1.85005e-05
-4.27482e-14
1.91986e-05
8.85224e-15
1.98967e-05
2.05949e-05
-9.39887e-15
4.53785e-06
-5.20309e-16
5.23599e-06
-7.52858e-15
5.93412e-06
4.41204e-15
6.63225e-06
-3.78312e-15
7.33038e-06
-1.33845e-14
8.02851e-06
2.10984e-15
8.72664e-06
-8.52861e-15
9.42478e-06
1.00273e-14
1.01229e-05
-1.86556e-15
1.0821e-05
2.02041e-14
1.15192e-05
7.01328e-15
1.22173e-05
-7.51078e-15
1.29154e-05
-2.36068e-14
1.36136e-05
2.04336e-15
1.43117e-05
-1.48298e-14
1.50098e-05
1.388e-14
1.5708e-05
-2.39091e-15
1.64061e-05
-2.04092e-14
1.71042e-05
7.01953e-15
1.78024e-05
-1.20655e-14
1.85005e-05
2.59435e-14
1.91986e-05
-1.84495e-15
1.98967e-05
2.05949e-05
1.1336e-14
4.53785e-06
4.81009e-16
5.23599e-06
5.35733e-15
5.93412e-06
1.13035e-14
6.63225e-06
-4.86859e-15
7.33038e-06
1.10994e-15
8.02851e-06
8.15908e-15
8.72664e-06
-1.30437e-14
9.42478e-06
-5.94883e-15
1.01229e-05
1.99712e-15
1.0821e-05
-2.43858e-14
1.15192e-05
-1.61893e-14
1.22173e-05
3.27862e-14
1.29154e-05
3.05305e-15
1.36136e-05
1.44427e-14
1.43117e-05
2.69013e-14
1.50098e-05
-7.74065e-15
1.5708e-05
4.43977e-15
1.64061e-05
1.80008e-14
1.71042e-05
-2.18208e-14
1.78024e-05
-8.21384e-15
1.85005e-05
6.08161e-15
1.91986e-05
-3.89214e-14
1.98967e-05
2.05949e-05
1.36961e-16
9.81747e-07
2.42108e-16
1.37445e-06
3.77016e-16
1.76715e-06
-1.33928e-15
2.15984e-06
-3.6815e-15
2.55254e-06
2.94524e-06
5.95119e-15
1.83582e-18
9.81747e-07
-3.88719e-16
1.37445e-06
-2.60418e-15
1.76715e-06
1.94361e-15
2.15984e-06
8.06619e-15
2.55254e-06
2.94524e-06
-9.02978e-15
-1.16468e-16
9.81747e-07
1.86406e-16
1.37445e-06
-1.56234e-15
1.76715e-06
-4.21242e-15
2.15984e-06
-7.4983e-15
2.55254e-06
2.94524e-06
7.72426e-16
8.69703e-17
9.81747e-07
-1.01914e-16
1.37445e-06
2.69315e-15
1.76715e-06
7.44274e-15
2.15984e-06
3.25987e-15
2.55254e-06
2.94524e-06
-2.798e-15
-4.83548e-17
9.81747e-07
3.95592e-17
1.37445e-06
1.94406e-16
1.76715e-06
-1.80611e-15
2.15984e-06
-4.20859e-15
2.55254e-06
2.94524e-06
5.01323e-15
-1.8008e-16
9.81747e-07
4.33354e-18
1.37445e-06
-1.8477e-15
1.76715e-06
-3.8861e-15
2.15984e-06
3.15704e-15
2.55254e-06
2.94524e-06
4.98112e-16
2.5398e-16
9.81747e-07
2.55482e-16
1.37445e-06
2.06602e-15
1.76715e-06
4.50422e-15
2.15984e-06
-2.30985e-15
2.55254e-06
2.94524e-06
5.40841e-16
2.16646e-17
9.81747e-07
-3.21673e-16
1.37445e-06
-1.14886e-15
1.76715e-06
-5.28561e-15
2.15984e-06
-3.76739e-16
2.55254e-06
2.94524e-06
-5.63986e-15
-1.43381e-16
9.81747e-07
1.66386e-16
1.37445e-06
4.19112e-15
1.76715e-06
6.34946e-15
2.15984e-06
-8.05723e-16
2.55254e-06
2.94524e-06
8.39298e-16
-6.88225e-17
9.81747e-07
-9.20924e-17
1.37445e-06
-2.76941e-15
1.76715e-06
-3.68735e-16
2.15984e-06
-1.4506e-15
2.55254e-06
2.94524e-06
-1.76416e-16
1.66345e-16
9.81747e-07
-8.86693e-17
1.37445e-06
5.69576e-16
1.76715e-06
-2.1034e-15
2.15984e-06
9.65982e-15
2.55254e-06
2.94524e-06
5.29035e-15
-1.7776e-16
9.81747e-07
-2.04635e-17
1.37445e-06
-3.45487e-16
1.76715e-06
-4.17266e-15
2.15984e-06
-2.62232e-15
2.55254e-06
2.94524e-06
5.36958e-15
1.77816e-16
9.81747e-07
2.05832e-17
1.37445e-06
3.45432e-16
1.76715e-06
4.17264e-15
2.15984e-06
2.62244e-15
2.55254e-06
2.94524e-06
-5.36921e-15
-1.66309e-16
9.81747e-07
8.87653e-17
1.37445e-06
-5.69638e-16
1.76715e-06
2.10356e-15
2.15984e-06
-9.65978e-15
2.55254e-06
2.94524e-06
-5.29003e-15
6.88414e-17
9.81747e-07
9.21162e-17
1.37445e-06
2.76933e-15
1.76715e-06
3.68649e-16
2.15984e-06
1.45078e-15
2.55254e-06
2.94524e-06
1.76614e-16
1.43426e-16
9.81747e-07
-1.66393e-16
1.37445e-06
-4.19115e-15
1.76715e-06
-6.34941e-15
2.15984e-06
8.05638e-16
2.55254e-06
2.94524e-06
-8.39461e-16
-2.16491e-17
9.81747e-07
3.21707e-16
1.37445e-06
1.14893e-15
1.76715e-06
5.28561e-15
2.15984e-06
3.76818e-16
2.55254e-06
2.94524e-06
5.63984e-15
-2.53957e-16
9.81747e-07
-2.5541e-16
1.37445e-06
-2.06594e-15
1.76715e-06
-4.50412e-15
2.15984e-06
2.31009e-15
2.55254e-06
2.94524e-06
-5.40721e-16
1.80126e-16
9.81747e-07
-4.29071e-18
1.37445e-06
1.8478e-15
1.76715e-06
3.88621e-15
2.15984e-06
-3.15709e-15
2.55254e-06
2.94524e-06
-4.98088e-16
4.83696e-17
9.81747e-07
-3.94959e-17
1.37445e-06
-1.94298e-16
1.76715e-06
1.80615e-15
2.15984e-06
4.20855e-15
2.55254e-06
2.94524e-06
-5.01335e-15
-8.69228e-17
9.81747e-07
1.01948e-16
1.37445e-06
-2.69315e-15
1.76715e-06
-7.44262e-15
2.15984e-06
-3.25972e-15
2.55254e-06
2.94524e-06
2.79808e-15
1.16487e-16
9.81747e-07
-1.86338e-16
1.37445e-06
1.56239e-15
1.76715e-06
4.21261e-15
2.15984e-06
7.49853e-15
2.55254e-06
2.94524e-06
-7.72227e-16
-1.79935e-18
9.81747e-07
3.88811e-16
1.37445e-06
2.60422e-15
1.76715e-06
-1.94358e-15
2.15984e-06
-8.06618e-15
2.55254e-06
2.94524e-06
9.03004e-15
-1.36918e-16
-2.42075e-16
-3.77006e-16
1.33933e-15
3.68156e-15
-5.95129e-15
-1.1336e-14
4.53785e-06
-4.80764e-16
5.23599e-06
-5.35712e-15
5.93412e-06
-1.13031e-14
6.63225e-06
4.86988e-15
7.33038e-06
-1.10934e-15
8.02851e-06
-8.15822e-15
8.72664e-06
1.30451e-14
9.42478e-06
5.94961e-15
1.01229e-05
-1.99509e-15
1.0821e-05
2.43886e-14
1.15192e-05
1.6191e-14
1.22173e-05
-3.27859e-14
1.29154e-05
-3.05137e-15
1.36136e-05
-1.44418e-14
1.43117e-05
-2.69e-14
1.50098e-05
7.73801e-15
1.5708e-05
-4.43734e-15
1.64061e-05
-1.79996e-14
1.71042e-05
2.18204e-14
1.78024e-05
8.21589e-15
1.85005e-05
-6.08065e-15
1.91986e-05
3.89197e-14
1.98967e-05
2.05949e-05
9.39895e-15
4.53785e-06
5.20607e-16
5.23599e-06
7.52852e-15
5.93412e-06
-4.41153e-15
6.63225e-06
3.78376e-15
7.33038e-06
1.33849e-14
8.02851e-06
-2.11038e-15
8.72664e-06
8.52924e-15
9.42478e-06
-1.00266e-14
1.01229e-05
1.86787e-15
1.0821e-05
-2.02025e-14
1.15192e-05
-7.01255e-15
1.22173e-05
7.50961e-15
1.29154e-05
2.36089e-14
1.36136e-05
-2.04225e-15
1.43117e-05
1.4834e-14
1.50098e-05
-1.38788e-14
1.5708e-05
2.3914e-15
1.64061e-05
2.0413e-14
1.71042e-05
-7.01599e-15
1.78024e-05
1.2072e-14
1.85005e-05
-2.59379e-14
1.91986e-05
1.84843e-15
1.98967e-05
2.05949e-05
-8.67588e-15
4.53785e-06
1.22924e-14
5.23599e-06
1.88349e-15
5.93412e-06
8.90274e-15
6.63225e-06
-5.10818e-15
7.33038e-06
-2.19911e-14
8.02851e-06
1.22653e-14
8.72664e-06
-5.37377e-15
9.42478e-06
4.45698e-15
1.01229e-05
-1.43047e-14
1.0821e-05
-7.32604e-15
1.15192e-05
7.04277e-15
1.22173e-05
2.3996e-14
1.29154e-05
-7.55445e-15
1.36136e-05
9.80008e-15
1.43117e-05
-1.62349e-14
1.50098e-05
4.02963e-14
1.5708e-05
1.44479e-14
1.64061e-05
-1.37018e-14
1.71042e-05
-7.89352e-15
1.78024e-05
-3.92449e-14
1.85005e-05
4.27544e-14
1.91986e-05
-8.84625e-15
1.98967e-05
2.05949e-05
5.986e-15
4.53785e-06
2.19106e-16
5.23599e-06
-6.43515e-15
5.93412e-06
6.06403e-15
6.63225e-06
-2.09265e-15
7.33038e-06
1.61758e-14
8.02851e-06
-1.88301e-14
8.72664e-06
-2.35095e-15
9.42478e-06
9.17225e-15
1.01229e-05
-4.7094e-15
1.0821e-05
2.16285e-14
1.15192e-05
-2.9645e-14
1.22173e-05
-9.28987e-15
1.29154e-05
-1.89084e-14
1.36136e-05
4.4664e-15
1.43117e-05
3.01576e-14
1.50098e-05
-2.62161e-14
1.5708e-05
4.36152e-16
1.64061e-05
-2.11689e-14
1.71042e-05
1.8715e-14
1.78024e-05
-3.91846e-15
1.85005e-05
-2.91511e-14
1.91986e-05
1.52327e-14
1.98967e-05
2.05949e-05
6.71545e-15
4.53785e-06
-7.3065e-15
5.23599e-06
1.11011e-14
5.93412e-06
-4.24136e-15
6.63225e-06
1.51029e-14
7.33038e-06
-5.21008e-15
8.02851e-06
1.70141e-14
8.72664e-06
-3.94071e-15
9.42478e-06
-2.95364e-16
1.01229e-05
6.61193e-15
1.0821e-05
1.37063e-14
1.15192e-05
1.01851e-14
1.22173e-05
1.82177e-14
1.29154e-05
1.43684e-14
1.36136e-05
2.33399e-14
1.43117e-05
-2.53421e-14
1.50098e-05
2.90783e-14
1.5708e-05
-7.83408e-15
1.64061e-05
3.54167e-14
1.71042e-05
-4.50906e-15
1.78024e-05
4.23743e-14
1.85005e-05
-5.81498e-16
1.91986e-05
-8.7297e-15
1.98967e-05
2.05949e-05
-4.63043e-15
4.53785e-06
5.79797e-15
5.23599e-06
-1.61501e-14
5.93412e-06
-5.97457e-15
6.63225e-06
-8.55458e-15
7.33038e-06
4.22427e-15
8.02851e-06
-8.18517e-15
8.72664e-06
6.99937e-15
9.42478e-06
-2.4229e-14
1.01229e-05
-7.76762e-15
1.0821e-05
-2.27649e-14
1.15192e-05
8.35074e-15
1.22173e-05
-7.40297e-15
1.29154e-05
2.82654e-14
1.36136e-05
-4.57085e-14
1.43117e-05
-8.22094e-15
1.50098e-05
-2.82225e-14
1.5708e-05
-2.34068e-15
1.64061e-05
-6.9433e-15
1.71042e-05
2.2152e-14
1.78024e-05
-3.41072e-14
1.85005e-05
-3.73975e-15
1.91986e-05
-3.23429e-14
1.98967e-05
2.05949e-05
-8.92512e-15
4.53785e-06
-2.28876e-15
5.23599e-06
-2.22411e-15
5.93412e-06
6.6166e-15
6.63225e-06
-3.38806e-15
7.33038e-06
-3.90624e-15
8.02851e-06
-6.41817e-15
8.72664e-06
-7.15739e-15
9.42478e-06
6.81172e-15
1.01229e-05
6.98269e-15
1.0821e-05
-9.06464e-15
1.15192e-05
6.75998e-15
1.22173e-05
-2.88866e-14
1.29154e-05
-1.22324e-14
1.36136e-05
4.80439e-15
1.43117e-05
2.50298e-14
1.50098e-05
3.86468e-15
1.5708e-05
3.61245e-15
1.64061e-05
-2.04832e-14
1.71042e-05
-2.1758e-14
1.78024e-05
3.46585e-15
1.85005e-05
2.90416e-14
1.91986e-05
-1.66132e-15
1.98967e-05
2.05949e-05
6.21604e-15
4.53785e-06
-3.8791e-15
5.23599e-06
1.54221e-14
5.93412e-06
-7.0646e-15
6.63225e-06
-2.21099e-15
7.33038e-06
1.42983e-15
8.02851e-06
-5.4921e-15
8.72664e-06
1.32263e-14
9.42478e-06
6.04674e-15
1.01229e-05
-1.74506e-14
1.0821e-05
2.08875e-14
1.15192e-05
-2.14443e-14
1.22173e-05
1.9136e-14
1.29154e-05
-7.31479e-15
1.36136e-05
3.84865e-14
1.43117e-05
-1.29215e-14
1.50098e-05
-1.88133e-15
1.5708e-05
5.71931e-15
1.64061e-05
-7.58609e-15
1.71042e-05
2.76596e-14
1.78024e-05
1.41059e-14
1.85005e-05
-5.31393e-14
1.91986e-05
3.90869e-14
1.98967e-05
2.05949e-05
-1.4984e-15
4.53785e-06
1.08971e-14
5.23599e-06
-6.59907e-15
5.93412e-06
7.26527e-15
6.63225e-06
6.17454e-15
7.33038e-06
2.48902e-15
8.02851e-06
-9.63794e-16
8.72664e-06
-4.36401e-15
9.42478e-06
-8.9006e-15
1.01229e-05
1.38636e-14
1.0821e-05
1.06908e-14
1.15192e-05
6.25212e-15
1.22173e-05
-1.24257e-16
1.29154e-05
-3.43891e-15
1.36136e-05
-1.10434e-14
1.43117e-05
-1.77646e-14
1.50098e-05
1.76839e-14
1.5708e-05
9.95608e-15
1.64061e-05
3.32948e-15
1.71042e-05
-3.29657e-14
1.78024e-05
-1.04221e-14
1.85005e-05
3.00662e-14
1.91986e-05
-5.99953e-14
1.98967e-05
2.05949e-05
5.17041e-15
4.53785e-06
-7.45534e-15
5.23599e-06
-7.5637e-16
5.93412e-06
6.83958e-15
6.63225e-06
-9.97366e-15
7.33038e-06
-1.66364e-15
8.02851e-06
9.21961e-15
8.72664e-06
-1.34594e-14
9.42478e-06
2.32216e-14
1.01229e-05
1.0473e-14
1.0821e-05
-1.72728e-14
1.15192e-05
-3.02548e-15
1.22173e-05
1.13987e-14
1.29154e-05
-1.98175e-14
1.36136e-05
-4.68176e-15
1.43117e-05
5.03084e-14
1.50098e-05
-2.40432e-14
1.5708e-05
-6.65455e-15
1.64061e-05
1.42623e-14
1.71042e-05
1.6511e-15
1.78024e-05
-6.81027e-15
1.85005e-05
1.44466e-14
1.91986e-05
5.07593e-14
1.98967e-05
2.05949e-05
-6.19712e-15
4.53785e-06
2.86757e-17
5.23599e-06
1.15119e-14
5.93412e-06
-2.0626e-14
6.63225e-06
5.36773e-15
7.33038e-06
1.222e-15
8.02851e-06
-4.6187e-17
8.72664e-06
1.23943e-14
9.42478e-06
-1.32276e-14
1.01229e-05
-1.88935e-14
1.0821e-05
-4.96318e-15
1.15192e-05
-7.15255e-15
1.22173e-05
-1.48852e-14
1.29154e-05
3.53391e-14
1.36136e-05
-3.13762e-18
1.43117e-05
-4.31358e-14
1.50098e-05
1.35645e-14
1.5708e-05
-2.82539e-14
1.64061e-05
2.45585e-15
1.71042e-05
-1.02392e-14
1.78024e-05
2.38062e-14
1.85005e-05
1.388e-14
1.91986e-05
-4.55591e-14
1.98967e-05
2.05949e-05
-1.90637e-15
4.53785e-06
1.13069e-15
5.23599e-06
-2.16622e-14
5.93412e-06
9.62363e-15
6.63225e-06
1.51371e-14
7.33038e-06
-1.40655e-14
8.02851e-06
8.09366e-15
8.72664e-06
-2.69594e-14
9.42478e-06
-1.96628e-15
1.01229e-05
2.97171e-14
1.0821e-05
-1.17475e-14
1.15192e-05
1.98686e-14
1.22173e-05
-2.74445e-14
1.29154e-05
-2.06178e-14
1.36136e-05
1.60428e-14
1.43117e-05
-4.61188e-15
1.50098e-05
4.69331e-15
1.5708e-05
4.79673e-14
1.64061e-05
-1.37335e-14
1.71042e-05
3.23746e-14
1.78024e-05
-3.51825e-14
1.85005e-05
-2.49022e-14
1.91986e-05
7.19138e-14
1.98967e-05
2.05949e-05
1.90664e-15
4.53785e-06
-1.13043e-15
5.23599e-06
2.16622e-14
5.93412e-06
-9.62401e-15
6.63225e-06
-1.51371e-14
7.33038e-06
1.40658e-14
8.02851e-06
-8.09357e-15
8.72664e-06
2.69596e-14
9.42478e-06
1.96502e-15
1.01229e-05
-2.97168e-14
1.0821e-05
1.17461e-14
1.15192e-05
-1.98652e-14
1.22173e-05
2.74447e-14
1.29154e-05
2.06145e-14
1.36136e-05
-1.6037e-14
1.43117e-05
4.6138e-15
1.50098e-05
-4.69382e-15
1.5708e-05
-4.79646e-14
1.64061e-05
1.37435e-14
1.71042e-05
-3.23743e-14
1.78024e-05
3.51879e-14
1.85005e-05
2.4905e-14
1.91986e-05
-7.19143e-14
1.98967e-05
2.05949e-05
6.19737e-15
4.53785e-06
-2.86318e-17
5.23599e-06
-1.15112e-14
5.93412e-06
2.06258e-14
6.63225e-06
-5.36653e-15
7.33038e-06
-1.22108e-15
8.02851e-06
4.72475e-17
8.72664e-06
-1.23937e-14
9.42478e-06
1.32265e-14
1.01229e-05
1.88944e-14
1.0821e-05
4.9657e-15
1.15192e-05
7.1554e-15
1.22173e-05
1.48861e-14
1.29154e-05
-3.53392e-14
1.36136e-05
1.72015e-18
1.43117e-05
4.31385e-14
1.50098e-05
-1.35615e-14
1.5708e-05
2.8256e-14
1.64061e-05
-2.45204e-15
1.71042e-05
1.02403e-14
1.78024e-05
-2.38005e-14
1.85005e-05
-1.38712e-14
1.91986e-05
4.55606e-14
1.98967e-05
2.05949e-05
-5.17029e-15
4.53785e-06
7.45555e-15
5.23599e-06
7.56441e-16
5.93412e-06
-6.83931e-15
6.63225e-06
9.97468e-15
7.33038e-06
1.66454e-15
8.02851e-06
-9.21789e-15
8.72664e-06
1.34606e-14
9.42478e-06
-2.32213e-14
1.01229e-05
-1.0473e-14
1.0821e-05
1.72746e-14
1.15192e-05
3.02577e-15
1.22173e-05
-1.13987e-14
1.29154e-05
1.98195e-14
1.36136e-05
4.68145e-15
1.43117e-05
-5.03068e-14
1.50098e-05
2.40495e-14
1.5708e-05
6.65815e-15
1.64061e-05