/*--------------------------------*- C++ -*----------------------------------*\
  =========                 |
  \\      /  F ield         | OpenFOAM: The Open Source CFD Toolbox
   \\    /   O peration     | Website:  https://openfoam.org
    \\  /    A nd           | Version:  11
     \\/     M anipulation  |
\*---------------------------------------------------------------------------*/
FoamFile
{
    format      ascii;
    class       volScalarField;
    location    "0.66";
    object      nut;
}
// * * * * * * * * * * * * * * * * * * * * * * * * * * * * * * * * * * * * * //

dimensions      [0 2 -1 0 0 0 0];

internalField   nonuniform List<scalar> 
2880
(
9.87483e-07
6.87923e-06
3.38522e-05
8.95309e-05
0.000159002
4.7039e-05
3.12783e-05
4.9302e-05
0.000131996
0.000254054
0.0003847
0.000378592
0.000180578
0.000115412
0.00024431
0.000406074
0.000560786
0.00064508
4.71995e-05
0.000180161
0.000339623
0.000519202
0.000673677
0.000773408
5.02948e-05
0.000237025
0.00041489
0.000596455
0.000736483
0.000821564
5.26431e-05
0.000283258
0.000471291
0.000644961
0.00076619
0.000830938
5.44991e-05
0.000318221
0.000511168
0.000672264
0.000775198
0.000823249
5.58352e-05
0.000342615
0.000537108
0.000684303
0.000770016
0.000806044
5.67335e-05
0.000357746
0.000551538
0.000685136
0.000756964
0.000786066
5.72421e-05
0.000364814
0.000556598
0.000678228
0.000739722
0.000765652
5.73833e-05
0.000364763
0.000554036
0.000665535
0.000720198
0.000745378
5.72179e-05
0.000358124
0.000545262
0.000648723
0.000699286
0.000725549
5.67817e-05
0.000344833
0.000531383
0.000628642
0.000677549
0.000705763
5.61348e-05
0.000325466
0.000512985
0.000605671
0.000653927
0.000685484
5.52518e-05
0.000301448
0.000490184
0.000579926
0.000628298
0.000663713
5.4109e-05
0.000274083
0.000463037
0.000551168
0.000599717
0.000639629
5.26695e-05
0.000244743
0.000431564
0.000518848
0.000567082
0.00061211
5.08184e-05
0.00021531
0.000395827
0.000482056
0.000529028
0.00057968
4.80706e-05
0.000189464
0.000355836
0.000439507
0.000483866
0.000540661
0.000193373
0.000177733
0.000310221
0.000388872
0.000429324
0.000492327
0.000181129
0.000156034
0.000257321
0.000327824
0.000364461
0.000425146
0.000165292
0.000116294
0.000188145
0.000251132
0.000288216
0.00032605
2.92425e-05
5.35763e-05
9.3019e-05
0.00014417
0.000186685
0.000178855
9.05379e-07
2.84837e-06
7.59923e-06
1.89605e-05
5.16963e-05
4.68251e-05
0.000457454
0.00079189
0.000910953
0.000965421
0.000976075
0.000983313
0.000995446
0.00101618
0.00104673
0.00108785
0.00114162
0.00121264
0.0013071
0.00143097
0.00158963
0.00178839
0.00203358
0.00233337
0.00269365
0.00307957
0.00346841
0.00383839
0.00416501
0.00437326
0.000693583
0.000856106
0.000923384
0.000945064
0.000958393
0.00097567
0.0010013
0.00103643
0.00108218
0.00114133
0.00121851
0.00131885
0.00144665
0.0016056
0.00179949
0.00203366
0.00231568
0.00265205
0.00304065
0.00343193
0.00381648
0.00416049
0.00446455
0.00463228
0.000806303
0.000889301
0.000918264
0.000934209
0.000954815
0.000984547
0.00102374
0.00107304
0.00113518
0.00121472
0.00131666
0.00144554
0.0016053
0.00179911
0.00202998
0.00230116
0.0026154
0.00297215
0.00336279
0.00373898
0.00409519
0.00441345
0.0046753
0.00480934
0.00085028
0.000897449
0.000910189
0.000931277
0.000963904
0.0010067
0.00105879
0.00112229
0.00120194
0.00130351
0.00143257
0.0015934
0.00178827
0.00201749
0.00228017
0.0025752
0.00290135
0.00325516
0.00362651
0.00397736
0.00429447
0.00457525
0.00479519
0.00490944
0.00086102
0.000887129
0.000904123
0.000937609
0.000983756
0.00103873
0.00110303
0.00118142
0.00128076
0.00140782
0.00156745
0.00176157
0.00198914
0.00224687
0.00253048
0.00283577
0.00315868
0.00349376
0.00383107
0.00414771
0.00441729
0.00465124
0.00483364
0.00493014
0.000852076
0.000873923
0.000904986
0.000953493
0.00101216
0.00107797
0.00115462
0.0012499
0.00137216
0.00152763
0.00171889
0.00194472
0.00220067
0.00248018
0.0027757
0.0030799
0.00338631
0.00368878
0.00397964
0.00424763
0.00446988
0.00464529
0.00479078
0.00487059
0.000835548
0.000865251
0.000913615
0.000976812
0.00104638
0.00112245
0.00121276
0.0013276
0.0014756
0.0016611
0.00188358
0.00213829
0.00241743
0.00271134
0.00300971
0.00330277
0.00358238
0.00384228
0.0040774
0.00428241
0.00445087
0.00457173
0.00466249
0.00472896
0.000817705
0.000863411
0.000929387
0.00100555
0.00108457
0.00117121
0.00127712
0.00141424
0.0015901
0.00180603
0.00205779
0.00233718
0.00263356
0.00293499
0.00322913
0.00350444
0.00375129
0.00396304
0.00413631
0.00427081
0.00436852
0.00443254
0.00446457
0.00449215
0.000802147
0.000867791
0.000950656
0.00103801
0.00112571
0.00122383
0.00134752
0.00150917
0.00171395
0.00195929
0.00223715
0.00253646
0.00284458
0.00314808
0.00343342
0.00368788
0.00390071
0.00406424
0.00417502
0.0042349
0.00425186
0.0042368
0.00419119
0.00409119
0.000790348
0.000876622
0.00097586
0.00107306
0.00116921
0.00128003
0.00142345
0.00161117
0.00184482
0.00211747
0.00241764
0.00273215
0.00304722
0.0033488
0.00362295
0.00385664
0.00403859
0.00416019
0.00421631
0.0042062
0.00413376
0.00399646
0.00371952
0.00313513
0.000782327
0.000888319
0.00100394
0.00110992
0.00121458
0.00133927
0.00150391
0.00171842
0.00198
0.00227715
0.00259556
0.00292083
0.00323887
0.00353574
0.00379786
0.00401269
0.00416948
0.00425986
0.00427787
0.00421977
0.00408407
0.00387306
0.00359151
0.00324471
0.000776058
0.000904513
0.00103455
0.00114813
0.00126133
0.00140076
0.00158745
0.0018288
0.00211676
0.00243523
0.00276783
0.00309982
0.00341749
0.00370754
0.0039572
0.00415499
0.00429154
0.00436015
0.00435681
0.00427991
0.00412999
0.00391106
0.00363515
0.00334796
0.000771048
0.000923806
0.00106698
0.00118718
0.00130884
0.00146334
0.00167219
0.00193999
0.00225258
0.00258909
0.00293198
0.00326703
0.00358141
0.00386275
0.00409924
0.00428061
0.00439901
0.00444965
0.00443079
0.00434335
0.00419051
0.0039784
0.00371852
0.0034384
0.000766396
0.000944937
0.00110061
0.00122659
0.00135623
0.00152539
0.00175619
0.00204982
0.00238545
0.00273674
0.00308626
0.00342104
0.00372952
0.00400029
0.00422252
0.00438699
0.00448726
0.0045203
0.00448641
0.00438867
0.00423213
0.00402405
0.00377501
0.00350007
0.000762655
0.000968623
0.00113464
0.0012658
0.00140194
0.00158586
0.00183891
0.00215711
0.00251404
0.00287683
0.00322953
0.00356107
0.00386127
0.00411971
0.0043263
0.00447273
0.00455376
0.00456789
0.0045173
0.00440697
0.00424369
0.00403581
0.00379386
0.00352758
0.000759087
0.000993455
0.00116699
0.00130353
0.00144565
0.00164475
0.00192009
0.00226154
0.00263753
0.00300851
0.00336124
0.0036869
0.00397673
0.00422113
0.0044106
0.00453755
0.00459783
0.00459156
0.00452286
0.00439883
0.00422808
0.00402017
0.00378587
0.00353331
0.000755181
0.00102042
0.00120076
0.0013404
0.00148763
0.00170228
0.00199967
0.00236272
0.00275529
0.00313136
0.00348132
0.0037988
0.00407641
0.00430517
0.00447597
0.00458179
0.0046196
0.00459127
0.00450319
0.00436485
0.00418695
0.00398043
0.00375679
0.00352447
0.000749992
0.00104549
0.00123411
0.00137662
0.00152834
0.00175893
0.00207784
0.00246059
0.00286711
0.00324537
0.00359009
0.00389742
0.0041612
0.00437284
0.00452342
0.00460641
0.00462003
0.00456822
0.00446011
0.00430799
0.00412482
0.0039229
0.00371424
0.00350754
0.000742725
0.00107379
0.00127093
0.00141203
0.00156849
0.00181542
0.00215505
0.00255535
0.00297302
0.00335085
0.00368819
0.00398371
0.00423226
0.00442544
0.00455432
0.0046129
0.00460089
0.00452483
0.0043971
0.00423313
0.00404806
0.00385499
0.00366547
0.00348735
0.000732309
0.0011035
0.0013098
0.00144522
0.00160913
0.00187276
0.00223195
0.00264747
0.00307329
0.00344834
0.00377649
0.00405879
0.00429095
0.00446452
0.00457044
0.0046033
0.00456473
0.00446451
0.00431881
0.00414624
0.00396355
0.00378361
0.00361617
0.00346702
0.000720923
0.00113549
0.00134884
0.00147952
0.00165227
0.00193224
0.00230939
0.00273764
0.00316831
0.00353856
0.00385594
0.00412391
0.00433878
0.00449183
0.00457379
0.00458007
0.00451475
0.00439148
0.00423058
0.00405354
0.0038777
0.00371433
0.00357021
0.00344833
0.000710625
0.00117357
0.00138462
0.00151803
0.00170017
0.00199538
0.00238828
0.00282652
0.0032589
0.00362229
0.00392753
0.00418034
0.00437732
0.00450926
0.00456667
0.00454608
0.00445461
0.0043104
0.00413794
0.00396084
0.00379571
0.00365098
0.00352974
0.00343208
0.000704451
0.00123665
0.0014219
0.00156493
0.00175525
0.00206362
0.00246945
0.00291458
0.00334587
0.00370021
0.0039922
0.00422932
0.00440814
0.00451876
0.00455152
0.00450442
0.00438823
0.00422594
0.00404596
0.00387285
0.00372116
0.00359564
0.00349557
0.00341853
0.000709391
0.0012891
0.00147507
0.00162581
0.00181964
0.00213793
0.0025533
0.00300203
0.00342954
0.00377276
0.00405074
0.00427202
0.00443276
0.00452229
0.00453085
0.00445828
0.0043195
0.00414249
0.00395888
0.00379293
0.00365603
0.00354896
0.00346763
0.00340763
1.33843e-06
1.26893e-05
4.69642e-05
0.000114166
0.000197156
5.54372e-05
3.84665e-05
8.9754e-05
0.000175595
0.000300359
0.000394385
0.00045368
5.34236e-05
0.000195189
0.000334258
0.000508733
0.000674565
0.000836696
5.95143e-05
0.000293899
0.000484715
0.000701102
0.000919774
0.00113127
6.4179e-05
0.000379592
0.000619168
0.000868495
0.00111928
0.00134043
6.7813e-05
0.000450278
0.000735413
0.00100952
0.00127758
0.001492
7.06481e-05
0.000506804
0.000833288
0.0011269
0.00140048
0.00160351
7.28307e-05
0.000550477
0.000913424
0.00122273
0.00149449
0.00168707
7.44567e-05
0.000582632
0.000976755
0.00129844
0.00156626
0.00175024
7.55892e-05
0.000604383
0.00102431
0.00135581
0.00162021
0.00179777
7.62729e-05
0.00061658
0.00105707
0.00139644
0.00165923
0.00183271
7.6551e-05
0.000619565
0.00107584
0.00142161
0.00168502
0.0018571
7.65267e-05
0.000613128
0.00108121
0.00143214
0.00169892
0.00187284
7.61646e-05
0.000598315
0.00107348
0.00142852
0.00169942
0.00187809
7.54236e-05
0.000576265
0.00105261
0.00141035
0.0016848
0.00187271
7.42541e-05
0.000547735
0.00101823
0.00137533
0.00165389
0.0018543
7.25963e-05
0.00051353
0.000969474
0.00132132
0.00160401
0.00181848
7.03703e-05
0.000473582
0.000904663
0.00124516
0.00153031
0.00175949
6.74653e-05
0.000426739
0.000821066
0.00114243
0.00142639
0.0016672
6.37278e-05
0.000370986
0.00071421
0.00100748
0.00128282
0.00152548
5.89424e-05
0.000302863
0.000578161
0.000832868
0.00108712
0.00130892
5.27925e-05
0.000216294
0.00040925
0.000611576
0.000814798
0.000975804
3.77047e-05
0.000106815
0.000212328
0.000346344
0.000441988
0.000517416
1.20061e-06
1.02624e-05
3.80955e-05
9.4931e-05
0.000191812
5.9091e-05
0.000755801
0.00136881
0.0015643
0.00170328
0.00189362
0.00221799
0.00263931
0.0030885
0.00350975
0.00384019
0.00410384
0.0043095
0.00445267
0.00452178
0.00450713
0.00441075
0.00425201
0.00406373
0.00387983
0.00372307
0.00360097
0.00351058
0.00344531
0.00339904
0.00117058
0.00155101
0.00167983
0.00178844
0.00197349
0.00230141
0.0027259
0.0031731
0.00358549
0.00390247
0.00415207
0.0043428
0.00446927
0.00451909
0.00448277
0.00436475
0.00418892
0.00399253
0.00381082
0.00366408
0.00355581
0.00347979
0.00342769
0.00339228
0.00139841
0.00168037
0.00177748
0.00186927
0.00205311
0.0023846
0.00281088
0.0032547
0.0036553
0.00395953
0.00419604
0.00437291
0.00448396
0.00451606
0.00446009
0.00432295
0.0041329
0.00393098
0.00375288
0.00361595
0.00351986
0.00345573
0.00341405
0.00338705
0.00155254
0.00177208
0.00185745
0.0019425
0.002129
0.00246458
0.00289204
0.00333186
0.00371958
0.00401183
0.00423643
0.00440084
0.00449807
0.00451444
0.00444127
0.0042878
0.00408621
0.0038806
0.00370649
0.00357823
0.00349221
0.00343751
0.00340376
0.00338317
0.00166599
0.00184096
0.00192364
0.00200779
0.00219916
0.00253905
0.00296756
0.00340323
0.00377855
0.00405986
0.00427392
0.00442752
0.0045128
0.0045158
0.00442823
0.00426137
0.00405061
0.00384239
0.00367172
0.00355029
0.0034719
0.0034242
0.00339632
0.00338046
0.00175152
0.00189479
0.00197872
0.00206517
0.00226221
0.00260602
0.00303366
0.00346459
0.00382881
0.00410235
0.00430891
0.00445371
0.00452902
0.00452132
0.00442252
0.00424528
0.00402739
0.00381694
0.00364843
0.00353155
0.00345824
0.00341511
0.00339114
0.00337868
0.00181753
0.00193767
0.00202446
0.00211461
0.00231694
0.00266268
0.00308844
0.00351464
0.00386879
0.00413571
0.00433669
0.00447645
0.00454643
0.00453176
0.00442524
0.00424073
0.00401743
0.00380451
0.00363643
0.00352165
0.00345038
0.00340957
0.00338832
0.00337768
0.00186924
0.00197202
0.00206205
0.00215599
0.00236196
0.00270734
0.00313146
0.0035556
0.00390378
0.00416663
0.00436387
0.00449944
0.00456509
0.00454652
0.00443601
0.00424759
0.00402076
0.00380515
0.00363534
0.00351968
0.00344769
0.00340768
0.00338717
0.00337728
0.00191006
0.00199938
0.00209225
0.00218887
0.00239555
0.0027415
0.00316689
0.00359218
0.00393885
0.004202
0.00439975
0.00453547
0.00459972
0.00457807
0.00446339
0.00427043
0.00403919
0.00381931
0.00364542
0.00352636
0.00345203
0.00340982
0.00338799
0.0033774
0.00194233
0.00202078
0.0021151
0.00221295
0.00242165
0.00276932
0.00319671
0.00362454
0.00397163
0.00423609
0.00443454
0.0045694
0.00463195
0.00460939
0.00449575
0.00430381
0.00407129
0.00384702
0.00366687
0.00354145
0.00346269
0.0034157
0.00339065
0.00337802
0.00196744
0.0020371
0.00213222
0.00223108
0.00243928
0.00278573
0.00321331
0.00364315
0.0039929
0.00426071
0.00446174
0.00459897
0.00466488
0.0046468
0.00453792
0.0043497
0.00411739
0.00388851
0.0037002
0.00356564
0.00347871
0.00342619
0.00339551
0.00337922
0.00198712
0.00204901
0.00214227
0.00223984
0.00244472
0.00278774
0.0032149
0.003648
0.00400381
0.00427838
0.00448584
0.00462905
0.00470102
0.00468994
0.00458879
0.00440711
0.00417696
0.00394383
0.00374596
0.00359975
0.00350183
0.00344019
0.00340296
0.00338135
0.00200068
0.0020574
0.00214442
0.00224008
0.0024397
0.00277767
0.00320392
0.00364138
0.00400653
0.00429073
0.00450716
0.0046588
0.00473936
0.00473786
0.00464718
0.00447484
0.00424918
0.00401285
0.00380472
0.00364473
0.00353307
0.00345962
0.00341304
0.00338436
0.00200848
0.0020621
0.00213993
0.0022324
0.00242466
0.00275568
0.00318028
0.00362278
0.00400017
0.00429672
0.00452472
0.00468726
0.00477883
0.00478933
0.00471169
0.00455139
0.00433282
0.00409505
0.00387682
0.00370151
0.00357348
0.0034853
0.00342668
0.00338865
0.00200973
0.0020626
0.00213001
0.00221762
0.00240026
0.00272217
0.00314394
0.00359172
0.00398385
0.0042953
0.00453736
0.00471324
0.00481816
0.00484294
0.00478063
0.00463491
0.0044262
0.00418944
0.00396226
0.0037709
0.00362427
0.00351837
0.0034447
0.00339456
0.0020028
0.00205819
0.00211524
0.00219645
0.00236734
0.00267778
0.0030951
0.00354785
0.00395667
0.0042853
0.00454382
0.00473538
0.00485589
0.00489705
0.00485214
0.00472331
0.00452724
0.00429444
0.00406043
0.00385337
0.00368651
0.00356006
0.00346802
0.00340251
0.00198494
0.00204756
0.00209566
0.00216945
0.00232685
0.00262343
0.00303426
0.00349105
0.00391777
0.00426549
0.00454265
0.00475214
0.00489038
0.00494987
0.0049242
0.00481429
0.00463347
0.00440784
0.00416997
0.00394866
0.00376094
0.00361145
0.0034976
0.00341293
0.00195182
0.00202853
0.00207075
0.00213691
0.00227974
0.00256028
0.00296224
0.00342151
0.00386634
0.00423459
0.00453234
0.00476185
0.00491983
0.00499945
0.00499464
0.00490537
0.00474214
0.00452686
0.00428861
0.00405561
0.00384755
0.00367332
0.00353422
0.00342618
0.00189765
0.00199756
0.00203914
0.00209871
0.00222692
0.00248968
0.0028803
0.00333985
0.0038015
0.00419126
0.0045113
0.00476274
0.00494233
0.00504376
0.00506125
0.00499407
0.00485037
0.00464835
0.00441339
0.00417207
0.00394539
0.00374574
0.00357835
0.00344245
0.00181308
0.0019488
0.00199825
0.00205418
0.00216909
0.0024132
0.0027902
0.00324776
0.00372123
0.00413414
0.00447803
0.00475308
0.00495598
0.00508074
0.00512182
0.00507794
0.00495535
0.00476902
0.00454078
0.00429485
0.00405229
0.0038278
0.0036301
0.00346201
0.00168179
0.00187397
0.00194419
0.00200205
0.00210667
0.00233234
0.0026937
0.00314636
0.00362756
0.0040631
0.0044315
0.00473137
0.00495896
0.0051084
0.00517423
0.00515465
0.00505438
0.00488566
0.00466707
0.00442013
0.00416497
0.00391735
0.00368854
0.0034846
0.00147191
0.00176464
0.00187191
0.00194048
0.00203973
0.00224861
0.00259285
0.00303745
0.00352286
0.00397872
0.00437119
0.00469641
0.00494968
0.00512489
0.00521644
0.00522202
0.00514498
0.00499528
0.00478859
0.00454376
0.00427933
0.00401107
0.0037517
0.00350956
0.00111663
0.00159419
0.00177242
0.00186637
0.00196783
0.00216329
0.00248994
0.00292351
0.00340938
0.00388199
0.00429703
0.00464736
0.00492677
0.00512851
0.00524656
0.00527799
0.00522488
0.00509517
0.00490202
0.00466172
0.00439092
0.00410475
0.00381636
0.00353537
0.000552521
0.00127837
0.0016335
0.00177623
0.00189046
0.00207765
0.00238737
0.00280729
0.00328959
0.00377431
0.0042094
0.00458378
0.0048892
0.00511781
0.0052629
0.00532071
0.00529205
0.00518304
0.00500456
0.0047705
0.00449557
0.00419381
0.00387832
0.00355954
2.00365e-06
5.65283e-06
1.04102e-05
1.68975e-05
2.77376e-05
0.00010813
4.84983e-05
6.29557e-05
7.92367e-05
0.00010219
0.000131991
0.000221985
5.71013e-05
9.78442e-05
0.000141991
0.000176933
0.000225296
0.000320513
6.12548e-05
0.000121901
0.000196715
0.000240806
0.000302315
0.000393792
6.40453e-05
0.000149751
0.000248348
0.000301635
0.000368328
0.000448691
6.61461e-05
0.000181074
0.000298757
0.000360769
0.000425298
0.00049205
6.78475e-05
0.000214759
0.000347133
0.000416021
0.00047494
0.00052739
6.92666e-05
0.000249438
0.000392484
0.000466075
0.000518309
0.000556521
7.04573e-05
0.000283552
0.0004337
0.000510522
0.000555219
0.000581434
7.14522e-05
0.000315322
0.000469884
0.000548428
0.000586411
0.000604683
7.22758e-05
0.000342804
0.0005004
0.000580044
0.000613487
0.000628317
7.29504e-05
0.000363964
0.000524819
0.000606469
0.00063887
0.000652702
7.35001e-05
0.000376757
0.000542765
0.000629076
0.000664168
0.0006786
7.37314e-05
0.000382577
0.000554184
0.000648581
0.000689905
0.000707352
7.36414e-05
0.000382134
0.000558921
0.000664426
0.000715916
0.000739545
7.31396e-05
0.000374985
0.000556056
0.000675173
0.000740994
0.000775459
7.219e-05
0.000359729
0.000544074
0.000678336
0.000762284
0.000815062
7.0721e-05
0.00033631
0.000520568
0.000670229
0.000774169
0.000850144
6.86115e-05
0.000302741
0.000483994
0.000645684
0.000768597
0.000869944
6.57561e-05
0.000258465
0.000431231
0.00059959
0.000735392
0.000861492
6.1846e-05
0.000202576
0.000359782
0.000525188
0.000661932
0.000804718
5.62717e-05
0.000135866
0.000268105
0.000416218
0.000533679
0.000669145
4.37092e-05
6.47053e-05
0.000156665
0.000270192
0.000357186
0.000393169
2.06944e-06
1.69951e-05
5.75793e-05
0.000112415
0.000175354
5.07675e-05
0.000481091
0.00108283
0.00149605
0.00168214
0.00181186
0.00199418
0.0022877
0.00269155
0.00316608
0.00365742
0.00410905
0.0045056
0.00483623
0.00509162
0.00526399
0.00534854
0.00534476
0.00525701
0.00509399
0.00486736
0.00458984
0.0042741
0.00393297
0.00357853
0.000473818
0.00100445
0.00138831
0.00159509
0.00173667
0.00191521
0.00219292
0.00257854
0.00304113
0.00353316
0.00399706
0.00441309
0.00476751
0.00504908
0.00524866
0.00536018
0.00538165
0.00531564
0.00516878
0.00495047
0.00467134
0.00434244
0.00397609
0.00358807
0.000479988
0.000926452
0.0013198
0.00151748
0.0016666
0.00184147
0.00210373
0.00246946
0.00291634
0.00340321
0.00387459
0.00430679
0.00468297
0.00498969
0.00521614
0.0053547
0.00540177
0.00535806
0.00522806
0.00501891
0.00473893
0.0043971
0.00400469
0.00358372
0.00049496
0.000883997
0.0012656
0.0014489
0.00160178
0.00177254
0.00201971
0.00236447
0.00279247
0.00326885
0.00374279
0.00418741
0.00458287
0.00491335
0.0051661
0.00533174
0.00540485
0.00538415
0.00527193
0.00507293
0.00479291
0.00443815
0.00401775
0.0035617
0.000516371
0.000855049
0.00120527
0.00139135
0.0015418
0.00170749
0.00193985
0.00226301
0.00266962
0.00313098
0.00360267
0.00405574
0.00446771
0.00482036
0.00509881
0.00529171
0.0053916
0.00539504
0.00530197
0.00511455
0.00483563
0.00446803
0.00401691
0.0035199
0.000540878
0.000832717
0.0011487
0.00134283
0.00148698
0.00164497
0.0018629
0.00216415
0.00254742
0.0029901
0.00345502
0.00391253
0.00433813
0.00471134
0.00501511
0.00523592
0.00536412
0.00539387
0.0053225
0.00514927
0.00487362
0.00449382
0.00400855
0.00345922
0.000566134
0.000814796
0.00110041
0.00130128
0.00143695
0.00158554
0.00178703
0.00206623
0.00242516
0.00284638
0.00330042
0.00375841
0.00419469
0.00458696
0.00491611
0.00516648
0.0053261
0.00538662
0.00534256
0.00518982
0.00492357
0.0045358
0.00401415
0.00339101
0.000590756
0.000800525
0.00106173
0.00126085
0.00138837
0.00152848
0.00171325
0.00196896
0.00230169
0.00269959
0.00313912
0.00359367
0.00403757
0.00444741
0.00480249
0.00508532
0.00528194
0.0053819
0.00537733
0.00526141
0.00502604
0.00465847
0.00413381
0.00341644
0.000614202
0.000789318
0.00102964
0.00121896
0.00134248
0.00147364
0.00164165
0.00187313
0.00217807
0.00255018
0.00297141
0.0034183
0.00386631
0.00429183
0.00467335
0.00499234
0.00523395
0.00538717
0.00544446
0.00540165
0.00526083
0.00504241
0.0048087
0.0046543
0.000636629
0.000780678
0.00100141
0.00117766
0.00129856
0.00142076
0.0015723
0.00177935
0.00205522
0.00239891
0.00279778
0.0032323
0.00368006
0.00411831
0.00452575
0.00488395
0.00517853
0.00539992
0.00554361
0.0056104
0.00560827
0.00555745
0.00549468
0.00546036
0.000658646
0.000774919
0.000977077
0.00113845
0.00125623
0.00136963
0.00150529
0.00168816
0.00193412
0.00224689
0.0026192
0.00303605
0.00347816
0.00392476
0.00435572
0.00475343
0.00510424
0.00539929
0.00563461
0.00581052
0.00593148
0.00600676
0.00605115
0.00607874
0.000680884
0.00077463
0.000955472
0.00110102
0.00121558
0.00132026
0.00144073
0.00160012
0.00181584
0.00209559
0.00243725
0.00283076
0.00326089
0.00370986
0.00415966
0.00459384
0.00499878
0.0053641
0.0056823
0.00594806
0.00615856
0.00631289
0.00641838
0.00648074
0.000705896
0.000780202
0.000936545
0.00106767
0.00117705
0.00127278
0.0013788
0.00151578
0.00170158
0.00194688
0.0022542
0.00261862
0.00302963
0.00347339
0.00393476
0.00439873
0.00485104
0.005278
0.00566616
0.00600303
0.00627547
0.00647879
0.00663127
0.00670838
0.000733371
0.000794329
0.000923106
0.00104006
0.00114142
0.00122763
0.00131979
0.00143572
0.00159256
0.00180284
0.00207294
0.00240283
0.0027871
0.00321656
0.00367967
0.00416328
0.00465237
0.00512937
0.00557443
0.00596722
0.00628187
0.00653081
0.00671045
0.00679998
0.00076382
0.000810616
0.000919736
0.00101869
0.00110739
0.00118467
0.00126395
0.00136048
0.00148995
0.00166566
0.00189676
0.0021875
0.00253749
0.00294256
0.00339544
0.00388557
0.00439792
0.00491177
0.00540171
0.00583179
0.00618895
0.00647358
0.00667396
0.00677419
0.000799823
0.000836254
0.000919749
0.00100174
0.00107768
0.00114486
0.00121179
0.00129056
0.00139477
0.00153738
0.00172908
0.0019774
0.00228641
0.00265688
0.00308625
0.00356755
0.00408712
0.0046227
0.00514467
0.00560298
0.00599596
0.00631085
0.00653214
0.00664238
0.000849541
0.00087673
0.000933004
0.00099469
0.00105472
0.00110977
0.0011642
0.0012266
0.00130791
0.00141975
0.00157316
0.00177762
0.00204058
0.00236721
0.00275972
0.00321559
0.00372431
0.00426451
0.00480468
0.00528414
0.00570592
0.00604618
0.00629116
0.00641184
0.000901731
0.000926318
0.000964779
0.00100136
0.00104158
0.00108171
0.00112267
0.00116952
0.00123018
0.0013142
0.00143176
0.00159297
0.00180726
0.00208302
0.00242671
0.00284067
0.00331926
0.00384478
0.00438684
0.00487968
0.00532199
0.00568174
0.00595467
0.00608721
0.000943271
0.000978769
0.00100889
0.00102246
0.00104103
0.00106356
0.00108943
0.00112079
0.00116258
0.00122182
0.001307
0.00142753
0.00159335
0.00181455
0.00210054
0.00245809
0.00288735
0.00337683
0.00390073
0.00439613
0.00484668
0.00522229
0.00552108
0.00566997
0.000962506
0.0010198
0.00105401
0.00105253
0.00105226
0.00105683
0.00106656
0.00108221
0.00110637
0.00114363
0.00120031
0.00128424
0.00140453
0.00157135
0.00179535
0.00208624
0.00244944
0.00288106
0.00336324
0.00384807
0.00429221
0.00468266
0.00499288
0.00517299
0.000945009
0.00103336
0.00108275
0.00107829
0.0010675
0.0010583
0.00105353
0.00105436
0.00106235
0.00108028
0.00111244
0.0011647
0.0012445
0.00136078
0.00152374
0.00174394
0.00203011
0.00238509
0.00280051
0.00325082
0.00367036
0.00405752
0.00436567
0.00458189
0.000880749
0.0010088
0.00107748
0.00108378
0.00107382
0.00105907
0.00104505
0.00103444
0.00102903
0.00103083
0.0010427
0.00106871
0.00111437
0.00118674
0.00129434
0.00144674
0.00165335
0.00192088
0.00224907
0.00262766
0.00301457
0.00336748
0.00367532
0.00389851
0.000767968
0.000950992
0.00103968
0.00105991
0.00106017
0.00104878
0.00103278
0.00101627
0.00100192
0.0009918
0.000988097
0.000993629
0.00101222
0.00104892
0.00111012
0.00120337
0.00133672
0.00151747
0.00174929
0.00203007
0.00234762
0.00265788
0.00293368
0.00314557
0.000578396
0.000847787
0.000960269
0.00101935
0.00102538
0.00102092
0.00100992
0.000993454
0.000975381
0.000958244
0.000944099
0.000935071
0.000933768
0.000943585
0.000968882
0.00101497
0.0010877
0.00119263
0.00133399
0.00151029
0.00171905
0.00195087
0.00217369
0.00235334
7.12225e-07
3.01924e-06
9.61507e-06
2.17332e-05
4.03872e-05
8.74932e-05
2.69393e-05
5.79563e-05
0.000103283
0.000153483
0.00021023
0.000279832
0.00015566
0.000136282
0.000220203
0.000306216
0.000392447
0.000475733
0.000172516
0.000203036
0.000321811
0.0004366
0.000543918
0.000637696
0.000185567
0.000254683
0.000404696
0.000542335
0.000664894
0.000767628
0.000194665
0.000292173
0.000471502
0.000627513
0.000761722
0.000871661
0.000199743
0.000317524
0.000524447
0.000695472
0.000839153
0.000955844
4.74286e-05
0.000333008
0.000565828
0.00074856
0.000899701
0.00102285
4.74881e-05
0.000348703
0.000597545
0.000788675
0.00094535
0.00107381
4.80555e-05
0.000362359
0.000620645
0.00081699
0.000977223
0.00110951
4.86203e-05
0.000372303
0.000635534
0.000834167
0.000995895
0.00113015
4.90353e-05
0.000378274
0.000642341
0.000840556
0.00100166
0.00113576
4.92329e-05
0.000380047
0.000641045
0.000836338
0.000994725
0.00112649
4.91905e-05
0.000377324
0.00063149
0.00082163
0.000975382
0.00110286
4.89103e-05
0.000369949
0.000613625
0.000796519
0.000944024
0.00106578
4.84214e-05
0.000357778
0.000587175
0.000761052
0.000901118
0.00101647
4.78329e-05
0.000340756
0.000551816
0.000715163
0.000847064
0.000956198
0.000201367
0.000319515
0.000507044
0.000658559
0.000781968
0.00088587
0.000197756
0.000290992
0.000452033
0.000590533
0.000705353
0.000805577
0.000190252
0.000250758
0.000385547
0.000509715
0.000615803
0.000713919
0.000177717
0.000198223
0.000306063
0.000413722
0.000510634
0.00060788
0.000160777
0.000133251
0.000211874
0.000298779
0.000385551
0.000485073
2.7925e-05
5.83978e-05
0.000103563
0.000162173
0.000234439
0.000338475
7.48895e-07
3.14463e-06
1.10617e-05
2.98633e-05
7.03963e-05
0.00016856
0.000483156
0.000745838
0.000871742
0.000932175
0.00098098
0.000984153
0.000976466
0.000964061
0.000946684
0.000927199
0.000907672
0.000889894
0.000875751
0.000867394
0.000867476
0.000879796
0.00090537
0.000946318
0.00100811
0.00109162
0.00119577
0.00131932
0.00145647
0.00159119
0.000507879
0.000692879
0.000806252
0.000876988
0.000909754
0.000943092
0.000945246
0.000936706
0.000922855
0.000905017
0.000884858
0.000863879
0.0008437
0.000826049
0.00081113
0.000798712
0.000793285
0.000796525
0.000807684
0.000827864
0.000855934
0.000893876
0.000935401
0.00100396
0.000614197
0.000723829
0.000799437
0.000856238
0.000894197
0.000912727
0.000930613
0.000932065
0.00092674
0.000916521
0.000903093
0.000887919
0.000872392
0.000857753
0.000845438
0.000835979
0.000828523
0.000823812
0.000821833
0.000823116
0.000826295
0.000835503
0.000841955
0.000867209
0.000742855
0.000818222
0.000863458
0.000899398
0.000928687
0.000950187
0.000967201
0.000976799
0.000987683
0.000992891
0.000996875
0.00100108
0.00100691
0.00101547
0.00102735
0.00104247
0.0010601
0.00107922
0.00109913
0.0011191
0.00113755
0.00115718
0.00117444
0.00120202
0.000865699
0.000933086
0.000971395
0.000996503
0.00101873
0.00104012
0.0010609
0.00108271
0.00110671
0.00113174
0.00115861
0.00118882
0.00122369
0.00126353
0.00130794
0.00135611
0.00140696
0.00145919
0.00150946
0.0015545
0.00159332
0.00163022
0.00166873
0.00170805
0.000972894
0.00104411
0.00108699
0.00111484
0.00113793
0.0011612
0.0011873
0.00121838
0.00125429
0.00129479
0.00134051
0.00139161
0.0014475
0.00150691
0.00156815
0.00162935
0.00168877
0.00174504
0.00179545
0.00183784
0.00187577
0.00191298
0.00194818
0.00197665
0.00106249
0.00114371
0.00119725
0.00123367
0.00126234
0.00129052
0.00132148
0.001357
0.00139769
0.00144397
0.00149558
0.00155175
0.00161126
0.00167262
0.00173424
0.00179466
0.0018525
0.0019067
0.0019543
0.00199804
0.00203876
0.00207558
0.0021065
0.00212678
0.00113722
0.00122821
0.00129427
0.00134363
0.00138266
0.00141715
0.00145192
0.00148966
0.0015319
0.00157972
0.00163188
0.00168746
0.00174514
0.00180338
0.00186073
0.001916
0.00196708
0.00201417
0.00205875
0.00209978
0.00213701
0.00216625
0.00218649
0.00219854
0.00119586
0.00129894
0.00137633
0.0014364
0.00148667
0.00153091
0.0015726
0.00161392
0.001656
0.001699
0.00174457
0.00179228
0.00184086
0.00188836
0.00193324
0.00197367
0.0020088
0.00203692
0.00205588
0.00206485
0.00206613
0.00206105
0.00204621
0.00202898
0.00123779
0.00135161
0.00144204
0.00151485
0.00157448
0.00162542
0.00167123
0.00171476
0.00175762
0.00179972
0.00184004
0.001877
0.00190925
0.00193591
0.00195552
0.00196621
0.00196704
0.00195826
0.00194073
0.00191738
0.00189389
0.00187657
0.00186628
0.00185856
0.00126245
0.00138448
0.00148559
0.00157003
0.00164112
0.00170173
0.00175412
0.00179985
0.00183992
0.00187498
0.00190483
0.00192891
0.00194618
0.0019553
0.00195571
0.0019462
0.00192738
0.00190098
0.00186815
0.00182991
0.00178912
0.00174622
0.00172617
0.0017206
0.00126932
0.0013963
0.00150473
0.00159768
0.00167742
0.00174576
0.00180409
0.00185332
0.00189395
0.00192601
0.00194912
0.00196263
0.00196575
0.00195853
0.00194114
0.00191356
0.00187677
0.00183251
0.00178178
0.00172778
0.00167381
0.00162158
0.00158207
0.0015705
0.00125845
0.00138711
0.00149921
0.00159673
0.0016812
0.00175378
0.00181524
0.00186596
0.00190595
0.00193502
0.00195284
0.00195907
0.00195373
0.00193734
0.00191164
0.00187591
0.00183454
0.00178393
0.00172368
0.0016552
0.00158768
0.00153546
0.00149299
0.00147065
0.00123079
0.00135866
0.00147148
0.00157002
0.00165537
0.00172846
0.00178982
0.00183963
0.00187778
0.0019042
0.00191874