/*--------------------------------*- C++ -*----------------------------------*\
  =========                 |
  \\      /  F ield         | OpenFOAM: The Open Source CFD Toolbox
   \\    /   O peration     | Website:  https://openfoam.org
    \\  /    A nd           | Version:  11
     \\/     M anipulation  |
\*---------------------------------------------------------------------------*/
FoamFile
{
    format      ascii;
    class       volScalarField;
    location    "0.66";
    object      p;
}
// * * * * * * * * * * * * * * * * * * * * * * * * * * * * * * * * * * * * * //

dimensions      [0 2 -2 0 0 0 0];

internalField   nonuniform List<scalar> 
2880
(
-0.00188074
-0.00514254
0.0148226
0.0618813
0.113723
0.176007
0.00328668
-0.00382454
0.0116389
0.0443811
0.0721064
0.110404
0.00936021
-0.00171611
0.00926945
0.0307503
0.0469746
0.0585807
0.00507602
-0.00154451
0.00550663
0.0193522
0.0294708
0.0293353
-0.000742499
-0.00310048
0.000696287
0.00979332
0.0171924
0.0153238
-0.00406493
-0.0053868
-0.0042601
0.00219037
0.00880808
0.00868191
-0.00712879
-0.00796478
-0.00876161
-0.00359939
0.00329327
0.00591277
-0.0103675
-0.0106124
-0.0126398
-0.00789988
-9.03293e-05
0.00557927
-0.0138632
-0.0131703
-0.0158941
-0.011061
-0.00189743
0.00686293
-0.0172453
-0.0155185
-0.0185821
-0.0133894
-0.00254566
0.00922566
-0.0201968
-0.0175718
-0.0207857
-0.0149659
-0.00255513
0.0123355
-0.0225192
-0.0192728
-0.0226119
-0.0162233
-0.00199744
0.0160524
-0.0241115
-0.0205824
-0.0241482
-0.0173919
-0.00112431
0.0203004
-0.0249669
-0.0214182
-0.0254969
-0.0186978
-0.000178041
0.0247487
-0.0251008
-0.0217146
-0.026781
-0.0203714
0.000568079
0.028745
-0.0245034
-0.0214782
-0.0280833
-0.0226606
0.000833412
0.0316921
-0.0231765
-0.0207038
-0.029475
-0.02583
0.000321143
0.0329211
-0.0214494
-0.0194518
-0.0310625
-0.030149
-0.00124781
0.0315501
-0.0225233
-0.0184108
-0.0329824
-0.0357339
-0.00418661
0.0260883
-0.0278787
-0.018677
-0.0353624
-0.0417292
-0.00948375
0.0135679
-0.0305568
-0.0191312
-0.0381683
-0.0487406
-0.0155903
-0.0104813
-0.0252827
-0.0185447
-0.0406545
-0.0563482
-0.0220194
-0.0503934
-0.0161959
-0.0171925
-0.0423221
-0.0636941
-0.03391
-0.118812
-0.0117457
-0.0165602
-0.0441374
-0.071783
-0.0565206
-0.276431
-0.0859222
-0.0600916
-0.0357219
-0.0113448
0.0105414
0.0283712
0.0426597
0.05424
0.0638455
0.0718261
0.0777979
0.0826017
0.0868982
0.0905095
0.093456
0.095804
0.0975606
0.098703
0.0992732
0.0993476
0.0993446
0.102273
0.11311
0.104181
-0.0615864
-0.0471714
-0.0254995
-0.00238966
0.0188233
0.0367258
0.0515352
0.0639097
0.0741295
0.0824193
0.0891386
0.094744
0.0994633
0.10339
0.106607
0.109169
0.111095
0.11241
0.113207
0.113555
0.113882
0.117623
0.130058
0.119227
-0.0480286
-0.0352543
-0.0145375
0.00776724
0.0286008
0.0466529
0.0619016
0.0746537
0.0852936
0.0940332
0.101236
0.107212
0.112203
0.116353
0.119766
0.122517
0.12466
0.126249
0.127374
0.128037
0.12864
0.132982
0.146614
0.134232
-0.0344113
-0.0226886
-0.00255203
0.019175
0.0398556
0.058087
0.073624
0.0866759
0.0975236
0.106492
0.113909
0.120065
0.125195
0.12948
0.133049
0.135994
0.138378
0.14026
0.141694
0.142613
0.143412
0.14816
0.162642
0.149262
-0.0211381
-0.00976992
0.0101384
0.0317221
0.0524574
0.0708665
0.0865779
0.0997374
0.110655
0.119672
0.127123
0.133308
0.138479
0.14283
0.146504
0.149602
0.152194
0.154343
0.156055
0.157184
0.158108
0.163084
0.178127
0.164513
-0.00912254
0.00300555
0.023287
0.0452129
0.0662115
0.0847979
0.100581
0.113722
0.124563
0.133482
0.140839
0.146949
0.152072
0.156414
0.160127
0.16332
0.166072
0.16844
0.170388
0.171682
0.172664
0.177688
0.193005
0.180199
0.0015022
0.0153439
0.0367644
0.0594972
0.0809463
0.0997172
0.115499
0.128518
0.139174
0.147891
0.155055
0.160999
0.165992
0.170244
0.173914
0.17712
0.179946
0.182449
0.184574
0.186019
0.187046
0.191931
0.207143
0.196656
0.0109121
0.0272785
0.0505702
0.0744886
0.0965401
0.115512
0.131242
0.144063
0.154451
0.162884
0.169777
0.175476
0.180256
0.184327
0.187854
0.19096
0.193742
0.196265
0.198484
0.200106
0.201291
0.205849
0.220226
0.214775
0.0193921
0.0390017
0.0647657
0.090161
0.112937
0.13213
0.147772
0.160335
0.17039
0.178472
0.185028
0.190412
0.194898
0.198696
0.201966
0.204835
0.207403
0.209749
0.21188
0.213617
0.214957
0.218113
0.228241
0.238207
0.027302
0.0507444
0.0794371
0.106543
0.130144
0.149575
0.165097
0.177347
0.187009
0.194684
0.200847
0.205858
0.209986
0.213432
0.216346
0.218842
0.221006
0.222907
0.224582
0.225994
0.227146
0.227581
0.218766
0.27104
0.0350054
0.0627015
0.0946854
0.12371
0.148221
0.167896
0.183254
0.195129
0.204339
0.211557
0.217283
0.221881
0.22561
0.228665
0.231184
0.233267
0.234987
0.236412
0.237557
0.238105
0.237477
0.237704
0.248765
0.267616
0.0427909
0.0750045
0.11065
0.141799
0.167281
0.187176
0.202305
0.21373
0.22242
0.22913
0.234381
0.238535
0.241848
0.244508
0.246648
0.24836
0.249717
0.250787
0.251528
0.251491
0.25045
0.252631
0.268326
0.274653
0.0508413
0.087755
0.127528
0.161008
0.187475
0.20752
0.222321
0.233202
0.241296
0.247438
0.25217
0.255852
0.258735
0.261005
0.26279
0.264183
0.265256
0.266074
0.266563
0.266241
0.26514
0.2682
0.284974
0.286354
0.0592434
0.101166
0.14562
0.181598
0.208989
0.229059
0.243393
0.253606
0.261003
0.266503
0.270662
0.273833
0.276265
0.278138
0.27958
0.280678
0.281502
0.282109
0.282403
0.281888
0.28071
0.28406
0.301055
0.300212
0.0679903
0.115645
0.165343
0.203875
0.232033
0.251935
0.265618
0.275004
0.281576
0.286336
0.289849
0.292455
0.294397
0.295853
0.296945
0.297753
0.298338
0.298749
0.29887
0.298192
0.296922
0.300323
0.31712
0.315131
0.0771245
0.131688
0.187164
0.228155
0.256839
0.276309
0.289096
0.297451
0.303035
0.306929
0.3097
0.311669
0.313069
0.31407
0.314788
0.315291
0.315629
0.315837
0.315782
0.314951
0.313589
0.316925
0.333236
0.330668
0.0869237
0.150053
0.211469
0.254777
0.283655
0.302342
0.313917
0.320983
0.325377
0.328252
0.330163
0.331404
0.332193
0.33269
0.332999
0.333173
0.333247
0.333238
0.333
0.332025
0.330588
0.333785
0.349378
0.346556
0.0979463
0.171772
0.238779
0.284166
0.31275
0.330185
0.340145
0.345609
0.348574
0.350245
0.351159
0.351566
0.351665
0.351599
0.351454
0.351267
0.351053
0.350811
0.350383
0.349274
0.347781
0.35079
0.36548
0.362614
0.111078
0.19795
0.269912
0.316873
0.344403
0.359958
0.367809
0.371296
0.372556
0.37282
0.372581
0.372039
0.371359
0.370664
0.370018
0.369436
0.368909
0.368418
0.367792
0.366559
0.365033
0.367818
0.381459
0.378687
0.126869
0.229933
0.305846
0.353386
0.378858
0.391732
0.396876
0.39796
0.397208
0.395843
0.39429
0.392677
0.391128
0.389737
0.388543
0.387532
0.38667
0.385914
0.385086
0.383743
0.382202
0.384733
0.397207
0.394625
0.144099
0.269584
0.347666
0.394256
0.416311
0.42549
0.427228
0.425436
0.422355
0.419138
0.416109
0.413307
0.410803
0.408655
0.406868
0.405399
0.404183
0.403151
0.402119
0.400676
0.399138
0.401388
0.412606
0.410272
0.16144
0.321944
0.397486
0.440132
0.456801
0.461048
0.458612
0.453465
0.447746
0.442473
0.437822
0.433727
0.430193
0.427234
0.42482
0.422871
0.421286
0.419971
0.418735
0.417202
0.415677
0.417623
0.427524
0.425469
0.194188
0.39999
0.458431
0.491234
0.499943
0.497931
0.490587
0.481662
0.473053
0.465559
0.459174
0.453704
0.449083
0.445277
0.442212
0.439768
0.437808
0.436205
0.434766
0.433151
0.431649
0.433281
0.441839
0.440056
0.311138
0.513834
0.530786
0.546241
0.544589
0.535263
0.522494
0.509517
0.497868
0.488058
0.479872
0.472982
0.467245
0.462572
0.458846
0.455903
0.453566
0.451676
0.450035
0.448346
0.446881
0.448227
0.455457
0.453802
1.12191
1.11943
1.13607
1.18007
1.1881
1.38813
1.1236
1.12192
1.13527
1.16654
1.15929
1.27676
1.12489
1.12524
1.13481
1.15718
1.13855
1.18758
1.12506
1.12666
1.13293
1.14756
1.12285
1.12735
1.12451
1.12622
1.12962
1.13719
1.11036
1.09329
1.1235
1.1248
1.12559
1.12708
1.09989
1.07414
1.1221
1.123
1.12128
1.11788
1.09095
1.06198
1.12037
1.12107
1.11695
1.10973
1.0831
1.05315
1.11845
1.11917
1.11279
1.10248
1.07597
1.0459
1.11651
1.11742
1.10892
1.096
1.06927
1.03917
1.11471
1.11595
1.10545
1.09017
1.06274
1.03223
1.11315
1.11486
1.10246
1.08493
1.05622
1.02461
1.11194
1.11416
1.10002
1.08027
1.0496
1.01597
1.11112
1.11388
1.09814
1.07619
1.04278
1.00604
1.11066
1.11399
1.09681
1.07272
1.03573
0.994664
1.11054
1.11436
1.09601
1.0699
1.02856
0.981823
1.11065
1.11483
1.09564
1.06787
1.02151
0.967614
1.11089
1.11521
1.09567
1.06684
1.01492
0.952054
1.11114
1.11536
1.09612
1.06723
1.0094
0.935666
1.11128
1.11532
1.09728
1.06978
1.00576
0.919729
1.11128
1.11555
1.09998
1.07582
1.00539
0.906779
1.11139
1.11694
1.10519
1.08631
1.01298
0.905193
1.11204
1.11967
1.11215
1.0987
1.03665
0.933522
1.11297
1.12174
1.11618
1.10815
1.06737
0.998214
0.59011
0.628562
0.60582
0.601796
0.588829
0.571816
0.553496
0.536428
0.521727
0.509595
0.499605
0.491292
0.484438
0.478901
0.474518
0.471081
0.468368
0.466191
0.464345
0.462579
0.461165
0.462275
0.468141
0.466225
0.727573
0.718453
0.674066
0.653639
0.630445
0.606265
0.58272
0.561772
0.544157
0.529793
0.518055
0.50836
0.500421
0.494044
0.489022
0.485101
0.482018
0.479549
0.477488
0.475625
0.474221
0.475032
0.479557
0.477571
0.820743
0.787142
0.73113
0.699036
0.667779
0.637539
0.609419
0.584993
0.564726
0.548299
0.534925
0.523928
0.514963
0.507791
0.502162
0.497778
0.494334
0.491576
0.489295
0.487318
0.485867
0.486289
0.489568
0.487847
0.881531
0.836569
0.776613
0.737119
0.700004
0.664972
0.633064
0.605663
0.583076
0.56481
0.549951
0.537764
0.527856
0.519949
0.513757
0.508942
0.505159
0.502126
0.499636
0.497544
0.496015
0.496016
0.498225
0.497028
0.921811
0.872135
0.812028
0.768069
0.726893
0.688244
0.653323
0.623471
0.598925
0.57907
0.562906
0.549662
0.53891
0.530343
0.523643
0.518436
0.514344
0.511061
0.508382
0.50619
0.504595
0.504244
0.505556
0.504737
0.94838
0.897701
0.838969
0.792427
0.748538
0.707249
0.670005
0.638192
0.612042
0.590858
0.573584
0.559434
0.547954
0.538814
0.531667
0.526115
0.521748
0.518243
0.515397
0.513113
0.511458
0.510818
0.511402
0.510891
0.965771
0.915659
0.85875
0.810805
0.765169
0.722007
0.683024
0.649691
0.622268
0.60001
0.581827
0.566926
0.554841
0.54522
0.537696
0.531848
0.527246
0.523551
0.520561
0.518196
0.516485
0.515618
0.515657
0.515381
0.976519
0.927496
0.872392
0.823762
0.777054
0.732625
0.692403
0.657944
0.629554
0.606463
0.587563
0.572065
0.559492
0.549475
0.541636
0.535539
0.530738
0.526883
0.523776
0.521339
0.519579
0.51855
0.518231
0.518111
0.982056
0.934181
0.880654
0.831764
0.784471
0.739268
0.698228
0.662986
0.6339
0.610192
0.590749
0.574793
0.561837
0.551506
0.543412
0.537108
0.532144
0.528162
0.52496
0.522463
0.520653
0.519524
0.51904
0.51903
0.983297
0.936337
0.884081
0.835175
0.787653
0.742056
0.700535
0.66479
0.635233
0.611099
0.591279
0.575002
0.561778
0.551219
0.542933
0.536472
0.531385
0.527312
0.524041
0.521485
0.519626
0.518492
0.518089
0.518073
0.980739
0.93431
0.882982
0.83419
0.786686
0.740983
0.69926
0.663258
0.633442
0.609071
0.589048
0.5726
0.559229
0.548542
0.540141
0.533583
0.528422
0.524297
0.520988
0.518391
0.516494
0.515424
0.51529
0.515189
0.974579
0.928194
0.877424
0.828816
0.781525
0.735984
0.694331
0.658324
0.628471
0.604063
0.584016
0.567554
0.554167
0.543453
0.535016
0.528422
0.523233
0.519096
0.515779
0.513154
0.511226
0.510288
0.510618
0.510361
0.96473
0.917858
0.867276
0.818938
0.772075
0.72699
0.685702
0.649959
0.620297
0.596057
0.57617
0.559849
0.546575
0.535941
0.527552
0.520985
0.515822
0.511715
0.508421
0.505782
0.503829
0.503088
0.504064
0.503579
0.950844
0.902927
0.852238
0.80432
0.758163
0.713873
0.673282
0.638094
0.608873
0.585017
0.565482
0.549469
0.536448
0.526007
0.517758
0.511293
0.506212
0.502179
0.498941
0.496307
0.494338
0.493852
0.495637
0.494855
0.932285
0.882762
0.831799
0.784568
0.739494
0.696419
0.656917
0.622626
0.594131
0.570903
0.551933
0.536409
0.523792
0.513671
0.505664
0.499383
0.494448
0.49054
0.487394
0.484785
0.482812
0.48263
0.485366
0.484229
0.908017
0.856407
0.805189
0.759108
0.715664
0.674342
0.636414
0.603432
0.576
0.553682
0.535516
0.520682
0.508637
0.498974
0.491323
0.485316
0.480599
0.47687
0.473858
0.471301
0.469339
0.469505
0.473307
0.471774
0.876475
0.822534
0.771357
0.727195
0.686165
0.647305
0.611559
0.580385
0.554422
0.533338
0.516245
0.502322
0.491033
0.481979
0.474807
0.469174
0.464753
0.461265
0.458434
0.455962
0.454036
0.454594
0.459561
0.457557
0.835564
0.779378
0.728943
0.687908
0.650406
0.614937
0.582127
0.553366
0.529353
0.509879
0.494159
0.481392
0.471057
0.462775
0.456216
0.451064
0.447024
0.443842
0.441243
0.438893
0.437022
0.437984
0.444195
0.441767
0.782107
0.724546
0.676239
0.640175
0.607749
0.576868
0.547919
0.522287
0.500782
0.483352
0.469334
0.457987
0.44882
0.441483
0.435676
0.431116
0.427545
0.424736
0.42242
0.420229
0.41842
0.419754
0.427239
0.424554
0.712498
0.654277
0.611146
0.58283
0.557571
0.532784
0.508803
0.487128
0.468762
0.45385
0.441892
0.432248
0.424473
0.41826
0.413348
0.409496
0.406482
0.404113
0.402131
0.400139
0.398408
0.400086
0.408822
0.405995
0.621398
0.564371
0.531333
0.514733
0.49937
0.482507
0.46477
0.447978
0.433432
0.421542
0.412019
0.404368
0.398215
0.393307
0.389435
0.386404
0.384037
0.382179
0.380586
0.37884
0.37722
0.37923
0.389161
0.386252
0.496103
0.449251
0.434392
0.434967
0.432921
0.426105
0.416007
0.405073
0.39505
0.38669
0.379979
0.374608
0.370298
0.36687
0.364177
0.362079
0.360447
0.359167
0.358019
0.356571
0.355108
0.357448
0.368484
0.36553
0.295489
0.300441
0.318232
0.34315
0.358493
0.364019
0.362972
0.358843
0.354012
0.349665
0.346119
0.343291
0.341028
0.339241
0.337857
0.336795
0.33598
0.335343
0.334695
0.333599
0.332346
0.335016
0.347042
0.34408
-0.0267185
0.121407
0.184262
0.240585
0.277308
0.297254
0.306474
0.309951
0.310874
0.310947
0.310869
0.310806
0.310763
0.310756
0.310792
0.310857
0.310934
0.310999
0.310901
0.310211
0.309225
0.312225
0.325098
0.322178
-0.868524
-0.924073
-1.0197
-1.05202
-1.06552
-1.14541
-0.880507
-0.93629
-1.02688
-1.06245
-1.0614
-1.101
-0.892144
-0.948825
-1.03656
-1.07651
-1.06583
-1.08613
-0.904588
-0.962131
-1.0494
-1.09273
-1.07938
-1.09014
-0.919129
-0.976555
-1.06458
-1.1093
-1.09883
-1.10219
-0.934277
-0.991853
-1.07991
-1.12527
-1.12009
-1.11776
-0.948629
-1.00726
-1.09362
-1.13962
-1.1394
-1.13283
-0.961519
-1.02115
-1.10482
-1.15128
-1.15489
-1.14433
-0.972176
-1.03234
-1.11301
-1.15936
-1.16546
-1.15063
-0.97982
-1.04015
-1.11781
-1.16326
-1.17025
-1.15063
-0.983866
-1.04413
-1.119
-1.16259
-1.16869
-1.14359
-0.983919
-1.04408
-1.11645
-1.15716
-1.16052
-1.12921
-0.979776
-1.04006
-1.11015
-1.14702
-1.14587
-1.10762
-0.971461
-1.03265
-1.10025
-1.13242
-1.12558
-1.07911
-0.959472
-1.02226
-1.08707
-1.11383
-1.10004
-1.04474
-0.944625
-1.00936
-1.07102
-1.09189
-1.07025
-1.00556
-0.927939
-0.994578
-1.05264
-1.06736
-1.03746
-0.963448
-0.910528
-0.978724
-1.03257
-1.04109
-1.00295
-0.92005
-0.893482
-0.962815
-1.01156
-1.01393
-0.968103
-0.877256
-0.877936
-0.94805
-0.990657
-0.98685
-0.93436
-0.837313
-0.86522
-0.93604
-0.971583
-0.961002
-0.902597
-0.801523
-0.85714
-0.928152
-0.956471
-0.936967
-0.871476
-0.767029
-0.855791
-0.922581
-0.944374
-0.910766
-0.837199
-0.729571
-0.859583
-0.912711
-0.920629
-0.873509
-0.805847
-0.712637
-0.516178
-0.0928716
0.0356324
0.131516
0.192018
0.227529
0.247735
0.259315
0.266358
0.271132
0.274734
0.2776
0.279906
0.281784
0.283329
0.284597
0.285628
0.286448
0.286946
0.286711
0.286046
0.289372
0.302932
0.300127
-0.718914
-0.302661
-0.109053
0.0240424
0.106584
0.157199
0.18832
0.208055
0.221312
0.230895
0.238278
0.244157
0.248886
0.252718
0.255836
0.258365
0.260401
0.262019
0.263151
0.263416
0.263121
0.266756
0.280828
0.278249
-0.803125
-0.457549
-0.232307
-0.0748734
0.0247304
0.0886873
0.129863
0.157346
0.176632
0.190946
0.202082
0.210973
0.218143
0.223958
0.228684
0.232513
0.235594
0.238048
0.239848
0.240651
0.240767
0.244681
0.259073
0.25688
-0.866357
-0.56909
-0.333304
-0.162273
-0.0512123
0.0239416
0.0737524
0.108258
0.133162
0.151964
0.166711
0.178531
0.1881
0.195888
0.202235
0.20739
0.211548
0.21487
0.217371
0.218749
0.219306
0.223445
0.23795
0.236387
-0.922991
-0.654076
-0.416599
-0.239452
-0.118586
-0.0355152
0.0209316
0.0616644
0.0916412
0.114559
0.13267
0.147262
0.159139
0.168857
0.176818
0.183316
0.188585
0.192817
0.19606
0.198054
0.199076
0.203351
0.21772
0.217175
-0.968536
-0.719985
-0.485182
-0.305384
-0.178813
-0.0886014
-0.0283174
0.0182582
0.0526767
0.0792385
0.100385
0.117528
0.131576
0.14315
0.152701
0.160561
0.166987
0.172192
0.176252
0.17894
0.180466
0.184723
0.198578
0.199746
-1.00194
-0.769921
-0.540445
-0.36074
-0.23158
-0.137532
-0.0708605
-0.0210445
0.0167726
0.0463961
0.0701772
0.0895969
0.105634
0.118961
0.130062
0.139299
0.146948
0.153234
0.158256
0.161825
0.164007
0.16801
0.180559
0.184871
-1.02461
-0.805969
-0.583552
-0.406272
-0.275946
-0.179328
-0.109112
-0.056413
-0.0158213
0.0162787
0.0422526
0.0636334
0.0814357
0.0963678
0.108939
0.11955
0.128494
0.136017
0.142269
0.147155
0.150581
0.154515
0.1646
0.174636
-1.03744
-0.829722
-0.615432
-0.442182
-0.311808
-0.214491
-0.142343
-0.0875804
-0.0449635
-0.0109724
0.0167421
0.039722
0.0590043
0.0753218
0.0892154
0.101103
0.111315
0.120132
0.127748
0.134145
0.139279
0.14484
0.155141
0.159932
-1.04065
-0.842137
-0.636694
-0.468639
-0.339581
-0.243273
-0.170297
-0.114374
-0.0704975
-0.0352235
-0.00626373
0.0179037
0.0383173
0.0557155
0.0706443
0.083523
0.0946822
0.10438
0.112742
0.119642
0.125152
0.131722
0.143015
0.136069
-1.03432
-0.843809
-0.647766
-0.486062
-0.359794
-0.265593
-0.192901
-0.136726
-0.0923284
-0.0563861
-0.0266965
-0.00178108
0.0193767
0.0374978
0.0531092
0.0666067
0.0782919
0.0883841
0.0969566
0.103852
0.109292
0.1161
0.12741
0.11706
-1.01865
-0.83525
-0.648955
-0.494759
-0.37321
-0.281317
-0.210168
-0.154649
-0.110432
-0.0744127
-0.0444967
-0.0192678
0.00225151
0.0207502
0.0367259
0.0505443
0.0624809
0.0727356
0.0813822
0.0883086
0.0938521
0.100889
0.112228
0.101824
-0.99401
-0.81709
-0.640808
-0.495037
-0.380007
-0.290816
-0.222286
-0.16823
-0.12484
-0.08929
-0.059618
-0.0344827
-0.0129577
0.00560744
0.0216777
0.0355922
0.0476079
0.0579217
0.0666313
0.0736935
0.0795198
0.0868757
0.0983235
0.0888944
-0.960996
-0.790035
-0.623955
-0.487393
-0.379803
-0.294947
-0.229529
-0.177611
-0.135632
-0.101044
-0.0720387
-0.0473634
-0.0261504
-0.00779143
0.00814675
0.0219806
0.0339541
0.0442657
0.0530415
0.0603105
0.0665016
0.074203
0.0858341
0.0778394
-0.920633
-0.754868
-0.599143
-0.472516
-0.372853
-0.294005
-0.232319
-0.183041
-0.142957
-0.109751
-0.081775
-0.0578744
-0.0372463
-0.0193259
-0.00371005
0.00989751
0.0217297
0.0319854
0.0408165
0.0483035
0.0548601
0.0629088
0.0747911
0.0684643
-0.874329
-0.712833
-0.567336
-0.451263
-0.360227
-0.28806
-0.230851
-0.184758
-0.147
-0.115533
-0.0888853
-0.0660182
-0.0461995
-0.02891
-0.013776
-0.000520584
0.0110773
0.0212137
0.0300578
0.037715
0.0445861
0.0529514
0.0651149
0.0605693
-0.823413
-0.665696
-0.530031
-0.424779
-0.342865
-0.277751
-0.225561
-0.183101
-0.148018
-0.118569
-0.0934821
-0.0718464
-0.0530094
-0.0365014
-0.0219796
-0.00918691
0.002084
0.0120211
0.0208012
0.0285419
0.0356339
0.0442325
0.0566484
0.0539225
-0.769151
-0.615106
-0.48909
-0.394515
-0.321829
-0.263936
-0.217067
-0.178524
-0.146351
-0.119109
-0.0957385
-0.0754661
-0.0577271
-0.0421064
-0.0282949
-0.0160571
-0.00520243
0.00444401
0.0130575
0.0207621
0.027943
0.0366292
0.0491838
0.0482588
-0.712324
-0.562146
-0.446218
-0.362064
-0.298376
-0.247603
-0.206104
-0.171575
-0.142415
-0.11747
-0.0958882
-0.0770411
-0.060457
-0.0457803
-0.0327393
-0.021123
-0.0107603
-0.00149396
0.00684141
0.0143734
0.0214773
0.0300373
0.0425042
0.0432954
-0.653453
-0.507302
-0.402687
-0.32892
-0.273839
-0.229836
-0.193509
-0.162895
-0.136702
-0.114029
-0.0942212
-0.0767885
-0.0613545
-0.0476265
-0.0353731
-0.0244103
-0.0145911
-0.00578262
0.00216545
0.00938085
0.0162104
0.0243731
0.0363898
0.0387132
-0.593152
-0.450792
-0.359334
-0.296265
-0.249422
-0.211712
-0.18017
-0.153193
-0.129769
-0.109225
-0.0910804
-0.0749736
-0.0606207
-0.0477919
-0.0362973
-0.0259786
-0.016717
-0.00842539
-0.000957968
0.00580897
0.012171
0.0196164
0.0306178
0.0341252
-0.533812
-0.393447
-0.317141
-0.265139
-0.226157
-0.194212
-0.166959
-0.143203
-0.122221
-0.103546
-0.0868557
-0.0719047
-0.0584957
-0.0464602
-0.0356479
-0.0259238
-0.0172547
-0.0095078
-0.00252988
0.00371238
0.00945307
0.0158678
0.0251814
0.029328
-0.480561
-0.336505
-0.277529
-0.236949
-0.205152
-0.178275
-0.154712
-0.13366
-0.114686
-0.0975186
-0.0819779
-0.0679274
-0.0552529
-0.0438528
-0.0336281
-0.0244899
-0.0163357
-0.00912204
-0.00271155
0.00303689
0.00812023
0.0133442
0.0204336
0.0243638
-0.428828
-0.28121
-0.242503
-0.212932
-0.187549
-0.164885
-0.144273
-0.125316
-0.107831
-0.0917232
-0.0769381
-0.0634395
-0.0511967
-0.0401746
-0.0303312
-0.0216017
-0.0138797
-0.0071045
-0.00130208
0.00362695
0.00792548
0.0119316
0.016504
0.0200873
-0.168286
-0.158729
-0.15361
-0.147736
-0.14836
-0.14506
-0.16905
-0.160092
-0.156464
-0.152275
-0.15459
-0.153725
-0.170657
-0.162159
-0.160246
-0.157603
-0.161943
-0.163159
-0.172086
-0.164205
-0.163666
-0.162132
-0.167012
-0.169699
-0.173047
-0.165969
-0.166468
-0.165654
-0.170042
-0.172882
-0.173933
-0.167599
-0.168894
-0.168532
-0.172014
-0.174329
-0.174924
-0.169306
-0.171197
-0.171079
-0.173507
-0.17483
-0.17584
-0.17124
-0.173548
-0.173502
-0.174803
-0.174856
-0.176749
-0.173784
-0.176051
-0.175928
-0.176101
-0.174769
-0.177975
-0.176956
-0.178658
-0.178499
-0.177566
-0.174847
-0.179465
-0.179996
-0.181345
-0.18123
-0.179336
-0.175317
-0.180902
-0.182787
-0.184069
-0.184182
-0.181531
-0.176374
-0.182269
-0.185334
-0.186796
-0.187411
-0.184251
-0.178147
-0.183563
-0.187627
-0.189503
-0.190969
-0.187594
-0.180801
-0.18478
-0.189643
-0.192168
-0.194906
-0.191669
-0.184648
-0.185913
-0.191354
-0.194775
-0.199258
-0.19657
-0.190035
-0.186886
-0.192744
-0.197306
-0.204041
-0.202364
-0.197381
-0.18733
-0.193891
-0.199737
-0.209229
-0.209048
-0.207182
-0.187247
-0.19508
-0.202028
-0.21476
-0.216506
-0.220072
-0.187596
-0.19633
-0.204071
-0.22047
-0.224304
-0.237003
-0.188405
-0.197477
-0.20563
-0.225922
-0.231498
-0.25924
-0.189081
-0.198346
-0.206493
-0.229889
-0.23753
-0.286591
-0.189409
-0.198676
-0.207126
-0.230482
-0.244064
-0.313052
-0.189518
-0.198851
-0.207354
-0.230073
-0.24836
-0.335192
-0.238241
-0.23164
-0.215477
-0.194454
-0.174132
-0.154771
-0.136395
-0.118935
-0.102396
-0.0868556
-0.0723688
-0.0589905
-0.0467729
-0.0357566
-0.0259589
-0.0173526
-0.00987257
-0.00348429
0.00179739
0.00602933
0.0092624
0.0117866
0.0139403
0.0165156
-0.232693
-0.211524
-0.199232
-0.182906
-0.165627
-0.148506
-0.131617
-0.115148
-0.0991376
-0.0837512
-0.0691362
-0.0554411
-0.042811
-0.0313702
-0.0212134
-0.0123897
-0.0049218
0.00123106
0.00611807
0.00979876
0.0121663
0.0135402
0.013432
0.0138361
-0.20946
-0.201889
-0.191427
-0.177131
-0.161643
-0.145992
-0.13021
-0.114383
-0.0986711
-0.0832353
-0.0682472
-0.0539365
-0.0405541
-0.0283266
-0.0174452
-0.00809625
-0.000325065
0.00592864
0.0106001
0.0137157
0.015214
0.01561
0.0139483
0.0122849
-0.199354
-0.195933
-0.187137
-0.174353
-0.160396
-0.146005
-0.131292
-0.11623
-0.100961
-0.0856166
-0.0704186
-0.0556362
-0.0415912
-0.0286026
-0.0169504
-0.00685349
0.00154193
0.00811426
0.0127765
0.015572
0.0165796
0.0161889
0.0140009
0.010665
-0.192233
-0.190318
-0.183001
-0.171802
-0.159339
-0.146326
-0.132832
-0.118899
-0.10455
-0.0898751
-0.0751311
-0.0606149
-0.0466628
-0.033605
-0.0217345
-0.0112959
-0.00248528
0.00453452
0.0096392
0.0127647
0.0138727
0.0131069
0.0105735
0.00595309
-0.186491
-0.184481
-0.17782
-0.167814
-0.15657
-0.144772
-0.132553
-0.119929
-0.106866
-0.0934512
-0.079898
-0.0664619
-0.053413
-0.0410098
-0.0294889
-0.019064
-0.00992783
-0.00228917
0.00367041
0.00771529
0.00955759
0.00893032
0.00551664
0.000118978
-0.181628
-0.178523
-0.171602
-0.162012
-0.151375
-0.140319
-0.12903
-0.117512
-0.105732
-0.093764
-0.0817548
-0.069866
-0.0582598
-0.0470956
-0.0365103
-0.0266446
-0.0176704
-0.00987581
-0.00341237
0.00144008
0.00434977
0.00484347
0.00225064
-0.0020246
-0.177428
-0.17262
-0.164691
-0.154717
-0.143966
-0.133035
-0.122157
-0.111362
-0.100662
-0.0901175
-0.0798298
-0.0698822
-0.060341
-0.0513076
-0.0428825
-0.0352968
-0.0285325
-0.0225205
-0.0171399
-0.0125259
-0.00868864
-0.00541215
-0.00159931
0.00290653
-0.173789
-0.166912
-0.15742
-0.146413
-0.134967
-0.123674
-0.11281
-0.102499
-0.0927895
-0.0837091
-0.0753841
-0.0678284
-0.0610499
-0.055062
-0.049783
-0.0450432
-0.0405435
-0.0356007
-0.0302392
-0.024228
-0.0171841
-0.00815915
0.00463238
0.0156347
-0.170671
-0.161495
-0.150009
-0.13755
-0.125068
-0.113099
-0.101905
-0.0916539
-0.0824657
-0.0744826
-0.0677062
-0.0621768
-0.0578915
-0.0546651
-0.0522243
-0.0501724
-0.0480319
-0.0453398
-0.0417403
-0.0364841
-0.0291019
-0.0191234
-0.00589293
0.00608575
-0.168057
-0.156418
-0.142592
-0.12827
-0.114264
-0.101124
-0.0892015
-0.0787445
-0.0699623
-0.0629956
-0.0578493
-0.0545406
-0.0529675
-0.0528866
-0.0539291
-0.0556161
-0.0573774
-0.0585802
-0.0581681
-0.0553118
-0.0492629
-0.039179
-0.025505
-0.00909058
-0.16596
-0.151694
-0.135171
-0.118624
-0.102822
-0.0883939
-0.0757621
-0.0652184
-0.0569659
-0.0510848
-0.0476395
-0.0466018
-0.0478151
-0.0509618
-0.0555555
-0.0609566
-0.0663354
-0.0706965
-0.07291
-0.0717351
-0.065988
-0.0549211
-0.0384764
-0.0157195
-0.164455
-0.147344
-0.127806
-0.108826
-0.091134
-0.0754172
-0.0620952
-0.0514613
-0.043709
-0.0389307
-0.0371389
-0.0382325
-0.0419694
-0.047906
-0.0553957
-0.0636276
-0.0716039
-0.0781661
-0.0819778
-0.0816143
-0.075696
-0.0630295
-0.0431501
-0.0145125
-0.163605
-0.14338
-0.120521
-0.0989408
-0.0792872
-0.0622726
-0.0483009
-0.0376348
-0.0304218
-0.0267073
-0.026413
-0.0292946
-0.0349743
-0.0428947
-0.05229
-0.0622271
-0.071545
-0.0788781
-0.0827715
-0.0817915
-0.0748155
-0.0606464
-0.0393249
-0.00837436
-0.163409
-0.139813
-0.113359
-0.0890932
-0.0674999
-0.0492631
-0.0347267
-0.0240905
-0.0174025
-0.0145817
-0.0154812
-0.0197385
-0.0268016
-0.0359186
-0.0461726
-0.0564422
-0.0654533
-0.0719314
-0.0747081
-0.0726823
-0.0651311
-0.0505574
-0.030159
-0.000877788
-0.163855
-0.136655
-0.106385
-0.0794778
-0.0560835
-0.0367884
-0.0218141
-0.011241
-0.00510485
-0.00318517
-0.00508369
-0.0102095
-0.0178116
-0.0270172
-0.0368385
-0.0461913
-0.0539497
-0.0590921
-0.0605521
-0.0574958
-0.0500622
-0.0366989
-0.0190401
0.00543684
-0.16492
-0.133885
-0.0996569
-0.0703006
-0.0453642
-0.0252444
-0.0101084
7.95228e-05
0.0056026
0.00690062
0.00462189
-0.000587139
-0.00794594
-0.0164858
-0.0251391
-0.0329659
-0.0387842
-0.0421981
-0.0422653
-0.0373651
-0.0269434
-0.0131651
-0.000163965
0.013886
-0.166464
-0.131371
-0.0932123
-0.0617365
-0.0356753
-0.0152288
-0.000245343
0.00958473
0.0147843
0.0158776
0.013541
0.00864747
0.00214959
-0.00493158
-0.011555
-0.0173891
-0.0210365
-0.0205009
-0.016239
-0.0101074
-0.00378515
0.00249635
0.00856681
0.0200822
-0.168043
-0.128929
-0.0870088
-0.0539097
-0.0273472
-0.00686377
0.00792385
0.0174742
0.022367
0.0234327
0.0215466
0.0177171
0.0127664
0.00746266
0.00311616
0.00164092
0.00251422
0.00451084
0.00728553
0.0098686
0.0121122
0.015889
0.0210719
0.0274269
-0.168897
-0.126283
-0.0808859
-0.0468121
-0.0201668
9.66382e-05
0.0144843
0.0237092
0.0285943
0.0300792
0.0291284
0.0267458
0.0238029
0.0219498
0.0216512
0.0220738
0.02331
0.0240072
0.0240795
0.0253541
0.0280111
0.0309949
0.034814
0.0359802
-0.16876
-0.121825
-0.0745652
-0.0401916
-0.0139022
0.00582227
0.0198161
0.0288931
0.0340726
0.0363387
0.0367482
0.0365896
0.0371597
0.0378816
0.0387217
0.0394649
0.0390787
0.0394219
0.0407895
0.0421517
0.043179
0.044302
0.0473334
0.0461348
-0.166019
-0.114293
-0.0675439
-0.0337043
-0.008237
0.0108632
0.0244973
0.0337308
0.039593
0.0431643
0.0458501
0.0483757
0.0504911
0.0523207
0.0530415
0.0534632
0.054358
0.0556346
0.0566761
0.0571158
0.0569569
0.0575322
0.0619304
0.0590162
-0.159516
-0.100311
-0.0585647
-0.0269444
-0.00261961
0.0158354
0.0293921
0.0391489
0.0460956
0.0515222
0.0562188
0.0603348
0.0630094
0.064621
0.0663247
0.0680332
0.0696379
0.0707635
0.071251
0.071121
0.0706949
0.0719431
0.0787463
0.0740183
-0.139984
-0.0785309
-0.0471437
-0.0195582
0.00349695
0.0214937
0.0353068
0.0458717
0.0542992
0.0612768
0.0672252
0.0713106
0.0745527
0.0776238
0.0801563
0.0822466
0.0838341
0.0848559
0.0852991
0.0852281
0.0849958
0.0871001
0.0960548
0.0891839
)
;

boundaryField
{
    rotor
    {
        type            zeroGradient;
    }
    freestream
    {
        type            freestreamPressure;
        freestreamValue uniform 0;
        supersonic      false;
        value           nonuniform List<scalar> 
96
(
0.0237919
0.0304317
0.0380863
0.0468187
0.0567286
0.0679335
0.0806169
0.0952517
0.113764
0.138665
0.145926
0.159253
0.175832
0.194393
0.214314
0.235294
0.257102
0.279535
0.302385
0.325427
0.348416
0.371085
0.393158
0.414277
0.433847
0.451931
0.468396
0.483089
0.495526
0.505515
0.512857
0.517391
0.519019
0.517662
0.513282
0.505903
0.495583
0.482436
0.466622
0.44836
0.427882
0.405549
0.381689
0.356573
0.330548
0.303997
0.277322
0.250927
0.225204
0.20052
0.17721
0.155571
0.13587
0.11836
0.103373
0.0918592
0.0790842
0.0629608
0.0504541
0.0406836
0.0327633
0.0263286
0.0211366
0.0169673
0.0136188
0.0109117
0.00869484
0.00684249
0.00525079
0.00387547
0.00271588
0.00184469
0.00120738
0.000772003
0.000515709
0.000363362
0.000180013
3.19915e-06
-4.20957e-05
2.57602e-05
3.27363e-07
8.39589e-05
-0.000329423
-0.000828411
-0.000872709
-0.000535881
-6.05509e-05
0.00041131
0.00117752
0.00191014
0.00295545
0.00440885
0.00643898
0.00937246
0.0133314
0.0181308
)
;
    }
    frontAndBack
    {
        type            empty;
    }
}


// ************************************************************************* //
