/*--------------------------------*- C++ -*----------------------------------*\
  =========                 |
  \\      /  F ield         | OpenFOAM: The Open Source CFD Toolbox
   \\    /   O peration     | Website:  https://openfoam.org
    \\  /    A nd           | Version:  11
     \\/     M anipulation  |
\*---------------------------------------------------------------------------*/
FoamFile
{
    format      ascii;
    class       surfaceScalarField;
    location    "0.66";
    object      phi;
}
// * * * * * * * * * * * * * * * * * * * * * * * * * * * * * * * * * * * * * //

dimensions      [0 3 -1 0 0 0 0];

internalField   nonuniform List<scalar> 
5640
(
-6.27385e-07
6.27385e-07
-1.58028e-06
9.52895e-07
-2.19455e-06
6.14269e-07
-1.98908e-06
-2.05472e-07
-3.03017e-07
-1.68606e-06
-3.61093e-06
3.30792e-06
-7.94417e-07
1.4218e-06
-1.55703e-06
1.71551e-06
-1.84404e-06
9.01278e-07
-1.3702e-06
-6.79317e-07
1.2781e-07
-3.18407e-06
-6.45136e-06
2.96824e-06
-7.7684e-07
2.19864e-06
-1.36108e-06
2.29975e-06
-1.46681e-06
1.00701e-06
-8.67979e-07
-1.27815e-06
5.10354e-07
-4.5624e-06
-8.77089e-06
2.82988e-06
-7.45343e-07
2.94398e-06
-1.17289e-06
2.7273e-06
-1.15003e-06
9.84151e-07
-5.01091e-07
-1.92709e-06
8.03783e-07
-5.86727e-06
-1.07292e-05
2.76209e-06
-6.94704e-07
3.63869e-06
-9.98981e-07
3.03158e-06
-8.92486e-07
8.77656e-07
-2.45871e-07
-2.57371e-06
9.63033e-07
-7.07618e-06
-1.24501e-05
2.68394e-06
-6.18647e-07
4.25733e-06
-8.37407e-07
3.25034e-06
-6.86298e-07
7.26548e-07
-7.92493e-08
-3.18076e-06
1.01619e-06
-8.17161e-06
-1.39904e-05
2.55646e-06
-5.31927e-07
4.78926e-06
-6.86483e-07
3.40489e-06
-5.23644e-07
5.63709e-07
1.82258e-08
-3.72263e-06
9.87085e-07
-9.14047e-06
-1.53686e-05
2.36527e-06
-4.3961e-07
5.22887e-06
-5.46536e-07
3.51182e-06
-3.97302e-07
4.14476e-07
5.53274e-08
-4.17526e-06
8.88887e-07
-9.97403e-06
-1.6586e-05
2.10637e-06
-3.44256e-07
5.57313e-06
-4.16276e-07
3.58384e-06
-2.99845e-07
2.98044e-07
4.72389e-08
-4.52234e-06
7.30985e-07
-1.06578e-05
-1.76351e-05
1.78009e-06
-2.47056e-07
5.82018e-06
-2.93462e-07
3.63024e-06
-2.23893e-07
2.28475e-07
4.10389e-09
-4.75034e-06
5.22405e-07
-1.11761e-05
-1.85043e-05
1.39159e-06
-1.48493e-07
5.96868e-06
-1.75252e-07
3.657e-06
-1.61997e-07
2.1522e-07
-6.79436e-08
-4.84439e-06
2.7241e-07
-1.15164e-05
-1.91812e-05
9.49263e-07
-4.84629e-08
6.01714e-06
-5.86853e-08
3.66723e-06
-1.06094e-07
2.62629e-07
-1.5413e-07
-4.79635e-06
-8.77739e-09
-1.16618e-05
-1.96539e-05
4.63983e-07
5.24196e-08
5.96472e-06
6.02457e-08
3.6594e-06
-4.78159e-08
3.7069e-07
-2.43806e-07
-4.60036e-06
-3.06639e-07
-1.1599e-05
-1.99111e-05
-4.95256e-08
1.53971e-07
5.81075e-06
1.84789e-07
3.62858e-06
2.14116e-08
5.34067e-07
-3.23579e-07
-4.25537e-06
-6.08326e-07
-1.13142e-05
-1.99344e-05
-5.8494e-07
2.56435e-07
5.55431e-06
3.17034e-07
3.56798e-06
1.10287e-07
7.40814e-07
-3.78563e-07
-3.76652e-06
-8.95261e-07
-1.07975e-05
-1.97077e-05
-1.12202e-06
3.59266e-07
5.19505e-06
4.59112e-07
3.46814e-06
2.26908e-07
9.73018e-07
-3.92407e-07
-3.14721e-06
-1.14718e-06
-1.00427e-05
-1.92073e-05
-1.6476e-06
4.62388e-07
4.73266e-06
6.11577e-07
3.31895e-06
3.78309e-07
1.20629e-06
-3.47381e-07
-2.42152e-06
-1.34021e-06
-9.04991e-06
-1.84027e-05
-2.14478e-06
5.6728e-07
4.16538e-06
7.72806e-07
3.11342e-06
5.69052e-07
1.41004e-06
-2.23544e-07
-1.62892e-06
-1.44508e-06
-7.82838e-06
-1.7254e-05
-2.59375e-06
6.81523e-07
3.48386e-06
9.35113e-07
2.85983e-06
7.99228e-07
1.54592e-06
8.62355e-09
-8.38317e-07
-1.4249e-06
-6.39485e-06
-1.57086e-05
-2.97036e-06
7.37243e-07
2.74661e-06
1.08336e-06
2.51371e-06
1.06093e-06
1.56836e-06
3.3213e-07
-1.09517e-07
-1.23583e-06
-4.82689e-06
-1.37029e-05
-3.24151e-06
7.60285e-07
1.98633e-06
1.2188e-06
2.0552e-06
1.34446e-06
1.44269e-06
7.82972e-07
4.51975e-07
-8.36352e-07
-3.20757e-06
-1.11783e-05
-3.36096e-06
7.63985e-07
1.22234e-06
1.33856e-06
1.48063e-06
1.63405e-06
1.1472e-06
1.34125e-06
7.44775e-07
-2.4719e-07
-1.61913e-06
-8.16072e-06
-3.26474e-06
7.29991e-07
4.92354e-07
1.42265e-06
7.87972e-07
1.9016e-06
6.68244e-07
1.99376e-06
6.52617e-07
7.20601e-07
-3.4597e-07
-4.50141e-06
-2.93871e-06
4.92354e-07
1.28033e-06
1.94857e-06
2.60119e-06
2.25522e-06
-2.24619e-06
4.66744e-06
-1.77939e-05
1.64344e-05
6.9806e-06
-2.45925e-05
2.22793e-05
9.82014e-06
-2.99437e-05
2.71042e-05
1.29209e-05
-3.43255e-05
3.12247e-05
1.6039e-05
-3.78605e-05
3.47423e-05
1.89965e-05
-4.06665e-05
3.7709e-05
2.16928e-05
-4.28764e-05
4.01801e-05
2.409e-05
-4.46299e-05
4.22328e-05
2.61755e-05
-4.6031e-05
4.39455e-05
2.79996e-05
-4.71774e-05
4.53533e-05
2.96454e-05
-4.81843e-05
4.65384e-05
3.11223e-05
-4.90832e-05
4.76064e-05
3.24106e-05
-4.98803e-05
4.85921e-05
3.35487e-05
-5.0604e-05
4.94659e-05
3.45727e-05
-5.12705e-05
5.02465e-05
3.55057e-05
-5.18853e-05
5.09523e-05
3.63615e-05
-5.24465e-05
5.15907e-05
3.71486e-05
-5.29465e-05
5.21594e-05
3.78724e-05
-5.33727e-05
5.2649e-05
3.8535e-05
-5.37067e-05
5.30441e-05
3.91381e-05
-5.39213e-05
5.33181e-05
3.9685e-05
-5.39786e-05
5.34318e-05
4.01885e-05
-5.38136e-05
5.33101e-05
-5.33098e-05
5.28082e-05
4.90537e-06
-1.97311e-05
7.35937e-06
-2.70465e-05
1.02048e-05
-3.27891e-05
1.31371e-05
-3.72578e-05
1.5924e-05
-4.06475e-05
1.84374e-05
-4.31799e-05
2.06398e-05
-4.50788e-05
2.25399e-05
-4.653e-05
2.41857e-05
-4.76767e-05
2.56479e-05
-4.86396e-05
2.69381e-05
-4.94744e-05
2.80696e-05
-5.02148e-05
2.90804e-05
-5.08912e-05
2.99962e-05
-5.15199e-05
3.08332e-05
-5.21075e-05
3.16021e-05
-5.26542e-05
3.23106e-05
-5.31549e-05
3.29642e-05
-5.36001e-05
3.35671e-05
-5.39755e-05
3.41213e-05
-5.4261e-05
3.463e-05
-5.443e-05
3.50992e-05
-5.44477e-05
3.55453e-05
-5.42597e-05
-5.37731e-05
4.97922e-06
-2.18804e-05
7.53779e-06
-2.9605e-05
1.02941e-05
-3.55454e-05
1.29521e-05
-3.99158e-05
1.53361e-05
-4.30314e-05
1.73937e-05
-4.52374e-05
1.91435e-05
-4.68286e-05
2.06355e-05
-4.8022e-05
2.19272e-05
-4.89685e-05
2.30506e-05
-4.9763e-05
2.40374e-05
-5.04612e-05
2.49206e-05
-5.1098e-05
2.57214e-05
-5.16919e-05
2.64528e-05
-5.22513e-05
2.71242e-05
-5.27789e-05
2.77424e-05
-5.32723e-05
2.83125e-05
-5.3725e-05
2.88384e-05
-5.4126e-05
2.93231e-05
-5.44602e-05
2.97694e-05
-5.47073e-05
3.0182e-05
-5.48427e-05
3.05694e-05
-5.48351e-05
3.09495e-05
-5.46398e-05
-5.41848e-05
4.99424e-06
-2.41126e-05
7.5423e-06
-3.21531e-05
1.00959e-05
-3.8099e-05
1.24003e-05
-4.22202e-05
1.43618e-05
-4.4993e-05
1.59943e-05
-4.68699e-05
1.73517e-05
-4.81861e-05
1.84943e-05
-4.91645e-05
1.94713e-05
-4.99454e-05
2.03213e-05
-5.06131e-05
2.10758e-05
-5.12157e-05
2.17552e-05
-5.17775e-05
2.23733e-05
-5.23099e-05
2.29387e-05
-5.28168e-05
2.34574e-05
-5.32976e-05
2.39332e-05
-5.37481e-05
2.43692e-05
-5.4161e-05
2.47683e-05
-5.45252e-05
2.51336e-05
-5.48255e-05
2.54695e-05
-5.50431e-05
2.57821e-05
-5.51553e-05
2.60816e-05
-5.51346e-05
2.63863e-05
-5.49444e-05
-5.45321e-05
4.92184e-06
-2.63505e-05
7.35187e-06
-3.45831e-05
9.61721e-06
-4.03644e-05
1.15363e-05
-4.41393e-05
1.30952e-05
-4.65519e-05
1.43499e-05
-4.81246e-05
1.53688e-05
-4.9205e-05
1.62121e-05
-5.00078e-05
1.69272e-05
-5.06606e-05
1.75492e-05
-5.12351e-05
1.81013e-05
-5.17678e-05
1.85987e-05
-5.22748e-05
1.90502e-05
-5.27615e-05
1.94611e-05
-5.32277e-05
1.98342e-05
-5.36706e-05
2.01713e-05
-5.40852e-05
2.04744e-05
-5.44642e-05
2.07464e-05
-5.47972e-05
2.09911e-05
-5.50702e-05
2.12141e-05
-5.52661e-05
2.14229e-05
-5.53641e-05
2.16282e-05
-5.534e-05
2.1849e-05
-5.51652e-05
-5.48041e-05
4.7321e-06
-2.85261e-05
6.95828e-06
-3.68093e-05
8.8888e-06
-4.22949e-05
1.04284e-05
-4.56788e-05
1.16212e-05
-4.77447e-05
1.25448e-05
-4.90482e-05
1.32708e-05
-4.9931e-05
1.38566e-05
-5.05935e-05
1.43447e-05
-5.11487e-05
1.47643e-05
-5.16547e-05
1.51337e-05
-5.21372e-05
1.54633e-05
-5.26044e-05
1.57582e-05
-5.30565e-05
1.60209e-05
-5.34903e-05
1.62522e-05
-5.39019e-05
1.64529e-05
-5.42859e-05
1.66244e-05
-5.46357e-05
1.67694e-05
-5.49422e-05
1.68925e-05
-5.51933e-05
1.70001e-05
-5.53737e-05
1.71009e-05
-5.54648e-05
1.7206e-05
-5.54451e-05
1.73346e-05
-5.52938e-05
-5.49918e-05
4.4137e-06
-3.05745e-05
6.37584e-06
-3.87715e-05
7.95817e-06
-4.38772e-05
9.14252e-06
-4.68632e-05
1.00081e-05
-4.86103e-05
1.06402e-05
-4.96803e-05
1.11086e-05
-5.03994e-05
1.14664e-05
-5.09514e-05
1.17511e-05
-5.14333e-05
1.19864e-05
-5.18901e-05
1.2186e-05
-5.23367e-05
1.23563e-05
-5.27747e-05
1.25e-05
-5.32002e-05
1.26179e-05
-5.36082e-05
1.27099e-05
-5.39939e-05
1.27761e-05
-5.43521e-05
1.28174e-05
-5.4677e-05
1.28362e-05
-5.4961e-05
1.28372e-05
-5.51943e-05
1.28275e-05
-5.5364e-05
1.2816e-05
-5.54533e-05
1.28143e-05
-5.54433e-05
1.28423e-05
-5.53218e-05
-5.50881e-05
3.97107e-06
-3.24392e-05
5.63408e-06
-4.04345e-05
6.87538e-06
-4.51185e-05
7.73459e-06
-4.77224e-05
8.3076e-06
-4.91833e-05
8.67989e-06
-5.00526e-05
8.91772e-06
-5.06372e-05
9.06937e-06
-5.1103e-05
9.16699e-06
-5.1531e-05
9.22947e-06
-5.19525e-05
9.26636e-06
-5.23736e-05
9.28173e-06
-5.27901e-05
9.27688e-06
-5.31953e-05
9.25181e-06
-5.35832e-05
9.20608e-06
-5.39482e-05
9.13944e-06
-5.42855e-05
9.05235e-06
-5.45899e-05
8.94676e-06
-5.48554e-05
8.8268e-06
-5.50744e-05
8.69919e-06
-5.52364e-05
8.5723e-06
-5.53264e-05
8.4549e-06
-5.53259e-05
8.36911e-06
-5.5236e-05
-5.509e-05
3.41753e-06
-3.40767e-05
4.76772e-06
-4.17847e-05
5.68578e-06
-4.60366e-05
6.24919e-06
-4.82858e-05
6.55856e-06
-4.94927e-05
6.69614e-06
-5.01901e-05
6.72373e-06
-5.06648e-05
6.68464e-06
-5.10639e-05
6.60598e-06
-5.14523e-05
6.50235e-06
-5.18489e-05
6.38046e-06
-5.22517e-05
6.24284e-06
-5.26525e-05
6.09017e-06
-5.30427e-05
5.92242e-06
-5.34154e-05
5.73935e-06
-5.37651e-05
5.54087e-06
-5.4087e-05
5.32739e-06
-5.43764e-05
5.10036e-06
-5.46284e-05
4.86294e-06
-5.48369e-05
4.62118e-06
-5.49946e-05
4.38508e-06
-5.50903e-05
4.16125e-06
-5.51021e-05
3.90098e-06
-5.49758e-05
-5.50088e-05
2.77181e-06
-3.54569e-05
3.81042e-06
-4.28233e-05
4.42734e-06
-4.66535e-05
4.72134e-06
-4.85798e-05
4.79075e-06
-4.95621e-05
4.71309e-06
-5.01125e-05
4.54551e-06
-5.04972e-05
4.32645e-06
-5.08449e-05
4.07841e-06
-5.12043e-05
3.81263e-06
-5.15831e-05
3.53377e-06
-5.19729e-05
3.24349e-06
-5.23622e-05
2.94235e-06
-5.27415e-05
2.63063e-06
-5.31037e-05
2.30866e-06
-5.34432e-05
1.97702e-06
-5.37554e-05
1.63672e-06
-5.40361e-05
1.2896e-06
-5.42812e-05
9.3858e-07
-5.44859e-05
5.87864e-07
-5.46439e-05
2.45768e-07
-5.47482e-05
-5.43984e-08
-5.4802e-05
-1.78751e-07
-5.48514e-05
-5.45538e-05
2.05522e-06
-3.65629e-05
2.79244e-06
-4.35605e-05
3.13116e-06
-4.69922e-05
3.17872e-06
-4.86274e-05
3.02727e-06
-4.94107e-05
2.74937e-06
-4.98346e-05
2.39771e-06
-5.01455e-05
2.00617e-06
-5.04533e-05
1.59328e-06
-5.07914e-05
1.16769e-06
-5.11575e-05
7.32651e-07
-5.15378e-05
2.89312e-07
-5.19189e-05
-1.61768e-07
-5.22905e-05
-6.20014e-07
-5.26455e-05
-1.08467e-06
-5.29785e-05
-1.55472e-06
-5.32853e-05
-2.02876e-06
-5.35621e-05
-2.50493e-06
-5.38051e-05
-2.98056e-06
-5.40103e-05
-3.45069e-06
-5.41738e-05
-3.90531e-06
-5.42936e-05
-4.33906e-06
-5.43682e-05
-4.82916e-06
-5.43613e-05
-5.42436e-05
1.28934e-06
-3.73882e-05
1.74042e-06
-4.40116e-05
1.82304e-06
-4.70748e-05
1.64363e-06
-4.8448e-05
1.28656e-06
-4.90536e-05
8.19883e-07
-4.93679e-05
2.92224e-07
-4.96179e-05
-2.6655e-07
-4.98946e-05
-8.40945e-07
-5.0217e-05
-1.42455e-06
-5.05739e-05
-2.01505e-06
-5.09473e-05
-2.6116e-06
-5.13223e-05
-3.2136e-06
-5.16884e-05
-3.82039e-06
-5.20387e-05
-4.43103e-06
-5.23679e-05
-5.04443e-06
-5.26719e-05
-5.65923e-06
-5.29473e-05
-6.27371e-06
-5.31906e-05
-6.88556e-06
-5.33984e-05
-7.49151e-06
-5.35678e-05
-8.08893e-06
-5.36962e-05
-8.67952e-06
-5.37776e-05
-9.24798e-06
-5.37929e-05
-5.3779e-05
4.94464e-07
-3.79322e-05
6.78204e-07
-4.41953e-05
5.25059e-07
-4.69217e-05
1.34521e-07
-4.80574e-05
-4.16422e-07
-4.85027e-05
-1.06308e-06
-4.87212e-05
-1.76045e-06
-4.89205e-05
-2.48218e-06
-4.91728e-05
-3.21562e-06
-4.94836e-05
-3.95555e-06
-4.9834e-05
-4.70034e-06
-5.02025e-05
-5.44932e-06
-5.05733e-05
-6.20188e-06
-5.09359e-05
-6.95723e-06
-5.12833e-05
-7.71439e-06
-5.16107e-05
-8.47223e-06
-5.19141e-05
-9.2294e-06
-5.21901e-05
-9.98421e-06
-5.24358e-05
-1.07344e-05
-5.26483e-05
-1.14768e-05
-5.28253e-05
-1.22082e-05
-5.29648e-05
-1.29231e-05
-5.30627e-05
-1.36051e-05
-5.31109e-05
-5.317e-05
-3.11297e-07
-3.82059e-05
-3.72003e-07
-4.41346e-05
-7.43663e-07
-4.655e-05
-1.33304e-06
-4.74681e-05
-2.06856e-06
-4.77671e-05
-2.88865e-06
-4.79012e-05
-3.75116e-06
-4.8058e-05
-4.63259e-06
-4.82914e-05
-5.52238e-06
-4.85938e-05
-6.41651e-06
-4.89399e-05
-7.31372e-06
-4.93053e-05
-8.21337e-06
-4.96737e-05
-9.11471e-06
-5.00345e-05
-1.00168e-05
-5.03812e-05
-1.09185e-05
-5.0709e-05
-1.18186e-05
-5.1014e-05
-1.27156e-05
-5.12931e-05
-1.36076e-05
-5.15438e-05
-1.44922e-05
-5.17637e-05
-1.5366e-05
-5.19515e-05
-1.62248e-05
-5.2106e-05
-1.70623e-05
-5.22253e-05
-1.78665e-05
-5.23066e-05
-5.24258e-05
-1.10923e-06
-3.82186e-05
-1.39735e-06
-4.38465e-05
-1.96694e-06
-4.59804e-05
-2.74582e-06
-4.66892e-05
-3.65945e-06
-4.68535e-05
-4.64777e-06
-4.69128e-05
-5.67134e-06
-4.70344e-05
-6.70932e-06
-4.72534e-05
-7.75281e-06
-4.75503e-05
-8.79864e-06
-4.7894e-05
-9.84577e-06
-4.82582e-05
-1.08935e-05
-4.8626e-05
-1.19408e-05
-4.89872e-05
-1.29867e-05
-4.93354e-05
-1.40298e-05
-4.96659e-05
-1.50688e-05
-4.9975e-05
-1.6102e-05
-5.02599e-05
-1.71274e-05
-5.05183e-05
-1.81425e-05
-5.07487e-05
-1.91438e-05
-5.09502e-05
-2.01271e-05
-5.11228e-05
-2.10863e-05
-5.1266e-05
-2.20123e-05
-5.13806e-05
-5.15525e-05
-1.87958e-06
-3.79867e-05
-2.37158e-06
-4.33545e-05
-3.13057e-06
-4.52214e-05
-4.0928e-06
-4.5727e-05
-5.17947e-06
-4.57668e-05
-6.33188e-06
-4.57604e-05
-7.51304e-06
-4.58533e-05
-8.70452e-06
-4.60619e-05
-9.89884e-06
-4.63559e-05
-1.10935e-05
-4.66994e-05
-1.22874e-05
-4.70642e-05
-1.34799e-05
-4.74335e-05
-1.46698e-05
-4.77973e-05
-1.58558e-05
-4.81494e-05
-1.70364e-05
-4.84852e-05
-1.82102e-05
-4.88012e-05
-1.93755e-05
-4.90946e-05
-2.05304e-05
-4.93635e-05
-2.16721e-05
-4.96069e-05
-2.27974e-05
-4.98248e-05
-2.39023e-05
-5.00179e-05
-2.49815e-05
-5.01869e-05
-2.60273e-05
-5.03347e-05
-5.05543e-05
-2.60222e-06
-3.75292e-05
-3.27833e-06
-4.26784e-05
-4.2227e-06
-4.42771e-05
-5.36392e-06
-4.45857e-05
-6.62008e-06
-4.45107e-05
-7.9333e-06
-4.44472e-05
-9.26896e-06
-4.45176e-05
-1.06109e-05
-4.472e-05
-1.19529e-05
-4.50139e-05
-1.3293e-05
-4.53594e-05
-1.46302e-05
-4.5727e-05
-1.59637e-05
-4.61e-05
-1.72921e-05
-4.64689e-05
-1.8614e-05
-4.68275e-05
-1.99279e-05
-4.71713e-05
-2.12323e-05
-4.74968e-05
-2.25256e-05
-4.78013e-05
-2.38057e-05
-4.80834e-05
-2.50703e-05
-4.83423e-05
-2.63162e-05
-4.85789e-05
-2.75396e-05
-4.87945e-05
-2.87359e-05
-4.89906e-05
-2.98987e-05
-4.9172e-05
-4.94351e-05
-3.25604e-06
-3.68669e-05
-4.1001e-06
-4.18343e-05
-5.23148e-06
-4.31457e-05
-6.54976e-06
-4.32675e-05
-7.97358e-06
-4.30869e-05
-9.4452e-06
-4.29756e-05
-1.09325e-05
-4.30303e-05
-1.24217e-05
-4.32308e-05
-1.3908e-05
-4.35277e-05
-1.53897e-05
-4.38776e-05
-1.68662e-05
-4.42505e-05
-1.83363e-05
-4.46299e-05
-1.97987e-05
-4.50065e-05
-2.1252e-05
-4.53742e-05
-2.26947e-05
-4.57286e-05
-2.41252e-05
-4.60663e-05
-2.5542e-05
-4.63846e-05
-2.69432e-05
-4.66821e-05
-2.83266e-05
-4.6959e-05
-2.96892e-05
-4.72163e-05
-3.10275e-05
-4.74562e-05
-3.23373e-05
-4.76808e-05
-3.36135e-05
-4.78958e-05
-4.81994e-05
-3.8168e-06
-3.60205e-05
-4.82082e-06
-4.08303e-05
-6.14193e-06
-4.18246e-05
-7.64151e-06
-4.17679e-05
-9.23342e-06
-4.14949e-05
-1.08617e-05
-4.13473e-05
-1.2498e-05
-4.1394e-05
-1.41312e-05
-4.15976e-05
-1.57578e-05
-4.19011e-05
-1.73769e-05
-4.22584e-05
-1.8988e-05
-4.26394e-05
-2.05901e-05
-4.30279e-05
-2.21817e-05
-4.34149e-05
-2.37614e-05
-4.37945e-05
-2.53279e-05
-4.41622e-05
-2.68796e-05
-4.45145e-05
-2.84152e-05
-4.4849e-05
-2.99329e-05
-4.51644e-05
-3.14306e-05
-4.54613e-05
-3.29055e-05
-4.57414e-05
-3.43545e-05
-4.60073e-05
-3.57738e-05
-4.62615e-05
-3.71591e-05
-4.65105e-05
-4.68515e-05
-4.24935e-06
-3.50126e-05
-5.42486e-06
-3.96548e-05
-6.94447e-06
-4.0305e-05
-8.63273e-06
-4.00796e-05
-1.03946e-05
-3.97331e-05
-1.21783e-05
-3.95635e-05
-1.39608e-05
-3.96116e-05
-1.57342e-05
-3.98242e-05
-1.74968e-05
-4.01384e-05
-1.92486e-05
-4.05067e-05
-2.09893e-05
-4.08987e-05
-2.27179e-05
-4.12992e-05
-2.44334e-05
-4.16995e-05
-2.61342e-05
-4.20936e-05
-2.78192e-05
-4.24772e-05
-2.9487e-05
-4.28467e-05
-3.11363e-05
-4.31997e-05
-3.27654e-05
-4.35353e-05
-3.43724e-05
-4.38543e-05
-3.59548e-05
-4.41591e-05
-3.75094e-05
-4.44526e-05
-3.90333e-05
-4.47376e-05
-4.05231e-05
-4.50207e-05
-4.53964e-05
-4.51239e-06
-3.38612e-05
-5.89386e-06
-3.82733e-05
-7.63082e-06
-3.8568e-05
-9.51886e-06
-3.81916e-05
-1.14538e-05
-3.77982e-05
-1.33921e-05
-3.76252e-05
-1.53176e-05
-3.76861e-05
-1.72268e-05
-3.7915e-05
-1.91205e-05
-3.82448e-05
-2.09994e-05
-3.86277e-05
-2.28639e-05
-3.90342e-05
-2.47134e-05
-3.94497e-05
-2.65469e-05
-3.9866e-05
-2.83631e-05
-4.02774e-05
-3.01609e-05
-4.06794e-05
-3.19391e-05
-4.10685e-05
-3.36964e-05
-4.14423e-05
-3.54315e-05
-4.18002e-05
-3.71423e-05
-4.21435e-05
-3.88265e-05
-4.24749e-05
-4.04814e-05
-4.27977e-05
-4.21045e-05
-4.31144e-05
-4.36937e-05
-4.34315e-05
-4.38395e-05
-4.55099e-06
-3.2575e-05
-6.20205e-06
-3.66222e-05
-8.19402e-06
-3.6576e-05
-1.0299e-05
-3.60866e-05
-1.24111e-05
-3.56861e-05
-1.45023e-05
-3.55341e-05
-1.65666e-05
-3.56218e-05
-1.86064e-05
-3.58752e-05
-2.06251e-05
-3.62261e-05
-2.26249e-05
-3.66278e-05
-2.46069e-05
-3.70523e-05
-2.65708e-05
-3.74858e-05
-2.85159e-05
-3.79209e-05
-3.04411e-05
-3.83522e-05
-3.23455e-05
-3.87751e-05
-3.42279e-05
-3.9186e-05
-3.60874e-05
-3.95829e-05
-3.79223e-05
-3.99653e-05
-3.97308e-05
-4.03349e-05
-4.15107e-05
-4.0695e-05
-4.32598e-05
-4.10486e-05
-4.49764e-05
-4.13978e-05
-4.66593e-05
-4.17486e-05
-4.21866e-05
-4.22231e-06
-3.12914e-05
-6.31885e-06
-3.45257e-05
-8.6408e-06
-3.42541e-05
-1.09812e-05
-3.37462e-05
-1.32716e-05
-3.33957e-05
-1.55111e-05
-3.32945e-05
-1.7708e-05
-3.3425e-05
-1.98713e-05
-3.37118e-05
-2.20078e-05
-3.40896e-05
-2.41213e-05
-3.45143e-05
-2.62136e-05
-3.496e-05
-2.82847e-05
-3.54147e-05
-3.03343e-05
-3.58713e-05
-3.23617e-05
-3.63248e-05
-3.43659e-05
-3.67708e-05
-3.63461e-05
-3.72059e-05
-3.8301e-05
-3.7628e-05
-4.02292e-05
-3.80371e-05
-4.21289e-05
-3.84352e-05
-4.39981e-05
-3.88259e-05
-4.58349e-05
-3.92118e-05
-4.76384e-05
-3.95943e-05
-4.94086e-05
-3.99784e-05
-4.04436e-05
-3.15999e-06
-3.03776e-05
-6.27714e-06
-3.14086e-05
-9.0151e-06
-3.15161e-05
-1.15869e-05
-3.11744e-05
-1.40455e-05
-3.09371e-05
-1.64232e-05
-3.09167e-05
-1.8743e-05
-3.11052e-05
-2.10209e-05
-3.14339e-05
-2.32666e-05
-3.18439e-05
-2.54855e-05
-3.22954e-05
-2.76799e-05
-3.27657e-05
-2.98504e-05
-3.32442e-05
-3.19969e-05
-3.37248e-05
-3.41188e-05
-3.42028e-05
-3.62156e-05
-3.46741e-05
-3.82861e-05
-3.51353e-05
-4.03294e-05
-3.55847e-05
-4.2344e-05
-3.60225e-05
-4.43281e-05
-3.64512e-05
-4.62798e-05
-3.68742e-05
-4.81975e-05
-3.7294e-05
-5.00804e-05
-3.77114e-05
-5.1929e-05
-3.81298e-05
-3.86141e-05
-3.60454e-07
3.60454e-07
-1.02912e-06
6.68665e-07
-1.69981e-06
6.70693e-07
-1.97061e-06
2.70795e-07
-3.55491e-07
-1.61512e-06
-3.28508e-06
2.92959e-06
-4.6059e-07
8.21044e-07
-1.04329e-06
1.25136e-06
-1.49734e-06
1.12475e-06
-1.58655e-06
3.6e-07
-1.13184e-06
-2.06982e-06
-4.71814e-06
3.01211e-07
-4.81914e-07
1.30296e-06
-9.65753e-07
1.7352e-06
-1.31957e-06
1.47856e-06
-1.40101e-06
4.41447e-07
-1.31283e-06
-2.158e-06
-5.27927e-06
-7.51699e-07
-4.74595e-07
1.77755e-06
-8.8164e-07
2.14225e-06
-1.18765e-06
1.78457e-06
-1.32613e-06
5.79929e-07
-1.47903e-06
-2.00511e-06
-5.17815e-06
-1.58015e-06
-4.47757e-07
2.22531e-06
-7.96987e-07
2.49148e-06
-1.08582e-06
2.07341e-06
-1.31018e-06
8.04287e-07
-1.67454e-06
-1.64074e-06
-4.5972e-06
-2.25549e-06
-4.06721e-07
2.63203e-06
-7.11273e-07
2.79603e-06
-1.00077e-06
2.36291e-06
-1.31922e-06
1.12274e-06
-1.87055e-06
-1.08942e-06
-3.69693e-06
-2.77082e-06
-3.55992e-07
2.98802e-06
-6.23214e-07
3.06325e-06
-9.20405e-07
2.6601e-06
-1.32711e-06
1.52944e-06
-2.03226e-06
-3.84263e-07
-2.58565e-06
-3.14355e-06
-2.97889e-07
3.28591e-06
-5.30772e-07
3.29613e-06
-8.35193e-07
2.96452e-06
-1.31466e-06
2.00891e-06
-2.13717e-06
4.38252e-07
-1.33672e-06
-3.3861e-06
-2.33994e-07
3.51991e-06
-4.319e-07
3.49404e-06
-7.37412e-07
3.27003e-06
-1.26841e-06
2.53991e-06
-2.17207e-06
1.34191e-06
-3.02787e-09
-3.50577e-06
-1.65187e-07
3.68509e-06
-3.24982e-07
3.65384e-06
-6.21156e-07
3.5662e-06
-1.17915e-06
3.09791e-06
-2.12897e-06
2.29172e-06
1.3752e-06
-3.50719e-06
-9.21472e-08
3.77724e-06
-2.09007e-07
3.7707e-06
-4.82378e-07
3.83958e-06
-1.04088e-06
3.65641e-06
-2.00316e-06
3.254e-06
2.76528e-06
-3.39324e-06
-1.51549e-08
3.79239e-06
-8.3762e-08
3.8393e-06
-3.189e-07
4.07471e-06
-8.50282e-07
4.18779e-06
-1.79216e-06
4.19588e-06
4.13861e-06
-3.16549e-06
6.29747e-08
3.72942e-06
5.00132e-08
3.85226e-06
-1.30443e-07
4.25517e-06
-6.06426e-07
4.66377e-06
-1.49514e-06
5.0846e-06
5.46814e-06
-2.82467e-06
1.42146e-07
3.58727e-06
1.90634e-07
3.80378e-06
8.12725e-08
4.36453e-06
-3.10645e-07
5.05569e-06
-1.11281e-06
5.88676e-06
6.72641e-06
-2.37108e-06
2.19977e-07
3.3673e-06
3.35004e-07
3.68875e-06
3.12356e-07
4.38718e-06
3.30503e-08
5.335e-06
-6.47401e-07
6.56721e-06
7.88352e-06
-1.80452e-06
2.93638e-07
3.07366e-06
4.78832e-07
3.50356e-06
5.56692e-07
4.30932e-06
4.18385e-07
5.4733e-06
-1.02906e-07
7.0885e-06
8.90528e-06
-1.12466e-06
3.59611e-07
2.71405e-06
6.16452e-07
3.24671e-06
8.05678e-07
4.12009e-06
8.34982e-07
5.444e-06
5.13421e-07
7.41006e-06
9.75193e-06
-3.33229e-07
4.136e-07
2.30045e-06
7.40931e-07
2.91938e-06
1.04825e-06
3.81277e-06
1.26915e-06
5.2231e-06
1.19156e-06
7.48765e-06
1.037e-05
5.73468e-07
4.50602e-07
1.84985e-06
8.44328e-07
2.52566e-06
1.27099e-06
3.38612e-06
1.70239e-06
4.7917e-06
1.91518e-06
7.27486e-06
1.06887e-05
1.59651e-06
4.65196e-07
1.38465e-06
9.18097e-07
2.07276e-06
1.45838e-06
2.84584e-06
2.11062e-06
4.13945e-06
2.65915e-06
6.72634e-06
1.0616e-05
2.73185e-06
4.52242e-07
9.32407e-07
9.53684e-07
1.57131e-06
1.59314e-06
2.20637e-06
2.46216e-06
3.27044e-06
3.38522e-06
5.80329e-06
1.00105e-05
3.99071e-06
4.08476e-07
5.23931e-07
9.43031e-07
1.03676e-06
1.65602e-06
1.49338e-06
2.71118e-06
2.21528e-06
4.03625e-06
4.47822e-06
8.59738e-06
5.44937e-06
3.31144e-07
1.92788e-07
8.7425e-07
4.93652e-07
1.6216e-06
7.46037e-07
2.78257e-06
1.0543e-06
4.55558e-06
2.70521e-06
5.70904e-06
7.44391e-06
1.92788e-07
6.8644e-07
1.43248e-06
2.48678e-06
5.19199e-06
1.0901e-05
-2.73436e-06
-2.47136e-05
-6.36009e-06
-2.77828e-05
-9.38443e-06
-2.84918e-05
-1.21436e-05
-2.84152e-05
-1.47455e-05
-2.83352e-05
-1.72442e-05
-2.8418e-05
-1.96737e-05
-2.86756e-05
-2.2055e-05
-2.90527e-05
-2.43998e-05
-2.94991e-05
-2.67146e-05
-2.99806e-05
-2.90022e-05
-3.04781e-05
-3.12634e-05
-3.09829e-05
-3.34984e-05
-3.14898e-05
-3.57068e-05
-3.19945e-05
-3.7888e-05
-3.24929e-05
-4.00411e-05
-3.29822e-05
-4.2165e-05
-3.34607e-05
-4.42584e-05
-3.39291e-05
-4.63195e-05
-3.43901e-05
-4.83469e-05
-3.48469e-05
-5.03392e-05
-3.53017e-05
-5.22957e-05
-3.5755e-05
-5.42155e-05
-3.62099e-05
-3.67086e-05
-3.24568e-06
-2.11667e-05
-6.68142e-06
-2.43471e-05
-9.79944e-06
-2.53738e-05
-1.26724e-05
-2.55423e-05
-1.53806e-05
-2.5627e-05
-1.79777e-05
-2.58209e-05
-2.05009e-05
-2.61524e-05
-2.29727e-05
-2.65809e-05
-2.54055e-05
-2.70663e-05
-2.7806e-05
-2.75801e-05
-3.01771e-05
-2.8107e-05
-3.25198e-05
-2.86402e-05
-3.48343e-05
-2.91753e-05
-3.71204e-05
-2.97084e-05
-3.93774e-05
-3.02359e-05
-4.16046e-05
-3.0755e-05
-4.38007e-05
-3.12646e-05
-4.59646e-05
-3.17653e-05
-4.80948e-05
-3.22599e-05
-5.01903e-05
-3.27514e-05
-5.22504e-05
-3.32415e-05
-5.42745e-05
-3.37308e-05
-5.62616e-05
-3.42228e-05
-3.47373e-05
-3.85853e-06
-1.80599e-05
-7.12556e-06
-2.108e-05
-1.0243e-05
-2.22563e-05
-1.31711e-05
-2.26142e-05
-1.59505e-05
-2.28476e-05
-1.86234e-05
-2.31481e-05
-2.12237e-05
-2.35521e-05
-2.37724e-05
-2.40321e-05
-2.62814e-05
-2.45574e-05
-2.87569e-05
-2.51047e-05
-3.12013e-05
-2.56625e-05
-3.36158e-05
-2.62257e-05
-3.60005e-05
-2.67906e-05
-3.83552e-05
-2.73537e-05
-4.06791e-05
-2.79119e-05
-4.29715e-05
-2.84627e-05
-4.52311e-05
-2.90049e-05
-4.74569e-05
-2.95395e-05
-4.96478e-05
-3.00689e-05
-5.18035e-05
-3.05957e-05
-5.3924e-05
-3.11211e-05
-5.60094e-05
-3.16454e-05
-5.80598e-05
-3.21724e-05
-3.27109e-05
-4.46026e-06
-1.51798e-05
-7.58998e-06
-1.79503e-05
-1.06749e-05
-1.91714e-05
-1.36238e-05
-1.96652e-05
-1.64482e-05
-2.00232e-05
-1.91773e-05
-2.04189e-05
-2.18391e-05
-2.08903e-05
-2.44515e-05
-2.14196e-05
-2.70249e-05
-2.1984e-05
-2.95642e-05
-2.25653e-05
-3.20717e-05
-2.3155e-05
-3.45481e-05
-2.37494e-05
-3.69933e-05
-2.43453e-05
-3.94073e-05
-2.49398e-05
-4.17891e-05
-2.55301e-05
-4.41378e-05
-2.61139e-05
-4.64523e-05
-2.66904e-05
-4.87315e-05
-2.72603e-05
-5.0975e-05
-2.78255e-05
-5.31827e-05
-2.8388e-05
-5.53552e-05
-2.89486e-05
-5.74932e-05
-2.95074e-05
-5.95982e-05
-3.00674e-05
-3.06351e-05
-4.98948e-06
-1.24458e-05
-8.01611e-06
-1.49237e-05
-1.10609e-05
-1.61267e-05
-1.40126e-05
-1.67135e-05
-1.68641e-05
-1.71717e-05
-1.96338e-05
-1.76492e-05
-2.23431e-05
-1.8181e-05
-2.50067e-05
-1.8756e-05
-2.76328e-05
-1.9358e-05
-3.02251e-05
-1.99729e-05
-3.27852e-05
-2.0595e-05
-3.53133e-05
-2.12213e-05
-3.78095e-05
-2.18492e-05
-4.02733e-05
-2.2476e-05
-4.27038e-05
-2.30995e-05
-4.51001e-05
-2.37177e-05
-4.74607e-05
-2.43298e-05
-4.97851e-05
-2.4936e-05
-5.20729e-05
-2.55377e-05
-5.43245e-05
-2.61364e-05
-5.65406e-05
-2.67324e-05
-5.87223e-05
-2.73258e-05
-6.08708e-05
-2.79189e-05
-2.85169e-05
-5.41983e-06
-9.79678e-06
-8.37113e-06
-1.19724e-05
-1.13769e-05
-1.31209e-05
-1.43221e-05
-1.37684e-05
-1.71886e-05
-1.43052e-05
-1.99863e-05
-1.48514e-05
-2.27313e-05
-1.54361e-05
-2.54346e-05
-1.60527e-05
-2.81023e-05
-1.66903e-05
-3.07368e-05
-1.73384e-05
-3.33389e-05
-1.79929e-05
-3.59087e-05
-1.86515e-05
-3.8446e-05
-1.93119e-05
-4.09501e-05
-1.99719e-05
-4.34201e-05
-2.06295e-05
-4.58547e-05
-2.12831e-05
-4.82528e-05
-2.19316e-05
-5.06137e-05
-2.25751e-05
-5.29372e-05
-2.32142e-05
-5.52241e-05
-2.38495e-05
-5.74752e-05
-2.44813e-05
-5.96915e-05
-2.51096e-05
-6.18741e-05
-2.57362e-05
-2.63651e-05
-5.74013e-06
-7.2002e-06
-8.6359e-06
-9.07664e-06
-1.16066e-05
-1.01502e-05
-1.45406e-05
-1.08344e-05
-1.74134e-05
-1.14324e-05
-2.02292e-05
-1.20356e-05
-2.29992e-05
-1.26661e-05
-2.57316e-05
-1.33204e-05
-2.84303e-05
-1.39916e-05
-3.10965e-05
-1.46721e-05
-3.37305e-05
-1.5359e-05
-3.63318e-05
-1.60501e-05
-3.89002e-05
-1.67435e-05
-4.14349e-05
-1.74372e-05
-4.39348e-05
-1.81296e-05
-4.63987e-05
-1.88192e-05
-4.88252e-05
-1.95051e-05
-5.12138e-05
-2.01866e-05
-5.35644e-05
-2.08635e-05
-5.58779e-05
-2.1536e-05
-5.81551e-05
-2.22041e-05
-6.03969e-05
-2.28678e-05
-6.26047e-05
-2.35284e-05
-2.41886e-05
-5.94615e-06
-4.64015e-06
-8.79918e-06
-6.22361e-06
-1.17388e-05
-7.21057e-06
-1.46593e-05
-7.91392e-06
-1.75325e-05
-8.55921e-06
-2.03582e-05
-9.20985e-06
-2.31439e-05
-9.88039e-06
-2.5895e-05
-1.05693e-05
-2.86142e-05
-1.12724e-05
-3.13018e-05
-1.19846e-05
-3.39572e-05
-1.27035e-05
-3.65801e-05
-1.34273e-05
-3.91697e-05
-1.41539e-05
-4.17253e-05
-1.48817e-05
-4.42457e-05
-1.56092e-05
-4.67295e-05
-1.63354e-05
-4.91754e-05
-1.70591e-05
-5.15829e-05
-1.77791e-05
-5.39518e-05
-1.84945e-05
-5.62831e-05
-1.92048e-05
-5.85774e-05
-1.99097e-05
-6.08357e-05
-2.06094e-05
-6.30595e-05
-2.13046e-05
-2.19966e-05
-6.03599e-06
-2.10992e-06
-8.85417e-06
-3.40544e-06
-1.17665e-05
-4.29822e-06
-1.46725e-05
-5.008e-06
-1.75416e-05
-5.69007e-06
-2.03702e-05
-6.38127e-06
-2.31626e-05
-7.08799e-06
-2.59227e-05
-7.80918e-06
-2.86522e-05
-8.54285e-06
-3.13507e-05
-9.28607e-06
-3.40174e-05
-1.00368e-05
-3.66515e-05
-1.07931e-05
-3.92524e-05
-1.1553e-05
-4.18191e-05
-1.2315e-05
-4.43505e-05
-1.30779e-05
-4.68451e-05
-1.38408e-05
-4.93016e-05
-1.46026e-05
-5.17191e-05
-1.53616e-05
-5.40977e-05
-1.61159e-05
-5.6438e-05
-1.68644e-05
-5.87409e-05
-1.76068e-05
-6.1007e-05
-1.83434e-05
-6.32373e-05
-1.90743e-05
-1.97986e-05
-6.0085e-06
3.91386e-07
-8.79672e-06
-6.17217e-07
-1.1685e-05
-1.40992e-06
-1.45762e-05
-2.11682e-06
-1.74374e-05
-2.82886e-06
-2.02621e-05
-3.55662e-06
-2.30528e-05
-4.29729e-06
-2.58125e-05
-5.04942e-06
-2.85425e-05
-5.81287e-06
-3.1242e-05
-6.5866e-06
-3.39099e-05
-7.3689e-06
-3.65455e-05
-8.15756e-06
-3.9148e-05
-8.95058e-06
-4.17163e-05
-9.74662e-06
-4.42492e-05
-1.05449e-05
-4.67453e-05
-1.13447e-05
-4.92031e-05
-1.21448e-05
-5.16217e-05
-1.29431e-05
-5.40008e-05
-1.37368e-05
-5.6341e-05
-1.45242e-05
-5.86431e-05
-1.53047e-05
-6.09079e-05
-1.60786e-05
-6.31368e-05
-1.68454e-05
-1.76035e-05
-5.86291e-06
2.86106e-06
-8.62419e-06
2.14406e-06
-1.14912e-05
1.45707e-06
-1.43673e-05
7.59328e-07
-1.72171e-05
2.08833e-08
-2.00318e-05
-7.41894e-07
-2.28132e-05
-1.51589e-06
-2.5564e-05
-2.29864e-06
-2.82852e-05
-3.09164e-06
-3.09762e-05
-3.89565e-06
-3.36358e-05
-4.70928e-06
-3.62632e-05
-5.53016e-06
-3.88575e-05
-6.35626e-06
-4.14177e-05
-7.18639e-06
-4.39426e-05
-8.02001e-06
-4.64307e-05
-8.85661e-06
-4.88807e-05
-9.69492e-06
-5.12913e-05
-1.05324e-05
-5.36622e-05
-1.13659e-05
-5.59937e-05
-1.21927e-05
-5.82864e-05
-1.30121e-05
-6.05409e-05
-1.3824e-05
-6.27585e-05
-1.46278e-05
-1.54203e-05
-5.5984e-06
5.29397e-06
-8.33448e-06
4.88014e-06
-1.11829e-05
4.30551e-06
-1.40443e-05
3.62068e-06
-1.68798e-05
2.85644e-06
-1.96795e-05
2.05774e-06
-2.24446e-05
1.24923e-06
-2.51782e-05
4.3497e-07
-2.78818e-05
-3.88057e-07
-3.05549e-05
-1.22258e-06
-3.31965e-05
-2.06761e-06
-3.5806e-05
-2.92072e-06
-3.83823e-05
-3.7799e-06
-4.09247e-05
-4.64404e-06
-4.34319e-05
-5.51281e-06
-4.59026e-05
-6.38588e-06
-4.83354e-05
-7.26208e-06
-5.07291e-05
-8.13871e-06
-5.3083e-05
-9.01203e-06
-5.53969e-05
-9.87882e-06
-5.76713e-05
-1.07377e-05
-5.99066e-05
-1.15887e-05
-6.21041e-05
-1.24304e-05
-1.32583e-05
-5.21434e-06
7.68364e-06
-7.9265e-06
7.5923e-06
-1.07597e-05
7.13869e-06
-1.36072e-05
6.46821e-06
-1.64265e-05
5.67576e-06
-1.92064e-05
4.83763e-06
-2.19487e-05
3.9915e-06
-2.46572e-05
3.14349e-06
-2.73343e-05
2.28906e-06
-2.99802e-05
1.42331e-06
-3.25943e-05
5.46493e-07
-3.5176e-05
-3.39021e-07
-3.77247e-05
-1.23127e-06
-4.02394e-05
-2.12928e-06
-4.27193e-05
-3.03289e-06
-4.51632e-05
-3.94202e-06
-4.75697e-05
-4.85563e-06
-4.99373e-05
-5.77102e-06
-5.22652e-05
-6.68416e-06
-5.45528e-05
-7.59124e-06
-5.68001e-05
-8.49036e-06
-5.90076e-05