/*--------------------------------*- C++ -*----------------------------------*\
  =========                 |
  \\      /  F ield         | OpenFOAM: The Open Source CFD Toolbox
   \\    /   O peration     | Website:  https://openfoam.org
    \\  /    A nd           | Version:  11
     \\/     M anipulation  |
\*---------------------------------------------------------------------------*/
FoamFile
{
    format      ascii;
    class       surfaceVectorField;
    location    "0.66";
    object      Uf;
}
// * * * * * * * * * * * * * * * * * * * * * * * * * * * * * * * * * * * * * //

dimensions      [0 1 -1 0 0 0 0];

internalField   nonuniform List<vector> 
5640
(
(-0.11668 -0.0796013 4.41323e-22)
(-0.100369 -0.0494622 0)
(-0.18992 -0.168363 -4.81931e-21)
(-0.185079 -0.14459 6.61914e-21)
(-0.202009 -0.192344 2.20086e-20)
(-0.212051 -0.189448 -5.54347e-21)
(-0.153635 -0.144657 5.61316e-20)
(-0.172749 -0.153139 -4.27413e-20)
(-0.0434674 -0.00508793 3.57365e-20)
(-0.0911843 -0.0946084 -3.96202e-20)
(0.0897539 0.108742 -1.89262e-20)
(0.251309 0.145237 3.0165e-20)
(-0.162562 -0.0992784 2.82119e-21)
(-0.137953 -0.0688488 0)
(-0.204259 -0.163447 3.12131e-21)
(-0.201351 -0.140216 3.8788e-21)
(-0.180089 -0.161642 -3.6032e-20)
(-0.195041 -0.166669 3.64909e-21)
(-0.0973386 -0.10724 -7.70066e-20)
(-0.123022 -0.124373 -2.56081e-20)
(0.0433671 -0.00938142 -7.24239e-20)
(-0.00278153 -0.0659893 -3.97846e-20)
(0.184258 0.0638563 1.15772e-20)
(0.310254 0.0974833 -4.58239e-20)
(-0.176223 -0.097093 8.33835e-22)
(-0.164714 -0.0731771 9.79765e-22)
(-0.19549 -0.142918 3.27297e-21)
(-0.206127 -0.125479 5.26781e-22)
(-0.143631 -0.133803 1.77067e-20)
(-0.173618 -0.141228 9.69279e-23)
(-0.0332135 -0.0819664 1.48259e-20)
(-0.0763874 -0.0997037 1.55291e-20)
(0.128355 -0.00612594 2.36201e-20)
(0.0698693 -0.0422141 -2.08834e-21)
(0.26921 0.0500262 2.84911e-20)
(0.374037 0.0759806 2.17517e-20)
(-0.187957 -0.0951558 1.87765e-22)
(-0.188047 -0.0749494 -5.93376e-21)
(-0.186121 -0.124793 -3.56668e-21)
(-0.207853 -0.114606 -9.33026e-22)
(-0.110484 -0.110307 -2.42883e-21)
(-0.152617 -0.118984 -3.76841e-21)
(0.0218577 -0.0617251 -2.27128e-22)
(-0.034738 -0.079716 1.10754e-21)
(0.20119 0.00399992 -1.54481e-21)
(0.131156 -0.0248624 -1.08147e-22)
(0.341516 0.0485893 3.76759e-21)
(0.438058 0.0703874 -2.88989e-22)
(-0.202806 -0.0905709 -4.59124e-22)
(-0.207904 -0.072947 -3.43273e-21)
(-0.176413 -0.109435 -4.01409e-22)
(-0.206905 -0.105174 -1.91714e-21)
(-0.0809914 -0.0907417 -3.96771e-22)
(-0.133164 -0.100051 -1.18122e-22)
(0.0693923 -0.0452741 1.92467e-21)
(0.00172018 -0.0630659 -1.46558e-22)
(0.263694 0.0140272 -9.35918e-22)
(0.183497 -0.0111497 -5.74788e-22)
(0.404132 0.0530665 -3.03637e-21)
(0.499464 0.0740917 -1.28523e-20)
(-0.212665 -0.0844306 -4.43324e-21)
(-0.224822 -0.0692798 2.60777e-21)
(-0.1666 -0.0959914 -1.59963e-21)
(-0.204509 -0.0958094 -2.70092e-22)
(-0.0550991 -0.0742197 1.47673e-22)
(-0.115888 -0.083843 4.64098e-22)
(0.110327 -0.0312454 -2.94222e-21)
(0.0329365 -0.048802 6.68744e-23)
(0.317506 0.0244585 -2.94093e-21)
(0.228319 0.000908574 -2.42024e-21)
(0.459211 0.0614683 4.68038e-22)
(0.556092 0.0836123 -2.333e-22)
(-0.218979 -0.0785815 4.36621e-21)
(-0.239324 -0.0663297 3.9543e-21)
(-0.15745 -0.0837448 1.75618e-21)
(-0.201596 -0.086458 2.44515e-21)
(-0.0329769 -0.0600008 1.2151e-22)
(-0.101296 -0.0698074 0)
(0.145188 -0.0185943 6.8989e-22)
(0.0589551 -0.0363613 1.25758e-22)
(0.36404 0.0357237 1.07177e-21)
(0.266356 0.0121855 7.8134e-22)
(0.507645 0.0727221 1.55666e-22)
(0.607429 0.0968736 1.0026e-21)
(-0.224297 -0.0730559 2.14339e-21)
(-0.25133 -0.0641234 8.29292e-23)
(-0.149634 -0.0725671 7.93023e-22)
(-0.198865 -0.0773734 1.64513e-23)
(-0.0148845 -0.0475942 0)
(-0.0897516 -0.0575035 0)
(0.174141 -0.00736496 1.41533e-22)
(0.0796226 -0.0254025 0)
(0.404003 0.0476374 -2.72993e-22)
(0.298079 0.022881 1.42811e-22)
(0.549709 0.0858599 -3.86335e-22)
(0.653057 0.112576 -2.99395e-22)
(-0.228776 -0.0680504 -2.12438e-21)
(-0.260792 -0.0626309 -1.33989e-21)
(-0.143596 -0.0623005 -7.82424e-22)
(-0.19677 -0.0685869 -6.83913e-22)
(-0.00103562 -0.0366489 0)
(-0.0815328 -0.0465817 -2.10449e-21)
(0.197318 0.00300471 -2.72631e-24)
(0.0948975 -0.0157597 -1.1221e-21)
(0.437646 0.0598246 3.08977e-23)
(0.323523 0.0329381 1.90761e-22)
(0.585402 0.100015 1.72848e-22)
(0.692537 0.129673 -4.40789e-22)
(-0.232326 -0.0635094 6.27344e-23)
(-0.267656 -0.0616537 -7.00043e-23)
(-0.139647 -0.0527854 -1.87626e-21)
(-0.195624 -0.0600457 6.65753e-23)
(0.00840379 -0.0269414 -3.24149e-21)
(-0.0768607 -0.0367668 -3.53115e-22)
(0.214621 0.0125119 -9.65421e-22)
(0.104687 -0.00734548 3.32738e-22)
(0.464908 0.0718865 3.39151e-22)
(0.342548 0.0421841 -1.85194e-23)
(0.614623 0.114443 1.44406e-22)
(0.725522 0.147378 6.12578e-22)
(-0.234964 -0.0592276 -7.4043e-23)
(-0.271891 -0.0608572 -7.00043e-23)
(-0.138012 -0.0438656 1.65789e-21)
(-0.195639 -0.051663 -5.35582e-21)
(0.0132394 -0.0183325 3.17776e-21)
(-0.0759177 -0.0278242 2.47892e-21)
(0.22591 0.0206647 1.25609e-21)
(0.108698 -0.000143645 1.18587e-21)
(0.485682 0.0833843 -1.9942e-22)
(0.355029 0.0503929 -1.11878e-22)
(0.637255 0.128501 -2.37223e-22)
(0.751833 0.165053 0)
(-0.236799 -0.0549008 -5.04683e-21)
(-0.273495 -0.059811 1.44235e-22)
(-0.138842 -0.0354247 -5.18063e-21)
(-0.196953 -0.0433547 -4.75234e-22)
(0.013274 -0.0106868 5.29095e-22)
(-0.0788279 -0.0195354 -4.24415e-21)
(0.230912 0.0277542 -2.85525e-22)
(0.106756 0.00584868 -2.20092e-22)
(0.499781 0.0938804 -2.28534e-22)
(0.360547 0.0573297 3.43239e-22)
(0.653178 0.141651 1.43415e-21)
(0.771403 0.182189 -1.42787e-21)
(-0.237845 -0.0503694 4.56503e-21)
(-0.272539 -0.0580488 1.44235e-22)
(-0.142256 -0.0272153 3.33473e-22)
(-0.199558 -0.0350486 -6.27694e-21)
(0.00833716 -0.00388502 -5.16013e-21)
(-0.0856857 -0.0116973 -9.9582e-21)
(0.229319 0.0335466 2.53066e-22)
(0.0986117 0.0106461 -4.87022e-22)
(0.506859 0.103192 1.8342e-21)
(0.35867 0.0628455 4.29753e-22)
(0.662223 0.153426 6.25774e-21)
(0.784154 0.198523 8.28177e-21)
(-0.238107 -0.0453714 -1.05358e-20)
(-0.269155 -0.0551078 6.53804e-22)
(-0.14827 -0.0190905 -1.64575e-20)
(-0.203338 -0.0266753 1.12853e-20)
(-0.00173014 0.0021862 -5.56705e-21)
(-0.0965096 -0.00412299 5.82423e-21)
(0.220751 0.0379796 -4.01928e-22)
(0.0840268 0.0142934 -3.51278e-23)
(0.506622 0.110887 4.35969e-21)
(0.348733 0.0668492 -2.99442e-22)
(0.6639 0.163252 -2.83884e-21)
(0.790291 0.213162 -3.5947e-21)
(-0.237633 -0.0395461 2.12797e-20)
(-0.263517 -0.0505207 9.95244e-22)
(-0.156756 -0.0110106 3.3713e-20)
(-0.208121 -0.0181733 1.51024e-22)
(-0.0170288 0.00766777 1.15605e-20)
(-0.111169 0.003358 2.21504e-20)
(0.204753 0.041033 -4.58947e-22)
(0.062803 0.0168842 -8.25048e-21)
(0.498364 0.116797 -7.80111e-21)
(0.329942 0.0693252 -4.01039e-22)
(0.65773 0.170481 5.23142e-21)
(0.789579 0.226162 -8.8303e-21)
(-0.236443 -0.032664 -2.06614e-20)
(-0.255946 -0.0437112 3.4144e-22)
(-0.167519 -0.00283326 -1.12199e-20)
(-0.213609 -0.00950201 -2.16845e-20)
(-0.037549 0.0127007 3.36642e-21)
(-0.129365 0.0108734 4.77202e-22)
(0.180838 0.042753 -8.94636e-21)
(0.0348524 0.0185804 -9.44491e-22)
(0.481248 0.120671 1.24965e-20)
(0.301312 0.0703314 -1.48817e-22)
(0.642881 0.17431 1.33998e-20)
(0.781763 0.236917 1.46499e-20)
(-0.234782 -0.0244773 5.31565e-22)
(-0.247112 -0.033717 0)
(-0.180224 0.00549116 -9.73506e-21)
(-0.219395 -0.000713204 1.37638e-20)
(-0.0631113 0.017455 -2.70183e-21)
(-0.150522 0.0184701 -1.14619e-20)
(0.148506 0.0432832 7.63062e-21)
(0.00029218 0.0196389 7.56322e-21)
(0.454121 0.122237 -1.72238e-22)
(0.26163 0.0700828 1.49969e-21)
(0.618154 0.173741 -9.23902e-21)
(0.766446 0.24495 9.24665e-21)
(-0.234273 -0.015276 1.16646e-20)
(-0.239331 -0.0175246 2.10835e-20)
(-0.194384 0.0138532 1.39059e-20)
(-0.224734 0.00756769 1.23787e-20)
(-0.0932137 0.0221079 -7.02931e-22)
(-0.173648 0.0260561 -1.58841e-20)
(0.107227 0.0430096 1.31329e-21)
(-0.0403229 0.0204403 0)
(0.41538 0.121227 -1.32354e-20)
(0.209372 0.0691047 2.22588e-21)
(0.581836 0.167515 -1.11482e-20)
(0.742823 0.249641 -1.21007e-20)
(-0.229842 0.000777557 2.22998e-20)
(-0.227237 -0.00263733 1.40619e-20)
(-0.208647 0.0217875 -1.45571e-20)
(-0.228382 0.013536 -1.06763e-20)
(-0.126813 0.0268297 -1.57178e-20)
(-0.197133 0.0334818 -1.49109e-20)
(0.0560769 0.0433183 8.50184e-22)
(-0.0853256 0.0216643 -5.95578e-22)
(0.36285 0.11743 -9.07047e-21)
(0.142373 0.0682527 -2.22186e-22)
(0.5315 0.154005 3.71656e-21)
(0.709624 0.250165 1.11696e-20)
(-0.220861 0.00807584 -3.0429e-20)
(-0.207374 0.00519016 -1.89568e-20)
(-0.22088 0.0283 -8.21273e-21)
(-0.228034 0.0182138 1.1419e-20)
(-0.161971 0.0317043 3.38053e-21)
(-0.219168 0.0412318 1.68447e-20)
(-0.00270872 0.0423161 -5.91148e-21)
(-0.132712 0.0231593 -3.81612e-21)
(0.294138 0.110823 3.25762e-21)
(0.0592602 0.0699579 1.71327e-21)
(0.464153 0.13096 8.54429e-21)
(0.665133 0.245794 2.19682e-20)
(-0.208626 0.0122611 2.5101e-20)
(-0.184088 0.0115319 -1.11879e-21)
(-0.230241 0.0349597 4.1714e-20)
(-0.223298 0.02342 1.14353e-20)
(-0.196387 0.0375254 1.48471e-20)
(-0.238738 0.0503002 4.08908e-20)
(-0.0699645 0.0430942 1.4907e-20)
(-0.177867 0.0252916 1.88631e-20)
(0.206861 0.100753 6.83618e-21)
(-0.0421498 0.0764197 -1.02743e-20)
(0.377569 0.0949509 3.89793e-21)
(0.607296 0.236374 5.06814e-20)
(-0.193298 0.0172771 -1.13539e-20)
(-0.158127 0.0172933 0)
(-0.236312 0.0425078 9.95635e-21)
(-0.212644 0.0289344 -1.08072e-20)
(-0.227913 0.0447265 5.35168e-20)
(-0.25449 0.0608327 -4.99481e-21)
(-0.142744 0.0453153 9.98521e-21)
(-0.215913 0.0290848 -5.52999e-21)
(0.101403 0.0811122 -3.53419e-20)
(-0.16391 0.0883822 -3.1775e-22)
(0.275676 0.0414341 6.8693e-20)
(0.532034 0.221133 -4.71748e-20)
(-0.172565 0.020783 1.1702e-21)
(-0.115229 0.011158 2.49834e-22)
(-0.236741 0.0501823 -1.88637e-20)
(-0.181321 0.0253438 9.29994e-22)
(-0.253662 0.0530133 -6.29818e-20)
(-0.255327 0.065887 -1.83396e-21)
(-0.218082 0.0508549 3.30006e-21)
(-0.234973 0.0323386 -2.90303e-20)
(-0.0349759 0.0574238 2.17015e-20)
(-0.30441 0.113079 2.4239e-20)
(0.153131 -0.0347822 9.02999e-20)
(0.436049 0.193104 5.6922e-20)
(-0.114265 0.010471 -2.80976e-21)
(-0.204904 0.0467587 2.29441e-20)
(-0.247285 0.0601527 2.16377e-20)
(-0.270856 0.0731255 5.85051e-20)
(-0.173223 0.0955166 7.62781e-20)
(0.345146 0.201686 -1.67369e-19)
(0.550541 0.0302472 -3.83613e-20)
(0.494402 0.0754754 3.44121e-20)
(0.433589 0.0171598 2.53159e-20)
(0.729786 0.034086 5.39397e-21)
(0.683045 0.0390473 -2.12573e-21)
(0.605548 -3.46572e-05 7.19837e-21)
(0.884127 0.059396 9.19219e-21)
(0.854865 0.0623864 7.39935e-21)
(0.767697 0.0244229 4.84094e-21)
(1.01442 0.0895255 1.99993e-21)
(0.997684 0.0933042 1.54463e-21)
(0.90938 0.0560636 -4.02795e-22)
(1.11888 0.116283 -1.70454e-21)
(1.10987 0.121137 4.25017e-21)
(1.02899 0.086687 -8.03719e-22)
(1.19809 0.136076 8.21036e-21)
(1.19326 0.141872 -5.07428e-21)
(1.12593 0.112426 -1.83191e-21)
(1.25501 0.14809 -1.39392e-21)
(1.25178 0.154393 1.91798e-20)
(1.20081 0.131154 7.606e-21)
(1.29361 0.153022 7.09049e-22)
(1.29066 0.159513 -1.56745e-20)
(1.25607 0.142394 -3.99681e-21)
(1.31727 0.152014 1.10344e-20)
(1.31422 0.158662 1.09129e-20)
(1.29508 0.147045 -5.57911e-22)
(1.33062 0.146774 1.27103e-20)
(1.32671 0.153475 0)
(1.31958 0.14592 0)
(1.33799 0.139166 1.62548e-22)
(1.33296 0.145589 1.28442e-20)
(1.33356 0.140681 1.28442e-20)
(1.34043 0.129832 1.3769e-20)
(1.33467 0.136149 -1.23784e-20)
(1.34178 0.132934 -2.33861e-20)
(1.33833 0.118725 1.46693e-20)
(1.33202 0.125119 -1.45754e-21)
(1.3458 0.123176 1.48926e-20)
(1.33298 0.106778 -1.23215e-20)
(1.32644 0.113297 1.62472e-21)
(1.34505 0.112148 8.90453e-21)
(1.32531 0.0947374 0)
(1.31882 0.101342 2.78281e-20)
(1.34041 0.100214 0)
(1.31584 0.0830668 -1.05188e-20)
(1.30961 0.0896844 -6.72905e-20)
(1.33296 0.0880598 -9.38294e-21)
(1.30468 0.0721064 -1.0676e-20)
(1.29889 0.0786331 2.83907e-20)
(1.32334 0.0762473 -2.00635e-20)
(1.29168 0.0621645 0)
(1.28655 0.068456 0)
(1.31174 0.0652063 -1.65017e-22)
(1.27653 0.0535569 0)
(1.27234 0.0594618 0)
(1.29807 0.0553452 1.81075e-20)
(1.25864 0.0466574 -8.62997e-21)
(1.25574 0.0518496 -2.22422e-20)
(1.28199 0.0469638 -7.88461e-21)
(1.23718 0.0419832 -8.73931e-21)
(1.23591 0.0458104 1.24491e-20)
(1.26268 0.0402857 1.12552e-22)
(1.21077 0.0403986 8.91274e-21)
(1.2123 0.0426919 3.30304e-20)
(1.23957 0.0365978 -7.24366e-21)
(1.1769 0.0435989 9.01768e-21)
(1.18539 0.0474601 -5.42887e-20)
(1.21312 0.0408149 -7.72041e-21)
(1.15277 0.0629487 4.18531e-20)
(1.18083 0.0571207 0)
(0.609814 0.052142 -2.91693e-20)
(0.537908 0.0762638 -3.6246e-20)
(0.805334 0.0660217 -2.07241e-21)
(0.752628 0.0673397 -2.09185e-21)
(0.965813 0.0949067 -4.19626e-21)
(0.933271 0.0970647 -6.03567e-21)
(1.09117 0.124 4.84823e-21)
(1.07243 0.128197 -1.95015e-21)
(1.18308 0.146401 1.0221e-21)
(1.17258 0.152166 1.06265e-21)
(1.24624 0.160137 5.84513e-21)
(1.24007 0.166862 -1.13132e-20)
(1.28695 0.165903 5.22869e-21)
(1.28265 0.173048 2.38939e-20)
(1.31094 0.165256 -5.78769e-21)
(1.30738 0.172661 -1.2468e-20)
(1.3236 0.160092 0)
(1.31979 0.16743 0)
(1.32924 0.152424 0)
(1.32477 0.159285 0)
(1.32966 0.142764 0)
(1.32472 0.149455 8.71848e-21)
(1.32619 0.131588 -2.78851e-20)
(1.3209 0.138207 1.6708e-20)
(1.32017 0.119801 -1.4618e-20)
(1.31469 0.126389 -3.5363e-20)
(1.31239 0.107941 4.15558e-20)
(1.30689 0.114518 2.21493e-20)
(1.30323 0.0963563 -3.8703e-20)
(1.29784 0.102904 1.97701e-20)
(1.29277 0.085314 -2.90955e-20)
(1.28767 0.0917743 -4.54836e-20)
(1.28089 0.0750531 3.92726e-20)
(1.27629 0.0813282 1.8034e-20)
(1.26735 0.0658142 0)
(1.26349 0.0717708 -2.01071e-20)
(1.25173 0.0578661 -2.20939e-20)
(1.24891 0.0633566 1.89664e-20)
(1.23341 0.0515345 7.78008e-22)
(1.23195 0.0562346 -1.57082e-20)
(1.21157 0.0472748 5.40917e-20)
(1.21181 0.0505348 -2.90223e-21)
(1.18492 0.0458012 -1.35681e-20)
(1.18796 0.0476313 7.57089e-20)
(1.15138 0.0484303 -1.62593e-19)
(1.16089 0.0524721 -6.31369e-20)
(1.12841 0.0668952 1.2575e-20)
(0.668437 0.0702514 -9.98737e-21)
(0.588472 0.0791413 6.11019e-21)
(0.876772 0.0967328 -5.00483e-21)
(0.820812 0.0954775 -5.19614e-23)
(1.03705 0.12902 -4.40049e-21)
(1.00319 0.131027 -4.2669e-21)
(1.15201 0.155593 -6.17249e-21)
(1.13278 0.160653 -1.53839e-21)
(1.22854 0.172376 -1.10225e-20)
(1.21774 0.179263 -7.85663e-21)
(1.27591 0.179778 6.62219e-21)
(1.26945 0.187548 -1.84019e-20)
(1.30281 0.179857 6.45358e-21)
(1.29832 0.187913 2.0031e-20)
(1.31617 0.174871 -6.82895e-21)
(1.31227 0.18281 -8.04506e-21)
(1.32098 0.166771 0)
(1.31698 0.174335 -1.95933e-22)
(1.32026 0.156544 8.62754e-21)
(1.31603 0.163846 -1.82254e-20)
(1.31597 0.145066 2.5348e-20)
(1.31151 0.152164 8.94157e-21)
(1.30947 0.133142 9.62351e-21)
(1.30486 0.140065 3.52261e-20)
(1.30151 0.121222 9.51731e-22)
(1.29683 0.128002 -3.30588e-20)
(1.29244 0.109578 3.83367e-22)
(1.28782 0.116238 1.76125e-20)
(1.28238 0.0984032 1.34312e-20)
(1.27796 0.104939 3.25653e-22)
(1.2713 0.0878633 1.16179e-21)
(1.26724 0.09423 5.87648e-21)
(1.259 0.0781258 -4.09998e-20)
(1.25548 0.0842391 -2.07624e-20)
(1.24515 0.0693779 -1.40746e-21)
(1.24239 0.0751198 -4.92848e-20)
(1.22927 0.0618452 2.55833e-20)
(1.22757 0.0670696 2.54758e-20)
(1.21071 0.0558119 -1.73068e-20)
(1.2104 0.0601981 5.46257e-20)
(1.18868 0.0516631 2.11334e-20)
(1.19012 0.0545723 -4.32375e-20)
(1.16208 0.0499723 5.98638e-20)
(1.16626 0.0515648 3.65186e-20)
(1.12918 0.0517291 4.2105e-20)
(1.13928 0.056122 2.62209e-20)
(1.10732 0.0693778 -4.93053e-20)
(0.730243 0.0911391 7.36099e-21)
(0.643466 0.0895509 8.64639e-21)
(0.942996 0.128116 1.40707e-21)
(0.88551 0.125319 -8.70214e-22)
(1.0962 0.161467 4.60127e-22)
(1.06256 0.163818 -2.384e-21)
(1.19693 0.183674 -3.56349e-21)
(1.17832 0.189819 -5.53918e-22)
(1.2578 0.194244 -1.51991e-20)
(1.24746 0.202316 7.85615e-22)
(1.29142 0.195714 -5.43177e-21)
(1.28522 0.204534 -8.39541e-21)
(1.30758 0.190983 5.85771e-21)
(1.30319 0.199876 -1.39351e-21)
(1.31301 0.182417 -1.50565e-21)
(1.30922 0.19101 7.77825e-21)
(1.31203 0.171619 -1.83379e-20)
(1.30831 0.179809 9.2435e-21)
(1.30733 0.159665 -1.81051e-20)
(1.30348 0.167456 -1.82254e-20)
(1.30047 0.14733 1.85468e-20)
(1.2965 0.15477 2.12955e-20)
(1.29231 0.135068 -7.00491e-21)
(1.28829 0.142216 8.78002e-21)
(1.28325 0.123141 -1.68136e-20)
(1.27926 0.130053 -5.57818e-20)
(1.27345 0.111704 1.76621e-20)
(1.2696 0.118417 8.79502e-21)
(1.26291 0.100857 -7.3101e-21)
(1.25931 0.107379 2.63656e-20)
(1.2515 0.0906923 -1.58551e-20)
(1.24827 0.0969899 -7.47684e-21)
(1.23895 0.0813158 -2.88492e-20)
(1.23628 0.0873162 -2.49225e-20)
(1.22489 0.0728682 -2.29569e-20)
(1.223 0.0784653 -1.23339e-20)
(1.20883 0.0655348 5.45715e-20)
(1.20803 0.0705849 6.53289e-21)
(1.19016 0.0595589 2.70386e-20)
(1.19078 0.0637518 2.59342e-20)
(1.16815 0.0552592 -2.54075e-20)
(1.17055 0.0579828 2.57255e-21)
(1.14184 0.0530878 1.97848e-20)
(1.14689 0.0546145 3.09193e-20)
(1.10987 0.0537713 7.85013e-20)
(1.12022 0.0586206 -1.01421e-20)
(1.08911 0.0707329 -1.28423e-20)
(0.790246 0.115024 -7.92356e-21)
(0.699062 0.105678 -5.44151e-21)
(1.00094 0.159204 -4.36349e-21)
(0.943773 0.155522 -3.53474e-21)
(1.14229 0.191118 -2.55792e-21)
(1.11009 0.194197 3.49927e-21)
(1.22754 0.207906 3.77279e-21)
(1.21019 0.215242 -1.15999e-21)
(1.27421 0.212468 7.86046e-21)
(1.26468 0.221703 3.83695e-21)
(1.29667 0.208775 -4.44541e-21)
(1.29093 0.218583 -1.40474e-21)
(1.30471 0.200067 4.47613e-22)
(1.30058 0.209755 -1.98242e-20)
(1.30451 0.188604 1.86704e-20)
(1.30092 0.197847 1.43888e-20)
(1.2998 0.175863 9.62414e-21)
(1.2963 0.184549 2.12381e-20)
(1.29273 0.162765 2.08671e-20)
(1.28917 0.170911 6.90235e-22)
(1.2844 0.149833 1.15735e-20)
(1.28081 0.157514 -1.17221e-20)
(1.27533 0.137352 -3.95022e-20)
(1.27178 0.14465 9.13096e-22)
(1.26572 0.125458 -3.06682e-20)
(1.26229 0.132444 -2.50596e-20)
(1.25556 0.114201 1.73537e-20)
(1.25233 0.120926 1.48632e-20)
(1.24476 0.103606 2.64541e-20)
(1.24182 0.110088 1.79955e-20)
(1.23314 0.093699 -1.64368e-20)
(1.2306 0.0999196 8.38232e-21)
(1.22041 0.0845376 -8.52224e-21)
(1.21845 0.0904395 -2.50727e-20)
(1.20622 0.0762235 1.69686e-20)
(1.20505 0.0817156 1.30321e-20)
(1.1901 0.0689078 -2.19888e-20)
(1.19002 0.0738535 4.39976e-21)
(1.17147 0.0627962 1.63057e-21)
(1.17282 0.0668936 -2.98969e-20)
(1.14968 0.0581495 5.87121e-20)
(1.15282 0.0608166 2.17609e-20)
(1.12392 0.0553144 1.88429e-20)
(1.12957 0.0569 2.96512e-20)
(1.09313 0.0548153 -2.93978e-20)
(1.10341 0.0601401 -3.2681e-20)
(1.07341 0.0712647 4.39899e-23)
(0.845532 0.140323 -2.58856e-21)
(0.752399 0.12533 1.63088e-22)
(1.04912 0.188628 5.07166e-21)
(0.993758 0.184728 -2.16642e-22)
(1.17597 0.21738 5.40297e-21)
(1.14596 0.221474 5.57457e-21)
(1.24629 0.228566 -1.17939e-21)
(1.23049 0.237124 -2.78852e-21)
(1.28092 0.227736 -5.18962e-21)
(1.27231 0.238069 2.79537e-21)
(1.29465 0.219688 -1.65272e-20)
(1.2894 0.230387 -2.62061e-21)
(1.29676 0.207742 -6.27449e-21)
(1.29288 0.218115 7.71407e-22)
(1.29275 0.194025 1.68749e-20)
(1.2893 0.203771 -1.26811e-21)
(1.28573 0.179826 1.24115e-20)
(1.28234 0.188875 2.43794e-20)
(1.27733 0.165869 -3.18893e-20)
(1.27394 0.174268 -5.83475e-21)
(1.26828 0.152512 -2.25248e-20)
(1.26495 0.160355 -3.28268e-20)
(1.25883 0.139895 1.56043e-20)
(1.25563 0.14728 2.26248e-20)
(1.249 0.128041 2.0237e-20)
(1.246 0.135049 -2.92582e-20)
(1.23868 0.116921 1.5522e-20)
(1.23596 0.123613 2.09749e-20)
(1.22775 0.106495 0)
(1.22536 0.112905 0)
(1.216 0.0967433 0)
(1.21405 0.10287 0)
(1.20317 0.0876815 -3.81208e-21)
(1.2018 0.0934867 5.08838e-21)
(1.18893 0.0793751 5.02583e-22)
(1.18836 0.084786 -3.46822e-21)
(1.17286 0.071942 -3.29587e-21)
(1.17335 0.0768361 2.95787e-23)
(1.15444 0.0655516 -7.82672e-21)
(1.15633 0.0696359 -7.77684e-21)
(1.13305 0.0604163 -7.35751e-21)
(1.13671 0.0631324 1.71646e-20)
(1.10802 0.056798 -3.89115e-21)
(1.11405 0.0585285 -2.82486e-20)
(1.07865 0.0550745 -3.44436e-21)
(1.08857 0.0607774 7.76826e-21)
(1.05993 0.0712068 -7.08311e-21)
(0.894455 0.165818 1.83699e-21)
(0.801462 0.147005 7.68858e-22)
(1.08725 0.215701 1.60275e-22)
(1.03476 0.212228 -2.95634e-22)
(1.19882 0.24037 -1.68207e-21)
(1.17135 0.245658 -4.5537e-22)
(1.25571 0.246244 1.09286e-21)
(1.2415 0.256008 -1.62853e-21)
(1.28047 0.240707 5.55097e-21)
(1.27273 0.252061 4.4301e-21)
(1.28754 0.228993 1.46961e-20)
(1.2827 0.240488 1.18379e-21)
(1.28544 0.214392 5.88356e-21)
(1.2817 0.225352 5.72269e-21)
(1.27896 0.19888 6.00276e-21)
(1.27553 0.209041 -1.01021e-20)
(1.27064 0.183559 6.34798e-21)
(1.26727 0.192892 1.12579e-20)
(1.26165 0.168969 -6.59305e-21)
(1.25833 0.177551 -1.84448e-21)
(1.25239 0.155306 1.18561e-20)
(1.24921 0.163252 0)
(1.24289 0.142588 -2.18136e-20)
(1.23993 0.150006 3.87442e-21)
(1.23305 0.13075 -2.89013e-20)
(1.23038 0.137732 -2.38464e-20)
(1.22273 0.119706 5.6224e-21)
(1.2204 0.126323 5.5759e-21)
(1.21175 0.109374 0)
(1.20982 0.115672 0)
(1.19994 0.0996951 5.0498e-21)
(1.19849 0.105694 0)
(1.18707 0.0906496 5.4829e-21)
(1.18622 0.0963342 4.73127e-23)
(1.17286 0.0822656 -3.98879e-21)
(1.17278 0.087588 -3.19557e-21)
(1.15693 0.074625 -4.41121e-21)
(1.15788 0.0794863 -4.38199e-21)
(1.13883 0.0678604 1.70545e-20)
(1.14113 0.0719926 1.22161e-21)
(1.118 0.0621407 -5.06436e-21)
(1.12201 0.0650093 2.64135e-20)
(1.09389 0.0576619 -1.67912e-20)
(1.10006 0.0595997 -3.59783e-20)
(1.06617 0.0547112 4.22751e-21)
(1.07542 0.0604529 1.32196e-20)
(1.0484 0.0706663 1.16923e-21)
(0.936168 0.190821 -5.45871e-22)
(0.844889 0.169692 -3.44479e-22)
(1.11595 0.240349 -9.07933e-22)
(1.06685 0.237831 -2.40917e-22)
(1.21269 0.260549 0)
(1.18776 0.267143 -1.20069e-22)
(1.25795 0.261547 1.60739e-21)
(1.24521 0.272496 1.6293e-22)
(1.27477 0.251911 2.08052e-22)
(1.26777 0.26422 1.63473e-21)
(1.27685 0.237085 -7.87183e-21)
(1.27228 0.249293 -3.48507e-21)
(1.27186 0.220289 -1.00792e-20)
(1.26813 0.231745 -6.44108e-21)
(1.26394 0.203336 -5.00249e-21)
(1.26041 0.213825 -1.57775e-21)
(1.25506 0.187137 3.20742e-21)
(1.25158 0.196677 -5.19923e-21)
(1.24598 0.172051 4.73944e-21)
(1.2426 0.180752 6.4475e-21)
(1.23683 0.158133 -8.01968e-21)
(1.23367 0.166127 0)
(1.2275 0.145301 2.07489e-21)
(1.22465 0.152706 -8.23605e-21)
(1.21781 0.133432 1.04112e-20)
(1.21534 0.140344 1.27206e-20)
(1.20758 0.122397 0)
(1.20554 0.128893 -7.76554e-22)
(1.19665 0.112086 0)
(1.19509 0.118225 2.31565e-21)
(1.18485 0.102414 -5.01283e-21)
(1.18384 0.108233 -1.44526e-21)
(1.17201 0.0933301 -8.63253e-21)
(1.17162 0.0988403 -4.35911e-21)
(1.15788 0.0848244 -3.59549e-21)
(1.15826 0.09001 -6.25814e-21)
(1.14217 0.076938 1.21346e-21)
(1.14353 0.0817383 0)
(1.12446 0.0697625 1.0419e-20)
(1.12711 0.0739743 -1.29017e-21)
(1.10423 0.0634169 -6.48754e-21)
(1.10854 0.0665948 9.24891e-21)
(1.08109 0.0580066 -9.70279e-21)
(1.0873 0.0603489 -1.5154e-20)
(1.05539 0.0537802 1.02306e-20)
(1.06357 0.0586917 1.02119e-20)
(1.03867 0.0694247 1.23913e-21)
(0.970385 0.21494 3.02397e-23)
(0.881871 0.192664 -7.88e-23)
(1.13617 0.262819 4.90775e-22)
(1.0906 0.261618 -5.09168e-23)
(1.21923 0.278466 1.65344e-23)
(1.19666 0.28643 4.83151e-22)
(1.25465 0.275008 1.65655e-22)
(1.24319 0.287129 -1.8234e-21)
(1.26519 0.26176 -1.95537e-21)
(1.25874 0.274975 1.80894e-21)
(1.26361 0.244252 -2.01318e-21)
(1.25914 0.257102 8.89745e-21)
(1.25677 0.225608 1.99794e-21)
(1.2529 0.237485 0)
(1.24814 0.207469 -1.69323e-21)
(1.24438 0.218217 -4.31765e-21)
(1.23922 0.190553 -2.08933e-21)
(1.23551 0.20024 2.18626e-21)
(1.23039 0.175045 1.77718e-21)
(1.22685 0.183817 6.01471e-21)
(1.22158 0.160879 -1.34756e-22)
(1.21834 0.168882 3.75496e-21)
(1.21258 0.147897 2.24074e-21)
(1.20973 0.155254 9.20351e-21)
(1.20316 0.13593 1.64982e-21)
(1.20079 0.142741 2.40034e-21)
(1.19315 0.124829 1.51331e-21)
(1.1913 0.13117 -7.76554e-22)
(1.18238 0.114466 8.99268e-22)
(1.18109 0.1204 7.19571e-21)
(1.1707 0.104741 -7.68652e-22)
(1.17004 0.110315 -1.38775e-20)
(1.15797 0.0955821 -1.97278e-21)
(1.158 0.100826 6.77994e-21)
(1.144 0.0869484 -2.70801e-21)
(1.14482 0.0918783 -1.29792e-21)
(1.12854 0.0788389 -2.50652e-21)
(1.13033 0.0834471 0)
(1.11125 0.0713042 -2.53953e-21)
(1.1143 0.0754937 -6.70934e-21)
(1.09162 0.064457 -5.95908e-23)
(1.0964 0.0679551 1.57556e-20)
(1.06923 0.0583381 1.12823e-21)
(1.07596 0.0614195 -8.8811e-21)
(1.0458 0.0520885 1.34839e-21)
(1.05135 0.0555006 4.22852e-21)
(1.0311 0.0680435 5.31453e-21)
(0.997221 0.238011 -1.97643e-22)
(0.91203 0.215453 4.5057e-22)
(1.14899 0.283448 -3.45867e-22)
(1.10677 0.283778 -6.75201e-22)
(1.21981 0.294613 -1.33495e-21)
(1.19931 0.303986 -1.41785e-21)
(1.24705 0.287059 -3.04502e-22)
(1.23662 0.300349 -1.62453e-22)
(1.25269 0.270566 1.25531e-20)
(1.24658 0.284653 1.14273e-20)
(1.24851 0.250694 1.10335e-20)
(1.24396 0.264129 -7.89866e-21)
(1.24061 0.230456 -6.26183e-21)
(1.23644 0.24269 0)
(1.23184 0.211309 -4.6732e-22)
(1.22771 0.222257 -6.34331e-21)
(1.22322 0.193771 1.02497e-20)
(1.21917 0.20356 5.97467e-21)
(1.21488 0.17787 8.03875e-21)
(1.21106 0.186677 4.9593e-21)
(1.20657 0.163434 1.30403e-20)
(1.20314 0.171421 3.75496e-21)
(1.19802 0.150245 9.42672e-21)
(1.19507 0.15754 1.83579e-21)
(1.18901 0.138104 0)
(1.18661 0.144804 -2.26419e-20)
(1.17934 0.126847 4.84161e-21)
(1.17754 0.133025 1.40751e-20)
(1.16886 0.116341 -7.41801e-21)
(1.16772 0.122052 4.88233e-21)
(1.15745 0.106482 -6.48473e-21)
(1.15701 0.111765 5.74128e-22)
(1.14498 0.0971914 7.50394e-21)
(1.14531 0.102073 1.20185e-23)
(1.13131 0.0884182 1.39149e-21)
(1.13248 0.0929125 1.38189e-21)
(1.11625 0.0801356 -4.16683e-21)
(1.11839 0.0842533 0)
(1.09958 0.0723393 1.14329e-20)
(1.10285 0.0760322 1.40629e-21)
(1.08105 0.0650929 7.53986e-21)
(1.08568 0.0680851 3.19946e-20)
(1.06047 0.0588618 -5.09051e-21)
(1.06692 0.0608225 -3.01767e-20)
(1.03715 0.0556092 8.26476e-21)
(1.04793 0.0547125 7.35454e-21)
(1.01682 0.0672422 1.19016e-21)
(1.01701 0.260028 0)
(0.935307 0.237757 -1.38067e-21)
(1.15537 0.302566 -1.97874e-21)
(1.11617 0.304556 1.21441e-21)
(1.21552 0.309395 -3.93242e-22)
(1.19672 0.320221 1.5587e-20)
(1.23605 0.298034 1.13119e-20)
(1.22638 0.312505 1.82388e-21)
(1.23791 0.278557 -8.71988e-21)
(1.23192 0.293495 -2.15233e-20)
(1.23199 0.256544 -1.90308e-20)
(1.22717 0.270516 1.30142e-20)
(1.22363 0.234888 0)
(1.21901 0.247422 0)
(1.21512 0.214845 0)
(1.21051 0.225943 1.02176e-20)
(1.20709 0.196736 6.88558e-22)
(1.20259 0.206586 -2.94802e-20)
(1.19939 0.180443 7.03569e-22)
(1.19521 0.189256 1.09647e-20)
(1.19171 0.165701 -7.43413e-21)
(1.18799 0.173657 0)
(1.18373 0.152243 -3.00094e-20)
(1.18057 0.159475 -7.99585e-21)
(1.17522 0.139846 -8.86927e-21)
(1.17268 0.146451 -3.06912e-20)
(1.16601 0.128333 1.41925e-20)
(1.16414 0.134381 1.40751e-20)
(1.15596 0.117567 1.289e-20)
(1.15481 0.123107 0)
(1.14497 0.107438 7.0836e-21)
(1.14458 0.112503 6.33344e-21)
(1.13293 0.0978643 -6.09786e-21)
(1.13335 0.102471 -6.05397e-21)
(1.11971 0.0887814 0)
(1.12102 0.0929459 -1.3098e-20)
(1.1052 0.0801474 5.4577e-21)
(1.10746 0.0838843 -2.45638e-20)
(1.08928 0.071966 2.19262e-20)
(1.09259 0.0751504 1.70295e-20)
(1.07187 0.06433 -7.21676e-21)
(1.0764 0.0663849 2.83325e-20)
(1.05275 0.0572215 -2.0871e-20)
(1.05878 0.0579574 -2.12828e-20)
(1.02972 0.0490667 5.83004e-22)
(1.03793 0.0543506 -5.42428e-21)
(1.01148 0.0651485 -5.41141e-21)
(1.03018 0.281064 -9.58462e-23)
(0.951861 0.259344 6.54906e-21)
(1.15615 0.320489 1.84792e-20)
(1.1195 0.324223 4.06447e-21)
(1.20716 0.323156 1.79355e-20)
(1.18969 0.335497 -5.44118e-21)
(1.22224 0.308188 -3.05855e-20)
(1.21304 0.323866 3.90861e-20)
(1.22127 0.285887 -2.91755e-22)
(1.21516 0.301663 -4.40587e-20)
(1.2143 0.261872 3.22115e-20)
(1.20902 0.276338 -1.92105e-21)
(1.20597 0.238904 1.00864e-20)
(1.20075 0.25169 1.08715e-20)
(1.19804 0.21803 -1.88902e-20)
(1.19281 0.229234 -1.24188e-20)
(1.19077 0.199378 -1.96617e-20)
(1.18573 0.209252 -9.62237e-21)
(1.18386 0.182684 1.03678e-20)
(1.17922 0.191478 1.17642e-20)
(1.1769 0.167603 -4.83239e-22)
(1.1728 0.175513 -1.92917e-20)
(1.16958 0.153825 -8.4915e-21)
(1.16611 0.160995 5.25312e-20)
(1.16167 0.141106 -8.11496e-21)
(1.15889 0.147637 -2.46922e-20)
(1.15302 0.129257 0)
(1.15097 0.135223 -3.19584e-20)
(1.14351 0.118132 -6.60716e-21)
(1.14223 0.123585 4.59498e-20)
(1.13305 0.107616 -6.71055e-21)
(1.13258 0.112589 -6.66006e-21)
(1.12153 0.0976147 -1.3003e-20)
(1.12192 0.102132 -2.79414e-20)
(1.10887 0.088054 -3.75821e-20)
(1.11017 0.0921416 -1.47925e-22)
(1.09497 0.0788796 -1.33522e-20)
(1.09724 0.0825587 1.36763e-21)
(1.07973 0.0700611 2.33633e-20)
(1.08308 0.0731937 1.07427e-20)
(1.06305 0.0615569 1.19031e-20)
(1.0677 0.0636524 1.26405e-20)
(1.04453 0.0532003 -5.59837e-21)
(1.05075 0.054665 0)
(1.02384 0.0451236 -1.13511e-20)
(1.03042 0.0517092 -5.51709e-20)
(1.00667 0.0600553 7.15367e-20)
(1.0372 0.3012 1.10505e-20)
(0.961908 0.280006 -2.59979e-21)
(1.15202 0.337536 -1.9447e-20)
(1.1174 0.343048 2.58016e-20)
(1.19529 0.33619 1.49479e-20)
(1.17873 0.350138 -2.73396e-20)
(1.206 0.3177 2.69076e-20)
(1.19696 0.334623 3.37101e-21)
(1.203 0.292633 -4.63751e-20)
(1.1965 0.309238 -3.88988e-21)
(1.19556 0.26669 -2.31904e-20)
(1.18962 0.281605 -7.23875e-21)
(1.18766 0.242478 -1.13345e-20)
(1.18169 0.255458 3.64643e-20)
(1.18055 0.220816 -3.26571e-21)
(1.17462 0.232064 2.35554e-20)
(1.17422 0.201626 2.15654e-20)
(1.16854 0.211477 2.10703e-20)
(1.1682 0.18452 -1.7592e-20)
(1.16302 0.19326 3.03653e-21)
(1.16206 0.169076 3.30367e-20)
(1.15751 0.176918 2.03187e-20)
(1.15548 0.154949 3.70092e-20)
(1.15164 0.162046 5.43142e-20)
(1.14825 0.141874 -4.84719e-20)
(1.14517 0.148337 -3.3931e-20)
(1.14025 0.129653 1.33588e-20)
(1.13795 0.135562 3.5458e-20)
(1.13137 0.118131 4.63147e-20)
(1.12988 0.123546 -1.6704e-21)
(1.12152 0.107185 -2.77296e-20)
(1.12089 0.112147 0)
(1.11063 0.0967146 -1.5286e-20)
(1.11088 0.101256 -2.79414e-20)
(1.09862 0.0866401 3.8683e-20)
(1.09981 0.0907989 2.76049e-20)
(1.08542 0.0769036 2.53929e-20)
(1.08758 0.0807073 -2.88884e-20)
(1.07095 0.0674669 -3.26151e-23)
(1.07421 0.0707764 6.52186e-20)
(1.05512 0.0582955 6.96921e-22)
(1.05971 0.0606436 -1.17402e-20)
(1.03768 0.04935 -4.9244e-20)
(1.04371 0.0512362 0)
(1.01907 0.0409477 -6.0708e-20)
(1.02429 0.0481459 -4.9539e-20)
(1.00247 0.0544368 7.72564e-20)
(1.0385 0.320478 1.17425e-20)
(0.965878 0.299685 -1.04093e-20)
(1.14344 0.354053 2.02024e-20)
(1.11041 0.361354 -6.66273e-21)
(1.18023 0.348729 -3.94762e-20)