/*--------------------------------*- C++ -*----------------------------------*  =========                 |
  \      /  F ield         | OpenFOAM: The Open Source CFD Toolbox
   \    /   O peration     | Website:  https://openfoam.org
    \  /    A nd           | Version:  11
     \/     M anipulation  |
\*---------------------------------------------------------------------------*/
FoamFile
{
    format      ascii;
    class       volScalarField;
    object      U;
}
// * * * * * * * * * * * * * * * * * * * * * * * * * * * * * * * * * * * * * //

dimensions      [0 1 -1 0 0 0 0];

internalField   nonuniform List<scalar> 
2880
( 
0.07164300270218119
0.14046188394043876
0.21978631536560708
0.268488141749692
0.33867810366886825
0.44940108797978773
0.10010772452140865
0.17003837930524682
0.24258950089074288
0.28709718154532754
0.3495292070013594
0.41986688078734136
0.11348314925703748
0.18062699549581027
0.24658135209749835
0.2898621781812718
0.3532578344728177
0.4265679819989268
0.125502664362048
0.18837168156672435
0.24759583703192087
0.29021749120676654
0.35570840347142507
0.43382391868754633
0.13819247568861825
0.19483730932045026
0.24782583575552672
0.2901071601101042
0.35639245363001265
0.436276895514838
0.15036007868755433
0.20002779786074038
0.24669133711995192
0.2895742102785605
0.35540011309708097
0.43483647150531624
0.16137302760419217
0.2035988630164588
0.24549476201985337
0.28874469279704623
0.353112438015813
0.4303654620562426
0.1701892727851823
0.20597599271814723
0.24455121281733908
0.2876948271869362
0.3506622263461319
0.4248294737192345
0.17753469598011595
0.2076451410812761
0.2434282842161706
0.28646029001037837
0.3478800312945765
0.4191292273511955
0.18328853412207297
0.2088675199900979
0.2422072685542706
0.28567001527768154
0.34604010431113247
0.41522781031855066
0.18729753515903516
0.2099006431909971
0.24278869596452823
0.2858778440096412
0.34575967964590976
0.4137400128644222
0.189514079192958
0.21108992868459206
0.2445010155283472
0.28772128375616185
0.34687143677015597
0.4131501426694117
0.18975748979815696
0.21184339086657542
0.24689863454657834
0.2910084061067929
0.34975553094430534
0.41514886453867367
0.18814955634185662
0.21234517400718347
0.24933646691210837
0.2953976177407198
0.3549803998495167
0.4205108032673101
0.18431914103013064
0.21225554071292402
0.2516371156946438
0.29988854128730885
0.3607415515750349
0.4266825130532412
0.17881733166288719
0.21158697951686598
0.2538682293781026
0.30382671198809796
0.3663028739197338
0.43322876652538517
0.1718533420833636
0.210352124055415
0.25602087252209055
0.30656790826767344
0.37121631716422243
0.4397425363846302
0.16279875530873467
0.20800838824850643
0.25697306728271385
0.3087361146103213
0.3750099340500221
0.44538745684674363
0.15179947508787794
0.20375250624046418
0.2574197245099143
0.30949600588205045
0.37705560259971194
0.44980819191694466
0.13868314436638318
0.19696884752992191
0.25659664918181485
0.30822049256966966
0.37748694041350755
0.45184511070839245
0.12387508463677206
0.18789726344925267
0.25407185590786413
0.3062075880165013
0.37565466767302724
0.4503935209764638
0.10913629426875239
0.1761408232876894
0.24932012713714855
0.3022811320010315
0.37223640153508847
0.4439755403131457
0.09309357757483452
0.16134980578392438
0.24034151661106135
0.2942107938532158
0.3689271140946404
0.4343613960819705
0.06373870188807694
0.12839518293521954
0.2138452973309409
0.2684109118364752
0.3610435737125816
0.435155736684302
0.8227240523682345
0.9053866224800957
0.947119875426382
0.9717235821551385
0.9879252391957133
0.9993256235372037
1.010846431073851
1.0254182633972764
1.0415831921366074
1.05792140966204
1.072826233952869
1.086210457590417
1.095956595513954
1.102174786388665
1.1054791367447663
1.1060565461064014
1.1042467205918787
1.100270498477671
1.0947842094385527
1.0875283244948606
1.0788453677177032
1.0672882815722748
1.053316005251128
1.0378133116418486
0.7227045167324883
0.8689543820605032
0.9290306859918028
0.959976195244288
0.9812727785092973
0.9965310501182755
1.010363847715803
1.028766234450912
1.0490717237695661
1.0671870511636554
1.082091740825321
1.0939744290895805
1.1027549159004517
1.1077322270033265
1.1085430181300489
1.1076168041990602
1.1044552280398423
1.099852875259305
1.093268356476401
1.0855333140494299
1.0764292054664488
1.0648262303367226
1.0503902087522874
1.0348307412651152
0.6554352002648787
0.8185675976970592
0.8945683453540266
0.9386271275398056
0.9666815767588457
0.9885859727789013
1.0083082920565694
1.0320404440668198
1.054378068871446
1.0745204044875687
1.0903751999759108
1.100523446248
1.106824174330003
1.1091654017795545
1.1094901256927905
1.1073095441936465
1.1032045232861154
1.09785951835438
1.0904258672025497
1.0824007137044056
1.072298020647353
1.0603138819799764
1.0463035516536288
1.0303003738770355
0.6134476399292021
0.7658975826775795
0.8526453867845933
0.9071337747899842
0.9442820355130345
0.9742965448763383
1.0043788514719247
1.0329619588982106
1.0579530266834098
1.0785962785825776
1.0940863251407986
1.1031334625659441
1.1073596634182186
1.1084940152406426
1.1073483525974683
1.1044947967649525
1.0990600037147256
1.0933702704254524
1.0859440785817454
1.0770434631550196
1.0668470263375849
1.0552582879757968
1.0408571765997299
1.025387954460144
0.5846273519223941
0.7209340680529444
0.8114370495652309
0.8731973922968773
0.9176905269413151
0.9566968176227034
0.9951429644306586
1.0296200493726053
1.0578066757192859
1.0783336900963065
1.092574947927354
1.1006333208289274
1.1037855775978793
1.1042951276083484
1.1024826424409992
1.0988324108387473
1.093729580030018
1.087790233415945
1.080166801483449
1.0713668924097757
1.0615424360669534
1.050353687233225
1.0359347860516306
1.0205722231783734
0.5619225805871296
0.6843566456698859
0.7735754545395622
0.8405965845123193
0.8925452145746368
0.9400702450087003
0.9852119252722926
1.023788190258572
1.0539043688257803
1.0745501236603006
1.0869544154330038
1.0936853660722936
1.096848171369201
1.0963988589677331
1.094813588669629
1.0910608373520703
1.0866437853658895
1.08042575716216
1.0730531098882858
1.0645088300556917
1.0553490752609929
1.0444436540669948
1.0302911866281956
1.0151861782057638
0.5422370176346317
0.6544171260866869
0.7422855026335855
0.8122663681207131
0.8716144436398023
0.928037420904971
0.977345763482098
1.017944823801016
1.0474253446480664
1.066909075400551
1.078635910781462
1.0845394957095413
1.0873899738183772
1.0875743237460949
1.0862619746019035
1.082936104691276
1.0785405995977366
1.0729329261809961
1.0660643307660411
1.0582680669694593
1.0495140956448465
1.0388100029961453
1.0252643921019582
1.0117749280341817
0.5258927735151928
0.6298782010643602
0.7167171530153615
0.7902079259776759
0.8560985129515074
0.9186272301117212
0.9713668632648321
1.0123708656335184
1.0406454398501146
1.0577325387100813
1.0690759454461587
1.074605079535828
1.0776753609726744
1.0779311744372195
1.0770386873653328
1.0740979309210774
1.0701396489081874
1.065510469925237
1.059328309520617
1.0519445745655662
1.0442063719679753
1.0343770284484375
1.0217467126790156
1.008456280104009
0.5126597357331601
0.6115577923033259
0.6986822523619896
0.7737769276850823
0.8472911913029805
0.9137439506699768
0.9682131649647838
1.007907425106085
1.0330757390507688
1.04919152687554
1.0589808085170032
1.0644925063932045
1.0676088343410894
1.0683716636108151
1.0674355291000295
1.065203149009691
1.062618133956728
1.058164893356963
1.0527641664467777
1.0467576284082956
1.0392630695831238
1.0307561938474632
1.0191075544881045
1.0078760511680707
0.5039850444304859
0.5992845995853084
0.6869283617939065
0.7669193636979527
0.8459168958133296
0.9139743815121086
0.9664450403373602
1.0020735688947398
1.0250345879946507
1.0393823609130874
1.0490789508405818
1.0542526267350147
1.057587697385245
1.0589495720260387
1.0582942529283654
1.0570266767325809
1.0548190701634301
1.0512130463630456
1.0475929793989065
1.0421588786331615
1.036537236160019
1.029285709008419
1.0194278259170229
1.0094018174392152
0.4988547921044213
0.5942302805707242
0.6823269730116359
0.7674834697583097
0.8497565245179908
0.9174883175149753
0.9660839444120619
0.9976990538978104
1.0181974887378338
1.0314813373764093
1.0401094282548236
1.0458268288906842
1.0490162783611052
1.0504206408982346
1.0506694722815324
1.0498421039787185
1.0482048688754404
1.0458111531595338
1.042856054317032
1.0397146737753862
1.0353412240527196
1.0296838420361631
1.0215918011956076
1.0127035546772385
0.49724735262159986
0.5939279174792135
0.684051181803173
0.7762688547184616
0.8599652393545978
0.924017244397657
0.9668158054553053
0.994422866929216
1.0128088074254158
1.0250352575417268
1.0326988374107542
1.0384089606771119
1.0418462317202108
1.0439558766457413
1.0443473939706527
1.0440136357291017
1.0430721969259982
1.041935591380027
1.0408341212147345
1.0391383386114394
1.0369607007723936
1.0328009452385005
1.025738630302349
1.0176915759689167
0.49957612877327967
0.5972924374020954
0.6942282756306732
0.7918880678544007
0.8740877444099265
0.931909616191382
0.9691535378807477
0.9928280639908426
1.0086604052756662
1.0203079921748348
1.0278621923948221
1.033348715969493
1.0371645362760646
1.0388050877141881
1.0392806178852458
1.0401072556988629
1.0410810199639655
1.0414622737089192
1.0418093047860255
1.0417886811692472
1.0400440660567034
1.0372307651530623
1.0310511517735492
1.0237921884723065
0.5048719779254592
0.6047540820514924
0.7096972589353394
0.8115834959670184
0.8890309068927668
0.9393939426735991
0.971728242897843
0.9921791708505409
1.0067287432880423
1.0177370226937725
1.0244547798163495
1.0290572776500682
1.0328191296341425
1.036174801725
1.0384283573429254
1.0404105762617057
1.041688691858287
1.0430212673443244
1.0445495722251883
1.0458045848908055
1.0455396628514837
1.042991549973484
1.0373876590358568
1.0297134905195982
0.513616539970049
0.617763015287723
0.7319798771476836
0.8341403190736664
0.9038914713478452
0.9473429569380898
0.9744476524577667
0.9934610578091468
1.0067052276615676
1.0156772806513377
1.0229029738955115
1.0281643893136752
1.032442667354649
1.0347463298683994
1.0374511196475686
1.040988345045908
1.0446857990146539
1.047784308909824
1.049803206304236
1.051030433681264
1.050450681024111
1.048282872621924
1.0426921139240817
1.0350170860487087
0.5247604143848208
0.6384049623532486
0.7602696318676351
0.8566438690410983
0.9176094336772582
0.954538248917173
0.9785674322907415
0.9946452997144758
1.006543387424015
1.0159089731366837
1.0219980977910563
1.0268671670149767
1.0310760357018183
1.035901093433534
1.0406958937780724
1.0449710142071624
1.0485408705537955
1.0523928182063935
1.0552748508250787
1.0572286388413286
1.056907983000124
1.0543139620622326
1.0479120182836583
1.0396516185860978
0.5372780449219902
0.6651854010527182
0.7928077298580494
0.879977754974343
0.931229883255724
0.9617938251811377
0.9828492940935594
0.9975134737166247
1.0078792461244044
1.0157384148342163
1.0219982048501925
1.0278101772942516
1.032965443187748
1.0390960558407931
1.0448653079869663
1.0504958785651048
1.0553931704189587
1.0588883394169573
1.061437169320674
1.0630605556593435
1.0621857595220832
1.058827188543283
1.0519129150770083
1.0429272710056643
0.5511059736688994
0.6988311166930665
0.8269654494159455
0.9009326808937838
0.9425479817054637
0.9691382096730065
0.9869406651931596
0.9999894734873439
1.009712144900512
1.0174274580981157
1.0242677168337708
1.0304653358540017
1.0378312694906227
1.0445043846936444
1.050616921601813
1.0560032011929483
1.0613017183122135
1.0654535819306568
1.068042447832428
1.0679600725467353
1.066661789837418
1.0622544124761557
1.0539672181193354
1.0437072223082535
0.5691293036995179
0.7401604898650163
0.8578724760920556
0.9192971306008331
0.9535854943240621
0.9758087232385522
0.9910849859355972
1.002430659871169
1.0111519987907465
1.0196432590446218
1.0261673410990633
1.0340920750436358
1.0419954663418114
1.050321492633261
1.0570782601629685
1.063405255552683
1.0675203230699568
1.0715025015528774
1.0732967421148658
1.0731745010323708
1.0697647230007308
1.0643440857054807
1.0551662151905377
1.0435827064513346
0.5930010813885712
0.785074815378337
0.885771308544164
0.9348579232410323
0.9626141588854372
0.9811996926013435
0.994249242308455
1.0047514873910086
1.0131013568860023
1.0211430861537656
1.0304484420994098
1.0405586305685548
1.0491734822006085
1.0572426313113064
1.0639778964389195
1.0699046824442047
1.0744925035559636
1.0775658311913534
1.0779520194942909
1.0767705101579226
1.072255286703219
1.0652069646789137
1.0553614376359077
1.0429946289574894
0.6274847590135223
0.8286337383284269
0.9096319183811071
0.9486028066348281
0.9705477350793756
0.9859639265330421
0.9973543408034923
1.0069070346839408
1.016134785988501
1.02642574676796
1.0362738077253597
1.046576092724754
1.056482903701575
1.0648749704508833
1.071856405634544
1.0769794114200402
1.0807291000816044
1.0825167079499503
1.081791134962185
1.0792744878595093
1.0733126078955557
1.0652684873217357
1.054409382051081
1.0409728712672026
0.6806910709920286
0.8656689616209148
0.9281604932668748
0.9583716466420101
0.976507618696148
0.9894508009430533
0.9998815280063836
1.0096909893870238
1.0194644970629654
1.0302631134844706
1.042778567730823
1.0547712327013739
1.0643568098873772
1.0722807309095244
1.0792145793211922
1.0835996585013241
1.0861236269988532
1.0867390035868025
1.084698987727788
1.080396395848422
1.0741806212902767
1.0647601088074226
1.0534806283568188
1.0396048360259318
0.7525972457184997
0.893888079989074
0.9406361146560385
0.965099349777887
0.980433962997019
0.9925286825886271
1.0020290346905452
1.0119688221204062
1.0243382565037362
1.0373920961338636
1.0505189306672291
1.0627579474220101
1.073050083328943
1.0810480291040427
1.0864028352465929
1.0896193457198626
1.0913542464462394
1.0898168107562836
1.0869600420024184
1.0813101473968074
1.0743891535267478
1.0646664038855542
1.0521862164206097
1.0373987448407818
0.8326980434669932
0.9102917119912003
0.9458809147430091
0.9682075341286787
0.982551907203542
0.9941426608459897
1.003735455435304
1.0158951976439283
1.0301736376765636
1.0449260131607079
1.058716821333339
1.071042748433045
1.081076198546599
1.088167223540561
1.0929529516444676
1.095187952220395
1.0948027857011096
1.0925163425020243
1.088237135298805
1.081890873769473
1.0740406211962885
1.0637883529325076
1.0504512181634063
1.0362712844325126
0.07306458915560204
0.1465767973592727
0.22887998874857135
0.2779559203582193
0.3480061930212482
0.4537854743351689
0.10448854076502674
0.17851793122183762
0.2525986639318098
0.29602525544196656
0.35746728464011523
0.4259555777515872
0.11912026751943511
0.1894461114482739
0.25646436464301575
0.2985370768962347
0.36202355308759804
0.43507622158880876
0.1318499200634644
0.1974004133687934
0.2569274990203283
0.29883591131492343
0.3643781379866005
0.4437013913121123
0.1451589155467616
0.20373261837568127
0.25620850106659454
0.2985391417592992
0.3650750596969832
0.4468617524968749
0.15803793038403421
0.20843675883098067
0.255356928421597
0.29781285001802726
0.36463750788114274
0.44592170664481756
0.16999003786221345
0.2116549139655427
0.253672360696853
0.2967482791125689
0.36279568361282283
0.4422199356180674
0.17980117687312344
0.21448062140764124
0.25185966951942534
0.2952824101167375
0.36023402020475553
0.43676459590306305
0.18779168176811686
0.2165453035468131
0.2510645636800338
0.29383797276171386
0.35734198127300504
0.43077199337736
0.19398961126241374
0.21808861122506817
0.2509412076237142
0.29339575237547805
0.3552918907982484
0.4264542798301094
0.19846702089762042
0.21926969326690138
0.2513136749923154
0.2934818874804921
0.35461952564838567
0.4248155589295752
0.20061700386899703
0.22017448264782347
0.25264926754097716
0.29459340614833457
0.35565856658739187
0.4248667993009572
0.2007115240468769
0.2208248668258753
0.25454992922580816
0.29776720201497203
0.3589543343938805
0.4266370726755834
0.19878012252839983
0.2211350680784087
0.2570099862698191
0.3021718081969902
0.36360404277266845
0.4308227504839938
0.194596337091381
0.22105381345607725
0.259474956570615
0.3066892003458513
0.3689168438836726
0.43645486349967005
0.18864770548387944
0.22026088136460228
0.26157151669441525
0.31075018928089654
0.37408281505299473
0.44245828015057304
0.1811292664919195
0.2187703426734653
0.26296637121012556
0.313889197757964
0.37845904291962434
0.44805440269920954
0.1715152924352737
0.21599723584911454
0.2644566795689107
0.3157679587070431
0.381986521305633
0.45297916958781376
0.15986512366889724
0.21176097452544534
0.2647412075397782
0.31588006596374096
0.38382064729101517
0.45671461082664544
0.14607738883567226
0.20531230142635937
0.26410645539581273
0.3152984773842487
0.38374051390411196
0.4577001343984345
0.1299318865444347
0.19587086216231014
0.2617280250298246
0.3128071774359349
0.38159986490175496
0.4555637335729006
0.11416093901172639
0.18375006889819495
0.2567496908386228
0.3087980078214069
0.377899982019296
0.4487228435074772
0.09693769446494017
0.1685385304039379
0.24775581443450537
0.3006953742589334
0.37407693353564836
0.4388958802083524
0.06455654943941096
0.13364066348304354
0.21995817652892916
0.27374447874378494
0.3657482462191447
0.43751928955034486
0.8219784765642357
0.9042446316861237
0.9425742341447225
0.9666067569767022
0.9817597186451011
0.9939453162665389
1.0065097165039218
1.020002468787493
1.0366029192736972
1.0533995469717365
1.0679083189445469
1.080204622096316
1.0888955590240244
1.0953351981868638
1.0981491990179393
1.099247236507419
1.0978779250661694
1.0942215051727133
1.0889824610602303
1.0818865228577124
1.0731037758806512
1.0627525218705618
1.0492203323040201
1.0340505034548562
0.7270481188237814
0.8717580209805289
0.9279735653978844
0.9584775512165694
0.977379563463216
0.9922083479559589
1.0073499440668428
1.0259496275692037
1.0442514933149547
1.0613435211094042
1.0771080426629527
1.0880940894047728
1.096507460248671
1.1009698066943314
1.1027259632212782
1.1020260383560778
1.0995473595681784
1.0945743212228052
1.0884816834263205
1.0811942230826403
1.072079612312232
1.0610755488074912
1.0476618948956535
1.0324549072761615
0.6643178874447633
0.825882301612905
0.8993273083248712
0.9406479878122495
0.9668584042055375
0.9862649297630214
1.007727696327543
1.0301306675741513
1.050960252055649
1.069525211753411
1.0843538117749483
1.094787117732847
1.1013579733442727
1.1045719546129324
1.1048891398351128
1.103281899353246
1.0996258341069942
1.0942729199163723
1.0877563072640806
1.0802756258498076
1.0708771914142783
1.0594656243671483
1.045888661816587
1.0303851318219992
0.6248979512991075
0.7789827109421477
0.8631319153932253
0.9146848940291773
0.9491472212968767
0.9781031143242873
1.0048897393746867
1.0316795593403831
1.0555360433720944
1.0752715674295426
1.0893976831859278
1.0985573007222575
1.103980639476861
1.1057691360016892
1.1050037965815442
1.102390966612026
1.0982645068492691
1.0928548824794733
1.0859931773028084
1.0776001109537436
1.0678516004027854
1.057108649912533
1.0429168903477164
1.0281537915926415
0.5977206675045752
0.737476583326847
0.8268932922109278
0.8858935424807235
0.9291851036581242
0.9649793178960799
0.9998713512702161
1.0308725001248769
1.0571845386637135
1.0769765331061631
1.090933749489306
1.0989883083061802
1.1028086655514826
1.103803564250902
1.1026885694254671
1.0993502193944285
1.0947188943665123
1.0890445007568028
1.082530705701308
1.0739685781483927
1.0644824247932996
1.0534667829129125
1.0396350439387214
1.0250713864293213
0.5758960814635595
0.702048840357283
0.7932238969228357
0.8588968798514615
0.908778930010614
0.9532333790347157
0.9939562885217953
1.02869120635052
1.0565534651498507
1.0760372934978526
1.088722258098747
1.0955862793309425
1.098372573280555
1.0991001838232337
1.0974184047785072
1.0942866640121447
1.0898633289130162
1.084569759064092
1.078022184792999
1.0700337950044827
1.0608430331564451
1.050734945172078
1.0365428246225974
1.0226238810834583
0.5572460970445188
0.6736595371463401
0.7643707247442726
0.834962271891417
0.8918795049088829
0.9433522997308975
0.9890168322798503
1.026366551029605
1.0538195735575235
1.0722003694415483
1.0833328123661135
1.0897342349279497
1.0924849222597537
1.0925940923685473
1.090975110074424
1.0881480839895765
1.084492524716949
1.078690026833969
1.0724320617603686
1.0654064901429199
1.0567500732332884
1.0463313212508951
1.0329812097037039
1.0195735240768795
0.5412145620651593
0.650478241881118
0.7410348414970463
0.8154959736050031
0.8789685046351348
0.9375749610240411
0.9863400220505274
1.0243216014620566
1.0513172336317977
1.0677089212403075
1.0768109989348527
1.0826156224137926
1.0852005789042833
1.0853158850024625
1.0839701692295003
1.081288406512731
1.0777490471148758
1.0731261848840878
1.0672263800234043
1.060677098467424
1.052844309426096
1.0434048103270097
1.030676070156957
1.0170312863682254
0.5278495993095631
0.6319909408800847
0.7234987619595135
0.8012039006695615
0.8720194749474777
0.9353872612862285
0.986042758746627
1.0232109872658157
1.0468563320130035
1.0615185850552398
1.070446468794313
1.0754655418149448
1.0777437350138335
1.077834528762578
1.077585068117441
1.075513077517005
1.0728832656679774
1.0682806887183087
1.0632798835020203
1.0564378022256566
1.0490906991091964
1.040150158554724
1.0284498732371636
1.0158174646042737
0.5187419710002994
0.6201956407065903
0.7123233383750028
0.7934386894603969
0.8709793195729562
0.9378192398091459
0.988273228102822
1.0222531953147647
1.0431023491377158
1.0562740126704953
1.0645120011887679
1.0696145499368197
1.071342264575818
1.0719440724582094
1.0722601621610108
1.0705983213346422
1.067637618798666
1.0640490260384257
1.0594684121216529
1.053478041283254
1.0464266345560216
1.0385015096519694
1.027415374098164
1.0154866759170045
0.5143200254931353
0.6152760796056301
0.7072651909711664
0.7941707466045567
0.8765564033347106
0.9434794385750188
0.9904866963070117
1.0207950953299123
1.039809977145011
1.0517495288920446
1.0592651513333815
1.0639066956803365
1.0667162780090447
1.0676149379163744
1.0671602095725479
1.0663415905217664
1.0643722373911386
1.0609270489684073
1.0571158405037575
1.0522596926874088
1.0461390230255407
1.038684665039408
1.0284331855846331
1.017252776348465
0.5127611426509453
0.6143860637513576
0.7095887063923629
0.803589345673846
0.8872771603678755
0.9508321118662416
0.9930147403952034
1.0200929917728923
1.0372188736045755
1.0482869509427404
1.055636795239678
1.0604848249118526
1.063028831398342
1.0643908637374224
1.0649913348813236
1.063787855495473
1.061999342052499
1.059534895165735
1.0561571886563652
1.0522264026920738
1.0470217635841625
1.0402929757489205
1.030654756402065
1.0195957118302785
0.5132991486618145
0.6169218539943684
0.717396946404172
0.8178101618254386
0.900499704082757
0.9592770973129386
0.9962151748985619
1.0196348593309368
1.0354161909810515
1.0466766522981321
1.0534402781433367
1.058541263680303
1.0613322898330069
1.063326210561813
1.0637720047357149
1.0634759659998407
1.0615981684763964
1.0593069276343423
1.0574004198735096
1.0543632060463395
1.0499891666615966
1.0435626481854718
1.0342938044618006
1.0237921781903725
0.51876603220982
0.6232433870447326
0.731380472041783
0.8354862614286519
0.9142577415900396
0.966072757103466
0.9984485895392576
1.019760525826014
1.0348592456701449
1.045077387294716
1.0523872265367384
1.0576534026109292
1.0613121339593783
1.0632716203750516
1.063731268675724
1.0637618841905612
1.0632879574928098
1.0625625173842932
1.0608751851214053
1.0580129029377463
1.0539858090794907
1.048340542951705
1.039018145899575
1.027974250191734
0.5269453131850761
0.6348905841466848
0.7510370277023997
0.8544837812587978
0.9263612441447752
0.9711869119047872
1.0004697787012211
1.0198284855103872
1.0340694560261474
1.04465254514679
1.0522700296631458
1.057582721004885
1.0610822155604858
1.064294369297664
1.0656737692792804
1.0665399509383011
1.067543259094348
1.0669573193680397
1.0658218868967781
1.0634752465977801
1.0597233955907672
1.0534335015366858
1.0440730849844517
1.0329998504148545
0.5368406765844399
0.6532006792840815
0.7767234598928371
0.8747767739191578
0.9361792255431055
0.9756457821241387
1.0010327547644131
1.0195905027111172
1.0332910399992798
1.0437829280831623
1.0519354270884667
1.058422200425156
1.0632552437559233
1.0663553645957555
1.0687197422786672
1.0705960110877557
1.0721426435177677
1.0728706123432445
1.0717435699963025
1.0693177438768937
1.0648450307502575
1.058648466599024
1.0492693781940268
1.0376419861222466
0.5477993348957826
0.6783210397699168
0.8072325440247881
0.8935525821586942
0.9456610426297275
0.9786243495331972
1.0020320788227972
1.0198582535438514
1.0330951660421681
1.0440286514636017
1.052585104981255
1.059223890664936
1.0645004218234262
1.068958939344954
1.0734291556314235
1.0761494397866043
1.0779194725233676
1.0786471012826384
1.0778039463713285
1.0755499589242712
1.0709387022802037
1.063797228954175
1.053934717464204
1.0415654913591967
0.5607948891297136
0.7106837184289971
0.8374987538119049
0.9111593360421362
0.9544770117220395
0.9822974495758586
1.0025009081082612
1.0197970087441828
1.0330335148382812
1.0439800459953952
1.0534082616687486
1.0609448801149142
1.0676634497416087
1.073078267095679
1.0780661551840527
1.0817856381583757
1.0843280229701389
1.0849095101341586
1.0838334442681763
1.0812931842057603
1.0759123522344172
1.0687340252757223
1.0581673373207607
1.0448511515133663
0.5778043259769549
0.7496666517294343
0.8658023688021848
0.92704232478221
0.9620247905206143
0.9865029463788377
1.0042636461451133
1.0197457005484931
1.0332249518839898
1.0442797687879168
1.054288243212841
1.0630103114485903
1.0714361718211107
1.0782337721202726
1.083060682414463
1.0863900157964468
1.0898045481216296
1.0903110870328876
1.0891263560717912
1.0861258387234418
1.0803884895747815
1.0727716320953304
1.0609131750994407
1.0469740213201348
0.600731303469621
0.7924846883124262
0.8913889621483119
0.9404283859156252
0.9696905470762611
0.9902595384964338
1.0075422040288617
1.0216017848372536
1.034048869104831
1.045771519137253
1.0565226625374127
1.0661802940990686
1.0744823777926242
1.0827097301651967
1.0881207844144616
1.0920362819048077
1.093933156033843
1.0950051158200322
1.0931273529230399
1.0900726227329929
1.0836094442004458
1.0749666095160468
1.0627908223352407
1.0489145742508295
0.6341516935506359
0.8340494455545672
0.9130642048542142
0.951224269310971
0.9766183254564881
0.9949490704124315
1.010781621768542
1.0244838596752257
1.036614301423791
1.0468466743435156
1.0590884454254303
1.0698028609893575
1.0791230334357442
1.0858613050683228
1.0919907901343864
1.0964763523473138
1.0983339251335131
1.0982065667021252
1.0961586972368518
1.0915539169461261
1.084931987708475
1.075950886514613
1.0638411320434922
1.0486852043142063
0.6863268997278887
0.869595329915564
0.9294020681953113
0.9610706259158053
0.9820398524853076
0.9999490186434049
1.0141423039948547
1.0277158791109693
1.040139752158262
1.0521380083401193
1.0631447849457636
1.0733573548875461
1.0833226296570388
1.090777618812967
1.095939591095383
1.0994651537204398
1.1009047208094938
1.1001735481857213
1.097390207510824
1.0921984155904452
1.0851261485475023
1.0754267461756535
1.0627652861409445
1.0479599482544795
0.756370459841971
0.8951593427945176
0.9403811588001973
0.9677095611094494
0.9871898820379714
1.0045086340508904
1.0188100085099645
1.0312175825423338
1.0437354626659672
1.0566360439139277
1.0685574519467798
1.0784655254883162
1.0870975683983908
1.0943953844563563
1.0994347889084786
1.1018179828041792
1.1021132370796953
1.1012185972376747
1.0973264905025322
1.091325115418699
1.0840662663515572
1.0739762855909298
1.061302788978897
1.0460644732377054
0.8320945122478822
0.9074249340218561
0.9452662256582007
0.971396822784568
0.9917503285934616
1.0076449918717925
1.0226630192560615
1.0354172612286565
1.0492479934214813
1.0623315617825828
1.0745609071323732
1.0846313030876598
1.0920261872467545
1.0975434917133693
1.101417739905708
1.1031342714444443
1.1025555033180916
1.100342625567491
1.095852211950314
1.0898263651859146
1.0817304414705697
1.0716261819259731
1.0583547379921059
1.042585212786484
0.0750636901859857
0.15203365912521588
0.2360145237546786
0.28536949997083144
0.3542042301620748
0.45583898371241566
0.1062594738462126
0.18367649712529258
0.258113918750208
0.3023700724936918
0.3622140693881807
0.42621670470854733
0.12173192762881926
0.19432002695923933
0.2608566402504996
0.3030682737425138
0.3631438500448026
0.4314711310488238
0.1354523963217959
0.20177249617062754
0.260881500109901
0.3012106555318478
0.3635136188552475
0.4374355047103115
0.14923276757919116
0.20804276790149648
0.25968269899692686
0.29954683674809957
0.36236658922727477
0.4389347522067928
0.16247955254215485
0.2127973171420091
0.2574679629630807
0.2975068376263401
0.3599219572950356
0.4366052202093069
0.17415731392438843
0.21591986717144127
0.25546681779355035
0.29516102176607967
0.35636307702791103
0.4311249202439468
0.18383692757174358
0.21787531171641586
0.2535752950684446
0.29292434294963116
0.35247486701307107
0.42433767781095993
0.19192994884934056
0.2191383027089129
0.25156018021488863
0.29060438833363794
0.3485788068242244
0.4175171048178268
0.19823367099176614
0.22016272921327015
0.24976177833763455
0.28893014177512105
0.34516897606530494
0.41218632566982616
0.20260596817531337
0.22106526200610635
0.2500572837628452
0.28857802850917186
0.34424308859991865
0.41081206488041744
0.20491648186326802
0.2220871972048435
0.2513905120505536
0.2899290135018772
0.3450377610445388
0.41113089681191645
0.2053402140684997
0.22268277999149416
0.25344621002123774
0.29325876193706185
0.3487576397223972
0.41482314299427253
0.2033938983007759
0.2230535488753839
0.25586522052929983
0.29802612075280793
0.35505975040406734
0.42132976159730984
0.19920124471275338
0.22305724439613997
0.2585835006113618
0.3030541620249815
0.3617336554164226
0.4290606673340611
0.19305929686965045
0.22248038037391424
0.2613302055274119
0.30761212165881724
0.368347217961328
0.4371874721438014
0.18517223844228659
0.22132131885477782
0.26386329510765827
0.31144535365833986
0.374414226507396
0.4447403222023585
0.1753349204312352
0.21916461204835125
0.265614323393428
0.3145837651954984
0.37911634158974217