/*--------------------------------*- C++ -*----------------------------------*\
  =========                 |
  \\      /  F ield         | OpenFOAM: The Open Source CFD Toolbox
   \\    /   O peration     | Website:  https://openfoam.org
    \\  /    A nd           | Version:  11
     \\/     M anipulation  |
\*---------------------------------------------------------------------------*/
FoamFile
{
    format      ascii;
    class       volScalarField;
    location    "0.32";
    object      epsilon;
}
// * * * * * * * * * * * * * * * * * * * * * * * * * * * * * * * * * * * * * //

dimensions      [0 2 -3 0 0 0 0];

internalField   nonuniform List<scalar> 
2880
(
1.89392
2.5695
3.16157
3.27844
2.93313
2.91341
0.862937
1.12455
1.44213
1.58094
1.58436
1.83858
0.232487
0.868405
1.1287
1.23722
1.29682
1.52762
0.255477
0.821579
1.03943
1.13433
1.20789
1.39881
0.271614
0.841467
1.0192
1.1088
1.18792
1.3505
1.19298
0.903925
1.02851
1.11632
1.201
1.34296
1.25449
0.969334
1.05384
1.14282
1.23335
1.3635
1.37386
1.01882
1.086
1.17945
1.27664
1.40127
1.4819
1.0559
1.12033
1.2215
1.32625
1.4492
1.57165
1.08317
1.15493
1.26648
1.37936
1.50273
1.63974
1.10292
1.1893
1.31316
1.43417
1.55862
1.68573
1.11732
1.22355
1.36106
1.48966
1.61462
1.71161
1.12816
1.25799
1.41024
1.54548
1.66948
1.70872
1.135
1.29331
1.46131
1.60202
1.72295
1.67408
1.13825
1.33036
1.51546
1.66055
1.77593
1.60787
1.13804
1.37028
1.57469
1.72356
1.83077
1.51239
1.13418
1.41464
1.64222
1.79545
1.89195
1.39218
1.12709
1.46579
1.72331
1.88329
1.96529
1.25652
1.11724
1.5275
1.82645
1.99778
2.06846
0.280322
1.10594
1.60661
1.96603
2.16302
2.23183
0.263402
1.10822
1.71774
2.17144
2.42632
2.52425
0.23922
1.14355
1.90222
2.51467
2.89259
3.13394
0.883574
1.29911
2.32788
3.25487
3.83571
4.70066
1.92949
2.19322
3.97732
5.74642
6.35192
6.12234
5.46449
4.29078
2.59378
1.66109
1.1308
0.811971
0.609485
0.472467
0.373893
0.299328
0.240902
0.19424
0.156772
0.12681
0.103093
0.0846071
0.070526
0.0602015
0.0531414
0.0489301
0.0472104
0.0476024
0.0498159
0.054019
4.6989
4.72253
3.71251
2.36927
1.58522
1.12941
0.847729
0.661218
0.529349
0.429762
0.350947
0.286806
0.234017
0.190632
0.155328
0.127055
0.104923
0.088181
0.0762166
0.068485
0.0644328
0.0636877
0.065552
0.0702443
3.11028
4.68389
4.44802
3.50432
2.37997
1.6436
1.19744
0.919796
0.734426
0.601173
0.498187
0.414158
0.343636
0.283944
0.233688
0.191994
0.158162
0.131561
0.11162
0.0978066
0.0894368
0.0859757
0.0869695
0.0917149
2.2456
3.97061
4.54046
4.28999
3.52938
2.56788
1.83554
1.34967
1.03953
0.83484
0.690008
0.579467
0.488917
0.4116
0.344657
0.286972
0.238124
0.197898
0.166103
0.142519
0.126679
0.117951
0.116582
0.120797
1.87267
3.08972
4.1187
4.4047
4.21321
3.655
2.85607
2.14092
1.59827
1.22469
0.974737
0.802328
0.675595
0.575053
0.489971
0.415684
0.350571
0.294382
0.2474
0.210035
0.182579
0.1649
0.157784
0.160851
1.70934
2.53141
3.44864
4.1051
4.30196
4.18014
3.79632
3.16341
2.50544
1.92858
1.48327
1.16641
0.946873
0.79087
0.673208
0.577615
0.495478
0.423304
0.36029
0.306924
0.264203
0.233211
0.215708
0.21601
1.64655
2.22581
2.9446
3.60639
4.06331
4.22908
4.16355
3.91097
3.42749
2.85865
2.29118
1.79648
1.4099
1.1289
0.929596
0.784914
0.673578
0.581845
0.502794
0.433959
0.37527
0.32822
0.296134
0.289922
1.63385
2.07133
2.62697
3.19682
3.68388
4.02186
4.17002
4.14023
3.9724
3.61874
3.14374
2.62159
2.11691
1.68196
1.34135
1.09097
0.910365
0.776798
0.672329
0.58589
0.51212
0.449519
0.400617
0.384537
1.65146
2.00254
2.44126
2.91126
3.35187
3.71667
3.97273
4.10057
4.09116
3.97831
3.71855
3.33031
2.87024
2.38924
1.9394
1.55928
1.26349
1.04475
0.884612
0.764068
0.668896
0.590389
0.524417
0.496577
1.68622
1.97892
2.33464
2.71935
3.09426
3.42919
3.70213
3.8966
3.99939
3.99956
3.92063
3.72509
3.40934
3.01431
2.57682
2.14128
1.74919
1.42596
1.17672
0.991263
0.8534
0.748415
0.661171
0.619402
1.7287
1.97706
2.2698
2.58355
2.89241
3.17732
3.42512
3.62595
3.77084
3.8499
3.85362
3.79458
3.64274
3.38717
3.05348
2.66882
2.26857
1.89002
1.56158
1.29623
1.09233
0.94009
0.817166
0.752262
1.77292
1.9844
2.22358
2.47515
2.72146
2.95084
3.15637
3.33355
3.47801
3.58407
3.64418
3.64946
3.60402
3.48366
3.27866
3.00464
2.67743
2.32582
1.98019
1.66664
1.40141
1.19023
1.01771
0.915852
1.81509
1.99174
2.18158
2.37619
2.56405
2.73864
2.89716
3.03861
3.16204
3.26527
3.34387
3.39119
3.39896
3.36512
3.27196
3.1107
2.89489
2.63158
2.33712
2.03689
1.75341
1.50233
1.28284
1.14331
1.85332
1.99387
2.13622
2.27804
2.41283
2.53776
2.65244
2.75766
2.85425
2.94187
3.01822
3.07949
3.11963
3.13106
3.10875
3.04151
2.922
2.75815
2.55915
2.33019
2.08359
1.83778
1.60708
1.4618
1.88722
1.98907
2.08499
2.17899
2.2684
2.35291
2.43318
2.51023
2.58496
2.65652
2.72296
2.78307
2.8333
2.8679
2.8819
2.86917
2.8224
2.73767
2.6172
2.46873
2.30123
2.12018
1.94293
1.83956
1.91766
1.97723
2.02871
2.08137
2.1355
2.19215
2.25169
2.31378
2.37906
2.44636
2.51259
2.57272
2.62258
2.65779
2.67666
2.6794
2.66244
2.62206
2.55685
2.46688
2.35656
2.23866
2.1317
2.06436
1.94669
1.95956
1.96973
1.98909
2.01968
2.06263
2.1172
2.18471
2.26302
2.34438
2.42274
2.49106
2.54402
2.57786
2.59338
2.58973
2.56382
2.51785
2.45475
2.37853
2.29358
2.2056
2.12412
2.04227
1.97932
1.93768
1.91105
1.90635
1.92583
1.97007
2.0394
2.12773
2.22334
2.32104
2.41384
2.49422
2.55619
2.59289
2.60749
2.59731
2.56217
2.50574
2.43124
2.34199
2.24221
2.13853
2.03624
1.92222
2.01984
1.91481
1.85451
1.83677
1.85785
1.91935
2.01118
2.12422
2.25227
2.38459
2.50857
2.61329
2.69076
2.7353
2.74904
2.72638
2.6718
2.5941
2.49904
2.39171
2.27732
2.16092
2.04354
1.91639
2.07506
1.89383
1.80474
1.78288
1.81944
1.90758
2.03512
2.19267
2.36655
2.53928
2.69254
2.81167
2.88764
2.90389
2.87504
2.81783
2.74156
2.64705
2.53913
2.42305
2.30395
2.18564
2.06705
1.93912
2.15655
1.87914
1.76646
1.75013
1.81604
1.94758
2.12917
2.3441
2.56825
2.77222
2.92831
3.01094
3.00589
2.96155
2.88933
2.78726
2.66152
2.52279
2.37971
2.23773
2.1013
1.97273
1.85786
1.73223
2.28454
1.87628
1.74706
1.75068
1.86343
2.05775
2.3104
2.59142
2.8582
3.06318
3.16243
3.13008
3.02347
2.85649
2.64741
2.42488
2.20554
1.9978
1.80771
1.63064
1.47091
1.32476
1.20557
1.07058
2.48483
1.89333
1.75798
1.80185
1.9837
2.26168
2.59868
2.94147
3.21955
3.36824
3.34389
3.15865
2.85688
2.50374
2.15093
1.83046
1.55071
1.31241
1.11547
0.956788
0.825276
0.712027
0.61719
0.531067
2.76012
1.94586
1.82264
1.93467
2.20849
2.58637
3.00687
3.38091
3.61054
3.63622
3.42179
3.02074
2.54482
2.08388
1.68748
1.36817
1.12405
0.941359
0.794869
0.673165
0.570548
0.483361
0.41062
0.355886
1.76479
1.79679
3.29785
4.62371
5.53089
6.21653
0.82866
1.19041
2.10035
2.99868
4.10975
5.18092
0.226904
1.13682
1.85339
2.5209
3.25029
3.64573
0.252032
1.14387
1.74429
2.26528
2.7473
2.96295
0.269597
1.15196
1.66164
2.0742
2.44437
2.6592
1.18831
1.15598
1.5852
1.92451
2.23684
2.50372
1.26514
1.15087
1.51132
1.80002
2.08828
2.41214
1.35285
1.13842
1.43973
1.69168
1.97202
2.35289
1.42198
1.12096
1.37054
1.59393
1.87388
2.31162
1.46712
1.09952
1.30375
1.50314
1.786
2.28231
1.4865
1.07482
1.23917
1.41702
1.70396
2.26324
1.48249
1.04744
1.17666
1.33417
1.62535
2.25516
1.45285
1.01781
1.11608
1.25386
1.549
2.2606
1.40315
0.986369
1.05717
1.17594
1.47456
2.28209
1.34174
0.952273
0.999547
1.10053
1.40132
2.32177
1.26825
0.909522
0.942368
1.02749
1.32861
2.37833
1.18869
0.847593
0.883914
0.956969
1.25578
2.44634
0.278906
0.744112
0.824491
0.888866
1.18185
2.51418
0.271997
0.662785
0.767981
0.824561
1.10595
2.5717
0.260014
0.603746
0.720657
0.767752
1.02864
2.61214
0.242928
0.574979
0.692976
0.727598
0.954845
2.63296
0.220724
0.599862
0.707157
0.728492
0.902166
2.66547
0.822183
0.798414
0.844692
0.834988
0.930387
2.78791
1.89748
1.90515
1.81189
1.62575
1.43423
2.64946
2.80575
2.04982
1.9791
2.18656
2.57032
3.05295
3.53154
3.87204
3.96793
3.77439
3.34482
2.76197
2.19848
1.73532
1.38413
1.12536
0.931943
0.77907
0.653788
0.549119
0.461034
0.387267
0.327379
0.288026
2.74428
2.22215
2.25369
2.58214
3.09021
3.66282
4.13991
4.34539
4.21134
3.78788
3.09896
2.41847
1.86407
1.45799
1.16756
0.954137
0.790086
0.658373
0.549725
0.459407
0.384627
0.323991
0.278038
0.251428
2.68721
2.45965
2.64678
3.12671
3.76381
4.37849
4.74723
4.68528
4.28717
3.51601
2.71063
2.04497
1.56262
1.22643
0.983361
0.798236
0.652917
0.535588
0.440158
0.363271
0.302681
0.257182
0.226776
0.212432
2.6952
2.74943
3.1433
3.80552
4.55124
5.10661
5.18469
4.81987
4.01871
3.07018
2.27322
1.70136
1.31091
1.03514
0.828156
0.667264
0.538667
0.435254
0.353169
0.289479
0.241931
0.208893
0.1891
0.181297
2.73958
3.08268
3.72584
4.58606
5.36624
5.67025
5.3727
4.60329
3.50595
2.55838
1.88168
1.42665
1.11026
0.87597
0.694588
0.551349
0.438306
0.350254
0.282996
0.233085
0.197746
0.174707
0.162129
0.158108
2.81866
3.44949
4.37967
5.41493
6.06501
5.91334
5.26803
4.03646
2.91814
2.11485
1.57948
1.21106
0.940725
0.73332
0.57142
0.445457
0.348855
0.276224
0.223015
0.185426
0.160318
0.145102
0.137827
0.136357
2.91642
3.85105
5.09356
6.20328
6.42568
5.92979
4.69933
3.37759
2.41685
1.77961
1.34489
1.02884
0.788794
0.603734
0.46176
0.354354
0.274545
0.216553
0.175635
0.147964
0.130411
0.120588
0.116672
0.116608
3.02936
4.30001
5.84496
6.77362
6.52597
5.50699
3.97639
2.81801
2.04677
1.52473
1.14904
0.866839
0.651973
0.489257
0.367731
0.278522
0.21432
0.169206
0.138493
0.118535
0.106502
0.100374
0.0985913
0.0992115
3.16212
4.81677
6.57792
6.98955
6.34525
4.78
3.3625
2.40833
1.76842
1.31331
0.975279
0.720886
0.530662
0.390501
0.288968
0.21669
0.166217
0.131806
0.109125
0.0949313
0.0868525
0.0832315
0.0827736
0.0837789
3.32387
5.41825
7.16697
7.00822
5.80956
4.09358
2.8998
2.102
1.54011
1.12679
0.818922
0.591427
0.426065
0.307989
0.225044
0.167655
0.128615
0.102663
0.0860224
0.0759738
0.0706167
0.0686231
0.0688916
0.0701357
3.52634
6.10094
7.41739
6.81958
5.10169
3.58595
2.56652
1.85622
1.33929
0.957963
0.679144
0.479009
0.338172
0.24074
0.174225
0.129331
0.0994416
0.0799685
0.0677605
0.0606354
0.0571075
0.0561322
0.0567641
0.0581346
3.78297
6.81002
7.45719
6.41535
4.53597
3.21474
2.29983
1.63999
1.15661
0.8059
0.556763
0.383798
0.266047
0.186998
0.134397
0.0996227
0.0768521
0.0622318
0.0532212
0.0481192
0.0457863
0.0454142
0.0462269
0.0475808
4.1118
7.42165
7.37626
5.90899
4.14929
2.93582
2.07172
1.44331
0.990165
0.670892
0.451775
0.304839
0.207953
0.144674
0.103484
0.076698
0.0593585
0.0483193
0.0415807
0.0378457
0.036255
0.0361944
0.0370537
0.0383242
4.53908
7.82417
7.29588
5.46044
3.84124
2.69352
1.8605
1.26064
0.839728
0.553217
0.363513
0.24054
0.161835
0.11167
0.079612
0.0590204
0.0457785
0.0373633
0.0322237
0.029386
0.0282133
0.028252
0.0290565
0.0302119
5.08806
8.07289
7.16161
5.15291
3.60509
2.47754
1.6634
1.09259
0.705987
0.452487
0.290564
0.188929
0.125613
0.0860975
0.0612187
0.045377
0.0352116
0.0287188
0.0247009
0.0224294
0.0214414
0.0214244
0.0220747
0.0230845
5.74713
8.24748
7.02591
4.95672
3.40007
2.27074
1.47639
0.939056
0.588823
0.367634
0.231143
0.14798
0.0973929
0.0663724
0.0470674
0.0348429
0.0269868
0.0219129
0.0186897
0.0167644
0.0158001
0.0155868
0.0159696
0.0167723
6.46436
8.41347
6.96183
4.80272
3.20022
2.06789
1.3001
0.800772
0.487737
0.297152
0.18331
0.115788
0.0755476
0.0512191
0.0362059
0.0267258
0.0206084
0.0165969
0.013956
0.0122497
0.0112127
0.0106873
0.0106235
0.0110533
7.21527
8.64475
6.96372
4.6509
2.99501
1.86875
1.13576
0.677895
0.401667
0.239293
0.145181
0.0906719
0.0587349
0.0396343
0.0279117
0.0205131
0.0157113
0.0125104
0.0103221
0.00878661
0.00766794
0.00679553
0.00605952
0.00564851
8.10653
9.0223
6.98316
4.48291
2.78055
1.67391
0.984007
0.56991
0.329159
0.192237
0.115013
0.0711893
0.0458597
0.0308279
0.0216305
0.0158193
0.0120252
0.00946103
0.00765712
0.00631803
0.00524135
0.00427294
0.00328061
0.00181559
9.28728
9.60269
6.99056
4.28089
2.55377
1.48454
0.845385
0.47602
0.268652
0.154256
0.0912722
0.0561295
0.0360276
0.024161
0.0169117
0.012326
0.0093216
0.00727908
0.00583003
0.00474336
0.00386233
0.00307205
0.00227385
0.00122995
10.8366
10.4005
6.87746
4.02909
2.31634
1.30298
0.720123
0.395125
0.218533
0.123759
0.072637
0.0444895
0.0285069
0.019102
0.0133605
0.0097263
0.00734267
0.00572105
0.00457152
0.00371199
0.00301727
0.00239503
0.00177763
0.00102817
12.92
11.1871
6.62084
3.72712
2.07099
1.13021
0.607795
0.32595
0.177274
0.0993562
0.0580127
0.0354649
0.0227181
0.015227
0.0106527
0.00775505
0.00585327
0.00455915
0.00364193
0.00295599
0.00240035
0.00190252
0.00141861
0.000872752
15.8605
11.6183
6.2427
3.37287
1.8199
0.967532
0.508071
0.26731
0.143515
0.0798784
0.0465193
0.028432
0.0182243
0.0122231
0.00855429
0.0062277
0.00469947
0.00365907
0.0029215
0.00236966
0.00192256
0.00152476
0.00114907
0.000753531
20.4166
11.6905
5.65825
2.96629
1.56908
0.816983
0.420688
0.218109
0.116067
0.064358
0.037465
0.0229193
0.0147056
0.00986859
0.00690658
0.00502597
0.00379004
0.00294878
0.00235294
0.00190808
0.00154945
0.00123489
0.000947434
0.000661576
2.3193
8.25559
10.9807
11.8347
46.667
57.8365
0.934772
3.71064
5.16002
6.23503
9.81562
16.9884
1.30479
2.78751
3.71252
4.60642
6.20724
9.35819
1.84551
2.46764
3.09664
3.84176
4.93997
6.47794
2.356
2.33784
2.7594
3.37309
4.18209
5.03717
2.80855
2.27647
2.54978
3.04279
3.64582
4.14974
3.18649
2.24225
2.40402
2.79156
3.24002
3.53694
3.48195
2.21374
2.29216
2.59213
2.9225
3.08621
3.69336
2.18021
2.19914
2.43041
2.66997
2.74302
3.82356
2.13794
2.11852
2.2983
2.4683
2.47723
3.87853
2.08759
2.04868
2.19124
2.3086
2.27177
3.86695
2.03259
1.9903
2.10681
2.18519
2.1156
3.80016
1.97761
1.94471
2.04403
2.0948
2.00163
3.68058
1.92562
1.91385
2.00441
2.03611
1.92576
3.49978
1.87681
1.89991
1.98879
2.01037
1.88832
3.25816
1.83222
1.90287
1.99756
2.01507
1.88733
2.95943
1.79376
1.92735
2.03667
2.05741
1.92989
2.60872
1.76404
1.97777
2.11325
2.14652
2.02846
2.21243
1.74814
2.0612
2.23961
2.29979
2.2088
1.77935
1.74873
2.1902
2.43782
2.55112
2.5269
1.32386
1.77957
2.39163
2.75019
2.97172
3.11668
0.269769
1.87011
2.73804
3.28803
3.69963
4.36997
1.01308
2.2169
3.49747
4.40887
5.04916
7.81518
2.32921
3.9269
6.08846
7.87634
7.63679
27.3867
24.3442
9.70214
4.77379
2.52789
1.32757
0.680694
0.345367
0.177277
0.0938848
0.0520062
0.0303129
0.0185736
0.0119292
0.00800674
0.00560053
0.00407165
0.00306724
0.00238467
0.00190278
0.00154498
0.00125926
0.00101321
0.000795794
0.000590554
12.7141
6.94522
3.8719
2.1124
1.10675
0.560868
0.281698
0.143785
0.0760468
0.042185
0.0246484
0.0151308
0.0097251
0.00652516
0.00455942
0.0033105
0.00249136
0.0019366
0.0015472
0.00126065
0.0010349
0.00084468
0.000682294
0.000536212
8.3094
5.3844
3.17496
1.75393
0.913677
0.458667
0.228933
0.116637
0.0617801
0.0343818
0.020151
0.012392
0.00796733
0.00534152
0.00372733
0.00270299
0.00203328
0.0015822
0.00126822
0.00103997
0.000863156
0.000717742
0.000597861
0.00049485
6.15821
4.32538
2.61453
1.44847
0.749204
0.373566
0.18595
0.0948519
0.0504182
0.028182
0.0165714
0.0102058
0.00656108
0.00439393
0.00306202
0.00221887
0.00167026
0.00130352
0.00105104
0.000870257
0.000732963
0.000622982
0.000535442
0.000463483
4.85464
3.51907
2.15636
1.19267
0.612502
0.304134
0.151407
0.0774966
0.0413916
0.0232514
0.0137147
0.00845577
0.00543378
0.00363481
0.0025306
0.00183419
0.00138395
0.00108584
0.000883342
0.000740943
0.000635209
0.000552843
0.000489538
0.00043972
3.97071
2.90024
1.7854
0.982611
0.501154
0.248345
0.123906
0.0637287
0.0342249
0.019323
0.0114292
0.00705184
0.00452908
0.00302688
0.00210696
0.00152965
0.00115935
0.000916964
0.000754917
0.000643303
0.000562475
0.000501321
0.000455914
0.000421723
3.3291
2.42236
1.48747
0.812527
0.411764
0.203971
0.102127
0.0528225
0.0285303
0.0161855
0.00959589
0.00592359
0.00380267
0.00254051
0.00177009
0.00128952
0.000984125
0.000786867
0.000657368
0.000570224
0.000508809
0.000463722
0.00043137
0.000408118
2.84503
2.05138
1.24945
0.6761
0.340726
0.168886
0.0849148
0.0441745
0.0239989
0.0136722
0.00812169
0.00501565
0.00321941
0.00215193
0.00150297
0.00110098
0.0008482
0.000687359
0.000583884
0.000515997
0.000469523
0.000436452
0.00041354
0.000397904
2.47401
1.76099
1.05985
0.567318
0.284636
0.141216
0.0713076
0.0373013
0.0203792
0.0116523
0.00693355
0.00428426
0.00275123
0.00184199
0.00129179
0.000953609
0.000743406
0.000611836
0.000529015
0.000476114
0.000440993
0.000416822
0.000400706
0.000390344
2.1882
1.53287
0.909162
0.480968
0.240372
0.119379
0.0605249
0.0318213
0.0174741
0.0100233
0.00597398
0.00369465
0.00237565
0.00159525
0.0011254
0.000838996
0.000663176
0.000555024
0.000488457
0.000447075
0.000420469
0.000402843
0.000391618
0.000384887
1.96802
1.35381
0.789665
0.412568
0.205419
0.1021
0.0519476
0.0274335
0.0151327
0.00870573
0.00519769
0.00321918
0.00207466
0.00139928
0.000994814
0.000750379
0.000602254
0.00051274
0.000458844
0.000426198
0.000405888
0.000393026
0.000385337
0.000381076
1.80032
1.214
0.695139
0.358441
0.177769
0.0883771
0.045092
0.0239031
0.013238
0.00763697
0.00456889
0.00283587
0.00183386
0.00124416
0.000892842
0.000682364
0.00055646
0.000481674
0.000437553
0.000411451
0.000395729
0.00038628
0.000381107
0.000378484
1.67621
1.10615
0.620636
0.315673
0.155842
0.0774255
0.0395822
0.021048
0.0116983
0.00676799
0.0040593
0.00252727
0.00164187
0.00112202
0.000813843
0.000630731
0.000522533
0.000459266
0.000422592
0.00040133
0.000388906
0.000381852
0.00037838
0.000376773
1.58994
1.02484
0.562213
0.282047
0.13841
0.0686369
0.0351262
0.0187263
0.0104422
0.00606009
0.00364647
0.00227955
0.00148965
0.00102673
0.000753449
0.000592256
0.000498022
0.000443621
0.000412499
0.000394726
0.000384601
0.000379239
0.000376763
0.000375751
1.53846
0.966246
0.516876
0.255759
0.124503
0.0615368
0.031497
0.0168268
0.00941341
0.00548262
0.00331257
0.00208169
0.00137008
0.000953457
0.000708261
0.000564459
0.000481064
0.000433329
0.000406214
0.000390848
0.00038223
0.000377875
0.000375961
0.00037525
1.52218
0.92785
0.482558
0.235171
0.113336
0.0557513
0.0285161
0.0152623
0.00856719
0.00501108
0.00304328
0.00192486
0.00127743
0.000898342
0.000675572
0.000545367
0.000470187
0.000427288
0.000402921
0.000389095
0.000381383
0.000377497
0.00037576
0.000375114
1.54108
0.908078
0.457724
0.219114
0.104295
0.0509836
0.0260417
0.0139629
0.00786784
0.00462579
0.00282708
0.00180197
0.00120715
0.000858321
0.000653239
0.000533429
0.000464254
0.000424672
0.000402031
0.000389046
0.000381664
0.000377774
0.000375925
0.000375147
1.60215
0.906176
0.441576
0.206667
0.0968744
0.0469918
0.0239592
0.0128725
0.00728646
0.00431083
0.00265468
0.00170733
0.00115562
0.00083101
0.000639632
0.000527506
0.000462476
0.000424886
0.000403114
0.000390374
0.000382932
0.000378706
0.000376443
0.000375293
1.71616
0.922933
0.432949
0.196964
0.0906368
0.0435726
0.0221735
0.0119449
0.0067995
0.00405325
0.00251857
0.00163642
0.00112002
0.000814591
0.000633545
0.000526767
0.000464128
0.000427584
0.000405948
0.000392934
0.000385013
0.000380188
0.000377294
0.00037558
1.90119
0.960518
0.430396
0.189105
0.0851708
0.0405491
0.0206053
0.0111419
0.00638769
0.00384254
0.00241276
0.0015857
0.00109819
0.000807733
0.000634109
0.000530513
0.000469183
0.000432602
0.000410436
0.00039668
0.000387918
0.000382205
0.000378457
0.000376002
2.18502
1.02172
0.432002
0.182159
0.0800921
0.0377649
0.0191876
0.0104323
0.00603534
0.0036702
0.00233247
0.00155242
0.00108854
0.000809446
0.00064064
0.000538885
0.000477394
0.000439917
0.000416608
0.000401662
0.000391705
0.000384817
0.000379994
0.000376619
2.60561
1.10636
0.434535
0.174937
0.0750226
0.0350847
0.0178661
0.00979155
0.00573021
0.00352954
0.00227404
0.00153462
0.00108996
0.000819168
0.000653419
0.000551627
0.000488854
0.000449663
0.000424608
0.000408016
0.000396505
0.00038815
0.000382024
0.000377532
3.20015
1.19414
0.431188
0.16588
0.0695813
0.0324002
0.0166019
0.00920333
0.00546485
0.00341711
0.00223577
0.00153118
0.00110201
0.000837041
0.00067214
0.000568924
0.000503816
0.000462112
0.000434701
0.000415986
0.000402531
0.000392393
0.000384714
0.000378877
3.89071
1.22173
0.412371
0.153316
0.0634614
0.0296428
0.0153762
0.0086611
0.00523553
0.00333117
0.00221629
0.0015415
0.00112448
0.00086288
0.00069709
0.000591128
0.000522664
0.000477648
0.000447245
0.000425893
0.000410071
0.000397806
0.00038829
0.000380846
2.338
2.3664
2.84485
3.94309
5.24969
29.2867
0.937052
1.37134
2.33486
4.03626
7.15338
11.7469
0.24807
1.38515
2.5376
4.30524
6.06766
6.20314
0.269705
1.5257
2.69805
4.07142
4.71543
3.83821
1.24049
1.67818
2.75015
3.59563
3.72355
2.56418
1.53384
1.78281
2.69554
3.17814
2.98184
1.82282
1.80358
1.85545
2.5706
2.83029
2.42523
1.36823
2.04569
1.90348
2.43858
2.54297
2.01398
1.08107
2.24563
1.9338
2.32574
2.31035
1.71663
0.898469
2.39345
1.95461
2.24064
2.12813
1.50897
0.785584
2.48361
1.97226
2.1812
1.99628
1.37444
0.721858
2.51473
1.98899
2.14593
1.91271
1.30051
0.698919
2.49378
2.00457
2.13276
1.87488
1.28105
0.70489
2.42489
2.01715
2.13638
1.87722
1.29782
0.745553
2.32959
2.02448
2.1518
1.91443
1.36588
0.821762
2.22125
2.02272
2.17818
1.98765
1.48072
0.93994
2.08445
2.0083
2.21255
2.08691
1.64465
1.10957
1.90913
1.97301
2.25551
2.20915
1.86115
1.3435
1.68911
1.92008
2.30904
2.35987
2.13109
1.66012
1.42482
1.86539
2.3817
2.5551
2.44641
2.08974
0.280507
1.82985
2.50543
2.81113
2.82969
2.6484
0.256223
1.88193
2.76456
3.1865
3.36021
3.44236
0.964562
2.29629
3.48634
3.99276
4.27316
5.47989
2.26665
4.9212
6.97454
7.10241
6.81593
26.3146
3.57483
1.10619
0.371861
0.13628
0.0565561
0.0268299
0.014193
0.00817226
0.00504229
0.00327093
0.00221496
0.00156571
0.0011577
0.000897171
0.000728797
0.00061878
0.000545929
0.000496772
0.000462708
0.000438176
0.000419538
0.000404735
0.000392868
0.000383565
2.79413
0.896773
0.310126
0.115777
0.0493794
0.0240845
0.0130871
0.00774306
0.00488817
0.00323751
0.00223344
0.00160498
0.00120272
0.000940915
0.000768196
0.000652756
0.000574423
0.000520224
0.000481745
0.000453391
0.000431351
0.000413411
0.000398565
0.000387071
1.94635
0.676349
0.245384
0.0958625
0.0426169
0.0215655
0.0121056
0.00738517
0.0047804
0.00323385
0.00227438
0.00166153
0.00126145
0.000995798
0.000816809
0.000694446
0.000609406
0.000549121
0.000505302
0.000472277
0.000446017
0.000424165
0.000405808
0.000391587
1.37758
0.505696
0.1916
0.0787491
0.0367473
0.0193949
0.0112945
0.00711314
0.00472589
0.00326695
0.00234216
0.00173879
0.00133675
0.0010643
0.000876826
0.000745802
0.000652613
0.000584974
0.000534652
0.000495873
0.000464394
0.000437806
0.00041544
0.000397638
1.00207
0.38149
0.150444
0.0651184
0.0319723
0.0176359
0.0106868
0.00694084
0.00473015
0.00334363
0.00244253
0.00184147
0.00143255
0.00114975
0.000951124
0.000809337
0.00070625
0.000629721
0.000571498
0.000525675
0.000487791
0.000455409
0.000428114
0.000405619
0.752207
0.293791
0.120318
0.0547963
0.0283066
0.0163245
0.0102898
0.00689179
0.00481179
0.00347396
0.00258323
0.00197583
0.00155402
0.0012565
0.00104341
0.000888252
0.000773112
0.000685822
0.000618006
0.000563563
0.000517767
0.000478142
0.000444585
0.000415908
0.58444
0.232974
0.0989258
0.047313
0.0256675
0.0154765
0.0101158
0.00697015
0.0049838
0.0036702
0.00277431
0.00215009
0.00170795
0.00139022
0.00115851
0.000986698
0.000856826
0.000756483
0.000677013
0.000612004
0.000556368
0.000507548
0.000465894
0.000429038
0.471637
0.19156
0.0842573
0.0422091
0.0239774
0.0150847
0.0101862
0.00720578
0.00526585
0.00394848
0.003029
0.00237508
0.00190327
0.00155837
0.0013027
0.00111007
0.0009621
0.000845861
0.000752203
0.000674228
0.000606319
0.000545751
0.000493509
0.000445749
0.396892
0.164273
0.074803
0.0391295
0.0231859
0.0151308
0.010529
0.00762804
0.00568397
0.00433035
0.00336489
0.00266518
0.00215179
0.00177074
0.00148424
0.00126543
0.00109505
0.000959337
0.000848345
0.000754438
0.000671225
0.000595635
0.000529471
0.000467053
0.349713
0.147653
0.0695512
0.0378537
0.0232472
0.0156816
0.0111952
0.00827995
0.00627398
0.00484503
0.0038057
0.00303964
0.00246926
0.00204036
0.00171404
0.00146204
0.00126369
0.00110391
0.000971623
0.000858105
0.000755835
0.000661084
0.000576584
0.000494324
0.324064
0.139828
0.0680103
0.0381402
0.0242572
0.016808
0.0122578
0.0092229
0.00708584
0.00553279
0.00438385
0.00352469
0.00287705
0.00238481
0.00200674
0.00171226
0.00147858
0.00128877
0.00113013
0.000992388
0.000866415
0.00074732
0.000638698
0.000529392
0.317381
0.139546
0.0696054
0.0403357
0.0263471
0.0186431
0.0138268
0.0105454
0.00819015
0.00644997
0.00514441
0.00415659
0.00340458
0.0028282
0.00238234
0.00203289
0.00175405
0.00152628
0.00133465
0.00116681
0.00101134
0.00086143
0.000721128
0.000574629
0.325469
0.147111
0.0753973
0.0447089
0.0297814
0.0213977
0.0160667
0.0123761
0.00968818
0.00767665
0.0061511
0.00498643
0.00409319
0.00340438
0.00286889
0.0024475
0.00211012
0.00183369
0.0016002
0.00139452
0.00120219
0.0010134
0.000831509
0.000633048
0.354713
0.164461
0.0861013
0.0518923
0.0350046
0.025398
0.0192234
0.0149042
0.0117272
0.00932855
0.00749562
0.00608755
0.0050022
0.00416198
0.00350686
0.00299029
0.00257618
0.00223651
0.00194916
0.00169523
0.00145643
0.00121861
0.000982037
0.000708795
0.407289
0.194238
0.103445
0.0629551
0.0427294
0.0311472
0.0236681
0.0184113
0.0145248
0.0115757
0.00931224
0.00756713
0.00621837
0.00517242
0.00435628
0.00371288
0.00319761
0.00277551
0.00241861
0.00210286
0.00180502
0.00150545
0.00119692
0.000810895
0.49002
0.241116
0.130268
0.0796291
0.054081
0.0394232
0.0299663
0.0233225
0.0184071
0.0146719
0.0118006
0.00958426
0.00787046
0.00654212
0.00550753
0.00469466
0.00404695
0.00351973
0.00307689
0.0026871
0.00232026
0.00194795
0.00154525
0.000994234
0.613447
0.312524
0.171122
0.10468
0.0708299
0.0514341
0.0389874
0.0302866
0.0238697
0.0190015
0.0152621
0.012378
0.0101512
0.00843002
0.00709579
0.00605558
0.00523667
0.00458216
0.00404687
0.00359328
0.00318648
0.00278941
0.00237723
0.00208291
0.792617
0.41956
0.233037
0.142439
0.095748
0.0690605
0.0520767
0.0403039
0.0316748
0.0251535
0.020157
0.0163116
0.0133506
0.0110716
0.00931713
0.00796477
0.00692041
0.00611348
0.00549364
0.00502814
0.00469714
0.00449481
0.00447917
0.00491501
1.04768
0.577744
0.326361
0.199501
0.133113
0.0952131
0.0713169
0.0549233
0.0430032
0.0340415
0.0271975
0.0219433
0.0179092
0.0148173
0.0124535
0.0106525
0.00929026
0.00827768
0.00755758
0.00710017
0.00689621
0.00696163
0.00738487
0.00832711
1.40554
0.807198
0.465307
0.285426
0.189325
0.134316
0.0999001
0.0765343
0.0596877
0.0470896
0.0374967
0.0301452
0.0245109
0.0202048
0.0169293
0.0144568
0.0126192
0.0112998
0.0104273
0.00996648
0.00990497
0.0102293
0.0110588
0.0124256
1.91417
1.13405
0.668006
0.413118
0.273453
0.192837
0.142591
0.10876
0.0845457
0.0665138
0.0528028
0.0422943
0.0342369
0.0280807
0.0234069
0.0198967
0.0173158
0.0155035
0.0143611
0.0138339
0.0138869
0.014453
0.0156835
0.0174894
2.64604
1.58664
0.954341
0.597965
0.397152
0.279556
0.206114
0.156874
0.121786
0.0957001
0.075838
0.0605664
0.0488129
0.0398032
0.0329484
0.0277989
0.0240224
0.0213877
0.0197468
0.0190048
0.0190863
0.0198492
0.0214758
0.0237732
3.67664
2.16014
1.32427
0.847754
0.570777
0.40425
0.298862
0.227924
0.177319
0.139596
0.110715
0.0883406
0.0709765
0.0575599
0.047281
0.0395134
0.0337853
0.0297591
0.0272064
0.0259611
0.0259027
0.0267593
0.0287483
0.0316107
6.28803
3.29805
1.90765
1.20407
0.811943
0.578675
0.430524
0.3304
0.258686
0.204882
0.163279
0.130634
0.104943
0.0848183
0.0692012
0.0572569
0.0483362
0.0419554
0.0377679
0.0355008
0.0349431
0.0357284
0.0379657
0.0414697
)
;

boundaryField
{
    rotor
    {
        type            epsilonWallFunction;
        value           nonuniform List<scalar> 
144
(
1.89392
2.5695
3.16157
3.27844
2.93313
2.91341
1.89392
0.862937
0.232487
0.255477
0.271614
1.19298
1.25449
1.37386
1.4819
1.57165
1.63974
1.68573
1.71161
1.70872
1.67408
1.60787
1.51239
1.39218
1.25652
0.280322
0.263402
0.23922
0.883574
1.92949
1.92949
2.19322
3.97732
5.74642
6.35192
6.12234
1.76479
1.79679
3.29785
4.62371
5.53089
6.21653
1.76479
0.82866
0.226904
0.252032
0.269597
1.18831
1.26514
1.35285
1.42198
1.46712
1.4865
1.48249
1.45285
1.40315
1.34174
1.26825
1.18869
0.278906
0.271997
0.260014
0.242928
0.220724
0.822183
1.89748
1.89748
1.90515
1.81189
1.62575
1.43423
2.64946
2.3193
8.25559
10.9807
11.8347
46.667
57.8365
2.3193
0.934772
1.30479
1.84551
2.356
2.80855
3.18649
3.48195
3.69336
3.82356
3.87853
3.86695
3.80016
3.68058
3.49978
3.25816
2.95943
2.60872
2.21243
1.77935
1.32386
0.269769
1.01308
2.32921
2.32921
3.9269
6.08846
7.87634
7.63679
27.3867
2.338
2.3664
2.84485
3.94309
5.24969
29.2867
2.338
0.937052
0.24807
0.269705
1.24049
1.53384
1.80358
2.04569
2.24563
2.39345
2.48361
2.51473
2.49378
2.42489
2.32959
2.22125
2.08445
1.90913
1.68911
1.42482
0.280507
0.256223
0.964562
2.26665
2.26665
4.9212
6.97454
7.10241
6.81593
26.3146
)
;
    }
    freestream
    {
        type            inletOutlet;
        inletValue      uniform 0.000375;
        value           nonuniform List<scalar> 
96
(
0.054019
0.0702443
0.0917149
0.120797
0.160851
0.21601
0.289922
0.384537
0.496577
0.619402
0.752262
0.915852
1.14331
1.4618
1.83956
2.06436
2.04227
1.92222
1.91639
1.93912
1.73223
1.07058
0.531067
0.355886
0.288026
0.251428
0.212432
0.181297
0.158108
0.136357
0.116608
0.0992115
0.0837789
0.0701357
0.0581346
0.0475808
0.0383242
0.0302119
0.0230845
0.0167723
0.0110533
0.00564851
0.000375
0.000375
0.000375
0.000375
0.000375
0.000375
0.000375
0.000375
0.000375
0.000375
0.000375
0.000375
0.000375
0.000375
0.000375
0.000375
0.000375
0.000375
0.000375
0.000375
0.000375
0.000375
0.000375
0.000375
0.000375
0.000375
0.000375
0.000375
0.000375
0.000375
0.000375
0.000375
0.000375
0.000375
0.000375
0.000375
0.000375
0.000375
0.000375
0.000375
0.000375
0.000375
0.000375
0.000375
0.000375
0.000375
0.00208291
0.00491501
0.00832711
0.0124256
0.0174894
0.0237732
0.0316107
0.0414697
)
;
    }
    frontAndBack
    {
        type            empty;
    }
}


// ************************************************************************* //
