/*--------------------------------*- C++ -*----------------------------------*\
  =========                 |
  \\      /  F ield         | OpenFOAM: The Open Source CFD Toolbox
   \\    /   O peration     | Website:  https://openfoam.org
    \\  /    A nd           | Version:  11
     \\/     M anipulation  |
\*---------------------------------------------------------------------------*/
FoamFile
{
    format      ascii;
    class       volScalarField;
    location    "0.32";
    object      k;
}
// * * * * * * * * * * * * * * * * * * * * * * * * * * * * * * * * * * * * * //

dimensions      [0 2 -2 0 0 0 0];

internalField   nonuniform List<scalar> 
2880
(
0.00406141
0.0106573
0.02156
0.0333085
0.041569
0.0549175
0.0166078
0.0285505
0.0439364
0.0564904
0.0655489
0.0788624
0.0206429
0.0371318
0.0550452
0.0684479
0.0789866
0.0915436
0.0226951
0.0430049
0.0626742
0.0769823
0.0886284
0.101138
0.02415
0.0478254
0.0687993
0.0840455
0.096711
0.109547
0.025019
0.0521856
0.0740948
0.0902941
0.103957
0.117245
0.0258808
0.0562831
0.0788135
0.0959771
0.110641
0.124481
0.0275309
0.0599339
0.0830253
0.101179
0.116862
0.131345
0.0289587
0.0630761
0.0867286
0.105909
0.122632
0.13782
0.0301178
0.0656583
0.0899004
0.110145
0.127919
0.143835
0.0309827
0.0676454
0.0925145
0.113852
0.132672
0.1493
0.0315604
0.0690062
0.094542
0.116987
0.136833
0.154126
0.0318834
0.0697024
0.0959477
0.119499
0.14034
0.158239
0.0318482
0.0697269
0.0966866
0.121331
0.143136
0.161586
0.0314169
0.0690589
0.0966984
0.122412
0.145163
0.164136
0.0305834
0.0676545
0.0959073
0.122639
0.146357
0.165884
0.0293607
0.0654537
0.0942121
0.121929
0.146625
0.16685
0.0277829
0.0623727
0.0914773
0.120115
0.145875
0.16704
0.0259298
0.0582888
0.0875163
0.116981
0.143897
0.16634
0.0249232
0.0529937
0.082057
0.112212
0.140376
0.164571
0.0234169
0.0464821
0.0746607
0.10531
0.134768
0.161391
0.0212442
0.0381836
0.0644961
0.0954023
0.126006
0.155754
0.0170068
0.0265133
0.0495284
0.0806273
0.111949
0.143876
0.00413872
0.00911426
0.0271528
0.0583936
0.0900122
0.116312
0.135096
0.136406
0.130026
0.11869
0.108847
0.100677
0.0938841
0.0879009
0.0823129
0.0769171
0.0716689
0.0666276
0.0619045
0.0576244
0.0539088
0.0508737
0.048634
0.0472978
0.0469477
0.0474361
0.04881
0.0510079
0.0538478
0.0569516
0.136148
0.147031
0.14017
0.127395
0.116531
0.108567
0.102239
0.0967854
0.0917326
0.0867171
0.081629
0.076506
0.0714726
0.0666948
0.0623511
0.0586221
0.055691
0.0537355
0.0529032
0.0531471
0.0543142
0.0565424
0.0595611
0.0629505
0.130522
0.164062
0.162074
0.148633
0.131531
0.119431
0.111132
0.105263
0.100447
0.0959874
0.0914639
0.0867152
0.0817857
0.0768256
0.0720427
0.0676746
0.0639789
0.0612223
0.0596492
0.0594208
0.0601962
0.0621801
0.0652651
0.0689266
0.129462
0.166919
0.182056
0.177674
0.162951
0.143326
0.127841
0.117311
0.110218
0.105054
0.100657
0.0964195
0.0919933
0.0873182
0.0825152
0.0778087
0.0734931
0.069912
0.067427
0.0663539
0.0666352
0.0680618
0.0710022
0.0748777
0.132408
0.166068
0.191104
0.199853
0.195322
0.1816
0.161767
0.143072
0.128527
0.118332
0.111317
0.106072
0.101604
0.0973052
0.0928688
0.0882928
0.0837677
0.0796198
0.0762717
0.0741746
0.073692
0.0744591
0.0767936
0.0807781
0.137278
0.166601
0.194057
0.212238
0.218323
0.214455
0.202687
0.183842
0.163567
0.145174
0.130654
0.120202
0.112822
0.107278
0.102623
0.0982429
0.0938877
0.089632
0.0857832
0.0828119
0.0812516
0.0813796
0.0828768
0.086611
0.143112
0.16919
0.195796
0.217816
0.231804
0.236518
0.233429
0.223523
0.206412
0.186078
0.16537
0.146902
0.13225
0.121533
0.113865
0.108117
0.103377
0.0990869
0.0951098
0.0916599
0.0892016
0.0884302
0.0892358
0.0923604
0.149375
0.17316
0.198032
0.220639
0.238231
0.249186
0.252838
0.250268
0.241848
0.22655
0.207171
0.185823
0.164938
0.146679
0.132254
0.121654
0.114031
0.108348
0.103795
0.0999765
0.0969299
0.0951755
0.0954054
0.0978211
0.155684
0.177813
0.200807
0.222498
0.240903
0.254671
0.263081
0.265681
0.263314
0.255862
0.242189
0.224183
0.203361
0.181697
0.161311
0.143934
0.130377
0.120435
0.113288
0.10805
0.104121
0.101356
0.10082
0.102609
0.161741
0.182566
0.203673
0.22374
0.241377
0.255656
0.26596
0.27196
0.273549
0.271262
0.264458
0.252072
0.235579
0.215989
0.194787
0.173784
0.154798
0.139081
0.127018
0.11822
0.111963
0.107534
0.105421
0.106617
0.167305
0.186947
0.206112
0.224124
0.240177
0.253636
0.264133
0.271447
0.275375
0.275818
0.273331
0.266935
0.255911
0.241037
0.223101
0.203226
0.18288
0.163677
0.146965
0.133468
0.123258
0.115816
0.110712
0.110741
0.172186
0.190596
0.207697
0.223388
0.237296
0.24912
0.258707
0.265978
0.270854
0.273241
0.273032
0.270219
0.263914
0.254352
0.241455
0.225577
0.207709
0.188994
0.170739
0.154157
0.140123
0.128918
0.120069
0.117521
0.176247
0.19327
0.208099
0.221272
0.232738
0.24251
0.250622
0.257115
0.262002
0.265237
0.266684
0.266168
0.263435
0.257871
0.249853
0.239147
0.225765
0.210466
0.194098
0.177642
0.1621
0.148196
0.136151
0.130707
0.179415
0.194846
0.207258
0.217737
0.226648
0.234257
0.240746
0.246239
0.250793
0.254387
0.2569
0.258145
0.257855
0.255816
0.251672
0.245637
0.237404
0.226843
0.214394
0.20073
0.186561
0.17257
0.159795
0.153404
0.181659
0.195253
0.205124
0.212894
0.21932
0.224904
0.229942
0.234595
0.23891
0.242832
0.246228
0.248901
0.25054
0.251003
0.250031
0.247445
0.243357
0.237565
0.229924
0.220606
0.210014
0.198874
0.188784
0.184049
0.182995
0.194573
0.201813
0.20697
0.21113
0.214996
0.21893
0.223086
0.227461
0.231917
0.236228
0.240137
0.243365
0.245627
0.246709
0.246516
0.244848
0.24182
0.237549
0.232083
0.225741
0.219128
0.213391
0.210149
0.183452
0.192846
0.197492
0.200251
0.202472
0.204993
0.2082
0.212196
0.216894
0.222065
0.227378
0.232441
0.236898
0.24045
0.242825
0.243909
0.243709
0.242077
0.239121
0.235084
0.230317
0.225364
0.220894
0.21666
0.183098
0.190178
0.19236
0.193065
0.193756
0.195355
0.198216
0.202335
0.207541
0.213496
0.21973
0.225752
0.231138
0.235538
0.23869
0.240379
0.240761
0.239711
0.237314
0.233731
0.229233
0.224257
0.219178
0.213183
0.181952
0.186742
0.186714
0.185778
0.185446
0.186538
0.189337
0.193695
0.199361
0.205912
0.212692
0.219132
0.224847
0.229497
0.232844
0.234732
0.235274
0.234427
0.232278
0.228966
0.224742
0.219872
0.214423
0.208043
0.180026
0.182808
0.180826
0.17881
0.178048
0.179086
0.18211
0.186876
0.192759
0.199141
0.205727
0.211422
0.216103
0.219648
0.221979
0.223069
0.222962
0.221803
0.219611
0.21659
0.212985
0.208932
0.204318
0.198913
0.177409
0.178456
0.175105
0.172822
0.172332
0.174204
0.178348
0.183905
0.18993
0.195335
0.199401
0.202415
0.203757
0.203686
0.202499
0.200522
0.197893
0.194715
0.191049
0.187022
0.182762
0.178353
0.173994
0.169065
0.173999
0.173879
0.17022
0.168617
0.169376
0.172937
0.178576
0.185122
0.191132
0.195015
0.195893
0.19361
0.188962
0.182719
0.175885
0.169093
0.162571
0.15619
0.149766
0.143395
0.137032
0.130459
0.124112
0.117109
0.169231
0.169574
0.16719
0.167308
0.170463
0.176577
0.18442
0.19213
0.197467
0.198856
0.195262
0.186746
0.175411
0.163283
0.151761
0.141578
0.132817
0.125278
0.118638
0.112313
0.106088
0.0998142
0.0938423
0.089043
0.163078
0.166931
0.167263
0.170186
0.176704
0.186
0.196005
0.204059
0.207462
0.205053
0.195434
0.180353
0.16399
0.148779
0.135998
0.125817
0.117817
0.111135
0.105111
0.0994112
0.0939527
0.088759
0.0842857
0.0817322
0.00378393
0.00745274
0.0224526
0.0469167
0.0783731
0.117963
0.0159479
0.0230947
0.0431154
0.0673018
0.0955225
0.129852
0.0201441
0.0337012
0.0563395
0.0808534
0.108342
0.139356
0.0223808
0.0412628
0.0651802
0.0898247
0.11664
0.145266
0.0239888
0.0470346
0.0713646
0.0958072
0.121913
0.149343
0.0249909
0.0515288
0.0756078
0.0995696
0.124946
0.151827
0.0259983
0.0548743
0.0783356
0.101579
0.126186
0.152823
0.0272387
0.0571356
0.0798382
0.102159
0.12597
0.1525
0.0281603
0.0585058
0.0803266
0.101623
0.124474
0.150959
0.0287531
0.0591108
0.0800056
0.100031
0.121911
0.148422
0.0290057
0.0590511
0.078904
0.097599
0.118443
0.145086
0.0289535
0.0583757
0.077166
0.0944554
0.11421
0.141126
0.0285662
0.0571385
0.0748754
0.0907111
0.109323
0.13667
0.0279102
0.0553538
0.0720992
0.0864643
0.103882
0.131801
0.0270892
0.0530049
0.0688895
0.0818053
0.0979783
0.126574
0.0260908
0.0500977
0.0652868
0.0768188
0.0917293
0.121132
0.0249901
0.0466836
0.0613338
0.0715826
0.0852881
0.115757
0.0247585
0.0430336
0.0570976
0.0661588
0.0787725
0.110543
0.024146
0.039531
0.0526603
0.0605795
0.0721753
0.10544
0.0230829
0.0361018
0.0480293
0.0548254
0.0653888
0.10025
0.0215663
0.0325303
0.0430475
0.0487885
0.0581562
0.0944571
0.0195952
0.028355
0.0372233
0.0421029
0.0499017
0.0873558
0.0158215
0.0221823
0.0290928
0.0336047
0.0390681
0.0774899
0.00406767
0.00790664
0.0123692
0.0165369
0.0203526
0.0500831
0.160558
0.168026
0.171586
0.178353
0.188716
0.200895
0.211883
0.218266
0.217569
0.208318
0.191385
0.171563
0.152849
0.137641
0.126162
0.117563
0.11069
0.104713
0.0992063
0.0940377
0.0893129
0.085256
0.0823016
0.0809497
0.162982
0.173306
0.181097
0.192015
0.205779
0.219598
0.229265
0.231186
0.223085
0.206125
0.183472
0.161152
0.143013
0.129857
0.120391
0.113109
0.107038
0.101547
0.0964146
0.0917013
0.087596
0.084494
0.0826533
0.0825871
0.167836
0.182448
0.194653
0.209673
0.225939
0.239236
0.244447
0.238455
0.22281
0.197753
0.171989
0.150743
0.135484
0.124847
0.116764
0.109961
0.103921
0.0983819
0.0934229
0.0892826
0.0862222
0.0845024
0.0843529
0.0852062
0.173386
0.192985
0.210321
0.2292
0.246375
0.25605
0.252855
0.239448
0.213154
0.184363
0.160016
0.142448
0.130265
0.12109
0.113305
0.106363
0.100047
0.0944688
0.0899114
0.0866286
0.0848025
0.084497
0.0852786
0.086922
0.178501
0.203512
0.226333
0.248282
0.26387
0.265081
0.254706
0.229676
0.198012
0.17052
0.150537
0.136651
0.126183
0.117303
0.109262
0.101934
0.0954981
0.0902414
0.0864117
0.0841537
0.083479
0.0840002
0.0855152
0.0874094
0.182613
0.213162
0.241304
0.264738
0.27377
0.267505
0.246432
0.21288
0.182388
0.159872
0.144137
0.132205
0.122017
0.112727
0.104208
0.0966726
0.09043
0.0857438
0.0827625
0.0814808
0.0816603
0.0828313
0.0849719
0.0870396
0.185465
0.221537
0.254306
0.276065
0.276239
0.261714
0.229332
0.195964
0.17071
0.152924
0.139356
0.127692
0.116989
0.107119
0.0982998
0.0908412
0.08502
0.0810124
0.0788381
0.0783567
0.07904
0.0808056
0.0831907
0.0852889
0.187094
0.228652
0.264716
0.279844
0.27271
0.246605
0.211128
0.183171
0.16325
0.147936
0.134649
0.12237
0.11098
0.10071
0.0918638
0.0847131
0.079446
0.0761184
0.0746242
0.0746931
0.0757642
0.0778584
0.0803283
0.0823869
0.187724
0.234784
0.271746
0.278024
0.262225
0.228064
0.197633
0.175467
0.158295
0.143256
0.129223
0.116108
0.104192
0.0937954
0.085172
0.0784889
0.0738139
0.0710879
0.070117
0.0704903
0.0718808
0.0740789
0.076536
0.0785195
0.1877
0.240232
0.27377
0.270385
0.246431
0.214093
0.189708
0.17071
0.153885
0.137956
0.122895
0.109091
0.0969355
0.086686
0.0784709
0.0723238
0.0681951
0.0659377
0.0653079
0.0658616
0.0673904
0.0695771
0.0719508
0.073837
0.187414
0.245278
0.271622
0.26057
0.23184
0.205954
0.185422
0.166934
0.149039
0.131808
0.115821
0.101616
0.0895149
0.0796261
0.0719229
0.0663071
0.0626328
0.0606988
0.0602473
0.0608633
0.0623837
0.0644703
0.0667107
0.0684874
0.187167
0.249583
0.265134
0.249473
0.223834
0.202415
0.182666
0.162926
0.143379
0.124894
0.108268
0.0939781
0.0821739
0.0727836
0.0656263
0.0604903
0.0571603
0.0554103
0.0549945
0.0555618
0.0569523
0.0588654
0.0609342
0.0625967
0.187037
0.252516
0.257283
0.241597
0.221128
0.201018
0.179968
0.158171
0.13692
0.117448
0.100518
0.0864189
0.0750857
0.0662642
0.0596381
0.0549077
0.0518129
0.0501231
0.0496199
0.0500328
0.0511865
0.052856
0.0547157
0.0562605
0.186748
0.253645
0.25217
0.238893
0.221036
0.200145
0.176663
0.152576
0.129838
0.109728
0.0928101
0.0791171
0.0683619
0.0601267
0.0539889
0.0495865
0.0466326
0.0449019
0.0442073
0.0443621
0.0451787
0.0465244
0.0481257
0.049543
0.185453
0.253449
0.250484
0.239077
0.222753
0.199078
0.172536
0.146246
0.122362
0.101969
0.0853303
0.0721951
0.0620693
0.0544032
0.0486991
0.044556
0.0416722
0.0398283
0.0388631
0.0386485
0.0390381
0.0399452
0.0412025
0.0424615
0.182519
0.253393
0.251308
0.243223
0.224742
0.197222
0.167525
0.139345
0.114711
0.0943634
0.0782118
0.0657302
0.0562462
0.0491132
0.0437886
0.0398523
0.0369957
0.0350008
0.0337178
0.0330424
0.0328936
0.0331966
0.0339331
0.0349371
0.17944
0.255026
0.256844
0.249392
0.226313
0.194415
0.16174
0.132071
0.107075
0.0870523
0.0715431
0.0597687
0.0509153
0.0442738
0.0392826
0.0355192
0.032675
0.0305289
0.0289246
0.0277516
0.0269276
0.026409
0.0262598
0.0266833
0.177745
0.259703
0.26597
0.256447
0.227167
0.190617
0.155306
0.124593
0.0995974
0.0801319
0.0653757
0.0543336
0.0460893
0.0399022
0.0352119
0.031607
0.028786
0.0265254
0.0246531
0.0230256
0.0215056
0.0199562
0.0183109
0.0170403
0.181407
0.26885
0.277498
0.263418
0.226679
0.185754
0.148336
0.117047
0.0923836
0.0736612
0.0597316
0.0494276
0.0417691
0.0360096
0.0316058
0.0281666
0.0254061
0.0231073
0.0210929
0.0191999
0.0172519
0.0150326
0.012243
0.00785651
0.193103
0.282944
0.290641
0.268167
0.224257
0.179879
0.140962
0.109548
0.0855024
0.0676649
0.0546046
0.0450302
0.037934
0.0325851
0.0284688
0.0252217
0.0225819
0.0203524
0.0183756
0.0165121
0.0146211
0.012548
0.010093
0.00662845
0.211081
0.301725
0.304616
0.270879
0.220762
0.173215
0.133306
0.102175
0.0789897
0.0621398
0.0499644
0.0410974
0.0345354
0.0295794
0.0257498
0.0227147
0.0202375
0.0181434
0.0162951
0.014573
0.0128555
0.0110122
0.00890689
0.0061504
0.235655
0.324728
0.318371
0.271673
0.215613
0.165669
0.125406
0.094971
0.0728579
0.0570637
0.0457658
0.0375715
0.0315077
0.0269181
0.0233617
0.0205363
0.0182287
0.016282
0.014574
0.0129979
0.0114445
0.00980349
0.00798813
0.00577003
0.268776
0.35093
0.327034
0.26871
0.208536
0.157261
0.117329
0.0879819
0.06711
0.0524067
0.0419598
0.0343942
0.0287874
0.0245323
0.0212264
0.0185955
0.0164468
0.0146389
0.0130618
0.0116198
0.010217
0.00876444
0.00721379
0.00543574
0.31692
0.375794
0.330614
0.262664
0.199651
0.148096
0.109167
0.0812529
0.0617446
0.0481372
0.0385009
0.0315157
0.026324
0.0223711
0.0192918
0.016838
0.0148351
0.0131553
0.0116998
0.0103839
0.00912466
0.00785289
0.00654697
0.00513268
0.00498233
0.0343035
0.0749937
0.120446
0.152784
0.198853
0.0180192
0.0691467
0.116205
0.164014
0.220005
0.329203
0.0266424
0.0860329
0.1369
0.188816
0.251743
0.342599
0.0335743
0.0967785
0.149563
0.202954
0.264362
0.33628
0.0395137
0.104615
0.157909
0.210716
0.267577
0.324462
0.0444263
0.11065
0.163452
0.214379
0.265954
0.311002
0.0483288
0.11532
0.166941
0.215211
0.26135
0.297193
0.051273
0.118792
0.168793
0.214177
0.255139
0.283715
0.0533292
0.121123
0.169256
0.211772
0.248148
0.270973
0.0545767
0.122347
0.168552
0.208408
0.240905
0.259195
0.0551003
0.122496
0.166844
0.204388
0.233744
0.248512
0.0549927
0.121638
0.164287
0.199937
0.226827
0.239024
0.0543596
0.119814
0.161005
0.195201
0.220277
0.23075
0.0532153
0.117082
0.157081
0.190251
0.214159
0.223668
0.0514607
0.113504
0.152548
0.185093
0.208478
0.217732
0.0490668
0.109108
0.147391
0.17967
0.203186
0.212892
0.0460224
0.103883
0.141529
0.173855
0.198164
0.209087
0.0423126
0.0977647
0.134809
0.167444
0.193201
0.206247
0.0379118
0.0906213
0.126986
0.160155
0.187928
0.204302
0.0327862
0.0822111
0.117669
0.151525
0.181765
0.203221
0.0269179
0.0720794
0.106223
0.140821
0.173715
0.202715
0.0240071
0.0592669
0.091468
0.126858
0.161968
0.201076
0.0195453
0.0420018
0.0707347
0.107352
0.142429
0.189989
0.00500992
0.0163741
0.041686
0.0802421
0.108479
0.120003
0.382531
0.386972
0.326277
0.252934
0.188967
0.138305
0.101029
0.0748341
0.056762
0.0442279
0.0353516
0.0288973
0.0240809
0.0204008
0.017527
0.0152353
0.0133677
0.0118087
0.0104698
0.00927622
0.0081568
0.0070579
0.00597397
0.00486277
0.416221
0.383383
0.3123
0.239523
0.176798
0.128154
0.0930737
0.0687866
0.0521667
0.0406575
0.0324828
0.0265105
0.0220334
0.0186005
0.0159149
0.0137738
0.012034
0.0105911
0.00936577
0.00829185
0.00730824
0.00637285
0.0054882
0.00462892
0.399275
0.364453
0.294594
0.224014
0.163873
0.118031
0.0854797
0.0631719
0.0479617
0.0374072
0.0298716
0.0243348
0.0201648
0.0169578
0.0144465
0.0124473
0.0108302
0.00950038
0.00838644
0.00742957
0.00657656
0.0057932
0.00508417
0.00443167
0.375922
0.341627
0.274917
0.207594
0.150888
0.108292
0.0783963
0.0580301
0.0441421
0.0344586
0.027499
0.0223547
0.0184637
0.0154647
0.0131164
0.0112524
0.00975388
0.0085347
0.00752995
0.0066867
0.00595758
0.00531295
0.00475553
0.00426948
0.352135
0.317757
0.254707
0.191236
0.138395
0.099195
0.0719136
0.0533744
0.0406936
0.0317927
0.0253488
0.0205582
0.0169216
0.0141151
0.0119205
0.0101857
0.00880233
0.00769111
0.00679268
0.00605844
0.00544484
0.00492406
0.00449423
0.00413895
0.32952
0.294606
0.235097
0.175643
0.12676
0.090888
0.0660661
0.0491947
0.0375952
0.0293901
0.0234064
0.0189349
0.0155312
0.0129038
0.0108543
0.00924337
0.00797118
0.00696469
0.00616872
0.00553749
0.00502942
0.00461633
0.0042909
0.00403572
0.308547
0.273038
0.21676
0.161231
0.116175
0.0834258
0.0608464
0.0454655
0.0348221
0.0272318
0.0216585
0.0174754
0.0142855
0.011825
0.00991248
0.00841978
0.00725447
0.00634862
0.00565005
0.00511435
0.00470026
0.00437814
0.00413569
0.00395531
0.289371
0.253519
0.200051
0.148201
0.10671
0.0768005
0.0562207
0.042153
0.0323478
0.0252994
0.0200924
0.0161707
0.0131773
0.0108722
0.00908866
0.00770816
0.00664473
0.00583444
0.00522694
0.00477776
0.00444501
0.00419745
0.00401927
0.00389366
0.272161
0.236124
0.185102
0.136613
0.0983491
0.0709651
0.0521411
0.0392195
0.0301462
0.0235756
0.0186962
0.0150115
0.0121987
0.010038
0.00837537
0.00710066
0.00613336
0.00541257
0.00488847
0.00451554
0.00425107
0.00406292
0.00393349
0.00384733
0.256969
0.22081
0.171913
0.12643
0.0910261
0.0658528
0.0485543
0.0366273
0.0281927
0.0220439
0.017458
0.0139884
0.0113414
0.00931436
0.00776442
0.00658862
0.00571105
0.0050727
0.0046232
0.00431551
0.00410657
0.00396463
0.00387164
0.0038135
0.243757
0.207493
0.160407
0.11756
0.0846481
0.0613882
0.0454067
0.0343408
0.0264641
0.0206889
0.0163662
0.013092
0.0105967
0.00869286
0.00724715
0.00616297
0.00536805
0.00480422
0.00441974
0.00416618
0.00400105
0.00389419
0.00382817
0.00378962
0.232457
0.196055
0.150464
0.10988
0.0791107
0.0574939
0.0426462
0.0323265
0.0249389
0.0194956
0.0154097
0.0123127
0.00995597
0.00816495
0.00681483
0.00581453
0.00509452
0.00459659
0.0042673
0.00405738
0.00392587
0.00384491
0.0037984
0.00377323
0.222989
0.186367
0.141944
0.103259
0.0743072
0.0540951
0.0402243
0.0305537
0.0235971
0.0184502
0.0145779
0.0116417
0.00941097
0.00772255
0.0064592
0.00553461
0.00488117
0.00444005
0.00415629
0.00398065
0.00387435
0.00381192
0.00377873
0.00376235
0.215281
0.178298
0.134702
0.0975629
0.0701334
0.0511211
0.038096
0.028994
0.0224202
0.0175396
0.0138607
0.0110705
0.00895396
0.00735826
0.00617285
0.00531547
0.00471981
0.0043262
0.00407873
0.00392908
0.00384099
0.00379149
0.00376703
0.00375585
0.209281
0.171731
0.128595
0.0926597
0.0664909
0.048507
0.0362204
0.0276217
0.021391
0.0167516
0.0132485
0.0105909
0.0085777
0.00706522
0.00594897
0.0051501
0.00460322
0.00424794
0.00402821
0.00389729
0.00382161
0.00378063
0.00376104
0.00375258
0.20497
0.166564
0.123479
0.0884222
0.0632894
0.0461941
0.0345601
0.0264127
0.0204932
0.0160741
0.0127319
0.0101951
0.00827523
0.00683687
0.00578106
0.00503195
0.00452486
0.00419922
0.00399958
0.0038813
0.00381327
0.00377669
0.00375916
0.00375161
0.202371
0.162717
0.119213
0.0847254
0.0604417
0.0441268
0.0330805
0.0253445
0.0197115
0.0154959
0.012302
0.00987566
0.00803989
0.00666701
0.00566312
0.00495506
0.00447907
0.00417503
0.00398886
0.00387809
0.00381386
0.00377818
0.00376023
0.00375185
0.201568
0.160121
0.115646
0.0814395
0.0578617
0.0422525
0.0317488
0.0243961
0.0190311
0.0150062
0.0119502
0.00962547
0.00786553
0.00655005
0.00558989
0.00491453
0.0044615
0.00417162
0.00399302
0.00388537
0.00382148
0.00378446
0.00376389
0.00375293
0.202633
0.158692
0.112604
0.0784289
0.0554645
0.0405205
0.0305341
0.0235476
0.0184383
0.0145945
0.0116686
0.00943802
0.00774665
0.00648118
0.00555709
0.0049066
0.00446828
0.00418645
0.00401037
0.00390192
0.00383534
0.00379457
0.00376983
0.00375493
0.205694
0.158307
0.109867
0.0755445
0.0531652
0.0388828
0.0294077
0.0227802
0.0179202
0.0142515
0.0114498
0.00930748
0.00767845
0.00645639
0.00556098
0.00492708
0.00449817
0.00421824
0.00404002
0.00392727
0.0038553
0.00380858
0.00377796
0.00375781
0.210769
0.15862
0.107131
0.0726133
0.0508772
0.0372943
0.0283436
0.0220776
0.0174652
0.0139685
0.0112874
0.00922882
0.00765687
0.00647192
0.00559866
0.00497682
0.00454992
0.00426652
0.00408191
0.00396159
0.00388161
0.00382684
0.00378869
0.00376196
0.217183
0.158844
0.103985
0.0694376
0.0485173
0.0357159
0.0273204
0.0214263
0.0170639
0.0137384
0.011176
0.00919802
0.00767872
0.00652624
0.00567075
0.0050538
0.00462348
0.00433174
0.00413673
0.00400563
0.00391504
0.00385009
0.00380273
0.00376797
0.221231
0.157384
0.0998185
0.0658077
0.0460186
0.0341217
0.026325
0.0208181
0.0167106
0.0135578
0.011113
0.0092126
0.00774278
0.0066188
0.00577529
0.00515827
0.00471965
0.00441513
0.0042059
0.00406079
0.00395688
0.00387949
0.00382108
0.00377663
0.214331
0.151741
0.0938678
0.061552
0.0433554
0.0325089
0.0253567
0.0202517
0.0164042
0.0134259
0.011096
0.00927082
0.00784733
0.00674793
0.00591241
0.00529107
0.00483988
0.00451852
0.00429134
0.00412893
0.00400884
0.0039166
0.0038451
0.00378906
0.00502445
0.00984836
0.0194013
0.0398408
0.0742154
0.126602
0.0180551
0.0303678
0.0478379
0.0689092
0.0935706
0.128033
0.0220476
0.0429986
0.0647435
0.0857138
0.106373
0.126696
0.0239691
0.0529064
0.0766504
0.0954972
0.109862
0.119082
0.0257418
0.0613646
0.0854275
0.101018
0.108208
0.109996
0.0296595
0.068288
0.0916524
0.103023
0.105345
0.101592
0.0330446
0.0739711
0.095791
0.103849
0.102557
0.0942714
0.0359386
0.0785775
0.0987134
0.10446
0.0999935
0.0883896
0.0382421
0.0823389
0.101085
0.105158
0.0980811
0.0841004
0.0399008
0.0854235
0.103299
0.106201
0.0971535
0.081459
0.0408951
0.0879262
0.105578
0.107765
0.0972985
0.0805497
0.0412344
0.0898703
0.108007
0.109962
0.0986104
0.0809802
0.0410026
0.0912156
0.110543
0.112833
0.101337
0.0831627
0.0402406
0.0918792
0.113034
0.116299
0.105452
0.0871421
0.0391717
0.091778
0.115244
0.120199
0.11085
0.092902
0.037941
0.0907171
0.116919
0.124393
0.117255
0.100514
0.0363605
0.0886323
0.117807
0.12862
0.124303
0.109965
0.0342866
0.0854851
0.117664
0.132451
0.131658
0.120958
0.0315992
0.0812736
0.116211
0.135174
0.139122
0.132604
0.0282602
0.0759526
0.112994
0.135867
0.145732
0.143983
0.0249858
0.0692435
0.107439
0.133767
0.149233
0.154526
0.0227171
0.0603302
0.0982709
0.126454
0.1469
0.161498
0.0185529
0.0473597
0.0824278
0.109925
0.13425
0.156839
0.00486317
0.0204462
0.04763
0.0722543
0.0967365
0.116135
0.190395
0.137555
0.0854644
0.0566764
0.0405815
0.0309062
0.0244293
0.0197332
0.0161468
0.0133418
0.0111249
0.0093726
0.00799242
0.00691423
0.00608312
0.00545375
0.00498621
0.00464426
0.00439555
0.00421255
0.00407335
0.00396349
0.00387552
0.00380595
0.161185
0.117852
0.075896
0.0516162
0.0378442
0.0293703
0.0235687
0.0192764
0.0159464
0.0133097
0.0112029
0.0095202
0.00817998
0.0071197
0.00628977
0.00564909
0.00516185
0.0047958
0.00452196
0.0043148
0.00415289
0.00402161
0.00391311
0.00382749
0.137081
0.0997746
0.066632
0.0468366
0.0352963
0.0279659
0.0228065
0.0188998
0.0158167
0.0133378
0.0113358
0.00971803
0.00841392
0.00736822
0.00653647
0.00588163
0.0053717
0.00497817
0.00467532
0.00443969
0.00425042
0.00409299
0.00396035
0.00385493
0.117606
0.0849047
0.0585601
0.0426333
0.0330542
0.0267496
0.0221737
0.0186218
0.0157669
0.0134367
0.0115312
0.00997242
0.00869991
0.00766532
0.00682891
0.00615732
0.00562192
0.00519754
0.00486148
0.00459245
0.0043705
0.00418198
0.0040218
0.00389111
0.101619
0.0731136
0.0519573
0.0391354
0.0311863
0.0257625
0.0216972
0.0184608
0.0158111
0.0136173
0.0117984
0.0102912
0.00904502
0.00801766
0.00717364
0.00648281
0.00591934
0.00546086
0.00508742
0.0047799
0.00451959
0.00429421
0.00410087
0.00393797
0.0888769
0.0640184
0.0467836
0.0363631
0.0297232
0.0250314
0.021401
0.0184398
0.0159684
0.0138925
0.0121477
0.0106834
0.00945732
0.00843275
0.00757789
0.00686524
0.0062712
0.00577561
0.00536078
0.0050096
0.00470464
0.0044352
0.00420121
0.00399715
0.0790047
0.0572027
0.0428959
0.03429
0.0286758
0.0245751
0.0213034
0.018573
0.0162535
0.0142754
0.0125905
0.011159
0.00994578
0.00891886
0.0080495
0.00731232
0.00668533
0.0061499
0.00569
0.00529003
0.00493355
0.00461146
0.00432732
0.00407077
0.0716381
0.0522977
0.0401469
0.0328795
0.0280474
0.0244119
0.0214232
0.0188795
0.0166816
0.0147797
0.013139
0.0117289
0.0105202
0.009485
0.00859698
0.0078323
0.00716999
0.00659227
0.00608398
0.00563031
0.00521515
0.00483064
0.00448479
0.0041615
0.0664656
0.0490093
0.0384105
0.0320981
0.027842
0.0245306
0.0217754
0.0193763
0.0172689
0.0154202
0.0138066
0.012405
0.0111914
0.010141
0.00922948
0.00843389
0.00773374
0.0071114
0.00655172
0.00603979
0.00555883
0.00510133
0.00468023
0.00427246
0.0632462
0.047127
0.0375863
0.0319229
0.0280108
0.024978
0.0223811
0.020082
0.0180326
0.0162128
0.0146077
0.0132006
0.0119714
0.0108978
0.00995698
0.00912641
0.00838549
0.00771605
0.00710217
0.00652776
0.00597415
0.0054327
0.00492094
0.00440702
0.0618407
0.0465608
0.0375855
0.0322507
0.0286376
0.0257602
0.0232607
0.021017
0.0189924
0.0171756
0.0155589
0.0141304
0.0128735
0.0117677
0.0107907
0.00992019
0.00913485
0.00841539
0.00774434
0.00710344
0.00647065
0.00583418
0.0052147
0.00456837
0.0619566
0.0469414
0.038318
0.0332169
0.0297097
0.0269007
0.0244384
0.0222054
0.0201708
0.0183296
0.0166794
0.0152123
0.0139141
0.0127654
0.0117442
0.0108276
0.00999317
0.00922
0.00848829
0.00777667
0.00705834
0.00631579
0.0055698
0.00475883
0.0635719
0.0485843
0.0399292
0.0347857
0.0312563
0.0284308
0.0259451
0.0236765
0.0215953
0.0197002
0.0179926
0.0164678
0.015113
0.0139094
0.0128347
0.0118648
0.0109758
0.0101442
0.00934752
0.00856033
0.00774989
0.00689009
0.00599644
0.00497928
0.0669419
0.0514427
0.0423963
0.0370022
0.0333213
0.0303929
0.0278205
0.0254675
0.0233003
0.0213192
0.0195281
0.0179243
0.0164961
0.0152246
0.0140864
0.0130558
0.0121063
0.0112116
0.0103451
0.00947686
0.00856716
0.00757867
0.00651274
0.00523026
0.0720413
0.0555896
0.0458069
0.0399409
0.0359692
0.0328441
0.030117
0.0276262
0.02533
0.0232273
0.0213235
0.0196172
0.0180974
0.0167446
0.0155338
0.0144368
0.013424
0.012465
0.0115279
0.010576
0.00956163
0.00843393
0.00716623
0.00552478
0.0790356
0.0612049
0.0503045
0.0437134
0.0392901
0.0358617
0.0329029
0.0302149
0.0277412
0.0254766
0.023427
0.0215921
0.0199612
0.0185142
0.0172246
0.0160618
0.0149928
0.0139827
0.0129933
0.0119793
0.010881
0.00962482
0.00812691
0.00601933
0.0881112
0.0685203
0.0560842
0.0484703
0.0434037
0.039546
0.0362667
0.0333134
0.0306066
0.0281338
0.0259
0.0239059
0.022142
0.0205884
0.0192179
0.0179992
0.0168984
0.0158801
0.0149061
0.0139314
0.0128945
0.0117114
0.0103472
0.0093237
0.0993893
0.0777708
0.0633717
0.0543954
0.0484581
0.0440223
0.0403192
0.0370224
0.0340185
0.0312831
0.0288189
0.0266282
0.0247034
0.0230265
0.0215718
0.0203099
0.0192114
0.0182499
0.0174063
0.0166704
0.0160386
0.0155242
0.0152799
0.0158677
0.112851
0.0890937
0.0723667
0.0616801
0.0546191
0.0494357
0.0451923
0.0414643
0.038091
0.0350295
0.0322785
0.0298424
0.0277174
0.0258886
0.0243339
0.0230281
0.021949
0.0210822
0.0204275
0.0200005
0.0198271
0.0199592
0.0205639
0.0218792
0.127934
0.102306
0.0831201
0.0704594
0.0620364
0.0559332
0.051029
0.0467791
0.0429593
0.0395007
0.0363958
0.0336519
0.0312706
0.0292433
0.0275534
0.0261828
0.0251179
0.0243564
0.0239109
0.0238055
0.0240489
0.0246972
0.0258701
0.0275688
0.142771
0.116592
0.0953325
0.0806883
0.0707705
0.0636186
0.0579557
0.0531069
0.0487713
0.0448453
0.0413127
0.0381852
0.0354735
0.0331786
0.0312934
0.0298099
0.0287255
0.0280488
0.0278002
0.0279802
0.028599
0.0296924
0.0312889
0.0332809
0.153787
0.130483
0.108103
0.0919391
0.0806538
0.0724609
0.0660194
0.0605459
0.0556597
0.0512167
0.0471903
0.0435991
0.040468
0.0378138
0.035645
0.0339682
0.0327952
0.0321463
0.0320462
0.0324455
0.0333996
0.0348662
0.0368263
0.0390903
0.153627
0.138925
0.119008
0.102946
0.0910337
0.0821287
0.0750725
0.0690678
0.0636806
0.0587309
0.0541828
0.0500659
0.0464269
0.0433076
0.0407408
0.038756
0.0373859
0.0366666
0.0366289
0.0371683
0.0383836
0.0401664
0.0424555
0.0449922
0.139545
0.136883
0.12585
0.112033
0.100706
0.0918436
0.0846283
0.0783911
0.0727074
0.0673816
0.0623747
0.0577323
0.0535314
0.0498507
0.0467601
0.0443243
0.0426086
0.0416756
0.0415722
0.0421501
0.0435209
0.0455554
0.0481422
0.0509586
)
;

boundaryField
{
    rotor
    {
        type            kqRWallFunction;
        value           nonuniform List<scalar> 
144
(
0.00406141
0.0106573
0.02156
0.0333085
0.041569
0.0549175
0.00406141
0.0166078
0.0206429
0.0226951
0.02415
0.025019
0.0258808
0.0275309
0.0289587
0.0301178
0.0309827
0.0315604
0.0318834
0.0318482
0.0314169
0.0305834
0.0293607
0.0277829
0.0259298
0.0249232
0.0234169
0.0212442
0.0170068
0.00413872
0.00413872
0.00911426
0.0271528
0.0583936
0.0900122
0.116312
0.00378393
0.00745274
0.0224526
0.0469167
0.0783731
0.117963
0.00378393
0.0159479
0.0201441
0.0223808
0.0239888
0.0249909
0.0259983
0.0272387
0.0281603
0.0287531
0.0290057
0.0289535
0.0285662
0.0279102
0.0270892
0.0260908
0.0249901
0.0247585
0.024146
0.0230829
0.0215663
0.0195952
0.0158215
0.00406767
0.00406767
0.00790664
0.0123692
0.0165369
0.0203526
0.0500831
0.00498233
0.0343035
0.0749937
0.120446
0.152784
0.198853
0.00498233
0.0180192
0.0266424
0.0335743
0.0395137
0.0444263
0.0483288
0.051273
0.0533292
0.0545767
0.0551003
0.0549927
0.0543596
0.0532153
0.0514607
0.0490668
0.0460224
0.0423126
0.0379118
0.0327862
0.0269179
0.0240071
0.0195453
0.00500992
0.00500992
0.0163741
0.041686
0.0802421
0.108479
0.120003
0.00502445
0.00984836
0.0194013
0.0398408
0.0742154
0.126602
0.00502445
0.0180551
0.0220476
0.0239691
0.0257418
0.0296595
0.0330446
0.0359386
0.0382421
0.0399008
0.0408951
0.0412344
0.0410026
0.0402406
0.0391717
0.037941
0.0363605
0.0342866
0.0315992
0.0282602
0.0249858
0.0227171
0.0185529
0.00486317
0.00486317
0.0204462