/*--------------------------------*- C++ -*----------------------------------*\
  =========                 |
  \\      /  F ield         | OpenFOAM: The Open Source CFD Toolbox
   \\    /   O peration     | Website:  https://openfoam.org
    \\  /    A nd           | Version:  11
     \\/     M anipulation  |
\*---------------------------------------------------------------------------*/
FoamFile
{
    format      ascii;
    class       volScalarField;
    location    "0.32";
    object      nut;
}
// * * * * * * * * * * * * * * * * * * * * * * * * * * * * * * * * * * * * * //

dimensions      [0 2 -1 0 0 0 0];

internalField   nonuniform List<scalar> 
2880
(
7.83855e-07
3.9782e-06
1.32323e-05
3.04569e-05
5.30213e-05
9.31671e-05
2.87665e-05
6.52365e-05
0.000120472
0.000181667
0.000244073
0.000304439
0.000164963
0.000142893
0.000241603
0.000340812
0.000432983
0.000493722
0.000181449
0.000202596
0.000340116
0.000470201
0.000585279
0.000658132
0.000193252
0.000244638
0.000417976
0.000573349
0.000708608
0.000799741
4.72224e-05
0.000271151
0.000480407
0.000657313
0.000809855
0.000921231
4.80539e-05
0.000294121
0.000530481
0.000725435
0.000893287
0.00102281
4.96526e-05
0.000317315
0.000571259
0.000781171
0.000962769
0.00110803
5.09309e-05
0.000339116
0.000604256
0.000826448
0.00102053
0.00117961
5.19435e-05
0.000358198
0.00062981
0.000862129
0.00106767
0.00123905
5.26873e-05
0.000373401
0.000647694
0.000888392
0.0011046
0.00128713
5.31789e-05
0.000383567
0.000657461
0.000904982
0.00113119
0.00132412
5.34525e-05
0.000387585
0.000658618
0.00091134
0.00114694
0.00134987
5.34246e-05
0.00038552
0.00065054
0.000906661
0.001151
0.00136388
5.30631e-05
0.000377089
0.000632575
0.000889913
0.0011421
0.00136529
5.23557e-05
0.000361975
0.000604137
0.000859618
0.00111851
0.00135275
5.12993e-05
0.00033996
0.000564689
0.000814754
0.00107767
0.00132429
4.99002e-05
0.000310652
0.000513804
0.000753485
0.00101692
0.00127778
4.81583e-05
0.000273695
0.000451272
0.000674323
0.000932821
0.00120389
0.000199431
0.000228539
0.000377193
0.00057641
0.000819918
0.00109217
0.000187363
0.000175465
0.000292057
0.00045966
0.000673705
0.000928688
0.000169796
0.000114747
0.00019681
0.000325746
0.000494015
0.000696679
2.94608e-05
4.86995e-05
9.48395e-05
0.000179752
0.000294059
0.000396334
7.98973e-07
3.40882e-06
1.66833e-05
5.34043e-05
0.0001148
0.000198871
0.000300591
0.000390276
0.000586636
0.000763269
0.00094295
0.00112346
0.00130156
0.00147183
0.00163092
0.00177886
0.00191895
0.00205689
0.00219997
0.00235669
0.00253706
0.0027531
0.00301838
0.00334439
0.00373283
0.0041389
0.00454174
0.00491914
0.00523854
0.00540391
0.000355031
0.00041199
0.000476308
0.000616504
0.000770961
0.00093926
0.00110972
0.00127502
0.0014307
0.0015748
0.0017088
0.00183673
0.0019646
0.00210006
0.00225259
0.00243429
0.00266036
0.00294707
0.00330489
0.00371198
0.00412061
0.00451789
0.0048706
0.00507727
0.000492961
0.000517192
0.000531499
0.000567372
0.000654228
0.00078105
0.000928247
0.00108418
0.00123642
0.00137934
0.0015113
0.00163406
0.00175185
0.00187078
0.00199888
0.00214687
0.00232924
0.00256411
0.00286886
0.00324901
0.0036464
0.00404734
0.00440796
0.00466204
0.000671731
0.000631536
0.000656977
0.00066227
0.000677108
0.000719979
0.000801347
0.000917684
0.00105175
0.00118977
0.00132152
0.00144392
0.00155783
0.00166716
0.00177796
0.00189871
0.00204142
0.00222282
0.00246338
0.00278037
0.00315462
0.00353467
0.00389182
0.00417725
0.00084258
0.00080333
0.000798036
0.000816107
0.000814953
0.000812061
0.000824619
0.000860505
0.000930212
0.00102901
0.00114413
0.00126209
0.00137524
0.00148186
0.00158421
0.00168783
0.00180144
0.00193809
0.00211626
0.00235755
0.0026769
0.00302591
0.0033638
0.00365095
0.000992241
0.000986817
0.000982773
0.000987562
0.000997181
0.000990206
0.00097394
0.000961564
0.00096106
0.000983516
0.00103578
0.00111484
0.00120988
0.00130966
0.00140794
0.00150386
0.00160116
0.00170811
0.00183821
0.00201093
0.00224889
0.00255579
0.00286578
0.00312546
0.00111948
0.00115745
0.00117172
0.001184
0.00119016
0.00119049
0.00117784
0.00114975
0.00111876
0.00109011
0.00107423
0.00108113
0.00111646
0.00117753
0.00125524
0.00134032
0.00142791
0.00151869
0.00161921
0.00174242
0.00190829
0.00214427
0.00242009
0.00264809
0.0012291
0.00130283
0.00134357
0.00137053
0.00138654
0.00138952
0.00137971
0.00136154
0.00132518
0.00127648
0.00122873
0.00118543
0.0011566
0.00115123
0.00117359
0.00122092
0.0012855
0.00136012
0.00144216
0.0015354
0.00165115
0.00181362
0.00204484
0.0022396
0.00132087
0.00142098
0.00148657
0.00153043
0.00155827
0.00157054
0.00156795
0.00154924
0.00152526
0.001481
0.00141963
0.0013582
0.00129675
0.00124359
0.00120754
0.00119576
0.00121079
0.0012495
0.00130575
0.00137518
0.00145867
0.00156603
0.00174446
0.00190822
0.00139626
0.00151585
0.00159915
0.00165678
0.00169464
0.00171539
0.00171958
0.00170831
0.00168391
0.0016558
0.00160546
0.00153516
0.00146502
0.00139289
0.00132518
0.00126936
0.00123291
0.00122088
0.00123395
0.00126892
0.00132202
0.00139057
0.00151281
0.00165166
0.00145728
0.00159095
0.00168446
0.00174985
0.00179493
0.00182223
0.00183322
0.00182891
0.00180989
0.00177843
0.00174482
0.00169001
0.00161805
0.00154373
0.00146707
0.00139277
0.00132685
0.00127572
0.00124482
0.00123685
0.00125176
0.00128413
0.00134997
0.0014672
0.00150504
0.00164756
0.00174603
0.00181451
0.00186218
0.00189285
0.00190841
0.00190997
0.00189837
0.00187481
0.00184106
0.00180071
0.00173932
0.00167139
0.00160037
0.0015242
0.00145022
0.00138217
0.00132495
0.0012833
0.00126094
0.00125671
0.00127491
0.00135721
0.00154024
0.00168787
0.00178654
0.00185445
0.00190131
0.00193271
0.00195122
0.00195804
0.00195381
0.00193906
0.00191419
0.00188019
0.00183757
0.00177847
0.00171713
0.00165468
0.00158462
0.00151493
0.00145078
0.00139434
0.00134872
0.00131568
0.00130052
0.00134485
0.00156318
0.00171367
0.00180976
0.00187304
0.00191611
0.00194615
0.0019666
0.00197887
0.00198327
0.00197974
0.00196798
0.00194756
0.00191819
0.00188107
0.0018337
0.00178542
0.00173596
0.0016791
0.00161648
0.00155624
0.0015034
0.00145842
0.00142999
0.00144886
0.00157374
0.00172499
0.00181624
0.00187204
0.00190844
0.00193478
0.00195571
0.00197319
0.00198727
0.00199776
0.00200389
0.00200342
0.0019939
0.00197715
0.00195232
0.00192062
0.00188847
0.00185536
0.00181791
0.0017742
0.00172495
0.00167891
0.00165088
0.00165727
0.00157164
0.00172326
0.00180685
0.00185228
0.00187864
0.00189773
0.00191577
0.00193583
0.00195727
0.00197873
0.00199887
0.00201729
0.0020325
0.00204303
0.00204654
0.00204125
0.00202653
0.00200717
0.0019863
0.00196509
0.0019462
0.00193041
0.00192251
0.00192536
0.00155592
0.00170807
0.00178211
0.00181443
0.0018268
0.00183358
0.00184264
0.00185491
0.00187088
0.00189311
0.00192058
0.00195202
0.00198539
0.00201853
0.00204627
0.00206749
0.00208496
0.00209469
0.00209638
0.00209113
0.00208152
0.00207245
0.00206743
0.00206865
0.00152438
0.0016799
0.00174262
0.00175973
0.00175443
0.00174346
0.00173388
0.00173167
0.00174359
0.00176742
0.00180017
0.00183896
0.00188101
0.00192566
0.00196647
0.00200223
0.00203614
0.00206387
0.00208479
0.00209937
0.00210921
0.0021165
0.00212328
0.00212786
0.00147516
0.00163909
0.00169187
0.00169113
0.00166598
0.00163163
0.00160422
0.00158957
0.00158819
0.00160027
0.001623
0.00165374
0.001691
0.00173296
0.00177498
0.00181886
0.0018646
0.00190665
0.00194306
0.00197277
0.00199612
0.00201346
0.0020249
0.00203266
0.00140567
0.00158815
0.00163062
0.00161401
0.00156813
0.00151315
0.00146663
0.00143343
0.00141305
0.00140557
0.0014147
0.0014308
0.00145553
0.00149526
0.00154249
0.00158931
0.00163194
0.00167269
0.00170948
0.00174244
0.00177202
0.00179751
0.00181763
0.00183639
0.00131351
0.00152527
0.00156221
0.00153592
0.0014718
0.00140238
0.00134452
0.00129853
0.00126413
0.00123873
0.00122203
0.00122469
0.00124307
0.0012608
0.0012773
0.00129834
0.00132427
0.00135256
0.00138041
0.00140676
0.00143063
0.00145123
0.00146655
0.00148506
0.00119271
0.00145024
0.00149264
0.00146164
0.00138558
0.00130805
0.00124223
0.0011902
0.00115032
0.00111739
0.00109209
0.00107781
0.00106289
0.0010519
0.00105167
0.00106122
0.00107849
0.001099
0.00111671
0.00113488
0.00114895
0.00115625
0.00114994
0.00115294
0.0010373
0.0013669
0.00143103
0.00139817
0.00131834
0.00124074
0.0011779
0.00112946
0.00109002
0.00105662
0.00102618
0.000993672
0.000969315
0.000958378
0.00096369
0.000985536
0.00102381
0.00107628
0.00113562
0.00118655
0.00122736
0.0012593
0.00128417
0.00134367
0.000867178
0.00128885
0.00138148
0.00134736
0.00127245
0.00120387
0.00114991
0.00110846
0.00107287
0.00104069
0.00100459
0.000969115
0.000951085
0.000955994
0.000986435
0.00104132
0.00111141
0.00118083
0.00125097
0.00132127
0.00139242
0.00146689
0.00155708
0.00168934
7.30188e-07
2.78213e-06
1.37577e-05
4.28457e-05
9.99497e-05
0.00020146
2.76233e-05
4.03246e-05
7.96555e-05
0.000135946
0.00019982
0.00029291
0.000160952
8.99173e-05
0.000154136
0.000233391
0.000325021
0.000479411
0.000178871
0.000133963
0.000219208
0.000320563
0.000445687
0.000640981
0.000192108
0.000172837
0.000275849
0.00039828
0.000547239
0.000754846
4.73019e-05
0.000206725
0.000324558
0.000463634
0.000628131
0.00082862
4.8083e-05
0.00023548
0.00036543
0.000515909
0.000686241
0.0008714
4.93588e-05
0.00025808
0.000398459
0.000555241
0.000724213
0.00088957
5.01907e-05
0.000274821
0.000423711
0.00058312
0.000744142
0.000887248
5.07159e-05
0.000286005
0.000441864
0.000599118
0.000748933
0.000868691
5.09383e-05
0.000291985
0.000452177
0.000605003
0.000740976
0.000837073
5.08925e-05
0.000292804
0.000455452
0.000601847
0.000722274
0.000794838
5.05506e-05
0.000288691
0.000452089
0.000590629
0.000694412
0.000743648
4.99647e-05
0.000279574
0.000442547
0.000572176
0.000658654
0.000685091
4.92226e-05
0.00026553
0.000427313
0.000547273
0.000616548
0.000621028
4.83071e-05
0.00024835
0.000407074
0.000516891
0.000569982
0.000555247
4.72837e-05
0.000231411
0.00038303
0.000481903
0.000521322
0.000492966
0.000197803
0.000223986
0.000355871
0.000443181
0.000472528
0.000437431
0.000192917
0.0002122
0.000324981
0.000400564
0.000423919
0.000389072
0.000184428
0.000194288
0.000288088
0.000352359
0.000374098
0.00034627
0.000172313
0.000165641
0.000240669
0.000294433
0.000318788
0.000304978
0.000156564
0.000120629
0.000176342
0.000218999
0.00024842
0.000257664
2.74013e-05
5.54662e-05
9.01808e-05
0.00012172
0.000147647
0.000193845
7.84797e-07
2.95323e-06
7.59963e-06
1.5139e-05
2.59935e-05
8.52058e-05
0.000826904
0.00123959
0.00133887
0.00130931
0.00124702
0.00118976
0.00114412
0.00110733
0.00107367
0.00103478
0.000985567
0.000959118
0.000956413
0.000982555
0.00103496
0.00110533
0.00118323
0.00126669
0.00135483
0.00144937
0.00155718
0.0016892
0.00186212
0.00204758
0.000871149
0.00121646
0.0013097
0.00128509
0.00123327
0.00118491
0.00114269
0.00110697
0.00106357
0.0010095
0.000977608
0.00096644
0.000987485
0.00104092
0.00111725
0.00120677
0.00130509
0.00140963
0.00152189
0.00164739
0.00179544
0.00198317
0.00221136
0.00244148
0.000943436
0.001218
0.00128839
0.00126544
0.00122067
0.00117644
0.00113285
0.00109224
0.00104218
0.00100101
0.000982138
0.00100007
0.00105721
0.00114381
0.00124781
0.00136328
0.00148865
0.00162645
0.0017846
0.0019749
0.00221052
0.00249885
0.00282387
0.00307585
0.00100387
0.00121912
0.00126655
0.00124238
0.00120035
0.00115548
0.00110985
0.0010706
0.00101752
0.000996382
0.00101375
0.00107339
0.00116499
0.00127485
0.00139517
0.00152589
0.00167235
0.00184534
0.0020601
0.00233318
0.00267527
0.00307611
0.00346124
0.00375068
0.00104675
0.00120919
0.00123741
0.00120974
0.00116775
0.00111531
0.00108675
0.00103135
0.00100652
0.00102289
0.00108388
0.00117803
0.00129068
0.00141375
0.00154688
0.00169611
0.00187264
0.00209253
0.00237469
0.00273448
0.00317167
0.0036349
0.00405947
0.00434916
0.00106479
0.00118552
0.00119655
0.00116488
0.0011122
0.00108911
0.0010375
0.00101045
0.00102596
0.0010877
0.0011838
0.00129888
0.00142435
0.00155956
0.00171036
0.00188818
0.00210971
0.00239545
0.00276424
0.00322242
0.00374354
0.00425556
0.00471475
0.00500033
0.00106149
0.00114698
0.00114271
0.00110572
0.00106879
0.00103958
0.00100725
0.00102327
0.0010852
0.00118268
0.0012996
0.00142633
0.00156161
0.00171052
0.00188335
0.0020959
0.00236958
0.0027276
0.00318496
0.00373455
0.00431143
0.00487328
0.00533857
0.00561434
0.00103995
0.00109426
0.001079
0.00104053
0.00102565
0.000993874
0.00100889
0.00107156
0.00117188
0.0012918
0.00142009
0.00155472
0.0017002
0.00186573
0.00206539
0.00231892
0.00265048
0.0030818
0.00361888
0.00423601
0.00485079
0.00543541
0.00589034
0.0061574
0.00100301
0.00102996
0.00101037
0.000995311
0.000975311
0.000979327
0.00104544
0.00115058
0.00127525
0.00140636
0.00154096
0.00168306
0.00184116
0.0020276
0.00225937
0.0025587
0.00295015
0.00345064
0.00405475
0.00471077
0.00535409
0.00593395
0.00636916
0.00662313
0.000953953
0.000958618
0.000941191
0.000938858
0.000940786
0.00100773
0.00111699
0.00124775
0.00138383
0.00152013
0.00165984
0.00181101
0.00198487
0.00219586
0.00246259
0.00280795
0.00325431
0.00381148
0.00446234
0.00513858
0.00578804
0.00634899
0.00676313
0.00699603
0.000896446
0.000887488
0.000895204
0.000896053
0.000948213
0.00106458
0.00120565
0.00135115
0.00149269
0.00163222
0.00177768
0.00194011
0.00213253
0.00237031
0.00267218
0.00305956
0.00355041
0.00414652
0.00482104
0.00549828
0.00613326
0.00666423
0.00705602
0.00726156
0.000833427
0.000823239
0.000848396
0.000873112
0.000994088
0.00114705
0.00130576
0.00145674
0.00159966
0.00174197
0.00189485
0.00207106
0.0022843
0.0025496
0.00288409
0.00330564
0.00382628
0.00444028
0.00511443
0.00577401
0.00637572
0.00686706
0.00722886
0.00741163
0.000765712
0.000773249
0.000807663
0.000889023
0.00106061
0.00123875
0.00140703
0.00156004
0.00170401
0.00185046
0.00201285
0.0022049
0.00244001
0.00273155
0.00309325
0.00353773
0.00407039
0.00467948
0.0053292
0.00595299
0.00650409
0.00694688
0.0072717
0.00743322
0.000691492
0.00074004
0.000784424
0.000940638
0.00114472
0.00133849
0.00150975
0.00166198
0.0018068
0.00195875
0.00213262
0.00234205
0.00259895
0.00291367
0.00329514
0.00374944
0.00427523
0.00485653
0.00545827
0.00602736
0.00651114
0.00689535
0.00717387
0.00731187
0.000608359
0.000716133
0.000788484
0.000998309
0.00123872
0.00143969
0.00161066
0.00176178
0.00190871
0.00206812
0.00225531
0.0024829
0.00276033
0.00309386
0.00348659
0.00393748
0.00443864
0.00497116
0.00550309
0.00599364
0.00639683
0.0067029
0.00692139
0.00702931
0.000521683
0.000700665
0.000809005
0.00107413
0.00133698
0.00154165
0.00171081
0.00186094
0.00201125
0.00217989
0.00238181
0.00262766
0.00292349
0.00327078
0.00366643
0.00410237
0.0045645
0.00503151
0.00547469
0.00586132
0.00616319
0.0063632
0.00648928
0.00654977
0.000448289
0.000695723
0.000852819
0.00116552
0.00144039
0.00164504
0.00181093
0.00196042
0.00211558
0.00229522
0.00251299
0.00277668
0.00308829
0.00344433
0.00383588
0.00424852
0.00466262
0.00505402
0.00539533
0.00565839
0.00582007
0.00587329
0.00584194
0.00579734
0.000394082
0.000702171
0.000914252
0.00127262
0.00155072
0.00174991
0.00191133
0.00206094
0.00222266
0.00241504
0.00264951
0.00293026
0.00325497
0.00361547
0.00399795
0.00438306
0.00474672
0.00506169
0.00529927
0.00543055
0.00542832
0.00527442
0.00497991
0.0046266
0.000365355
0.000721017
0.000992457
0.00139307
0.00166316
0.00185518
0.0020125
0.00216351
0.0023336
0.00254028
0.00279192
0.00308864
0.0034239
0.0037856
0.00415632
0.0045136
0.00483087
0.00507927
0.00522938
0.00525121
0.00511061
0.00475977
0.00411211
0.00305973
0.000361352
0.000750328
0.00108754
0.00151189
0.00177236
0.00196159
0.0021154
0.00226896
0.00244911
0.00267133
0.0029401
0.00325131
0.00359471
0.00395519
0.00431315
0.00464483
0.00492348
0.00512148
0.00521259
0.00517321
0.00498144
0.00461275
0.00403204
0.00321498
0.000370039
0.000787793
0.00121428
0.00163902
0.0018936
0.00207241
0.00222094
0.0023779
0.00256961
0.00280806
0.00309318
0.00341676
0.0037655
0.00412231
0.00446651
0.00477428
0.00501999
0.00517851
0.00522754
0.00514913
0.00492956
0.00455698
0.00401655
0.00331118
0.000386844
0.000848331
0.00137784
0.00178222
0.00202029
0.00218558
0.00232873
0.00249043
0.00269495
0.00294963
0.00324939
0.0035823
0.00393282
0.0042827
0.00461097
0.00489442
0.0051092
0.0052333
0.00524891
0.0051438
0.00491092
0.00454648
0.00404826
0.00343327
0.000409926
0.000953982
0.0015419
0.00192668
0.0021506
0.00230049
0.00243853
0.00260623
0.00282435
0.00309447
0.00340624
0.00374461
0.00409257
0.00443139
0.00474034
0.00499724
0.00518035
0.00527097
0.00525582
0.00512809
0.00488664
0.00453409
0.00407591
0.00352906
0.000442749
0.0010872
0.00173861
0.00209329
0.00228633
0.00241609
0.00254954
0.00272425
0.00295618
0.00324043
0.00356088
0.00390028
0.00424095
0.00456418
0.0048498
0.00507693
0.00522611
0.00528204
0.00523588
0.00508589
0.00483614
0.00449442
0.00407169
0.00358386
9.63279e-07
1.28283e-05
4.60959e-05
0.000110324
4.50182e-05
6.15327e-05
3.12613e-05
0.000115967
0.000235529
0.000388298
0.000443803
0.000574139
4.89607e-05
0.000238976
0.000454339
0.000696557
0.000918877
0.00112881
5.49718e-05
0.000341601
0.000650131
0.000964958
0.00127326
0.00157112
5.96434e-05
0.000421326
0.000813281
0.00118471
0.0015408
0.00188098
6.32471e-05
0.000484038
0.000943013
0.00135937
0.00174607
0.00209773
6.59695e-05
0.000533787
0.00104335
0.00149323
0.00189732
0.00224746
6.79514e-05
0.000573711
0.00111868
0.00159269
0.00200467
0.00234737
6.93028e-05
0.000605619
0.00117241
0.00166074
0.00207567
0.00240916
7.01115e-05
0.000630141
0.00120692
0.00170084
0.0021161
0.00244078
7.04505e-05
0.000646902
0.00122289
0.00171578
0.00212998
0.00244665
7.03856e-05
0.000655139
0.00122048
0.00170767
0.00211906
0.00243048
6.99832e-05
0.000653307
0.00119969
0.00167772
0.00208467
0.00239409
6.92469e-05
0.000640692
0.00116033
0.00162521
0.00202728
0.00233801
6.81008e-05
0.000617791
0.00110236
0.00155036
0.00194575
0.0022595
6.65036e-05
0.000584764
0.00102748
0.00145443
0.00184391
0.00216129
6.4413e-05
0.000541457
0.00093535
0.00133567
0.0017178
0.00203874
6.17668e-05
0.000487639
0.000827004
0.00119407
0.00156504
0.00188734
5.84685e-05
0.000422792
0.000704096
0.00103074
0.00138209
0.00170072
5.43703e-05
0.000347841
0.000568961
0.000847632
0.00116555
0.00147093
4.92586e-05
0.000262754
0.000424604
0.000648951
0.000913919
0.00118665
0.000192278
0.000169044
0.000275006
0.000440498
0.000638183
0.00083269
3.39376e-05
7.16194e-05
0.000128752
0.000235252
0.000361595
0.000415682
9.69829e-07
6.14478e-06
2.56872e-05
7.35737e-05
0.000138683
4.73248e-05
0.000540978
0.0013891
0.00200702
0.00227771
0.00242081
0.0025291
0.00265985
0.00284307
0.00308861
0.00338517
0.0037105
0.00404633
0.00437499
0.00467821
0.00493658
0.00513065
0.00524333
0.00526283
0.00518481
0.00501259
0.00475518
0.00442481
0.00403615
0.00360371
0.00122632
0.00190468
0.00226706
0.00244434
0.00254183
0.00263541
0.00276766
0.00296167
0.00322069
0.00352668
0.00385266
0.00418039
0.00449274
0.00477201
0.00499965
0.00515769
0.00523151
0.005213
0.00510251
0.00490853
0.00464484
0.00432731
0.0039731
0.00359637
0.0017267
0.00222018
0.00246009
0.00257502
0.00264525
0.00273361
0.0028725
0.00307931
0.00335106
0.00366289
0.0039853
0.00430087
0.00459322
0.00484527
0.00503929
0.00515878
0.00519177
0.00513408
0.00499116
0.00477693
0.00450974
0.00420835
0.00389119
0.00357193
0.0020653
0.00242841
0.00260168
0.0026777
0.00273497
0.00282531
0.00297466
0.00319524
0.00347825
0.00379198
0.00410694
0.00440692
0.00467632
0.00489858
0.00505669
0.00513567
0.00512641
0.00502922
0.00485521
0.00462402
0.00435813
0.00407792
0.00380126
0.00353964
0.00229881
0.00258229
0.00270772
0.00275968
0.00281435
0.00291177
0.0030741
0.00330846
0.00360066
0.00391243
0.00421666
0.00449841
0.00474266
0.00493321
0.00505369
0.00509077
0.00503867
0.00490293
0.00470106
0.0044584
0.00420045
0.00394718
0.00371336
0.00350628
0.00246115
0.00269333
0.00278613
0.00282569
0.00288559
0.00299364
0.00317036
0.00341778
0.00371678
0.00402317
0.00431415
0.00457578
0.00479338
0.00495089
0.00503256
0.00502702
0.00493257
0.00476095
0.00453663
0.00428996
0.00404739
0.00382579
0.0036346
0.00347583
0.00257371
0.0027698
0.00284285
0.00287938
0.00294999
0.00307097
0.00326267
0.00352199
0.00382514
0.00412354
0.0043996
0.00463994
0.00482997
0.00495363
0.00499588
0.00494783
0.00481287
0.00460998
0.00437058
0.00412836
0.0039078
0.00372019
0.00356853
0.00344999
0.0026489
0.0028198
0.00288274
0.00292369
0.00300779
0.00314325
0.00335005
0.00362017
0.00392412
0.00421331
0.00447364
0.00469215
0.00485419
0.00494364
0.00494643
0.00485697
0.00468488
0.00445715
0.00421125
0.00398147
0.00378732
0.00363309
0.00351575
0.0034291
0.00269458
0.00284947
0.00290952
0.00296074
0.00305839
0.00320958
0.00343136
0.00371127
0.00401348
0.00429296
0.00453726
0.00473385
0.00486788
0.0049232
0.00488717
0.00475849
0.00455421
0.00430939
0.00406557
0.00385435
0.00368814
0.00356426
0.00347514
0.00341283
0.00271592
0.00286269
0.00292562
0.00299108
0.00310235
0.00326937
0.00350562
0.00379432
0.00409376
0.00436324
0.00459162
0.00476658
0.00487293
0.00489464
0.00482117
0.00465663
0.00442635
0.00417263
0.00393823
0.00374909
0.00360966
0.00351167
0.00344484
0.0034006
0.00271724
0.00286213
0.00293257
0.00301484
0.00313933
0.00332189
0.00357204
0.00386885
0.00416523
0.00442498
0.00463797
0.00479189
0.0048712
0.0048603
0.00475155
0.00455556
0.00430621
0.00405127
0.00383152
0.00366527
0.00354965
0.0034726
0.00342283
0.00339173
0.00270132
0.00284955
0.00293115
0.00303153
0.00316853
0.00336625
0.00362998
0.00393463
0.00422839
0.00447913
0.00467758
0.00481134
0.00486455
0.00482253
0.00468142
0.00445918
0.00419774
0.00394786
0.00374557
0.00360094
0.00350523
0.0034444
0.0034072
0.0033855
0.00266981
0.00282596
0.00292173
0.00303991
0.00318873
0.00340153
0.00367891
0.00399169
0.00428386
0.00452673
0.00471177
0.00482644
0.00485482
0.00478368
0.00461381
0.00437091
0.00410372
0.00386326
0.00367902
0.00355344
0.00347373
0.0034248
0.00339629
0.00338128
0.00262345
0.00279178
0.00290463
0.00303733
0.00319833
0.00342676
0.00371851
0.00404026
0.00433239
0.00456883
0.00474178
0.00483867
0.00484382
0.00474607
0.00455156
0.00429354
0.00402572
0.00379702
0.00362969
0.00351988
0.00345239
0.00341154
0.00338978
0.00337877
0.00256222
0.00274697
0.00287941
0.00302129
0.00319586
0.00344126
0.00374868
0.00408077
0.00437478
0.00460644
0.00476879
0.00484942
0.00483325
0.00471186
0.00449709
0.00422904
0.00396427
0.00374785
0.0035951
0.00349753
0.00343882
0.00340426
0.00338622
0.00337741
0.00248401
0.00269109
0.00284367
0.00299213
0.00318079
0.00344477
0.00376966
0.00411385
0.00441188
0.00464051
0.00479385
0.00485989
0.00482463
0.00468291
0.00445232
0.00417855
0.00391907
0.00371414
0.00357315
0.0034845
0.00343145
0.00340057
0.00338465
0.00337686
0.00239174
0.00262414
0.00279438
0.0029485
0.00315249
0.0034373
0.00378195
0.00414032
0.00444452
0.00467189
0.00481785
0.00487111
0.00481926
0.00466074
0.00441856
0.00414251
0.00388923
0.00369409
0.00356188
0.00347919
0.00342998
0.00340076
0.00338509
0.00337701
0.00228235
0.00254639
0.00272581
0.00288829
0.0031104
0.0034192
0.00378638
0.00416123
0.00447358
0.00470134
0.00484153
0.00488393
0.00481817
0.0046465
0.00439662
0.00412078
0.00387361
0.0036862
0.00355972
0.00348038
0.00343229
0.00340368
0.00338702
0.00337763
0.0021533
0.00245574
0.0026358
0.00281067
0.0030547
0.0033914
0.00378423
0.00417785
0.00449997
0.00472955
0.00486549
0.00489902
0.00482217
0.00464099
0.00438691
0.00411324
0.00387156
0.00368905
0.00356567
0.00348721
0.00343855
0.00340854
0.00339005
0.00337865
0.00200291
0.0023482
0.00252411
0.0027161
0.0029868
0.00335566
0.00377733
0.00419179
0.00452465
0.00475714
0.0048902
0.00491685
0.00483182
0.00464467
0.00438916
0.00411837
0.00388125
0.00370183
0.00357902
0.00349932
0.00344841
0.00341564
0.00339423
0.00338005
0.0018298
0.00221628
0.00239105
0.00260509
0.0029087
0.00331467
0.00376816
0.004205
0.00454872
0.00478469
0.00491603
0.0049377
0.00484733
0.00465716
0.00440348
0.00413666
0.00390278
0.00372408
0.0035995
0.00351658
0.00346184
0.00342505
0.00339973
0.00338196
0.00162924
0.00205252
0.00223954
0.00248057
0.00282386
0.00327226
0.00375998
0.00421972
0.00457326
0.00481279
0.0049433
0.0049617
0.00486867
0.00467945
0.00442927
0.00416709
0.0039355
0.0037556
0.00362719
0.00353921
0.0034791
0.00343704
0.00340677
0.00338457
0.00137647
0.00186685
0.00207968
0.00234965
0.00273916
0.00323412
0.00375685
0.00423817
0.00459885
0.00484134
0.00497142
0.00498863
0.00489612
0.00471037
0.00446611
0.00420917
0.00397915
0.00379649
0.00366243
0.00356766
0.00350065
0.00345199
0.00341568
0.00338808
0.00106263
0.0016962
0.00192304
0.00222403
0.00266575
0.00320868
0.0037634
0.00426178
0.00462585
0.00487004
0.00499977
0.00501805
0.00492873
0.00474934
0.00451317
0.00426235
0.00403357
0.00384704
0.00370581
0.0036026
0.00352712
0.00347048
0.0034269
0.00339279
9.71797e-07
3.68877e-06
1.19081e-05
3.62294e-05
9.44271e-05
4.92557e-05
3.13096e-05
6.05234e-05
8.82118e-05
0.000105881
0.000110156
0.000125592
0.000176356
0.000120131
0.000148666
0.000153584
0.000167834
0.000232894
0.000191715
0.000165116
0.000195984
0.000201594
0.000230364
0.000332511
4.80756e-05
0.000201947
0.000238826
0.000255427
0.000283013
0.000424663
5.16169e-05
0.000235411
0.000280469
0.000300566
0.000334954
0.000509585
5.44887e-05
0.000265411
0.00032126
0.00034294
0.000390316
0.000584578
5.68229e-05
0.000291938
0.000359632
0.000386193
0.000446818
0.000650418
5.86122e-05
0.00031553
0.000395414
0.000430771
0.000504354
0.000708492
5.98663e-05
0.000335998
0.00042861
0.000476983
0.000562962
0.0007602
6.06041e-05
0.000352789
0.000459935
0.000523576
0.000619912
0.000808945
6.08514e-05
0.000365462
0.000489248
0.000568955
0.000672935
0.000844448
6.06748e-05
0.00037356
0.000515656
0.000611142
0.000721465
0.000883035
6.01006e-05
0.000376651
0.000538248
0.000648456
0.000771151
0.000916684
5.92799e-05
0.00037446
0.000555489
0.00067921
0.000809661
0.000945249
5.8326e-05
0.000366172
0.000564832
0.000700634
0.000835671
0.000967379
5.70834e-05
0.000352044
0.000564532
0.000713439
0.00084554
0.000980834
5.54185e-05
0.000333345
0.000552442
0.000714709
0.00083821
0.000980114
5.32033e-05
0.000309615
0.000526389
0.000696857
0.000817397
0.000953269
5.04468e-05
0.000278329
0.000482462
0.000650228
0.00078131
0.000892839
0.000200301
0.000235823
0.000414652
0.000572878
0.000708327
0.000811453
0.000181271
0.000174064
0.000314388
0.000451638
0.000577985
0.000681901
3.21172e-05
8.79089e-05
0.000175396
0.000272371
0.000379597
0.000403999
9.39069e-07
7.64537e-06
2.92744e-05
6.61552e-05
0.000123566
4.61287e-05
0.000912635
0.00153946
0.0017678
0.00212136
0.00262071
0.00320417
0.00378436
0.00428841
0.00465357
0.00489775
0.00502882
0.00504955
0.00496598
0.00479573
0.00456971
0.0043261
0.00409872
0.00390768
0.00375805
0.00364489
0.00355938
0.00349323
0.00344077
0.00339883
0.000836848
0.00139391
0.00167164
0.00207105
0.00261033
0.00322347
0.00382006
0.004319
0.00468186
0.00492455
0.00505743
0.00508237
0.00500707
0.0048486
0.0046349
0.00439996
0.00417467
0.00397901
0.00382014
0.00369564
0.00359843
0.00352097
0.0034577
0.00340627
0.000868916
0.00132468
0.0016284
0.00205951
0.00263099
0.00326393
0.003867
0.00435309
0.00470985
0.00495098
0.00508493
0.00511553
0.0050509
0.00490678
0.0047077
0.00448332
0.00426146
0.00406175
0.00389326
0.00375621
0.00364548
0.00355458
0.00347849
0.00341544
0.000903614
0.00128297
0.00161083
0.00207728
0.00267591
0.00332039
0.00391787
0.00438755
0.00473425
0.00497374
0.0051095
0.0051475
0.0050959
0.00496866
0.00478665
0.00457512
0.00435869
0.00415625
0.0039784
0.0038279
0.00370184
0.00359522
0.00350409
0.00342691
0.00092747
0.00126112
0.00161495
0.00211679
0.00273776
0.00338704
0.00396462
0.00441908
0.00475654
0.00499125
0.00512918
0.0051762
0.00513987
0.00503194
0.00486951
0.00467348
0.00446509
0.00426203
0.00407589
0.00391168
0.00376884
0.00364424
0.00353538
0.00344088
0.000945113
0.00125549
0.00163719
0.00217176
0.00280896
0.00345441
0.0040059
0.00444043
0.00476934
0.00500012
0.00514122
0.00519894
0.00517992
0.00509355
0.00495317
0.00477549
0.00457827
0.0043775
0.00418509
0.0040078
0.00384734
0.00370266
0.00357303
0.00345736
0.000961188
0.00126406
0.00167404
0.00223664
0.0028833
0.00351203
0.00403777
0.00445412
0.00477061
0.00499724
0.00514247
0.00521241
0.00521249
0.00514964
0.00503364
0.00487718
0.00469457
0.00449966
0.00430397
0.00411533
0.0039373
0.00377087
0.00361737
0.00347615
0.000979317
0.001285
0.00172162
0.00230508
0.00295274
0.00355556
0.00405509
0.00445188
0.00475608
0.00497904
0.00512944
0.0052129
0.0052335
0.00519574
0.0051061
0.00497358
0.00480905
0.00462396
0.00442877
0.00423156
0.00403714
0.00384819
0.00366802
0.00349664
0.00100176
0.00131593
0.00177511
0.00236972
0.00300897
0.00357931
0.00405307
0.00442968
0.00472191
0.00494197
0.00509852
0.00519652
0.00523861
0.00522702
0.00516526
0.00505894
0.00491571
0.0047444
0.00455387
0.00435174
0.00414325
0.00393215
0.00372335
0.00351748
0.00102944
0.00135375
0.00182809
0.00242292
0.00303753
0.00358069
0.00402693
0.00438357
0.00466464
0.00488275
0.0050463
0.00515947
0.00522351
0.00523861
0.00520566
0.00512724
0.00500795
0.00485399
0.00467225
0.00446921
0.00424979
0.00401807
0.00377986
0.00353607
0.00106209
0.00139537
0.00186943
0.00245436
0.0030428
0.00355325
0.00397259
0.00431039
0.00458154
0.0047987
0.00496987
0.0050984
0.0051843
0.00522604
0.00522218
0.00517265
0.00507926
0.00494555
0.00477622
0.00457613
0.00434922
0.00409916
0.00383183
0.00354803
0.00108852
0.00142114
0.00189848
0.00246191
0.00301514
0.00349343
0.00388744
0.00420819
0.00447091
0.00468803
0.00486707
0.00501067
0.00511784
0.00518558
0.00521053
0.00519026
0.00512398
0.00501266
0.00485864
0.00466478
0.00443356
0.00416752
0.00387177
0.00354696
0.00111754
0.00144407
0.00190313
0.00243585
0.00295238
0.00339981
0.00377073
0.00407655
0.00433229
0.00455
0.00473674
0.00489467
0.00502203
0.0051147
0.00516772
0.00517659
0.00513813
0.00505074
0.00491428
0.00472932
0.00449634
0.00421609
0.00389191
0.00352484
0.001137
0.0014482
0.00187884
0.00237462
0.0028547
0.0032733
0.00362362
0.00391657
0.00416651
0.00438501
0.00457885
0.0047499
0.004896
0.00501225
0.00509242
0.00513021
0.0051202
0.00505829
0.00494161
0.00476806