/*--------------------------------*- C++ -*----------------------------------*\
  =========                 |
  \\      /  F ield         | OpenFOAM: The Open Source CFD Toolbox
   \\    /   O peration     | Website:  https://openfoam.org
    \\  /    A nd           | Version:  11
     \\/     M anipulation  |
\*---------------------------------------------------------------------------*/
FoamFile
{
    format      ascii;
    class       surfaceVectorField;
    location    "0.32";
    object      Uf;
}
// * * * * * * * * * * * * * * * * * * * * * * * * * * * * * * * * * * * * * //

dimensions      [0 1 -1 0 0 0 0];

internalField   nonuniform List<vector> 
5640
(
(0.0433314 0.0109469 1.46542e-20)
(0.0369912 0.0102113 1.89836e-20)
(0.0755355 -0.0380686 -2.56264e-21)
(0.0546981 -0.0181775 2.06187e-19)
(0.111934 -0.09652 -2.93521e-20)
(0.0990042 -0.0885545 -3.21141e-20)
(0.155314 -0.170748 3.51812e-20)
(0.125773 -0.137018 -1.37795e-21)
(0.189729 -0.253026 1.14132e-19)
(0.178544 -0.226095 4.94284e-20)
(0.16502 -0.216489 1.13793e-19)
(0.402328 -0.268364 -9.91705e-20)
(0.0442754 -0.0138755 2.02349e-19)
(0.0383937 -0.00331366 9.07714e-21)
(0.0743468 -0.0701052 1.94834e-19)
(0.0524523 -0.0444462 2.06325e-19)
(0.106605 -0.129711 -4.96477e-21)
(0.0901795 -0.11237 -1.11239e-21)
(0.137385 -0.186633 1.77775e-20)
(0.111251 -0.159436 -1.17472e-19)
(0.168347 -0.236745 1.15387e-19)
(0.14442 -0.216223 1.61446e-20)
(0.143261 -0.209137 -1.42369e-19)
(0.28385 -0.196937 1.17319e-19)
(0.0419203 -0.0288645 0)
(0.0361911 -0.013345 0)
(0.066433 -0.0864801 1.92056e-20)
(0.046643 -0.0615388 0)
(0.0928765 -0.141304 -1.09255e-19)
(0.0769446 -0.123743 -1.31511e-19)
(0.115036 -0.184527 -1.23737e-19)
(0.0935874 -0.164558 -2.24552e-20)
(0.136034 -0.21043 -2.07453e-19)
(0.116357 -0.199149 9.96545e-22)
(0.125485 -0.18966 -4.01278e-20)
(0.204685 -0.169904 -3.15146e-19)
(0.037952 -0.0408143 0)
(0.033132 -0.0232849 2.20183e-19)
(0.0569093 -0.0977362 -1.45121e-19)
(0.0400922 -0.0744687 -1.72376e-19)
(0.0774476 -0.145694 -4.91901e-20)
(0.0632965 -0.129793 -6.41984e-21)
(0.0942796 -0.177286 9.97665e-20)
(0.0762072 -0.162901 2.68268e-19)
(0.112731 -0.188838 1.82262e-19)
(0.0931993 -0.18317 -1.53871e-19)
(0.107777 -0.172009 1.10947e-19)
(0.162525 -0.156032 1.58837e-19)
(0.0330568 -0.0516951 7.23295e-20)
(0.0298194 -0.0332454 -2.79593e-20)
(0.0469645 -0.105346 -4.14179e-20)
(0.033288 -0.0839062 -3.8413e-21)
(0.062054 -0.145808 3.01024e-19)
(0.0497965 -0.131972 1.11992e-20)
(0.0749183 -0.167978 2.67707e-20)
(0.0592746 -0.157432 -1.17366e-19)
(0.0914508 -0.171115 -2.41632e-19)
(0.0721377 -0.167953 -3.93265e-21)
(0.0880973 -0.155587 -2.019e-19)
(0.130728 -0.144742 1.5825e-20)
(0.0284603 -0.0602711 -1.03307e-19)
(0.0251691 -0.0416376 -2.38133e-19)
(0.0368843 -0.109462 4.61865e-20)
(0.0259813 -0.0897635 3.50442e-19)
(0.0469428 -0.142699 -4.02512e-19)
(0.0363484 -0.130965 -1.60174e-19)
(0.056335 -0.157175 -1.51074e-19)
(0.0425506 -0.149454 -3.58394e-20)
(0.0702626 -0.154835 4.04735e-20)
(0.0517509 -0.152911 4.0655e-20)
(0.0662737 -0.139435 -2.57128e-21)
(0.101483 -0.132603 -3.09942e-20)
(0.0215659 -0.0662732 1.8099e-19)
(0.0168227 -0.046033 8.72084e-21)
(0.0262132 -0.11036 1.6542e-19)
(0.0174453 -0.092158 9.71187e-21)
(0.0318792 -0.137107 2.01873e-19)
(0.0227441 -0.127422 1.26057e-19)
(0.0378945 -0.145223 1.53196e-19)
(0.0258367 -0.139727 2.24589e-19)
(0.0484637 -0.138875 -1.11265e-21)
(0.0313839 -0.137683 1.07259e-20)
(0.0426288 -0.122963 1.94725e-19)
(0.0723714 -0.11895 -1.08393e-19)
(0.0110094 -0.0686006 -1.63701e-19)
(0.00662171 -0.0475835 0)
(0.014577 -0.108521 -3.44099e-20)
(0.00743252 -0.0921788 -3.53483e-22)
(0.016691 -0.129688 1.4548e-19)
(0.00891815 -0.122104 6.34296e-22)
(0.0193466 -0.132374 8.79916e-20)
(0.00907384 -0.1288 -2.17042e-19)
(0.0259039 -0.122671 2.02146e-19)
(0.0108508 -0.122091 1.96816e-19)
(0.0176069 -0.105853 9.80257e-20)
(0.0426563 -0.103756 1.95767e-19)
(0.00157354 -0.0685731 1.63368e-19)
(-0.00248012 -0.0485471 0)
(0.0023681 -0.105029 3.46487e-20)
(-0.00323858 -0.0906566 -1.69106e-19)
(0.00140255 -0.12107 -3.54534e-19)
(-0.00495361 -0.115644 1.15064e-19)
(0.00070602 -0.118836 -1.19649e-19)
(-0.00762771 -0.117107 -8.83618e-20)
(0.00276596 -0.105951 9.50296e-20)
(-0.00977896 -0.106065 -3.78347e-20)
(-0.00825534 -0.0879645 2.51807e-20)
(0.0123061 -0.0870917 9.46529e-22)
(-0.00786963 -0.0678834 -3.22759e-19)
(-0.0107184 -0.0485044 0)
(-0.00998688 -0.100538 -1.00789e-19)
(-0.0140035 -0.0881295 -3.4379e-19)
(-0.0137646 -0.111723 3.88042e-19)
(-0.0186321 -0.108511 1.34617e-19)
(-0.0178599 -0.104769 -7.82224e-21)
(-0.0240634 -0.104959 1.15191e-19)
(-0.0206201 -0.0886517 -1.09417e-19)
(-0.0302689 -0.0896311 -1.29885e-19)
(-0.0343482 -0.0692945 -4.64809e-20)
(-0.0183117 -0.0690843 -1.11032e-19)
(-0.0168469 -0.0663073 -1.18684e-21)
(-0.0180469 -0.0473528 -3.03615e-19)
(-0.0221337 -0.095415 -1.28763e-19)
(-0.0244891 -0.0849121 1.68331e-19)
(-0.0285818 -0.101966 -1.37611e-19)
(-0.0318867 -0.101032 -1.33114e-19)
(-0.0361058 -0.0903526 0)
(-0.0400278 -0.0925717 1.15609e-19)
(-0.0437796 -0.0708228 -6.91564e-20)
(-0.0502581 -0.0729118 -1.31365e-20)
(-0.0600214 -0.0499047 -5.91217e-20)
(-0.0486253 -0.0498593 1.43244e-20)
(-0.0252643 -0.0637657 -1.6129e-19)
(-0.0244055 -0.0450289 -9.62756e-23)
(-0.0338076 -0.089915 1.76845e-19)
(-0.0344268 -0.0812192 1.58826e-19)
(-0.0428422 -0.0920285 1.11703e-19)
(-0.0445363 -0.0934201 8.25163e-21)
(-0.0537134 -0.0757636 1.06082e-19)
(-0.0552931 -0.0801574 2.71124e-22)
(-0.0661999 -0.0525642 -2.02496e-21)
(-0.0693572 -0.0560648 -7.83111e-20)
(-0.0845996 -0.0299067 2.34871e-20)
(-0.0779747 -0.0295472 -3.25914e-22)
(-0.0326145 -0.0604794 3.10703e-19)
(-0.0297805 -0.0415835 4.60647e-19)
(-0.0448017 -0.084182 -3.26541e-21)
(-0.0435664 -0.0771012 -1.34489e-20)
(-0.0563408 -0.0821031 -1.02916e-19)
(-0.0564504 -0.085826 8.25163e-21)
(-0.0703754 -0.0611967 -1.81924e-19)
(-0.0696497 -0.0679156 -1.73538e-19)
(-0.0873636 -0.0340391 -5.52717e-20)
(-0.0872053 -0.0392834 -1.32336e-20)
(-0.107451 -0.00947216 1.17538e-20)
(-0.105627 -0.00837775 -4.40636e-22)
(-0.0391445 -0.0563339 1.64007e-19)
(-0.0341383 -0.0370313 4.56395e-21)
(-0.0549482 -0.0782996 -2.76139e-21)
(-0.0517006 -0.0726103 -8.13108e-21)
(-0.0689476 -0.0723466 -5.62286e-20)
(-0.0675472 -0.078347 -2.98604e-20)
(-0.0858374 -0.0468522 -9.33638e-21)
(-0.0829573 -0.056043 -2.8975e-20)
(-0.106814 -0.0154357 5.31916e-20)
(-0.103497 -0.0228025 5.19463e-20)
(-0.128018 0.0111726 1.23345e-20)
(-0.13088 0.0135078 -4.29168e-20)
(-0.0446382 -0.0513966 -1.66519e-19)
(-0.0374295 -0.0314457 -1.52552e-19)
(-0.06411 -0.072304 -3.41543e-20)
(-0.0586729 -0.0677001 -8.26195e-21)
(-0.0805821 -0.0628934 -2.6328e-21)
(-0.0777782 -0.0710367 6.87074e-21)
(-0.0999125 -0.03296 3.0043e-20)
(-0.0951474 -0.044748 2.54084e-20)
(-0.124166 0.00299314 1.20388e-20)
(-0.118004 -0.00691344 2.30096e-20)
(-0.145795 0.0317643 1.20644e-20)
(-0.153192 0.0359306 8.66806e-20)
(-0.0490263 -0.0457286 -2.61919e-21)
(-0.0395514 -0.024923 6.01411e-22)
(-0.0722108 -0.0661738 3.23655e-20)
(-0.0643702 -0.0622587 -2.77955e-21)
(-0.0912068 -0.053858 3.4283e-20)
(-0.0871488 -0.0639109 3.67266e-20)
(-0.112496 -0.0197887 1.84291e-20)
(-0.106238 -0.0342518 2.63873e-20)
(-0.139111 0.0209297 2.33562e-20)
(-0.130602 0.00801438 -3.82346e-21)
(-0.160354 0.0519412 -3.45729e-21)
(-0.172016 0.0586608 -2.6113e-20)
(-0.052194 -0.0394918 6.36108e-22)
(-0.0403301 -0.0175716 6.01411e-22)
(-0.0792142 -0.0598303 0)
(-0.0686547 -0.0561072 -3.6322e-22)
(-0.100881 -0.0453511 2.91822e-20)
(-0.0957476 -0.0569354 2.80468e-22)
(-0.123589 -0.0076574 4.95254e-21)
(-0.116354 -0.0247924 2.97083e-20)
(-0.15145 0.0379597 -3.0604e-20)
(-0.1413 0.0215138 -2.64323e-20)
(-0.171361 0.0712129 -3.18714e-21)
(-0.1869 0.0814348 -2.13991e-21)
(-0.0539005 -0.032839 -3.42265e-22)
(-0.0396397 -0.00951235 2.26877e-21)
(-0.0851095 -0.0531248 -9.15319e-23)
(-0.0712677 -0.048965 -4.9511e-20)
(-0.109756 -0.037456 -1.87604e-22)
(-0.103724 -0.0500136 3.52718e-20)
(-0.133336 0.00305544 -1.02585e-22)
(-0.125754 -0.0166175 1.44608e-21)
(-0.161128 0.0535217 4.27313e-22)
(-0.150288 0.0329956 4.17309e-22)
(-0.178586 0.0889117 0)
(-0.197525 0.103917 0)
(-0.0538607 -0.023497 -4.37965e-20)
(-0.0366781 -0.000852303 1.26995e-19)
(-0.0898623 -0.0457768 -1.77368e-20)
(-0.0719258 -0.0403944 -9.86869e-20)
(-0.11808 -0.0302026 3.79498e-20)
(-0.111272 -0.0429465 7.38092e-20)
(-0.142052 0.0119065 1.99473e-21)
(-0.134848 -0.00996318 1.94032e-21)
(-0.168276 0.0668427 0)
(-0.158019 0.0417219 7.40975e-21)
(-0.181885 0.104104 -6.37571e-21)
(-0.20369 0.125659 -4.06362e-21)
(-0.0512166 -0.0142621 8.50778e-20)
(-0.0322825 0.00803766 2.80936e-21)
(-0.0935494 -0.0374112 -1.45583e-20)
(-0.0711834 -0.0298434 1.60508e-19)
(-0.126199 -0.0235502 4.02403e-20)
(-0.118641 -0.0354189 -4.35514e-20)
(-0.150286 0.0183945 7.202e-21)
(-0.144234 -0.00500521 -8.8119e-21)
(-0.173352 0.0769004 4.66544e-22)
(-0.165355 0.0467977 1.47326e-20)
(-0.180887 0.115415 -6.37571e-21)
(-0.205194 0.146075 5.98516e-20)
(-0.0480722 -0.00447129 6.9538e-20)
(-0.0281858 0.0167383 -1.21205e-19)
(-0.0968648 -0.0277903 1.40047e-19)
(-0.0696302 -0.0171551 9.79782e-20)
(-0.134534 -0.0174766 -9.35145e-20)
(-0.125987 -0.0270957 -7.1072e-20)
(-0.158841 0.0219078 -1.9063e-21)
(-0.154671 -0.00177842 7.80338e-22)
(-0.177159 0.0821323 7.4984e-21)
(-0.17371 0.0471522 -7.00587e-20)
(-0.174325 0.120902 -5.22531e-20)
(-0.201658 0.164456 2.18603e-21)
(-0.0447625 0.00603753 -1.05533e-19)
(-0.0239468 0.0250772 -2.97318e-19)
(-0.0997083 -0.0170601 -1.06084e-19)
(-0.0663285 -0.00192388 -1.0426e-19)
(-0.143253 -0.0120641 2.17182e-20)
(-0.132624 -0.017218 -1.76913e-19)
(-0.168582 0.021758 -6.48347e-20)
(-0.166689 6.62926e-05 2.18249e-23)
(-0.18086 0.0804596 -1.30237e-19)
(-0.184752 0.0417478 1.16562e-19)
(-0.157781 0.118545 3.59336e-20)
(-0.192544 0.180577 -1.32933e-19)
(-0.0393256 0.0179135 -3.05874e-19)
(-0.016448 0.0335773 3.63948e-20)
(-0.100454 -0.00457984 -1.74824e-19)
(-0.0553191 0.0184627 7.73385e-21)
(-0.15132 -0.00653559 -2.02031e-19)
(-0.132311 -0.00244573 1.72207e-20)
(-0.179268 0.0182569 1.8004e-19)
(-0.177165 0.00269223 -1.72698e-19)
(-0.183429 0.0703173 2.86017e-19)
(-0.195679 0.0309898 1.69121e-19)
(-0.12563 0.107345 8.80889e-20)
(-0.177535 0.195257 1.87211e-20)
(-0.0267988 0.0363775 3.52142e-19)
(-0.090235 0.0204668 1.89972e-19)
(-0.152746 0.0134903 4.75023e-20)
(-0.186955 0.026753 -1.70196e-19)
(-0.183708 0.0679658 -2.62854e-21)
(-0.168905 0.213676 6.06311e-20)
(0.928367 -0.453451 -9.8972e-20)
(0.620548 -0.321948 -4.82359e-20)
(0.897393 -0.497985 -3.65622e-20)
(1.14149 -0.471019 -5.54009e-20)
(0.990137 -0.4069 -7.67725e-20)
(1.10294 -0.506067 -5.42644e-20)
(1.24912 -0.45324 0)
(1.17497 -0.431361 6.18229e-20)
(1.21899 -0.475955 -2.75236e-21)
(1.31338 -0.426722 -1.26982e-20)
(1.27444 -0.424821 -6.53972e-20)
(1.28954 -0.446117 -1.75068e-21)
(1.35483 -0.397425 -3.98136e-21)
(1.33426 -0.404327 3.97156e-20)
(1.33395 -0.414269 6.27031e-22)
(1.38156 -0.36679 3.48147e-21)
(1.37319 -0.378117 9.26989e-21)
(1.3626 -0.382126 -2.01926e-21)
(1.39818 -0.333946 -6.07809e-21)
(1.39957 -0.347984 -6.001e-21)
(1.38009 -0.348598 2.81323e-21)
(1.40807 -0.300773 0)
(1.41628 -0.316788 -1.9921e-20)
(1.3907 -0.315208 0)
(1.41296 -0.268226 1.33631e-21)
(1.42578 -0.284284 0)
(1.39645 -0.282622 3.01308e-21)
(1.41387 -0.236827 8.64171e-21)
(1.43009 -0.251956 1.35134e-21)
(1.39838 -0.251264 1.71907e-21)
(1.41141 -0.206939 1.42647e-20)
(1.43023 -0.220578 4.48492e-21)
(1.39704 -0.221438 -1.01466e-21)
(1.40597 -0.178843 8.76973e-21)
(1.42678 -0.190654 5.62774e-22)
(1.39281 -0.193372 1.96131e-21)
(1.3979 -0.152745 -2.7131e-21)
(1.42019 -0.162545 1.80089e-21)
(1.386 -0.167231 -3.57613e-21)
(1.38748 -0.128788 -9.2899e-21)
(1.41085 -0.136509 -4.62888e-21)
(1.37687 -0.143129 -4.62888e-21)
(1.37491 -0.107082 -2.112e-20)
(1.39907 -0.112726 6.98989e-21)
(1.36564 -0.121143 -4.66129e-21)
(1.36032 -0.0877281 -2.8798e-20)
(1.38507 -0.0913391 -2.31596e-20)
(1.35246 -0.101338 -1.02631e-20)
(1.34369 -0.0708432 -1.31363e-20)
(1.36894 -0.0724834 -8.68113e-21)
(1.33736 -0.083797 4.02423e-21)
(1.32486 -0.0565615 -9.42704e-22)
(1.35065 -0.0563055 1.99947e-20)
(1.32021 -0.0686307 3.31557e-20)
(1.30347 -0.0450538 0)
(1.33004 -0.0429849 -7.16437e-21)
(1.30074 -0.0560051 -2.27105e-20)
(1.27887 -0.0365727 1.06526e-20)
(1.30665 -0.0326151 5.98442e-21)
(1.27839 -0.0459868 1.75317e-20)
(1.25009 -0.0315295 2.34654e-20)
(1.27958 -0.0253344 1.07214e-20)
(1.25221 -0.0386852 -2.8917e-20)
(1.21572 -0.0306427 8.57437e-21)
(1.24812 -0.022488 2.20487e-20)
(1.22163 -0.0355224 6.25235e-21)
(1.17339 -0.0352998 -4.28033e-20)
(1.21247 -0.0287955 -2.91162e-20)
(1.18686 -0.0412757 -4.60733e-20)
(1.16918 -0.0459828 -2.19685e-20)
(1.14479 -0.0566577 2.75123e-20)
(0.693919 -0.285572 -5.25815e-20)
(0.399987 -0.18719 -5.31393e-20)
(1.01566 -0.370673 6.09237e-20)
(0.782487 -0.283017 1.29335e-19)
(1.19686 -0.405251 -1.20855e-21)
(1.04469 -0.345807 1.53698e-20)
(1.2942 -0.40361 -1.62551e-20)
(1.20925 -0.375131 -3.89509e-20)
(1.35261 -0.385581 5.34294e-20)
(1.30663 -0.37797 1.84583e-20)
(1.39112 -0.359772 0)
(1.36605 -0.362966 0)
(1.41726 -0.331534 -1.96651e-20)
(1.40514 -0.340279 0)
(1.43355 -0.300854 -2.01586e-20)
(1.43193 -0.312247 1.29802e-21)
(1.44275 -0.268422 0)
(1.44992 -0.282051 -2.40285e-20)
(1.44645 -0.236027 -2.70457e-21)
(1.45956 -0.250126 -1.4914e-20)
(1.44566 -0.204555 -9.00159e-21)
(1.46304 -0.217822 2.75246e-20)
(1.44108 -0.174578 -6.36199e-21)
(1.46164 -0.186329 2.61524e-22)
(1.43323 -0.1465 0)
(1.45614 -0.156344 0)
(1.42254 -0.120611 1.15943e-20)
(1.44714 -0.128336 5.86476e-21)
(1.40933 -0.0971277 5.37374e-21)
(1.43512 -0.10264 6.1297e-21)
(1.39379 -0.0762268 -3.19226e-21)
(1.42044 -0.0795059 -6.60643e-21)
(1.37602 -0.0580774 2.42271e-20)
(1.4033 -0.0591458 -5.04441e-21)
(1.35596 -0.042847 1.38204e-20)
(1.38378 -0.0417585 1.82332e-20)
(1.33339 -0.030716 -1.26766e-21)
(1.36183 -0.0275377 -5.73201e-21)
(1.30777 -0.0219443 6.0228e-21)
(1.33722 -0.0166244 3.36424e-21)
(1.27812 -0.0169711 9.10141e-21)
(1.30916 -0.00914545 -4.34773e-21)
(1.24286 -0.0166587 9.86799e-22)
(1.27687 -0.00636209 3.69079e-20)
(1.19923 -0.0227873 -8.32255e-21)
(1.24043 -0.0129106 -5.54769e-20)
(1.1962 -0.0317897 2.26745e-20)
(0.491542 -0.186041 7.15455e-20)
(0.275643 -0.14082 -1.45189e-19)
(0.808641 -0.254887 6.66115e-20)
(0.576071 -0.185081 1.0921e-19)
(1.05399 -0.316833 -1.22381e-20)
(0.847686 -0.244671 -4.58455e-20)
(1.21892 -0.350657 -3.21523e-21)
(1.06261 -0.295369 1.05465e-19)
(1.31896 -0.356351 -3.80986e-20)
(1.21683 -0.322894 -9.85391e-20)
(1.37993 -0.343739 0)
(1.32046 -0.329706 2.25237e-20)
(1.42027 -0.321391 1.95765e-20)
(1.38623 -0.319842 -2.0541e-20)
(1.44819 -0.293895 -3.67419e-21)
(1.42988 -0.299085 5.76004e-20)
(1.46628 -0.264264 -3.90439e-20)
(1.4597 -0.27291 -2.4926e-21)
(1.47589 -0.232318 1.52654e-20)
(1.47972 -0.242391 -1.7475e-20)
(1.47901 -0.199875 3.6869e-20)
(1.49102 -0.211113 1.79657e-20)
(1.47679 -0.168311 6.43605e-21)
(1.4944 -0.178964 6.37694e-21)
(1.47016 -0.138363 5.81327e-21)
(1.49179 -0.14751 -1.60039e-20)
(1.45983 -0.110523 1.80797e-22)
(1.48437 -0.117688 5.86476e-21)
(1.44635 -0.0851559 -5.60629e-21)
(1.47294 -0.0900924 -3.83621e-21)
(1.43006 -0.0625492 -8.48279e-21)
(1.4581 -0.0651355 -1.04831e-20)
(1.41119 -0.0429478 -1.12975e-20)
(1.44025 -0.0431382 -4.5053e-21)
(1.3898 -0.0265714 -1.082e-21)
(1.41962 -0.0243765 -3.48117e-21)
(1.36585 -0.0136226 -9.51088e-22)
(1.3963 -0.00908592 4.58466e-22)
(1.33903 -0.00435431 -6.82766e-21)
(1.37026 0.00255102 -6.25363e-21)
(1.30846 0.000792952 2.3204e-20)
(1.34105 0.0104341 -1.52996e-20)
(1.27241 0.00081704 7.21454e-21)
(1.30793 0.0134139 4.57858e-20)
(1.22769 -0.00651517 -1.44771e-19)
(1.27077 0.00703326 -4.7445e-20)
(1.22594 -0.0132838 2.99962e-20)
(0.355 -0.138003 -1.19491e-19)
(0.205318 -0.126368 5.11243e-20)
(0.610958 -0.171715 0)
(0.418166 -0.13077 -2.88635e-20)
(0.853902 -0.222272 7.09882e-20)
(0.651939 -0.166003 4.37595e-20)
(1.05776 -0.268182 1.35524e-20)
(0.866995 -0.209637 -3.96813e-20)
(1.21525 -0.297529 -3.97562e-20)
(1.0517 -0.247733 2.45309e-21)
(1.32488 -0.306724 2.80013e-21)
(1.20118 -0.270868 8.41774e-20)
(1.3954 -0.298163 1.6479e-20)
(1.31336 -0.277492 -2.0541e-20)
(1.44179 -0.278165 5.63235e-20)
(1.39216 -0.270775 5.65446e-21)
(1.47349 -0.251224 1.76192e-20)
(1.44457 -0.252051 1.36896e-20)
(1.49453 -0.22165 -1.60965e-20)
(1.48026 -0.22687 -5.62734e-21)
(1.50594 -0.190639 -1.41555e-20)
(1.5037 -0.197431 -4.05692e-20)
(1.50923 -0.158459 -1.58556e-20)
(1.5175 -0.165619 0)
(1.50605 -0.127026 -1.61444e-20)
(1.52211 -0.134055 -2.43947e-20)
(1.49759 -0.0974052 1.71151e-21)
(1.51897 -0.102991 0)
(1.48482 -0.0701978 -8.93797e-21)
(1.50997 -0.0737331 -3.86211e-21)
(1.46842 -0.0458355 -6.5509e-21)
(1.49624 -0.0470392 -1.04831e-20)
(1.44883 -0.02467 3.22578e-21)
(1.47856 -0.023399 -8.54792e-21)
(1.42629 -0.00700121 -1.87514e-21)
(1.45739 -0.00319159 1.20108e-21)
(1.40093 0.00692075 -4.71717e-21)
(1.43303 0.0132674 -2.97509e-21)
(1.37274 0.016862 -1.47157e-20)
(1.40563 0.0257594 -3.30669e-21)
(1.34113 0.0224041 1.21864e-20)
(1.37513 0.0341719 -1.10841e-20)
(1.30438 0.0224552 1.81433e-20)
(1.34114 0.037568 6.06542e-22)
(1.25882 0.0142822 6.50821e-21)
(1.30335 0.0318002 9.04281e-21)
(1.25835 0.0104617 6.54585e-21)
(0.262968 -0.116415 1.33428e-19)
(0.15712 -0.117552 2.64185e-19)
(0.454221 -0.123275 1.3375e-20)
(0.305989 -0.104105 2.83175e-20)
(0.661526 -0.152468 -6.41885e-20)
(0.488388 -0.117133 6.59195e-20)
(0.858819 -0.188722 -5.33122e-20)
(0.676179 -0.144739 -1.54075e-19)
(1.03542 -0.22101 1.2209e-19)
(0.855425 -0.175403 9.64008e-20)
(1.18681 -0.243311 6.2512e-20)
(1.01876 -0.20118 -7.35206e-22)
(1.30704 -0.25168 -3.81005e-20)
(1.16373 -0.218254 2.78529e-20)
(1.39334 -0.245727 -4.20488e-20)
(1.28406 -0.222432 -1.44081e-19)
(1.45121 -0.228052 -5.97018e-21)
(1.37711 -0.214681 4.52425e-20)
(1.48994 -0.202556 -2.67584e-20)
(1.44399 -0.198107 6.67662e-20)
(1.51541 -0.172541 -2.41442e-20)
(1.48892 -0.173237 -6.14087e-20)
(1.52997 -0.141613 -6.71233e-21)
(1.51847 -0.144574 5.88171e-20)
(1.53465 -0.110359 -6.83462e-21)
(1.53573 -0.113262 -5.7995e-20)
(1.53126 -0.079529 -5.56929e-21)
(1.54273 -0.0817112 8.84988e-20)
(1.52146 -0.0507056 -5.66074e-21)
(1.54032 -0.0516102 -5.23337e-20)
(1.5065 -0.024704 -1.23853e-20)
(1.53043 -0.0235176 2.55105e-20)
(1.48726 -0.00200635 -1.05966e-20)
(1.51483 0.00160723 -4.71792e-20)
(1.4643 0.016994 9.57791e-23)
(1.49455 0.0231914 1.99246e-20)
(1.43796 0.0319681 -1.77895e-21)
(1.47018 0.040816 -3.15052e-21)
(1.4085 0.0426638 3.74812e-22)
(1.4421 0.0541844 9.53681e-21)
(1.3758 0.0487293 -1.71892e-20)
(1.41056 0.0631498 0)
(1.33845 0.0490881 -2.57385e-20)
(1.37573 0.067052 -1.57964e-20)
(1.29244 0.0405109 9.0948e-21)
(1.3375 0.0622809 1.22073e-20)
(1.29296 0.04052 0)
(0.195932 -0.103736 1.62932e-19)
(0.116787 -0.107743 -1.65199e-19)
(0.335812 -0.0967066 7.83754e-20)
(0.222656 -0.0888123 8.58047e-20)
(0.499502 -0.10876 -2.0562e-20)
(0.359293 -0.088895 1.00571e-19)
(0.669761 -0.131041 -8.55051e-21)
(0.510934 -0.102723 4.90564e-20)
(0.836612 -0.155546 -2.36097e-20)
(0.667066 -0.122575 1.18295e-19)
(0.994218 -0.176298 -3.43866e-20)
(0.821096 -0.142314 -6.18907e-20)
(1.13847 -0.189697 -7.38485e-20)
(0.969405 -0.157831 2.78529e-20)
(1.26474 -0.193463 -5.99566e-20)
(1.10773 -0.166152 -1.05485e-19)
(1.36688 -0.186684 1.25053e-19)
(1.23255 -0.165657 1.024e-19)
(1.44148 -0.16993 3.95636e-20)
(1.33778 -0.155072 7.51708e-20)
(1.49193 -0.145511 2.03726e-20)
(1.4202 -0.13632 -8.8771e-20)
(1.52453 -0.116111 8.3684e-21)
(1.47934 -0.111949 1.76997e-20)
(1.54369 -0.0847999 3.40748e-20)
(1.51799 -0.0830092 -5.47907e-20)
(1.55132 -0.0541438 4.26663e-20)
(1.54128 -0.0525224 2.69561e-20)
(1.54898 -0.0246899 -2.03448e-20)
(1.55178 -0.0216393 3.58317e-21)
(1.53873 0.00263296 -9.46956e-21)
(1.55155 0.00739112 2.61806e-21)
(1.5222 0.0267058 -1.66194e-20)
(1.54209 0.0336109 -3.46334e-20)
(1.50055 0.0469412 1.68386e-20)
(1.52551 0.0563879 3.71531e-21)
(1.47453 0.0629332 7.86888e-21)
(1.50329 0.0750758 -1.82875e-20)
(1.44462 0.074366 9.18022e-21)
(1.47624 0.0892645 2.73523e-20)
(1.41118 0.0809554 1.47275e-21)
(1.44484 0.0987467 -3.98567e-21)
(1.37351 0.0817793 4.41833e-21)
(1.40974 0.10306 -7.15131e-21)
(1.32762 0.0732614 2.96207e-21)
(1.37146 0.0995023 2.94514e-21)
(1.32838 0.0780722 1.14371e-21)
(0.140623 -0.092265 -2.44874e-19)
(0.0788766 -0.0956099 -1.67012e-19)
(0.24285 -0.0800342 1.04766e-19)
(0.154384 -0.0761551 -6.13545e-20)
(0.367735 -0.0822483 1.70384e-19)
(0.255207 -0.070729 7.54266e-22)
(0.505487 -0.0938432 1.74744e-19)
(0.372641 -0.0763251 2.35232e-20)
(0.649318 -0.109281 8.35999e-20)
(0.500324 -0.0878448 2.02261e-22)
(0.794427 -0.123926 0)
(0.633732 -0.100728 -3.84938e-20)
(0.937271 -0.134473 0)
(0.769705 -0.111436 -2.64289e-21)
(1.07413 -0.138656 5.34833e-20)
(0.905207 -0.11741 -1.32948e-19)
(1.20115 -0.135299 5.41804e-20)
(1.03702 -0.116921 5.41288e-20)
(1.31329 -0.123908 -5.28125e-20)
(1.16139 -0.109142 -1.93222e-21)
(1.40456 -0.105034 -9.48721e-20)
(1.27414 -0.093865 -5.56162e-21)
(1.47126 -0.0800642 -4.51007e-20)
(1.36921 -0.0711375 -4.11175e-20)
(1.51538 -0.0510006 -6.53033e-20)
(1.44317 -0.0436833 -2.32859e-20)
(1.54169 -0.0200249 -1.34335e-20)
(1.4952 -0.0139709 -1.31112e-19)
(1.55397 0.0101754 2.67102e-20)
(1.52739 0.0165101 5.54468e-20)
(1.55444 0.0380357 -2.3066e-20)
(1.54384 0.0461294 -7.71955e-20)
(1.54516 0.0630556 -1.4118e-20)
(1.54733 0.0736996 4.59246e-20)
(1.52822 0.0843772 -3.15208e-20)
(1.54007 0.0975619 -2.05412e-20)
(1.50512 0.101302 6.72187e-22)
(1.52402 0.117226 -2.95763e-20)
(1.47682 0.113425 1.54968e-20)
(1.50115 0.132201 2.85971e-20)
(1.44404 0.120457 -9.11838e-21)
(1.47244 0.142186 -1.50031e-20)
(1.40692 0.121749 -8.68462e-21)
(1.43888 0.14677 -8.63321e-21)
(1.36215 0.113708 1.13713e-21)
(1.40164 0.144439 0)
(1.36156 0.124195 1.75607e-21)
(0.0906033 -0.0794094 1.41373e-20)
(0.0415351 -0.0810694 9.88691e-20)
(0.164373 -0.0662271 -1.66644e-19)
(0.0936903 -0.0627502 2.83356e-20)
(0.257798 -0.0641904 -1.45056e-19)
(0.166451 -0.0558906 -7.63811e-20)
(0.365262 -0.0698421 -1.50161e-19)
(0.254831 -0.0579036 -6.79799e-20)
(0.482772 -0.0790577 -1.20995e-19)
(0.355158 -0.0649045 -8.1741e-20)
(0.607257 -0.0882267 -4.16357e-20)
(0.464708 -0.0732874 1.22371e-21)
(0.736121 -0.0945314 -1.33082e-19)
(0.581399 -0.0800457 3.23179e-20)
(0.866691 -0.0959268 -1.34533e-19)
(0.703242 -0.0829095 -6.60802e-20)
(0.996111 -0.0911873 0)
(0.827766 -0.0802927 0)
(1.12079 -0.0796328 4.79021e-20)
(0.952472 -0.0712263 -6.03288e-20)
(1.23641 -0.0613856 4.88821e-20)
(1.07424 -0.0553162 1.05588e-19)
(1.33794 -0.0373768 -6.99006e-21)
(1.1887 -0.0329615 0)
(1.41996 -0.00919935 -7.60761e-20)
(1.29146 -0.00533481 8.48946e-20)
(1.47916 0.0211644 -6.18188e-20)
(1.37697 0.0264626 -6.95695e-20)
(1.51669 0.0520158 -4.97468e-20)
(1.44217 0.059498 2.65982e-20)
(1.53636 0.0815741 -8.50087e-21)
(1.48638 0.0913863 -6.91884e-20)
(1.54172 0.10788 4.17003e-20)
(1.51188 0.120328 4.59246e-20)
(1.53547 0.130095 -1.56487e-20)
(1.52156 0.145776 5.06446e-20)
(1.51991 0.147889 -9.08272e-23)
(1.51855 0.166942 -7.715e-20)
(1.49691 0.16073 -8.27746e-22)
(1.50524 0.183025 6.0899e-20)
(1.46772 0.16821 -1.14035e-20)
(1.48358 0.193738 3.03849e-20)
(1.43326 0.169957 0)
(1.45513 0.198651 -2.52233e-20)
(1.3915 0.162799 6.08846e-22)
(1.42139 0.197443 0)
(1.38686 0.179405 3.70622e-22)
(0.043135 -0.064496 1.14867e-19)
(0.00437659 -0.0643434 -1.67245e-19)
(0.0940812 -0.0520929 1.20152e-19)
(0.0371061 -0.0475264 1.47669e-19)
(0.161748 -0.0490624 0)
(0.0869034 -0.0411148 -1.09535e-19)
(0.243003 -0.0524437 0)
(0.150774 -0.042421 0)
(0.335497 -0.058757 3.9114e-20)
(0.226697 -0.0479722 -1.35131e-19)
(0.437403 -0.0649077 7.43488e-20)
(0.313054 -0.0545647 1.21944e-19)
(0.547176 -0.0683936 1.00641e-19)
(0.408574 -0.0595107 -3.74873e-21)
(0.663086 -0.0673697 6.73806e-20)
(0.512138 -0.0606931 1.38942e-19)
(0.783011 -0.0605799 -5.96574e-20)
(0.622249 -0.0565709 6.80521e-20)
(0.904697 -0.0473433 -5.2742e-21)
(0.7369 -0.0461709 3.8379e-21)
(1.02527 -0.0275353 5.77426e-20)
(0.854064 -0.0289951 5.71814e-20)
(1.14061 -0.00166445 9.44604e-20)
(0.971243 -0.00511133 0)
(1.24605 0.0289451 9.61813e-20)
(1.0846 0.0247266 -3.29128e-21)
(1.33698 0.0623476 3.42464e-20)
(1.1894 0.0590272 4.85045e-20)
(1.40903 0.0962241 2.92865e-20)
(1.28162 0.0955477 7.19614e-20)
(1.45995 0.128372 -5.60869e-21)
(1.35663 0.132197 -9.42193e-20)
(1.49062 0.157385 5.71599e-20)
(1.4122 0.166479 0)
(1.50399 0.182129 -8.84196e-21)
(1.44832 0.196431 1.04748e-19)
(1.50342 0.201682 -1.34211e-20)
(1.46709 0.220686 -1.11327e-19)
(1.49174 0.21571 9.47095e-20)
(1.47118 0.239027 1.58217e-20)
(1.4711 0.223946 1.71623e-20)
(1.46315 0.251393 6.14617e-20)
(1.44317 0.226261 -2.53735e-20)
(1.44564 0.257218 -2.52233e-20)
(1.40769 0.22052 -2.40354e-22)
(1.41984 0.257245 0)
(1.39498 0.242759 -2.27642e-22)
(-0.00268741 -0.0474967 -1.41401e-19)
(-0.0323608 -0.0457007 -5.10126e-20)
(0.0287868 -0.0363823 -7.66315e-20)
(-0.0166453 -0.0302214 6.01637e-20)
(0.0746394 -0.0340608 -1.11571e-19)
(0.0134341 -0.0250719 8.28634e-20)
(0.133147 -0.0374584 -1.32871e-19)
(0.0561514 -0.0272258 0)
(0.203003 -0.0433273 -5.59134e-20)
(0.110438 -0.0332991 -8.96385e-20)
(0.283075 -0.0488187 4.56355e-20)
(0.175343 -0.0401539 1.24361e-19)
(0.372477 -0.0515856 3.27193e-20)
(0.25011 -0.0452889 -3.82158e-20)
(0.470283 -0.0497988 1.40459e-19)
(0.334088 -0.046632 -7.41541e-20)
(0.575163 -0.042173 1.32262e-19)
(0.426547 -0.0425945 -8.78651e-22)
(0.685384 -0.0279629 6.48359e-20)
(0.526269 -0.0321431 -6.55274e-20)
(0.799107 -0.00691041 0)
(0.631536 -0.0147163 -6.0486e-20)
(0.913926 0.020729 -9.96541e-20)
(0.740813 0.00979838 9.05717e-22)
(1.02637 0.0540061 -5.29154e-20)
(0.851917 0.0409799 -4.74683e-20)
(1.13218 0.0912492 8.60238e-20)
(0.961433 0.0776718 -2.96387e-21)
(1.22687 0.130219 -4.74497e-20)
(1.06552 0.11806 3.27445e-20)
(1.3063 0.16841 -8.22956e-20)
(1.15991 0.159805 2.83814e-20)
(1.36755 0.203378 4.68284e-20)
(1.24057 0.200231 -4.29134e-20)
(1.40963 0.233203 -1.07185e-21)
(1.30472 0.236757 -1.48818e-20)
(1.43357 0.256824 -8.5555e-20)
(1.3509 0.267504 -4.52805e-20)
(1.44187 0.27383 -2.3491e-20)
(1.37981 0.291253 -5.30671e-20)
(1.43728 0.284197 1.61131e-20)
(1.39319 0.307678 4.63338e-20)
(1.42228 0.288179 0)
(1.3931 0.31685 0)
(1.39841 0.284839 1.40204e-23)
(1.38211 0.318718 -8.95677e-21)
(1.3725 0.310048 8.6335e-21)
(-0.0469524 -0.0285559 1.48312e-19)
(-0.0681499 -0.0253657 9.92696e-20)
(-0.0326811 -0.0187926 2.18369e-19)
(-0.0677384 -0.0109144 1.43854e-20)
(-0.00596946 -0.0179136 1.953e-19)
(-0.0550828 -0.00729967 5.3476e-20)
(0.0324789 -0.0226483 4.3705e-20)
(-0.0310854 -0.0111519 0)
(0.0818321 -0.0296565 8.69045e-20)
(0.00386549 -0.0188593 4.44483e-20)
(0.141475 -0.0362002 4.27215e-20)
(0.0491296 -0.027342 4.21349e-20)
(0.210899 -0.039979 -1.43233e-19)
(0.104291 -0.0341423 0)
(0.289594 -0.0391491 -2.13516e-19)
(0.168994 -0.037202 -7.09816e-20)
(0.376872 -0.0323627 -1.95194e-19)
(0.242832 -0.0348699 -1.02185e-19)
(0.471692 -0.0187914 -1.89573e-19)
(0.325241 -0.0260531 -9.44951e-20)
(0.572589 0.00199432 -6.08637e-20)
(0.415191 -0.00999452 -9.05875e-20)
(0.678027 0.0299424 5.29636e-20)
(0.511273 0.0135104 2.89803e-20)
(0.785923 0.0643758 2.49636e-21)
(0.612257 0.0441928 1.86678e-19)
(0.893331 0.103975 -5.52138e-20)
(0.716143 0.0812694 -5.03263e-20)
(0.996709 0.146824 1.10467e-19)
(0.820072 0.123325 -2.38518e-20)
(1.09209 0.190464 6.8428e-20)
(0.920787 0.168295 1.55348e-19)
(1.17553 0.232192 -1.0925e-19)
(1.01463 0.213669 -9.33528e-21)
(1.24387 0.269487 -6.24833e-20)
(1.09795 0.256749 -6.20522e-20)
(1.29534 0.300423 -1.27406e-20)
(1.16773 0.295057 0)
(1.32978 0.323927 2.08995e-20)
(1.22222 0.326658 -1.71843e-20)
(1.34824 0.339355 3.05069e-20)
(1.26101 0.350503 5.43005e-20)
(1.35285 0.346242 -8.90344e-21)
(1.28408 0.36553 -3.30197e-20)
(1.34759 0.348058 6.10844e-20)
(1.29305 0.371721 5.13787e-21)
(1.30429 0.372493 8.6194e-21)
(-0.089219 -0.00786598 -3.2338e-20)
(-0.102268 -0.00356924 -3.37684e-20)
(-0.0904355 0.00066244 -1.51077e-19)
(-0.115859 0.0102583 6.04113e-20)
(-0.0807654 -0.000213222 -1.40281e-19)
(-0.118646 0.0122464 -8.09192e-20)
(-0.0603104 -0.00695733 0)
(-0.11133 0.00627684 0)
(-0.0295091 -0.0160843 0)
(-0.0936879 -0.00376171 0)
(0.011278 -0.024834 0)
(-0.0662162 -0.0147742 4.31967e-20)
(0.0617582 -0.0309381 7.16732e-20)
(-0.029134 -0.0243085 -4.03237e-20)
(0.121678 -0.0325589 3.94326e-20)
(0.0173807 -0.0303279 1.10276e-19)
(0.190615 -0.0281976 -3.31706e-21)
(0.0731795 -0.0310541 2.38078e-22)
(0.26819 -0.016905 2.49901e-21)
(0.13785 -0.0255221 6.36676e-20)
(0.353381 0.00184285 -2.59785e-21)
(0.211008 -0.0125771 -2.89365e-20)
(0.445051 0.0280637 1.58319e-19)
(0.291656 0.00795981 -1.37685e-21)
(0.541871 0.0613764 1.31765e-19)
(0.378779 0.0360054 1.28385e-19)
(0.642003 0.100842 -2.19817e-20)
(0.471256 0.0710268 4.47878e-20)
(0.742994 0.144873 2.05148e-20)
(0.567251 0.111957 -6.82526e-20)
(0.841889 0.19135 7.60909e-20)
(0.664402 0.157134 4.1414e-20)
(0.935353 0.237777 3.48765e-20)
(0.760046 0.204406 3.17554e-21)
(1.01999 0.281527 0)
(0.851149 0.251309 3.02694e-20)
(1.09283 0.320215 -9.04039e-21)
(0.934587 0.295348 0)
(1.15179 0.352058 1.46676e-20)
(1.00768 0.334275 -2.74592e-20)
(1.19587 0.375719 -1.11227e-20)
(1.06832 0.366477 2.39809e-20)
(1.22466 0.39037 -2.03575e-20)
(1.11583 0.390496 -5.18893e-20)
(1.24064 0.39974 1.41757e-20)
(1.14789 0.405914 2.20019e-20)
(1.17997 0.414532 6.27541e-21)
(-0.128865 0.0144047 5.71906e-20)
(-0.133909 0.0195315 -6.84375e-20)
(-0.144032 0.0219169 1.33309e-19)
(-0.160308 0.0330959 -2.48406e-21)
(-0.149454 0.0190758 5.7857e-20)
(-0.176777 0.0334433 -2.45212e-22)
(-0.145009 0.00990224 0)
(-0.184013 0.025123 2.62609e-20)
(-0.130794 -0.0019706 4.25404e-20)
(-0.181553 0.01226 -2.42852e-20)
(-0.107051 -0.0137537 3.98984e-21)
(-0.169763 -0.00195492 4.31967e-20)
(-0.0739291 -0.0231968 -4.45165e-21)
(-0.148732 -0.0151013 -3.93879e-20)
(-0.0315551 -0.0284326 7.12402e-20)
(-0.118499 -0.0251418 -2.87703e-22)
(0.0200027 -0.0279776 6.60903e-20)
(-0.0791106 -0.0303626 1.03991e-19)
(0.0803022 -0.0206788 3.22123e-20)
(-0.0307819 -0.0294838 9.46547e-20)