/*--------------------------------*- C++ -*----------------------------------*\
  =========                 |
  \\      /  F ield         | OpenFOAM: The Open Source CFD Toolbox
   \\    /   O peration     | Website:  https://openfoam.org
    \\  /    A nd           | Version:  11
     \\/     M anipulation  |
\*---------------------------------------------------------------------------*/
FoamFile
{
    format      ascii;
    class       surfaceScalarField;
    location    "0.2";
    object      phi;
}
// * * * * * * * * * * * * * * * * * * * * * * * * * * * * * * * * * * * * * //

dimensions      [0 3 -1 0 0 0 0];

internalField   nonuniform List<scalar> 
5640
(
1.21422e-06
-1.21422e-06
2.79925e-06
-1.58503e-06
4.29889e-06
-1.49965e-06
5.46951e-06
-1.17061e-06
5.81147e-06
-3.41963e-07
6.41904e-08
5.74728e-06
1.5591e-06
-2.77332e-06
3.18475e-06
-3.21068e-06
4.68479e-06
-2.99968e-06
5.775e-06
-2.26082e-06
6.1602e-06
-7.27166e-07
4.73889e-07
5.7505e-06
1.60338e-06
-4.3767e-06
3.1357e-06
-4.743e-06
4.51631e-06
-4.38029e-06
5.50419e-06
-3.2487e-06
5.88768e-06
-1.11066e-06
9.66922e-07
5.39465e-06
1.53626e-06
-5.91296e-06
2.93381e-06
-6.14054e-06
4.16945e-06
-5.61593e-06
5.08696e-06
-4.16622e-06
5.5143e-06
-1.538e-06
1.36165e-06
5.11958e-06
1.4032e-06
-7.31616e-06
2.64577e-06
-7.38311e-06
3.74107e-06
-6.71123e-06
4.59428e-06
-5.01943e-06
5.09258e-06
-2.0363e-06
1.498e-06
4.95622e-06
1.23143e-06
-8.5476e-06
2.3061e-06
-8.45778e-06
3.2643e-06
-7.66943e-06
4.0536e-06
-5.80873e-06
4.63084e-06
-2.61355e-06
1.35085e-06
4.778e-06
1.03477e-06
-9.58237e-06
1.93395e-06
-9.35695e-06
2.75374e-06
-8.48922e-06
3.47735e-06
-6.53235e-06
4.11328e-06
-3.24948e-06
9.79663e-07
4.48447e-06
8.21327e-07
-1.04037e-05
1.53979e-06
-1.00754e-05
2.21722e-06
-9.16665e-06
2.86315e-06
-7.17827e-06
3.52454e-06
-3.91087e-06
4.37753e-07
4.06645e-06
5.93272e-07
-1.0997e-05
1.137e-06
-1.06191e-05
1.66054e-06
-9.69019e-06
2.21151e-06
-7.72924e-06
2.86174e-06
-4.56111e-06
-2.30446e-07
3.52994e-06
3.62434e-07
-1.13594e-05
7.26656e-07
-1.09834e-05
1.08838e-06
-1.00519e-05
1.52484e-06
-8.1657e-06
2.12989e-06
-5.16616e-06
-9.77565e-07
2.87701e-06
1.30811e-07
-1.14902e-05
3.13222e-07
-1.11658e-05
5.06458e-07
-1.02452e-05
8.08686e-07
-8.46793e-06
1.33687e-06
-5.69435e-06
-1.75529e-06
2.1146e-06
-9.70195e-08
-1.13932e-05
-9.78158e-08
-1.1165e-05
-7.81437e-08
-1.02648e-05
7.16671e-08
-8.61774e-06
4.93719e-07
-6.1164e-06
-2.51584e-06
1.25428e-06
-3.15631e-07
-1.10776e-05
-4.978e-07
-1.09828e-05
-6.56478e-07
-1.01061e-05
-6.73683e-07
-8.60053e-06
-3.84061e-07
-6.40602e-06
-3.21445e-06
3.14541e-07
-5.23306e-07
-1.05543e-05
-8.82387e-07
-1.06237e-05
-1.2189e-06
-9.76963e-06
-1.41362e-06
-8.40581e-06
-1.27741e-06
-6.54224e-06
-3.82167e-06
-6.7019e-07
-7.14983e-07
-9.83928e-06
-1.24369e-06
-1.0095e-05
-1.75438e-06
-9.25895e-06
-2.13166e-06
-8.02852e-06
-2.16548e-06
-6.50842e-06
-4.30538e-06
-1.68176e-06
-8.86335e-07
-8.95294e-06
-1.5747e-06
-9.40665e-06
-2.25135e-06
-8.58229e-06
-2.80999e-06
-7.46989e-06
-3.02466e-06
-6.29375e-06
-4.64127e-06
-2.68877e-06
-1.0332e-06
-7.91975e-06
-1.86864e-06
-8.57121e-06
-2.69797e-06
-7.75296e-06
-3.42945e-06
-6.73841e-06
-3.82903e-06
-5.89417e-06
-4.81272e-06
-3.65758e-06
-1.15086e-06
-6.76888e-06
-2.11923e-06
-7.60284e-06
-3.08242e-06
-6.78977e-06
-3.96934e-06
-5.85149e-06
-4.55024e-06
-5.31326e-06
-4.80688e-06
-4.55609e-06
-1.2341e-06
-5.53478e-06
-2.3206e-06
-6.51634e-06
-3.39365e-06
-5.71672e-06
-4.40565e-06
-4.83949e-06
-5.15693e-06
-4.56198e-06
-4.61349e-06
-5.35032e-06
-1.27685e-06
-4.25793e-06
-2.46633e-06
-5.32686e-06
-3.61933e-06
-4.56372e-06
-4.71129e-06
-3.74754e-06
-5.61281e-06
-3.66047e-06
-4.22695e-06
-5.99935e-06
-1.2711e-06
-2.98683e-06
-2.5463e-06
-4.05166e-06
-3.73772e-06
-3.3723e-06
-4.85257e-06
-2.6327e-06
-5.86508e-06
-2.64796e-06
-3.64826e-06
-6.44376e-06
-1.20643e-06
-1.7804e-06
-2.548e-06
-2.71009e-06
-3.73186e-06
-2.18844e-06
-4.80119e-06
-1.56336e-06
-5.84459e-06
-1.60456e-06
-2.85665e-06
-6.63619e-06
-1.06382e-06
-7.16572e-07
-2.43828e-06
-1.33563e-06
-3.56111e-06
-1.06561e-06
-4.47396e-06
-6.5052e-07
-5.48599e-06
-5.92526e-07
-1.81681e-06
-6.52584e-06
-7.16572e-07
-2.0522e-06
-3.11781e-06
-3.76833e-06
-4.36086e-06
-6.17766e-06
1.04129e-05
2.64534e-05
-3.1119e-05
8.75658e-06
3.89469e-05
-3.72906e-05
6.87577e-06
4.14332e-05
-3.95524e-05
5.04442e-06
4.1451e-05
-3.96196e-05
3.24445e-06
4.02841e-05
-3.84841e-05
1.53653e-06
3.85212e-05
-3.68133e-05
-3.71554e-08
3.65991e-05
-3.50255e-05
-1.46513e-06
3.47558e-05
-3.33279e-05
-2.76799e-06
3.30755e-05
-3.17726e-05
-3.96799e-06
3.15455e-05
-3.03455e-05
-5.0883e-06
3.01291e-05
-2.90088e-05
-6.1477e-06
2.8787e-05
-2.77276e-05
-7.15996e-06
2.74903e-05
-2.6478e-05
-8.13491e-06
2.62192e-05
-2.52443e-05
-9.07971e-06
2.49602e-05
-2.40154e-05
-9.99968e-06
2.37026e-05
-2.27826e-05
-1.08988e-05
2.24374e-05
-2.15382e-05
-1.17799e-05
2.11564e-05
-2.02752e-05
-1.26448e-05
1.98513e-05
-1.89865e-05
-1.34937e-05
1.85134e-05
-1.76645e-05
-1.4325e-05
1.71324e-05
-1.63011e-05
-1.51334e-05
1.5694e-05
-1.48856e-05
-1.59053e-05
1.41737e-05
-1.34018e-05
1.25455e-05
-1.18506e-05
8.88024e-06
2.33236e-05
8.81006e-06
3.90171e-05
7.61353e-06
4.26297e-05
6.17076e-06
4.28938e-05
4.64783e-06
4.1807e-05
3.15045e-06
4.00186e-05
1.74867e-06
3.80009e-05
4.69662e-07
3.60349e-05
-6.86539e-07
3.42317e-05
-1.74047e-06
3.25994e-05
-2.71276e-06
3.11014e-05
-3.62159e-06
2.96959e-05
-4.48128e-06
2.835e-05
-5.3024e-06
2.70404e-05
-6.09271e-06
2.57505e-05
-6.85801e-06
2.44678e-05
-7.60273e-06
2.31821e-05
-8.33027e-06
2.18839e-05
-9.04304e-06
2.05641e-05
-9.74244e-06
1.92128e-05
-1.04285e-05
1.78185e-05
-1.1098e-05
1.63635e-05
-1.17365e-05
1.48122e-05
1.31087e-05
7.99665e-06
2.07216e-05
8.73524e-06
3.82785e-05
8.18089e-06
4.31841e-05
7.16067e-06
4.3914e-05
5.95436e-06
4.30133e-05
4.70191e-06
4.1271e-05
3.49626e-06
3.92066e-05
2.38662e-06
3.71445e-05
1.38488e-06
3.52334e-05
4.82425e-07
3.35019e-05
-3.37867e-07
3.19217e-05
-1.09359e-06
3.04516e-05
-1.79899e-06
2.90554e-05
-2.46493e-06
2.77063e-05
-3.09952e-06
2.63851e-05
-3.70878e-06
2.50771e-05
-4.29724e-06
2.37705e-05
-4.86828e-06
2.24549e-05
-5.42433e-06
2.11202e-05
-5.96708e-06
1.97556e-05
-6.498e-06
1.83494e-05
-7.01831e-06
1.68838e-05
-7.51856e-06
1.53124e-05
1.35365e-05
7.33823e-06
1.8503e-05
8.65905e-06
3.69576e-05
8.65331e-06
4.31898e-05
8.04859e-06
4.45187e-05
7.17617e-06
4.38857e-05
6.19137e-06
4.22558e-05
5.20233e-06
4.01956e-05
4.27521e-06
3.80716e-05
3.43831e-06
3.60703e-05
2.69272e-06
3.42475e-05
2.02645e-06
3.2588e-05
1.42445e-06
3.10536e-05
8.72885e-07
2.96069e-05
3.60701e-07
2.82185e-05
-1.20476e-07
2.68663e-05
-5.76837e-07
2.55335e-05
-1.01277e-06
2.42065e-05
-1.43117e-06
2.28733e-05
-1.83355e-06
2.15225e-05
-2.21992e-06
2.0142e-05
-2.58891e-06
1.87184e-05
-2.94137e-06
1.72362e-05
-3.28909e-06
1.56601e-05
1.38375e-05
6.84235e-06
1.66169e-05
8.57074e-06
3.52293e-05
9.05268e-06
4.27079e-05
8.85241e-06
4.4719e-05
8.32258e-06
4.44156e-05
7.62062e-06
4.29578e-05
6.86374e-06
4.09525e-05
6.13184e-06
3.88035e-05
5.46741e-06
3.67348e-05
4.88261e-06
3.48323e-05
4.37192e-06
3.30986e-05
3.9231e-06
3.15024e-05
3.52321e-06
3.00068e-05
3.16106e-06
2.85806e-05
2.82776e-06
2.71996e-05
2.51655e-06
2.58447e-05
2.2226e-06
2.45004e-05
1.94302e-06
2.31529e-05
1.67691e-06
2.17886e-05
1.42575e-06
2.03931e-05
1.19629e-06
1.89479e-05
1.00835e-06
1.74242e-05
8.83255e-07
1.57852e-05
1.40757e-05
6.45575e-06
1.49391e-05
8.46116e-06
3.32238e-05
9.38286e-06
4.17862e-05
9.57778e-06
4.45241e-05
9.39395e-06
4.45994e-05
8.98678e-06
4.3365e-05
8.47539e-06
4.14639e-05
7.95044e-06
3.93285e-05
7.46654e-06
3.72187e-05
7.04669e-06
3.52521e-05
6.69278e-06
3.34525e-05
6.39635e-06
3.17988e-05
6.14586e-06
3.02573e-05
5.93022e-06
2.87963e-05
5.74008e-06
2.73897e-05
5.56802e-06
2.60168e-05
5.40856e-06
2.46599e-05
5.25839e-06
2.33031e-05
5.11695e-06
2.19301e-05
4.98741e-06
2.05227e-05
4.87666e-06
1.90586e-05
4.78966e-06
1.75112e-05
4.72145e-06
1.58535e-05
1.40559e-05
6.09687e-06
1.33267e-05
8.31058e-06
3.10101e-05
9.63506e-06
4.04617e-05
1.02201e-05
4.3939e-05
1.03848e-05
4.44347e-05
1.02824e-05
4.34674e-05
1.00284e-05
4.17178e-05
9.72301e-06
3.96339e-05
9.42907e-06
3.75126e-05
9.17966e-06
3.55015e-05
8.98493e-06
3.36473e-05
8.84139e-06
3.19424e-05
8.73988e-06
3.03588e-05
8.67034e-06
2.88658e-05
8.62394e-06
2.74361e-05
8.59389e-06
2.60468e-05
8.57576e-06
2.4678e-05
8.56769e-06
2.33112e-05
8.57059e-06
2.19272e-05
8.58793e-06
2.05053e-05
8.62445e-06
1.90221e-05
8.68411e-06
1.74515e-05
8.77209e-06
1.57655e-05
1.39305e-05
5.69633e-06
1.16968e-05
8.0921e-06
2.86144e-05
9.79267e-06
3.87611e-05
1.07632e-05
4.29685e-05
1.12824e-05
4.39154e-05
1.15058e-05
4.3244e-05
1.15137e-05
4.171e-05
1.14405e-05
3.97071e-05
1.13473e-05
3.76058e-05
1.12757e-05
3.55731e-05
1.12445e-05
3.36785e-05
1.12562e-05
3.19307e-05
1.13052e-05
3.03098e-05
1.13835e-05
2.87875e-05
1.14836e-05
2.7336e-05
1.16001e-05
2.59303e-05
1.17298e-05
2.45483e-05
1.18721e-05
2.31689e-05
1.20276e-05
2.17716e-05
1.21983e-05
2.03346e-05
1.23853e-05
1.88351e-05
1.25889e-05
1.72479e-05
1.28101e-05
1.55443e-05
1.3688e-05
5.21547e-06
1.00113e-05
7.77948e-06
2.60504e-05
9.83648e-06
3.67041e-05
1.11942e-05
4.16109e-05
1.2066e-05
4.30436e-05
1.26307e-05
4.26792e-05
1.29297e-05
4.1411e-05
1.30958e-05
3.9541e-05
1.32133e-05
3.74883e-05
1.33282e-05
3.54582e-05
1.34667e-05
3.35401e-05
1.36377e-05
3.17597e-05
1.38404e-05
3.01072e-05
1.40694e-05
2.85585e-05
1.43193e-05
2.70861e-05
1.45859e-05
2.56637e-05
1.48669e-05
2.42673e-05
1.51615e-05
2.28744e-05
1.54693e-05
2.14637e-05
1.57898e-05
2.00142e-05
1.61211e-05
1.85038e-05
1.64612e-05
1.69078e-05
1.68098e-05
1.51956e-05
1.3327e-05
4.63064e-06
8.25766e-06
7.3475e-06
2.33335e-05
9.74418e-06
3.43075e-05
1.14921e-05
3.9863e-05
1.27246e-05
4.1811e-05
1.36254e-05
4.17784e-05
1.42612e-05
4.07752e-05
1.46761e-05
3.9126e-05
1.50158e-05
3.71487e-05
1.53278e-05
3.51461e-05
1.56442e-05
3.32237e-05
1.59807e-05
3.14232e-05
1.63415e-05
2.97463e-05
1.67251e-05
2.8175e-05
1.71278e-05
2.66834e-05
1.75466e-05
2.52449e-05
1.79796e-05
2.38343e-05
1.84253e-05
2.24287e-05
1.88818e-05
2.10072e-05
1.93464e-05
1.95496e-05
1.98155e-05
1.80348e-05
2.02859e-05
1.64374e-05
2.07572e-05
1.47244e-05
1.28506e-05
3.92393e-06
6.44832e-06
6.77098e-06
2.04864e-05
9.49202e-06
3.15864e-05
1.1637e-05
3.7718e-05
1.32497e-05
4.01982e-05
1.44745e-05
4.05536e-05
1.54575e-05
3.97922e-05
1.6162e-05
3.84216e-05
1.67392e-05
3.65715e-05
1.72612e-05
3.46242e-05
1.77662e-05
3.27187e-05
1.82763e-05
3.0913e-05
1.88015e-05
2.92212e-05
1.93439e-05
2.76326e-05
1.99023e-05
2.6125e-05
2.04747e-05
2.46725e-05
2.1059e-05
2.32499e-05
2.16531e-05
2.18346e-05
2.22537e-05
2.04065e-05
2.28569e-05
1.89464e-05
2.34578e-05
1.74338e-05
2.40529e-05
1.58423e-05
2.46413e-05
1.41359e-05
1.2264e-05
3.08901e-06
4.61359e-06
6.0364e-06
1.75391e-05
9.06022e-06
2.85626e-05
1.1603e-05
3.51752e-05
1.36098e-05
3.81915e-05
1.51835e-05
3.89799e-05
1.64857e-05
3.84901e-05
1.75228e-05
3.73844e-05
1.83583e-05
3.5736e-05
1.91085e-05
3.38739e-05
1.98165e-05
3.20108e-05
2.05112e-05
3.02183e-05
2.12088e-05
2.85236e-05
2.19158e-05
2.69256e-05
2.26335e-05
2.54072e-05
2.33609e-05
2.39451e-05
2.40958e-05
2.2515e-05
2.48355e-05
2.10949e-05
2.55762e-05
1.96659e-05
2.63129e-05
1.82097e-05
2.70404e-05
1.67063e-05
2.77546e-05
1.51281e-05
2.84542e-05
1.34363e-05
1.15737e-05
2.14027e-06
2.78786e-06
5.14239e-06
1.45369e-05
8.43613e-06
2.52689e-05
1.13633e-05
3.22481e-05
1.3773e-05
3.57817e-05
1.57318e-05
3.70211e-05
1.73396e-05
3.68823e-05
1.87098e-05
3.60143e-05
1.98431e-05
3.46027e-05
2.08452e-05
3.28718e-05
2.17737e-05
3.10824e-05
2.26668e-05
2.93251e-05
2.35474e-05
2.7643e-05
2.44267e-05
2.60462e-05
2.53091e-05
2.45249e-05
2.61944e-05
2.30598e-05
2.70807e-05
2.16286e-05
2.7965e-05
2.02107e-05
2.8843e-05
1.87879e-05
2.97098e-05
1.73429e-05
3.05596e-05
1.58565e-05
3.13877e-05
1.43e-05
3.21924e-05
1.26316e-05
1.07871e-05
1.10116e-06
1.01651e-06
4.09573e-06
1.15424e-05
7.60708e-06
2.17575e-05
1.08954e-05
2.89597e-05
1.37054e-05
3.29717e-05
1.60511e-05
3.46755e-05
1.80111e-05
3.49223e-05
1.97065e-05
3.43189e-05
2.11595e-05
3.31497e-05
2.24375e-05
3.15938e-05
2.36078e-05
2.9912e-05
2.47168e-05
2.82162e-05
2.57942e-05
2.65656e-05
2.68568e-05
2.49835e-05
2.79122e-05
2.34696e-05
2.89616e-05
2.20103e-05
3.00034e-05
2.05868e-05
3.10343e-05
1.91798e-05
3.205e-05
1.77721e-05
3.30457e-05
1.63473e-05
3.40155e-05
1.48866e-05
3.49538e-05
1.33617e-05
3.58579e-05
1.17275e-05
9.91188e-06
8.16407e-09
-6.73414e-07
2.92887e-06
8.62166e-06
6.57138e-06
1.8115e-05
1.01769e-05
2.53542e-05
1.33747e-05
2.97739e-05
1.61121e-05
3.1938e-05
1.84481e-05
3.25863e-05
2.04779e-05
3.22891e-05
2.22653e-05
3.13622e-05
2.38416e-05
3.00175e-05
2.52774e-05
2.84763e-05
2.66237e-05
2.68698e-05
2.79164e-05
2.5273e-05
2.91776e-05
2.37223e-05
3.04187e-05
2.22285e-05
3.1643e-05
2.0786e-05
3.28493e-05
1.93805e-05
3.40341e-05
1.79951e-05
3.51929e-05
1.66134e-05
3.63206e-05
1.52195e-05
3.74117e-05
1.37955e-05
3.84594e-05
1.23141e-05
3.94592e-05
1.07277e-05
8.95483e-06
-1.11809e-06
-2.2441e-06
1.69184e-06
5.81173e-06
5.35596e-06
1.44509e-05
9.19353e-06
2.15166e-05
1.2746e-05
2.62215e-05
1.58723e-05
2.88117e-05
1.85939e-05
2.98647e-05
2.09852e-05
2.98978e-05
2.31087e-05
2.92387e-05
2.50041e-05
2.81222e-05
2.67301e-05
2.67503e-05
2.83386e-05
2.52613e-05
2.98693e-05
2.37423e-05
3.13492e-05
2.22423e-05
3.27938e-05
2.07838e-05
3.42094e-05
1.93704e-05
3.55956e-05
1.79943e-05
3.69485e-05
1.66422e-05
3.82628e-05
1.5299e-05
3.9533e-05
1.39493e-05
4.07529e-05
1.25756e-05
4.19148e-05
1.11522e-05
4.30116e-05
9.631e-06
7.91962e-06
-2.21311e-06
-3.68857e-06
4.47216e-07
3.15141e-06
4.02231e-06
1.08758e-05
7.96558e-06
1.75733e-05
1.17942e-05
2.23929e-05
1.52806e-05
2.53252e-05
1.83852e-05
2.67602e-05
2.11508e-05
2.71322e-05
2.36278e-05
2.67616e-05
2.58604e-05
2.58896e-05
2.79005e-05
2.47103e-05
2.97973e-05
2.33645e-05
3.15921e-05
2.19474e-05
3.33155e-05
2.0519e-05
3.49869e-05
1.91124e-05
3.66161e-05
1.77412e-05
3.82045e-05
1.64059e-05
3.97483e-05
1.50985e-05
4.12408e-05
1.38066e-05
4.26745e-05
1.25156e-05
4.40417e-05
1.12085e-05
4.53327e-05
9.86108e-06
4.65367e-05
8.42703e-06
6.80284e-06
-3.24116e-06
-5.00349e-06
-7.51686e-07
6.61934e-07
2.65131e-06
7.47279e-06
6.55774e-06
1.36669e-05
1.05347e-05
1.84159e-05
1.43043e-05
2.15557e-05
1.77584e-05
2.3306e-05
2.08924e-05
2.39982e-05
2.37343e-05
2.39197e-05
2.63214e-05
2.33024e-05
2.86987e-05
2.2333e-05
3.09115e-05
2.11518e-05
3.29998e-05
1.98591e-05
3.49961e-05
1.85228e-05
3.69232e-05
1.71852e-05
3.87946e-05
1.58698e-05
4.06147e-05
1.45858e-05
4.23807e-05
1.33324e-05
4.40852e-05
1.21021e-05
4.5718e-05
1.08827e-05
4.72677e-05
9.65877e-06
4.87204e-05
8.4084e-06
5.00584e-05
7.08897e-06
5.5864e-06
-4.15552e-06
-6.19829e-06
-1.84248e-06
-1.65111e-06
1.32598e-06
4.30433e-06
5.0654e-06
9.9275e-06
9.03557e-06
1.44457e-05
1.29588e-05
1.76324e-05
1.66782e-05
1.95866e-05
2.0137e-05
2.05395e-05
2.33296e-05
2.07271e-05
2.62748e-05
2.03571e-05
2.90054e-05
1.96024e-05
3.15587e-05
1.85985e-05
3.39709e-05
1.74469e-05
3.62736e-05
1.62201e-05
3.8491e-05
1.49678e-05
4.06397e-05
1.37212e-05
4.27275e-05
1.2498e-05
4.47545e-05
1.13054e-05
4.67139e-05
1.01428e-05
4.85946e-05
9.002e-06
5.03818e-05
7.87162e-06
5.20539e-05
6.73625e-06
5.35814e-05
5.56145e-06
4.2252e-06
-4.90518e-06
-7.29246e-06
-2.76947e-06
-3.78681e-06
1.18146e-07
1.41671e-06
3.58938e-06
6.45627e-06
7.40238e-06
1.06327e-05
1.13194e-05
1.37154e-05
1.51682e-05
1.57379e-05
1.88538e-05
1.68539e-05
2.23356e-05
1.72454e-05
2.56067e-05
1.70861e-05
2.86808e-05
1.65282e-05
3.15824e-05
1.56969e-05
3.43393e-05
1.46899e-05
3.69783e-05
1.35811e-05
3.95221e-05
1.24239e-05
4.19879e-05
1.12554e-05
4.43858e-05
1.01001e-05
4.6719e-05
8.97221e-06
4.89832e-05
7.87866e-06
5.11675e-05
6.81761e-06
5.32578e-05
5.78136e-06
5.52341e-05
4.76001e-06
5.70504e-05
3.74508e-06
2.6263e-06
-5.42572e-06
-8.31051e-06
-3.47893e-06
-5.7336e-06
-9.12657e-07
-1.14955e-06
2.21564e-06
3.32798e-06
5.74795e-06
7.10044e-06
9.50085e-06
9.96245e-06
1.33156e-05
1.19231e-05
1.70819e-05
1.30876e-05
2.07345e-05
1.35927e-05
2.42428e-05
1.35778e-05
2.76002e-05
1.31709e-05
3.08149e-05
1.24821e-05
3.3903e-05
1.16018e-05
3.6883e-05
1.06011e-05
3.97727e-05
9.5343e-06
4.25867e-05
8.44144e-06
4.53355e-05
7.35122e-06
4.80247e-05
6.28301e-06
5.06541e-05
5.24924e-06
5.32146e-05
4.25716e-06
5.56865e-05
3.30943e-06
5.80539e-05
2.3926e-06
6.02825e-05
1.51651e-06
6.37419e-07
-5.63229e-06
-9.31442e-06
-3.91003e-06
-7.45586e-06
-1.71567e-06
-3.34391e-06
1.00435e-06
6.07955e-07
4.16369e-06
3.9411e-06
7.62218e-06
6.50396e-06
1.12445e-05
8.30082e-06
1.49243e-05
9.40777e-06
1.85871e-05
9.92994e-06
2.21871e-05
9.97776e-06
2.57023e-05
9.65567e-06
2.91271e-05
9.05732e-06
3.24661e-05
8.26285e-06
3.57291e-05
7.33814e-06
3.89277e-05
6.33571e-06
4.20728e-05
5.29634e-06
4.51729e-05
4.25106e-06
4.82332e-05
3.22272e-06
5.12546e-05
2.22785e-06
5.42337e-05
1.27805e-06
5.71585e-05
3.8464e-07
6.00083e-05
-4.57232e-07
6.27723e-05
-1.24742e-06
-1.93823e-06
-5.35486e-06
-1.04854e-05
-3.98802e-06
-8.8227e-06
-2.25677e-06
-5.07516e-06
-9.78124e-09
-1.63903e-06
2.70532e-06
1.226e-06
5.77431e-06
3.43497e-06
9.0775e-06
4.99762e-06
1.25159e-05
5.96941e-06
1.60167e-05
6.42912e-06
1.95296e-05
6.46482e-06
2.3024e-05
6.16129e-06
2.64853e-05
5.596e-06
2.99104e-05
4.83777e-06
3.33031e-05
3.94548e-06
3.66709e-05
2.96785e-06
4.00229e-05
1.94434e-06
4.33674e-05
9.06602e-07
4.67104e-05
-1.20317e-07
5.00551e-05
-1.11683e-06
5.34008e-05
-2.0676e-06
5.67462e-05
-2.96076e-06
6.00762e-05
-3.78732e-06
6.33943e-05
-4.56551e-06
-5.21455e-06
-4.2784e-06
-1.23847e-05
-3.69516e-06
-9.40593e-06
-2.54949e-06
-6.22083e-06
-8.20546e-07
-3.36797e-06
1.40668e-06
-1.00123e-06
4.02163e-06
8.20023e-07
6.91522e-06
2.10403e-06
9.99346e-06
2.89117e-06
1.31831e-05
3.23948e-06
1.64338e-05
3.21417e-06
1.97121e-05
2.88295e-06
2.29984e-05
2.30966e-06
2.62846e-05
1.55162e-06
2.95708e-05
6.59324e-07
3.28626e-05
-3.23958e-07
3.61688e-05
-1.36188e-06
3.94996e-05
-2.42423e-06
4.28652e-05
-3.48589e-06
4.62746e-05
-4.52624e-06
4.97342e-05
-5.52719e-06
5.32511e-05
-6.47772e-06
5.68227e-05
-7.35894e-06
6.0453e-05
-8.1958e-06
-8.94848e-06
-2.314e-07
2.314e-07
-6.64899e-07
4.33499e-07
-1.10336e-06
4.38463e-07
-1.38667e-06
2.83305e-07
-1.22378e-06
-1.62885e-07
-6.93841e-07
-5.29941e-07
-3.35243e-07
5.66643e-07
-7.61417e-07
8.59673e-07
-1.11461e-06
7.91656e-07
-1.3017e-06
4.70394e-07
-1.1792e-06
-2.85387e-07
-1.28098e-06
-5.92062e-07
-3.54031e-07
9.20674e-07
-7.46485e-07
1.25213e-06
-1.06173e-06
1.1069e-06
-1.21843e-06
6.271e-07
-1.16046e-06
-3.43357e-07
-1.63583e-06
-8.05607e-07
-3.58162e-07
1.27884e-06
-7.1595e-07
1.60992e-06
-1.00727e-06
1.39821e-06
-1.16539e-06
7.85222e-07
-1.18584e-06
-3.22908e-07
-1.75581e-06
-1.06586e-06
-3.56949e-07
1.63578e-06
-6.80379e-07
1.93335e-06
-9.55982e-07
1.67382e-06
-1.13401e-06
9.6325e-07
-1.23691e-06
-2.20005e-07
-1.68865e-06
-1.30407e-06
-3.52965e-07
1.98875e-06
-6.41005e-07
2.22139e-06
-9.05812e-07
1.93862e-06
-1.11179e-06
1.16923e-06
-1.29056e-06
-4.12369e-08
-1.49068e-06
-1.48853e-06
-3.42006e-07
2.33076e-06
-5.96755e-07
2.47613e-06
-8.52741e-07
2.19461e-06
-1.08742e-06
1.40391e-06
-1.32916e-06
2.00505e-07
-1.20819e-06
-1.61165e-06
-3.09789e-07
2.64055e-06
-5.42367e-07
2.70871e-06
-7.91911e-07
2.44415e-06
-1.05194e-06
1.66393e-06
-1.34188e-06
4.90446e-07
-8.75617e-07
-1.67445e-06
-2.65949e-07
2.90649e-06
-4.76538e-07
2.9193e-06
-7.19209e-07
2.68682e-06
-9.98549e-07
1.94328e-06
-1.32247e-06
8.14369e-07
-5.17557e-07
-1.68053e-06
-2.15201e-07
3.12169e-06
-3.99236e-07
3.10334e-06
-6.31376e-07
2.91896e-06
-9.22054e-07
2.23395e-06
-1.26687e-06
1.15919e-06
-1.51219e-07
-1.63321e-06
-1.58705e-07
3.2804e-06
-3.10207e-07
3.25484e-06
-5.25902e-07
3.13466e-06
-8.1849e-07
2.52654e-06
-1.17183e-06
1.51253e-06
2.10358e-07
-1.53341e-06
-9.67028e-08
3.3771e-06
-2.09244e-07
3.36738e-06
-4.0091e-07
3.32633e-06
-6.84947e-07
2.81058e-06
-1.03527e-06
1.86285e-06
5.56679e-07
-1.3816e-06
-2.92484e-08
3.40635e-06
-9.6575e-08
3.43471e-06
-2.55205e-07
3.48495e-06
-5.19398e-07
3.07477e-06
-8.55687e-07
2.19914e-06
8.78751e-07
-1.17776e-06
4.24822e-08
3.36387e-06
2.68085e-08
3.45038e-06
-8.8372e-08
3.60014e-06
-3.20608e-07
3.30701e-06
-6.31921e-07
2.51046e-06
1.16855e-06
-9.21723e-07
1.18857e-07
3.24501e-06
1.60597e-07
3.40864e-06
9.90864e-08
3.66165e-06
-8.8229e-08
3.49432e-06
-3.63328e-07
2.78556e-06
1.41891e-06
-6.13689e-07
2.02923e-07
3.04209e-06
3.01664e-07
3.3099e-06
3.05333e-07
3.65798e-06
1.77214e-07
3.62244e-06
-5.02076e-08
3.01298e-06
1.62547e-06
-2.56759e-07
3.00687e-07
2.7414e-06
4.45555e-07
3.16503e-06
5.26888e-07
3.57664e-06
4.73722e-07
3.67561e-06
3.06915e-07
3.17978e-06
1.78985e-06
1.42532e-07
3.68395e-07
2.37301e-06
5.83346e-07
2.95008e-06
7.58616e-07
3.40137e-06
7.98105e-07
3.63612e-06
7.05847e-07
3.27204e-06
1.90079e-06
5.94907e-07
4.06205e-07
1.9668e-06
7.09594e-07
2.64669e-06
9.94395e-07
3.11657e-06
1.14661e-06
3.48391e-06
1.14235e-06
3.2763e-06
1.97437e-06
1.06876e-06
4.29166e-07
1.53763e-06
8.21216e-07
2.25464e-06
1.22653e-06
2.71126e-06
1.51568e-06
3.19475e-06
1.62055e-06
3.17143e-06
2.04883e-06
1.5461e-06
4.3887e-07
1.09876e-06
9.1336e-07
1.78015e-06
1.44513e-06
2.17949e-06
1.90212e-06
2.73776e-06
2.16644e-06
2.90711e-06
2.08444e-06
2.13083e-06
4.32547e-07
6.66217e-07
9.79967e-07
1.23273e-06
1.63445e-06
1.52501e-06
2.29674e-06
2.07548e-06
2.82612e-06
2.37772e-06
1.86387e-06
3.0467e-06
4.00895e-07
2.65323e-07
1.00944e-06
6.24182e-07
1.76114e-06
7.7331e-07
2.66628e-06
1.17034e-06
3.61467e-06
1.42934e-06
1.18157e-06
4.29696e-06
2.65323e-07
8.89505e-07
1.66282e-06
2.83315e-06
4.26249e-06
5.44406e-06
-2.88968e-06
-1.00249e-05
-3.23991e-06
-9.05571e-06
-2.67358e-06
-6.78717e-06
-1.45518e-06
-4.58637e-06
2.83897e-07
-2.74031e-06
2.42361e-06
-1.31969e-06
4.85809e-06
-3.30456e-07
7.49878e-06
2.50482e-07
1.0275e-05
4.63254e-07
1.31333e-05
3.55915e-07
1.60369e-05
-2.07192e-08
1.89629e-05
-6.16314e-07
2.18989e-05
-1.38441e-06
2.48418e-05
-2.28352e-06
2.77947e-05
-3.27693e-06
3.07656e-05
-4.33271e-06
3.3765e-05
-5.42366e-06
3.68057e-05
-6.52661e-06
3.99014e-05
-7.62194e-06
4.30665e-05
-8.6923e-06
4.63145e-05
-9.72571e-06
4.96628e-05
-1.07072e-05
5.3117e-05
-1.165e-05
-1.25296e-05
-2.18666e-06
-8.43032e-06
-2.91098e-06
-8.33139e-06
-2.75477e-06
-6.94337e-06
-1.95149e-06
-5.38965e-06
-6.45871e-07
-4.04593e-06
1.04568e-06
-3.01124e-06
3.0258e-06
-2.31058e-06
5.21068e-06
-1.9344e-06
7.5332e-06
-1.85927e-06
9.94129e-06
-2.05218e-06
1.23967e-05
-2.47609e-06
1.48735e-05
-3.0932e-06
1.7357e-05
-3.86787e-06
1.98406e-05
-4.76712e-06
2.23244e-05
-5.7607e-06
2.48135e-05
-6.82183e-06
2.7317e-05
-7.92719e-06
2.98469e-05
-9.05653e-06
3.24175e-05
-1.01925e-05
3.50457e-05
-1.13205e-05
3.77493e-05
-1.24293e-05
4.05509e-05
-1.35088e-05
4.34533e-05
-1.45524e-05
-1.55058e-05
-2.03501e-06
-7.20092e-06
-2.77161e-06
-7.59479e-06
-2.83109e-06
-6.88389e-06
-2.32145e-06
-5.89929e-06
-1.35768e-06
-5.00969e-06
-3.9701e-08
-4.32923e-06
1.54409e-06
-3.89437e-06
3.31969e-06
-3.71e-06
5.22473e-06
-3.76431e-06
7.21018e-06
-4.03762e-06
9.23915e-06
-4.50506e-06
1.12864e-05
-5.14045e-06
1.33367e-05
-5.91816e-06
1.53827e-05
-6.81317e-06
1.7423e-05
-7.801e-06
1.94609e-05
-8.8597e-06
2.15031e-05
-9.96935e-06
2.35583e-05
-1.11117e-05
2.56366e-05
-1.22708e-05
2.77507e-05
-1.34347e-05
2.99161e-05
-1.45946e-05
3.21491e-05
-1.57418e-05
3.44533e-05
-1.68565e-05
-1.78594e-05
-2.06451e-06
-6.20226e-06
-2.73833e-06
-6.92097e-06
-2.89132e-06
-6.73091e-06
-2.56089e-06
-6.22972e-06
-1.83027e-06
-5.74032e-06
-7.82643e-07
-5.37685e-06
5.06665e-07
-5.18368e-06
1.97192e-06
-5.17525e-06
3.55796e-06
-5.35035e-06
5.22059e-06
-5.70024e-06
6.92621e-06
-6.21068e-06
8.65076e-06
-6.865e-06
1.03782e-05
-7.64557e-06
1.21004e-05
-8.53541e-06
1.38169e-05
-9.51755e-06
1.55319e-05
-1.05747e-05
1.72527e-05
-1.16901e-05
1.89893e-05
-1.28483e-05
2.07525e-05
-1.40341e-05
2.25503e-05
-1.52324e-05
2.43849e-05
-1.64293e-05
2.62519e-05
-1.76088e-05
2.81368e-05
-1.87414e-05
-1.97452e-05
-2.14382e-06
-5.36251e-06
-2.73936e-06
-6.32542e-06
-2.91188e-06
-6.55839e-06
-2.66539e-06
-6.4762e-06
-2.06142e-06
-6.34429e-06
-1.1693e-06
-6.26897e-06
-5.41799e-08
-6.2988e-06
1.22626e-06
-6.45569e-06
2.6242e-06
-6.7483e-06
4.10119e-06
-7.17723e-06
5.62861e-06
-7.7381e-06
7.18714e-06
-8.42353e-06
8.7653e-06
-9.22372e-06
1.03568e-05
-1.01269e-05
1.19603e-05
-1.1121e-05
1.35787e-05
-1.21931e-05
1.52178e-05
-1.33292e-05
1.68843e-05
-1.45149e-05
1.8585e-05
-1.57348e-05
2.03248e-05
-1.69722e-05
2.21019e-05
-1.82064e-05
2.39021e-05
-1.94089e-05
2.5706e-05
-2.05453e-05
-2.15378e-05
-2.21784e-06
-4.6332e-06
-2.72962e-06
-5.81365e-06
-2.87097e-06
-6.41704e-06
-2.63168e-06
-6.71549e-06
-2.05992e-06
-6.91606e-06
-1.2156e-06
-7.11329e-06
-1.56545e-07
-7.35785e-06
1.06607e-06
-7.6783e-06
2.40981e-06
-8.09204e-06
3.84083e-06
-8.60825e-06
5.33379e-06
-9.23105e-06
6.87076e-06
-9.9605e-06
8.44023e-06
-1.07932e-05
1.00361e-05
-1.17228e-05
1.16563e-05
-1.27413e-05
1.33023e-05
-1.38391e-05
1.49787e-05
-1.50055e-05
1.6692e-05
-1.62282e-05
1.845e-05
-1.74927e-05
2.02605e-05
-1.87827e-05
2.21298e-05
-2.00757e-05
2.40614e-05
-2.13406e-05
2.60466e-05
-2.25305e-05
-2.35766e-05
-2.26002e-06
-3.98484e-06
-2.68168e-06
-5.39198e-06
-2.75122e-06
-6.3475e-06
-2.45381e-06
-7.0129e-06
-1.83043e-06
-7.53943e-06
-9.35778e-07
-8.00794e-06
1.76898e-07
-8.47053e-06
1.46084e-06
-8.96225e-06
2.87721e-06
-9.50841e-06
4.39526e-06
-1.01263e-05
5.9918e-06
-1.08276e-05
7.65027e-06
-1.1619e-05
9.35999e-06
-1.25029e-05
1.11155e-05
-1.34783e-05
1.29157e-05
-1.45415e-05
1.4763e-05
-1.56863e-05
1.66624e-05
-1.6905e-05
1.8622e-05
-1.81878e-05
2.06516e-05
-1.95222e-05
2.27621e-05
-2.08933e-05
2.49669e-05
-2.22806e-05
2.72807e-05
-2.36543e-05
2.97127e-05
-2.49625e-05
-2.61049e-05
-2.25623e-06
-3.40307e-06
-2.57955e-06
-5.06866e-06
-2.54036e-06
-6.38669e-06
-2.12492e-06
-7.42835e-06
-1.37229e-06
-8.29206e-06
-3.35565e-07
-9.04466e-06
9.33608e-07
-9.7397e-06
2.391e-06
-1.04196e-05
4.00036e-06
-1.11178e-05
5.73373e-06
-1.18597e-05
7.57012e-06
-1.2664e-05
9.4947e-06
-1.35435e-05
1.14976e-05
-1.45058e-05
1.35738e-05
-1.55544e-05
1.57219e-05
-1.66897e-05
1.7944e-05
-1.79084e-05
2.02437e-05
-1.92047e-05
2.26265e-05
-2.05706e-05
2.50993e-05
-2.19949e-05
2.76695e-05
-2.34635e-05
3.03471e-05
-2.49582e-05
3.31488e-05
-2.6456e-05
3.60886e-05
-2.79022e-05
-2.91721e-05
-2.19819e-06
-2.88541e-06
-2.41156e-06
-4.85529e-06
-2.22489e-06
-6.57337e-06
-1.63056e-06
-8.02268e-06
-6.71008e-07
-9.25161e-06
5.97372e-07
-1.0313e-05
2.1222e-06
-1.12645e-05
3.85949e-06
-1.21569e-05
5.77461e-06
-1.30329e-05
7.84176e-06
-1.39268e-05
1.00424e-05
-1.48646e-05
1.23631e-05
-1.58642e-05
1.47949e-05
-1.69377e-05
1.73327e-05
-1.80923e-05
1.99743e-05
-1.93312e-05
2.27179e-05
-2.0652e-05
2.55611e-05
-2.2048e-05
2.84991e-05
-2.35087e-05
3.15252e-05
-2.5021e-05
3.46337e-05
-2.65719e-05
3.78212e-05
-2.81457e-05
4.10945e-05
-2.97293e-05
4.4461e-05
-3.12687e-05
-3.26944e-05
-2.08201e-06
-2.4366e-06
-2.16696e-06
-4.77034e-06
-1.78812e-06
-6.95221e-06
-9.48381e-07
-8.86241e-06
3.00046e-07
-1.05e-05
1.89037e-06
-1.19034e-05
3.76588e-06
-1.314e-05
5.88115e-06
-1.42722e-05
8.20258e-06
-1.53543e-05
1.07062e-05
-1.64304e-05
1.33743e-05
-1.75327e-05
1.61935e-05
-1.86834e-05
1.9154e-05
-1.98981e-05
2.2247e-05
-2.11853e-05
2.5462e-05
-2.25462e-05
2.87873e-05
-2.39773e-05
3.22105e-05
-2.54711e-05
3.57191e-05
-2.70173e-05
3.93003e-05
-2.86022e-05
4.29432e-05
-3.02148e-05
4.66316e-05
-3.18342e-05
5.03436e-05
-3.34414e-05
5.40432e-05
-3.49682e-05
-3.65428e-05
-1.90631e-06
-2.0637e-06
-1.83516e-06
-4.84149e-06
-1.2087e-06
-7.57867e-06
-4.37396e-08
-1.00274e-05
1.57642e-06
-1.21202e-05
3.57804e-06
-1.3905e-05
5.89351e-06
-1.54555e-05
8.47358e-06
-1.68523e-05
1.12827e-05
-1.81635e-05
1.42921e-05
-1.94398e-05
1.74771e-05
-2.07177e-05
2.08187e-05
-2.2025e-05
2.43018e-05
-2.33812e-05
2.79125e-05
-2.4796e-05
3.16389e-05
-2.62726e-05
3.54685e-05
-2.7807e-05
3.939e-05
-2.93926e-05
4.3389e-05
-3.10163e-05
4.74379e-05
-3.2651e-05
5.15178e-05
-3.42947e-05
5.56007e-05
-3.59171e-05
5.9653e-05
-3.74937e-05
6.3613e-05
-3.89282e-05
-4.04027e-05
-1.668e-06
-1.7773e-06
-1.40277e-06
-5.10671e-06
-4.59259e-07
-8.52218e-06
1.11105e-06
-1.15977e-05
3.20026e-06
-1.42094e-05
5.70133e-06
-1.6406e-05
8.53119e-06
-1.82854e-05
1.16245e-05
-1.99456e-05
1.49301e-05
-2.1469e-05
1.84115e-05
-2.29213e-05
2.20472e-05
-2.43534e-05
2.58227e-05
-2.58004e-05
2.97237e-05
-2.72823e-05
3.3735e-05
-2.88073e-05
3.78426e-05
-3.03802e-05
4.2022e-05
-3.19864e-05
4.62534e-05
-3.3624e-05
5.05137e-05
-3.52766e-05
5.47787e-05
-3.6916e-05
5.89607e-05
-3.84767e-05
6.29385e-05
-3.98949e-05
6.65984e-05
-4.11537e-05
6.99108e-05
-4.22406e-05
-4.33788e-05
-1.36226e-06
-1.5928e-06
-8.51214e-07
-5.61776e-06
4.96625e-07
-9.87002e-06
2.57466e-06
-1.36757e-05
5.21826e-06
-1.6853e-05
8.27198e-06
-1.94598e-05
1.16153e-05
-2.16287e-05
1.51682e-05
-2.34984e-05
1.88852e-05
-2.51861e-05
2.27425e-05
-2.67785e-05
2.67203e-05
-2.83312e-05
3.07972e-05
-2.98774e-05
3.49531e-05
-3.14382e-05
3.91599e-05
-3.30141e-05
4.33988e-05
-3.46192e-05
4.7648e-05
-3.62355e-05
5.18331e-05
-3.78092e-05
5.58244e-05
-3.92678e-05
5.94975e-05
-4.05891e-05
6.27822e-05
-4.17614e-05
6.5712e-05
-4.28247e-05
6.83361e-05
-4.37778e-05
7.07249e-05
-4.46294e-05
-4.54585e-05
-9.82009e-07
-1.53251e-06
-1.48519e-07
-6.45125e-06
1.70725e-06
-1.17258e-05
4.38971e-06
-1.63582e-05
7.62587e-06
-2.00892e-05
1.11989e-05
-2.30328e-05
1.4975e-05
-2.54047e-05
1.88854e-05
-2.74089e-05
2.28944e-05
-2.9195e-05
2.69733e-05
-3.08575e-05
3.10922e-05
-3.24501e-05
3.52217e-05
-3.40069e-05
3.93401e-05
-3.55566e-05
4.34269e-05
-3.71009e-05
4.73866e-05
-3.85788e-05
5.1079e-05
-3.99279e-05
5.44133e-05
-4.11435e-05
5.73955e-05
-4.225e-05
6.00854e-05
-4.3279e-05
6.25456e-05
-4.42216e-05
6.48113e-05
-4.50904e-05
6.69158e-05
-4.58823e-05
6.88394e-05
-4.6553e-05
-4.70049e-05
-5.16304e-07
-1.6299e-06
7.37447e-07
-7.705e-06
3.22768e-06
-1.4216e-05
6.56274e-06
-1.96932e-05
1.03481e-05
-2.38745e-05
1.43338e-05
-2.70185e-05
1.83961e-05
-2.94671e-05
2.24791e-05
-3.14918e-05
2.65471e-05
-3.3263e-05
3.05676e-05
-3.4878e-05
3.45122e-05
-3.63947e-05