/*--------------------------------*- C++ -*----------------------------------*\
  =========                 |
  \\      /  F ield         | OpenFOAM: The Open Source CFD Toolbox
   \\    /   O peration     | Website:  https://openfoam.org
    \\  /    A nd           | Version:  11
     \\/     M anipulation  |
\*---------------------------------------------------------------------------*/
FoamFile
{
    format      ascii;
    class       volVectorField;
    location    "0.2";
    object      U;
}
// * * * * * * * * * * * * * * * * * * * * * * * * * * * * * * * * * * * * * //

dimensions      [0 1 -1 0 0 0 0];

internalField   nonuniform List<vector> 
2880
(
(-0.0365686 -0.169617 1.59192e-18)
(-0.0739927 -0.318903 -6.30034e-19)
(-0.106723 -0.493098 9.89689e-20)
(-0.102765 -0.547764 -5.13927e-19)
(-0.070995 -0.588634 -2.91935e-19)
(0.0370253 -0.328939 2.6297e-19)
(-0.0902056 -0.227452 -7.48336e-19)
(-0.12741 -0.384432 -2.62195e-20)
(-0.138111 -0.53745 5.77479e-19)
(-0.110026 -0.580782 -1.1577e-19)
(-0.0474043 -0.604496 9.03069e-19)
(0.0429763 -0.413923 -1.55679e-19)
(-0.138304 -0.234928 -1.20552e-20)
(-0.164576 -0.38825 5.79283e-19)
(-0.158154 -0.521376 -4.90521e-19)
(-0.108473 -0.551805 4.28107e-19)
(-0.0200581 -0.574667 -5.58698e-19)
(0.0831532 -0.422313 0)
(-0.187365 -0.228798 0)
(-0.196216 -0.373797 -1.43673e-19)
(-0.172161 -0.486778 0)
(-0.105865 -0.508946 0)
(0.00424527 -0.532372 1.60665e-19)
(0.130246 -0.412636 -6.25283e-20)
(-0.231261 -0.21864 -4.89704e-20)
(-0.223818 -0.350254 1.38892e-19)
(-0.185367 -0.444357 -3.76408e-21)
(-0.106464 -0.461828 -2.31103e-20)
(0.0215333 -0.479947 0)
(0.168948 -0.394403 6.11477e-20)
(-0.270656 -0.208515 4.44295e-19)
(-0.248609 -0.32241 2.76455e-19)
(-0.199498 -0.398856 0)
(-0.111299 -0.412448 2.33332e-19)
(0.0298057 -0.422864 1.87617e-19)
(0.192916 -0.365839 2.07789e-20)
(-0.305092 -0.199639 -4.06576e-19)
(-0.271616 -0.292666 -2.76267e-19)
(-0.215258 -0.352568 4.26184e-20)
(-0.120912 -0.361449 -4.07123e-19)
(0.0268267 -0.365072 -2.53705e-19)
(0.203729 -0.325416 8.45171e-20)
(-0.33362 -0.191879 8.00873e-19)
(-0.293339 -0.262294 -3.40832e-20)
(-0.232771 -0.306543 5.02526e-19)
(-0.135463 -0.309437 -2.29688e-19)
(0.014007 -0.30686 0)
(0.199936 -0.275952 0)
(-0.357425 -0.182019 -8.25555e-19)
(-0.31318 -0.233503 5.33949e-19)
(-0.251769 -0.261331 -4.36844e-19)
(-0.154669 -0.257071 -2.78583e-21)
(-0.0072776 -0.248327 3.71631e-19)
(0.182095 -0.220698 0)
(-0.374788 -0.173625 2.6536e-20)
(-0.331594 -0.205176 -1.55386e-18)
(-0.271855 -0.217171 0)
(-0.178012 -0.204872 4.95382e-19)
(-0.0361299 -0.189897 -4.56407e-19)
(0.1515 -0.162342 -8.55323e-19)
(-0.385778 -0.165605 0)
(-0.348462 -0.177172 9.97338e-19)
(-0.292634 -0.174236 -5.48499e-20)
(-0.20481 -0.153333 4.75724e-20)
(-0.0715553 -0.132182 0)
(0.10956 -0.103139 6.75607e-19)
(-0.390442 -0.157004 1.70837e-18)
(-0.363579 -0.149603 9.58822e-19)
(-0.313659 -0.132692 0)
(-0.234233 -0.102961 9.80416e-20)
(-0.112406 -0.0759484 -8.77783e-20)
(0.0579515 -0.0449855 6.59687e-19)
(-0.389178 -0.146948 2.14151e-20)
(-0.376641 -0.122662 -9.80068e-19)
(-0.33439 -0.0927018 0)
(-0.265333 -0.0542882 -7.57157e-19)
(-0.157363 -0.0220485 0)
(-0.001353 0.010477 -6.51078e-19)
(-0.382469 -0.134863 -1.62451e-18)
(-0.387288 -0.0964894 0)
(-0.354235 -0.0544459 8.27443e-19)
(-0.297058 -0.00784677 7.51693e-19)
(-0.20493 0.0286553 1.71963e-19)
(-0.0662771 0.0617344 -1.5641e-19)
(-0.370737 -0.1204 -2.65405e-20)
(-0.395207 -0.0711555 2.94941e-20)
(-0.372593 -0.0181188 -8.27347e-19)
(-0.328269 0.0358604 -9.32725e-20)
(-0.253469 0.075404 7.46405e-19)
(-0.13457 0.107498 -1.5044e-19)
(-0.354501 -0.1034 1.56991e-18)
(-0.400093 -0.046668 0)
(-0.388849 0.0161048 -1.04643e-19)
(-0.357767 0.0763769 8.94446e-20)
(-0.301184 0.117559 -8.22925e-19)
(-0.203784 0.146799 2.91785e-19)
(-0.334305 -0.0838938 -1.49649e-18)
(-0.401639 -0.0229968 -9.70922e-19)
(-0.40241 0.0480742 -4.99771e-20)
(-0.384331 0.113271 0)
(-0.3461 0.154587 0)
(-0.271362 0.17894 1.39052e-19)
(-0.310463 -0.0623304 1.57711e-18)
(-0.399563 -9.77188e-06 1.91972e-18)
(-0.412716 0.0776326 -7.75162e-19)
(-0.406732 0.146133 7.19008e-19)
(-0.386021 0.186044 6.29187e-19)
(-0.334627 0.203604 -6.80927e-19)
(-0.282973 -0.0393839 -1.56078e-18)
(-0.393551 0.0225066 -2.03027e-18)
(-0.419227 0.104654 7.8237e-21)
(-0.423587 0.174682 -1.53992e-18)
(-0.418543 0.211299 -4.00237e-19)
(-0.390735 0.220849 -1.28008e-19)
(-0.251575 -0.0157451 5.07722e-20)
(-0.383083 0.0447258 9.56021e-19)
(-0.421244 0.129028 1.02894e-18)
(-0.433501 0.198028 -8.33339e-20)
(-0.440825 0.230061 0)
(-0.436289 0.230921 1.08168e-18)
(-0.215723 0.00766776 -1.53569e-18)
(-0.367409 0.066401 3.72703e-20)
(-0.417709 0.149508 -5.46672e-20)
(-0.434211 0.213897 1.49972e-18)
(-0.449799 0.24229 1.56575e-19)
(-0.465709 0.234147 -6.81307e-19)
(-0.175073 0.0288241 3.27851e-18)
(-0.345321 0.086391 -3.58902e-20)
(-0.407231 0.164673 -1.20416e-19)
(-0.422883 0.221511 -1.5762e-18)
(-0.442786 0.247829 -6.00672e-19)
(-0.476226 0.22703 0)
(-0.128727 0.0433925 5.18203e-21)
(-0.312151 0.102667 0)
(-0.385678 0.171134 -1.2803e-19)
(-0.392185 0.218634 9.53433e-19)
(-0.410025 0.248566 7.36818e-19)
(-0.46208 0.237209 0)
(-0.0573782 0.0486988 -2.6996e-18)
(-0.225855 0.117333 -4.4534e-20)
(-0.33208 0.186474 6.5045e-20)
(-0.325338 0.208133 0)
(-0.33126 0.2029 0)
(-0.446685 0.182814 0)
(0.766443 -1.02554 -2.51872e-19)
(1.09203 -0.910489 5.46169e-20)
(1.22435 -0.783399 6.16381e-20)
(1.28182 -0.665893 4.08799e-22)
(1.29812 -0.559454 -3.75144e-22)
(1.29226 -0.468711 2.03601e-20)
(1.27743 -0.394533 1.55661e-20)
(1.26102 -0.335388 -7.10739e-20)
(1.24586 -0.28855 -2.43943e-20)
(1.23233 -0.25116 2.52598e-20)
(1.21999 -0.220717 2.26781e-20)
(1.20819 -0.195336 -5.05286e-20)
(1.1965 -0.173698 -1.42301e-21)
(1.18464 -0.154881 4.58968e-20)
(1.1724 -0.138221 -6.62296e-20)
(1.15964 -0.123224 -4.10583e-22)
(1.14621 -0.109511 2.26803e-20)
(1.13194 -0.0967937 -1.88799e-20)
(1.11667 -0.0848245 -7.97712e-20)
(1.10024 -0.0732856 2.13619e-21)
(1.08247 -0.061785 5.85997e-20)
(1.06278 -0.0509747 -9.28278e-20)
(1.03938 -0.0449607 -1.87986e-20)
(1.0112 -0.0459814 -6.62513e-20)
(0.769458 -0.782668 3.1806e-19)
(1.18274 -0.836217 0)
(1.31444 -0.741025 -4.62235e-20)
(1.36188 -0.636446 -7.05925e-20)
(1.36925 -0.53897 0)
(1.35453 -0.452788 -1.24573e-20)
(1.33095 -0.380792 2.67547e-21)
(1.30651 -0.322653 2.05331e-20)
(1.28457 -0.276396 4.17116e-20)
(1.26556 -0.239491 -1.79774e-20)
(1.24881 -0.209619 -2.2895e-20)
(1.2335 -0.184926 1.7608e-20)
(1.21894 -0.164077 -2.04423e-20)
(1.20469 -0.146125 -3.05893e-21)
(1.19044 -0.13039 1.96363e-20)
(1.17594 -0.116366 5.76693e-20)
(1.16098 -0.10367 2.6035e-21)
(1.14536 -0.0920107 1.93429e-20)
(1.12885 -0.0811404 3.55706e-20)
(1.11125 -0.070745 5.32436e-20)
(1.09229 -0.0604194 -1.59227e-20)
(1.07137 -0.0507045 -5.23867e-20)
(1.04674 -0.0455349 8.79411e-20)
(1.01638 -0.0480562 5.99806e-20)
(0.720763 -0.603043 0)
(1.22873 -0.743127 -2.33909e-20)
(1.38465 -0.677959 2.00955e-20)
(1.43182 -0.590395 5.63914e-20)
(1.43479 -0.505099 0)
(1.41371 -0.42647 0)
(1.3828 -0.358968 5.34058e-21)
(1.35105 -0.303511 -3.25899e-22)
(1.32254 -0.258987 0)
(1.29806 -0.223394 0)
(1.2769 -0.19467 -2.09549e-20)
(1.25803 -0.171084 1.25799e-20)
(1.24061 -0.151347 -8.17975e-21)
(1.22401 -0.134518 -1.7981e-20)
(1.20779 -0.119919 0)
(1.19161 -0.10705 -7.38572e-21)
(1.1752 -0.0955353 2.47082e-20)
(1.1583 -0.0850936 0)
(1.14066 -0.0754946 -9.38393e-21)
(1.122 -0.0664541 3.09922e-20)
(1.10202 -0.0575794 -3.01658e-20)
(1.08011 -0.0492291 7.18241e-21)
(1.05451 -0.0448774 3.23654e-20)
(1.02208 -0.0491772 -3.1587e-20)
(0.68302 -0.478754 0)
(1.24272 -0.641785 -7.07051e-20)
(1.43292 -0.601759 -4.48111e-20)
(1.48895 -0.532147 0)
(1.49211 -0.459868 5.22582e-21)
(1.46762 -0.390605 4.52303e-21)
(1.43132 -0.3294 9.16189e-22)
(1.3934 -0.278119 -6.26531e-22)
(1.35892 -0.236442 -2.74078e-22)
(1.32921 -0.202957 7.91914e-22)
(1.30374 -0.17595 7.12392e-21)
(1.2814 -0.153884 3.74459e-21)
(1.26118 -0.135556 -1.233e-20)
(1.2423 -0.120069 2.71491e-21)
(1.22419 -0.106766 0)
(1.20643 -0.0951637 7.42793e-21)
(1.18866 -0.0849074 -4.31724e-21)
(1.17058 -0.0757359 0)
(1.15187 -0.0674542 -1.05399e-20)
(1.13222 -0.0598553 -3.2092e-21)
(1.1113 -0.052633 3.20539e-21)
(1.08855 -0.0458961 -7.17514e-21)
(1.06232 -0.0420301 -1.1239e-20)
(1.02854 -0.0482793 1.43135e-20)
(0.653947 -0.39216 2.69011e-20)
(1.23464 -0.538919 5.16492e-20)
(1.4611 -0.517887 3.22522e-20)
(1.53196 -0.464855 0)
(1.53936 -0.405365 -1.72174e-20)
(1.51452 -0.346439 3.51105e-21)
(1.47505 -0.292766 2.19715e-21)
(1.43245 -0.246869 -5.53766e-22)
(1.39287 -0.209034 -7.01072e-22)
(1.35842 -0.178402 1.80509e-22)
(1.3289 -0.153656 -1.32782e-21)
(1.30325 -0.133499 2.25153e-21)
(1.28036 -0.116852 0)
(1.25934 -0.102888 -2.2723e-21)
(1.23948 -0.0909878 -1.35239e-21)
(1.22028 -0.080695 6.82103e-22)
(1.2013 -0.0716735 -3.12818e-21)
(1.18216 -0.0636831 0)
(1.1625 -0.056563 3.19782e-21)
(1.14194 -0.0501962 1.46351e-22)
(1.12006 -0.0444218 2.83725e-21)
(1.0962 -0.0392283 -6.10924e-21)
(1.06918 -0.0359176 -2.68212e-22)
(1.03712 -0.0430925 -1.64282e-21)
(0.626127 -0.326723 8.57345e-20)
(1.20912 -0.438693 1.04052e-19)
(1.47071 -0.430092 1.31043e-20)
(1.56039 -0.391067 -3.91259e-20)
(1.57517 -0.343543 0)
(1.55298 -0.295207 -3.52811e-21)
(1.51274 -0.249878 -2.20769e-21)
(1.46719 -0.210288 -6.2613e-21)
(1.42364 -0.177148 0)
(1.38512 -0.150057 -1.63955e-21)
(1.35195 -0.128087 1.2569e-21)
(1.32325 -0.110208 -2.15476e-22)
(1.2979 -0.0955025 -1.25029e-21)
(1.27492 -0.0832358 7.00965e-22)
(1.25353 -0.0728465 0)
(1.23309 -0.0639161 2.35652e-21)
(1.21311 -0.0561393 1.98233e-21)
(1.19313 -0.0493066 0)
(1.17269 -0.0432866 0)
(1.15128 -0.0379803 -2.94224e-21)
(1.12826 -0.0333045 1.04832e-20)
(1.10284 -0.0297237 -5.20338e-21)
(1.07438 -0.0295708 0)
(1.04271 -0.0349835 0)
(0.594989 -0.269787 -1.40268e-19)
(1.16886 -0.34303 5.39198e-20)
(1.46236 -0.340724 1.60697e-19)
(1.57369 -0.312689 3.9466e-20)
(1.59876 -0.276202 -6.00823e-20)
(1.58181 -0.238178 -2.46823e-20)
(1.54326 -0.201598 -1.54659e-20)
(1.49664 -0.168968 7.61655e-21)
(1.45047 -0.141239 -1.30763e-20)
(1.40876 -0.118318 0)
(1.37248 -0.0996171 -5.16259e-21)
(1.3411 -0.0843836 2.71203e-21)
(1.31356 -0.0718904 0)
(1.28887 -0.0615269 0)
(1.26614 -0.0528188 1.49477e-21)
(1.24468 -0.0454173 -4.03429e-21)
(1.2239 -0.0390835 8.50412e-22)
(1.20326 -0.0336768 -8.04776e-21)
(1.18222 -0.0291313 1.12512e-20)
(1.16016 -0.0253946 -1.10715e-20)
(1.13639 -0.0224389 8.37621e-21)
(1.11014 -0.0208869 0)
(1.08085 -0.0230282 4.29605e-21)
(1.04772 -0.0285415 3.57296e-21)
(0.559056 -0.214882 4.701e-19)
(1.1157 -0.252473 -1.78317e-19)
(1.43651 -0.251351 -1.8589e-19)
(1.57114 -0.231448 1.1444e-20)
(1.60907 -0.204504 1.53484e-19)
(1.60025 -0.177033 -9.98974e-21)
(1.56562 -0.149032 6.64071e-20)
(1.51983 -0.123633 0)
(1.47258 -0.101853 3.30392e-20)
(1.42877 -0.0836457 1.19267e-20)
(1.3901 -0.0686724 9.75234e-21)
(1.3565 -0.0564461 7.06787e-21)
(1.32711 -0.0464464 0)
(1.30093 -0.0382119 -2.1272e-21)
(1.27707 -0.0313819 -1.50931e-21)
(1.25473 -0.025702 -5.86794e-21)
(1.23326 -0.0210175 4.83994e-21)
(1.21202 -0.0172621 0)
(1.1904 -0.0144281 -3.58146e-21)
(1.16775 -0.0124979 -5.75624e-21)
(1.14334 -0.0114611 0)
(1.11651 -0.0118983 0)
(1.08674 -0.0157879 1.04887e-20)
(1.05285 -0.0223339 -1.62155e-20)
(0.51637 -0.159516 -4.6474e-19)
(1.05016 -0.167224 4.65301e-19)
(1.39337 -0.163324 -4.19569e-19)
(1.55218 -0.148989 2.59481e-19)
(1.60549 -0.130627 0)
(1.60618 -0.111876 0)
(1.57937 -0.09372 -9.75934e-20)
(1.53602 -0.0752316 2.91419e-20)
(1.48927 -0.059671 -1.02844e-19)
(1.44459 -0.0465754 5.13612e-20)
(1.40439 -0.0357216 -3.56762e-20)
(1.36915 -0.0268413 -1.32092e-20)
(1.33829 -0.0196138 0)
(1.31093 -0.0137394 7.15517e-21)
(1.28612 -0.00898761 -2.27713e-21)
(1.26306 -0.00521108 -1.83915e-22)
(1.24098 -0.00234237 6.17778e-21)
(1.21923 -0.000379891 -8.45082e-21)
(1.19714 0.000645325 3.48534e-21)
(1.17405 0.000731773 1.20351e-20)
(1.14927 -0.000120991 -9.87967e-21)
(1.12216 -0.00243517 0)
(1.09224 -0.00791935 0)
(1.05813 -0.0158634 -4.95595e-21)
(0.464739 -0.103184 1.17773e-19)
(0.972214 -0.087482 -2.88856e-19)
(1.33292 -0.0779755 -2.15631e-19)
(1.51618 -0.066993 -8.79402e-20)
(1.58736 -0.0559473 0)
(1.59886 -0.0446489 0)
(1.58278 -0.0360526 7.98568e-20)
(1.54458 -0.0248003 -5.92485e-20)
(1.49986 -0.0154206 8.21032e-20)
(1.45564 -0.00767362 -2.64439e-20)
(1.41492 -0.00125033 2.47361e-20)
(1.37873 0.00398315 -1.26246e-20)
(1.34689 0.00817561 2.43212e-20)
(1.31866 0.0114675 -5.05913e-21)
(1.29316 0.0139543 -2.64958e-21)
(1.26954 0.0156736 4.84497e-21)
(1.24701 0.0166094 5.33302e-22)
(1.22488 0.0167091 2.63094e-21)
(1.2025 0.0159144 -1.38615e-20)
(1.17921 0.0142069 1.20829e-21)
(1.15435 0.011564 1.37368e-20)
(1.12729 0.00750045 2.18507e-20)
(1.09751 0.000497279 -3.59336e-20)
(1.06351 -0.00899068 2.70185e-20)
(0.403002 -0.0466102 -1.11905e-19)
(0.882074 -0.0131812 6.83443e-19)
(1.25509 0.00329141 4.47109e-19)
(1.46249 0.0127861 -4.37654e-19)
(1.55383 0.0179265 -1.42133e-19)
(1.57922 0.0221254 2.60352e-20)
(1.57262 0.023799 -6.03501e-20)
(1.54468 0.0269163 1.90277e-21)
(1.50366 0.0301981 -4.36273e-20)
(1.46132 0.0324818 6.05585e-20)
(1.42121 0.0342488 -5.67247e-20)
(1.3849 0.0355872 0)
(1.35265 0.0365126 2.25065e-20)
(1.32396 0.0370219 -2.11448e-20)
(1.29807 0.0370827 -1.35099e-20)
(1.27412 0.0366273 8.49603e-21)
(1.25135 0.0355624 -5.39214e-22)
(1.22906 0.0337874 -1.57156e-21)
(1.2066 0.0312175 4.16755e-21)
(1.18337 0.0278103 -3.26879e-21)
(1.15871 0.0235072 0)
(1.13199 0.0178378 1.2504e-21)
(1.10263 0.00940699 -1.3976e-20)
(1.06902 -0.00165358 9.98164e-21)
(0.33108 0.00893885 -1.09851e-19)
(0.780264 0.0549302 -6.58556e-19)
(1.16015 0.0788227 -1.35027e-19)
(1.39044 0.0884357 1.10288e-18)
(1.50389 0.0892761 -2.38108e-19)
(1.54633 0.0873418 1.34364e-19)
(1.54978 0.083105 0)
(1.53412 0.0797111 1.99955e-19)
(1.49966 0.0764202 -3.35522e-20)
(1.46083 0.0732753 8.34403e-20)
(1.42266 0.0702772 4.99801e-20)
(1.38724 0.0675416 -9.82312e-21)
(1.35529 0.0650122 -3.4896e-20)
(1.32667 0.0625715 4.44907e-21)
(1.30076 0.0600762 3.19358e-20)
(1.27681 0.0573644 -8.60076e-21)
(1.25407 0.0542721 -9.63562e-21)
(1.23186 0.0506518 1.06695e-20)
(1.20959 0.0463875 -2.40292e-21)
(1.18668 0.0414032 -1.93843e-21)
(1.1625 0.0355966 0)
(1.13638 0.0284875 -1.99395e-21)
(1.1077 0.0187609 0)
(1.07476 0.00618799 5.93626e-21)
(0.250033 0.061144 0)
(0.667546 0.115126 0)
(1.04872 0.146652 1.34219e-19)
(1.29985 0.157838 -5.63507e-19)
(1.43664 0.156328 0)
(1.49839 0.149683 -1.11331e-19)
(1.51587 0.139953 -8.07548e-20)
(1.5104 0.132087 -1.32051e-19)
(1.4869 0.122793 -1.04835e-19)
(1.45338 0.114073 0)
(1.4186 0.106281 0)
(1.38522 0.0993962 -4.69028e-20)
(1.35445 0.0932957 -3.09253e-20)
(1.32654 0.0877852 3.2001e-20)
(1.30111 0.0826392 0)
(1.27756 0.0776207 2.3211e-20)
(1.2552 0.0725035 -2.18847e-20)
(1.23341 0.0670934 9.04697e-21)
(1.21162 0.0612374 -6.64399e-21)
(1.1893 0.0548181 -1.89574e-21)
(1.16586 0.0476863 0)
(1.1406 0.0393369 -1.65819e-21)
(1.11285 0.0284907 1.17158e-20)
(1.08085 0.0145414 -1.43831e-20)
(0.161786 0.107646 0)
(0.546352 0.166124 0)
(0.921769 0.204801 0)
(1.19119 0.219 6.31822e-19)
(1.35154 0.217178 -3.14081e-20)
(1.4345 0.20766 -3.74455e-21)
(1.46909 0.194819 4.75528e-19)
(1.47525 0.181212 -1.27205e-19)
(1.46296 0.167945 1.27038e-19)
(1.43764 0.154008 2.48549e-19)
(1.40813 0.141646 -7.01244e-20)
(1.37817 0.130687 9.63235e-20)
(1.34963 0.120991 6.73568e-20)
(1.32321 0.112347 -6.16661e-20)
(1.2989 0.104492 -3.82926e-20)
(1.27627 0.0971407 1.95449e-20)
(1.25474 0.0900189 0)
(1.23375 0.0828882 0)
(1.2128 0.0755542 0)
(1.19138 0.0678552 1.92661e-21)
(1.16895 0.0595936 0)
(1.14483 0.0502394 -1.18112e-21)
(1.11828 0.0384978 1.24552e-21)
(1.0875 0.0233785 -2.60414e-21)
(0.0686252 0.146511 1.03391e-19)
(0.420179 0.206285 -6.68645e-19)
(0.782144 0.251164 -5.35137e-19)
(1.06514 0.269958 -2.08319e-19)
(1.2486 0.269948 1.77927e-19)
(1.35391 0.259669 -3.58843e-19)
(1.40729 0.244578 -8.33683e-20)
(1.42831 0.227832 -1.40988e-19)
(1.42756 0.210133 0)
(1.41242 0.192241 -8.28825e-20)
(1.3901 0.175773 0)
(1.36513 0.160945 -9.95174e-20)
(1.34007 0.147721 0)
(1.31615 0.135942 5.5481e-20)
(1.29373 0.125356 -5.16186e-20)
(1.27267 0.115665 3.03808e-20)
(1.25253 0.106567 -1.62806e-20)
(1.23285 0.0977883 -2.63985e-20)
(1.21317 0.0890932 2.66283e-20)
(1.19303 0.0802761 -1.04394e-20)
(1.17194 0.0710938 -5.97074e-21)
(1.14925 0.0609987 4.56241e-21)
(1.12421 0.0486436 1.53347e-21)
(1.095 0.0326286 0)
(-0.0266482 0.175976 6.62006e-19)
(0.292658 0.233616 5.0776e-19)
(0.634739 0.283746 6.687e-19)
(0.923866 0.308661 -4.14949e-19)
(1.12792 0.312801 0)
(1.25608 0.303917 -1.09774e-19)
(1.32971 0.288185 -6.60268e-20)
(1.36728 0.26937 2.96836e-19)
(1.38026 0.248855 -8.02929e-21)
(1.37663 0.227865 -9.22733e-20)
(1.36323 0.207921 0)
(1.34492 0.189589 4.29759e-21)
(1.32477 0.173033 4.35311e-20)
(1.30451 0.158207 2.5462e-20)
(1.28495 0.144921 -9.64218e-20)
(1.26624 0.132908 5.92485e-20)
(1.2482 0.121869 3.86447e-22)
(1.23046 0.111511 -8.41273e-21)
(1.21261 0.101567 3.82198e-20)
(1.19425 0.0917937 -1.76487e-20)
(1.17492 0.0819113 9.42977e-21)
(1.15405 0.0713591 -6.22494e-21)
(1.13092 0.0587411 0)
(1.10368 0.0421738 -1.0708e-21)
(-0.121106 0.194644 -1.74696e-18)
(0.167648 0.246873 3.03023e-19)
(0.485787 0.300918 1.17391e-19)
(0.772246 0.333071 2.08906e-19)
(0.991071 0.343697 0)
(1.14065 0.33868 -2.2624e-19)
(1.23528 0.324297 0)
(1.29097 0.304964 0)
(1.31933 0.282909 2.02782e-19)
(1.32875 0.259804 -9.02059e-20)
(1.32598 0.237189 0)
(1.31604 0.215915 0)
(1.30237 0.196384 -7.07162e-20)
(1.28712 0.178713 1.17265e-20)
(1.27154 0.162831 9.3711e-21)
(1.25615 0.148544 4.10305e-20)
(1.24104 0.135599 -5.36922e-20)
(1.226 0.123717 2.4343e-20)
(1.2107 0.11262 -1.3921e-20)
(1.19479 0.102034 1.30954e-20)
(1.17781 0.0916626 7.73235e-21)
(1.15928 0.0809418 -1.24684e-20)
(1.13857 0.0684573 0)
(1.11393 0.0517699 0)
(-0.211667 0.201331 6.40231e-19)
(0.0491081 0.24545 7.06086e-19)
(0.341646 0.302004 -4.71698e-19)
(0.617328 0.341843 -3.52901e-19)
(0.842608 0.360815 0)
(1.00897 0.36206 3.26674e-19)
(1.12338 0.351304 -9.37229e-20)
(1.19785 0.333351 0)
(1.2429 0.311222 9.8407e-20)
(1.26687 0.287106 -7.13879e-20)
(1.27639 0.262729 1.22666e-19)
(1.27654 0.239207 -5.23615e-20)
(1.271 0.217186 0)
(1.26228 0.196982 0)
(1.252 0.178677 -4.11196e-20)
(1.24107 0.1622 7.1078e-20)
(1.22987 0.147384 -1.64259e-20)
(1.21843 0.134004 9.78878e-21)
(1.20656 0.121805 -6.49025e-22)
(1.19395 0.110509 4.54586e-22)
(1.18017 0.0998187 3.69205e-21)
(1.16477 0.0892112 6.82788e-21)
(1.14725 0.0773011 -4.35377e-21)
(1.12612 0.0610039 -8.92009e-22)
(-0.294898 0.195049 6.53705e-19)
(-0.0591479 0.229171 -5.51775e-19)
(0.20778 0.287362 4.1409e-19)
(0.466755 0.334768 3.50034e-19)
(0.689529 0.362983 0)
(0.865301 0.372349 0)
(0.995392 0.367418 0)
(1.08726 0.352934 -1.13351e-19)
(1.14923 0.332465 7.70902e-21)
(1.1887 0.308686 -6.71572e-20)
(1.21189 0.283625 1.15142e-19)
(1.22376 0.258691 -6.95272e-21)
(1.22806 0.234795 -6.21635e-20)
(1.22753 0.212477 5.90629e-20)
(1.22408 0.192006 -1.91725e-20)
(1.21895 0.173466 1.46883e-20)
(1.21283 0.156816 -1.11686e-20)
(1.20604 0.141928 -9.89006e-21)
(1.19859 0.128613 -7.35848e-21)
(1.19029 0.116636 5.25312e-21)
(1.18078 0.105731 2.75114e-21)
(1.16963 0.0954418 2.29464e-21)
(1.1564 0.0845686 -4.39804e-21)
(1.14026 0.0691968 9.08818e-22)
(-0.366837 0.17491 -6.53959e-19)
(-0.15319 0.198236 -6.05312e-19)
(0.0888651 0.258423 -3.04773e-19)
(0.327264 0.312999 0)
(0.539784 0.350347 -1.15181e-19)
(0.716503 0.368698 1.06649e-19)
(0.855672 0.371181 6.90952e-20)
(0.96095 0.362059 1.54388e-19)
(1.03795 0.345059 -9.94326e-20)
(1.09247 0.323173 6.20961e-20)
(1.12983 0.298725 -8.62605e-21)
(1.15451 0.273417 -4.20928e-20)
(1.1701 0.248437 2.66818e-20)
(1.17938 0.224571 -5.25576e-20)
(1.18441 0.202303 1.92348e-20)
(1.18663 0.1819 9.40118e-21)
(1.18701 0.163479 -3.03819e-21)
(1.18613 0.147048 6.36475e-21)
(1.18425 0.132527 0)
(1.1813 0.119732 2.92383e-21)
(1.17705 0.108476 5.91096e-21)
(1.17151 0.0984632 -4.4556e-21)
(1.16408 0.0890839 -2.16664e-21)
(1.15537 0.0752138 4.3359e-22)
(-0.422375 0.140074 0)
(-0.228511 0.153328 4.87105e-19)
(-0.0110647 0.217373 -3.5813e-19)
(0.20408 0.278878 -2.84538e-19)
(0.400523 0.324682 1.1769e-19)
(0.570357 0.35174 9.95603e-20)
(0.710998 0.362198 -1.36843e-19)
(0.82361 0.359638 -1.12422e-19)
(0.91142 0.347586 0)
(0.978438 0.329101 5.66537e-20)
(1.02872 0.306666 -1.03379e-19)
(1.06598 0.282202 3.18304e-20)
(1.09338 0.257136 4.65417e-20)
(1.11348 0.232492 -2.25077e-20)
(1.1283 0.208973 1.26793e-20)
(1.13935 0.187043 1.83836e-20)
(1.14774 0.166991 -2.64484e-20)
(1.15423 0.148969 -6.39685e-21)
(1.15928 0.133054 8.05796e-21)
(1.16319 0.119209 -5.18778e-21)
(1.16576 0.107393 -7.34652e-21)
(1.16689 0.0971515 1.98974e-21)
(1.1662 0.0890967 0)
(1.16827 0.0771319 -1.82642e-21)
(-0.454124 0.0909861 6.903e-20)
(-0.279859 0.0959492 4.24661e-20)
(-0.0881662 0.167308 3.45287e-19)
(0.100801 0.235796 8.25402e-20)
(0.276743 0.288902 -1.07099e-19)
(0.433666 0.323642 0)
(0.568742 0.341613 8.54012e-21)
(0.681933 0.345829 9.78933e-20)
(0.774798 0.3395 6.89512e-20)
(0.849775 0.325509 -6.4901e-20)
(0.909678 0.306317 4.05013e-20)
(0.957311 0.283923 0)
(0.99523 0.2599 -3.89131e-21)
(1.02563 0.235446 0)
(1.05033 0.21145 -3.45038e-21)
(1.07076 0.188556 0)
(1.08803 0.167218 0)
(1.10295 0.147741 1.25326e-21)
(1.11607 0.130343 -2.34511e-21)
(1.12787 0.115118 -1.13213e-21)
(1.13836 0.102374 -1.02289e-21)
(1.14821 0.0913754 2.07014e-21)
(1.15475 0.0838679 1.65151e-21)
(1.17084 0.0731542 2.68694e-21)
(-0.44605 0.0128644 0)
(-0.301023 0.0314887 0)
(-0.138775 0.113219 -7.54305e-20)
(0.0198327 0.188332 6.88291e-20)
(0.171352 0.247013 0)
(0.310757 0.287688 -2.27889e-19)
(0.434962 0.311892 2.59347e-19)
(0.542789 0.322289 -8.77458e-20)
(0.634718 0.321645 3.99655e-20)
(0.712142 0.312603 0)
(0.776824 0.297464 -4.03988e-20)
(0.830729 0.278157 0)
(0.875802 0.256272 -4.68936e-21)
(0.913816 0.233087 -4.02254e-21)
(0.946313 0.2096 -9.21353e-21)
(0.97458 0.186579 0)
(0.999658 0.16461 4.92966e-22)
(1.02237 0.144127 -2.39274e-21)
(1.04329 0.125491 2.84605e-24)
(1.06302 0.108874 4.89759e-21)
(1.08132 0.0947917 -9.61586e-22)
(1.10033 0.0823856 -6.02529e-21)
(1.11392 0.0739327 -3.26216e-21)
(1.14456 0.0628196 -3.29115e-22)
(-0.376035 -0.0972396 1.85977e-19)
(-0.28499 -0.0265291 2.35606e-19)
(-0.162239 0.0630669 0)
(-0.0389163 0.142104 0)
(0.0854234 0.203509 0)
(0.204181 0.247627 1.54524e-19)
(0.313601 0.276238 -1.19751e-19)
(0.41167 0.291565 0)
(0.497781 0.296018 -2.97189e-20)
(0.572421 0.291867 2.79647e-20)
(0.636687 0.281129 0)
(0.691862 0.265599 -2.06735e-20)
(0.739335 0.246791 1.96308e-20)
(0.780488 0.225957 -3.4329e-21)
(0.816592 0.204115 -7.24398e-21)
(0.848767 0.182081 6.29225e-22)
(0.877969 0.160505 -4.90834e-22)
(0.905014 0.139905 1.13531e-21)
(0.930508 0.120714 -1.79475e-21)
(0.95515 0.103233 1.99603e-21)
(0.978689 0.087902 8.84199e-22)
(1.00369 0.0743451 0)
(1.02354 0.0641075 -7.50817e-21)
(1.06169 0.0509002 7.10029e-21)
(-0.0118491 0.0462001 9.41733e-19)
(-0.05586 0.0837577 -3.61029e-19)
(-0.0974049 0.11332 1.63569e-20)
(-0.11124 0.127384 -2.4797e-19)
(-0.127319 0.13444 -1.17515e-19)
(0.0238175 0.0868924 0)
(-0.0306171 0.0655427 -4.10993e-19)
(-0.0786957 0.101648 -9.14831e-21)
(-0.109209 0.122873 2.71797e-19)
(-0.112855 0.129601 -4.7933e-20)
(-0.114507 0.118592 3.55141e-19)
(-0.0174923 0.0801036 -6.19017e-20)
(-0.0391394 0.0765991 -5.75661e-21)
(-0.0833432 0.111744 3.00291e-19)
(-0.110545 0.126961 -2.25691e-19)
(-0.11218 0.126678 1.77074e-19)
(-0.108588 0.106312 -2.15987e-19)
(-0.0486423 0.0654423 0)
(-0.0465498 0.0872004 0)
(-0.086563 0.120319 -6.98899e-20)
(-0.111296 0.130802 0)
(-0.113055 0.124443 0)
(-0.108782 0.0977093 6.07387e-20)
(-0.0735388 0.0550322 -2.1565e-20)
(-0.0544748 0.0992867 -2.07818e-20)
(-0.0901367 0.127889 6.60818e-20)
(-0.112573 0.134403 -1.5622e-21)
(-0.115493 0.12334 -8.95043e-21)
(-0.112686 0.0927813 0)
(-0.0937782 0.0498023 2.08077e-20)
(-0.0635863 0.108285 1.97637e-19)
(-0.0942582 0.134108 1.27536e-19)
(-0.114421 0.137852 0)
(-0.118957 0.123413 8.96829e-20)
(-0.118504 0.090941 6.73143e-20)
(-0.109978 0.0485861 7.05311e-21)
(-0.0719325 0.117092 -2.0672e-19)
(-0.0986147 0.138988 -1.27861e-19)
(-0.116587 0.141271 1.7798e-20)
(-0.122892 0.124694 -1.5631e-19)
(-0.12493 0.0915025 -9.06666e-20)
(-0.122725 0.0501142 2.88723e-20)
(-0.0761065 0.129028 4.37859e-19)
(-0.101793 0.143203 -1.52176e-20)
(-0.118629 0.144848 2.11732e-19)
(-0.126812 0.127189 -8.86143e-20)
(-0.131134 0.0939703 0)
(-0.1325 0.0534675 0)
(-0.0788347 0.136411 -4.50902e-19)
(-0.103665 0.147152 2.5082e-19)
(-0.120232 0.14881 -1.85059e-19)
(-0.130329 0.130905 -1.95663e-21)
(-0.136588 0.0980432 1.34517e-19)
(-0.139665 0.0580864 0)
(-0.0813641 0.142414 1.36539e-20)
(-0.104486 0.151068 -7.40282e-19)
(-0.121181 0.153327 0)
(-0.13314 0.13586 1.93303e-19)
(-0.14094 0.10358 -1.68201e-19)
(-0.144438 0.0636752 -3.00613e-19)
(-0.083755 0.147351 0)
(-0.104301 0.155007 4.81958e-19)
(-0.121311 0.158509 -2.32106e-20)
(-0.135011 0.14209 1.97015e-20)
(-0.143949 0.110564 0)
(-0.14691 0.070315 2.43018e-19)
(-0.0856109 0.150866 9.28462e-19)
(-0.103064 0.158968 4.71318e-19)
(-0.120475 0.164427 0)
(-0.135761 0.149639 3.98572e-20)
(-0.145472 0.119054 -3.52905e-20)
(-0.147143 0.0781316 2.55398e-19)
(-0.086454 0.152768 1.67835e-20)
(-0.100739 0.162938 -4.88659e-19)
(-0.118551 0.171118 0)
(-0.135263 0.158555 -3.27819e-19)
(-0.145432 0.12917 0)
(-0.145197 0.0873494 -2.58587e-19)
(-0.0858502 0.153174 -8.87795e-19)
(-0.0973161 0.166874 0)
(-0.115446 0.178578 3.87353e-19)
(-0.13343 0.168878 3.30567e-19)
(-0.143795 0.141076 7.44613e-20)
(-0.141152 0.0982548 -6.80656e-20)
(-0.0832435 0.152762 -1.39632e-20)
(-0.0928402 0.170719 1.57674e-20)
(-0.11111 0.186755 -3.91405e-19)
(-0.130217 0.180616 -4.29039e-20)
(-0.140558 0.154952 3.49897e-19)
(-0.135148 0.111162 -7.04035e-20)
(-0.0775983 0.153195 8.79964e-19)
(-0.0875362 0.17449 0)
(-0.105555 0.195513 -5.07344e-20)
(-0.125621 0.193696 4.33826e-20)
(-0.13576 0.170986 -3.96423e-19)
(-0.127464 0.126386 1.47318e-19)
(-0.0638796 0.154343 -8.39171e-19)
(-0.081992 0.177816 -5.21972e-19)
(-0.0988628 0.204511 -2.53073e-20)
(-0.119656 0.207927 0)
(-0.129461 0.189329 0)
(-0.118649 0.144165 7.7268e-20)
(-0.0551693 0.148499 8.43697e-19)
(-0.0769059 0.179443 1.02778e-18)
(-0.0911141 0.213096 -3.98845e-19)
(-0.112294 0.22299 3.75337e-19)
(-0.12171 0.210052 3.45843e-19)
(-0.109417 0.164387 -4.08351e-19)
(-0.0518864 0.137369 -7.27453e-19)
(-0.0718069 0.178472 -1.08159e-18)
(-0.0821427 0.220537 -2.51258e-21)
(-0.103392 0.238396 -8.22518e-19)
(-0.112524 0.233269 -2.1843e-19)
(-0.100958 0.186699 -9.2263e-20)
(-0.0478047 0.123601 2.20938e-20)
(-0.0656092 0.174518 5.03939e-19)
(-0.0716037 0.226197 5.401e-19)
(-0.092726 0.253295 -5.32957e-20)
(-0.101476 0.259601 0)
(-0.0952315 0.210846 7.07767e-19)
(-0.0414232 0.108277 -6.99165e-19)
(-0.0581018 0.167386 1.89192e-20)
(-0.0592907 0.229538 -2.92188e-20)
(-0.0798758 0.26649 8.42566e-19)
(-0.0871819 0.290331 9.92685e-20)
(-0.09205 0.23668 -4.56032e-19)
(-0.0365873 0.0935398 1.57497e-18)
(-0.049748 0.157161 -1.94735e-20)
(-0.0455231 0.230088 -6.52578e-20)
(-0.0648556 0.276085 -8.93665e-19)
(-0.0669768 0.326773 -3.57831e-19)
(-0.0844603 0.265373 0)
(-0.0323769 0.0767413 -6.5086e-21)
(-0.0408026 0.142613 0)
(-0.0311346 0.226299 -7.01455e-20)
(-0.049064 0.277586 5.31997e-19)
(-0.0382028 0.369525 4.26678e-19)
(-0.0642273 0.295899 0)
(-0.0277892 0.0422236 -9.46032e-19)
(-0.0338084 0.10555 2.31025e-20)
(-0.0168888 0.201132 1.94052e-21)
(-0.0298978 0.246607 -3.04466e-20)
(0.00509549 0.40496 -6.11164e-20)
(-0.0451232 0.299429 2.77326e-19)
(-0.192291 -0.157424 -4.52825e-19)
(-0.232666 -0.0628318 -1.3992e-19)
(-0.165444 0.0258429 3.30218e-20)
(-0.0787539 0.102269 1.1286e-19)
(0.0179328 0.162288 -4.8428e-20)
(0.115061 0.206942 -1.01802e-19)
(0.207694 0.23772 8.04024e-20)
(0.293049 0.256467 -5.46783e-21)
(0.369905 0.265046 5.94395e-20)
(0.43795 0.265288 -2.65772e-20)
(0.497586 0.258954 -1.65881e-20)
(0.54961 0.247586 1.93595e-20)
(0.594963 0.232542 -3.04463e-20)
(0.634657 0.214969 1.80507e-20)
(0.669709 0.195819 -4.00082e-21)
(0.701066 0.175888 -4.34587e-23)
(0.729581 0.155832 -6.06907e-22)
(0.756014 0.136198 2.25087e-21)
(0.781007 0.11744 -3.60056e-21)
(0.805201 0.0999444 -4.05723e-21)
(0.82882 0.0840054 -9.81919e-23)
(0.853207 0.0698271 -1.88413e-21)
(0.876078 0.0574443 -1.54643e-21)
(0.91036 0.0434005 -9.0369e-22)
(-0.123436 -0.1214 2.22225e-19)
(-0.192905 -0.0662439 0)
(-0.162813 0.00462866 -1.0402e-19)
(-0.105423 0.0710435 -1.32474e-19)
(-0.0330981 0.125615 0)
(0.0437598 0.167961 9.99641e-20)
(0.119716 0.198785 -2.87979e-20)
(0.19151 0.219267 -4.1147e-20)
(0.257422 0.230758 -5.83922e-20)
(0.316759 0.234657 2.57258e-20)
(0.369425 0.232304 1.64919e-20)
(0.415778 0.224985 -1.17546e-20)
(0.456418 0.213828 6.2859e-21)
(0.492059 0.199819 -3.85142e-21)
(0.523467 0.183826 -5.89199e-21)
(0.551402 0.166588 -3.67103e-21)
(0.576582 0.148727 6.61716e-22)
(0.599672 0.130765 1.38358e-21)
(0.621271 0.113145 3.15323e-21)
(0.641937 0.0962476 6.01229e-21)
(0.662104 0.0803422 -1.7786e-21)
(0.682412 0.0656317 -4.75052e-21)
(0.70332 0.0518213 7.89753e-21)
(0.728811 0.0392104 1.08164e-21)
(-0.107114 -0.0818089 0)
(-0.171356 -0.0570791 -1.78574e-20)
(-0.160618 -0.0065731 1.60994e-20)
(-0.123025 0.0469486 1.03499e-19)
(-0.0695469 0.0936862 0)
(-0.00951098 0.131688 0)
(0.0517973 0.160777 1.75347e-21)
(0.111115 0.181491 2.1514e-20)
(0.166526 0.19463 0)
(0.217069 0.201126 0)
(0.262406 0.201972 2.3003e-20)
(0.302616 0.198123 -1.25221e-20)
(0.338061 0.190451 5.43982e-21)
(0.369244 0.179762 5.06964e-21)
(0.396747 0.166792 0)
(0.421159 0.152189 1.18225e-21)
(0.443054 0.136519 -6.51144e-22)
(0.462978 0.120282 0)
(0.481401 0.103894 -1.15817e-21)
(0.498716 0.0876721 2.64063e-21)
(0.515332 0.0718358 -2.5411e-21)
(0.531709 0.0565503 4.69615e-22)
(0.548677 0.0421225 1.98041e-21)
(0.568049 0.0305493 -1.9489e-21)
(-0.110688 -0.0541101 0)
(-0.161512 -0.0467176 -3.47061e-20)
(-0.159349 -0.0131641 -2.90629e-20)
(-0.133566 0.0275636 0)
(-0.0929199 0.0656034 1.03362e-21)
(-0.0451459 0.0981176 2.44019e-21)
(0.00499787 0.124252 -1.13723e-20)