/*--------------------------------*- C++ -*----------------------------------*\
  =========                 |
  \\      /  F ield         | OpenFOAM: The Open Source CFD Toolbox
   \\    /   O peration     | Website:  https://openfoam.org
    \\  /    A nd           | Version:  11
     \\/     M anipulation  |
\*---------------------------------------------------------------------------*/
FoamFile
{
    format      ascii;
    class       volScalarField;
    location    "1.78";
    object      epsilon;
}
// * * * * * * * * * * * * * * * * * * * * * * * * * * * * * * * * * * * * * //

dimensions      [0 2 -3 0 0 0 0];

internalField   nonuniform List<scalar> 
2880
(
2.08611
3.80358
6.06589
6.97359
7.73555
37.6609
0.906558
1.80858
3.1123
4.03161
5.03407
10.6344
0.245156
1.47037
2.45978
3.20231
3.89344
5.69573
0.267699
1.39663
2.176
2.72245
3.14195
3.80252
0.280776
1.39804
1.99728
2.35054
2.57453
2.80772
1.21153
1.43765
1.86037
2.0504
2.13252
2.17211
1.28236
1.4542
1.74463
1.80863
1.79112
1.7353
1.34913
1.45575
1.64227
1.61477
1.52808
1.42073
1.40263
1.44251
1.55092
1.45817
1.32621
1.19117
1.4381
1.41621
1.47093
1.33151
1.17191
1.02271
1.45482
1.37977
1.40268
1.23106
1.05457
0.898332
1.45509
1.33771
1.34569
1.15419
0.966483
0.806379
1.44445
1.29345
1.30012
1.0988
0.902048
0.738971
1.41426
1.24881
1.26687
1.06283
0.857428
0.690828
1.36445
1.20479
1.24635
1.04682
0.830418
0.658541
1.3
1.16141
1.23885
1.0474
0.821801
0.64024
1.23028
1.11742
1.24037
1.06776
0.829157
0.635918
0.280268
1.06907
1.2523
1.1106
0.858069
0.645179
0.273487
1.01612
1.27255
1.18053
0.916255
0.672492
0.259914
0.964418
1.29924
1.28505
1.01984
0.72665
0.240094
0.897855
1.33351
1.43718
1.20387
0.830231
0.215489
0.823494
1.3676
1.67719
1.55355
1.04917
0.792643
0.795308
1.39293
2.14901
2.32372
1.64696
1.72171
1.18044
1.69328
3.23894
4.25769
4.18667
17.1727
6.55912
3.07448
1.58372
0.841065
0.454679
0.251639
0.143664
0.0850036
0.0522068
0.0332722
0.0219804
0.0150346
0.0106363
0.00777491
0.0058648
0.00455695
0.00363736
0.00297057
0.00246615
0.00205748
0.00169333
0.0013404
0.00090567
8.09215
4.18835
2.27175
1.22704
0.660908
0.359134
0.199479
0.1143
0.0678661
0.0418061
0.0267056
0.0176727
0.0121034
0.00857116
0.00627098
0.004735
0.00368362
0.00294508
0.00241044
0.0020064
0.00167816
0.00138499
0.00110719
0.000788445
4.93071
3.04228
1.73281
0.953102
0.517624
0.28302
0.158138
0.0911157
0.0543571
0.0336098
0.0215303
0.014278
0.00979471
0.0069464
0.00508969
0.00384928
0.00300016
0.00240384
0.00197228
0.00164604
0.00138065
0.00114493
0.000928313
0.000695158
3.44363
2.27185
1.32586
0.73887
0.405032
0.223313
0.125732
0.0729197
0.0437292
0.0271449
0.0174391
0.0115895
0.00796395
0.00565663
0.00415115
0.00314495
0.00245615
0.00197258
0.00162289
0.00135895
0.00114498
0.000957379
0.000790814
0.000621277
2.53088
1.70892
1.01741
0.574371
0.318166
0.177064
0.100505
0.058676
0.0353662
0.0220349
0.0141935
0.00945066
0.00650397
0.00462607
0.00340003
0.00258065
0.00202012
0.00162717
0.00134378
0.00113086
0.000959616
0.000812103
0.000685684
0.000563306
1.91482
1.30489
0.788394
0.450201
0.251903
0.141455
0.0809086
0.0475225
0.0287733
0.0179846
0.0116101
0.00774253
0.00533504
0.00379944
0.00279692
0.00212753
0.00167046
0.00135104
0.00112185
0.000950975
0.000815141
0.000700543
0.000605744
0.000518082
1.48427
1.01628
0.619708
0.357075
0.201523
0.114053
0.0656668
0.0387689
0.0235612
0.0147646
0.00954759
0.00637453
0.00439693
0.00313534
0.00231247
0.00176417
0.00139105
0.00113163
0.000946886
0.00081062
0.00070385
0.000615767
0.000545332
0.000482926
1.18271
0.808576
0.49535
0.287185
0.163145
0.0929041
0.0537708
0.0318743
0.0194269
0.0121969
0.00789658
0.00527677
0.0036432
0.00260183
0.00192393
0.00147375
0.00116895
0.000958554
0.000810219
0.000702229
0.000618982
0.000551849
0.000499836
0.000455624
0.968311
0.657703
0.403131
0.23445
0.133749
0.076494
0.0444404
0.0264203
0.0161352
0.0101431
0.00657204
0.0043947
0.00303751
0.00217372
0.00161314
0.00124264
0.000993487
0.0008231
0.000704423
0.000619303
0.000554809
0.000503934
0.000465638
0.000434442
0.813264
0.54688
0.334117
0.194325
0.111059
0.0636735
0.0370794
0.022085
0.0135044
0.00849557
0.0055074
0.00368539
0.00255098
0.0018308
0.00136535
0.00105961
0.000855746
0.000717887
0.000623196
0.000556362
0.000506602
0.000468162
0.000439984
0.000418066
0.699727
0.46452
0.281892
0.163478
0.093384
0.0535793
0.0312349
0.0186213
0.0113935
0.00717037
0.0046503
0.00311477
0.0021605
0.0015567
0.00116848
0.000915361
0.000748284
0.000636743
0.000561284
0.0005089
0.000470573
0.000441553
0.000420813
0.000405505
0.615909
0.402622
0.241895
0.139494
0.0794788
0.0455654
0.0265631
0.0158395
0.00969326
0.00610166
0.00395936
0.00265567
0.00184747
0.00133814
0.00101265
0.000802248
0.000664948
0.000574569
0.00051439
0.000473303
0.000443768
0.000421855
0.000406596
0.000395998
0.553912
0.355657
0.210894
0.120627
0.068425
0.0391476
0.022803
0.0135935
0.00831864
0.00523781
0.0034018
0.00228639
0.00159689
0.00116434
0.000889783
0.000713995
0.000600704
0.000527224
0.000479073
0.000446742
0.000423935
0.000407386
0.000396192
0.000388947
0.508406
0.319779
0.186582
0.105604
0.0595421
0.0339618
0.0197553
0.0117709
0.00720345
0.0045382
0.00295165
0.00198956
0.00139667
0.00102654
0.000793313
0.000645505
0.000551479
0.000491394
0.000452631
0.000427039
0.000409368
0.000396887
0.000388729
0.00038386
0.475799
0.292279
0.167294
0.0934907
0.052322
0.0297321
0.0172674
0.0102844
0.00629602
0.00397088
0.00258827
0.00175134
0.00123713
0.000917703
0.00071794
0.000592665
0.000514011
0.000464467
0.000432976
0.000412543
0.000398785
0.000389402
0.000383532
0.00038033
0.453713
0.27122
0.151809
0.0835916
0.0463813
0.0262482
0.0152221
0.0090666
0.00555598
0.00351072
0.00229537
0.0015607
0.00111053
0.000832192
0.000659416
0.000552186
0.000485709
0.0004444
0.000418508
0.000402001
0.000391206
0.000384174
0.000380047
0.000378003
0.440651
0.255184
0.139215
0.0753834
0.0414277
0.0233484
0.0135287
0.00806504
0.00495182
0.00313799
0.00206012
0.00140895
0.00101075
0.000765555
0.000614387
0.000521475
0.000464547
0.00042961
0.000408002
0.000394468
0.000385888
0.000380597
0.000377825
0.000376535
0.435769
0.243087
0.128819
0.0684716
0.0372383
0.0209087
0.0121174
0.00723922
0.00445909
0.00283734
0.00187247
0.00128932
0.000933057
0.000714353
0.000580286
0.000498569
0.000449007
0.000418927
0.000400559
0.000389267
0.000382338
0.000378349
0.000376441
0.000375638
0.43888
0.23403
0.120084
0.0625683
0.0336473
0.0188342
0.0109352
0.00655825
0.00405899
0.00259689
0.00172465
0.00119653
0.000873778
0.000675964
0.000555189
0.000482033
0.00043801
0.000411529
0.000395537
0.000385879
0.000380141
0.000377074
0.000375694
0.000375186
0.450448
0.227544
0.112452
0.0572999
0.0305157
0.0170536
0.00994286
0.00599911
0.00373738
0.00240759
0.00161072
0.00112658
0.000830117
0.000648387
0.000537633
0.000470788
0.000430755
0.000406814
0.000392469
0.00038392
0.000378962
0.000376465
0.000375393
0.000375045
0.472024
0.223212
0.105245
0.052386
0.0277048
0.0155155
0.00911328
0.00554547
0.00348396
0.00226281
0.00152625
0.00107645
0.000799979
0.000630123
0.000526528
0.000464032
0.000426651
0.000404344
0.00039103
0.00038316
0.000378663
0.000376387
0.000375382
0.000375037
0.508572
0.219067
0.0976704
0.0475896
0.0251339
0.0141902
0.00842982
0.00518674
0.0032918
0.00215791
0.00146817
0.00104404
0.000781912
0.000620145
0.00052114
0.00046125
0.000425319
0.00040385
0.000391022
0.000383405
0.000379013
0.000376692
0.000375582
0.000375102
0.564231
0.211186
0.0888211
0.0427622
0.0227788
0.0130698
0.00788541
0.00491729
0.0031568
0.0020901
0.00143455
0.00102806
0.000775085
0.000617862
0.000521054
0.000462104
0.000426565
0.000405178
0.000392304
0.00038458
0.000380012
0.000377398
0.000375982
0.000375251
0.619905
0.192635
0.0779995
0.037944
0.0206853
0.0121667
0.00748124
0.00473575
0.00307743
0.00205821
0.00142464
0.00102793
0.000778895
0.000623083
0.000526244
0.000466708
0.000430425
0.000408368
0.000394925
0.000386698
0.000381641
0.000378527
0.000376651
0.000375535
1.8573
1.53539
2.69084
3.25458
3.39386
3.43615
0.852591
1.37374
1.92246
2.05632
1.77733
1.21229
0.233653
1.37147
1.59289
1.42895
1.03389
0.573216
0.258891
1.36417
1.4117
1.08644
0.705638
0.365198
1.1988
1.36759
1.27817
0.887782
0.544304
0.28413
1.48607
1.35715
1.17698
0.773324
0.465134
0.251703
1.74401
1.33741
1.10529
0.711655
0.430794
0.243702
1.96317
1.32407
1.06022
0.685535
0.42437
0.25007
2.14045
1.32117
1.03917
0.685394
0.435238
0.270624
2.27528
1.3298
1.03985
0.705233
0.46572
0.303318
2.36796
1.35048
1.05925
0.745818
0.512829
0.349047
2.41893
1.38376
1.09986
0.805356
0.577621
0.410238
2.42986
1.4303
1.15977
0.884477
0.662306
0.490424
2.4221
1.49244
1.23875
0.984425
0.769995
0.594342
2.40212
1.56853
1.33609
1.10653
0.904408
0.728088
2.36127
1.65255
1.44981
1.25151
1.06933
0.89926
2.29028
1.73559
1.57599
1.41863
1.26778
1.11666
2.1788
1.80545
1.70841
1.60513
1.50095
1.38931
2.01236
1.84662
1.83925
1.80672
1.76747
1.72461
1.76375
1.84363
1.96453
2.01906
2.06459
2.13984
1.38126
1.79942
2.09332
2.24898
2.39493
2.67542
0.279
1.69508
2.2854
2.54708
2.80205
3.39115
1.06219
1.90318
2.8094
3.18106
3.5491
4.42888
2.68492
3.82422
5.45724
5.83548
5.63985
6.19976
0.492335
0.154908
0.065708
0.0334787
0.0189762
0.0115095
0.00722485
0.00464429
0.0030544
0.00206246
0.00143858
0.00104416
0.000794212
0.000636206
0.000536976
0.000475235
0.000437108
0.000413602
0.000399036
0.000389902
0.000384042
0.000380187
0.00037767
0.000376023
0.313143
0.116616
0.0549848
0.0299414
0.0178186
0.011132
0.0071275
0.00464809
0.00309078
0.00210519
0.00147817
0.00107773
0.000821541
0.000657869
0.00055384
0.000488204
0.000447038
0.00042123
0.000404929
0.000394434
0.000387422
0.000382549
0.000379187
0.000376843
0.210655
0.0914724
0.0476616
0.0277459
0.0172563
0.0110589
0.00720196
0.00475475
0.00319156
0.00218972
0.00154574
0.00113058
0.000862419
0.000689255
0.000577784
0.000506387
0.00046084
0.000431756
0.000413009
0.000400627
0.000392057
0.000385859
0.000381423
0.000378189
0.160131
0.077767
0.0437787
0.0269541
0.0173041
0.0113106
0.00746329
0.00497501
0.00336442
0.00232161
0.00164536
0.00120569
0.000919121
0.000732109
0.000610175
0.000530868
0.000479376
0.000445869
0.000423838
0.00040896
0.000398371
0.000390454
0.000384499
0.00038018
0.13725
0.0719974
0.0429029
0.02738
0.0179844
0.0119124
0.00793216
0.0053242
0.00362045
0.00250888
0.0017829
0.00130741
0.000994904
0.000788931
0.000652973
0.000563206
0.000503903
0.000464586
0.000438236
0.000420075
0.000406824
0.000396593
0.00038861
0.000382901
0.129921
0.0718548
0.0443804
0.0290685
0.0193322
0.0129029
0.00863877
0.00582432
0.00397538
0.00276282
0.00196653
0.00144175
0.00109431
0.000863218
0.000708931
0.000605616
0.000536217
0.000489352
0.000457332
0.00043481
0.000418
0.000404761
0.000394408
0.000386793
0.132102
0.0760609
0.0483631
0.0320357
0.0214228
0.0143438
0.0096276
0.00650658
0.00445112
0.00309894
0.00220744
0.00161695
0.00122351
0.000959708
0.000781765
0.000661064
0.000578714
0.000522105
0.000482683
0.000454417
0.000432932
0.000415814
0.000402456
0.000392264
0.142496
0.0848265
0.0547807
0.036445
0.0243891
0.0163292
0.010963
0.00741483
0.00507784
0.0035384
0.00252075
0.00184405
0.00139076
0.0010847
0.000876373
0.000733429
0.000634508
0.000565368
0.000516339
0.000480547
0.000452919
0.000430713
0.000413402
0.000399673
0.160588
0.0982921
0.0640281
0.0425997
0.028441
0.0189984
0.0127368
0.00861015
0.00589693
0.00410985
0.00292679
0.00213781
0.00160702
0.0012465
0.000999202
0.000827806
0.000707701
0.000622486
0.00056104
0.000515424
0.0004797
0.000450717
0.000428084
0.000409488
0.187145
0.117291
0.0768039
0.0509821
0.0338938
0.0225539
0.0150793
0.0101776
0.00696518
0.00485218
0.00345288
0.00251795
0.00188686
0.00145616
0.00115878
0.000950925
0.000803708
0.00069789
0.000620439
0.000562034
0.000515637
0.000477561
0.000447662
0.000422319
0.223984
0.143306
0.094198
0.0623193
0.0412125
0.0272885
0.0181757
0.0122363
0.00836095
0.00581841
0.00413595
0.00301089
0.00224972
0.00172829
0.00136639
0.00111168
0.000929687
0.000797436
0.000699375
0.000624365
0.000563928
0.000513643
0.000473746
0.000438979
0.273698
0.178589
0.117836
0.0776887
0.0510802
0.0336278
0.0222913
0.0149543
0.0101934
0.00708143
0.00502618
0.00365224
0.00272158
0.00208239
0.00163701
0.00132186
0.0010951
0.00092886
0.000804251
0.000707722
0.000628878
0.000562253
0.000508574
0.000460556
0.34009
0.2264
0.150095
0.0986775
0.0645035
0.0421948
0.027811
0.0185722
0.0126165
0.00874272
0.00619256
0.00449039
0.00333744
0.00254452
0.00199057
0.00159708
0.00131247
0.00110238
0.000943528
0.000819139
0.000716251
0.000627863
0.000555233
0.000488522
0.428443
0.291354
0.194416
0.127619
0.0829726
0.0539116
0.0352999
0.0234396
0.0158508
0.0109456
0.00773114
0.0055919
0.00414492
0.00314981
0.00245374
0.00195813
0.00159838
0.00133153
0.0011284
0.000967955
0.000833749
0.000716536
0.000617969
0.00052483
0.545845
0.379853
0.255715
0.167923
0.108699
0.0701544
0.0455994
0.0300721
0.020218
0.0138958
0.00977793
0.00704967
0.00520964
0.00394612
0.00306253
0.00243288
0.00197497
0.00163428
0.00137376
0.00116661
0.000991715
0.000836515
0.000702621
0.00057201
0.701574
0.500566
0.340864
0.224511
0.144953
0.0929855
0.0599754
0.0392421
0.0261949
0.0178947
0.0125291
0.00899582
0.00662367
0.0049998
0.00386632
0.0030592
0.00247212
0.0020348
0.00169953
0.00143181
0.00120418
0.00099918
0.000817359
0.000633254
0.907712
0.664798
0.459138
0.304294
0.196489
0.125483
0.0803424
0.0521209
0.0345002
0.0233916
0.0162734
0.0116221
0.00851885
0.00640477
0.0049343
0.00388976
0.00313112
0.00256633
0.00213312
0.00178654
0.00149062
0.00122076
0.00097414
0.000712612
1.17994
0.88664
0.622376
0.416541
0.270022
0.17217
0.109586
0.0704951
0.0462319
0.0310684
0.0214444
0.0152128
0.0110884
0.00829726
0.00636617
0.00500016
0.00401124
0.00327676
0.00271417
0.00226427
0.00187981
0.00152606
0.00119226
0.000815999
1.53825
1.18312
0.844682
0.572861
0.374534
0.239465
0.151984
0.0970822
0.0630786
0.0419742
0.0287048
0.0201984
0.0146219
0.0108798
0.00830967
0.00650288
0.00520184
0.00423989
0.00350566
0.0029201
0.00242105
0.00196016
0.00151001
0.000959336
1.99618
1.57504
1.14112
0.786244
0.521036
0.335942
0.213645
0.135944
0.0876295
0.0577343
0.039081
0.0272415
0.0195612
0.0144595
0.0109884
0.00856961
0.00684259
0.00557651
0.00461853
0.00386179
0.00322434
0.00263868
0.00204675
0.00127401
2.56216
2.07619
1.52223
1.06787
0.720981
0.471891
0.302714
0.192909
0.12378
0.0808568
0.0541718
0.0373726
0.0265883
0.0195052
0.0147407
0.0114593
0.00914617
0.00747688
0.00624133
0.00529876
0.00454913
0.00392511
0.00345207
0.0034276
3.2593
2.66888
1.98156
1.42015
0.982248
0.657352
0.428792
0.275735
0.177138
0.11513
0.0764517
0.0521975
0.0367598
0.0267313
0.0200682
0.0155411
0.0124014
0.0101878
0.00861421
0.00750494
0.00675271
0.00631002
0.00626998
0.00691752
4.06895
3.24741
2.47172
1.82321
1.30135
0.897599
0.60071
0.393411
0.255139
0.166008
0.109659
0.0741972
0.0517115
0.0372279
0.027712
0.0213315
0.0169788
0.0139835
0.0119441
0.0106267
0.00989925
0.00971493
0.0101354
0.0112942
4.808
3.70603
2.89861
2.22294
1.65275
1.18556
0.821778
0.553735
0.36623
0.240664
0.159153
0.107108
0.0739631
0.0526791
0.0388047
0.0296043
0.0234193
0.0192539
0.0165198
0.014875
0.0141198
0.014159
0.0149559
0.0165579
2.07738
2.91037
3.55451
3.59434
3.08932
3.20386
0.906888
1.31501
1.69494
1.81638
1.76293
2.1148
0.242199
1.05914
1.3646
1.45082
1.47501
1.77798
0.263974
1.0335
1.27568
1.33872
1.37791
1.61684
0.280202
1.08694
1.25726
1.30793
1.34977
1.53593
1.2866
1.17143
1.26703
1.30827
1.35064
1.50144
1.46321
1.23182
1.29
1.32677
1.36984
1.49372
1.60705
1.2748
1.31644
1.35419
1.39941
1.50564
1.71847
1.30359
1.34314
1.38647
1.43561
1.53142
1.80041
1.32097
1.36968
1.42209
1.47649
1.56656
1.85549
1.33069
1.3969
1.46084
1.52102
1.60818
1.88669
1.33612
1.42593
1.50319
1.56903
1.65454
1.89369
1.33962
1.45785
1.55005
1.6209
1.70446
1.87211
1.34101
1.49387
1.60266
1.67743
1.75734
1.81654
1.34
1.53533
1.6627
1.74009
1.81336
1.72722
1.33645
1.58365
1.73253
1.81149
1.87409
1.60576
1.3304
1.6403
1.81586
1.89622
1.94327
1.45572
1.32164
1.70625
1.91922
2.00222
2.02844
1.28455
1.30973
1.78223
2.05115
2.14408
2.14612
1.18762
1.29394
1.86917
2.22748
2.35206
2.33075
0.263378
1.27924
1.97087
2.47948
2.68146
2.66203
0.239059
1.28092
2.10769
2.87112
3.26272
3.37848
0.884315
1.37711
2.41286
3.60241
4.41677
5.42836
1.94231
2.12943
3.68158
5.64302
6.4562
6.21359
5.22186
4.22976
3.26245
2.57235
1.99532
1.49779
1.08408
0.758883
0.517396
0.347082
0.231904
0.15625
0.107293
0.0756765
0.0551032
0.0415543
0.0325459
0.0265762
0.0227529
0.0205464
0.0196277
0.0197929
0.0209116
0.0229298
5.18313
4.83056
3.73351
2.9073
2.30866
1.80531
1.36805
1.00141
0.710267
0.49164
0.335515
0.228446
0.157036
0.110089
0.0793103
0.059042
0.0456372
0.0368334
0.031257
0.0280693
0.0267265
0.0268774
0.0282239
0.0306597
4.15683
5.25417
4.48029
3.35333
2.62909
2.09794
1.6521
1.26477
0.937865
0.675466
0.475758
0.330923
0.229894
0.161304
0.11543
0.0849219
0.0646878
0.051408
0.0429889
0.0381099
0.0358885
0.0357817
0.0372091
0.0400588
3.00848
5.14224
4.97995
4.05843
3.06411
2.41263
1.93288
1.53296
1.18628
0.892061
0.653275
0.468822
0.332691
0.235908
0.168931
0.123369
0.0927368
0.0724522
0.0594512
0.0517163
0.0478603
0.047015
0.0483564
0.0515236
2.38032
4.4545
5.12235
4.70848
3.6927
2.82561
2.23833
1.8025
1.44108
1.12831
0.861298
0.641978
0.469781
0.340245
0.246257
0.179942
0.134153
0.10321
0.0829676
0.0705199
0.0637811
0.0613941
0.0623225
0.0656039
2.05873
3.55878
4.86121
4.92332
4.42303
3.41723
2.64045
2.10181
1.70133
1.37181
1.08739
0.843151
0.639988
0.477694
0.35313
0.260857
0.194547
0.148235
0.116987
0.0970104
0.0854032
0.0801227
0.0800646
0.083054
1.88441
2.90573
4.18867
4.83565
4.72412
4.12709
3.21007
2.4965
1.99466
1.62292
1.32022
1.05992
0.835112
0.645663
0.491604
0.370934
0.279719
0.213085
0.166192
0.134797
0.115369
0.10512
0.102538
0.105058
1.79705
2.50292
3.51708
4.42077
4.70713
4.50788
3.87907
3.04297
2.38108
1.90927
1.56138
1.28149
1.0421
0.834371
0.657094
0.510378
0.39315
0.302822
0.235874
0.188549
0.157312
0.138979
0.131598
0.132934
1.76305
2.27424
3.03256
3.86023
4.46336
4.5427
4.30637
3.67887
2.90731
2.28713
1.8397
1.51151
1.25113
1.03024
0.838065
0.672211
0.532663
0.419049
0.329916
0.262982
0.215617
0.185166
0.169682
0.168368
1.75923
2.15512
2.72923
3.40737
4.03752
4.40804
4.39438
4.12911
3.49865
2.7894
2.21015
1.78441
1.47176
1.22694
1.02175
0.843681
0.688918
0.556889
0.447544
0.360306
0.294006
0.247453
0.219994
0.213094
1.77701
2.10255
2.55499
3.10027
3.66178
4.11878
4.3256
4.26178
3.95739
3.34175
2.6969
2.15417
1.74499
1.44242
1.20831
1.01549
0.849787
0.705659
0.581573
0.477295
0.39277
0.328092
0.284824
0.26887
1.80794
2.08542
2.45762
2.90417
3.38301
3.82713
4.14302
4.23419
4.1331
3.79632
3.22211
2.62853
2.11861
1.7232
1.42614
1.19784
1.01267
0.856238
0.721856
0.605837
0.507175
0.425982
0.364916
0.336259
1.84551
2.08539
2.39945
2.7735
3.18044
3.58127
3.91978
4.12626
4.14574
4.01524
3.65376
3.12526
2.58546
2.10931
1.7261
1.43049
1.20209
1.01935
0.867263
0.738934
0.629601
0.536079
0.458543
0.414388
1.88536
2.09188
2.35705
2.67219
3.01858
3.37199
3.6981
3.95011
4.07737
4.05907
3.89655
3.52994
3.0609
2.57728
2.13587
1.76508
1.46769
1.2322
1.0444
0.891349
0.763947
0.656835
0.56442
0.502594
1.92456
2.09656
2.3148
2.57688
2.86919
3.17612
3.47604
3.73775
3.92351
3.99824
3.95398
3.77185
3.43812
3.03253
2.60748
2.2047
1.84916
1.54964
1.30392
1.10419
0.941681
0.808395
0.695257
0.610007
1.96186
2.09479
2.26511
2.47598
2.71702
2.97751
3.24348
3.49362
3.70088
3.83658
3.87684
3.81809
3.64165
3.36127
3.0232
2.66098
2.3033
1.97127
1.67698
1.42437
1.21208
1.03524
0.887848
0.767693
1.99785
2.08503
2.20578
2.36716
2.55911
2.77288
2.9987
3.22162
3.42239
3.57997
3.6739
3.69087
3.62878
3.4773
3.25562
2.98705
2.69083
2.38714
2.09299
1.81982
1.57454
1.35835
1.17384
1.01582
2.03443
2.06842
2.13845
2.25405
2.40122
2.57052
2.75306
2.93757
3.11014
3.2563
3.36194
3.41499
3.41252
3.35029
3.22617
3.05356
2.84612
2.6169
2.37863
2.14133
1.91247
1.69755
1.506
1.33851
2.07513
2.0475
2.06749
2.14315
2.25376
2.38568
2.52839
2.67165
2.80382
2.91588
2.99901
3.04495
3.05609
3.02648
2.9571
2.85205
2.71755
2.56029
2.38729
2.2065
2.02565
1.85107
1.69358
1.5601
2.12631
2.02272
1.99815
2.04136
2.12766
2.23492
2.34971
2.46128
2.55834
2.63073
2.67271
2.68754
2.67439
2.63292
2.56744
2.48206
2.38084
2.26762
2.14608
2.01978
1.89256
1.76947
1.65872
1.56001
2.20374
1.99522
1.93252
1.95365
2.03053
2.13192
2.24506
2.35284
2.44094
2.49369
2.51501
2.50337
2.45674
2.38263
2.2884
2.18082
2.06579
1.94799
1.83102
1.7176
1.61033
1.51284
1.4295
1.35406
2.33052
1.9678
1.86951
1.88156
1.96425
2.07908
2.20545
2.32383
2.41978
2.47461
2.49515
2.47702
2.41901
2.33118
2.22254
2.10119
1.97392
1.8459
1.72081
1.60116
1.48904
1.38704
1.29806
1.2196
2.54176
1.93678
1.80706
1.82435
1.92585
2.06277
2.21547
2.36718
2.49512
2.57519
2.60959
2.59752
2.53494
2.43636
2.31342
2.17739
2.0368
1.89765
1.76386
1.63776
1.52074
1.41398
1.31762
1.23202
2.8613
1.89032
1.74339
1.78043
1.90926
2.07953
2.27667
2.47586
2.64356
2.75016
2.78874
2.75524
2.67257
2.55802
2.42511
2.28324
2.13967
2.00003
1.86817
1.7464
1.63573
1.53562
1.44244
1.35554
1.88978
2.4244
5.00747
6.08598
6.29455
26.6744
0.853805
1.82943
3.20523
3.98769
4.94288
6.72227
0.236047
1.7385
2.62755
3.13357
3.56523
3.73309
0.261841
1.69431
2.31732
2.62646
2.79484
2.67427
1.18576
1.65175
2.09409
2.27537
2.34571
2.19842
1.29082
1.60061
1.91363
2.02269
2.05483
1.94393
1.42994
1.53818
1.76284
1.83127
1.84958
1.78724
1.54264
1.47444
1.63473
1.67861
1.69241
1.67376
1.62475
1.41393
1.52439
1.55086
1.56381
1.57584
1.67585
1.35691
1.42823
1.43996
1.45144
1.48544
1.69552
1.30341
1.34336
1.34104
1.34983
1.40027
1.69056
1.25387
1.26741
1.25129
1.25682
1.32157
1.65576
1.20899
1.19874
1.16908
1.17175
1.25291
1.60883
1.1706
1.13636
1.09347
1.09475
1.19873
1.54835
1.13619
1.07923
1.02385
1.02609
1.16327
1.47231
1.10101
1.02574
0.959696
0.965742
1.1499
1.37654
1.05609
0.973138
0.900485
0.913398
1.16168
1.24148
0.983041
0.917214
0.845907
0.868762
1.20355
0.280507
0.843064
0.853661
0.797234
0.831713
1.28109
0.269172
0.738125
0.795415
0.753027
0.801602
1.37734
0.252761
0.672512
0.755466
0.722265
0.780899
1.46645
0.231103
0.678623
0.762222
0.728731
0.782259
1.57817
0.870154
0.88002
0.899317
0.841467
0.849472
1.79485
2.14172
2.04934
1.86315
1.6254
1.35857
1.76065
2.82662
1.80606
1.68295
1.7524
1.91307
2.12494
2.37205
2.61695
2.79675
2.87642
2.86053
2.79573
2.69048
2.55986
2.41592
2.26822
2.12404
1.98767
1.86149
1.74662
1.64327
1.55072
1.46559
1.38125
2.38199
1.7197
1.64222
1.74876
1.94386
2.20317
2.50395
2.7798
2.92052
2.92507
2.8183
2.63735
2.44006
2.24886
2.07019
1.9091
1.76715
1.64375
1.53736
1.44589
1.36753
1.29939
1.2429
1.17901
2.06106
1.67015
1.63717
1.77897
2.01734
2.33972
2.70737
2.98007
3.07107
2.90989
2.57051
2.21535
1.90875
1.65438
1.4363
1.25648
1.10956
0.990422
0.894757
0.817488
0.757242
0.705679
0.672706
0.628879
1.88531
1.6579
1.66945
1.85345
2.15184
2.56247
2.99938
3.24922
3.18117
2.80002
2.26103
1.81487
1.47485
1.21211
1.01194
0.848399
0.712575
0.60014
0.508073
0.43288
0.372432
0.322708
0.285842
0.247856
1.7943
1.67118
1.74106
1.97853
2.36149
2.89438
3.38468
3.51189
3.23795
2.58825
1.97954
1.54357
1.23736
1.01036
0.827666
0.675518
0.548218
0.442679
0.356665
0.287997
0.234174
0.191452
0.158973
0.132518
1.74492
1.70405
1.84149
2.15347
2.66797
3.35683
3.81505
3.71383
3.16332
2.31702
1.72636
1.33829
1.06832
0.863663
0.697059
0.559339
0.446295
0.354342
0.280042
0.220409
0.173007
0.135944
0.108388
0.0911568
1.7083
1.74694
1.962
2.39256
3.11794
3.94721
4.18222
3.79816
2.84675
2.01588
1.49754
1.15508
0.906058
0.713561
0.559026
0.435981
0.339378
0.264451
0.206753
0.162407
0.128269
0.102215
0.0834386
0.0728695
1.672
1.79166
2.10901
2.74015
3.76765
4.54553
4.34945
3.56858
2.43695
1.72283
1.28463
0.982336
0.757884
0.581655
0.443031
0.336017
0.25475
0.193815
0.148652
0.115631
0.0919619
0.0756908
0.0656299
0.0613597
1.63353
1.83992
2.31361
3.27941
4.59568
4.86613
4.33433
3.02967
2.03841
1.46572
1.09524
0.828298
0.624733
0.468215
0.349984
0.261974
0.197075
0.149527
0.114963
0.0902475
0.0732137
0.0623019
0.0564134
0.0546519
1.59354
1.90977
2.6385
4.1021
5.24116
4.96072
3.7976
2.46776
1.71268
1.25044
0.927653
0.686325
0.504547
0.370112
0.272244
0.201775
0.151381
0.115532
0.0902464
0.0727589
0.0611895
0.0542415
0.0509867
0.0505162
1.55931
2.03637
3.18986
5.14446
5.46086
4.69919
3.07105
2.05885
1.46344
1.06329
0.772247
0.557746
0.401951
0.290401
0.211386
0.15581
0.116921
0.0899044
0.0714129
0.0591396
0.0514891
0.0473454
0.0459201
0.0462175
1.54436
2.27228
4.10469
5.82978
5.46998
3.94343
2.5468
1.75872
1.25236
0.893924
0.634377
0.448728
0.318128
0.227401
0.16476
0.121586
0.0918765
0.0715778
0.0579762
0.0492389
0.0440951
0.0416479
0.0412377
0.0418806
1.56598
2.68578
5.35038
6.02752
5.06494
3.22114
2.17409
1.51925
1.06555
0.74245
0.51491
0.357639
0.250461
0.177881
0.128744
0.0954038
0.0727857
0.0575706
0.0475845
0.0413803
0.0379551
0.0366074
0.0367545
0.0376136
1.64789
3.38543
6.28549
5.98742
4.30108
2.80038
1.90451
1.30952
0.895596
0.608745
0.413752
0.283365
0.196844
0.139405
0.10107
0.0753428
0.0580698
0.0465995
0.0392182
0.0347921
0.0325352
0.0318952
0.0323327
0.0333307
1.81821
4.5216
6.57708
5.64961
3.66533
2.44646
1.6591
1.11692
0.74447
0.494639
0.330606
0.22406
0.154876
0.109635
0.0797523
0.0598512
0.0465864
0.0378624
0.032341
0.0291406
0.0276516
0.0274383
0.0280357
0.0290555
2.08717
5.85795
6.5892
5.08441
3.29752
2.18938
1.44698
0.944798
0.612975
0.39909
0.263183
0.177028
0.122025
0.0864632
0.0631481
0.0477012
0.0374524
0.0307538
0.0265651
0.0242067
0.0232091
0.0232285
0.0238953
0.0248817
2.46647
6.87587
6.49411
4.56999
2.9681
1.93475
1.24246
0.788594
0.500005
0.320255
0.209046
0.139881
0.0962909
0.0683406
0.0501098
0.0380681
0.0300935
0.0248918
0.0216566
0.0198677
0.0191675
0.0192817
0.019956
0.0208837
3.01092
7.33493
6.34308
4.1636
2.68883
1.7024
1.05768
0.652692
0.405407
0.256179
0.165904
0.1106
0.0760832
0.0540859
0.0397889
0.0303589
0.0241091
0.0200208
0.0174676
0.016053
0.0155095
0.0156343
0.0162491
0.0171034
3.88675
7.48275
6.06987
3.89609
2.42699
1.47731
0.888099
0.534962
0.326881
0.204433
0.13161
0.087491
0.0601521
0.0428073
0.0315613
0.0241449
0.0192144
0.015963
0.0139004
0.0127229
0.012234
0.0122972
0.0127957
0.0135608
5.1146
7.55449
5.88483
3.60928
2.14975
1.26047
0.736826
0.435252
0.262557
0.162902
0.104391
0.0692334
0.0475592
0.0338514
0.0249766
0.0191191
0.015206
0.0125929
0.0108895
0.00985766
0.00934933
0.00927839
0.00959537
0.0102378
7.00511
7.9032
5.68202
3.27572
1.86605
1.05863
0.604882
0.351934
0.210256
0.129684
0.0828139
0.0548094
0.0376024
0.0267397
0.0197098
0.015062
0.0119378
0.00981874
0.00838759
0.00744767
0.006875
0.00660102
0.00663585
0.00705811
9.17847
8.49403
5.26592
2.88337
1.58277
0.875106
0.491656
0.282989
0.167952
0.103186
0.0657353
0.0434325
0.0297507
0.0211172
0.0155255
0.0118179
0.00930746
0.00757583
0.00636126
0.00549387
0.00485527
0.00436002
0.00397691
0.00389013
11.2343
8.80488
4.6815
2.45786
1.31175
0.712797
0.396142
0.226513
0.133933
0.0821207
0.052253
0.0344881
0.0235915
0.0167105
0.0122463
0.00927582
0.00725001
0.00583221
0.00480837
0.00403488
0.00340648
0.00283971
0.00227016
0.00144758
14.3267
8.63875
4.01193
2.01716
1.0608
0.572307
0.316622
0.180597
0.106689
0.065414
0.0416296
0.0274746
0.0187833
0.0132879
0.00971677
0.00733484
0.00570452
0.00455742
0.0037234
0.00308917
0.00257311
0.00211307
0.00165861
0.00105723
)
;

boundaryField
{
    rotor
    {
        type            epsilonWallFunction;
        value           nonuniform List<scalar> 
144
(
2.08611
3.80358
6.06589
6.97359
7.73555
37.6609
2.08611
0.906558
0.245156
0.267699
0.280776
1.21153
1.28236
1.34913
1.40263
1.4381
1.45482
1.45509
1.44445
1.41426
1.36445
1.3
1.23028
0.280268
0.273487
0.259914
0.240094
0.215489
0.792643
1.72171
1.72171
1.18044
1.69328
3.23894
4.25769
4.18667
1.8573
1.53539
2.69084
3.25458
3.39386
3.43615
1.8573
0.852591
0.233653
0.258891
1.1988
1.48607
1.74401
1.96317
2.14045
2.27528
2.36796
2.41893
2.42986
2.4221
2.40212
2.36127
2.29028
2.1788
2.01236
1.76375
1.38126
0.279
1.06219
2.68492
2.68492
3.82422
5.45724
5.83548
5.63985
6.19976
2.07738
2.91037
3.55451
3.59434
3.08932
3.20386
2.07738
0.906888
0.242199
0.263974
0.280202
1.2866
1.46321
1.60705
1.71847
1.80041
1.85549
1.88669
1.89369
1.87211
1.81654
1.72722
1.60576
1.45572
1.28455
1.18762
0.263378
0.239059
0.884315
1.94231
1.94231
2.12943
3.68158
5.64302
6.4562
6.21359
1.88978
2.4244
5.00747
6.08598
6.29455
26.6744
1.88978
0.853805
0.236047
0.261841
1.18576
1.29082
1.42994
1.54264
1.62475
1.67585
1.69552
1.69056
1.65576
1.60883
1.54835
1.47231
1.37654
1.24148
0.280507
0.269172
0.252761
0.231103
0.870154
2.14172
2.14172
2.04934
1.86315
1.6254
1.35857
1.76065
)
;
    }
    freestream
    {
        type            inletOutlet;
        inletValue      uniform 0.000375;
        value           nonuniform List<scalar> 
96
(
0.000375
0.000375
0.000375
0.000375
0.000375
0.000375
0.000375
0.000375
0.000375
0.000375
0.000375
0.000375
0.000375
0.000375
0.000375
0.000375
0.000375
0.000375
0.000375
0.000375
0.000375
0.000375
0.000375
0.000375
0.000375
0.000375
0.000375
0.000375
0.000375
0.000375
0.000375
0.000375
0.000375
0.000375
0.000375
0.000375
0.000375
0.000375
0.000375
0.000375
0.000375
0.000375
0.000375
0.000375
0.0034276
0.00691752
0.0112942
0.0165579
0.0229298
0.0306597
0.0400588
0.0515236
0.0656039
0.083054
0.105058
0.132934
0.168368
0.213094
0.26887
0.336259
0.414388
0.502594
0.610007
0.767693
1.01582
1.33851
1.5601
1.56001
1.35406
1.2196
1.23202
1.35554
1.38125
1.17901
0.628879
0.247856
0.132518
0.0911568
0.0728695
0.0613597
0.0546519
0.0505162
0.0462175
0.0418806
0.0376136
0.0333307
0.0290555
0.0248817
0.0208837
0.0171034
0.0135608
0.0102378
0.00705811
0.00389013
0.000375
0.000375
)
;
    }
    frontAndBack
    {
        type            empty;
    }
}


// ************************************************************************* //
