/*--------------------------------*- C++ -*----------------------------------*\
  =========                 |
  \\      /  F ield         | OpenFOAM: The Open Source CFD Toolbox
   \\    /   O peration     | Website:  https://openfoam.org
    \\  /    A nd           | Version:  11
     \\/     M anipulation  |
\*---------------------------------------------------------------------------*/
FoamFile
{
    format      ascii;
    class       volScalarField;
    location    "1.78";
    object      k;
}
// * * * * * * * * * * * * * * * * * * * * * * * * * * * * * * * * * * * * * //

dimensions      [0 2 -2 0 0 0 0];

internalField   nonuniform List<scalar> 
2880
(
0.00447406
0.0157896
0.0414475
0.0710329
0.109977
0.149683
0.0174481
0.0386702
0.0743036
0.111479
0.157874
0.245242
0.0217731
0.0497295
0.0888087
0.129165
0.176053
0.247046
0.0237922
0.0567747
0.0965564
0.136201
0.179551
0.232544
0.0249618
0.0618156
0.100678
0.137649
0.176164
0.215598
0.025326
0.0656604
0.102628
0.13627
0.169285
0.198995
0.0263084
0.0684076
0.10318
0.133315
0.161269
0.183811
0.0272167
0.0702995
0.102793
0.129639
0.153261
0.170477
0.0279337
0.0714018
0.101676
0.125683
0.145769
0.15903
0.028404
0.0717404
0.099995
0.121695
0.138989
0.149307
0.0286242
0.0713651
0.0978817
0.117815
0.13297
0.141082
0.0286276
0.0703093
0.095439
0.114109
0.127659
0.134147
0.0284873
0.0686139
0.0927349
0.110586
0.122959
0.128319
0.0280886
0.0663537
0.0897952
0.10721
0.118784
0.123419
0.0274249
0.063573
0.0866016
0.103906
0.115039
0.119282
0.0265543
0.0602845
0.0830895
0.100578
0.111615
0.115757
0.0256077
0.0564784
0.0791469
0.0970864
0.10839
0.112693
0.0249694
0.052106
0.0745951
0.0932386
0.105213
0.109939
0.0242757
0.0471169
0.0691696
0.0887561
0.101882
0.107312
0.0230777
0.0415553
0.0625005
0.0832247
0.0981164
0.104588
0.0213192
0.0351353
0.0540699
0.0759982
0.0934672
0.101507
0.0191332
0.0275577
0.0431205
0.0659939
0.0870486
0.0977914
0.0152538
0.0178721
0.0282759
0.0513572
0.0768826
0.0921873
0.00369094
0.00489711
0.0115975
0.0330988
0.0606425
0.0793033
0.279274
0.28397
0.245448
0.194248
0.151231
0.117339
0.0917005
0.0726259
0.0584374
0.0477892
0.0396952
0.0334571
0.0285834
0.0247244
0.0216265
0.0191014
0.0170059
0.0152272
0.013673
0.012259
0.0108948
0.0094834
0.00794136
0.00595439
0.304789
0.28012
0.229556
0.180597
0.139787
0.108068
0.0842932
0.0666839
0.0536017
0.0437788
0.0363029
0.0305331
0.0260195
0.0224416
0.0195674
0.0172251
0.0152846
0.0136446
0.0122225
0.0109428
0.00972336
0.00848185
0.00717202
0.00559391
0.282121
0.259051
0.211304
0.165785
0.128093
0.0989873
0.0772298
0.0611094
0.04911
0.0400783
0.0331892
0.0278626
0.0236898
0.0203791
0.0177188
0.0155522
0.0137609
0.0122531
0.0109546
0.00979769
0.00870951
0.00762388
0.00652203
0.00527375
0.257056
0.235637
0.192328
0.150972
0.116789
0.0904055
0.0706434
0.0559499
0.0449705
0.0366781
0.0303352
0.0254206
0.021565
0.0185033
0.0160427
0.0140404
0.0123887
0.0110045
0.0098214
0.00877957
0.00781571
0.00687835
0.00596563
0.00498938
0.232588
0.212442
0.173989
0.136981
0.106282
0.0824989
0.0645987
0.0512213
0.0411785
0.0335643
0.0277231
0.0231875
0.0196241
0.0167926
0.0145174
0.0126685
0.0111481
0.0098813
0.008809
0.00787842
0.00703493
0.0062384
0.00549527
0.0047425
0.210404
0.191285
0.157261
0.124274
0.0967638
0.0753337
0.0591101
0.0469179
0.0377212
0.0307222
0.0253376
0.0211483
0.0178532
0.0152342
0.0131315
0.0114268
0.0100315
0.00887802
0.00791361
0.00709151
0.00636404
0.00569892
0.00510461
0.00453292
0.191114
0.172784
0.142498
0.112999
0.0882748
0.068908
0.0541622
0.0430221
0.034582
0.0281366
0.0231656
0.0192918
0.0162428
0.0138203
0.011879
0.0103111
0.00903596
0.00799276
0.0071338
0.00641691
0.00579945
0.00525379
0.00478643
0.00435847
0.174719
0.156982
0.129712
0.103129
0.0807736
0.0631828
0.0497237
0.0395097
0.031742
0.0257929
0.0211955
0.0176089
0.0147858
0.0125456
0.0107558
0.00931803
0.00815894
0.00722294
0.0064663
0.00584988
0.00533423
0.00489403
0.00453186
0.00421552
0.160924
0.143678
0.118752
0.0945499
0.0741788
0.0581019
0.045756
0.0363536
0.0291817
0.0236767
0.0194163
0.0160911
0.0134757
0.0114049
0.00975763
0.00844395
0.00739651
0.00656397
0.00590521
0.00538263
0.00495861
0.00460867
0.00433126
0.00409994
0.149376
0.132558
0.109399
0.0871154
0.0683934
0.053602
0.0422173
0.0335255
0.0268813
0.0217734
0.0178173
0.0147303
0.0123058
0.0103926
0.00887942
0.00768361
0.00674289
0.00600898
0.00544204
0.00500487
0.00466087
0.00438593
0.00417528
0.00400768
0.139778
0.123243
0.101416
0.0806711
0.0633185
0.0496197
0.0390663
0.0309973
0.0248211
0.0200688
0.0163876
0.0135177
0.0112689
0.00950214
0.00811474
0.0070303
0.00619055
0.00554911
0.00506632
0.00470473
0.00442861
0.00421447
0.00405548
0.00393511
0.131828
0.115424
0.0945847
0.0750727
0.0588607
0.0460945
0.0362629
0.028742
0.0229819
0.0185487
0.0151163
0.0124444
0.0103572
0.00872612
0.00745612
0.00647603
0.00573053
0.0051741
0.0047665
0.00446994
0.00424995
0.00408414
0.00396473
0.00387909
0.12526
0.108844
0.0887144
0.0701903
0.0549346
0.0429704
0.0337697
0.0267338
0.0213452
0.0171992
0.0139922
0.011501
0.00956215
0.00805635
0.00689523
0.00601188
0.00535297
0.00487299
0.00453084
0.00428879
0.00411423
0.00398636
0.00389712
0.00383685
0.119851
0.103287
0.0836401
0.0659089
0.0514628
0.0401959
0.0315522
0.0249484
0.0198935
0.0160069
0.0130046
0.0106779
0.00887489
0.00748418
0.00642319
0.0056284
0.00504761
0.00463481
0.00434821
0.00415081
0.00401243
0.00391411
0.00384784
0.00380597
0.115416
0.098572
0.0792178
0.0621262
0.0483759
0.0377244
0.0295783
0.0233636
0.0186104
0.0149591
0.0121426
0.00996584
0.00828658
0.00700081
0.0060309
0.00531596
0.00480428
0.00444917
0.00420865
0.00404711
0.00393714
0.00386172
0.00381295
0.00378428
0.111803
0.0945424
0.0753193
0.0587497
0.0456106
0.0355132
0.0278193
0.0219591
0.0174809
0.0140438
0.0113964
0.00935573
0.00778858
0.00659758
0.00570942
0.0050652
0.00461336
0.00430669
0.00410358
0.00397037
0.00388238
0.00382453
0.00378907
0.0037698
0.108884
0.0910581
0.0718261
0.0556941
0.0431088
0.0335238
0.0262492
0.0207166
0.0164914
0.0132504
0.0107569
0.00883927
0.00737287
0.0062664
0.00545033
0.00486739
0.0044661
0.00419916
0.00402589
0.0039147
0.00384345
0.00379876
0.00377333
0.00376055
0.106542
0.0879844
0.0686227
0.052878
0.0408174
0.031722
0.0248454
0.0196206
0.0156304
0.0125696
0.010216
0.00840906
0.00703232
0.00600008
0.00524625
0.00471503
0.00435523
0.00411998
0.00396995
0.00387565
0.00381702
0.00378185
0.00376348
0.00375488
0.104663
0.0851796
0.0655893
0.0502223
0.0386888
0.030079
0.0235895
0.0186583
0.0148882
0.0119933
0.00976668
0.00805867
0.0067607
0.00579243
0.00509097
0.00460202
0.00427506
0.00406415
0.00393156
0.00384969
0.00380018
0.00377188
0.00375801
0.00375194
0.103113
0.0824739
0.0625932
0.0476543
0.0366856
0.0285741
0.0224686
0.0178203
0.0142573
0.0115153
0.0094032
0.00778259
0.00655262
0.00563808
0.00497918
0.00452331
0.00422108
0.00402786
0.00390756
0.00383421
0.00379074
0.00376686
0.00375554
0.00375091
0.101693
0.0796326
0.0594903
0.0451118
0.0347843
0.0271971
0.0214763
0.0171015
0.013733
0.0111308
0.00912091
0.00757623
0.00640353
0.00553251
0.0049065
0.00447486
0.00418978
0.00400826
0.00389574
0.00382758
0.00378759
0.00376583
0.00375531
0.00375084
0.0999711
0.0762881
0.0561324
0.0425551
0.0329806
0.0259497
0.0206129
0.0165006
0.0133129
0.0108369
0.00891646
0.00743609
0.0063099
0.00547227
0.00486969
0.00445389
0.00417882
0.00400349
0.00389469
0.00382864
0.00378968
0.00376781
0.00375664
0.00375128
0.0967864
0.0718368
0.0524011
0.0399894
0.0312963
0.0248466
0.0198862
0.0160207
0.0129972
0.0106323
0.00878791
0.00735988
0.00626946
0.00545518
0.00486673
0.00445843
0.00418696
0.00401263
0.0039036
0.00383672
0.00379646
0.00377284
0.00375956
0.00375235
0.0896096
0.0655603
0.0483199
0.0375012
0.0297864
0.0239163
0.0193101
0.0156681
0.0127886
0.0105175
0.00873474
0.00734643
0.00628044
0.00547996
0.00489721
0.00448896
0.00421431
0.00403584
0.0039227
0.00385202
0.00380813
0.00378094
0.00376433
0.00375426
0.00397649
0.00634743
0.0183104
0.0331019
0.0482531
0.0650573
0.0163946
0.019899
0.0333296
0.0456257
0.055362
0.0603404
0.0207246
0.0331411
0.0460791
0.0548992
0.0586742
0.0584433
0.0229623
0.0431479
0.0548301
0.0603098
0.0614831
0.0576828
0.0251115
0.0508937
0.0612159
0.0647352
0.0639327
0.0580247
0.0289807
0.0568382
0.0663302
0.0688042
0.0664525
0.0594669
0.0322469
0.0616232
0.0707851
0.0726985
0.0693341
0.0618719
0.0348973
0.0656101
0.0749034
0.0766089
0.0727227
0.065102
0.0369698
0.0690269
0.0788742
0.0806832
0.0766956
0.0691275
0.0385078
0.0720128
0.082805
0.0850248
0.0812917
0.0739725
0.0395471
0.0746391
0.0867388
0.0896969
0.0865574
0.0796758
0.0401125
0.0769156
0.0906629
0.0947296
0.0925151
0.0862926
0.0402325
0.0787922
0.0945194
0.100098
0.0991652
0.0938843
0.040145
0.0801446
0.0982105
0.105699
0.106465
0.102504
0.0399226
0.0808299
0.101578
0.111381
0.114336
0.112139
0.0394675
0.0807397
0.104381
0.116899
0.12261
0.122714
0.0386709
0.0796353
0.106292
0.121877
0.130919
0.13423
0.0374029
0.0773274
0.106897
0.125797
0.138715
0.14637
0.0354673
0.073623
0.106022
0.127986
0.145155
0.158459
0.0324729
0.0683741
0.102897
0.127658
0.149009
0.169467
0.0275954
0.0613897
0.0970561
0.124056
0.148586
0.177735
0.0247627
0.052546
0.087668
0.115026
0.142105
0.179888
0.0204597
0.040751
0.0724146
0.0975841
0.124755
0.170142
0.0057887
0.0159
0.0372761
0.0593611
0.0799793
0.1169
0.074852
0.0574891
0.0442601
0.0352835
0.0285346
0.0231964
0.0189029
0.0154519
0.012691
0.0104942
0.0087572
0.00739646
0.00634452
0.00554796
0.00496198
0.00454612
0.00426201
0.00407427
0.00395301
0.00387546
0.00382553
0.00379285
0.00377149
0.00375747
0.0622867
0.0505497
0.0409535
0.0335693
0.0276264
0.0227246
0.018683
0.0153816
0.01271
0.0105658
0.00885844
0.00751149
0.00646238
0.00566036
0.00506296
0.00463222
0.00433235
0.00413004
0.00399642
0.00390863
0.00384998
0.0038097
0.003782
0.00376273
0.0549042
0.0461418
0.0387562
0.0324847
0.0271162
0.0225289
0.0186655
0.015466
0.0128512
0.0107363
0.00904085
0.00769413
0.00663678
0.00582006
0.00520324
0.00475053
0.00442858
0.00420617
0.00405554
0.00395374
0.00388334
0.00383309
0.00379723
0.00377121
0.0514057
0.043959
0.0376789
0.0320489
0.0270225
0.0226208
0.0188601
0.0157125
0.0131203
0.0110104
0.00930884
0.0079484
0.00687166
0.00603105
0.005387
0.00490533
0.00455489
0.00430658
0.00413388
0.0040139
0.00392836
0.00386519
0.00381803
0.00378358
0.0505073
0.0434465
0.0375801
0.032209
0.0273373
0.0230085
0.0192738
0.0161282
0.0135241
0.0113944
0.00966819
0.00827976
0.00717238
0.00629876
0.00561977
0.0051023
0.00471697
0.00443667
0.0042363
0.00409319
0.00398808
0.00390782
0.0038457
0.00380037
0.0511907
0.0440818
0.0382689
0.0329487
0.0280585
0.0236921
0.0199128
0.0167207
0.0140705
0.011896
0.0101262
0.00869531
0.0075459
0.00663014
0.00590867
0.00534875
0.00492216
0.00460346
0.00436904
0.00419665
0.00406623
0.00396403
0.00388406
0.0038241
0.0532034
0.0458025
0.0397394
0.0342249
0.0291754
0.0246757
0.0207853
0.0174995
0.0147691
0.0125244
0.010692
0.00920372
0.00800065
0.00703355
0.00626207
0.0056531
0.0051789
0.00481523
0.00453983
0.00433117
0.00416882
0.00403891
0.00393644
0.00385701
0.0562175
0.0483778
0.0418874
0.0360215
0.0306908
0.0259691
0.0219032
0.018477
0.015632
0.0132911
0.0113761
0.00981515
0.00854639
0.00751841
0.00668917
0.00602451
0.00549637
0.00508107
0.00475747
0.00450489
0.00430288
0.0041379
0.0040065
0.00390094
0.0601134
0.051756
0.0447
0.0383453
0.0326203
0.0275899
0.023284
0.0196694
0.0166736
0.0142095
0.0121911
0.0105412
0.009194
0.00809508
0.00719997
0.00647277
0.00588437
0.00541093
0.0050319
0.0047273
0.00447677
0.00426756
0.00409865
0.00395811
0.0648849
0.0559501
0.0482046
0.0412286
0.0349952
0.029566
0.0249514
0.0210969
0.0179119
0.0152952
0.0131509
0.0113947
0.00995552
0.00877486
0.00780524
0.00700832
0.00635329
0.00581538
0.00537387
0.00500899
0.00470024
0.00443584
0.00421845
0.00403123
0.0705875
0.0610257
0.0524675
0.0447314
0.0378656
0.0319377
0.0269378
0.0227858
0.0193683
0.0165666
0.0142718
0.0123902
0.0108441
0.00956997
0.00851645
0.00764217
0.00691395
0.00630529
0.00579449
0.00536117
0.00498404
0.00465201
0.00437257
0.00412343
0.0773189
0.0670946
0.0575949
0.0489443
0.041304
0.0347609
0.0292857
0.0247689
0.021069
0.0180451
0.0155718
0.0135435
0.011874
0.0104935
0.00934583
0.00838589
0.00757748
0.00689169
0.00630493
0.00579522
0.00533943
0.00492626
0.00456872
0.00423828
0.0852043
0.0743095
0.0637344
0.0539934
0.0454101
0.0381109
0.0320515
0.0270886
0.0230465
0.0197565
0.017072
0.0148726
0.013061
0.0115595
0.0103063
0.00925152
0.00835533
0.00758565
0.00691619
0.00632228
0.00577761
0.00526916
0.00481519
0.00437952
0.0943856
0.0828591
0.0710754
0.0600447
0.0503166
0.0420886
0.0353095
0.0297993
0.0253415
0.0217318
0.0187973
0.0163977
0.0144223
0.0127833
0.0114115
0.0102517
0.0092593
0.00839841
0.00763916
0.00695316
0.00630943
0.00569112
0.00512036
0.00455046
0.105003
0.0929576
0.0798461
0.0673061
0.0561952
0.0468261
0.0391574
0.0329725
0.0280061
0.0240102
0.0207775
0.0181429
0.0159777
0.0141818
0.0126766
0.0114
0.0103019
0.00934169
0.00848502
0.0076987
0.00694559
0.00620243
0.00549238
0.00475318
0.117142
0.104825
0.0902967
0.0760225
0.063259
0.0524933
0.0437234
0.0367019
0.0311086
0.0266418
0.0230505
0.0201376
0.0177512
0.0157749
0.0141188
0.0127119
0.0114973
0.0104286
0.00946613
0.00857078
0.00769769
0.00681417
0.00593966
0.0049876
0.130674
0.118666
0.102662
0.0864532
0.0717559
0.059301
0.0491725
0.0411105
0.0347389
0.0296923
0.0256654
0.0224193
0.0197726
0.0175878
0.0157598
0.0142068
0.0128635
0.0116761
0.0105985
0.00958478
0.00858085
0.00754113
0.00647349
0.00525131
0.145461
0.134493
0.11707
0.098819
0.0819434
0.0674945
0.0557103
0.0463579
0.0390158
0.0332493
0.0286871
0.0250379
0.0220817
0.0196537
0.0176293
0.0159125
0.0144271
0.0131105
0.0119085
0.0107668
0.00962122
0.00840981
0.00711625
0.00554277
0.161378
0.151865
0.133423
0.113213
0.0940324
0.0773272
0.0635772
0.0526442
0.0440945
0.0374293
0.032203
0.0280604
0.0247325
0.0220189
0.0197698
0.0178709
0.0162323
0.0147798
0.0134488
0.0121744
0.0108812
0.00948749
0.00793237
0.00588796
0.177768
0.169822
0.151322
0.129475
0.10809
0.0890019
0.073022
0.0602048
0.0501706
0.0423846
0.0363295
0.0315767
0.0277972
0.0247459
0.0222408
0.0201447
0.0183507
0.0167714
0.0153297
0.0139494
0.0125431
0.0110054
0.0092017
0.0066358
0.19282
0.186812
0.169683
0.146986
0.123884
0.102563
0.0842398
0.0692831
0.0574744
0.0483075
0.0412178
0.0357044
0.0313697
0.0279143
0.0251165
0.0228121
0.0208759
0.0192093
0.0177304
0.0163662
0.0150483
0.0137401
0.012606
0.0123968
0.202594
0.199756
0.186312
0.164424
0.140691
0.117737
0.0972599
0.0800673
0.0662437
0.0554231
0.0470559
0.0405916
0.0355646
0.0316138
0.0284706
0.0259387
0.0238755
0.0221793
0.0207818
0.0196425
0.0187436
0.0181192
0.0180108
0.0189222
0.199097
0.203229
0.196746
0.179689
0.157135
0.133758
0.111787
0.092575
0.0766574
0.0639601
0.05406
0.0464167
0.040518
0.0359418
0.0323664
0.0295577
0.0273527
0.025647
0.024385
0.0235489
0.0231433
0.0232083
0.023895
0.0253938
0.173971
0.197372
0.197122
0.189069
0.171123
0.149225
0.127032
0.106494
0.0887188
0.0740837
0.0624454
0.0533822
0.0463928
0.0410155
0.0368775
0.0337034
0.0313058
0.0295719
0.0284478
0.0279152
0.0279602
0.0285521
0.0298244
0.0316672
0.00445268
0.0120578
0.0242147
0.0364898
0.0437468
0.0603612
0.01745
0.0313859
0.0481325
0.060573
0.0675775
0.0852246
0.0215007
0.0405838
0.0597812
0.072312
0.0805882
0.0960124
0.0234823
0.0469536
0.0675214
0.0802842
0.0893807
0.103251
0.0249349
0.0522455
0.0734756
0.0865768
0.0963805
0.109249
0.0262875
0.0569808
0.0783914
0.0919172
0.102413
0.114766
0.0286716
0.0611076
0.0825596
0.0965993
0.107809
0.119931
0.0305209
0.0645922
0.0860922
0.100755
0.112732
0.124863
0.0319166
0.0674215
0.0890356
0.104446
0.117272
0.129643
0.032924
0.069599
0.0914176
0.107706
0.121479
0.134305
0.0335928
0.0711295
0.0932574
0.110551
0.125375
0.138841
0.0339688
0.072009
0.0945635
0.112981
0.128953
0.143207
0.0340536
0.0722095
0.0953281
0.114975
0.132183
0.147332
0.0337956
0.0717921
0.0955006
0.116489
0.135007
0.151125
0.0331246
0.0707208
0.0950785
0.117451
0.137341
0.154484
0.0320309
0.0689586
0.0939488
0.117718
0.139078
0.157305
0.0305133
0.0664436
0.091995
0.11721
0.140088
0.159491
0.0285843
0.0630824
0.0890461
0.115683
0.140188
0.160951
0.0262704
0.0587321
0.084868
0.112858
0.139155
0.161607
0.0249015
0.0531429
0.0791295
0.108336
0.136598
0.161289
0.0234074
0.0462945
0.071334
0.101514
0.131867
0.159556
0.0212295
0.0376449
0.060657
0.0914458
0.123783
0.155445
0.0170162
0.0256937
0.0453518
0.0765733
0.110136
0.145568
0.00416315
0.00882367
0.0251403
0.0574131
0.091534
0.118447
0.166716
0.187496
0.193689
0.190862
0.18039
0.162256
0.141657
0.12104
0.102103
0.0857788
0.072358
0.0616854
0.053375
0.0469814
0.0421035
0.0384291
0.0357441
0.0339208
0.0328939
0.0326249
0.033017
0.0340623
0.0357626
0.037859
0.16765
0.191281
0.192032
0.190223
0.184185
0.171405
0.154129
0.135007
0.116058
0.0987117
0.0837607
0.0714497
0.0616431
0.0540106
0.0481775
0.0438193
0.040701
0.0386764
0.037658
0.0375739
0.0382231
0.0396393
0.0416853
0.0440056
0.156465
0.201393
0.197322
0.191494
0.185295
0.176303
0.163176
0.146977
0.12942
0.112126
0.0962926
0.0826057
0.0712937
0.0622631
0.0552588
0.0499976
0.046249
0.0438556
0.0427068
0.0426925
0.0435
0.0451993
0.0475389
0.0500738
0.145854
0.203214
0.208409
0.198799
0.188342
0.179133
0.168821
0.155957
0.140925
0.124912
0.10919
0.0947574
0.0822183
0.0718055
0.0634889
0.0571121
0.0525022
0.0495207
0.0480491
0.047947
0.0487974
0.0506716
0.0532543
0.0560017
0.141283
0.195604
0.21716
0.211875
0.19685
0.183339
0.172613
0.161905
0.149661
0.135879
0.121368
0.107122
0.0939785
0.082485
0.0729011
0.0652846
0.0595979
0.0557778
0.0537391
0.0533391
0.0540943
0.0559964
0.058758
0.0617119
0.140039
0.184182
0.216473
0.22135
0.211729
0.192923
0.177824
0.166268
0.155618
0.144192
0.131691
0.118624
0.105761
0.0938116
0.0832917
0.0745117
0.0676376
0.0627535
0.0598733
0.058907
0.0594044
0.0611316
0.0639775
0.0671203
0.140812
0.175736
0.209619
0.225657
0.222932
0.208852
0.188499
0.172372
0.160349
0.149967
0.139433
0.128193
0.116499
0.104936
0.0941114
0.0845327
0.0765794
0.0705306
0.0665669
0.0647215
0.0647792
0.0660744
0.068845
0.0721329
0.143033
0.171373
0.201541
0.223689
0.229616
0.22317
0.205434
0.184124
0.167285
0.154967
0.144916
0.135257
0.125213
0.114812
0.104476
0.0947361
0.0861032
0.0790305
0.073893
0.0709289
0.0701699
0.0709566
0.0733025
0.0766639
0.146255
0.170118
0.196073
0.218884
0.231911
0.231808
0.222823
0.202183
0.180284
0.162917
0.150315
0.140499
0.131584
0.122607
0.113395
0.10422
0.0955416
0.0878779
0.0817391
0.0775656
0.0756303
0.0757785
0.0773831
0.080676
0.150159
0.171057
0.193721
0.214938
0.230929
0.237251
0.234171
0.221732
0.199782
0.177666
0.159768
0.146701
0.136858
0.128427
0.120304
0.11213
0.104031
0.0963854
0.0896963
0.0845048
0.0812915
0.0804126
0.0812951
0.0840615
0.154484
0.173507
0.193582
0.21299
0.2293
0.239701
0.241368
0.236043
0.22106
0.198695
0.176455
0.158109
0.144445
0.134269
0.12596
0.118376
0.111005
0.103832
0.0971374
0.09137
0.0870709
0.0848198
0.084958
0.0869015
0.158995
0.176807
0.194907
0.212539
0.228253
0.24023
0.246236
0.245307
0.237837
0.220764
0.198751
0.176923
0.158353
0.143991
0.133129
0.124512
0.117017
0.110088
0.103624
0.0977279
0.0927462
0.0892228
0.0881325
0.0893001
0.163468
0.180399
0.196868
0.212849
0.227616
0.239988
0.248485
0.25146
0.248772
0.239178
0.221598
0.20058
0.179509
0.1609
0.145792
0.133969
0.124589
0.116729
0.109776
0.103597
0.0981977
0.0937386
0.0910399
0.0913998
0.167694
0.183828
0.198774
0.213187
0.226846
0.239057
0.248787
0.254784
0.255766
0.251754
0.240878
0.224101
0.204555
0.184635
0.166287
0.150566
0.137622
0.127031
0.118264
0.110828
0.104422
0.0989709
0.0946172
0.0937101
0.171488
0.186754
0.200119
0.212939
0.22541
0.237153
0.247446
0.25527
0.259556
0.259465
0.254622
0.243744
0.228669
0.211109
0.192749
0.175055
0.158991
0.144974
0.133022
0.122911
0.114378
0.10715
0.10093
0.0979735
0.174702
0.188925
0.200531
0.211724
0.222926
0.233987
0.244384
0.253297
0.259767
0.262903
0.262289
0.25752
0.24796
0.234986
0.219715
0.20327
0.186698
0.170836
0.156238
0.143176
0.131724
0.121774
0.113092
0.107354
0.177233
0.190182
0.199932
0.209393
0.219256
0.229463
0.239583
0.248915
0.256657
0.261974
0.264274
0.263327
0.25913
0.251444
0.240844
0.227995
0.2137
0.198791
0.18395
0.169687
0.156354
0.144107
0.133158
0.124889
0.178977
0.190417
0.198176
0.205925
0.214446
0.223704
0.233241
0.242405
0.250484
0.256823
0.260788
0.262217
0.260884
0.256796
0.250163
0.241476
0.231108
0.219442
0.206971
0.194167
0.181433
0.169055
0.157688
0.148774
0.179814
0.189603
0.195276
0.201382
0.208647
0.21696
0.225767
0.234385
0.242125
0.248399
0.25274
0.254834
0.254934
0.25274
0.248409
0.242157
0.234323
0.2253
0.215459
0.205165
0.194791
0.184748
0.1757
0.168691
0.179719
0.187637
0.191257
0.19585
0.202011
0.209482
0.217593
0.225592
0.232754
0.238493
0.242324
0.244075
0.244116
0.242167
0.238473
0.233295
0.226914
0.219598
0.211616
0.20324
0.194769
0.18663
0.179505
0.173797
0.17864
0.184445
0.186122
0.189398
0.194615
0.201373
0.208935
0.216471
0.223204
0.228502
0.231736
0.233027
0.232575
0.230223
0.226284
0.221072
0.214885
0.207974
0.200573
0.192981
0.185499
0.178547
0.172615
0.167546
0.176346
0.179939
0.179885
0.182075
0.186509
0.192671
0.19982
0.207149
0.213804
0.219082
0.222276
0.223525
0.22301
0.220592
0.216615
0.211426
0.205372
0.19879
0.191949
0.184999
0.178145
0.17167
0.165921
0.160877
0.172049
0.173895
0.172634
0.173981
0.177729
0.183283
0.190013
0.19717
0.203869
0.209334
0.212973
0.21463
0.214741
0.213086
0.209965
0.205682
0.200558
0.194885
0.188915
0.182854
0.176882
0.171166
0.165736
0.160801
0.164509
0.166068
0.164509
0.165338
0.168359
0.173086
0.17906
0.185588
0.191725
0.196626
0.199943
0.201747
0.202293
0.201621
0.19984
0.197089
0.1936
0.189592
0.185261
0.180767
0.17622
0.171666
0.1671
0.16274
0.00405225
0.0100301
0.0340599
0.0617532
0.0891887
0.117499
0.0164361
0.0250897
0.0524765
0.0771031
0.100649
0.126614
0.0209625
0.0375654
0.0657265
0.088572
0.110877
0.131668
0.023294
0.0464282
0.0741682
0.0957867
0.116409
0.132758
0.0249095
0.0529909
0.0796083
0.100048
0.118795
0.132528
0.0263512
0.0578297
0.0829348
0.102174
0.119158
0.131459
0.0282637
0.0610886
0.0847094
0.102722
0.118317
0.129629
0.0297327
0.0631281
0.0853031
0.102171
0.116331
0.127055
0.0307795
0.0641858
0.0850306
0.100558
0.11347
0.123692
0.0314224
0.0644236
0.0839516
0.0981642
0.109859
0.119566
0.0316688
0.0640057
0.0822524
0.0951333
0.105619
0.114793
0.0316074
0.0629715
0.0800323
0.0915845
0.100881
0.109556
0.0311729
0.0614022
0.0773643
0.0876198
0.0957774
0.104082
0.0305802
0.0592961
0.0743005
0.0833266
0.0904385
0.0986046
0.0298082
0.0566862
0.0708751
0.078777
0.0849774
0.0933373
0.0288233
0.0535731
0.0671033
0.0740265
0.0794879
0.0885058
0.0275584
0.0499144
0.0629866
0.0691114
0.0740418
0.0841963
0.0257264
0.0457043
0.0585389
0.0640484
0.0687204
0.0803387
0.024905
0.04137
0.0538384
0.0588268
0.0634772
0.0768236
0.0239006
0.0373762
0.048965
0.0534108
0.058198
0.0733164
0.0224434
0.0335318
0.0438217
0.0476931
0.052576
0.0690252
0.0205192
0.0293169
0.0379282
0.0413432
0.0458916
0.0647826
0.0167457
0.0232696
0.0297897
0.0333145
0.0363991
0.0589301
0.00459072
0.00850184
0.012714
0.0165258
0.0192648
0.0332637
0.154407
0.157104
0.156215
0.156733
0.158896
0.162466
0.167067
0.172006
0.176249
0.178659
0.179435
0.179248
0.178639
0.177851
0.176817
0.175408
0.173635
0.171601
0.16939
0.167086
0.164748
0.162381
0.159799
0.156868
0.147509
0.149636
0.149048
0.149197
0.150523
0.152956
0.156233
0.158769
0.159324
0.156781
0.151891
0.14665
0.142437
0.13966
0.137771
0.136287
0.135017
0.133924
0.132997
0.132189
0.131454
0.130724
0.13
0.128906
0.143359
0.144699
0.144048
0.143988
0.145208
0.148299
0.151924
0.153641
0.149582
0.139009
0.127938
0.119271
0.113666
0.109733
0.106112
0.102341
0.0984853
0.0947589
0.0913824
0.0884634
0.0861484
0.0841412
0.0826792
0.0805471
0.140966
0.142079
0.141674
0.142036
0.144184
0.148808
0.153356
0.154107
0.146964
0.130964
0.116752
0.107416
0.101966
0.0978243
0.0934919
0.0887158
0.083648
0.0785163
0.0735228
0.068784
0.0644688
0.0603713
0.0567541
0.0532371
0.139625
0.141236
0.141789
0.143454
0.147699
0.154792
0.160181
0.158484
0.145879
0.125603
0.110469
0.101954
0.0970133
0.0927146
0.0879642
0.0826874
0.0771085
0.0714881
0.0660375
0.0609055
0.056218
0.0519375
0.0483563
0.045802
0.138649
0.14146
0.143629
0.147762
0.155308
0.165025
0.16867
0.161247
0.140386
0.118441
0.106241
0.100002
0.095424
0.0909038
0.085841
0.0802323
0.0743497
0.0684806
0.0628553
0.0576352
0.0529215
0.0489474
0.04616
0.0446232
0.137482
0.141979
0.146706
0.154305
0.166032
0.176663
0.174484
0.160461
0.132093
0.113535
0.105176
0.0997736
0.0951101
0.0901266
0.0843426
0.0781108
0.0718357
0.0658297
0.0603078
0.0554187
0.051231
0.0481288
0.0461314
0.0454973
0.135662
0.14226
0.150258
0.16249
0.178482
0.184583
0.176276
0.149981
0.123907
0.112062
0.105437
0.100024
0.0946681
0.0883884
0.0815349
0.0746703
0.068192
0.0623527
0.0573184
0.053217
0.0501714
0.0482618
0.0475572
0.0478377
0.133003
0.142019
0.154245
0.172275
0.189557
0.187325
0.170063
0.137412
0.120768
0.112278
0.105939
0.0999835
0.0930809
0.0855495
0.0780297
0.0709804
0.0646885
0.0593344
0.0550463
0.0519317
0.0500735
0.0493505
0.0496174
0.0504921
0.129525
0.141415
0.159302
0.183666
0.193909
0.184694
0.154399
0.131514
0.120401
0.112845
0.106058
0.0984107
0.0901242
0.0818946
0.0742145
0.0673905
0.0616043
0.0569668
0.0535487
0.0513823
0.0504557
0.0505909
0.0514442
0.0527649
0.125445
0.141127
0.166554
0.194237
0.193945
0.173503
0.144253
0.130023
0.120895
0.113076
0.104594
0.0953968
0.0862641
0.0777551
0.0702096
0.0638143
0.0586644
0.0548028
0.0522279
0.0508809
0.0506356
0.0512241
0.0525726
0.0540158
0.121156
0.142254
0.176914
0.198004
0.18815
0.159185
0.141268
0.130383
0.1213
0.111886
0.101611
0.0913748
0.0818428
0.0733976
0.0662159
0.0603652
0.0558632
0.0526963
0.0508091
0.050095
0.0503282
0.0512867
0.0528227
0.0543114
0.117221
0.1462
0.18922
0.197192
0.176694
0.1542
0.141358
0.131016
0.120621
0.109097
0.0975142
0.0867113
0.0771481
0.0690014
0.062299
0.0570128
0.0530997
0.0505016
0.0491284
0.0488492
0.0493738
0.0506337
0.0523115
0.0538273
0.114315
0.154061
0.196437
0.190595
0.168581
0.153672
0.142755
0.131182
0.118282
0.105081
0.0926909
0.0817218
0.0723791
0.0646524
0.0584519
0.0536806
0.0502523
0.0480797
0.0470531
0.0470315
0.0477217
0.0491016
0.0508021
0.052296
0.112898
0.165526
0.197503
0.183479
0.16678
0.156334
0.143696
0.129645
0.114592
0.100228
0.0874694
0.0766186
0.0676432
0.0603816
0.0546571
0.050323
0.047265
0.0453802
0.0445556
0.0446417
0.0454072
0.0467814
0.0484396
0.0498901
0.112931
0.178127
0.193049
0.180901
0.169619
0.158824
0.143745
0.126645
0.109875
0.0948469
0.0820666
0.0715235
0.0629894
0.0561923
0.0508945
0.0469155
0.0441225
0.0424069
0.0416612
0.0417516
0.0424819
0.0437721
0.0453395
0.0467342
0.113766
0.187873
0.190797
0.18154
0.174759
0.16032
0.141765
0.122303
0.104457
0.0892002
0.0766426
0.0665151
0.0584454
0.0520856
0.0471575
0.0434573
0.04084
0.039196
0.0384284
0.0384339
0.0390358
0.040174
0.041609
0.0429394
0.113493
0.191941
0.191049
0.18771
0.179925
0.160857
0.138368
0.117058
0.0986377
0.0834714
0.0712945
0.0616362
0.054025
0.0480649
0.0434524
0.0399679
0.037457
0.03581
0.0349411
0.03477
0.0351721
0.0360822
0.0373386
0.0385941
0.109944
0.192671
0.197441
0.196031
0.183001
0.158588
0.133478
0.111145
0.0926212
0.077783
0.066084
0.0569147
0.0497415
0.044142
0.039799
0.0364823
0.0340292
0.0323268
0.0312958
0.0308735
0.0309905
0.0315792
0.0325855
0.0337423
0.108044
0.195995
0.2085
0.205234
0.184133
0.154862
0.127721
0.104883
0.086573
0.0722182
0.0610536
0.0523757
0.0456161
0.0403418
0.0362311
0.0330486
0.0306243
0.0288379
0.0276065
0.0268731
0.0265954
0.0267477
0.0273555
0.0283439
0.124059
0.208114
0.222227
0.2115
0.18186
0.149379
0.121194
0.098399
0.080578
0.066828
0.0562372
0.0480484
0.0416809
0.0367031
0.032797
0.0297273
0.0273194
0.0254428
0.0240007
0.0229214
0.0221522
0.0216812
0.0216198
0.0222053
0.154991
0.227068
0.236186
0.214245
0.17716
0.142678
0.114183
0.091843
0.0747167
0.0616597
0.0516698
0.0439679
0.0379775
0.0332778
0.0295602
0.0265948
0.0242061
0.0222558
0.0206296
0.0192258
0.0179447
0.0166999
0.0155092
0.0148715
0.183639
0.250618
0.246451
0.212452
0.170565
0.134998
0.106843
0.08531
0.0690448
0.0567489
0.0473809
0.0401669
0.034548
0.0301216
0.0265936
0.0237436
0.0214015
0.019429
0.0177056
0.0161137
0.0145216
0.0127708
0.0106661
0.00748551
0.222105
0.273672
0.250847
0.204649
0.161606
0.126424
0.0992868
0.078873
0.0636035
0.0521194
0.0433878
0.0366638
0.031418
0.0272722
0.0239512
0.0212497
0.0190096
0.0171048
0.0154288
0.0138832
0.0123647
0.0107602
0.00893882
0.00641193
)
;

boundaryField
{
    rotor
    {
        type            kqRWallFunction;
        value           nonuniform List<scalar> 
144
(
0.00447406
0.0157896
0.0414475
0.0710329
0.109977
0.149683
0.00447406
0.0174481
0.0217731
0.0237922
0.0249618
0.025326
0.0263084
0.0272167
0.0279337
0.028404
0.0286242
0.0286276
0.0284873
0.0280886
0.0274249
0.0265543
0.0256077
0.0249694
0.0242757
0.0230777
0.0213192
0.0191332
0.0152538
0.00369094
0.00369094
0.00489711
0.0115975
0.0330988
0.0606425
0.0793033
0.00397649
0.00634743
0.0183104
0.0331019
0.0482531
0.0650573
0.00397649
0.0163946
0.0207246
0.0229623
0.0251115
0.0289807
0.0322469
0.0348973
0.0369698
0.0385078
0.0395471
0.0401125
0.0402325
0.040145
0.0399226
0.0394675
0.0386709
0.0374029
0.0354673
0.0324729
0.0275954
0.0247627
0.0204597
0.0057887
0.0057887
0.0159
0.0372761
0.0593611
0.0799793
0.1169
0.00445268
0.0120578
0.0242147
0.0364898
0.0437468
0.0603612
0.00445268
0.01745
0.0215007
0.0234823
0.0249349
0.0262875
0.0286716
0.0305209
0.0319166
0.032924
0.0335928
0.0339688
0.0340536
0.0337956
0.0331246
0.0320309
0.0305133
0.0285843
0.0262704
0.0249015
0.0234074
0.0212295
0.0170162
0.00416315
0.00416315
0.00882367
0.0251403
0.0574131
0.091534
0.118447
0.00405225
0.0100301
0.0340599
0.0617532
0.0891887
0.117499
0.00405225
0.0164361
0.0209625
0.023294
0.0249095
0.0263512
0.0282637
0.0297327
0.0307795
0.0314224
0.0316688