/*--------------------------------*- C++ -*----------------------------------*\
  =========                 |
  \\      /  F ield         | OpenFOAM: The Open Source CFD Toolbox
   \\    /   O peration     | Website:  https://openfoam.org
    \\  /    A nd           | Version:  11
     \\/     M anipulation  |
\*---------------------------------------------------------------------------*/
FoamFile
{
    format      ascii;
    class       surfaceScalarField;
    location    "1.78";
    object      meshPhi;
}
// * * * * * * * * * * * * * * * * * * * * * * * * * * * * * * * * * * * * * //

dimensions      [0 3 -1 0 0 0 0];

internalField   nonuniform List<scalar> 
5640
(
1.36941e-16
9.81747e-07
2.42092e-16
1.37445e-06
3.77043e-16
1.76715e-06
-1.33922e-15
2.15984e-06
-3.68136e-15
2.55254e-06
2.94524e-06
5.9514e-15
1.84429e-18
9.81747e-07
-3.88758e-16
1.37445e-06
-2.60413e-15
1.76715e-06
1.94371e-15
2.15984e-06
8.06627e-15
2.55254e-06
2.94524e-06
-9.02969e-15
-1.16456e-16
9.81747e-07
1.86435e-16
1.37445e-06
-1.56236e-15
1.76715e-06
-4.21247e-15
2.15984e-06
-7.49851e-15
2.55254e-06
2.94524e-06
7.72434e-16
8.69548e-17
9.81747e-07
-1.01874e-16
1.37445e-06
2.69321e-15
1.76715e-06
7.44283e-15
2.15984e-06
3.25986e-15
2.55254e-06
2.94524e-06
-2.79778e-15
-4.83756e-17
9.81747e-07
3.94539e-17
1.37445e-06
1.94365e-16
1.76715e-06
-1.80607e-15
2.15984e-06
-4.2084e-15
2.55254e-06
2.94524e-06
5.01325e-15
-1.80119e-16
9.81747e-07
4.26458e-18
1.37445e-06
-1.84775e-15
1.76715e-06
-3.88607e-15
2.15984e-06
3.15704e-15
2.55254e-06
2.94524e-06
4.97951e-16
2.53956e-16
9.81747e-07
2.55429e-16
1.37445e-06
2.066e-15
1.76715e-06
4.5041e-15
2.15984e-06
-2.30998e-15
2.55254e-06
2.94524e-06
5.40899e-16
2.16568e-17
9.81747e-07
-3.21685e-16
1.37445e-06
-1.14888e-15
1.76715e-06
-5.28557e-15
2.15984e-06
-3.76698e-16
2.55254e-06
2.94524e-06
-5.63981e-15
-1.43394e-16
9.81747e-07
1.66415e-16
1.37445e-06
4.19118e-15
1.76715e-06
6.34939e-15
2.15984e-06
-8.05619e-16
2.55254e-06
2.94524e-06
8.39324e-16
-6.87897e-17
9.81747e-07
-9.20512e-17
1.37445e-06
-2.7694e-15
1.76715e-06
-3.68812e-16
2.15984e-06
-1.45075e-15
2.55254e-06
2.94524e-06
-1.76628e-16
1.66328e-16
9.81747e-07
-8.86867e-17
1.37445e-06
5.69667e-16
1.76715e-06
-2.10358e-15
2.15984e-06
9.66001e-15
2.55254e-06
2.94524e-06
5.29024e-15
-1.77774e-16
9.81747e-07
-2.05334e-17
1.37445e-06
-3.45429e-16
1.76715e-06
-4.17265e-15
2.15984e-06
-2.62226e-15
2.55254e-06
2.94524e-06
5.36948e-15
1.77773e-16
9.81747e-07
2.05237e-17
1.37445e-06
3.45481e-16
1.76715e-06
4.17257e-15
2.15984e-06
2.62234e-15
2.55254e-06
2.94524e-06
-5.36948e-15
-1.66341e-16
9.81747e-07
8.87179e-17
1.37445e-06
-5.69633e-16
1.76715e-06
2.10352e-15
2.15984e-06
-9.65989e-15
2.55254e-06
2.94524e-06
-5.29016e-15
6.88147e-17
9.81747e-07
9.20143e-17
1.37445e-06
2.76941e-15
1.76715e-06
3.68716e-16
2.15984e-06
1.45082e-15
2.55254e-06
2.94524e-06
1.7671e-16
1.43398e-16
9.81747e-07
-1.66408e-16
1.37445e-06
-4.19116e-15
1.76715e-06
-6.34946e-15
2.15984e-06
8.05771e-16
2.55254e-06
2.94524e-06
-8.39413e-16
-2.16446e-17
9.81747e-07
3.2172e-16
1.37445e-06
1.14888e-15
1.76715e-06
5.28554e-15
2.15984e-06
3.7685e-16
2.55254e-06
2.94524e-06
5.63985e-15
-2.53954e-16
9.81747e-07
-2.55371e-16
1.37445e-06
-2.06596e-15
1.76715e-06
-4.50409e-15
2.15984e-06
2.30987e-15
2.55254e-06
2.94524e-06
-5.40764e-16
1.80107e-16
9.81747e-07
-4.32493e-18
1.37445e-06
1.84779e-15
1.76715e-06
3.88622e-15
2.15984e-06
-3.15702e-15
2.55254e-06
2.94524e-06
-4.98219e-16
4.83595e-17
9.81747e-07
-3.9524e-17
1.37445e-06
-1.94316e-16
1.76715e-06
1.80615e-15
2.15984e-06
4.20873e-15
2.55254e-06
2.94524e-06
-5.01315e-15
-8.6943e-17
9.81747e-07
1.01903e-16
1.37445e-06
-2.69315e-15
1.76715e-06
-7.44281e-15
2.15984e-06
-3.25963e-15
2.55254e-06
2.94524e-06
2.79796e-15
1.16459e-16
9.81747e-07
-1.86425e-16
1.37445e-06
1.56237e-15
1.76715e-06
4.21262e-15
2.15984e-06
7.49851e-15
2.55254e-06
2.94524e-06
-7.72576e-16
-1.83184e-18
9.81747e-07
3.88799e-16
1.37445e-06
2.60413e-15
1.76715e-06
-1.94367e-15
2.15984e-06
-8.06614e-15
2.55254e-06
2.94524e-06
9.02969e-15
-1.36946e-16
-2.42062e-16
-3.76949e-16
1.3393e-15
3.68157e-15
-5.95141e-15
-1.13359e-14
4.53785e-06
-4.53785e-06
-4.81024e-16
5.23599e-06
-5.23599e-06
-5.357e-15
5.93412e-06
-5.93412e-06
-1.13034e-14
6.63225e-06
-6.63225e-06
4.86903e-15
7.33038e-06
-7.33038e-06
-1.11e-15
8.02851e-06
-8.02851e-06
-8.15976e-15
8.72664e-06
-8.72664e-06
1.3045e-14
9.42478e-06
-9.42478e-06
5.94961e-15
1.01229e-05
-1.01229e-05
-1.99532e-15
1.0821e-05
-1.0821e-05
2.43857e-14
1.15192e-05
-1.15192e-05
1.61893e-14
1.22173e-05
-1.22173e-05
-3.27857e-14
1.29154e-05
-1.29154e-05
-3.0545e-15
1.36136e-05
-1.36136e-05
-1.444e-14
1.43117e-05
-1.43117e-05
-2.68966e-14
1.50098e-05
-1.50098e-05
7.73871e-15
1.5708e-05
-1.5708e-05
-4.43891e-15
1.64061e-05
-1.64061e-05
-1.79975e-14
1.71042e-05
-1.71042e-05
2.18225e-14
1.78024e-05
-1.78024e-05
8.217e-15
1.85005e-05
-1.85005e-05
-6.08236e-15
1.91986e-05
-1.91986e-05
3.89237e-14
1.98967e-05
-1.98967e-05
2.05949e-05
-2.05949e-05
9.39902e-15
4.53785e-06
5.20337e-16
5.23599e-06
7.52837e-15
5.93412e-06
-4.41144e-15
6.63225e-06
3.78352e-15
7.33038e-06
1.33846e-14
8.02851e-06
-2.11073e-15
8.72664e-06
8.52957e-15
9.42478e-06
-1.00274e-14
1.01229e-05
1.86654e-15
1.0821e-05
-2.02017e-14
1.15192e-05
-7.01267e-15
1.22173e-05
7.51146e-15
1.29154e-05
2.36067e-14
1.36136e-05
-2.04149e-15
1.43117e-05
1.48337e-14
1.50098e-05
-1.3879e-14
1.5708e-05
2.39264e-15
1.64061e-05
2.04132e-14
1.71042e-05
-7.01722e-15
1.78024e-05
1.20687e-14
1.85005e-05
-2.59455e-14
1.91986e-05
1.84993e-15
1.98967e-05
2.05949e-05
-8.67588e-15
4.53785e-06
1.22923e-14
5.23599e-06
1.88325e-15
5.93412e-06
8.90236e-15
6.63225e-06
-5.10859e-15
7.33038e-06
-2.19904e-14
8.02851e-06
1.22638e-14
8.72664e-06
-5.37384e-15
9.42478e-06
4.45724e-15
1.01229e-05
-1.43057e-14
1.0821e-05
-7.32507e-15
1.15192e-05
7.04093e-15
1.22173e-05
2.39961e-14
1.29154e-05
-7.55311e-15
1.36136e-05
9.79993e-15
1.43117e-05
-1.62379e-14
1.50098e-05
4.02956e-14
1.5708e-05
1.44504e-14
1.64061e-05
-1.37024e-14
1.71042e-05
-7.8964e-15
1.78024e-05
-3.92524e-14
1.85005e-05
4.27532e-14
1.91986e-05
-8.84986e-15
1.98967e-05
2.05949e-05
5.98603e-15
4.53785e-06
2.1902e-16
5.23599e-06
-6.43539e-15
5.93412e-06
6.06427e-15
6.63225e-06
-2.09202e-15
7.33038e-06
1.6177e-14
8.02851e-06
-1.88308e-14
8.72664e-06
-2.35106e-15
9.42478e-06
9.17262e-15
1.01229e-05
-4.71007e-15
1.0821e-05
2.16279e-14
1.15192e-05
-2.96454e-14
1.22173e-05
-9.29089e-15
1.29154e-05
-1.89054e-14
1.36136e-05
4.46719e-15
1.43117e-05
3.01549e-14
1.50098e-05
-2.62174e-14
1.5708e-05
4.35978e-16
1.64061e-05
-2.11696e-14
1.71042e-05
1.87157e-14
1.78024e-05
-3.92187e-15
1.85005e-05
-2.91568e-14
1.91986e-05
1.52279e-14
1.98967e-05
2.05949e-05
6.71512e-15
4.53785e-06
-7.3063e-15
5.23599e-06
1.1101e-14
5.93412e-06
-4.24067e-15
6.63225e-06
1.51026e-14
7.33038e-06
-5.20921e-15
8.02851e-06
1.70144e-14
8.72664e-06
-3.94031e-15
9.42478e-06
-2.94118e-16
1.01229e-05
6.61242e-15
1.0821e-05
1.37057e-14
1.15192e-05
1.01841e-14
1.22173e-05
1.82181e-14
1.29154e-05
1.43693e-14
1.36136e-05
2.33414e-14
1.43117e-05
-2.53431e-14
1.50098e-05
2.9071e-14
1.5708e-05
-7.83019e-15
1.64061e-05
3.54184e-14
1.71042e-05
-4.50831e-15
1.78024e-05
4.23728e-14
1.85005e-05
-5.86256e-16
1.91986e-05
-8.73495e-15
1.98967e-05
2.05949e-05
-4.63042e-15
4.53785e-06
5.79782e-15
5.23599e-06
-1.61506e-14
5.93412e-06
-5.97412e-15
6.63225e-06
-8.55411e-15
7.33038e-06
4.2237e-15
8.02851e-06
-8.18619e-15
8.72664e-06
6.99826e-15
9.42478e-06
-2.42298e-14
1.01229e-05
-7.7678e-15
1.0821e-05
-2.27638e-14
1.15192e-05
8.3499e-15
1.22173e-05
-7.40273e-15
1.29154e-05
2.82659e-14
1.36136e-05
-4.57092e-14
1.43117e-05
-8.22015e-15
1.50098e-05
-2.82281e-14
1.5708e-05
-2.34255e-15
1.64061e-05
-6.9441e-15
1.71042e-05
2.21536e-14
1.78024e-05
-3.41086e-14
1.85005e-05
-3.74011e-15
1.91986e-05
-3.23454e-14
1.98967e-05
2.05949e-05
-8.92515e-15
4.53785e-06
-2.28863e-15
5.23599e-06
-2.22418e-15
5.93412e-06
6.61672e-15
6.63225e-06
-3.38768e-15
7.33038e-06
-3.90668e-15
8.02851e-06
-6.41826e-15
8.72664e-06
-7.15869e-15
9.42478e-06
6.81032e-15
1.01229e-05
6.98296e-15
1.0821e-05
-9.06452e-15
1.15192e-05
6.75964e-15
1.22173e-05
-2.88892e-14
1.29154e-05
-1.22345e-14
1.36136e-05
4.80355e-15
1.43117e-05
2.50268e-14
1.50098e-05
3.8612e-15
1.5708e-05
3.6092e-15
1.64061e-05
-2.04837e-14
1.71042e-05
-2.17567e-14
1.78024e-05
3.46542e-15
1.85005e-05
2.90395e-14
1.91986e-05
-1.66159e-15
1.98967e-05
2.05949e-05
6.21582e-15
4.53785e-06
-3.87904e-15
5.23599e-06
1.54222e-14
5.93412e-06
-7.06472e-15
6.63225e-06
-2.21007e-15
7.33038e-06
1.42935e-15
8.02851e-06
-5.49285e-15
8.72664e-06
1.32258e-14
9.42478e-06
6.04691e-15
1.01229e-05
-1.7451e-14
1.0821e-05
2.08873e-14
1.15192e-05
-2.14459e-14
1.22173e-05
1.91343e-14
1.29154e-05
-7.3139e-15
1.36136e-05
3.84859e-14
1.43117e-05
-1.2923e-14
1.50098e-05
-1.88245e-15
1.5708e-05
5.71739e-15
1.64061e-05
-7.58447e-15
1.71042e-05
2.76577e-14
1.78024e-05
1.41001e-14
1.85005e-05
-5.31389e-14
1.91986e-05
3.90858e-14
1.98967e-05
2.05949e-05
-1.49848e-15
4.53785e-06
1.08971e-14
5.23599e-06
-6.59928e-15
5.93412e-06
7.26564e-15
6.63225e-06
6.17567e-15
7.33038e-06
2.4891e-15
8.02851e-06
-9.64589e-16
8.72664e-06
-4.36519e-15
9.42478e-06
-8.8993e-15
1.01229e-05
1.38632e-14
1.0821e-05
1.06896e-14
1.15192e-05
6.25079e-15
1.22173e-05
-1.26612e-16
1.29154e-05
-3.43806e-15
1.36136e-05
-1.10425e-14
1.43117e-05
-1.77659e-14
1.50098e-05
1.76814e-14
1.5708e-05
9.95639e-15
1.64061e-05
3.33094e-15
1.71042e-05
-3.2967e-14
1.78024e-05
-1.04202e-14
1.85005e-05
3.00697e-14
1.91986e-05
-5.99885e-14
1.98967e-05
2.05949e-05
5.17025e-15
4.53785e-06
-7.45552e-15
5.23599e-06
-7.5681e-16
5.93412e-06
6.83978e-15
6.63225e-06
-9.97409e-15
7.33038e-06
-1.66422e-15
8.02851e-06
9.2188e-15
8.72664e-06
-1.34592e-14
9.42478e-06
2.32219e-14
1.01229e-05
1.04716e-14
1.0821e-05
-1.7273e-14
1.15192e-05
-3.02724e-15
1.22173e-05
1.1398e-14
1.29154e-05
-1.98152e-14
1.36136e-05
-4.67676e-15
1.43117e-05
5.03078e-14
1.50098e-05
-2.40448e-14
1.5708e-05
-6.65686e-15
1.64061e-05
1.42641e-14
1.71042e-05
1.65179e-15
1.78024e-05
-6.80824e-15
1.85005e-05
1.44476e-14
1.91986e-05
5.07597e-14
1.98967e-05
2.05949e-05
-6.19718e-15
4.53785e-06
2.84383e-17
5.23599e-06
1.1512e-14
5.93412e-06
-2.06261e-14
6.63225e-06
5.36749e-15
7.33038e-06
1.22189e-15
8.02851e-06
-4.6843e-17
8.72664e-06
1.23938e-14
9.42478e-06
-1.32246e-14
1.01229e-05
-1.88937e-14
1.0821e-05
-4.96376e-15
1.15192e-05
-7.15445e-15
1.22173e-05
-1.48876e-14
1.29154e-05
3.53385e-14
1.36136e-05
-1.44753e-18
1.43117e-05
-4.31356e-14
1.50098e-05
1.35649e-14
1.5708e-05
-2.8253e-14
1.64061e-05
2.45724e-15
1.71042e-05
-1.02398e-14
1.78024e-05
2.38063e-14
1.85005e-05
1.38751e-14
1.91986e-05
-4.55621e-14
1.98967e-05
2.05949e-05
-1.90644e-15
4.53785e-06
1.13076e-15
5.23599e-06
-2.16616e-14
5.93412e-06
9.62406e-15
6.63225e-06
1.51375e-14
7.33038e-06
-1.40648e-14
8.02851e-06
8.09297e-15
8.72664e-06
-2.6959e-14
9.42478e-06
-1.96453e-15
1.01229e-05
2.97172e-14
1.0821e-05
-1.1746e-14
1.15192e-05
1.98677e-14
1.22173e-05
-2.74442e-14
1.29154e-05
-2.06159e-14
1.36136e-05
1.60425e-14
1.43117e-05
-4.61347e-15
1.50098e-05
4.69254e-15
1.5708e-05
4.79715e-14
1.64061e-05
-1.37389e-14
1.71042e-05
3.23719e-14
1.78024e-05
-3.51827e-14
1.85005e-05
-2.49026e-14
1.91986e-05
7.19179e-14
1.98967e-05
2.05949e-05
1.90689e-15
4.53785e-06
-1.13031e-15
5.23599e-06
2.16621e-14
5.93412e-06
-9.62401e-15
6.63225e-06
-1.51372e-14
7.33038e-06
1.40649e-14
8.02851e-06
-8.09367e-15
8.72664e-06
2.69601e-14
9.42478e-06
1.96685e-15
1.01229e-05
-2.97164e-14
1.0821e-05
1.17454e-14
1.15192e-05
-1.98672e-14
1.22173e-05
2.74455e-14
1.29154e-05
2.06157e-14
1.36136e-05
-1.60428e-14
1.43117e-05
4.61193e-15
1.50098e-05
-4.68997e-15
1.5708e-05
-4.79638e-14
1.64061e-05
1.37396e-14
1.71042e-05
-3.23747e-14
1.78024e-05
3.5185e-14
1.85005e-05
2.49064e-14
1.91986e-05
-7.19139e-14
1.98967e-05
2.05949e-05
6.19722e-15
4.53785e-06
-2.85126e-17
5.23599e-06
-1.15117e-14
5.93412e-06
2.06264e-14
6.63225e-06
-5.36655e-15
7.33038e-06
-1.22137e-15
8.02851e-06
4.65711e-17
8.72664e-06
-1.23933e-14
9.42478e-06
1.32268e-14
1.01229e-05
1.8896e-14
1.0821e-05
4.96479e-15
1.15192e-05
7.15347e-15
1.22173e-05
1.48876e-14
1.29154e-05
-3.534e-14
1.36136e-05
1.24268e-18
1.43117e-05
4.31388e-14
1.50098e-05
-1.35629e-14
1.5708e-05
2.82576e-14
1.64061e-05
-2.45307e-15
1.71042e-05
1.02407e-14
1.78024e-05
-2.38056e-14
1.85005e-05
-1.38732e-14
1.91986e-05
4.55574e-14
1.98967e-05
2.05949e-05
-5.1699e-15
4.53785e-06
7.45585e-15
5.23599e-06
7.56556e-16
5.93412e-06
-6.83923e-15
6.63225e-06
9.97501e-15
7.33038e-06
1.66499e-15
8.02851e-06
-9.21848e-15
8.72664e-06
1.34602e-14
9.42478e-06
-2.32211e-14
1.01229e-05
-1.04719e-14
1.0821e-05
1.72718e-14
1.15192e-05
3.02622e-15
1.22173e-05
-1.13974e-14
1.29154e-05
1.98174e-14
1.36136e-05
4.68059e-15
1.43117e-05
-5.03065e-14
1.50098e-05
2.40421e-14
1.5708e-05
6.65997e-15
1.64061e-05
-1.42577e-14
1.71042e-05
-1.64992e-15
1.78024e-05
6.81106e-15
1.85005e-05
-1.44403e-14
1.91986e-05
-5.0759e-14
1.98967e-05
2.05949e-05
1.49851e-15
4.53785e-06
-1.08969e-14
5.23599e-06
6.59947e-15
5.93412e-06
-7.26576e-15
6.63225e-06
-6.17427e-15
7.33038e-06
-2.48859e-15
8.02851e-06
9.65169e-16
8.72664e-06
4.3652e-15
9.42478e-06
8.90085e-15
1.01229e-05
-1.38627e-14
1.0821e-05
-1.06906e-14
1.15192e-05
-6.25169e-15
1.22173e-05
1.27775e-16
1.29154e-05
3.43949e-15
1.36136e-05
1.10445e-14
1.43117e-05
1.77646e-14
1.50098e-05
-1.7682e-14
1.5708e-05
-9.95437e-15
1.64061e-05
-3.32749e-15
1.71042e-05
3.29689e-14
1.78024e-05
1.04192e-14
1.85005e-05
-3.00684e-14
1.91986e-05
5.99953e-14
1.98967e-05
2.05949e-05
-6.21579e-15
4.53785e-06
3.87938e-15
5.23599e-06
-1.54219e-14
5.93412e-06
7.06493e-15
6.63225e-06
2.21127e-15
7.33038e-06
-1.42886e-15
8.02851e-06
5.4926e-15
8.72664e-06
-1.32258e-14
9.42478e-06
-6.04581e-15
1.01229e-05
1.74516e-14
1.0821e-05
-2.08887e-14
1.15192e-05
2.14433e-14
1.22173e-05
-1.91339e-14
1.29154e-05
7.31597e-15
1.36136e-05
-3.84873e-14
1.43117e-05
1.29233e-14
1.50098e-05
1.88352e-15
1.5708e-05
-5.71546e-15
1.64061e-05
7.58124e-15
1.71042e-05
-2.76589e-14
1.78024e-05
-1.41018e-14
1.85005e-05
5.31414e-14
1.91986e-05
-3.90809e-14
1.98967e-05
2.05949e-05
8.92488e-15
4.53785e-06
2.28914e-15
5.23599e-06
2.22417e-15
5.93412e-06
-6.61656e-15
6.63225e-06
3.38942e-15
7.33038e-06
3.90655e-15
8.02851e-06
6.41785e-15
8.72664e-06
7.15769e-15
9.42478e-06
-6.80964e-15
1.01229e-05
-6.98179e-15
1.0821e-05
9.06559e-15
1.15192e-05
-6.75865e-15
1.22173e-05
2.88885e-14
1.29154e-05
1.22335e-14
1.36136e-05
-4.8042e-15
1.43117e-05
-2.50255e-14
1.50098e-05
-3.86345e-15
1.5708e-05
-3.60751e-15
1.64061e-05
2.04805e-14
1.71042e-05
2.17604e-14
1.78024e-05
-3.46834e-15
1.85005e-05
-2.90393e-14
1.91986e-05
1.67121e-15
1.98967e-05
2.05949e-05
4.63026e-15
4.53785e-06
-5.79729e-15
5.23599e-06
1.61506e-14
5.93412e-06
5.97433e-15
6.63225e-06
8.55602e-15
7.33038e-06
-4.2242e-15
8.02851e-06
8.18659e-15
8.72664e-06
-6.99821e-15
9.42478e-06
2.4229e-14
1.01229e-05
7.77049e-15
1.0821e-05
2.27651e-14
1.15192e-05
-8.3488e-15
1.22173e-05
7.40393e-15
1.29154e-05
-2.82645e-14
1.36136e-05
4.57101e-14
1.43117e-05
8.22358e-15
1.50098e-05
2.82296e-14
1.5708e-05
2.33853e-15
1.64061e-05
6.94657e-15
1.71042e-05
-2.21549e-14
1.78024e-05
3.41095e-14
1.85005e-05
3.74321e-15
1.91986e-05
3.23465e-14
1.98967e-05
2.05949e-05
-6.71507e-15
4.53785e-06
7.30647e-15
5.23599e-06
-1.11006e-14
5.93412e-06
4.24135e-15
6.63225e-06
-1.51021e-14
7.33038e-06
5.20872e-15
8.02851e-06
-1.70133e-14
8.72664e-06
3.94135e-15
9.42478e-06
2.94487e-16
1.01229e-05
-6.6107e-15
1.0821e-05
-1.37068e-14
1.15192e-05
-1.0184e-14
1.22173e-05
-1.82199e-14
1.29154e-05
-1.43687e-14
1.36136e-05
-2.33378e-14
1.43117e-05
2.53423e-14
1.50098e-05
-2.90733e-14
1.5708e-05
7.83086e-15
1.64061e-05
-3.54149e-14
1.71042e-05
4.51233e-15
1.78024e-05
-4.23691e-14
1.85005e-05
5.84052e-16
1.91986e-05
8.73287e-15
1.98967e-05
2.05949e-05
-5.98583e-15
4.53785e-06
-2.18946e-16
5.23599e-06
6.43607e-15
5.93412e-06
-6.06403e-15
6.63225e-06
2.09241e-15
7.33038e-06
-1.61764e-14
8.02851e-06
1.88308e-14
8.72664e-06
2.35053e-15
9.42478e-06
-9.17191e-15
1.01229e-05
4.71082e-15
1.0821e-05
-2.16286e-14
1.15192e-05
2.96447e-14
1.22173e-05
9.2899e-15
1.29154e-05
1.89077e-14
1.36136e-05
-4.46512e-15
1.43117e-05
-3.01572e-14
1.50098e-05
2.62172e-14
1.5708e-05
-4.36269e-16
1.64061e-05
2.11732e-14
1.71042e-05
-1.8716e-14
1.78024e-05
3.92335e-15
1.85005e-05
2.91569e-14
1.91986e-05
-1.52265e-14
1.98967e-05
2.05949e-05
8.6761e-15
4.53785e-06
-1.22924e-14
5.23599e-06
-1.8834e-15
5.93412e-06
-8.90235e-15
6.63225e-06
5.10817e-15
7.33038e-06
2.19909e-14
8.02851e-06
-1.22651e-14
8.72664e-06
5.37373e-15
9.42478e-06
-4.45619e-15
1.01229e-05
1.43053e-14
1.0821e-05
7.3259e-15
1.15192e-05
-7.04116e-15
1.22173e-05
-2.3998e-14
1.29154e-05
7.55596e-15
1.36136e-05
-9.79993e-15
1.43117e-05
1.62338e-14
1.50098e-05
-4.02931e-14
1.5708e-05
-1.44463e-14
1.64061e-05
1.37042e-14
1.71042e-05
7.89474e-15
1.78024e-05
3.92524e-14
1.85005e-05
-4.27501e-14
1.91986e-05
8.85462e-15
1.98967e-05
2.05949e-05
-9.39881e-15
4.53785e-06
-5.20476e-16
5.23599e-06
-7.52851e-15
5.93412e-06
4.41153e-15
6.63225e-06
-3.78358e-15
7.33038e-06
-1.33845e-14
8.02851e-06
2.10922e-15
8.72664e-06
-8.52833e-15
9.42478e-06
1.0028e-14
1.01229e-05
-1.86604e-15
1.0821e-05
2.02031e-14
1.15192e-05
7.01162e-15
1.22173e-05
-7.5112e-15
1.29154e-05
-2.36097e-14
1.36136e-05
2.04412e-15
1.43117e-05
-1.4833e-14
1.50098e-05
1.38806e-14
1.5708e-05
-2.39078e-15
1.64061e-05
-2.04113e-14
1.71042e-05
7.0152e-15
1.78024e-05
-1.20668e-14
1.85005e-05
2.59414e-14
1.91986e-05
-1.84626e-15
1.98967e-05
2.05949e-05
1.13359e-14
4.53785e-06
4.81097e-16
5.23599e-06
5.35699e-15
5.93412e-06
1.13033e-14
6.63225e-06
-4.86908e-15
7.33038e-06
1.10925e-15
8.02851e-06
8.15812e-15
8.72664e-06
-1.30435e-14
9.42478e-06
-5.94853e-15
1.01229e-05
1.99703e-15
1.0821e-05
-2.43862e-14
1.15192e-05
-1.61915e-14
1.22173e-05
3.27836e-14
1.29154e-05
3.05347e-15
1.36136e-05
1.44429e-14
1.43117e-05
2.69027e-14
1.50098e-05
-7.73789e-15
1.5708e-05
4.43698e-15
1.64061e-05
1.80027e-14
1.71042e-05
-2.1821e-14
1.78024e-05
-8.20884e-15
1.85005e-05
6.08514e-15
1.91986e-05
-3.89222e-14
1.98967e-05
2.05949e-05
1.36941e-16
9.81747e-07
2.42092e-16
1.37445e-06
3.7709e-16
1.76715e-06
-1.33931e-15
2.15984e-06
-3.68156e-15
2.55254e-06
2.94524e-06
5.95147e-15
1.84429e-18
9.81747e-07
-3.88758e-16
1.37445e-06
-2.60413e-15
1.76715e-06
1.94371e-15
2.15984e-06
8.06627e-15
2.55254e-06
2.94524e-06
-9.02969e-15
-1.16456e-16
9.81747e-07
1.86435e-16
1.37445e-06
-1.56236e-15
1.76715e-06
-4.21247e-15
2.15984e-06
-7.49851e-15
2.55254e-06
2.94524e-06
7.72434e-16
8.69548e-17
9.81747e-07
-1.01874e-16
1.37445e-06
2.69321e-15
1.76715e-06
7.44283e-15
2.15984e-06
3.25986e-15
2.55254e-06
2.94524e-06
-2.79778e-15
-4.83756e-17
9.81747e-07
3.94539e-17
1.37445e-06
1.94365e-16
1.76715e-06
-1.80607e-15
2.15984e-06
-4.2084e-15
2.55254e-06
2.94524e-06
5.01325e-15
-1.80119e-16
9.81747e-07
4.26458e-18
1.37445e-06
-1.84775e-15
1.76715e-06
-3.88607e-15
2.15984e-06
3.15704e-15
2.55254e-06
2.94524e-06
4.97951e-16
2.53956e-16
9.81747e-07
2.55429e-16
1.37445e-06
2.066e-15
1.76715e-06
4.5041e-15
2.15984e-06
-2.30998e-15
2.55254e-06
2.94524e-06
5.40899e-16
2.16568e-17
9.81747e-07
-3.21685e-16
1.37445e-06
-1.14888e-15
1.76715e-06
-5.28557e-15
2.15984e-06
-3.76698e-16
2.55254e-06
2.94524e-06
-5.63981e-15
-1.43394e-16
9.81747e-07
1.66415e-16
1.37445e-06
4.19118e-15
1.76715e-06
6.34939e-15
2.15984e-06
-8.05619e-16
2.55254e-06
2.94524e-06
8.39324e-16
-6.87897e-17
9.81747e-07
-9.20512e-17
1.37445e-06
-2.7694e-15
1.76715e-06
-3.68812e-16
2.15984e-06
-1.45075e-15
2.55254e-06
2.94524e-06
-1.76628e-16
1.66328e-16
9.81747e-07
-8.86867e-17
1.37445e-06
5.69667e-16
1.76715e-06
-2.10358e-15
2.15984e-06
9.66001e-15
2.55254e-06
2.94524e-06
5.29024e-15
-1.77774e-16
9.81747e-07
-2.05334e-17
1.37445e-06
-3.45429e-16
1.76715e-06
-4.17265e-15
2.15984e-06
-2.62226e-15
2.55254e-06
2.94524e-06
5.36948e-15
1.77773e-16
9.81747e-07
2.05237e-17
1.37445e-06
3.45481e-16
1.76715e-06
4.17257e-15
2.15984e-06
2.62234e-15
2.55254e-06
2.94524e-06
-5.36948e-15
-1.66341e-16
9.81747e-07
8.87179e-17
1.37445e-06
-5.69633e-16
1.76715e-06
2.10352e-15
2.15984e-06
-9.65989e-15
2.55254e-06
2.94524e-06
-5.29016e-15
6.88147e-17
9.81747e-07
9.20143e-17
1.37445e-06
2.76941e-15
1.76715e-06
3.68716e-16
2.15984e-06
1.45082e-15
2.55254e-06
2.94524e-06
1.7671e-16
1.43398e-16
9.81747e-07
-1.66408e-16
1.37445e-06
-4.19116e-15
1.76715e-06
-6.34946e-15
2.15984e-06
8.05771e-16
2.55254e-06
2.94524e-06
-8.39413e-16
-2.16446e-17
9.81747e-07
3.2172e-16
1.37445e-06
1.14888e-15
1.76715e-06
5.28554e-15
2.15984e-06
3.7685e-16
2.55254e-06
2.94524e-06
5.63985e-15
-2.53954e-16
9.81747e-07
-2.55371e-16
1.37445e-06
-2.06596e-15
1.76715e-06
-4.50409e-15
2.15984e-06
2.30987e-15
2.55254e-06
2.94524e-06
-5.40764e-16
1.80107e-16
9.81747e-07
-4.32493e-18
1.37445e-06
1.84779e-15
1.76715e-06
3.88622e-15
2.15984e-06
-3.15702e-15
2.55254e-06
2.94524e-06
-4.98219e-16
4.83595e-17
9.81747e-07
-3.9524e-17
1.37445e-06
-1.94316e-16
1.76715e-06
1.80615e-15
2.15984e-06
4.20873e-15
2.55254e-06
2.94524e-06
-5.01315e-15
-8.6943e-17
9.81747e-07
1.01903e-16
1.37445e-06
-2.69315e-15
1.76715e-06
-7.44281e-15
2.15984e-06
-3.25963e-15
2.55254e-06
2.94524e-06
2.79796e-15
1.16459e-16
9.81747e-07
-1.86425e-16
1.37445e-06
1.56237e-15
1.76715e-06
4.21262e-15
2.15984e-06
7.49851e-15
2.55254e-06
2.94524e-06
-7.72576e-16
-1.83184e-18
9.81747e-07
3.88799e-16
1.37445e-06
2.60413e-15
1.76715e-06
-1.94367e-15
2.15984e-06
-8.06614e-15
2.55254e-06
2.94524e-06
9.02969e-15
-1.36974e-16
-2.42118e-16
-3.76995e-16
1.33925e-15
3.68163e-15
-5.95134e-15
-1.1336e-14
4.53785e-06
-4.81014e-16
5.23599e-06
-5.35724e-15
5.93412e-06
-1.13037e-14
6.63225e-06
4.86879e-15
7.33038e-06
-1.11002e-15
8.02851e-06
-8.15843e-15
8.72664e-06
1.3045e-14
9.42478e-06
5.94963e-15
1.01229e-05
-1.99565e-15
1.0821e-05
2.4387e-14
1.15192e-05
1.61893e-14
1.22173e-05
-3.27862e-14
1.29154e-05
-3.0526e-15
1.36136e-05
-1.44411e-14
1.43117e-05
-2.68988e-14
1.50098e-05
7.73864e-15
1.5708e-05
-4.4401e-15
1.64061e-05
-1.79951e-14
1.71042e-05
2.18211e-14
1.78024e-05
8.21559e-15
1.85005e-05
-6.08115e-15
1.91986e-05
3.89195e-14
1.98967e-05
2.05949e-05
9.39902e-15
4.53785e-06
5.20337e-16
5.23599e-06
7.52837e-15
5.93412e-06
-4.41144e-15
6.63225e-06
3.78352e-15
7.33038e-06
1.33846e-14
8.02851e-06
-2.11073e-15
8.72664e-06
8.52957e-15
9.42478e-06
-1.00274e-14
1.01229e-05
1.86654e-15
1.0821e-05
-2.02017e-14
1.15192e-05
-7.01267e-15
1.22173e-05
7.51146e-15
1.29154e-05
2.36067e-14
1.36136e-05
-2.04149e-15
1.43117e-05
1.48337e-14
1.50098e-05
-1.3879e-14
1.5708e-05
2.39264e-15
1.64061e-05
2.04132e-14
1.71042e-05
-7.01722e-15
1.78024e-05
1.20687e-14
1.85005e-05
-2.59455e-14
1.91986e-05
1.84993e-15
1.98967e-05
2.05949e-05
-8.67588e-15
4.53785e-06
1.22923e-14
5.23599e-06
1.88325e-15
5.93412e-06
8.90236e-15
6.63225e-06
-5.10859e-15
7.33038e-06
-2.19904e-14
8.02851e-06
1.22638e-14
8.72664e-06
-5.37384e-15
9.42478e-06
4.45724e-15
1.01229e-05
-1.43057e-14
1.0821e-05
-7.32507e-15
1.15192e-05
7.04093e-15
1.22173e-05
2.39961e-14
1.29154e-05
-7.55311e-15
1.36136e-05
9.79993e-15
1.43117e-05
-1.62379e-14
1.50098e-05
4.02956e-14
1.5708e-05
1.44504e-14
1.64061e-05
-1.37024e-14
1.71042e-05
-7.8964e-15
1.78024e-05
-3.92524e-14
1.85005e-05
4.27532e-14
1.91986e-05
-8.84986e-15
1.98967e-05
2.05949e-05
5.98603e-15
4.53785e-06
2.1902e-16
5.23599e-06
-6.43539e-15
5.93412e-06
6.06427e-15
6.63225e-06
-2.09202e-15
7.33038e-06
1.6177e-14
8.02851e-06
-1.88308e-14
8.72664e-06
-2.35106e-15
9.42478e-06
9.17262e-15
1.01229e-05
-4.71007e-15
1.0821e-05
2.16279e-14
1.15192e-05
-2.96454e-14
1.22173e-05
-9.29089e-15
1.29154e-05
-1.89054e-14
1.36136e-05
4.46719e-15
1.43117e-05
3.01549e-14
1.50098e-05
-2.62174e-14
1.5708e-05
4.35978e-16
1.64061e-05
-2.11696e-14
1.71042e-05
1.87157e-14
1.78024e-05
-3.92187e-15
1.85005e-05
-2.91568e-14
1.91986e-05
1.52279e-14
1.98967e-05
2.05949e-05
6.71512e-15
4.53785e-06
-7.3063e-15
5.23599e-06
1.1101e-14
5.93412e-06
-4.24067e-15
6.63225e-06
1.51026e-14
7.33038e-06
-5.20921e-15
8.02851e-06
1.70144e-14
8.72664e-06
-3.94031e-15
9.42478e-06
-2.94118e-16
1.01229e-05
6.61242e-15
1.0821e-05
1.37057e-14
1.15192e-05
1.01841e-14
1.22173e-05
1.82181e-14
1.29154e-05
1.43693e-14
1.36136e-05
2.33414e-14
1.43117e-05
-2.53431e-14
1.50098e-05
2.9071e-14
1.5708e-05
-7.83019e-15
1.64061e-05
3.54184e-14
1.71042e-05
-4.50831e-15
1.78024e-05
4.23728e-14
1.85005e-05
-5.86256e-16
1.91986e-05
-8.73495e-15
1.98967e-05
2.05949e-05
-4.63042e-15
4.53785e-06
5.79782e-15
5.23599e-06
-1.61506e-14
5.93412e-06
-5.97412e-15
6.63225e-06
-8.55411e-15
7.33038e-06
4.2237e-15
8.02851e-06
-8.18619e-15
8.72664e-06
6.99826e-15
9.42478e-06
-2.42298e-14
1.01229e-05
-7.7678e-15
1.0821e-05
-2.27638e-14
1.15192e-05
8.3499e-15
1.22173e-05
-7.40273e-15
1.29154e-05
2.82659e-14
1.36136e-05
-4.57092e-14
1.43117e-05
-8.22015e-15
1.50098e-05
-2.82281e-14
1.5708e-05
-2.34255e-15
1.64061e-05
-6.9441e-15
1.71042e-05
2.21536e-14
1.78024e-05
-3.41086e-14
1.85005e-05
-3.74011e-15
1.91986e-05
-3.23454e-14
1.98967e-05
2.05949e-05
-8.92515e-15
4.53785e-06
-2.28863e-15
5.23599e-06
-2.22418e-15
5.93412e-06
6.61672e-15
6.63225e-06
-3.38768e-15
7.33038e-06
-3.90668e-15
8.02851e-06
-6.41826e-15
8.72664e-06
-7.15869e-15
9.42478e-06
6.81032e-15
1.01229e-05
6.98296e-15
1.0821e-05
-9.06452e-15
1.15192e-05
6.75964e-15
1.22173e-05
-2.88892e-14
1.29154e-05
-1.22345e-14
1.36136e-05
4.80355e-15
1.43117e-05
2.50268e-14
1.50098e-05
3.8612e-15
1.5708e-05
3.6092e-15
1.64061e-05
-2.04837e-14
1.71042e-05
-2.17567e-14
1.78024e-05
3.46542e-15
1.85005e-05
2.90395e-14
1.91986e-05
-1.66159e-15
1.98967e-05
2.05949e-05
6.21582e-15
4.53785e-06
-3.87904e-15
5.23599e-06
1.54222e-14
5.93412e-06
-7.06472e-15
6.63225e-06
-2.21007e-15
7.33038e-06
1.42935e-15
8.02851e-06
-5.49285e-15
8.72664e-06
1.32258e-14
9.42478e-06
6.04691e-15
1.01229e-05
-1.7451e-14
1.0821e-05
2.08873e-14
1.15192e-05
-2.14459e-14
1.22173e-05
1.91343e-14
1.29154e-05
-7.3139e-15
1.36136e-05
3.84859e-14
1.43117e-05
-1.2923e-14
1.50098e-05
-1.88245e-15
1.5708e-05
5.71739e-15
1.64061e-05
-7.58447e-15
1.71042e-05
2.76577e-14
1.78024e-05
1.41001e-14
1.85005e-05
-5.31389e-14
1.91986e-05
3.90858e-14
1.98967e-05
2.05949e-05
-1.49848e-15
4.53785e-06
1.08971e-14
5.23599e-06
-6.59928e-15
5.93412e-06
7.26564e-15
6.63225e-06
6.17567e-15
7.33038e-06
2.4891e-15
8.02851e-06
-9.64589e-16
8.72664e-06
-4.36519e-15
9.42478e-06
-8.8993e-15
1.01229e-05
1.38632e-14
1.0821e-05
1.06896e-14
1.15192e-05
6.25079e-15
1.22173e-05
-1.26612e-16
1.29154e-05
-3.43806e-15
1.36136e-05
-1.10425e-14
1.43117e-05
-1.77659e-14
1.50098e-05
1.76814e-14
1.5708e-05
9.95639e-15
1.64061e-05
3.33094e-15
1.71042e-05
-3.2967e-14
1.78024e-05
-1.04202e-14
1.85005e-05
3.00697e-14
1.91986e-05
-5.99885e-14
1.98967e-05
2.05949e-05
5.17025e-15
4.53785e-06
-7.45552e-15
5.23599e-06
-7.5681e-16
5.93412e-06
6.83978e-15
6.63225e-06
-9.97409e-15
7.33038e-06
-1.66422e-15
8.02851e-06
9.2188e-15
8.72664e-06
-1.34592e-14
9.42478e-06
2.32219e-14
1.01229e-05
1.04716e-14
1.0821e-05
-1.7273e-14
1.15192e-05
-3.02724e-15
1.22173e-05
1.1398e-14
1.29154e-05
-1.98152e-14
1.36136e-05
-4.67676e-15
1.43117e-05
5.03078e-14
1.50098e-05
-2.40448e-14
1.5708e-05
-6.65686e-15
1.64061e-05
1.42641e-14
1.71042e-05
1.65179e-15
1.78024e-05
-6.80824e-15
1.85005e-05
1.44476e-14
1.91986e-05
5.07597e-14
1.98967e-05
2.05949e-05
-6.19718e-15
4.53785e-06
2.84383e-17
5.23599e-06
1.1512e-14
5.93412e-06
-2.06261e-14
6.63225e-06
5.36749e-15
7.33038e-06
1.22189e-15
8.02851e-06
-4.6843e-17
8.72664e-06
1.23938e-14
9.42478e-06
-1.32246e-14
1.01229e-05
-1.88937e-14
1.0821e-05
-4.96376e-15
1.15192e-05
-7.15445e-15
1.22173e-05
-1.48876e-14
1.29154e-05
3.53385e-14
1.36136e-05
-1.44753e-18
1.43117e-05
-4.31356e-14
1.50098e-05
1.35649e-14
1.5708e-05
-2.8253e-14
1.64061e-05
2.45724e-15
1.71042e-05
-1.02398e-14
1.78024e-05
2.38063e-14
1.85005e-05
1.38751e-14
1.91986e-05
-4.55621e-14
1.98967e-05
2.05949e-05
-1.90644e-15
4.53785e-06
1.13076e-15
5.23599e-06
-2.16616e-14
5.93412e-06
9.62406e-15
6.63225e-06
1.51375e-14
7.33038e-06
-1.40648e-14
8.02851e-06
8.09297e-15
8.72664e-06
-2.6959e-14
9.42478e-06
-1.96453e-15
1.01229e-05
2.97172e-14
1.0821e-05
-1.1746e-14
1.15192e-05
1.98677e-14
1.22173e-05
-2.74442e-14
1.29154e-05
-2.06159e-14
1.36136e-05
1.60425e-14
1.43117e-05
-4.61347e-15
1.50098e-05
4.69254e-15
1.5708e-05
4.79715e-14
1.64061e-05
-1.37389e-14
1.71042e-05
3.23719e-14
1.78024e-05
-3.51827e-14
1.85005e-05
-2.49026e-14
1.91986e-05
7.19179e-14
1.98967e-05
2.05949e-05
1.90689e-15
4.53785e-06
-1.13031e-15
5.23599e-06
2.16621e-14
5.93412e-06
-9.62401e-15
6.63225e-06
-1.51372e-14
7.33038e-06
1.40649e-14
8.02851e-06
-8.09367e-15
8.72664e-06
2.69601e-14
9.42478e-06
1.96685e-15
1.01229e-05
-2.97164e-14
1.0821e-05
1.17454e-14
1.15192e-05
-1.98672e-14
1.22173e-05
2.74455e-14
1.29154e-05
2.06157e-14
1.36136e-05
-1.60428e-14
1.43117e-05
4.61193e-15
1.50098e-05
-4.68997e-15
1.5708e-05
-4.79638e-14
1.64061e-05
1.37396e-14
1.71042e-05
-3.23747e-14
1.78024e-05
3.5185e-14
1.85005e-05
2.49064e-14
1.91986e-05
-7.19139e-14
1.98967e-05
2.05949e-05
6.19722e-15
4.53785e-06
-2.85126e-17
5.23599e-06
-1.15117e-14
5.93412e-06
2.06264e-14
6.63225e-06
-5.36655e-15
7.33038e-06
-1.22137e-15
8.02851e-06
4.65711e-17
8.72664e-06
-1.23933e-14
9.42478e-06
1.32268e-14
1.01229e-05
1.8896e-14
1.0821e-05
4.96479e-15
1.15192e-05
7.15347e-15
1.22173e-05
1.48876e-14
1.29154e-05
-3.534e-14
1.36136e-05
1.24268e-18
1.43117e-05
4.31388e-14
1.50098e-05
-1.35629e-14
1.5708e-05
2.82576e-14
1.64061e-05
-2.45307e-15
1.71042e-05
1.02407e-14
1.78024e-05
-2.38056e-14
1.85005e-05
-1.38732e-14
1.91986e-05
4.55574e-14
1.98967e-05
2.05949e-05
-5.1699e-15
4.53785e-06
7.45585e-15
5.23599e-06
7.56556e-16
5.93412e-06
-6.83923e-15
6.63225e-06
9.97501e-15
7.33038e-06
1.66499e-15
8.02851e-06
-9.21848e-15
8.72664e-06
1.34602e-14
9.42478e-06
-2.32211e-14
1.01229e-05
-1.04719e-14
1.0821e-05
1.72718e-14
1.15192e-05
3.02622e-15
1.22173e-05
-1.13974e-14
1.29154e-05
1.98174e-14
1.36136e-05
4.68059e-15
1.43117e-05
-5.03065e-14
1.50098e-05
2.40421e-14
1.5708e-05
6.65997e-15