/*--------------------------------*- C++ -*----------------------------------*\
  =========                 |
  \\      /  F ield         | OpenFOAM: The Open Source CFD Toolbox
   \\    /   O peration     | Website:  https://openfoam.org
    \\  /    A nd           | Version:  11
     \\/     M anipulation  |
\*---------------------------------------------------------------------------*/
FoamFile
{
    format      ascii;
    class       volScalarField;
    location    "1.78";
    object      nut;
}
// * * * * * * * * * * * * * * * * * * * * * * * * * * * * * * * * * * * * * //

dimensions      [0 2 -1 0 0 0 0];

internalField   nonuniform List<scalar> 
2880
(
8.63593e-07
5.89922e-06
2.54886e-05
6.51186e-05
0.00014072
5.35424e-05
3.02233e-05
7.44146e-05
0.000159654
0.000277428
0.000445598
0.000509001
0.000174037
0.000151372
0.000288574
0.000468889
0.000716465
0.000964381
0.000190312
0.000207716
0.000385608
0.000613262
0.000923464
0.00127991
0.000199726
0.000245992
0.000456746
0.000725469
0.00108488
0.00148998
4.7648e-05
0.000269895
0.000509533
0.000815087
0.00120945
0.00164076
4.85757e-05
0.000289619
0.000549193
0.000884412
0.00130683
0.00175231
4.94153e-05
0.000305535
0.000579059
0.000936709
0.00138343
0.00184105
5.00674e-05
0.000318084
0.000599915
0.000974965
0.00144198
0.00191086
5.04908e-05
0.000327071
0.000611797
0.00100102
0.00148357
0.00196179
5.06875e-05
0.000332205
0.000614733
0.00101476
0.00150895
0.00199411
5.06899e-05
0.000332588
0.000609186
0.00101532
0.00151759
0.00200846
5.05639e-05
0.00032758
0.000595313
0.00100167
0.00150847
0.00200538
5.02082e-05
0.000317305
0.000572817
0.000973303
0.00148101
0.00198443
4.96106e-05
0.000301909
0.00054157
0.000928224
0.00143429
0.00194451
4.88168e-05
0.000281623
0.000501551
0.000869224
0.00136433
0.00188361
4.79711e-05
0.000256915
0.000454528
0.000794486
0.00127521
0.00179737
0.00020021
0.000228567
0.000399904
0.00070449
0.00116106
0.00168603
0.000193932
0.000196631
0.000338375
0.000600565
0.00101959
0.00154119
0.000184415
0.000161149
0.000270596
0.000485097
0.000849564
0.00135482
0.000170373
0.000123744
0.000197314
0.000361692
0.000653103
0.00111695
0.000152895
8.2998e-05
0.000122363
0.000233704
0.000438976
0.000820348
2.64193e-05
3.61458e-05
5.16593e-05
0.000110461
0.000228937
0.000464409
7.12125e-07
1.82843e-06
7.14891e-06
3.04413e-05
7.77361e-05
0.000135194
0.000408758
0.00110648
0.00176356
0.00214426
0.00244733
0.00272533
0.00300752
0.00330429
0.00361565
0.00393709
0.00426223
0.00458335
0.00489081
0.00517254
0.00541402
0.00559914
0.0057117
0.00573717
0.00566413
0.00548445
0.00519211
0.00478002
0.00423447
0.00352328
0.00103318
0.00168612
0.00208767
0.00239223
0.00266093
0.00292674
0.00320576
0.00350138
0.00381019
0.00412601
0.00444141
0.00474769
0.00503423
0.00528822
0.00549505
0.00563956
0.00570788
0.00568937
0.00557782
0.00537131
0.00507038
0.00467494
0.00418123
0.00357193
0.00145279
0.00198524
0.00231904
0.00259533
0.00285285
0.00311591
0.0033945
0.00368863
0.00399324
0.00430126
0.00460454
0.00489349
0.0051567
0.00538086
0.0055516
0.00565518
0.00568052
0.00562116
0.00547602
0.00524868
0.00494476
0.00456895
0.00412395
0.0036008
0.00172695
0.00219964
0.00251091
0.0027763
0.00303079
0.00329396
0.00357222
0.00386364
0.00416223
0.00446034
0.00474912
0.00501821
0.00525547
0.00544731
0.00557996
0.00564144
0.00562387
0.00552517
0.00534933
0.00510487
0.00480155
0.00444762
0.00405024
0.00360621
0.00192374
0.00237684
0.00267788
0.00294016
0.00319527
0.00345946
0.00373682
0.00402424
0.00431515
0.00460139
0.00487344
0.00512022
0.00532898
0.00548612
0.00557875
0.0055971
0.00553686
0.00540054
0.00519717
0.00493981
0.00464157
0.00431298
0.00396366
0.00359346
0.00208078
0.00252366
0.00282321
0.00308745
0.0033453
0.00361081
0.00388662
0.00416889
0.00445067
0.0047233
0.00497663
0.0051989
0.00537697
0.00549743
0.00554867
0.00552354
0.00542169
0.00525056
0.0050241
0.00475938
0.00447174
0.00417246
0.00387149
0.00356944
0.0022147
0.00264385
0.00294898
0.00321835
0.00348009
0.00374692
0.00402058
0.00429678
0.00456819
0.00482573
0.00505865
0.00525462
0.00540028
0.0054827
0.00549191
0.00542385
0.00528263
0.00508081
0.00483712
0.00457169
0.00430066
0.00403434
0.00378098
0.00354021
0.00232297
0.00274296
0.00305696
0.00333303
0.00359922
0.00386728
0.00413831
0.00440768
0.00466776
0.00490902
0.00512022
0.00528858
0.00540068
0.00544435
0.00541172
0.00530233
0.00512526
0.0048984
0.00464464
0.00438588
0.00413721
0.00390621
0.003698
0.00351026
0.00240696
0.00282484
0.00314834
0.00343174
0.00370264
0.00397187
0.00423994
0.00450193
0.00474995
0.00497409
0.00516267
0.00530258
0.00538052
0.00538544
0.00531201
0.00516403
0.00495603
0.00471111
0.00445533
0.00421045
0.00398858
0.00379332
0.00362596
0.0034823
0.0024693
0.00289174
0.00322384
0.00351482
0.00379068
0.00406111
0.00432605
0.0045803
0.00481579
0.00502229
0.00518774
0.00529884
0.00534261
0.00530946
0.00519717
0.00501452
0.00478178
0.00452677
0.00427702
0.004052
0.0038593
0.00369803
0.00356596
0.00345766
0.00251301
0.0029428
0.00328377
0.00358278
0.00386395
0.00413574
0.0043975
0.00464387
0.00486661
0.00505526
0.00519748
0.00527985
0.00528998
0.00522012
0.00507189
0.00485957
0.00460929
0.00435237
0.00411571
0.00391452
0.00375104
0.00362031
0.00351753
0.00343685
0.00253946
0.0029781
0.00332856
0.00363622
0.00392322
0.00419668
0.00445541
0.00469393
0.00490394
0.00507484
0.00519407
0.00524825
0.00522579
0.00512133
0.00494093
0.00470492
0.00444472
0.00419344
0.00397512
0.00379932
0.00366314
0.00355861
0.00347941
0.00341986
0.00254933
0.00299792
0.00335866
0.0036758
0.00396935
0.00424498
0.00450098
0.00473184
0.00492938
0.0050829
0.00517974
0.00520668
0.00515323
0.00501696
0.00480902
0.00455584
0.00429311
0.00405358
0.00385655
0.00370557
0.00359353
0.00351066
0.00345004
0.00340645
0.0025428
0.00300251
0.00337444
0.00370211
0.00400319
0.0042817
0.00453543
0.00475904
0.00494454
0.00508131
0.00515667
0.00515772
0.00507544
0.00491084
0.00468058
0.00441685
0.00415801
0.00393438
0.00375941
0.00363112
0.00353951
0.0034741
0.00342792
0.00339625
0.0025197
0.00299194
0.00337605
0.00371555
0.00402547
0.00430785
0.00455997
0.00477686
0.00495095
0.00507183
0.00512693
0.00510388
0.00499547
0.00480659
0.00455952
0.00429138
0.00404136
0.00383571
0.00368182
0.00357326
0.00349836
0.00344672
0.00341164
0.00338881
0.00247953
0.00296603
0.00336325
0.00371613
0.00403675
0.00432436
0.00457574
0.00478658
0.00495004
0.0050561
0.00509247
0.00504753
0.00491619
0.00470748
0.00444905
0.00418168
0.00394366
0.00375625
0.0036213
0.0035292
0.00346763
0.00342665
0.00339993
0.00338363
0.00242144
0.00292433
0.00333519
0.00370326
0.00403724
0.00433202
0.00458374
0.00478932
0.00494305
0.00503557
0.00505507
0.00499089
0.00484028
0.00461639
0.00435157
0.00408886
0.00386429
0.00369396
0.00357523
0.00349645
0.00344527
0.0034124
0.00339157
0.00338018
0.0023444
0.0028661
0.00329003
0.00367521
0.00402665
0.00433148
0.00458486
0.00478603
0.00493103
0.00501152
0.00501637
0.00493603
0.00477014
0.00453569
0.00426873
0.00401316
0.00380199
0.00364664
0.00354117
0.00347283
0.0034296
0.0034022
0.0033863
0.00337804
0.00224639
0.00279024
0.0032242
0.00362812
0.00400371
0.00432337
0.00457991
0.00477746
0.00491481
0.00498502
0.00497779
0.00488478
0.00470787
0.00446725
0.00420149
0.00395423
0.00375528
0.00361229
0.0035171
0.00345656
0.00341905
0.00339572
0.00338317
0.00337683
0.00212436
0.00269036
0.00313567
0.00356691
0.00396926
0.00430894
0.00456967
0.00476416
0.00489499
0.0049569
0.00494055
0.00483871
0.00465515
0.00441236
0.00415024
0.00391138
0.0037227
0.00358919
0.00350145
0.00344631
0.00341268
0.00339217
0.00338144
0.00337624
0.00197178
0.00255685
0.00302645
0.00349629
0.00393056
0.00429065
0.00455498
0.00474647
0.00487191
0.00492778
0.00490559
0.00479905
0.00461321
0.00437182
0.00411495
0.00388377
0.00370299
0.00357604
0.00349311
0.0034412
0.0034097
0.00339101
0.00338112
0.00337618
0.00176864
0.00239099
0.0029034
0.0034248
0.00389492
0.00427088
0.00453633
0.0047244
0.00484567
0.00489801
0.00487362
0.00476668
0.00458278
0.00434595
0.00409534
0.00387066
0.00369517
0.00357191
0.0034913
0.00344092
0.00341031
0.00339182
0.00338172
0.00337639
0.00149422
0.00219923
0.00278232
0.00336567
0.00386987
0.00425117
0.0045136
0.00469761
0.00481612
0.00486778
0.00484504
0.00474205
0.00456408
0.0043348
0.00409105
0.00387139
0.00369874
0.00357648
0.00349584
0.0034449
0.00341351
0.00339454
0.00338337
0.00337697
0.0011658
0.00200812
0.00269403
0.00333572
0.00386026
0.00423114
0.0044858
0.0046654
0.00478297
0.00483697
0.00481989
0.0047253
0.00455768
0.00433762
0.0041016
0.00388588
0.00371363
0.00358971
0.0035067
0.00345341
0.00341989
0.00339896
0.00338594
0.00337785
7.66234e-07
2.36167e-06
1.12137e-05
3.03008e-05
6.17446e-05
0.000110857
2.8373e-05
2.59418e-05
5.20049e-05
9.11113e-05
0.000155202
0.000270305
0.000165442
7.2076e-05
0.000119968
0.000189826
0.000299683
0.000536282
0.000183297
0.000122827
0.000191663
0.000301308
0.000482139
0.000819987
4.73416e-05
0.000170457
0.000263865
0.000424832
0.000675845
0.00106648
5.08651e-05
0.000214237
0.000336432
0.000550948
0.000854449
0.00126446
5.36623e-05
0.000255545
0.000407989
0.000668381
0.00100431
0.00141374
5.58302e-05
0.0002926
0.000476266
0.000770497
0.0011216
0.00152535
5.74687e-05
0.00032458
0.000538798
0.000854808
0.00121635
0.0015892
5.86549e-05
0.000350974
0.000593452
0.000922572
0.00127706
0.00162362
5.94425e-05
0.000371266
0.000639249
0.000970878
0.00131486
0.00163686
5.98657e-05
0.000384779
0.000672612
0.00100283
0.0013336
0.00163363
5.99538e-05
0.000390646
0.000693286
0.00101954
0.00133629
0.00161755
5.98845e-05
0.000387343
0.000700767
0.00102141
0.00132485
0.00159106
5.97154e-05
0.000374881
0.000695034
0.00100902
0.0013009
0.00155443
5.93712e-05
0.000355027
0.000676357
0.000982716
0.00126527
0.00150712
5.87654e-05
0.000328856
0.00064519
0.000942368
0.00121676
0.00145217
5.77879e-05
0.000298074
0.000601982
0.00088731
0.00115378
0.00138786
5.62591e-05
0.000264175
0.000550044
0.000815978
0.00107289
0.00131035
5.3808e-05
0.00022822
0.000485054
0.000726424
0.000967905
0.0012079
4.96181e-05
0.000188495
0.000404997
0.000615879
0.000829668
0.00106266
0.000197804
0.000146599
0.000302665
0.000467514
0.000648612
0.00085882
3.5468e-05
7.85306e-05
0.000167989
0.000269419
0.000394676
0.000588259
1.12324e-06
5.94967e-06
2.29155e-05
5.43463e-05
0.000102078
0.00019838
0.00102421
0.00192017
0.00268317
0.0033467
0.00386171
0.00420756
0.00445113
0.00462686
0.00474581
0.00480566
0.00479776
0.00471546
0.00456146
0.00435423
0.00412665
0.00391395
0.0037401
0.00361209
0.00352441
0.00346684
0.00342962
0.00340547
0.00338967
0.00337923
0.00111504
0.00197207
0.00274526
0.00338731
0.00385496
0.00417506
0.00440757
0.00458112
0.00470401
0.00477265
0.00477786
0.00471176
0.00457508
0.0043832
0.0041655
0.00395566
0.00377873
0.00364445
0.00354981
0.00348591
0.00344331
0.00341458
0.00339495
0.00338134
0.0012879
0.0020948
0.00283633
0.00342296
0.00383488
0.00413055
0.00435381
0.00452762
0.00465718
0.00473763
0.00475911
0.0047126
0.00459663
0.004423
0.00421721
0.00401091
0.00383019
0.00368789
0.00358409
0.00351171
0.00346182
0.00342698
0.00340228
0.0033845
0.00148522
0.00223636
0.00291861
0.0034296
0.00379792
0.00407166
0.00428943
0.00446623
0.00460491
0.00469961
0.00473994
0.0047159
0.00462374
0.0044715
0.00428037
0.00407936
0.00389513
0.00374369
0.00362875
0.00354565
0.00348641
0.00344362
0.00341213
0.0033889
0.00167278
0.00235958
0.00296259
0.00341006
0.00373989
0.00399965
0.0042149
0.00439703
0.00454674
0.00465745
0.00471853
0.00471919
0.00465359
0.00452599
0.00435296
0.00416014
0.00397395
0.0038132
0.00368559
0.00358954
0.00351855
0.00346551
0.00342516
0.00339475
0.00181529
0.00243391
0.00296991
0.00336122
0.00366513
0.00391526
0.004131
0.0043202
0.00448212
0.00460989
0.00469287
0.00471979
0.004683
0.00458319
0.00443219
0.00425157
0.00406642
0.00389754
0.0037565
0.00364542
0.00356
0.00349397
0.00344247
0.00340269
0.00192846
0.00248233
0.00293881
0.00329073
0.00357601
0.00382047
0.00403864
0.00423584
0.00441045
0.00455559
0.0046609
0.0047149
0.00470854
0.0046393
0.00451441
0.00435084
0.00417114
0.00399686
0.0038429
0.00371535
0.00361285
0.00353079
0.00346523
0.00341324
0.00199611
0.00248315
0.00288258
0.00320426
0.00347586
0.00371699
0.00393848
0.00414387
0.00433101
0.00449325
0.00462064
0.0047018
0.00472669
0.00469015
0.00459514
0.00445377
0.00428506
0.00410981
0.00394511
0.00380081
0.00367909
0.00357779
0.00349462
0.0034267
0.00202522
0.00245271
0.00280858
0.00310642
0.00336723
0.00360601
0.00383085
0.00404401
0.00424303
0.00442154
0.0045702
0.0046779
0.00473404
0.00473142
0.00466929
0.00455506
0.00440345
0.00423309
0.00406174
0.00390216
0.00376013
0.00363662
0.0035318
0.00344333
0.00202466
0.00240203
0.00272293
0.0030007
0.00325192
0.00348825
0.00371579
0.00393582
0.00414565
0.00433926
0.00450789
0.0046409
0.00472749
0.004759
0.00473167
0.00464862
0.00452004
0.00436126
0.00418907
0.00401772
0.00385601
0.00370822
0.00357765
0.00346319
0.00200208
0.00233885
0.00263016
0.00288964
0.00313115
0.00336411
0.00359315
0.00381874
0.00403802
0.00424525
0.00443222
0.00458885
0.00470436
0.00476921
0.00477734
0.0047282
0.00462763
0.00448701
0.00432079
0.00414308
0.00396444
0.00379194
0.00363221
0.00348591
0.00196582
0.00226862
0.00253358
0.00277516
0.0030059
0.00323389
0.00346272
0.00369224
0.00391934
0.00413848
0.00434191
0.00452009
0.0046625
0.00475906
0.00480205
0.00478801
0.00471887
0.00460196
0.00444848
0.00427091
0.00408005
0.00388459
0.00369384
0.00351026
0.0019212
0.0021951
0.0024357
0.00265892
0.00287716
0.00309801
0.00332448
0.0035559
0.00378892
0.00401804
0.00423588
0.00443335
0.00460025
0.00472625
0.0048025
0.00482326
0.0047872
0.00469781
0.00456269
0.0043917
0.00419444
0.00397979
0.00375832
0.00353354
0.00187138
0.00212081
0.00233857
0.0025426
0.00274619
0.00295726
0.00317872
0.00340962
0.00364631
0.00388327
0.00411328
0.00432764
0.00451642
0.00466922
0.0047764
0.00483049
0.00482747
0.00476745
0.00465446
0.00449523
0.00429721
0.00406818
0.00381836
0.00355087
0.00181791
0.00204737
0.00224385
0.00242796
0.00261465
0.00281296
0.0030263
0.00325374
0.00349148
0.00373381
0.00397359
0.00420231
0.00441027
0.00458706
0.00472244
0.00480762
0.00483634
0.00480581
0.00471671
0.0045725
0.00437798
0.00413897
0.00386404
0.00355474
0.00176034
0.00197565
0.00215281
0.0023168
0.00248463
0.00266707
0.00286878
0.00308934
0.00332496
0.00356981
0.00381666
0.00405709
0.00428151
0.00447946
0.00464024
0.00475393
0.00481242
0.00481032
0.00474524
0.00461741
0.00442867
0.00418239
0.00388465
0.00353547
0.00169307
0.00190637
0.00206594
0.00221061
0.00235841
0.0025222
0.00270858
0.00291834
0.00314812
0.00339212
0.00364299
0.00389226
0.00413036
0.00434672
0.00453023
0.00466997
0.00475618
0.00478108
0.00473936
0.004628
0.00444566
0.00419262
0.00387167
0.00348277
0.00161389
0.0018361
0.00198191
0.00210992
0.00223806
0.00238134
0.00254893
0.00274367
0.00296334
0.0032025
0.00345383
0.00370876
0.00395766
0.00418984
0.00439376
0.0045576
0.00467004
0.00472106
0.00470242
0.00460773
0.00443189
0.00417102
0.00382274
0.00338849
0.00152372
0.00175439
0.00189676
0.00201364
0.00212475
0.00224732
0.00239357
0.00256924
0.00277415
0.00300389
0.00325148
0.00350843
0.00376508
0.0040106
0.00423313
0.00442009
0.00455873
0.0046369
0.00464342
0.00456816
0.0044014
0.00413288
0.00375032
0.00325239
0.00142479
0.00164793
0.001806
0.00191893
0.00201811
0.00212215
0.00224624
0.00239963
0.00258518
0.00280044
0.00303946
0.00329417
0.00355509
0.00381149
0.00405143
0.0042619
0.00442923
0.00453961
0.00457938
0.00453488
0.0043915
0.00413114
0.00372318
0.00311068
0.00130599
0.00151281
0.00170232
0.00182087
0.00191579
0.00200623
0.00210981
0.00223947
0.00240183
0.0025975
0.00282253
0.00306997
0.00333099
0.00359538
0.00385162
0.0040871
0.00428838
0.00444167
0.00453319
0.00454953
0.00448011
0.00432884
0.00414305
0.00403529
0.00113337
0.00134558
0.00157658
0.00171333
0.00181366
0.00189789
0.00198547
0.00209248
0.00222956
0.00240124
0.00260665
0.00284096
0.00309674
0.00336493
0.00363518
0.00389634
0.0041369
0.00434569
0.00451225
0.00462687
0.00468244
0.00468265
0.00465632
0.00465838
0.000876776
0.00114466
0.00140946
0.00159385
0.00170762
0.0017939
0.00187225
0.00196057
0.00207288
0.00221785
0.00239857
0.00261339
0.00285727
0.00312301
0.00340223
0.00368606
0.00396586
0.00423351
0.00448057
0.00469664
0.00486957
0.00498988
0.00507008
0.00513858
0.000566543
0.000946033
0.00120649
0.00144729
0.00159461
0.00169046
0.00176732
0.00184328
0.00193428
0.00205247
0.0022051
0.0023945
0.00261896
0.00287409
0.00315415
0.00345332
0.00376632
0.00408771
0.00440894
0.00471486
0.00498306
0.00518187
0.00535271
0.00545074
8.58953e-07
4.49607e-06
1.48464e-05
3.33401e-05
5.57536e-05
0.000102349
3.02189e-05
6.74189e-05
0.000123017
0.0001818
0.000233137
0.000309103
0.000171781
0.000139957
0.000235704
0.000324376
0.000396269
0.000466627
0.000188001
0.000191986
0.000321649
0.000433324
0.000521807
0.000593426
0.000199704
0.000226014
0.000386459
0.000515774
0.000619385
0.000699369
4.8339e-05
0.00024945
0.000436507
0.000581218
0.000698902
0.000789522
5.05639e-05
0.000272825
0.000475542
0.000632988
0.000763628
0.000866627
5.21684e-05
0.000294552
0.000506721
0.000674677
0.000817318
0.000931935
5.33498e-05
0.000313832
0.00053119
0.000708136
0.000862174
0.000987746
5.41873e-05
0.00033003
0.000549139
0.000734168
0.000899533
0.0010363
5.47365e-05
0.000342187
0.000560331
0.000752951
0.000930104
0.00107881
5.50431e-05
0.000349279
0.000564406
0.000764254
0.000953842
0.00111556
5.51139e-05
0.000350307
0.00056101
0.000767542
0.000970149
0.00114617
5.49076e-05
0.00034591
0.000549469
0.000762025
0.000977933
0.00116966
5.43624e-05
0.000335916
0.000529915
0.000746688
0.000975599
0.00118447
5.34606e-05
0.000320233
0.00050161
0.00071986
0.000961001
0.00118833
5.21843e-05
0.000298652
0.000464353
0.000680913
0.000931441
0.00117809
5.05151e-05
0.000270984
0.000418244
0.000627558
0.000883391
0.00114939
4.8353e-05
0.000237034
0.00036372
0.00055887
0.000812829
0.00109524
4.69915e-05
0.000196434
0.000301488
0.000474212
0.00071397
0.00100451
0.000187228
0.000150781
0.000232368
0.000374051
0.000583634
0.000860704
0.000169674
9.95705e-05
0.000157108
0.000262131
0.000422656
0.000643686
2.94688e-05
4.31447e-05
7.67185e-05
0.000146489
0.000247172
0.000351321
8.03098e-07
3.29062e-06
1.54508e-05
5.25718e-05
0.000116797
0.000203211
0.000479042
0.000748016
0.00103492
0.00127453
0.00146776
0.00158195
0.00166592
0.00173751
0.00181342
0.00190797
0.00203192
0.00219174
0.00238971
0.00262503
0.00289535
0.0031985
0.00353309
0.00389658
0.00427992
0.00466235
0.00499858
0.0052757
0.00550443
0.00562574
0.000488045
0.000681694
0.00088894
0.00112015
0.00132249
0.00146466
0.00156281
0.00163811
0.00170675
0.00178374
0.00188197
0.00201122
0.00217778
0.00238482
0.00263391
0.00292693
0.00326689
0.00365504
0.00408328
0.00452672
0.00491987
0.00526146
0.00554104
0.00568449
0.00053005
0.000694751
0.000782144
0.00098419
0.00117534
0.00133342
0.0014505
0.00153719
0.00160734
0.00167515
0.00175405
0.00185582
0.00198984
0.00216301
0.00238082
0.00264924
0.00297594
0.00336714
0.00381839
0.00430436
0.00474533
0.0051386
0.00546627
0.00563333
0.000636406
0.000722767
0.000784965
0.000876423
0.00104192
0.00119703
0.00132705
0.00142797
0.00150671
0.00157418
0.00164252
0.0017237
0.00182868
0.00196704
0.00214748
0.00237953
0.00267514
0.00304625
0.00349504
0.00400071
0.00447775
0.00491514
0.00527836
0.00547821
0.000754725
0.000773038
0.000828576
0.000858068
0.000944426
0.00107063
0.00119803
0.00130885
0.00139885
0.00147271
0.0015392
0.00160871
0.00169201
0.00179971
0.00194233
0.00213173
0.00238289
0.00271297
0.00313267
0.00363096
0.00412908
0.0045966
0.00498576
0.00522458
0.000857324
0.000857902
0.000867571
0.000895663
0.000912186
0.000980253
0.00107781
0.00118377
0.00128106
0.00136404
0.00143538
0.00150204
0.00157296
0.00165808
0.00176812
0.00191553
0.00211638
0.00239093
0.00275786
0.00321927
0.00371882
0.00419777
0.00460105
0.00488191
0.000946987
0.000956549
0.000944122
0.000947728
0.000946821
0.000951206
0.000996197
0.00107114
0.00116013
0.0012472
0.00132534
0.00139539
0.00146267
0.00153491
0.00162148
0.00173379
0.00188688
0.00210109
0.00239966
0.00279678
0.00327359
0.00373788
0.00416009
0.0044574
0.0010246
0.00105604
0.00103941
0.00101867
0.00100807
0.000994357
0.000979172
0.00100269
0.00105774
0.00113202
0.0012105
0.00128484
0.00135403
0.00142187
0.00149503
0.00158264
0.00169716
0.00185628
0.00208338
0.00240139
0.00281696
0.00326046
0.00367477
0.00397913
0.00109194
0.00114527
0.00114095
0.00111701
0.00108449
0.00106459
0.00103765
0.00100004
0.00100615
0.00104444
0.00110535
0.00117538
0.0012455
0.00131321
0.00138088
0.00145425
0.00154232
0.00165858
0.00182263
0.002059
0.00238755
0.00279109
0.00317614
0.00347913
0.00115352
0.00122194
0.00123753
0.00122025
0.00118873
0.00114924
0.00112308
0.00107162
0.00102672
0.00101845
0.00103944
0.00108546
0.00114538
0.00120985
0.00127485
0.00134126
0.00141385
0.0015014
0.00161791
0.00178375
0.00202291
0.00235179
0.00270371
0.00298445
0.00120871
0.00128864
0.00132003
0.00131693
0.00129228
0.00125549
0.00121214
0.00117662
0.00111136
0.00106327
0.00103907
0.00104442
0.0010761
0.00112487
0.00118176
0.00124192
0.00130502
0.00137502
0.0014602
0.00157421
0.0017372
0.00197352
0.00228074
0.00252787
0.00125843
0.00134911
0.00139117
0.00139991
0.00138603
0.00135714
0.00131713
0.00127906
0.00123176
0.00115541
0.00110337
0.00107176
0.00106523
0.00108288
0.00111848
0.00116484
0.00121695
0.00127387
0.00133879
0.00141881
0.00152643
0.00168191
0.00191567
0.00213438
0.00130314
0.0014045
0.00145372
0.00147014
0.00146609
0.00144738
0.00141769
0.00137919
0.00134352
0.00128225
0.00120958
0.0011586
0.0011217
0.00110462
0.00110826
0.00112918
0.00116215
0.00120304
0.00125057
0.00130716
0.00137841
0.0014752
0.00162677
0.00181437
0.00134241
0.00145388
0.00150867
0.00153072
0.00153427
0.00152531
0.00150633
0.00147904
0.00144393
0.0014053
0.00134016
0.00128045
0.0012303
0.00119045
0.00116516
0.00115593
0.0011614
0.00117864
0.00120525
0.0012402
0.00128459
0.00134215
0.00142752
0.00157252
0.00137524
0.00149718
0.00155707
0.00158364
0.00159379
0.00159368
0.00158532
0.00156903
0.00154536
0.00151542
0.00147571
0.00141761
0.00136878
0.00132267
0.00128235
0.00125096
0.0012303
0.00122066
0.00122134
0.00123135
0.00125032
0.00127821
0.00131867
0.0014162
0.00140014
0.00153348
0.00159777
0.00162944
0.00164616
0.00165491
0.00165721
0.00165282
0.00164099
0.0016214
0.00159707
0.00156321
0.00151953
0.00147851
0.00143713
0.00139749
0.00136199
0.00133246
0.00131004
0.00129527
0.00128836
0.00128916
0.00129648
0.00135112
0.00141503
0.00156123
0.00163096
0.00166701
0.00169066
0.00170899
0.00172275
0.00173089
0.00173229
0.00172536
0.0017109
0.00169085
0.0016654
0.00163637
0.00160355
0.00156621
0.00152745
0.0014899
0.00145504
0.001424
0.00139735
0.00137594
0.00135946
0.00138188
0.00141708
0.00157766
0.00165289
0.00169316
0.00172365
0.00175214
0.00177843
0.00180027
0.00181561
0.001823
0.00182065
0.00181206
0.00179499
0.00177147
0.00174583
0.00171864
0.00168896
0.00165613
0.00162083
0.00158457
0.00154911
0.00151522
0.001486
0.00148824
0.00140231
0.00158018
0.00165997
0.00170306
0.00173843
0.00177579
0.00181434
0.00185065
0.00188179
0.00190446
0.00191696
0.00191946
0.00191395
0.00189956
0.00187807
0.00185046
0.00181843
0.00178433
0.00175011
0.00171689
0.00168583
0.00165951
0.00164052
0.00164162
0.00136711
0.00156654
0.00164759
0.00169109
0.0017262
0.00176715
0.00181351
0.00186092
0.00190581
0.00194589
0.00197734
0.00199497
0.00200544
0.00200463
0.00199351
0.00197352
0.00194641
0.00191395
0.001878
0.00184059
0.00180399
0.00177158
0.00174832
0.0017426
0.00130328
0.00153456
0.0016133
0.00165252
0.00167875
0.00171188
0.00175
0.00179246
0.00183692
0.00188443
0.00192172
0.00195222
0.00198157
0.00200208
0.00201381
0.00201692
0.00201174
0.00199836
0.0019774
0.00195141
0.00192313
0.0018965
0.00187593
0.00186584
0.00120094
0.00148086
0.00155777
0.00158571
0.00159385
0.00160695
0.00162939
0.0016619
0.0017002
0.00174562
0.0017821
0.00181537
0.00185035
0.00187864
0.00190007
0.00191467
0.00192307
0.00192675
0.001927
0.00192375
0.00191817
0.00191224
0.00190875
0.0019099
0.00104813
0.00140519
0.0014843
0.00149328
0.00147616
0.00146567
0.00146671
0.00147807
0.00149918
0.00153148
0.00156429
0.00159612
0.00163721
0.0016773
0.00171507
0.00174864
0.00177735
0.00180129
0.00182101
0.00183738
0.00185163
0.00186481
0.00187622
0.00188888
0.00085125
0.00131304
0.0013971
0.00138186
0.00133613
0.00129659
0.00126747
0.00125203
0.00125144
0.00126522
0.00129016
0.00132952
0.00137808
0.00143025
0.0014821
0.00153114
0.00157654
0.0016175
0.00165346
0.00168398
0.0017086
0.00172714
0.00174221
0.0017584
7.8203e-07
3.73462e-06
2.08503e-05
5.63938e-05
0.000113736
4.6582e-05
2.84763e-05
3.09684e-05
7.73238e-05
0.000134173
0.00018445
0.00021463
0.000167545
7.3054e-05
0.00014797
0.000225318
0.000310341
0.000417962
0.000186506
0.000114502
0.000213645
0.0003144
0.000436374
0.000593138
4.70953e-05
0.000153003
0.000272374
0.000395923
0.000541454
0.000719032
4.84146e-05
0.000188044
0.000323488
0.000464507
0.00062189
0.000800099
5.02785e-05
0.000218351
0.000366347
0.000518585
0.000681187
0.000846177
5.15757e-05
0.000243254
0.000400613
0.00055969
0.000719657
0.000868018
5.24783e-05
0.000262236
0.000426872
0.000586823
0.000741009
0.000873797
5.30256e-05
0.000275285
0.000444123
0.00060228
0.000748367
0.00086617
5.32358e-05
0.000282878
0.000453261
0.000607389
0.000743787
0.000846952
5.3185e-05
0.000284627
0.000454837
0.000603296
0.000728761
0.000817377
5.28203e-05
0.000280665
0.000449364
0.000591022
0.000704583
0.000778166
5.23135e-05
0.000270324
0.00043723
0.000571483
0.000672407
0.000729988
5.1647e-05
0.000254533
0.000418905
0.000545515
0.00063338
0.000674018
5.07844e-05
0.000234608
0.000395087
0.000513906
0.000588821
0.000613094
4.96547e-05
0.000212322
0.000366914
0.000477381
0.000540177
0.000549213
4.79801e-05
0.000191243
0.000336249
0.000436452
0.000489229
0.000482647
0.000199009
0.000182706
0.000305591
0.000390668
0.000436018
0.000414621
0.000190998
0.000170334
0.000271282
0.00034095
0.000380277
0.00035124
0.000179353
0.000150472
0.000228773
0.000283437
0.000318584
0.000292409
0.000163967
0.000113986
0.000169858
0.000211097
0.000242303
0.000239334
2.90036e-05
5.5377e-05
8.88099e-05
0.000118706
0.00014037
0.000174136
8.85607e-07
3.17434e-06
7.8083e-06
1.51219e-05
2.4586e-05
5.65602e-05
0.000759119
0.00122995
0.00130502
0.00126163
0.00118778
0.00111795
0.001059
0.0010175
0.000999642
0.000998706
0.001013
0.00103433
0.0010675
0.00111209
0.00116469
0.00122084
0.00127748
0.00133333
0.00138726
0.00143855
0.00148654
0.00153031
0.00156812
0.0016034
0.000822126
0.00117182
0.00121749
0.00114559
0.00104902
0.00095572
0.000877325
0.000816134
0.000782253
0.000756295
0.000736752
0.000733901
0.000748317
0.000780593
0.00082518
0.000875633
0.000928427
0.000982023
0.00103549
0.00108767
0.00113725
0.00118363
0.00122375
0.00126843
0.000897435
0.00112828
0.00114068
0.00104888
0.000940686
0.000845971
0.000767263
0.000712899
0.000655706
0.000597652
0.000573089
0.000577919
0.000609196
0.000655058
0.000705542
0.000750222
0.000786746
0.000815947
0.000839966
0.000861566
0.000882069
0.000902927
0.000914553
0.000928486
0.000948613
0.00109583
0.00108206
0.000979617
0.000869491
0.00077774
0.000705686
0.000657822
0.000611055
0.0005513
0.000542585
0.000572187
0.000634462
0.000710551
0.000777383
0.000834918
0.000883736
0.000924506
0.000957547
0.000983671
0.00100437
0.00101647
0.00101417
0.00102913
0.000977853
0.00107426
0.00103924
0.000936105
0.000831403
0.000745045
0.000682252
0.000643688
0.000591503
0.000548572
0.000554832
0.00060607
0.000684556
0.000765704
0.000841395
0.000910929
0.000976099
0.00103901
0.00110043
0.00115923
0.00121466
0.00126808
0.00132381
0.00142474
0.000991517
0.00105689
0.00100822
0.000912491
0.000813668
0.000730148
0.000671147
0.000630095
0.000560725
0.000544901
0.000588437
0.000672528
0.000767108
0.000861117
0.000951397
0.00103578
0.00111476
0.00119112
0.00126971
0.00135641
0.00145695
0.00158614
0.00176926
0.00196596
0.000995795
0.00103852
0.000987271
0.000895648
0.00079572
0.000711614
0.000655156
0.000610112
0.000551634
0.000575495
0.000664816
0.000775645
0.000898545
0.00102451
0.00114526
0.0012595
0.00136848
0.00147483
0.00158321
0.00170196
0.00184156
0.00203958
0.00229545
0.00255663
0.000990656
0.00101661
0.000963472
0.000867205
0.00076096
0.00067459
0.000642974
0.000567311
0.000567006
0.000656017
0.000778843
0.000916619
0.00106426
0.00120884
0.0013505
0.0014934
0.00164284
0.00180537
0.00198912
0.00220429
0.00246347
0.00276953
0.00310151
0.0033566
0.000974624
0.000986594
0.000925497
0.000814496
0.000703676
0.000649008
0.000600537
0.000560914
0.000643959
0.000774075
0.000922238
0.00108621
0.00124816
0.0014068
0.00156572
0.00173086
0.00191102
0.00211902
0.00237214
0.0026895
0.00308223
0.00351822
0.00392761
0.0041984
0.000947518
0.000942436
0.000865616
0.000740109
0.000645667
0.000618876
0.000564966
0.000630792
0.000761779
0.000916523
0.0010913
0.00126998
0.00144885
0.00163087
0.0018208
0.00202569
0.00225628
0.00252803
0.00285963
0.00326576
0.00374444
0.00424674
0.00467153
0.00496023
0.00090827
0.000880248
0.00078267
0.000660032
0.000619923
0.000576547
0.000609829
0.000739025
0.000898847
0.00108225
0.00127497
0.0014685
0.00166621
0.00187371
0.00209874
0.00235225
0.00264911
0.00300655
0.00343772
0.00393979
0.00448167
0.00498786
0.005417
0.00568169
0.000855434
0.000801517
0.00068626
0.000605257
0.000582456
0.000578326
0.000705238
0.000869931
0.00105739
0.00126035
0.00146481
0.0016746
0.00189497
0.00213213
0.00239505
0.00269732
0.00305696
0.00349159
0.00400753
0.00458694
0.00516982
0.00568406
0.00608961
0.00633885
0.00078971
0.000716249
0.000602268
0.000580606
0.000554765
0.000664358
0.000827188
0.00101687
0.0012289
0.00144278
0.00166206
0.00189212
0.00213872
0.00240895
0.00271318
0.00306635
0.00348643
0.00398705
0.00456502
0.00518996
0.0057805
0.00630307
0.0067008
0.0069327
0.000713715
0.00063098
0.000552522
0.000546039
0.000594676
0.000758956
0.000963039
0.00118272
0.00140594
0.0016325
0.00186886
0.00212115
0.00239523
0.00269858