/*--------------------------------*- C++ -*----------------------------------*\
  =========                 |
  \\      /  F ield         | OpenFOAM: The Open Source CFD Toolbox
   \\    /   O peration     | Website:  https://openfoam.org
    \\  /    A nd           | Version:  11
     \\/     M anipulation  |
\*---------------------------------------------------------------------------*/
FoamFile
{
    format      ascii;
    class       volScalarField;
    location    "1.78";
    object      p;
}
// * * * * * * * * * * * * * * * * * * * * * * * * * * * * * * * * * * * * * //

dimensions      [0 2 -2 0 0 0 0];

internalField   nonuniform List<scalar> 
2880
(
1.51346
1.54485
1.56911
1.5897
1.55137
1.35799
1.51284
1.54065
1.55366
1.56191
1.48126
1.29482
1.51081
1.5345
1.53669
1.53148
1.44023
1.25843
1.50809
1.52886
1.52312
1.50656
1.41444
1.24899
1.50765
1.52471
1.51319
1.48762
1.39701
1.25017
1.50947
1.52133
1.50542
1.47269
1.38454
1.25405
1.50974
1.51759
1.49855
1.46055
1.37558
1.25837
1.50811
1.51325
1.49218
1.45062
1.36922
1.26276
1.50612
1.50851
1.48633
1.44257
1.36482
1.26722
1.50394
1.50359
1.48116
1.43626
1.36206
1.2717
1.50158
1.49871
1.4768
1.43162
1.36074
1.27603
1.49914
1.49406
1.47335
1.42854
1.36077
1.28037
1.49673
1.48978
1.47076
1.42695
1.362
1.28473
1.49439
1.48598
1.46909
1.42672
1.36434
1.28913
1.49215
1.48272
1.46826
1.42772
1.36771
1.29366
1.49001
1.48001
1.46815
1.42981
1.37211
1.29839
1.48828
1.47789
1.4686
1.4328
1.37761
1.30354
1.48818
1.47639
1.46936
1.43641
1.38417
1.30938
1.4894
1.47543
1.47003
1.44026
1.3917
1.31616
1.48881
1.47448
1.47007
1.44384
1.39983
1.32385
1.4865
1.47303
1.46901
1.44624
1.40777
1.33244
1.48418
1.4706
1.46665
1.44657
1.41485
1.34464
1.48277
1.46818
1.46356
1.4455
1.42227
1.37031
1.48232
1.46635
1.46279
1.44788
1.43428
1.41931
0.157054
0.178298
0.212644
0.230302
0.249436
0.264626
0.275792
0.284304
0.291151
0.296921
0.301961
0.306466
0.310542
0.314241
0.317581
0.32055
0.323135
0.325338
0.327025
0.32754
0.326623
0.330134
0.351875
0.362086
0.522674
0.387131
0.366074
0.354615
0.351186
0.35035
0.349925
0.349648
0.349582
0.349766
0.350193
0.350826
0.351617
0.352509
0.353439
0.354337
0.355148
0.355839
0.356225
0.355596
0.353919
0.35778
0.380467
0.385334
0.734002
0.562764
0.500233
0.464902
0.443606
0.429436
0.419006
0.410987
0.404759
0.399932
0.396218
0.393391
0.391272
0.38971
0.38857
0.387727
0.387082
0.386565
0.385943
0.384466
0.382211
0.386074
0.408826
0.410517
0.864457
0.695632
0.611574
0.560036
0.525639
0.501005
0.482332
0.467752
0.456215
0.447029
0.4397
0.433858
0.429219
0.425553
0.422662
0.420366
0.418521
0.417018
0.415578
0.41342
0.410689
0.414373
0.436641
0.436279
0.955871
0.796929
0.702952
0.641139
0.597403
0.564803
0.53957
0.519611
0.503636
0.490766
0.480365
0.471961
0.465189
0.459756
0.455406
0.45191
0.44908
0.446767
0.444656
0.441951
0.438855
0.442287
0.46369
0.461987
1.02172
0.874284
0.77722
0.70946
0.659365
0.620932
0.590658
0.566429
0.546855
0.530958
0.518017
0.507491
0.498959
0.492076
0.486536
0.482065
0.478435
0.475463
0.472806
0.469678
0.466329
0.469479
0.489727
0.487187
1.06941
0.933607
0.837204
0.766437
0.712283
0.669752
0.635737
0.608226
0.585824
0.567513
0.552533
0.540303
0.53036
0.522318
0.515834
0.510589
0.506322
0.502822
0.499734
0.496295
0.492803
0.495657
0.514526
0.511526
1.10433
0.979414
0.885433
0.813583
0.757041
0.711768
0.675084
0.64514
0.620588
0.600419
0.583859
0.570305
0.559271
0.550339
0.54313
0.537291
0.532532
0.528622
0.525203
0.521559
0.518021
0.520569
0.537881
0.53471
1.13033
1.01497
0.924068
0.852305
0.794534
0.74754
0.709044
0.677375
0.651262
0.629723
0.61199
0.597456
0.585619
0.576036
0.568298
0.562024
0.556899
0.552682
0.549025
0.545269
0.541764
0.543995
0.559616
0.556485
1.15002
1.0426
0.954854
0.88382
0.825591
0.777627
0.73799
0.705178
0.677999
0.655511
0.636965
0.621754
0.609367
0.599344
0.591249
0.584677
0.579296
0.574862
0.571046
0.567255
0.563846
0.565745
0.579582
0.57664
1.16517
1.06401
0.979146
0.909138
0.850943
0.802549
0.76229
0.728805
0.700975
0.677898
0.658846
0.643222
0.630507
0.620226
0.611921
0.605167
0.599624
0.595049
0.591141
0.58738
0.584111
0.585662
0.597665
0.595005
1.17677
1.08039
0.997972
0.929068
0.871204
0.822765
0.782285
0.748507
0.72037
0.697009
0.677716
0.661903
0.64905
0.638667
0.630276
0.623437
0.617808
0.613158
0.609214
0.60553
0.602431
0.603625
0.613784
0.611458
1.18553
1.0926
1.0121
0.944244
0.886879
0.83867
0.798281
0.764518
0.736363
0.712975
0.693666
0.677856
0.665025
0.654669
0.646293
0.639449
0.633798
0.629123
0.625187
0.621619
0.618707
0.619543
0.627894
0.625919
1.19187
1.10123
1.02206
0.955142
0.898363
0.850587
0.810539
0.777051
0.749121
0.725925
0.70679
0.691146
0.678469
0.668246
0.659967
0.653181
0.647559
0.642903
0.639012
0.635586
0.632871
0.633359
0.63998
0.638348
1.19599
1.10662
1.02822
0.962091
0.90595
0.858772
0.81928
0.786293
0.7588
0.735985
0.717187
0.701844
0.689431
0.679425
0.671307
0.664629
0.659078
0.654476
0.65066
0.647394
0.644881
0.645051
0.650071
0.648732
1.19793
1.10889
1.03074
0.965293
0.909842
0.863416
0.824686
0.792408
0.765545
0.743278
0.724957
0.710028
0.697968
0.688244
0.680337
0.673806
0.66836
0.663843
0.660124
0.657028
0.654725
0.654645
0.65823
0.657013
1.19752
1.108
1.02962
0.964813
0.910148
0.864658
0.826905
0.795546
0.769494
0.747927
0.730204
0.715783
0.704144
0.694753
0.687093
0.68074
0.675425
0.671013
0.667401
0.664465
0.662352
0.662068
0.664364
0.663064
1.19445
1.10371
1.02469
0.960571
0.906892
0.862589
0.826066
0.795848
0.770786
0.750057
0.733037
0.719201
0.708037
0.699016
0.691631
0.68548
0.680316
0.676023
0.672524
0.669733
0.667748
0.667198
0.668433
0.667475
1.1881
1.09549
1.01559
0.95239
0.90003
0.857281
0.8223
0.793464
0.769569
0.749804
0.733577
0.720386
0.709736
0.701113
0.694028
0.6881
0.683108
0.678955
0.675583
0.672935
0.671055
0.670261
0.670704
0.670185
1.17766
1.08252
1.00183
0.940064
0.889552
0.848847
0.815772
0.788571
0.766009
0.747319
0.731955
0.719452
0.709345
0.701138
0.694368
0.688682
0.683882
0.679886
0.676653
0.674148
0.67237
0.671409
0.671325
0.67112
1.16242
1.06379
0.982794
0.92339
0.875543
0.837491
0.80672
0.78139
0.760302
0.742769
0.728315
0.716527
0.706973
0.699192
0.692748
0.687316
0.68272
0.678891
0.675798
0.673418
0.671729
0.670732
0.670367
0.670302
1.14137
1.03748
0.957627
0.902244
0.858251
0.82355
0.795464
0.772189
0.752668
0.736339
0.722816
0.711747
0.702744
0.695384
0.689265
0.684096
0.679714
0.676057
0.673105
0.670834
0.669218
0.668246
0.667874
0.667866
1.10746
0.998343
0.92534
0.876842
0.838211
0.807539
0.782411
0.761282
0.743353
0.728229
0.715624
0.705255
0.696787
0.689836
0.684041
0.67913
0.67496
0.671477
0.668659
0.666479
0.664917
0.664044
0.663917
0.663862
1.01823
0.938327
0.886427
0.848332
0.816398
0.790158
0.768036
0.749004
0.732612
0.71864
0.706907
0.697199
0.689232
0.682668
0.677178
0.672517
0.668553
0.665239
0.662547
0.660436
0.658909
0.658209
0.658574
0.658365
0.869595
0.83648
0.808738
0.761992
0.674355
0.5137
0.874347
0.839952
0.814539
0.770706
0.707227
0.642622
0.884306
0.84643
0.823221
0.781383
0.732665
0.698888
0.887649
0.85338
0.832093
0.792777
0.753806
0.728226
0.882455
0.858914
0.839545
0.803486
0.771643
0.748963
0.880213
0.863186
0.845684
0.812865
0.78494
0.762263
0.881964
0.867015
0.850961
0.82068
0.793978
0.769569
0.884196
0.870805
0.855613
0.826961
0.799825
0.772855
0.88602
0.874705
0.859762
0.831927
0.803296
0.773415
0.887758
0.8789
0.863552
0.835791
0.804791
0.771771
0.889846
0.883593
0.867129
0.838708
0.804687
0.76831
0.892546
0.88892
0.870627
0.840888
0.803346
0.76324
0.895994
0.894945
0.874201
0.842563
0.800993
0.756661
0.900232
0.901633
0.878023
0.843931
0.797791
0.748604
0.90518
0.908924
0.88222
0.845176
0.79385
0.739021
0.910634
0.916663
0.886866
0.846475
0.789234
0.727856
0.9163
0.924541
0.891939
0.847984
0.784015
0.714955
0.921842
0.932135
0.897281
0.849832
0.778334
0.700058
0.926927
0.938972
0.902649
0.85211
0.772462
0.68295
0.930765
0.944655
0.907987
0.855078
0.766993
0.663925
0.929427
0.949193
0.914004
0.860038
0.763668
0.64416
0.926103
0.954433
0.922875
0.86994
0.767001
0.624825
0.933416
0.96141
0.935871
0.885275
0.780203
0.604941
0.939545
0.966507
0.945265
0.895658
0.783246
0.589609
0.812671
0.86727
0.845877
0.819244
0.794197
0.772199
0.752817
0.735683
0.720686
0.707764
0.696827
0.687719
0.680207
0.673994
0.668786
0.664359
0.66059
0.657434
0.654856
0.65279
0.651279
0.650824
0.651917
0.651452
0.766797
0.814052
0.810549
0.792708
0.772983
0.75432
0.73714
0.721589
0.707783
0.695771
0.685528
0.676944
0.669829
0.663926
0.658969
0.654751
0.651159
0.648147
0.645668
0.643627
0.642117
0.641987
0.644042
0.643196
0.763029
0.785319
0.783693
0.769866
0.753313
0.736839
0.721242
0.706909
0.69406
0.682796
0.67313
0.664986
0.658205
0.652561
0.647818
0.643782
0.640344
0.63746
0.635066
0.633034
0.631521
0.631803
0.635055
0.633616
0.760488
0.768467
0.763333
0.750229
0.735061
0.719788
0.705211
0.691742
0.679614
0.668935
0.659728
0.651935
0.64542
0.639986
0.635415
0.631526
0.628212
0.625428
0.623095
0.621039
0.619449
0.620056
0.624738
0.62318
0.757197
0.755813
0.746665
0.732768
0.717821
0.703035
0.689022
0.676113
0.664492
0.654244
0.645385
0.637859
0.631546
0.626269
0.621827
0.618047
0.614821
0.612103
0.609793
0.607658
0.605886
0.606684
0.61291
0.611783
0.754678
0.74527
0.731992
0.716576
0.701165
0.686379
0.672588
0.659992
0.648698
0.638749
0.630137
0.622805
0.616637
0.611471
0.607121
0.603418
0.600253
0.597575
0.595262
0.593019
0.591055
0.592115
0.599928
0.598747
0.752627
0.735643
0.71828
0.700983
0.684708
0.669602
0.655786
0.643313
0.632201
0.622442
0.613998
0.606798
0.60073
0.59564
0.591353
0.587703
0.584581
0.581928
0.579602
0.577244
0.575098
0.576483
0.58598
0.584508
0.749353
0.72593
0.70476
0.685458
0.668105
0.652478
0.638465
0.625978
0.614942
0.605292
0.596956
0.589846
0.583844
0.578805
0.574561
0.570949
0.567858
0.565223
0.562877
0.5604
0.558068
0.559781
0.571004
0.569202
0.744188
0.715443
0.690869
0.66956
0.651031
0.634768
0.620454
0.607864
0.596837
0.587246
0.578981
0.571935
0.565984
0.560984
0.556773
0.553194
0.550131
0.547513
0.54515
0.54256
0.540042
0.542068
0.555017
0.552889
0.73725
0.703847
0.676162
0.652895
0.633168
0.616223
0.601559
0.588828
0.577779
0.568228
0.560025
0.553039
0.547139
0.542181
0.538007
0.534464
0.531435
0.528843
0.526476
0.523791
0.521097
0.523412
0.538051
0.535636
0.728607
0.690868
0.66024
0.635085
0.614191
0.596575
0.581568
0.568702
0.557642
0.548145
0.540023
0.533118
0.52729
0.522393
0.518274
0.514783
0.511804
0.509255
0.506906
0.504154
0.501307
0.503885
0.520142
0.517522
0.71817
0.676176
0.642691
0.615732
0.59375
0.575533
0.560244
0.5473
0.536283
0.526891
0.518898
0.512122
0.506409
0.501611
0.497579
0.494168
0.491265
0.488786
0.486486
0.48371
0.480749
0.483561
0.501324
0.498642
0.705727
0.659351
0.623049
0.594397
0.571462
0.552775
0.537326
0.524412
0.513538
0.504343
0.496564
0.489993
0.484464
0.479825
0.475932
0.472646
0.469856
0.467482
0.46527
0.462524
0.459503
0.462519
0.481632
0.479101
0.690941
0.639862
0.600765
0.570579
0.546894
0.527944
0.512524
0.49981
0.489229
0.480368
0.472924
0.466669
0.461422
0.45703
0.453351
0.450251
0.447628
0.445404
0.443326
0.440672
0.437657
0.440843
0.461095
0.45902
0.673339
0.617031
0.575181
0.543693
0.519555
0.500636
0.485515
0.473241
0.463162
0.454818
0.447876
0.442085
0.437254
0.433226
0.429861
0.427035
0.42465
0.422638
0.420753
0.418261
0.415326
0.418627
0.439734
0.43855
0.65222
0.590003
0.545495
0.513051
0.488879
0.470401
0.455945
0.444427
0.435125
0.42754
0.421311
0.416174
0.41193
0.408419
0.405505
0.403069
0.401024
0.399307
0.39769
0.395445
0.392667
0.395992
0.41756
0.417922
0.626578
0.557721
0.510709
0.477842
0.454221
0.436733
0.423424
0.413072
0.404895
0.398366
0.393114
0.388867
0.385422
0.382621
0.380333
0.378446
0.376879
0.375577
0.374333
0.372445
0.369913
0.373098
0.394561
0.397565
0.594977
0.518788
0.46957
0.437104
0.414854
0.39908
0.387531
0.378857
0.372233
0.367124
0.363164
0.360086
0.357696
0.355842
0.354401
0.353269
0.352369
0.351654
0.350945
0.349587
0.347423
0.350159
0.370604
0.37834
0.555349
0.471183
0.420603
0.389771
0.369994
0.356856
0.347828
0.341455
0.336895
0.333632
0.331329
0.329746
0.328706
0.328076
0.327748
0.32763
0.327651
0.327771
0.327857
0.327346
0.325804
0.327477
0.345038
0.361997
0.504776
0.412009
0.36222
0.334746
0.318849
0.30948
0.303882
0.300539
0.298632
0.297702
0.297467
0.297736
0.298372
0.299272
0.300354
0.30155
0.302808
0.304102
0.305387
0.306291
0.306065
0.30626
0.318054
0.351871
0.439452
0.337475
0.292751
0.271008
0.260702
0.256436
0.255302
0.255805
0.257208
0.259144
0.26142
0.263918
0.266563
0.269296
0.272077
0.274879
0.277687
0.280524
0.283418
0.286157
0.288125
0.290672
0.303319
0.330864
0.353777
0.24349
0.210466
0.197782
0.195064
0.197365
0.201799
0.207008
0.212412
0.217776
0.223021
0.228125
0.233089
0.237914
0.242605
0.247168
0.251622
0.255996
0.260255
0.264065
0.267231
0.27332
0.290888
0.292227
0.234136
0.127553
0.114333
0.114836
0.121867
0.132197
0.143258
0.154002
0.164087
0.17344
0.18211
0.190184
0.197745
0.204861
0.211572
0.217904
0.223872
0.229477
0.23461
0.23885
0.242353
0.250027
0.269651
0.258057
0.0497663
-0.00668184
0.00651137
0.0231342
0.0418333
0.0613091
0.0798211
0.0967883
0.112158
0.126028
0.138566
0.149964
0.160394
0.169989
0.178835
0.186973
0.194416
0.201155
0.207075
0.21181
0.215773
0.224268
0.244411
0.228394
-0.447464
-0.434766
-0.437669
-0.4521
-0.479288
-0.534819
-0.449623
-0.438322
-0.444704
-0.46295
-0.491457
-0.55122
-0.454347
-0.443104
-0.453413
-0.472779
-0.498124
-0.533998
-0.457973
-0.446738
-0.459562
-0.479227
-0.501549
-0.524582
-0.455981
-0.448968
-0.463843
-0.483518
-0.504018
-0.521778
-0.452953
-0.450883
-0.467109
-0.486912
-0.506714
-0.52264
-0.452171
-0.453457
-0.470006
-0.489914
-0.509648
-0.525376
-0.453603
-0.456342
-0.472675
-0.492625
-0.512575
-0.528994
-0.455108
-0.459219
-0.475069
-0.495033
-0.515325
-0.532798
-0.456485
-0.461937
-0.47711
-0.497081
-0.517778
-0.536404
-0.457731
-0.464384
-0.478722
-0.498704
-0.519863
-0.539618
-0.458822
-0.466469
-0.479854
-0.499866
-0.521519
-0.5423
-0.459733
-0.468144
-0.480489
-0.50051
-0.522656
-0.544412
-0.460457
-0.469415
-0.480599
-0.500584
-0.523217
-0.545956
-0.461014
-0.470276
-0.480129
-0.500131
-0.523203
-0.546955
-0.461482
-0.470722
-0.479124
-0.499211
-0.522632
-0.547608
-0.461994
-0.470786
-0.477739
-0.497854
-0.521461
-0.548021
-0.462376
-0.470535
-0.476143
-0.496136
-0.519613
-0.548044
-0.460693
-0.470069
-0.474536
-0.494176
-0.517008
-0.547546
-0.456745
-0.469616
-0.473208
-0.49217
-0.51361
-0.54631
-0.455831
-0.46986
-0.472646
-0.4905
-0.509484
-0.543238
-0.458687
-0.471275
-0.473344
-0.489731
-0.504629
-0.534449
-0.462332
-0.473481
-0.4758
-0.489915
-0.497172
-0.511172
-0.463959
-0.474612
-0.47484
-0.48553
-0.489243
-0.465348
-0.257996
-0.155364
-0.106527
-0.0740107
-0.0431461
-0.0143013
0.0119666
0.0355574
0.0566577
0.0754913
0.0923118
0.107388
0.12097
0.133258
0.144391
0.15444
0.16343
0.171364
0.178172
0.183618
0.18829
0.1974
0.217467
0.200693
-0.377132
-0.285553
-0.216999
-0.169484
-0.129612
-0.0928771
-0.0594235
-0.0292772
-0.00225799
0.0218554
0.0433193
0.0624252
0.0794673
0.0947036
0.108327
0.120454
0.131141
0.140422
0.148288
0.154657
0.160215
0.169878
0.189626
0.17416
-0.435127
-0.370216
-0.308104
-0.258309
-0.213614
-0.172168
-0.133119
-0.0970903
-0.0643121
-0.0347888
-0.00840007
0.0150752
0.0359165
0.0544079
0.0707899
0.0852319
0.0978371
0.108683
0.11783
0.125335
0.131942
0.142137
0.161448
0.148702
-0.476343
-0.42538
-0.377759
-0.33558
-0.29297
-0.249809
-0.207622
-0.167031
-0.129065
-0.0942431
-0.0627711
-0.0346256
-0.00962703
0.0124804
0.0319588
0.0490257
0.0638395
0.0765304
0.0872263
0.0960977
0.103907
0.114658
0.133487
0.124415
-0.503031
-0.464917
-0.431583
-0.399481
-0.363998
-0.32385
-0.281122
-0.237931
-0.195842
-0.15614
-0.119602
-0.0865668
-0.0570658
-0.0309473
-0.00797433
0.0120971
0.0294769
0.0443504
0.0569064
0.0674008
0.0765821
0.0879617
0.106293
0.101461
-0.518869
-0.495321
-0.473124
-0.451299
-0.424606
-0.391155
-0.351614
-0.308286
-0.263621
-0.219839
-0.178501
-0.140496
-0.106209
-0.0756908
-0.0487949
-0.0252895
-0.00493136
0.0125144
0.0272904
0.0397069
0.0504765
0.0626183
0.080445
0.0800451
-0.529741
-0.518889
-0.505882
-0.492755
-0.475035
-0.449897
-0.416415
-0.375875
-0.330803
-0.284252
-0.238734
-0.195904
-0.156679
-0.121439
-0.0902129
-0.0628367
-0.0390638
-0.0186236
-0.00122843
0.0134519
0.0260993
0.03919
0.0565609
0.0605261
-0.538654
-0.537196
-0.53231
-0.526057
-0.516151
-0.499293
-0.473324
-0.438084
-0.39515
-0.347678
-0.299059
-0.251879
-0.207784
-0.167643
-0.131772
-0.100145
-0.0725535
-0.048713
-0.0283025
-0.0109748
0.00389676
0.0182367
0.0353906
0.0433898
-0.546385
-0.551627
-0.553393
-0.552894
-0.549125
-0.539298
-0.52076
-0.492084
-0.453673
-0.407618
-0.357539
-0.306929
-0.258364
-0.213387
-0.172736
-0.136614
-0.104911
-0.0773587
-0.0536031
-0.0332657
-0.0158203
0.000187054
0.0175088
0.0289721
-0.553121
-0.5631
-0.569839
-0.573895
-0.574786
-0.570286
-0.557877
-0.535589
-0.50287
-0.460523
-0.411199
-0.358727
-0.306589
-0.257214
-0.211937
-0.171309
-0.135419
-0.104049
-0.076773
-0.053182
-0.0328685
-0.0147614
0.00322092
0.0175309
-0.558863
-0.572145
-0.582159
-0.589361
-0.593406
-0.592561
-0.58447
-0.567301
-0.539856
-0.502204
-0.455731
-0.403596
-0.349583
-0.296886
-0.247606
-0.202831
-0.162934
-0.127935
-0.097312
-0.0704677
-0.0471862
-0.0266489
-0.00745169
0.00920302
-0.56366
-0.579147
-0.591108
-0.59985
-0.60538
-0.606376
-0.600765
-0.586693
-0.563018
-0.529465
-0.486729
-0.436839
-0.383171
-0.329074
-0.277168
-0.228933
-0.186366
-0.148642
-0.113992
-0.0842291
-0.0585349
-0.0355652
-0.0147974
0.00377374
-0.567683
-0.584492
-0.597308
-0.606236
-0.611627
-0.612547
-0.607354
-0.594259
-0.572248
-0.541196
-0.501588
-0.454662
-0.402974
-0.349649
-0.297312
-0.247911
-0.202984
-0.162261
-0.126355
-0.0950198
-0.0664251
-0.0413056
-0.0191871
0.000810131
-0.571214
-0.588707
-0.60155
-0.609626
-0.613513
-0.612648
-0.605778
-0.591553
-0.569109
-0.538545
-0.50045
-0.455867
-0.406621
-0.355334
-0.304399
-0.255653
-0.210445
-0.169452
-0.132781
-0.0996655
-0.070234
-0.0443006
-0.0212492
-0.000222782
-0.574525
-0.592563
-0.604839
-0.61136
-0.612765
-0.60878
-0.598585
-0.581306
-0.556507
-0.524464
-0.486054
-0.442432
-0.395096
-0.346032
-0.297346
-0.250648
-0.207068
-0.167238
-0.131263
-0.0989525
-0.0701951
-0.0441672
-0.0211455
0.000163351
-0.578036
-0.596724
-0.608403
-0.612963
-0.611334
-0.603455
-0.588781
-0.567057
-0.538332
-0.50325
-0.462944
-0.418774
-0.372244
-0.324929
-0.278484
-0.234291
-0.19326
-0.155859
-0.122171
-0.0919996
-0.06504
-0.0406732
-0.0190402
0.00140358
-0.582562
-0.601911
-0.613549
-0.615935
-0.61127
-0.599271
-0.579664
-0.552633
-0.518927
-0.47965
-0.436248
-0.390334
-0.343421
-0.296939
-0.252201
-0.210315
-0.171975
-0.13746
-0.106732
-0.0795378
-0.0555279
-0.0340968
-0.0151419
0.00268183
-0.58882
-0.609225
-0.621393
-0.62199
-0.6146
-0.598744
-0.574286
-0.541812
-0.502576
-0.458307
-0.410923
-0.362199
-0.313821
-0.267219
-0.223446
-0.183296
-0.147241
-0.115406
-0.087646
-0.0636452
-0.0430219
-0.025253
-0.0099883
0.00337437
-0.597439
-0.619683
-0.632926
-0.632696
-0.623228
-0.604086
-0.575256
-0.537575
-0.492801
-0.443184
-0.391128
-0.338839
-0.288056
-0.24025
-0.196441
-0.157226
-0.122838
-0.0932124
-0.0680705
-0.0470174
-0.0296167
-0.0153655
-0.00381626
0.00475701
-0.609307
-0.634185
-0.649225
-0.648993
-0.63848
-0.616955
-0.584432
-0.541852
-0.491525
-0.436293
-0.379129
-0.322598
-0.268698
-0.218919
-0.174224
-0.135062
-0.101514
-0.0733628
-0.0501869
-0.0314577
-0.0166063
-0.00492459
0.0044614
0.0101611
-0.625241
-0.653535
-0.671119
-0.671578
-0.660979
-0.638341
-0.602814
-0.555633
-0.499584
-0.438153
-0.375042
-0.313414
-0.255546
-0.203036
-0.156795
-0.117112
-0.083864
-0.0566539
-0.0349048
-0.0179561
-0.00507863
0.00493126
0.0139705
0.0193179
-0.645345
-0.678742
-0.698948
-0.700789
-0.691236
-0.668226
-0.63072
-0.579777
-0.517893
-0.449422
-0.379157
-0.311125
-0.248082
-0.191791
-0.143137
-0.10225
-0.0688085
-0.0421994
-0.0216904
-0.00654926
0.00402551
0.0116789
0.0195131
0.0238001
-0.6729
-0.71199
-0.732417
-0.735697
-0.728475
-0.707144
-0.66945
-0.61526
-0.547186
-0.470682
-0.391951
-0.316159
-0.246726
-0.185631
-0.133692
-0.0908626
-0.056556
-0.0299544
-0.0101538
0.00371657
0.0125396
0.0176622
0.0206917
0.0175096
-0.728791
-0.756107
-0.770037
-0.774932
-0.771828
-0.75449
-0.718347
-0.661885
-0.587475
-0.501806
-0.412855
-0.327464
-0.250149
-0.183281
-0.127503
-0.0824343
-0.0471369
-0.020476
-0.00133419
0.0112722
0.0181502
0.0200556
0.0173672
0.00918357
-0.849538
-0.869208
-0.888422
-0.917354
-0.967915
-1.08859
-0.84488
-0.866782
-0.884874
-0.912367
-0.943751
-0.975098
-0.835341
-0.862179
-0.878641
-0.904102
-0.924949
-0.9286
-0.828995
-0.857645
-0.872331
-0.894737
-0.908907
-0.90454
-0.831453
-0.854367
-0.867144
-0.885954
-0.8952
-0.889675
-0.839169
-0.852083
-0.863099
-0.878326
-0.88436
-0.880423
-0.843208
-0.849939
-0.859654
-0.871793
-0.875977
-0.873863
-0.842946
-0.847723
-0.856555
-0.866149
-0.86931
-0.86844
-0.842318
-0.845388
-0.853664
-0.86125
-0.86375
-0.863468
-0.841882
-0.842851
-0.850921
-0.856876
-0.858856
-0.858562
-0.841339
-0.840049
-0.848257
-0.852819
-0.854329
-0.853458
-0.8404
-0.836968
-0.845535
-0.849009
-0.850007
-0.848126
-0.838906
-0.833615
-0.84272
-0.845426
-0.845845
-0.842583
-0.836764
-0.830094
-0.839867
-0.842093
-0.841875
-0.83692
-0.834001
-0.826255
-0.837089
-0.839067
-0.838195
-0.831356
-0.830676
-0.822115
-0.834463
-0.836468
-0.834933
-0.826454
-0.827217
-0.817715
-0.832107
-0.834494
-0.832201
-0.822926
-0.826727
-0.813681
-0.830262
-0.833426
-0.830211
-0.821666
-0.830661
-0.811679
-0.829171
-0.833569
-0.829703
-0.823332
-0.83274
-0.810897
-0.828522
-0.834907
-0.831992
-0.833437
-0.830102
-0.809803
-0.827723
-0.837078
-0.837764
-0.859719
-0.823232
-0.807416
-0.826213
-0.839521
-0.845461
-0.89817
-0.814067
-0.80393
-0.824389
-0.841212
-0.852954
-0.937936
-0.809716
-0.801539
-0.824087
-0.842972
-0.859807
-0.96814
-0.848582
-0.803873
-0.807815
-0.815906
-0.818994
-0.808202
-0.77598
-0.718686
-0.638052
-0.54197
-0.440718
-0.343973
-0.257367
-0.183753
-0.123554
-0.0759846
-0.0396454
-0.0129544
0.00556288
0.0171765
0.0227923
0.0231469
0.018332
0.00929734
-0.871686
-0.840519
-0.841945
-0.855599
-0.867048
-0.865232
-0.839619
-0.783452
-0.697603
-0.591468
-0.477537
-0.369968
-0.274229
-0.193559
-0.128466
-0.0778175
-0.0397547
-0.0122757
0.00640849
0.0180324
0.0237725
0.0247314
0.0205894
0.013586
-0.871881
-0.861181
-0.869722
-0.891026
-0.912043
-0.920406
-0.903034
-0.850112
-0.760919
-0.646404
-0.523769
-0.407479
-0.305125
-0.219835
-0.151718
-0.0990386
-0.0593383
-0.0303174
-0.0102624
0.00281531
0.010478
0.0138457
0.0121441
0.010727
-0.871954
-0.873326
-0.890497
-0.91961
-0.949107
-0.966154
-0.955663
-0.905379
-0.814553
-0.694606
-0.565949
-0.445251
-0.340514
-0.254579
-0.186586
-0.133792
-0.0931702
-0.0620692
-0.0382268
-0.0206215
-0.00849953
-0.00053879
0.00377405
0.00780553
-0.872445
-0.881394
-0.904789
-0.939395
-0.974344
-0.9964
-0.987679
-0.937086
-0.843904
-0.721513
-0.591509
-0.47133
-0.368106
-0.284211
-0.217786
-0.165476
-0.124344
-0.0919716
-0.0663764
-0.0459559
-0.029559
-0.0158659
-0.00439376
0.00567376
-0.871935
-0.885887
-0.912618
-0.949519
-0.985961
-1.00736
-0.99605
-0.941689
-0.84559
-0.723511
-0.597048
-0.481823
-0.383351
-0.303209
-0.239168
-0.187756
-0.146351
-0.112913
-0.085734
-0.0633589
-0.0445374
-0.0280531
-0.0125083
0.00198084
-0.870529
-0.886859
-0.914215
-0.950141
-0.983768
-0.999741
-0.982073
-0.921252
-0.822838
-0.703849
-0.584444
-0.477134
-0.386694
-0.311754
-0.250966
-0.201478
-0.160846
-0.127243
-0.0991685
-0.0753483
-0.0546736
-0.036077
-0.0182485
-0.00136006
-0.86813
-0.884434
-0.910012
-0.941949
-0.968794
-0.975982
-0.948623
-0.880552
-0.781198
-0.667367
-0.55744
-0.460906
-0.378669
-0.309575
-0.252637
-0.205677
-0.16659
-0.13375
-0.105809
-0.0815993
-0.0601049
-0.0402852
-0.0206424
-0.00180117
-0.864455
-0.878869
-0.900619
-0.925735
-0.942691
-0.938902
-0.899836
-0.825607
-0.727223
-0.6211
-0.521164
-0.434898
-0.360965
-0.297988
-0.245203
-0.200969
-0.163628
-0.131806
-0.10435
-0.0802934
-0.0588041
-0.0387604
-0.0183161
0.000727669
-0.859398
-0.870523
-0.886728
-0.902252
-0.908194
-0.89101
-0.840688
-0.761684
-0.666243
-0.569127
-0.479893
-0.402119
-0.335409
-0.278402
-0.229948
-0.18875
-0.153498
-0.123031
-0.096377
-0.0727782
-0.051615
-0.0317411
-0.0110761
0.00642681
-0.853034
-0.859885
-0.868785
-0.872973
-0.866969
-0.835421
-0.77526
-0.693082
-0.602267
-0.514072
-0.434241
-0.364458
-0.304243
-0.252461
-0.208007
-0.169803
-0.136805
-0.108056
-0.0827352
-0.0602146
-0.039939
-0.0205674
0.000147779
0.0150371
-0.845545
-0.847602
-0.846649
-0.839715
-0.81975
-0.774925
-0.705963
-0.622879
-0.537635
-0.457586
-0.385874
-0.323082
-0.268595
-0.221426
-0.180605
-0.145234
-0.114477
-0.087574
-0.0638745
-0.0428701
-0.0240063
-0.00550675
0.0150908
0.0264285
-0.837368
-0.834294
-0.82065
-0.802658
-0.767962
-0.710362
-0.634707
-0.552786
-0.473244
-0.400403
-0.33564
-0.278856
-0.229361
-0.186291
-0.148807
-0.116151
-0.0876408
-0.062665
-0.0407033
-0.021348
-0.0040238
0.0134706
0.033822
0.0407365
-0.828996
-0.819454
-0.792365
-0.761407
-0.711766
-0.6423
-0.562808
-0.483359
-0.40934
-0.342779
-0.283956
-0.232388
-0.187316
-0.14794
-0.113533
-0.0834616
-0.0571716
-0.0341604
-0.0139968
0.00365189
0.0194284
0.0359509
0.0560033
0.0578328
-0.820716
-0.800279
-0.763066
-0.71583
-0.650273
-0.571567
-0.490802
-0.414635
-0.345803
-0.2848
-0.231209
-0.184279
-0.143196
-0.107208
-0.0756726
-0.0480632
-0.0239275
-0.00285001
0.0155304
0.0314751
0.0456796
0.0612371
0.0810522
0.0775733
-0.813274
-0.77393
-0.730449
-0.664467
-0.583403
-0.498687
-0.418561
-0.346244
-0.282381
-0.226481
-0.177661
-0.134984
-0.097598
-0.0647855
-0.0359754
-0.0107206
0.0113506
0.0305845
0.0472742
0.061604
0.0742911
0.0889404
0.10865
0.099955
-0.806755
-0.741142
-0.688565
-0.604734
-0.511452
-0.423771
-0.345811
-0.277788
-0.218853
-0.167836
-0.123539
-0.0849005
-0.0510464
-0.0212898
0.00488882
0.027876
0.0479845
0.0655027
0.0806497
0.0935037
0.104787
0.118605
0.138332
0.124863
-0.801733
-0.708131
-0.634071
-0.534904
-0.434499
-0.346716
-0.272172
-0.20892
-0.155055
-0.108908
-0.0690676
-0.0343998
-0.00402627
0.0227123
0.0462963
0.0670721
0.0853102
0.101251
0.115035
0.12661
0.136667
0.149749
0.169613
0.152229
-0.779702
-0.680279
-0.569134
-0.455014
-0.352375
-0.267231
-0.197287
-0.139394
-0.090898
-0.0497714
-0.0144677
0.0161787
0.043029
0.0667117
0.0876762
0.106244
0.122661
0.137131
0.149726
0.160258
0.169328
0.181801
0.201932
0.182087
-0.738536
-0.649008
-0.494716
-0.365844
-0.264708
-0.184754
-0.120794
-0.069039
-0.0263805
0.00943971
0.0400241
0.0665158
0.0897316
0.110257
0.12851
0.144799
0.159359
0.172381
0.183898
0.193638
0.202066
0.214102
0.234567
0.21492
-0.680114
-0.585928
-0.404136
-0.267096
-0.171137
-0.0988754
-0.0425828
0.00206898
0.0383383
0.0685157
0.0941572
0.116326
0.135759
0.152979
0.168364
0.1822
0.194723
0.206129
0.216488
0.225578
0.233686
0.245086
0.265399
0.253431
-0.618854
-0.470034
-0.287016
-0.157205
-0.0716
-0.00970794
0.0371585
0.0736813
0.10299
0.127195
0.147688
0.165383
0.180897
0.194656
0.20697
0.218074
0.228164
0.237423
0.245986
0.25375
0.260537
0.268475
0.284644
0.302546
-0.555459
-0.296798
-0.137076
-0.035151
0.0333051
0.0818814
0.117718
0.145223
0.167115
0.185125
0.20036
0.213523
0.22507
0.235305
0.244433
0.252595
0.259885
0.266389
0.272156
0.276903
0.279827
0.282422
0.296268
0.330251
-0.391153
-0.0656701
0.0387214
0.0968148
0.141661
0.17416
0.197813
0.215796
0.230082
0.241868
0.251894
0.260612
0.268303
0.275139
0.281227
0.286621
0.291349
0.295437
0.298814
0.300917
0.301103
0.303587
0.32249
0.342513
)
;

boundaryField
{
    rotor
    {
        type            zeroGradient;
    }
    freestream
    {
        type            freestreamPressure;
        freestreamValue uniform 0;
        supersonic      false;
        value           nonuniform List<scalar> 
96
(
0.215004
0.242002
0.271583
0.302839
0.335202
0.368162
0.401236
0.433956
0.465866
0.496532
0.525551
0.552566
0.577264
0.599386
0.618718
0.635021
0.648017
0.658149
0.66527
0.669235
0.670026
0.667763
0.662509
0.654379
0.643512
0.630066
0.614162
0.596373
0.576718
0.554709
0.530925
0.505663
0.479151
0.451628
0.423345
0.394562
0.365543
0.33656
0.307895
0.279872
0.252914
0.227657
0.205144
0.187105
0.16483
0.135994
0.111703
0.0915573
0.0742107
0.0591866
0.0462923
0.0353798
0.0262968
0.0188794
0.0129812
0.00846321
0.00514459
0.00283919
0.00136255
0.000511874
0.00010081
-2.54305e-05
1.70496e-05
0.000132871
0.000225978
0.000242629
0.000266635
0.000364114
0.000254554
5.69198e-06
0.00014038
0.000225845
0.000347999
0.000626495
0.000594156
0.000542429
0.000492519
0.000208303
-0.000166693
-0.000251571
0.000114616
0.00113216
0.00294524
0.0057327
0.00975252
0.0152301
0.0223952
0.0315268
0.0428767
0.0567054
0.0733021
0.093132
0.117705
0.149854
0.173527
0.191542
)
;
    }
    frontAndBack
    {
        type            empty;
    }
}


// ************************************************************************* //
