/*--------------------------------*- C++ -*----------------------------------*\
  =========                 |
  \\      /  F ield         | OpenFOAM: The Open Source CFD Toolbox
   \\    /   O peration     | Website:  https://openfoam.org
    \\  /    A nd           | Version:  11
     \\/     M anipulation  |
\*---------------------------------------------------------------------------*/
FoamFile
{
    format      ascii;
    class       volVectorField;
    location    "1.78";
    object      U;
}
// * * * * * * * * * * * * * * * * * * * * * * * * * * * * * * * * * * * * * //

dimensions      [0 1 -1 0 0 0 0];

internalField   nonuniform List<vector> 
2880
(
(-0.0362999 -0.049269 -4.71319e-20)
(-0.0412901 -0.0396832 -2.08472e-18)
(-0.0566086 0.0607286 -5.33992e-20)
(-0.111128 0.265874 0)
(-0.0514611 0.426713 -5.75974e-19)
(-0.116682 1.09429 0)
(-0.0389293 -0.0412384 -1.34303e-18)
(-0.0340956 0.00877504 1.027e-18)
(-0.0341327 0.143101 7.82911e-19)
(-0.0563989 0.339959 -4.73795e-19)
(-0.00923948 0.543341 -6.18599e-19)
(0.07949 0.907361 7.07817e-20)
(-0.039157 -0.0305617 -2.25158e-18)
(-0.0222446 0.0460272 -1.76595e-19)
(-0.0063235 0.19592 -6.31255e-19)
(-0.00193637 0.384394 4.38307e-19)
(0.064774 0.589615 4.58861e-19)
(0.186714 0.832734 8.87921e-20)
(-0.0379247 -0.0204623 4.2279e-18)
(-0.00835826 0.0772225 -1.77069e-18)
(0.02329 0.234722 -1.1655e-18)
(0.0496435 0.412003 -2.60684e-19)
(0.127575 0.596859 -7.03085e-19)
(0.256118 0.775087 0)
(-0.0366826 -0.00927652 -2.14528e-18)
(0.00626959 0.103635 1.65109e-18)
(0.0520239 0.26261 1.27518e-18)
(0.095559 0.425894 0)
(0.179655 0.583689 7.70509e-19)
(0.303847 0.716448 -5.82708e-19)
(-0.0339658 0.00224782 -7.94821e-20)
(0.0208793 0.124673 5.16284e-20)
(0.0787042 0.28054 0)
(0.134921 0.428357 8.32179e-19)
(0.221686 0.559344 -6.35616e-19)
(0.338145 0.657629 6.94518e-19)
(-0.0261918 0.0127713 4.28668e-20)
(0.0357594 0.138552 5.03194e-20)
(0.103216 0.289697 7.22625e-20)
(0.168331 0.42206 -1.03968e-18)
(0.255335 0.528962 1.73751e-19)
(0.363286 0.600786 -1.52716e-20)
(-0.0202708 0.0176768 4.25401e-20)
(0.0504798 0.146248 0)
(0.125583 0.291805 0)
(0.196598 0.409464 -1.08905e-19)
(0.282115 0.495602 9.48111e-19)
(0.381811 0.547013 -1.42379e-19)
(-0.0125873 0.0200625 2.88275e-18)
(0.0645845 0.149218 -6.10396e-22)
(0.145725 0.288564 -7.25259e-20)
(0.220345 0.392592 -2.13853e-19)
(0.303293 0.461093 1.74615e-19)
(0.395393 0.496585 0)
(-0.00436384 0.0199631 -2.87951e-18)
(0.077619 0.148549 1.94003e-19)
(0.163548 0.281343 1.06671e-18)
(0.240066 0.372985 0)
(0.319904 0.426495 0)
(0.405239 0.449247 0)
(0.00359804 0.0177118 -8.43858e-20)
(0.0891219 0.14507 1.44306e-19)
(0.178967 0.271149 -1.06839e-18)
(0.256201 0.351707 -9.67946e-19)
(0.332766 0.392387 -1.61227e-19)
(0.412246 0.404595 -2.6902e-19)
(0.0107124 0.0137766 2.73836e-18)
(0.0987026 0.139366 9.56805e-20)
(0.191904 0.258693 -2.11368e-19)
(0.269161 0.329442 9.67617e-19)
(0.34254 0.359035 0)
(0.417049 0.362213 5.35131e-19)
(0.0165014 0.00854009 -5.43253e-18)
(0.106068 0.131823 0)
(0.202317 0.24447 1.40711e-19)
(0.279316 0.306604 -1.09329e-19)
(0.34976 0.326523 6.66462e-19)
(0.420103 0.321696 1.30242e-19)
(0.0206549 0.00223537 2.6956e-18)
(0.110934 0.122648 0)
(0.21018 0.228766 -1.42338e-19)
(0.286984 0.283428 1.10382e-19)
(0.354861 0.294857 1.40522e-21)
(0.421761 0.282692 -1.31354e-19)
(0.0231251 -0.00477834 -1.26005e-19)
(0.113 0.111959 1.6204e-18)
(0.215457 0.211673 -1.44806e-19)
(0.292447 0.259998 3.88068e-21)
(0.358206 0.264021 8.90684e-20)
(0.422299 0.244893 -1.32883e-19)
(0.0240053 -0.0118518 4.2106e-20)
(0.111969 0.0998068 -1.60064e-18)
(0.218102 0.193146 -7.40745e-20)
(0.295914 0.236314 9.63523e-19)
(0.360084 0.233946 8.72607e-20)
(0.421947 0.208047 -6.3055e-19)
(0.0225853 -0.0198488 1.39091e-18)
(0.107417 0.086139 -9.18583e-19)
(0.217952 0.173029 -5.39643e-19)
(0.297548 0.212295 -8.17556e-19)
(0.360749 0.204585 -4.47101e-19)
(0.420879 0.171934 7.06252e-19)
(0.0164753 -0.0281797 -1.21675e-18)
(0.0989136 0.0706567 8.13123e-19)
(0.214756 0.151049 6.37236e-19)
(0.297431 0.18771 4.25457e-19)
(0.360435 0.175899 -3.2301e-19)
(0.419294 0.136406 -7.05464e-20)
(0.00788533 -0.0333867 5.6905e-19)
(0.0867143 0.0529593 2.67664e-20)
(0.208209 0.126802 -4.14647e-20)
(0.295533 0.162184 -5.05672e-19)
(0.359299 0.147763 0)
(0.417412 0.101413 0)
(-0.000891268 -0.0382889 -5.0227e-19)
(0.072197 0.0330123 1.38711e-20)
(0.197828 0.0999409 -2.1641e-20)
(0.291633 0.135158 0)
(0.357443 0.120009 0)
(0.415516 0.0670944 0)
(-0.00853021 -0.0436242 -4.20513e-21)
(0.0550059 0.0110975 4.35899e-20)
(0.18256 0.0701946 -2.2594e-20)
(0.285157 0.105967 -8.74485e-21)
(0.354983 0.0924561 -1.37641e-20)
(0.414041 0.0341511 -1.06151e-20)
(-0.0144825 -0.0469652 -4.51058e-21)
(0.0347099 -0.0112334 -2.66187e-20)
(0.160223 0.0373821 1.90437e-19)
(0.274756 0.0739216 2.79866e-20)
(0.352219 0.0646656 7.28293e-21)
(0.413601 0.00341491 1.13525e-20)
(-0.0201302 -0.048976 2.07964e-20)
(0.0106393 -0.0336149 -1.60256e-20)
(0.125705 0.00109025 -1.99959e-19)
(0.256429 0.0366905 0)
(0.348799 0.0341033 0)
(0.409441 -0.0249317 0)
(-0.0208008 -0.0474237 4.52843e-20)
(-0.0130495 -0.0529099 3.25522e-20)
(0.0679574 -0.0478063 -8.74541e-19)
(0.216736 -0.0255944 8.25956e-20)
(0.33811 -0.0191983 -1.37715e-19)
(0.384811 -0.0706608 1.57553e-19)
(0.675428 1.27193 -1.23568e-19)
(0.975854 0.960462 -1.08215e-19)
(1.102 0.794816 3.39917e-20)
(1.16381 0.675657 -1.09506e-19)
(1.19575 0.577722 0)
(1.21237 0.498489 4.36806e-20)
(1.22062 0.433885 1.39439e-20)
(1.22383 0.380545 -9.11943e-20)
(1.22368 0.335946 9.57619e-20)
(1.2211 0.298197 0)
(1.2166 0.265881 3.80267e-20)
(1.21054 0.237929 0)
(1.20312 0.213521 2.7876e-21)
(1.19446 0.19201 3.62567e-20)
(1.18461 0.172876 -3.26474e-20)
(1.17357 0.155688 0)
(1.16127 0.140089 -6.45758e-20)
(1.14761 0.125784 9.18966e-20)
(1.13245 0.112515 6.06743e-20)
(1.11561 0.0998949 3.06326e-20)
(1.0969 0.0872713 2.78631e-20)
(1.07564 0.0750652 -8.65761e-20)
(1.04919 0.0690995 9.28728e-20)
(1.01502 0.0784503 -8.98956e-20)
(0.626157 1.06911 3.45885e-19)
(0.892587 0.908138 5.02862e-20)
(1.023 0.771685 0)
(1.09392 0.659883 2.71753e-20)
(1.13426 0.567105 7.51253e-20)
(1.1582 0.491472 -3.43763e-20)
(1.17264 0.42961 7.61916e-20)
(1.18103 0.378385 -2.89327e-23)
(1.18525 0.335383 -4.98701e-20)
(1.18639 0.298809 -5.0801e-20)
(1.18512 0.267326 0)
(1.1819 0.239926 0)
(1.177 0.215827 0)
(1.17061 0.194412 4.31185e-21)
(1.16282 0.175176 0)
(1.15364 0.1577 3.85142e-20)
(1.14306 0.141632 -7.08178e-20)
(1.13098 0.126684 6.82733e-20)
(1.11728 0.112597 -3.17749e-20)
(1.10183 0.0989773 -1.28432e-19)
(1.0845 0.0852091 1.25536e-19)
(1.06456 0.0720106 6.21803e-20)
(1.03921 0.0657413 -1.30429e-19)
(1.00783 0.0726746 1.27207e-19)
(0.580951 0.964559 -2.64156e-19)
(0.826368 0.852938 -3.11794e-19)
(0.954401 0.734835 6.11569e-20)
(1.03014 0.63307 -5.54302e-20)
(1.0771 0.547902 0)
(1.10735 0.477755 1.79746e-19)
(1.12727 0.41986 -6.86144e-20)
(1.14033 0.371539 6.75089e-20)
(1.14853 0.330672 -1.24818e-19)
(1.15309 0.295664 -6.39793e-20)
(1.15482 0.265314 1.12793e-19)
(1.15425 0.238702 5.40554e-21)
(1.15173 0.215109 -4.29619e-21)
(1.14748 0.193956 -1.35021e-19)
(1.14163 0.174769 -1.72118e-19)
(1.13424 0.15715 4.20438e-20)
(1.1253 0.140766 -7.3962e-20)
(1.11476 0.125351 2.26361e-19)
(1.10253 0.110666 7.4846e-20)
(1.08853 0.0963375 0)
(1.0727 0.0818056 0)
(1.05433 0.0679693 -3.24323e-20)
(1.03043 0.0613235 2.11604e-19)
(1.00176 0.0662659 -1.35265e-19)
(0.553391 0.868643 0)
(0.770375 0.786376 3.47471e-19)
(0.894978 0.687827 7.26589e-20)
(0.973665 0.59856 -6.6134e-20)
(1.02548 0.522438 0)
(1.06072 0.45878 2.58026e-20)
(1.08519 0.405553 0)
(1.10223 0.360638 0)
(1.11391 0.32229 2.84231e-19)
(1.12154 0.289154 -8.04508e-21)
(1.12598 0.26019 -1.11973e-19)
(1.12784 0.234585 -2.13391e-19)
(1.12751 0.211691 2.01096e-19)
(1.12526 0.190981 9.25199e-20)
(1.12124 0.172018 3.65536e-19)
(1.11555 0.154435 -1.75026e-19)
(1.1082 0.137927 -8.05201e-20)
(1.09917 0.122256 -7.76696e-20)
(1.08841 0.107214 -7.52151e-20)
(1.07593 0.0924591 -7.82099e-20)
(1.06173 0.0774899 0)
(1.0451 0.0633162 -1.49069e-19)
(1.02284 0.0563359 7.30094e-20)
(0.996813 0.0595781 1.98836e-19)
(0.538225 0.780675 6.08357e-19)
(0.727119 0.717768 0)
(0.845597 0.636454 4.42084e-19)
(0.924956 0.55965 -7.47096e-20)
(0.979795 0.492752 1.18635e-19)
(1.01868 0.435847 -8.688e-20)
(1.04672 0.387569 0)
(1.06706 0.346328 0)
(1.0817 0.310741 -3.04015e-19)
(1.09199 0.279699 1.44692e-19)
(1.09884 0.252324 0)
(1.10288 0.227915 -1.17744e-19)
(1.10455 0.205901 1.06914e-19)
(1.10414 0.185811 -1.048e-19)
(1.10183 0.16725 1.01441e-19)
(1.09774 0.149888 -1.88727e-19)
(1.09192 0.133452 -9.30328e-20)
(1.08438 0.117739 0)
(1.07512 0.102575 8.6607e-20)
(1.06419 0.0876548 2.40811e-19)
(1.0517 0.0725399 -1.58403e-19)
(1.03691 0.0583034 0)
(1.01642 0.0510761 0)
(0.992984 0.0528576 7.74821e-20)
(0.528877 0.700458 -6.79983e-19)
(0.693689 0.651018 -4.78687e-19)
(0.805055 0.583883 3.21672e-20)
(0.883488 0.518468 0)
(0.939908 0.460322 1.29099e-19)
(0.981281 0.410011 -4.52897e-19)
(1.01201 0.366694 1.04628e-19)
(1.03497 0.329219 0)
(1.05207 0.296525 1.57649e-19)
(1.06463 0.267724 -4.45943e-19)
(1.07358 0.242092 -2.83966e-21)
(1.07956 0.219034 5.16499e-21)
(1.08303 0.198057 4.6959e-19)
(1.08429 0.178747 -3.31265e-19)
(1.08357 0.160756 5.31071e-19)
(1.08099 0.14379 -9.85424e-20)
(1.07663 0.127615 3.84965e-19)
(1.07055 0.112063 -1.86422e-19)
(1.06278 0.0969971 1.84388e-19)
(1.05343 0.0821559 -2.58634e-19)
(1.04269 0.0671648 4.2141e-19)
(1.02976 0.0531196 -2.45902e-19)
(1.01113 0.0457432 0)
(0.990219 0.046274 -7.70878e-20)
(0.522685 0.627959 -8.668e-20)
(0.667766 0.587662 3.55868e-19)
(0.771974 0.531879 -1.82053e-19)
(0.848506 0.47641 2.5523e-19)
(0.905445 0.426232 -4.30826e-19)
(0.948373 0.382126 7.07276e-21)
(0.981045 0.343611 5.27494e-21)
(1.00603 0.309875 -9.12193e-20)
(1.02512 0.280118 1.78056e-19)
(1.03959 0.253641 -9.72141e-21)
(1.05033 0.229858 1.41215e-19)
(1.058 0.208271 7.84203e-21)
(1.06307 0.188462 1.29316e-19)
(1.06585 0.170075 6.6029e-21)
(1.06658 0.152804 6.15262e-21)
(1.06541 0.136397 -1.03985e-19)
(1.06246 0.120657 -9.98008e-20)
(1.05779 0.105456 0)
(1.05148 0.0906954 9.76185e-20)
(1.04371 0.0761609 -9.14646e-20)
(1.0347 0.0615419 -9.28525e-20)
(1.02361 0.0479162 -5.3587e-19)
(1.00688 0.0404838 3.46303e-19)
(0.988422 0.0399576 2.59415e-19)
(0.518291 0.562423 0)
(0.647553 0.528119 -5.13664e-19)
(0.745051 0.481345 4.23046e-19)
(0.819198 0.434353 -3.38577e-19)
(0.87593 0.391261 -1.6245e-20)
(0.919707 0.352862 0)
(0.953708 0.318897 2.24275e-19)
(0.980217 0.288794 -4.09653e-19)
(1.00088 0.261954 3.76272e-19)
(1.01691 0.237836 3.3417e-19)
(1.02917 0.215967 0)
(1.0383 0.195941 -1.38441e-19)
(1.04477 0.177407 -1.29322e-19)
(1.04891 0.160061 -3.70061e-19)
(1.05097 0.143644 3.5881e-19)
(1.05111 0.127942 -2.23379e-21)
(1.04947 0.112799 -4.34732e-19)
(1.04616 0.0981243 2.10334e-19)
(1.04128 0.0838635 3.05633e-19)
(1.03504 0.0698473 -2.97186e-19)
(1.0277 0.0558247 0)
(1.0184 0.0428147 -4.32326e-21)
(1.00359 0.0354102 0)
(0.987475 0.0340102 -2.7923e-19)
(0.514946 0.50271 1.53389e-19)
(0.631678 0.472292 -1.53034e-19)
(0.723182 0.432655 1.60778e-20)
(0.794798 0.392808 0)
(0.850872 0.355946 3.03945e-19)
(0.894986 0.322736 -2.7673e-19)
(0.929837 0.293027 2.33976e-19)
(0.957449 0.266407 2.0862e-19)
(0.979331 0.242424 -3.83855e-19)
(0.996611 0.220659 7.65134e-21)
(1.01013 0.20074 5.1665e-21)
(1.0205 0.182338 1.50689e-19)
(1.0282 0.165162 2.76029e-19)
(1.03355 0.148959 -3.94759e-21)
(1.0368 0.133511 -2.50768e-19)
(1.03814 0.118645 0)
(1.03774 0.104244 0)
(1.03571 0.0902607 0)
(1.03219 0.0766785 -4.26094e-19)
(1.02742 0.0633715 4.13624e-19)
(1.02166 0.0501389 -1.01983e-19)
(1.01404 0.0379032 3.92495e-19)
(1.00112 0.0306036 4.33403e-21)
(0.987247 0.0285077 -5.90448e-20)
(0.512211 0.447741 0)
(0.61914 0.41984 1.0532e-18)
(0.705482 0.385868 -4.31808e-19)
(0.774642 0.352041 0)
(0.829809 0.320644 -1.5602e-19)
(0.873905 0.292135 4.19591e-19)
(0.90924 0.266386 0)
(0.937611 0.243078 8.06207e-21)
(0.960403 0.221867 0)
(0.97867 0.202428 -1.78058e-19)
(0.993212 0.184471 -1.63724e-19)
(1.00463 0.167733 1.57626e-19)
(1.01337 0.15198 -1.4756e-19)
(1.01978 0.137002 -2.71979e-19)
(1.0241 0.122623 6.53651e-19)
(1.02654 0.108709 -2.55018e-21)
(1.02727 0.0951841 -2.40843e-19)
(1.02644 0.0820416 0)
(1.0242 0.0692991 4.46413e-19)
(1.0208 0.0568665 -2.12954e-19)
(1.0165 0.0445807 6.279e-19)
(1.01043 0.0332392 -8.24355e-19)
(0.999372 0.0261207 -3.78538e-21)
(0.987607 0.023503 3.6857e-19)
(0.509814 0.396553 -5.88221e-19)
(0.609225 0.370293 -6.69782e-19)
(0.691275 0.340867 -3.43711e-19)
(0.758185 0.31216 -9.90053e-20)
(0.812337 0.285586 0)
(0.856179 0.261347 0)
(0.891718 0.239281 2.49115e-19)
(0.920573 0.219116 -4.56895e-19)
(0.944014 0.20058 -2.02254e-19)
(0.963034 0.183423 5.83487e-21)
(0.978391 0.167423 4.54974e-21)
(0.990666 0.152374 4.6456e-21)
(1.0003 0.13809 -1.50536e-19)
(1.00762 0.124405 4.31224e-19)
(1.01288 0.111181 1.36293e-19)
(1.01631 0.0983219 -2.64086e-21)
(1.01808 0.0857941 -1.24229e-19)
(1.01834 0.073626 -1.22435e-19)
(1.01727 0.061862 -1.14555e-19)
(1.01512 0.0504377 -2.2498e-19)
(1.01213 0.039216 -1.0691e-19)
(1.00748 0.0288537 -2.16427e-19)
(0.998218 0.0219973 4.07711e-19)
(0.988423 0.0190287 -2.37862e-19)
(0.50762 0.348328 8.14473e-19)
(0.601457 0.323132 -6.85317e-19)
(0.680061 0.297451 4.49577e-19)
(0.744998 0.273181 0)
(0.798119 0.250917 -1.75362e-19)
(0.841551 0.230585 2.88783e-19)
(0.877085 0.211957 -1.41804e-19)
(0.906196 0.194776 -2.83428e-21)
(0.930067 0.178818 0)
(0.949632 0.163892 -1.94829e-19)
(0.965616 0.149831 3.55336e-19)
(0.978577 0.136482 -1.67369e-19)
(0.988941 0.123703 0)
(0.997037 0.111366 -1.44998e-19)
(1.00312 0.0993685 0)
(1.00742 0.0876556 -1.31699e-19)
(1.01011 0.0762302 1.42045e-21)
(1.01137 0.065151 1.23245e-19)
(1.01135 0.0544781 0)
(1.01032 0.0441623 6.98311e-19)
(1.00849 0.0340841 -9.02531e-19)
(1.00509 0.0247577 2.18735e-19)
(0.997547 0.0182524 0)
(0.989572 0.0150987 -9.53223e-20)
(0.505603 0.302347 -8.69842e-20)
(0.59554 0.277862 5.42637e-19)
(0.671488 0.25539 0)
(0.73476 0.235068 0)
(0.786882 0.216724 3.3732e-19)
(0.829804 0.200011 -2.9575e-19)
(0.865169 0.184614 2.62267e-19)
(0.894348 0.170274 -2.35095e-19)
(0.918457 0.1568 -2.17121e-19)
(0.938383 0.144049 1.94759e-19)
(0.954822 0.131904 -3.6357e-19)
(0.968311 0.120257 0)
(0.979263 0.109006 -1.55616e-19)
(0.988002 0.0980583 3.05447e-19)
(0.994787 0.0873501 1.46275e-19)
(0.999835 0.0768608 -2.77699e-19)
(1.00334 0.0666273 -3.14137e-21)
(1.00546 0.0567291 2.57405e-19)
(1.00638 0.0472308 -3.7591e-19)
(1.00632 0.038091 -2.4016e-19)
(1.00548 0.0292035 -5.816e-19)
(1.00319 0.0209492 4.47405e-19)
(0.997253 0.0148912 0)
(0.990942 0.01171 -2.63944e-19)
(0.503796 0.257963 8.74473e-20)
(0.591318 0.234022 0)
(0.665334 0.214454 0)
(0.727244 0.197764 1.92317e-19)
(0.778422 0.183064 -1.00258e-20)
(0.82076 0.16975 -1.55337e-19)
(0.855817 0.157418 4.01328e-19)
(0.884901 0.145796 -1.23182e-19)
(0.909077 0.134719 2.16951e-19)
(0.929199 0.124087 2.01959e-19)
(0.945934 0.113828 1.83913e-19)
(0.959802 0.103875 3.46655e-19)
(0.971205 0.0941641 -3.2695e-19)
(0.980458 0.0846396 3.08882e-19)
(0.987816 0.0752698 -2.9634e-19)
(0.993497 0.0660678 2.85365e-19)
(0.99769 0.0570968 4.10175e-19)
(1.00056 0.0484468 -3.99954e-19)
(1.00227 0.0401783 2.55499e-19)
(1.00304 0.0322537 -2.49939e-21)
(1.00304 0.0245792 2.37629e-19)
(1.0017 0.0174193 1.14032e-19)
(0.997242 0.0119082 5.51944e-19)
(0.992426 0.00884363 -9.77011e-19)
(0.502285 0.21458 -6.65993e-19)
(0.588756 0.19119 7.19935e-20)
(0.661485 0.174425 3.53282e-19)
(0.722313 0.16121 1.03148e-19)
(0.772593 0.149982 -1.68644e-19)
(0.814277 0.13991 3.12946e-19)
(0.8489 0.130513 1.41097e-19)
(0.877737 0.121505 0)
(0.901824 0.112745 0)
(0.921986 0.104174 -4.0654e-19)
(0.938869 0.0957644 -1.86658e-19)
(0.952976 0.0874907 5.8718e-21)
(0.964696 0.0793254 1.68291e-19)
(0.974336 0.0712456 0)
(0.982146 0.0632516 -3.03733e-19)
(0.988337 0.0553845 -1.44841e-19)
(0.993096 0.0477254 -4.22077e-19)
(0.996581 0.0403655 1.361e-19)
(0.998953 0.0333559 -2.59598e-19)
(1.00041 0.026663 6.28336e-19)
(1.0011 0.0202068 1.61256e-21)
(1.00056 0.0141553 -4.71088e-19)
(0.997423 0.00928885 1.12052e-19)
(0.993927 0.00646226 1.00592e-19)
(0.501211 0.171634 6.77214e-19)
(0.587928 0.148985 0)
(0.65993 0.135115 -4.66563e-19)
(0.719907 0.125359 9.71651e-20)
(0.769306 0.117524 -8.95315e-20)
(0.810251 0.110596 -3.04915e-19)
(0.844307 0.104035 -2.71531e-19)
(0.872748 0.0975496 0)
(0.896593 0.09103 1.10176e-19)
(0.916648 0.0844611 1.00262e-19)
(0.933539 0.0778597 -9.58639e-20)
(0.947751 0.0712423 -1.78107e-19)
(0.959659 0.0646173 -1.68295e-19)
(0.969562 0.0579934 1.62669e-19)
(0.9777 0.0513992 7.74908e-20)
(0.984279 0.0448972 -1.46904e-19)
(0.989475 0.0385773 4.29995e-19)
(0.993447 0.0325245 -6.93553e-20)
(0.996348 0.0267801 1.31912e-19)
(0.998357 0.0213166 -6.4352e-20)
(0.999592 0.0160708 1.24308e-19)
(0.999709 0.0111388 -2.38818e-19)
(0.997706 0.00701845 2.26982e-19)
(0.995335 0.00450282 -1.53751e-19)
(0.500774 0.128564 2.515e-19)
(0.589022 0.107069 0)
(0.660751 0.0963757 3.46794e-19)
(0.720036 0.0901982 -2.00746e-19)
(0.768517 0.085759 8.95235e-20)
(0.808601 0.0819236 3.11087e-21)
(0.841939 0.0781211 4.10085e-19)
(0.869828 0.0740749 -1.2568e-19)
(0.893281 0.0697171 1.12504e-19)
(0.913087 0.0650843 1.36202e-21)
(0.929852 0.0602421 -9.38596e-20)
(0.94404 0.0552491 2.7369e-19)
(0.956014 0.0501494 8.60222e-20)
(0.966057 0.0449815 -8.21103e-20)
(0.974401 0.0397975 -1.56879e-19)
(0.981242 0.0346735 0)
(0.986749 0.0296998 -1.44816e-19)
(0.991076 0.0249517 1.09808e-21)
(0.994373 0.0204627 2.69928e-19)
(0.996801 0.0162155 3.88317e-19)
(0.998462 0.0121695 -2.50305e-19)
(0.999105 0.00838626 0)
(0.998091 0.00517749 0)
(0.996548 0.00287882 2.04832e-19)
(0.50126 0.0847916 -7.2706e-19)
(0.592358 0.065145 -2.06037e-19)
(0.66413 0.0581182 -5.82891e-20)
(0.722779 0.0557661 2.50509e-19)
(0.770224 0.0547972 8.45522e-20)
(0.809268 0.0540323 -2.31169e-19)
(0.841704 0.0529187 6.65766e-20)
(0.868872 0.0512236 -1.84213e-19)
(0.89178 0.0489402 1.94814e-21)
(0.911198 0.0461674 -2.0787e-19)
(0.927708 0.0430245 9.58288e-20)
(0.941753 0.0396134 -1.83106e-19)
(0.953674 0.036013 -1.7295e-19)
(0.963742 0.0322891 2.46871e-19)
(0.972175 0.0285114 -9.76701e-22)
(0.979158 0.024762 7.64085e-20)
(0.984851 0.0211247 -1.46279e-19)
(0.989406 0.0176627 5.60004e-22)
(0.992966 0.0144038 6.80705e-20)
(0.995678 0.0113401 -6.51287e-20)
(0.997634 0.00844608 -6.31837e-20)
(0.998692 0.00575666 -2.43859e-19)
(0.998494 0.0034701 2.35991e-19)
(0.997731 0.00168851 2.82573e-22)
(0.503129 0.0396883 5.22923e-19)
(0.598435 0.0229881 1.42177e-19)
(0.670368 0.0203277 -1.1854e-19)
(0.728266 0.0221647 -1.99676e-19)
(0.774432 0.0248077 -1.51314e-21)
(0.812185 0.0271009 -1.52215e-19)
(0.843496 0.0285926 -6.67491e-20)
(0.869759 0.0291406 0)
(0.891969 0.0288258 -1.11761e-19)
(0.910868 0.0278214 2.59924e-19)
(0.927004 0.0263042 -1.12227e-21)
(0.940793 0.0244199 0)
(0.952553 0.0222803 8.68984e-20)
(0.962537 0.0199743 0)
(0.97095 0.0175837 -7.96894e-20)
(0.977964 0.0151889 -3.82148e-20)
(0.983733 0.0128623 1.472e-19)
(0.988402 0.0106546 -7.1589e-20)
(0.992109 0.00858985 -1.02318e-19)
(0.994986 0.00666789 -1.31308e-19)
(0.997121 0.00487472 1.58413e-19)
(0.998468 0.00322583 -1.22451e-19)
(0.998867 0.00184537 1.18484e-19)
(0.998745 0.000840556 -7.95997e-20)
(0.507088 -0.00744449 -1.76933e-19)
(0.608011 -0.019542 1.41229e-19)
(0.679923 -0.0168844 -1.16953e-19)
(0.736657 -0.0103804 -4.80198e-20)
(0.781118 -0.00396851 1.71483e-19)
(0.817245 0.00135011 -3.85384e-20)
(0.847175 0.00532301 0)
(0.872344 0.00796935 -6.03051e-20)
(0.893711 0.00948945 1.13179e-19)
(0.91197 0.0101416 0)
(0.927625 0.010161 0)
(0.941057 0.00973469 0)
(0.952558 0.00900368 0)
(0.96236 0.0080755 -8.29816e-20)
(0.970653 0.00703733 8.04439e-20)
(0.977597 0.00596241 -3.84669e-20)
(0.98334 0.00490883 0)
(0.98802 0.00391616 -5.32215e-20)
(0.99177 0.00300678 1.02816e-19)
(0.994706 0.00218929 0)
(0.996917 0.00146265 3.17242e-20)
(0.998427 0.000835275 0)
(0.999173 0.000398295 0)
(0.999466 0.000191933 2.6558e-20)
(0.514263 -0.057567 1.10484e-20)
(0.622221 -0.0625579 1.68798e-20)
(0.693361 -0.0531721 -1.50078e-20)
(0.748076 -0.0414503 6.02345e-21)
(0.790181 -0.0311927 0)
(0.824263 -0.0229665 0)
(0.852546 -0.0167092 4.14153e-21)
(0.876447 -0.0121606 -1.49674e-20)
(0.896846 -0.00897227 1.76036e-20)
(0.914364 -0.00679699 -3.21942e-21)
(0.929449 -0.00534567 0)
(0.942437 -0.00439579 -2.84935e-21)
(0.953592 -0.00378277 2.16435e-20)
(0.963124 -0.00338644 -2.09429e-20)
(0.971206 -0.00311941 0)
(0.977988 -0.00291977 2.39778e-21)
(0.98361 -0.00274512 3.68739e-20)
(0.988204 -0.00256607 -5.12265e-20)
(0.991895 -0.00236058 0)
(0.994793 -0.00211152 0)
(0.99698 -0.00180568 0)
(0.998509 -0.00142741 0)
(0.999423 -0.000946577 0)
(0.999871 -0.000318177 -2.48639e-20)
(0.526496 -0.112458 -1.68132e-20)
(0.642838 -0.105981 6.47115e-20)
(0.711279 -0.0877642 7.40706e-21)
(0.762497 -0.0703975 4.11907e-20)
(0.801378 -0.056433 4.093e-20)
(0.83295 -0.0455893 0)
(0.859352 -0.0373473 -1.22629e-20)
(0.881849 -0.03115 3.74304e-20)
(0.90119 -0.0264917 -3.47271e-21)
(0.917896 -0.0229456 3.2245e-21)
(0.932344 -0.0201797 0)
(0.944822 -0.017946 2.55042e-20)
(0.95556 -0.0160638 2.15711e-20)
(0.964745 -0.0144065 0)
(0.972536 -0.0128907 0)
(0.979073 -0.0114685 -2.39923e-21)
(0.984487 -0.0101137 1.83645e-20)
(0.988905 -0.00880667 -3.76396e-20)
(0.992446 -0.0075263 3.40717e-20)
(0.995212 -0.00624863 -1.64244e-20)
(0.997287 -0.00494892 0)
(0.998726 -0.0036042 1.5254e-20)
(0.999576 -0.00220411 -4.42662e-20)
(0.999955 -0.000761633 1.16008e-20)
(0.550365 -0.177117 -2.18086e-20)
(0.672536 -0.148327 -1.85602e-19)
(0.734111 -0.119074 -1.35934e-19)
(0.779539 -0.0963244 -2.34276e-20)
(0.814228 -0.0792338 -4.10148e-20)
(0.842894 -0.066307 7.1118e-20)
(0.867268 -0.0564939 -6.43008e-20)
(0.888299 -0.048952 2.89554e-20)
(0.906546 -0.0430442 1.08433e-19)
(0.922407 -0.0382899 -5.14172e-20)
(0.93618 -0.0343334 4.74481e-20)
(0.948101 -0.0309141 -2.26774e-20)
(0.958367 -0.0278444 -2.159e-20)
(0.967145 -0.0249962 -8.19454e-20)
(0.974578 -0.0222945 3.97057e-20)
(0.980796 -0.0197057 0)
(0.985926 -0.0172198 3.63912e-20)
(0.990086 -0.0148282 0)
(0.99339 -0.0125121 3.36767e-20)
(0.995939 -0.0102423 0)
(0.997815 -0.00798299 9.40253e-20)
(0.999052 -0.00570591 3.01423e-20)
(0.999633 -0.0034292 -5.86685e-20)
(0.999718 -0.00121876 -9.1742e-20)
(0.606693 -0.245853 -3.7011e-19)
(0.714062 -0.18312 -1.50166e-19)
(0.761195 -0.144504 4.00042e-19)
(0.798147 -0.118285 -9.10346e-20)
(0.827954 -0.0992667 -1.15614e-19)
(0.85357 -0.0850377 6.80712e-20)
(0.87593 -0.0741508 -6.1958e-20)
(0.895533 -0.065591 -1.74783e-19)
(0.912715 -0.058657 -1.07883e-19)
(0.927741 -0.0528546 5.07884e-20)
(0.94083 -0.0478287 4.62523e-20)
(0.952171 -0.0433218 8.88292e-20)
(0.96193 -0.0391482 -1.70114e-19)
(0.970253 -0.0351835 1.21894e-19)
(0.977273 -0.0313615 -7.77602e-20)
(0.983111 -0.0276632 7.47947e-20)
(0.987888 -0.0240947 -1.8079e-19)
(0.991715 -0.0206597 2.08855e-19)
(0.994702 -0.0173443 -3.36612e-20)
(0.996953 -0.0141157 0)
(0.998551 -0.0109285 3.06086e-20)
(0.999479 -0.00775731 -1.50414e-19)
(0.999595 -0.00466718 1.74797e-19)
(0.999168 -0.00176078 -1.56265e-19)
(0.0111322 -0.0312274 8.83008e-19)
(0.0673488 -0.0542978 -6.23025e-19)
(0.243614 -0.0516119 -4.5478e-19)
(0.361416 -0.0572262 -4.13445e-20)
(0.528719 -0.0597701 -2.2541e-19)
(0.770963 -0.118609 0)
(0.0633128 -0.0398796 -7.8015e-19)
(0.176949 -0.0655294 5.89352e-19)
(0.366742 -0.0601956 4.47201e-19)
(0.481568 -0.0661773 -2.62493e-19)
(0.636174 -0.0543433 -3.33195e-19)
(0.768713 -0.0892499 5.09867e-20)
(0.0935548 -0.0482395 -1.33992e-18)
(0.235853 -0.0850821 -1.05942e-19)
(0.427883 -0.080715 -3.72435e-19)
(0.542443 -0.0918773 2.48256e-19)
(0.676516 -0.0901235 2.55981e-19)
(0.775971 -0.127049 5.00607e-20)
(0.119192 -0.0532613 2.67357e-18)
(0.280892 -0.104924 -1.08302e-18)
(0.464533 -0.105763 -7.27726e-19)
(0.576493 -0.119384 -1.58908e-19)
(0.692468 -0.125263 -4.38303e-19)
(0.775051 -0.157594 0)
(0.147752 -0.063333 -1.45399e-18)
(0.320848 -0.122901 9.98748e-19)
(0.489424 -0.132114 7.88801e-19)
(0.596969 -0.146953 0)
(0.69806 -0.156377 4.7206e-19)
(0.76965 -0.181288 -3.837e-19)
(0.18022 -0.0841645 -4.9162e-20)
(0.351591 -0.140338 3.1401e-20)
(0.506623 -0.157734 0)
(0.609079 -0.173791 5.14058e-19)
(0.699377 -0.185255 -4.03841e-19)
(0.763135 -0.204197 4.61782e-19)
(0.203574 -0.0956261 2.43005e-20)
(0.374188 -0.156977 2.91887e-20)
(0.517902 -0.182158 4.38122e-20)
(0.615487 -0.199895 -6.29673e-19)
(0.69809 -0.212679 1.05361e-19)
(0.756947 -0.227343 -2.31884e-21)
(0.223601 -0.107604 2.46307e-20)
(0.390264 -0.172554 0)
(0.524395 -0.205459 0)
(0.617767 -0.225505 -6.67858e-20)
(0.695062 -0.239443 5.92938e-19)
(0.751457 -0.251115 -9.10422e-20)
(0.240832 -0.119742 1.67268e-18)
(0.400798 -0.187178 -8.52725e-22)
(0.526873 -0.227813 -4.33512e-20)
(0.616868 -0.250897 -1.30003e-19)
(0.690689 -0.266118 1.07936e-19)
(0.746188 -0.275884 0)
(0.254619 -0.130854 -1.66813e-18)
(0.406371 -0.200984 1.11284e-19)
(0.52583 -0.249411 6.29295e-19)
(0.613298 -0.276301 0)
(0.685184 -0.293242 0)
(0.74096 -0.302166 0)
(0.264418 -0.140373 -4.89755e-20)
(0.407413 -0.214093 8.21762e-20)
(0.521577 -0.270396 -6.16402e-19)
(0.607354 -0.301943 -5.76674e-19)
(0.678571 -0.321305 -1.01035e-19)
(0.735634 -0.330278 -1.71877e-19)
(0.269928 -0.148206 1.60302e-18)
(0.404294 -0.226595 5.41985e-20)
(0.514309 -0.290914 -1.20699e-19)
(0.59915 -0.328002 5.70326e-19)
(0.670789 -0.35061 0)
(0.730089 -0.360533 3.45434e-19)
(0.270917 -0.154453 -3.1869e-18)
(0.397368 -0.238526 0)
(0.504106 -0.31109 7.91399e-20)
(0.588675 -0.354571 -6.42906e-20)
(0.661709 -0.381411 4.08101e-19)
(0.724185 -0.39324 8.31799e-20)
(0.267213 -0.159302 1.58462e-18)
(0.386911 -0.24989 0)
(0.490992 -0.330974 -7.90884e-20)
(0.575823 -0.381704 6.4444e-20)
(0.651125 -0.413909 -1.82874e-21)
(0.717737 -0.428707 -8.23801e-20)
(0.258789 -0.162894 -7.49976e-20)
(0.373098 -0.260651 9.34413e-19)
(0.474952 -0.350523 -7.95793e-20)
(0.560397 -0.409379 3.31243e-21)
(0.638737 -0.44823 5.06249e-20)
(0.710486 -0.467249 -8.15112e-20)
(0.245781 -0.165289 2.51416e-20)
(0.356111 -0.270625 -9.21491e-19)
(0.455953 -0.369541 -4.03137e-20)
(0.542127 -0.437439 5.4687e-19)
(0.624142 -0.484364 4.68202e-20)
(0.702056 -0.509222 -3.77587e-19)
(0.228442 -0.166345 8.38641e-19)
(0.336151 -0.279378 -5.37872e-19)
(0.43395 -0.387597 -2.95134e-19)
(0.520675 -0.465501 -4.58665e-19)
(0.606808 -0.522104 -2.62637e-19)
(0.691919 -0.55493 4.16891e-19)
(0.207338 -0.165545 -7.89647e-19)
(0.313378 -0.286125 4.77105e-19)
(0.40883 -0.403917 3.45762e-19)
(0.495615 -0.492842 2.35275e-19)
(0.585994 -0.560919 -1.82244e-19)
(0.679298 -0.604496 -3.89228e-20)
(0.183794 -0.161666 4.26627e-19)
(0.287855 -0.289524 1.55722e-20)
(0.380436 -0.417113 -2.29129e-20)
(0.466339 -0.518245 -2.74552e-19)
(0.560667 -0.599746 0)
(0.662992 -0.657728 0)
(0.161423 -0.151781 -3.96427e-19)
(0.259418 -0.28736 8.11898e-21)
(0.348367 -0.425124 -1.19571e-20)
(0.431928 -0.539915 0)
(0.529291 -0.636752 0)
(0.641121 -0.71417 0)
(0.121066 -0.130393 -3.04134e-21)
(0.226735 -0.275475 2.61215e-20)
(0.311844 -0.425182 -1.23145e-20)
(0.39142 -0.555381 -4.60337e-21)
(0.489726 -0.669142 -7.06494e-21)
(0.610775 -0.773662 -5.07245e-21)
(0.1009 -0.106864 -2.88977e-21)
(0.191429 -0.249819 -1.61296e-20)
(0.270667 -0.413745 1.07346e-19)
(0.344755 -0.561953 1.48678e-20)
(0.440457 -0.692789 3.48208e-21)
(0.567416 -0.837294 5.32948e-21)
(0.0849958 -0.078943 1.29159e-20)
(0.153513 -0.214855 -9.83093e-21)
(0.226454 -0.384816 -1.17103e-19)
(0.29297 -0.556196 0)
(0.383265 -0.698739 0)
(0.50095 -0.908129 0)
(0.0445598 -0.0220198 -9.19689e-19)
(0.102621 -0.137936 4.22969e-20)
(0.161271 -0.30556 -6.43594e-20)
(0.221769 -0.520723 2.57514e-20)
(0.26742 -0.651329 -2.94371e-19)
(0.401565 -0.996567 0)
(0.752062 -0.262455 4.40566e-20)
(0.763997 -0.199978 1.77244e-20)
(0.788915 -0.162128 -2.6085e-19)
(0.816436 -0.135918 -1.27937e-19)
(0.841559 -0.116573 1.55963e-19)
(0.864415 -0.101913 -1.39527e-19)
(0.88498 -0.0904469 2.50741e-19)
(0.903305 -0.0811701 1.16121e-19)
(0.919515 -0.0734091 1.05505e-19)
(0.933757 -0.0667013 -9.84702e-20)
(0.946184 -0.0607165 6.49082e-23)
(0.956943 -0.0552134 0)
(0.966176 -0.0500164 1.68093e-19)
(0.974013 -0.0450088 -8.18622e-20)
(0.980577 -0.0401325 7.76748e-20)
(0.985983 -0.0353814 -7.47034e-20)
(0.990346 -0.0307768 -1.42551e-19)
(0.993773 -0.0263364 6.8679e-20)
(0.996369 -0.0220542 1.97884e-19)
(0.998246 -0.0178955 -1.27707e-19)
(0.999488 -0.0138075 -6.18361e-20)
(1 -0.00978178 -2.96839e-19)
(0.99947 -0.00596201 5.77688e-20)
(0.998328 -0.0024595 2.58783e-19)
(0.79659 -0.225654 5.79004e-19)
(0.794981 -0.204273 1.82435e-19)
(0.811153 -0.173656 0)
(0.832425 -0.150096 8.84521e-20)
(0.854173 -0.131726 1.49868e-19)
(0.874972 -0.117304 -6.83664e-20)
(0.894135 -0.105632 1.19202e-19)
(0.911421 -0.095863 -2.30503e-21)
(0.926803 -0.0874258 -1.07663e-19)
(0.940344 -0.0799242 -9.85684e-20)
(0.952152 -0.0730712 0)
(0.962346 -0.0666514 0)
(0.97105 -0.0605047 0)
(0.978382 -0.0545235 -1.27621e-21)
(0.984457 -0.0486572 0)
(0.989387 -0.0429088 7.2429e-20)
(0.993283 -0.0373127 -1.40292e-19)
(0.996248 -0.0319013 1.35695e-19)
(0.998386 -0.0266795 -6.56495e-20)
(0.999816 -0.0216127 -2.50933e-19)
(1.00063 -0.0166435 2.42592e-19)
(1.00063 -0.0118011 1.17098e-19)
(0.999268 -0.00735345 -2.27368e-19)
(0.997226 -0.00338677 2.04581e-19)
(0.808718 -0.207388 -3.23635e-19)
(0.812168 -0.204914 -3.79974e-19)
(0.826809 -0.182566 9.29689e-20)
(0.84547 -0.162423 -8.26772e-20)
(0.865459 -0.145588 0)
(0.885017 -0.131714 2.61576e-19)
(0.903241 -0.120022 -1.22212e-19)
(0.919765 -0.109884 1.1023e-19)
(0.934485 -0.100861 -2.06196e-19)
(0.947427 -0.0926388 -9.33173e-20)
(0.958674 -0.084983 1.7859e-19)
(0.968332 -0.0777097 -8.11824e-22)
(0.976513 -0.0706766 2.41885e-21)
(0.983329 -0.0637856 -2.31903e-19)
(0.988891 -0.056991 -2.96001e-19)
(0.99331 -0.0503006 7.14866e-20)
(0.996692 -0.043758 -1.38662e-19)
(0.999139 -0.0374098 3.98043e-19)
(1.00075 -0.0312739 1.26836e-19)
(1.00167 -0.0253175 0)
(1.00198 -0.0194822 0)
(1.00137 -0.0138563 -5.80851e-20)
(0.998994 -0.00887819 3.35067e-19)
(0.995904 -0.0045927 -2.01922e-19)