/*--------------------------------*- C++ -*----------------------------------*  =========                 |
  \      /  F ield         | OpenFOAM: The Open Source CFD Toolbox
   \    /   O peration     | Website:  https://openfoam.org
    \  /    A nd           | Version:  11
     \/     M anipulation  |
\*---------------------------------------------------------------------------*/
FoamFile
{
    format      ascii;
    class       volScalarField;
    object      U;
}
// * * * * * * * * * * * * * * * * * * * * * * * * * * * * * * * * * * * * * //

dimensions      [0 1 -1 0 0 0 0];

internalField   nonuniform List<scalar> 
2880
( 
0.07215307333952095
0.1416750155614934
0.2211818694109762
0.2692249942346727
0.339513396425588
0.44866917958500147
0.1010085710316101
0.1715109823031071
0.2440343635527166
0.2879875357947092
0.3504321537954286
0.4205145321101138
0.11451825829243537
0.18203065158890855
0.24789160622055226
0.29074644365546676
0.3543051953532162
0.4281500955169643
0.12663558770707514
0.18967383624305767
0.24877759946736552
0.2911170300011594
0.35713763953702615
0.43613814244184845
0.13942880935178764
0.19604731459168082
0.2488400725813011
0.29111014902306787
0.3581501370866379
0.4393113276336679
0.15169020944059802
0.2011209866696184
0.24760081071947024
0.29066827877366824
0.3574681250761695
0.4383019412493562
0.1628258370024695
0.2046625221586241
0.2463494906497463
0.289874024920261
0.3554363845151528
0.4342105576166187
0.17177759285353492
0.2070518675422604
0.24535120359430135
0.2888753446603894
0.3531212380322295
0.42892704023361083
0.17921169368634599
0.20868190616959179
0.24415579273992172
0.28767242981960967
0.35044564904351294
0.42337696232522026
0.18503254100599656
0.20989102959700331
0.24292981514515394
0.28684172611909486
0.3486345795803072
0.4194918425882862
0.18912519416377882
0.21094749422608572
0.24347792186506712
0.2870669247115721
0.3482202504114578
0.4177645051000374
0.19130352104808548
0.2121133452657121
0.24520114142219282
0.2887729817374118
0.3491351610415973
0.4169702392155199
0.1915877792401178
0.21290374904439727
0.24755059150239056
0.2919917639328823
0.3518541766720681
0.4187052068755779
0.18990560331062792
0.2133759449414582
0.24996988205171808
0.296362219328519
0.3569249771422733
0.4237654177161399
0.18604668118911707
0.21332910808033798
0.2522747075153824
0.30080215759199547
0.36256322246097605
0.4297395178518641
0.18048057029993705
0.2126450497756659
0.2545506712356226
0.3046586779590194
0.3678868620047498
0.4360260695229644
0.17339595768531796
0.21148579482418262
0.25671202393545556
0.30740355570373384
0.3726113478889659
0.4422002468973968
0.164300363605819
0.20921788432692534
0.25775361180813766
0.30943718757255834
0.3761678367874579
0.4475039586573336
0.15316445005838045
0.2049784928238076
0.2583116604545561
0.3101465809676546
0.3780056232963117
0.45152764275754975
0.1399169939176637
0.19829750158875997
0.2575741385042102
0.30879908567675085
0.3781485899629031
0.45309080514186556
0.12498715196078715
0.1892401523656242
0.2551882892860442
0.30687904242932745
0.37609404318893774
0.4511397515220054
0.11011333888462023
0.17755544693159825
0.2506097848069015
0.30300594951303195
0.37255567141990703
0.44422241406319873
0.09390257992917372
0.16275748682851243
0.2417040707220898
0.29508537215834
0.3693819201181774
0.43399399855295184
0.0640923494894821
0.12958621094939418
0.21534299283480648
0.2692120591842917
0.3619635431915819
0.43375353168798314
0.8236605315230217
0.9058650518065928
0.9468566968283106
0.9709589729177076
0.9869956296456611
0.9982532862216866
1.0093360309704758
1.0240558339779031
1.0404320390004735
1.0568482508982417
1.0721169342713774
1.0856566456974008
1.0955706838956483
1.101733994589583
1.1048757232615103
1.1054677361852325
1.1035911199290058
1.0995040711008313
1.0938837971775524
1.086482410066419
1.0774649387621025
1.065996627052654
1.0519525425668361
1.0361641978700853
0.7254157716279779
0.871107162282051
0.9300879760141951
0.9605606224264319
0.9812915093164474
0.9962794115705768
1.0101723800876865
1.0284376902024681
1.0488493376485033
1.0671380841506188
1.0823636638748584
1.0942983207479713
1.1029515253043054
1.1078432725570813
1.1087059672885513
1.107505361806014
1.104339070891648
1.0995628313661578
1.0927793782247384
1.0848615808924482
1.0753528354438184
1.0636498257066884
1.0491181208640132
1.0332730405147128
0.6590235819584075
0.8221309050241844
0.8971443518993668
0.9406024710008988
0.9680998993217472
0.9896028101029131
1.0093339479011223
1.0329857555376436
1.0556202052608057
1.0756749176944533
1.0914949468992392
1.1017055986685473
1.107843621633763
1.1100612981152305
1.110149843812647
1.1077408020185946
1.1034754357342338
1.0977497236147897
1.0903255275229373
1.0818485185680538
1.0717758287635433
1.0596599905108148
1.0453480742509604
1.0291289316884558
0.6178695347859595
0.7707861471227571
0.8568843621406742
0.9105756145432837
0.9471177791718888
0.9767065281224723
1.0068426455723327
1.0352935345400627
1.0601831559863168
1.080919367653201
1.0961385551358653
1.1050664779435604
1.109133248855608
1.110056215009548
1.1086161135582666
1.1053151564141173
1.099910410687476
1.093781148235357
1.0861068331644965
1.0772020859443678
1.0666870286260155
1.05499870108053
1.0402385242972265
1.0245178471954397
0.5895554947214647
0.7267295696793982
0.8168465322175898
0.8779867529199749
0.9221942588015701
0.960774413505161
0.9989073799666697
1.0332152683297016
1.0614241908629622
1.0818834212793191
1.0956575874783994
1.1034767375030734
1.1063724549314737
1.1065254395901163
1.1043809153767967
1.1004547006381606
1.0951296267427013
1.0887324304340775
1.0809259028816993
1.0719580829745359
1.061933385472265
1.050412496207262
1.0356714517118908
1.0199827727918367
0.5672147964695785
0.6908025007900811
0.7801217563417425
0.8468237235203492
0.8984130041798841
0.9456292415522158
0.9904965875071309
1.0289425583603073
1.0586345748044024
1.0790577857107497
1.091029873053264
1.0973229577255905
1.1000188154439374
1.0994537824514874
1.0972872418209378
1.0933062841784944
1.0882780446959204
1.082096144583838
1.0743840837668672
1.0655960565419444
1.0559972579664336
1.0446712032717649
1.030317243735725
1.0150325662000799
0.5480304079703239
0.6613249942861329
0.7495612859011308
0.8195445147479005
0.8788057304622197
0.9347351544579513
0.9838415766199592
1.0240540841568184
1.0535297986111076
1.0723891756527455
1.0836075621405374
1.0891375244030828
1.0915040883413445
1.091218982108194
1.0893451638438054
1.0856055864123066
1.080937126314088
1.075009237296798
1.0678308222439792
1.0597353488209067
1.0506605470672858
1.0396178534334815
1.0257025594006937
1.011913881015428
0.5318004289952826
0.6371685069979517
0.7247242764173998
0.7983242222168246
0.8642678130667434
0.9265151996019327
0.9790988865819803
1.0197168592635177
1.0474398532256408
1.0642041011365833
1.0748540937431472
1.0798932464468733
1.0823360210811608
1.0822027202545312
1.080732334876215
1.0774070644119278
1.073321468696193
1.0682108906407983
1.0617007624339965
1.0539130085063226
1.045649307838415
1.035421675225826
1.0225661575998441
1.009031662173582
0.5187137272585672
0.6192088539306055
0.7071565967227129
0.7827849795290918
0.8561999572602738
0.9226967633471322
0.9767116105201147
1.0155587808632744
1.040362776558925
1.056039631510356
1.065220155307127
1.0701401997904063
1.072711709125814
1.072966698191567
1.0717480989059331
1.069142243806887
1.065921946037583
1.0609495308178394
1.0553804813944412
1.0489160709242866
1.0412135042024864
1.03225847189723
1.0201842110235848
1.0083156028354625
0.5100821884933452
0.6071275395042944
0.6957226544329131
0.7763077260289131
0.8552885436583694
0.9232392895731387
0.9753884416203439
1.0104276139885582
1.0328184857888913
1.0467193649105264
1.0556834899965517
1.060382952848746
1.0631366519494372
1.064011966628927
1.0629249620721328
1.0611087207405177
1.0584788195005728
1.0546877521584002
1.050356812325794
1.0447071961664178
1.038576217019418
1.0308269355789383
1.0205310828114262
1.0098662849850037
0.5047438685392214
0.6019088136030963
0.6912589105308828
0.777232718987638
0.8595128992506557
0.9270740497740482
0.9750937351270076
1.0061266163402856
1.0261232931454938
1.0389011496915963
1.046943345500264
1.0520317693105963
1.0547395930026393
1.055769635136434
1.0554675110776468
1.0543120857817032
1.0521941440587195
1.0494894530838947
1.04596251835616
1.0422919796083798
1.0374764206025482
1.0313124128323474
1.0226737960903673
1.013163075379497
0.5028830783437271
0.601490485533532
0.6929996633908323
0.78587936015315
0.869615525945833
0.9333659612539839
0.9758851187249383
1.0030100083044418
1.020684512457421
1.0322654843070795
1.0394976843390837
1.0446343236382307
1.0476474476044653
1.0491839245268304
1.049300788965583
1.048416080617324
1.0471053457062425
1.0456022878571147
1.0440084016107745
1.04181146280814
1.0388136364113039
1.0342214129941643
1.0266164589556008
1.0179219188398676
0.5049492389981441
0.604756220919784
0.7028608774964648
0.8011743063950367
0.8834026257923654
0.9408412673560265
0.9778718315453497
1.0009980824476843
1.0163925884995424
1.0272539513853691
1.034469833924938
1.0393521715526468
1.0427696202361287
1.0439862820441346
1.0441800944716095
1.0444746905955982
1.0449480218841156
1.044934132278476
1.0447984439030757
1.0441337245351923
1.0419165060330882
1.0383537787511148
1.0316248872205314
1.0236511280713687
0.5100812426922158
0.6120105186447615
0.7181945909441672
0.8204337776562781
0.8977618733142634
0.948064760478378
0.9797285824464939
0.9999830482763086
1.0139582095994253
1.0243498094256511
1.03082284077295
1.0348745060638176
1.0382433201965635
1.04103738280011
1.0429382747971088
1.0445286212665084
1.045233254984558
1.046035493708091
1.0471941526296686
1.047696184443597
1.0468045612336656
1.0437321329377978
1.0374241115212732
1.0293887322560027
0.5185197866982018
0.6245867113150473
0.7398604969114186
0.842240862353701
0.9117967439850073
0.954991167872797
0.9818517341304764
1.000534228498951
1.0132007906157263
1.021645573169299
1.0285212914033564
1.0334568966385123
1.0373302680073027
1.0394668357815084
1.0416287130988722
1.04478650394192
1.0477372746224474
1.0504207619352182
1.051957338269165
1.0526134338690232
1.0515666741691219
1.0487431474194884
1.0426436540905561
1.0344567637273776
0.5293064533850439
0.6448351959362701
0.7676675443166004
0.8640025892710834
0.9249048222677845
0.9615824008986265
0.985286440142199
1.000892227037606
1.0126260108309342
1.0214532149558848
1.0272329087191878
1.031725505087105
1.035642481116059
1.039856776610726
1.044321870046388
1.0481705387943037
1.0512062866742566
1.0544019194743621
1.0569376563774997
1.0581531291557964
1.057367398702011
1.0542694492375029
1.0473012856260417
1.0387005077801403
0.5415591318277637
0.6712712785857432
0.7993605310389811
0.8864531204653273
0.9374833149429986
0.9678548590680279
0.9886942654904847
1.0031888289384443
1.0132246240699525
1.0206227184912422
1.0265818996679257
1.0320647784846582
1.0370054476632162
1.0424728369407952
1.0477067749922575
1.0529692138960862
1.0573760430259098
1.060332518724211
1.062399276000539
1.0635073486495585
1.0620993719109273
1.0583299044562327
1.0509876551400161
1.041532259630739
0.5551493895317858
0.7042850365926338
0.8325572167294109
0.9065874784303918
0.948064376308864
0.974533127437457
0.9920495001373785
1.0046569242683416
1.0141914037107698
1.021566579257114
1.0280554839612748
1.0341701236241299
1.0409079119489453
1.0470687944851735
1.0527804219822838
1.0578522696664447
1.0625513729561353
1.0662005477757863
1.0682861289056473
1.0680826338732206
1.0663370580941247
1.0614442939607907
1.0528226183944125
1.042328512156827
0.5727543679475255
0.7448082254502025
0.8625813559622052
0.9237831350751485
0.9580024505712449
0.9799211015999733
0.9950798647537555
1.0063571473350286
1.0150031253122982
1.0229264417569113
1.0293284460643248
1.0369074746552676
1.0442821544894088
1.0521090348218454
1.0586837798406654
1.064443202244279
1.0681198459939913
1.0717222488051603
1.0732352300876364
1.0727525896925205
1.069166846956562
1.0633765760513583
1.053806885713995
1.041947805310353
0.5960880126831902
0.7887586861398378
0.8892706883781151
0.9383840765554404
0.9661700864963266
0.984463706393509
0.9973811144258328
1.0077231849980002
1.0159167603743857
1.0236704932661835
1.0327730091389897
1.0421896798778196
1.0506275696045673
1.0583290696615373
1.0646843317771784
1.070425197349205
1.0744168064585278
1.0770331284657062
1.0773995590491585
1.0757479569332615
1.071206527298842
1.0640228490133423
1.0539363290576529
1.0412799331828977
0.6299981084957103
0.8313078783148334
0.9119165700825761
0.9506435827052043
0.9728144221318525
0.9882560503304789
0.9996093082727687
1.0089021399492044
1.0180458937719423
1.0280016568022001
1.0376567446188194
1.0475424261305428
1.057003168297776
1.0651025744144154
1.0716793266606448
1.0763715920962438
1.0799761948674307
1.0815480876637227
1.0808377152247028
1.0778711300566326
1.0720759011935757
1.0638571431238202
1.0528524619164337
1.0392653875738351
0.682201016868954
0.8670593953032553
0.9292997021612723
0.959494432606006
0.9777650790196419
0.9907025937981909
1.001130813137429
1.0107717366014102
1.020405316299677
1.0309572496183739
1.0431986805683802
1.0546382809393207
1.0639019386165072
1.0716650836943629
1.078179344191588
1.0823851809629699
1.0849623814899552
1.085285105382338
1.0832912542214492
1.0788831482877506
1.0725954945560854
1.0631925232474773
1.0518790168844534
1.037926739324437
0.7529437947364104
0.8938795632133885
0.9404671129935399
0.9650521715515377
0.9806791718702347
0.9925786922407659
1.0023376288395045
1.012093546469434
1.0240490391261419
1.0369853642257632
1.0497547184268023
1.0617180445132786
1.0719006481687123
1.0794920702381214
1.0845102334099985
1.087852733336314
1.0893129541234685
1.087910081511855
1.0850281255656575
1.0794571996190023
1.0724313099414629
1.0627299459894888
1.050304675547163
1.0357564262296175
0.8311748942422187
0.9087687876493402
0.9443541698231335
0.9669987210247318
0.9816546050572789
0.9932913150692819
1.0028928643111712
1.015113471293598
1.0290471247301365
1.0435242380383556
1.0570880478884623
1.0689988292925725
1.0789728942656385
1.0859555664275629
1.0904486200344023
1.092780568179835
1.0925088494684871
1.0901395949452843
1.085970208398156
1.0796850056862732
1.0719466897606011
1.0617991111787888
1.0486726626597849
1.0344464591395994
0.07234330182394598
0.14497006016473302
0.22678672808224334
0.2763439809007942
0.34600580022948013
0.45300477046184223
0.10329966190377558
0.1765559152563613
0.25036601986507906
0.2942385976886126
0.3554560580801857
0.4239274821415472
0.1177588867132607
0.18752247387947513
0.25433845573204705
0.2967096541530219
0.3597296108335157
0.43208086099575926
0.13037424876916676
0.19554884149599583
0.25497573010506636
0.29694913496700004
0.3616990914645842
0.44003063008451004
0.1435479440392314
0.20194233818557916
0.25434783800738153
0.29655180583337276
0.3621156165563437
0.4425108841282781
0.15628022515936518
0.20670629855088882
0.2536011008946637
0.29579541708620255
0.36141399707934707
0.44109817155936015
0.1680822678846014
0.2099841550351337
0.2520616231120592
0.29466562901956617
0.35939008723456695
0.4370200206295546
0.1777652998595747
0.2128070107106086
0.2502871466486402
0.2931343643798444
0.3566483103424305
0.4313327594513038
0.185620454650197
0.21486886770438932
0.24953498693339687
0.2917419644136983
0.353730670792724
0.4253076599522049
0.1917519713038064
0.21638701024957951
0.24943653872372334
0.29128915834115576
0.3516894357195655
0.42103851247707635
0.19613101352764442
0.21757199700067928
0.2498826466139114
0.2914476486469788
0.3511091256619627
0.41947146023553866
0.19827792796119645
0.21848667450024523
0.251191093920391
0.2926785231309311
0.3523420175085518
0.4196994555704268
0.19838706024835895
0.21914256380592695
0.25312180312239313
0.2959379964166298
0.3557190959452449
0.42172257013755343
0.1964626789722485
0.2194635626632847
0.2555478981909199
0.30032031620470895
0.36051025322038427
0.42618854661766076
0.1923854191503368
0.21931375341350393
0.25798819541422424
0.304814462165648
0.3659707276713395
0.4319944482580956
0.18651255566307018
0.21850026806865433
0.26004210196095956
0.30893137598795756
0.3712874686219098
0.43822815421379485
0.17908185497059284
0.21695338426574828
0.2614004686496532
0.3121417475919876
0.375886602729413
0.4441704581941907
0.16959939905251734
0.21417606974014447
0.262844018641701
0.31403676566323196
0.37957266430696013
0.44942177959347857
0.15806112135094672
0.209922040857853
0.26305890434267426
0.3142685546323307
0.3816556339791323
0.4534430463581997
0.1444239571191245
0.20343166418236638
0.2622676309160363
0.31363511907853686
0.38173416047179076
0.45489825956440727
0.12846738485589526
0.19392868912970398
0.25980986245042686
0.31114329370360533
0.379859200960584
0.4532426098731476
0.11286142595246786
0.18182204304738533
0.2546731233140091
0.3070560749513674
0.37629818776965374
0.44702390156626887
0.09584824865838192
0.16662598755073663
0.24558139084708153
0.2988796664251184
0.37242915658615877
0.43785227919015407
0.06400017415648182
0.13208317588693652
0.2178412747213557
0.2720418887507651
0.3636746623791878
0.43748400599131304
0.8183564909806327
0.9010618714430628
0.9398623406642763
0.9642637511238202
0.979599688575822
0.9921176007540307
1.0045560528041897
1.0179828591621358
1.0343546634776708
1.050924997953282
1.0653501309041546
1.0772627686843188
1.0857966349370332
1.0921492698969641
1.095396212737987
1.0963658930389553
1.0949956009876087
1.091391756541469
1.0864049873938213
1.0794181978181272
1.0708943870398107
1.0605835358770659
1.047293188991648
1.0324395935393025
0.7219633447140738
0.8669068589357171
0.923880455427872
0.9549242976787391
0.9741629099717438
0.9891432724858881
1.0042963469190596
1.0227403680906137
1.0409145810740452
1.0579192611405321
1.073401334496585
1.0842640767265164
1.0925977172773758
1.0972571813775798
1.0990786643231478
1.0986254811295841
1.0962030135630922
1.0915628201022312
1.0855816156041578
1.0784885004014386
1.069522580884927
1.0586480992395486
1.0455089605781858
1.0305847789577356
0.6585206612411212
0.8196044771351706
0.8938552772119177
0.9357139604230539
0.9624203470314701
0.9820434521417781
1.0035103625928787
1.025741068654463
1.0465598244219398
1.0649052220499509
1.0796120244495233
1.0900567105158683
1.0967996545908045
1.1001911533777804
1.100799694718469
1.0993423765617896
1.0958541532688357
1.0907996338218495
1.084437353243591
1.0771437154814534
1.0679608041482278
1.0568127402041103
1.0434778398908675
1.0286113980904465
0.6186478958086664
0.7716823534726831
0.8562117767485926
0.9083339870426635
0.9432977238403303
0.9723115219109276
0.9992832781819693
1.0260094508869066
1.0499184506207169
1.0695947386788138
1.083770667672816
1.093221965181643
1.0987293508560245
1.1007906928136506
1.1004253749780817
1.0979419099206666
1.094004450713395
1.0888510716042474
1.0823347465688193
1.0743183997148065
1.0646991331830717
1.0541602989145622
1.0404014164836817
1.0258440917532852
0.5909617701647186
0.7295138417038611
0.8187960991009839
0.8782861685838186
0.9217303321071827
0.957883396640253
0.9929549217668324
1.0240195939561578
1.050193767811725
1.0702108350338049
1.0843125147354828
1.0926570074797188
1.096843250314468
1.098103414223485
1.0971513960739157
1.0942550850167174
1.0899506951085574
1.0845951851513689
1.078233462107161
1.0701826836901782
1.0610862802123295
1.0503453451527285
1.0367645532639156
1.0226662226612133
0.56872400038819
0.69345140515842
0.7843867108766472
0.8501074957080473
0.9000605430207671
0.9447054441447162
0.9854174041097513
1.02039646459826
1.048252648619936
1.0682584507402888
1.0811568593657441
1.0884652866384052
1.0917621241217934
1.0927425469184213
1.0914389366987356
1.0886855395615327
1.0846762672642207
1.079706139688357
1.0733705498706252
1.065720012940818
1.0569468149420327
1.047028975426654
1.033421978682156
1.0197974483168681
0.5498730218536143
0.6646366569330411
0.7547035910034233
0.8251076601091263
0.8820453345872322
0.9335428883474234
0.9792965443071541
1.0168989839556832
1.0447987803947105
1.0635157457546573
1.075118551533195
1.0818714051475884
1.08510631200534
1.085609587079944
1.0845009322807213
1.0821340994600135
1.0786026535035442
1.0734070610537767
1.0674597063361482
1.0606770280085969
1.0524347936740706
1.0423564914988643
1.0295612716246387
1.0165784274366152
0.5336354921766485
0.6411795166131353
0.7307732240902315
0.8047150457696431
0.8680878278044302
0.9266762438802124
0.9756215944926958
1.0140538097212022
1.0411736362353594
1.0580922789271259
1.067973361968348
1.0742040759729514
1.0770622040864541
1.0778617107892117
1.076945909413928
1.0748137657314032
1.0715657992793395
1.0674401284131283
1.0619797474390142
1.055704456041485
1.0480979829086845
1.0391086821987852
1.0267893143829872
1.0138847070281847
0.5200768748815934
0.6223937128381701
0.7127664309521203
0.7896956850071547
0.8602820880018964
0.9237555376072789
0.9746435755923372
1.0121262612629243
1.0363272571078983
1.0515812912974747
1.0609595416779802
1.0665318854996448
1.0692596890910138
1.070090517397968
1.0700966884014165
1.0685314229854024
1.0662125090579293
1.0622149476896754
1.0575109515368817
1.0512614569660754
1.0444069625013848
1.0357029473218604
1.0243697605260143
1.0123577478153611
0.5110814479886271
0.6104689862392533
0.7010915954811922
0.781352872388382
0.8587352247914288
0.9256118236685239
0.9762899895200484
1.0107202461475973
1.032220249663177
1.0459914392427287
1.0548031887470062
1.060226791921992
1.0628803944039167
1.063967319910029
1.0644555391068762
1.0632489395201248
1.060805076100978
1.0575569836881111
1.0534933471732648
1.0481078817154854
1.0415241847567167
1.0340085218346562
1.0233164911334593
1.012023575787846
0.5068142484922377
0.6054453068646576
0.6959663009433831
0.782027148250238
0.863907293320899
0.9309528536020902
0.9783128418202571
1.0092312102624015
1.0287286734956822
1.0413194068950862
1.0493621839636653
1.0545662708858412
1.0579131725069832
1.0594019606567364
1.0593727949176095
1.0590035220803997
1.0573488151363097
1.054554586861379
1.051152075515509
1.0466212010439366
1.0410339372491244
1.0341978368775275
1.0244293175751826
1.0137427131099066
0.5054442433651656
0.6047510224975418
0.6982425594577426
0.7913534053747082
0.8748071559965244
0.9384610703644569
0.9811248128239753
1.008512784012753
1.026229461090322
1.0379011836213787
1.0457484365265481
1.0510673735541
1.0543181947836981
1.0561619408079712
1.0572419434497642
1.056528970798969
1.055118203952032
1.0530776618191389
1.0502044482466224
1.0467671394271818
1.0420477668226462
1.0359606258125291
1.026839477828856
1.0164376831701265
0.5062251972180096
0.607433293361091
0.706229399840807
0.8059071279707669
0.8882791982037425
0.947132803082415
0.9845890142197719
1.0084413496111744
1.0247043317103237
1.0364824441428482
1.0439045429904408
1.0493390075708389
1.0527219786970432
1.055076713490703
1.056144315686132
1.0562707645656852
1.054892327634132
1.0530409259308733
1.051430052695701
1.0490807035755565
1.0451200151662394
1.0394705576377048
1.0307247977348752
1.0208248439682213
0.5118912463005245
0.6139293768819746
0.7205306825380924
0.8239019440379692
0.9025861341448544
0.9544754114080231
0.9873332216280758
1.0092799302271203
1.024653616417953
1.0352603675304235
1.0430734901472571
1.0487709115281663
1.052994073016724
1.0554360867865438
1.0563703784450187
1.0566677108491898
1.0567558794902099
1.0566863542146216
1.055388520453316
1.053201852385814
1.0496854376035234
1.0444125715978918
1.0355714168400245
1.0252223057992256
0.5203005580648434
0.6259145473113058
0.7405879288080083
0.843552008143393
0.915403031181823
0.9603670431453389
0.9898902052513994
1.0097419007747979
1.0242917072873425
1.0353379663208815
1.0436052214909022
1.049254899973042
1.0533046489624804
1.0566917258604722
1.0586714547702845
1.0601777663148966
1.0613726819787515
1.0613393019614914
1.060718279401633
1.0589413972021042
1.0556246186567744
1.0499597521322852
1.0410466294501226
1.0304679842834175
0.5303500277869551
0.6445127749885884
0.7668120028632575
0.8645632408327196
0.9259665858685668
0.9655523278257693
0.9912880902311907
1.0102257440648887
1.02439255049925
1.0352216970304051
1.043603108524779
1.0506516268786839
1.0558666603761817
1.0593611411009638
1.0622262408022878
1.0644985194358434
1.0666137686592028
1.0677556304198272
1.0671083365444665
1.0652393010100458
1.0613686376043583
1.055628405250177
1.046514646355785
1.0353554108659133
0.5415669314151188
0.6701012927494023
0.7979787686607057
0.8841238408117952
0.936221019437309
0.9693479749189908
0.9929965753085078
1.0109923130315661
1.0246817822810834
1.0361633829450403
1.045112648832995
1.052014953170818
1.057736237183927
1.0626795926334116
1.0675634212161247
1.0706113907186698
1.0727719138351255
1.0739651121834364
1.0737066842760967
1.0717201662228193
1.0677528825610438
1.0610818281657546
1.0513675677957377
1.0396737720087053
0.5549174338435051
0.702903739405795
0.8291474396227502
0.9026859148017025
0.9460503977652164
0.9739793357641784
0.9944109352581463
1.0119125881745972
1.025505674010285
1.036671703856173
1.046501270809309
1.0543259667971026
1.061418104695513
1.0673997301531237
1.072744261430197
1.0768687124704477
1.0798714774250413
1.080796021410009
1.08012481588722
1.0780474244958682
1.0730264168864814
1.066191226168567
1.0557751791757235
1.043171413109831
0.5722930707220689
0.7425118671021727
0.858368163241466
0.9196138077053669
0.9546136162483698
0.9790701831462736
0.9970727825347729
1.0127346406994127
1.026447816570131
1.037986433536674
1.048191435529061
1.0572502601265483
1.0659715191282786
1.0731697276398187
1.078438504576465
1.0821469059643334
1.085894421404738
1.0867473939605117
1.0859636673350712
1.0831967872662334
1.07786646530119
1.0703081194585322
1.058862101696459
1.0453837649068074
0.5955985550931528
0.7861630470307472
0.8849793885714677
0.9339230927769855
0.9632246968418646
0.9839966830225254
1.0011971851530346
1.0156119864294615
1.0281982831563932
1.0402554894379683
1.0511424155191602
1.0612822353975917
1.0699216912159975
1.0783279710665779
1.0841523839751923
1.0884686154227294
1.090739341191487
1.0918993093431246
1.0903707998508798
1.0873248671328015
1.0812203960408908
1.0727405018838891
1.0608864752074405
1.047188883436908
0.6296876365460621
0.8288132310296151
0.9077236290754582
0.9459118958569925
0.9711498019713543
0.9896759282692682
1.0055120149583228
1.0194031248962514
1.0316842295518043
1.0421966768379565
1.0547237430319754
1.0657834568992088
1.0753505858466446
1.0825075784793392
1.0887209944193141
1.0933897226515825
1.0955411631076077
1.0956060662190976
1.0937502982655924
1.0893593213836286
1.0828587011169275
1.073888613549348
1.0618411303796866
1.0470548260790538
0.6824406374728986
0.8654075377374085
0.9253749523859159
0.9567820094864319
0.9779822335544511
0.9955593566057165
1.0100823555415483
1.0236471725916663
1.0362919445350873
1.048382973746421
1.0595804986629953
1.0701893455149587
1.0803428242520987
1.0880503025512598
1.0934357023174688
1.0972281536766761
1.098640490230642
1.0980402663291082
1.0952417867759223
1.0902808333520675
1.0832120339602818
1.0736501943329697
1.0608545910981557
1.0462445199309367
0.7536528167386586
0.8922431504250887
0.9374741672702298
0.9646528050576727
0.9841566043454822
1.0011744487331473
1.0157400490414175
1.0283605273431098
1.0408738450659258
1.0539731320101582
1.0661609231425158
1.0761800922761504
1.0848703877051065
1.0923774231606027
1.0975365391331422
1.100048733859355
1.1005097565481097
1.099365111532982
1.0955632279447292
1.089803965770083
1.082278880875231
1.0722475545154133
1.0594148137556096
1.0442862303529343
0.8310124363154607
0.9060970778131671
0.9436155937912291
0.9695463840026688
0.9897809058248657
1.0056584590920479
1.0206165105077203
1.0334489250371022
1.0471892674266186
1.0604962337668822
1.0729067260615863
1.083193138155353
1.0905898777347076
1.0962029035305259
1.1001091664672782
1.1018266103782524
1.101369740140122
1.0989026692185981
1.094518403148704
1.0882778964992144
1.0801497257054486
1.0698955864849895
1.0566118963539166
1.0408045388241496
0.07568178347447274
0.15352522344082256
0.23777361952611428
0.2864850441223181
0.3553667111181774
0.45522083261126534
0.1073030368965513
0.18541636902263137
0.2598765227461399
0.30354170725468815
0.36338798816015627
0.42704675381906826
0.12296589722225292
0.19602582379619474
0.2624820361306955
0.3042610908955851
0.36446492263641145
0.43317383406928517
0.13679405742996448
0.2033675914506155
0.2622812736057095
0.30243588421448636
0.36511963196936614
0.4398890717906936
0.15073601445950882
0.20947473848116618
0.2609490061064039
0.3007952146296597
0.3643166758531431
0.44210670380197115
0.16404473316563187
0.21417568778438026
0.25859308896627936
0.29873541425122146
0.3621093741217454
0.44010831565016917
0.17586834898567924
0.2172287509885077
0.2564735260241777
0.2964473465789419
0.3587533087579118
0.4350328425930627
0.18567865779669065
0.21915801436917234
0.25453054263766234
0.2942708829493947
0.3549630342267578
0.42857215173123625
0.19383216117217095
0.22040778030133099
0.252479806967603
0.2919939196024669
0.35117437521964556
0.42173140858627206
0.20022510997109408
0.221450991808436
0.2506677259286955
0.2902454710817826
0.34782543416954065
0.41650319802493063
0.20469865677209906
0.22234316199263243
0.25093340949430754
0.28980090069559983
0.346705172969283
0.41492315689864634
0.20704006142533765
0.22331567964468793
0.2522284274696678
0.2910903424070052
0.3473581727848471
0.4150443357479923
0.20741424602134156
0.22398638581704153
0.25429066559388047
0.2943797379615471
0.35093390363497656
0.41851554996237306
0.20544251315270937
0.22434291725066488
0.2566977403605911
0.29905298523073404
0.3571350279556458
0.42480033930286876
0.20118398004776097
0.2242861967356758
0.2593825145771728
0.30401087911782304
0.3636274095793662
0.4323026411255661
0.1949665967178924
0.22376582367417897
0.2621953776152455
0.30856890564361467
0.3700941777411669
0.44010809878146484
0.1869820482925557
0.2226644317248864
0.2648141837570303
0.3123551464832233
0.37588214790718444
0.44743594521060226
0.1770509092052364
0.22055793728766232
0.26659422132114463
0.3154774988411275
0.3804481388197909