/*--------------------------------*- C++ -*----------------------------------*\
  =========                 |
  \\      /  F ield         | OpenFOAM: The Open Source CFD Toolbox
   \\    /   O peration     | Website:  https://openfoam.org
    \\  /    A nd           | Version:  11
     \\/     M anipulation  |
\*---------------------------------------------------------------------------*/
FoamFile
{
    format      ascii;
    class       volScalarField;
    location    "0.38";
    object      k;
}
// * * * * * * * * * * * * * * * * * * * * * * * * * * * * * * * * * * * * * //

dimensions      [0 2 -2 0 0 0 0];

internalField   nonuniform List<scalar> 
2880
(
0.00405969
0.00937852
0.0183571
0.0280857
0.0365895
0.0490902
0.0164348
0.0258498
0.0384191
0.0488966
0.0574102
0.0664403
0.0204249
0.0338328
0.0485204
0.0600521
0.0694636
0.0783602
0.0224868
0.0392515
0.0554151
0.0678576
0.0781368
0.0875865
0.0239581
0.0436173
0.0608513
0.0740467
0.0850853
0.0951551
0.0248519
0.0474443
0.0653999
0.0792082
0.090892
0.101523
0.0252974
0.0509221
0.0692759
0.0835784
0.0957954
0.106884
0.0265251
0.0539365
0.072553
0.0872614
0.0999071
0.111335
0.0276894
0.0564506
0.0752612
0.0903098
0.103291
0.114939
0.0286485
0.0584482
0.0774168
0.0927569
0.105996
0.117762
0.0293568
0.0599243
0.0790321
0.0946292
0.10807
0.119881
0.0298137
0.0608728
0.0801161
0.0959494
0.109562
0.121387
0.0299836
0.0612944
0.0806718
0.0967361
0.110521
0.122382
0.0298514
0.0611885
0.080694
0.0969983
0.110997
0.122973
0.0293971
0.0605432
0.0801698
0.0967392
0.111026
0.123267
0.0286258
0.0593348
0.079069
0.0959379
0.11063
0.123359
0.0275531
0.0575244
0.0773424
0.0945485
0.109801
0.123328
0.0262101
0.0550504
0.0749126
0.0924856
0.108487
0.123225
0.025025
0.0518139
0.0716593
0.0896032
0.106564
0.123055
0.0242226
0.0477304
0.0673902
0.0856562
0.103791
0.12275
0.0228072
0.0427266
0.0617669
0.0802199
0.0997189
0.122113
0.0207037
0.0362047
0.0540805
0.0724839
0.093479
0.120687
0.0165781
0.0265576
0.0424465
0.0605707
0.083232
0.117461
0.00403583
0.00942099
0.0215047
0.0394009
0.0651035
0.110614
0.125618
0.152711
0.15027
0.137569
0.119759
0.102134
0.0860228
0.0720668
0.0605278
0.0514279
0.0446051
0.0397602
0.0365274
0.0345384
0.0334907
0.0331662
0.0332515
0.0336402
0.034474
0.0356438
0.0371096
0.0388386
0.0408163
0.0432386
0.100026
0.132029
0.139237
0.13594
0.125329
0.111153
0.0968776
0.0834957
0.0715815
0.0616559
0.0537831
0.0477982
0.0434654
0.0405032
0.0386405
0.0376445
0.0373153
0.0374039
0.0377756
0.0386109
0.0398175
0.0412724
0.0429748
0.045248
0.0974674
0.122799
0.13562
0.137642
0.134714
0.126761
0.116433
0.10532
0.094274
0.0838806
0.0748005
0.0670743
0.0607062
0.0556335
0.0517448
0.0489219
0.0470107
0.0457571
0.0450803
0.0449918
0.0452013
0.0456981
0.0466909
0.0485184
0.102397
0.122758
0.137835
0.146323
0.150532
0.150047
0.147404
0.142119
0.135742
0.128751
0.121097
0.113051
0.104957
0.0970675
0.0896082
0.0828234
0.0767482
0.0713863
0.0668311
0.0630909
0.0601311
0.0579786
0.056752
0.0564952
0.108665
0.126603
0.143075
0.156469
0.166716
0.173786
0.178493
0.18094
0.181747
0.181492
0.18025
0.177329
0.172906
0.167453
0.160773
0.152741
0.14361
0.13374
0.123511
0.113298
0.10357
0.094637
0.0871115
0.080192
0.114692
0.131495
0.148384
0.164197
0.178293
0.190431
0.200717
0.209225
0.216218
0.221786
0.225792
0.228051
0.228559
0.227717
0.225364
0.220817
0.214208
0.205852
0.195909
0.18457
0.172128
0.158836
0.145739
0.131702
0.120004
0.136092
0.152744
0.169248
0.184977
0.199529
0.212723
0.224456
0.234682
0.243324
0.250268
0.255428
0.258766
0.260224
0.2599
0.258145
0.254429
0.248643
0.241328
0.232582
0.222538
0.211368
0.199675
0.188169
0.124435
0.139883
0.15584
0.171908
0.187568
0.202433
0.216185
0.228595
0.239497
0.248754
0.256263
0.261959
0.265817
0.267846
0.268105
0.266971
0.264192
0.259651
0.2538
0.246829
0.239043
0.231068
0.223685
0.217867
0.127949
0.142696
0.157624
0.17253
0.187069
0.200854
0.213564
0.224943
0.234804
0.243017
0.249518
0.254298
0.257407
0.258942
0.259037
0.257978
0.255699
0.252302
0.248036
0.243085
0.237716
0.232386
0.227825
0.224466
0.13059
0.144549
0.158223
0.17156
0.184299
0.196136
0.206787
0.216033
0.223724
0.229788
0.234231
0.237139
0.238675
0.239046
0.238496
0.237242
0.235428
0.233206
0.230715
0.228083
0.225371
0.22292
0.221004
0.219286
0.132461
0.145588
0.157926
0.169502
0.180154
0.189663
0.197824
0.2045
0.209631
0.213246
0.215468
0.216497
0.216651
0.216222
0.215505
0.214728
0.214148
0.213858
0.213834
0.214093
0.214713
0.215464
0.215885
0.215253
0.133709
0.146044
0.157101
0.166974
0.175588
0.182828
0.188599
0.192881
0.195744
0.197313
0.197852
0.197693
0.197183
0.196704
0.196615
0.197227
0.198671
0.200916
0.203618
0.206842
0.210357
0.213747
0.21646
0.218647
0.134512
0.146206
0.156204
0.16465
0.171575
0.176973
0.180878
0.183385
0.18468
0.185123
0.185119
0.185052
0.18526
0.18597
0.187266
0.189117
0.191468
0.194516
0.19815
0.202207
0.206507
0.21075
0.214849
0.219888
0.13507
0.146396
0.155709
0.163226
0.169068
0.173359
0.176271
0.178042
0.179014
0.179573
0.180073
0.180814
0.181968
0.183552
0.185446
0.187432
0.189264
0.190774
0.192228
0.193425
0.19427
0.194998
0.196712
0.202124
0.135592
0.146945
0.156068
0.16327
0.168782
0.172832
0.175692
0.177684
0.179174
0.180533
0.182043
0.183832
0.185833
0.187793
0.189336
0.190017
0.189552
0.187761
0.184715
0.18056
0.175475
0.169909
0.165578
0.166655
0.136292
0.148183
0.157716
0.165316
0.17131
0.176017
0.179765
0.182899
0.185738
0.188524
0.191337
0.194049
0.196323
0.197707
0.197733
0.195726
0.191094
0.184952
0.177134
0.168086
0.158347
0.148462
0.139393
0.137228
0.137386
0.150431
0.161035
0.169759
0.17702
0.18318
0.188558
0.193419
0.19793
0.202101
0.205741
0.20848
0.209815
0.209204
0.205518
0.198662
0.190424
0.180026
0.168181
0.155771
0.14375
0.132941
0.12413
0.122063
0.139104
0.15402
0.166369
0.176894
0.186063
0.194215
0.201563
0.208186
0.214003
0.218754
0.222003
0.223318
0.221481
0.216072
0.207875
0.197562
0.184795
0.170481
0.155726
0.141713
0.129534
0.119979
0.113885
0.113798
0.14171
0.159306
0.174048
0.18692
0.198388
0.208668
0.217763
0.225483
0.231491
0.235337
0.236283
0.233099
0.226255
0.216682
0.204081
0.188902
0.172248
0.155429
0.139792
0.126492
0.116341
0.109774
0.107557
0.109085
0.14554
0.166694
0.184375
0.199912
0.213681
0.22567
0.235598
0.243009
0.247368
0.247233
0.243161
0.235145
0.223638
0.208524
0.190835
0.171944
0.153377
0.136587
0.122692
0.112314
0.105617
0.102741
0.1032
0.106247
0.151054
0.17661
0.197544
0.215677
0.23118
0.243739
0.252832
0.257552
0.256445
0.251638
0.242099
0.227852
0.210045
0.189931
0.169108
0.149285
0.131939
0.118022
0.107836
0.101216
0.0979474
0.0978702
0.0993281
0.103488
0.158882
0.189367
0.213424
0.233471
0.249376
0.260527
0.265516
0.263882
0.258171
0.246528
0.229497
0.208934
0.186551
0.164226
0.143752
0.126489
0.113048
0.103313
0.0968066
0.0931213
0.0921944
0.0929034
0.0953503
0.099976
0.169829
0.204874
0.231243
0.251708
0.265805
0.271711
0.270072
0.263251
0.24911
0.229217
0.206035
0.181725
0.158418
0.137871
0.121154
0.108408
0.0991036
0.0925636
0.0883296
0.0863471
0.0864547
0.0877973
0.0910033
0.0954017
0.184639
0.222293
0.249352
0.267886
0.276147
0.274998
0.267274
0.250846
0.228175
0.202616
0.176791
0.152981
0.13275
0.116727
0.10456
0.0954434
0.0886393
0.083748
0.0807516
0.079854
0.0804276
0.0824336
0.0860009
0.0901202
0.00435569
0.0126293
0.0375894
0.0712908
0.101418
0.117619
0.0170193
0.0307117
0.0599696
0.0945446
0.129465
0.166631
0.0216243
0.0437069
0.0748288
0.109978
0.147755
0.188348
0.0237633
0.0524978
0.0843325
0.120048
0.15894
0.199175
0.0253073
0.0590056
0.0908043
0.126767
0.165972
0.205671
0.0278778
0.0635777
0.0952018
0.131139
0.170399
0.209834
0.0299371
0.0667191
0.0980085
0.133731
0.173056
0.212578
0.0315004
0.0687176
0.0995099
0.134902
0.174453
0.214534
0.0325953
0.0697506
0.0998919
0.134888
0.174907
0.216077
0.0332452
0.0699383
0.0992943
0.133845
0.174638
0.217468
0.0334536
0.069365
0.097792
0.131866
0.173724
0.218868
0.0333338
0.0680926
0.095467
0.129003
0.172187
0.220338
0.0328291
0.0661569
0.0923797
0.125272
0.169986
0.221835
0.0321073
0.0635768
0.088581
0.120673
0.167022
0.223262
0.0311412
0.0604099
0.0841176
0.115178
0.163138
0.22445
0.0299075
0.0567017
0.0790372
0.108748
0.158137
0.225164
0.0283579
0.0524956
0.0733996
0.101347
0.151744
0.22514
0.0262651
0.0478785
0.0672958
0.0929639
0.14358
0.223785
0.0249276
0.0431607
0.0608687
0.0836775
0.133207
0.220213
0.0238697
0.0387447
0.0542876
0.0736895
0.120224
0.213187
0.0224287
0.0345397
0.0475943
0.0631411
0.104556
0.201073
0.0205001
0.0299971
0.0404202
0.0519262
0.0860244
0.181833
0.0167024
0.0236049
0.0312777
0.0388402
0.0636021
0.151464
0.00452887
0.00864307
0.0136471
0.0187886
0.0322842
0.112781
0.203517
0.239777
0.265284
0.278068
0.278769
0.270865
0.252776
0.227655
0.200041
0.173051
0.149023
0.129186
0.113665
0.101724
0.0924565
0.0851758
0.0795648
0.0756401
0.0735702
0.0734291
0.0744335
0.0769461
0.0805269
0.084342
0.221144
0.254754
0.275778
0.280736
0.274182
0.255922
0.228875
0.199519
0.171541
0.147293
0.127609
0.112164
0.100008
0.0902611
0.0823323
0.075972
0.0711845
0.0681013
0.0668475
0.0671299
0.0685653
0.0713313
0.0747854
0.0782762
0.233237
0.265137
0.279108
0.276426
0.260718
0.232719
0.20195
0.172966
0.148226
0.128236
0.112356
0.0995534
0.08903
0.0802975
0.0731481
0.0675446
0.0635417
0.0612133
0.0605737
0.0611441
0.0628766
0.0656082
0.068856
0.0720218
0.241146
0.269644
0.276369
0.265611
0.239748
0.207917
0.177767
0.152097
0.131261
0.11443
0.100576
0.0889921
0.079279
0.071253
0.0648314
0.0599819
0.0566997
0.0549696
0.0547196
0.0554528
0.0572662
0.0598446
0.0628244
0.0656707
0.246071
0.269877
0.268031
0.249374
0.217588
0.186224
0.159168
0.136942
0.118667
0.103366
0.0904159
0.0794948
0.0704387
0.0631282
0.0574515
0.0533091
0.0506194
0.0492997
0.0492379
0.0500071
0.0517287
0.0540636
0.0567359
0.0592764
0.248872
0.266127
0.257229
0.23084
0.198554
0.16973
0.145615
0.12544
0.108288
0.0936224
0.0811984
0.0708815
0.0625314
0.0559711
0.051008
0.0474678
0.0452101
0.0441189
0.0440781
0.044767
0.0462639
0.0482881
0.0506249
0.0528756
0.2503
0.259958
0.245255
0.214519
0.184008
0.157668
0.135202
0.115796
0.0990132
0.0847116
0.0728145
0.063183
0.0555917
0.0497649
0.0454293
0.0423556
0.0403729
0.0393572
0.0392071
0.039714
0.0408848
0.0425433
0.0445214
0.0464946
0.250872
0.253156
0.233592
0.202151
0.17347
0.148445
0.126427
0.107096
0.0904607
0.07656
0.0652989
0.0564263
0.0495928
0.0444287
0.0406052
0.0378654
0.0360279
0.0349728
0.0346177
0.0348541
0.0356211
0.0368602
0.0384519
0.040153
0.250945
0.247308
0.223656
0.193171
0.165587
0.140763
0.118496
0.0990124
0.0825708
0.0692031
0.0586763
0.0505814
0.0444508
0.0398498
0.0364236
0.0339086
0.032124
0.0309548
0.0303331
0.030216
0.0305299
0.0312809
0.0324392
0.0338574
0.250871
0.242757
0.216255
0.186725
0.159279
0.133902
0.11109
0.0914781
0.0753766
0.0626687
0.0529222
0.0455698
0.0400561
0.0359147
0.0327887
0.0304208
0.0286348
0.0273176
0.0264049
0.0258675
0.0256941
0.0258804
0.0265036
0.0275838
0.250898
0.239352
0.211318
0.182084
0.15391
0.127533
0.104123
0.0845182
0.0689111
0.0569441
0.0479692
0.041289
0.0362972
0.0325236
0.0296248
0.0273568
0.0255497
0.0240879
0.0228998
0.0219501
0.0212314
0.0207688
0.0206764
0.0211936
0.251227
0.237107
0.208399
0.178641
0.1491
0.121521
0.0975958
0.0781684
0.0631768
0.051978
0.0437259
0.0376323
0.0330734
0.0295941
0.026873
0.0246837
0.022864
0.021296
0.0198941
0.0185983
0.0173667
0.0161635
0.0149631
0.0140983
0.251924
0.236049
0.207112
0.176007
0.144657
0.115832
0.0915401
0.0724461
0.0581429
0.0476945
0.0400931
0.0344996
0.0302974
0.0270575
0.0244845
0.0223712
0.0205668
0.0189557
0.0174425
0.0159399
0.0143536
0.0125543
0.0102772
0.00681364
0.253008
0.23628
0.207008
0.173921
0.140494
0.110477
0.0859825
0.0673426
0.0537533
0.044006
0.0369745
0.0318014
0.0278933
0.0248526
0.0224105
0.0203801
0.0186249
0.0170394
0.0155346
0.0140259
0.0124226
0.0106285
0.0085526
0.00581312
0.254482
0.237949
0.207894
0.172252
0.136588
0.105481
0.0809327
0.0628253
0.0499378
0.0408248
0.0342824
0.0294588
0.025793
0.0229194
0.0205946
0.0186503
0.0169646
0.0154438
0.0140109
0.0125944
0.0111179
0.00950332
0.00768832
0.00548366
0.256369
0.241046
0.209639
0.170926
0.132938
0.100858
0.0763796
0.0588447
0.0466213
0.0380694
0.0319405
0.0274047
0.0239368
0.0212021
0.0189796
0.0171167
0.0155029
0.0140538
0.0127005
0.0113801
0.0100272
0.00858098
0.00701355
0.00522624
0.258763
0.245624
0.212157
0.1699
0.129542
0.0966082
0.0722936
0.055342
0.0437313
0.0356682
0.0298856
0.0255848
0.0222774
0.0196569
0.0175216
0.0157318
0.0141864
0.0128078
0.0115338
0.0103086
0.00907601
0.00779073
0.00644666
0.00499375
0.261835
0.251821
0.215338
0.169131
0.126387
0.0927091
0.0686291
0.0522556
0.041203
0.0335617
0.0280669
0.0239568
0.0207792
0.0182525
0.0161917
0.0144678
0.0129868
0.011677
0.0104815
0.00935051
0.00823606
0.00710457
0.00596137
0.00478163
0.265834
0.259671
0.219156
0.168558
0.123431
0.0891191
0.0653359
0.0495292
0.0389813
0.0317016
0.0264444
0.0224888
0.0194163
0.0169679
0.0149722
0.013309
0.0118901
0.0106486
0.00953172
0.00849443
0.00749534
0.00650873
0.00554474
0.00459254
0.271191
0.269271
0.223452
0.168056
0.120607
0.0857867
0.0623646
0.0471115
0.0370183
0.0300476
0.0249864
0.0211562
0.0181702
0.0157889
0.0138521
0.0122467
0.010889
0.0097158
0.00867747
0.00773273
0.00684486
0.00599306
0.00518824
0.00442703
0.278734
0.280786
0.227407
0.167416
0.117815
0.0826534
0.0596648
0.0449546
0.0352723
0.0285663
0.0236676
0.0199409
0.0170279
0.014706
0.0128245
0.0112755
0.00997905
0.00887437
0.00791429
0.00706007
0.0062782
0.00555057
0.00488631
0.00428533
0.289795
0.294253
0.230829
0.166428
0.114935
0.0796512
0.0571855
0.0430145
0.0337077
0.0272308
0.0224689
0.0188292
0.0159802
0.0137131
0.011885
0.0103921
0.00915709
0.00812093
0.00723811
0.00647155
0.0057897
0.00517537
0.00463428
0.00416657
0.306363
0.308963
0.233524
0.16474
0.11181
0.0767088
0.0548794
0.041253
0.0322947
0.0260197
0.0213753
0.0178117
0.0150207
0.0128061
0.0110307
0.00959407
0.00842046
0.00745228
0.006645
0.00596248
0.00537405
0.00486201
0.0044275
0.00406895
0.331257
0.319644
0.234439
0.161847
0.108278
0.0737682
0.0527096
0.0396399
0.0310104
0.0249168
0.0203763
0.0168814
0.0141454
0.0119822
0.0102595
0.00887899
0.00776639
0.00686497
0.00613077
0.00552795
0.00502576
0.0046048
0.00426096
0.0039901
0.00654512
0.0360796
0.0774015
0.124851
0.152142
0.185215
0.0218446
0.0712724
0.115443
0.162919
0.216953
0.312445
0.0313018
0.0909559
0.138186
0.188562
0.248532
0.328529
0.0389095
0.104285
0.153762
0.205627
0.263796
0.32661
0.0453686
0.114359
0.165241
0.217164
0.271202
0.319796
0.0507907
0.122283
0.173916
0.22495
0.274324
0.311783
0.0552666
0.128553
0.18047
0.230105
0.274982
0.303839
0.0588706
0.133427
0.18532
0.23338
0.274229
0.296643
0.0616625
0.137054
0.188748
0.235302
0.272738
0.290465
0.0636916
0.139528
0.190948
0.236223
0.270984
0.285449
0.065008
0.140911
0.192059
0.23638
0.269288
0.281682
0.0656143
0.141248
0.192173
0.235927
0.267852
0.279224
0.065523
0.140566
0.191342
0.234946
0.266772
0.278116
0.0647189
0.138877
0.189574
0.233449
0.266067
0.278382
0.063203
0.136173
0.186839
0.231378
0.265662
0.280015
0.0609552
0.132429
0.18306
0.2286
0.265389
0.283079
0.0579411
0.127598
0.178114
0.224893
0.264953
0.287515
0.0541141
0.121607
0.171823
0.219914
0.263916
0.293233
0.0494176
0.114343
0.163939
0.21317
0.261646
0.299964
0.0437932
0.105614
0.154095
0.203963
0.257105
0.307122
0.0371956
0.0950534
0.141695
0.191267
0.24845
0.313611
0.0296179
0.0817874
0.125575
0.173482
0.232551
0.315825
0.0204764
0.0631387
0.10279
0.147737
0.203462
0.301103
0.00554887
0.0293595
0.0642714
0.10898
0.151324
0.180597
0.36321
0.323957
0.231738
0.157336
0.10426
0.0708097
0.0506564
0.0381547
0.0298382
0.0239107
0.0194648
0.0160341
0.0133515
0.0112393
0.00956913
0.00824439
0.00719177
0.00635513
0.00569078
0.00516254
0.00473879
0.00439754
0.00412939
0.00392749
0.382788
0.315594
0.224603
0.151265
0.0998391
0.0678673
0.0487202
0.0367875
0.0287684
0.0229945
0.0186364
0.0152671
0.0126369
0.0105755
0.00895734
0.00768733
0.00669291
0.00591835
0.0053198
0.0048602
0.0045064
0.00423357
0.00402745
0.00387874
0.369063
0.300884
0.21474
0.14424
0.0952468
0.0650181
0.0469174
0.0355368
0.0277965
0.022165
0.017889
0.0145788
0.0120001
0.00998862
0.00842129
0.00720421
0.00626547
0.00554956
0.00501202
0.00461429
0.00432133
0.0041058
0.00394989
0.00384153
0.350317
0.285115
0.203913
0.136965
0.0907536
0.0623485
0.0452692
0.0344058
0.026922
0.0214212
0.0172221
0.0139687
0.0114398
0.00947647
0.00795778
0.00679087
0.00590448
0.00524307
0.00476105
0.00441782
0.00417628
0.00400734
0.0038914
0.0038133
0.331969
0.26981
0.193217
0.129973
0.0865693
0.0599249
0.0437931
0.0333985
0.0261458
0.0207638
0.0166362
0.0134363
0.0109548
0.00903685
0.00756353
0.00644308
0.00560482
0.00499298
0.00456042
0.00426412
0.004065
0.00393274
0.00384718
0.00379184
0.315582
0.255838
0.183314
0.123592
0.0828217
0.0577861
0.0424996
0.0325185
0.0254697
0.0201941
0.0161318
0.0129818
0.0105442
0.00866783
0.00723564
0.00615698
0.00536176
0.00479372
0.0044039
0.00414679
0.00398169
0.00387764
0.00381458
0.0037761
0.301452
0.243566
0.174539
0.117992
0.0795736
0.0559493
0.0413933
0.0317682
0.0248955
0.0197134
0.0157099
0.0126052
0.0102071
0.00836765
0.00697149
0.00592914
0.00517103
0.00464025
0.00428589
0.00406024
0.00392148
0.00383851
0.00379138
0.00376513
0.289586
0.233138
0.167047
0.113248
0.0768463
0.0544172
0.0404745
0.0311487
0.0244243
0.0193223
0.0153708
0.0123062
0.0099424
0.00813447
0.00676854
0.00575629
0.00502862
0.00452788
0.00420131
0.00399943
0.00387994
0.00381205
0.0037761
0.00375814
0.279966
0.224603
0.160898
0.109377
0.0746373
0.0531845
0.0397406
0.0306594
0.0240565
0.0190217
0.0151146
0.0120841
0.00974881
0.00796625
0.0066241
0.00563514
0.00493065
0.00445228
0.00414571
0.00396028
0.0038536
0.0037958
0.00376732
0.00375412
0.272533
0.217958
0.156097
0.106367
0.0729317
0.0522416
0.0391872
0.0302984
0.023792
0.0188116
0.0149411
0.011938
0.00962475
0.00786092
0.00653564
0.0055627
0.00487376
0.00440988
0.00411571
0.0039399
0.00384023
0.00378802
0.00376311
0.00375234
0.267226
0.213178
0.152625
0.104194
0.0717097
0.0515774
0.0388091
0.030063
0.0236297
0.0186916
0.0148494
0.0118666
0.00956868
0.00781668
0.00650106
0.00553662
0.00485543
0.00439805
0.00410892
0.00393658
0.00383904
0.00378754
0.00376278
0.00375208
0.264007
0.210237
0.150456
0.102831
0.0709518
0.0511808
0.0386004
0.0299503
0.0235681
0.0186605
0.0148383
0.0118686
0.00957821
0.00783027
0.00651622
0.00555216
0.004871
0.00441369
0.00412343
0.00394872
0.00384835
0.00379339
0.00376573
0.0037528
0.262874
0.209125
0.149568
0.102256
0.0706404
0.0510412
0.0385554
0.0299563
0.0236024
0.0187121
0.0149002
0.0119351
0.00964489
0.00789465
0.00657803
0.00561056
0.00492349
0.00445797
0.00415899
0.00397598
0.00386802
0.00380625
0.00377227
0.00375454
0.263835
0.209852
0.149954
0.10245
0.0707601
0.0511467
0.0386639
0.0300722
0.0237266
0.0188431
0.0150342
0.0120683
0.00977551
0.00801987
0.00669372
0.00571285
0.00501077
0.00452965
0.00421538
0.00401836
0.00389805
0.00382558
0.00378263
0.00375777
0.266996
0.212457
0.151618
0.103407
0.0713017
0.0514917
0.0389243
0.0302982
0.0239412
0.0190544
0.0152436
0.0122732
0.00997119
0.00820153
0.00685767
0.00585684
0.00513301
0.00462942
0.00429345
0.00407682
0.00393941
0.00385229
0.0037972
0.00376263
0.272464
0.217006
0.154577
0.105123
0.072254
0.0520644
0.039327
0.0306285
0.0242434
0.019345
0.0155253
0.0125436
0.0102258
0.00843631
0.00706941
0.00604275
0.00529094
0.00475849
0.00439468
0.00415284
0.00399347
0.00388754
0.00381686
0.00376966
0.280396
0.223584
0.158854
0.107596
0.0736055
0.0528525
0.0398601
0.0310512
0.0246216
0.0197041
0.0158709
0.0128737
0.0105362
0.008723
0.00732854
0.006271
0.00548568
0.00491855
0.00452103
0.00424841
0.004062
0.00393281
0.00384278
0.00377957
0.290981
0.232284
0.164461
0.110815
0.0753387
0.0538393
0.04051
0.0315552
0.0250665
0.0201238
0.0162741
0.0132592
0.0108998
0.00905998
0.00763452
0.00654201
0.00571853
0.00511157
0.00467488
0.00436596
0.00414721
0.00398997
0.00387637
0.00379319
0.304415
0.243192
0.17138
0.114749
0.0774236
0.0550012
0.0412585
0.0321264
0.0255665
0.0205946
0.0167275
0.0136946
0.0113127
0.00944492
0.0079863
0.00685592
0.00599069
0.00533965
0.00485888
0.00450828
0.00425172
0.00406117
0.00391923
0.00381144
0.320906
0.256348
0.179523
0.119324
0.0798076
0.056303
0.0420812
0.0327472
0.0261078
0.0211054
0.0172222
0.0141731
0.0117698
0.00987439
0.00838198
0.00721223
0.00630293
0.00560461
0.00507561
0.00467831
0.00437835
0.00414882
0.0039731
0.00383528
0.340331
0.27166
0.188646
0.124382
0.0823988
0.0576922
0.0429458
0.033396
0.0266737
0.0216428
0.0177476
0.0146863
0.0122648
0.0103438
0.00881854
0.00760944
0.00665514
0.0059076
0.00532726
0.00487892
0.00453022
0.00425573
0.00403963
0.00386562
0.361163
0.288498
0.198165
0.129609
0.0850404
0.0590917
0.0438102
0.0340461
0.0272457
0.0221926
0.0182921
0.0152248
0.0127901
0.0108473
0.00929197
0.0080451
0.00704642
0.00624918
0.00561568
0.00511296
0.00471057
0.00438456
0.00412
0.00390286
0.377718
0.305528
0.206946
0.134437
0.0874877
0.0603959
0.0446229
0.0346676
0.027804
0.02274
0.0188439
0.0157787
0.0133378
0.0113788
0.0097976
0.00851618
0.00747526
0.00662926
0.00594205
0.00538249
0.00492182
0.00453761
0.00421644
0.00394776
0.357314
0.317252
0.212951
0.138038
0.0894207
0.0614793
0.0453281
0.0352303
0.0283292
0.0232708
0.0193914
0.0163386
0.0138999
0.0119317
0.0103305
0.00901927
0.00793966
0.00704722
0.00630695
0.00568914
0.00516631
0.00471749
0.00433129
0.00400126
0.00711372
0.0102976
0.0133532
0.0183916
0.033471
0.114347
0.021761
0.0283615
0.0331367
0.0426486
0.075176
0.16162
0.0290123
0.0374973
0.0465493
0.0624956
0.10988
0.204164
0.0338614
0.0456611
0.0588775
0.0810816
0.138636
0.226368
0.0375649
0.0536885
0.0708051
0.0983734
0.160163
0.235725
0.0405661
0.0615133
0.0820889
0.113896
0.175012
0.236869
0.0430956
0.0690755
0.0925352
0.127158
0.184937
0.23476
0.0452485
0.0762619
0.102043
0.1381
0.191045
0.229869
0.0470656
0.082926
0.110565
0.146954
0.194405
0.22422
0.0485684
0.0889336
0.118075
0.154063
0.195904
0.218513
0.0497748
0.0941568
0.124571
0.159781
0.196204
0.213177
0.0507062
0.0984725
0.130056
0.164368
0.195891
0.208507
0.0513401
0.101788
0.13454
0.16806
0.195443
0.204731
0.051428
0.10413
0.138037
0.171064
0.195253
0.202015
0.0510792
0.105484
0.140554
0.173531
0.195541
0.20053
0.0501354
0.105774
0.142077
0.175521
0.196357
0.200567
0.0485976
0.105043
0.14253
0.177013
0.197862
0.201773
0.0463931
0.103133
0.14184
0.177796
0.19995
0.204735
0.043426
0.0998514
0.13976
0.177448
0.201891
0.208843
0.0395593
0.0948276
0.135916
0.175194
0.202478
0.212684
0.0345929
0.0873828
0.129672
0.169979
0.200197
0.213622
0.0281974
0.0762184
0.119821
0.160034
0.191711
0.208452
0.0192695
0.0582833
0.103618
0.142398
0.170931
0.186471
0.00695374
0.0334471
0.0778257
0.113667
0.131424
0.119333
0.326053
0.31323
0.213615
0.139499
0.0905442
0.062233
0.0458796
0.0357099
0.0288058
0.0237733
0.0199248
0.0168958
0.014469
0.0124999
0.0108858
0.00955056
0.00843707
0.00750166
0.0067102
0.00603387
0.00544606
0.0049269
0.00446727
0.00406457
0.300875
0.301037
0.210685
0.138897
0.0907345
0.0626109
0.0462562
0.0360942
0.0292247
0.0242395
0.0204367
0.0174434
0.0150387
0.0130777
0.0114585
0.0101061
0.00896443
0.00799056
0.0071509
0.00641705
0.00576267
0.00516841
0.0046272
0.00413897
0.282053
0.281579
0.205672
0.137035
0.0903449
0.0626703
0.0464746
0.0363871
0.0295851
0.0246664
0.020923
0.0179766
0.015604
0.0136602
0.012044
0.0106818
0.0095184
0.00851143
0.00762757
0.00683841
0.00611722
0.00544429
0.00481379
0.0042258
0.267408
0.262817
0.198385
0.134426
0.0895813
0.0625503
0.0465774
0.0366054
0.0298934
0.0250553
0.0213824
0.0184927
0.0161613
0.0142432
0.0126382
0.0112738
0.0100954
0.00906135
0.00813818
0.00729706
0.0065102
0.00575642
0.00502966
0.0043264
0.255195
0.245794
0.189291
0.131228
0.0885636
0.0623179
0.0466063
0.0367709
0.0301599
0.0254108
0.0218158
0.0189905
0.0167082
0.0148238
0.0132377
0.0118785
0.0106922
0.00963742
0.00868049
0.00779173
0.00694159
0.00610614
0.00527704
0.00444197
0.244379
0.230574
0.180202
0.127555
0.0873716
0.062015
0.046599
0.0369032
0.0303953
0.0257382
0.0222257
0.0194704
0.0172438
0.0154002
0.0138404
0.0124936
0.0113064
0.0102375
0.00925277
0.00832138
0.00741132
0.00649451
0.0055577
0.00457336
0.234516
0.217041
0.171522
0.123553
0.0860723
0.0616744
0.046576
0.0370169
0.030609
0.0260433
0.0226151
0.019934
0.0177688
0.0159726
0.0144463
0.0131192
0.0119382
0.0108618
0.00985546
0.00888666
0.00792051
0.00692342
0.00587399
0.00472124
0.22526
0.205067
0.163472
0.119562
0.0847536
0.0613244
0.0465508
0.0371232
0.030809
0.0263313
0.0229877
0.0203838
0.0182853
0.0165435
0.0150585
0.0137592
0.0125924
0.0115161
0.0104945
0.00949357
0.00847504
0.00739881
0.00623147
0.0048869
0.216672
0.194538
0.156162
0.115857
0.0834565
0.0609844
0.0465359
0.0372314
0.0310019
0.0266069
0.0233469
0.020823
0.018797
0.0171177
0.0156837
0.0144229
0.0132813
0.0122155
0.011188
0.0101618
0.00909517
0.00794059
0.00664804
0.00507643
0.208856
0.185359
0.149637
0.112494
0.0822054
0.0606746
0.0465405
0.0373494
0.0311936
0.0268745
0.0236961
0.0212549
0.0193078
0.017701
0.016331
0.0151245
0.0140258
0.0129896
0.0119755
0.0109424
0.00984262
0.00861878
0.0071947
0.00533296
0.201923
0.177459
0.143922
0.109506
0.0810553
0.0604207
0.0465784
0.0374855
0.0313903
0.0271385
0.0240384
0.0216817
0.0198205
0.0182978
0.0170086
0.0158784
0.0148508
0.0138794
0.0129226
0.0119377
0.0108747
0.0096659
0.00819421
0.00604599
0.195973
0.170794
0.139028
0.106924
0.0800771
0.0602538
0.0466688
0.0376522
0.0316002
0.0274041
0.0243769
0.0221049
0.0203354
0.0189083
0.0177177
0.0166895
0.0157692
0.0149141
0.0140901
0.0132718
0.0124472
0.0116383
0.0109644
0.0107237
0.191123
0.165352
0.134965
0.104786
0.0793709
0.0602023
0.0468366
0.0378666
0.0318352
0.0276794
0.0247163
0.0225264
0.0208514
0.0195285
0.0184515
0.0175488
0.0167706
0.0160826
0.0154643
0.0149095
0.0144306
0.0140738
0.0139617
0.0142449
0.187537
0.161157
0.131765
0.10315
0.0789435
0.0603
0.0471106
0.0381525
0.0321135
0.0279774
0.0250654
0.022951
0.0213696
0.0201555
0.0192025
0.0184422
0.017831
0.017344
0.0169725
0.016722
0.0166099
0.0166686
0.0169591
0.0175129
0.185423
0.158293
0.129492
0.102014
0.0787943
0.0606173
0.0475374
0.0385448
0.0324616
0.0283181
0.025439
0.0233892
0.0218968
0.0207917
0.0199679
0.0193597
0.0189291
0.0186582
0.0185451
0.0185967
0.0188192
0.0192309
0.0198427
0.0205965
0.185131
0.156994
0.128288
0.101664
0.0790314
0.0612145
0.0481731
0.0390902
0.0329165
0.0287304
0.0258593
0.0238583
0.0224452
0.0214448
0.0207496
0.0202957
0.0200488
0.0199953
0.0201265
0.0204617
0.0209963
0.0217119
0.0225932
0.0235334
0.186316
0.157193
0.128294
0.102045
0.0798154
0.0621902
0.0490948
0.0398511
0.0335279
0.0292529
0.0263569
0.0243819
0.0230331
0.0221273
0.0215536
0.0212482
0.0211787
0.021318
0.0216869
0.0222882
0.0231001
0.0240911
0.0252229
0.0263555
0.189759
0.159452
0.129798
0.103444
0.0813036
0.063673
0.0504041
0.0409092
0.0343609
0.029937
0.0269719
0.0249919
0.0236856
0.0228578
0.0223919
0.0222224
0.0223013
0.0226203
0.0232082
0.0240435
0.0251049
0.0263494
0.0277237
0.029062
0.195083
0.163887
0.133114
0.106156
0.0837233
0.0658393
0.0522386
0.0423742
0.0355028
0.0308513
0.0277581
0.0257309
0.0244364
0.0236631
0.0232842
0.02323
0.0234218
0.0239051
0.0246748
0.0257114
0.0269913
0.0284648
0.0300719
0.0316288
0.201286
0.170419
0.138462
0.110508
0.087379
0.0689365
0.0547928
0.0444005
0.0370761
0.0320916
0.0287902
0.0266576
0.0253328
0.0245819
0.0242634
0.0242859
0.0245676
0.0251822
0.0260937
0.027291
0.0287498
0.0304191
0.0322394
0.0340215
0.206217
0.178048
0.145558
0.116655
0.092582
0.0732835
0.0583424
0.0472144
0.0392625
0.0338007
0.0301785
0.0278576
0.0264429
0.0256705
0.0253785
0.0254381
0.0257783
0.0264795
0.0274884
0.0287992
0.0303883
0.0322075
0.0342059
0.0362078
0.20628
0.183883
0.152935
0.124083
0.0993664
0.0791566
0.0632267
0.0511375
0.042337
0.0362011
0.0320972
0.0294658
0.0278724
0.0270139
0.0267003
0.0267628
0.0271148
0.0278526
0.02891
0.0302802
0.031942
0.0338512
0.035973
0.0381716
0.19932
0.183248
0.157779
0.131195
0.107034
0.0864544
0.0696767
0.0565401
0.0466904
0.0396415
0.0348317
0.0317075
0.0297975
0.028752
0.0283426
0.0283706
0.0286793
0.0293915
0.030445
0.0318144
0.0334839
0.0354122
0.0375822
0.0399319
0.175499
0.173881
0.157455
0.135844
0.114107
0.0943636
0.0774367
0.0635667
0.0526975
0.0445798
0.0388221
0.0349558
0.0325179
0.0311208
0.0304902
0.0304219
0.0306359
0.0312362
0.0322277
0.0335319
0.0351387
0.0370088
0.0391339
0.0415669
)
;

boundaryField
{
    rotor
    {
        type            kqRWallFunction;
        value           nonuniform List<scalar> 
144
(
0.00405969
0.00937852
0.0183571
0.0280857
0.0365895
0.0490902
0.00405969
0.0164348
0.0204249
0.0224868
0.0239581
0.0248519
0.0252974
0.0265251
0.0276894
0.0286485
0.0293568
0.0298137
0.0299836
0.0298514
0.0293971
0.0286258
0.0275531
0.0262101
0.025025
0.0242226
0.0228072
0.0207037
0.0165781
0.00403583
0.00403583
0.00942099
0.0215047
0.0394009
0.0651035
0.110614
0.00435569
0.0126293
0.0375894
0.0712908
0.101418
0.117619
0.00435569
0.0170193
0.0216243
0.0237633
0.0253073
0.0278778
0.0299371
0.0315004
0.0325953
0.0332452
0.0334536
0.0333338
0.0328291
0.0321073
0.0311412
0.0299075
0.0283579
0.0262651
0.0249276
0.0238697
0.0224287
0.0205001
0.0167024
0.00452887
0.00452887
0.00864307
0.0136471
0.0187886
0.0322842
0.112781
0.00654512
0.0360796
0.0774015
0.124851
0.152142
0.185215
0.00654512
0.0218446
0.0313018
0.0389095
0.0453686
0.0507907
0.0552666
0.0588706
0.0616625
0.0636916
0.065008
0.0656143
0.065523
0.0647189
0.063203
0.0609552
0.0579411
0.0541141
0.0494176
0.0437932
0.0371956
0.0296179
0.0204764
0.00554887
0.00554887
0.0293595
0.0642714
0.10898
0.151324
0.180597
0.00711372
0.0102976
0.0133532
0.0183916
0.033471
0.114347
0.00711372
0.021761
0.0290123
0.0338614
0.0375649
0.0405661
0.0430956
0.0452485
0.0470656
0.0485684
0.0497748
0.0507062
0.0513401
0.051428
0.0510792
0.0501354
0.0485976
0.0463931
0.043426
0.0395593
0.0345929
0.0281974
0.0192695
0.00695374
0.00695374
0.0334471
0.0778257
0.113667