/*--------------------------------*- C++ -*----------------------------------*\
  =========                 |
  \\      /  F ield         | OpenFOAM: The Open Source CFD Toolbox
   \\    /   O peration     | Website:  https://openfoam.org
    \\  /    A nd           | Version:  11
     \\/     M anipulation  |
\*---------------------------------------------------------------------------*/
FoamFile
{
    format      ascii;
    class       volScalarField;
    location    "0.38";
    object      nut;
}
// * * * * * * * * * * * * * * * * * * * * * * * * * * * * * * * * * * * * * //

dimensions      [0 2 -1 0 0 0 0];

internalField   nonuniform List<scalar> 
2880
(
7.83437e-07
3.49897e-06
1.12577e-05
2.56572e-05
4.66064e-05
8.32788e-05
2.84657e-05
6.23977e-05
0.000111668
0.000164232
0.000218037
0.000260078
0.000163185
0.000143958
0.00023451
0.000321881
0.000399227
0.00044236
0.000179621
0.000211041
0.000340669
0.00045692
0.000552041
0.000605219
0.000191538
0.000261101
0.000427047
0.000567335
0.000677419
0.000744386
0.000198784
0.000294808
0.000496697
0.000657152
0.000780806
0.000861991
4.75391e-05
0.00031668
0.000552405
0.000730207
0.000866288
0.000961337
4.86909e-05
0.000338916
0.000596732
0.000788815
0.000936149
0.00104431
4.97385e-05
0.000359156
0.00063162
0.000834756
0.000992213
0.00111224
5.05886e-05
0.000376289
0.00065789
0.00086918
0.0010356
0.00116619
5.12083e-05
0.000389447
0.00067572
0.000892751
0.00106689
0.00120688
5.16046e-05
0.000397743
0.00068503
0.000905636
0.00108627
0.00123467
5.17511e-05
0.000400758
0.000685596
0.000907632
0.00109351
0.00124949
5.16368e-05
0.000398484
0.000677043
0.000898241
0.00108807
0.00125088
5.12427e-05
0.00039078
0.00065893
0.000876854
0.00106902
0.00123788
5.05661e-05
0.000377335
0.000630653
0.000842558
0.00103514
0.00120908
4.96113e-05
0.00035765
0.000591545
0.000794331
0.000984894
0.00116267
4.84626e-05
0.000331081
0.000540899
0.000731067
0.000916517
0.00109663
4.71649e-05
0.000296753
0.000478025
0.000651664
0.000828139
0.00100885
0.000193374
0.000253939
0.000402339
0.000555154
0.000717922
0.000897225
0.000182209
0.000197809
0.000313525
0.000440927
0.000584348
0.000759472
0.000165374
0.000130232
0.000212081
0.000309346
0.000427029
0.000593008
2.86999e-05
5.56675e-05
0.000101702
0.000164617
0.000250456
0.000396635
7.78264e-07
3.51411e-06
1.31831e-05
3.59824e-05
8.29771e-05
0.000187779
0.000289523
0.000477724
0.000596991
0.000671548
0.000699866
0.000713258
0.000719365
0.000725355
0.000739816
0.000772239
0.000832034
0.000919376
0.00103832
0.00118842
0.00136551
0.00156458
0.00176555
0.00196193
0.00217329
0.00238888
0.00260006
0.0028192
0.00302544
0.0031786
0.000310466
0.000426869
0.000514566
0.00058898
0.000630639
0.000644395
0.000650515
0.000654962
0.000658161
0.000666492
0.000687413
0.000726899
0.000787646
0.000870889
0.000976539
0.00110325
0.00124828
0.00140272
0.00156007
0.00173729
0.00193018
0.00212738
0.00231136
0.0025047
0.000439388
0.000477317
0.000531154
0.000573532
0.000615175
0.000636443
0.000643215
0.000642688
0.00064156
0.000644009
0.000647453
0.000655425
0.000672432
0.000701327
0.000743855
0.000802092
0.000877739
0.000967904
0.00107389
0.00120097
0.00133744
0.00148053
0.00164685
0.00183095
0.000606569
0.00060687
0.000634451
0.000668336
0.000712683
0.000734175
0.000761627
0.000773549
0.000780368
0.000785307
0.000788874
0.000790091
0.000790835
0.000792625
0.000795318
0.000801281
0.000813785
0.000834728
0.000867594
0.000914271
0.000975136
0.0010531
0.00115317
0.00130056
0.000767329
0.000770357
0.000793844
0.00083102
0.000880827
0.000924226
0.000969749
0.0010044
0.00103188
0.00106211
0.00109136
0.00110944
0.00111803
0.00112342
0.00112374
0.00111673
0.00110308
0.00108547
0.00106633
0.0010478
0.00103293
0.00102885
0.00103018
0.00108336
0.000909558
0.000933491
0.000966768
0.00101367
0.00107097
0.00113313
0.00119674
0.00125535
0.00131114
0.00136511
0.0014132
0.00144921
0.00147439
0.00149795
0.00151698
0.0015209
0.00151094
0.0014906
0.0014612
0.00142441
0.00138088
0.00133481
0.0012814
0.00126146
0.0010313
0.0010792
0.00112786
0.00118656
0.00125488
0.00132908
0.00140532
0.00147983
0.00155119
0.00161819
0.00167835
0.00173028
0.0017742
0.00180546
0.00182741
0.00184841
0.00185596
0.00184677
0.00182704
0.00179752
0.0017593
0.00171308
0.00165891
0.00162137
0.00113357
0.00120295
0.0012668
0.0013359
0.00141164
0.00149233
0.00157442
0.00165472
0.00173096
0.00180115
0.00186348
0.00191686
0.00196055
0.00199307
0.00201244
0.00202788
0.00203408
0.00202621
0.00201039
0.00198789
0.00196151
0.00193731
0.00191939
0.00191474
0.0012178
0.00130494
0.00138126
0.00145752
0.00153728
0.00161945
0.00170161
0.00178122
0.00185615
0.00192459
0.00198519
0.00203713
0.00208008
0.00211289
0.00213609
0.00215405
0.00216264
0.00216104
0.00215119
0.00213427
0.00211309
0.00208875
0.00206755
0.00205733
0.00128558
0.00138694
0.00147245
0.0015529
0.00163237
0.0017111
0.00178764
0.00186016
0.00192704
0.00198694
0.00203892
0.00208267
0.00211863
0.00214689
0.00216885
0.00218752
0.00220094
0.00220776
0.00220819
0.0022031
0.00219039
0.00217442
0.00216295
0.00215869
0.00133822
0.00145105
0.00154325
0.00162499
0.001701
0.00177252
0.00183903
0.00189947
0.00195294
0.00199886
0.00203583
0.00206533
0.00208871
0.00210558
0.00211652
0.00211939
0.00211841
0.00211523
0.00211211
0.00211121
0.00211616
0.00213024
0.00214441
0.00215155
0.0013765
0.00149913
0.00159624
0.00167758
0.00174818
0.00181009
0.00186354
0.00190848
0.00194483
0.00197022
0.00198466
0.0019875
0.00197802
0.00196199
0.00194544
0.00193445
0.00193344
0.00194639
0.00196599
0.00199346
0.00202189
0.00205215
0.00207763
0.00209488
0.00140085
0.00153229
0.00163378
0.0017139
0.00177833
0.00182962
0.00186846
0.00189421
0.00190531
0.00190255
0.00188798
0.00186492
0.00184094
0.00181993
0.00180396
0.00179407
0.00179107
0.00179914
0.00181711
0.00184529
0.00189152
0.00193618
0.00197824
0.00201097
0.00141144
0.00155088
0.00165619
0.00173537
0.00179365
0.00183386
0.00185728
0.00186472
0.00185757
0.00183812
0.00180952
0.00177601
0.001741
0.00170829
0.00168054
0.00165888
0.00164361
0.00163604
0.00164306
0.00166533
0.00168268
0.00170518
0.00173804
0.00178339
0.00140732
0.00155486
0.00166398
0.00174226
0.00179525
0.00182628
0.00183737
0.00183017
0.00180716
0.00177221
0.00173002
0.00168554
0.00164278
0.00160425
0.00157067
0.00154046
0.00151387
0.00149916
0.00149099
0.0014763
0.00146539
0.00146315
0.00148704
0.00152388
0.0013872
0.00154258
0.00165521
0.00173268
0.0017811
0.00180461
0.00180641
0.00178977
0.00175877
0.0017184
0.0016738
0.00162926
0.00158728
0.00154877
0.00151399
0.00147469
0.00143938
0.00141838
0.00138308
0.00135152
0.00132692
0.00131292
0.00132636
0.00140613
0.00134956
0.00151253
0.00162793
0.00170424
0.00174894
0.00176763
0.00176503
0.00174581
0.001715
0.00167753
0.00163746
0.00159747
0.00155798
0.00151814
0.0014724
0.00142563
0.00139738
0.00135269
0.00131111
0.00127742
0.00125753
0.00125694
0.00129233
0.00141221
0.00129328
0.00146411
0.00158159
0.00165646
0.00169863
0.0017156
0.00171333
0.00169706
0.00167143
0.00164008
0.0016052
0.00156909
0.00151946
0.00147304
0.00143372
0.00139215
0.00134021
0.00129167
0.00125175
0.00122733
0.00122655
0.00125776
0.00134526
0.00149957
0.0012186
0.00139913
0.0015188
0.0015926
0.00163385
0.00165176
0.00165275
0.00164143
0.00162124
0.00159437
0.00155871
0.00151137
0.00146803
0.00143335
0.00138137
0.00132578
0.00127375
0.00123164
0.00120728
0.00120944
0.00124753
0.00133355
0.00150209
0.0016835
0.00112815
0.00132291
0.00144623
0.00152007
0.00156187
0.00158206
0.0015866
0.00157867
0.00155997
0.00152009
0.00149214
0.00145809
0.00141701
0.00136089
0.00130348
0.00125132
0.00121182
0.00119352
0.00120524
0.00125538
0.00135362
0.00151974
0.00175362
0.00196717
0.00102777
0.00124419
0.00137348
0.0014484
0.00149126
0.00151307
0.00151905
0.00150735
0.0014756
0.00146188
0.00143409
0.00138318
0.00132834
0.00127385
0.00122647
0.00119482
0.00118801
0.00121396
0.00127845
0.00138774
0.00155527
0.00179737
0.00206143
0.00231794
0.000926579
0.00117342
0.00131017
0.00138573
0.00142822
0.00144876
0.0014425
0.00142863
0.00142093
0.00139351
0.00134427
0.00129164
0.00124197
0.00120301
0.00118376
0.00119247
0.00123421
0.00131072
0.00142496
0.00158854
0.0018244
0.00210608
0.00242154
0.00271095
0.000835873
0.00111966
0.00126243
0.0013355
0.0013739
0.00137744
0.00137854
0.00137456
0.00134634
0.00130237
0.00125558
0.00121398
0.00118649
0.00118179
0.00120585
0.00125963
0.00134136
0.00145335
0.00160814
0.00183001
0.00213146
0.00247087
0.00284525
0.00314023
0.000767226
0.00108769
0.00123088
0.00129532
0.00131549
0.00132684
0.00132585
0.00130261
0.00126349
0.00122376
0.0011921
0.00117736
0.00118647
0.00122177
0.00128075
0.00136122
0.00146749
0.00161368
0.00182327
0.00212329
0.00248614
0.00289028
0.00329803
0.00359451
8.41577e-07
4.7284e-06
2.31507e-05
6.53532e-05
0.000129587
4.64751e-05
2.94964e-05
4.52554e-05
0.00010445
0.000200696
0.000305262
0.000346317
0.000172906
0.000108524
0.00020716
0.000341497
0.000481339
0.000623948
0.000190013
0.000169398
0.000297538
0.000455721
0.000615364
0.000770316
4.76487e-05
0.000224451
0.000371731
0.00054066
0.000700518
0.00084014
5.00096e-05
0.000269185
0.000429935
0.000599659
0.000748721
0.000865941
5.18237e-05
0.000303303
0.000473471
0.000637463
0.000771009
0.000865804
5.31597e-05
0.000327836
0.000504078
0.000658673
0.000775586
0.000852029
5.40759e-05
0.000343887
0.000523572
0.000667255
0.000768738
0.000831667
5.46124e-05
0.000352474
0.000533762
0.000666342
0.000754809
0.000808513
5.47831e-05
0.000354414
0.000535903
0.00065826
0.000736202
0.000784482
5.46847e-05
0.000350194
0.000531281
0.000644697
0.000714429
0.000760456
5.42708e-05
0.000339781
0.000520803
0.000626844
0.000690554
0.000736732
5.36719e-05
0.000322969
0.000504926
0.000605433
0.000664957
0.000713304
5.28593e-05
0.000301407
0.000483803
0.000580522
0.000637327
0.000689935
5.18028e-05
0.000276738
0.000457797
0.000551911
0.000608241
0.000666255
5.04416e-05
0.000250861
0.00042761
0.000519034
0.000576369
0.000641711
4.83962e-05
0.000226681
0.000394285
0.000481086
0.000540256
0.000614814
4.71722e-05
0.000210007
0.000358435
0.000437144
0.000497744
0.000583996
0.000191009
0.000198386
0.000317722
0.000386355
0.000446523
0.000546371
0.000179252
0.000172906
0.000265968
0.00032493
0.000384715
0.000496694
0.000163826
0.000127209
0.000192866
0.000243882
0.000306415
0.000428445
2.89358e-05
5.86563e-05
9.60237e-05
0.00013154
0.000195778
0.000325693
8.74645e-07
3.22648e-06
8.37105e-06
1.71869e-05
4.12813e-05
0.000191897
0.000755115
0.00108073
0.00120855
0.00125204
0.00127496
0.00127658
0.00126083
0.00122844
0.00119707
0.00117583
0.00117263
0.00119168
0.00123217
0.00129098
0.00136821
0.00147029
0.00161091
0.00181084
0.00209403
0.00247353
0.00289129
0.00334497
0.00375276
0.00404343
0.000867618
0.00109261
0.00118116
0.0012196
0.00122696
0.00122038
0.00119626
0.00117364
0.00116195
0.00116764
0.00119239
0.0012342
0.00129157
0.00136711
0.00146781
0.0016051
0.00179555
0.00206049
0.00241943
0.00285406
0.00331709
0.00379593
0.00419
0.00446592
0.000942701
0.00109452
0.00115602
0.0011747
0.00117871
0.00116418
0.00115041
0.00114702
0.00115922
0.00118735
0.00122981
0.00128689
0.00136236
0.00146261
0.00159657
0.00177683
0.00202086
0.00234838
0.00277094
0.00324229
0.00373552
0.00420674
0.00459073
0.00483486
0.000975746
0.0010749
0.00112229
0.00112783
0.00112931
0.00112408
0.00112842
0.00114635
0.00117777
0.00122172
0.00127942
0.00135476
0.00145344
0.00158286
0.00175294
0.00197742
0.00227336
0.00265539
0.00312388
0.00361404
0.00411422
0.00456348
0.00493072
0.00513746
0.000978662
0.0010515
0.00107244
0.00108656
0.001092
0.00110447
0.00112864
0.00116436
0.0012108
0.00126924
0.00134341
0.0014389
0.00156279
0.00172367
0.00193208
0.00220078
0.00254283
0.00296495
0.00345701
0.00394738
0.0044328
0.00484976
0.00518966
0.00536338
0.00096196
0.00101698
0.00102929
0.00105145
0.00107281
0.00110459
0.00114634
0.00119646
0.00125575
0.00132796
0.00141918
0.00153695
0.00168947
0.00188512
0.00213245
0.00244031
0.00281577
0.00325801
0.00374995
0.00422365
0.00467511
0.00505785
0.00535551
0.00550603
0.000934365
0.000975306
0.000994279
0.0010306
0.00107187
0.00112169
0.00117725
0.00123835
0.00130875
0.00139527
0.00150629
0.00165037
0.001835
0.00206608
0.00234821
0.00268499
0.00307729
0.0035185
0.00398868
0.00443215
0.00483585
0.00517514
0.00542857
0.00555799
0.00090344
0.000935269
0.000973866
0.00102584
0.00108643
0.00115059
0.0012161
0.00128615
0.00136819
0.00147178
0.00160652
0.00178027
0.0019981
0.00226204
0.00257169
0.00292482
0.00331668
0.00373698
0.00416631
0.00456682
0.00491101
0.00519615
0.00540689
0.00551514
0.000873667
0.000902669
0.000965837
0.00103727
0.00111313
0.001187
0.00125972
0.00133865
0.0014346
0.00155885
0.00172075
0.00192601
0.00217601
0.00246801
0.0027962
0.00315281
0.00352842
0.00391086
0.00428355
0.0046253
0.00490399
0.00512212
0.00528737
0.00537232
0.000846727
0.000882558
0.000968635
0.00105845
0.00114634
0.00122728
0.00130664
0.00139606
0.00150902
0.0016574
0.00184891
0.00208584
0.00236505
0.00267888
0.00301651
0.00336541
0.00371254
0.00404487
0.00434917
0.00461202
0.00482127
0.00496455
0.00506266
0.00512025
0.00082281
0.000873421
0.000980403
0.00108681
0.00118379
0.00127025
0.00135681
0.00145904
0.00159226
0.00176762
0.00198984
0.00225692
0.00256107
0.00289022
0.00322948
0.00356266
0.00387391
0.00414932
0.00437803
0.00455274
0.00466954
0.00472738
0.00473153
0.00471878
0.000801565
0.000873183
0.000998406
0.00112033
0.00122429
0.00131567
0.00141067
0.00152831
0.00168466
0.00188881
0.00214142
0.00243583
0.00276006
0.00309862
0.00343382
0.0037471
0.00402069
0.00423945
0.00439258
0.00447451
0.00448333
0.00441457
0.00425957
0.00402003
0.000782058
0.000877723
0.00102493
0.0011583
0.00126707
0.00136333
0.00146843
0.00160402
0.00178575
0.0020194
0.00230083
0.00261891
0.00295834
0.00330142
0.00362904
0.0039217
0.00416091
0.00433055
0.00441801
0.00441405
0.00430817
0.00407119
0.0036149
0.00287534
0.000763759
0.000887213
0.00105641
0.00119899
0.00131157
0.00141329
0.00153027
0.00168594
0.00189444
0.00215719
0.00246489
0.0028025
0.00315247
0.0034961
0.00381412
0.00408744
0.00429825
0.00443105
0.00447322
0.00441481
0.00424797
0.00396618
0.00356155
0.00308634
0.000746225
0.000902122
0.00109178
0.00124174
0.00135764
0.00146562
0.00159603
0.00177326
0.00200902
0.00229959
0.00263035
0.00298308
0.00333913
0.00367986
0.00398673
0.00424191
0.00442937
0.0045359
0.0045516
0.00446975
0.00428641
0.0040011
0.00362216
0.00322108
0.000728955
0.000922288
0.00113035
0.00128636
0.00140541
0.00152034
0.00166517
0.00186454
0.00212731
0.00244393
0.00279411
0.00315747
0.00351528
0.00384979
0.00414372
0.00438086
0.00454723
0.00463216
0.00462885
0.0045342
0.00434832
0.00407516
0.00372713
0.00335998
0.000711518
0.000944376
0.00117159
0.0013329
0.00145501
0.00157718
0.00173656
0.00195778
0.00224689
0.00258783
0.00295362
0.00332306
0.00367844
0.00400347
0.0042824
0.0045007
0.00464632
0.00471093
0.00469044
0.00458477
0.00439715
0.00413466
0.00381143
0.00346464
0.000693869
0.000970343
0.00121544
0.00138173
0.00150655
0.0016351
0.00180867
0.00205213
0.00236647
0.00272967
0.00310696
0.00347797
0.00382693
0.00413937
0.00440114
0.00459923
0.00472331
0.00476709
0.00472885
0.00461105
0.0044195
0.00416343
0.00385726
0.00352522
0.000676194
0.000998044
0.00126316
0.00143338
0.00155934
0.00169305
0.00188157
0.00214768
0.00248596
0.0028684
0.00325274
0.00362097
0.00395986
0.0042569
0.00449942
0.00467575
0.00477707
0.00479894
0.00474189
0.0046109
0.00441414
0.00416246
0.00386992
0.00355282
0.000658329
0.00102871
0.00131575
0.00148802
0.00161244
0.0017516
0.00195594
0.00224473
0.00260508
0.00300306
0.00338998
0.00375142
0.00407701
0.00435617
0.00457749
0.0047304
0.00480736
0.00480573
0.00472833
0.00458272
0.00437951
0.00413114
0.00385185
0.00355519
0.000640663
0.00106531
0.00136804
0.00154456
0.00166699
0.0018118
0.00203266
0.00234369
0.00272366
0.00313294
0.00351809
0.00386914
0.0041787
0.00443785
0.00463618
0.00476393
0.00481473
0.00478775
0.00468839
0.00452716
0.00431739
0.00407338
0.00381018
0.0035412
0.000624908
0.00112014
0.00142441
0.00160512
0.00172427
0.00187485
0.00211272
0.002445
0.00284162
0.00325751
0.0036368
0.00397439
0.00426566
0.00450304
0.00467677
0.00477765
0.00480043
0.00474641
0.00462401
0.0044473
0.00423266
0.00399628
0.00375385
0.00351861
0.000613332
0.00119416
0.00149386
0.00167256
0.00178578
0.00194201
0.00219699
0.00254891
0.00295873
0.00337631
0.00374606
0.00406769
0.00433894
0.00455318
0.00470091
0.00477333
0.00476648
0.00468422
0.0045388
0.00434835
0.00413242
0.00390847
0.00369157
0.0034932
0.00061073
0.00125504
0.00158486
0.00174857
0.00185239
0.00201411
0.0022859
0.00265525
0.00307456
0.00348893
0.00384602
0.00414981
0.00439985
0.00458994
0.00471055
0.00475322
0.00471558
0.00460483
0.00443781
0.00423713
0.00402488
0.00381845
0.00363041
0.00346867
1.26411e-06
1.34712e-05
4.75232e-05
0.000114202
4.45727e-05
5.93041e-05
3.78521e-05
0.000108583
0.000208565
0.000339817
0.00038971
0.000506809
5.29691e-05
0.000228886
0.000396116
0.000587384
0.000759598
0.000950801
5.90545e-05
0.000336461
0.000568458
0.000809601
0.00104469
0.00129091
6.37653e-05
0.000425801
0.000717111
0.000997252
0.00126637
0.00152595
6.74647e-05
0.000497316
0.000841097
0.00115081
0.0014373
0.00168982
7.03709e-05
0.000553153
0.000941726
0.00127326
0.00156745
0.00180442
7.26253e-05
0.000595576
0.00102104
0.00136826
0.00166478
0.00188493
7.43234e-05
0.000626539
0.00108117
0.00143952
0.00173517
0.00194058
7.55326e-05
0.000647579
0.00112401
0.00149005
0.00178317
0.0019774
7.63067e-05
0.000659777
0.00115108
0.00152199
0.00181214
0.00199928
7.66638e-05
0.000664015
0.00116346
0.00153664
0.00182458
0.00200813
7.6614e-05
0.00066089
0.00116181
0.00153478
0.00182195
0.00200521
7.61464e-05
0.000650654
0.00114634
0.0015166
0.0018044
0.0019908
7.52535e-05
0.000633324
0.00111681
0.00148183
0.00177107
0.0019633
7.39074e-05
0.000608546
0.00107245
0.00142935
0.00171905
0.00192155
7.20613e-05
0.000575532
0.00101205
0.00135699
0.00164597
0.00186173
6.96452e-05
0.000533095
0.000933837
0.00126192
0.00154804
0.00177818
6.65589e-05
0.00047952
0.000835394
0.0011408
0.00142006
0.00166193
6.26614e-05
0.000412515
0.000714026
0.000989736
0.00125514
0.00149902
5.77532e-05
0.000329444
0.000567122
0.000804683
0.00104555
0.00126799
5.15394e-05
0.00022719
0.000394553
0.000583145
0.000775499
0.000934942
3.54907e-05
0.000108123
0.000203381
0.000331389
0.000405429
0.000499546
1.0721e-06
1.09672e-05
3.94705e-05
9.97047e-05
4.41292e-05
5.86605e-05
0.000656261
0.00139886
0.00170228
0.0018325
0.00192348
0.00209094
0.00237902
0.00276324
0.0031883
0.003595
0.00393698
0.0042217
0.00444984
0.00461518
0.0047079
0.00471996
0.00465114
0.00451283
0.00432721
0.00412113
0.00391801
0.00373321
0.00357509
0.00344698
0.00117861
0.00164167
0.00183223
0.00191712
0.00199577
0.00217084
0.0024749
0.00287141
0.00329886
0.00369415
0.00401936
0.00428441
0.00449046
0.00463087
0.00469536
0.00467657
0.0045771
0.00441346
0.0042135
0.00400749
0.00381828
0.00365739
0.00352798
0.0034289
0.00149944
0.00180363
0.00193368
0.00199062
0.00206509
0.00225156
0.00257153
0.00297796
0.00340498
0.00378613
0.0040937
0.00433908
0.00452331
0.00463901
0.00467543
0.00462624
0.00449767
0.00431209
0.00410281
0.00390203
0.00372999
0.00359318
0.00348964
0.00341446
0.00170713
0.00191853
0.00201046
0.00205325
0.00213066
0.00233153
0.00266689
0.00308108
0.00350552
0.00387083
0.00416065
0.00438688
0.00454998
0.00464162
0.00465065
0.00457227
0.00441709
0.00421373
0.00400021
0.00380873
0.00365527
0.00354086
0.00345942
0.0034032
0.00184977
0.00200129
0.00206985
0.0021073
0.00219248
0.00240937
0.00275912
0.00317916
0.0035995
0.00394831
0.00422096
0.00442905
0.00457209
0.00464072
0.00462359
0.00451793
0.00433934
0.00412264
0.0039093
0.0037297
0.00359451
0.0034997
0.00343615
0.00339455
0.0019493
0.00206129
0.00211717
0.0021545
0.00225034
0.00248372
0.00284652
0.0032708
0.00368613
0.00401877
0.00427544
0.00446682
0.00459124
0.00463832
0.00459679
0.00446638
0.00426798
0.00404212
0.00383224
0.00366545
0.0035469
0.00346836
0.00341873
0.00338809
0.0020198
0.00210515
0.00215552
0.00219588
0.00230384
0.00255325
0.00292764
0.00335494
0.00376461
0.0040824
0.0043249
0.00450141
0.004609
0.00463639
0.00457272
0.00442054
0.00420604
0.00397456
0.00377004
0.0036155
0.00351108
0.00344536
0.00340608
0.00338348
0.00206934
0.0021372
0.00218676
0.0022319
0.0023523
0.00261667
0.00300133
0.00343107
0.00383333
0.00413935
0.00437013
0.00453394
0.00462679
0.00463674
0.0045536
0.00438297
0.00415589
0.00392141
0.00372279
0.00357885
0.00348556
0.00342923
0.00339718
0.00338042
0.00210347
0.00216026
0.0022119
0.00226255
0.00239486
0.00267273
0.00306645
0.00349837
0.00389266
0.00419017
0.00441192
0.00456543
0.00464587
0.00464091
0.00454132
0.00435565
0.00411911
0.00388326
0.00368998
0.00355423
0.00346878
0.00341832
0.00339189
0.00337863
0.00212579
0.00217612
0.00223135
0.00228752
0.00243058
0.00272024
0.00312189
0.00355609
0.00394413
0.00423575
0.00445106
0.00459672
0.00466722
0.00465015
0.00453735
0.00434
0.00409659
0.00386009
0.0036707
0.00354051
0.00345892
0.00341287
0.00338919
0.00337774
0.00213857
0.00218579
0.00224519
0.00230631
0.00245851
0.00275813
0.00316683
0.00360383
0.00398822
0.00427665
0.0044881
0.00462838
0.00469161
0.00466546
0.00454272
0.00433686
0.00408869
0.00385163
0.0036638
0.00353591
0.00345703
0.0034121
0.00338888
0.00337758
0.0021431
0.00218974
0.00225323
0.00231835
0.00247777
0.00278553
0.00320059
0.00364123
0.00402503
0.00431313
0.00452333
0.00466052
0.00471836
0.00468535
0.00455562
0.00434527
0.00409468
0.00385629
0.00366894
0.00354096
0.00346194
0.00341537
0.00339061
0.00337804
0.00213994
0.00218808
0.00225517
0.00232307
0.00248762
0.0028017
0.00322259
0.0036678
0.00405358
0.00434318
0.00455376
0.00469027
0.00474607
0.00471126
0.00458155
0.00436926
0.00411609
0.00387602
0.00368588
0.00355461
0.00347203
0.0034229
0.00339462
0.00337911
0.00212938
0.00218061
0.00225064
0.00231997
0.00248743
0.00280595
0.00323204
0.00368275
0.00407414
0.00436899
0.00458356
0.00472302
0.00478287
0.00475018
0.00461862
0.00440505
0.00415149
0.00390899
0.00371417
0.00357698
0.00348832
0.00343358
0.00340055
0.00338092
0.00211031
0.00216684
0.00223919
0.00230856
0.00247679
0.00279815
0.00322937
0.00368711
0.00408764
0.00439102
0.00461371
0.00476017
0.00482342
0.0047922
0.0046632
0.00445279
0.00420023
0.00395497
0.00375374
0.00360819
0.00351097
0.00344843
0.00340866
0.00338344
0.00208175
0.00214603
0.00222032
0.00228848
0.00245541
0.00277798
0.00321397
0.00367989
0.00409286
0.00440783
0.00464053
0.00479472
0.00486398
0.00483873
0.00471621
0.00451146
0.00426143
0.0040135
0.00380454
0.0036485
0.00354039
0.00346782
0.00341937
0.00338691
0.00204161
0.00211709
0.00219336
0.00225939
0.00242321
0.00274544
0.00318585
0.00366092
0.00408915
0.00441803
0.00466269
0.00482713
0.00490579
0.00488976
0.00477644
0.00457978
0.00433401
0.00408395
0.00386656
0.00369832
0.00357712
0.00349229
0.00343312
0.00339157
0.00198668
0.00207852
0.00215729
0.00222095
0.00238026
0.00270077
0.00314514
0.00363008
0.00407602
0.00442132
0.00468059
0.00485792
0.00494845
0.00494408
0.00484245
0.00465622
0.00441661
0.00416554
0.00393966
0.00375803
0.0036218
0.0035225
0.00345042
0.00339767
0.00191201
0.00202818
0.00211023
0.00217272
0.00232681
0.00264447
0.00309226
0.00358747
0.00405292
0.00441691
0.00469319
0.00488584
0.00499061
0.00500023
0.00491258
0.004739
0.00450761
0.00425713
0.00402344
0.00382787
0.00367503
0.0035591
0.00347181
0.00340552
0.00181006
0.00196238
0.00205067
0.00211444
0.00226335
0.00257738
0.00302803
0.00353356
0.00401906
0.00440385
0.00469939
0.00490961
0.00503083
0.00505657
0.00498498
0.00482613
0.0046051
0.00435723
0.00411709
0.00390776
0.00373723
0.0036027
0.00349775
0.00341527
0.00166847
0.00187522
0.00197657
0.00204569
0.00219057
0.00250076
0.00295383
0.00346973
0.00397267
0.00438113
0.00469812
0.00492795
0.0050676
0.00511137
0.00505769
0.00491548
0.00470691
0.00446394
0.00421932
0.00399719
0.00380855
0.00365378
0.00352865
0.00342713
0.00146546
0.00175758
0.00188449
0.0019658
0.00210936
0.00241631
0.0028713
0.00339674
0.00391611
0.00434883
0.00468862
0.00493968
0.00509944
0.00516291
0.00512876
0.00500486
0.00481078
0.00457511
0.00432843
0.00409516
0.00388874
0.00371259
0.00356482
0.00344117
0.0011492
0.00159607
0.00176956
0.00187394
0.00202123
0.00232653
0.00278288
0.00331653
0.00385101
0.00430731
0.00467043
0.00494379
0.00512498
0.00520954
0.0051963
0.0050922
0.00491443
0.00468843
0.00444233
0.00420012
0.00397692
0.00377882
0.00360634
0.0034574
0.000616879
0.00135215
0.00162714
0.00177127
0.0019292
0.00223503
0.00269188
0.00323166
0.00377917
0.00425717
0.00464331
0.00493949
0.00514304
0.00524976
0.00525856
0.00517551
0.00501565
0.00480152
0.00455866
0.00431004
0.00407164
0.00385166
0.00365293
0.00347566
1.37771e-06
3.85696e-06
8.1969e-06
1.67875e-05
4.25945e-05
0.000193736
3.77802e-05
5.39356e-05
7.86569e-05
0.000118978
0.000191458
0.000319117
5.11235e-05
9.22591e-05
0.000145174
0.000213383
0.000299344
0.000417422
5.52178e-05
0.000120973
0.000201275
0.000284195
0.000373496
0.000482301
5.81457e-05
0.000151253
0.000254624
0.00034095
0.0004253
0.000525262
6.04125e-05
0.000184054
0.000304471
0.000387906
0.000463093
0.000548825
6.22584e-05
0.000218508
0.000349111
0.000425844
0.000493963
0.000572809
6.37876e-05
0.000253348
0.000387773
0.000456516
0.000520593
0.00058945
6.50504e-05
0.000287226
0.000420644
0.00048279
0.000542438
0.00060396
6.60769e-05
0.00031873
0.000448457
0.000506541
0.000563351
0.000617345
6.68898e-05
0.000346332
0.000472202
0.000529087
0.000582765
0.000630297
6.75109e-05
0.000368302
0.000492883
0.0005508
0.000601313
0.000643437
6.79333e-05
0.000383564
0.000510629
0.000571745
0.000619646
0.000657398
6.7993e-05
0.00039312
0.000524776
0.000591752
0.000638431
0.000673041
6.77663e-05
0.000396636
0.000534309
0.000610131
0.000657515
0.00069114
6.71411e-05
0.000392794
0.000537755
0.000625168
0.000675956
0.000712316
6.6108e-05
0.000380841
0.00053296
0.000634623
0.000693217
0.000732163
6.4596e-05
0.000358572
0.000517682
0.000635268
0.000706914
0.000753089
6.25014e-05
0.00032403
0.000488502
0.000622172
0.00071218
0.000770996
5.96594e-05
0.000275585
0.000441589
0.000587978
0.000696185
0.000768452
5.5795e-05
0.0002143
0.000372884
0.000525398
0.00064686
0.000722782
5.03812e-05
0.000142515
0.000278839
0.000425882
0.000546693
0.000604309
3.34477e-05
6.4306e-05
0.000160137
0.000279622
0.000381389
0.000371062
1.34719e-06
1.25315e-05
4.79297e-05
0.000104083
0.00016772
0.000205717
0.000577639
0.0012297
0.00150566
0.00167186
0.00184071
0.00214682
0.00260207
0.00314485
0.00370235
0.00419915
0.0046072
0.00492613
0.00515253
0.00528219
0.0053139
0.00525289
0.0051123
0.00491196
0.00467484
0.00442242
0.00417085
0.00392975
0.00370392
0.00349569
0.00058804
0.00118494
0.00143853
0.00159015
0.00175966
0.00206529
0.00251612
0.00305806
0.00362184
0.00413384
0.00456205
0.00490315
0.00515252
0.00530556
0.00536078
0.00532256
0.00520229
0.00501735
0.00478818
0.00453453
0.00427204
0.0040111
0.00375804
0.00351684
0.000605024
0.0011186
0.00140162
0.00153733
0.00169594
0.001992
0.00243502
0.00297202
0.00353809
0.00406145
0.00450769
0.00487001
0.00514211
0.0053187
0.00539779
0.00538285
0.00528368
0.0051154
0.00489605
0.00464345
0.0043723
0.00409314
0.00381329
0.00353796
0.000624465
0.00108593
0.00135842
0.00149739
0.00164563
0.00192911
0.00235862
0.00288646
0.0034508
0.00398186
0.00444381
0.00482611
0.00512045
0.00532052
0.00542361
0.00543224
0.00535468
0.005204
0.00499596
0.00474638
0.00446865
0.00417291
0.00386702
0.00355729
0.000644574
0.00105877
0.00130458
0.00146105
0.00160443
0.00187372
0.0022857
0.00280057
0.00335931
0.00389463
0.00436993
0.00477084
0.00508674
0.00531004
0.0054371
0.00546943
0.00541381
0.00528139
0.00508581
0.00484083
0.00455832
0.00424752
0.00391631
0.00357243
0.00066452
0.00103585
0.00126175
0.00142303
0.00156518
0.00182176
0.0022149
0.00271325
0.00326275
0.00379923
0.00428557
0.00470362
0.0050403
0.00528647
0.00543739
0.00549343
0.00545994
0.00534627
0.00516399
0.00492489
0.00463905
0.00431441
0.00395829
0.00358049
0.000683318
0.00101549
0.00122795
0.00138044
0.00152532
0.00177057
0.00214416
0.00262325
0.00316032
0.00369511
0.00419023
0.00462395
0.00498061
0.00524929
0.00542398
0.0055038
0.00549265
0.00539813
0.00522987
0.00499763
0.00470957
0.00437187
0.00399059
0.00357831
0.000699373
0.000996442
0.0011945
0.00133581
0.00148444
0.00171834
0.00207175
0.00252955
0.00305131
0.0035818
0.00408351
0.00453147
0.00490735
0.00519832
0.00539689
0.00550081
0.00551251
0.00543784
0.00528448
0.0050601
0.00477074
0.00442028
0.00401245
0.00356299
0.000712814
0.000978091
0.00116182
0.00129385
0.00144173
0.00166381
0.00199656
0.0024314
0.00293521
0.00345892
0.00396508
0.00442587
0.00482035
0.00513367
0.00535668
0.00548569
0.00552158
0.00546845
0.00533196
0.00511747
0.00482841
0.00446548
0.00402808
0.00353354
0.000723961
0.000960204
0.00113016
0.00125374
0.00139698
0.00160638
0.00191769
0.00232823
0.00281162
0.00332615
0.00383459
0.0043068
0.0047194
0.00505545
0.00530415
0.00546032
0.0055234
0.00549585
0.00538139
0.00518299
0.00490087
0.00453053
0.00406134
0.00349964
0.000733249
0.000942756
0.00109929
0.0012137
0.00134926
0.00154459
0.00183264
0.00221792
0.00267982
0.00318308
0.00369157
0.00417366
0.00460386
0.00496326
0.0052395
0.00542617
0.00552163
0.00552745
0.00544666
0.00528181
0.00503255
0.00469022
0.0042222
0.00354385
0.000741253
0.000925969
0.00106917
0.00117391
0.00130002
0.00147983
0.00174305
0.0021013
0.00254001
0.00302949
0.00353544
0.00402546
0.00447235
0.00485548
0.00516116
0.00538215
0.00551656
0.00556654
0.00553744
0.00543808
0.00528296
0.0050958
0.00491123
0.00477786
0.000748689
0.000910133
0.00103957
0.00113479
0.00125135
0.00141249
0.00165012
0.00197961
0.00239276
0.00286537
0.00336556
0.00386086
0.00432276
0.00472914
0.00506523
0.00532328
0.00550155
0.0056031
0.00563486
0.00560777
0.00553806
0.00544863
0.00536889
0.00533509
0.000756273
0.000895789
0.00101282
0.00109981
0.00120323
0.00134347
0.00155499
0.00185415
0.00223903
0.00269109
0.00318155
0.00367852
0.0041526
0.0045804
0.00494607
0.00524127