/*--------------------------------*- C++ -*----------------------------------*\
  =========                 |
  \\      /  F ield         | OpenFOAM: The Open Source CFD Toolbox
   \\    /   O peration     | Website:  https://openfoam.org
    \\  /    A nd           | Version:  11
     \\/     M anipulation  |
\*---------------------------------------------------------------------------*/
FoamFile
{
    format      ascii;
    class       volScalarField;
    location    "0.38";
    object      p;
}
// * * * * * * * * * * * * * * * * * * * * * * * * * * * * * * * * * * * * * //

dimensions      [0 2 -2 0 0 0 0];

internalField   nonuniform List<scalar> 
2880
(
-0.183262
-0.178215
-0.181042
-0.185848
-0.194645
-0.203321
-0.184603
-0.17986
-0.184045
-0.190104
-0.199514
-0.210912
-0.1873
-0.182146
-0.187702
-0.194609
-0.204046
-0.21414
-0.189228
-0.184022
-0.190567
-0.197696
-0.206662
-0.215193
-0.189857
-0.18516
-0.192426
-0.199487
-0.207823
-0.215084
-0.189019
-0.185829
-0.193615
-0.200502
-0.208119
-0.21425
-0.187432
-0.186653
-0.194456
-0.201073
-0.207854
-0.212912
-0.187127
-0.188109
-0.195173
-0.201352
-0.207203
-0.211241
-0.187814
-0.189663
-0.195794
-0.201393
-0.206284
-0.20935
-0.188424
-0.191027
-0.196283
-0.201241
-0.205187
-0.207312
-0.18887
-0.192143
-0.196611
-0.200934
-0.203973
-0.205187
-0.189182
-0.193004
-0.196766
-0.200505
-0.202694
-0.203021
-0.189375
-0.193601
-0.196745
-0.199986
-0.201401
-0.200856
-0.189461
-0.193942
-0.196556
-0.199409
-0.20014
-0.198732
-0.189464
-0.19404
-0.196212
-0.198809
-0.198961
-0.196692
-0.189436
-0.193928
-0.195736
-0.198224
-0.197916
-0.194785
-0.189401
-0.193644
-0.195157
-0.197685
-0.197053
-0.193078
-0.189353
-0.193206
-0.194513
-0.197214
-0.196376
-0.191704
-0.188309
-0.192636
-0.193858
-0.196822
-0.195876
-0.190845
-0.186277
-0.192136
-0.193288
-0.196482
-0.195657
-0.190652
-0.185449
-0.192026
-0.192937
-0.196133
-0.195784
-0.191343
-0.186643
-0.192425
-0.192812
-0.195583
-0.196002
-0.193451
-0.188513
-0.193058
-0.192685
-0.194356
-0.195488
-0.198211
-0.189405
-0.19337
-0.192122
-0.19217
-0.193291
-0.206759
-0.191156
-0.185051
-0.169258
-0.149471
-0.12916
-0.109942
-0.0921008
-0.0757974
-0.0609917
-0.0475642
-0.0354569
-0.0247431
-0.0154913
-0.00739606
-0.000208951
0.00604048
0.011419
0.0161594
0.020461
0.0243994
0.0281563
0.0328484
0.0407919
0.043271
-0.194952
-0.185289
-0.168356
-0.148431
-0.128125
-0.109006
-0.0913281
-0.0752915
-0.0607686
-0.0476974
-0.0361929
-0.0262628
-0.0176993
-0.0102686
-0.00384818
0.00154427
0.00628565
0.0106563
0.0145153
0.0178839
0.020902
0.0241245
0.0289754
0.0346766
-0.205777
-0.192817
-0.174398
-0.153438
-0.132226
-0.112098
-0.0936599
-0.0772204
-0.0626593
-0.0498574
-0.0387622
-0.0293062
-0.0212129
-0.0142624
-0.0083972
-0.00330588
0.00115063
0.00486213
0.00804574
0.0110552
0.0138264
0.016552
0.0198029
0.025945
-0.212713
-0.201239
-0.183589
-0.16289
-0.141355
-0.120279
-0.100838
-0.0834446
-0.0681556
-0.0550205
-0.0441186
-0.0350727
-0.0274403
-0.0210335
-0.0157377
-0.0113761
-0.00769743
-0.00425509
-0.000687918
0.00299147
0.00656849
0.0103109
0.0131532
0.0169333
-0.215401
-0.207361
-0.192347
-0.173681
-0.153118
-0.132286
-0.112554
-0.0943939
-0.0782982
-0.0643953
-0.0526017
-0.0427841
-0.0348196
-0.028633
-0.0241245
-0.020881
-0.0183548
-0.0160272
-0.0134647
-0.0102142
-0.00611728
-0.00036162
0.00475034
0.011943
-0.215571
-0.210328
-0.198424
-0.182561
-0.164168
-0.144914
-0.125946
-0.107992
-0.0917768
-0.077458
-0.0649081
-0.0542349
-0.0456136
-0.0388606
-0.033594
-0.0296377
-0.026784
-0.0244763
-0.0220859
-0.019016
-0.014801
-0.00845658
-0.000906536
0.0106026
-0.214416
-0.210728
-0.201363
-0.188222
-0.172474
-0.155481
-0.138196
-0.121429
-0.105821
-0.0915366
-0.0786203
-0.067313
-0.0578488
-0.0501204
-0.0437635
-0.0385859
-0.0344875
-0.0310657
-0.0277073
-0.0237782
-0.0186719
-0.0115326
-0.00203922
0.0094444
-0.212485
-0.209462
-0.201851
-0.191001
-0.177816
-0.1633
-0.148207
-0.133227
-0.118823
-0.105201
-0.0925132
-0.0809671
-0.0706941
-0.0617199
-0.0539902
-0.0473141
-0.0414748
-0.036248
-0.0312373
-0.0259264
-0.0198175
-0.0122148
-0.00251338
0.00684369
-0.210055
-0.207177
-0.2007
-0.19167
-0.180786
-0.168777
-0.156154
-0.143452
-0.130932
-0.118746
-0.107022
-0.0958707
-0.0853607
-0.0755522
-0.0664981
-0.0581381
-0.0503347
-0.0428398
-0.0353548
-0.0276704
-0.0196184
-0.0107039
-0.000185327
0.00879191
-0.207291
-0.204247
-0.198464
-0.190867
-0.182034
-0.172494
-0.16254
-0.152566
-0.142632
-0.132777
-0.123052
-0.113433
-0.103883
-0.0944133
-0.0850831
-0.0759221
-0.0667997
-0.0572135
-0.0473436
-0.0372407
-0.0265858
-0.0144557
0.00134133
0.0164402
-0.204297
-0.200872
-0.195466
-0.188998
-0.181991
-0.17486
-0.167768
-0.160941
-0.15438
-0.14804
-0.141755
-0.135234
-0.128242
-0.120561
-0.111991
-0.10217
-0.0904212
-0.0771619
-0.0635998
-0.0498076
-0.035753
-0.0202923
-0.00117397
0.0149568
-0.20113
-0.197154
-0.191881
-0.186308
-0.180969
-0.176225
-0.172212
-0.168961
-0.166302
-0.163874
-0.161164
-0.157788
-0.153241
-0.146992
-0.138518
-0.127456
-0.114401
-0.100268
-0.084621
-0.0680462
-0.0513261
-0.0358135
-0.0244691
-0.0166029
-0.197813
-0.193141
-0.187805
-0.182933
-0.179021
-0.176417
-0.175322
-0.175498
-0.176684
-0.178396
-0.179967
-0.180682
-0.179771
-0.176485
-0.170253
-0.161028
-0.148717
-0.133289
-0.115124
-0.0951101
-0.0746106
-0.0563756
-0.0449416
-0.035987
-0.194346
-0.18882
-0.183168
-0.178745
-0.176082
-0.175501
-0.177201
-0.180833
-0.186085
-0.192348
-0.198804
-0.204418
-0.208113
-0.208768
-0.205529
-0.197656
-0.184964
-0.167562
-0.146047
-0.121652
-0.0961799
-0.0721625
-0.0526548
-0.0343069
-0.190681
-0.184101
-0.177913
-0.173748
-0.172132
-0.173393
-0.177643
-0.184588
-0.193777
-0.204432
-0.215487
-0.225625
-0.233501
-0.237621
-0.236712
-0.229985
-0.217029
-0.197948
-0.17364
-0.145588
-0.115394
-0.0848139
-0.0553616
-0.0252842
-0.186739
-0.178893
-0.171931
-0.167805
-0.166997
-0.169818
-0.176312
-0.186152
-0.198729
-0.21306
-0.227794
-0.241235
-0.25233
-0.258725
-0.259241
-0.253018
-0.239547
-0.219148
-0.192938
-0.162213
-0.128388
-0.0929422
-0.0568238
-0.0192107
-0.182424
-0.173073
-0.165056
-0.160717
-0.160431
-0.164453
-0.172722
-0.184805
-0.1999
-0.216802
-0.233983
-0.249797
-0.261755
-0.268757
-0.26932
-0.262428
-0.247833
-0.226164
-0.198478
-0.166002
-0.130211
-0.0926402
-0.0542958
-0.0151262
-0.177613
-0.166499
-0.157128
-0.152313
-0.152227
-0.157019
-0.166485
-0.180011
-0.196568
-0.214695
-0.232604
-0.24849
-0.260329
-0.266436
-0.265502
-0.25694
-0.240836
-0.217858
-0.189155
-0.156206
-0.120643
-0.0844234
-0.0477006
-0.0105024
-0.17218
-0.15908
-0.148095
-0.142574
-0.142376
-0.147502
-0.157564
-0.171708
-0.18866
-0.206715
-0.224061
-0.23873
-0.248708
-0.25246
-0.249144
-0.238455
-0.220622
-0.196615
-0.167849
-0.135879
-0.102445
-0.0703067
-0.0392413
-0.00751342
-0.166007
-0.150865
-0.13816
-0.131771
-0.131224
-0.136307
-0.146408
-0.160404
-0.176836
-0.193832
-0.209373
-0.221478
-0.228504
-0.229228
-0.223035
-0.209987
-0.190695
-0.16652
-0.139163
-0.110089
-0.081152
-0.0531933
-0.0270463
-0.00297031
-0.158944
-0.142218
-0.12781
-0.120523
-0.11947
-0.12422
-0.133853
-0.147132
-0.162252
-0.177126
-0.189805
-0.198612
-0.202048
-0.199292
-0.190119
-0.175121
-0.155172
-0.132057
-0.107605
-0.0828503
-0.0589315
-0.0366981
-0.0159356
0.00306674
-0.150842
-0.133596
-0.117834
-0.109713
-0.10805
-0.112139
-0.120943
-0.132843
-0.145785
-0.157768
-0.166942
-0.171765
-0.171217
-0.165101
-0.153345
-0.136809
-0.118259
-0.0983329
-0.0774094
-0.0571192
-0.038318
-0.0210609
-0.00425429
0.0104323
-0.142518
-0.125108
-0.109163
-0.100248
-0.0977661
-0.100922
-0.108376
-0.118175
-0.128274
-0.136676
-0.141786
-0.142462
-0.138075
-0.128461
-0.115572
-0.100892
-0.0843294
-0.0668013
-0.0496381
-0.0337082
-0.019345
-0.00603314
0.00813973
0.0191351
-0.138153
-0.118548
-0.102718
-0.0927884
-0.0891857
-0.0909814
-0.0964491
-0.103479
-0.110042
-0.114446
-0.115397
-0.111958
-0.10412
-0.0938136
-0.0816615
-0.0677181
-0.0528465
-0.0382197
-0.024614
-0.0123971
-0.00153511
0.00904188
0.0218126
0.0294026
-0.25519
-0.259609
-0.248017
-0.223689
-0.182081
-0.123305
-0.250644
-0.257672
-0.247854
-0.228669
-0.197818
-0.159148
-0.242388
-0.254494
-0.246949
-0.232491
-0.210357
-0.182806
-0.242275
-0.252962
-0.247455
-0.237172
-0.22068
-0.198965
-0.250324
-0.253856
-0.249784
-0.242848
-0.229603
-0.209984
-0.25573
-0.256007
-0.253299
-0.248926
-0.237662
-0.218926
-0.257877
-0.258464
-0.257393
-0.254962
-0.245055
-0.226903
-0.259928
-0.260979
-0.261622
-0.260751
-0.251806
-0.234136
-0.262549
-0.263416
-0.265727
-0.266181
-0.257884
-0.240714
-0.265347
-0.265627
-0.26954
-0.271169
-0.263206
-0.246618
-0.267901
-0.26749
-0.272947
-0.275657
-0.26764
-0.251836
-0.269955
-0.268927
-0.275872
-0.279637
-0.271172
-0.256313
-0.271367
-0.2699
-0.278284
-0.283117
-0.273956
-0.259935
-0.272065
-0.270437
-0.280218
-0.285989
-0.275969
-0.262999
-0.272023
-0.270487
-0.281751
-0.288415
-0.277252
-0.266029
-0.271237
-0.269991
-0.28304
-0.290501
-0.278049
-0.269415
-0.269923
-0.268876
-0.284289
-0.292409
-0.278614
-0.272772
-0.271407
-0.267523
-0.285739
-0.29432
-0.279339
-0.277943
-0.276303
-0.267526
-0.28755
-0.296425
-0.280805
-0.28725
-0.279141
-0.268254
-0.289311
-0.299031
-0.283863
-0.302918
-0.27807
-0.268404
-0.290418
-0.30237
-0.289212
-0.325868
-0.272957
-0.267052
-0.290315
-0.306159
-0.297478
-0.353224
-0.264948
-0.264472
-0.289593
-0.309165
-0.310221
-0.384749
-0.261059
-0.262774
-0.289909
-0.313076
-0.329849
-0.473697
-0.145186
-0.116894
-0.0991714
-0.0876331
-0.0824231
-0.0822397
-0.0850129
-0.088646
-0.0913181
-0.0916366
-0.0884441
-0.0817208
-0.0729536
-0.0623823
-0.0501328
-0.0372781
-0.0245878
-0.0126891
-0.00200095
0.00737925
0.015723
0.0245917
0.0369081
0.0412009
-0.153723
-0.119494
-0.0985727
-0.0846061
-0.0771031
-0.074228
-0.0737598
-0.0736653
-0.0723061
-0.0685233
-0.0621022
-0.0538354
-0.0441755
-0.0330624
-0.0214682
-0.010048
0.000722584
0.0104579
0.0189807
0.0263564
0.0329814
0.0408416
0.0532813
0.0542894
-0.163466
-0.124934
-0.100065
-0.0829617
-0.0725782
-0.0665182
-0.0624915
-0.0584885
-0.0532272
-0.046044
-0.0374351
-0.027893
-0.0173078
-0.0063834
0.00436662
0.0145434
0.0238191
0.0319591
0.038953
0.0449594
0.0504436
0.0577772
0.0706533
0.0684024
-0.172009
-0.131251
-0.102398
-0.0819476
-0.0683206
-0.058778
-0.0509456
-0.0430672
-0.0342665
-0.0246259
-0.0143011
-0.00352289
0.00733107
0.017923
0.0279489
0.0371507
0.0453223
0.0523524
0.0583377
0.0634637
0.0681986
0.0752945
0.0887278
0.0833252
-0.179518
-0.137561
-0.104709
-0.0810358
-0.0638803
-0.0506071
-0.0388717
-0.0273913
-0.0157262
-0.00390952
0.00777488
0.0191785
0.0301082
0.040375
0.0498191
0.0583031
0.0657224
0.0720522
0.0774302
0.0820098
0.0862419
0.093254
0.107259
0.0989518
-0.18633
-0.14317
-0.106683
-0.0796845
-0.0588191
-0.0415733
-0.0260301
-0.0113408
0.00272564
0.0161208
0.0287519
0.0405494
0.0514569
0.061434
0.0704432
0.0784416
0.0853964
0.0913322
0.0963783
0.100625
0.104501
0.111482
0.126035
0.115258
-0.19238
-0.147634
-0.108049
-0.0774377
-0.0526026
-0.0313124
-0.0122317
0.0051982
0.0211673
0.0357466
0.0489888
0.060972
0.0717856
0.0815095
0.0901986
0.0978796
0.10457
0.110317
0.115211
0.11926
0.122875
0.12982
0.144863
0.132248
-0.197524
-0.150993
-0.108376
-0.0737935
-0.0447454
-0.0195358
0.002686
0.0223648
0.0397809
0.0551678
0.0687569
0.0807769
0.0914396
0.100921
0.109351
0.116808
0.123348
0.129028
0.133883
0.137822
0.141239
0.148123
0.163575
0.149973
-0.201601
-0.153341
-0.107172
-0.0681827
-0.0348412
-0.00602255
0.0188654
0.0403088
0.0587572
0.0746373
0.0883522
0.100269
0.110706
0.119915
0.128083
0.135334
0.141754
0.147408
0.15228
0.15617
0.159436
0.166222
0.181973
0.168563
-0.204472
-0.15445
-0.103875
-0.0601398
-0.0226217
0.00938562
0.0364433
0.0591965
0.0783063
0.0943979
0.108037
0.119711
0.129822
0.138685
0.146528
0.153516
0.159764
0.16535
0.170237
0.174143
0.177343
0.183965
0.199773
0.188279
-0.206026
-0.153778
-0.0979713
-0.0493469
-0.00792211
0.0268139
0.0555629
0.0792066
0.0986399
0.114684
0.128053
0.139335
0.148998
0.157398
0.1648
0.171398
0.177339
0.182724
0.187537
0.191514
0.194828
0.201083
0.216051
0.209722
-0.206137
-0.15074
-0.0890632
-0.0355866
0.00939395
0.0463969
0.0763818
0.100523
0.119963
0.135714
0.148622
0.159358
0.168434
0.176235
0.18304
0.189061
0.194459
0.199359
0.203804
0.207656
0.210851
0.215227
0.226029
0.234501
-0.204646
-0.144958
-0.0768774
-0.0186586
0.0294785
0.068286
0.0990653
0.123325
0.142462
0.157681
0.169944
0.179985
0.188348
0.195423
0.20149
0.206753
0.211356
0.215412
0.218989
0.222004
0.224002
0.224874
0.230245
0.260364
-0.201322
-0.136181
-0.0611789
0.0016436
0.0525124
0.092652
0.123781
0.147776
0.166302
0.180744
0.192185
0.201402
0.208955
0.215232
0.220511
0.22498
0.228777
0.232019
0.234742
0.236626
0.237126
0.238857
0.252403
0.269053
-0.195782
-0.12405
-0.0416836
0.0255623
0.0787075
0.119682
0.150686
0.174013
0.191605
0.205009
0.215459
0.22374
0.230413
0.235865
0.240365
0.2441
0.247211
0.249819
0.25192
0.253085
0.253162
0.256634
0.273889
0.28072
-0.187655
-0.108115
-0.017993
0.0534281
0.10831
0.149566
0.179899
0.202117
0.21842
0.230563
0.239834
0.247061
0.25279
0.257396
0.261138
0.264201
0.266726
0.268832
0.270478
0.271199
0.271068
0.275257
0.293629
0.295933
-0.177349
-0.088011
0.0104691
0.0856879
0.141581
0.182429
0.211541
0.232147
0.246785
0.257388
0.265303
0.271357
0.276071
0.279798
0.282783
0.2852
0.287184
0.288841
0.290102
0.290473
0.290122
0.294497
0.313137
0.313263
-0.163771
-0.0628001
0.0443927
0.122815
0.178852
0.218443
0.245622
0.264085
0.276665
0.285441
0.291804
0.296555
0.300169
0.302967
0.305175
0.306949
0.308405
0.309631
0.310528
0.310572
0.309978
0.314289
0.332721
0.331639
-0.145868
-0.0293497
0.0840697
0.165305
0.220352
0.257675
0.282127
0.297862
0.307961
0.314611
0.319216
0.322522
0.324939
0.326747
0.328141
0.329251
0.330169
0.330956
0.331482
0.331204
0.330361
0.334476
0.352369
0.350597
-0.121896
0.0140492
0.131058
0.213669
0.266279
0.300133
0.32096
0.333326
0.340498
0.344718
0.347354
0.34907
0.350191
0.350941
0.351477
0.351895
0.352258
0.352593
0.352741
0.352147
0.351068
0.354907
0.371988
0.369823
-0.0927241
0.0700907
0.187023
0.268561
0.316772
0.345708
0.3619
0.370215
0.374011
0.375505
0.375974
0.375963
0.37569
0.375317
0.374951
0.37465
0.374438
0.374307
0.374071
0.373172
0.371883
0.375396
0.391451
0.389092
-0.061352
0.145401
0.254746
0.330693
0.371777
0.394066
0.404539
0.408127
0.40813
0.406639
0.404772
0.402916
0.40117
0.399618
0.398316
0.397274
0.396473
0.39587
0.395249
0.394063
0.392596
0.395755
0.410616
0.408209
-0.0147218
0.254504
0.338035
0.400189
0.430667
0.444486
0.448216
0.446495
0.442375
0.43771
0.433388
0.429606
0.426332
0.423569
0.42131
0.419516
0.418125
0.41705
0.416053
0.414605
0.412997
0.415787
0.429324
0.426982
0.132672
0.406412
0.437222
0.47532
0.491826
0.495716
0.491983
0.484589
0.476169
0.468245
0.461421
0.455683
0.450864
0.446881
0.443666
0.441128
0.439155
0.43762
0.436264
0.434586
0.432876
0.435284
0.447404
0.445207
1.21427
1.22519
1.2462
1.29124
1.30754
1.42881
1.21497
1.2253
1.24285
1.277
1.26045
1.29684
1.21549
1.22507
1.23805
1.26148
1.23372
1.21998
1.21541
1.22406
1.23254
1.2462
1.21278
1.17919
1.21489
1.22254
1.22691
1.23229
1.19662
1.15772
1.21402
1.22067
1.22139
1.22011
1.18475
1.14197
1.21282
1.21847
1.216
1.20954
1.17548
1.1327
1.21133
1.21592
1.21077
1.20038
1.1677
1.12703
1.20962
1.21311
1.20573
1.19234
1.16085
1.12262
1.20776
1.21016
1.20096
1.18523
1.15455
1.11829
1.20586
1.20717
1.19655
1.17893
1.14851
1.11346
1.20399
1.20432
1.1926
1.17335
1.14258
1.10779
1.20223
1.20177
1.18918
1.16849
1.13667
1.10112
1.20062
1.19959
1.18633
1.16437
1.13078
1.09336
1.19919
1.1978
1.18406
1.16106
1.12496
1.08455
1.19795
1.19639
1.18235
1.15869
1.11935
1.07487
1.19691
1.19532
1.18133
1.15723
1.11422
1.06475
1.19603
1.19452
1.18084
1.15707
1.11003
1.05517
1.1953
1.19394
1.18095
1.15852
1.10755
1.04764
1.1947
1.19359
1.18178
1.16201
1.10778
1.04288
1.19424
1.19351
1.18353
1.16804
1.11164
1.0436
1.19398
1.19369
1.18627
1.17672
1.12118
1.06133
1.19401
1.19391
1.18937
1.18666
1.14116
1.11295
1.19419
1.19395
1.19118
1.19459
1.17853
1.20611
0.482496
0.562237
0.541146
0.55167
0.55265
0.546063
0.534684
0.521575
0.508879
0.497741
0.488454
0.480786
0.474444
0.469264
0.465117
0.461859
0.459328
0.457356
0.455666
0.453791
0.452014
0.454036
0.464679
0.462677
0.689177
0.683893
0.635446
0.623446
0.610206
0.59376
0.575145
0.556624
0.53988
0.525699
0.51407
0.504558
0.496759
0.490437
0.485405
0.481468
0.478416
0.476037
0.474042
0.472005
0.470196
0.471847
0.480994
0.479152
0.820814
0.775818
0.71522
0.687078
0.662323
0.637405
0.612393
0.58902
0.568617
0.551668
0.53789
0.526668
0.517514
0.510131
0.504283
0.499723
0.496194
0.493444
0.491174
0.489004
0.487201
0.488528
0.496167
0.494266
0.899691
0.84353
0.779714
0.741216
0.707876
0.676126
0.645749
0.618224
0.594646
0.57527
0.55958
0.546822
0.536445
0.528105
0.521521
0.516403
0.512444
0.509356
0.506832
0.504542
0.502753
0.503771
0.509898
0.507799
0.953302
0.895011
0.830888
0.785991
0.74654
0.70951
0.674815
0.643871
0.617641
0.596206
0.578871
0.564772
0.553322
0.544142
0.536915
0.531308
0.526968
0.523572
0.52081
0.518402
0.516599
0.517251
0.521928
0.519852
0.993412
0.933985
0.870761
0.822088
0.778435
0.73746
0.699409
0.665751
0.637384
0.614258
0.595548
0.580315
0.567953
0.558061
0.55029
0.544266
0.539596
0.535925
0.532946
0.530425
0.528572
0.528801
0.532141
0.530355
1.02092
0.962643
0.901094
0.850348
0.803904
0.760074
0.719503
0.683767
0.653738
0.629275
0.609455
0.593295
0.580187
0.569713
0.561497
0.555132
0.550186
0.546278
0.543113
0.540492
0.538573
0.538363
0.540559
0.539312
1.03894
0.982892
0.92332
0.871586
0.823371
0.777551
0.73516
0.697898
0.666634
0.641158
0.620476
0.603595
0.589904
0.578977
0.570417
0.563785
0.558618
0.554519
0.551203
0.54851
0.546545
0.545975
0.54722
0.546369
1.04998
0.996257
0.938579
0.88652
0.837261
0.790127
0.74649
0.708172
0.676047
0.64985
0.62854
0.611129
0.597014
0.585759
0.57695
0.570122
0.56479
0.560542
0.55711
0.554365
0.552368
0.551511
0.551996
0.551468
1.05556
1.00381
0.947739
0.895738
0.845949
0.798026
0.753615
0.71464
0.68198
0.655323
0.633601
0.615845
0.601455
0.589989
0.58102
0.574065
0.568618
0.564265
0.560752
0.557973
0.555955
0.554884
0.554814
0.554535
1.05654
1.00627
0.951414
0.899678
0.84973
0.801437
0.756646
0.717355
0.684445
0.657566
0.635636
0.617706
0.603181
0.591616
0.582573
0.575554
0.570045
0.565632
0.562073
0.559278
0.557247
0.556036
0.555631
0.555526
1.0534
1.00405
0.949984
0.898624
0.848804
0.800491
0.75566
0.716355
0.683451
0.656568
0.634623
0.616684
0.602162
0.590609
0.581574
0.574555
0.569036
0.564609
0.561039
0.558243
0.55621
0.554952
0.554429
0.554397
1.04633
0.997304
0.943613
0.892706
0.843264
0.79525
0.750695
0.711657
0.679001
0.652328
0.63056
0.61278
0.598398
0.58696
0.578017
0.571064
0.565592
0.561196
0.557651
0.55487
0.552843
0.551615
0.551198
0.55116
1.0352
0.985967
0.932252
0.881897
0.833098
0.78571
0.741751
0.703268
0.671107
0.644864
0.623471
0.606014
0.591905
0.580693
0.571929
0.56511
0.559735
0.555416
0.55193
0.54918
0.547167
0.546047
0.545954
0.545828
1.01961
0.969713
0.915637
0.866013
0.818185
0.771796
0.728787
0.691171
0.659771
0.63419
0.613373
0.596409
0.582717
0.571847
0.563347
0.556727
0.551505
0.547311
0.543921
0.54122
0.539229
0.538293
0.538729
0.538434
0.998765
0.947951
0.893279
0.844711
0.798295
0.753363
0.711717
0.675323
0.644978
0.620307
0.600283
0.583999
0.570875
0.560465
0.552324
0.545978
0.540972
0.536953
0.533697
0.531063
0.529106
0.52842
0.529574
0.529037
0.971409
0.919763
0.864432
0.817483
0.773096
0.730207
0.690425
0.655669
0.626719
0.603242
0.58425
0.568843
0.556449
0.546627
0.538946
0.532957
0.528231
0.524441
0.521356
0.518811
0.516898
0.516525
0.518562
0.517715
0.935473
0.883819
0.828057
0.783655
0.742172
0.702083
0.664786
0.632167
0.605012
0.583049
0.565351
0.551035
0.53954
0.530441
0.523329
0.517781
0.513405
0.509896
0.507025
0.504593
0.502738
0.502726
0.505785
0.504584
0.887877
0.838328
0.78279
0.742408
0.705046
0.668741
0.634688
0.604796
0.5799
0.559814
0.543694
0.530692
0.520275
0.512042
0.505611
0.500595
0.49664
0.493469
0.490852
0.488561
0.486782
0.487175
0.49137
0.48977
0.82536
0.781208
0.726932
0.692799
0.661238
0.629963
0.600071
0.573589
0.551474
0.533663
0.519422
0.507969
0.498814
0.491591
0.485958
0.481567
0.478106
0.475329
0.473012
0.470894
0.469216
0.470061
0.475488
0.473402
0.742426
0.710175
0.658406
0.633835
0.610348
0.585641
0.560974
0.53867
0.519901
0.504784
0.49273
0.483064
0.475355
0.469288
0.464566
0.460891
0.457995
0.455668
0.453694
0.451781
0.450221
0.45153
0.458269
0.455731
0.624081
0.620665
0.574593
0.564637
0.552194
0.535863
0.517604
0.500296
0.485454
0.473446
0.463882
0.456231
0.450142
0.445365
0.44166
0.438784
0.436516
0.434687
0.433091
0.431408
0.429959
0.431679
0.439767
0.437017
0.44072
0.493759
0.472311
0.484886
0.487064
0.481061
0.470412
0.4589
0.448535
0.440018
0.433218
0.427782
0.423464
0.420094
0.417498
0.415492
0.413908
0.412617
0.411428
0.409995
0.408651
0.410731
0.420145
0.417368
0.148586
0.336351
0.352987
0.395845
0.416129
0.422194
0.420181
0.415129
0.409687
0.40497
0.401151
0.398085
0.395656
0.393783
0.392369
0.391291
0.390435
0.389716
0.388962
0.387804
0.386578
0.388983
0.399665
0.396963
-0.690502
-0.748054
-0.825686
-0.871174
-0.904035
-1.0614
-0.699499
-0.756955
-0.830915
-0.87663
-0.889936
-0.993649
-0.708403
-0.765368
-0.836678
-0.884756
-0.884649
-0.959955
-0.717384
-0.774051
-0.843019
-0.892963
-0.885837
-0.933172
-0.726953
-0.782673
-0.84984
-0.898373
-0.888253
-0.907551
-0.735863
-0.79106
-0.855591
-0.900101
-0.888271
-0.884137
-0.74326
-0.798464
-0.858634
-0.898137
-0.88598
-0.860149
-0.749009
-0.803375
-0.858316
-0.892247
-0.878063
-0.837011
-0.752589
-0.805191
-0.854577
-0.882304
-0.864477
-0.813235
-0.753643
-0.803728
-0.847549
-0.868421
-0.846003
-0.787598
-0.751977
-0.799026
-0.837496
-0.850978
-0.823357
-0.759867
-0.74752
-0.79129
-0.824741
-0.830473
-0.797332
-0.730222
-0.740307
-0.780841
-0.809601
-0.807561
-0.768696
-0.698938
-0.730495
-0.768433
-0.792509
-0.782838
-0.738172
-0.666093
-0.71859
-0.754471
-0.773881
-0.756858
-0.70644
-0.632199
-0.705231
-0.739361
-0.754106
-0.730118
-0.674088
-0.598104
-0.691145
-0.723567
-0.733555
-0.703026
-0.641623
-0.564319
-0.677097
-0.707593
-0.712569
-0.675861
-0.60941
-0.531326
-0.663802
-0.692007
-0.691461
-0.648714
-0.57739
-0.499205
-0.651842
-0.677656
-0.670635
-0.621611
-0.545105
-0.467032
-0.641823
-0.665983
-0.650874
-0.594732
-0.511738
-0.432258
-0.635183
-0.658193
-0.633587
-0.56789
-0.475257
-0.389005
-0.633399
-0.653108
-0.618963
-0.538468
-0.431445
-0.330218
-0.635096
-0.643894
-0.598911
-0.501628
-0.378362
-0.26601
-0.305254
0.140341
0.222984
0.301785
0.341883
0.360888
0.36807
0.369856
0.3696
0.368866
0.368158
0.367556
0.367086
0.366768
0.366583
0.366474
0.366381
0.366261
0.365966
0.365109
0.364023
0.366731
0.378592
0.376022
-0.505094
-0.0517471
0.10069
0.210183
0.26799
0.299299
0.315521
0.324116
0.329058
0.332332
0.334759
0.336639
0.338145
0.339403
0.340468
0.341349
0.342039
0.342537
0.342721
0.342193
0.341278
0.344274
0.357198
0.354795
-0.573253
-0.190023
-0.000930443
0.126858
0.197935
0.239642
0.264018
0.278971
0.288866
0.296006
0.301477
0.305781
0.30923
0.312043
0.314353
0.316226
0.317707
0.318834
0.319512
0.31934
0.318633
0.321909
0.335756
0.33355
-0.61237
-0.283252
-0.0826636
0.053823
0.133866
0.183599
0.214807
0.235366
0.249759
0.260481
0.268811
0.275412
0.280718
0.285035
0.288558
0.291409
0.293676
0.295436
0.296619
0.29683
0.296372
0.299919
0.314532
0.312573
-0.642585
-0.349118
-0.148586
-0.00930484
0.0765205
0.132128
0.168765
0.194031
0.212346
0.226268
0.237196
0.245916
0.252959
0.258697
0.263383
0.267184
0.270226
0.272617
0.274314
0.274931
0.274763
0.278569
0.293779
0.29216
-0.661342
-0.396347
-0.201434
-0.0631814
0.0260014
0.0856502
0.126412
0.155475
0.177085
0.193773
0.206994
0.217621
0.226253
0.233314
0.2391
0.243814
0.247614
0.250632
0.25285
0.253899
0.254056
0.258097
0.273722
0.272615
-0.668083
-0.428852
-0.242829
-0.108213
-0.0178116
0.0442907
0.0880177
0.120015
0.144293
0.163295
0.178486
0.190789
0.200848
0.209124
0.215942
0.221533
0.226075
0.229719
0.232469
0.233976
0.234488
0.238715
0.254551
0.254263
-0.66573
-0.449372
-0.274143
-0.144946
-0.0551955
0.00802563
0.0536879
0.0878266
0.114168
0.135035
0.151868
0.16561
0.17693
0.186311
0.194097
0.200534
0.205815
0.210099
0.213405
0.215405
0.216299
0.220616
0.236401
0.237492
-0.656867
-0.460229
-0.29674
-0.174131
-0.0865143
-0.0232697
0.0234013
0.0589661
0.0868063
0.109105
0.127256
0.142201
0.154617
0.164995
0.173691
0.180959
0.186996
0.191962
0.195887
0.198461
0.199781
0.203987
0.219262
0.222872
-0.642928
-0.463391
-0.31185
-0.196562
-0.11218
-0.0498133
-0.00296351
0.0333983
0.0622185
0.0855388
0.104695
0.120609
0.133953
0.145221
0.154772
0.162867
0.169703
0.17544
0.180121
0.183467
0.185362
0.189028
0.202631
0.211571
-0.624812
-0.460197
-0.32075
-0.212963
-0.132642
-0.0719776
-0.0254869
0.0110341
0.0403424
0.0643034
0.0841637
0.100812
0.114908
0.126941
0.137279
0.146194
0.153883
0.160527
0.166202
0.170722
0.173744
0.176773
0.186676
0.206385
-0.602758
-0.452241
-0.324288
-0.224131
-0.148291
-0.0899992
-0.0445356
-0.00833263
0.0210603
0.0453156
0.0655919
0.0827363
0.0973865
0.110029
0.121034
0.130688
0.139218
0.146819
0.153603
0.15944
0.164273
0.170407
0.183439
0.189261
-0.577733
-0.440114
-0.323159
-0.230848
-0.159649
-0.104235
-0.060309
-0.0248539
0.00424629
0.0284735
0.0488889
0.0662848
0.081268
0.094308
0.105767
0.115923
0.124992
0.133138
0.140393
0.146525
0.151674
0.15919
0.174104
0.167997
-0.550692
-0.424596
-0.31811
-0.233577
-0.167294
-0.115039
-0.0730364
-0.0387074
-0.0102369
0.013671
0.0339676
0.0513791
0.0664721
0.0796908
0.0913788
0.101797
0.111144
0.119556
0.127028
0.13329
0.138608
0.146747
0.162302
0.152146
-0.522268
-0.406441
-0.309806
-0.232786
-0.171676
-0.122788
-0.0829962
-0.0500957
-0.0225349
0.000802497
0.0207526
0.037968
0.0529693
0.066171
0.0778964
0.0883906
0.0978396
0.106375
0.113992
0.120431
0.126022
0.134653
0.150652
0.139402
-0.492903
-0.386303
-0.298857
-0.22907
-0.173156
-0.127817
-0.09046
-0.0592224
-0.0327958
-0.0102358
0.00917672
0.0260168
0.0407559
0.0537776
0.0653856
0.075813
0.0852431
0.0938181
0.101537
0.108147
0.114042
0.123118
0.139507
0.128314
-0.463296
-0.364809
-0.285846
-0.222957
-0.172158
-0.130468
-0.0956979
-0.0662934
-0.0411711
-0.0195494
-0.000825565
0.0154957
0.0298343
0.0425432
0.0539077
0.0641541
0.073476
0.0820201
0.0897695
0.0965111
0.102703
0.112154
0.128865
0.118363
-0.434174
-0.342621
-0.271364
-0.214973
-0.169132
-0.131094
-0.0989856
-0.071521
-0.0478189
-0.0272503
-0.00932566
0.00636895
0.0202003
0.0324898
0.0435069
0.0534777
0.0626047
0.0710205
0.0787084
0.0855275
0.0919603
0.101665
0.118596
0.109224
-0.405903
-0.320325
-0.256018
-0.205667
-0.16454
-0.130057
-0.100607
-0.0751255
-0.0529077
-0.0334616
-0.0164058
-0.00141075
0.0118349
0.023622
0.0342053
0.0438142
0.0526465
0.0608206
0.0683462
0.0751462
0.0816995
0.0914918
0.108478
0.100585
-0.37789
-0.298131
-0.240332
-0.195587
-0.158846
-0.127731
-0.100855
-0.0773376
-0.0566179
-0.0383212
-0.0221639
-0.00790732
0.00469823
0.0159207
0.0260018
0.0351672
0.0436006
0.0514172
0.0586603
0.0653021
0.0718086
0.0814626
0.0982403
0.0921166
-0.348195
-0.275611
-0.224625
-0.185218
-0.152506
-0.124495
-0.100032
-0.0783942
-0.0591381
-0.0419801
-0.0267043
-0.0131781
-0.00125492
0.00934847
0.018872
0.0275228
0.0354619
0.0428123
0.0496427
0.0559629
0.0622187
0.0714421
0.0876197
0.0834825
-0.313893
-0.251544
-0.208878
-0.174892
-0.14593
-0.120724
-0.0984435
-0.0785356
-0.0606619
-0.0446113
-0.0302913
-0.0174991
-0.00615369
0.00381604
0.0127545
0.0208565
0.0282239
0.0350112
0.0413122
0.0471507
0.0529367
0.0613837
0.0764253
0.0743699
-0.272742
-0.225201
-0.193061
-0.164818
-0.139438
-0.116752
-0.0963768
-0.0779902
-0.0613676
-0.0463598
-0.0328989
-0.0208762
-0.0101354
-0.0008213
0.00753829
0.0151309
0.0218694
0.0280139
0.0336961
0.0389418
0.0440815
0.0514067
0.064643
0.064531
-0.227556
-0.19991
-0.17856
-0.155732
-0.133504
-0.112944
-0.094119
-0.0769757
-0.0614035
-0.0472932
-0.0345719
-0.0232334
-0.0131843
-0.00433289
0.00337236
0.0101876
0.0162482
0.021729
0.0267569
0.0313852
0.0358323
0.0418367
0.0526402
0.0538831
)
;

boundaryField
{
    rotor
    {
        type            zeroGradient;
    }
    freestream
    {
        type            freestreamPressure;
        freestreamValue uniform 0;
        supersonic      false;
        value           nonuniform List<scalar> 
96
(
0.00518462
0.00349019
0.00215238
0.00114297
0.000658378
0.000493882
0.000375276
0.000221151
0.000187853
8.26383e-05
4.57796e-05
-0.000566136
-0.00227922
-0.00288542
-0.00242105
-0.00191967
-0.00154679
-0.00111193
-0.000829749
-0.000346464
0.000383171
0.00141239
0.00283166
0.00478703
0.00741026
0.0108084
0.0150788
0.0203159
0.0266249
0.0341207
0.0429184
0.0531403
0.064935
0.0785107
0.0942533
0.113098
0.134171
0.147713
0.163779
0.182741
0.203902
0.226637
0.250611
0.275536
0.301148
0.327178
0.353335
0.379299
0.404725
0.429231
0.452301
0.473539
0.492855
0.510017
0.52488
0.536964
0.546099
0.552115
0.554907
0.554396
0.550594
0.543539
0.533329
0.520109
0.504076
0.485484
0.464615
0.441769
0.417367
0.391837
0.365463
0.338589
0.311582
0.284817
0.258651
0.233425
0.209446
0.186983
0.166265
0.147509
0.130975
0.117178
0.107372
0.0924467
0.0765422
0.0643399
0.0544289
0.0459982
0.0387273
0.0324133
0.0268925
0.0220304
0.0177226
0.0138978
0.010517
0.00757676
)
;
    }
    frontAndBack
    {
        type            empty;
    }
}


// ************************************************************************* //
