/*--------------------------------*- C++ -*----------------------------------*\
  =========                 |
  \\      /  F ield         | OpenFOAM: The Open Source CFD Toolbox
   \\    /   O peration     | Website:  https://openfoam.org
    \\  /    A nd           | Version:  11
     \\/     M anipulation  |
\*---------------------------------------------------------------------------*/
FoamFile
{
    format      ascii;
    class       surfaceScalarField;
    location    "0.38";
    object      phi;
}
// * * * * * * * * * * * * * * * * * * * * * * * * * * * * * * * * * * * * * //

dimensions      [0 3 -1 0 0 0 0];

internalField   nonuniform List<scalar> 
5640
(
9.5271e-08
-9.5271e-08
3.78976e-07
-2.83705e-07
7.903e-07
-4.11324e-07
1.36482e-06
-5.74515e-07
2.03369e-06
-6.68869e-07
-6.00507e-07
2.63419e-06
1.7588e-07
-2.71151e-07
4.69586e-07
-5.77412e-07
8.60656e-07
-8.02393e-07
1.32846e-06
-1.04232e-06
1.84667e-06
-1.18708e-06
-1.04604e-06
2.2922e-06
2.02456e-07
-4.73607e-07
4.74831e-07
-8.49787e-07
8.16496e-07
-1.14406e-06
1.19035e-06
-1.41617e-06
1.57612e-06
-1.57286e-06
-1.42439e-06
1.95448e-06
2.1315e-07
-6.86757e-07
4.53883e-07
-1.09052e-06
7.35977e-07
-1.42615e-06
1.02216e-06
-1.70235e-06
1.30302e-06
-1.85372e-06
-1.72938e-06
1.60801e-06
2.14932e-07
-9.01689e-07
4.15943e-07
-1.29153e-06
6.35098e-07
-1.64531e-06
8.39746e-07
-1.907e-06
1.02962e-06
-2.04359e-06
-1.94695e-06
1.24719e-06
2.08517e-07
-1.11021e-06
3.64886e-07
-1.4479e-06
5.21584e-07
-1.80201e-06
6.5093e-07
-2.03634e-06
7.57879e-07
-2.15054e-06
-2.07377e-06
8.84691e-07
1.88443e-07
-1.29865e-06
3.02665e-07
-1.56212e-06
4.01002e-07
-1.90034e-06
4.61896e-07
-2.09724e-06
4.93132e-07
-2.18178e-06
-2.11367e-06
5.3304e-07
1.45495e-07
-1.44414e-06
2.31095e-07
-1.64772e-06
2.78117e-07
-1.94736e-06
2.78251e-07
-2.09737e-06
2.42043e-07
-2.14557e-06
-2.07478e-06
2.03145e-07
1.01666e-07
-1.54581e-06
1.55651e-07
-1.70171e-06
1.57437e-07
-1.94915e-06
1.05012e-07
-2.04495e-06
1.08756e-08
-2.05143e-06
-1.96849e-06
-9.54148e-08
5.84321e-08
-1.60424e-06
8.04473e-08
-1.72372e-06
4.28566e-08
-1.91156e-06
-5.35358e-08
-1.94856e-06
-1.94857e-07
-1.91011e-06
-1.80855e-06
-3.54794e-07
1.65924e-08
-1.62084e-06
8.18268e-09
-1.71531e-06
-6.25996e-08
-1.84078e-06
-1.94174e-07
-1.81698e-06
-3.71333e-07
-1.73295e-06
-1.61054e-06
-5.69344e-07
-2.28952e-08
-1.59794e-06
-5.90839e-08
-1.67912e-06
-1.56815e-07
-1.74305e-06
-3.14795e-07
-1.659e-06
-5.16088e-07
-1.53166e-06
-1.39076e-06
-7.35865e-07
-5.90656e-08
-1.53887e-06
-1.19974e-07
-1.61821e-06
-2.3851e-07
-1.62451e-06
-4.14379e-07
-1.48313e-06
-6.28404e-07
-1.31763e-06
-1.16539e-06
-8.53772e-07
-9.13863e-08
-1.44749e-06
-1.73551e-07
-1.53605e-06
-3.07131e-07
-1.49093e-06
-4.92963e-07
-1.2973e-06
-7.09221e-07
-1.10137e-06
-9.49491e-07
-9.25125e-07
-1.19253e-07
-1.32824e-06
-2.19303e-07
-1.436e-06
-3.62761e-07
-1.34747e-06
-5.51507e-07
-1.10855e-06
-7.61008e-07
-8.91873e-07
-7.55956e-07
-9.54543e-07
-1.42208e-07
-1.18603e-06
-2.57033e-07
-1.32117e-06
-4.06011e-07
-1.19849e-06
-5.91714e-07
-9.2285e-07
-7.87481e-07
-6.96107e-07
-5.94617e-07
-9.4882e-07
-1.59901e-07
-1.02613e-06
-2.86773e-07
-1.1943e-06
-4.37909e-07
-1.04736e-06
-6.15799e-07
-7.4496e-07
-7.93177e-07
-5.18729e-07
-4.71316e-07
-9.16478e-07
-1.71959e-07
-8.54168e-07
-3.08625e-07
-1.05764e-06
-4.59782e-07
-8.962e-07
-6.26252e-07
-5.7849e-07
-7.8272e-07
-3.62261e-07
-3.87006e-07
-8.67029e-07
-1.75276e-07
-6.78892e-07
-3.22613e-07
-9.103e-07
-4.7316e-07
-7.45654e-07
-6.25453e-07
-4.26198e-07
-7.6016e-07
-2.27554e-07
-3.36765e-07
-8.10402e-07
-1.70147e-07
-5.08745e-07
-3.29866e-07
-7.50581e-07
-4.79787e-07
-5.95733e-07
-6.15107e-07
-2.90877e-07
-7.28575e-07
-1.14086e-07
-3.09719e-07
-7.55621e-07
-1.6119e-07
-3.47555e-07
-3.3303e-07
-5.7874e-07
-4.81408e-07
-4.47355e-07
-5.95935e-07
-1.7635e-07
-6.88396e-07
-2.16241e-08
-2.88692e-07
-7.09423e-07
-1.49144e-07
-1.98411e-07
-3.32557e-07
-3.95327e-07
-4.79147e-07
-3.00766e-07
-5.67129e-07
-8.83683e-08
-6.33179e-07
4.4426e-08
-2.48006e-07
-6.73866e-07
-1.28634e-07
-6.97765e-08
-3.24832e-07
-1.99129e-07
-4.70454e-07
-1.55144e-07
-5.25162e-07
-3.36605e-08
-5.44537e-07
6.38016e-08
-1.55031e-07
-6.37512e-07
-6.97765e-08
-2.68905e-07
-4.2405e-07
-4.5771e-07
-3.93909e-07
-5.4894e-07
5.06637e-06
3.41439e-06
-5.84656e-06
8.25956e-06
7.96762e-06
-1.11608e-05
1.16291e-05
1.10685e-05
-1.4438e-05
1.50178e-05
1.30475e-05
-1.64362e-05
1.8373e-05
1.42201e-05
-1.75753e-05
2.16436e-05
1.4841e-05
-1.81116e-05
2.47994e-05
1.50684e-05
-1.82242e-05
2.78245e-05
1.50257e-05
-1.80508e-05
3.07178e-05
1.47961e-05
-1.76894e-05
3.3487e-05
1.44391e-05
-1.72083e-05
3.61408e-05
1.40078e-05
-1.66617e-05
3.86861e-05
1.35307e-05
-1.6076e-05
4.11393e-05
1.30196e-05
-1.54727e-05
4.35125e-05
1.24995e-05
-1.48727e-05
4.58092e-05
1.19824e-05
-1.42791e-05
4.80253e-05
1.14696e-05
-1.36856e-05
5.01567e-05
1.09587e-05
-1.309e-05
5.21969e-05
1.04457e-05
-1.2486e-05
5.41395e-05
9.91993e-06
-1.18625e-05
5.5973e-05
9.37089e-06
-1.12044e-05
5.76803e-05
8.78247e-06
-1.04898e-05
5.92377e-05
8.12743e-06
-9.68481e-06
6.06279e-05
7.31798e-06
-8.70817e-06
6.22906e-06
-7.37703e-06
4.36748e-06
1.33911e-06
7.41535e-06
4.91974e-06
1.07859e-05
7.69799e-06
1.42482e-05
9.58522e-06
1.77324e-05
1.07358e-05
2.12002e-05
1.13732e-05
2.46198e-05
1.16489e-05
2.79562e-05
1.16893e-05
3.11878e-05
1.15645e-05
3.43052e-05
1.13217e-05
3.73144e-05
1.09987e-05
4.02157e-05
1.06294e-05
4.30104e-05
1.02248e-05
4.57123e-05
9.7976e-06
4.83352e-05
9.35955e-06
5.08761e-05
8.92864e-06
5.33256e-05
8.50909e-06
5.56743e-05
8.0971e-06
5.79121e-05
7.68206e-06
6.00343e-05
7.24868e-06
6.20302e-05
6.78667e-06
6.38811e-05
6.2765e-06
6.5536e-05
5.66301e-06
4.85541e-06
3.44647e-06
-1.52877e-07
5.96997e-06
2.39624e-06
9.03098e-06
4.63698e-06
1.23505e-05
6.26566e-06
1.57847e-05
7.3017e-06
1.92811e-05
7.87678e-06
2.28163e-05
8.11366e-06
2.63706e-05
8.13498e-06
2.99254e-05
8.00963e-06
3.34439e-05
7.80329e-06
3.68929e-05
7.54962e-06
4.02637e-05
7.25862e-06
4.35465e-05
6.94199e-06
4.67321e-05
6.61207e-06
4.98083e-05
6.28333e-06
5.27711e-05
5.96583e-06
5.5625e-05
5.6552e-06
5.83763e-05
5.34582e-06
6.10162e-05
5.04209e-06
6.35318e-05
4.73311e-06
6.59105e-05
4.40797e-06
6.81493e-05
4.03768e-06
7.01604e-05
3.65198e-06
3.14747e-06
2.61844e-06
-1.16331e-06
4.45007e-06
5.64614e-07
6.87351e-06
2.21354e-06
9.66607e-06
3.4731e-06
1.26725e-05
4.29531e-06
1.58231e-05
4.72616e-06
1.90814e-05
4.8553e-06
2.2442e-05
4.77444e-06
2.59087e-05
4.54288e-06
2.94901e-05
4.22194e-06
3.3174e-05
3.86567e-06
3.69295e-05
3.50311e-06
4.07191e-05
3.15238e-06
4.45001e-05
2.83112e-06
4.82357e-05
2.54775e-06
5.18976e-05
2.30391e-06
5.54524e-05
2.1004e-06
5.88657e-05
1.93253e-06
6.21197e-05
1.78811e-06
6.52068e-05
1.64599e-06
6.81242e-05
1.49053e-06
7.08765e-05
1.28541e-06
7.34734e-05
1.05508e-06
8.53214e-07
1.91456e-06
-1.83068e-06
3.14894e-06
-6.69765e-07
4.88431e-06
4.78168e-07
6.98527e-06
1.37213e-06
9.33559e-06
1.94499e-06
1.18657e-05
2.19603e-06
1.45395e-05
2.18152e-06
1.73532e-05
1.96077e-06
2.03127e-05
1.58338e-06
2.34249e-05
1.10969e-06
2.67002e-05
5.90416e-07
3.01483e-05
5.49704e-08
3.37731e-05
-4.72377e-07
3.75691e-05
-9.64852e-07
4.15154e-05
-1.3986e-06
4.55765e-05
-1.75721e-06
4.97069e-05
-2.03e-06
5.38541e-05
-2.21459e-06
5.79594e-05
-2.31727e-06
6.19579e-05
-2.35245e-06
6.5793e-05
-2.34457e-06
6.94029e-05
-2.32456e-06
7.28382e-05
-2.38023e-06
-2.36099e-06
1.29366e-06
-2.23965e-06
2.07695e-06
-1.45305e-06
3.23168e-06
-6.76562e-07
4.68834e-06
-8.4534e-08
6.3762e-06
2.57126e-07
8.24001e-06
3.32225e-07
1.02525e-05
1.69039e-07
1.24089e-05
-1.95619e-07
1.4713e-05
-7.20711e-07
1.71767e-05
-1.35405e-06
1.98196e-05
-2.05249e-06
2.26602e-05
-2.78563e-06
2.57089e-05
-3.52105e-06
2.89682e-05
-4.22418e-06
3.24385e-05
-4.86891e-06
3.61141e-05
-5.43279e-06
3.99786e-05
-5.89448e-06
4.40069e-05
-6.24293e-06
4.81641e-05
-6.4744e-06
5.24018e-05
-6.59021e-06
5.66616e-05
-6.60437e-06
6.08665e-05
-6.52939e-06
6.49425e-05
-6.45622e-06
-6.36194e-06
7.35537e-07
-2.44214e-06
1.17998e-06
-1.89749e-06
1.88162e-06
-1.3782e-06
2.80806e-06
-1.01097e-06
3.91908e-06
-8.53894e-07
5.17896e-06
-9.27664e-07
6.56969e-06
-1.22169e-06
8.08644e-06
-1.71237e-06
9.73325e-06
-2.36751e-06
1.15254e-05
-3.14621e-06
1.34847e-05
-4.01176e-06
1.56306e-05
-4.93153e-06
1.79789e-05
-5.86936e-06
2.05439e-05
-6.78917e-06
2.33347e-05
-7.65976e-06
2.63508e-05
-8.44885e-06
2.95855e-05
-9.12918e-06
3.30272e-05
-9.68466e-06
3.6655e-05
-1.01022e-05
4.04387e-05
-1.03739e-05
4.43385e-05
-1.05042e-05
4.83172e-05
-1.05081e-05
5.23174e-05
-1.04564e-05
-1.0474e-05
2.38349e-07
-2.47735e-06
4.24395e-07
-2.08354e-06
7.78783e-07
-1.73259e-06
1.28696e-06
-1.51915e-06
1.92574e-06
-1.49267e-06
2.67314e-06
-1.67507e-06
3.51755e-06
-2.06609e-06
4.45536e-06
-2.65018e-06
5.49257e-06
-3.40472e-06
6.6455e-06
-4.29914e-06
7.93578e-06
-5.30205e-06
9.38503e-06
-6.38078e-06
1.10148e-05
-7.49912e-06
1.28459e-05
-8.6203e-06
1.48944e-05
-9.70822e-06
1.71687e-05
-1.07232e-05
1.96707e-05
-1.16312e-05
2.23957e-05
-1.24096e-05
2.53325e-05
-1.3039e-05
2.84656e-05
-1.3507e-05
3.1778e-05
-1.38166e-05
3.52629e-05
-1.3993e-05
3.89149e-05
-1.41085e-05
-1.43099e-05
-1.9252e-07
-2.38024e-06
-2.01686e-07
-2.07437e-06
-1.0838e-07
-1.8259e-06
7.99415e-08
-1.70747e-06
3.48384e-07
-1.76111e-06
6.82428e-07
-2.00912e-06
1.07482e-06
-2.45849e-06
1.52287e-06
-3.09823e-06
2.03405e-06
-3.9159e-06
2.62465e-06
-4.88973e-06
3.31662e-06
-5.99402e-06
4.13492e-06
-7.19908e-06
5.10659e-06
-8.47079e-06
6.25807e-06
-9.77177e-06
7.61172e-06
-1.10619e-05
9.18454e-06
-1.2296e-05
1.09847e-05
-1.34313e-05
1.30139e-05
-1.44388e-05
1.52696e-05
-1.52947e-05
1.77456e-05
-1.5983e-05
2.044e-05
-1.6511e-05
2.33667e-05
-1.69197e-05
2.65509e-05
-1.72927e-05
-1.77341e-05
-5.50137e-07
-2.1849e-06
-6.99089e-07
-1.92542e-06
-7.91642e-07
-1.73334e-06
-8.33452e-07
-1.66566e-06
-8.35599e-07
-1.75896e-06
-8.09588e-07
-2.03513e-06
-7.59285e-07
-2.50879e-06
-6.86696e-07
-3.17082e-06
-5.83311e-07
-4.01929e-06
-4.33008e-07
-5.04004e-06
-2.12366e-07
-6.21466e-06
1.08302e-07
-7.51975e-06
5.62373e-07
-8.92486e-06
1.18403e-06
-1.03934e-05
2.00533e-06
-1.18832e-05
3.05365e-06
-1.33443e-05
4.33992e-06
-1.47176e-05
5.87248e-06
-1.59713e-05
7.65361e-06
-1.70758e-05
9.67151e-06
-1.80009e-05
1.1907e-05
-1.87464e-05
1.43261e-05
-1.93388e-05
1.68829e-05
-1.98495e-05
-2.04031e-05
-8.2861e-07
-1.92563e-06
-1.06494e-06
-1.68909e-06
-1.27269e-06
-1.52559e-06
-1.45781e-06
-1.48055e-06
-1.63001e-06
-1.58676e-06
-1.79837e-06
-1.86676e-06
-1.96513e-06
-2.34203e-06
-2.12996e-06
-3.00599e-06
-2.27988e-06
-3.86936e-06
-2.39111e-06
-4.92881e-06
-2.43189e-06
-6.17389e-06
-2.36677e-06
-7.58487e-06
-2.15888e-06
-9.13275e-06
-1.77132e-06
-1.0781e-05
-1.16929e-06
-1.24852e-05
-3.21241e-07
-1.41924e-05
8.00131e-07
-1.5839e-05
2.21791e-06
-1.73891e-05
3.9262e-06
-1.87841e-05
5.92143e-06
-1.99962e-05
8.17478e-06
-2.09998e-05
1.06148e-05
-2.17788e-05
1.31171e-05
-2.23519e-05
-2.28801e-05
-1.02455e-06
-1.63694e-06
-1.29721e-06
-1.41643e-06
-1.55139e-06
-1.27142e-06
-1.7931e-06
-1.23883e-06
-2.02914e-06
-1.35073e-06
-2.26388e-06
-1.63202e-06
-2.49673e-06
-2.10918e-06
-2.72105e-06
-2.78167e-06
-2.9202e-06
-3.67021e-06
-3.07182e-06
-4.77719e-06
-3.14861e-06
-6.09709e-06
-3.11671e-06
-7.61677e-06
-2.93627e-06
-9.31319e-06
-2.56513e-06
-1.11521e-05
-1.96383e-06
-1.30865e-05
-1.09512e-06
-1.50611e-05
1.00454e-07
-1.70346e-05
1.65979e-06
-1.89485e-05
3.6072e-06
-2.07315e-05
5.94919e-06
-2.23382e-05
8.6823e-06
-2.37329e-05
1.17928e-05
-2.48893e-05
1.52357e-05
-2.57949e-05
-2.64401e-05
-1.13798e-06
-1.35274e-06
-1.39721e-06
-1.1572e-06
-1.62952e-06
-1.03911e-06
-1.8399e-06
-1.02845e-06
-2.03414e-06
-1.15649e-06
-2.2145e-06
-1.45167e-06
-2.38043e-06
-1.94325e-06
-2.52147e-06
-2.64064e-06
-2.62198e-06
-3.5697e-06
-2.65791e-06
-4.74126e-06
-2.59448e-06
-6.16053e-06
-2.38746e-06
-7.82379e-06
-1.98771e-06
-9.71294e-06
-1.33967e-06
-1.18002e-05
-3.79565e-07
-1.40466e-05
9.24414e-07
-1.6365e-05
2.60956e-06
-1.87197e-05
4.696e-06
-2.10349e-05
7.21015e-06
-2.32456e-05
1.01716e-05
-2.52996e-05
1.35971e-05
-2.71584e-05
1.75073e-05
-2.87995e-05
2.18885e-05
-3.0176e-05
-3.1016e-05
-1.17254e-06
-1.10533e-06
-1.3713e-06
-9.58431e-07
-1.51972e-06
-8.90694e-07
-1.62129e-06
-9.26882e-07
-1.67705e-06
-1.10073e-06
-1.68459e-06
-1.44413e-06
-1.63941e-06
-1.98843e-06
-1.524e-06
-2.75604e-06
-1.31713e-06
-3.77656e-06
-9.87622e-07
-5.07077e-06
-4.96045e-07
-6.6521e-06
2.02614e-07
-8.52245e-06
1.15881e-06
-1.06691e-05
2.41629e-06
-1.30577e-05
3.99938e-06
-1.56297e-05
5.95381e-06
-1.83195e-05
8.28923e-06
-2.10551e-05
1.10136e-05
-2.37593e-05
1.41262e-05
-2.63583e-05
1.76231e-05
-2.87965e-05
2.15059e-05
-3.10412e-05
2.57787e-05
-3.30724e-05
3.04389e-05
-3.48362e-05
-3.59356e-05
-1.13614e-06
-9.23731e-07
-1.23319e-06
-8.61377e-07
-1.24163e-06
-8.82259e-07
-1.16015e-06
-1.00835e-06
-9.84364e-07
-1.27652e-06
-7.05375e-07
-1.72312e-06
-3.09922e-07
-2.38388e-06
2.25517e-07
-3.29148e-06
9.29406e-07
-4.48045e-06
1.83686e-06
-5.97823e-06
2.9863e-06
-7.80154e-06
4.41515e-06
-9.9513e-06
6.15344e-06
-1.24074e-05
8.21998e-06
-1.51242e-05
1.06285e-05
-1.80382e-05
1.33797e-05
-2.10707e-05
1.64626e-05
-2.41381e-05
1.98542e-05
-2.71509e-05
2.35269e-05
-3.0031e-05
2.74488e-05
-3.27184e-05
3.15762e-05
-3.51686e-05
3.58501e-05
-3.73463e-05
4.02274e-05
-3.92135e-05
-4.04988e-05
-1.04011e-06
-8.32444e-07
-9.99846e-07
-9.01639e-07
-8.20182e-07
-1.06192e-06
-4.94301e-07
-1.33424e-06
-1.0312e-08
-1.7605e-06
6.48664e-07
-2.3821e-06
1.50481e-06
-3.24003e-06
2.58703e-06
-4.37371e-06
3.92675e-06
-5.82016e-06
5.55538e-06
-7.60686e-06
7.49949e-06
-9.74565e-06
9.78005e-06
-1.22319e-05
1.2394e-05
-1.50213e-05
1.5339e-05
-1.80692e-05
1.85962e-05
-2.12953e-05
2.21368e-05
-2.46113e-05
2.59191e-05
-2.79204e-05
2.98954e-05
-3.11272e-05
3.40146e-05
-3.41502e-05
3.8211e-05
-3.69148e-05
4.23977e-05
-3.93553e-05
4.64657e-05
-4.14143e-05
5.03097e-05
-4.30575e-05
-4.42377e-05
-8.97613e-07
-8.51309e-07
-6.91869e-07
-1.10738e-06
-2.87411e-07
-1.46638e-06
3.28997e-07
-1.95064e-06
1.17684e-06
-2.60835e-06
2.28018e-06
-3.48544e-06
3.66634e-06
-4.62619e-06
5.36428e-06
-6.07165e-06
7.39969e-06
-7.85558e-06
9.79059e-06
-9.99776e-06
1.25432e-05
-1.24983e-05
1.56429e-05
-1.53315e-05
1.90713e-05
-1.84497e-05
2.27892e-05
-2.17872e-05
2.67508e-05
-2.52569e-05
3.08958e-05
-2.87564e-05
3.51532e-05
-3.21778e-05
3.94541e-05
-3.5428e-05
4.37171e-05
-3.84132e-05
4.78485e-05
-4.10462e-05
5.1745e-05
-4.32518e-05
5.52888e-05
-4.49581e-05
5.83972e-05
-4.61659e-05
-4.69884e-05
-7.2316e-07
-9.95178e-07
-3.3156e-07
-1.49898e-06
3.23024e-07
-2.12096e-06
1.25998e-06
-2.8876e-06
2.50484e-06
-3.85321e-06
4.08471e-06
-5.0653e-06
6.02513e-06
-6.5666e-06
8.34683e-06
-8.39335e-06
1.10599e-05
-1.05686e-05
1.41603e-05
-1.30982e-05
1.76272e-05
-1.59652e-05
2.1423e-05
-1.91273e-05
2.54991e-05
-2.25258e-05
2.97875e-05
-2.60756e-05
3.42064e-05
-2.96758e-05
3.8668e-05
-3.3218e-05
4.30855e-05
-3.65953e-05
4.73601e-05
-3.97026e-05
5.13862e-05
-4.24392e-05
5.5067e-05
-4.47271e-05
5.83177e-05
-4.65025e-05
6.10538e-05
-4.76942e-05
6.33134e-05
-4.84255e-05
-4.87725e-05
-5.30969e-07
-1.27461e-06
6.07905e-08
-2.09074e-06
9.79788e-07
-3.03996e-06
2.25311e-06
-4.16091e-06
3.90796e-06
-5.50807e-06
5.96837e-06
-7.12571e-06
8.44969e-06
-9.04793e-06
1.13569e-05
-1.13006e-05
1.46775e-05
-1.38892e-05
1.83842e-05
-1.68048e-05
2.24303e-05
-2.00113e-05
2.67537e-05
-2.34508e-05
3.12683e-05
-2.70404e-05
3.58743e-05
-3.06816e-05
4.04713e-05
-3.42727e-05
4.49528e-05
-3.76995e-05
4.92051e-05
-4.08476e-05
5.31124e-05
-4.36098e-05
5.65765e-05
-4.59034e-05
5.95302e-05
-4.76807e-05
6.19335e-05
-4.89057e-05
6.38751e-05
-4.96358e-05
6.54396e-05
-4.999e-05
-4.98307e-05
-3.33676e-07
-1.69656e-06
4.64968e-07
-2.88939e-06
1.65692e-06
-4.23192e-06
3.27206e-06
-5.77605e-06
5.33525e-06
-7.57126e-06
7.86026e-06
-9.65072e-06
1.08464e-05
-1.20341e-05
1.42753e-05
-1.47295e-05
1.81146e-05
-1.77285e-05
2.23098e-05
-2.1e-05
2.67792e-05
-2.44807e-05
3.14234e-05
-2.8095e-05
3.61327e-05
-3.17498e-05
4.07952e-05
-3.5344e-05
4.52863e-05
-3.87638e-05
4.94734e-05
-4.18866e-05
5.3236e-05
-4.46103e-05
5.64822e-05
-4.68561e-05
5.91665e-05
-4.85877e-05
6.12937e-05
-4.9808e-05
6.29449e-05
-5.0557e-05
6.42317e-05
-5.09226e-05
6.51711e-05
-5.09294e-05
-5.04097e-05
-1.41737e-07
-2.26424e-06
8.6966e-07
-3.90078e-06
2.3366e-06
-5.69886e-06
4.29294e-06
-7.73239e-06
6.75544e-06
-1.00337e-05
9.7193e-06
-1.26146e-05
1.31626e-05
-1.54773e-05
1.70454e-05
-1.86123e-05
2.13024e-05
-2.19855e-05
2.58325e-05
-2.55301e-05
3.05265e-05
-2.91747e-05
3.52682e-05
-3.28367e-05
3.9928e-05
-3.64095e-05
4.43635e-05
-3.97795e-05
4.84337e-05
-4.28341e-05
5.20167e-05
-4.54696e-05
5.50247e-05
-4.76182e-05
5.74409e-05
-4.92723e-05
5.93191e-05
-5.04659e-05
6.07431e-05
-5.12319e-05
6.18175e-05
-5.16314e-05
6.26193e-05
-5.17244e-05
6.32064e-05
-5.15164e-05
-5.07946e-05
3.35661e-08
-2.97167e-06
1.26575e-06
-5.13297e-06
3.01012e-06
-7.44323e-06
5.3068e-06
-1.00291e-05
8.15582e-06
-1.28828e-05
1.15305e-05
-1.59892e-05
1.5382e-05
-1.93289e-05
1.9628e-05
-2.28583e-05
2.41515e-05
-2.6509e-05
2.88319e-05
-3.02105e-05
3.35426e-05
-3.38854e-05
3.81359e-05
-3.743e-05
4.24578e-05
-4.07314e-05
4.63663e-05
-4.3688e-05
4.97248e-05
-4.61926e-05
5.24692e-05
-4.82139e-05
5.46371e-05
-4.97862e-05
5.63172e-05
-5.09524e-05
5.75889e-05
-5.17376e-05
5.85494e-05
-5.21924e-05
5.92887e-05
-5.23707e-05
5.98724e-05
-5.23081e-05
6.03277e-05
-5.19717e-05
-5.11379e-05
2.15621e-07
-3.82481e-06
1.65226e-06
-6.56961e-06
3.67859e-06
-9.46956e-06
6.31705e-06
-1.26675e-05
9.54211e-06
-1.61078e-05
1.32935e-05
-1.97406e-05
1.7469e-05
-2.35045e-05
2.19355e-05
-2.73248e-05
2.65557e-05
-3.11292e-05
3.1185e-05
-3.48397e-05
3.56582e-05
-3.83586e-05
3.98133e-05
-4.15852e-05
4.35053e-05
-4.44233e-05
4.66052e-05
-4.67879e-05
4.91003e-05
-4.86876e-05
5.10818e-05
-5.01955e-05
5.26289e-05
-5.13332e-05
5.3812e-05
-5.21356e-05
5.47213e-05
-5.26469e-05
5.54373e-05
-5.29083e-05
5.60266e-05
-5.296e-05
5.65258e-05
-5.28073e-05
5.69481e-05
-5.23939e-05
-5.1502e-05
3.9861e-07
-4.77236e-06
2.02968e-06
-8.20067e-06
4.35213e-06
-1.1792e-05
7.33885e-06
-1.56542e-05
1.09198e-05
-1.96888e-05
1.49729e-05
-2.37937e-05
1.93418e-05
-2.78733e-05
2.38656e-05
-3.18486e-05
2.83776e-05
-3.56411e-05
3.26964e-05
-3.91585e-05
3.66566e-05
-4.23188e-05
4.0114e-05
-4.50427e-05
4.29719e-05
-4.72812e-05
4.52681e-05
-4.90842e-05
4.71119e-05
-5.05314e-05
4.85548e-05
-5.16384e-05
4.96734e-05
-5.24518e-05
5.05505e-05
-5.30127e-05
5.12554e-05
-5.33518e-05
5.18492e-05
-5.35022e-05
5.23723e-05
-5.34831e-05
5.28448e-05
-5.32799e-05
5.32728e-05
-5.2822e-05
-5.19072e-05
-4.05876e-07
4.05876e-07
-1.27349e-06
8.6761e-07
-2.13342e-06
8.59938e-07
-2.56484e-06
4.31418e-07
-2.28799e-06
-2.76853e-07
-1.44863e-06
-8.39361e-07
-6.1873e-07
1.02461e-06
-1.43287e-06
1.68175e-06
-2.08319e-06
1.51026e-06
-2.36342e-06
7.11648e-07
-2.01608e-06
-6.24196e-07
-2.57238e-06
-8.92323e-07
-6.5252e-07
1.67713e-06
-1.3709e-06
2.40014e-06
-1.90645e-06
2.04581e-06
-2.07929e-06
8.84481e-07
-1.72864e-06
-9.74848e-07
-3.47601e-06
-8.2501e-07
-6.5792e-07
2.33505e-06
-1.27361e-06
3.01582e-06
-1.7118e-06
2.484e-06
-1.81329e-06
9.85975e-07
-1.46707e-06
-1.32107e-06
-4.29177e-06
-6.51309e-07
-6.5183e-07
2.98688e-06
-1.1662e-06
3.53019e-06
-1.51636e-06
2.83416e-06
-1.56756e-06
1.03718e-06
-1.2207e-06
-1.66793e-06
-5.0961e-06
-4.16367e-07
-6.1275e-07
3.59963e-06
-1.0434e-06
3.96084e-06
-1.32149e-06
3.11225e-06
-1.33609e-06
1.05177e-06
-9.82992e-07
-2.02103e-06
-5.92e-06
-1.59095e-07
-5.51617e-07
4.15124e-06
-9.07871e-07
4.31709e-06
-1.12611e-06
3.33049e-06
-1.11562e-06
1.04129e-06
-7.57017e-07
-2.37963e-06
-6.7688e-06
9.17825e-08
-4.76064e-07
4.62731e-06
-7.62772e-07
4.6038e-06
-9.30793e-07
3.49851e-06
-9.05229e-07
1.01572e-06
-5.48894e-07
-2.73597e-06
-7.62577e-06
3.08078e-07
-3.90098e-07
5.01741e-06
-6.09948e-07
4.82365e-06
-7.35607e-07
3.62417e-06
-7.0485e-07
9.84966e-07
-3.6385e-07
-3.07697e-06
-8.46884e-06
4.79218e-07
-2.95849e-07
5.31325e-06
-4.50642e-07
4.97844e-06
-5.40252e-07
3.71378e-06
-5.14338e-07
9.59052e-07
-2.0599e-07
-3.38532e-06
-9.26805e-06
5.93226e-07
-1.95051e-07
5.50831e-06
-2.85764e-07
5.06916e-06
-3.4407e-07
3.77209e-06
-3.33088e-07
9.4807e-07
-7.84123e-08
-3.63999e-06
-9.98981e-06
6.43339e-07
-8.92708e-08
5.59758e-06
-1.16125e-07
5.09601e-06
-1.46103e-07
3.80207e-06
-1.59283e-07
9.6125e-07
1.35653e-08
-3.81284e-06
-1.06039e-05
6.27674e-07
2.03724e-08
5.5772e-06
5.74835e-08
5.0589e-06
5.46304e-08
3.80492e-06
1.29831e-08
1.0029e-06
9.33166e-08
-3.89317e-06
-1.10615e-05
5.50893e-07
1.30382e-07
5.44682e-06
2.34818e-07
4.95446e-06
2.60696e-07
3.77904e-06
1.82524e-07
1.08107e-06
1.49705e-07
-3.86035e-06
-1.13334e-05
4.21575e-07
2.40998e-07
5.20582e-06
4.14111e-07
4.78135e-06
4.71944e-07
3.72121e-06
3.60046e-07
1.19297e-06
1.97731e-07
-3.69804e-06
-1.1391e-05
2.55381e-07
3.50841e-07
4.85498e-06
5.9384e-07
4.53835e-06
6.89428e-07
3.62562e-06
5.50961e-07
1.33143e-06
2.50986e-07
-3.39806e-06
-1.12192e-05
7.91454e-08
4.61694e-07
4.39329e-06
7.71656e-07
4.22839e-06
9.12782e-07
3.4845e-06
7.62554e-07
1.48166e-06
3.24635e-07
-2.96015e-06
-1.07782e-05
-1.16377e-07
5.8714e-07
3.80615e-06
9.41911e-07
3.87362e-06
1.13996e-06
3.28644e-06
1.00189e-06
1.61974e-06
4.39496e-07
-2.39775e-06
-1.00306e-05
-3.08017e-07
6.65964e-07
3.14018e-06
1.09186e-06
3.44772e-06
1.36763e-06
3.01067e-06
1.27423e-06
1.71314e-06
6.19522e-07
-1.74305e-06
-8.96628e-06
-4.44839e-07
6.98655e-07
2.44153e-06
1.21769e-06
2.92869e-06
1.59266e-06
2.6357e-06
1.58116e-06
1.72464e-06
8.89157e-07
-1.05105e-06
-7.5891e-06
-4.88029e-07
7.06129e-07
1.7354e-06
1.31917e-06
2.31565e-06
1.81102e-06
2.14385e-06
1.91932e-06
1.61634e-06
1.26791e-06
-3.99637e-07
-5.95413e-06
-3.67062e-07
6.91131e-07
1.04427e-06
1.39303e-06
1.61375e-06
2.01412e-06
1.52277e-06
2.27878e-06
1.35168e-06
1.75633e-06
1.22813e-07
-4.21472e-06
1.6922e-08
6.37586e-07
4.06683e-07
1.42393e-06
8.27404e-07
2.16673e-06
7.79965e-07
2.64407e-06
8.74337e-07
2.34384e-06
4.2305e-07
-2.30061e-06
4.2973e-07
4.06683e-07
1.23409e-06
2.01405e-06
2.88839e-06
3.31144e-06
1.01083e-06
5.02983e-07
-6.1147e-06
2.40665e-06
-1.01043e-05
5.05065e-06
-1.4436e-05
8.38035e-06
-1.89839e-05
1.2256e-05
-2.35644e-05
1.64917e-05
-2.80294e-05
2.08933e-05
-3.22749e-05
2.52658e-05
-3.62212e-05
2.94128e-05
-3.97882e-05
3.31663e-05
-4.2912e-05
3.64015e-05
-4.55541e-05
3.90565e-05
-4.76976e-05
4.12003e-05
-4.9425e-05
4.29285e-05
-5.08124e-05
4.42837e-05
-5.18867e-05
4.53484e-05
-5.2703e-05
4.61974e-05
-5.33009e-05
4.6892e-05
-5.37072e-05
4.74857e-05
-5.39456e-05
4.80207e-05
-5.40372e-05
4.85181e-05
-5.39805e-05
4.89872e-05
-5.37489e-05
4.94305e-05
-5.32653e-05
-5.2352e-05
6.22873e-07
-7.6299e-06
2.81278e-06
-1.22943e-05
5.78988e-06
-1.74131e-05
9.4178e-06
-2.26119e-05
1.34815e-05
-2.7628e-05
1.77413e-05
-3.22893e-05
2.1967e-05
-3.65006e-05
2.59438e-05
-4.0198e-05
2.95018e-05
-4.33462e-05
3.25437e-05
-4.59539e-05
3.50334e-05
-4.80437e-05
3.70488e-05
-4.9713e-05
3.86731e-05
-5.10493e-05
3.99523e-05
-5.20916e-05
4.09675e-05
-5.2902e-05
4.17871e-05
-5.35225e-05
4.24663e-05
-5.39802e-05
4.30524e-05
-5.42932e-05
4.35837e-05
-5.44769e-05
4.40843e-05
-5.45378e-05
4.45645e-05
-5.44607e-05
4.50282e-05
-5.42127e-05
4.54796e-05
-5.37167e-05
-5.28224e-05
8.17261e-07
-9.27217e-06
3.29331e-06
-1.47703e-05
6.56216e-06
-2.0682e-05
1.03941e-05
-2.64438e-05
1.44917e-05
-3.17256e-05
1.85731e-05
-3.63707e-05
2.23973e-05
-4.03248e-05
2.57914e-05
-4.3592e-05
2.86726e-05
-4.62274e-05
3.10271e-05
-4.83084e-05
3.29288e-05
-4.99453e-05
3.44596e-05
-5.12439e-05
3.56693e-05
-5.2259e-05
3.66357e-05
-5.3058e-05
3.74208e-05
-5.36871e-05
3.80751e-05
-5.41768e-05
3.86408e-05
-5.45458e-05
3.91525e-05
-5.48049e-05
3.96354e-05
-5.49597e-05
4.01019e-05
-5.50043e-05
4.05574e-05
-5.49162e-05
4.10038e-05
-5.46591e-05
4.14494e-05
-5.41623e-05
-5.33002e-05
1.11657e-06
-1.104e-05
3.84066e-06
-1.74944e-05
7.321e-06
-2.41623e-05
1.12141e-05
-3.03368e-05
1.51543e-05
-3.56659e-05
1.88517e-05
-4.00681e-05
2.21168e-05
-4.359e-05
2.48698e-05
-4.6345e-05
2.71163e-05
-4.84738e-05
2.89241e-05
-5.01163e-05
3.03721e-05
-5.13934e-05
3.15167e-05
-5.23884e-05
3.24315e-05
-5.31738e-05
3.31742e-05
-5.38006e-05
3.37917e-05
-5.43046e-05
3.43228e-05
-5.4708e-05
3.47993e-05
-5.50223e-05
3.52454e-05
-5.5251e-05
3.56766e-05
-5.53909e-05
3.60993e-05
-5.5427e-05
3.65167e-05
-5.53336e-05
3.69314e-05
-5.50738e-05
3.73548e-05
-5.45857e-05
-5.37651e-05
1.48623e-06
-1.29426e-05
4.40142e-06
-2.04096e-05
7.98391e-06
-2.77448e-05
1.17646e-05
-3.41176e-05
1.53598e-05
-3.92611e-05
1.85355e-05
-4.32438e-05
2.12003e-05
-4.62547e-05
2.33654e-05
-4.85102e-05
2.5095e-05
-5.02034e-05
2.64658e-05
-5.14871e-05
2.7547e-05
-5.24746e-05
2.84065e-05
-5.32478e-05
2.90985e-05
-5.38658e-05
2.9668e-05
-5.43702e-05
3.01519e-05
-5.47885e-05
3.05797e-05
-5.51358e-05
3.09743e-05
-5.5417e-05
3.13518e-05
-5.56285e-05
3.17214e-05
-5.57605e-05
3.20871e-05
-5.57927e-05
3.24518e-05
-5.56983e-05
3.28198e-05
-5.54418e-05
3.32044e-05
-5.49702e-05
-5.41979e-05
1.87458e-06
-1.49763e-05
4.91094e-06
-2.34459e-05
8.45401e-06
-3.12879e-05
1.19552e-05
-3.76188e-05
1.5079e-05
-4.23849e-05
1.76938e-05
-4.58585e-05
1.98025e-05
-4.83634e-05
2.14699e-05
-5.01776e-05
2.27762e-05
-5.15097e-05
2.37966e-05
-5.25075e-05
2.45962e-05
-5.32742e-05
2.52296e-05
-5.38812e-05
2.57414e-05
-5.43777e-05
2.61677e-05
-5.47964e-05
2.65362e-05
-5.5157e-05
2.6868e-05
-5.54677e-05
2.71788e-05
-5.57277e-05
2.74791e-05
-5.59288e-05
2.77749e-05
-5.60563e-05
2.80699e-05
-5.60878e-05
2.8368e-05
-5.59964e-05
2.86752e-05
-5.5749e-05
2.90054e-05
-5.53004e-05
-5.45818e-05
2.22876e-06
-1.71133e-05
5.30215e-06
-2.65193e-05
8.66058e-06
-3.46463e-05
1.17594e-05
-4.07176e-05
1.43655e-05
-4.49911e-05
1.64512e-05
-4.79442e-05
1.80789e-05
-4.99911e-05
1.9333e-05
-5.14317e-05
2.02931e-05
-5.24699e-05
2.1028e-05
-5.32424e-05
2.15947e-05
-5.38409e-05
2.20396e-05
-5.4326e-05
2.23987e-05
-5.47368e-05
2.2699e-05
-5.50967e-05
2.296e-05
-5.54179e-05
2.31956e-05
-5.57033e-05
2.34162e-05
-5.59483e-05
2.3629e-05
-5.61416e-05
2.38391e-05
-5.62664e-05
2.40512e-05
-5.62999e-05
2.42704e-05
-5.62156e-05
2.45039e-05
-5.59825e-05
2.4766e-05
-5.55625e-05
-5.49022e-05
2.5065e-06
-1.93117e-05
5.51947e-06
-2.95323e-05
8.57464e-06
-3.77015e-05
1.12109e-05
-4.33538e-05
1.33142e-05
-4.70943e-05
1.49303e-05
-4.95603e-05
1.6148e-05
-5.12088e-05
1.7054e-05
-5.23376e-05
1.77228e-05
-5.31387e-05
1.82166e-05
-5.37362e-05
1.85853e-05
-5.42096e-05
1.88673e-05
-5.4608e-05
1.90901e-05
-5.49597e-05
1.92728e-05
-5.52794e-05
1.94277e-05
-5.55728e-05
1.95634e-05
-5.58391e-05
1.96865e-05
-5.60714e-05
1.98026e-05
-5.62577e-05
1.9917e-05
-5.63807e-05
2.00355e-05
-5.64184e-05
2.01647e-05
-5.63448e-05
2.0313e-05
-5.61308e-05
2.0495e-05
-5.57444e-05
-5.51468e-05
2.68001e-06
-2.15125e-05
5.53412e-06
-3.23864e-05
8.21212e-06
-4.03795e-05
1.03785e-05
-4.55201e-05
1.20211e-05
-4.8737e-05
1.32268e-05
-5.0766e-05
1.40912e-05
-5.20732e-05
1.46976e-05
-5.29441e-05
1.51151e-05
-5.35562e-05
1.53995e-05
-5.40206e-05
1.55938e-05
-5.44039e-05
1.57284e-05
-5.47426e-05
1.58234e-05
-5.50546e-05
1.58909e-05
-5.53469e-05
1.59382e-05
-5.56201e-05
1.59699e-05
-5.58707e-05
1.59897e-05
-5.60912e-05
1.60021e-05
-5.62701e-05
1.60128e-05
-5.63914e-05
1.60289e-05
-5.64344e-05
1.60584e-05
-5.63744e-05
1.6111e-05
-5.61834e-05
1.62021e-05
-5.58355e-05
-5.53059e-05
2.73579e-06
-2.36551e-05
5.34687e-06
-3.49975e-05
7.61534e-06
-4.26479e-05
9.33528e-06
-4.72401e-05
1.05648e-05
-4.99665e-05
1.14094e-05
-5.16106e-05
1.19642e-05
-5.2628e-05
1.23074e-05
-5.32873e-05
1.25027e-05
-5.37515e-05
1.25997e-05
-5.41176e-05
1.26342e-05
-5.44384e-05
1.26296e-05
-5.47379e-05
1.25995e-05
-5.50246e-05
1.25513e-05
-5.52987e-05
1.24883e-05
-5.55572e-05
1.24123e-05
-5.57947e-05
1.23251e-05
-5.6004e-05
1.22298e-05
-5.61748e-05
1.21318e-05
-5.62934e-05
1.20388e-05
-5.63415e-05
1.19604e-05
-5.62959e-05
1.19075e-05
-5.61305e-05
1.18978e-05
-5.58258e-05
-5.53728e-05
2.67122e-06
-2.5683e-05
4.982e-06
-3.73083e-05
6.83704e-06
-4.4503e-05
8.14392e-06
-4.85469e-05
9.00341e-06
-5.0826e-05
9.52699e-06
-5.21342e-05
9.80581e-06
-5.29068e-05
9.91316e-06
-5.33946e-05
9.9072e-06
-5.37455e-05
9.83111e-06
-5.40415e-05
9.71386e-06
-5.43211e-05
9.57272e-06
-5.45968e-05
9.41674e-06
-5.48686e-05
9.24985e-06
-5.51318e-05
9.07319e-06
-5.53805e-05
8.88675e-06
-5.56083e-05
8.69073e-06
-5.5808e-05
8.4867e-06
-5.59708e-05
8.27878e-06
-5.60855e-05
8.07427e-06
-5.6137e-05
7.88301e-06
-5.61046e-05
7.71564e-06
-5.59631e-05
7.59204e-06
-5.57022e-05
-5.53442e-05
2.49199e-06
-2.75473e-05
4.47239e-06
-3.92887e-05
5.92688e-06
-4.59575e-05
6.85521e-06
-4.94753e-05
7.38119e-06
-5.1352e-05
7.6155e-06
-5.23685e-05
7.64439e-06
-5.29357e-05
7.53614e-06
-5.32864e-05
7.34323e-06
-5.35526e-05
7.10241e-06
-5.38007e-05
6.83651e-06
-5.40552e-05
6.55792e-06
-5.43182e-05
6.27242e-06
-5.45831e-05
5.9821e-06
-5.48415e-05
5.68716e-06
-5.50855e-05
5.38699e-06
-5.53081e-05
5.08109e-06
-5.55021e-05
4.76998e-06
-5.56597e-05
4.45624e-06
-5.57717e-05
4.14608e-06
-5.58268e-05
3.851e-06
-5.58095e-05
3.58374e-06
-5.56959e-05
3.32149e-06
-5.544e-05
-5.5202e-05
2.21136e-06
-2.92077e-05
3.85248e-06
-4.09298e-05
4.92747e-06
-4.70325e-05
5.50935e-06
-5.00571e-05
5.73207e-06
-5.15747e-05
5.70219e-06
-5.23387e-05
5.50099e-06
-5.27345e-05
5.19182e-06
-5.29772e-05
4.8213e-06
-5.31821e-05
4.41993e-06
-5.33993e-05
4.00523e-06
-5.36405e-05
3.58578e-06
-5.38988e-05
3.1652e-06
-5.41625e-05
2.74466e-06
-5.44209e-05
2.32426e-06
-5.46651e-05
1.90379e-06
-5.48877e-05
1.48334e-06
-5.50816e-05
1.06388e-06
-5.52403e-05
6.47941e-07
-5.53558e-05
2.3995e-07
-5.54188e-05
-1.50527e-07
-5.54191e-05
-4.93633e-07
-5.53528e-05
-7.0716e-07
-5.52265e-05
-5.47391e-05
1.84951e-06
-3.06357e-05
3.15507e-06
-4.22353e-05
3.87535e-06
-4.77527e-05
4.13892e-06
-5.03207e-05
4.08261e-06
-5.15184e-05
3.80805e-06
-5.20641e-05
3.39175e-06
-5.23182e-05
2.89207e-06
-5.24775e-05
2.34981e-06
-5.26398e-05
1.78942e-06
-5.2839e-05
1.2241e-06
-5.30752e-05
6.59443e-07
-5.33341e-05
9.74079e-08
-5.36005e-05
-4.61488e-07
-5.3862e-05
-1.01722e-06
-5.41094e-05
-1.56978e-06
-5.43351e-05
-2.11896e-06
-5.45325e-05
-2.6641e-06