/*--------------------------------*- C++ -*----------------------------------*\
  =========                 |
  \\      /  F ield         | OpenFOAM: The Open Source CFD Toolbox
   \\    /   O peration     | Website:  https://openfoam.org
    \\  /    A nd           | Version:  11
     \\/     M anipulation  |
\*---------------------------------------------------------------------------*/
FoamFile
{
    format      ascii;
    class       volVectorField;
    location    "0.38";
    object      U;
}
// * * * * * * * * * * * * * * * * * * * * * * * * * * * * * * * * * * * * * //

dimensions      [0 1 -1 0 0 0 0];

internalField   nonuniform List<vector> 
2880
(
(0.0337737 0.0227982 0)
(0.0568897 0.0140392 0)
(0.100247 -0.00847106 -2.02788e-19)
(0.132269 -0.0229289 0)
(0.176792 -0.0446017 3.83606e-20)
(0.19658 -0.0484197 6.90648e-20)
(0.0390578 0.00900694 1.02073e-20)
(0.0626373 -0.00192081 -7.66517e-21)
(0.100485 -0.0205409 -3.47634e-21)
(0.126587 -0.0317017 -1.85545e-19)
(0.158566 -0.0428578 1.76893e-20)
(0.18015 -0.0301626 0)
(0.0390679 0.00265946 8.89164e-21)
(0.0602524 -0.00919556 -7.15863e-21)
(0.0918709 -0.02408 1.7934e-19)
(0.112438 -0.0314087 1.73026e-19)
(0.135368 -0.0350717 -1.69848e-20)
(0.153602 -0.020358 0)
(0.0379013 -0.00319902 2.65999e-19)
(0.056052 -0.0140765 -2.13549e-19)
(0.0811841 -0.0251767 1.50714e-19)
(0.0964296 -0.0286074 1.81635e-20)
(0.112267 -0.0267158 0)
(0.126934 -0.0105764 3.08391e-20)
(0.0363054 -0.00972642 -2.60967e-19)
(0.0509312 -0.017296 1.96899e-19)
(0.0697009 -0.0245797 -1.63656e-19)
(0.0799569 -0.0241966 0)
(0.0899298 -0.0180203 1.28988e-19)
(0.100378 -0.000750164 -2.98819e-20)
(0.0349469 -0.0150519 4.34261e-21)
(0.0451764 -0.0188071 0)
(0.0578161 -0.0225521 0)
(0.0634645 -0.0186725 0)
(0.0683715 -0.009129 -2.33698e-19)
(0.074371 0.00909923 -1.42181e-20)
(0.0310035 -0.0197711 -1.5729e-19)
(0.0384496 -0.0188795 9.77998e-20)
(0.0456336 -0.0194467 0)
(0.0471447 -0.0125172 0)
(0.0476141 -0.000274396 1.21484e-19)
(0.0492694 0.0187566 0)
(0.0210766 -0.0231717 3.35512e-19)
(0.0303231 -0.0179706 -1.0197e-19)
(0.0332478 -0.0157266 8.0438e-20)
(0.0311747 -0.00610576 0)
(0.0277806 0.00832827 -5.91071e-20)
(0.0254519 0.0280409 1.36329e-20)
(0.0133028 -0.0240639 -1.68819e-19)
(0.0214334 -0.0167245 -9.56976e-20)
(0.020923 -0.0118 -6.498e-20)
(0.0157389 0.00024214 -6.43006e-20)
(0.00904241 0.016491 5.09645e-20)
(0.00324595 0.0367662 5.27838e-20)
(0.00648301 -0.0250654 0)
(0.0123663 -0.0154508 9.43359e-20)
(0.00891518 -0.00793676 0)
(0.00104248 0.00628766 6.36822e-20)
(-0.00842544 0.0240535 0)
(-0.0170783 0.0447589 -5.21177e-20)
(0.00050292 -0.02559 0)
(0.0034563 -0.0142037 0)
(-0.00256523 -0.00431332 -9.14816e-21)
(-0.0127433 0.0118699 7.86701e-21)
(-0.0244737 0.0308855 3.51695e-21)
(-0.0353151 0.0518611 -3.16838e-21)
(-0.00479493 -0.0253663 0)
(-0.00506797 -0.0130228 -4.63233e-23)
(-0.0133592 -0.00104117 9.13968e-21)
(-0.0254939 0.0168793 -7.82953e-21)
(-0.0389962 0.0368848 6.90872e-21)
(-0.0513316 0.0579289 6.21559e-21)
(-0.00955272 -0.0243698 0)
(-0.0130502 -0.0119267 -1.481e-21)
(-0.0233601 0.00181474 1.1286e-21)
(-0.0371313 0.021243 3.91103e-21)
(-0.0519395 0.0419725 -6.8866e-21)
(-0.0650724 0.062834 -9.27983e-21)
(-0.0138802 -0.0226427 5.3716e-21)
(-0.0203889 -0.0109092 -2.91419e-21)
(-0.0325092 0.00422147 -6.84264e-20)
(-0.0476239 0.0249173 -3.8711e-21)
(-0.0633045 0.0460919 0)
(-0.0765611 0.0664629 0)
(-0.0178639 -0.020235 2.65879e-21)
(-0.0270218 -0.00994539 9.50563e-20)
(-0.0407908 0.00616943 7.37189e-20)
(-0.0569819 0.0278803 7.04591e-20)
(-0.0731444 0.0492092 -6.13904e-20)
(-0.0858999 0.068721 3.62242e-20)
(-0.0215527 -0.0172798 -2.66273e-21)
(-0.0329128 -0.00899036 -1.02202e-19)
(-0.048229 0.00766586 -4.74079e-21)
(-0.0652511 0.0301257 -7.13884e-20)
(-0.0815556 0.0513147 6.88441e-20)
(-0.0932625 0.0695407 -4.47672e-22)
(-0.0249157 -0.0140573 0)
(-0.0380423 -0.00797728 0)
(-0.0548837 0.00873046 0)
(-0.0725052 0.0316588 -1.44591e-19)
(-0.0886636 0.0524272 -9.69548e-20)
(-0.0988835 0.0688955 -1.44956e-19)
(-0.0280966 -0.0102562 5.3509e-21)
(-0.0423762 -0.00677979 0)
(-0.0608494 0.00939445 9.79201e-21)
(-0.0788374 0.0324907 1.23581e-19)
(-0.0946073 0.0526226 1.13069e-19)
(-0.103034 0.0668018 5.68022e-22)
(-0.0308273 -0.00474055 0)
(-0.0458318 -0.00514435 1.28691e-20)
(-0.0662601 0.00969893 -1.00123e-20)
(-0.0843429 0.0326309 0)
(-0.0994964 0.0520144 0)
(-0.106031 0.0633756 2.40146e-20)
(-0.031987 -6.90954e-05 2.71153e-19)
(-0.0486413 -0.00294523 0)
(-0.0713019 0.00965618 2.1112e-20)
(-0.0890958 0.0320869 -1.74558e-20)
(-0.103353 0.0506818 -2.94757e-20)
(-0.108258 0.0589298 2.56256e-20)
(-0.033096 0.0045692 -2.63885e-19)
(-0.0515049 -0.000320939 0)
(-0.0761517 0.00919522 0)
(-0.0930781 0.030799 1.47447e-19)
(-0.106141 0.048871 0)
(-0.110057 0.0539313 -2.53255e-20)
(-0.0343386 0.00891379 -9.0817e-21)
(-0.0544306 0.00261784 7.42964e-21)
(-0.0808282 0.00822562 0)
(-0.0961644 0.0286895 1.88395e-20)
(-0.107461 0.0469282 -1.64463e-20)
(-0.111719 0.0492982 1.10931e-19)
(-0.0348032 0.0135756 2.13204e-20)
(-0.0569812 0.00651273 2.62258e-19)
(-0.0848637 0.00712749 1.89648e-19)
(-0.0980862 0.0260703 -1.66583e-19)
(-0.106307 0.0458796 0)
(-0.112948 0.046434 1.23054e-19)
(-0.0319019 0.0240809 -3.95959e-19)
(-0.0550869 0.0174327 -5.5188e-19)
(-0.0867065 0.011484 -2.00839e-19)
(-0.0995217 0.0274824 4.37266e-20)
(-0.103393 0.0502683 1.36464e-21)
(-0.107014 0.0439621 -1.64566e-19)
(0.359974 0.0325995 1.41664e-19)
(0.599965 0.061397 5.97862e-20)
(0.777224 0.0648985 7.80684e-20)
(0.910319 0.055939 -3.93179e-20)
(1.0114 0.0415752 -3.16445e-20)
(1.0882 0.0253876 0)
(1.1458 0.0096581 -3.67583e-20)
(1.18865 -0.00439595 6.49277e-20)
(1.22031 -0.0162157 0)
(1.24362 -0.0256291 -1.68777e-20)
(1.26087 -0.0325953 1.16956e-20)
(1.27343 -0.0372761 0)
(1.28255 -0.0401241 -1.09834e-20)
(1.28963 -0.0411141 6.38449e-21)
(1.29524 -0.040187 1.94108e-21)
(1.29928 -0.0380132 2.90323e-21)
(1.30191 -0.0347579 -8.77633e-22)
(1.30314 -0.0305271 -1.93498e-21)
(1.30289 -0.0255428 0)
(1.3009 -0.0201232 -1.71518e-20)
(1.29663 -0.0145524 2.05156e-20)
(1.28958 -0.0096726 -6.97781e-21)
(1.27976 -0.00883671 2.99829e-20)
(1.26813 -0.0201331 -2.58203e-20)
(0.286692 0.0292439 -1.59605e-19)
(0.496637 0.0551463 -1.32639e-19)
(0.671645 0.0626937 -1.06865e-19)
(0.810824 0.0576342 -3.93539e-20)
(0.91935 0.0456513 3.58013e-20)
(1.00543 0.0303591 0)
(1.07381 0.014259 3.66642e-20)
(1.1282 -0.000783457 -3.71407e-20)
(1.17125 -0.0139327 -2.60225e-20)
(1.20474 -0.024871 0)
(1.23108 -0.0334096 -1.0528e-20)
(1.25216 -0.0395437 2.93236e-21)
(1.26874 -0.0434609 1.49447e-20)
(1.2818 -0.0453902 -7.90389e-21)
(1.29225 -0.0457478 -6.28572e-22)
(1.30111 -0.0443241 -1.3827e-21)
(1.30845 -0.0411787 5.96314e-21)
(1.31408 -0.0364881 -3.90533e-21)
(1.31775 -0.0308435 0)
(1.31947 -0.0245251 -4.44499e-21)
(1.31898 -0.0177549 0)
(1.31602 -0.0111964 0)
(1.30951 -0.0075025 0)
(1.3068 -0.0143905 5.28856e-21)
(0.224772 0.0298182 0)
(0.380785 0.0598332 -3.26463e-20)
(0.536463 0.0734436 2.90315e-20)
(0.672694 0.0732834 -1.30659e-19)
(0.784968 0.0643065 -2.13627e-21)
(0.877566 0.0507826 -2.90628e-20)
(0.954358 0.0349137 2.39426e-20)
(1.01935 0.0186398 -1.11437e-20)
(1.07479 0.00309343 2.67632e-20)
(1.12253 -0.0107606 0)
(1.1627 -0.0221689 -1.14925e-20)
(1.1968 -0.0313182 1.08395e-20)
(1.22557 -0.0382462 0)
(1.24967 -0.0429636 5.02985e-21)
(1.26999 -0.04539 3.26488e-21)
(1.28693 -0.0454682 1.32464e-21)
(1.30086 -0.0434553 5.36622e-22)
(1.31248 -0.0398015 0)
(1.32223 -0.0345244 0)
(1.32967 -0.0280328 0)
(1.33455 -0.0206177 0)
(1.33696 -0.0130085 0)
(1.33626 -0.00528583 0)
(1.34197 -0.00863175 -1.06873e-20)
(0.174705 0.0311758 -2.09256e-20)
(0.280244 0.0656054 1.42234e-19)
(0.40093 0.0870967 9.01209e-20)
(0.516535 0.0949716 7.05809e-20)
(0.618825 0.093267 1.42736e-19)
(0.706825 0.0849359 -1.16379e-19)
(0.782565 0.0724153 -3.83267e-20)
(0.849036 0.0580506 -1.20546e-20)
(0.90847 0.0426728 2.87316e-20)
(0.962691 0.027369 0)
(1.01367 0.012732 0)
(1.0613 -0.000620518 0)
(1.10543 -0.0122106 0)
(1.14597 -0.0215805 5.45488e-21)
(1.18268 -0.0283723 -1.3246e-20)
(1.21577 -0.0324275 -1.89786e-21)
(1.24526 -0.0337489 2.95948e-21)
(1.27091 -0.0324928 -2.83222e-21)
(1.29241 -0.0288025 0)
(1.31019 -0.0233049 -2.07487e-21)
(1.32403 -0.0161068 1.99321e-21)
(1.33499 -0.0091178 -9.42153e-21)
(1.34139 0.00125752 9.00608e-21)
(1.36086 0.00105082 3.92959e-21)
(0.132094 0.0350244 3.53938e-22)
(0.201458 0.0706919 2.10219e-20)
(0.286894 0.0976427 -2.33993e-19)
(0.374744 0.113389 0)
(0.457043 0.119613 -7.99927e-20)
(0.53048 0.118327 1.22728e-19)
(0.59598 0.111682 0)
(0.654573 0.101471 5.75174e-20)
(0.708112 0.0885001 -1.60865e-20)
(0.758178 0.0741241 -2.04487e-20)
(0.806134 0.0595637 1.92567e-20)
(0.852893 0.0453469 -1.50775e-20)
(0.899083 0.0318678 -9.35898e-21)
(0.945087 0.0197394 8.89916e-21)
(0.991148 0.00945966 7.70944e-21)
(1.03679 0.00147736 0)
(1.08146 -0.00386274 0)
(1.12451 -0.00633131 4.74947e-21)
(1.16508 -0.0058338 0)
(1.20259 -0.00281202 0)
(1.23512 0.00286518 0)
(1.26498 0.00877746 0)
(1.28253 0.0178952 3.74063e-22)
(1.32244 0.0200919 0)
(0.0941918 0.0410381 7.91803e-20)
(0.138634 0.0759772 -1.02341e-19)
(0.196048 0.105313 1.15909e-19)
(0.258065 0.12599 4.78971e-20)
(0.31874 0.138181 1.53911e-20)
(0.374891 0.14285 -6.30497e-20)
(0.426158 0.141444 2.46232e-20)
(0.472872 0.13526 -6.24622e-20)
(0.516205 0.125357 1.80439e-20)
(0.55742 0.113104 -1.44739e-20)
(0.597531 0.0995375 -1.15744e-20)
(0.637407 0.0852143 -9.70707e-21)
(0.677806 0.0707371 2.1919e-20)
(0.719202 0.0570275 -6.11342e-21)
(0.76174 0.0448919 -1.26261e-20)
(0.805495 0.0348275 1.41311e-20)
(0.850512 0.0273495 -1.35387e-20)
(0.896502 0.022902 -1.46624e-21)
(0.9429 0.021687 9.11167e-21)
(0.989181 0.0236697 -1.10659e-20)
(1.03382 0.0287943 3.07713e-21)
(1.07805 0.0360485 -4.64173e-21)
(1.11318 0.0456358 -2.3691e-21)
(1.16739 0.0499865 8.5513e-22)
(0.0598545 0.0483603 -7.7351e-20)
(0.0866217 0.0819084 -1.40068e-22)
(0.123116 0.111626 5.84154e-20)
(0.16424 0.134597 -4.92596e-20)
(0.20584 0.150245 2.09664e-20)
(0.245494 0.158794 1.83474e-20)
(0.282393 0.161043 2.68754e-20)
(0.316554 0.157931 -2.49911e-20)
(0.348589 0.150435 -3.55003e-20)
(0.379351 0.139701 4.52438e-20)
(0.409719 0.126665 -2.12416e-21)
(0.440476 0.112105 9.11662e-21)
(0.472286 0.096964 -7.35706e-21)
(0.505674 0.08212 6.0165e-21)
(0.540964 0.068299 4.98666e-21)
(0.57825 0.0564398 0)
(0.61759 0.0473322 0)
(0.658855 0.0413741 -1.64681e-20)
(0.701712 0.038939 1.2816e-20)
(0.745738 0.0403193 -6.67716e-21)
(0.790165 0.0455458 1.03129e-20)
(0.834917 0.0542833 0)
(0.877442 0.0650998 -1.25335e-21)
(0.930405 0.0708929 2.41553e-21)
(0.0287148 0.0561837 -9.34201e-21)
(0.0426109 0.0883301 -5.63443e-22)
(0.0636729 0.117504 -5.77824e-20)
(0.088695 0.141193 -2.41138e-20)
(0.114813 0.158494 2.20842e-20)
(0.140235 0.169208 -1.71801e-20)
(0.164165 0.173687 4.69702e-20)
(0.186464 0.172566 -2.62748e-20)
(0.207433 0.166615 -4.20676e-20)
(0.227697 0.156762 3.51587e-20)
(0.247988 0.143876 -1.55287e-20)
(0.269002 0.128813 2.25216e-20)
(0.291347 0.112531 -2.13595e-20)
(0.315535 0.0960261 0)
(0.342027 0.0802241 0)
(0.371082 0.0661676 0)
(0.402716 0.0548074 -5.36853e-21)
(0.436871 0.0467543 -7.58201e-21)
(0.473364 0.0425714 7.294e-21)
(0.511878 0.0426956 0)
(0.55197 0.0472021 0)
(0.593391 0.055573 2.87017e-21)
(0.636097 0.0655342 -3.57822e-21)
(0.68394 0.0708242 1.50646e-21)
(0.000765783 0.0639292 0)
(0.00525121 0.0948346 -6.51014e-20)
(0.0150444 0.123141 5.6952e-20)
(0.028012 0.146753 -1.20139e-20)
(0.0421409 0.164675 1.10162e-20)
(0.0560989 0.176487 0)
(0.0692191 0.182218 -3.07564e-20)
(0.0813267 0.18228 2.60374e-20)
(0.0925796 0.177192 2.19849e-20)
(0.103467 0.167657 0)
(0.114601 0.154443 1.58197e-20)
(0.126626 0.138391 -1.59743e-21)
(0.140166 0.120464 -2.39383e-20)
(0.155781 0.101694 1.07116e-20)
(0.173935 0.083163 0)
(0.194989 0.0660904 0)
(0.219036 0.0515694 5.33665e-21)
(0.246023 0.0404069 0)
(0.275835 0.0333356 6.77171e-21)
(0.308214 0.0308235 -6.52328e-21)
(0.342758 0.0327571 0)
(0.379312 0.0380642 -6.06021e-22)
(0.418663 0.044077 0)
(0.463733 0.0466368 -6.98056e-23)
(-0.0238768 0.071176 3.53157e-20)
(-0.02606 0.100989 7.77281e-21)
(-0.0241992 0.128362 -7.04308e-21)
(-0.019824 0.151562 0)
(-0.0144117 0.169599 0)
(-0.00897448 0.181935 0)
(-0.00403701 0.188328 0)
(0.000281707 0.189067 1.3817e-20)
(0.00407884 0.184381 -2.59465e-20)
(0.0077732 0.174767 0)
(0.0118708 0.160829 0)
(0.0170462 0.143279 0)
(0.0239621 0.122997 1.3821e-20)
(0.0332433 0.10102 -1.3147e-20)
(0.0454241 0.0785219 0)
(0.0609275 0.0568499 0)
(0.0799676 0.0373881 0)
(0.102423 0.0212755 0)
(0.12812 0.0094184 -9.03976e-21)
(0.156717 0.00234868 8.70528e-21)
(0.187564 -9.48899e-05 -1.54528e-21)
(0.220017 0.0008519 6.01809e-22)
(0.255163 0.00281527 1.63448e-21)
(0.296458 0.00296437 -2.20481e-21)
(-0.0450805 0.0775931 -2.63683e-20)
(-0.0515663 0.106404 0)
(-0.054764 0.132868 0)
(-0.0558733 0.155544 0)
(-0.0560414 0.173475 0)
(-0.0560652 0.186054 0)
(-0.0562778 0.192734 8.18602e-21)
(-0.0567925 0.193801 -3.11571e-22)
(-0.0574265 0.189084 6.07836e-21)
(-0.0576731 0.178797 0)
(-0.0568263 0.163294 5.35343e-21)
(-0.0541738 0.143174 -2.38631e-21)
(-0.0491094 0.119311 0)
(-0.0410921 0.0927932 -9.8799e-21)
(-0.0297042 0.0649381 9.28514e-21)
(-0.0146219 0.03742 0)
(0.00472119 0.0126099 0)
(0.0279453 -0.00874019 -2.68966e-21)
(0.0549033 -0.0261379 9.85864e-21)
(0.0852416 -0.0384763 -6.61763e-21)
(0.118257 -0.0451411 2.0916e-21)
(0.153293 -0.0462227 0)
(0.190895 -0.0434295 0)
(0.231845 -0.0420834 -9.48179e-24)
(-0.0627456 0.0829004 -8.55639e-21)
(-0.0713641 0.110726 0)
(-0.0769946 0.136309 -1.01762e-22)
(-0.0806616 0.158432 5.90181e-21)
(-0.0832853 0.176128 0)
(-0.0853717 0.188684 0)
(-0.0870992 0.195379 -1.32137e-22)
(-0.0885056 0.196316 1.23538e-22)
(-0.0892479 0.191018 3.84421e-21)
(-0.088847 0.179505 -1.05564e-22)
(-0.0868075 0.162095 -1.93315e-22)
(-0.0826737 0.139331 -2.50944e-21)
(-0.0758162 0.112011 0)
(-0.0656736 0.0811993 2.37476e-21)
(-0.0517588 0.0482352 3.21037e-22)
(-0.0337455 0.0145087 0)
(-0.0116027 -0.0192142 -1.96748e-22)
(0.0156201 -0.0505079 7.47083e-22)
(0.0478293 -0.0771859 1.32366e-21)
(0.0845494 -0.0981837 1.60618e-21)
(0.125404 -0.112585 3.36797e-22)
(0.16997 -0.119741 -5.56395e-22)
(0.216484 -0.120125 0)
(0.260005 -0.117533 3.1417e-22)
(-0.0768321 0.0868453 0)
(-0.0855213 0.113625 -3.59804e-21)
(-0.0910794 0.1383 -3.08576e-21)
(-0.0943786 0.159815 2.48493e-23)
(-0.0962581 0.177182 0)
(-0.0971545 0.189582 0)
(-0.0971807 0.196106 0)
(-0.0962996 0.196726 -2.47332e-20)
(-0.0941229 0.190706 3.95006e-21)
(-0.0902486 0.177895 7.38609e-21)
(-0.0840871 0.158293 -7.01844e-21)
(-0.0749084 0.132173 0)
(-0.0620096 0.100184 0)
(-0.0446749 0.063304 -1.17066e-20)
(-0.0222688 0.0230285 1.93806e-20)
(0.00547687 -0.0189339 -1.0225e-20)
(0.0384787 -0.0607464 0)
(0.0764607 -0.100662 -1.72383e-20)
(0.119085 -0.13689 1.11393e-20)
(0.16617 -0.167877 -6.57561e-21)
(0.217568 -0.192441 -7.93075e-22)
(0.272742 -0.209846 -4.36092e-21)
(0.328459 -0.219163 4.74595e-21)
(0.376495 -0.216914 -3.03206e-22)
(-0.0873718 0.0891877 8.04007e-21)
(-0.094124 0.114775 -7.20917e-21)
(-0.0972179 0.138474 -1.23593e-20)
(-0.0975964 0.15935 1.13154e-20)
(-0.0959277 0.176335 0)
(-0.0924496 0.188475 1.86749e-20)
(-0.0872636 0.194884 1.78679e-20)
(-0.0800981 0.195059 -7.74649e-23)
(-0.0705057 0.188239 6.59433e-23)
(-0.0579348 0.173995 3.22059e-20)
(-0.0417202 0.152119 0)
(-0.0211289 0.122706 0)
(0.00437163 0.0862668 0)
(0.0351538 0.0438163 0)
(0.0712732 -0.00317151 0)
(0.112494 -0.0528713 0)
(0.15849 -0.103179 0)
(0.208599 -0.15199 8.59692e-21)
(0.26206 -0.197318 8.77539e-21)
(0.318113 -0.237688 0)
(0.376379 -0.272139 -2.25058e-20)
(0.436274 -0.300004 1.26648e-20)
(0.494839 -0.319502 8.23033e-21)
(0.54312 -0.319847 -6.13846e-21)
(-0.0944761 0.0897002 8.15175e-21)
(-0.0973611 0.113913 0)
(-0.0958614 0.136519 0)
(-0.09073 0.156668 4.27303e-20)
(-0.0825877 0.173169 0)
(-0.0715401 0.184959 -7.42592e-20)
(-0.0574841 0.191046 3.48334e-20)
(-0.0400197 0.190627 1.69778e-20)
(-0.0185762 0.182833 1.78853e-20)
(0.00745485 0.16701 -1.6552e-20)
(0.0386723 0.142769 3.48749e-20)
(0.0755403 0.110114 -3.31398e-20)
(0.118202 0.0695514 0)
(0.166406 0.0221914 0)
(0.219553 -0.0303107 0)
(0.276796 -0.0857857 -5.58769e-20)
(0.337211 -0.142013 1.03323e-19)
(0.399565 -0.19669 -9.05219e-20)
(0.462499 -0.247735 3.22737e-20)
(0.525125 -0.293609 0)
(0.586638 -0.333373 2.59932e-20)
(0.645784 -0.366539 -1.59536e-20)
(0.700196 -0.392218 5.3588e-21)
(0.744292 -0.399157 -2.16595e-22)
(-0.0983104 0.0881755 0)
(-0.0955106 0.11078 -5.31202e-20)
(-0.0872988 0.132134 0)
(-0.0743162 0.151417 -6.37406e-20)
(-0.0570858 0.167275 1.93466e-20)
(-0.0355493 0.178517 1.82665e-20)
(-0.00941574 0.18402 -1.81341e-20)
(0.0218195 0.182768 0)
(0.058746 0.173773 -7.00708e-20)
(0.101864 0.156261 0)
(0.151455 0.129805 -3.72044e-20)
(0.207475 0.0944834 3.535e-20)
(0.26937 0.0509031 0)
(0.336157 0.000386262 7.09493e-20)
(0.406559 -0.0551705 -6.78203e-20)
(0.479218 -0.113531 0)
(0.552651 -0.172321 2.93095e-20)
(0.624862 -0.229114 -4.7625e-20)
(0.694551 -0.281839 -1.54257e-20)
(0.760508 -0.328692 3.80504e-20)
(0.82108 -0.368381 -4.57571e-20)
(0.874618 -0.399914 7.40518e-20)
(0.919163 -0.422843 -2.88946e-20)
(0.95506 -0.432442 -3.65951e-21)
(-0.0990894 0.084416 0)
(-0.0887831 0.10519 1.04824e-19)
(-0.0719627 0.125103 4.42162e-20)
(-0.0490394 0.143353 3.93198e-20)
(-0.0204442 0.158367 1.8825e-20)
(0.0140266 0.168821 -5.37723e-20)
(0.0547571 0.173465 -2.15807e-22)
(0.102223 0.171143 1.8589e-21)
(0.15682 0.160818 3.64697e-20)
(0.218676 0.14173 3.62145e-20)
(0.287507 0.113562 3.71039e-20)
(0.362471 0.0765585 3.76375e-20)
(0.442336 0.0315722 0)
(0.525533 -0.0199822 3.67223e-20)
(0.610221 -0.0761625 3.50877e-20)
(0.694608 -0.1345 0)
(0.776237 -0.192565 -2.93812e-20)
(0.853198 -0.248065 -9.84463e-20)
(0.923971 -0.298703 1.76301e-19)
(0.986592 -0.342504 2.64264e-21)
(1.03924 -0.377714 -2.20551e-21)
(1.08018 -0.402754 -4.45754e-20)
(1.1082 -0.417189 -1.02608e-20)
(1.1288 -0.420851 1.59049e-21)
(-0.097009 0.0782402 0)
(-0.0774012 0.0970235 -5.18319e-20)
(-0.0502433 0.115339 -1.0735e-19)
(-0.0155366 0.132413 -5.90512e-20)
(0.0263335 0.146411 3.60011e-20)
(0.0756198 0.155891 -6.83911e-20)
(0.132613 0.159515 6.68753e-20)
(0.197529 0.15607 1.01103e-19)
(0.270311 0.14456 -7.19383e-20)
(0.350479 0.124353 -1.71925e-21)
(0.437042 0.0953377 3.55963e-20)
(0.528441 0.0579744 3.92847e-20)
(0.622988 0.0132141 -7.07671e-20)
(0.718536 -0.0373563 -1.09232e-19)
(0.812607 -0.0916348 3.35394e-20)
(0.90258 -0.14732 -6.58076e-20)
(0.986034 -0.201851 -5.57787e-20)
(1.06099 -0.252868 4.81586e-20)
(1.12511 -0.298093 2.16711e-20)
(1.17655 -0.335447 7.37699e-20)
(1.21382 -0.363108 -9.36205e-20)
(1.23528 -0.379389 -2.64364e-20)
(1.24298 -0.384149 2.949e-20)
(1.24384 -0.380534 2.01815e-21)
(-0.092218 0.0694782 1.01617e-19)
(-0.0614815 0.0862672 2.36815e-20)
(-0.0223961 0.10293 8.37262e-20)
(0.0257383 0.118769 5.12476e-20)
(0.0824668 0.131703 9.80419e-20)
(0.147906 0.140206 -3.14988e-20)
(0.22201 0.142901 3.33685e-20)
(0.304481 0.138619 -9.81065e-20)
(0.394634 0.126471 0)
(0.491306 0.106045 -7.26678e-20)
(0.592883 0.0772554 -4.16622e-21)
(0.697367 0.0408517 -6.98527e-20)
(0.802382 -0.00193766 1.4597e-19)
(0.904788 -0.0495032 -6.90839e-20)
(1.00188 -0.0998183 0)
(1.09098 -0.150426 -1.16023e-19)
(1.16949 -0.198987 2.6853e-19)
(1.23478 -0.243037 -1.45547e-19)
(1.28474 -0.280347 0)
(1.31842 -0.309102 -3.14678e-20)
(1.3352 -0.327869 2.31098e-20)
(1.33435 -0.335438 0)
(1.32522 -0.334515 -6.103e-21)
(1.30864 -0.322395 -1.64033e-21)
(-0.0847402 0.0579935 -2.06275e-19)
(-0.0409786 0.0730493 -2.47103e-20)
(0.0115379 0.0881482 -7.46177e-20)
(0.0746165 0.102869 -3.65772e-20)
(0.147547 0.114924 -9.55352e-20)
(0.230026 0.122758 -3.08923e-20)
(0.321437 0.125001 -2.45176e-21)
(0.420789 0.120576 3.48987e-20)
(0.526701 0.108715 -1.27022e-19)
(0.63765 0.0889993 6.27807e-20)
(0.751078 0.0618457 0)
(0.864143 0.0279577 7.00803e-20)
(0.973647 -0.0113533 1.28763e-19)
(1.07663 -0.0543287 6.18289e-20)
(1.17028 -0.0989359 -5.07849e-21)
(1.25135 -0.142922 -6.09965e-20)
(1.31704 -0.183851 0)
(1.36513 -0.219534 0)
(1.39496 -0.248099 0)
(1.40733 -0.268247 0)
(1.40238 -0.279729 0)
(1.38782 -0.2827 -3.1618e-20)
(1.36228 -0.278555 4.80438e-20)
(1.33032 -0.258932 -1.09857e-20)
(-0.0744281 0.0437835 1.32986e-19)
(-0.015648 0.0576232 0)
(0.0517622 0.0714854 5.75344e-21)
(0.131279 0.0854824 0)
(0.22161 0.0971977 5.40119e-20)
(0.321697 0.105073 2.8364e-20)
(0.430109 0.107788 2.34377e-21)
(0.545199 0.104184 8.57889e-20)
(0.66519 0.0936448 0)
(0.787017 0.0760754 0)
(0.907162 0.0517521 6.2532e-20)
(1.0228 0.0216276 -1.77289e-19)
(1.13066 -0.0129185 -4.35733e-21)
(1.22745 -0.0503117 -1.58883e-19)
(1.30982 -0.0884343 5.78468e-20)
(1.37454 -0.125081 -8.8571e-20)
(1.42018 -0.157812 0)
(1.44559 -0.185613 -2.68529e-20)
(1.45359 -0.206808 0)
(1.44618 -0.220932 0)
(1.42725 -0.227995 -9.93435e-21)
(1.39918 -0.228446 0)
(1.36453 -0.221647 0)
(1.32469 -0.199536 2.76596e-22)
(-0.0610198 0.0273126 -1.07676e-19)
(0.0149233 0.0403781 1.0246e-19)
(0.0987717 0.053721 6.83661e-20)
(0.196298 0.0677577 1.35e-20)
(0.305118 0.0801091 -1.06631e-19)
(0.423027 0.0892012 9.72399e-20)
(0.54789 0.0935239 -2.40042e-20)
(0.677243 0.0920688 -4.87036e-20)
(0.807412 0.0841459 -1.05443e-19)
(0.934446 0.0696995 5.18595e-20)
(1.05558 0.0491705 0)
(1.16741 0.0234357 5.69251e-20)
(1.26611 -0.00617612 0)
(1.34825 -0.037863 9.87757e-21)
(1.41129 -0.0693502 -3.14708e-20)
(1.4527 -0.0989005 1.13149e-19)
(1.47348 -0.125776 0)
(1.47856 -0.147335 7.57153e-21)
(1.46937 -0.163823 4.39436e-20)
(1.44937 -0.174519 -6.89741e-20)
(1.42128 -0.179409 5.42386e-20)
(1.38746 -0.178744 0)
(1.34913 -0.170844 2.23903e-21)
(1.30566 -0.147646 4.63621e-22)
(-0.0439368 0.00994968 1.34674e-19)
(0.0509189 0.0220962 -1.04622e-19)
(0.153366 0.0359749 3.00797e-20)
(0.270601 0.0512606 -5.32379e-20)
(0.398772 0.0657304 2.37817e-20)
(0.534529 0.077485 -4.73931e-20)
(0.674319 0.0849172 -4.24244e-20)
(0.813574 0.0867032 9.63663e-20)
(0.948036 0.0822884 -4.00234e-20)
(1.07462 0.0715193 -4.55143e-20)
(1.18967 0.0547509 0)
(1.28921 0.0329999 4.73453e-20)
(1.36997 0.00776231 -1.17722e-19)
(1.42984 -0.0186951 4.08201e-20)
(1.46603 -0.0455513 5.73125e-20)
(1.48415 -0.0709318 -5.47545e-20)
(1.48757 -0.0925697 0)
(1.47813 -0.110742 1.90315e-20)
(1.45896 -0.124359 4.3808e-21)
(1.43242 -0.133061 -1.74758e-20)
(1.40065 -0.13696 -5.74514e-21)
(1.36474 -0.13578 0)
(1.3253 -0.127115 0)
(1.28032 -0.103752 -6.09857e-22)
(-0.0198011 -0.0070765 0)
(0.0924426 0.00347588 -7.60103e-20)
(0.216566 0.0195853 2.82068e-20)
(0.355288 0.0379995 -2.56791e-20)
(0.503447 0.0564512 -4.14223e-20)
(0.655503 0.0725355 1.77783e-20)
(0.805594 0.0841251 6.21114e-20)
(0.948768 0.0898177 4.15653e-20)
(1.08144 0.088835 4.55364e-21)
(1.19961 0.0810778 -7.52752e-20)
(1.29943 0.0670719 7.08093e-20)
(1.37842 0.0481975 -2.74532e-20)
(1.43438 0.0263003 7.25457e-20)
(1.46691 0.00198052 2.16728e-20)
(1.48364 -0.0215118 -1.74217e-20)
(1.48628 -0.0430621 0)
(1.47737 -0.0623796 3.11899e-20)
(1.45978 -0.0781999 -4.10642e-20)
(1.43548 -0.090002 1.36934e-20)
(1.40632 -0.0975552 0)
(1.37351 -0.10094 2.92058e-21)
(1.33737 -0.0995532 -5.90746e-21)
(1.29805 -0.0904889 1.81551e-20)
(1.25261 -0.0675805 -1.78177e-20)
(-0.0564568 -0.00177397 0)
(-0.148027 -0.0573991 0)
(-0.231864 -0.128693 -5.50895e-19)
(-0.249185 -0.147419 0)
(-0.229111 -0.12846 2.90406e-20)
(-0.131863 -0.0455318 -4.65935e-20)
(-0.105476 -0.0171956 1.41405e-20)
(-0.200753 -0.0810551 -1.08066e-20)
(-0.248893 -0.125504 5.50159e-22)
(-0.24627 -0.137372 -2.14403e-19)
(-0.200492 -0.123569 1.88289e-20)
(-0.10022 -0.0736806 0)
(-0.131158 -0.022159 1.17719e-20)
(-0.217826 -0.0764496 -9.86055e-21)
(-0.248864 -0.1146 2.40966e-19)
(-0.228341 -0.126962 2.03853e-19)
(-0.163474 -0.118357 -1.8388e-20)
(-0.0565235 -0.0921996 0)
(-0.150728 -0.0280235 3.61827e-19)
(-0.230261 -0.0703641 -3.02222e-19)
(-0.246732 -0.10318 2.00974e-19)
(-0.210279 -0.115845 2.27344e-20)
(-0.129847 -0.112586 0)
(-0.0134681 -0.098127 2.59741e-20)
(-0.173624 -0.0309552 -4.07521e-19)
(-0.240546 -0.0661362 2.78393e-19)
(-0.243757 -0.0925317 -2.18945e-19)
(-0.193435 -0.104911 0)
(-0.0991398 -0.10547 1.43997e-19)
(0.0301645 -0.0966865 -2.67734e-20)
(-0.200561 -0.0266908 7.17556e-21)
(-0.247685 -0.0608654 0)
(-0.239917 -0.0824294 0)
(-0.17783 -0.0940038 0)
(-0.0705453 -0.0965349 -2.70759e-19)
(0.073856 -0.0895135 -1.53904e-20)
(-0.215962 -0.0255155 -2.31515e-19)
(-0.252313 -0.0550764 1.37256e-19)
(-0.235657 -0.0721933 0)
(-0.16361 -0.0828304 0)
(-0.0438068 -0.0857293 1.45285e-19)
(0.117214 -0.0780228 0)
(-0.229464 -0.0235075 4.60319e-19)
(-0.255354 -0.0489199 -1.42731e-19)
(-0.231444 -0.0617787 1.14386e-19)
(-0.151042 -0.0711992 0)
(-0.019101 -0.0732148 -7.65595e-20)
(0.159468 -0.0632421 1.4774e-20)
(-0.241539 -0.0212424 -2.32678e-19)
(-0.257256 -0.0423336 -1.34876e-19)
(-0.227683 -0.0510807 -9.30926e-20)
(-0.140438 -0.0590383 -9.21349e-20)
(0.00312327 -0.0592332 6.68381e-20)
(0.199537 -0.0459749 6.61097e-20)
(-0.251298 -0.0191901 0)
(-0.2583 -0.0352248 1.33905e-19)
(-0.224703 -0.0400027 0)
(-0.13215 -0.0463659 9.19873e-20)
(0.0222493 -0.0440774 0)
(0.236304 -0.0269645 -6.64882e-20)
(-0.258256 -0.0173839 0)
(-0.258709 -0.0275209 0)
(-0.222782 -0.0284766 -1.37599e-20)
(-0.126559 -0.0332648 1.19194e-20)
(0.0375156 -0.0280834 4.93821e-21)
(0.268666 -0.00696508 -4.45977e-21)
(-0.262299 -0.0156488 0)
(-0.258669 -0.0191783 -6.75124e-23)
(-0.222151 -0.0164718 1.3848e-20)
(-0.124041 -0.0198474 -1.19838e-20)
(0.0480516 -0.0116391 1.04274e-20)
(0.295588 0.0132178 8.91247e-21)
(-0.263356 -0.0137631 0)
(-0.258324 -0.010177 -2.19279e-21)
(-0.22299 -0.00400665 1.73103e-21)
(-0.124912 -0.00622695 6.05724e-21)
(0.0531084 0.00484378 -1.07294e-20)
(0.315815 0.0327326 -1.36078e-20)
(-0.261408 -0.01128 7.57592e-21)
(-0.257711 -0.000557945 -4.40258e-21)
(-0.225383 0.0088359 -1.07396e-19)
(-0.129476 0.00741852 -6.20495e-21)
(0.0521167 0.0211184 0)
(0.328286 0.0508389 0)
(-0.256574 -0.00795994 3.80955e-21)
(-0.25681 0.00964848 1.4305e-19)
(-0.229331 0.021958 1.15931e-19)
(-0.137923 0.0208914 1.15109e-19)
(0.04431 0.0369352 -9.82012e-20)
(0.332309 0.0668003 5.86864e-20)
(-0.249301 -0.00308529 -3.80826e-21)
(-0.255607 0.0202478 -1.5561e-19)
(-0.234717 0.0352174 -7.77174e-21)
(-0.150192 0.0339972 -1.16418e-19)
(0.0290233 0.0520907 1.10469e-19)
(0.327353 0.0799263 9.5501e-22)
(-0.242125 0.00451826 0)
(-0.254146 0.0309044 0)
(-0.241293 0.0483997 0)
(-0.165948 0.0465523 -2.3906e-19)
(0.00570597 0.0664068 -1.5573e-19)
(0.312503 0.0895179 -2.34337e-19)
(-0.230412 0.0242555 7.1141e-21)
(-0.252101 0.0405465 0)
(-0.248548 0.0611666 1.57136e-20)
(-0.184609 0.058416 2.02932e-19)
(-0.0260175 0.0799754 1.8074e-19)
(0.286694 0.0946674 -4.15855e-21)
(-0.213688 0.0347507 0)
(-0.247924 0.0470118 1.99137e-20)
(-0.255598 0.0732612 -1.53263e-20)
(-0.205089 0.0695677 0)
(-0.0661219 0.0930974 0)
(0.248971 0.0945019 2.58291e-20)
(-0.194433 0.0352275 3.83788e-19)
(-0.24041 0.0508749 0)
(-0.261454 0.0849096 3.33465e-20)
(-0.225951 0.0802452 -2.81593e-20)
(-0.113886 0.106132 -4.89475e-20)
(0.199023 0.0887028 3.15825e-20)
(-0.170658 0.0353883 -3.9748e-19)
(-0.228669 0.053826 0)
(-0.26515 0.0965542 0)
(-0.245678 0.090895 2.394e-19)
(-0.167875 0.119373 0)
(0.136777 0.0773212 -4.87875e-20)
(-0.147576 0.0340839 -1.29883e-20)
(-0.212868 0.05595 1.06722e-20)
(-0.266157 0.10808 0)
(-0.262443 0.101792 3.3506e-20)
(-0.225627 0.133053 -2.63114e-20)
(0.0616453 0.0588381 2.04027e-19)
(-0.121937 0.0300398 2.96033e-20)
(-0.19095 0.0558726 3.5774e-19)
(-0.261368 0.118064 2.8764e-19)
(-0.275273 0.109084 -2.64588e-19)
(-0.285942 0.15073 0)
(-0.0197679 0.0267075 2.64272e-19)
(-0.067287 0.010003 -3.21655e-20)
(-0.139475 0.0367916 -7.26214e-19)
(-0.230454 0.113046 -6.44559e-19)
(-0.247004 0.102423 0)
(-0.349047 0.204559 0)
(-0.0636513 0.0205572 -2.77927e-19)
(0.0140738 -0.0219683 1.00688e-19)
(0.140796 -0.0154154 1.91259e-19)
(0.289792 0.0061735 4.15413e-20)
(0.451513 0.0303054 -2.24231e-20)
(0.618309 0.0547359 6.2233e-20)
(0.782012 0.0762254 -2.01194e-20)
(0.936192 0.0923029 1.88214e-20)
(1.07642 0.101279 -2.21201e-21)
(1.19854 0.102481 0)
(1.29894 0.0959891 3.56933e-20)
(1.37621 0.083072 -3.32579e-20)
(1.42913 0.0654142 0)
(1.45983 0.043865 -1.36615e-20)
(1.4758 0.0223835 1.59149e-20)
(1.4782 0.00110097 -5.70033e-21)
(1.4702 -0.0187645 6.4058e-21)
(1.45441 -0.0360816 -3.36584e-21)
(1.43266 -0.0502354 1.75759e-20)
(1.4064 -0.0608436 -2.03086e-21)
(1.37691 -0.0677393 2.35231e-21)
(1.34454 -0.0708673 0)
(1.30911 -0.0694286 3.07746e-21)
(1.27041 -0.0601789 2.72084e-20)
(1.22509 -0.038186 -2.17308e-20)
(0.0502852 -0.0486458 -1.11365e-19)
(0.199613 -0.0315252 -7.63194e-20)
(0.374928 -0.0016423 -5.73659e-20)
(0.55871 0.0306521 -2.14163e-20)
(0.739697 0.0622783 1.9707e-20)
(0.908475 0.0892066 0)
(1.05901 0.108585 3.09782e-20)
(1.18702 0.118935 -3.21779e-20)
(1.28951 0.119935 -2.69084e-20)
(1.366 0.112617 0)
(1.41785 0.0991227 -1.88113e-20)
(1.44777 0.0804012 2.74747e-21)
(1.4634 0.0608537 3.68765e-20)
(1.46596 0.0402501 -2.13827e-20)
(1.45899 0.0203382 -8.29096e-21)
(1.44502 0.00214439 1.02121e-20)
(1.4258 -0.013674 4.0232e-22)
(1.40256 -0.0266365 -2.48783e-21)
(1.3763 -0.0364055 0)
(1.34763 -0.0428657 -3.37921e-21)
(1.31627 -0.0458663 0)
(1.28177 -0.0444873 0)
(1.2438 -0.0352642 0)
(1.1989 -0.0145438 1.03952e-20)
(0.094778 -0.0682315 0)
(0.271064 -0.0401576 -1.81978e-20)
(0.471959 -0.000751164 1.64123e-20)
(0.673696 0.0409016 -6.45507e-20)
(0.862064 0.0794128 1.60341e-21)
(1.02739 0.110064 -1.57731e-20)
(1.16479 0.130187 1.11602e-20)
(1.27209 0.139013 -1.00936e-20)
(1.35016 0.137491 2.06097e-20)
(1.40258 0.128157 0)
(1.4328 0.112439 -1.06047e-20)
(1.44851 0.0946994 1.00571e-20)
(1.45162 0.0750755 0)
(1.44575 0.0554812 -1.58706e-21)
(1.43346 0.0369077 -4.21029e-21)
(1.41651 0.0200332 3.07246e-21)
(1.39604 0.00538209 -8.95073e-21)
(1.37283 -0.00666725 0)
(1.34745 -0.0158192 0)
(1.31994 -0.0219794 0)
(1.2897 -0.0249773 0)
(1.25611 -0.023811 0)
(1.21886 -0.0148899 0)
(1.17465 0.00429199 -3.30499e-20)
(0.149429 -0.0768627 -1.70919e-20)
(0.354213 -0.0387624 8.69533e-20)