/*--------------------------------*- C++ -*----------------------------------*\
  =========                 |
  \\      /  F ield         | OpenFOAM: The Open Source CFD Toolbox
   \\    /   O peration     | Website:  https://openfoam.org
    \\  /    A nd           | Version:  11
     \\/     M anipulation  |
\*---------------------------------------------------------------------------*/
FoamFile
{
    format      ascii;
    class       volScalarField;
    location    "1.42";
    object      epsilon;
}
// * * * * * * * * * * * * * * * * * * * * * * * * * * * * * * * * * * * * * //

dimensions      [0 2 -3 0 0 0 0];

internalField   nonuniform List<scalar> 
2880
(
1.63705
1.87613
2.26594
2.35554
2.36152
2.98738
0.78533
0.811739
0.997297
1.09741
1.20031
1.51917
0.215109
0.605339
0.753256
0.845071
0.943735
1.14034
0.239704
0.544835
0.673144
0.761414
0.852524
0.985605
0.259212
0.530251
0.64492
0.731061
0.815731
0.913313
0.273192
0.537742
0.63913
0.723426
0.803637
0.881888
0.280944
0.560157
0.64504
0.727684
0.805103
0.873363
1.18693
0.596859
0.657367
0.73933
0.816534
0.880671
1.186
0.626447
0.672582
0.75588
0.835922
0.901619
1.20811
0.649857
0.68884
0.776091
0.862517
0.935272
1.23777
0.667924
0.705234
0.799366
0.896233
0.982023
1.26257
0.681205
0.721324
0.825414
0.937292
1.04302
1.27485
0.6899
0.736868
0.854016
0.98596
1.1198
1.27125
0.693948
0.75166
0.884865
1.04234
1.21403
1.25145
0.693052
0.76546
0.917464
1.1062
1.32721
1.21998
0.686662
0.778009
0.95108
1.17678
1.46044
1.18864
0.673679
0.789167
0.984823
1.25277
1.61403
1.18746
0.652853
0.799317
1.01793
1.33238
1.78715
0.276675
0.62683
0.810291
1.05058
1.41393
1.97755
0.265786
0.616332
0.826673
1.08571
1.49701
2.18235
0.248281
0.626266
0.858723
1.13384
1.58614
2.39376
0.22487
0.680457
0.93521
1.22699
1.70595
2.62017
0.832821
0.891319
1.17057
1.49389
1.97821
2.97931
1.83643
2.03034
2.49769
2.8885
3.22959
4.1014
3.48434
3.93039
4.11778
4.06383
3.83154
3.44438
2.99286
2.55998
2.15283
1.78399
1.46185
1.18736
0.957561
0.767702
0.612491
0.486763
0.385707
0.305339
0.242582
0.193948
0.156593
0.128068
0.107811
0.0905678
1.96826
2.46748
2.84565
3.04845
3.07098
2.97821
2.77055
2.49894
2.22056
1.94868
1.69175
1.45704
1.24757
1.06371
0.904292
0.767344
0.650959
0.55312
0.471528
0.404039
0.349931
0.304644
0.273475
0.237911
1.35522
1.65668
1.96989
2.22082
2.36881
2.41584
2.38642
2.29537
2.15811
2.0058
1.85064
1.70004
1.55859
1.42872
1.31157
1.20732
1.11534
1.03447
0.963943
0.902131
0.849548
0.800592
0.765178
0.717304
1.10015
1.26745
1.47501
1.67931
1.84193
1.95008
2.00775
2.0189
2.00376
1.96545
1.91552
1.865
1.81808
1.77682
1.74192
1.71313
1.69018
1.67187
1.65637
1.64177
1.6263
1.60871
1.58857
1.55946
0.987273
1.08714
1.22279
1.36925
1.50496
1.61752
1.70464
1.76811
1.81424
1.84689
1.87158
1.89191
1.91111
1.93148
1.95365
1.97684
1.99864
2.01658
2.02839
2.0318
2.02738
2.01556
1.9933
1.96233
0.939157
1.00724
1.10005
1.20291
1.30493
1.39985
1.48437
1.55871
1.62517
1.68555
1.74179
1.79518
1.84623
1.89452
1.93888
1.97789
2.01024
2.03461
2.04965
2.05424
2.04915
2.03398
2.00505
1.97313
0.924603
0.979573
1.04867
1.1232
1.19688
1.26726
1.3342
1.39821
1.45954
1.51852
1.57501
1.62837
1.67792
1.72244
1.76059
1.7911
1.81308
1.82605
1.82968
1.82525
1.81154
1.7859
1.75054
1.71775
0.930993
0.980655
1.0384
1.09809
1.15505
1.20693
1.25488
1.30006
1.34311
1.38433
1.42351
1.45996
1.49197
1.51804
1.53716
1.54877
1.55293
1.55074
1.54265
1.53035
1.51575
1.49964
1.48281
1.46729
0.9566
1.00863
1.06219
1.11331
1.15949
1.20063
1.23731
1.27037
1.3003
1.32712
1.35035
1.3693
1.38371
1.39351
1.39878
1.40011
1.39854
1.39545
1.39213
1.38976
1.38946
1.39195
1.39608
1.39642
1.00099
1.0632
1.12181
1.17388
1.2179
1.25421
1.28403
1.30861
1.32891
1.34548
1.35857
1.3683
1.3747
1.37797
1.37866
1.37777
1.37632
1.37546
1.37609
1.37879
1.38408
1.39334
1.40835
1.42316
1.06594
1.14752
1.22104
1.2839
1.33523
1.37608
1.40823
1.43336
1.45284
1.46765
1.47853
1.48616
1.49125
1.4946
1.49684
1.49909
1.50169
1.5047
1.50823
1.51139
1.51245
1.5112
1.51223
1.52063
1.15465
1.26684
1.36623
1.45017
1.51849
1.57319
1.61673
1.65139
1.67903
1.7011
1.71877
1.73314
1.74508
1.75524
1.7644
1.77269
1.77869
1.78144
1.78162
1.77217
1.74764
1.70077
1.63533
1.57681
1.27136
1.42785
1.56477
1.6796
1.77323
1.84906
1.91055
1.96062
2.00172
2.0355
2.06335
2.08658
2.10531
2.11914
2.13137
2.1373
2.13107
2.11035
2.06373
1.99148
1.89937
1.79044
1.68219
1.5786
1.42123
1.63809
1.82339
1.9761
2.09917
2.19817
2.27799
2.34208
2.39386
2.43416
2.46569
2.48908
2.50102
2.49613
2.46909
2.42045
2.35014
2.26145
2.16212
2.04941
1.92379
1.78298
1.64009
1.45877
1.61038
1.9053
2.14576
2.33649
2.48469
2.59934
2.6876
2.75308
2.80123
2.82857
2.82709
2.79828
2.74707
2.67433
2.59085
2.49428
2.38208
2.25368
2.10601
1.94021
1.76124
1.56647
1.3869
1.15191
1.84596
2.23625
2.52895
2.74543
2.90129
3.01025
3.08318
3.11577
3.09597
3.04863
2.975
2.88967
2.78787
2.66818
2.52694
2.36493
2.18409
1.9871
1.77731
1.55931
1.34144
1.12684
0.94024
0.729898
2.13655
2.63459
2.95883
3.1704
3.30026
3.35948
3.33755
3.27453
3.18566
3.07535
2.94037
2.77807
2.59309
2.38904
2.16961
1.93866
1.70048
1.46043
1.22549
1.00532
0.804992
0.6333
0.492969
0.383247
2.49279
3.0969
3.40519
3.55879
3.58358
3.51305
3.40525
3.26352
3.0818
2.86784
2.62997
2.3758
2.11228
1.84534
1.58039
1.32312
1.08101
0.860582
0.670153
0.516136
0.401011
0.319771
0.261342
0.22717
2.92882
3.60585
3.81929
3.8122
3.68542
3.51005
3.28239
3.01188
2.71336
2.40028
2.08467
1.77635
1.48285
1.20976
0.964068
0.749855
0.574641
0.4425
0.347442
0.277775
0.226961
0.190728
0.165373
0.156806
3.46662
4.12122
4.12013
3.89988
3.62369
3.29386
2.92812
2.54575
2.16531
1.80275
1.46986
1.17311
0.916642
0.704352
0.53671
0.413192
0.324015
0.258222
0.209716
0.174404
0.14898
0.13105
0.119011
0.117738
4.15382
4.58001
4.24664
3.8185
3.36409
2.89668
2.43242
1.99253
1.59523
1.25184
0.965263
0.734883
0.557565
0.426206
0.33095
0.261987
0.210767
0.172153
0.14277
0.12034
0.103599
0.0917831
0.085202
0.0859944
5.07449
4.95754
4.23907
3.56969
2.9765
2.42336
1.92234
1.49057
1.13635
0.856842
0.643869
0.486721
0.372473
0.288942
0.226778
0.179478
0.143106
0.115084
0.0937894
0.0783502
0.0680706
0.0621875
0.0606639
0.0629905
6.30776
5.189
4.03065
3.2268
2.55423
1.97278
1.49034
1.10988
0.821506
0.608728
0.454248
0.341863
0.259005
0.197179
0.150843
0.116271
0.0908026
0.0724972
0.059894
0.0517964
0.0471228
0.0452042
0.0457269
0.0486366
8.04174
5.26742
3.76783
2.86858
2.16021
1.59329
1.1595
0.840053
0.609519
0.444275
0.325191
0.238775
0.176084
0.130915
0.0986979
0.0759729
0.0601322
0.0492585
0.0420071
0.037464
0.0350378
0.0344397
0.0353229
0.038139
2.54297
5.13805
8.99194
10.5847
9.8967
28.9346
0.967417
2.95927
4.79614
6.09347
7.12531
10.3809
0.261368
2.37646
3.70662
4.92415
6.12261
7.33384
1.23772
2.13218
3.25006
4.43444
5.60526
6.31628
1.53011
1.99749
3.01442
4.19469
5.34341
5.85351
1.77502
1.91713
2.88081
4.07833
5.22698
5.61402
1.97116
1.86854
2.80071
4.02937
5.18953
5.48611
2.11949
1.83711
2.74941
4.02016
5.20912
5.42782
2.2216
1.81179
2.7119
4.03936
5.27486
5.41501
2.27917
1.78521
2.67755
4.07573
5.36827
5.43816
2.29348
1.75242
2.63855
4.11971
5.47673
5.49479
2.26897
1.71061
2.58797
4.16098
5.59406
5.57961
2.21271
1.65916
2.51967
4.18761
5.71899
5.6914
2.13251
1.59808
2.42801
4.18812
5.85135
5.84431
2.02741
1.52446
2.31019
4.14955
5.99088
6.05321
1.89761
1.43611
2.16413
4.05602
6.13429
6.32963
1.743
1.33039
1.98949
3.89122
6.27036
6.68935
1.55754
1.20181
1.78774
3.64005
6.37767
7.15395
1.30762
1.03734
1.56397
3.29395
6.40737
7.75597
0.280949
0.814348
1.334
2.86233
6.30882
8.55197
0.262737
0.670427
1.11572
2.36355
5.98794
9.655
0.239549
0.619775
0.958348
1.86271
5.32739
11.3136
0.902907
0.781272
0.972194
1.51267
4.12083
13.6616
2.27829
1.83405
1.88455
2.15888
2.95646
6.23304
9.64301
4.89088
3.43926
2.51771
1.81314
1.28754
0.909919
0.643452
0.456083
0.323943
0.230747
0.165433
0.120039
0.088692
0.0670977
0.0522006
0.0419116
0.0348724
0.0302406
0.0274725
0.0262136
0.0262498
0.0272922
0.0298148
6.72138
4.34105
3.10245
2.18817
1.51564
1.04299
0.717597
0.494229
0.340735
0.23558
0.164086
0.115833
0.0833841
0.061532
0.0467285
0.0366324
0.0297407
0.0251061
0.0221394
0.0204647
0.0198505
0.0200863
0.0211479
0.0232773
5.78305
4.02929
2.79432
1.89038
1.26596
0.847025
0.566939
0.37945
0.254425
0.171749
0.117516
0.0820809
0.0588802
0.043567
0.0333393
0.0264276
0.0217318
0.0185796
0.0165693
0.0154594
0.0151066
0.0153674
0.0162869
0.0179806
5.35804
3.73417
2.49079
1.62688
1.05885
0.689178
0.448085
0.291326
0.190348
0.125963
0.0851433
0.0592111
0.0425679
0.0317098
0.0244885
0.0196005
0.0162594
0.0139949
0.012531
0.0117078
0.0114326
0.011627
0.0123339
0.0136393
5.05373
3.43908
2.21177
1.40222
0.88808
0.56162
0.35442
0.224126
0.143229
0.0934289
0.0627526
0.04365
0.031527
0.0236498
0.0184041
0.0148331
0.0123659
0.0106627
0.00952511
0.00884197
0.00855245
0.00863005
0.00910422
0.0100716
4.80038
3.15726
1.96534
1.21256
0.74701
0.45857
0.281041
0.173349
0.108853
0.0703467
0.0471442
0.0328826
0.0238811
0.0180308
0.0141166
0.0114277
0.00954124
0.00820402
0.00726695
0.00664678
0.00630189
0.00623178
0.00648022
0.00714231
4.57218
2.89911
1.75282
1.0533
0.630641
0.375697
0.223981
0.135245
0.0838307
0.053899
0.0361449
0.0253121
0.0184814
0.0140266
0.0110255
0.00894173
0.0074548
0.00636973
0.00556818
0.00498138
0.00457445
0.00434878
0.00437355
0.0047546
4.36417
2.67062
1.5719
0.919891
0.534915
0.309434
0.179901
0.106753
0.0655813
0.0420777
0.0282792
0.0198855
0.0145831
0.0111078
0.00874927
0.00709456
0.00589531
0.00499729
0.00430276
0.00375008
0.00330325
0.00295401
0.00273923
0.00279183
4.17928
2.47365
1.41931
0.808578
0.456555
0.256774
0.146003
0.0854502
0.0521908
0.0334788
0.0225603
0.0159203
0.0117122
0.0089397
0.00704544
0.00570516
0.00472249
0.00397356
0.00337696
0.00287673
0.00243351
0.00202463
0.00162648
0.00111346
4.02217
2.30853
1.29217
0.716301
0.392791
0.215144
0.119991
0.0694717
0.0422767
0.0271371
0.0183312
0.012969
0.00955874
0.00730178
0.00575206
0.0046496
0.00383641
0.00321239
0.00271123
0.00228617
0.00190152
0.00153212
0.00117231
0.000757139
3.8969
2.17419
1.18768
0.640397
0.341225
0.182372
0.100031
0.0574191
0.0348569
0.0223911
0.0151503
0.0107329
0.00791491
0.00604401
0.00475574
0.0038372
0.00315874
0.00263826
0.00222169
0.00187127
0.00155827
0.00126247
0.000976319
0.000662268
3.80883
2.06921
1.10334
0.57857
0.299804
0.156668
0.0846967
0.0482622
0.0292385
0.0187869
0.0127186
0.0090099
0.00663892
0.0050622
0.00397565
0.00320108
0.00262967
0.00219245
0.00184412
0.00155318
0.00129595
0.00105692
0.000832998
0.000601492
3.76423
1.99226
1.03712
0.528887
0.266823
0.13658
0.0728886
0.0412488
0.0249337
0.0160112
0.0108313
0.0076616
0.00563317
0.00428422
0.00335569
0.00269529
0.00220978
0.00184006
0.00154741
0.0013051
0.00109347
0.00090052
0.000725051
0.000552344
3.76182
1.94255
0.987439
0.489905
0.240838
0.120877
0.0637358
0.0358333
0.0215981
0.0138456
0.00934639
0.00659194
0.00482986
0.00365997
0.00285713
0.00228863
0.00187307
0.00155889
0.00131242
0.00111066
0.000936961
0.000781685
0.000644126
0.000513933
3.80231
1.91947
0.95362
0.460183
0.220506
0.108592
0.0566026
0.0316214
0.0189869
0.0121363
0.00816384
0.00573325
0.00418108
0.00315397
0.00245255
0.00195903
0.00160109
0.00133301
0.00112505
0.000957048
0.000814693
0.000689948
0.000582096
0.000483631
3.89013
1.92203
0.934871
0.438364
0.204774
0.0989994
0.0510282
0.0283197
0.0169242
0.0107738
0.00721239
0.00503705
0.00365233
0.00274055
0.00212202
0.00169039
0.00138042
0.0011509
0.000975201
0.000835386
0.000718913
0.000618863
0.000534302
0.0004597
4.03512
1.95443
0.93052
0.423389
0.192793
0.0915344
0.0466636
0.0257184
0.015283
0.00967859
0.00644034
0.00446803
0.00321831
0.00240073
0.00185065
0.0014706
0.00120083
0.00100376
0.000855159
0.00073888
0.000643747
0.000563633
0.000497336
0.000440767
4.24762
2.01841
0.936618
0.414106
0.183841
0.0857544
0.0432452
0.0236616
0.01397
0.00879251
0.00580964
0.00400004
0.00286012
0.00212015
0.00162707
0.00129027
0.00105437
0.000884656
0.00075886
0.000662227
0.000584668
0.000520628
0.000468659
0.000425756
4.54168
2.11477
0.953084
0.409789
0.17732
0.0813072
0.0405701
0.0220322
0.0129155
0.00807226
0.00529193
0.00361344
0.0025634
0.00188781
0.00144244
0.00114207
0.000934785
0.000788171
0.000681554
0.000601309
0.000538205
0.00048711
0.000446377
0.000413839
4.93827
2.25041
0.982368
0.409635
0.172698
0.0778989
0.0384774
0.0207399
0.0120669
0.00748519
0.00486573
0.00329326
0.00231713
0.00169515
0.00128985
0.00102022
0.000837108
0.000709995
0.000619494
0.000552898
0.000501665
0.000460982
0.000429059
0.000404386
5.46636
2.42964
1.01925
0.411403
0.169359
0.0752575
0.0368342
0.0197136
0.0113837
0.00700642
0.00451463
0.00302797
0.00211269
0.00153542
0.0011638
0.000920088
0.000757383
0.000646699
0.000569705
0.000514446
0.00047294
0.00044063
0.00041563
0.000396924
6.16895
2.65545
1.0586
0.413873
0.166719
0.0731434
0.0355288
0.0188966
0.0108348
0.00661687
0.00422605
0.00280863
0.00194336
0.00140328
0.00105988
0.000837975
0.000692443
0.000595548
0.000529823
0.00048393
0.000450373
0.000424812
0.000405284
0.000391101
7.10868
2.87501
1.09265
0.414987
0.16412
0.0713328
0.0344666
0.0182436
0.0103961
0.00630203
0.00399035
0.00262834
0.00180384
0.00129448
0.000974574
0.000770895
0.000639733
0.000554349
0.000497961
0.000459746
0.000432639
0.000412533
0.000397394
0.000386649
8.28372
3.03803
1.10679
0.410853
0.160839
0.0696368
0.0335749
0.0177198
0.0100495
0.00605107
0.00380033
0.00248183
0.00169001
0.00120565
0.000905039
0.000716423
0.000597176
0.000521321
0.000472602
0.000440609
0.000418663
0.000402919
0.000391408
0.000383275
3.22422
8.01115
11.3434
12.4067
10.7887
38.6646
1.14168
4.51498
6.25266
7.27594
8.68576
13.6938
1.69086
3.59096
4.73506
5.55623
6.58973
8.07776
2.33752
3.20471
4.04504
4.70308
5.35363
5.8436
2.92981
3.00179
3.65017
4.19426
4.60475
4.72989
3.45456
2.89182
3.39718
3.85621
4.1287
4.09136
3.90502
2.83136
3.22549
3.61952
3.81613
3.69615
4.27769
2.79872
3.10525
3.45274
3.60729
3.44581
4.5707
2.7818
3.01994
3.33727
3.47125
3.29237
4.78292
2.77335
2.95982
3.26113
3.39076
3.21091
4.91406
2.76957
2.91853
3.21621
3.35571
3.1881
4.96708
2.76798
2.89156
3.19659
3.35975
3.21531
4.96175
2.76908
2.8753
3.19762
3.39733
3.29277
4.89511
2.76916
2.86634
3.21459
3.47057
3.41996
4.76027
2.76257
2.86158
3.24637
3.57601
3.60007
4.55094
2.74421
2.85806
3.29192
3.71318
3.83965
4.26262
2.7085
2.85381
3.34898
3.88359
4.14917
3.89252
2.65081
2.84981
3.41889
4.09044
4.54733
3.43985
2.57483
2.85338
3.508
4.34094
5.07375
2.90805
2.49146
2.88378
3.63293
4.65084
5.81171
2.30827
2.42744
2.99103
3.83788
5.05937
6.97515
1.66417
2.46683
3.29706
4.24795
5.69296
9.25758
1.14076
2.92627
4.23585
5.32776
6.97654
15.3778
2.96262
6.28172
8.76685
9.82297
10.8165
50.3741
9.07299
3.04612
1.07882
0.398765
0.156483
0.067946
0.0328084
0.0173025
0.00978266
0.00585638
0.00365082
0.00236527
0.00159881
0.00113421
0.000849057
0.000672633
0.000563098
0.000495024
0.000452537
0.000425543
0.000407686
0.000395363
0.000386745
0.000380661
6.67232
2.67021
1.00167
0.379743
0.151239
0.0662677
0.0321549
0.0169807
0.00958781
0.00571313
0.00353844
0.00227602
0.00152805
0.00107828
0.000805002
0.000638098
0.000536242
0.000474369
0.000436853
0.000413827
0.000399185
0.000389504
0.000383091
0.000378659
5.24673
2.31185
0.917208
0.358675
0.14578
0.0647114
0.0316316
0.0167553
0.00946237
0.00561891
0.00346129
0.0022125
0.00147632
0.00103662
0.000771759
0.000611825
0.000515726
0.000458573
0.000424869
0.000404903
0.000392756
0.000385119
0.000380323
0.000377218
4.29503
2.02637
0.841848
0.339119
0.140833
0.063429
0.0312742
0.0166355
0.00940817
0.00557352
0.00341877
0.00217393
0.0014428
0.00100843
0.000748571
0.000593113
0.000500908
0.000447055
0.00041607
0.000398318
0.000388008
0.00038191
0.000378353
0.000376258
3.64375
1.81512
0.780868
0.322943
0.136909
0.0625572
0.0311227
0.0166349
0.00942776
0.00557855
0.00341147
0.00216038
0.00142722
0.000993266
0.000734953
0.000581461
0.000491298
0.00043936
0.000410054
0.000393737
0.000384676
0.000379675
0.000377014
0.000375641
3.202
1.66228
0.735061
0.311019
0.134334
0.0622023
0.0312011
0.016749
0.00951577
0.00562874
0.00343639
0.00217061
0.00142939
0.000991074
0.000730729
0.000576601
0.000486583
0.000435189
0.000406548
0.000390917
0.000382545
0.000378266
0.000376211
0.000375276
2.90512
1.55696
0.703925
0.303721
0.133316
0.0624245
0.0315276
0.0169965
0.00968259
0.0057292
0.00349443
0.00220309
0.00144693
0.00100014
0.000734984
0.000578144
0.000486638
0.000434426
0.000405437
0.000389739
0.000381567
0.000377566
0.000375786
0.000375113
2.71186
1.49118
0.686708
0.30121
0.133949
0.0632809
0.0321497
0.0174
0.00994408
0.00589265
0.00359541
0.0022653
0.00148527
0.00102374
0.00074943
0.000586844
0.000491659
0.00043717
0.000406794
0.000390288
0.000381709
0.000377536
0.000375714
0.000375073
2.59673
1.45969
0.682851
0.303521
0.136371
0.0649033
0.0331539
0.0180164
0.010332
0.00613543
0.00374853
0.00236266
0.00154745
0.00106356
0.000774977
0.000603189
0.000502045
0.000443663
0.000410759
0.000392634
0.000382955
0.000378136
0.000375951
0.000375122
2.54456
1.45958
0.692383
0.31133
0.141089
0.0675255
0.0346174
0.0188652
0.0108491
0.00645714
0.00395228
0.00249345
0.00163243
0.00111938
0.000811935
0.000627736
0.000518292
0.000454311
0.000417643
0.000397003
0.000385583
0.000379535
0.000376589
0.000375286
2.54689
1.49009
0.716352
0.325247
0.148302
0.0712016
0.0365653
0.0199587
0.0115015
0.00686229
0.00421068
0.00266139
0.00174321
0.00119339
0.000861875
0.000661615
0.000541242
0.000469737
0.000427888
0.000403689
0.000389796
0.000381926
0.000377725
0.000375646
2.6002
1.55216
0.75623
0.346047
0.158363
0.0760893
0.0390706
0.0213346
0.0123105
0.00736323
0.00453152
0.00287168
0.00188347
0.0012883
0.000926819
0.000706342
0.000572047
0.000490813
0.00044214
0.000413151
0.00039585
0.000385518
0.000379564
0.000376324
2.70476
1.64809
0.815003
0.375062
0.171858
0.0824394
0.0422425
0.0230437
0.0133013
0.00797441
0.00492393
0.00313054
0.0020577
0.00140743
0.00100928
0.000763859
0.000612218
0.00051872
0.000461313
0.000426084
0.000404267
0.000390631
0.000382326
0.000377416
2.86417
1.78265
0.896059
0.414075
0.189572
0.0905796
0.0462204
0.0251491
0.0145048
0.00871292
0.00539854
0.00344524
0.00227115
0.00155477
0.00111234
0.000836577
0.000663664
0.000554973
0.000486594
0.00044339
0.000415707
0.000397721
0.000386279
0.000379071
3.08546
1.96298
1.00372
0.465452
0.212548
0.100937
0.0511821
0.0277297
0.0159584
0.00959905
0.0059678
0.00382419
0.00252996
0.00173497
0.00123966
0.000927413
0.000728731
0.000601458
0.000519484
0.000466232
0.000431024
0.000407376
0.000391793
0.000381474
3.37969
2.19864
1.14397
0.532316
0.24215
0.114068
0.0573548
0.0308841
0.0177077
0.0106569
0.00664611
0.00427701
0.00284111
0.00195341
0.00139549
0.0010398
0.000810214
0.000660456
0.000561827
0.000496063
0.000451312
0.000420364
0.000399344
0.000384861
3.76344
2.50238
1.32455
0.618683
0.280137
0.130683
0.0650262
0.034735
0.0198085
0.0119149
0.00745003
0.00481456
0.00321239
0.00221606
0.00158462
0.00117765
0.000911356
0.000734661
0.000615853
0.0005347
0.000478001
0.000437698
0.000409423
0.000389423
4.26115
2.89145
1.55505
0.729536
0.328708
0.151677
0.0745551
0.0394335
0.0223284
0.0134068
0.00839861
0.00544896
0.00365241
0.00252952
0.00181234
0.00134539
0.00103587
0.000827224
0.000684221
0.000584337
0.000512792
0.000460547
0.000422756
0.000395417
4.90603
3.39044
1.84691
0.870728
0.390498
0.178133
0.0863782
0.0451633
0.0253512
0.015173
0.00951375
0.00619377
0.00417056
0.00290094
0.00208448
0.00154789
0.00118798
0.000941783
0.000770047
0.000647578
0.000557758
0.000490431
0.000440318
0.000403215
5.75643
4.03446
2.21296
1.04858
0.468444
0.211303
0.101003
0.0521343
0.028988
0.0172619
0.0108207
0.00706412
0.00477713
0.00333804
0.0024073
0.00179051
0.00137232
0.00108243
0.000876905
0.000727477
0.000615405
0.000529265
0.000463369
0.000413282
6.94628
4.85891
2.66492
1.26877
0.56543
0.252514
0.119001
0.0605938
0.0333517
0.0197287
0.0123485
0.00807705
0.00548337
0.00384911
0.00278744
0.00207889
0.00159391
0.00125363
0.00100878
0.000827531
0.000688698
0.000579391
0.000493506
0.000426222
8.79521
5.89818
3.20928
1.53428
0.683537
0.302957
0.140951
0.0708095
0.0385593
0.0226345
0.0141299
0.00925183
0.00630172
0.00444307
0.00323193
0.00241898
0.00185798
0.00146015
0.00117001
0.000951658
0.00078107
0.000643619
0.000532701
0.000442802
12.3977
7.27709
3.85377
1.84333
0.822927
0.363309
0.167334
0.0830392
0.04474
0.0260479
0.0162029
0.0106105
0.00724619
0.00512968
0.0037482
0.00281691
0.00216991
0.0017069
0.00136519
0.00110414
0.000896407
0.000725245
0.00058335
0.000463971
21.672
9.56063
4.62734
2.18881
0.98068
0.433269
0.198394
0.0974994
0.0520243
0.0300447
0.0186104
0.0121786
0.0083329
0.00591988
0.00434429
0.00327909
0.00253525
0.00199892
0.00159908
0.00128954
0.001039
0.00082807
0.000648313
0.000490885
5.09141
3.79165
2.68398
1.92255
1.50064
2.75401
1.5045
2.10469
1.83383
1.4179
1.45612
3.23447
2.18211
2.1503
1.78428
1.45358
1.61073
3.49486
2.68948
2.36566
1.84037
1.57402
1.79979
3.71654
3.06999
2.47642
1.91477
1.70429
1.98378
3.88964
3.37962
2.53062
1.98526
1.83434
2.15704
4.03411
3.64606
2.55874
2.05861
1.96506
2.32321
4.12447
3.88005
2.57971
2.14116
2.09885
2.48848
4.17138
4.08581
2.60241
2.23576
2.23719
2.65759
4.19644
4.26572
2.63572
2.34333
2.38486
2.83059
4.21729
4.42162
2.68702
2.46331
2.54454
3.00769
4.24177
4.55571
2.76289
2.59632
2.71644
3.18964
4.27779
4.67104
2.87017
2.74359
2.90032
3.37852
4.33426
4.72065
2.99791
2.90501
3.09646
3.57944
4.43042
4.70729
3.14286
3.08138
3.30731
3.80337
4.59492
4.61319
3.30607
3.27597
3.53725
4.06109
4.83947
4.43417
3.4913
3.49456
3.79146
4.3613
5.1708
4.16304
3.70524
3.74664
4.0759
4.71016
5.59397
3.79125
3.9615
4.04748
4.39968
5.11202
6.09742
3.31993
4.27747
4.42808
4.78223
5.57823
6.66083
2.75649
4.70984
4.95855
5.27248
6.1542
7.29383
2.07232
5.41178
5.8259
6.00853
7.00153
8.20501
1.34615
6.89588
7.76612
7.46994
8.26728
11.1318
5.08211
11.045
13.8545
12.1215
9.6739
31.5694
18.19
10.9135
5.3022
2.52998
1.1474
0.510993
0.234015
0.114338
0.0605391
0.0347087
0.0214028
0.0139866
0.00958111
0.0068265
0.00502936
0.00381254
0.00295975
0.00234135
0.00187651
0.00151257
0.00121349
0.000956397
0.000730972
0.00052492
14.1075
10.6895
5.68979
2.81901
1.31117
0.593649
0.273788
0.133644
0.0704129
0.0401351
0.0246404
0.016072
0.0110146
0.0078654
0.00581447
0.00442545
0.00344991
0.00273967
0.00220252
0.00177814
0.00142479
0.00111503
0.000835308
0.000567698
11.5299
10.1508
5.87701
3.04177
1.46429
0.678783
0.317278
0.155509
0.0817925
0.0464373
0.028397
0.0184818
0.0126639
0.00905695
0.00671388
0.00512825
0.00401375
0.00320046
0.00258281
0.00209158
0.00167823
0.00130935
0.000966049
0.000621137
9.86312
9.29153
5.86518
3.19456
1.60087
0.764903
0.364205
0.180069
0.0948615
0.0537546
0.032765
0.0212753
0.014568
0.0104279
0.00774677
0.00593537
0.00466258
0.00373289
0.00302514
0.00245975
0.00198029
0.00154585
0.00112914
0.00068762
8.75196
8.49921
5.76516
3.29011
1.71996
0.850682
0.414687
0.207569
0.109857
0.0622591
0.037859
0.0245272
0.0167767
0.0120131
0.00893901
0.00686721
0.0054134
0.00435167
0.00354246
0.00289417
0.00234139
0.00183441
0.00133365
0.000770797
7.95126
7.81202
5.62887
3.34491
1.82308
0.935292
0.468586
0.238458
0.127116
0.0721689
0.0438201
0.0283292
0.0193512
0.0138558
0.0103237
0.00795136
0.00629112
0.0050807
0.00415845
0.00341831
0.00278449
0.00219733
0.0016005
0.000881488
7.34309
7.22898
5.45129
3.3642
1.91116
1.01844
0.525826
0.272978
0.147019
0.0837508
0.050821
0.0327916
0.0223635
0.0160056
0.0119381
0.00921943
0.0073263
0.00595292
0.00491117
0.00407759
0.00336366
0.00269774
0.00200335
0.00111227
6.86114
6.73628
5.23025
3.35509
1.98534
1.09955
0.586312
0.311427
0.169931
0.0973092
0.0590673
0.0380436
0.0258935
0.0185125
0.013815
0.0106956
0.00854086
0.00699429
0.00583852
0.0049333
0.00418176
0.00351832
0.00293635
0.00257151
6.46705
6.32175
5.0083
3.33113
2.04785
1.17814
0.649902
0.354083
0.196266
0.1132
0.068804
0.0442376
0.0300303
0.0214249
0.0159772
0.0123866
0.009933
0.00820196
0.00694693
0.00601766
0.00532189
0.00481145
0.00449769
0.00445447
6.14109
5.97605
4.80142
3.29882
2.10089
1.25414
0.716371
0.401197
0.226477
0.131844
0.0803339
0.0515664
0.0348866
0.0248027
0.0184509
0.0142974
0.0114938
0.0095559
0.00820098
0.0072624
0.00664217
0.00628729
0.00618095
0.00628939
5.87438
5.69351
4.61823
3.26428
2.1468
1.32793
0.785452
0.452961
0.261049
0.15374
0.0940419
0.0602877
0.0406218
0.0287393
0.0212881
0.0164553
0.0132359
0.011058
0.00958997
0.00863545
0.00807486
0.00783219
0.00785247
0.00803801
5.66571
5.47274
4.46669
3.2339
2.18865
1.39994
0.85695
0.509556
0.300502
0.179482
0.110424
0.0707543
0.0474669
0.033379
0.0245762
0.0189108
0.0151844
0.0127134
0.0110993
0.0101027
0.00957166
0.00940105
0.00949661
0.00974228
5.52156
5.31759
4.35549
3.21419
2.23045
1.47149
0.930956
0.571149
0.34539
0.209776
0.130115
0.0834479
0.0557538
0.0389388
0.0284518
0.021746
0.0173828
0.0145356
0.0127184
0.0116357
0.0110953
0.0109623
0.0111063
0.0114031
5.46178
5.24373
4.29855
3.20883
2.2762
1.54436
1.008
0.637999
0.396311
0.245443
0.15392
0.0990192
0.0659537
0.0457386
0.0331235
0.0250907
0.0199057
0.0165599
0.0144547
0.0132228
0.0126255
0.0124951
0.012668
0.0130092
5.49663
5.26547
4.30643
3.23402
2.33306
1.62178
1.08948
0.710723
0.453987
0.287445
0.182843
0.118334
0.0787276
0.0542461
0.0389061
0.0291488
0.0228791
0.0188584
0.0163437
0.014876
0.0141595
0.0139894
0.0141692
0.0145498
5.62963
5.38974
4.40411
3.31032
2.41248
1.70942
1.17786
0.790557
0.519403
0.336924
0.218115
0.142524
0.0949914
0.0651408
0.0462754
0.0342406
0.0265117
0.0215627
0.0184648
0.01664
0.0157184
0.0154505
0.0156093
0.016015
5.91725
5.68152
4.63446
3.46737
2.53334
1.81749
1.27812
0.879948
0.594099
0.395329
0.261257
0.173052
0.116001
0.0794056
0.055952
0.0408714
0.0311477
0.0249024
0.0209684
0.0186115
0.0173616
0.0169105
0.017007
0.0174091
6.36531
6.14948
5.02604
3.7432
2.72523
1.96411
1.4001
0.983996
0.680958
0.464787
0.314248
0.211825
0.143469
0.0984546
0.0690262
0.0498408
0.037354
0.0292713
0.0241249
0.0209752
0.0192134
0.0184488
0.0184166
0.0187661
6.92916
6.76139
5.57194
4.1633
3.02298
2.17725
1.56176
1.11305
0.785859
0.549028
0.37999
0.261432
0.179741
0.124313
0.0871416
0.0624134
0.0460658
0.0353431
0.0284124
0.0240691
0.0215151
0.0202396
0.019925
0.0201892
7.52688
7.40202
6.1824
4.6974
3.43983
2.48501
1.78888
1.28545
0.920463
0.655384
0.463508
0.325816
0.228201
0.159925
0.112781
0.0805922
0.0588341
0.0442808
0.034686
0.028514
0.0247176
0.0226045
0.0217646
0.0218548
8.02618
7.8606
6.67633
5.22513
3.92432
2.88419
2.09977
1.52338
1.10333
0.797341
0.574267
0.411893
0.294302
0.209842
0.149798
0.107589
0.078256
0.0581204
0.044499
0.0354747
0.0296893
0.0261961
0.0244257
0.0241174
8.25466
7.86618
6.81673
5.54723
4.34037
3.30385
2.47219
1.83196
1.35041
0.992359
0.727403
0.531752
0.387593
0.281785
0.2046
0.148762
0.108779
0.0804847
0.0607411
0.0472074
0.0381639
0.0323544
0.0289542
0.0277345
7.98469
7.20416
6.46682
5.47886
4.5036
3.60613
2.81989
2.16921
1.65031
1.24628
0.936331
0.700689
0.522578
0.388565
0.288218
0.213539
0.158402
0.118097
0.0889896
0.0682748
0.0538247
0.0440218
0.0377055
0.0345338
6.75438
5.8026
5.502
4.99501
4.33956
3.654
3.01933
2.44304
1.94528
1.53068
1.19378
0.924678
0.712295
0.546173
0.41719
0.317739
0.24162
0.183868
0.140541
0.108474
0.0852206
0.0686031
0.0570554
0.0495124
)
;

boundaryField
{
    rotor
    {
        type            epsilonWallFunction;
        value           nonuniform List<scalar> 
144
(
1.63705
1.87613
2.26594
2.35554
2.36152
2.98738
1.63705
0.78533
0.215109
0.239704
0.259212
0.273192
0.280944
1.18693
1.186
1.20811
1.23777
1.26257
1.27485
1.27125
1.25145
1.21998
1.18864
1.18746
0.276675
0.265786
0.248281
0.22487
0.832821
1.83643
1.83643
2.03034
2.49769
2.8885
3.22959
4.1014
2.54297
5.13805
8.99194
10.5847
9.8967
28.9346
2.54297
0.967417
0.261368
1.23772
1.53011
1.77502
1.97116
2.11949
2.2216
2.27917
2.29348
2.26897
2.21271
2.13251
2.02741
1.89761
1.743
1.55754
1.30762
0.280949
0.262737
0.239549
0.902907
2.27829
2.27829
1.83405
1.88455
2.15888
2.95646
6.23304
3.22422
8.01115
11.3434
12.4067
10.7887
38.6646
3.22422
1.14168
1.69086
2.33752
2.92981
3.45456
3.90502
4.27769
4.5707
4.78292
4.91406
4.96708
4.96175
4.89511
4.76027
4.55094
4.26262
3.89252
3.43985
2.90805
2.30827
1.66417
1.14076
2.96262
2.96262
6.28172
8.76685
9.82297
10.8165
50.3741
5.09141
3.79165
2.68398
1.92255
1.50064
2.75401
5.09141
1.5045
2.18211
2.68948
3.06999
3.37962
3.64606
3.88005
4.08581
4.26572
4.42162
4.55571
4.67104
4.72065
4.70729
4.61319
4.43417
4.16304
3.79125
3.31993
2.75649
2.07232
1.34615
5.08211
5.08211
11.045
13.8545
12.1215
9.6739
31.5694
)
;
    }
    freestream
    {
        type            inletOutlet;
        inletValue      uniform 0.000375;
        value           nonuniform List<scalar> 
96
(
0.0905678
0.237911
0.717304
1.55946
1.96233
1.97313
1.71775
1.46729
1.39642
1.42316
1.52063
1.57681
1.5786
1.45877
1.15191
0.729898
0.383247
0.22717
0.156806
0.117738
0.0859944
0.0629905
0.0486366
0.038139
0.0298148
0.0232773
0.0179806
0.0136393
0.0100716
0.00714231
0.0047546
0.00279183
0.000375
0.000375
0.000375
0.000375
0.000375
0.000375
0.000375
0.000375
0.000375
0.000375
0.000375
0.000375
0.000375
0.000375
0.000375
0.000375
0.000375
0.000375
0.000375
0.000375
0.000375
0.000375
0.000375
0.000375
0.000375
0.000375
0.000375
0.000375
0.000375
0.000375
0.000375
0.000375
0.000375
0.000375
0.000375
0.000375
0.000375
0.000375
0.000375
0.000375
0.000375
0.000375
0.000375
0.000375
0.000375
0.000375
0.000375
0.00257151
0.00445447
0.00628939
0.00803801
0.00974228
0.0114031
0.0130092
0.0145498
0.016015
0.0174091
0.0187661
0.0201892
0.0218548
0.0241174
0.0277345
0.0345338
0.0495124
)
;
    }
    frontAndBack
    {
        type            empty;
    }
}


// ************************************************************************* //
