/*--------------------------------*- C++ -*----------------------------------*\
  =========                 |
  \\      /  F ield         | OpenFOAM: The Open Source CFD Toolbox
   \\    /   O peration     | Website:  https://openfoam.org
    \\  /    A nd           | Version:  11
     \\/     M anipulation  |
\*---------------------------------------------------------------------------*/
FoamFile
{
    format      ascii;
    class       volScalarField;
    location    "1.42";
    object      k;
}
// * * * * * * * * * * * * * * * * * * * * * * * * * * * * * * * * * * * * * //

dimensions      [0 2 -2 0 0 0 0];

internalField   nonuniform List<scalar> 
2880
(
0.00350869
0.00778102
0.015462
0.0239579
0.0335299
0.0564414
0.0151074
0.0226694
0.0336025
0.0435349
0.0544016
0.0722158
0.0190941
0.0301574
0.0428873
0.0541138
0.0656811
0.0809031
0.02128
0.0351964
0.0492202
0.0614139
0.0733037
0.0865206
0.0230149
0.0391552
0.054185
0.067083
0.0790739
0.0908309
0.0242577
0.0424811
0.0583076
0.0717218
0.083735
0.0945361
0.0249384
0.0453707
0.0618046
0.0756112
0.0876547
0.097914
0.0249257
0.0479468
0.0647717
0.0789014
0.0910349
0.101081
0.0249549
0.0500939
0.0672427
0.0816784
0.0939965
0.104104
0.0252675
0.0517873
0.0692327
0.0839935
0.0966142
0.107032
0.0256773
0.0530267
0.0707505
0.0858762
0.0989317
0.109904
0.0260169
0.0538123
0.0717996
0.0873374
0.100966
0.112738
0.0261836
0.0541391
0.0723751
0.0883695
0.102707
0.115529
0.0261334
0.0539968
0.0724611
0.0889435
0.104113
0.118236
0.025861
0.0533655
0.0720288
0.0890061
0.105107
0.120773
0.0254264
0.052218
0.0710329
0.0884792
0.105571
0.122995
0.0249864
0.0505121
0.0694116
0.087254
0.105344
0.124682
0.0249201
0.048187
0.0670864
0.0851916
0.104214
0.125516
0.0245733
0.0453309
0.0639613
0.0821197
0.10192
0.12508
0.0235999
0.0419107
0.059896
0.0778183
0.0981167
0.122821
0.0220457
0.0377252
0.0546373
0.0719656
0.0923021
0.118056
0.0199674
0.0323306
0.0476276
0.0639068
0.0835828
0.109961
0.0160305
0.0243267
0.0372097
0.0518804
0.0700283
0.0972194
0.0039404
0.0084267
0.0170293
0.0293128
0.0456154
0.0769023
0.144579
0.187315
0.205756
0.211917
0.209783
0.20166
0.188287
0.173339
0.157855
0.142362
0.127474
0.113542
0.100748
0.0891649
0.0788043
0.0696422
0.0616421
0.0547587
0.0489561
0.0442114
0.0404331
0.0375362
0.035563
0.034242
0.113858
0.146004
0.167063
0.179372
0.184398
0.183613
0.178883
0.170202
0.159849
0.148747
0.137397
0.126207
0.115454
0.105314
0.0958932
0.0872497
0.0794107
0.0723989
0.066241
0.0608929
0.0563984
0.0526173
0.0498401
0.0471888
0.103267
0.12368
0.140586
0.153556
0.161877
0.1658
0.165981
0.163795
0.159012
0.153151
0.146651
0.139909
0.133214
0.126771
0.120714
0.115129
0.110063
0.10552
0.101493
0.0979354
0.0948343
0.0920385
0.0898565
0.0874572
0.100956
0.114579
0.127167
0.138111
0.14666
0.152652
0.156233
0.157888
0.15793
0.157255
0.155868
0.154321
0.152861
0.151669
0.150863
0.150503
0.150584
0.151015
0.151722
0.15254
0.153283
0.153863
0.154243
0.154524
0.101843
0.11214
0.122104
0.13113
0.138874
0.145239
0.150297
0.154295
0.157521
0.160344
0.162987
0.165679
0.168576
0.171756
0.175218
0.17889
0.182643
0.186309
0.189707
0.192656
0.194977
0.196579
0.197457
0.197821
0.104104
0.112735
0.121179
0.129034
0.136015
0.142064
0.147386
0.1522
0.15674
0.161171
0.165605
0.170173
0.174883
0.179689
0.184501
0.1892
0.193654
0.197719
0.201259
0.204144
0.206251
0.207484
0.207838
0.207702
0.106936
0.114959
0.122557
0.129551
0.135824
0.141415
0.146489
0.151247
0.155856
0.160429
0.165091
0.169863
0.174674
0.179405
0.183957
0.188206
0.192031
0.195334
0.198039
0.200084
0.201401
0.201889
0.201562
0.200865
0.110046
0.118057
0.125393
0.131986
0.13779
0.14289
0.147467
0.151717
0.155798
0.159796
0.163711
0.167467
0.171054
0.174435
0.177506
0.180189
0.182394
0.184079
0.185235
0.185867
0.185973
0.185613
0.184772
0.183737
0.113352
0.12177
0.129315
0.135963
0.141691
0.146594
0.150843
0.154613
0.158041
0.16121
0.164151
0.166862
0.169276
0.171313
0.172904
0.174005
0.174655
0.174898
0.174795
0.174407
0.173844
0.173266
0.172841
0.172464
0.116864
0.126063
0.134254
0.14141
0.14751
0.152646
0.156969
0.160628
0.163742
0.166388
0.168611
0.170424
0.171827
0.172821
0.17342
0.173655
0.173551
0.173135
0.172477
0.171653
0.170776
0.170032
0.169645
0.169539
0.12063
0.130996
0.140262
0.148363
0.155275
0.161091
0.165951
0.169994
0.173327
0.176032
0.178159
0.179748
0.180831
0.181433
0.181585
0.181365
0.180743
0.17974
0.178347
0.176554
0.174433
0.172195
0.170264
0.169353
0.124696
0.136643
0.147396
0.156828
0.164916
0.171772
0.177546
0.182376
0.186376
0.189622
0.192172
0.194083
0.195391
0.196118
0.196273
0.196
0.195192
0.19365
0.191296
0.187947
0.183363
0.177787
0.172181
0.168621
0.129091
0.143051
0.155645
0.166672
0.176125
0.184164
0.190971
0.196695
0.201467
0.205348
0.208387
0.210707
0.212228
0.212963
0.212839
0.211696
0.209274
0.205506
0.200538
0.194432
0.187551
0.179891
0.171965
0.1646
0.133807
0.150204
0.164865
0.177538
0.188266
0.197291
0.204861
0.211125
0.216298
0.220315
0.223181
0.224633
0.224826
0.22389
0.221723
0.218385
0.214039
0.208553
0.201885
0.19403
0.184946
0.174639
0.163774
0.152224
0.138784
0.157988
0.174722
0.188778
0.200322
0.209722
0.217326
0.223175
0.227039
0.229295
0.230083
0.22979
0.22851
0.225884
0.221784
0.216242
0.209205
0.200723
0.190872
0.179784
0.167724
0.154815
0.142177
0.128073
0.143885
0.16615
0.184626
0.199405
0.210898
0.219476
0.22511
0.228544
0.23047
0.230844
0.229702
0.226993
0.222429
0.216192
0.208389
0.199113
0.188473
0.176626
0.163787
0.150242
0.136486
0.122972
0.110585
0.0987292
0.148871
0.174255
0.193697
0.208093
0.217665
0.223472
0.226904
0.228012
0.226725
0.223566
0.218189
0.211005
0.202209
0.191961
0.18044
0.167843
0.154416
0.140475
0.126494
0.113047
0.100758
0.090179
0.0813431
0.076103
0.153366
0.181628
0.200773
0.21261
0.219428
0.22253
0.222001
0.218907
0.212937
0.204722
0.194751
0.183343
0.17081
0.157441
0.143523
0.129409
0.115588
0.102653
0.0911673
0.0814965
0.0738731
0.068445
0.0655805
0.0653126
0.156824
0.187327
0.203932
0.212936
0.215966
0.214393
0.209364
0.200709
0.189792
0.177228
0.163584
0.149346
0.134926
0.12069
0.10712
0.0947792
0.0841199
0.0753518
0.0684651
0.0633816
0.0600344
0.0584562
0.0585802
0.0599421
0.1586
0.189863
0.203603
0.208115
0.206414
0.20023
0.18947
0.176286
0.161653
0.146421
0.131276
0.116697
0.103114
0.0910091
0.080736
0.0723735
0.0657636
0.0606805
0.0569353
0.0544543
0.053254
0.0532922
0.0539878
0.0562811
0.158477
0.189418
0.199019
0.198687
0.192973
0.18115
0.166334
0.150234
0.13402
0.118558
0.104359
0.0918073
0.081178
0.072487
0.065506
0.0599311
0.0555091
0.0521051
0.0496956
0.0483377
0.048072
0.0485072
0.0498547
0.0527036
0.157796
0.186166
0.191579
0.187846
0.176917
0.161105
0.143944
0.127005
0.111338
0.097457
0.0855865
0.07575
0.0677104
0.0611324
0.0557348
0.0513425
0.0478773
0.0453248
0.0437331
0.0431925
0.0434526
0.0444129
0.0463461
0.0492843
0.159516
0.184235
0.18486
0.177152
0.161072
0.14291
0.125051
0.108811
0.0947243
0.08285
0.0730141
0.0648792
0.0581247
0.0525354
0.0479835
0.0443782
0.0416733
0.0398701
0.0389911
0.0390094
0.0395774
0.0409287
0.0430226
0.0458385
0.168602
0.185405
0.181124
0.166616
0.147004
0.127645
0.110177
0.0951879
0.0826202
0.0721775
0.0634936
0.0562791
0.0503448
0.0455414
0.0417394
0.03884
0.0367817
0.0355379
0.0351044
0.0353206
0.0361288
0.0376157
0.0396723
0.0422717
0.00546648
0.0213881
0.0614832
0.107794
0.14063
0.125603
0.0186503
0.0433373
0.0888081
0.136347
0.180983
0.214442
0.0232419
0.0585218
0.105015
0.153744
0.199964
0.231309
0.0257171
0.0687147
0.115025
0.163817
0.207802
0.233606
0.0296221
0.0756595
0.121615
0.169633
0.210501
0.230551
0.0327043
0.0804997
0.125944
0.172827
0.210698
0.225565
0.0350716
0.083787
0.128616
0.174376
0.209818
0.220526
0.0368099
0.085819
0.129978
0.174868
0.208572
0.216136
0.0379828
0.0867593
0.130237
0.174659
0.20729
0.212592
0.0386359
0.0867013
0.129504
0.173858
0.206057
0.20986
0.0387969
0.0856806
0.127834
0.172556
0.204839
0.207842
0.0385191
0.0837255
0.12524
0.170692
0.20358
0.206426
0.0378787
0.0808432
0.121704
0.168105
0.202217
0.205492
0.0369566
0.0770628
0.11719
0.164594
0.200633
0.205101
0.0357307
0.0724557
0.111655
0.159915
0.198648
0.205202
0.0341874
0.0670969
0.105056
0.153779
0.19598
0.205745
0.0323026
0.0610695
0.0973561
0.145857
0.192178
0.206549
0.0299664
0.054473
0.0885524
0.135816
0.186556
0.207321
0.0266657
0.0474785
0.0787101
0.123373
0.178096
0.207552
0.0249703
0.0406905
0.0680133
0.108341
0.165404
0.206805
0.0233513
0.0345664
0.0568471
0.0906484
0.146827
0.203061
0.0212905
0.0286904
0.0453768
0.0708093
0.12152
0.19011
0.0173962
0.0217074
0.0324472
0.0491657
0.0880611
0.15498
0.00489312
0.00761503
0.0128757
0.0219733
0.0419203
0.120659
0.191786
0.192241
0.178305
0.156361
0.134619
0.115085
0.0984577
0.0845874
0.0730701
0.0635094
0.0556137
0.0491706
0.0439884
0.0398908
0.0367277
0.0343841
0.0327849
0.0318922
0.0316897
0.0320074
0.0328933
0.0343232
0.0362455
0.0385973
0.216779
0.196446
0.171562
0.146318
0.123675
0.104607
0.088835
0.0757948
0.0650179
0.056175
0.0490108
0.043288
0.0387827
0.0352926
0.0326479
0.0307213
0.0294305
0.028732
0.028605
0.0289227
0.0297419
0.0310221
0.0327428
0.0348367
0.222324
0.194104
0.1636
0.136526
0.11405
0.0956922
0.0806167
0.0682127
0.0580873
0.0499388
0.0434812
0.0384333
0.0345312
0.031546
0.0292968
0.027654
0.026537
0.0259045
0.0257401
0.025974
0.0266261
0.0276908
0.0291684
0.0310042
0.221346
0.187463
0.154653
0.127536
0.10571
0.0879617
0.0734207
0.0615895
0.0521173
0.0446663
0.038888
0.0344461
0.0310454
0.0284482
0.0264769
0.0250087
0.0239677
0.0233157
0.0230404
0.0231237
0.0235426
0.0243417
0.025546
0.0271275
0.215813
0.179243
0.146185
0.119693
0.0984422
0.081127
0.0670522
0.0558076
0.0470102
0.0402407
0.0350782
0.0311469
0.0281422
0.0258327
0.0240514
0.0226835
0.0216568
0.0209337
0.0205039
0.0203733
0.0205296
0.0210097
0.0219085
0.0232344
0.208885
0.171217
0.13874
0.112888
0.0920073
0.0750233
0.0614223
0.0507974
0.0426733
0.0365345
0.0319034
0.0283878
0.0256891
0.0235901
0.0219364
0.0206213
0.0195745
0.0187558
0.0181514
0.0177678
0.0176247
0.0177558
0.0182884
0.0193403
0.201867
0.164149
0.132392
0.106947
0.0862596
0.0695752
0.0564809
0.0464916
0.0390077
0.0334274
0.0292397
0.0260543
0.0235886
0.0216427
0.0200756
0.0187875
0.0177087
0.016794
0.0160198
0.0153844
0.0149069
0.014644
0.0147472
0.0154362
0.195515
0.158195
0.127027
0.101726
0.0811201
0.0647421
0.0521815
0.0428152
0.0359142
0.0308112
0.0269843
0.0240575
0.0217689
0.0199367
0.0184321
0.0171619
0.0160575
0.0150677
0.0141569
0.0133063
0.0125173
0.0118274
0.011345
0.0113546
0.190166
0.153368
0.122521
0.0971358
0.0765467
0.060492
0.0484712
0.0396896
0.0333002
0.0285946
0.0250564
0.0223311
0.0201788
0.0184341
0.01698
0.0157303
0.0146187
0.0135918
0.0126048
0.0116195
0.010604
0.0095329
0.00828688
0.00633349
0.18595
0.149626
0.118781
0.0931234
0.0725131
0.0567903
0.0452915
0.0370381
0.0310848
0.0267034
0.0233935
0.0208251
0.0187788
0.0171049
0.0156969
0.0144759
0.0133806
0.0123607
0.011372
0.0103716
0.00931369
0.00815685
0.00689168
0.00527533
0.182919
0.146909
0.115747
0.0896607
0.0689967
0.0535973
0.0425824
0.0347906
0.0292003
0.0250784
0.0219469
0.0194999
0.017537
0.0159219
0.0145576
0.0133719
0.0123094
0.0113252
0.0103814
0.00944235
0.00846975
0.00742964
0.00631268
0.00499482
0.181103
0.145166
0.113385
0.0867318
0.065974
0.0508704
0.0402863
0.0328866
0.0275914
0.0236732
0.0206786
0.0183243
0.0164266
0.0148602
0.0135357
0.0123868
0.0113621
0.010421
0.00952969
0.00865703
0.00777038
0.00684439
0.00588328
0.00481094
0.18053
0.144335
0.111679
0.0843261
0.0634184
0.0485661
0.0383516
0.0312754
0.0262139
0.0224516
0.0195593
0.0172742
0.0154264
0.0138997
0.0126106
0.0114968
0.0105104
0.00961339
0.00877497
0.00796749
0.00716297
0.00634303
0.00551879
0.00464192
0.181125
0.144389
0.11064
0.0824351
0.0613013
0.0466437
0.036734
0.0299158
0.0250331
0.0213856
0.0185667
0.0163312
0.0145207
0.0130261
0.0117682
0.0106877
0.00973884
0.00888584
0.00809996
0.00735624
0.0066305
0.00590935
0.00520622
0.00448926
0.18286
0.145484
0.110269
0.08105
0.0595961
0.0450676
0.0353963
0.0287741
0.0240214
0.0204534
0.0176836
0.0154816
0.0136982
0.0122295
0.0109994
0.00995052
0.00903871
0.00822949
0.00749569
0.00681428
0.00616393
0.00553431
0.00493842
0.00435508
0.18576
0.147561
0.110478
0.0801704
0.0582781
0.0438058
0.0343062
0.0278228
0.0231569
0.0196381
0.0168969
0.0147152
0.0129506
0.0115029
0.010298
0.00927962
0.0084044
0.0076387
0.00695632
0.00633551
0.00575681
0.00521144
0.0047103
0.00423916
0.189863
0.150745
0.111591
0.0798
0.0573209
0.0428289
0.033436
0.0270389
0.0224218
0.0189262
0.0161965
0.0140242
0.0122718
0.0108413
0.00965962
0.00867079
0.00783175
0.0071092
0.00647738
0.0059152
0.00540418
0.00493584
0.00451796
0.00414069
0.195219
0.155123
0.113408
0.0798656
0.0566925
0.0421093
0.0327615
0.0264033
0.0218017
0.0183072
0.0155746
0.0134026
0.0116571
0.0102409
0.00908071
0.00812061
0.00731725
0.00663728
0.00605491
0.00554909
0.00510153
0.00470304
0.0043577
0.00405822
0.201877
0.160839
0.115935
0.0802503
0.0563648
0.0416214
0.0322611
0.0258993
0.0212844
0.0177721
0.0150247
0.0128459
0.0111029
0.00969834
0.00855837
0.00762613
0.00685777
0.00621952
0.00568516
0.00523312
0.00484453
0.00450869
0.00422579
0.00399001
0.209888
0.168061
0.119184
0.0809868
0.0563172
0.0413399
0.0319144
0.0255121
0.0208595
0.0173137
0.0145418
0.0123501
0.0106061
0.00921121
0.00809005
0.00718466
0.00645035
0.00585262
0.00536445
0.00496318
0.00462876
0.00434839
0.00411853
0.00393423
0.219505
0.176961
0.12308
0.082024
0.0564547
0.0412338
0.0317006
0.0252278
0.0205176
0.0169257
0.0141214
0.0119122
0.0101643
0.00877717
0.00767343
0.00679365
0.00609209
0.00553329
0.005089
0.00473503
0.00444966
0.00421773
0.00403239
0.0038892
0.23161
0.187654
0.127136
0.0832492
0.0567377
0.0412637
0.0315988
0.0250331
0.0202501
0.0166024
0.0137599
0.0115295
0.00977534
0.00839413
0.00730627
0.00645061
0.00578015
0.00525821
0.00485496
0.0045443
0.00430261
0.00411247
0.00396418
0.00385344
0.247444
0.199827
0.130744
0.0844963
0.0571122
0.0413744
0.0315866
0.0249148
0.0200495
0.0163393
0.0134542
0.0111998
0.00943729
0.00806019
0.00698641
0.00615303
0.00551162
0.005024
0.00465841
0.00438656
0.00418297
0.00402844
0.00391096
0.00382571
0.268412
0.209995
0.133562
0.0855584
0.057505
0.0415405
0.0316327
0.0248609
0.0199091
0.0161328
0.0132024
0.0109218
0.00914878
0.00777367
0.00671179
0.00589836
0.00528346
0.00482715
0.00449539
0.00425749
0.00408626
0.00396139
0.00386982
0.00380446
0.0069144
0.0332315
0.0774113
0.126115
0.15322
0.151709
0.0219689
0.0645315
0.107761
0.153784
0.197345
0.258775
0.0316125
0.085331
0.12892
0.17373
0.219392
0.268922
0.0392305
0.0993381
0.143502
0.18723
0.229744
0.265506
0.0456046
0.109678
0.154257
0.196674
0.234834
0.260169
0.0508989
0.117611
0.162455
0.203504
0.237495
0.255544
0.0552324
0.123766
0.168792
0.208636
0.239021
0.252103
0.0586927
0.128485
0.173683
0.212544
0.240191
0.249952
0.0613432
0.131971
0.177394
0.215578
0.241424
0.249105
0.0632278
0.134344
0.1801
0.217981
0.242949
0.249561
0.0643785
0.13567
0.181905
0.219897
0.244877
0.251313
0.0648407
0.135972
0.182857
0.221393
0.24724
0.254386
0.0647942
0.13523
0.18295
0.222462
0.249985
0.258749
0.0642134
0.133435
0.182128
0.223026
0.252981
0.26437
0.0630302
0.130574
0.18029
0.222939
0.25602
0.27118
0.0611703
0.12661
0.177293
0.221956
0.258841
0.279023
0.0585607
0.121495
0.172964
0.21974
0.261087
0.287621
0.0551222
0.115179
0.167106
0.215867
0.262146
0.296614
0.0507636
0.107607
0.159502
0.209815
0.261244
0.305424
0.0453887
0.0986899
0.149871
0.200888
0.256968
0.31313
0.0389128
0.0882095
0.137732
0.188112
0.247487
0.318182
0.0312887
0.075513
0.122029
0.169918
0.229828
0.317048
0.0219609
0.0582319
0.0997871
0.143235
0.199249
0.297561
0.00635691
0.0260368
0.0597657
0.0997562
0.153288
0.18122
0.288935
0.215306
0.135224
0.0862271
0.0578379
0.0417296
0.031722
0.0248632
0.0198246
0.0159807
0.0130035
0.0106948
0.00890907
0.00753341
0.00648066
0.00568425
0.00509271
0.00466417
0.00436206
0.00415321
0.00400889
0.00390808
0.0038375
0.00378787
0.295312
0.213223
0.135125
0.0863923
0.0580593
0.0419191
0.0318446
0.0249083
0.0197935
0.0158827
0.0128578
0.0105192
0.00871831
0.00733906
0.00629203
0.00550901
0.00493698
0.00453205
0.00425507
0.00407046
0.00394812
0.0038664
0.00381212
0.00377509
0.283379
0.206183
0.133196
0.0859999
0.058165
0.0421061
0.0319987
0.0249972
0.019814
0.01584
0.012767
0.0103966
0.00857749
0.00719105
0.00614573
0.00537175
0.00481464
0.00442849
0.00417169
0.00400648
0.00390159
0.00383487
0.00379279
0.00376578
0.269003
0.198368
0.130664
0.0853712
0.0582235
0.0423101
0.0321911
0.0251329
0.019884
0.0158536
0.0127335
0.0103288
0.00848819
0.00709032
0.006042
0.00527203
0.00472451
0.00435169
0.00410967
0.00395884
0.003867
0.00381162
0.00377887
0.00375949
0.256239
0.19132
0.128222
0.0847852
0.0583225
0.0425619
0.0324344
0.0253219
0.0200087
0.0159209
0.012757
0.0103186
0.00845248
0.00703805
0.00598132
0.00520954
0.00466556
0.00430004
0.00406713
0.00392567
0.0038427
0.00379531
0.00376928
0.00375538
0.246189
0.185697
0.12628
0.0844335
0.058538
0.0428943
0.0327438
0.0255731
0.0201947
0.0160481
0.0128369
0.0103625
0.00846989
0.00703568
0.00596461
0.0051844
0.00463717
0.00427245
0.00404275
0.00390565
0.00382747
0.00378489
0.00376335
0.00375292
0.238912
0.181702
0.125065
0.0844473
0.0589341
0.0433411
0.0331564
0.0259209
0.0204689
0.0162542
0.012986
0.0104661
0.00853835
0.00707823
0.00598858
0.00519519
0.00463903
0.00426857
0.00403599
0.00389811
0.00382051
0.00377992
0.00376038
0.0037518
0.234185
0.17936
0.124705
0.0848762
0.0595709
0.0439697
0.0337051
0.0263812
0.0208446
0.0165547
0.0132228
0.0106499
0.00867844
0.00718243
0.00606378
0.00524715
0.0046729
0.00428915
0.0040473
0.00390341
0.0038223
0.00378011
0.00376004
0.00375155
0.231772
0.178654
0.125256
0.0858429
0.0605436
0.0448017
0.0343961
0.0269539
0.0213176
0.016943
0.0135392
0.0109052
0.00888195
0.0073423
0.00618703
0.00533975
0.00473998
0.00433552
0.00407769
0.00392225
0.00383321
0.0037855
0.00376223
0.00375201
0.231501
0.179583
0.126852
0.0874284
0.0618599
0.0458394
0.0352277
0.0276374
0.0218864
0.0174177
0.0139344
0.0112322
0.00915019
0.00755992
0.00636086
0.00547544
0.00484244
0.00440968
0.00412894
0.00395603
0.0038543
0.0037971
0.0037675
0.00375333
0.233255
0.182167
0.129526
0.0896535
0.0635444
0.047104
0.0362155
0.0284417
0.0225578
0.0179842
0.0144131
0.0116351
0.00948695
0.00783875
0.0065885
0.00565735
0.00498336
0.00451454
0.00420354
0.00400666
0.00388676
0.00381616
0.00377664
0.00375608
0.237004
0.18646
0.133367
0.092591
0.0656464
0.0486242
0.0373761
0.0293766
0.0233385
0.0186475
0.0149793
0.0121177
0.00989604
0.00818255
0.00687371
0.00588932
0.00516664
0.00465393
0.00430497
0.00407703
0.00393282
0.00384375
0.00379085
0.00376093
0.242739
0.19255
0.138481
0.0963241
0.06822
0.0504308
0.0387261
0.0304516
0.024234
0.0194114
0.0156366
0.0126835
0.0103811
0.00859515
0.00722056
0.00617564
0.00539678
0.00483244
0.00443767
0.00417109
0.0039957
0.00388236
0.00381148
0.00376851
0.250494
0.200545
0.144997
0.100954
0.0713288
0.0525588
0.0402837
0.0316758
0.0252494
0.0202793
0.0163878
0.0133353
0.0109452
0.00908024
0.00763318
0.00652088
0.00567875
0.00505531
0.00460685
0.00429358
0.00407931
0.00393489
0.00384045
0.0037798
0.260318
0.21057
0.153059
0.106597
0.0750461
0.0550477
0.0420684
0.0330585
0.026389
0.0212535
0.0172346
0.0140753
0.0115912
0.00964111
0.00811554
0.00692965
0.00601774
0.00532819
0.0048183
0.00445001
0.0041884
0.00400495
0.00388013
0.00379593
0.272253
0.222755
0.162816
0.113378
0.0794535
0.0579419
0.0441016
0.0346089
0.0276562
0.0223351
0.0181775
0.0149043
0.0123206
0.0102803
0.00867105
0.00740616
0.00641872
0.00565668
0.00507808
0.00464644
0.00432841
0.00409689
0.0039334
0.00381833
0.28631
0.237216
0.174402
0.12142
0.0846353
0.0612885
0.046406
0.0363365
0.0290539
0.023524
0.0192159
0.0158217
0.0131337
0.0109991
0.0093021
0.00795385
0.00688604
0.00604601
0.00539217
0.00488929
0.00450566
0.00421592
0.00400309
0.00384812
0.302427
0.254022
0.187907
0.130823
0.0906704
0.0651344
0.0490045
0.0382501
0.0305835
0.0248186
0.0203472
0.0168255
0.0140292
0.0117974
0.0100098
0.00857509
0.00742327
0.00650084
0.00576617
0.00518482
0.00472632
0.00436722
0.00409298
0.00388671
0.320353
0.273181
0.203322
0.141629
0.0976156
0.0695202
0.051918
0.0403579
0.0322457
0.0262161
0.0215674
0.0179119
0.0150044
0.0126736
0.010794
0.00927109
0.00803298
0.007025
0.00620503
0.00553879
0.00499652
0.00455648
0.00420748
0.003936
0.339624
0.294442
0.220449
0.153776
0.10548
0.0744692
0.0551614
0.0426661
0.0340397
0.0277117
0.0228708
0.0190754
0.0160546
0.0136245
0.0116529
0.0100416
0.00871647
0.00762114
0.0067126
0.00595611
0.0053219
0.00478953
0.00435146
0.00399803
0.3596
0.316841
0.238763
0.167024
0.114192
0.0799722
0.058738
0.045176
0.0359631
0.0293006
0.0242513
0.0203096
0.017174
0.0146453
0.0125832
0.0108849
0.00947335
0.00829034
0.00729132
0.00644049
0.0057073
0.0050718
0.00452988
0.00407504
0.37818
0.338502
0.257247
0.180867
0.123548
0.0859656
0.0626306
0.0478805
0.0380107
0.0309767
0.0257017
0.0216073
0.0183557
0.0157299
0.0135798
0.0117972
0.0103014
0.00903187
0.00794195
0.00699418
0.00615637
0.005408
0.00474742
0.00416922
0.388268
0.356484
0.274547
0.194469
0.133163
0.0923051
0.066791
0.0507622
0.0401734
0.0327328
0.0272148
0.0229608
0.0195923
0.0168713
0.0146366
0.0127733
0.0111967
0.00984314
0.0086635
0.00761784
0.00667146
0.00580183
0.00500815
0.00428251
0.355581
0.361821
0.288643
0.206635
0.14246
0.0987522
0.0711329
0.05379
0.0424381
0.0345607
0.0287833
0.0243628
0.0208763
0.0180621
0.0157464
0.0138067
0.0121536
0.0107199
0.00945319
0.00831049
0.00725345
0.00625588
0.00531528
0.00441627
0.010929
0.0157442
0.0183412
0.0195681
0.0212753
0.0517252
0.0289743
0.0386107
0.0409072
0.0407652
0.0444107
0.0818866
0.0374986
0.048529
0.0534453
0.0540738
0.0609154
0.102148
0.0431068
0.0566826
0.0638183
0.0653759
0.0748722
0.11898
0.0470829
0.0643233
0.0731682
0.0757074
0.0872487
0.132793
0.0501984
0.071512
0.0817857
0.0854218
0.0983829
0.143185
0.0528042
0.0782631
0.0898182
0.0946767
0.108562
0.15098
0.0550411
0.0846308
0.0973748
0.103579
0.118009
0.157024
0.0569715
0.0906026
0.104523
0.112203
0.126841
0.162033
0.0586334
0.0961308
0.111292
0.120527
0.135229
0.166516
0.0600552
0.101175
0.117686
0.128532
0.143389
0.17088
0.0612655
0.10567
0.123701
0.136253
0.151418
0.175637
0.0622974
0.109514
0.129317
0.143739
0.159516
0.181277
0.0627382
0.112797
0.134493
0.15102
0.167901
0.188317
0.0626201
0.115476
0.13914
0.158065
0.176728
0.197303
0.0617823
0.117409
0.143109
0.16474
0.185957
0.20831
0.0601723
0.118314
0.146174
0.170761
0.195263
0.220986
0.057692
0.118015
0.147973
0.17566
0.203948
0.234326
0.0542011
0.115986
0.148157
0.178685
0.210891
0.246473
0.0496063
0.111586
0.146173
0.179038
0.214452
0.254742
0.0438192
0.103791
0.141221
0.175533
0.212781
0.25617
0.0362276
0.0912404
0.132155
0.166533
0.202941
0.247095
0.0259213
0.0712177
0.116889
0.149642
0.180155
0.219606
0.0108992
0.0458227
0.0945159
0.123178
0.137075
0.132655
0.298887
0.353427
0.294599
0.215837
0.15075
0.105012
0.0755429
0.056923
0.0447895
0.0364527
0.0304012
0.0258073
0.022201
0.0192953
0.016902
0.0148905
0.0131658
0.0116565
0.0103068
0.00906962
0.0079019
0.00677166
0.00567124
0.00457118
0.257328
0.33393
0.292827
0.221476
0.157579
0.110831
0.0799096
0.0601193
0.0472127
0.0384028
0.0320644
0.0272899
0.0235618
0.0205656
0.0180978
0.0160186
0.0142271
0.0126474
0.0112195
0.00989177
0.00861533
0.00734993
0.00607794
0.00474719
0.231897
0.311632
0.287809
0.224247
0.162887
0.116075
0.0841518
0.0633455
0.0496972
0.0404082
0.033772
0.0288097
0.0249565
0.0218701
0.0193303
0.0171873
0.0153336
0.0136885
0.0121875
0.010774
0.00939234
0.00799145
0.00653753
0.00494385
0.217017
0.291626
0.279066
0.22423
0.166738
0.120707
0.0882251
0.0665797
0.0522372
0.0424695
0.0355259
0.030368
0.0263864
0.0232098
0.0206004
0.0183974
0.0164864
0.014781
0.013212
0.0117176
0.0102348
0.00869959
0.00705452
0.00516122
0.208359
0.274423
0.268182
0.222657
0.169406
0.12477
0.0921182
0.0698118
0.0548305
0.0445892
0.0373297
0.0319686
0.0278549
0.0245887
0.0219135
0.0196566
0.0176952
0.0159368
0.0143065
0.0127368
0.011157
0.009489
0.00764322
0.0054034
0.20366
0.2598
0.257117
0.220228
0.171157
0.128325
0.0958396
0.0730406
0.057478
0.0467706
0.0391871
0.0336145
0.0293656
0.0260121
0.0232782
0.0209783
0.0189802
0.0171842
0.0155083
0.0138773
0.0122112
0.0104159
0.00835987
0.00570255
0.201215
0.247437
0.246441
0.217004
0.172155
0.131438
0.0994006
0.07627
0.0601838
0.0490165
0.0410993
0.035306
0.0309181
0.0274806
0.0246989
0.0223743
0.0203654
0.0185651
0.0168842
0.0152392
0.0135396
0.0116745
0.00946576
0.00640147
0.200026
0.237035
0.236499
0.212905
0.172357
0.134106
0.102802
0.0795005
0.0629498
0.0513283
0.043065
0.0370371
0.0325027
0.0289827
0.0261642
0.0238371
0.0218537
0.020104
0.0185001
0.0169647
0.015428
0.0138522
0.0123432
0.0113543
0.199582
0.228367
0.227484
0.20811
0.171981
0.13634
0.10604
0.082728
0.065777
0.0537069
0.0450798
0.0387966
0.0341007
0.0304919
0.0276411
0.0253288
0.0234055
0.021768
0.0203454
0.0190917
0.0179855
0.0170484
0.0164044
0.0162814
0.199773
0.221314
0.219571
0.203236
0.171206
0.138185
0.109099
0.085944
0.0686657
0.0561544
0.0471409
0.0405736
0.035692
0.031979
0.0290908
0.0268002
0.0249579
0.0234683
0.0222751
0.0213517
0.0206924
0.0203122
0.0202528
0.0204971
0.200506
0.215859
0.212929
0.198508
0.170154
0.139702
0.111969
0.089136
0.0716153
0.0586765
0.0492525
0.0423656
0.0372655
0.0334244
0.0304863
0.0282166
0.0264648
0.025138
0.0241831
0.023571
0.0232821
0.0232951
0.0235679
0.0239986
0.201842
0.21209
0.207756
0.19418
0.168988
0.140947
0.114646
0.0922942
0.0746273
0.0612855
0.051429
0.0441822
0.0388231
0.0348212
0.0318108
0.0295494
0.0278815
0.0267098
0.0259729
0.025627
0.025628
0.0259037
0.0264062
0.0269476
0.204424
0.210608
0.204407
0.190527
0.167907
0.142018
0.117152
0.0954113
0.077706
0.0640007
0.0536968
0.0460481
0.0403817
0.0361756
0.0330578
0.0307767
0.0291673
0.0281216
0.0275637
0.0274314
0.0276371
0.0281273
0.0287901
0.0294194
0.20905
0.211595
0.203522
0.188136
0.167181
0.14306
0.119548
0.0984969
0.080862
0.0668491
0.0560947
0.0480038
0.0419755
0.0375101
0.0342346
0.0318883
0.0302939
0.0293281
0.0288981
0.0289197
0.0292777
0.0299291
0.0307197
0.031429
0.216458
0.215523
0.204648
0.187758
0.167021
0.144258
0.121943
0.101592
0.0841193
0.0698665
0.0586732
0.050106
0.0436572
0.0388658
0.0353667
0.0328924
0.0312524
0.0303072
0.0299468
0.0300542
0.0305248
0.0312907
0.0321851
0.0329704
0.227363
0.224437
0.209074
0.189296
0.168002
0.145933
0.124508
0.104789
0.0875273
0.0731005
0.0614943
0.0524275
0.0455
0.0403071
0.0365036
0.0338211
0.0320584
0.0310605
0.0307011
0.0308361
0.0313615
0.0322016
0.0331759
0.0340334
0.241799
0.238778
0.219181
0.194559
0.171132
0.148676
0.127577
0.108265
0.0911827
0.0766222
0.0646348
0.0550583
0.0476002
0.0419265
0.0377258
0.0347387
0.0327593
0.0316208
0.0311819
0.0312845
0.0317956
0.0326635
0.0336886
0.0346112
0.258675
0.257751
0.235135
0.205157
0.177782
0.153464
0.131763
0.112378
0.0952872
0.0805584
0.0682015
0.058111
0.0500804
0.0438492
0.039152
0.0357507
0.0334439
0.0320595
0.0314435
0.0314469
0.0318582
0.0326955
0.0337319
0.0347058
0.275832
0.27896
0.255328
0.221035
0.189063
0.16153
0.138033
0.11778
0.100246
0.08516
0.0723712
0.0617407
0.053098
0.0462389
0.0409463
0.0370132
0.0342536
0.0325005
0.0315986
0.0314042
0.0316757
0.0323899
0.0333879
0.0343898
0.289929
0.297805
0.275453
0.239862
0.204599
0.173614
0.147436
0.125407
0.106755
0.0909037
0.0774707
0.0661959
0.0568732
0.0493123
0.0433282
0.0387441
0.0353965
0.0331339
0.0318093
0.0312776
0.031334
0.0318015
0.0326786
0.0336647
0.296158
0.308051
0.289561
0.256639
0.221371
0.188634
0.160142
0.135982
0.11564
0.0985045
0.0840562
0.0719026
0.0617524
0.0533794
0.0465965
0.0412406
0.0371663
0.03424
0.0323325
0.0313158
0.0310085
0.0311818
0.0317763
0.0326785
0.28933
0.303885
0.291309
0.265082
0.2341
0.203009
0.174295
0.148956
0.127125
0.108531
0.0927748
0.0794632
0.0682625
0.058905
0.0511787
0.0449132
0.0399669
0.0362164
0.0335475
0.0318416
0.0309863
0.0307771
0.030988
0.0316334
0.26418
0.28089
0.278
0.261136
0.23727
0.211714
0.186007
0.161793
0.139885
0.120555
0.103761
0.0893081
0.0769578
0.0664764
0.0576588
0.0503347
0.0443633
0.0396262
0.0360188
0.0334235
0.0317697
0.0309293
0.0307227
0.0309348
0.212059
0.239178
0.247267
0.242792
0.229678
0.210981
0.191055
0.170772
0.151046
0.13265
0.115949
0.101054
0.0879404
0.0765112
0.0666464
0.0582254
0.0511372
0.0452835
0.0405806
0.0369406
0.0342757
0.0325019
0.0315263
0.0312259
)
;

boundaryField
{
    rotor
    {
        type            kqRWallFunction;
        value           nonuniform List<scalar> 
144
(
0.00350869
0.00778102
0.015462
0.0239579
0.0335299
0.0564414
0.00350869
0.0151074
0.0190941
0.02128
0.0230149
0.0242577
0.0249384
0.0249257
0.0249549
0.0252675
0.0256773
0.0260169
0.0261836
0.0261334
0.025861
0.0254264
0.0249864
0.0249201
0.0245733
0.0235999
0.0220457
0.0199674
0.0160305
0.0039404
0.0039404
0.0084267
0.0170293
0.0293128
0.0456154
0.0769023
0.00546648
0.0213881
0.0614832
0.107794
0.14063
0.125603
0.00546648
0.0186503
0.0232419
0.0257171
0.0296221
0.0327043
0.0350716
0.0368099
0.0379828
0.0386359
0.0387969
0.0385191
0.0378787
0.0369566
0.0357307
0.0341874
0.0323026
0.0299664
0.0266657
0.0249703
0.0233513
0.0212905
0.0173962
0.00489312
0.00489312
0.00761503
0.0128757
0.0219733
0.0419203
0.120659
0.0069144
0.0332315
0.0774113
0.126115
0.15322
0.151709
0.0069144
0.0219689
0.0316125
0.0392305
0.0456046
0.0508989
0.0552324
0.0586927
0.0613432
0.0632278
0.0643785
0.0648407
0.0647942
0.0642134
0.0630302
0.0611703
0.0585607
0.0551222
0.0507636
0.0453887
0.0389128
0.0312887
0.0219609
0.00635691
0.00635691
0.0260368
0.0597657
0.0997562
0.153288
0.18122
0.010929
0.0157442
0.0183412
0.0195681
0.0212753
0.0517252
0.010929
0.0289743
0.0374986
0.0431068
0.0470829
0.0501984
0.0528042
0.0550411
0.0569715
0.0586334
0.0600552
0.0612655
0.0622974
0.0627382
0.0626201
0.0617823
0.0601723
0.057692
0.0542011
0.0496063
0.0438192
0.0362276
0.0259213
0.0108992
0.0108992
0.0458227
0.0945159
0.123178
0.137075
0.132655
)