/*--------------------------------*- C++ -*----------------------------------*\
  =========                 |
  \\      /  F ield         | OpenFOAM: The Open Source CFD Toolbox
   \\    /   O peration     | Website:  https://openfoam.org
    \\  /    A nd           | Version:  11
     \\/     M anipulation  |
\*---------------------------------------------------------------------------*/
FoamFile
{
    format      ascii;
    class       surfaceScalarField;
    location    "1.42";
    object      meshPhi;
}
// * * * * * * * * * * * * * * * * * * * * * * * * * * * * * * * * * * * * * //

dimensions      [0 3 -1 0 0 0 0];

internalField   nonuniform List<scalar> 
5640
(
1.36969e-16
9.81747e-07
2.4212e-16
1.37445e-06
3.77009e-16
1.76715e-06
-1.33922e-15
2.15984e-06
-3.68146e-15
2.55254e-06
2.94524e-06
5.95156e-15
1.86559e-18
9.81747e-07
-3.88784e-16
1.37445e-06
-2.60402e-15
1.76715e-06
1.94374e-15
2.15984e-06
8.06631e-15
2.55254e-06
2.94524e-06
-9.02954e-15
-1.1645e-16
9.81747e-07
1.86433e-16
1.37445e-06
-1.56225e-15
1.76715e-06
-4.21245e-15
2.15984e-06
-7.49823e-15
2.55254e-06
2.94524e-06
7.72583e-16
8.69933e-17
9.81747e-07
-1.01879e-16
1.37445e-06
2.69321e-15
1.76715e-06
7.44286e-15
2.15984e-06
3.2601e-15
2.55254e-06
2.94524e-06
-2.79777e-15
-4.83605e-17
9.81747e-07
3.95155e-17
1.37445e-06
1.94477e-16
1.76715e-06
-1.80598e-15
2.15984e-06
-4.20821e-15
2.55254e-06
2.94524e-06
5.01354e-15
-1.80085e-16
9.81747e-07
4.37441e-18
1.37445e-06
-1.84772e-15
1.76715e-06
-3.88606e-15
2.15984e-06
3.15731e-15
2.55254e-06
2.94524e-06
4.98396e-16
2.54006e-16
9.81747e-07
2.55497e-16
1.37445e-06
2.06597e-15
1.76715e-06
4.50416e-15
2.15984e-06
-2.30975e-15
2.55254e-06
2.94524e-06
5.4087e-16
2.16823e-17
9.81747e-07
-3.21626e-16
1.37445e-06
-1.14884e-15
1.76715e-06
-5.28544e-15
2.15984e-06
-3.76747e-16
2.55254e-06
2.94524e-06
-5.63963e-15
-1.43366e-16
9.81747e-07
1.66454e-16
1.37445e-06
4.19122e-15
1.76715e-06
6.34961e-15
2.15984e-06
-8.05414e-16
2.55254e-06
2.94524e-06
8.39343e-16
-6.87819e-17
9.81747e-07
-9.19747e-17
1.37445e-06
-2.76931e-15
1.76715e-06
-3.68648e-16
2.15984e-06
-1.4505e-15
2.55254e-06
2.94524e-06
-1.76551e-16
1.6637e-16
9.81747e-07
-8.86646e-17
1.37445e-06
5.69735e-16
1.76715e-06
-2.10335e-15
2.15984e-06
9.66016e-15
2.55254e-06
2.94524e-06
5.29006e-15
-1.77764e-16
9.81747e-07
-2.04531e-17
1.37445e-06
-3.45442e-16
1.76715e-06
-4.17265e-15
2.15984e-06
-2.62223e-15
2.55254e-06
2.94524e-06
5.36966e-15
1.77843e-16
9.81747e-07
2.05454e-17
1.37445e-06
3.45518e-16
1.76715e-06
4.17273e-15
2.15984e-06
2.62236e-15
2.55254e-06
2.94524e-06
-5.36926e-15
-1.66288e-16
9.81747e-07
8.8706e-17
1.37445e-06
-5.69543e-16
1.76715e-06
2.10357e-15
2.15984e-06
-9.65986e-15
2.55254e-06
2.94524e-06
-5.28987e-15
6.88755e-17
9.81747e-07
9.20708e-17
1.37445e-06
2.76949e-15
1.76715e-06
3.68802e-16
2.15984e-06
1.4511e-15
2.55254e-06
2.94524e-06
1.77005e-16
1.43432e-16
9.81747e-07
-1.66329e-16
1.37445e-06
-4.19109e-15
1.76715e-06
-6.34931e-15
2.15984e-06
8.05869e-16
2.55254e-06
2.94524e-06
-8.39112e-16
-2.16277e-17
9.81747e-07
3.2173e-16
1.37445e-06
1.14891e-15
1.76715e-06
5.28587e-15
2.15984e-06
3.76932e-16
2.55254e-06
2.94524e-06
5.64008e-15
-2.53957e-16
9.81747e-07
-2.55392e-16
1.37445e-06
-2.06596e-15
1.76715e-06
-4.50391e-15
2.15984e-06
2.31013e-15
2.55254e-06
2.94524e-06
-5.40682e-16
1.80121e-16
9.81747e-07
-4.26868e-18
1.37445e-06
1.84784e-15
1.76715e-06
3.88622e-15
2.15984e-06
-3.15676e-15
2.55254e-06
2.94524e-06
-4.97962e-16
4.83833e-17
9.81747e-07
-3.94815e-17
1.37445e-06
-1.94259e-16
1.76715e-06
1.8062e-15
2.15984e-06
4.2087e-15
2.55254e-06
2.94524e-06
-5.01322e-15
-8.69256e-17
9.81747e-07
1.01955e-16
1.37445e-06
-2.69312e-15
1.76715e-06
-7.44262e-15
2.15984e-06
-3.25969e-15
2.55254e-06
2.94524e-06
2.79816e-15
1.16494e-16
9.81747e-07
-1.86295e-16
1.37445e-06
1.56245e-15
1.76715e-06
4.21265e-15
2.15984e-06
7.49863e-15
2.55254e-06
2.94524e-06
-7.71987e-16
-1.81421e-18
9.81747e-07
3.88869e-16
1.37445e-06
2.6042e-15
1.76715e-06
-1.94347e-15
2.15984e-06
-8.06592e-15
2.55254e-06
2.94524e-06
9.03015e-15
-1.36915e-16
-2.42031e-16
-3.76984e-16
1.33944e-15
3.68191e-15
-5.95121e-15
-1.13358e-14
4.53785e-06
-4.53785e-06
-4.80733e-16
5.23599e-06
-5.23599e-06
-5.3569e-15
5.93412e-06
-5.93412e-06
-1.13029e-14
6.63225e-06
-6.63225e-06
4.86985e-15
7.33038e-06
-7.33038e-06
-1.10784e-15
8.02851e-06
-8.02851e-06
-8.15719e-15
8.72664e-06
-8.72664e-06
1.30454e-14
9.42478e-06
-9.42478e-06
5.95085e-15
1.01229e-05
-1.01229e-05
-1.99548e-15
1.0821e-05
-1.0821e-05
2.4389e-14
1.15192e-05
-1.15192e-05
1.61913e-14
1.22173e-05
-1.22173e-05
-3.27832e-14
1.29154e-05
-1.29154e-05
-3.05013e-15
1.36136e-05
-1.36136e-05
-1.44398e-14
1.43117e-05
-1.43117e-05
-2.68986e-14
1.50098e-05
-1.50098e-05
7.74275e-15
1.5708e-05
-1.5708e-05
-4.43188e-15
1.64061e-05
-1.64061e-05
-1.79976e-14
1.71042e-05
-1.71042e-05
2.18262e-14
1.78024e-05
-1.78024e-05
8.21876e-15
1.85005e-05
-1.85005e-05
-6.07397e-15
1.91986e-05
-1.91986e-05
3.89226e-14
1.98967e-05
-1.98967e-05
2.05949e-05
-2.05949e-05
9.39921e-15
4.53785e-06
5.20601e-16
5.23599e-06
7.52896e-15
5.93412e-06
-4.41145e-15
6.63225e-06
3.78373e-15
7.33038e-06
1.33858e-14
8.02851e-06
-2.10847e-15
8.72664e-06
8.5297e-15
9.42478e-06
-1.00258e-14
1.01229e-05
1.86629e-15
1.0821e-05
-2.02e-14
1.15192e-05
-7.01093e-15
1.22173e-05
7.51344e-15
1.29154e-05
2.36096e-14
1.36136e-05
-2.04037e-15
1.43117e-05
1.48327e-14
1.50098e-05
-1.38758e-14
1.5708e-05
2.39423e-15
1.64061e-05
2.04155e-14
1.71042e-05
-7.00989e-15
1.78024e-05
1.20706e-14
1.85005e-05
-2.59351e-14
1.91986e-05
1.85087e-15
1.98967e-05
2.05949e-05
-8.67573e-15
4.53785e-06
1.22928e-14
5.23599e-06
1.88343e-15
5.93412e-06
8.90227e-15
6.63225e-06
-5.10806e-15
7.33038e-06
-2.19899e-14
8.02851e-06
1.22662e-14
8.72664e-06
-5.37323e-15
9.42478e-06
4.45885e-15
1.01229e-05
-1.43045e-14
1.0821e-05
-7.32486e-15
1.15192e-05
7.04176e-15
1.22173e-05
2.39972e-14
1.29154e-05
-7.55326e-15
1.36136e-05
9.80102e-15
1.43117e-05
-1.62384e-14
1.50098e-05
4.02957e-14
1.5708e-05
1.44487e-14
1.64061e-05
-1.37012e-14
1.71042e-05
-7.89081e-15
1.78024e-05
-3.92496e-14
1.85005e-05
4.27569e-14
1.91986e-05
-8.8486e-15
1.98967e-05
2.05949e-05
5.98623e-15
4.53785e-06
2.19842e-16
5.23599e-06
-6.43524e-15
5.93412e-06
6.06415e-15
6.63225e-06
-2.09234e-15
7.33038e-06
1.61774e-14
8.02851e-06
-1.88297e-14
8.72664e-06
-2.34916e-15
9.42478e-06
9.17385e-15
1.01229e-05
-4.70861e-15
1.0821e-05
2.16298e-14
1.15192e-05
-2.96443e-14
1.22173e-05
-9.28776e-15
1.29154e-05
-1.89054e-14
1.36136e-05
4.46927e-15
1.43117e-05
3.01568e-14
1.50098e-05
-2.62153e-14
1.5708e-05
4.40107e-16
1.64061e-05
-2.11679e-14
1.71042e-05
1.8721e-14
1.78024e-05
-3.91503e-15
1.85005e-05
-2.91535e-14
1.91986e-05
1.52339e-14
1.98967e-05
2.05949e-05
6.71556e-15
4.53785e-06
-7.30611e-15
5.23599e-06
1.11013e-14
5.93412e-06
-4.24083e-15
6.63225e-06
1.51031e-14
7.33038e-06
-5.2088e-15
8.02851e-06
1.70151e-14
8.72664e-06
-3.93918e-15
9.42478e-06
-2.93225e-16
1.01229e-05
6.61239e-15
1.0821e-05
1.37077e-14
1.15192e-05
1.01853e-14
1.22173e-05
1.82203e-14
1.29154e-05
1.43711e-14
1.36136e-05
2.33427e-14
1.43117e-05
-2.53426e-14
1.50098e-05
2.90766e-14
1.5708e-05
-7.8246e-15
1.64061e-05
3.54216e-14
1.71042e-05
-4.50581e-15
1.78024e-05
4.23726e-14
1.85005e-05
-5.81719e-16
1.91986e-05
-8.72715e-15
1.98967e-05
2.05949e-05
-4.63017e-15
4.53785e-06
5.79796e-15
5.23599e-06
-1.61504e-14
5.93412e-06
-5.9741e-15
6.63225e-06
-8.55498e-15
7.33038e-06
4.22477e-15
8.02851e-06
-8.18582e-15
8.72664e-06
7.00056e-15
9.42478e-06
-2.4228e-14
1.01229e-05
-7.76694e-15
1.0821e-05
-2.27624e-14
1.15192e-05
8.34994e-15
1.22173e-05
-7.40027e-15
1.29154e-05
2.82662e-14
1.36136e-05
-4.57057e-14
1.43117e-05
-8.2193e-15
1.50098e-05
-2.82247e-14
1.5708e-05
-2.33681e-15
1.64061e-05
-6.94291e-15
1.71042e-05
2.21581e-14
1.78024e-05
-3.41071e-14
1.85005e-05
-3.73357e-15
1.91986e-05
-3.23462e-14
1.98967e-05
2.05949e-05
-8.92497e-15
4.53785e-06
-2.2887e-15
5.23599e-06
-2.22375e-15
5.93412e-06
6.6168e-15
6.63225e-06
-3.38737e-15
7.33038e-06
-3.90562e-15
8.02851e-06
-6.41825e-15
8.72664e-06
-7.15799e-15
9.42478e-06
6.81122e-15
1.01229e-05
6.98363e-15
1.0821e-05
-9.0626e-15
1.15192e-05
6.76198e-15
1.22173e-05
-2.88869e-14
1.29154e-05
-1.22311e-14
1.36136e-05
4.8091e-15
1.43117e-05
2.50287e-14
1.50098e-05
3.86547e-15
1.5708e-05
3.61066e-15
1.64061e-05
-2.04789e-14
1.71042e-05
-2.17511e-14
1.78024e-05
3.47186e-15
1.85005e-05
2.90428e-14
1.91986e-05
-1.6546e-15
1.98967e-05
2.05949e-05
6.21617e-15
4.53785e-06
-3.87913e-15
5.23599e-06
1.54226e-14
5.93412e-06
-7.06423e-15
6.63225e-06
-2.21004e-15
7.33038e-06
1.43028e-15
8.02851e-06
-5.49258e-15
8.72664e-06
1.32279e-14
9.42478e-06
6.04659e-15
1.01229e-05
-1.74499e-14
1.0821e-05
2.08895e-14
1.15192e-05
-2.14434e-14
1.22173e-05
1.91368e-14
1.29154e-05
-7.31283e-15
1.36136e-05
3.84907e-14
1.43117e-05
-1.29186e-14
1.50098e-05
-1.87902e-15
1.5708e-05
5.72111e-15
1.64061e-05
-7.58162e-15
1.71042e-05
2.76644e-14
1.78024e-05
1.4104e-14
1.85005e-05
-5.31377e-14
1.91986e-05
3.90893e-14
1.98967e-05
2.05949e-05
-1.49817e-15
4.53785e-06
1.08973e-14
5.23599e-06
-6.59846e-15
5.93412e-06
7.26629e-15
6.63225e-06
6.17548e-15
7.33038e-06
2.48962e-15
8.02851e-06
-9.64386e-16
8.72664e-06
-4.3641e-15
9.42478e-06
-8.89869e-15
1.01229e-05
1.38633e-14
1.0821e-05
1.06925e-14
1.15192e-05
6.25358e-15
1.22173e-05
-1.25307e-16
1.29154e-05
-3.4353e-15
1.36136e-05
-1.10387e-14
1.43117e-05
-1.77636e-14
1.50098e-05
1.76829e-14
1.5708e-05
9.95846e-15
1.64061e-05
3.33264e-15
1.71042e-05
-3.29581e-14
1.78024e-05
-1.04154e-14
1.85005e-05
3.00719e-14
1.91986e-05
-5.99882e-14
1.98967e-05
2.05949e-05
5.17047e-15
4.53785e-06
-7.45524e-15
5.23599e-06
-7.55969e-16
5.93412e-06
6.83973e-15
6.63225e-06
-9.97343e-15
7.33038e-06
-1.66347e-15
8.02851e-06
9.21959e-15
8.72664e-06
-1.34588e-14
9.42478e-06
2.32231e-14
1.01229e-05
1.04737e-14
1.0821e-05
-1.72709e-14
1.15192e-05
-3.02388e-15
1.22173e-05
1.13998e-14
1.29154e-05
-1.98151e-14
1.36136e-05
-4.67576e-15
1.43117e-05
5.03111e-14
1.50098e-05
-2.40431e-14
1.5708e-05
-6.65387e-15
1.64061e-05
1.42644e-14
1.71042e-05
1.65577e-15
1.78024e-05
-6.80708e-15
1.85005e-05
1.44475e-14
1.91986e-05
5.07634e-14
1.98967e-05
2.05949e-05
-6.19721e-15
4.53785e-06
2.87783e-17
5.23599e-06
1.15123e-14
5.93412e-06
-2.06258e-14
6.63225e-06
5.36729e-15
7.33038e-06
1.22233e-15
8.02851e-06
-4.66589e-17
8.72664e-06
1.2395e-14
9.42478e-06
-1.32252e-14
1.01229e-05
-1.88934e-14
1.0821e-05
-4.9635e-15
1.15192e-05
-7.15182e-15
1.22173e-05
-1.48854e-14
1.29154e-05
3.534e-14
1.36136e-05
1.56536e-18
1.43117e-05
-4.31354e-14
1.50098e-05
1.3564e-14
1.5708e-05
-2.82507e-14
1.64061e-05
2.45876e-15
1.71042e-05
-1.02386e-14
1.78024e-05
2.38052e-14
1.85005e-05
1.38809e-14
1.91986e-05
-4.55544e-14
1.98967e-05
2.05949e-05
-1.90662e-15
4.53785e-06
1.13121e-15
5.23599e-06
-2.16617e-14
5.93412e-06
9.62506e-15
6.63225e-06
1.51378e-14
7.33038e-06
-1.40649e-14
8.02851e-06
8.09329e-15
8.72664e-06
-2.69583e-14
9.42478e-06
-1.96472e-15
1.01229e-05
2.97189e-14
1.0821e-05
-1.17439e-14
1.15192e-05
1.9869e-14
1.22173e-05
-2.7444e-14
1.29154e-05
-2.06132e-14
1.36136e-05
1.60428e-14
1.43117e-05
-4.61138e-15
1.50098e-05
4.693e-15
1.5708e-05
4.79715e-14
1.64061e-05
-1.37346e-14
1.71042e-05
3.23731e-14
1.78024e-05
-3.51809e-14
1.85005e-05
-2.48993e-14
1.91986e-05
7.19215e-14
1.98967e-05
2.05949e-05
1.90671e-15
4.53785e-06
-1.12997e-15
5.23599e-06
2.16619e-14
5.93412e-06
-9.62334e-15
6.63225e-06
-1.51368e-14
7.33038e-06
1.40659e-14
8.02851e-06
-8.09208e-15
8.72664e-06
2.69612e-14
9.42478e-06
1.9667e-15
1.01229e-05
-2.9714e-14
1.0821e-05
1.17463e-14
1.15192e-05
-1.98654e-14
1.22173e-05
2.74475e-14
1.29154e-05
2.06193e-14
1.36136e-05
-1.60414e-14
1.43117e-05
4.61357e-15
1.50098e-05
-4.69091e-15
1.5708e-05
-4.79659e-14
1.64061e-05
1.37403e-14
1.71042e-05
-3.23683e-14
1.78024e-05
3.5187e-14
1.85005e-05
2.49126e-14
1.91986e-05
-7.19065e-14
1.98967e-05
2.05949e-05
6.19734e-15
4.53785e-06
-2.819e-17
5.23599e-06
-1.15113e-14
5.93412e-06
2.06266e-14
6.63225e-06
-5.36667e-15
7.33038e-06
-1.22055e-15
8.02851e-06
4.83074e-17
8.72664e-06
-1.23933e-14
9.42478e-06
1.32278e-14
1.01229e-05
1.88963e-14
1.0821e-05
4.96586e-15
1.15192e-05
7.15505e-15
1.22173e-05
1.48883e-14
1.29154e-05
-3.53356e-14
1.36136e-05
-5.63808e-19
1.43117e-05
4.31389e-14
1.50098e-05
-1.35607e-14
1.5708e-05
2.82578e-14
1.64061e-05
-2.45137e-15
1.71042e-05
1.02436e-14
1.78024e-05
-2.37989e-14
1.85005e-05
-1.38678e-14
1.91986e-05
4.5569e-14
1.98967e-05
2.05949e-05
-5.16997e-15
4.53785e-06
7.45572e-15
5.23599e-06
7.57082e-16
5.93412e-06
-6.83859e-15
6.63225e-06
9.97497e-15
7.33038e-06
1.66465e-15
8.02851e-06
-9.21892e-15
8.72664e-06
1.34601e-14
9.42478e-06
-2.32205e-14
1.01229e-05
-1.04704e-14
1.0821e-05
1.72745e-14
1.15192e-05
3.02833e-15
1.22173e-05
-1.13963e-14
1.29154e-05
1.98204e-14
1.36136e-05
4.67967e-15
1.43117e-05
-5.03036e-14
1.50098e-05
2.40487e-14
1.5708e-05
6.65859e-15
1.64061e-05
-1.42563e-14
1.71042e-05
-1.64613e-15
1.78024e-05
6.81345e-15
1.85005e-05
-1.44382e-14
1.91986e-05
-5.07556e-14
1.98967e-05
2.05949e-05
1.4988e-15
4.53785e-06
-1.08967e-14
5.23599e-06
6.59968e-15
5.93412e-06
-7.26501e-15
6.63225e-06
-6.17472e-15
7.33038e-06
-2.48841e-15
8.02851e-06
9.6511e-16
8.72664e-06
4.36675e-15
9.42478e-06
8.9012e-15
1.01229e-05
-1.38625e-14
1.0821e-05
-1.06894e-14
1.15192e-05
-6.24914e-15
1.22173e-05
1.29867e-16
1.29154e-05
3.44119e-15
1.36136e-05
1.10449e-14
1.43117e-05
1.77672e-14
1.50098e-05
-1.76764e-14
1.5708e-05
-9.95365e-15
1.64061e-05
-3.32679e-15
1.71042e-05
3.2971e-14
1.78024e-05
1.04251e-14
1.85005e-05
-3.00672e-14
1.91986e-05
5.9997e-14
1.98967e-05
2.05949e-05
-6.21541e-15
4.53785e-06
3.87958e-15
5.23599e-06
-1.54218e-14
5.93412e-06
7.06493e-15
6.63225e-06
2.21143e-15
7.33038e-06
-1.42843e-15
8.02851e-06
5.49348e-15
8.72664e-06
-1.3225e-14
9.42478e-06
-6.04609e-15
1.01229e-05
1.74515e-14
1.0821e-05
-2.08869e-14
1.15192e-05
2.14459e-14
1.22173e-05
-1.91328e-14
1.29154e-05
7.31869e-15
1.36136e-05
-3.8485e-14
1.43117e-05
1.29251e-14
1.50098e-05
1.88797e-15
1.5708e-05
-5.71371e-15
1.64061e-05
7.58781e-15
1.71042e-05
-2.76556e-14
1.78024e-05
-1.40965e-14
1.85005e-05
5.31406e-14
1.91986e-05
-3.90829e-14
1.98967e-05
2.05949e-05
8.92527e-15
4.53785e-06
2.28949e-15
5.23599e-06
2.22424e-15
5.93412e-06
-6.61577e-15
6.63225e-06
3.38889e-15
7.33038e-06
3.90805e-15
8.02851e-06
6.41986e-15
8.72664e-06
7.15971e-15
9.42478e-06
-6.80966e-15
1.01229e-05
-6.9817e-15
1.0821e-05
9.06516e-15
1.15192e-05
-6.7584e-15
1.22173e-05
2.88905e-14
1.29154e-05
1.22366e-14
1.36136e-05
-4.80033e-15
1.43117e-05
-2.50231e-14
1.50098e-05
-3.85662e-15
1.5708e-05
-3.60303e-15
1.64061e-05
2.04872e-14
1.71042e-05
2.17641e-14
1.78024e-05
-3.46593e-15
1.85005e-05
-2.90365e-14
1.91986e-05
1.66582e-15
1.98967e-05
2.05949e-05
4.63083e-15
4.53785e-06
-5.79715e-15
5.23599e-06
1.61507e-14
5.93412e-06
5.9752e-15
6.63225e-06
8.55602e-15
7.33038e-06
-4.22307e-15
8.02851e-06
8.18794e-15
8.72664e-06
-6.99735e-15
9.42478e-06
2.42303e-14
1.01229e-05
7.77099e-15
1.0821e-05
2.27649e-14
1.15192e-05
-8.34857e-15
1.22173e-05
7.40435e-15
1.29154e-05
-2.82652e-14
1.36136e-05
4.57126e-14
1.43117e-05
8.22724e-15
1.50098e-05
2.82284e-14
1.5708e-05
2.34269e-15
1.64061e-05
6.94696e-15
1.71042e-05
-2.21458e-14
1.78024e-05
3.41112e-14
1.85005e-05
3.74306e-15
1.91986e-05
3.23504e-14
1.98967e-05
2.05949e-05
-6.71475e-15
4.53785e-06
7.30697e-15
5.23599e-06
-1.11005e-14
5.93412e-06
4.24166e-15
6.63225e-06
-1.51019e-14
7.33038e-06
5.20999e-15
8.02851e-06
-1.70126e-14
8.72664e-06
3.94141e-15
9.42478e-06
2.95236e-16
1.01229e-05
-6.60996e-15
1.0821e-05
-1.37042e-14
1.15192e-05
-1.01834e-14
1.22173e-05
-1.82162e-14
1.29154e-05
-1.43676e-14
1.36136e-05
-2.3338e-14
1.43117e-05
2.53476e-14
1.50098e-05
-2.90704e-14
1.5708e-05
7.83083e-15
1.64061e-05
-3.5416e-14
1.71042e-05
4.51709e-15
1.78024e-05
-4.23691e-14
1.85005e-05
5.92741e-16
1.91986e-05
8.74022e-15
1.98967e-05
2.05949e-05
-5.9854e-15
4.53785e-06
-2.18472e-16
5.23599e-06
6.43591e-15
5.93412e-06
-6.06334e-15
6.63225e-06
2.09282e-15
7.33038e-06
-1.61758e-14
8.02851e-06
1.88307e-14
8.72664e-06
2.35229e-15
9.42478e-06
-9.17087e-15
1.01229e-05
4.71095e-15
1.0821e-05
-2.16263e-14
1.15192e-05
2.96474e-14
1.22173e-05
9.29156e-15
1.29154e-05
1.89081e-14
1.36136e-05
-4.46361e-15
1.43117e-05
-3.01541e-14
1.50098e-05
2.62179e-14
1.5708e-05
-4.28874e-16
1.64061e-05
2.1173e-14
1.71042e-05
-1.87089e-14
1.78024e-05
3.92452e-15
1.85005e-05
2.91671e-14
1.91986e-05
-1.5228e-14
1.98967e-05
2.05949e-05
8.67647e-15
4.53785e-06
-1.22917e-14
5.23599e-06
-1.88266e-15
5.93412e-06
-8.90176e-15
6.63225e-06
5.10893e-15
7.33038e-06
2.19911e-14
8.02851e-06
-1.22637e-14
8.72664e-06
5.37589e-15
9.42478e-06
-4.45544e-15
1.01229e-05
1.43072e-14
1.0821e-05
7.32678e-15
1.15192e-05
-7.04021e-15
1.22173e-05
-2.39937e-14
1.29154e-05
7.55678e-15
1.36136e-05
-9.79794e-15
1.43117e-05
1.62384e-14
1.50098e-05
-4.02941e-14
1.5708e-05
-1.44395e-14
1.64061e-05
1.37067e-14
1.71042e-05
7.89893e-15
1.78024e-05
3.92552e-14
1.85005e-05
-4.27464e-14
1.91986e-05
8.85473e-15
1.98967e-05
2.05949e-05
-9.39878e-15
4.53785e-06
-5.19957e-16
5.23599e-06
-7.52799e-15
5.93412e-06
4.41239e-15
6.63225e-06
-3.78349e-15
7.33038e-06
-1.33838e-14
8.02851e-06
2.11009e-15
8.72664e-06
-8.52761e-15
9.42478e-06
1.00276e-14
1.01229e-05
-1.86407e-15
1.0821e-05
2.02044e-14
1.15192e-05
7.01387e-15
1.22173e-05
-7.51005e-15
1.29154e-05
-2.36067e-14
1.36136e-05
2.04507e-15
1.43117e-05
-1.48318e-14
1.50098e-05
1.38823e-14
1.5708e-05
-2.38792e-15
1.64061e-05
-2.04058e-14
1.71042e-05
7.01845e-15
1.78024e-05
-1.20638e-14
1.85005e-05
2.59463e-14
1.91986e-05
-1.84089e-15
1.98967e-05
2.05949e-05
1.13362e-14
4.53785e-06
4.8127e-16
5.23599e-06
5.35781e-15
5.93412e-06
1.13041e-14
6.63225e-06
-4.86955e-15
7.33038e-06
1.1103e-15
8.02851e-06
8.15852e-15
8.72664e-06
-1.30436e-14
9.42478e-06
-5.94938e-15
1.01229e-05
1.99648e-15
1.0821e-05
-2.4384e-14
1.15192e-05
-1.61877e-14
1.22173e-05
3.27881e-14
1.29154e-05
3.05344e-15
1.36136e-05
1.44453e-14
1.43117e-05
2.69045e-14
1.50098e-05
-7.7391e-15
1.5708e-05
4.4412e-15
1.64061e-05
1.80043e-14
1.71042e-05
-2.18179e-14
1.78024e-05
-8.2088e-15
1.85005e-05
6.08765e-15
1.91986e-05
-3.89185e-14
1.98967e-05
2.05949e-05
1.36991e-16
9.81747e-07
2.42125e-16
1.37445e-06
3.77078e-16
1.76715e-06
-1.33916e-15
2.15984e-06
-3.68141e-15
2.55254e-06
2.94524e-06
5.95162e-15
1.86559e-18
9.81747e-07
-3.88784e-16
1.37445e-06
-2.60402e-15
1.76715e-06
1.94374e-15
2.15984e-06
8.06631e-15
2.55254e-06
2.94524e-06
-9.02954e-15
-1.1645e-16
9.81747e-07
1.86433e-16
1.37445e-06
-1.56225e-15
1.76715e-06
-4.21245e-15
2.15984e-06
-7.49823e-15
2.55254e-06
2.94524e-06
7.72583e-16
8.69933e-17
9.81747e-07
-1.01879e-16
1.37445e-06
2.69321e-15
1.76715e-06
7.44286e-15
2.15984e-06
3.2601e-15
2.55254e-06
2.94524e-06
-2.79777e-15
-4.83605e-17
9.81747e-07
3.95155e-17
1.37445e-06
1.94477e-16
1.76715e-06
-1.80598e-15
2.15984e-06
-4.20821e-15
2.55254e-06
2.94524e-06
5.01354e-15
-1.80085e-16
9.81747e-07
4.37441e-18
1.37445e-06
-1.84772e-15
1.76715e-06
-3.88606e-15
2.15984e-06
3.15731e-15
2.55254e-06
2.94524e-06
4.98396e-16
2.54006e-16
9.81747e-07
2.55497e-16
1.37445e-06
2.06597e-15
1.76715e-06
4.50416e-15
2.15984e-06
-2.30975e-15
2.55254e-06
2.94524e-06
5.4087e-16
2.16823e-17
9.81747e-07
-3.21626e-16
1.37445e-06
-1.14884e-15
1.76715e-06
-5.28544e-15
2.15984e-06
-3.76747e-16
2.55254e-06
2.94524e-06
-5.63963e-15
-1.43366e-16
9.81747e-07
1.66454e-16
1.37445e-06
4.19122e-15
1.76715e-06
6.34961e-15
2.15984e-06
-8.05414e-16
2.55254e-06
2.94524e-06
8.39343e-16
-6.87819e-17
9.81747e-07
-9.19747e-17
1.37445e-06
-2.76931e-15
1.76715e-06
-3.68648e-16
2.15984e-06
-1.4505e-15
2.55254e-06
2.94524e-06
-1.76551e-16
1.6637e-16
9.81747e-07
-8.86646e-17
1.37445e-06
5.69735e-16
1.76715e-06
-2.10335e-15
2.15984e-06
9.66016e-15
2.55254e-06
2.94524e-06
5.29006e-15
-1.77764e-16
9.81747e-07
-2.04531e-17
1.37445e-06
-3.45442e-16
1.76715e-06
-4.17265e-15
2.15984e-06
-2.62223e-15
2.55254e-06
2.94524e-06
5.36966e-15
1.77843e-16
9.81747e-07
2.05454e-17
1.37445e-06
3.45518e-16
1.76715e-06
4.17273e-15
2.15984e-06
2.62236e-15
2.55254e-06
2.94524e-06
-5.36926e-15
-1.66288e-16
9.81747e-07
8.8706e-17
1.37445e-06
-5.69543e-16
1.76715e-06
2.10357e-15
2.15984e-06
-9.65986e-15
2.55254e-06
2.94524e-06
-5.28987e-15
6.88755e-17
9.81747e-07
9.20708e-17
1.37445e-06
2.76949e-15
1.76715e-06
3.68802e-16
2.15984e-06
1.4511e-15
2.55254e-06
2.94524e-06
1.77005e-16
1.43432e-16
9.81747e-07
-1.66329e-16
1.37445e-06
-4.19109e-15
1.76715e-06
-6.34931e-15
2.15984e-06
8.05869e-16
2.55254e-06
2.94524e-06
-8.39112e-16
-2.16277e-17
9.81747e-07
3.2173e-16
1.37445e-06
1.14891e-15
1.76715e-06
5.28587e-15
2.15984e-06
3.76932e-16
2.55254e-06
2.94524e-06
5.64008e-15
-2.53957e-16
9.81747e-07
-2.55392e-16
1.37445e-06
-2.06596e-15
1.76715e-06
-4.50391e-15
2.15984e-06
2.31013e-15
2.55254e-06
2.94524e-06
-5.40682e-16
1.80121e-16
9.81747e-07
-4.26868e-18
1.37445e-06
1.84784e-15
1.76715e-06
3.88622e-15
2.15984e-06
-3.15676e-15
2.55254e-06
2.94524e-06
-4.97962e-16
4.83833e-17
9.81747e-07
-3.94815e-17
1.37445e-06
-1.94259e-16
1.76715e-06
1.8062e-15
2.15984e-06
4.2087e-15
2.55254e-06
2.94524e-06
-5.01322e-15
-8.69256e-17
9.81747e-07
1.01955e-16
1.37445e-06
-2.69312e-15
1.76715e-06
-7.44262e-15
2.15984e-06
-3.25969e-15
2.55254e-06
2.94524e-06
2.79816e-15
1.16494e-16
9.81747e-07
-1.86295e-16
1.37445e-06
1.56245e-15
1.76715e-06
4.21265e-15
2.15984e-06
7.49863e-15
2.55254e-06
2.94524e-06
-7.71987e-16
-1.81421e-18
9.81747e-07
3.88869e-16
1.37445e-06
2.6042e-15
1.76715e-06
-1.94347e-15
2.15984e-06
-8.06592e-15
2.55254e-06
2.94524e-06
9.03015e-15
-1.36921e-16
-2.42069e-16
-3.76952e-16
1.33945e-15
3.68173e-15
-5.95121e-15
-1.13356e-14
4.53785e-06
-4.8073e-16
5.23599e-06
-5.35664e-15
5.93412e-06
-1.1303e-14
6.63225e-06
4.8698e-15
7.33038e-06
-1.10837e-15
8.02851e-06
-8.15689e-15
8.72664e-06
1.30455e-14
9.42478e-06
5.94976e-15
1.01229e-05
-1.99511e-15
1.0821e-05
2.43886e-14
1.15192e-05
1.61909e-14
1.22173e-05
-3.27836e-14
1.29154e-05
-3.05034e-15
1.36136e-05
-1.44398e-14
1.43117e-05
-2.68986e-14
1.50098e-05
7.74147e-15
1.5708e-05
-4.43349e-15
1.64061e-05
-1.79973e-14
1.71042e-05
2.18277e-14
1.78024e-05
8.22061e-15
1.85005e-05
-6.07521e-15
1.91986e-05
3.89232e-14
1.98967e-05
2.05949e-05
9.39921e-15
4.53785e-06
5.20601e-16
5.23599e-06
7.52896e-15
5.93412e-06
-4.41145e-15
6.63225e-06
3.78373e-15
7.33038e-06
1.33858e-14
8.02851e-06
-2.10847e-15
8.72664e-06
8.5297e-15
9.42478e-06
-1.00258e-14
1.01229e-05
1.86629e-15
1.0821e-05
-2.02e-14
1.15192e-05
-7.01093e-15
1.22173e-05
7.51344e-15
1.29154e-05
2.36096e-14
1.36136e-05
-2.04037e-15
1.43117e-05
1.48327e-14
1.50098e-05
-1.38758e-14
1.5708e-05
2.39423e-15
1.64061e-05
2.04155e-14
1.71042e-05
-7.00989e-15
1.78024e-05
1.20706e-14
1.85005e-05
-2.59351e-14
1.91986e-05
1.85087e-15
1.98967e-05
2.05949e-05
-8.67573e-15
4.53785e-06
1.22928e-14
5.23599e-06
1.88343e-15
5.93412e-06
8.90227e-15
6.63225e-06
-5.10806e-15
7.33038e-06
-2.19899e-14
8.02851e-06
1.22662e-14
8.72664e-06
-5.37323e-15
9.42478e-06
4.45885e-15
1.01229e-05
-1.43045e-14
1.0821e-05
-7.32486e-15
1.15192e-05
7.04176e-15
1.22173e-05
2.39972e-14
1.29154e-05
-7.55326e-15
1.36136e-05
9.80102e-15
1.43117e-05
-1.62384e-14
1.50098e-05
4.02957e-14
1.5708e-05
1.44487e-14
1.64061e-05
-1.37012e-14
1.71042e-05
-7.89081e-15
1.78024e-05
-3.92496e-14
1.85005e-05
4.27569e-14
1.91986e-05
-8.8486e-15
1.98967e-05
2.05949e-05
5.98623e-15
4.53785e-06
2.19842e-16
5.23599e-06
-6.43524e-15
5.93412e-06
6.06415e-15
6.63225e-06
-2.09234e-15
7.33038e-06
1.61774e-14
8.02851e-06
-1.88297e-14
8.72664e-06
-2.34916e-15
9.42478e-06
9.17385e-15
1.01229e-05
-4.70861e-15
1.0821e-05
2.16298e-14
1.15192e-05
-2.96443e-14
1.22173e-05
-9.28776e-15
1.29154e-05
-1.89054e-14
1.36136e-05
4.46927e-15
1.43117e-05
3.01568e-14
1.50098e-05
-2.62153e-14
1.5708e-05
4.40107e-16
1.64061e-05
-2.11679e-14
1.71042e-05
1.8721e-14
1.78024e-05
-3.91503e-15
1.85005e-05
-2.91535e-14
1.91986e-05
1.52339e-14
1.98967e-05
2.05949e-05
6.71556e-15
4.53785e-06
-7.30611e-15
5.23599e-06
1.11013e-14
5.93412e-06
-4.24083e-15
6.63225e-06
1.51031e-14
7.33038e-06
-5.2088e-15
8.02851e-06
1.70151e-14
8.72664e-06
-3.93918e-15
9.42478e-06
-2.93225e-16
1.01229e-05
6.61239e-15
1.0821e-05
1.37077e-14
1.15192e-05
1.01853e-14
1.22173e-05
1.82203e-14
1.29154e-05
1.43711e-14
1.36136e-05
2.33427e-14
1.43117e-05
-2.53426e-14
1.50098e-05
2.90766e-14
1.5708e-05
-7.8246e-15
1.64061e-05
3.54216e-14
1.71042e-05
-4.50581e-15
1.78024e-05
4.23726e-14
1.85005e-05
-5.81719e-16
1.91986e-05
-8.72715e-15
1.98967e-05
2.05949e-05
-4.63017e-15
4.53785e-06
5.79796e-15
5.23599e-06
-1.61504e-14
5.93412e-06
-5.9741e-15
6.63225e-06
-8.55498e-15
7.33038e-06
4.22477e-15
8.02851e-06
-8.18582e-15
8.72664e-06
7.00056e-15
9.42478e-06
-2.4228e-14
1.01229e-05
-7.76694e-15
1.0821e-05
-2.27624e-14
1.15192e-05
8.34994e-15
1.22173e-05
-7.40027e-15
1.29154e-05
2.82662e-14
1.36136e-05
-4.57057e-14
1.43117e-05
-8.2193e-15
1.50098e-05
-2.82247e-14
1.5708e-05
-2.33681e-15
1.64061e-05
-6.94291e-15
1.71042e-05
2.21581e-14
1.78024e-05
-3.41071e-14
1.85005e-05
-3.73357e-15
1.91986e-05
-3.23462e-14
1.98967e-05
2.05949e-05
-8.92497e-15
4.53785e-06
-2.2887e-15
5.23599e-06
-2.22375e-15
5.93412e-06
6.6168e-15
6.63225e-06
-3.38737e-15
7.33038e-06
-3.90562e-15
8.02851e-06
-6.41825e-15
8.72664e-06
-7.15799e-15
9.42478e-06
6.81122e-15
1.01229e-05
6.98363e-15
1.0821e-05
-9.0626e-15
1.15192e-05
6.76198e-15
1.22173e-05
-2.88869e-14
1.29154e-05
-1.22311e-14
1.36136e-05
4.8091e-15
1.43117e-05
2.50287e-14
1.50098e-05
3.86547e-15
1.5708e-05
3.61066e-15
1.64061e-05
-2.04789e-14
1.71042e-05
-2.17511e-14
1.78024e-05
3.47186e-15
1.85005e-05
2.90428e-14
1.91986e-05
-1.6546e-15
1.98967e-05
2.05949e-05
6.21617e-15
4.53785e-06
-3.87913e-15
5.23599e-06
1.54226e-14
5.93412e-06
-7.06423e-15
6.63225e-06
-2.21004e-15
7.33038e-06
1.43028e-15
8.02851e-06
-5.49258e-15
8.72664e-06
1.32279e-14
9.42478e-06
6.04659e-15
1.01229e-05
-1.74499e-14
1.0821e-05
2.08895e-14
1.15192e-05
-2.14434e-14
1.22173e-05
1.91368e-14
1.29154e-05
-7.31283e-15
1.36136e-05
3.84907e-14
1.43117e-05
-1.29186e-14
1.50098e-05
-1.87902e-15
1.5708e-05
5.72111e-15
1.64061e-05
-7.58162e-15
1.71042e-05
2.76644e-14
1.78024e-05
1.4104e-14
1.85005e-05
-5.31377e-14
1.91986e-05
3.90893e-14
1.98967e-05
2.05949e-05
-1.49817e-15
4.53785e-06
1.08973e-14
5.23599e-06
-6.59846e-15
5.93412e-06
7.26629e-15
6.63225e-06
6.17548e-15
7.33038e-06
2.48962e-15
8.02851e-06
-9.64386e-16
8.72664e-06
-4.3641e-15
9.42478e-06
-8.89869e-15
1.01229e-05
1.38633e-14
1.0821e-05
1.06925e-14
1.15192e-05
6.25358e-15
1.22173e-05
-1.25307e-16
1.29154e-05
-3.4353e-15
1.36136e-05
-1.10387e-14
1.43117e-05
-1.77636e-14
1.50098e-05
1.76829e-14
1.5708e-05
9.95846e-15
1.64061e-05
3.33264e-15
1.71042e-05
-3.29581e-14
1.78024e-05
-1.04154e-14
1.85005e-05
3.00719e-14
1.91986e-05
-5.99882e-14
1.98967e-05
2.05949e-05
5.17047e-15
4.53785e-06
-7.45524e-15
5.23599e-06
-7.55969e-16
5.93412e-06
6.83973e-15
6.63225e-06
-9.97343e-15
7.33038e-06
-1.66347e-15
8.02851e-06
9.21959e-15
8.72664e-06
-1.34588e-14
9.42478e-06
2.32231e-14
1.01229e-05
1.04737e-14
1.0821e-05
-1.72709e-14
1.15192e-05
-3.02388e-15
1.22173e-05
1.13998e-14
1.29154e-05
-1.98151e-14
1.36136e-05
-4.67576e-15
1.43117e-05
5.03111e-14
1.50098e-05
-2.40431e-14
1.5708e-05
-6.65387e-15
1.64061e-05
1.42644e-14
1.71042e-05
1.65577e-15
1.78024e-05
-6.80708e-15
1.85005e-05
1.44475e-14
1.91986e-05
5.07634e-14
1.98967e-05
2.05949e-05
-6.19721e-15
4.53785e-06
2.87783e-17
5.23599e-06
1.15123e-14
5.93412e-06
-2.06258e-14
6.63225e-06
5.36729e-15
7.33038e-06
1.22233e-15
8.02851e-06
-4.66589e-17
8.72664e-06
1.2395e-14
9.42478e-06
-1.32252e-14
1.01229e-05
-1.88934e-14
1.0821e-05
-4.9635e-15
1.15192e-05
-7.15182e-15
1.22173e-05
-1.48854e-14
1.29154e-05
3.534e-14
1.36136e-05
1.56536e-18
1.43117e-05
-4.31354e-14
1.50098e-05
1.3564e-14
1.5708e-05
-2.82507e-14
1.64061e-05
2.45876e-15
1.71042e-05
-1.02386e-14
1.78024e-05
2.38052e-14
1.85005e-05
1.38809e-14
1.91986e-05
-4.55544e-14
1.98967e-05
2.05949e-05
-1.90662e-15
4.53785e-06
1.13121e-15
5.23599e-06
-2.16617e-14
5.93412e-06
9.62506e-15
6.63225e-06
1.51378e-14
7.33038e-06
-1.40649e-14
8.02851e-06
8.09329e-15
8.72664e-06
-2.69583e-14
9.42478e-06
-1.96472e-15
1.01229e-05
2.97189e-14
1.0821e-05
-1.17439e-14
1.15192e-05
1.9869e-14
1.22173e-05
-2.7444e-14
1.29154e-05
-2.06132e-14
1.36136e-05
1.60428e-14
1.43117e-05
-4.61138e-15
1.50098e-05
4.693e-15
1.5708e-05
4.79715e-14
1.64061e-05
-1.37346e-14
1.71042e-05
3.23731e-14
1.78024e-05
-3.51809e-14
1.85005e-05
-2.48993e-14
1.91986e-05
7.19215e-14
1.98967e-05
2.05949e-05
1.90671e-15
4.53785e-06
-1.12997e-15
5.23599e-06
2.16619e-14
5.93412e-06
-9.62334e-15
6.63225e-06
-1.51368e-14
7.33038e-06
1.40659e-14
8.02851e-06
-8.09208e-15
8.72664e-06
2.69612e-14
9.42478e-06
1.9667e-15
1.01229e-05
-2.9714e-14
1.0821e-05
1.17463e-14
1.15192e-05
-1.98654e-14
1.22173e-05
2.74475e-14
1.29154e-05
2.06193e-14
1.36136e-05
-1.60414e-14
1.43117e-05
4.61357e-15
1.50098e-05
-4.69091e-15
1.5708e-05
-4.79659e-14
1.64061e-05
1.37403e-14
1.71042e-05
-3.23683e-14
1.78024e-05
3.5187e-14
1.85005e-05
2.49126e-14
1.91986e-05
-7.19065e-14
1.98967e-05
2.05949e-05
6.19734e-15
4.53785e-06
-2.819e-17
5.23599e-06
-1.15113e-14
5.93412e-06
2.06266e-14
6.63225e-06
-5.36667e-15
7.33038e-06
-1.22055e-15
8.02851e-06
4.83074e-17
8.72664e-06
-1.23933e-14
9.42478e-06
1.32278e-14
1.01229e-05
1.88963e-14
1.0821e-05
4.96586e-15
1.15192e-05
7.15505e-15
1.22173e-05
1.48883e-14
1.29154e-05
-3.53356e-14
1.36136e-05
-5.63808e-19
1.43117e-05
4.31389e-14
1.50098e-05
-1.35607e-14
1.5708e-05
2.82578e-14
1.64061e-05
-2.45137e-15
1.71042e-05
1.02436e-14
1.78024e-05
-2.37989e-14
1.85005e-05
-1.38678e-14
1.91986e-05
4.5569e-14
1.98967e-05
2.05949e-05
-5.16997e-15
4.53785e-06
7.45572e-15
5.23599e-06
7.57082e-16
5.93412e-06
-6.83859e-15
6.63225e-06
9.97497e-15
7.33038e-06
1.66465e-15
8.02851e-06
-9.21892e-15
8.72664e-06
1.34601e-14
9.42478e-06
-2.32205e-14
1.01229e-05
-1.04704e-14
1.0821e-05
1.72745e-14
1.15192e-05
3.02833e-15
1.22173e-05
-1.13963e-14
1.29154e-05
1.98204e-14
1.36136e-05
4.67967e-15
1.43117e-05
-5.03036e-14
1.50098e-05
2.40487e-14
1.5708e-05