/*--------------------------------*- C++ -*----------------------------------*\
  =========                 |
  \\      /  F ield         | OpenFOAM: The Open Source CFD Toolbox
   \\    /   O peration     | Website:  https://openfoam.org
    \\  /    A nd           | Version:  11
     \\/     M anipulation  |
\*---------------------------------------------------------------------------*/
FoamFile
{
    format      ascii;
    class       volScalarField;
    location    "1.42";
    object      nut;
}
// * * * * * * * * * * * * * * * * * * * * * * * * * * * * * * * * * * * * * //

dimensions      [0 2 -1 0 0 0 0];

internalField   nonuniform List<scalar> 
2880
(
6.76813e-07
2.90438e-06
9.49562e-06
2.19304e-05
4.28464e-05
9.59728e-05
2.61557e-05
5.69777e-05
0.000101897
0.000155435
0.000221907
0.000308959
0.00015254
0.000135218
0.000219765
0.000311864
0.000411408
0.000516579
0.000170025
0.000204632
0.000323907
0.000445815
0.000567267
0.000683564
0.00018391
0.00026022
0.000409728
0.000554006
0.000689862
0.000812999
0.000193853
0.000302036
0.000478744
0.000639957
0.00078523
0.000912063
0.000199232
0.000330738
0.000532963
0.000707086
0.000858897
0.000987956
4.71099e-05
0.000346649
0.000574388
0.000757834
0.000913448
0.00104417
4.72574e-05
0.000360519
0.000605044
0.000794336
0.000951261
0.00108181
4.7562e-05
0.000371425
0.000626248
0.000818129
0.000973995
0.00110238
4.79405e-05
0.000378883
0.000638806
0.000830314
0.000982861
0.00110699
4.825e-05
0.000382586
0.000643214
0.000831709
0.000978857
0.0010967
4.83996e-05
0.000382365
0.00063978
0.000822966
0.000962908
0.00107271
4.83505e-05
0.00037814
0.000628683
0.000804625
0.00093593
0.00103637
4.8097e-05
0.000369827
0.000610004
0.00077713
0.000898823
0.00098911
4.76935e-05
0.000357387
0.000583683
0.000740811
0.000852395
0.000932253
4.72714e-05
0.000340864
0.000549463
0.000695752
0.000797244
0.000866832
4.70676e-05
0.000320101
0.000506748
0.000641677
0.000733617
0.000793373
0.000196427
0.00029504
0.000454397
0.000577707
0.000661203
0.00071202
0.000188595
0.000256494
0.000390575
0.000501984
0.000578766
0.000622107
0.000176176
0.000204525
0.000312872
0.000411094
0.00048342
0.000524009
0.000159571
0.000138252
0.000218298
0.000299569
0.000368561
0.000415325
2.77705e-05
5.9755e-05
0.000106452
0.000162155
0.000223109
0.000285518
7.60936e-07
3.14766e-06
1.04496e-05
2.67721e-05
5.79853e-05
0.000129774
0.000539924
0.000803439
0.000925307
0.00099458
0.00103374
0.0010626
0.0010661
0.00105633
0.00104172
0.00102244
0.00100042
0.000977185
0.000954005
0.000932047
0.00091252
0.000896748
0.000886624
0.000883825
0.000889194
0.000907037
0.000939601
0.000990151
0.00105578
0.00116516
0.000592768
0.000777532
0.000882721
0.000949893
0.000996504
0.00101881
0.00103947
0.00104332
0.00103561
0.00102187
0.00100429
0.000983866
0.000961604
0.000938412
0.000915186
0.000892854
0.000871861
0.000852879
0.000837506
0.000825948
0.000818074
0.000817915
0.00081749
0.000842376
0.000708197
0.000831011
0.000902994
0.000955577
0.000995602
0.0010241
0.001039
0.00105195
0.00105446
0.00105243
0.0010459
0.00103627
0.00102474
0.00101236
0.000999928
0.000988069
0.000977494
0.000968718
0.000961756
0.000956869
0.000952766
0.000952292
0.000949684
0.000959688
0.000833782
0.000932231
0.000986729
0.00102228
0.00105097
0.00107546
0.00109416
0.00111128
0.00112027
0.00113237
0.00114149
0.00114924
0.0011567
0.00116517
0.00117593
0.00118999
0.00120744
0.00122766
0.00125079
0.00127555
0.00130026
0.00132443
0.00134787
0.00137802
0.00094552
0.00104107
0.00109737
0.00113022
0.00115335
0.00117371
0.00119264
0.00121181
0.00123091
0.00125288
0.00127744
0.0013058
0.00133829
0.0013746
0.00141433
0.00145695
0.00150214
0.00154915
0.00159683
0.00164408
0.00168763
0.00172552
0.0017604
0.0017948
0.00103858
0.0011356
0.0012014
0.00124572
0.00127594
0.00129756
0.00131709
0.00133755
0.00136051
0.00138699
0.00141707
0.00145183
0.00149091
0.00153386
0.00158011
0.00162887
0.00167899
0.00172925
0.00177857
0.00182585
0.00186836
0.00190486
0.00193896
0.00196775
0.0011131
0.00121419
0.00128908
0.00134483
0.00138721
0.00142025
0.00144755
0.00147245
0.00149786
0.00152541
0.00155743
0.00159473
0.00163655
0.00168176
0.00172988
0.00177987
0.0018305
0.00188055
0.00192916
0.001974
0.0020152
0.00205405
0.00208876
0.00211393
0.0011707
0.00127913
0.00136277
0.00142778
0.00147936
0.00152252
0.00155966
0.00159349
0.0016265
0.00166011
0.00169448
0.00172886
0.00176501
0.00180395
0.0018448
0.00188673
0.00192803
0.00196657
0.00200179
0.00203169
0.00205361
0.00206762
0.00207218
0.00207071
0.00120884
0.00132308
0.0014169
0.00149441
0.00155834
0.00161089
0.00165505
0.00169357
0.00172877
0.00176245
0.00179591
0.00183004
0.00186375
0.00189545
0.00192355
0.00194626
0.00196304
0.00197286
0.00197524
0.00196983
0.00195756
0.00194108
0.00192588
0.00191701
0.00122794
0.00134525
0.00144604
0.00153312
0.00160795
0.00167202
0.00172702
0.0017745
0.00181579
0.00185188
0.00188335
0.00191039
0.00193295
0.00195073
0.00196328
0.00196989
0.00196958
0.00196139
0.00194563
0.00192331
0.00189643
0.00186745
0.00183912
0.00181774
0.00122863
0.00134586
0.00145009
0.00154299
0.00162514
0.00169723
0.00176008
0.00181448
0.00186106
0.00190021
0.00193209
0.00195662
0.0019735
0.00198222
0.00198255
0.0019748
0.00195787
0.00193233
0.00189804
0.00185617
0.00181059
0.00176589
0.00172532
0.00169748
0.00121198
0.00132647
0.00143116
0.0015264
0.00161196
0.00168797
0.00175479
0.00181272
0.00186192
0.00190234
0.00193377
0.00195608
0.00196896
0.00197215
0.00196502
0.00195039
0.00192782
0.00189454
0.00184859
0.00179393
0.00173147
0.00167263
0.00163158
0.00162287
0.00117968
0.00128986
0.00139335
0.00148854
0.00157441
0.00165082
0.00171798
0.00177597
0.00182494
0.00186447
0.00189413
0.00191498
0.00192545
0.00192615
0.00191287
0.00188713
0.00184959
0.0018011
0.00175381
0.00170845
0.00166675
0.00162667
0.00158215
0.00154465
0.0011338
0.00123956
0.00134159
0.00143555
0.00151963
0.00159367
0.0016581
0.00171285
0.00175892
0.00179466
0.00181811
0.00182452
0.00181894
0.00180736
0.00179195
0.00177334
0.00175442
0.00173096
0.00169658
0.00165331
0.0016002
0.0015395
0.00147185
0.00142962
0.00107644
0.00117903
0.00128043
0.00137272
0.00145354
0.00152288
0.00158161
0.00162823
0.00165613
0.00167288
0.00168528
0.00169829
0.00171073
0.00171711
0.00170868
0.00168724
0.00165361
0.00160895
0.00155693
0.00149933
0.00143753
0.00137705
0.00131177
0.00128157
0.00100937
0.00111103
0.00121307
0.00130348
0.00137973
0.00144017
0.00147922
0.00150875
0.0015441
0.00157317
0.00159618
0.00160479
0.00159718
0.00157655
0.00154667
0.00150877
0.00146376
0.00141298
0.00135844
0.00130284
0.00124982
0.00120778
0.00117056
0.00120191
0.000933583
0.00103729
0.00114122
0.00122926
0.00129203
0.00133788
0.00138835
0.00142892
0.00145225
0.00146272
0.00145715
0.0014424
0.00141915
0.00138818
0.0013506
0.00130781
0.00126199
0.00121608
0.00117509
0.00114407
0.00113503
0.0011557
0.00120799
0.00136009
0.000849205
0.000958691
0.00106539
0.00114317
0.00120923
0.00126862
0.00130258
0.00132152
0.00132416
0.00131527
0.00129794
0.00127339
0.00124313
0.00120894
0.00117305
0.00113912
0.00111235
0.00110202
0.00111621
0.00115813
0.00122478
0.00131852
0.0014811
0.00169
0.000755746
0.000875862
0.000980005
0.00107045
0.00113901
0.00117856
0.00120187
0.00120376
0.0011948
0.00117773
0.00115527
0.00113005
0.00110494
0.00108364
0.00107122
0.00107818
0.00110827
0.00115482
0.00121423
0.0013016
0.0014292
0.00161246
0.00186758
0.00206227
0.000653045
0.000787219
0.000905526
0.000999538
0.00105821
0.00109545
0.00110341
0.00109865
0.00108615
0.00107032
0.0010552
0.00104478
0.00104395
0.00105833
0.00109304
0.00114091
0.00120129
0.00128336
0.00139115
0.00153021
0.00171324
0.00195045
0.00220418
0.00242131
0.000544163
0.000705049
0.000839435
0.000930442
0.000996249
0.00101957
0.00102368
0.00101946
0.00101334
0.00101055
0.00101544
0.00103224
0.00106371
0.00110954
0.00116692
0.00123386
0.00131574
0.00141934
0.00155683
0.00174745
0.00200757
0.00230724
0.00262545
0.00290705
0.000441614
0.000629183
0.000779238
0.000889645
0.000946407
0.000963929
0.000970067
0.000973938
0.000981788
0.000997625
0.0010239
0.00106103
0.00110779
0.00116406
0.0012328
0.00132186
0.00144159
0.00160657
0.00183531
0.00214298
0.0024964
0.00285468
0.00318667
0.00347044
0.00036306
0.000588713
0.000763048
0.000875312
0.000914162
0.000931729
0.000944344
0.000960089
0.000983003
0.00101486
0.00105624
0.00110816
0.00117397
0.00125975
0.00137373
0.00152444
0.00172131
0.00197341
0.00228449
0.00264413
0.00299161
0.00333518
0.00364303
0.00388812
0.00031814
0.000587335
0.000783615
0.000870982
0.000900342
0.000920351
0.000942223
0.000970733
0.00100792
0.00105535
0.00111574
0.00119385
0.00129548
0.00142582
0.00158864
0.00178707
0.00202487
0.00230751
0.00264023
0.00299699
0.00335283
0.00369762
0.00401015
0.0042167
1.05759e-06
8.01288e-06
3.78357e-05
9.87985e-05
0.00017985
4.90709e-05
3.23593e-05
5.7119e-05
0.000147998
0.000274578
0.000413728
0.000398681
0.000186009
0.000129702
0.000267775
0.000432025
0.000587772
0.000656593
4.80911e-05
0.000199305
0.000366386
0.000544653
0.000693343
0.000777585
5.16122e-05
0.00025792
0.000441585
0.000617398
0.000746336
0.000817257
5.42312e-05
0.000304214
0.000495545
0.000659149
0.000764385
0.000815668
5.61606e-05
0.000338137
0.00053157
0.000679174
0.000763481
0.000797806
5.75361e-05
0.000360806
0.000553026
0.000684576
0.000751604
0.000774586
5.84454e-05
0.000373911
0.000562907
0.00067969
0.000733143
0.000751165
5.8945e-05
0.00037897
0.000563729
0.000667465
0.000711844
0.000728871
5.90667e-05
0.000377023
0.000557406
0.000650483
0.00068952
0.000707554
5.88529e-05
0.000368814
0.000545465
0.000630191
0.000666783
0.000687335
5.8359e-05
0.00035452
0.000529061
0.000607349
0.000643515
0.000667749
5.76413e-05
0.000334453
0.00050906
0.000582174
0.000619146
0.000647807
5.6674e-05
0.000309935
0.000485684
0.000554651
0.000592818
0.000626065
5.54329e-05
0.000282136
0.00045899
0.000524729
0.000563511
0.000601897
5.3879e-05
0.000252297
0.000428771
0.000492055
0.000530102
0.000573988
5.18888e-05
0.000222213
0.000394765
0.000456072
0.000491135
0.000540735
4.89403e-05
0.000195576
0.000356513
0.000415875
0.000445526
0.000499873
0.000199738
0.000182986
0.000312087
0.00036907
0.00039029
0.000450089
0.000186786
0.000160398
0.000260677
0.000312895
0.000324025
0.000384365
0.000170302
0.000119532
0.000193369
0.000242258
0.000249474
0.00028751
3.01654e-05
5.42822e-05
9.74637e-05
0.000143822
0.000169366
0.00015823
9.45816e-07
2.84561e-06
7.91735e-06
2.01283e-05
5.34956e-05
0.000210213
0.000343291
0.000680064
0.000831964
0.000873967
0.00089955
0.00092581
0.000958824
0.00100078
0.00105361
0.0011206
0.00120634
0.00131532
0.00145076
0.00161474
0.00180935
0.00203836
0.0023081
0.00262501
0.00298875
0.00335618
0.00371477
0.00403918
0.00433224
0.00449702
0.000629245
0.000800083
0.000853846
0.000880558
0.000908257
0.000944239
0.000989761
0.00104615
0.00111658
0.00120556
0.00131751
0.00145595
0.00162344
0.00182184
0.00205292
0.00231876
0.00262112
0.00295934
0.00332629
0.00367886
0.00401058
0.00431206
0.00456256
0.00469229
0.000769234
0.000841554
0.000862055
0.000887415
0.000924727
0.000972969
0.00103171
0.00110362
0.00119356
0.00130685
0.00144793
0.00161963
0.00182262
0.00205577
0.002317
0.00260436
0.00291642
0.00325054
0.00359881
0.00392762
0.00422368
0.00449067
0.00470141
0.0048115
0.000822959
0.000846996
0.000864217
0.000899812
0.000949813
0.00101041
0.00108273
0.00117187
0.00128428
0.00142548
0.00159854
0.00180352
0.00203777
0.00229699
0.00257641
0.00287182
0.00317974
0.00349599
0.00381275
0.00411038
0.00436319
0.00458648
0.00476196
0.0048559
0.000829442
0.000840787
0.000869574
0.000919523
0.000982093
0.00105471
0.0011417
0.00125065
0.00138866
0.00155989
0.00176476
0.00200026
0.00226087
0.00253954
0.00282883
0.00312198
0.00341352
0.00369885
0.00397234
0.00422491
0.00443519
0.00460329
0.00474487
0.00482402
0.00081805
0.000835653
0.000881472
0.000945874
0.00101991
0.00110466
0.00120816
0.00133969
0.00150562
0.00170767
0.00194307
0.00220566
0.00248706
0.00277771
0.00306792
0.003349
0.00361424
0.00385913
0.00408046
0.00427464
0.00443623
0.00455314
0.00464519
0.00471336
0.000802138
0.000836476
0.000899967
0.000977294
0.00106188
0.00115961
0.00128184
0.00143837
0.00163358
0.00186581
0.00212884
0.00241364
0.00270964
0.00300547
0.00328988
0.00355269
0.00378601
0.00398499
0.00414804
0.00427618
0.00437199
0.00443809
0.00447537
0.00451036
0.000788317
0.000843362
0.00092387
0.00101245
0.00110717
0.00121912
0.0013622
0.00154547
0.00177008
0.00203053
0.00231738
0.00261943
0.00292461
0.00322047
0.00349477
0.00373637
0.00393632
0.00408883
0.00419213
0.00424931
0.00426896
0.00426197
0.00422884
0.00415623
0.000778764
0.000855797
0.000951889
0.00105022
0.00115506
0.00128259
0.00144826
0.00165914
0.00191224
0.00219807
0.00250458
0.00281913
0.00312891
0.00342106
0.00368305
0.00390344
0.00407276
0.00418423
0.00423437
0.00422396
0.00415863
0.00403967
0.00379993
0.00324231
0.000773702
0.000872816
0.000982693
0.00108959
0.0012048
0.00134916
0.00153861
0.00177718
0.00205702
0.00236489
0.00268684
0.00300961
0.0033203
0.00360623
0.00385518
0.00405618
0.00420019
0.00428053
0.00429286
0.00423473
0.00410567
0.00390836
0.00364629
0.003308
0.000772757
0.000893392
0.00101523
0.00112979
0.00125562
0.00141766
0.00163143
0.00189719
0.00220156
0.00252794
0.00286132
0.00318852
0.00349711
0.00377494
0.00401053
0.00419388
0.00431721
0.00437542
0.0043659
0.00428811
0.00414324
0.0039351
0.00367349
0.00339038
0.000775
0.000916573
0.00104868
0.00117015
0.00130662
0.0014866
0.00172461
0.00201685
0.00234334
0.00268474
0.00302583
0.00335412
0.00365799
0.00392603
0.00414762
0.00431382
0.00441836
0.00445794
0.00443212
0.00434269
0.00419313
0.00398905
0.00373971
0.00346315
0.00077923
0.000941107
0.00108233
0.00121005
0.00135659
0.00155425
0.00181614
0.00213421
0.00248038
0.00283345
0.00317884
0.00350526
0.00380207
0.00405865
0.00426512
0.00441359
0.00449914
0.00452025
0.00447847
0.00437766
0.00422301
0.00402108
0.00378061
0.00351097
0.000784879
0.000965915
0.00111573
0.0012484
0.00140429
0.00161989
0.00190545
0.00224779
0.00261129
0.00297287
0.00331946
0.00364138
0.00392903
0.00417247
0.00436244
0.00449192
0.00455725
0.00455853
0.0044992
0.00438504
0.00422293
0.00402059
0.00378719
0.00352927
0.00079147
0.000992411
0.00114757
0.00128475
0.00144963
0.00168334
0.00199215
0.00235649
0.00273518
0.00310232
0.00344737
0.00376248
0.00403909
0.00426777
0.00443975
0.00454876
0.0045924
0.00457251
0.00449464
0.00436665
0.00419724
0.00399533
0.00377072
0.00352955
0.000798332
0.00101958
0.00117501
0.00131958
0.00149272
0.00174451
0.00207576
0.00246011
0.00285164
0.00322161
0.00356268
0.00386899
0.00413289
0.00434531
0.00449778
0.00458475
0.00460517
0.00456291
0.00446588
0.00432432
0.00414887
0.0039497
0.00373725
0.00351825
0.000804023
0.00104643
0.00120441
0.00135366
0.00153382
0.00180356
0.00215622
0.00255845
0.00296055
0.00333088
0.00366587
0.0039617
0.00421145
0.00440621
0.00453772
0.00460115
0.00459704
0.00453164
0.00441565
0.00426195
0.00408306
0.00389016
0.00369384
0.00350088
0.000807494
0.00107296
0.00123585
0.00138628
0.00157344
0.00186098
0.00223374
0.00265163
0.00306214
0.00343061
0.00375773
0.00404164
0.00427603
0.00445193
0.00456117
0.00459981
0.0045703
0.00448175
0.00434807
0.00418485
0.00400621
0.00382359
0.0036467
0.00348139
0.000807604
0.00110093
0.00126922
0.00141441
0.0016125
0.00191755
0.00230885
0.00274005
0.00315684
0.00352148
0.00383921
0.00411006
0.00432809
0.00448414
0.0045701
0.00458307
0.0045279
0.00441708
0.00426804
0.00409889
0.00392463
0.00375591
0.00360045
0.00346225
0.000802864
0.00112957
0.00130138
0.00144103
0.00165286
0.00197447
0.00238237
0.00282441
0.0032453
0.0036043
0.00391139
0.00416829
0.00436924
0.00450473
0.00456673
0.00455367
0.00447329
0.00434198
0.00418076
0.00400975
0.00384378
0.0036916
0.00355804
0.00344481
0.000793294
0.00115999
0.00133763
0.00147183
0.00169369
0.00203329
0.00245542
0.0029056
0.00332821
0.00367993
0.00397535
0.00421769
0.00440113
0.0045157
0.00455349
0.00451461
0.00441021
0.00426096
0.00409125
0.00392237
0.00376783
0.00363351
0.00352096
0.00342969
0.000782614
0.00119349
0.00137419
0.00150708
0.0017378
0.0020951
0.00252932
0.00298461
0.00340626
0.00374916
0.00403214
0.00425958
0.0044254
0.00451907
0.00453291
0.00446903
0.00434247
0.00417832
0.0040039
0.00384055
0.00369942
0.00358303
0.00348971
0.00341705
0.000775192
0.00125
0.00140801
0.0015484
0.0017887
0.00215982
0.00260525
0.0030623
0.00348
0.00381269
0.00408271
0.0042952
0.00444365
0.00451686
0.00450751
0.00442003
0.00427367
0.00409787
0.00392214
0.00376681
0.00363988
0.00354044
0.00346408
0.00340683
0.000782747
0.00130638
0.0014506
0.00160354
0.00185038
0.00223022
0.00268226
0.00313918
0.00354978
0.00387106
0.0041279
0.00432571
0.00445737
0.004511
0.00447973
0.00437055
0.00420704
0.00402272
0.00384842
0.00370251
0.00358946
0.00350525
0.00344346
0.00339873
1.33453e-06
1.24064e-05
4.75454e-05
0.000115378
0.000195843
5.35741e-05
3.80465e-05
8.30099e-05
0.000167149
0.000292534
0.000403539
0.000440112
5.31926e-05
0.000182493
0.000315904
0.000488891
0.000657379
0.000805758
5.92562e-05
0.000277131
0.000458178
0.000670829
0.000887328
0.0010857
6.38882e-05
0.000360663
0.000586703
0.000830005
0.00107785
0.00128796
6.74942e-05
0.000430496
0.000699186
0.000966557
0.00122953
0.0014365
7.03082e-05
0.000486908
0.000794972
0.00108235
0.00134738
0.00154756
7.2477e-05
0.00053087
0.000874297
0.00117754
0.00143938
0.00163179
7.40956e-05
0.000563476
0.000937821
0.00125332
0.00151119
0.00169629
7.52256e-05
0.0005857
0.000986287
0.00131132
0.00156666
0.00174569
7.59073e-05
0.000598133
0.0010204
0.00135312
0.00160825
0.00178295
7.61793e-05
0.000601146
0.00104072
0.00138001
0.00163746
0.00181137
7.61518e-05
0.000594365
0.00104766
0.00139292
0.00165551
0.00182995
7.5811e-05
0.000578673
0.00104152
0.0013926
0.00165965
0.00183928
7.51117e-05
0.000555447
0.00102231
0.0013779
0.00164965
0.00183843
7.39985e-05
0.000525732
0.00098982
0.00134687
0.00162391
0.00182487
7.24067e-05
0.000490492
0.00094347
0.00129762
0.00157972
0.00179441
7.02531e-05
0.000450409
0.000881886
0.00122668
0.00151202
0.00174128
6.74229e-05
0.000404737
0.000802449
0.00112942
0.00141498
0.00165471
6.37582e-05
0.00035183
0.000700994
0.000999757
0.00127781
0.00151841
5.90392e-05
0.000288486
0.000570809
0.00082982
0.00108956
0.00130629
5.29447e-05
0.00020804
0.000406484
0.000611706
0.000835047
0.000977224
3.80494e-05
0.000104292
0.000211568
0.000346572
0.000512148
0.000518204
1.22761e-06
9.71267e-06
3.66694e-05
9.11757e-05
0.00019551
5.86741e-05
0.00082812
0.00136965
0.00152545
0.00167808
0.00192397
0.00230657
0.00276045
0.00321549
0.00361573
0.0039247
0.00416843
0.00435216
0.00446797
0.00450333
0.00445189
0.00432325
0.00414531
0.00395517
0.00378417
0.0036481
0.00354785
0.00347674
0.003427
0.0033923
0.00117633
0.00153237
0.00164054
0.0017689
0.00200597
0.00238652
0.00283836
0.00328832
0.00367765
0.00397391
0.004205
0.00437555
0.00447682
0.00449563
0.00442616
0.00428057
0.00409076
0.00389686
0.00373009
0.00360339
0.00351438
0.00345417
0.00341408
0.00338726
0.00137749
0.00165497
0.00174084
0.00185583
0.00208866
0.00246577
0.0029133
0.0033564
0.00373409
0.00401886
0.00423819
0.00439682
0.00448522
0.00448959
0.00440461
0.0042447
0.0040453
0.00384899
0.00368647
0.00356794
0.00348822
0.00343676
0.00340414
0.00338346
0.00151632
0.00174769
0.00182524
0.00193425
0.00216638
0.00254006
0.00298214
0.00341736
0.00378222
0.00405852
0.00426845
0.00441672
0.00449434
0.00448673
0.00438906
0.00421756
0.0040105
0.00381239
0.00365333
0.00354118
0.00346857
0.00342374
0.00339679
0.00338076
0.00162175
0.00181491
0.0018949
0.00200335
0.00223605
0.0026062
0.00304213
0.00346908
0.00382182
0.00408938
0.00429337
0.00443563
0.00450524
0.0044883
0.00438104
0.00420068
0.00398755
0.00378762
0.00363059
0.00352262
0.00345478
0.00341448
0.00339158
0.00337892
0.00170357
0.00186702
0.00195247
0.00206293
0.00229579
0.00266217
0.00309264
0.00351415
0.00385721
0.00411793
0.00431576
0.00445234
0.00451697
0.00449519
0.00438177
0.00419531
0.00397733
0.00377501
0.00361814
0.00351193
0.00344653
0.0034084
0.00338813
0.00337778
0.00176829
0.00190847
0.00199981
0.00211319
0.00234473
0.00270824
0.00313824
0.00355783
0.00389441
0.0041503
0.00434325
0.00447485
0.00453463
0.00450851
0.0043915
0.00420155
0.00398007
0.00377478
0.00361593
0.00350893
0.00344283
0.00340576
0.00338661
0.00337723
0.00182009
0.00194161
0.00203816
0.00215251
0.00238436
0.00274965
0.00318022
0.00359984
0.00393246
0.00418575
0.00437662
0.00450618
0.00456374
0.0045352
0.00441568
0.00422247
0.00399717
0.00378734
0.00362409
0.00351354
0.00344477
0.00340637
0.00338665
0.00337714
0.00186182
0.00196791
0.00206781
0.00218506
0.00241911
0.00278333
0.00321162
0.00362925
0.00395854
0.00421091
0.00440115
0.00453011
0.00458821
0.00456189
0.00444548
0.00425433
0.00402766
0.00381303
0.00364322
0.00352634
0.00345318
0.00341067
0.00338845
0.00337753
0.00189555
0.0019886
0.00209164
0.00220967
0.002441
0.00280061
0.00322638
0.00364397
0.00397371
0.00422845
0.00442151
0.00455376
0.00461602
0.00459515
0.00448491
0.00429836
0.00407189
0.00385214
0.0036738
0.00354788
0.00346749
0.00341897
0.0033922
0.00337843
0.00192263
0.00200432
0.0021078
0.00222415
0.00245047
0.00280458
0.00322821
0.0036477
0.00398182
0.00424187
0.0044402
0.00457796
0.00464673
0.00463399
0.00453285
0.00435376
0.00412949
0.00390495
0.00371657
0.00357899
0.00348803
0.00343175
0.00339843
0.00338014
0.00194423
0.00201594
0.00211682
0.00222969
0.00244913
0.00279656
0.00321796
0.0036405
0.00398211
0.00425024
0.00445637
0.00460198
0.00467957
0.00467739
0.00458808
0.00441935
0.00419979
0.0039716
0.00377245
0.00362095
0.00351657
0.00344912
0.00340745
0.00338276
0.00196062
0.00202464
0.00211769
0.00222643
0.00243723
0.00277651
0.00319522
0.00362169
0.00397375
0.00425264
0.00446907
0.00462487
0.0047135
0.00472413
0.00464912
0.00449358
0.00428159
0.00405174
0.003842
0.00367491
0.00355434
0.0034727
0.00341977
0.00338659
0.00197169
0.00203048
0.00211166
0.00221518
0.00241544
0.00274475
0.00315985
0.00359067
0.0039558
0.00424802
0.0044772
0.00464548
0.00474729
0.00477279
0.00471426
0.00457456
0.00437321
0.00414445
0.00392539
0.00374192
0.00360271
0.00350372
0.00343642
0.00339202
0.00197665
0.00203291
0.00210062
0.00219714
0.00238475
0.0027019
0.00311198
0.00354701
0.00392734
0.00423521
0.00447949
0.00466249
0.00477952
0.00482174
0.0047816
0.00466006
0.00447242
0.00424811
0.00402215
0.00382263
0.003663
0.00354357
0.00345841
0.00339949
0.00197383
0.00203116
0.00208554
0.00217337
0.0023463
0.00264889
0.00305198
0.00349047
0.00388745
0.00421297
0.00447451
0.00467436
0.00480857
0.00486922
0.00484907
0.00474766
0.00457656
0.00436035
0.00413085
0.00391694
0.00373614
0.00359357
0.00348684
0.00340946
0.00196034
0.00202384
0.0020667
0.00214465
0.00230131
0.0025869
0.0029806
0.00342107
0.0038353
0.00417999
0.00446073
0.00467944
0.00483266
0.00491329
0.00491451
0.00483481
0.00468267
0.0044781
0.00424906
0.00402369
0.00382235
0.00365471
0.00352259
0.0034223
0.00193178
0.0020085
0.00204355
0.00211136
0.00225093
0.00251736
0.00289893
0.0033392
0.00377017
0.00413498
0.00443654
0.00467592
0.00484988
0.00495196
0.00497571
0.00491895
0.00478769
0.00459789
0.00437342
0.00414044
0.00392056
0.00372716
0.00356641
0.00343835
0.00188265
0.00198102
0.00201449
0.00207331
0.00219615
0.00244186
0.0028085
0.00324574
0.00369138
0.00407668
0.00440033
0.00466198
0.00485828
0.00498316
0.00503049
0.00499761
0.00488864
0.00471612
0.0045
0.00426363
0.00402839
0.00380999
0.00361843
0.00345792
0.00180338
0.00193401
0.00197645
0.00202963
0.00213761
0.00236205
0.0027113
0.00314257
0.00359746
0.00400387
0.00435062
0.00463588
0.00485592
0.00500485
0.00507672
0.00506847
0.00498273
0.00482929
0.00462457
0.00438883
0.00414205
0.00390081
0.00367778
0.00348087
0.00167545
0.00185946
0.00192526
0.00197886
0.00207556
0.00227947
0.00260934
0.0030313
0.00349012
0.0039165
0.00428646
0.00459614
0.00484102
0.00501508
0.00511233
0.00512931
0.00506741
0.0049342
0.00474305
0.00451124
0.00425672
0.00399571
0.00374217
0.00350647
0.0014635
0.00174843
0.00185582
0.00191892
0.00200979
0.00219539
0.00250465
0.00291386
0.00337229
0.00381542
0.00420751
0.00454167
0.00481202
0.00501201
0.00513535
0.00517806
0.00514041
0.00502806
0.00485186
0.00462631
0.00436719
0.00408966
0.0038078
0.003533
0.00109437
0.00157168
0.00176031
0.00184647
0.00193933
0.00211066
0.00239936
0.0027928
0.00324656
0.00370199
0.00411396
0.00447179
0.00476766
0.00499403
0.00514399
0.00521284
0.00519972
0.0051086
0.00494807
0.00473022
0.00446867
0.00417723
0.00386961
0.00355752
0.000525074
0.00123237
0.00162044
0.00175567
0.00186251
0.00202572
0.00229538
0.00267081
0.00311565
0.00357799
0.00400653
0.00438634
0.0047071
0.00495985
0.00513669
0.00523199
0.00524365
0.00517399
0.00502956
0.00482017
0.00455737
0.00425356
0.00392203
0.00357581
2.11136e-06
5.88375e-06
1.12803e-05
1.79252e-05
2.71467e-05
8.74342e-05
5.02199e-05
6.37484e-05
8.21266e-05
0.000105481
0.000121905
0.00018658
5.7996e-05
9.85706e-05
0.000144079
0.000181042
0.000207336
0.000268704
6.21822e-05
0.000122233
0.000199172
0.000244382
0.000280325
0.000342807
6.49878e-05
0.000150368
0.000251635
0.000302674
0.000345356
0.000408025
6.71051e-05
0.000181875
0.000303235
0.000358014
0.000403854
0.000457394
6.88266e-05
0.000215442
0.000352694
0.000410537
0.00045657
0.000497406
7.02714e-05
0.000249879
0.000398553
0.000460048
0.000503663
0.000531981
7.14955e-05
0.000283888
0.000439786
0.000506466
0.000544843
0.000563079
7.25338e-05
0.00031555
0.0004757
0.000548213
0.000581441
0.000591722
7.34113e-05
0.000342858
0.000506027
0.000584327
0.000615236
0.000619551
7.41511e-05
0.000363735
0.000530429
0.000615081
0.00064693
0.000649014
7.47773e-05
0.000376078
0.000548572
0.000641131
0.000677838
0.000682356
7.50421e-05
0.000381958
0.000560395
0.000662899
0.000708814
0.000720406
7.49719e-05
0.000381859
0.000565462
0.000679896
0.000739065
0.000762483
7.44679e-05
0.000375261
0.000562646
0.000690517
0.000766348
0.00080698
7.34893e-05
0.000360854
0.000550291
0.00069217
0.000786808
0.000849992
7.19555e-05
0.000338298
0.000525974
0.000681343
0.000794782
0.000883411
6.97393e-05
0.000305631
0.000488094
0.000653124
0.000783006
0.000896677
6.67095e-05
0.000261982
0.000434272
0.000603256
0.000742008
0.000876828
6.26924e-05
0.000205853
0.00036198
0.000525952
0.000662122
0.000809739
5.69988e-05
0.000138445
0.000269805
0.000415406
0.000529404
0.000669716
4.49225e-05
6.61956e-05
0.000158337
0.000269793
0.000353322
0.000389912
2.10371e-06
1.71096e-05
5.80311e-05
0.000112657
0.000174806
5.01679e-05
0.000442002
0.00103009
0.00147316
0.00165722
0.00178256
0.00194224
0.00219476
0.00255052
0.00298235
0.00344559
0.00388644
0.00428562
0.00462991
0.00490851
0.00511221
0.00523414
0.00527085
0.00522293
0.00509493
0.00489446
0.00463094
0.00431514
0.00396003
0.00358266
0.000422442
0.000938848
0.00135634
0.00156603
0.00170442
0.00186223
0.00209906
0.00243399
0.0028491
0.00330707
0.00375527
0.0041704
0.00453615
0.00483954
0.00506972
0.00521835
0.0052804
0.00525466
0.00514358
0.00495249
0.00468851
0.00436037
0.00398024
0.00357272
0.000419763
0.000861045
0.00126851
0.00148788
0.00163075
0.00178644
0.00200876
0.0023223
0.00271764
0.00316457
0.00361479
0.00404181
0.00442632
0.00475295
0.00500895
0.00518425
0.00527204
0.00526913
0.00517577
0.00499485
0.00473085
0.00438973
0.00398172
0.00354149
0.000429751
0.000823775
0.00119502
0.00141651
0.00156299
0.00171437
0.00192345
0.00221558
0.00258888
0.00301983
0.00346674
0.00390122
0.00430133
0.0046493
0.00493029
0.00513228
0.00524645
0.00526747
0.00519317
0.00502377
0.00476071
0.00440629
0.00396672
0.00348658
0.000446437
0.000797454
0.00112277
0.00135614
0.00150171
0.001647
0.00184168
0.00211318
0.00246297
0.00287408
0.00331271
0.00375008
0.00416236
0.00452959
0.0048348
0.00506385
0.00520574
0.00525274
0.00520003
0.00504477
0.00478482
0.00441759
0.00394233
0.00340908
0.000469482
0.000777605
0.00105702
0.00130498
0.00144619
0.0015846
0.00176418
0.00201354
0.00233907
0.00272796
0.00315395
0.00358973
0.00401063
0.00439502
0.00472397
0.00498128
0.00515369
0.00523092
0.00520525
0.00507036
0.0048196
0.00444365
0.00392995
0.0033202
0.000496233
0.000762244
0.0010027
0.00125978
0.00139567
0.00152669
0.00169113
0.00191789
0.00221732
0.00258189
0.00299136
0.00342118
0.00384704
0.00424643
0.00459902
0.00488693
0.00509499
0.00521083
0.00522421
0.0051258
0.00490504
0.00454693
0.00402528
0.00331582
0.000524833
0.000750664
0.000962449
0.00121594
0.00134668
0.00147205
0.00162226
0.00182653
0.00209873
0.0024367
0.00282582
0.00324516
0.0036719
0.00408371
0.00445972
0.00478129
0.00503257
0.00520074
0.0052758
0.00525046
0.00512276
0.00490847
0.00466974
0.00451203
0.000554346
0.000742461
0.000929934
0.00117014
0.00129989
0.00142001
0.00155715
0.00173957
0.00198402
0.00229327
0.00265823
0.00306223
0.00348505
0.00390565
0.00430381
0.00466143
0.00496362
0.00519951
0.00536267
0.00545137
0.00547044
0.00543669
0.00538482
0.00535587
0.000584887
0.000737645
0.000903697
0.0011269
0.00125568
0.0013703
0.00149537
0.00165697
0.00187369
0.00215253
0.00248966
0.00287319
0.00328644
0.00371084
0.00412797
0.00452128
0.00487746
0.0051872
0.00544525
0.00564973
0.00580169
0.00590599
0.00597249
0.00601197
0.000615934
0.000736548
0.000883562
0.00108645
0.00121377
0.00132273
0.00143654
0.00157866
0.00176821
0.00201551
0.00232155
0.00267942
0.00307679
0.0034986
0.0039293
0.00435458
0.00476241
0.0051431
0.00548843
0.00579048
0.00604159
0.00623573
0.00636614
0.00644859
0.000647157
0.00073974
0.000869687
0.00104936
0.00117429
0.00127715
0.00138041
0.00150453
0.00166798
0.00188337
0.00215574
0.00248305
0.0028578
0.00326931
0.00370575
0.00415557
0.00460763
0.00505033
0.00547002
0.00585061
0.0061757
0.00642374
0.00660825
0.00670843
0.000681149
0.000750721
0.000863366
0.00101644
0.00113759
0.00123359
0.00132683
0.00143447
0.00157341
0.00175734
0.0019944
0.00228692
0.00263232
0.00302478
0.00345685
0.00392018
0.00440471
0.00489655
0.00537631
0.00582031
0.00619564
0.00649529
0.00671674
0.00683102
0.000720128
0.000768447
0.000867244
0.00099275
0.00110512
0.0011927
0.00127606
0.00136857
0.00148489
0.00163864