/*--------------------------------*- C++ -*----------------------------------*\
  =========                 |
  \\      /  F ield         | OpenFOAM: The Open Source CFD Toolbox
   \\    /   O peration     | Website:  https://openfoam.org
    \\  /    A nd           | Version:  11
     \\/     M anipulation  |
\*---------------------------------------------------------------------------*/
FoamFile
{
    format      ascii;
    class       volScalarField;
    location    "1.42";
    object      p;
}
// * * * * * * * * * * * * * * * * * * * * * * * * * * * * * * * * * * * * * //

dimensions      [0 2 -2 0 0 0 0];

internalField   nonuniform List<scalar> 
2880
(
-0.219075
-0.208356
-0.198004
-0.184112
-0.178343
-0.153791
-0.219119
-0.209096
-0.200214
-0.188419
-0.18458
-0.168784
-0.219376
-0.21041
-0.2034
-0.193836
-0.192964
-0.18441
-0.22
-0.211966
-0.206598
-0.198894
-0.199109
-0.194666
-0.220878
-0.213628
-0.209567
-0.203251
-0.203283
-0.200286
-0.221909
-0.215491
-0.212465
-0.207151
-0.206536
-0.203666
-0.223295
-0.217584
-0.215442
-0.210874
-0.20949
-0.205981
-0.225055
-0.220085
-0.218638
-0.214663
-0.212356
-0.208161
-0.226908
-0.223097
-0.222094
-0.218593
-0.215474
-0.210387
-0.22879
-0.226397
-0.225768
-0.222756
-0.218994
-0.212945
-0.230726
-0.229759
-0.229598
-0.227219
-0.223031
-0.216081
-0.232657
-0.233029
-0.23353
-0.232027
-0.227692
-0.22003
-0.234541
-0.236118
-0.237516
-0.237215
-0.23308
-0.225049
-0.236333
-0.238954
-0.241514
-0.242812
-0.239285
-0.231384
-0.23799
-0.241463
-0.245483
-0.248831
-0.246374
-0.239295
-0.239468
-0.243567
-0.249382
-0.255268
-0.254385
-0.249084
-0.240773
-0.245322
-0.253174
-0.262086
-0.263306
-0.26111
-0.241997
-0.247226
-0.256824
-0.269221
-0.273
-0.275849
-0.243238
-0.249213
-0.260249
-0.27656
-0.283046
-0.294087
-0.244376
-0.250942
-0.263368
-0.283651
-0.292874
-0.316847
-0.24519
-0.25216
-0.265758
-0.289735
-0.302792
-0.343353
-0.245004
-0.2526
-0.266954
-0.293652
-0.31277
-0.369271
-0.243906
-0.25238
-0.266975
-0.294462
-0.320685
-0.395949
-0.243299
-0.252256
-0.266994
-0.294558
-0.325933
-0.418745
-0.317322
-0.270504
-0.246755
-0.217215
-0.190217
-0.166084
-0.144434
-0.125034
-0.10759
-0.0918144
-0.077534
-0.0646093
-0.0529315
-0.0424236
-0.0330301
-0.0247098
-0.0174224
-0.0110746
-0.00560294
-0.000980229
0.00279561
0.00597993
0.00827187
0.0112038
-0.270919
-0.247056
-0.22813
-0.203854
-0.180208
-0.158498
-0.138672
-0.120546
-0.10398
-0.08873
-0.0746797
-0.0617489
-0.0498941
-0.0391075
-0.0294048
-0.0208096
-0.0133516
-0.0070066
-0.00173866
0.00251579
0.00559335
0.00789889
0.00858658
0.00982865
-0.251314
-0.233673
-0.21727
-0.19585
-0.174409
-0.154453
-0.136065
-0.11907
-0.103258
-0.0884631
-0.0745826
-0.0615539
-0.0493721
-0.038089
-0.027795
-0.0186004
-0.0106181
-0.00391962
0.00143739
0.00546178
0.0080588
0.00967134
0.00933859
0.00854928
-0.236906
-0.22359
-0.209615
-0.190415
-0.170789
-0.152365
-0.135269
-0.119389
-0.104486
-0.0903711
-0.0768837
-0.0639907
-0.0517251
-0.0401829
-0.0295027
-0.0198484
-0.0113958
-0.00430592
0.00128227
0.00526906
0.0075878
0.00842821
0.00775917
0.00547293
-0.226232
-0.215177
-0.202662
-0.185258
-0.167203
-0.150092
-0.134204
-0.119424
-0.105572
-0.0924212
-0.0797657
-0.0675582
-0.0558278
-0.0446664
-0.034214
-0.0246402
-0.0161278
-0.0088672
-0.00305001
0.00112369
0.00345575
0.00380942
0.00190001
-0.00160472
-0.218638
-0.207898
-0.195673
-0.179315
-0.162325
-0.14611
-0.13107
-0.117162
-0.10422
-0.0920056
-0.080343
-0.0691434
-0.0583799
-0.0480846
-0.0383362
-0.0292629
-0.0210166
-0.0137533
-0.00765193
-0.00307046
-0.000395357
-0.000188508
-0.00342289
-0.00777012
-0.213228
-0.201607
-0.18872
-0.172515
-0.155869
-0.139959
-0.125241
-0.11175
-0.0993381
-0.0878275
-0.0770681
-0.0669275
-0.0573535
-0.0483249
-0.0398334
-0.0319535
-0.0247979
-0.0185238
-0.0133128
-0.00923391
-0.00655998
-0.00603356
-0.00806893
-0.00919889
-0.209085
-0.196469
-0.182041
-0.165195
-0.148163
-0.132024
-0.117199
-0.103782
-0.0917334
-0.0808795
-0.0710474
-0.0621727
-0.054219
-0.047062
-0.0406297
-0.0349213
-0.0298784
-0.0254054
-0.0213655
-0.0175919
-0.0138406
-0.00950341
-0.00443912
0.00114781
-0.206393
-0.192144
-0.175775
-0.157681
-0.139719
-0.122862
-0.107512
-0.093796
-0.081677
-0.0710677
-0.0618637
-0.0539401
-0.0471521
-0.0414588
-0.0368092
-0.0329779
-0.0296936
-0.02661
-0.0233077
-0.0193058
-0.0140906
-0.00700384
0.00320594
0.0123734
-0.205014
-0.188642
-0.169969
-0.15009
-0.130631
-0.112494
-0.0961178
-0.0816544
-0.0691236
-0.0585087
-0.0497323
-0.0427049
-0.0373257
-0.0334875
-0.030997
-0.0295489
-0.028747
-0.0281063
-0.0270553
-0.0249598
-0.0211562
-0.0150984
-0.00476697
0.00639324
-0.204806
-0.186009
-0.164622
-0.142502
-0.121146
-0.101476
-0.0839353
-0.0687103
-0.0558741
-0.0454094
-0.0372729
-0.0313898
-0.0276462
-0.0258713
-0.0258132
-0.0270951
-0.0291997
-0.0314871
-0.0331905
-0.0334597
-0.0312972
-0.0251867
-0.0145752
-0.000763014
-0.205715
-0.184222
-0.159724
-0.134986
-0.111414
-0.0900266
-0.0712498
-0.0552882
-0.0422149
-0.0320198
-0.0246484
-0.0199983
-0.0179064
-0.0181141
-0.0202674
-0.0238898
-0.0283561
-0.0329214
-0.0366508
-0.0383983
-0.0369838
-0.0310242
-0.01961
-0.0025733
-0.207731
-0.183231
-0.155257
-0.127617
-0.101595
-0.0784215
-0.058418
-0.0417846
-0.0285773
-0.0187473
-0.01217
-0.00869032
-0.00807946
-0.00999143
-0.0139656
-0.0194115
-0.0255856
-0.0315534
-0.036223
-0.0383826
-0.036851
-0.030221
-0.0181358
0.00103211
-0.210849
-0.183007
-0.151191
-0.120391
-0.0919632
-0.0669847
-0.0458405
-0.0286512
-0.0153967
-0.00601596
-0.000326928
0.00195431
0.00123364
-0.00198502
-0.00713358
-0.0134967
-0.0202069
-0.0262965
-0.0307863
-0.0325724
-0.0308306
-0.024034
-0.0127488
0.00678744
-0.215057
-0.183488
-0.14747
-0.113434
-0.0826277
-0.0560187
-0.0339273
-0.0164818
-0.0035368
0.00517818
0.00999615
0.011392
0.00989336
0.0060708
0.000582043
-0.00578017
-0.0121749
-0.0177921
-0.0219135
-0.0232362
-0.0217412
-0.0161718
-0.0078792
0.00973894
-0.220292
-0.184524
-0.143949
-0.106719
-0.0737367
-0.0459155
-0.0234184
-0.00603887
0.00650872
0.0146781
0.0189363
0.0198211
0.0179386
0.0139913
0.00878016
0.00302747
-0.00232116
-0.00672421
-0.0103021
-0.0111955
-0.00723128
0.000890299
0.00863159
0.0185386
-0.22636
-0.185782
-0.140411
-0.100187
-0.0655759
-0.0370282
-0.0143716
0.00280176
0.0149168
0.0225029
0.0262409
0.0268615
0.0251285
0.021714
0.0175376
0.0127433
0.00840323
0.00636125
0.00767089
0.0103253
0.0129488
0.0167395
0.0196006
0.0247038
-0.232814
-0.186787
-0.136503
-0.0937693
-0.0580256
-0.0291206
-0.0066606
0.00992486
0.0214093
0.0285451
0.0321335
0.033001
0.0319516
0.0293387
0.0264437
0.0251776
0.0248888
0.024757
0.0251673
0.0263141
0.0262197
0.0253179
0.0257136
0.0322
-0.238734
-0.186921
-0.131776
-0.0870868
-0.0508088
-0.0221948
-0.00039067
0.0155236
0.0264849
0.0333957
0.0370842
0.0384551
0.0385452
0.0389916
0.0394303
0.0393563
0.0393695
0.0394372
0.0384918
0.0371136
0.0364618
0.0365614
0.037581
0.0396805
-0.242554
-0.185276
-0.125925
-0.079876
-0.0438622
-0.0160078
0.00491332
0.0201592
0.0308337
0.0378523
0.0422176
0.0453225
0.0479887
0.0497313
0.0509386
0.0515929
0.0511863
0.0504619
0.0501096
0.0497635
0.0491129
0.0485044
0.0497223
0.0470663
-0.24259
-0.180715
-0.118593
-0.0720405
-0.0368969
-0.0101687
0.00990955
0.0247932
0.035559
0.0432386
0.0492633
0.0541756
0.0577753
0.0603384
0.0614681
0.0619336
0.0625542
0.0629092
0.062833
0.0621344
0.0608625
0.0601174
0.0626872
0.0586753
-0.24033
-0.170632
-0.108786
-0.063318
-0.0294821
-0.00391137
0.0156139
0.0304672
0.0417301
0.0506707
0.0578933
0.0637201
0.0675443
0.0699023
0.0720064
0.073668
0.0747669
0.0752575
0.0750987
0.0742735
0.0730633
0.0733439
0.0789508
0.073865
-0.232243
-0.149527
-0.0945068
-0.0528724
-0.0208939
0.00369053
0.0228833
0.0379047
0.0499414
0.0597234
0.0674992
0.0729461
0.0771813
0.0807674
0.0834464
0.0854514
0.0867875
0.0874548
0.0874882
0.0869841
0.0863025
0.0878536
0.0961316
0.0892644
-0.201756
-0.116127
-0.0749706
-0.0397515
-0.010299
0.0133165
0.0321837
0.0473869
0.0597334
0.0696309
0.0772634
0.0832503
0.0881566
0.0920882
0.0951327
0.0974153
0.0990083
0.0999509
0.100307
0.100143
0.0998471
0.10236
0.112695
0.10397
0.104635
0.104633
0.130129
0.186654
0.244776
0.25648
0.109595
0.105386
0.124987
0.163367
0.183632
0.195116
0.115334
0.10658
0.120326
0.145668
0.15455
0.141986
0.110594
0.106218
0.114592
0.131506
0.135215
0.114566
0.104607
0.104211
0.108501
0.120365
0.122274
0.103922
0.101272
0.101419
0.102914
0.112042
0.114143
0.10099
0.0982461
0.0984159
0.0981496
0.106015
0.109309
0.101616
0.0947439
0.0954232
0.0941916
0.101669
0.106658
0.104098
0.0910085
0.092546
0.0909238
0.0985345
0.10549
0.107632
0.0874234
0.0898591
0.0882147
0.096249
0.105312
0.111807
0.0842548
0.08742
0.0859298
0.0944968
0.105778
0.116458
0.0816822
0.0852819
0.0839275
0.0929885
0.106648
0.12151
0.0798061
0.0835072
0.0820878
0.0914697
0.107708
0.12662
0.0786362
0.0820962
0.0804431
0.0897159
0.10871
0.131386
0.0781684
0.0812306
0.0787997
0.0875027
0.109433
0.135448
0.0784374
0.0809257
0.0771053
0.0846096
0.109628
0.138429
0.0794709
0.0812225
0.0752977
0.0808333
0.108981
0.139794
0.080944
0.0821483
0.0733153
0.0759278
0.107124
0.138715
0.0797212
0.0831837
0.0709632
0.0696335
0.103642
0.13389
0.0742798
0.0831158
0.0680869
0.0618582
0.0981506
0.123267
0.0714915
0.0825838
0.0648732
0.0529787
0.0908256
0.103326
0.0768189
0.0828616
0.0617385
0.043565
0.0838262
0.0665405
0.0861437
0.0839298
0.0592347
0.0347111
0.0812462
-0.0105646
0.0907438
0.0843373
0.0567325
0.0258972
0.0562983
-0.193803
-0.111024
-0.0862595
-0.0538276
-0.0240254
0.0027139
0.0251878
0.0435609
0.0585757
0.0707565
0.0805481
0.0884307
0.0947762
0.0998944
0.104009
0.107266
0.109768
0.111579
0.112755
0.113397
0.113565
0.113683
0.117142
0.129278
0.11881
-0.0562913
-0.0587513
-0.032553
-0.006336
0.0180507
0.0392155
0.0568529
0.0713665
0.0832476
0.0929071
0.100741
0.107111
0.1123
0.116514
0.1199
0.122566
0.124595
0.126064
0.127065
0.127592
0.128035
0.13216
0.145581
0.133609
-0.0221167
-0.0300118
-0.00972887
0.0131566
0.0353309
0.0550662
0.0717703
0.085624
0.0970117
0.106335
0.113962
0.120211
0.125343
0.129563
0.133023
0.135834
0.138073
0.139812
0.141103
0.141872
0.142505
0.14705
0.161348
0.148366
0.00800909
-0.00149456
0.0137111
0.0337216
0.0539411
0.0722622
0.0879339
0.101
0.111783
0.120647
0.127934
0.133946
0.138932
0.143089
0.146564
0.149461
0.151857
0.153815
0.155343
0.156287
0.157024
0.161792
0.176646
0.16335
0.0345322
0.0249415
0.036854
0.0547347
0.0733495
0.0903754
0.105009
0.117235
0.127336
0.135655
0.142521
0.14822
0.152989
0.157016
0.160441
0.163368
0.16587
0.167999
0.169717
0.170784
0.171543
0.176336
0.191436
0.17879
0.0567435
0.0486826
0.05914
0.0757325
0.0931504
0.109069
0.122726
0.134114
0.143505
0.151237
0.157629
0.162957
0.167448
0.171278
0.174585
0.177469
0.180003
0.182234
0.184093
0.185274
0.186037
0.190657
0.205604
0.195018
0.0748671
0.0698127
0.0803705
0.0964537
0.113088
0.128118
0.140902
0.151488
0.160171
0.167298
0.173185
0.178098
0.182251
0.185813
0.188918
0.191667
0.19414
0.196386
0.198344
0.199702
0.200605
0.204853
0.218887
0.212932
0.0897346
0.0887318
0.100565
0.1168
0.133035
0.1474
0.159428
0.169265
0.177262
0.183782
0.189146
0.193608
0.19737
0.200591
0.203398
0.205893
0.208161
0.210269
0.212214
0.213798
0.214957
0.217846
0.227398
0.236285
0.102252
0.105918
0.119865
0.136793
0.152969
0.166872
0.178257
0.187405
0.194742
0.200667
0.2055
0.209488
0.212817
0.215635
0.218054
0.220163
0.222035
0.223743
0.225353
0.226871
0.228383
0.229715
0.216213
0.268631
0.113181
0.121813
0.138479
0.15654
0.172945
0.186558
0.197393
0.205901
0.212608
0.217952
0.222258
0.225764
0.228645
0.231033
0.233026
0.234692
0.236084
0.237254
0.2382
0.238577
0.237737
0.237554
0.247621
0.266196
0.123071
0.136775
0.156643
0.176207
0.193082
0.206529
0.216879
0.224778
0.230876
0.235653
0.239441
0.24247
0.244908
0.246878
0.248468
0.249733
0.250717
0.251465
0.251909
0.251572
0.250195
0.251927
0.267034
0.273094
0.132303
0.151089
0.174635
0.19601
0.21355
0.226888
0.236778
0.244084
0.249578
0.253793
0.257067
0.259628
0.261637
0.263214
0.26444
0.26537
0.266043
0.266502
0.266649
0.265988
0.264534
0.26718
0.283467
0.284572
0.141221
0.165074
0.192822
0.216285
0.234473
0.24776
0.257185
0.263879
0.268752
0.272395
0.275149
0.277239
0.278826
0.280028
0.280925
0.281563
0.281984
0.282222
0.282165
0.28131
0.279794
0.282768
0.299323
0.298202
0.14994
0.179167
0.211624
0.237275
0.256136
0.269309
0.278211
0.284237
0.288442
0.291476
0.293685
0.295289
0.296448
0.29728
0.297861
0.298234
0.298433
0.298486
0.298267
0.297268
0.295687
0.298756
0.315153
0.312896
0.158503
0.193837
0.231439
0.259288
0.278764
0.291712
0.299975
0.30523
0.308685
0.311047
0.312663
0.313745
0.314454
0.314905
0.315168
0.31528
0.315266
0.315144
0.314776
0.313652
0.312018
0.315065
0.331017
0.3282
0.167038
0.209606
0.252603
0.282658
0.302611
0.315149
0.322592
0.326926
0.329509
0.331105
0.332055
0.332562
0.332781
0.332824
0.332755
0.332598
0.332366
0.332069
0.331556
0.330326
0.328657
0.331609
0.346888
0.343844
0.175744
0.227101
0.275554
0.307794
0.327957
0.339803
0.346171
0.349376
0.350925
0.35163
0.351819
0.351677
0.351352
0.350948
0.350519
0.350075
0.349615
0.349134
0.348476
0.347155
0.345473
0.348282
0.362702
0.359644
0.184991
0.247026
0.300968
0.335203
0.355102
0.365843
0.370796
0.372607
0.372919
0.372578
0.37189
0.371011
0.370075
0.369176
0.368352
0.367597
0.366893
0.366219
0.365413
0.364015
0.362342
0.364967
0.37838
0.37545
0.19547
0.270491
0.329675
0.365366
0.38434
0.39341
0.396518
0.396611
0.395445
0.39388
0.392181
0.390463
0.388842
0.387393
0.386135
0.385043
0.384077
0.383199
0.382243
0.38078
0.379133
0.38154
0.393827
0.391117
0.207935
0.298864
0.362459
0.398785
0.415937
0.422596
0.423329
0.421328
0.418414
0.415429
0.412575
0.409912
0.407526
0.40547
0.40374
0.402284
0.401038
0.399945
0.398838
0.397319
0.39571
0.397868
0.408938
0.406503
0.221875
0.333758
0.400371
0.436004
0.450076
0.453409
0.451138
0.446631
0.441684
0.437076
0.432921
0.429208
0.425981
0.423265
0.421025
0.41918
0.417638
0.416321
0.415058
0.41349
0.411928
0.41381
0.423599
0.421464
0.236366
0.379715
0.445334
0.477556
0.486784
0.485701
0.479737
0.472298
0.465044
0.458624
0.453034
0.448174
0.444039
0.440614
0.437833
0.435579
0.433728
0.432177
0.430756
0.429143
0.42763
0.429225
0.437703
0.435861
0.265786
0.448798
0.50006
0.523611
0.525731
0.519072
0.508758
0.498
0.488208
0.479822
0.472689
0.466607
0.46151
0.457341
0.453996
0.451317
0.449147
0.447356
0.445772
0.444116
0.442666
0.443997
0.451178
0.44948
0.37568
0.55047
0.56469
0.573052
0.565946
0.552777
0.53764
0.523301
0.510819
0.500372
0.491629
0.484278
0.478188
0.473256
0.469331
0.466219
0.463722
0.461682
0.459926
0.45822
0.456844
0.45796
0.463806
0.46186
1.10871
1.10218
1.11575
1.15126
1.17597
1.37991
1.11074
1.10501
1.11528
1.1392
1.15026
1.27079
1.11231
1.10907
1.11582
1.132
1.1283
1.17918
1.11253
1.11112
1.115
1.12476
1.11126
1.11774
1.11188
1.11103
1.11246
1.11634
1.09767
1.08291
1.11069
1.10976
1.10892
1.10774
1.08645
1.063
1.10904
1.108
1.10494
1.0997
1.07695
1.05001
1.10702
1.10611
1.10087
1.09241
1.06867
1.04035
1.10481
1.10428
1.09692
1.08581
1.06124
1.03238
1.10263
1.10267
1.09325
1.07982
1.05432
1.02504
1.10065
1.1014
1.08999
1.07435
1.04765
1.01762
1.09905
1.1006
1.08723
1.06939
1.04105
1.00961
1.09791
1.10028
1.08502
1.06495
1.03435
1.00061
1.0973
1.10047
1.08339
1.06104
1.02743
0.990328
1.09718
1.1011
1.08232
1.05768
1.02028
0.978577
1.09749
1.10205
1.08177
1.05492
1.01298
0.965299
1.0981
1.1031
1.08164
1.05286
1.00573
0.950516
1.09885
1.10401
1.08182
1.05169
0.998845
0.933698
1.09955
1.10456
1.08228
1.05176
0.992959
0.915899
1.10006
1.10473
1.08329
1.05382
0.988959
0.898053
1.10031
1.10502
1.08571
1.05926
0.988258
0.882402
1.10059
1.10651
1.0908
1.06939
0.993664
0.876128
1.10146
1.1096
1.09796
1.08158
1.01
0.896604
1.10266
1.11202
1.10195
1.0859
1.04343
0.955872
0.631861
0.652947
0.631606
0.62298
0.605763
0.585736
0.56565
0.547668
0.532466
0.519941
0.509575
0.500946
0.493858
0.488157
0.483652
0.480102
0.477269
0.474968
0.473023
0.471242
0.469895
0.470733
0.475257
0.473231
0.755698
0.736368
0.692796
0.669514
0.643156
0.61674
0.591991
0.570536
0.552721
0.538184
0.526239
0.516364
0.508301
0.501849
0.496772
0.492789
0.48962
0.48705
0.484904
0.483026
0.481643
0.482105
0.485397
0.483649
0.837453
0.799138
0.743744
0.71003
0.676534
0.644764
0.615952
0.591381
0.571176
0.554773
0.541346
0.530296
0.521308
0.51414
0.508518
0.504118
0.500623
0.49779
0.495447
0.493466
0.492016
0.492066
0.494301
0.493081
0.889602
0.843219
0.783928
0.743704
0.705122
0.669165
0.637006
0.609772
0.587476
0.569409
0.554641
0.542519
0.532683
0.524853
0.518723
0.513933
0.510132
0.507054
0.504529
0.502453
0.500943
0.500648
0.501994
0.501158
0.923381
0.873971
0.814799
0.770735
0.728711
0.689632
0.654824
0.625401
0.601346
0.581851
0.565911
0.552841
0.542249
0.533825
0.527234
0.522087
0.518006
0.514704
0.512011
0.509845
0.508277
0.507696
0.508318
0.507795
0.945194
0.895456
0.8379
0.791673
0.747409
0.706093
0.669274
0.638121
0.612634
0.591948
0.575011
0.561123
0.549869
0.540919
0.533916
0.528449
0.524116
0.520613
0.517771
0.51552
0.513894
0.513085
0.513161
0.512879
0.959106
0.910138
0.854499
0.807121
0.761479
0.718648
0.680371
0.647898
0.621279
0.599621
0.581852
0.56727
0.555445
0.546034
0.538664
0.53291
0.528353
0.524675
0.521702
0.51937
0.517687
0.516712
0.516428
0.516316
0.967318
0.919396
0.865544
0.817633
0.771235
0.72744
0.688139
0.654678
0.627181
0.604752
0.58631
0.571159
0.558861
0.549059
0.541374
0.535371
0.530621
0.526794
0.523712
0.521307
0.519569
0.518493
0.518041
0.518028
0.971002
0.924066
0.871725
0.823646
0.776898
0.732519
0.692516
0.658339
0.630186
0.607176
0.588228
0.572648
0.559986
0.549879
0.54194
0.535735
0.53083
0.526888
0.523718
0.521243
0.519447
0.518354
0.517963
0.517936
0.970853
0.924644
0.873479
0.825405
0.778547
0.733863
0.693439
0.658798
0.630207
0.606808
0.587523
0.571656
0.558748
0.548425
0.540301
0.533945
0.528925
0.524902
0.521671
0.519136
0.517287
0.516242
0.516105
0.516004
0.967247
0.921359
0.871006
0.822999
0.776208
0.731482
0.690908
0.656047
0.627228
0.603625
0.584168
0.568153
0.555112
0.544663
0.536422
0.529966
0.524873
0.520803
0.517536
0.514952
0.513054
0.512127
0.512439
0.512182
0.960285
0.914222
0.864307
0.816417
0.769875
0.725366
0.684903
0.650059
0.621215
0.597587
0.578119
0.562097
0.54904
0.53856
0.530277
0.523779
0.518658
0.514577
0.511303
0.508681
0.50674
0.505995
0.506941
0.506452
0.949811
0.903031
0.8532
0.805516
0.759424
0.71541
0.675334
0.640756
0.612099
0.588638
0.569332
0.553452
0.540505
0.530099
0.521857
0.515383
0.510285
0.506234
0.50298
0.500336
0.498359
0.497856
0.499605
0.498813
0.935417
0.887342
0.837316
0.789999
0.744621
0.701427
0.66206
0.628033
0.599805
0.576722
0.557766
0.542193
0.529495
0.519279
0.511173
0.504796
0.499778
0.495801
0.492603
0.489955
0.487954
0.487745
0.490444
0.489286
0.916402
0.866437
0.816079
0.769413
0.725127
0.683168
0.644901
0.611766
0.584252
0.561789
0.543395
0.528309
0.516014
0.506115
0.498249
0.492054
0.487182
0.48333
0.480225
0.477598
0.475589
0.475729
0.479511
0.477913
0.891655
0.839283
0.788658
0.743137
0.700497
0.660319
0.623643
0.591817
0.565358
0.543796
0.526204
0.511806
0.500083
0.490641
0.483132
0.477213
0.47256
0.468891
0.465923
0.463349
0.461354
0.461883
0.466864
0.464789
0.859568
0.804473
0.753931
0.710363
0.670181
0.632509
0.598045
0.568039
0.543046
0.522716
0.506195
0.492711
0.481745
0.472915
0.465889
0.460347
0.455994
0.452567
0.449783
0.447293
0.445315
0.446212
0.452473
0.450099
0.818292
0.760142
0.710451
0.670109
0.633545
0.599332
0.567857
0.540293
0.51726
0.498545
0.483402
0.471078
0.461073
0.453021
0.446612
0.441557
0.437587
0.434467
0.431913
0.429539
0.427581
0.428815
0.436379
0.433829
0.764338
0.70359
0.656409
0.62124
0.589905
0.560386
0.532854
0.508472
0.487974
0.471316
0.45789
0.446999
0.438172
0.431076
0.425429
0.420975
0.417479
0.414734
0.412464
0.410247
0.40833
0.409888
0.418744
0.416082
0.694191
0.630966
0.589634
0.562539
0.538599
0.515327
0.49288
0.472535
0.455225
0.441117
0.429775
0.420607
0.413192
0.407237
0.402502
0.398769
0.395841
0.393544
0.391617
0.389609
0.387772
0.389651
0.399747
0.397012
0.602233
0.538302
0.507774
0.492857
0.479099
0.463952
0.447905
0.432555
0.419138
0.408103
0.399236
0.392093
0.386328
0.381705
0.378034
0.375143
0.37288
0.371107
0.369583
0.367841
0.366135
0.368341
0.379591
0.376803
0.476868
0.419785
0.408351
0.411382
0.411163
0.406304
0.398097
0.388752
0.379961
0.37253
0.366531
0.361714
0.357833
0.354728
0.35227
0.350341
0.348838
0.347664
0.346606
0.345191
0.343676
0.346216
0.358504
0.355686
0.27892
0.267054
0.289309
0.317973
0.33501
0.342794
0.343896
0.341542
0.338077
0.334759
0.332002
0.329792
0.328015
0.3266
0.325496
0.324643
0.32399
0.323488
0.322957
0.321929
0.320669
0.323551
0.336733
0.333925
-0.0389449
0.0848662
0.154324
0.212083
0.251628
0.274385
0.286094
0.291579
0.294036
0.295266
0.296076
0.296716
0.297231
0.297662
0.298036
0.298362
0.298644
0.298882
0.298933
0.298352
0.29741
0.300631
0.314541
0.311814
-0.840667
-0.896831
-0.991482
-1.02522
-1.03787
-1.10078
-0.853122
-0.909398
-0.999286
-1.03706
-1.03695
-1.06361
-0.865065
-0.922451
-1.01048
-1.05228
-1.04384
-1.05365
-0.877872
-0.936418
-1.02521
-1.06989
-1.05975
-1.06254
-0.893164
-0.951662
-1.04185
-1.08846
-1.08214
-1.0806
-0.909722
-0.967501
-1.05838
-1.10692
-1.10695
-1.10366
-0.925523
-0.98337
-1.07364
-1.12388
-1.13011
-1.12683
-0.939492
-0.998429
-1.08652
-1.13812
-1.14948
-1.14562
-0.951217
-1.01096
-1.09641
-1.14871
-1.16371
-1.15818
-0.959893
-1.02013
-1.10291
-1.155
-1.17185
-1.16348
-0.964903
-1.02548
-1.10574
-1.15652
-1.17328
-1.16078
-0.965826
-1.02681
-1.10478
-1.15308
-1.16775
-1.14981
-0.962505
-1.02414
-1.09996
-1.14473
-1.15537
-1.13081
-0.954989
-1.01805
-1.09151
-1.13182
-1.137
-1.10427
-0.943836
-1.00894
-1.07977
-1.11488
-1.11323
-1.07122
-0.929897
-0.997276
-1.06522
-1.0947
-1.08533
-1.03357
-0.914225
-0.98374
-1.04846
-1.0722
-1.05485
-0.993255
-0.897963
-0.969169
-1.03021
-1.04839
-1.0235
-0.95258
-0.882235
-0.95457
-1.01128
-1.02426
-0.99312
-0.914305
-0.868144
-0.941113
-0.992692
-1.00081
-0.965524
-0.881453
-0.856838
-0.930481
-0.976042
-0.979054
-0.941672
-0.855881
-0.849882
-0.924044
-0.96342
-0.959536
-0.920108
-0.836266
-0.849272
-0.920018
-0.953972
-0.937338
-0.897686
-0.824893
-0.853652
-0.91099
-0.929105
-0.905505
-0.881591
-0.852422
-0.516386
-0.130488
0.00400214
0.0998725
0.163905
0.202806
0.225913
0.239776
0.248554
0.254641
0.259257
0.26293
0.265886
0.268286
0.270244
0.271839
0.273132
0.27417
0.274857
0.274775
0.274207
0.277755
0.292206
0.289671
-0.711338
-0.340267
-0.144303
-0.0107898
0.0759289
0.130445
0.16494
0.187258
0.202481
0.213561
0.222107
0.228921
0.234414
0.23887
0.242494
0.245432
0.247801
0.249696
0.251066
0.251534
0.251387
0.255229
0.270016
0.267842
-0.799241
-0.496463
-0.271951
-0.113183
-0.00840388
0.0597505
0.104863
0.135202
0.156712
0.172738
0.185214
0.195187
0.203254
0.209816
0.215163
0.219505
0.223009
0.225814
0.227913
0.228976
0.229287
0.233368
0.248262
0.246704
-0.869536
-0.610763
-0.377102
-0.204453
-0.0868735
-0.00713298
0.0472298
0.0846262
0.112096
0.132864
0.149143
0.16221
0.172827
0.181506
0.18861
0.194406
0.199105
0.20288
0.205764
0.207473
0.208271
0.212494
0.227224
0.226693
-0.933138
-0.699134
-0.464241
-0.284466
-0.158118
-0.0692176
-0.00650964
0.0361362
0.0693835
0.0945654
0.114409
0.13042
0.143505
0.154271
0.163147
0.170444
0.176407
0.181234
0.18499
0.187431
0.188759
0.19296
0.207119
0.208349
-0.985078
-0.768456
-0.536702
-0.353684
-0.22159
-0.125766
-0.0572193
-0.00787953
0.0294883
0.0583962
0.0814411
0.100165
0.115577
0.128361
0.138998
0.14784
0.155155
0.161158
0.165944
0.169311
0.171322
0.175251
0.188003
0.192465
-1.02439
-0.821765
-0.595863
-0.41261
-0.276783
-0.175864
-0.102628
-0.048596
-0.00746601
0.024715
0.0505478
0.0716884
0.0892269
0.103906
0.116253
0.126657
0.135416
0.142772
0.148869
0.153607
0.156887
0.160691
0.170798
0.181075
-1.05286
-0.861226
-0.642616
-0.461357
-0.323045
-0.219406
-0.142686
-0.0852323
-0.041074
-0.0062244
0.0219426
0.0451489
0.0645419
0.0809122
0.0948293
0.106721
0.116922
0.125711
0.133284
0.139624
0.144648
0.149936
0.159925
0.165658
-1.0712
-0.888149
-0.677559
-0.499695
-0.360626
-0.256334
-0.177195
-0.117397
-0.0710408
-0.0341781
-0.00419299
0.0206567
0.0415493
0.0593036
0.0745104
0.0876115
0.0989482
0.108782
0.117243
0.124204
0.129712
0.136164
0.147313
0.140402
-1.07921
-0.903126
-0.700997
-0.527719
-0.390267
-0.286093
-0.205992
-0.144913
-0.0971726
-0.0589606
-0.0277102
-0.0016864
0.0202942
0.0390542
0.0551799
0.0690975
0.0811216
0.0914728
0.10022
0.1072
0.112618
0.119291
0.130425
0.119727
-1.07664
-0.906434
-0.713126
-0.545831
-0.411949
-0.308353
-0.229184
-0.167724
-0.119345
-0.0804362
-0.0484768
-0.0217572
0.000891113
0.0202781
0.0369732
0.0513801
0.0637875
0.0743941
0.0832663
0.0902855
0.0957775
0.102617
0.113654
0.102871
-1.06347
-0.898351
-0.714242
-0.554336
-0.425513
-0.323739
-0.246637
-0.185713
-0.13747
-0.0985038
-0.066374
-0.0394211
-0.0165082
0.00315241
0.0201101
0.0347487
0.0473409
0.0580816
0.0670604
0.074228
0.0799951
0.0871067
0.0980988
0.088374
-1.0401
-0.879359
-0.704785
-0.553298
-0.430961
-0.333232
-0.258101
-0.198844
-0.151532
-0.113109
-0.0813104
-0.0545547
-0.0317493
-0.0121346
0.00481833
0.0194784
0.03211
0.0429114
0.0519993
0.0593906
0.0655309
0.0729565
0.0839868
0.0758454
-1.00739
-0.850205
-0.685458
-0.543353
-0.428507
-0.336659
-0.264148
-0.207332
-0.161606
-0.12426
-0.0932397
-0.0670656
-0.0446983
-0.0254111
-0.0086948
0.00580853
0.0183585
0.029156
0.0383396
0.045979
0.0525086
0.0602525
0.0714006
0.0651148
-0.966977
-0.812231
-0.657192
-0.52532
-0.41884
-0.333651
-0.265337
-0.211409
-0.167814
-0.132017
-0.102167
-0.076906
-0.0552607
-0.0365428
-0.0202639
-0.00607569
0.00627726
0.0169956
0.0262313
0.0340846
0.0409666
0.0490032
0.060317
0.0560133
-0.920217
-0.767478
-0.621514
-0.500268
-0.402858
-0.324766
-0.261808
-0.211394
-0.170375
-0.136516
-0.108162
-0.0840861
-0.063395
-0.0454465
-0.0297761
-0.0160465
-0.004007
0.00653998
0.0157516
0.0237373
0.0308891
0.0391596
0.0506466
0.0483502
-0.868645
-0.71802
-0.580558
-0.469739
-0.381711
-0.311087
-0.253911
-0.207566
-0.169543
-0.13795
-0.111354
-0.0886767
-0.0691194
-0.0520962
-0.0371733
-0.024028
-0.0124167
-0.00214726
0.0069354
0.0149412
0.0222415
0.0306359
0.0422317
0.0418887
-0.813693
-0.665487
-0.536433
-0.435634
-0.356805
-0.293701
-0.242415
-0.20044
-0.165696
-0.136602
-0.111949
-0.0908188
-0.0725191
-0.0565295
-0.042455
-0.0299936
-0.0189123
-0.0090266
-0.00018939
0.00771317
0.0150165
0.0233683
0.0349007
0.0363644
-0.757243
-0.61075
-0.490705
-0.399722
-0.329654
-0.273796
-0.228269
-0.190708
-0.159342
-0.13285
-0.110232
-0.0907264
-0.0737485
-0.05885
-0.045682
-0.0339698
-0.0234963
-0.0140894
-0.00561337
0.00204619
0.00918051
0.0172645
0.0284612
0.0315247
-0.700929
-0.554594
-0.444465
-0.363384
-0.301685
-0.252624
-0.212512
-0.179174
-0.151092
-0.127164
-0.106569
-0.0886848
-0.073029
-0.0592262
-0.0469771
-0.0360398
-0.0262186
-0.0173607
-0.00934453
-0.00206145
0.00473867
0.0123012
0.0227602
0.0271053
-0.646315
-0.49782
-0.398745
-0.327741
-0.27413
-0.231376
-0.196194
-0.166707
-0.141647
-0.120103
-0.101406
-0.0850506
-0.0706476
-0.057888
-0.0465217
-0.036341
-0.0271732
-0.0188928
-0.0114025
-0.00458229
0.00176413
0.00858593
0.0178265
0.0229449
-0.59547
-0.441308
-0.354871
-0.294044
-0.248133
-0.211138
-0.180314
-0.154188
-0.131759
-0.112295
-0.0952606
-0.0802512
-0.066956
-0.0551262
-0.0445558
-0.0350636
-0.0265156
-0.0188521
-0.0119522
-0.00562628
0.000234388
0.00620363
0.0137744
0.0189735
-0.549117
-0.385147
-0.314011
-0.263545
-0.224875
-0.192952
-0.165827
-0.142497
-0.12222
-0.104436
-0.0887299
-0.0747902
-0.0623762
-0.0512969
-0.0413969
-0.0325421
-0.0246087
-0.0174727
-0.0110679
-0.00534093
-5.96442e-05
0.00513591
0.010897
0.0153746
-0.498136
-0.327351
-0.277073
-0.237456
-0.205282
-0.177709
-0.153645
-0.132527
-0.113881
-0.0973145
-0.0825284
-0.0692959
-0.0574429
-0.0468346
-0.0373631
-0.0289435
-0.0214687
-0.0148153
-0.00890877
-0.00371601
0.000741595
0.00482371
0.00887982
0.0129728
)
;

boundaryField
{
    rotor
    {
        type            zeroGradient;
    }
    freestream
    {
        type            freestreamPressure;
        freestreamValue uniform 0;
        supersonic      false;
        value           nonuniform List<scalar> 
96
(
0.000696403
0.000463188
0.000313579
0.000174632
-4.8241e-05
-0.000213141
-0.000183528
8.57962e-06
1.12304e-06
6.67865e-05
-1.92754e-05
-9.36103e-05
4.57915e-05
0.00035514
0.000600546
0.00134291
0.00210372
0.00318927
0.004567
0.00627053
0.00901131
0.0129886
0.0178253
0.0234208
0.0300082
0.0376005
0.0462376
0.0560373
0.0671216
0.0796734
0.0941662
0.112568
0.137113
0.14482
0.158008
0.174383
0.192724
0.212416
0.233151
0.254698
0.276851
0.299406
0.322145
0.344833
0.367223
0.389056
0.409998
0.429476
0.447543
0.464116
0.479038
0.491835
0.502314
0.510273
0.515547
0.51801
0.517563
0.514176
0.507832
0.498576
0.486498
0.471735
0.454467
0.434947
0.413523
0.390373
0.36579
0.340123
0.31374
0.287039
0.260426
0.234305
0.209061
0.185053
0.162614
0.142049
0.123655
0.107794
0.0954058
0.0820481
0.0651008
0.0517383
0.0412364
0.0327054
0.0257872
0.0202341
0.0158205
0.0123386
0.00959573
0.00742424
0.00568959
0.00428334
0.00313806
0.00221264
0.00149854
0.00102894
)
;
    }
    frontAndBack
    {
        type            empty;
    }
}


// ************************************************************************* //
