/*--------------------------------*- C++ -*----------------------------------*\
  =========                 |
  \\      /  F ield         | OpenFOAM: The Open Source CFD Toolbox
   \\    /   O peration     | Website:  https://openfoam.org
    \\  /    A nd           | Version:  11
     \\/     M anipulation  |
\*---------------------------------------------------------------------------*/
FoamFile
{
    format      ascii;
    class       surfaceScalarField;
    location    "1.42";
    object      phi;
}
// * * * * * * * * * * * * * * * * * * * * * * * * * * * * * * * * * * * * * //

dimensions      [0 3 -1 0 0 0 0];

internalField   nonuniform List<scalar> 
5640
(
-5.366e-08
5.366e-08
-8.20518e-09
-4.54548e-08
1.97486e-07
-2.05691e-07
5.76636e-07
-3.7915e-07
1.29702e-06
-7.20388e-07
-9.5857e-07
2.25559e-06
-2.68612e-08
8.05212e-08
4.34803e-08
-1.15796e-07
2.52482e-07
-4.14693e-07
6.33445e-07
-7.60113e-07
1.23036e-06
-1.3173e-06
-1.86821e-06
2.14e-06
-1.14608e-08
9.1982e-08
5.72859e-08
-1.84543e-07
2.44169e-07
-6.01576e-07
5.79763e-07
-1.09571e-06
1.07098e-06
-1.80852e-06
-2.57283e-06
1.7756e-06
-3.85175e-09
9.58338e-08
5.23128e-08
-2.40708e-07
2.03626e-07
-7.52889e-07
4.73514e-07
-1.3656e-06
8.50012e-07
-2.18501e-06
-3.05996e-06
1.33714e-06
-1.93607e-09
9.77698e-08
3.4055e-08
-2.76699e-07
1.40434e-07
-8.59268e-07
3.33228e-07
-1.55839e-06
5.9271e-07
-2.44449e-06
-3.36955e-06
9.02301e-07
-4.78055e-09
1.0255e-07
5.69812e-09
-2.87177e-07
6.201e-08
-9.1558e-07
1.7388e-07
-1.67026e-06
3.22807e-07
-2.59342e-06
-3.53771e-06
4.90965e-07
-1.12323e-08
1.13783e-07
-2.91492e-08
-2.6926e-07
-2.463e-08
-9.20099e-07
7.1714e-09
-1.70206e-06
5.66052e-08
-2.64285e-06
-3.59065e-06
1.09542e-07
-2.13015e-08
1.35084e-07
-6.79673e-08
-2.22594e-07
-1.14523e-07
-8.73544e-07
-1.56395e-07
-1.66019e-06
-1.96369e-07
-2.60288e-06
-3.5558e-06
-2.31216e-07
-3.73895e-08
1.72474e-07
-1.07508e-07
-1.52476e-07
-2.0063e-07
-7.80422e-07
-3.10159e-07
-1.55066e-06
-4.26377e-07
-2.48666e-06
-3.44967e-06
-5.3251e-07
-5.51412e-08
2.27615e-07
-1.43679e-07
-6.39379e-08
-2.78107e-07
-6.45994e-07
-4.47385e-07
-1.38138e-06
-6.28325e-07
-2.30572e-06
-3.28778e-06
-7.90212e-07
-6.92184e-08
2.96833e-07
-1.72857e-07
3.97008e-08
-3.42223e-07
-4.76628e-07
-5.62802e-07
-1.1608e-06
-7.97893e-07
-2.07063e-06
-3.08415e-06
-1.00153e-06
-7.78212e-08
3.74655e-07
-1.92149e-07
1.54029e-07
-3.88899e-07
-2.79878e-07
-6.51942e-07
-8.97761e-07
-9.31549e-07
-1.79103e-06
-2.85081e-06
-1.16489e-06
-7.98233e-08
4.54478e-07
-1.99299e-07
2.73504e-07
-4.14696e-07
-6.44812e-08
-7.10874e-07
-6.01583e-07
-1.02614e-06
-1.47576e-06
-2.59755e-06
-1.27939e-06
-7.44515e-08
5.28929e-07
-1.92675e-07
3.91728e-07
-4.16785e-07
1.59628e-07
-7.36012e-07
-2.82355e-07
-1.0786e-06
-1.13316e-06
-2.33183e-06
-1.34433e-06
-6.10781e-08
5.90007e-07
-1.71301e-07
5.01951e-07
-3.92954e-07
3.8128e-07
-7.23923e-07
4.86137e-08
-1.08555e-06
-7.71538e-07
-2.05849e-06
-1.35889e-06
-3.88678e-08
6.28875e-07
-1.34947e-07
5.98031e-07
-3.41708e-07
5.88041e-07
-6.71182e-07
3.78087e-07
-1.04282e-06
-3.99898e-07
-1.77916e-06
-1.32215e-06
-6.30704e-09
6.35182e-07
-8.44265e-08
6.76151e-07
-2.62471e-07
7.66086e-07
-5.74324e-07
6.8994e-07
-9.44975e-07
-2.92469e-08
-1.49144e-06
-1.2327e-06
2.43418e-08
6.10841e-07
-2.22948e-08
7.22787e-07
-1.55901e-07
8.99692e-07
-4.30051e-07
9.6409e-07
-7.84735e-07
3.25437e-07
-1.18848e-06
-1.08769e-06
5.05398e-08
5.60301e-07
4.80464e-08
7.2528e-07
-2.53931e-08
9.73132e-07
-2.35623e-07
1.17432e-06
-5.53401e-07
6.43215e-07
-8.6197e-07
-8.79913e-07
7.53076e-08
4.84993e-07
1.23331e-07
6.77257e-07
1.28577e-07
9.67886e-07
2.06961e-08
1.2822e-06
-2.50192e-07
9.14104e-07
-5.24937e-07
-5.87225e-07
9.81794e-08
3.86814e-07
1.99565e-07
5.75871e-07
2.96946e-07
8.70506e-07
3.12235e-07
1.26691e-06
1.2725e-07
1.09909e-06
-2.70005e-07
-1.27682e-07
1.17856e-07
2.68958e-07
2.7195e-07
4.21777e-07
4.69681e-07
6.72775e-07
6.58909e-07
1.07768e-06
6.8602e-07
1.07198e-06
-2.81494e-08
4.44164e-07
1.35565e-07
1.33393e-07
3.35473e-07
2.21869e-07
6.32811e-07
3.75436e-07
1.04314e-06
6.67353e-07
1.36595e-06
7.49167e-07
1.03832e-07
1.23397e-06
1.33393e-07
3.55262e-07
7.30698e-07
1.39805e-06
2.14722e-06
2.25105e-06
6.87135e-07
-7.39142e-06
8.95988e-06
1.55439e-06
-5.48376e-06
4.61651e-06
3.59302e-06
-2.73087e-06
6.92244e-07
6.3246e-06
-1.04395e-07
-2.62718e-06
9.49416e-06
2.04655e-06
-5.21611e-06
1.29377e-05
3.70891e-06
-7.15241e-06
1.654e-05
4.919e-06
-8.5213e-06
2.0214e-05
5.73369e-06
-9.40774e-06
2.38916e-05
6.21086e-06
-9.88843e-06
2.75269e-05
6.40047e-06
-1.00358e-05
3.10911e-05
6.352e-06
-9.91615e-06
3.45682e-05
6.11004e-06
-9.5872e-06
3.79524e-05
5.71359e-06
-9.09779e-06
4.12446e-05
5.19638e-06
-8.48856e-06
4.44502e-05
4.58718e-06
-7.79275e-06
4.75769e-05
3.91058e-06
-7.03732e-06
5.06336e-05
3.18919e-06
-6.24587e-06
5.36263e-05
2.44128e-06
-5.43401e-06
5.65608e-05
1.67876e-06
-4.61324e-06
5.94416e-05
9.09926e-07
-3.79073e-06
6.22703e-05
1.48178e-07
-2.97686e-06
6.50518e-05
-6.05455e-07
-2.17605e-06
6.77784e-05
-1.34147e-06
-1.38512e-06
-1.98179e-06
-5.8009e-07
1.45561e-06
-6.70703e-06
1.91357e-06
-5.94172e-06
3.41595e-06
-4.23325e-06
5.63442e-06
-2.32287e-06
8.34693e-06
-6.65958e-07
1.13961e-05
6.59759e-07
1.46629e-05
1.65221e-06
1.8064e-05
2.33255e-06
2.15383e-05
2.73655e-06
2.50403e-05
2.89851e-06
2.85371e-05
2.85515e-06
3.20087e-05
2.63846e-06
3.54444e-05
2.27787e-06
3.88407e-05
1.80016e-06
4.21983e-05
1.22958e-06
4.55208e-05
5.87989e-07
4.88145e-05
-1.04474e-07
5.20848e-05
-8.28982e-07
5.53341e-05
-1.57056e-06
5.8563e-05
-2.31895e-06
6.17777e-05
-3.06653e-06
6.49755e-05
-3.80327e-06
6.81786e-05
-4.54462e-06
-5.17869e-06
1.52509e-06
-6.45652e-06
1.88779e-06
-6.30442e-06
3.00162e-06
-5.34709e-06
4.74843e-06
-4.06967e-06
6.96896e-06
-2.88649e-06
9.53398e-06
-1.90526e-06
1.23404e-05
-1.15423e-06
1.53059e-05
-6.32966e-07
1.83708e-05
-3.28355e-07
2.14912e-05
-2.21842e-07
2.46354e-05
-2.89009e-07
2.77828e-05
-5.08965e-07
3.0922e-05
-8.61329e-07
3.4049e-05
-1.32684e-06
3.71657e-05
-1.88714e-06
4.02783e-05
-2.5246e-06
4.33958e-05
-3.22198e-06
4.65291e-05
-3.96232e-06
4.96895e-05
-4.7309e-06
5.28837e-05
-5.51318e-06
5.61199e-05
-6.30274e-06
5.93952e-05
-7.07858e-06
6.27249e-05
-7.87435e-06
-8.6384e-06
1.27245e-06
-6.39184e-06
1.57713e-06
-6.60909e-06
2.39362e-06
-6.16358e-06
3.7147e-06
-5.39075e-06
5.44083e-06
-4.61262e-06
7.47298e-06
-3.93741e-06
9.72615e-06
-3.4074e-06
1.21274e-05
-3.0342e-06
1.46195e-05
-2.8205e-06
1.71563e-05
-2.75867e-06
1.97058e-05
-2.83846e-06
2.22474e-05
-3.05057e-06
2.47702e-05
-3.38411e-06
2.72717e-05
-3.82835e-06
2.97571e-05
-4.37255e-06
3.22382e-05
-5.00563e-06
3.4732e-05
-5.71582e-06
3.72601e-05
-6.49046e-06
3.98454e-05
-7.31618e-06
4.25095e-05
-8.17723e-06
4.52664e-05
-9.05968e-06
4.81306e-05
-9.94277e-06
5.10812e-05
-1.08249e-05
-1.17048e-05
8.88125e-07
-6.37766e-06
1.11663e-06
-6.8376e-06
1.69914e-06
-6.74609e-06
2.65722e-06
-6.34883e-06
3.93026e-06
-5.88567e-06
5.44767e-06
-5.45481e-06
7.14094e-06
-5.10067e-06
8.94983e-06
-4.84309e-06
1.08228e-05
-4.69344e-06
1.27185e-05
-4.65442e-06
1.46077e-05
-4.72767e-06
1.64716e-05
-4.91442e-06
1.83019e-05
-5.21445e-06
2.01004e-05
-5.62681e-06
2.18774e-05
-6.14955e-06
2.36509e-05
-6.77918e-06
2.54454e-05
-7.51029e-06
2.72903e-05
-8.33539e-06
2.9218e-05
-9.24389e-06
3.12613e-05
-1.02205e-05
3.3447e-05
-1.12454e-05
3.57936e-05
-1.22894e-05
3.8283e-05
-1.33143e-05
-1.42833e-05
4.62675e-07
-6.34937e-06
6.09739e-07
-6.98467e-06
1.00989e-06
-7.14624e-06
1.68142e-06
-7.02036e-06
2.58356e-06
-6.78781e-06
3.66465e-06
-6.5359e-06
4.87225e-06
-6.30827e-06
6.15883e-06
-6.12967e-06
7.48243e-06
-6.01705e-06
8.81031e-06
-5.98229e-06
1.01189e-05
-6.03626e-06
1.13938e-05
-6.1893e-06
1.263e-05
-6.45069e-06
1.38316e-05
-6.82836e-06
1.5011e-05
-7.32898e-06
1.6189e-05
-7.95713e-06
1.73933e-05
-8.7146e-06
1.86583e-05
-9.60047e-06
2.00231e-05
-1.06087e-05
2.15299e-05
-1.17273e-05
2.32192e-05
-1.29347e-05
2.51167e-05
-1.41869e-05
2.72129e-05
-1.54106e-05
-1.64955e-05
4.64575e-08
-6.28628e-06
1.1777e-07
-7.05598e-06
3.82871e-07
-7.41134e-06
8.47972e-07
-7.48546e-06
1.47993e-06
-7.41976e-06
2.23802e-06
-7.294e-06
3.08133e-06
-7.15157e-06
3.97344e-06
-7.02179e-06
4.8826e-06
-6.9262e-06
5.78357e-06
-6.88327e-06
6.65869e-06
-6.91138e-06
7.49815e-06
-7.02877e-06
8.29989e-06
-7.25243e-06
9.06942e-06
-7.59789e-06
9.82052e-06
-8.08009e-06
1.05748e-05
-8.71137e-06
1.1361e-05
-9.50087e-06
1.2216e-05
-1.04554e-05
1.31819e-05
-1.15746e-05
1.43024e-05
-1.28479e-05
1.56158e-05
-1.42481e-05
1.71406e-05
-1.57117e-05
1.88745e-05
-1.71445e-05
-1.83494e-05
-3.40955e-07
-6.17654e-06
-3.21903e-07
-7.07503e-06
-1.43506e-07
-7.58974e-06
1.91386e-07
-7.82035e-06
6.55568e-07
-7.88394e-06
1.21314e-06
-7.85157e-06
1.83177e-06
-7.7702e-06
2.48437e-06
-7.67439e-06
3.14979e-06
-7.59163e-06
3.81315e-06
-7.54663e-06
4.46486e-06
-7.56308e-06
5.10123e-06
-7.66514e-06
5.726e-06
-7.8772e-06
6.34895e-06
-8.22084e-06
6.98357e-06
-8.71471e-06
7.64822e-06
-9.37602e-06
8.36595e-06
-1.02186e-05
9.16276e-06
-1.12522e-05
1.00656e-05
-1.24775e-05
1.1101e-05
-1.38832e-05
1.22916e-05
-1.54387e-05
1.36574e-05
-1.70775e-05
1.51801e-05
-1.86671e-05
-1.99642e-05
-6.7549e-07
-6.03357e-06
-6.85555e-07
-7.06497e-06
-5.46251e-07
-7.72904e-06
-2.66258e-07
-8.10034e-06
1.29754e-07
-8.27995e-06
6.14334e-07
-8.33615e-06
1.16211e-06
-8.31798e-06
1.75293e-06
-8.26522e-06
2.37169e-06
-8.21038e-06
3.00874e-06
-8.18368e-06
3.65914e-06
-8.21348e-06
4.32103e-06
-8.32703e-06
4.99442e-06
-8.55059e-06
5.68376e-06
-8.91018e-06
6.39871e-06
-9.42965e-06
7.1524e-06
-1.01297e-05
7.9609e-06
-1.10271e-05
8.84224e-06
-1.21335e-05
9.81726e-06
-1.34525e-05
1.0909e-05
-1.4975e-05
1.2142e-05
-1.66716e-05
1.35491e-05
-1.84846e-05
1.51626e-05
-2.02806e-05
-2.17778e-05
-9.50866e-07
-5.87291e-06
-9.59641e-07
-7.05619e-06
-8.10453e-07
-7.87823e-06
-5.17855e-07
-8.39294e-06
-1.05047e-07
-8.69276e-06
4.05e-07
-8.8462e-06
9.92157e-07
-8.90513e-06
1.64259e-06
-8.91566e-06
2.34482e-06
-8.9126e-06
3.09284e-06
-8.93171e-06
3.88486e-06
-9.00551e-06
4.72255e-06
-9.16472e-06
5.61034e-06
-9.43838e-06
6.55428e-06
-9.85411e-06
7.56229e-06
-1.04377e-05
8.64492e-06
-1.12123e-05
9.81576e-06
-1.21979e-05
1.1092e-05
-1.34098e-05
1.24963e-05
-1.48568e-05
1.40593e-05
-1.6538e-05
1.5832e-05
-1.84444e-05
1.78354e-05
-2.0488e-05
2.01159e-05
-2.2561e-05
-2.43521e-05
-1.16109e-06
-5.71335e-06
-1.13573e-06
-7.08156e-06
-9.28838e-07
-8.08512e-06
-5.60933e-07
-8.76085e-06
-5.48039e-08
-9.19889e-06
5.70194e-07
-9.47119e-06
1.3014e-06
-9.63634e-06
2.12897e-06
-9.74323e-06
3.04973e-06
-9.83335e-06
4.06281e-06
-9.94479e-06
5.17066e-06
-1.01134e-05
6.37808e-06
-1.03721e-05
7.69179e-06
-1.07521e-05
9.11992e-06
-1.12822e-05
1.06714e-05
-1.19891e-05
1.23555e-05
-1.28965e-05
1.41816e-05
-1.40241e-05
1.61583e-05
-1.53864e-05
1.8294e-05
-1.69925e-05
2.05971e-05
-1.8841e-05
2.30695e-05
-2.09168e-05
2.57565e-05
-2.3175e-05
2.87016e-05
-2.55061e-05
-2.75879e-05
-1.30172e-06
-5.57651e-06
-1.20695e-06
-7.17633e-06
-8.93758e-07
-8.39831e-06
-3.90285e-07
-9.26432e-06
2.80596e-07
-9.86977e-06
1.10304e-06
-1.02936e-05
2.06882e-06
-1.06021e-05
3.17483e-06
-1.08492e-05
4.42264e-06
-1.10812e-05
5.81653e-06
-1.13387e-05
7.36359e-06
-1.16604e-05
9.07177e-06
-1.20803e-05
1.09496e-05
-1.26299e-05
1.30052e-05
-1.33379e-05
1.52454e-05
-1.42293e-05
1.76738e-05
-1.53249e-05
2.02905e-05
-1.66407e-05
2.30894e-05
-1.81854e-05
2.60572e-05
-1.99603e-05
2.91731e-05
-2.19569e-05
3.24093e-05
-2.4153e-05
3.57448e-05
-2.65105e-05
3.9174e-05
-2.89353e-05
-3.11828e-05
-1.36899e-06
-5.48692e-06
-1.16578e-06
-7.37954e-06
-6.96396e-07
-8.86769e-06
1.10637e-09
-9.96182e-06
9.00646e-07
-1.07693e-05
1.99002e-06
-1.1383e-05
3.26434e-06
-1.18764e-05
4.72495e-06
-1.23099e-05
6.37704e-06
-1.27332e-05
8.22845e-06
-1.31901e-05
1.02874e-05
-1.37194e-05
1.25631e-05
-1.4356e-05
1.50638e-05
-1.51306e-05
1.77946e-05
-1.60687e-05
2.07565e-05
-1.71913e-05
2.39447e-05
-1.85131e-05
2.7347e-05
-2.0043e-05
3.09427e-05
-2.17811e-05
3.46974e-05
-2.37149e-05
3.85621e-05
-2.58217e-05
4.24744e-05
-2.80653e-05
4.63686e-05
-3.04047e-05
5.01812e-05
-3.27479e-05
-3.50319e-05
-1.35848e-06
-5.47277e-06
-1.00302e-06
-7.735e-06
-3.25692e-07
-9.54502e-06
6.20565e-07
-1.09081e-05
1.80706e-06
-1.19558e-05
3.22098e-06
-1.27969e-05
4.85974e-06
-1.35152e-05
6.72653e-06
-1.41766e-05
8.82829e-06
-1.4835e-05
1.11736e-05
-1.55354e-05
1.37705e-05
-1.63163e-05
1.66261e-05
-1.72115e-05
1.97436e-05
-1.82481e-05
2.31205e-05
-1.94456e-05
2.67463e-05
-2.08171e-05
3.06025e-05
-2.23693e-05
3.46588e-05
-2.40994e-05
3.88749e-05
-2.59971e-05
4.31998e-05
-2.80398e-05
4.75786e-05
-3.02005e-05
5.19433e-05
-3.243e-05
5.62149e-05
-3.46763e-05
6.02934e-05
-3.68264e-05
-3.90349e-05
-1.26461e-06
-5.56705e-06
-7.06988e-07
-8.29263e-06
2.32157e-07
-1.04842e-05
1.48045e-06
-1.21564e-05
3.00313e-06
-1.34785e-05
4.78659e-06
-1.45804e-05
6.82906e-06
-1.55577e-05
9.1345e-06
-1.64821e-05
1.17094e-05
-1.74099e-05
1.45598e-05
-1.83858e-05
1.76876e-05
-1.94441e-05
2.1088e-05
-2.0612e-05
2.47496e-05
-2.19097e-05
2.86558e-05
-2.33518e-05
3.27842e-05
-2.49455e-05
3.71058e-05
-2.66908e-05
4.15833e-05
-2.85769e-05
4.61742e-05
-3.0588e-05
5.08145e-05
-3.26802e-05
5.54513e-05
-3.48372e-05
6.00178e-05
-3.69966e-05
6.44336e-05
-3.9092e-05
6.8582e-05
-4.09748e-05
-4.28169e-05
-1.08e-06
-5.80919e-06
-2.62904e-07
-9.10973e-06
9.91503e-07
-1.17386e-05
2.58908e-06
-1.37539e-05
4.48852e-06
-1.53779e-05
6.67643e-06
-1.67683e-05
9.15067e-06
-1.80319e-05
1.19108e-05
-1.92422e-05
1.49522e-05
-2.04513e-05
1.82666e-05
-2.17002e-05
2.18428e-05
-2.30203e-05
2.56665e-05
-2.44357e-05
2.97207e-05
-2.59639e-05
3.39838e-05
-2.76148e-05
3.84264e-05
-2.93881e-05
4.30084e-05
-3.12728e-05
4.7679e-05
-3.32476e-05
5.23905e-05
-3.52994e-05
5.70862e-05
-3.73759e-05
6.16309e-05
-3.9382e-05
6.58559e-05
-4.12216e-05
6.96114e-05
-4.28475e-05
7.28863e-05
-4.42498e-05
-4.56062e-05
-7.94933e-07
-6.24695e-06
3.44775e-07
-1.02494e-05
1.96411e-06
-1.33579e-05
3.94911e-06
-1.57389e-05
6.25538e-06
-1.76842e-05
8.86461e-06
-1.93775e-05
1.17615e-05
-2.09288e-05
1.49312e-05
-2.24119e-05
1.83612e-05
-2.38814e-05
2.20375e-05
-2.53764e-05
2.59435e-05
-2.69264e-05
3.00583e-05
-2.85504e-05
3.43532e-05
-3.02588e-05
3.87917e-05
-3.20533e-05
4.33314e-05
-3.39278e-05
4.79279e-05
-3.58693e-05
5.25008e-05
-3.78204e-05
5.68838e-05
-3.96825e-05
6.09005e-05
-4.13925e-05
6.44365e-05
-4.2918e-05
6.75175e-05
-4.43025e-05
7.02023e-05
-4.55323e-05
7.25712e-05
-4.66187e-05
-4.75734e-05
-3.96066e-07
-6.93858e-06
1.13008e-06
-1.17756e-05
3.15506e-06
-1.53829e-05
5.5474e-06
-1.81313e-05
8.2538e-06
-2.03906e-05
1.12429e-05
-2.23666e-05
1.44941e-05
-2.418e-05
1.79909e-05
-2.59087e-05
2.17135e-05
-2.7604e-05
2.56361e-05
-2.92991e-05
2.97268e-05
-3.1017e-05
3.39489e-05
-3.27725e-05
3.82603e-05
-3.45702e-05
4.26222e-05
-3.64153e-05
4.69391e-05
-3.82448e-05
5.10393e-05
-3.99695e-05
5.47658e-05
-4.15469e-05
5.80582e-05
-4.29749e-05
6.09675e-05
-4.43018e-05
6.3575e-05
-4.55254e-05
6.59305e-05
-4.66581e-05
6.80806e-05
-4.76824e-05
6.99246e-05
-4.84626e-05
-4.89615e-05
1.31668e-07
-7.95016e-06
2.10855e-06
-1.37525e-05
4.54969e-06
-1.7824e-05
7.3181e-06
-2.08997e-05
1.03619e-05
-2.34344e-05
1.36532e-05
-2.56578e-05
1.71677e-05
-2.76945e-05
2.08769e-05
-2.96179e-05
2.47434e-05
-3.14705e-05
2.87226e-05
-3.32783e-05
3.27671e-05
-3.50614e-05
3.68355e-05
-3.68409e-05
4.08555e-05
-3.85902e-05
4.46675e-05
-4.02273e-05
4.81268e-05
-4.17041e-05
5.12019e-05
-4.30445e-05
5.39521e-05
-4.42971e-05
5.64569e-05
-4.54796e-05
5.87607e-05
-4.66057e-05
6.08945e-05
-4.76592e-05
6.28075e-05
-4.85712e-05
6.44313e-05
-4.93062e-05
6.57685e-05
-4.97998e-05
-4.99595e-05
8.35495e-07
-9.37288e-06
3.27884e-06
-1.61958e-05
6.08686e-06
-2.0632e-05
9.14892e-06
-2.39618e-05
1.24334e-05
-2.67189e-05
1.59098e-05
-2.91343e-05
1.95419e-05
-3.13266e-05
2.32809e-05
-3.33569e-05
2.7069e-05
-3.52586e-05
3.08488e-05
-3.70581e-05
3.45744e-05
-3.87871e-05
3.81347e-05
-4.04013e-05
4.13892e-05
-4.18447e-05
4.42898e-05
-4.31279e-05
4.68991e-05
-4.43134e-05
4.92944e-05
-4.54399e-05
5.15263e-05
-4.6529e-05
5.36135e-05
-4.75668e-05
5.55065e-05
-4.84987e-05
5.71493e-05
-4.9302e-05
5.85485e-05
-4.99703e-05
5.97383e-05
-5.0496e-05
6.07649e-05
-5.08264e-05
-5.07321e-05
1.74904e-06
-1.12496e-05
4.60322e-06
-1.905e-05
7.66593e-06
-2.36947e-05
1.08951e-05
-2.71909e-05
1.42761e-05
-3.01e-05
1.7774e-05
-3.26321e-05
2.1331e-05
-3.48836e-05
2.48764e-05
-3.69023e-05
2.8343e-05
-3.87252e-05
3.16792e-05
-4.03943e-05
3.47817e-05
-4.18896e-05
3.75675e-05
-4.3187e-05
4.00611e-05
-4.43383e-05
4.23435e-05
-4.54102e-05
4.44766e-05
-4.64465e-05
4.64815e-05
-4.74448e-05
4.83174e-05
-4.8365e-05
4.99417e-05
-4.91911e-05
5.13624e-05
-4.99194e-05
5.26081e-05
-5.05477e-05
5.37077e-05
-5.10699e-05
5.46735e-05
-5.14618e-05
5.54928e-05
-5.16457e-05
-5.13915e-05
2.91535e-06
-1.37208e-05
6.00454e-06
-2.21392e-05
9.14531e-06
-2.68355e-05
1.23733e-05
-3.04189e-05
1.56874e-05
-3.3414e-05
1.90305e-05
-3.59752e-05
2.2318e-05
-3.8171e-05
2.54735e-05
-4.00578e-05
2.8445e-05
-4.16967e-05
3.1164e-05
-4.31133e-05
3.35876e-05
-4.43132e-05
3.57743e-05
-4.53738e-05
3.77994e-05
-4.63633e-05
3.97007e-05
-4.73116e-05
4.14601e-05
-4.82059e-05
4.30389e-05
-4.90236e-05
4.44431e-05
-4.97691e-05
4.56988e-05
-5.04467e-05
4.68333e-05
-5.1054e-05
4.78659e-05
-5.15804e-05
4.88017e-05
-5.20057e-05
4.96311e-05
-5.22911e-05
5.03382e-05
-5.23528e-05
-5.20017e-05
4.37176e-06
-1.68586e-05
7.35754e-06
-2.5125e-05
1.03461e-05
-2.98241e-05
1.34215e-05
-3.34943e-05
1.65309e-05
-3.65235e-05
1.95706e-05
-3.9015e-05
2.24492e-05
-4.10496e-05
2.51114e-05
-4.272e-05
2.75211e-05
-4.41064e-05
2.96648e-05
-4.52571e-05
3.16027e-05
-4.6251e-05
3.33971e-05
-4.71683e-05
3.50712e-05
-4.80373e-05
3.65951e-05
-4.88356e-05
3.79625e-05
-4.95732e-05
3.92009e-05
-5.02619e-05
4.03365e-05
-5.09047e-05
4.13862e-05
-5.14964e-05
4.23577e-05
-5.20255e-05
4.32519e-05
-5.24746e-05
4.40627e-05
-5.28166e-05
4.47825e-05
-5.30109e-05
4.54116e-05
-5.29819e-05
-5.25805e-05
6.11661e-06
-2.07241e-05
8.44873e-06
-2.74571e-05
1.11257e-05
-3.25011e-05
1.39659e-05
-3.63345e-05
1.67754e-05
-3.9333e-05
1.94208e-05
-4.16604e-05
2.18346e-05
-4.34634e-05
2.39968e-05
-4.48822e-05
2.5912e-05
-4.60217e-05
2.7634e-05
-4.69791e-05
2.92232e-05
-4.78402e-05
3.06816e-05
-4.86266e-05
3.19953e-05
-4.93511e-05
3.31909e-05
-5.00312e-05
3.4294e-05
-5.06763e-05
3.532e-05
-5.12879e-05
3.62765e-05
-5.18612e-05
3.71663e-05
-5.23863e-05
3.79898e-05
-5.28489e-05
3.87452e-05
-5.323e-05
3.94307e-05
-5.3502e-05
4.00472e-05
-5.36274e-05
4.06059e-05
-5.35406e-05
-5.31222e-05
-6.75201e-07
6.75201e-07
-1.53565e-06
8.60453e-07
-1.89726e-06
3.61609e-07
-1.39654e-06
-5.00727e-07
9.40327e-07
-2.33686e-06
-4.52796e-06
5.46829e-06
-8.00553e-07
1.47575e-06
-1.43328e-06
1.49318e-06
-1.48529e-06
4.13621e-07
-6.40757e-07
-1.34526e-06
1.22214e-06
-4.19976e-06
-8.03859e-06
4.73277e-06
-7.70212e-07
2.24597e-06
-1.21871e-06
1.94168e-06
-1.09131e-06
2.86218e-07
-1.53934e-07
-2.28264e-06
1.61682e-06
-5.97051e-06
-1.07957e-05
4.37393e-06
-7.32041e-07
2.97801e-06
-1.02739e-06
2.23703e-06
-7.88686e-07
4.75141e-08
1.6032e-07
-3.23164e-06
1.8164e-06
-7.62659e-06
-1.30705e-05
4.09116e-06
-6.65134e-07
3.64314e-06
-8.58081e-07
2.42998e-06
-5.63313e-07
-2.47254e-07
3.3764e-07
-4.1326e-06
1.83667e-06
-9.12562e-06
-1.50178e-05
3.78403e-06
-5.84275e-07
4.22742e-06
-7.07009e-07
2.55271e-06
-4.01798e-07
-5.52466e-07
4.11548e-07
-4.94594e-06
1.73363e-06
-1.04477e-05
-1.67073e-05
3.42311e-06
-4.97142e-07
4.72456e-06
-5.74174e-07
2.62974e-06
-2.92568e-07
-8.34072e-07
4.05888e-07
-5.6444e-06
1.54301e-06
-1.15848e-05
-1.81694e-05
3.00507e-06
-4.08086e-07
5.13264e-06
-4.57702e-07
2.67936e-06
-2.25088e-07
-1.06669e-06
3.39226e-07
-6.20871e-06
1.28634e-06
-1.25319e-05
-1.94159e-05
2.53286e-06
-3.18605e-07
5.45125e-06
-3.54615e-07
2.71537e-06
-1.89597e-07
-1.2317e-06
2.25796e-07
-6.62411e-06
9.76922e-07
-1.32831e-05
-2.04496e-05
2.01065e-06
-2.29085e-07
5.68033e-06
-2.61153e-07
2.74744e-06
-1.76705e-07
-1.31615e-06
7.78035e-08
-6.87862e-06
6.24673e-07
-1.38299e-05
-2.12691e-05
1.44415e-06
-1.393e-07
5.81963e-06
-1.73026e-07
2.78116e-06
-1.76971e-07
-1.31221e-06
-9.30857e-08
-6.9625e-06
2.39607e-07
-1.41626e-05
-2.18709e-05
8.41468e-07
-4.85055e-08
5.86814e-06
-8.57044e-08
2.81836e-06
-1.80673e-07
-1.21724e-06
-2.74252e-07
-6.86892e-06
-1.66611e-07
-1.42703e-05
-2.22499e-05
2.12366e-07
4.35363e-08
5.8246e-06
4.08693e-09
2.85781e-06
-1.77764e-07
-1.03539e-06
-4.52146e-07
-6.59454e-06
-5.8096e-07
-1.41414e-05
-2.2401e-05
-4.29854e-07
1.37235e-07
5.68737e-06
1.05598e-07
2.88945e-06
-1.57802e-07
-7.71986e-07
-6.12195e-07
-6.14015e-06
-9.87488e-07
-1.37662e-05
-2.23137e-05
-1.07481e-06
2.33232e-07
5.45414e-06
2.17806e-07
2.90487e-06
-1.10812e-07
-4.43367e-07
-7.38676e-07
-5.51228e-06
-1.36971e-06
-1.31351e-05
-2.19732e-05
-1.71023e-06
3.31482e-07
5.12265e-06
3.45131e-07
2.89123e-06
-2.80842e-08
-7.01523e-08
-8.14306e-07
-4.72606e-06
-1.70811e-06
-1.22413e-05
-2.13598e-05
-2.32149e-06
4.32389e-07
4.69027e-06
4.89173e-07
2.83444e-06
1.01779e-07
3.17242e-07
-8.19627e-07
-3.80466e-06
-1.97871e-06
-1.10822e-05
-2.04457e-05
-2.89281e-06
5.38095e-07
4.15217e-06
6.49156e-07
2.72338e-06
2.83181e-07
6.83216e-07
-7.33403e-07
-2.78807e-06
-2.15148e-06
-9.66415e-06
-1.91903e-05
-3.40688e-06
6.56179e-07
3.49599e-06
8.18195e-07
2.56137e-06
5.18496e-07
9.82916e-07
-5.31406e-07
-1.73817e-06
-2.18763e-06
-8.00793e-06
-1.75363e-05
-3.84162e-06
7.18583e-07
2.77741e-06
9.80056e-07
2.29989e-06
8.0273e-07
1.16024e-06
-1.81918e-07
-7.53522e-07
-2.03638e-06
-6.15346e-06
-1.54067e-05
-4.16599e-06
7.51267e-07
2.02614e-06
1.13442e-06
1.91674e-06
1.12083e-06
1.17383e-06
3.10295e-07
5.7016e-08
-1.63685e-06
-4.20632e-06
-1.27094e-05
-4.33417e-06
7.65361e-07
1.26078e-06
1.27554e-06
1.40656e-06
1.45241e-06
9.9696e-07
9.47897e-07
5.61525e-07
-9.3626e-07
-2.32216e-06
-9.35243e-06
-4.29322e-06
7.43899e-07
5.16881e-07
1.38616e-06
7.64303e-07
1.76706e-06
6.16056e-07
1.72103e-06
6.07562e-07
-1.66823e-08
-5.84452e-07
-5.29701e-06
-4.0721e-06
5.16881e-07
1.28118e-06
1.89724e-06
2.5048e-06
1.92035e-06
-3.37666e-06
6.71736e-06
-2.19732e-05
8.94604e-06
-2.96858e-05
1.1438e-05
-3.4993e-05
1.40212e-05
-3.89178e-05
1.64771e-05
-4.17889e-05
1.86968e-05
-4.388e-05
2.06584e-05
-4.5425e-05
2.23809e-05
-4.66047e-05
2.39125e-05
-4.75532e-05
2.52999e-05
-4.83665e-05
2.65532e-05
-4.90935e-05
2.76909e-05
-4.97643e-05
2.8738e-05
-5.03982e-05
2.97114e-05
-5.10046e-05
3.06203e-05
-5.15852e-05
3.14693e-05
-5.21369e-05
3.22608e-05
-5.26527e-05
3.29963e-05
-5.31218e-05
3.36766e-05
-5.35293e-05
3.43018e-05
-5.38552e-05
3.48733e-05
-5.40735e-05
3.53954e-05
-5.41495e-05
3.58833e-05
-5.40284e-05
-5.36158e-05
6.67846e-06
-2.39189e-05
8.94329e-06
-3.19506e-05
1.13506e-05
-3.74003e-05
1.36608e-05
-4.1228e-05
1.57343e-05
-4.38624e-05
1.7536e-05
-4.56816e-05
1.90907e-05
-4.69797e-05
2.04457e-05
-4.79598e-05
2.16466e-05
-4.87541e-05
2.27233e-05
-4.94432e-05
2.37026e-05
-5.00728e-05
2.46061e-05
-5.06677e-05
2.54468e-05
-5.1239e-05
2.62318e-05
-5.17896e-05
2.69652e-05
-5.23186e-05
2.76495e-05
-5.28212e-05
2.82866e-05
-5.32898e-05
2.88776e-05
-5.37128e-05
2.94236e-05
-5.40753e-05
2.99259e-05
-5.43575e-05
3.03879e-05
-5.45355e-05
3.0817e-05
-5.45786e-05
3.12303e-05
-5.44417e-05
-5.4052e-05
6.53587e-06
-2.60808e-05
8.77431e-06
-3.4189e-05
1.09835e-05
-3.96095e-05
1.29595e-05
-4.3204e-05
1.46432e-05
-4.55461e-05
1.60588e-05
-4.70973e-05
1.72588e-05
-4.81796e-05
1.82957e-05
-4.89967e-05
1.9212e-05
-4.96704e-05
2.00387e-05
-5.027e-05
2.07976e-05
-5.08317e-05
2.15015e-05
-5.13716e-05
2.21577e-05
-5.18951e-05
2.27701e-05
-5.2402e-05
2.33407e-05
-5.28892e-05
2.38707e-05
-5.33512e-05
2.43609e-05
-5.37799e-05
2.48124e-05
-5.41643e-05
2.52269e-05
-5.44898e-05
2.56075e-05
-5.47381e-05
2.59597e-05
-5.48878e-05
2.62929e-05
-5.49117e-05
2.66248e-05
-5.47736e-05
-5.44198e-05
6.27961e-06
-2.82693e-05
8.41104e-06
-3.63205e-05
1.03468e-05
-4.15452e-05
1.19678e-05
-4.4825e-05
1.32861e-05
-4.68644e-05
1.43616e-05
-4.81728e-05
1.52569e-05
-4.90749e-05
1.60234e-05
-4.97632e-05
1.66995e-05
-5.03465e-05
1.73112e-05
-5.08817e-05
1.7874e-05
-5.13945e-05
1.83964e-05
-5.1894e-05
1.88823e-05
-5.2381e-05
1.93332e-05
-5.28529e-05
1.97494e-05
-5.33053e-05
2.01308e-05
-5.37326e-05
2.04779e-05
-5.41271e-05
2.07925e-05
-5.44788e-05
2.10771e-05
-5.47744e-05
2.13367e-05
-5.49977e-05
2.1578e-05
-5.51291e-05
2.18114e-05
-5.51451e-05
2.20552e-05
-5.50174e-05
-5.47094e-05
5.90352e-06
-3.03888e-05
7.84662e-06
-3.82636e-05
9.47293e-06
-4.31715e-05
1.07507e-05
-4.61027e-05
1.1741e-05
-4.78547e-05
1.25198e-05
-4.89516e-05
1.31508e-05
-4.97059e-05
1.3682e-05
-5.02944e-05
1.41466e-05
-5.08112e-05
1.45653e-05
-5.13003e-05
1.49489e-05
-5.17782e-05
1.53026e-05
-5.22477e-05
1.56276e-05
-5.27061e-05
1.59239e-05
-5.31492e-05
1.61908e-05
-5.35722e-05
1.64277e-05
-5.39696e-05
1.66353e-05
-5.43347e-05
1.68153e-05
-5.46588e-05
1.69715e-05
-5.49306e-05
1.71097e-05
-5.5136e-05
1.72378e-05
-5.52572e-05
1.73668e-05
-5.52741e-05
1.75154e-05
-5.51659e-05
-5.49124e-05
5.40436e-06
-3.237e-05
7.10154e-06
-3.99607e-05
8.41151e-06
-4.44815e-05
9.37196e-06
-4.70632e-05
1.00709e-05
-4.85537e-05
1.05884e-05
-4.94692e-05
1.0986e-05
-5.01035e-05
1.13072e-05
-5.06156e-05
1.15801e-05
-5.10841e-05
1.18205e-05
-5.15407e-05
1.20358e-05
-5.19934e-05
1.22283e-05
-5.24402e-05
1.23981e-05
-5.2876e-05
1.25443e-05
-5.32954e-05
1.26658e-05
-5.36937e-05
1.27619e-05
-5.40657e-05
1.28329e-05
-5.44057e-05
1.28808e-05
-5.47067e-05
1.29096e-05
-5.49595e-05
1.29259e-05
-5.51522e-05
1.2938e-05
-5.52693e-05
1.2957e-05
-5.52932e-05
1.30029e-05
-5.52118e-05
-5.50223e-05
4.79114e-06
-3.41561e-05
6.20932e-06
-4.13789e-05
7.21277e-06
-4.54849e-05
7.88462e-06
-4.7735e-05
8.3232e-06
-4.89922e-05
8.60737e-06
-4.97534e-05
8.79464e-06
-5.02907e-05
8.92389e-06
-5.07448e-05
9.01839e-06
-5.11786e-05
9.08991e-06
-5.16122e-05
9.14309e-06
-5.20466e-05
9.17897e-06
-5.24761e-05
9.19699e-06
-5.2894e-05
9.19608e-06
-5.32945e-05
9.17516e-06
-5.36728e-05
9.13352e-06
-5.4024e-05
9.07135e-06
-5.43435e-05
8.99025e-06
-5.46256e-05
8.89398e-06
-5.48632e-05
8.78873e-06
-5.5047e-05
8.68238e-06
-5.51629e-05
8.58371e-06
-5.51945e-05
8.51447e-06
-5.51426e-05
-5.50367e-05
4.07952e-06
-3.57028e-05
5.20596e-06
-4.25053e-05
5.92061e-06
-4.61996e-05
6.33038e-06
-4.81448e-05
6.53384e-06
-4.91957e-05
6.60595e-06
-4.98255e-05
6.59982e-06
-5.02846e-05
6.54964e-06
-5.06947e-05
6.47438e-06
-5.11033e-05
6.38269e-06
-5.15205e-05
6.2775e-06
-5.19414e-05
6.15917e-06
-5.23577e-05
6.02716e-06
-5.2762e-05
5.88075e-06
-5.31481e-05
5.71929e-06
-5.35113e-05
5.54245e-06
-5.38472e-05
5.35048e-06
-5.41515e-05
5.14467e-06
-5.44198e-05
4.92798e-06
-5.46465e-05
4.70603e-06
-5.4825e-05
4.48766e-06
-5.49446e-05
4.27756e-06
-5.49844e-05
4.0335e-06
-5.48985e-05
-5.49711e-05
3.2885e-06
-3.69806e-05
4.12471e-06
-4.33416e-05
4.5711e-06
-4.6646e-05
4.74176e-06
-4.83154e-05
4.73011e-06
-4.91841e-05
4.60629e-06
-4.97016e-05
4.41896e-06
-5.00973e-05
4.19789e-06
-5.04736e-05
3.95844e-06
-5.08638e-05
3.70699e-06
-5.12691e-05
3.44543e-06
-5.16799e-05
3.17395e-06
-5.20863e-05
2.89234e-06
-5.24804e-05
2.60046e-06
-5.28562e-05
2.2984e-06
-5.32092e-05
1.98659e-06
-5.35354e-05
1.666e-06
-5.38309e-05
1.33842e-06
-5.40922e-05
1.00669e-06
-5.43148e-05
6.74943e-07
-5.44933e-05
3.51982e-07
-5.46216e-05
7.11785e-08
-5.47036e-05
-4.81097e-08
-5.47792e-05
-5.45361e-05
2.43817e-06
-3.79746e-05
2.99473e-06
-4.38981e-05
3.19337e-06
-4.68446e-05
3.14422e-06
-4.82663e-05
2.93317e-06
-4.8973e-05
2.62556e-06
-4.9394e-05
2.26582e-06
-4.97375e-05
1.87976e-06
-5.00875e-05
1.47983e-06
-5.04639e-05
1.07084e-06
-5.08601e-05
6.54091e-07
-5.12631e-05
2.29795e-07
-5.1662e-05
-2.0192e-07
-5.20486e-05
-6.40711e-07
-5.24174e-05
-1.08593e-06
-5.2764e-05
-1.53662e-06
-5.30847e-05
-1.99139e-06
-5.33762e-05
-2.44835e-06
-5.36352e-05
-2.90474e-06
-5.38584e-05
-3.35564e-06
-5.40424e-05
-3.79155e-06
-5.41857e-05
-4.2079e-06
-5.42872e-05
-4.67352e-06
-5.43136e-05
-5.42325e-05
1.54831e-06
-3.86815e-05
1.84089e-06
-4.41907e-05
1.81102e-06
-4.68147e-05
1.55803e-06
-4.80133e-05
1.15992e-06
-4.85749e-05
6.77637e-07
-4.89117e-05
1.51862e-07
-4.92118e-05
-3.9493e-07
-4.95407e-05
-9.52489e-07
-4.99064e-05
-1.5172e-06
-5.02954e-05
-2.08805e-06
-5.06923e-05
-2.66471e-06
-5.10853e-05
-3.2468e-06
-5.14665e-05
-3.83373e-06
-5.18305e-05
-4.42464e-06
-5.21731e-05
-5.01843e-06
-5.24909e-05
-5.61375e-06
-5.27808e-05
-6.2089e-06
-5.30401e-05
-6.80155e-06
-5.32658e-05
-7.38857e-06
-5.34553e-05
-7.96751e-06
-5.36068e-05
-8.54014e-06
-5.37146e-05
-9.09343e-06
-5.37603e-05
-5.37768e-05
6.37651e-07
-3.91068e-05
6.84634e-07
-4.42377e-05
4.43706e-07
-4.65738e-05
7.83117e-11
-4.75697e-05
-5.75781e-07
-4.7999e-05
-1.22574e-06
-4.82618e-05
-1.9126e-06
-4.85249e-05
-2.61667e-06
-4.88367e-05
-3.32949e-06
-4.91936e-05
-4.04805e-06
-4.95768e-05
-4.77148e-06
-4.99688e-05
-5.4993e-06
-5.03575e-05
-6.23093e-06
-5.07349e-05
-6.96558e-06
-5.10959e-05
-7.70229e-06
-5.14364e-05
-8.43996e-06
-5.17532e-05
-9.17727e-06
-5.20435e-05
-9.91257e-06
-5.23048e-05
-1.06437e-05
-5.25347e-05
-1.13677e-05
-5.27313e-05
-1.20817e-05
-5.28928e-05
-1.27808e-05
-5.30155e-05
-1.34501e-05
-5.3091e-05
-5.31758e-05
-2.76121e-07
-3.92605e-05
-4.5529e-07
-4.40585e-05
-8.91932e-07
-4.61372e-05
-1.51632e-06
-4.69453e-05
-2.26204e-06
-4.72533e-05
-3.07424e-06
-4.74496e-05
-3.91828e-06
-4.76809e-05
-4.77666e-06
-4.79783e-05
-5.64222e-06
-4.8328e-05
-6.5124e-06
-4.87066e-05
-7.38628e-06
-4.90949e-05
-8.26318e-06
-4.94806e-05
-9.14228e-06
-4.98558e-05
-1.00226e-05
-5.02156e-05
-1.0903e-05
-5.0556e-05
-1.17824e-05
-5.08739e-05
-1.26592e-05
-5.11667e-05
-1.35317e-05
-5.14322e-05
-1.43977e-05
-5.16687e-05
-1.52539e-05
-5.1875e-05
-1.60966e-05
-5.20502e-05
-1.69199e-05
-5.21922e-05
-1.77128e-05
-5.2298e-05
-5.24392e-05
-1.17731e-06
-3.9158e-05
-1.56501e-06
-4.36708e-05
-2.18151e-06
-4.55207e-05
-2.97859e-06
-4.61482e-05
-3.88865e-06
-4.63433e-05
-4.85862e-06
-4.64796e-05
-5.85632e-06
-4.66832e-05
-6.86612e-06
-4.69685e-05
-7.88178e-06
-4.73123e-05
-8.90095e-06
-4.76874e-05
-9.92259e-06
-4.80733e-05
-1.09458e-05
-4.84574e-05
-1.19694e-05
-4.88322e-05
-1.29923e-05
-4.91927e-05