/*--------------------------------*- C++ -*----------------------------------*\
  =========                 |
  \\      /  F ield         | OpenFOAM: The Open Source CFD Toolbox
   \\    /   O peration     | Website:  https://openfoam.org
    \\  /    A nd           | Version:  11
     \\/     M anipulation  |
\*---------------------------------------------------------------------------*/
FoamFile
{
    format      ascii;
    class       volVectorField;
    location    "1.42";
    object      U;
}
// * * * * * * * * * * * * * * * * * * * * * * * * * * * * * * * * * * * * * //

dimensions      [0 1 -1 0 0 0 0];

internalField   nonuniform List<vector> 
2880
(
(0.0112661 0.0401063 8.62502e-19)
(0.0143186 0.0532812 -2.79693e-19)
(0.0378742 0.0538655 -1.41679e-20)
(0.0738396 0.04764 -1.70069e-19)
(0.095345 0.0459491 1.39706e-19)
(0.2224 -0.00748573 0)
(0.0119366 0.0408109 -7.90746e-19)
(0.016272 0.0489969 2.82533e-19)
(0.0384875 0.0459249 0)
(0.0691774 0.0383111 -4.18034e-21)
(0.0925402 0.0234482 -1.47547e-19)
(0.17255 -0.011411 -9.58363e-20)
(0.0113585 0.0413568 3.42381e-19)
(0.0155506 0.046248 -1.61656e-20)
(0.0337057 0.0410904 1.26049e-20)
(0.0582438 0.0310463 1.33601e-19)
(0.0800057 0.0127241 -5.01594e-20)
(0.131144 -0.0176274 7.9391e-20)
(0.0101591 0.0418635 1.57077e-19)
(0.0129517 0.0445012 -1.23821e-19)
(0.0266044 0.0375312 0)
(0.045039 0.0254534 1.87263e-20)
(0.0624713 0.00486189 4.708e-20)
(0.0946271 -0.0223082 6.84294e-20)
(0.00859597 0.0422989 5.4805e-21)
(0.00903013 0.0435493 1.1354e-19)
(0.0180838 0.0351552 0)
(0.0305252 0.0215458 0)
(0.042745 -3.19277e-05 4.77204e-20)
(0.0620624 -0.025023 2.81787e-20)
(0.00660007 0.042802 -1.49257e-19)
(0.00406015 0.04339 -3.62579e-21)
(0.00859511 0.0339654 -4.43478e-20)
(0.0153671 0.0192952 -8.95386e-21)
(0.0223866 -0.002548 -5.36477e-20)
(0.0328796 -0.0259833 0)
(0.00419983 0.0433617 -4.1109e-20)
(-0.00180503 0.0439585 0)
(-0.00154113 0.0338432 6.48117e-20)
(3.76377e-05 0.0184894 4.42695e-21)
(0.0022859 -0.00340164 -3.84681e-21)
(0.00661422 -0.0258681 -1.3522e-20)
(0.00102749 0.0440907 4.69039e-20)
(-0.00846682 0.0450698 2.21313e-22)
(-0.0120237 0.0346277 -2.13154e-20)
(-0.0150878 0.0188642 -8.94241e-21)
(-0.0169725 -0.00310625 0)
(-0.0169537 -0.0253144 1.33318e-20)
(-0.00446042 0.0451602 -8.02849e-22)
(-0.0155866 0.0465554 1.74875e-21)
(-0.0225261 0.0361541 -1.34387e-21)
(-0.0296631 0.0202078 8.81578e-21)
(-0.0350094 -0.00197736 -3.78947e-21)
(-0.0378637 -0.0246453 3.3962e-21)
(-0.0113036 0.0462415 0)
(-0.0227141 0.048184 0)
(-0.0326783 0.0382937 0)
(-0.0433746 0.0224054 -4.45423e-21)
(-0.0515467 -0.000205381 -3.49738e-20)
(-0.0561152 -0.0239614 -2.03757e-20)
(-0.0177873 0.0473003 -2.09542e-19)
(-0.0294434 0.0498723 0)
(-0.0421206 0.0409967 -8.78671e-20)
(-0.0559489 0.025416 0)
(-0.0663742 0.00215932 -3.23844e-20)
(-0.0717032 -0.0232811 2.72138e-20)
(-0.0235161 0.0484317 2.09404e-19)
(-0.0354581 0.0516569 7.19355e-21)
(-0.0505467 0.0442761 8.21431e-20)
(-0.0671555 0.0292714 0)
(-0.0793271 0.00517881 6.36128e-20)
(-0.0846169 -0.0225646 0)
(-0.028292 0.0496158 -6.62244e-21)
(-0.0405188 0.0536108 0)
(-0.0577079 0.0481812 -1.81672e-19)
(-0.0768035 0.0340659 0)
(-0.0902675 0.0090156 1.62467e-20)
(-0.0948444 -0.0216571 -1.31426e-19)
(-0.0319639 0.0508358 4.35388e-19)
(-0.0444601 0.0557986 -7.35442e-21)
(-0.0634102 0.0527737 1.82739e-19)
(-0.0847361 0.0399385 0)
(-0.099072 0.0139258 0)
(-0.102393 -0.0202882 1.46536e-19)
(-0.0343109 0.0521227 -8.53936e-19)
(-0.0471952 0.058275 0)
(-0.0675102 0.0581077 -1.66865e-19)
(-0.0908215 0.0470516 -2.02405e-20)
(-0.105613 0.0202579 -3.51083e-20)
(-0.107301 -0.0180913 1.59179e-19)
(-0.034936 0.053683 4.31383e-19)
(-0.0487386 0.0610969 2.31005e-19)
(-0.0699152 0.0642021 3.3671e-20)
(-0.0949435 0.0555623 -2.09554e-20)
(-0.109729 0.0284585 0)
(-0.109669 -0.0145709 -2.56009e-20)
(-0.0330932 0.0560269 0)
(-0.049215 0.0642613 -2.50067e-19)
(-0.070589 0.0710004 2.00121e-19)
(-0.0969923 0.0655812 0)
(-0.111188 0.0390756 0)
(-0.109698 -0.00906736 -1.37255e-19)
(-0.032167 0.0564088 0)
(-0.0487919 0.0674448 0)
(-0.069547 0.0783134 -1.84094e-19)
(-0.0968463 0.0771001 -2.11475e-19)
(-0.109632 0.0527742 -2.10932e-19)
(-0.107739 -0.000718267 3.76036e-20)
(-0.0325321 0.0549422 0)
(-0.0476305 0.0701626 0)
(-0.0667911 0.0858256 2.17354e-19)
(-0.0943247 0.0898682 -5.12508e-21)
(-0.10458 0.0704302 1.73204e-19)
(-0.10422 0.0114577 -2.08958e-19)
(-0.0326347 0.0524893 2.70784e-20)
(-0.0456428 0.0719957 -1.71128e-20)
(-0.0622612 0.0930669 0)
(-0.0891214 0.103309 4.16014e-19)
(-0.0956184 0.0933066 4.87593e-20)
(-0.0992398 0.0281212 3.20764e-19)
(-0.0320234 0.0491796 -2.22603e-20)
(-0.0427764 0.0727403 1.80819e-20)
(-0.0559815 0.099472 0)
(-0.0808946 0.116779 -4.42165e-19)
(-0.0822194 0.122325 5.33594e-20)
(-0.0920649 0.0494354 -2.41853e-19)
(-0.0314671 0.045449 1.2019e-20)
(-0.0391083 0.0724332 1.05311e-20)
(-0.0481337 0.104609 -1.58243e-20)
(-0.0696 0.129446 2.04429e-19)
(-0.0630991 0.157044 2.60664e-20)
(-0.081585 0.0770593 -4.77918e-20)
(-0.0304842 0.0412656 -7.06895e-21)
(-0.0346897 0.0712094 -3.30175e-19)
(-0.039128 0.108068 -2.80302e-19)
(-0.0561185 0.14001 3.29669e-20)
(-0.035519 0.198031 -1.97083e-19)
(-0.0666946 0.11114 -5.59759e-20)
(-0.0278488 0.0337605 -4.63425e-19)
(-0.0306496 0.0638714 7.08105e-19)
(-0.0288838 0.104116 2.97178e-19)
(-0.0367775 0.137123 -3.52721e-20)
(0.00520052 0.240579 2.76433e-19)
(-0.0449759 0.143839 0)
(0.00463918 -0.137669 0)
(0.0366021 -0.0212634 -1.57021e-19)
(0.173274 0.0481845 1.38426e-19)
(0.316725 0.100707 -3.1516e-20)
(0.455345 0.134866 0)
(0.581475 0.155827 -7.431e-20)
(0.692587 0.167099 -2.86619e-20)
(0.7887 0.17124 -2.1966e-20)
(0.870353 0.170174 0)
(0.938693 0.165356 0)
(0.995264 0.157916 -2.51667e-20)
(1.04168 0.148747 3.82135e-20)
(1.07951 0.138534 -1.08198e-21)
(1.1102 0.127798 -1.15438e-20)
(1.13506 0.116934 8.43304e-21)
(1.15519 0.106243 -1.0892e-20)
(1.17161 0.0960059 3.37231e-21)
(1.18511 0.0864433 9.82626e-21)
(1.19619 0.0776923 -6.68756e-22)
(1.20543 0.0697586 2.17922e-21)
(1.213 0.0629685 -1.25564e-21)
(1.21973 0.05687 1.78407e-21)
(1.22449 0.0527695 -4.374e-21)
(1.24046 0.0444715 -2.22926e-21)
(0.0826585 -0.119391 0)
(0.0696361 -0.0480539 0)
(0.152132 0.0103241 -1.42987e-19)
(0.259863 0.0615981 -5.44836e-20)
(0.372683 0.0989108 -4.22414e-20)
(0.481269 0.124717 1.47605e-19)
(0.581001 0.141375 -3.16678e-20)
(0.670098 0.150991 4.87649e-20)
(0.748618 0.155113 0)
(0.816904 0.154957 0)
(0.875769 0.151568 2.58807e-21)
(0.926217 0.145766 1.59624e-21)
(0.969324 0.138203 -1.3245e-20)
(1.00616 0.129406 2.41488e-20)
(1.03774 0.119811 -8.43133e-21)
(1.06496 0.109798 0)
(1.08861 0.099727 0)
(1.10952 0.0898615 0)
(1.12805 0.0804934 -8.53927e-22)
(1.14486 0.0716024 1.68378e-22)
(1.15948 0.0637751 8.86139e-22)
(1.17449 0.0560336 8.94856e-22)
(1.18425 0.0506422 -1.07591e-21)
(1.21245 0.0418853 3.42825e-21)
(0.0925499 -0.0956833 7.25063e-20)
(0.0772267 -0.0560921 0)
(0.128051 -0.0117243 0)
(0.205852 0.0332496 1.07043e-19)
(0.293702 0.0696705 -2.24972e-20)
(0.382381 0.0974711 -1.88908e-20)
(0.467013 0.117906 0)
(0.544885 0.132037 -2.36542e-20)
(0.615065 0.141051 1.78261e-20)
(0.677411 0.145792 -1.6761e-20)
(0.732295 0.147124 0)
(0.780306 0.145695 0)
(0.822175 0.14204 0)
(0.858705 0.13661 -3.78244e-21)
(0.890707 0.129802 8.86901e-21)
(0.918972 0.121971 0)
(0.94423 0.113459 0)
(0.967222 0.104587 0)
(0.988391 0.0956751 1.57482e-21)
(1.00855 0.0868573 -1.49848e-21)
(1.02705 0.0785187 0)
(1.04705 0.0701974 -8.89785e-22)
(1.06115 0.0633247 -8.76496e-22)
(1.09271 0.0525041 0)
(0.0759813 -0.0790167 -1.45703e-20)
(0.0661264 -0.0569675 -5.44701e-20)
(0.0987523 -0.0238944 1.36416e-20)
(0.153328 0.0135563 -7.92998e-20)
(0.21877 0.0470718 4.27664e-20)
(0.287548 0.0751629 5.10007e-20)
(0.354906 0.0978817 -1.5253e-20)
(0.41825 0.115826 2.35522e-20)
(0.476116 0.129433 0)
(0.527955 0.139273 1.58848e-20)
(0.573671 0.145945 0)
(0.613596 0.149804 1.01966e-20)
(0.648233 0.151195 7.90724e-21)
(0.678218 0.150418 -5.47146e-21)
(0.704254 0.147742 0)
(0.727084 0.143419 0)
(0.747454 0.1377 1.91646e-21)
(0.766112 0.13084 -2.19305e-21)
(0.783711 0.123097 3.42509e-22)
(0.800924 0.114765 2.76042e-21)
(0.817984 0.106082 -2.0854e-21)
(0.835881 0.0974295 2.61782e-21)
(0.853257 0.0886667 -5.66181e-21)
(0.875984 0.0780437 2.70601e-21)
(0.0518152 -0.0672545 -9.42447e-20)
(0.0454029 -0.0554507 7.12206e-20)
(0.0669693 -0.0311589 -7.26191e-20)
(0.104594 -0.000572765 3.81315e-20)
(0.151551 0.0294089 6.20713e-20)
(0.20227 0.0567287 -6.78216e-20)
(0.252868 0.0808088 -2.78942e-20)
(0.300996 0.101601 0)
(0.345187 0.119167 -1.92568e-20)
(0.384787 0.133734 -1.57635e-20)
(0.419489 0.145454 0)
(0.449434 0.154429 -1.01065e-20)
(0.474985 0.160766 -1.6145e-20)
(0.496674 0.164534 6.41407e-21)
(0.515146 0.165792 0)
(0.531111 0.164612 0)
(0.545306 0.161112 0)
(0.558477 0.155454 1.37346e-21)
(0.571341 0.147866 -1.31687e-21)
(0.584569 0.138692 -1.02944e-22)
(0.598712 0.128342 -5.61698e-22)
(0.614254 0.11738 5.99601e-22)
(0.630952 0.106376 -1.31612e-22)
(0.647177 0.0959543 -1.20471e-22)
(0.02607 -0.0589921 9.58018e-21)
(0.021469 -0.0540443 -8.54208e-21)
(0.0360324 -0.0365175 7.12122e-20)
(0.0619671 -0.0116891 -6.05212e-20)
(0.0950266 0.014842 -3.99684e-20)
(0.131164 0.0408539 1.71702e-20)
(0.167501 0.0654204 2.76235e-20)
(0.202162 0.0881049 -1.07612e-20)
(0.233962 0.108645 2.0233e-20)
(0.262267 0.126887 8.39439e-21)
(0.286821 0.142659 0)
(0.307685 0.155768 9.72147e-21)
(0.32513 0.166026 -9.68302e-22)
(0.339584 0.173261 -4.28383e-22)
(0.351592 0.177328 -5.64422e-21)
(0.361782 0.178126 0)
(0.370831 0.175618 0)
(0.379451 0.169838 0)
(0.388375 0.16094 0)
(0.398281 0.149237 1.02031e-22)
(0.40991 0.135247 5.89967e-23)
(0.423732 0.11992 -5.68365e-23)
(0.438917 0.104925 7.13455e-23)
(0.452479 0.0927064 0)
(0.00118307 -0.053625 -2.33058e-20)
(-0.00212961 -0.053639 2.42699e-22)
(0.00827151 -0.0414758 9.96283e-21)
(0.026721 -0.0214342 -1.69262e-20)
(0.0503431 0.00196469 4.4408e-21)
(0.0760806 0.0264902 4.21887e-21)
(0.101822 0.0509763 0)
(0.1262 0.0747157 0)
(0.148371 0.0971847 -4.30626e-21)
(0.167848 0.117935 0)
(0.184462 0.13653 0)
(0.198289 0.15253 0)
(0.209559 0.165513 0)
(0.218647 0.17508 0)
(0.226027 0.180866 -1.30054e-21)
(0.232251 0.182562 0)
(0.237921 0.179936 -2.55431e-21)
(0.243715 0.172829 2.4446e-21)
(0.250307 0.16126 0)
(0.258451 0.145479 0)
(0.268725 0.126129 8.82983e-22)
(0.281309 0.104662 -1.2826e-21)
(0.29535 0.0839554 5.08106e-22)
(0.309504 0.0692083 -9.23475e-23)
(-0.0215676 -0.0505034 1.84939e-20)
(-0.0232666 -0.0546088 0)
(-0.0147301 -0.0469323 0)
(-0.000287881 -0.0308886 1.09248e-20)
(0.017832 -0.0102544 0)
(0.0372428 0.0127604 1.00784e-20)
(0.0563606 0.0367943 -7.9539e-22)
(0.0742525 0.0609239 -5.93468e-22)
(0.0903864 0.0844164 3.71357e-21)
(0.10458 0.106623 0)
(0.116851 0.126898 -6.55746e-22)
(0.127321 0.144575 1.08431e-21)
(0.136244 0.15901 -6.66631e-23)
(0.144076 0.169652 0)
(0.151188 0.175956 9.91465e-22)
(0.158015 0.17745 5.76418e-22)
(0.164994 0.173776 0)
(0.172611 0.164657 1.45059e-22)
(0.181276 0.150091 -5.22978e-23)
(0.191336 0.130423 -1.31976e-22)
(0.202988 0.106632 -3.97093e-22)
(0.216617 0.0813252 9.081e-23)
(0.232475 0.0576454 1.48674e-22)
(0.251276 0.0421485 1.31889e-22)
(-0.0414505 -0.0492139 -3.57505e-20)
(-0.0407092 -0.0571184 2.60632e-20)
(-0.0318068 -0.0533937 3.24274e-21)
(-0.0183413 -0.0407823 -1.97723e-20)
(-0.00225331 -0.0226172 -1.9835e-20)
(0.0147264 -0.00105252 1.84589e-21)
(0.0314408 0.0224011 -1.03124e-20)
(0.0471996 0.0465766 -7.12162e-21)
(0.061697 0.0705605 6.67504e-21)
(0.0748616 0.0935249 -2.76807e-21)
(0.0867922 0.114687 3.26236e-21)
(0.0976742 0.13327 -5.38606e-22)
(0.107748 0.148502 -4.97726e-21)
(0.117185 0.159636 4.10355e-21)
(0.126341 0.166065 -2.80651e-21)
(0.135573 0.167253 0)
(0.145226 0.162774 0)
(0.155637 0.152354 1.71239e-21)
(0.167118 0.135984 -1.35347e-21)
(0.179934 0.114021 -1.19288e-22)
(0.194292 0.0873607 0)
(0.210465 0.057331 5.00406e-23)
(0.230679 0.0284905 -3.61422e-24)
(0.257858 0.00891366 -3.93395e-23)
(-0.058026 -0.0495345 7.114e-20)
(-0.0536062 -0.06121 -5.86355e-20)
(-0.0421536 -0.061129 -2.34819e-20)
(-0.0269847 -0.0515553 9.70996e-22)
(-0.00993477 -0.0355927 1.091e-21)
(0.00762111 -0.0154516 -1.72827e-20)
(0.0248506 0.00723747 1.55351e-20)
(0.0413266 0.0311887 8.25773e-21)
(0.0569145 0.0552676 -1.21704e-20)
(0.0716452 0.0784815 -4.31479e-21)
(0.0856914 0.0999194 2.15612e-22)
(0.0993157 0.118742 -6.18259e-21)
(0.112816 0.134156 2.97646e-21)
(0.126489 0.145389 0)
(0.140624 0.151709 0)
(0.155515 0.152466 0)
(0.17146 0.147121 0)
(0.188764 0.135281 -4.64707e-21)
(0.207746 0.116778 1.53409e-21)
(0.228742 0.0918106 1.19104e-21)
(0.252144 0.0612249 -3.65594e-21)
(0.278368 0.027039 1.59295e-21)
(0.308644 -0.00632153 1.568e-21)
(0.345247 -0.0305729 -1.32958e-22)
(-0.0709487 -0.05127 -1.06717e-19)
(-0.0612286 -0.0668714 4.27237e-20)
(-0.0450395 -0.0702412 3.70555e-22)
(-0.0256821 -0.0633722 2.00855e-20)
(-0.00505027 -0.0493538 6.28501e-20)
(0.015773 -0.0305144 2.02585e-20)
(0.0362741 -0.00864999 -1.56115e-20)
(0.0562857 0.014833 0)
(0.0758745 0.0387185 1.44221e-20)
(0.0952516 0.061936 -1.05036e-20)
(0.114691 0.0834887 3.40036e-21)
(0.134508 0.10245 6.54689e-21)
(0.155031 0.117952 -3.20314e-21)
(0.176581 0.129178 0)
(0.199463 0.135371 3.38228e-21)
(0.223949 0.135839 -1.17058e-22)
(0.250276 0.13 3.3772e-21)
(0.278627 0.117402 -1.09238e-20)
(0.309119 0.0977671 1.80471e-20)
(0.3418 0.0710713 -9.2101e-21)
(0.376567 0.0377634 0)
(0.413516 -0.000722749 -3.89307e-21)
(0.452906 -0.0403782 4.22474e-21)
(0.496556 -0.0708416 -1.55023e-22)
(-0.0798628 -0.0542754 1.43318e-19)
(-0.0628822 -0.0739665 0)
(-0.0396083 -0.0806451 0)
(-0.0136249 -0.0761029 -1.57939e-20)
(0.0130534 -0.0636698 -1.2816e-20)
(0.0396306 -0.0458632 -3.02591e-20)
(0.0658759 -0.0246658 -5.26534e-21)
(0.0918908 -0.00164505 1.18989e-20)
(0.117943 0.0219095 0)
(0.144392 0.0448511 1.11056e-20)
(0.171624 0.0661399 -9.41908e-22)
(0.200032 0.0848109 -4.30503e-21)
(0.229977 0.0999743 5.36504e-22)
(0.261776 0.110809 5.14069e-21)
(0.295689 0.116575 -4.90986e-21)
(0.33189 0.116612 -3.12322e-21)
(0.370458 0.110357 -3.38231e-21)
(0.411341 0.0973823 -4.21901e-21)
(0.45437 0.0774278 7.73304e-21)
(0.499197 0.0504808 -1.60895e-20)
(0.545235 0.0169183 1.5297e-20)
(0.59199 -0.0221464 6.94569e-21)
(0.638235 -0.0638374 -9.6289e-21)
(0.687338 -0.0976459 1.89355e-22)
(-0.0844281 -0.0583745 -8.94578e-20)
(-0.0577145 -0.0823386 2.85944e-20)
(-0.0247915 -0.092065 -1.19707e-20)
(0.01025 -0.0893466 -3.18672e-20)
(0.0452589 -0.0780172 2.28013e-20)
(0.0797636 -0.0609154 3.4119e-20)
(0.113826 -0.0402199 0)
(0.147807 -0.0176182 -6.63684e-21)
(0.182171 0.00551459 6.21845e-21)
(0.217406 0.0279972 -2.57042e-21)
(0.253979 0.0487782 2.4269e-21)
(0.292311 0.0668975 0)
(0.332777 0.0814756 0)
(0.375669 0.0917101 -3.21387e-21)
(0.421154 0.0968905 7.34797e-21)
(0.469238 0.09644 -4.09646e-21)
(0.519796 0.0898988 -2.7005e-21)
(0.572523 0.0770611 -1.53674e-20)
(0.626877 0.0579505 1.0821e-20)
(0.682052 0.0328053 7.78314e-21)
(0.736862 0.00216041 0)
(0.790623 -0.0330063 -9.18325e-21)
(0.840188 -0.0710148 9.22057e-21)
(0.895909 -0.103136 -3.61474e-22)
(-0.0842072 -0.0634412 1.48021e-19)
(-0.0446614 -0.0916918 1.00042e-19)
(0.000728216 -0.103968 -8.48895e-20)
(0.0472479 -0.102314 1.06223e-19)
(0.0926628 -0.0914046 -5.43818e-20)
(0.136913 -0.0744856 1.38763e-20)
(0.180404 -0.0539351 -2.86792e-21)
(0.223744 -0.031537 7.0625e-21)
(0.267556 -0.00870523 0)
(0.312469 0.0133424 1.39616e-22)
(0.359025 0.0335182 -1.52165e-21)
(0.407693 0.0508515 -1.99026e-21)
(0.458782 0.0645503 -1.57718e-21)
(0.512433 0.0739626 -5.51918e-22)
(0.568573 0.078513 8.45402e-22)
(0.626992 0.0777744 -5.93274e-21)
(0.68726 0.071478 1.45224e-20)
(0.748724 0.0594987 0)
(0.810463 0.0420719 -1.3883e-20)
(0.871559 0.019704 9.63887e-21)
(0.930504 -0.0068595 0)
(0.987312 -0.0361406 -4.59846e-21)
(1.03572 -0.0673784 8.20917e-21)
(1.09817 -0.093255 -7.60832e-22)
(-0.0786184 -0.0693385 -1.69673e-19)
(-0.022377 -0.101563 1.63682e-20)
(0.0385128 -0.115491 8.55401e-20)
(0.0987996 -0.113783 -6.0836e-20)
(0.156385 -0.102334 -5.38266e-20)
(0.21177 -0.0848202 1.52797e-20)
(0.265764 -0.063808 -1.62673e-20)
(0.319305 -0.0412328 0)
(0.373265 -0.0185702 -8.05298e-22)
(0.428315 0.00304137 2.65664e-21)
(0.484948 0.022656 2.52301e-21)
(0.543459 0.0394033 -1.20519e-21)
(0.603887 0.0524843 -6.9449e-22)
(0.666144 0.0612655 3.63666e-21)
(0.729987 0.0653127 -1.71799e-21)
(0.795071 0.0643792 2.05238e-21)
(0.860757 0.0584342 -9.84647e-21)
(0.926415 0.0476461 0)
(0.990895 0.0324084 0)
(1.0535 0.0133212 -3.6627e-21)
(1.1123 -0.00907825 7.8e-21)
(1.1683 -0.0326032 -6.01953e-21)
(1.2111 -0.0577772 0)
(1.27531 -0.07458 0)
(-0.0668798 -0.0759186 5.80238e-20)
(0.0108107 -0.11125 -1.50943e-19)
(0.0902567 -0.125363 0)
(0.166254 -0.122077 2.37254e-20)
(0.237267 -0.108809 3.02167e-20)
(0.304685 -0.0897683 -1.32909e-20)
(0.369976 -0.0677302 3.04934e-21)
(0.434252 -0.0444655 -2.90638e-21)
(0.498293 -0.0214012 5.91297e-22)
(0.562628 0.000230244 0)
(0.627576 0.019476 0)
(0.693298 0.0355638 -7.05038e-21)
(0.759838 0.0479029 0)
(0.827156 0.0560966 0)
(0.894966 0.0598539 -3.43948e-21)
(0.962834 0.0590601 1.86961e-22)
(1.02987 0.0537117 2.29253e-21)
(1.09567 0.0440417 0)
(1.15821 0.0302786 0)
(1.21828 0.0134883 3.67896e-21)
(1.26983 -0.00522022 0)
(1.3132 -0.0224509 -5.27031e-21)
(1.33606 -0.0410407 -6.74986e-21)
(1.37672 -0.0483455 1.08357e-20)
(-0.0479268 -0.0829883 0)
(0.0569022 -0.119679 0)
(0.157583 -0.131848 -1.75905e-20)
(0.250517 -0.125114 1.59501e-20)
(0.335668 -0.108721 0)
(0.415576 -0.0871373 -8.99084e-21)
(0.491815 -0.0631193 -5.35195e-21)
(0.565505 -0.0386976 0)
(0.637464 -0.0151718 -1.82481e-22)
(0.70835 0.00646513 1.46401e-20)
(0.778607 0.0254032 -1.72122e-20)
(0.848492 0.041039 7.11294e-21)
(0.918003 0.0528295 0)
(0.986982 0.060407 -1.08514e-20)
(1.05491 0.0635577 2.18465e-20)
(1.12126 0.0622208 -7.66449e-21)
(1.18507 0.0564579 -7.35799e-22)
(1.24491 0.0468783 3.55787e-22)
(1.29616 0.0346808 7.11094e-21)
(1.3338 0.0213977 -3.82037e-21)
(1.35922 0.00752372 1.20822e-20)
(1.37612 -0.00487244 -1.15739e-20)
(1.3821 -0.0198423 -1.67789e-20)
(1.40414 -0.0224825 2.12265e-20)
(-0.0202632 -0.0901937 1.75572e-19)
(0.118145 -0.125254 0)
(0.241677 -0.132758 -7.90014e-20)
(0.351825 -0.120669 -4.82392e-20)
(0.450626 -0.0997605 0)
(0.541268 -0.0749041 1.48651e-20)
(0.625923 -0.0488578 0)
(0.706205 -0.0231704 4.949e-21)
(0.783319 0.000935678 2.47055e-21)
(0.857922 0.0225753 -8.5633e-21)
(0.930356 0.0410066 -1.09553e-21)
(1.00072 0.0556659 1.00188e-20)
(1.06882 0.0661408 0)
(1.1345 0.0721399 9.52591e-21)
(1.19733 0.0735679 1.37048e-20)
(1.25484 0.0707406 -4.89857e-21)
(1.30212 0.0645139 0)
(1.33572 0.0557728 -2.23805e-20)
(1.3593 0.0454888 2.21013e-20)
(1.37497 0.0342154 -1.0733e-20)
(1.38456 0.0210791 -2.7466e-20)
(1.38969 0.00828347 2.01494e-20)
(1.38862 -0.00196831 -5.84035e-21)
(1.39401 0.0035745 -5.06292e-21)
(0.0182776 -0.0966962 -1.93582e-19)
(0.196783 -0.125735 3.55965e-20)
(0.342887 -0.125547 7.98358e-20)
(0.468298 -0.106488 3.73713e-21)
(0.577497 -0.0806785 0)
(0.675517 -0.0526382 0)
(0.765468 -0.0246276 3.13641e-21)
(0.84928 0.00185761 -7.91845e-21)
(0.927962 0.0258665 -1.1e-20)
(1.00194 0.0465926 -1.98219e-21)
(1.07139 0.0633926 0)
(1.13654 0.0758277 -1.29942e-20)
(1.19728 0.083534 1.2721e-20)
(1.25267 0.0867005 -9.52022e-21)
(1.29655 0.08562 0)
(1.32742 0.0810478 -8.05396e-21)
(1.34918 0.0739848 -1.85758e-20)
(1.36409 0.0648038 2.4931e-20)
(1.37438 0.0533227 0)
(1.38137 0.0412407 0)
(1.38415 0.0305189 6.4407e-21)
(1.38004 0.0206275 0)
(1.36727 0.014506 -1.45867e-20)
(1.36178 0.0237034 3.07316e-20)
(0.0709251 -0.10034 1.46207e-19)
(0.294448 -0.118071 -6.10602e-20)
(0.459274 -0.107739 -2.34773e-20)
(0.594584 -0.0815116 4.52751e-20)
(0.709843 -0.051376 1.99919e-20)
(0.811296 -0.0210446 0)
(0.9024 0.00763721 -3.13826e-21)
(0.984982 0.0336047 0)
(1.05968 0.0559428 0)
(1.12686 0.0739871 1.22397e-20)
(1.187 0.0872457 1.23253e-21)
(1.24087 0.0957351 1.29313e-20)
(1.28451 0.0993921 -3.99026e-20)
(1.31445 0.0985485 2.76552e-20)
(1.33514 0.0945666 -2.5901e-20)
(1.34936 0.087879 0)
(1.35956 0.0786987 1.34946e-20)
(1.36754 0.0684983 0)
(1.37175 0.0583323 0)
(1.37029 0.047885 0)
(1.36287 0.0378492 3.96282e-20)
(1.35017 0.0291384 -4.83917e-20)
(1.33372 0.0247962 2.77393e-20)
(1.31756 0.0387161 -2.52644e-20)
(0.142801 -0.0957533 -1.91801e-19)
(0.410247 -0.0987567 2.4581e-19)
(0.585176 -0.0778066 0)
(0.723756 -0.0461146 -1.49577e-20)
(0.839703 -0.0137046 -6.47726e-21)
(0.939436 0.016772 0)
(1.02646 0.0441593 3.15841e-21)
(1.1019 0.0674212 1.09852e-20)
(1.16639 0.0858455 0)
(1.22081 0.0990323 3.03835e-20)
(1.26659 0.107349 -3.21696e-20)
(1.29909 0.110321 1.30503e-20)
(1.32039 0.10938 0)
(1.33438 0.105237 -3.26564e-20)
(1.34405 0.098367 1.42788e-20)
(1.35195 0.0901817 0)
(1.35668 0.0811204 -1.37612e-20)
(1.35666 0.0711281 0)
(1.35189 0.0609105 0)
(1.3428 0.0509688 -1.43337e-20)
(1.32983 0.0418912 0)
(1.31327 0.0347213 -2.37104e-21)
(1.29387 0.0334166 4.42316e-20)
(1.27148 0.0489041 -5.2519e-20)
(0.242962 -0.0737831 3.18153e-20)
(0.538009 -0.0650123 -1.21791e-19)
(0.712165 -0.0361249 0)
(0.846798 -0.00290348 0)
(0.957733 0.0284709 0)
(1.05109 0.0565364 1.31869e-21)
(1.1287 0.0801556 8.59788e-21)
(1.19166 0.0984289 -3.45529e-20)
(1.24139 0.11101 1.33348e-20)
(1.28003 0.118505 1.61191e-20)
(1.30535 0.120738 0)
(1.3209 0.119069 5.8042e-20)
(1.33049 0.114477 2.07332e-20)
(1.3375 0.107903 -3.73002e-20)
(1.34226 0.100328 1.77211e-20)
(1.34282 0.0913467 0)
(1.33941 0.0815354 0)
(1.33266 0.0713494 0)
(1.32308 0.0614326 -1.76797e-20)
(1.31091 0.0524097 -4.67915e-20)
(1.2959 0.0445818 5.78433e-20)
(1.27758 0.0390022 2.75169e-20)
(1.2563 0.0402779 -1.55988e-20)
(1.23013 0.0563598 0)
(0.381944 -0.0222144 0)
(0.663143 -0.0141895 -2.13898e-20)
(0.828 0.0141158 1.87704e-20)
(0.954324 0.0435549 0)
(1.0574 0.0707812 -5.62746e-21)
(1.14049 0.0941058 -9.01319e-21)
(1.20476 0.111955 2.82112e-21)
(1.25235 0.123787 -4.81493e-22)
(1.2863 0.130211 1.96794e-20)
(1.30751 0.131576 3.42932e-21)
(1.31934 0.129221 7.04115e-22)
(1.32611 0.123914 2.42624e-20)
(1.3305 0.117443 -4.63762e-20)
(1.33139 0.109904 4.39105e-20)
(1.3287 0.100849 4.45155e-20)
(1.32326 0.0909657 -1.08153e-19)
(1.31575 0.0809246 4.08568e-20)
(1.30646 0.0712301 -1.82798e-20)
(1.29539 0.0622498 7.46986e-20)
(1.28221 0.0543004 1.89332e-20)
(1.26611 0.0475783 1.78968e-20)
(1.24639 0.0432992 -6.47154e-20)
(1.22347 0.0464353 3.30605e-20)
(1.19511 0.0626614 8.06114e-20)
(0.551602 0.0763438 0)
(0.766774 0.0503685 -5.38004e-20)
(0.921962 0.0663462 -1.46647e-20)
(1.04194 0.0884972 -6.95569e-21)
(1.13612 0.109945 1.42032e-20)
(1.20642 0.127016 3.93994e-21)
(1.25572 0.138156 0)
(1.28816 0.143513 -1.70219e-20)
(1.30757 0.144113 0)
(1.31726 0.140613 -2.24277e-20)
(1.32188 0.134923 -2.34901e-20)
(1.3232 0.128444 -2.41428e-20)
(1.32107 0.120086 0)
(1.31635 0.110581 0)
(1.30987 0.100685 0)
(1.3021 0.0907969 2.25744e-20)
(1.29314 0.0811993 0)
(1.28283 0.0721387 -4.43256e-20)
(1.27083 0.0639005 -1.97154e-20)
(1.2566 0.0566994 -3.99221e-20)
(1.23927 0.0507268 -5.59088e-20)
(1.21826 0.0472963 -4.81085e-22)
(1.19413 0.0515099 -1.801e-20)
(1.16456 0.0673051 -3.54524e-20)
(-0.0775871 -0.045951 -2.10228e-19)
(-0.16507 -0.160995 1.48032e-19)
(-0.183063 -0.195756 0)
(-0.144764 -0.141696 1.5546e-19)
(-0.0585121 -0.056037 -1.599e-19)
(0.126531 0.257402 0)
(-0.133471 -0.077478 3.84775e-19)
(-0.181481 -0.155855 -1.39739e-19)
(-0.169469 -0.169412 0)
(-0.0977525 -0.098428 -1.66924e-20)
(0.0219977 -0.00879285 1.62145e-19)
(0.23726 0.169436 8.83952e-20)
(-0.150953 -0.0860665 -1.78568e-19)
(-0.182032 -0.138618 8.8101e-21)
(-0.140017 -0.140233 -6.68299e-21)
(-0.0397635 -0.0709594 -1.03076e-19)
(0.11381 0.0166403 3.44456e-20)
(0.331568 0.147438 -7.00988e-20)
(-0.16817 -0.0904123 -8.89482e-20)
(-0.180169 -0.126869 6.13533e-20)
(-0.112786 -0.115251 0)
(0.0113901 -0.050337 -1.20381e-20)
(0.187453 0.0336894 -3.45059e-20)
(0.414194 0.138133 -4.02255e-20)
(-0.196456 -0.0845431 1.25812e-21)
(-0.176498 -0.116114 -5.64027e-20)
(-0.087981 -0.0947412 0)
(0.0559884 -0.0342332 0)
(0.249268 0.044825 -2.72954e-20)
(0.484168 0.134671 -1.28311e-20)
(-0.212454 -0.0814427 8.9229e-20)
(-0.171568 -0.105156 1.67838e-21)
(-0.0660271 -0.0778554 2.06576e-20)
(0.0942523 -0.0212836 4.85978e-21)
(0.301692 0.0531156 3.139e-20)
(0.543472 0.135675 0)
(-0.225884 -0.0787001 2.14751e-20)
(-0.166521 -0.0947379 0)
(-0.0474133 -0.0638023 -2.99135e-20)
(0.126273 -0.0106105 -2.29269e-21)
(0.34598 0.0603021 2.02795e-21)
(0.594237 0.140329 7.02945e-21)
(-0.237886 -0.0766489 -2.13225e-20)
(-0.162125 -0.085063 -9.35365e-23)
(-0.0325196 -0.0519933 9.561e-21)
(0.152081 -0.00168641 4.2542e-21)
(0.382816 0.0671564 0)
(0.637567 0.147892 -7.06941e-21)
(-0.247887 -0.0754644 3.14766e-22)
(-0.158869 -0.0761287 -7.1405e-22)
(-0.0216126 -0.0420076 5.66975e-22)
(0.171712 0.00576269 -4.26131e-21)
(0.412642 0.0737628 2.02552e-21)
(0.673912 0.157461 -1.8416e-21)
(-0.255505 -0.0749919 0)
(-0.15707 -0.0678496 0)
(-0.0148897 -0.0335215 0)
(0.185155 0.011845 2.15237e-21)
(0.435628 0.0799055 1.83859e-20)
(0.703483 0.16807 1.21042e-20)
(-0.260683 -0.0748946 7.33554e-20)
(-0.156939 -0.060095 0)
(-0.012509 -0.0262621 3.3671e-20)
(0.192311 0.0165861 0)
(0.451735 0.0853138 1.64811e-20)
(0.72642 0.178868 -1.59674e-20)
(-0.263521 -0.0747539 -7.33914e-20)
(-0.158605 -0.0527072 -2.64428e-21)
(-0.0145945 -0.0199801 -3.17787e-20)
(0.193009 0.0199838 0)
(0.460754 0.0897281 -3.2998e-20)
(0.742772 0.1892 0)
(-0.264007 -0.0740729 2.20785e-21)
(-0.16215 -0.0455499 0)
(-0.0212244 -0.014425 6.54444e-20)
(0.18702 0.0220377 0)
(0.462303 0.0929372 -9.15198e-21)
(0.752692 0.19856 8.12249e-20)
(-0.262214 -0.0723295 -1.41225e-19)
(-0.167479 -0.0385083 2.58084e-21)
(-0.0324867 -0.00935713 -6.61851e-20)
(0.174071 0.0227624 0)
(0.455827 0.0947354 0)
(0.756044 0.20638 -9.30813e-20)
(-0.258372 -0.0690654 2.76004e-19)
(-0.174348 -0.0314356 0)
(-0.0483923 -0.00453493 5.5776e-20)
(0.153877 0.0221748 7.43542e-21)
(0.440584 0.0948927 1.94423e-20)
(0.752401 0.211952 -9.5663e-20)
(-0.252748 -0.0637884 -1.393e-19)
(-0.18251 -0.0242082 -8.19724e-20)
(-0.0687844 0.000269542 -1.40707e-20)
(0.126183 0.0203525 7.32451e-21)
(0.415617 0.0932167 0)
(0.741227 0.214545 2.03436e-20)
(-0.246133 -0.0559734 0)
(-0.191619 -0.0167649 8.96711e-20)
(-0.0933132 0.00524814 -6.50229e-20)
(0.090797 0.0174542 0)
(0.379669 0.0896292 0)
(0.72162 0.213258 8.04222e-20)
(-0.241707 -0.0458168 0)
(-0.201327 -0.00928272 0)
(-0.121287 0.0105171 5.47062e-20)
(0.0477641 0.0137811 6.14087e-20)
(0.331134 0.0842547 8.96606e-20)
(0.692224 0.206864 -1.78482e-20)
(-0.232881 -0.0211843 0)
(-0.210182 -0.00256692 0)
(-0.151347 0.0160707 -6.42931e-20)
(-0.00237755 0.00985391 -5.35697e-21)
(0.267933 0.0776663 -7.05835e-20)
(0.650999 0.193657 9.91021e-20)
(-0.217793 -0.00962543 -8.88688e-21)
(-0.215406 0.00200604 5.78481e-21)
(-0.181476 0.0218572 0)
(-0.0579545 0.00638729 -9.57582e-20)
(0.187379 0.0712216 -1.88502e-20)
(0.594897 0.171299 -1.27629e-19)
(-0.198989 -0.00351793 6.75695e-21)
(-0.21751 0.00716362 -5.82082e-21)
(-0.209189 0.0285504 0)
(-0.115264 0.00406105 8.42035e-20)
(0.0856541 0.0676437 -1.694e-20)
(0.51949 0.136026 8.33622e-20)
(-0.177783 0.00328912 -3.79437e-21)
(-0.215666 0.0128921 -2.62176e-21)
(-0.23413 0.0371278 4.4915e-21)
(-0.16766 0.00294656 -3.3224e-20)
(-0.0432222 0.0715635 -5.66633e-21)
(0.4186 0.0791281 2.12785e-20)
(-0.152789 0.008289 2.33817e-21)
(-0.206656 0.0188129 1.10502e-19)
(-0.255047 0.0468185 6.06502e-20)
(-0.208564 0.00252006 -6.1469e-21)
(-0.208935 0.0829967 4.93223e-20)
(0.297371 -0.0103764 5.83538e-21)
(-0.0882518 0.00302202 -1.72711e-19)
(-0.160306 0.0128426 -1.23616e-19)
(-0.248652 0.0526255 -6.38339e-20)
(-0.218434 0.0176313 0)
(-0.37845 0.130213 -5.2363e-20)
(0.201223 -0.0124378 0)
(0.653119 0.186467 0)
(0.842463 0.10947 8.1792e-20)
(0.994011 0.111427 1.55638e-20)
(1.11064 0.12834 0)
(1.19476 0.144206 0)
(1.25115 0.154651 6.98336e-21)
(1.28607 0.159173 1.82593e-20)
(1.30564 0.158768 1.57259e-20)
(1.31455 0.154412 0)
(1.31744 0.148102 0)
(1.31625 0.140196 3.08725e-20)
(1.31214 0.13097 -1.11493e-21)
(1.30616 0.121112 -5.76298e-20)
(1.299 0.111075 5.79139e-20)
(1.29096 0.101128 -2.92875e-20)
(1.28204 0.0914602 0)
(1.27211 0.0822357 0)
(1.26087 0.0736367 -2.61606e-20)
(1.24799 0.0659107 2.19061e-20)
(1.23287 0.0592162 -2.69305e-21)
(1.2147 0.053696 -2.25553e-20)
(1.19294 0.0507068 1.95358e-20)
(1.16815 0.055337 -2.34158e-20)
(1.13805 0.0702406 1.87814e-20)
(0.681444 0.178473 0)
(0.895273 0.140416 0)
(1.05238 0.147903 -2.61625e-20)
(1.16375 0.163052 9.37415e-22)
(1.23574 0.173482 7.1567e-21)
(1.27836 0.177439 -3.25498e-20)
(1.30096 0.175961 1.02405e-20)
(1.31068 0.170598 -2.57895e-20)
(1.31267 0.162817 0)
(1.31005 0.153543 0)
(1.30471 0.143382 3.01775e-21)
(1.29787 0.132905 -8.98616e-22)
(1.29014 0.122451 3.27709e-20)
(1.28174 0.112207 -6.06467e-20)
(1.27272 0.102287 2.89313e-20)
(1.26299 0.0927877 0)
(1.25235 0.0838226 0)
(1.24051 0.0755363 0)
(1.22706 0.0681277 3.81834e-20)
(1.21138 0.0617139 2.33481e-20)
(1.19269 0.0563774 2.22865e-20)
(1.17051 0.053498 1.22942e-20)
(1.14538 0.0581196 -1.09928e-20)
(1.11528 0.0719657 4.6669e-20)
(0.713681 0.178461 9.65207e-21)
(0.945205 0.168819 0)
(1.10211 0.181639 0)
(1.20297 0.193698 -7.37334e-21)
(1.26153 0.198166 5.54875e-21)
(1.29186 0.196012 5.19444e-21)
(1.30477 0.189365 0)
(1.30748 0.180009 1.84404e-20)
(1.30449 0.169228 -1.86979e-20)
(1.2985 0.157841 1.74593e-20)
(1.29103 0.146398 0)
(1.28278 0.135186 0)
(1.27406 0.124349 0)
(1.26492 0.113958 1.6835e-20)
(1.25532 0.104054 -3.30082e-20)
(1.2451 0.0946733 0)
(1.23402 0.0858771 0)
(1.22175 0.0777713 0)
(1.20787 0.0705091 4.35171e-20)
(1.1918 0.0641728 -5.42352e-20)
(1.17282 0.0587891 0)
(1.1505 0.0557156 -1.22085e-20)
(1.12533 0.0599936 -1.28862e-20)
(1.09568 0.0727115 0)
(0.756715 0.182665 -7.32615e-21)
(0.991395 0.195806 3.43068e-21)
(1.14107 0.211787 -3.1064e-21)
(1.22889 0.219595 9.65393e-21)
(1.27483 0.218319 -1.11736e-20)
(1.29522 0.210952 -2.78843e-20)
(1.301 0.200149 8.48442e-21)
(1.29891 0.187695 -1.83468e-20)
(1.29286 0.174709 0)
(1.28501 0.161864 -2.18501e-20)
(1.2764 0.149496 0)