/*--------------------------------*- C++ -*----------------------------------*  =========                 |
  \      /  F ield         | OpenFOAM: The Open Source CFD Toolbox
   \    /   O peration     | Website:  https://openfoam.org
    \  /    A nd           | Version:  11
     \/     M anipulation  |
\*---------------------------------------------------------------------------*/
FoamFile
{
    format      ascii;
    class       volScalarField;
    object      U;
}
// * * * * * * * * * * * * * * * * * * * * * * * * * * * * * * * * * * * * * //

dimensions      [0 1 -1 0 0 0 0];

internalField   nonuniform List<scalar> 
2880
( 
0.0722890756231787
0.14199739979629383
0.2215548281354789
0.2694274075976821
0.3397440876314405
0.4484939190003494
0.10124781575223639
0.17190230308522583
0.24442104157264416
0.28823077166728794
0.35068093246180265
0.420699065610224
0.11479310450064904
0.1824043190223857
0.24824321784177225
0.2909881864579905
0.35459188340578024
0.42857930209389083
0.12693645262883543
0.19002123244739305
0.24909563745404018
0.29136278071717214
0.3575243047598335
0.4367591119235067
0.13975718090663816
0.1963708397430129
0.2491142983875172
0.2913829557011569
0.35862274048622467
0.44012077378085385
0.15204355424020502
0.20141414255664156
0.2478475922470504
0.2909648903707528
0.3580218668281635
0.4392240840586897
0.16321166813924698
0.20494808246671276
0.2465819091743502
0.2901798307106328
0.35605698986330775
0.43523183989171876
0.1721991877320442
0.20734070879205335
0.2455692700918779
0.289194501426851
0.3537770847589705
0.43001416311399115
0.1796567489876568
0.20896057742639385
0.24435485926230063
0.2879998137198532
0.351129281002732
0.42450316014715095
0.18549533147711794
0.21016627758695472
0.24312753976834853
0.28715850635620227
0.3493256936603236
0.42062216283552917
0.18961001032614253
0.21122888495847575
0.2436669515817816
0.287388255951505
0.34887632835632937
0.4188321141357132
0.19177842041351978
0.2123886489772192
0.24539308398218154
0.28905844353355403
0.3497397889660705
0.417984362256718
0.19207337206991335
0.21318874288485015
0.24773002065173855
0.2922594680791447
0.35241572811150207
0.4196504104790615
0.19037171826550983
0.2136532175818374
0.25014454894523885
0.29662517542338795
0.3574464163813089
0.42463189007577984
0.18650520150530622
0.21361757195723713
0.2524505497962078
0.3010519389957417
0.36305272001636035
0.4305545228364238
0.18092207277911077
0.2129294359179775
0.25473832552083087
0.3048872435583822
0.3683143880745087
0.436773378886794
0.17380565737303275
0.211789911667658
0.2569020339620265
0.3076331830236469
0.37298962447921746
0.4428589620866976
0.1646990106581768
0.20954175072981937
0.2579670391130607
0.3096316917136992
0.3764842233416987
0.4480736256131338
0.15352696107399139
0.20530651942226016
0.2585542410287122
0.3103279035130814
0.37826770685104394
0.45199361045683456
0.14024473336630658
0.19865213904560408
0.25783906803117557
0.3089615336098467
0.378335258451413
0.45343292351204784
0.12528250284652367
0.18959818652831423
0.2554894721191473
0.30706570802492184
0.37622250440670324
0.45135117047413825
0.11037284032749091
0.17793182160000215
0.25095610757160014
0.3032064321093648
0.37265259290870795
0.4443029827125374
0.09411754787903082
0.1631315126920685
0.24206913792936374
0.2953247376864308
0.3695141752293978
0.4339135430440102
0.06418715073475506
0.1299023787772339
0.2157424551782266
0.26943128767646
0.3622171893281787
0.4334024253131432
0.8239351266499074
0.9060228103145843
0.946821972746078
0.9707939735188136
0.9867880539451153
0.9980087872053045
1.0089773607986465
1.0237363940980726
1.0401684459432985
1.056605647726589
1.0719700443351836
1.0855509095581635
1.0955092172963259
1.101658396711309
1.104757706688854
1.1053535603345404
1.1034594081155402
1.099343226590127
1.093687707982546
1.0862479998131942
1.0771427151890953
1.0656972083234746
1.05163383733273
1.0357702150990924
0.7261510003670888
0.8717015763178765
0.9303980015472367
0.9607480736989943
0.9813317558522554
0.9962494859441569
1.0101586919327536
1.028388809151871
1.0488289563174635
1.067163717418524
1.082473770763826
1.0944224493451606
1.1030426763680012
1.1079122215709478
1.1087885221795941
1.1075161094385264
1.104348471378298
1.0995265816910282
1.092690855164364
1.0847249751391403
1.0751100589687095
1.0633804647486944
1.0488232115751894
1.0329028616426992
0.6599858217496428
0.8230924622872934
0.8978503939010339
0.941152981789595
0.9685057180883977
0.9899043995100767
1.0096385544401656
1.0332702008896122
1.0559830971467143
1.0760156151299032
1.0918271214689435
1.1020544624952822
1.1081501528766173
1.1103355958823014
1.110362375024797
1.107893495243722
1.10358603879193
1.0977605507586106
1.0903385600993587
1.0817430680983704
1.071677862471093
1.0595271432474351
1.0451358350550497
1.0288596251026205
0.6190482880944418
0.7720924608939038
0.8580238846200607
0.9115085892558153
0.9478935526051554
0.9773720145636968
1.0075232911862606
1.035940624756658
1.0608046106232556
1.0815658818191423
1.0967147773899268
1.1056118425592718
1.1096370628630283
1.1105047767299188
1.1089876162595762
1.1055695274504047
1.1001724455741644
1.0939280084484904
1.086188523109145
1.0772823745017501
1.0666836068211736
1.0549688118172176
1.0401141938472496
1.0243271852563571
0.5908656315432399
0.7282714956364876
0.8182907454309866
0.8792709825909936
0.9234053779218775
0.9618754712935775
0.9999279025841866
1.034192775318787
1.0624085452987322
1.0828507845603823
1.0965032843870952
1.1042601500289873
1.107088876799151
1.1071486113285378
1.1049171688042303
1.1009186323651818
1.0955352414830837
1.0890180693213762
1.0811633739741362
1.0721513158498388
1.062073886428445
1.0504657145844631
1.0356398861480753
1.019865350128237
0.5686193477457164
0.692513225206032
0.7818619688765416
0.8484828653441691
0.899980020555812
0.9471171973960888
0.991914410505702
1.0303276892861208
1.0599098404726282
1.0802755832054536
1.0921350636153493
1.09831385607722
1.1008876860401797
1.1002923672809368
1.0979737239186702
1.0939329380892477
1.0887446682956567
1.082571994395817
1.0747708859997787
1.0659187928388294
1.056204821557658
1.0447683469395828
1.0303611723687613
1.0150289538273296
0.5495653447107908
0.6631554911766796
0.7514911852354828
0.8214775531011842
0.8807181862994202
0.9365205416808738
0.9855759227318239
1.0256887802744914
1.0551642994338797
1.073861063160357
1.0849468746879862
1.090379319360971
1.0926194062616652
1.0922115088026267
1.0901907771342423
1.08634286446828
1.0816028479064137
1.075590996583819
1.0683312931263353
1.060157273193299
1.0509982349760563
1.0398665863037762
1.025854104570664
1.0119866733701204
0.533364665863477
0.6390981560021691
0.7268445548335255
0.8004757047441797
0.8664355335537874
0.9286115834932924
0.9811563786626607
1.0216748527650803
1.0492545857693039
1.0659349995367322
1.0764040211404555
1.0813152062659328
1.0835939515770108
1.0833588775012466
1.0817372963831635
1.0783113408387934
1.074192300492459
1.0689556338562736
1.0623594948702026
1.0544657938165625
1.046064357392544
1.0357321883508963
1.0228173086467056
1.0092184938042488
0.5203157652622739
0.6212322075757077
0.7093984386866662
0.7851691309130173
0.8585607860681118
0.9250715073993349
0.9789694656861522
1.0175964885991364
1.0423060944520681
1.057868716174291
1.0668903569305996
1.0716558383802206
1.074084949191722
1.0742071275738034
1.0729146089211146
1.0702109817852035
1.0668244169972645
1.0617160384058326
1.056102765524321
1.0495183708332825
1.0417611245368832
1.032688559368499
1.0205025470612354
1.0084668837651647
0.5116952016338071
0.6092006415606815
0.6980477633858524
0.7787911100035849
0.8577704011646469
0.9256956781902369
0.9777626222680513
1.0126489173499242
1.034891480119793
1.0486759799490977
1.0574488600320162
1.0620244671019614
1.0646262142337286
1.0653743061817658
1.0641743600137958
1.0622145560896765
1.059474113715534
1.05563451376489
1.0511174971561053
1.045411311871688
1.0391469006233356
1.0312671580295976
1.0208563883673578
1.010024138239326
0.5063022716469897
0.6039387289084945
0.6936198581561497
0.7798105221737419
0.862095529896629
0.9296144844703712
0.9774852685649064
1.0083669924048606
1.0282331603765085
1.0408791406855353
1.0487683919498574
1.0536924972696338
1.056274454719966
1.0572066346843707
1.0567604035702987
1.055519137053247
1.0532753956522574
1.050489275183901
1.0468126561939541
1.0430035898759942
1.038072228717003
1.0317754966662642
1.0229936179944599
1.013319753598487
0.5043751534057764
0.6034900564400073
0.6953650006350399
0.7884211879329925
0.8721707743497139
0.9358446338938551
0.9782922481215641
1.0052920081710208
1.0227810808489923
1.034193652314634
1.0413132903386524
1.0463001264142893
1.0492024280413235
1.0505890546933432
1.0506340909818441
1.0496052559880813
1.0481978886367367
1.0465989351845904
1.044876205660225
1.0425481159774272
1.0393356705415986
1.0346301746154472
1.0268830255065706
1.018018829607097
0.5063727043698307
0.6067300734836354
0.7051439551844494
0.8036318767803191
0.8858706493862211
0.9432111304480069
0.9801872272939991
1.0031709160539597
1.0184514657813875
1.0291075919015364
1.0362352512011679
1.0409597466890153
1.0442731288765013
1.0453789709661276
1.0454991102814872
1.0456545675233215
1.0459970332698585
1.045879797884082
1.04561785480096
1.044784655520812
1.0424437530729023
1.038684893452002
1.03181210204011
1.0236511088835727
0.5114620409981919
0.6139304032742392
0.72044284267419
0.8227780222089044
0.9000776977892678
0.9503666657533446
0.9818562722892874
1.0020600852686636
1.015885519261236
1.0261162078316575
1.0325254670858952
1.0364332142949075
1.0396993551675169
1.0423466358002418
1.0441553610840724
1.0456432750277733
1.046197946420585
1.0468615104525003
1.0479235343857107
1.0482286506475438
1.047173088707944
1.043963420963368
1.0374710149488235
1.0293408756450466
0.5198208534129408
0.6263938705525053
0.741948234961035
0.8443898068208407
0.9138971231364567
0.9570258713726367
0.983823555940495
1.002420177252975
1.0149361288611678
1.0232433139829014
1.030027747880852
1.034878318931463
1.0386459310590586
1.0407388740542594
1.0427588366242855
1.0458175043942128
1.0485730947867615
1.0511481342947446
1.0525586203535833
1.053065366522247
1.0518964286996486
1.0489013045152384
1.0426685376766085
1.0343474805567285
0.5305144850067118
0.646540178899084
0.7696300373754488
0.8659583021916564
0.9268461653102297
0.9634593570295461
0.9870792123565159
1.0025620940680022
1.0142533286978619
1.0229400431702471
1.0286390169732227
1.0330333129488634
1.0368740888461663
1.0409287981826287
1.0453078213405176
1.0490450951036807
1.0519412623000004
1.054965358476019
1.0574106169878477
1.0584330355389544
1.0575256417704484
1.054295783899035
1.0471792808817926
1.0384891711621955
0.5426983095832892
0.6728871513839111
0.8011031364246075
0.8881786106366717
0.9391525990249555
0.969474917710683
0.9902585660986014
1.004709290469527
1.0146591452773943
1.021936917418121
1.0278176924078923
1.0332146980059862
1.0380994198087172
1.043393547448401
1.0484876686801972
1.0536540164645705
1.0579327293502894
1.0607484223981596
1.0626891734722184
1.0636625115612568
1.0621150367415457
1.05823796817276
1.050783522127727
1.0412049278375533
0.5562268966538033
0.7057368172192354
0.8340496703610597
0.9080990835944871
0.949541277814017
0.9759792114947425
0.9934213934326528
1.0059138326613741
1.015399436067017
1.0226859181185997
1.0290831638855422
1.0351763214940046
1.041750068214059
1.047777204007402
1.0533841839187659
1.0583739781856223
1.062916480828452
1.0664343145203181
1.0683883423291878
1.068153162464951
1.0662905393576159
1.0612706515517076
1.052561185636591
1.0420054724468106
0.5737230940901205
0.7460506173867316
0.8638439818741249
0.924989675031801
0.9591921643790616
0.9810319460474839
0.9961605245661274
1.0074203263871613
1.0160469060033355
1.023821968570779
1.0301922754329802
1.0376811617026158
1.0449178286735363
1.0526144449556114
1.0591418208757668
1.0647530084398622
1.0683151198442462
1.0718183263827785
1.0732578019778303
1.0726808858280805
1.0690489923471604
1.0631618393717435
1.0534893282701214
1.041557748027275
0.596916836746136
0.7897505732861095
0.8902179446109245
0.939340104233182
0.9671349022019304
0.985352834303012
0.9982361474788635
1.008536698755252
1.0166896923162294
1.0243683823110785
1.0334181755414351
1.0426538037555595
1.0510457150413486
1.0586513380617462
1.0649074436089216
1.070599890587034
1.0744357109661329
1.0769326025577286
1.0772938789322541
1.0755192698666614
1.0709708227123333
1.0637514847580094
1.053601572495525
1.0408689824569262
0.6306781402112015
0.8320372144734037
0.9125469436351248
0.9512115683507905
0.9734422908723561
0.9888911279966767
1.0002350770837385
1.0094602794789198
1.0185823940819005
1.0284508485499078
1.0380558142132337
1.0478328938869188
1.0571773125870056
1.0652004683747505
1.071671617275227
1.0762513964609288
1.0798181834999896
1.0813337150780187
1.080627292582056
1.0775429243342909
1.0717910724306818
1.063526343843631
1.0524831924880294
1.038856250519054
0.6826205001389882
0.8674542804061102
0.9296311242550348
0.959822647130785
0.9781291742400549
0.991065672786449
1.0014936119000784
1.011090803457392
1.020688133590821
1.031175929828187
1.04334613403651
1.0546414986817154
1.06382129563968
1.0715426712264522
1.0779474278985
1.0821065373436267
1.0846977529415323
1.0849439484522287
1.0829620993249198
1.0785262385951027
1.072219559186109
1.0628208368632694
1.0514980238764398
1.0375252398851533
0.7530615529687893
0.8939095347322406
0.9404567896618564
0.965074595356972
0.9807786291285437
0.9926275259877109
1.0024544439732794
1.0121626239579362
1.0240102854880804
1.0369163419770113
1.0495926612079853
1.0614843144526909
1.0716386379788474
1.079124011820404
1.0840543105883595
1.0874298820351875
1.0888183159865323
1.0874505862942985
1.0845619391097543
1.0790114658500707
1.0719578887750953
1.0622617685497686
1.0498504134560604
1.0353642059675285
0.8308064720298572
0.9084032193099059
0.9439888840976066
0.9667174024676065
0.9814552866009194
0.9931044351553426
1.0027086199410291
1.0149455856235134
1.0287895659332473
1.0431952090177123
1.0567001386110684
1.0685027723935594
1.0784616651358707
1.0854162503656561
1.0898329201108836
1.0921903077985393
1.0919482502921045
1.0895572520581416
1.0854164376750437
1.0791469778039937
1.0714376588974073
1.0613170951871724
1.048245276441098
1.0340064591293634
0.07215726319256227
0.14455505825686346
0.2262474286245919
0.27593235070060274
0.3454950837788818
0.45281690414595605
0.10299244508781662
0.17604913197268623
0.24979111561769288
0.2937819164847311
0.35494284859345115
0.4234123271965732
0.11740707480681477
0.1870261230650796
0.2537916099525255
0.29624240033796817
0.35914261419080146
0.4313130225185711
0.1299929999022897
0.19507162777305853
0.25447445162998955
0.2964663665135778
0.3610114460946
0.43908643456419616
0.14313178346771066
0.2014813849139755
0.25387036462213575
0.29604272284580724
0.3613546516220236
0.4413889036104791
0.1558261466789563
0.20626116210656828
0.2531510191599875
0.2952784353203758
0.36058394295769175
0.4398525195128187
0.16758936679182806
0.20955475087812042
0.2516494325583387
0.2941315497451354
0.3585123377827252
0.43567578376937205
0.17723924261709662
0.21237696239006829
0.2498848868021879
0.2925831264548379
0.35572335548016015
0.4299276612878611
0.18505928107219483
0.21443815477040323
0.24914393206658875
0.2912042861234434
0.3527989152799236
0.4238938455386427
0.19117364906465267
0.21594977034525148
0.2490519946765831
0.29074869517341717
0.35075992270843903
0.4196372461894896
0.19552712214337725
0.2171358210140887
0.249517378482876
0.2909261148737647
0.3502036677166575
0.4180888816283915
0.1976733113708482
0.2180531175875504
0.2508187733902802
0.29218824986126446
0.3514873034891416
0.4183631134401218
0.19778626922125647
0.21871047032336977
0.25275741072824504
0.29547024851959824
0.35488576945049893
0.4204524286409079
0.19586365469091532
0.2190343047351969
0.25517471081758036
0.29984689741132514
0.35971409367189505
0.42499187494403007
0.19181410857083933
0.21886656040062827
0.25760864297962033
0.3043351254807968
0.36521338711190465
0.43084343817410786
0.18596084982951747
0.2180476702814722
0.2596514679501193
0.30846681412352706
0.3705697517132607
0.43713759824428494
0.17855282843234022
0.2164859943298045
0.2610003405903848
0.31169596559006607
0.37522735009835406
0.4431706561190792
0.16910442802440503
0.21370747928411402
0.26243171345879635
0.31359530378958345
0.3789550200961837
0.44850757332295527
0.15759499853951844
0.2094486502605772
0.2626283927512874
0.31385840250804975
0.3811031470556303
0.452603739377812
0.14399672311497122
0.2029471326919177
0.2617961544482833
0.31321138414641886
0.38122317207621803
0.45418184702141995
0.1280889885849151
0.1934277213363444
0.2593175474661316
0.3107193315925168
0.3794176331111255
0.45265187271959234
0.11252561844192494
0.18132433918867613
0.25413919427199533
0.30661155274173385
0.37589281144589776
0.4465956650155843
0.09556676902274486
0.16613178570869805
0.24502154115833624
0.29841555467963227
0.372011614637927
0.43759510927850703
0.06385696587566586
0.1316805904488321
0.21729546996058627
0.2716063949586704
0.363145440097648
0.43749053685536765
0.8174386800874776
0.9002619141575988
0.9391869309172233
0.9636856987470132
0.9790700438735547
0.9916753200856746
1.0040812798633036
1.0174913224645745
1.0338039166957858
1.0503156636254838
1.0647194413515375
1.0765321649000896
1.085025258495672
1.0913553673213006
1.0947156582146396
1.0956518030723252
1.0942812051933521
1.0906909814452692
1.0857700123335006
1.078811517672767
1.0703551216908616
1.0600544660229403
1.0468268916191605
1.0320554683890883
0.7206594857687796
0.8656693196865567
0.9228432284168719
0.9540293822686896
0.9733567215074691
0.9883772671577349
1.0035338894546522
1.021937863285371
1.0400793447952825
1.057061792586236
1.07247055249605
1.0833014371172607
1.0916145253017988
1.0963257111393299
1.0981643450845184
1.0977756780635886
1.0953678246459004
1.0908145158575082
1.0848622400272396
1.0778196980953538
1.0688923441297837
1.0580513614395763
1.0449835458480607
1.0301327913489633
0.6570281831906055
0.8179921065340722
0.8924563273968616
0.9344572272220236
0.961294291244902
0.9809747471467037
1.0024435146573099
1.0246299674915884
1.0454466410564354
1.063735275536122
1.0784107529062663
1.0888587915458843
1.0956469863062757
1.0990850349621932
1.0997697991251623
1.0983516389641608
1.0949071871867146
1.0899305274423081
1.0836083814950586
1.0763634001586828
1.0672365256750223
1.0561569764197025
1.042884904405654
1.0281845503126328
0.6170355490919468
0.7698008246858441
0.8544327347867653
0.9067056987171631
0.9418018329637337
0.9708318205681402
0.9978529673849152
1.024563456587659
1.0484870524509156
1.0681485567741813
1.0823380244976464
1.091865948059463
1.0973955136412445
1.0995282894926244
1.0992675796245217
1.0968178590401403
1.0929296889595679
1.0878431422707604
1.0814169127813105
1.0734988038940483
1.063912993174088
1.0534271635718508
1.0397809996484104
1.0252769684114023
0.5892153443112049
0.7274575548460672
0.816707864066626
0.8763281831600049
0.9198138230320857
0.9560620430980378
0.9911817755979004
1.0222641805975043
1.0484032403384904
1.0684798938507474
1.082619864266806
1.0910404865367545
1.0953225734096095
1.096652159830901
1.09574273209669
1.0929619270100288
1.0887428882383083
1.0834705857842122
1.077148406297215
1.0692310754684993
1.0602362790012891
1.0495668035017522
1.0360511547863689
1.022074017335149
0.5668687099555964
0.6912278223381512
0.7821036995670414
0.8478393538149392
0.8978127690206208
0.9425090889213716
0.9832196516731423
1.0182638249187275
1.0461194235756597
1.066262462681257
1.0792171598017808
1.0866420797156702
1.0900725628506305
1.0911191411529257
1.0899143897594914
1.0872598449429163
1.0833587216737062
1.078473007738738
1.072192631842032
1.0646301809263417
1.0559658760107704
1.0460974365768152
1.0326429822079597
1.019094961505018
0.5479644846378431
0.6623007658213089
0.7522024470154521
0.8225600194254263
0.8795050911236353
0.9310109753294759
0.9767895886311299
1.0144594790765973
1.0424771291810409
1.0612826900853638
1.0730089319069425
1.079853941592061
1.0832156071236518
1.0838219740290373
1.0828467496859135
1.0806001899579607
1.077101077228963
1.0720640268860224
1.0661976945650247
1.059478297910699
1.0513440914514969
1.0413544670409223
1.0287039119112258
1.0158317125395016
0.5316724944725933
0.6387706363792213
0.7281157376042513
0.8019244030110247
0.8652733796127883
0.9238591878978133
0.9728534543055315
1.0114049126320426
1.0385581976740283
1.0556152689521692
1.0657004479747425
1.0720428255835972
1.0749725016037437
1.0759509820454252
1.0751475869358993
1.0731591131000295
1.0699872401843682
1.0659914554899648
1.0606458041779128
1.0544419457652054
1.0468943890043718
1.0380225087885988
1.025809763924266
1.0130982765099334
0.5180627406169735
0.6199060858806319
0.7099851860073204
0.7867142873111828
0.8572432957817482
0.9207466668370998
0.9716973562389102
1.0092636348122053
1.0336108266841246
1.0490201840229758
1.0585165605309317
1.0642338068056858
1.0670792991763018
1.0681037050903075
1.0681767338861194
1.066743940334738
1.0645062547157222
1.0606667843399196
1.0560402457993916
1.0499455104706816
1.0432196053243976
1.0345771371522197
1.0233395525882953
1.01148936473102
0.5090963347072106
0.6079470797142376
0.6981793144524268
0.7782201090467262
0.8555638531400468
0.9224524539044346
0.9731910763732762
1.0077403413444532
1.029411341709991
1.0433398266153202
1.0523019542377332
1.0578097209383994
1.0607055745138643
1.0619194162073873
1.062452671515472
1.0613650916688744
1.059056313650616
1.0558971582557812
1.0519685849618856
1.0467411316802375
1.0402795217727678
1.032870678280502
1.0222813361074874
1.011154295791665
0.5048694535705126
0.6028959884202483
0.693036273718835
0.778879297155398
0.8606301808168232
0.9277102012277634
0.9751641481034015
1.006243160886497
1.0258675401685773
1.0386290363119637
1.0468099744323804
1.0521613754702421
1.0556489274435656
1.057292110597593
1.0573742448999757
1.0571224801873096
1.0555500057938507
1.052925928139721
1.0496301843446743
1.0451842182327276
1.0397362594548296
1.0330616111311062
1.0234190527232743
1.0128612123690597
0.503548797926471
0.6022528704033726
0.6953002547175324
0.788181739234137
0.8715772791807126
0.935259369086082
0.9780504782763753
1.0055204397420994
1.0233922708259278
1.0352222903727062
1.0431999175513558
1.048642206675041
1.0520780044163538
1.0540478036282634
1.055253261219984
1.0546685493825554
1.0533565270726883
1.0514267789361222
1.0486854062946978
1.0453770370307636
1.0407844103991966
1.034864865599503
1.0258786232315564
1.0156483501738547
0.5043933201742651
0.6049735482383075
0.703334093709118
0.802823053998826
0.8851150601849832
0.9439907173613182
0.9815837897095082
1.0055501392716597
1.0219396774239107
1.0338535999249252
1.0414481823041712
1.0469700603195915
1.0505079698270907
1.0529571562850093
1.0541874238012843
1.0544243740991277
1.0531764896360851
1.051440056200679
1.049906444809952
1.0477369143064654
1.0438841905051686
1.038437760987217
1.0298284927125827
1.020085542980742
0.5101116628527957
0.6115155174624527
0.7177189973312761
0.8209018749592988
0.8995660696700458
0.9514766383905583
0.9844616880470504
1.006575204729873
1.0220213590476699
1.0327301286542734
1.0406751607939964
1.046485574743852
1.050856508684852
1.0534248099988022
1.054483272920636
1.0548503728247731
1.0550855543282005
1.055187573663542
1.0539915620854843
1.0519815144910154
1.048598535385477
1.0434228764880167
1.0347072667434323
1.0245394959923233
0.5185814394885571
0.6235895127230082
0.7378817621982552
0.8407233124758258
0.9125700086606707
0.957571822664198
0.9871588947660906
1.0071402410090289
1.0217713441954488
1.0329391379918296
1.0413766311363926
1.0471146483090414
1.0513084560084778
1.0547414040912286
1.0568782135639307
1.0585519981089901
1.0597970695949066
1.0599082041254348
1.0594216972968973
1.0577937648861344
1.0545906551528628
1.0490890534607913
1.040292594372645
1.0298429224175056
0.5286715759767269
0.6422637681495482
0.7642473950435416
0.8619231495900246
0.9233289401353061
0.9629472796236775
0.9887751910959668
1.0078128871878655
1.022102151361686
1.0330198941134012
1.0414614769954738
1.0486571673121765
1.053972293876752
1.0575700408515945
1.060566201946199
1.0629421343271654
1.0652061750444253
1.06645632695861
1.0659344825601853
1.0642110019880868
1.060497658458617
1.0548765677587946
1.0458318745084283
1.0347946781105783
0.5399564248013498
0.667975648897062
0.7955872927286654
0.881689707587972
0.9337858121987318
0.9669567614039024
0.9906692107694987
1.0087099440158813
1.022518267488385
1.0341436350883142
1.0431959589815236
1.0501674322787808
1.0560052424669788
1.0610755798674403
1.0660677599974657
1.0692015416938656
1.0714642709836846
1.072779276779869
1.0726737683063543
1.0707571322940994
1.0669581295835633
1.0604098676436076
1.0507340307560256
1.0392164649095952
0.5534002408271593
0.7008942935026338
0.8269931149626761
0.9005023033963147
0.9438805903348247
0.971838911366579
0.9923309145311723
1.0098869577624785
1.0235737926465587
1.034797632113466
1.0447325220370425
1.0526328433099117
1.0598229392402236
1.065953022422463
1.0713910222155483
1.0756215366483124
1.0787448169932545
1.0797591169181409
1.0791937738669075
1.0772373657169183
1.072310285240025
1.0655645917152146
1.0551875679615406
1.0427696732235425
0.5708722790858212
0.7406673604797973
0.8564547505611569
0.9177040889507732
0.952709694058037
0.9771614955722706
0.9952280095571671
1.0109374575299244
1.0247123076911588
1.0363778727386923
1.046634641897026
1.055781867630419
1.0645806989606303
1.0718839413159444
1.0772684732714557
1.0810761491969194
1.0849108876012927
1.085854496688926
1.0851756199866351
1.0824697454416001
1.0772456848318506
1.0697023697830264
1.0583638085396037
1.0450055077167537
0.5942775971565253
0.784538012025217
0.8833349153916132
0.9322553482582522
0.9615683236602846
0.9823941490680088
0.9995737818787259
1.0140820063004188
1.026705165852284
1.0388503058617202
1.0497731365339937
1.060039432572568
1.0687674354664243
1.077220814585489
1.0831535465869178
1.0875747409518965
1.0899433251892063
1.0911263527186112
1.0896891314498334
1.0866453898917576
1.0806345147860816
1.0721969304239642
1.0604266295716422
1.04677526993253
0.6285427952279815
0.8274736134598331
0.9063595594785719
0.9445565778626155
0.9697545538103314
0.9883324472321969
1.0041700289890627
1.018111036653478
1.0304319878756878
1.0410180641239877
1.053620197277039
1.0647706184037677
1.0744026806578675
1.0816694428447047
1.087905033773944
1.092621835184659
1.0948502109085594
1.0949654001927183
1.0931598073718802
1.088824590186278
1.0823554627477843
1.0733879325527096
1.0613563017687304
1.0466661356740394
0.681448812093086
0.8643434413754796
0.9243550392363495
0.9556948351365333
0.9769562376572488
0.9944471517410356
1.0090569066822936
1.022619921785796
1.0353229228253316
1.0474386513129583
1.058686467648494
1.069399338397769
1.0796024055013966
1.0873761971196685
1.0928202258112243
1.0966826155142972
1.09808788110405
1.0975218837405876
1.094719343979042
1.089818585054849
1.0827504379584836
1.0732242318801932
1.0603930840883813
1.0458335564474937
0.7529691956749447
0.8915125932912522
0.9367476458062889
0.9638880933932135
0.9833987357390289
1.0003384941465954
1.0149737244174735
1.0276503400358497
1.04016291526418
1.053314643296163
1.065572542943052
1.0756211287805162
1.0843269725362399
1.0918889973773593
1.0970796083854917
1.099625632315043
1.100130026466543
1.0989199541904846
1.0951415304971541
1.0894453827610764
1.081850395827175
1.0718340485187552
1.0589591969948782
1.0438587678898017
0.8307593659883561
0.9057824311011726
0.943217880229414
0.9690973472682093
0.9893014790528795
1.0051751293250282
1.020118033516769
1.0329713554396351
1.0466885523464602
1.0600544252430877
1.0725127415209723
1.0828560207288158
1.0902535120148844
1.0958917748333419
1.0998065515747564
1.1015242959714857
1.1010992902918584
1.0985656491499658
1.094208986843678
1.0879121135329128
1.0797752160902114
1.0694815081629168
1.0561941366773282
1.0403763151239909
0.07584616497215214
0.1539208554653329
0.23824225614413644
0.28678712174787235
0.3556835457636582
0.4550755599628839
0.10757983425295022
0.1858780918608253
0.2603468730829166
0.30385906915411004
0.36370810317652913
0.4272792267013742
0.12329305746068889
0.1964790168569504
0.26291659508950294
0.3045840187237384
0.36482356286497963
0.4336347604315675
0.13714988128025743
0.20379209623195704
0.26265681634671917
0.30276722316518556
0.3655528187565978
0.44054662005979894
0.15113460145504148
0.2098567998290932
0.2612895942312774
0.30113254889227564
0.36483982225694456
0.4429522173087404
0.16445999763362373
0.21454390000995646
0.2588966679036469
0.29906749552149214
0.36269451204812364
0.4410403641040098
0.17632218594004537
0.21757889969611505
0.2567460577806958
0.2967944488155635
0.35939136974035596
0.43607058612509936
0.18616702997794463
0.21950138518417908
0.25478954545008886
0.29463365538822534
0.3556265725968722
0.42969506841346755
0.19433664546527898
0.22074773726978342
0.2527294196870352
0.2923678539021959
0.3518658666820241
0.4228488035785192
0.20075316077264452
0.22179589936032496
0.25091369574383177
0.2905999357145524
0.34853273001318513
0.41764723034381723
0.20525334941176024
0.22268539145869837
0.2511715893092844
0.29013116819882445
0.34736159220459906
0.4160133127792838
0.2076029175892013
0.22364501954129584
0.25245666045771215
0.29140456040797097
0.3479775626664745
0.4160828020627384
0.20796415704643456
0.22433539754650614
0.2545206833703501
0.29468352061174635
0.3515157220841539
0.41949633290141247
0.20598570559716925
0.22468821817867646
0.25692472318545645
0.29933232240692725
0.35769065793735644
0.4257233316923333
0.2017097890495043
0.2246156944888328
0.2596008310313065
0.30427204862917584
0.36413579803533663
0.4331661149886449
0.19547245246000344
0.22411007725531512
0.2624310983027413
0.30883025683727877
0.3705644067278566
0.44088780909158104
0.18746211901061546
0.22302372845666352
0.265072416976569
0.312604344056333
0.37627960604961985
0.448157072323945
0.17750608434493356
0.22093029061807448
0.2668601057095732
0.3157226087894816
0.3808101596976547