/*--------------------------------*- C++ -*----------------------------------*\
  =========                 |
  \\      /  F ield         | OpenFOAM: The Open Source CFD Toolbox
   \\    /   O peration     | Website:  https://openfoam.org
    \\  /    A nd           | Version:  11
     \\/     M anipulation  |
\*---------------------------------------------------------------------------*/
FoamFile
{
    format      ascii;
    class       volScalarField;
    location    "0.18";
    object      epsilon;
}
// * * * * * * * * * * * * * * * * * * * * * * * * * * * * * * * * * * * * * //

dimensions      [0 2 -3 0 0 0 0];

internalField   nonuniform List<scalar> 
2880
(
4.80984
3.6366
2.60627
1.85274
1.40272
2.36092
1.4436
2.02456
1.7843
1.35475
1.33805
2.74835
2.05558
2.05394
1.73502
1.36264
1.43391
2.86099
2.53034
2.2544
1.77443
1.45125
1.56116
2.96585
2.88627
2.35259
1.82897
1.55048
1.68864
3.05161
3.17569
2.39655
1.87905
1.65238
1.81372
3.11179
3.42463
2.41626
1.93278
1.75921
1.94129
3.16035
3.64326
2.43032
1.99719
1.87386
2.07671
3.21516
3.83568
2.44764
2.07559
1.99803
2.22235
3.27872
4.00422
2.47593
2.16931
2.13275
2.38019
3.3521
4.15067
2.52278
2.27871
2.27908
2.55215
3.43773
4.27715
2.59439
2.40376
2.43984
2.73843
3.54046
4.38653
2.69701
2.54438
2.61713
2.94009
3.66866
4.42876
2.81867
2.69972
2.81101
3.16072
3.83606
4.41321
2.95663
2.87006
3.02169
3.40606
4.06361
4.31879
3.11138
3.05761
3.25076
3.68001
4.34773
4.1431
3.28571
3.26674
3.50056
3.98534
4.69157
3.88009
3.48481
3.50559
3.77482
4.3235
5.08952
3.52078
3.71916
3.78847
4.08173
4.69776
5.52611
3.0677
4.00552
4.14323
4.44135
5.1248
5.98685
2.53374
4.3931
4.63435
4.90385
5.6659
6.50599
1.89109
5.01894
5.43402
5.60426
6.45809
7.40506
1.25121
6.33853
7.23008
7.01325
7.74666
10.4179
4.51155
10.0009
12.838
11.4114
9.18575
31.6263
17.8108
11.0198
5.54955
2.74436
1.27887
0.574629
0.260925
0.124759
0.0642661
0.0358163
0.0215262
0.0137811
0.00929306
0.00654724
0.00478993
0.00362035
0.00281315
0.00223553
0.0018058
0.0014712
0.00119568
0.000955813
0.000739743
0.000530454
13.5343
10.7559
5.95576
3.06562
1.47164
0.67503
0.309898
0.148417
0.0761333
0.0421755
0.0251976
0.0160698
0.0108197
0.00762487
0.00558637
0.00423096
0.00329477
0.00262326
0.00212163
0.00172856
0.00140176
0.0011126
0.000844768
0.000573479
10.8
10.0936
6.19529
3.31855
1.652
0.780166
0.364265
0.175704
0.0901101
0.04973
0.0295641
0.0187813
0.0126195
0.00888976
0.00651859
0.00494496
0.00385847
0.00307841
0.00249435
0.00203484
0.00165012
0.00130498
0.00097623
0.000627107
9.01514
9.11402
6.19041
3.49144
1.81249
0.886303
0.423906
0.206884
0.106485
0.0586922
0.0347646
0.0220045
0.0147499
0.010381
0.00761459
0.00578352
0.00452104
0.00361486
0.00293574
0.00240018
0.00194977
0.00154128
0.00114135
0.00069415
7.8177
8.25594
6.07675
3.59741
1.95116
0.991258
0.488093
0.242426
0.125661
0.0693318
0.0409717
0.0258496
0.0172833
0.0121482
0.00891059
0.0067751
0.00530653
0.00425413
0.00346578
0.0028434
0.00231829
0.00183804
0.00135516
0.000781476
6.99838
7.53108
5.9077
3.65456
2.06923
1.09376
0.556324
0.282455
0.148074
0.0819842
0.0483988
0.0304521
0.0203074
0.0142509
0.0104499
0.00795438
0.00624577
0.00502659
0.00411684
0.00340045
0.00279592
0.00223941
0.00166504
0.000937736
6.41093
6.92219
5.67587
3.6599
2.16586
1.19273
0.628184
0.327195
0.174127
0.0970109
0.0573
0.0359743
0.0239245
0.0167549
0.0122772
0.00935417
0.00736665
0.00596099
0.00492497
0.00412344
0.00346259
0.00287134
0.00231167
0.00187552
5.96278
6.40877
5.40951
3.63549
2.24311
1.2868
0.703109
0.376805
0.204256
0.114828
0.0679749
0.0426092
0.0282528
0.0197302
0.014432
0.0109956
0.00867991
0.00706522
0.00590498
0.00505023
0.00440915
0.00392879
0.00360411
0.00349985
5.60831
5.97687
5.15007
3.5922
2.30402
1.37525
0.780436
0.431363
0.238906
0.135907
0.0807836
0.0505944
0.0334375
0.0232604
0.0169587
0.0128984
0.01019
0.00833302
0.00703835
0.00613656
0.00552856
0.00515997
0.00501023
0.0050537
5.32688
5.61749
4.90927
3.5384
2.35109
1.45802
0.85935
0.49079
0.278501
0.160781
0.0961655
0.0602355
0.0396729
0.0274629
0.019926
0.0151017
0.0119186
0.00977506
0.00832515
0.0073662
0.0067766
0.00648092
0.00642738
0.00653001
5.10763
5.32605
4.69582
3.48311
2.38775
1.53552
0.939145
0.55493
0.323426
0.190038
0.114659
0.071932
0.0472271
0.0325084
0.0234391
0.0176685
0.0139005
0.0114044
0.00975865
0.00871267
0.00811097
0.00784937
0.00784747
0.00798159
4.94843
5.10178
4.5177
3.4287
2.4177
1.6079
1.01931
0.623484
0.374003
0.224319
0.136918
0.0862082
0.0564722
0.0386444
0.0276565
0.0206962
0.0161906
0.0132446
0.0113371
0.0101549
0.00949942
0.00923547
0.00925464
0.00941217
4.85526
4.94901
4.38355
3.38281
2.44539
1.67688
1.09972
0.696162
0.430501
0.264314
0.163731
0.103747
0.0679214
0.0462272
0.0328138
0.0243345
0.0188779
0.0153417
0.0130765
0.0116887
0.0109271
0.010622
0.0106393
0.0108097
4.84659
4.88489
4.30314
3.3601
2.47711
1.74533
1.18139
0.773025
0.493225
0.31076
0.196029
0.125425
0.0822764
0.0557676
0.0392615
0.028813
0.0221067
0.0177804
0.0150213
0.0133326
0.012397
0.0120035
0.0119945
0.0121646
4.90749
4.91317
4.29974
3.36633
2.52032
1.81733
1.26581
0.854677
0.562661
0.364482
0.234898
0.152346
0.100485
0.0679948
0.0475224
0.0344895
0.0261123
0.0207103
0.0172625
0.015139
0.0139368
0.0133926
0.0133178
0.0134771
5.06666
5.03777
4.36787
3.42222
2.5865
1.89933
1.35611
0.942502
0.639653
0.426478
0.281617
0.185888
0.123812
0.0839448
0.0583796
0.0419244
0.0312811
0.0243904
0.0199704
0.0172173
0.0156146
0.0148283
0.0146302
0.0147607
5.35563
5.31004
4.56189
3.55606
2.69469
2.00254
1.45837
1.03959
0.725954
0.498203
0.337779
0.227777
0.153935
0.105078
0.0730033
0.0519996
0.0382497
0.0292669
0.0234514
0.0197755
0.0175706
0.0164025
0.0159897
0.0160589
5.74683
5.70805
4.88044
3.79347
2.87058
2.14526
1.58385
1.15242
0.825323
0.582222
0.405643
0.280281
0.193088
0.133444
0.0931337
0.0661016
0.0480696
0.0361089
0.0282545
0.0231995
0.0200748
0.0183036
0.0175251
0.0174696
6.19421
6.17562
5.28713
4.13458
3.1348
2.35057
1.75067
1.29323
0.945587
0.6837
0.489077
0.346763
0.244422
0.171969
0.121365
0.0864088
0.0624819
0.0462523
0.0353718
0.0282106
0.0236454
0.0209055
0.0195106
0.0191822
6.61893
6.59469
5.68294
4.52517
3.47655
2.63136
1.97853
1.48017
1.1008
0.81286
0.59561
0.433153
0.312988
0.225154
0.16171
0.116403
0.0843995
0.0620421
0.0466265
0.0361865
0.0293005
0.024954
0.0224842
0.0216019
6.92224
6.7993
5.92284
4.84824
3.82745
2.9625
2.26934
1.72748
1.30839
0.985969
0.738967
0.550704
0.40812
0.300943
0.221063
0.162076
0.118952
0.087766
0.0655054
0.0498769
0.0391527
0.0320346
0.0276172
0.0255813
6.9983
6.64378
5.86649
4.95503
4.06841
3.26506
2.5826
2.02328
1.57417
1.21784
0.937293
0.717734
0.546837
0.414566
0.31282
0.235102
0.176201
0.131968
0.0991486
0.075152
0.0579257
0.0458742
0.0377613
0.0331511
6.79964
6.02723
5.47079
4.78908
4.08378
3.43134
2.83559
2.31416
1.87176
1.50355
1.20083
0.954047
0.754116
0.592997
0.463811
0.360793
0.279157
0.215007
0.165359
0.127248
0.098379
0.0768609
0.0612752
0.0501321
6.0991
4.99327
4.68652
4.31976
3.87964
3.39638
2.94451
2.5235
2.14174
1.80552
1.51454
1.26533
1.05321
0.873258
0.720808
0.59172
0.482758
0.391436
0.315066
0.25169
0.200108
0.158242
0.127067
0.0975544
1.7698
2.10352
2.64914
2.93902
3.34038
4.5415
0.825077
1.00222
1.25885
1.45795
1.75322
2.37763
0.225745
0.768609
0.967414
1.12599
1.33905
1.69343
0.25076
0.693145
0.857812
0.993631
1.15817
1.38481
0.269335
0.668704
0.806566
0.927035
1.06164
1.22119
0.280461
0.670916
0.7815
0.890472
1.00629
1.12868
1.2028
0.693667
0.77029
0.870551
0.975327
1.07826
1.25826
0.713405
0.766655
0.861085
0.960751
1.05586
1.31852
0.729974
0.767331
0.858834
0.958042
1.05323
1.36994
0.74345
0.770419
0.861914
0.96525
1.06789
1.40684
0.75367
0.774881
0.869104
0.981158
1.09852
1.42563
0.760401
0.779858
0.879588
1.00495
1.14492
1.42462
0.763421
0.784694
0.892518
1.03595
1.20756
1.40344
0.762635
0.788831
0.907049
1.07339
1.28724
1.36554
0.758263
0.791764
0.922262
1.11617
1.38471
1.3121
0.748978
0.793035
0.937163
1.1627
1.50019
1.24778
0.731748
0.792524
0.950834
1.21077
1.63275
0.280883
0.699714
0.790923
0.962962
1.25756
1.77945
0.27863
0.658243
0.791034
0.974504
1.30006
1.93411
0.269476
0.635396
0.798666
0.989559
1.33754
2.08783
0.253203
0.640247
0.826208
1.01995
1.37714
2.2304
0.230473
0.69776
0.906093
1.10017
1.44553
2.36561
0.858753
0.939988
1.16218
1.36311
1.65264
2.57067
1.94553
2.21447
2.57884
2.74407
2.7564
3.31364
3.75255
3.7133
3.72277
3.62895
3.44397
3.18948
2.88844
2.59668
2.32038
2.06328
1.83011
1.62166
1.43644
1.2718
1.12467
0.992065
0.871362
0.76031
0.658056
0.563443
0.478476
0.397747
0.337546
0.258717
2.48893
2.69967
2.86406
2.93213
2.91543
2.82868
2.69509
2.53347
2.37133
2.21662
2.07152
1.93929
1.81998
1.71126
1.61078
1.51583
1.42365
1.3317
1.23857
1.14196
1.04493
0.937073
0.850291
0.709112
1.85094
2.05268
2.23659
2.36312
2.42976
2.43937
2.41352
2.35994
2.29525
2.22827
2.16335
2.10096
2.04148
1.98494
1.92949
1.8736
1.81598
1.75569
1.6922
1.62519
1.55496
1.48026
1.41045
1.31595
1.51592
1.66965
1.82644
1.95484
2.04607
2.09933
2.12443
2.12851
2.12149
2.10726
2.0882
2.0655
2.03841
2.00653
1.97018
1.92958
1.88504
1.83691
1.78575
1.73231
1.67756
1.62345
1.57242
1.52187
1.32916
1.4473
1.5736
1.68483
1.77207
1.83368
1.87427
1.89851
1.91104
1.91418
1.91001
1.89916
1.88108
1.85695
1.82762
1.79411
1.75732
1.7179
1.67723
1.63661
1.59727
1.56066
1.52756
1.49799
1.22242
1.32094
1.42483
1.51756
1.59192
1.64662
1.68437
1.70831
1.72112
1.72447
1.72029
1.70879
1.69108
1.66836
1.6419
1.61296
1.58293
1.55313
1.5242
1.4963
1.46971
1.44501
1.42276
1.4034
1.16633
1.25748
1.34935
1.42937
1.49211
1.53732
1.56761
1.58592
1.59477
1.5961
1.59181
1.58276
1.5703
1.55548
1.53924
1.52227
1.50508
1.48781
1.46994
1.45167
1.43346
1.4159
1.39966
1.38493
1.1449
1.23718
1.32626
1.40181
1.45962
1.50034
1.527
1.54289
1.5508
1.55287
1.55094
1.54591
1.53889
1.53056
1.52143
1.51182
1.50188
1.49178
1.48164
1.47153
1.4617
1.45222
1.44419
1.43699
1.14963
1.25159
1.34688
1.42611
1.48594
1.52785
1.55552
1.57281
1.58296
1.58845
1.5911
1.59192
1.59184
1.59108
1.58979
1.58777
1.58478
1.58059
1.57452
1.56753
1.55972
1.54991
1.53677
1.52804
1.17975
1.30136
1.41349
1.50651
1.57755
1.62883
1.66473
1.68967
1.7073
1.72028
1.73029
1.73824
1.74437
1.74832
1.75003
1.7482
1.74245
1.73217
1.71407
1.68437
1.64529
1.60419
1.57242
1.55508
1.23544
1.389
1.53039
1.64849
1.74046
1.80929
1.86005
1.89769
1.92606
1.94785
1.96421
1.97595
1.98203
1.98171
1.97603
1.9585
1.92342
1.86839
1.80301
1.73515
1.66925
1.60346
1.53988
1.49039
1.31901
1.52023
1.70552
1.86058
1.98233
2.07469
2.14358
2.19451
2.23122
2.25675
2.27007
2.27559
2.26505
2.2343
2.17424
2.09419
2.00408
1.9128
1.81692
1.71469
1.60379
1.48589
1.37132
1.25665
1.43454
1.70369
1.94924
2.15155
2.30743
2.42263
2.50442
2.55956
2.59113
2.60468
2.58862
2.53674
2.45173
2.34713
2.23707
2.11734
1.98734
1.84343
1.6891
1.52795
1.36562
1.20304
1.05828
0.888114
1.58794
1.95076
2.27207
2.52506
2.70836
2.83212
2.90649
2.94159
2.92442
2.85828
2.7477
2.62436
2.48629
2.33221
2.158
1.9679
1.76674
1.56026
1.35499
1.15692
0.972887
0.804785
0.666023
0.514869
1.78702
2.27485
2.68013
2.97101
3.15455
3.25186
3.26872
3.1963
3.06861
2.92112
2.74918
2.5495
2.32574
2.08513
1.83537
1.58439
1.3402
1.11081
0.903285
0.723329
0.571785
0.450633
0.355706
0.28992
2.04183
2.68951
3.16702
3.45394
3.58169
3.55686
3.43069
3.25232
3.04061
2.78832
2.50825
2.21173
1.91032
1.61459
1.33399
1.07761
0.853214
0.665799
0.514946
0.400521
0.317508
0.259475
0.217211
0.19202
2.36527
3.20372
3.7024
3.9031
3.84921
3.66275
3.40552
3.09443
2.74912
2.38754
2.02639
1.6802
1.36083
1.07698
0.835789
0.640917
0.490751
0.379527
0.30116
0.244702
0.20444
0.175335
0.153788
0.143899
2.77455
3.81126
4.22234
4.18336
3.92358
3.54713
3.12079
2.67668
2.23896
1.82717
1.45633
1.13563
0.869724
0.660013
0.502231
0.387556
0.305687
0.24717
0.204241
0.171727
0.146531
0.127009
0.113046
0.108167
3.29612
4.47242
4.62236
4.27425
3.74319
3.17873
2.62906
2.12018
1.66957
1.28794
0.977976
0.736746
0.556921
0.426785
0.333293
0.265276
0.214415
0.175096
0.144023
0.119555
0.101002
0.0880255
0.0805638
0.0796815
3.97723
5.09465
4.80242
4.10473
3.34484
2.66546
2.07869
1.58921
1.19686
0.894286
0.668852
0.505283
0.387229
0.300806
0.236093
0.186558
0.148168
0.118545
0.0962481
0.0802456
0.0695679
0.0632119
0.0607865
0.061809
4.89403
5.59234
4.82176
3.72058
2.8458
2.14969
1.60214
1.18317
0.871969
0.645773
0.482892
0.364608
0.277315
0.212064
0.163024
0.126339
0.0992937
0.0797884
0.06612
0.0569479
0.0512115
0.0482295
0.0478276
0.0493042
6.14648
5.99271
4.55408
3.26562
2.37238
1.72007
1.24333
0.899919
0.654964
0.480126
0.354058
0.262313
0.195376
0.14674
0.111706
0.0867016
0.0689811
0.0565251
0.0479472
0.0423256
0.0390219
0.0376579
0.0379621
0.03959
7.81469
6.22772
4.0915
2.81143
1.96744
1.38429
0.978396
0.695626
0.497475
0.357401
0.257942
0.18746
0.13779
0.102974
0.0786101
0.0615264
0.0495378
0.0412007
0.0355834
0.0320566
0.0301884
0.0297083
0.0302843
0.0319084
10.2092
6.24842
3.68525
2.4129
1.63396
1.121
0.775613
0.540018
0.377701
0.265457
0.188027
0.134868
0.098485
0.073557
0.0563936
0.0445119
0.0362801
0.0306431
0.0269264
0.0246851
0.0236268
0.0235597
0.0242127
0.0256721
2.90211
7.67097
11.8211
12.5677
10.7034
36.4784
0.959167
4.37231
6.37416
7.77153
10.1444
12.8435
1.32293
3.45446
4.94641
6.3444
7.93621
8.65272
1.78655
3.04246
4.31447
5.65309
6.89962
7.11257
2.17468
2.80721
3.96153
5.24729
6.32749
6.33284
2.48912
2.66081
3.73963
4.99071
5.977
5.86001
2.73337
2.56701
3.58961
4.83422
5.77535
5.557
2.91162
2.50231
3.48132
4.74651
5.6765
5.36165
3.02809
2.45005
3.39629
4.70314
5.64147
5.23814
3.08667
2.39932
3.32169
4.68734
5.6478
5.16905
3.09089
2.34287
3.2478
4.69197
5.69547
5.15092
3.04483
2.27649
3.16644
4.70841
5.76939
5.1776
2.96015
2.19909
3.07017
4.72229
5.86805
5.25638
2.84694
2.11066
2.95216
4.72131
5.99135
5.39519
2.70461
2.00861
2.80793
4.69044
6.13654
5.60282
2.53407
1.89144
2.63425
4.61292
6.2995
5.89118
2.33711
1.7588
2.42939
4.46562
6.47324
6.27133
2.1153
1.61068
2.19444
4.21786
6.6477
6.76373
1.86678
1.44617
1.93219
3.83897
6.79661
7.40942
1.57744
1.26158
1.65048
3.3312
6.83022
8.28061
1.20289
1.05021
1.36654
2.72998
6.63921
9.50108
0.251543
0.816677
1.12597
2.10696
6.04972
11.3355
0.964527
0.892002
1.03972
1.60512
4.67643
14.9855
2.60746
1.8059
1.76427
2.08104
2.90944
28.1527
12.435
5.32399
3.14723
2.03888
1.35429
0.91011
0.616225
0.419263
0.286582
0.197378
0.137692
0.0978823
0.0712894
0.0534089
0.0412652
0.0329333
0.027191
0.0232749
0.0207139
0.0192085
0.0185641
0.0186312
0.019255
0.0204875
7.82953
4.3282
2.70097
1.73399
1.12814
0.741298
0.490047
0.325383
0.21752
0.147231
0.101606
0.0719471
0.0525112
0.0395984
0.030876
0.0248944
0.0207607
0.0179298
0.0160711
0.0149801
0.0145247
0.0146018
0.0151278
0.0161211
6.3134
3.8178
2.35824
1.47923
0.941053
0.604011
0.389499
0.252561
0.165591
0.110643
0.0759096
0.053765
0.0394229
0.0299434
0.0235411
0.0191337
0.0160644
0.0139359
0.0125105
0.0116461
0.0112524
0.0112744
0.011658
0.0124309
5.52303
3.37507
2.0506
1.26221
0.786209
0.492573
0.309866
0.196613
0.126902
0.0840689
0.057556
0.0408747
0.0301387
0.0230487
0.0182437
0.0149111
0.0125607
0.0108962
0.00974131
0.0089933
0.00859213
0.00851215
0.00874585
0.00931237
4.93244
2.99686
1.79191
1.08211
0.658796
0.402496
0.247244
0.153953
0.0981998
0.0647392
0.0443473
0.0316193
0.0234436
0.0180311
0.0143408
0.0117558
0.00990336
0.00855631
0.0075777
0.00688837
0.00644608
0.0062422
0.00631318
0.00668755
4.46996
2.6788
1.57449
0.931749
0.553839
0.330028
0.198339
0.121592
0.0769204
0.0506082
0.0347414
0.0248753
0.0185309
0.0143118
0.011414
0.00936206
0.00786695
0.00674924
0.00589747
0.0052448
0.0047557
0.00442673
0.00430837
0.00448868
4.10584
2.41451
1.39336
0.806967
0.467943
0.272143
0.160369
0.0970956
0.0610941
0.0401892
0.0276655
0.0198846
0.0148663
0.0115108
0.00918881
0.00752767
0.00629911
0.0053586
0.00461252
0.00400025
0.00348486
0.00305268
0.00271843
0.0025861
3.81605
2.19667
1.24311
0.703695
0.397937
0.226128
0.130974
0.0785284
0.0492495
0.0324252
0.0223819
0.0161356
0.0120919
0.00937349
0.00747957
0.00611329
0.00509157
0.00429684
0.00365034
0.00309672
0.0025955
0.00211879
0.00163023
0.00101432
3.58571
2.01861
1.11913
0.61863
0.341177
0.189701
0.108237
0.0644024
0.040311
0.0265708
0.0183813
0.0132782
0.00996244
0.00772318
0.00615522
0.00501787
0.00416226
0.00349254
0.00294422
0.00247107
0.00203727
0.00161716
0.00120262
0.000735011
3.40578
1.87485
1.01762
0.548961
0.295379
0.160944
0.0906308
0.0535929
0.0334996
0.022101
0.01531
0.0110694
0.0083056
0.00643318
0.00511819
0.00416188
0.00344116
0.00287695
0.00241646
0.00202249
0.00166662
0.00132851
0.000999203
0.000649569
3.27087
1.76113
0.935471
0.492337
0.25862
0.138294
0.0769647
0.0452633
0.0282552
0.0186456
0.0129199
0.00933808
0.00699881
0.0054113
0.00429521
0.00348328
0.00287172
0.00239385
0.00200532
0.00167516
0.00138015
0.00110506
0.000846316
0.00058814
3.17721
1.67422
0.870224
0.446796
0.229306
0.120493
0.0663273
0.0387954
0.024175
0.015942
0.011036
0.00796338
0.00595482
0.00459148
0.00363368
0.00293806
0.00241551
0.00200882
0.00168015
0.00140335
0.00115929
0.000936383
0.000733242
0.0005403
3.12351
1.61185
0.819945
0.410822
0.206119
0.106493
0.0580148
0.033734
0.0209689
0.0138028
0.00953352
0.00685906
0.00511138
0.00392675
0.00309657
0.00249582
0.00204671
0.00169941
0.00142109
0.00118934
0.000988125
0.000808207
0.000648843
0.000503532
3.10411
1.57283
0.783528
0.383035
0.187889
0.0954758
0.0514825
0.0297447
0.0184268
0.012093
0.00832277
0.00596292
0.00442352
0.00338318
0.00265722
0.0021348
0.00174696
0.00144959
0.00121381
0.00102005
0.000854576
0.000709709
0.000584715
0.000474953
3.11964
1.55626
0.759787
0.362226
0.173701
0.0868186
0.0463327
0.0265832
0.0163953
0.0107141
0.00733824
0.00522946
0.0038582
0.00293572
0.00229587
0.00183884
0.00150258
0.00124748
0.00104775
0.000886018
0.000750269
0.000633846
0.000535782
0.00045267
3.18493
1.56045
0.748033
0.347466
0.162838
0.0800426
0.0422652
0.024069
0.0147611
0.00959374
0.00653155
0.00462488
0.00339071
0.00256552
0.00199752
0.00159553
0.00130295
0.00108376
0.000914587
0.000779804
0.000668675
0.000575251
0.000498276
0.000435225
3.30213
1.59337
0.748066
0.338052
0.15472
0.0747763
0.0390521
0.0220656
0.0134396
0.00867785
0.0058665
0.0041237
0.00300225
0.00225805
0.00175047
0.00139509
0.00113965
0.000950996
0.000807713
0.000695545
0.000604757
0.000529897
0.000469433
0.000421512
3.48337
1.65061
0.755496
0.33319
0.148848
0.0707268
0.0365239
0.0204639
0.0123668
0.00792569
0.00531562
0.00370645
0.0026783
0.00200198
0.00154548
0.00122973
0.00100592
0.00084325
0.000721871
0.000628647
0.000554638
0.000494746
0.000447209
0.000410702
3.7416
1.7389
0.775924
0.332633
0.144821
0.0676583
0.0345445
0.0191843
0.0114943
0.00730616
0.00485785
0.00335803
0.00240749
0.00178832
0.00137519
0.0010932
0.000896365
0.000755764
0.00065288
0.000575488
0.000515302
0.000467483
0.000430077
0.000402178
4.09729
1.86151
0.806765
0.334662
0.142217
0.0653654
0.0330033
0.0181638
0.0107845
0.00679525
0.00447686
0.00306668
0.00218084
0.00160992
0.00123364
0.000980452
0.00080659
0.000684719
0.000597406
0.000533203
0.00048438
0.000446323
0.000416899
0.000395493
4.57981
2.02212
0.843865
0.338726
0.14066
0.06366
0.0318069
0.017352
0.0102082
0.00637433
0.00415991
0.00282312
0.00199122
0.00146099
0.00111603
0.000887359
0.00073305
0.000627041
0.000552796
0.000499521
0.000459993
0.000429841
0.000406794
0.000390312
5.23103
2.22436
0.882574
0.343701
0.139722
0.0623725
0.0308752
0.0167075
0.0097421
0.00602887
0.00389712
0.00262011
0.00183297
0.00133693
0.00101845
0.000810583
0.00067286
0.00058025
0.000516936
0.000472659
0.00044065
0.000416842
0.000399021
0.000386294
6.10197
2.42952
0.918629
0.347784
0.138874
0.0613302
0.0301377
0.0161969
0.00936833
0.00574771
0.00368087
0.00245202
0.00170167
0.00123408
0.000937803
0.00074745
0.000623706
0.00054236
0.000488164
0.000451286
0.000425342
0.000406547
0.000392866
0.000383098
6.9394
2.58089
0.939847
0.348668
0.13755
0.060382
0.0295391
0.015794
0.00907329
0.00552249
0.00350544
0.00231459
0.00159392
0.00114963
0.000871684
0.000695877
0.000583778
0.00051181
0.000465157
0.000434333
0.000413276
0.000398449
0.00038801
0.000380602
3.2557
8.06469
11.6192
12.5153
10.8189
35.9158
1.14061
4.67305
6.45155
7.32131
8.23044
12.8348
1.69349
3.72152
4.88107
5.58933
6.3668
7.62442
2.34198
3.31301
4.15302
4.71838
5.20889
5.53861
2.93456
3.08834
3.72923
4.19123
4.47737
4.49058
3.45888
2.95887
3.45396
3.83284
4.01113
3.88808
3.9086
2.88217
3.26383
3.58296
3.70328
3.51829
4.28052
2.83594
3.12811
3.40812
3.49876
3.28753
4.57294
2.80781
3.03022
3.28778
3.36736
3.15008
4.78473
2.79038
2.9601
3.20878
3.29159
3.08202
4.9152
2.77937
2.91108
3.1622
3.26104
3.07052
4.9663
2.77349
2.87839
3.14158
3.26866
3.10615
4.95956
2.77226
2.85815
3.14194
3.30943
3.19121
4.89383
2.77257
2.84672
3.15782
3.38455
3.32369
4.76216
2.76795
2.84047
3.188
3.48992
3.50645
4.55746
2.75245
2.83572
3.23075
3.62481
3.74508
4.27432
2.71997
2.82955
3.28323
3.78971
4.04861
3.90906
2.66362
2.82169
3.34631
3.98696
4.43515
3.46005
2.58444
2.81839
3.426
4.22261
4.94073
2.92979
2.49238
2.8377
3.53871
4.51113
5.64335
2.32887
2.41239
2.92763
3.72638
4.89062
6.74612
1.6811
2.42614
3.21071
4.11079
5.48882
8.91524
1.14982
2.83766
4.11201
5.14726
6.73167
14.7868
3.01042
6.072
8.54904
9.52327
10.5881
48.9995
7.45396
2.6183
0.930152
0.342832
0.135298
0.0594278
0.0290424
0.0154811
0.00884751
0.00534732
0.0033667
0.00220466
0.00150716
0.0010814
0.000818238
0.000654262
0.000551689
0.000487402
0.000446905
0.000420985
0.000403854
0.000392167
0.000384211
0.000378711
5.9618
2.35996
0.876283
0.330584
0.132212
0.0584652
0.0286372
0.0152505
0.00868563
0.00521851
0.0032619
0.00211999
0.00143948
0.00102776
0.000776038
0.00062136
0.000526354
0.000468196
0.000432605
0.000410579
0.000396558
0.000387356
0.000381326
0.000377353
4.78267
2.06815
0.811146
0.31593
0.128836
0.0575818
0.0283392
0.0151038
0.00858602
0.00513436
0.00318946
0.00205912
0.00138953
0.000987467
0.000743974
0.000596186
0.000506902
0.000453435
0.000421613
0.000402583
0.000390968
0.000383712
0.000379204
0.000376416
3.948
1.82624
0.751738
0.302061
0.125772
0.056908
0.0281817
0.0150512
0.00855108
0.00509504
0.00314892
0.00202132
0.00135646
0.00095967
0.000721229
0.000577987
0.000492662
0.000442536
0.000413448
0.000396619
0.000386796
0.000381012
0.000377669
0.000375787
3.37025
1.64686
0.70412
0.290824
0.123508
0.0565748
0.0282021
0.0150994
0.00858115
0.00510159
0.00314088
0.00200659
0.00133991
0.000943903
0.000707299
0.000566263
0.000483165
0.000435085
0.00040776
0.000392404
0.000383825
0.000379101
0.000376616
0.000375385
2.97764
1.52071
0.669609
0.283151
0.122381
0.0566784
0.0284131
0.0152522
0.00867521
0.00515024
0.00316297
0.00201423
0.00133997
0.000940115
0.000702011
0.00056077
0.000478159
0.000430846
0.00040434
0.000389759
0.000381894
0.000377881
0.000375979
0.000375167
2.71643
1.43726
0.648036
0.279505
0.1226
0.0572781
0.0288589
0.0155301
0.00884265
0.00524545
0.0032156
0.00204248
0.00135451
0.000947125
0.000704868
0.00056137
0.000477573
0.000429756
0.000403132
0.000388631
0.000381027
0.000377304
0.000375662
0.000375072
2.55044
1.38957
0.63899
0.280139
0.124285
0.0584866
0.02959
0.0159623
0.00910282
0.00539975
0.0033071
0.00209692
0.00138705
0.000966622
0.000716513
0.00056825
0.000481534
0.000431924
0.00040424
0.00038914
0.000381219
0.000377346
0.000375653
0.000375065
2.45703
1.37331
0.642173
0.285304
0.127829
0.0605124
0.0307157
0.0166005
0.00947942
0.00562639
0.00344605
0.00218345
0.00144158
0.00100127
0.000738643
0.000582386
0.000490528
0.000437606
0.000407801
0.000391352
0.000382483
0.000378022
0.000375968
0.000375153
2.42267
1.38646
0.658472
0.296026
0.133625
0.0634834
0.0322726
0.0174569
0.00997691
0.00592656
0.00363212
0.00230113
0.00151729
0.00105074
0.000771344
0.000604143
0.000505006
0.000447204
0.000414133
0.000395495
0.00038511
0.000379492
0.000376697
0.000375394
2.43927
1.42878
0.688792
0.312712
0.141873
0.0674947
0.0343056
0.0185531
0.0106063
0.00630684
0.00386988
0.00245351
0.00161695
0.00111704
0.000816081
0.000634585
0.000525762
0.000461312
0.000423671
0.000401874
0.000389246
0.000381963
0.000377963
0.000375911
2.50506
1.50163
0.735267
0.336479
0.153081
0.0727654
0.0369114
0.0199341
0.01139
0.00677972
0.00416698
0.00264563
0.00174402
0.00120272
0.000874728
0.000675129
0.000553885
0.000480773
0.000437058
0.000410975
0.00039525
0.000385676
0.000380029
0.000376782
2.62006
1.60758
0.801429
0.368885
0.167931
0.0795831
0.0402132
0.0216562
0.0123554
0.00736026
0.00453261
0.00288354
0.00190279
0.00131087
0.00094963
0.000727588
0.0005908
0.000506714
0.000455179
0.000423478
0.000403632
0.000390974
0.000383075
0.000378131
2.78804
1.75219
0.890507
0.411941
0.187335
0.0883281
0.0443709
0.0237906
0.0135363
0.00806664
0.00497774
0.00317449
0.00209833
0.00144527
0.00104366
0.000794206
0.000638294
0.000540569
0.000479171
0.000440261
0.000415036
0.000398304
0.00038739
0.000380111
3.01597
1.94278
1.00736
0.468342
0.212505
0.0995023
0.049592
0.0264278
0.0149749
0.00892103
0.00551545
0.00352701
0.00233667
0.00161037
0.00116025
0.000877689
0.000698541
0.000584097
0.000510449
0.000462431
0.000430293
0.000408254
0.00039334
0.000382912
3.31451
2.18899
1.15845
0.541633
0.245039
0.113763
0.0561457
0.0296839
0.0167241
0.0099505
0.00616135
0.00395112
0.00262478
0.00181135
0.00130339
0.000981218
0.000774117
0.00063941
0.000550749
0.000491395
0.000450504
0.000421593
0.000401298
0.000386682
3.69931
2.50361
1.352
0.636346
0.286999
0.131964
0.0643779
0.0337061
0.0188513
0.0111884
0.00693404
0.00445848
0.0029707
0.00205415
0.00147771
0.00110849
0.000868058
0.000709035
0.000602173
0.000528868
0.000476981
0.000439222
0.000411828
0.000391622
4.19109
2.90388
1.598
0.758073
0.340976
0.155185
0.0747255
0.0386778
0.0214462
0.0126762
0.00785579
0.00506267
0.00338364
0.00234554
0.00168847
0.00126379
0.000983916
0.000795959
0.000667239
0.000576926
0.000511364
0.00046233
0.000425688
0.000398023
4.81792
3.416
1.90832
0.913358
0.410094
0.184762
0.087733
0.0448248
0.0246206
0.0144645
0.0089533
0.00577963
0.00387421
0.00269323
0.00194167
0.00145199
0.00112577
0.000903655
0.000748898
0.00063805
0.000555663
0.000492439
0.000443873
0.000406241
5.63796
4.0703
2.29556
1.10918
0.497861
0.22227
0.104066
0.0524323
0.0284926
0.0166133
0.0102584
0.00662809
0.0044546
0.00310595
0.00224403
0.00167854
0.00129823
0.00103606
0.000850546
0.000715146
0.000612298
0.000531437
0.000467654
0.000416743
6.78167
4.90021
2.77072
1.35188
0.607769
0.269421
0.124487
0.0618315
0.0332102
0.0191947
0.0118094
0.00763018
0.00513897
0.0035936
0.00260306
0.0019495
0.00150636
0.00119755
0.000976012
0.000811554
0.000684123
0.000581621
0.000498629
0.000430129
8.56836
5.93831
3.33983
1.64424
0.742401
0.327815
0.149801
0.0733957
0.0389476
0.0222952
0.0136518
0.00881216
0.00594379
0.00416749
0.00302713
0.00227151
0.0017557
0.00139293
0.00112954
0.000931052
0.000774444
0.000645727
0.000538754
0.000447157
12.1237
7.31295
4.01203
1.98416
0.902192
0.398502
0.180739
0.0875143
0.0459007
0.0260173
0.0158408
0.0102056
0.00688864
0.00484072
0.00352573
0.00265191
0.0020523
0.0016274
0.00131576
0.00107783
0.000887017
0.000726958
0.000590388
0.000468767
21.4415
9.65154
4.83002
2.36585
1.08427
0.481422
0.217778
0.104546
0.0542727
0.0304845
0.018442
0.011848
0.00799662
0.00562853
0.0041096
0.0030988
0.00240266
0.0019065
0.00153961
0.0012564
0.00102601
0.000828992
0.000656319
0.000496093
)
;

boundaryField
{
    rotor
    {
        type            epsilonWallFunction;
        value           nonuniform List<scalar> 
144
(
4.80984
3.6366
2.60627
1.85274
1.40272
2.36092
4.80984
1.4436
2.05558
2.53034
2.88627
3.17569
3.42463
3.64326
3.83568
4.00422
4.15067
4.27715
4.38653
4.42876
4.41321
4.31879
4.1431
3.88009
3.52078
3.0677
2.53374
1.89109
1.25121
4.51155
4.51155
10.0009
12.838
11.4114
9.18575
31.6263
1.7698
2.10352
2.64914
2.93902
3.34038
4.5415
1.7698
0.825077
0.225745
0.25076
0.269335
0.280461
1.2028
1.25826
1.31852
1.36994
1.40684
1.42563
1.42462
1.40344
1.36554
1.3121
1.24778
0.280883
0.27863
0.269476
0.253203
0.230473
0.858753
1.94553
1.94553
2.21447
2.57884
2.74407
2.7564
3.31364
2.90211
7.67097
11.8211
12.5677
10.7034
36.4784
2.90211
0.959167
1.32293
1.78655
2.17468
2.48912
2.73337
2.91162
3.02809
3.08667
3.09089
3.04483
2.96015
2.84694
2.70461
2.53407
2.33711
2.1153
1.86678
1.57744
1.20289
0.251543
0.964527
2.60746
2.60746
1.8059
1.76427
2.08104
2.90944
28.1527
3.2557
8.06469
11.6192
12.5153
10.8189
35.9158
3.2557
1.14061
1.69349
2.34198
2.93456
3.45888
3.9086
4.28052
4.57294
4.78473
4.9152
4.9663
4.95956
4.89383
4.76216
4.55746
4.27432
3.90906
3.46005
2.92979
2.32887
1.6811
1.14982
3.01042
3.01042
6.072
8.54904
9.52327
10.5881
48.9995
)
;
    }
    freestream
    {
        type            inletOutlet;
        inletValue      uniform 0.000375;
        value           nonuniform List<scalar> 
96
(
0.000375
0.000375
0.000375
0.000375
0.000375
0.000375
0.00187552
0.00349985
0.0050537
0.00653001
0.00798159
0.00941217
0.0108097
0.0121646
0.0134771
0.0147607
0.0160589
0.0174696
0.0191822
0.0216019
0.0255813
0.0331511
0.0501321
0.0975544
0.258717
0.709112
1.31595
1.52187
1.49799
1.4034
1.38493
1.43699
1.52804
1.55508
1.49039
1.25665
0.888114
0.514869
0.28992
0.19202
0.143899
0.108167
0.0796815
0.061809
0.0493042
0.03959
0.0319084
0.0256721
0.0204875
0.0161211
0.0124309
0.00931237
0.00668755
0.00448868
0.0025861
0.000375
0.000375
0.000375
0.000375
0.000375
0.000375
0.000375
0.000375
0.000375
0.000375
0.000375
0.000375
0.000375
0.000375
0.000375
0.000375
0.000375
0.000375
0.000375
0.000375
0.000375
0.000375
0.000375
0.000375
0.000375
0.000375
0.000375
0.000375
0.000375
0.000375
0.000375
0.000375
0.000375
0.000375
0.000375
0.000375
0.000375
0.000375
0.000375
0.000375
0.000375
)
;
    }
    frontAndBack
    {
        type            empty;
    }
}


// ************************************************************************* //
