/*--------------------------------*- C++ -*----------------------------------*\
  =========                 |
  \\      /  F ield         | OpenFOAM: The Open Source CFD Toolbox
   \\    /   O peration     | Website:  https://openfoam.org
    \\  /    A nd           | Version:  11
     \\/     M anipulation  |
\*---------------------------------------------------------------------------*/
FoamFile
{
    format      ascii;
    class       volScalarField;
    location    "0.18";
    object      k;
}
// * * * * * * * * * * * * * * * * * * * * * * * * * * * * * * * * * * * * * //

dimensions      [0 2 -2 0 0 0 0];

internalField   nonuniform List<scalar> 
2880
(
0.0103208
0.015102
0.0178119
0.0188657
0.0199017
0.044371
0.0277961
0.0374625
0.040015
0.039556
0.0413304
0.0711356
0.0360298
0.0470725
0.0521585
0.052049
0.0557502
0.0868137
0.0413852
0.0548744
0.0620452
0.0624361
0.0676644
0.0996355
0.0451824
0.062155
0.0708066
0.0717909
0.0782534
0.110903
0.0481563
0.0689625
0.078789
0.0805199
0.0879706
0.120431
0.0506428
0.0753215
0.0861746
0.0888402
0.0970734
0.128098
0.0527774
0.0812987
0.0931031
0.0969074
0.105756
0.134494
0.0546213
0.0868955
0.0996722
0.104835
0.114114
0.14024
0.0562114
0.0920767
0.105934
0.112621
0.122299
0.145782
0.0575753
0.0968104
0.111907
0.120253
0.130495
0.151471
0.0587407
0.101039
0.117588
0.127756
0.138851
0.157678
0.0597398
0.104657
0.122951
0.135147
0.147454
0.164876
0.0601221
0.10777
0.127934
0.142412
0.156421
0.173474
0.059981
0.110315
0.132428
0.149464
0.165787
0.183826
0.0591212
0.112136
0.136258
0.156108
0.175384
0.195804
0.0575049
0.112916
0.139181
0.162014
0.184762
0.208733
0.0550426
0.112535
0.140796
0.166694
0.193173
0.22148
0.0515867
0.11044
0.140846
0.169375
0.199564
0.232356
0.0470562
0.106005
0.138725
0.169451
0.202461
0.239328
0.0414207
0.0982253
0.133703
0.165779
0.200402
0.239998
0.0340789
0.0858134
0.124703
0.156935
0.190773
0.231342
0.0240891
0.0662136
0.109689
0.140775
0.169421
0.207004
0.00967147
0.0414768
0.0875644
0.115965
0.130175
0.132892
0.28628
0.348839
0.298636
0.222416
0.156369
0.108312
0.0767298
0.0567464
0.0439061
0.035275
0.0291547
0.0246059
0.0211003
0.0183213
0.0160654
0.0141934
0.0126054
0.0112267
0.00999869
0.00887184
0.00780014
0.00674666
0.00569452
0.00458975
0.240958
0.326848
0.296052
0.228284
0.16391
0.114941
0.0817677
0.0604048
0.0466145
0.0373857
0.030898
0.0261182
0.0224586
0.0195688
0.0172257
0.0152788
0.013621
0.0121724
0.0108697
0.00965883
0.00848755
0.00730987
0.00609571
0.00476196
0.21178
0.303042
0.289589
0.231367
0.169831
0.120962
0.0867064
0.0641487
0.0494415
0.0396002
0.0327237
0.0276965
0.0238734
0.020868
0.0184364
0.0164153
0.0146896
0.0131734
0.0117988
0.0105063
0.00923712
0.00793411
0.00654769
0.00495332
0.194419
0.281913
0.278542
0.231157
0.174089
0.126292
0.0914829
0.0679454
0.0523773
0.0419192
0.0346359
0.0293455
0.0253487
0.0222231
0.0197021
0.0176084
0.0158178
0.0142378
0.0127948
0.0114236
0.0100585
0.00862951
0.00706011
0.00516586
0.184839
0.263912
0.266091
0.229182
0.176962
0.130943
0.0960684
0.0717766
0.0554161
0.0443454
0.0366393
0.03107
0.0268896
0.0236398
0.0210305
0.0188693
0.0170215
0.015387
0.0138851
0.0124436
0.0109882
0.00943463
0.00767059
0.00541786
0.179728
0.248649
0.253948
0.226206
0.178749
0.13497
0.100446
0.0756298
0.0585581
0.0468818
0.0387377
0.0328732
0.0284986
0.0251214
0.0224278
0.0202096
0.0183216
0.0166555
0.0151233
0.013644
0.0121318
0.0104842
0.00854462
0.00590382
0.177336
0.235846
0.242474
0.222021
0.179524
0.138414
0.104612
0.0794961
0.0618009
0.049531
0.0409334
0.0347542
0.0301717
0.026662
0.0238883
0.0216274
0.0197253
0.0180691
0.0165693
0.015146
0.0137166
0.0122
0.0106025
0.00932753
0.176737
0.225241
0.231843
0.216381
0.17938
0.14125
0.108547
0.0833615
0.0651417
0.0522949
0.0432259
0.0367071
0.0318965
0.0282429
0.0253878
0.0230949
0.0212048
0.0196084
0.0182303
0.0170201
0.0159463
0.0150065
0.014285
0.0140165
0.177253
0.216633
0.222217
0.2104
0.178658
0.143531
0.112229
0.0872072
0.0685751
0.055175
0.0456152
0.0387254
0.0336582
0.0298406
0.0268947
0.0245721
0.0227102
0.0212047
0.0199928
0.0190426
0.0183439
0.017905
0.0177583
0.0178984
0.17842
0.209884
0.213726
0.204439
0.177447
0.145321
0.115628
0.0910057
0.072091
0.0581735
0.0481056
0.0408086
0.0354486
0.031439
0.0283855
0.0260291
0.0242031
0.0228043
0.0217724
0.0210743
0.0206888
0.0205954
0.0207551
0.0210696
0.180146
0.204938
0.206537
0.198833
0.175962
0.146696
0.118729
0.0947298
0.0756767
0.0612945
0.0507085
0.0429663
0.0372705
0.0330324
0.0298455
0.0274402
0.0256431
0.0243455
0.0234796
0.0229979
0.0228572
0.0229943
0.0233473
0.0237573
0.182864
0.201802
0.201122
0.193855
0.17422
0.147691
0.121536
0.0983496
0.0793174
0.0645447
0.0534438
0.0452205
0.0391409
0.0346284
0.0312702
0.0287862
0.0269926
0.0257697
0.0250348
0.0247219
0.0247609
0.0250612
0.0255518
0.026032
0.187147
0.201098
0.197904
0.189888
0.172319
0.148403
0.124074
0.101846
0.0829999
0.0679339
0.0563397
0.0476071
0.0410925
0.0362501
0.0326687
0.0300593
0.0282258
0.0270333
0.0263817
0.026186
0.0263399
0.0267687
0.0273589
0.0278991
0.193469
0.202506
0.197498
0.187295
0.170656
0.149022
0.126441
0.105236
0.0867225
0.0714762
0.0594325
0.0501752
0.0431756
0.0379392
0.0340684
0.0312697
0.0293348
0.0281132
0.0274868
0.0273528
0.0275721
0.0280881
0.0287539
0.0293485
0.202264
0.206763
0.199043
0.186988
0.170122
0.149905
0.128789
0.108589
0.0905086
0.075195
0.0627657
0.0529866
0.0454591
0.0397603
0.0355211
0.0324522
0.0303374
0.0290124
0.0283429
0.02821
0.0284476
0.029007
0.0297257
0.0303695
0.213919
0.215638
0.204102
0.188599
0.170934
0.151416
0.131353
0.112028
0.0944168
0.0791315
0.0663937
0.0561169
0.0480329
0.0418057
0.0371113
0.0336767
0.0312861
0.0297671
0.0289732
0.0287715
0.028978
0.0295288
0.0302731
0.0309585
0.228213
0.229295
0.214278
0.193891
0.174109
0.154178
0.134534
0.115795
0.098583
0.0833714
0.0703948
0.0596603
0.0510101
0.0441994
0.0389627
0.0350575
0.0322796
0.0304579
0.0294404
0.0290838
0.0292035
0.0296774
0.0304098
0.0311244
0.244015
0.246543
0.228907
0.204099
0.180755
0.159139
0.139018
0.120344
0.103294
0.0880971
0.0749052
0.0637471
0.0545352
0.0471023
0.0412456
0.0367636
0.0334758
0.0312243
0.0298619
0.029241
0.0292087
0.0295355
0.030209
0.0309287
0.259224
0.264579
0.245994
0.218299
0.191431
0.167285
0.145752
0.12643
0.109094
0.0936845
0.0801932
0.0685944
0.0588137
0.0507286
0.0441871
0.0390298
0.0351072
0.0322848
0.0304338
0.0294202
0.0290995
0.0292355
0.0297293
0.0304208
0.270711
0.279208
0.261718
0.233842
0.20512
0.178797
0.155488
0.134939
0.116793
0.100794
0.0867723
0.0746085
0.0641904
0.0553987
0.0481053
0.0421804
0.0375026
0.0339618
0.0314565
0.0298803
0.0291062
0.0289481
0.0291693
0.0297347
0.274899
0.285825
0.271433
0.246366
0.218717
0.192093
0.167849
0.146236
0.127109
0.110243
0.0954279
0.0824895
0.0712788
0.0616608
0.0535091
0.0467063
0.0411461
0.0367354
0.0333955
0.0310475
0.0296001
0.0289265
0.028835
0.0290992
0.268479
0.280983
0.271003
0.251274
0.227947
0.203847
0.180715
0.159314
0.13989
0.122451
0.106906
0.0931383
0.0810244
0.0704454
0.0612892
0.0534529
0.0468423
0.0413766
0.0369942
0.0336396
0.0312481
0.0297506
0.0290214
0.0289301
0.248754
0.262565
0.259631
0.246807
0.229313
0.210433
0.190898
0.171769
0.153639
0.136788
0.12132
0.10725
0.0945438
0.0831461
0.0729952
0.0640297
0.0561917
0.0494322
0.0437177
0.0390325
0.0353438
0.0326081
0.0307785
0.0298105
0.212324
0.232361
0.23667
0.232549
0.22309
0.210023
0.195944
0.181076
0.166182
0.151718
0.137932
0.12495
0.112816
0.101533
0.0910803
0.0814332
0.0725722
0.0644838
0.0571959
0.0507487
0.0451845
0.040515
0.0369237
0.0339289
0.00379345
0.00871521
0.0180585
0.0298708
0.0474022
0.0857419
0.0158738
0.0247437
0.0374359
0.050345
0.0673198
0.0957397
0.020039
0.0333624
0.047783
0.0616848
0.0781754
0.100843
0.0222611
0.039115
0.0547183
0.0693017
0.0851754
0.104045
0.0239111
0.043529
0.0599583
0.0749415
0.0902001
0.106464
0.0248993
0.0471416
0.0641124
0.0793067
0.0940459
0.108562
0.025192
0.0502262
0.067456
0.0827518
0.0971035
0.11052
0.025956
0.0526779
0.070125
0.0854782
0.0995849
0.112393
0.0267739
0.0545694
0.0722012
0.087607
0.101611
0.114188
0.0274625
0.055944
0.0737354
0.0892109
0.103246
0.115892
0.0279513
0.0568267
0.0747582
0.0903301
0.104522
0.11749
0.0281982
0.0572298
0.0752855
0.0909804
0.105441
0.118957
0.0281841
0.0571595
0.0753204
0.0911577
0.105982
0.120257
0.0279036
0.0566036
0.0748549
0.0908394
0.106102
0.121332
0.0273997
0.0555468
0.0738705
0.089986
0.105728
0.122092
0.0266813
0.0539775
0.0723382
0.0885408
0.104763
0.122403
0.0258102
0.0518826
0.0702193
0.0864305
0.103079
0.122069
0.0250618
0.0492552
0.0674667
0.0835654
0.100514
0.120824
0.0247453
0.0461078
0.0640208
0.0798335
0.0968574
0.11831
0.0239208
0.042593
0.0597918
0.0750812
0.0918586
0.114112
0.0224755
0.0384681
0.0545554
0.0690468
0.0851553
0.107687
0.0204588
0.0332498
0.0477494
0.0611489
0.0760484
0.0982867
0.0165253
0.0254569
0.0376619
0.0496797
0.0626658
0.0847589
0.00417284
0.00918253
0.017573
0.0278547
0.0389668
0.0621826
0.167611
0.196909
0.20833
0.21154
0.209731
0.204145
0.195663
0.186195
0.17606
0.165743
0.155538
0.145607
0.136015
0.12677
0.11784
0.109172
0.100715
0.0924371
0.0843401
0.0764262
0.0688911
0.0616054
0.0556129
0.0484673
0.14225
0.168329
0.18286
0.190782
0.194302
0.194247
0.19201
0.187881
0.183047
0.177814
0.172418
0.167011
0.161645
0.156303
0.150925
0.145421
0.139664
0.133532
0.126951
0.119851
0.112341
0.104154
0.0967053
0.0862419
0.130024
0.150421
0.164655
0.174525
0.181116
0.184977
0.18691
0.187456
0.187297
0.186738
0.185848
0.184815
0.183647
0.182301
0.180712
0.178816
0.176477
0.173529
0.169887
0.165536
0.160461
0.154705
0.148611
0.141274
0.124797
0.140985
0.153853
0.164017
0.17195
0.177944
0.182485
0.185988
0.188808
0.191139
0.193056
0.19458
0.195691
0.196344
0.196496
0.196211
0.195505
0.194217
0.192308
0.18997
0.187285
0.184441
0.181609
0.1789
0.122983
0.136793
0.148562
0.158468
0.166714
0.173503
0.17916
0.183962
0.188078
0.191578
0.194501
0.196856
0.198636
0.199836
0.200475
0.200595
0.200325
0.199676
0.19868
0.19747
0.196112
0.194768
0.193508
0.192295
0.122844
0.13552
0.146698
0.156336
0.164511
0.171381
0.177192
0.182151
0.186395
0.190001
0.193003
0.19541
0.197242
0.198536
0.199347
0.199745
0.199805
0.199626
0.199217
0.198723
0.198246
0.197785
0.197307
0.196692
0.123698
0.135917
0.146844
0.156323
0.164345
0.171045
0.176649
0.181356
0.185301
0.188562
0.191194
0.193279
0.194883
0.196076
0.196936
0.197542
0.19797
0.198283
0.198535
0.198739
0.198943
0.199127
0.199213
0.199039
0.125147
0.137413
0.148428
0.157948
0.165904
0.172424
0.177738
0.18207
0.185599
0.188465
0.19077
0.192599
0.194034
0.195151
0.196025
0.19672
0.197303
0.197816
0.198299
0.198808
0.199328
0.199862
0.200335
0.200533
0.126978
0.139669
0.151092
0.160918
0.169033
0.175561
0.18075
0.184853
0.188088
0.190627
0.192606
0.194132
0.195296
0.196168
0.196821
0.197277
0.197632
0.197855
0.198078
0.198307
0.198576
0.198926
0.199386
0.199899
0.129082
0.142539
0.154696
0.165126
0.173677
0.180475
0.185783
0.189881
0.193011
0.195369
0.197096
0.198306
0.199073
0.199435
0.199477
0.199053
0.198275
0.1974
0.196311
0.195058
0.193723
0.192447
0.19153
0.191386
0.131407
0.145984
0.159215
0.170553
0.179807
0.187109
0.19274
0.196992
0.200118
0.202314
0.203703
0.204419
0.204436
0.203605
0.201915
0.199938
0.197516
0.194521
0.190998
0.186997
0.182599
0.178004
0.173789
0.171062
0.13393
0.150013
0.16466
0.177159
0.187281
0.195175
0.201138
0.205473
0.208433
0.210186
0.210755
0.209947
0.208029
0.205407
0.202095
0.197852
0.192679
0.18663
0.179797
0.172301
0.164314
0.156007
0.147922
0.140938
0.136633
0.154643
0.171
0.184772
0.195697
0.203971
0.209923
0.213849
0.215692
0.215634
0.214293
0.211693
0.207925
0.202809
0.196391
0.188766
0.18007
0.170489
0.160236
0.149561
0.138743
0.127982
0.117797
0.10737
0.139489
0.159863
0.178086
0.192957
0.20423
0.212221
0.216965
0.218722
0.218462
0.216742
0.213092
0.207394
0.200024
0.191139
0.180946
0.169689
0.157657
0.145162
0.132569
0.120232
0.108547
0.0978719
0.0882565
0.079418
0.142435
0.165584
0.185537
0.200881
0.211501
0.217239
0.219475
0.219049
0.21634
0.210812
0.202848
0.193014
0.181623
0.16902
0.155585
0.141726
0.127875
0.1145
0.102079
0.0910217
0.0816149
0.0739545
0.0680547
0.065212
0.145347
0.17158
0.192626
0.207084
0.214726
0.217881
0.216949
0.212903
0.205196
0.194873
0.182617
0.168948
0.154399
0.139498
0.124756
0.110718
0.0979255
0.0868225
0.0776455
0.0704199
0.065018
0.0613889
0.0592836
0.0591307
0.148003
0.177408
0.198137
0.209317
0.213836
0.212603
0.207386
0.197621
0.185081
0.170696
0.15525
0.139464
0.123999
0.109431
0.096331
0.0851484
0.0760514
0.0689524
0.0636036
0.0597296
0.0571137
0.0556164
0.0553131
0.0561176
0.15004
0.182328
0.200049
0.207461
0.206679
0.201042
0.189785
0.175421
0.159421
0.14284
0.126588
0.111371
0.0977467
0.0861619
0.0767599
0.0693687
0.0636592
0.0592949
0.0560181
0.0536877
0.0522858
0.0518958
0.0523123
0.0538577
0.150983
0.185078
0.198435
0.19984
0.194789
0.183203
0.167654
0.150632
0.133486
0.117278
0.102705
0.090198
0.0799273
0.0717279
0.0652294
0.0600638
0.0559518
0.0527179
0.0503118
0.0487897
0.0482514
0.0485143
0.0495148
0.0516011
0.150607
0.185103
0.192111
0.188989
0.179003
0.163055
0.145492
0.128058
0.11197
0.0979011
0.0860964
0.0764825
0.0687159
0.0624055
0.0572489
0.0530399
0.0496699
0.0471229
0.0454492
0.0447174
0.0448373
0.0455482
0.0470959
0.0493099
0.149755
0.182241
0.183601
0.17734
0.162542
0.144578
0.126714
0.110394
0.0963009
0.0845441
0.0749005
0.0669816
0.0604437
0.0550457
0.0506223
0.0470773
0.0443734
0.042512
0.0415098
0.0413627
0.0417888
0.0429092
0.044678
0.0468271
0.150993
0.179856
0.177444
0.166493
0.148097
0.12934
0.112153
0.0973494
0.0849904
0.07478
0.0663274
0.0593218
0.0535409
0.0488224
0.0450495
0.0421384
0.0400353
0.0387162
0.0381756
0.0383091
0.0389768
0.0402928
0.0420628
0.0440693
0.158857
0.179919
0.174227
0.156906
0.136157
0.117157
0.100861
0.0872943
0.0760793
0.0667925
0.0591107
0.0528005
0.0476798
0.0435942
0.0404109
0.0380268
0.0363752
0.0354228
0.0351522
0.0354143
0.0362116
0.0375229
0.0392045
0.0410379
0.176591
0.18738
0.171984
0.147701
0.125693
0.107009
0.0916034
0.0789457
0.068509
0.0599138
0.0528917
0.0472266
0.0427226
0.0391996
0.0365048
0.0345242
0.0331854
0.0324498
0.0322957
0.032593
0.0333773
0.0345857
0.0361133
0.0377591
0.00623273
0.0318688
0.08074
0.127735
0.152833
0.146422
0.0184834
0.0581464
0.11054
0.160842
0.206202
0.241956
0.0268734
0.0756488
0.12787
0.179964
0.227164
0.254484
0.0328306
0.0865099
0.138087
0.189525
0.232102
0.250914
0.0374264
0.0937181
0.144182
0.193531
0.231029
0.240547
0.0409506
0.0985206
0.14755
0.194221
0.226687
0.22929
0.043586
0.101551
0.148984
0.193124
0.221364
0.219601
0.0454593
0.103159
0.148971
0.191028
0.21625
0.211913
0.0466621
0.103539
0.147822
0.18847
0.21187
0.205988
0.0472605
0.102801
0.145721
0.185714
0.208284
0.201579
0.0473023
0.101002
0.142758
0.182837
0.205318
0.198452
0.0468298
0.0981732
0.138958
0.179766
0.202786
0.196437
0.0459559
0.094326
0.1343
0.176308
0.200567
0.195313
0.0447748
0.0894977
0.128738
0.172227
0.198504
0.195083
0.0432679
0.0837784
0.122206
0.167222
0.196383
0.195452
0.0414272
0.0772651
0.114633
0.160893
0.193968
0.19638
0.0392495
0.0700669
0.105952
0.152781
0.190777
0.197648
0.0367225
0.0623053
0.0961109
0.142475
0.186026
0.198999
0.0337839
0.0541142
0.085112
0.129586
0.178632
0.199895
0.030193
0.0456459
0.0730435
0.113855
0.167046
0.20001
0.0251987
0.0371438
0.0601251
0.0950347
0.149077
0.197937
0.0223359
0.0294695
0.0466685
0.0734148
0.123451
0.187274
0.0185645
0.0216679
0.0320484
0.0496404
0.0882307
0.154819
0.00559165
0.00749265
0.0120557
0.0211842
0.0412594
0.123081
0.210026
0.194533
0.165751
0.138832
0.116387
0.0982953
0.0836551
0.071685
0.0618822
0.0539182
0.0475318
0.0424796
0.038531
0.0354819
0.0331682
0.0314727
0.0303228
0.029681
0.0295285
0.0297782
0.0304455
0.0314839
0.0328163
0.0342714
0.233182
0.195595
0.158655
0.130005
0.107962
0.0906198
0.0766293
0.0652452
0.0560434
0.0487062
0.0429354
0.0384431
0.0349688
0.0322963
0.0302607
0.0287481
0.0276896
0.0270507
0.0268175
0.0269514
0.0274285
0.0282481
0.0293577
0.0306239
0.235229
0.187307
0.149369
0.121537
0.100455
0.0837889
0.0703379
0.059512
0.0509204
0.0442025
0.0390035
0.0349974
0.031909
0.0295227
0.0276803
0.0262738
0.0252376
0.0245391
0.0241687
0.0241256
0.0243671
0.024923
0.0257866
0.0268651
0.22616
0.177018
0.140556
0.114078
0.0937948
0.0776359
0.0646812
0.0544302
0.0464551
0.0403251
0.0356339
0.0320338
0.0292497
0.0270752
0.0253621
0.0240085
0.0229507
0.0221555
0.0216143
0.0213331
0.0213198
0.0215667
0.0221501
0.0230353
0.213438
0.167026
0.132806
0.107522
0.0878
0.0720645
0.0596172
0.0499598
0.0425847
0.0369895
0.0327329
0.0294627
0.026914
0.0248942
0.0232659
0.021933
0.0208315
0.0199245
0.0191989
0.0186616
0.0183329
0.0182536
0.0185005
0.0191586
0.201302
0.158351
0.126185
0.101727
0.0823805
0.0670406
0.055121
0.0460557
0.0392405
0.0341146
0.0302203
0.0272136
0.0248459
0.0229398
0.0213686
0.0200414
0.0188934
0.0178814
0.0169825
0.0161945
0.0155364
0.0150595
0.0148903
0.0152163
0.191067
0.151261
0.120578
0.0965825
0.0774916
0.062545
0.0511618
0.042664
0.0363527
0.0316275
0.0280302
0.0252328
0.0230052
0.0211852
0.0196566
0.0183337
0.0171518
0.0160618
0.0150284
0.0140317
0.0130689
0.0121607
0.0113613
0.0108991
0.1831
0.145648
0.115835
0.0920155
0.0731094
0.0585575
0.0477006
0.0397269
0.0338562
0.0294662
0.0261098
0.0234788
0.0213618
0.0196111
0.0181202
0.0168094
0.0156163
0.0144896
0.0133853
0.0122634
0.0110843
0.00979705
0.00824682
0.00600507
0.17723
0.141308
0.111839
0.0879844
0.0692168
0.0550519
0.0446921
0.0371874
0.0316927
0.027579
0.0244166
0.0219185
0.0198911
0.0181998
0.0167475
0.015461
0.0142828
0.0131649
0.0120646
0.0109396
0.0097436
0.00843335
0.00698885
0.0052019
0.173111
0.138049
0.10851
0.0844639
0.0657956
0.0519955
0.0420891
0.0349927
0.0298126
0.0259231
0.0229155
0.0205237
0.01857
0.0169314
0.015519
0.0142663
0.0131211
0.0120411
0.0109901
0.0099337
0.00883512
0.00766054
0.00639594
0.00494604
0.170483
0.135737
0.105803
0.0814379
0.0628241
0.0493523
0.0398459
0.0330962
0.0281739
0.0244635
0.0215779
0.0192702
0.0173769
0.0157845
0.0144113
0.0131958
0.0120902
0.0110562
0.0100621
0.00907865
0.00807551
0.00702876
0.00594034
0.0047597
0.169138
0.134296
0.103698
0.0788936
0.0602779
0.0470856
0.0379205
0.031458
0.0267424
0.0231718
0.0203803
0.0181381
0.0162935
0.0147411
0.0134045
0.0122262
0.0111618
0.0101761
0.00924046
0.00832969
0.00741878
0.00649157
0.00555856
0.00459294
0.169036
0.13368
0.102188
0.0768197
0.0581311
0.045161
0.0362769
0.030045
0.0254903
0.0220255
0.0193044
0.0171118
0.015306
0.0137878
0.0124851
0.0113433
0.0103204
0.00938355
0.00850669
0.00766767
0.00684574
0.00603014
0.00523473
0.00444555
0.16996
0.133835
0.101287
0.0752069
0.05636
0.0435483
0.0348845
0.02883
0.024395
0.0210066
0.0183355
0.0161794
0.0144041
0.0129154
0.0116442
0.0105381
0.00955691
0.00866938
0.00785134
0.00708289
0.00634628
0.00563396
0.00495987
0.00431768
0.172015
0.13496
0.100999
0.0740481
0.0549429
0.0422205
0.0337168
0.0277904
0.0234383
0.0201005
0.0174624
0.0153315
0.01358
0.012117
0.0108756
0.00980476
0.00886538
0.00802739
0.00726781
0.00656815
0.00591257
0.00529498
0.00472755
0.00420825
0.175172
0.136957
0.101223
0.0733436
0.0538592
0.0411531
0.0327513
0.0269071
0.0226051
0.0192958
0.0166759
0.0145612
0.0128279
0.0113877
0.0101747
0.00913872
0.00824118
0.00745262
0.00675066
0.00611755
0.00553829
0.00500699
0.00453285
0.00411597
0.179486
0.13997
0.102297
0.0730994
0.0530871
0.040324
0.0319683
0.0261641
0.0218832
0.018583
0.015969
0.0138625
0.0121431
0.0107233
0.00953765
0.0085361
0.00768017
0.00694053
0.00629492
0.00572565
0.00521778
0.0047645
0.00437139
0.00403914
0.185012
0.14409
0.104015
0.0732205
0.0526035
0.0397133
0.0313502
0.0255479
0.0212623
0.0179545
0.0153355
0.0132309
0.0115216
0.0101202
0.008961
0.00799335
0.00717851
0.00648688
0.00589591
0.00538742
0.00494577
0.00456246
0.00423901
0.0039759
0.191837
0.149468
0.106401
0.0736532
0.0523906
0.0393024
0.0308816
0.0250464
0.0207335
0.0174034
0.0147705
0.0126623
0.01096
0.00957541
0.00844159
0.00750711
0.0067325
0.00608759
0.00554911
0.00509793
0.00471715
0.00439594
0.00413176
0.00392444
0.200045
0.156271
0.109492
0.0744248
0.0524221
0.0390724
0.0305468
0.0246484
0.0202887
0.0169241
0.0142695
0.0121532
0.0104553
0.00908586
0.00797638
0.0070741
0.00633854
0.00573864
0.00525006
0.00485228
0.00452677
0.00426014
0.00404596
0.00388313
0.209726
0.16468
0.113244
0.0755303
0.0526175
0.0389968
0.0303293
0.0243431
0.0199206
0.0165114
0.0138289
0.0117007
0.0100047
0.00864886
0.00756242
0.00669105
0.00599304
0.00543609
0.00499437
0.00464559
0.00436941
0.0041502
0.00397812
0.00385055
0.22185
0.174844
0.117374
0.0768304
0.0529618
0.0390397
0.030212
0.0241199
0.0196225
0.0161609
0.0134457
0.0113023
0.00960607
0.00826195
0.00719689
0.00635477
0.0056924
0.00517596
0.00477766
0.00447307
0.00423996
0.00406107
0.00392471
0.00382499
0.237585
0.186509
0.121091
0.0781772
0.0534033
0.0391621
0.0301769
0.0239681
0.0193881
0.0158688
0.0131173
0.0109563
0.0092576
0.00792316
0.00687739
0.00606232
0.00543321
0.00495438
0.0045958
0.00433054
0.00413449
0.00398909
0.00388194
0.00380452
0.258228
0.196747
0.12403
0.0793936
0.0538764
0.0393422
0.0302026
0.0238781
0.0192123
0.0156325
0.0128424
0.0106616
0.0089583
0.00763116
0.0066021
0.00581135
0.00521249
0.00476786
0.00444487
0.00421403
0.00404944
0.00393159
0.0038479
0.0037884
0.00698382
0.0334602
0.07929
0.127227
0.15334
0.144354
0.0219516
0.0641823
0.108511
0.153765
0.194599
0.249088
0.0316495
0.0852369
0.129174
0.172821
0.215359
0.259204
0.0392854
0.0993865
0.143391
0.185633
0.22509
0.256183
0.0456595
0.10976
0.153839
0.194569
0.229702
0.25146
0.0509473
0.117651
0.161778
0.201072
0.232111
0.247422
0.0552722
0.123721
0.167899
0.205986
0.233607
0.244563
0.0587246
0.128337
0.172616
0.209768
0.234915
0.242998
0.0613694
0.131716
0.176194
0.212754
0.236394
0.242736
0.06325
0.133987
0.178804
0.21517
0.238225
0.243751
0.0643949
0.135221
0.180549
0.217145
0.240494
0.24608
0.0648406
0.13544
0.18147
0.218733
0.2432
0.249686
0.0647819
0.13462
0.181554
0.219914
0.246271
0.254543
0.0642091
0.132743
0.180739
0.220602
0.249558
0.260608
0.0630539
0.129795
0.178912
0.220634
0.25284
0.267786
0.061236
0.125734
0.17592
0.219749
0.25586
0.275883
0.0586753
0.120507
0.171578
0.217596
0.258219
0.284615
0.055286
0.114062
0.165686
0.213747
0.259293
0.293582
0.0509699
0.106353
0.158029
0.207683
0.258328
0.302159
0.0456222
0.0973101
0.148346
0.198723
0.253888
0.309395
0.0391511
0.0867501
0.13619
0.185914
0.244194
0.313711
0.031507
0.07407
0.120545
0.167711
0.226339
0.311827
0.0221405
0.0569944
0.0984617
0.141006
0.195677
0.291609
0.00646192
0.0251691
0.0582826
0.0967147
0.14996
0.177863
0.277558
0.202398
0.125998
0.0802948
0.0543174
0.039552
0.0302709
0.023842
0.0190914
0.0154503
0.0126204
0.010418
0.00870778
0.0073852
0.00636979
0.00560001
0.0050278
0.00461336
0.00432144
0.00412007
0.00398181
0.0038864
0.0038211
0.00377608
0.282025
0.201352
0.1264
0.0807735
0.0546787
0.0397702
0.0303747
0.0238548
0.0190238
0.0153221
0.0124516
0.0102258
0.00850616
0.00718498
0.0061796
0.00542685
0.00487703
0.00448817
0.00422241
0.00404548
0.00392872
0.00385139
0.00380057
0.00376711
0.27116
0.195363
0.125236
0.0808431
0.0549507
0.0399914
0.0305113
0.0239106
0.01901
0.0152489
0.0123371
0.010086
0.00835391
0.0070304
0.00603083
0.00529053
0.00475821
0.00438982
0.00414499
0.00398748
0.0038877
0.00382466
0.00378527
0.00376082
0.257711
0.188511
0.123457
0.0806558
0.0551763
0.0402297
0.0306864
0.0240139
0.0190481
0.0152333
0.0122791
0.0100002
0.00825185
0.00692164
0.00592303
0.00518993
0.00466963
0.00431614
0.00408689
0.00394394
0.00385695
0.00380475
0.00377411
0.00375653
0.245879
0.182406
0.121738
0.0804791
0.0554303
0.040512
0.0309118
0.0241708
0.0191411
0.015274
0.0122802
0.00997047
0.00820133
0.00685938
0.00585617
0.0051244
0.00461008
0.00426555
0.00404639
0.00391323
0.0038351
0.00379061
0.00376634
0.00375373
0.236781
0.177693
0.120473
0.0805046
0.0557865
0.0408697
0.031203
0.0243906
0.0192953
0.0153736
0.0123373
0.00999613
0.00820387
0.00684488
0.00583092
0.00509392
0.00457901
0.00423717
0.00402247
0.00389436
0.00382124
0.00378144
0.00376151
0.00375214
0.230428
0.174564
0.119883
0.0808336
0.0563083
0.0413442
0.031594
0.0246977
0.0195265
0.015541
0.0124546
0.0100756
0.00825482
0.00687496
0.00584587
0.00509831
0.00457651
0.00423091
0.00401488
0.00388699
0.00381496
0.00377725
0.0037592
0.00375146
0.226579
0.173043
0.120094
0.0815742
0.0570911
0.0419993
0.032117
0.0251136
0.0198545
0.0157973
0.0126527
0.0102266
0.00836811
0.00695836
0.00590564
0.00513959
0.00460356
0.00424748
0.00402422
0.00389173
0.00381697
0.00377788
0.00375927
0.00375144
0.225005
0.173117
0.121222
0.0828779
0.0581933
0.0428504
0.0327778
0.0256389
0.0202776
0.0161392
0.0129286
0.0104479
0.00854422
0.00709695
0.00601285
0.00522041
0.0046624
0.00428853
0.00405165
0.00390931
0.00382771
0.00378362
0.00376191
0.00375214
0.225512
0.174792
0.123352
0.0847598
0.0596265
0.0439048
0.0335796
0.0262743
0.0207945
0.0165648
0.01328
0.0107377
0.00878198
0.00729042
0.00616812
0.00534223
0.00475493
0.00435608
0.004099
0.00394124
0.00384826
0.00379554
0.00376768
0.00375395
0.228014
0.178097
0.126557
0.0872896
0.0614392
0.0451929
0.0345403
0.0270304
0.0214125
0.0170795
0.0137116
0.0110998
0.00908489
0.00754203
0.00637451
0.00550808
0.00488417
0.00445301
0.00416879
0.00398947
0.00387994
0.0038147
0.00377759
0.00375758
0.232457
0.183096
0.130937
0.0905493
0.0636857
0.0467465
0.0356779
0.0279179
0.022138
0.0176879
0.0142273
0.011538
0.00945644
0.00785525
0.00663561
0.00572161
0.00505392
0.00458311
0.00426455
0.00405706
0.00392524
0.0038428
0.00379294
0.00376355
0.238838
0.189883
0.136615
0.094636
0.0664296
0.0486019
0.037012
0.0289474
0.0229774
0.0183944
0.0148305
0.0120553
0.00989997
0.00823362
0.00695517
0.00598693
0.00526856
0.0047509
0.00439065
0.00414787
0.00398734
0.00388218
0.00381512
0.00377263
0.247185
0.19857
0.143732
0.0996682
0.0697464
0.0508009
0.0385645
0.0301301
0.0239368
0.0192028
0.0155241
0.0126548
0.0104185
0.00868055
0.00733704
0.00630829
0.00553281
0.00496145
0.00455218
0.00426659
0.00407009
0.00393572
0.00384605
0.00378579
0.257533
0.20928
0.152445
0.105778
0.0737232
0.0533923
0.0403602
0.0314782
0.025022
0.0201161
0.0163104
0.0133385
0.0110146
0.00919901
0.00778475
0.00668986
0.00585142
0.00522004
0.00475466
0.00441852
0.0041781
0.00400701
0.00388804
0.00380418
0.2699
0.222137
0.162907
0.113104
0.0784555
0.0564306
0.0424271
0.0330048
0.0262387
0.0211367
0.0171905
0.0141076
0.0116898
0.00979129
0.00830128
0.00713532
0.00622883
0.00553179
0.00500379
0.00460955
0.00431688
0.00410037
0.0039434
0.00382869
0.284258
0.23724
0.175254
0.121779
0.0840428
0.0599751
0.0447958
0.0347246
0.0275926
0.0222663
0.0181649
0.0149622
0.0124448
0.0104587
0.00888882
0.00764775
0.00666899
0.00590155
0.0053052
0.00484568
0.00449211
0.00422037
0.00401531
0.0038605
0.300467
0.254636
0.189563
0.13191
0.0905772
0.0640862
0.0474988
0.0366531
0.0290896
0.0235059
0.0192326
0.0159014
0.013279
0.0112016
0.00954867
0.00822947
0.00717524
0.00633368
0.00566412
0.0051328
0.00470972
0.00437228
0.00410765
0.00390118
0.318138
0.274337
0.205799
0.143534
0.098126
0.0688181
0.0505679
0.0388064
0.0307355
0.0248561
0.0203923
0.0169233
0.0141909
0.0120192
0.0102811
0.00888186
0.00775007
0.00683167
0.00608506
0.00547625
0.00497557
0.00456171
0.00422486
0.00395249
0.336897
0.295829
0.223706
0.15657
0.106703
0.0742072
0.0540304
0.0411982
0.032536
0.0263177
0.0216422
0.0180251
0.0151779
0.0129097
0.0110853
0.0096051
0.0083947
0.00739782
0.00657136
0.00588044
0.00529493
0.00479427
0.00437168
0.0040164
0.355983
0.318068
0.242693
0.170747
0.116229
0.0802537
0.0579013
0.0438388
0.0344955
0.0278911
0.0229801
0.0192035
0.0162366
0.0138701
0.0119589
0.0103979
0.00910893
0.00803302
0.00712505
0.00634855
0.00567215
0.00507506
0.00455287
0.004095
0.37327
0.339021
0.261724
0.185511
0.126481
0.0868957
0.0621738
0.0467318
0.0366164
0.0295757
0.0244033
0.0204549
0.0173629
0.0148964
0.0128987
0.0112577
0.00989106
0.00873659
0.00774661
0.00688238
0.00611035
0.00540829
0.00477274
0.00419031
0.381408
0.355628
0.27938
0.199961
0.137038
0.0939784
0.0668046
0.0498686
0.0388979
0.0313705
0.0259094
0.0217755
0.0185525
0.0159842
0.0139002
0.0121807
0.010738
0.00950637
0.00843501
0.00748222
0.00661132
0.00579706
0.00503485
0.00430397
0.346854
0.358662
0.293397
0.21281
0.147256
0.101235
0.0717027
0.0532229
0.0413335
0.0332729
0.0274953
0.0231614
0.0198008
0.0171285
0.0149585
0.0131619
0.0116453
0.0103387
0.00918763
0.00814678
0.00717533
0.00624323
0.00534171
0.00443706
)
;

boundaryField
{
    rotor
    {
        type            kqRWallFunction;
        value           nonuniform List<scalar> 
144
(
0.0103208
0.015102
0.0178119
0.0188657
0.0199017
0.044371
0.0103208
0.0277961
0.0360298
0.0413852
0.0451824
0.0481563
0.0506428
0.0527774
0.0546213
0.0562114
0.0575753
0.0587407
0.0597398
0.0601221
0.059981
0.0591212
0.0575049
0.0550426
0.0515867
0.0470562
0.0414207
0.0340789
0.0240891
0.00967147
0.00967147
0.0414768
0.0875644
0.115965
0.130175
0.132892
0.00379345
0.00871521
0.0180585
0.0298708
0.0474022
0.0857419
0.00379345
0.0158738
0.020039
0.0222611
0.0239111
0.0248993
0.025192
0.025956
0.0267739
0.0274625
0.0279513
0.0281982
0.0281841
0.0279036
0.0273997
0.0266813
0.0258102
0.0250618
0.0247453
0.0239208
0.0224755
0.0204588
0.0165253
0.00417284
0.00417284
0.00918253
0.017573
0.0278547
0.0389668
0.0621826
0.00623273
0.0318688
0.08074
0.127735
0.152833
0.146422
0.00623273
0.0184834
0.0268734
0.0328306
0.0374264
0.0409506
0.043586
0.0454593
0.0466621
0.0472605
0.0473023
0.0468298
0.0459559
0.0447748
0.0432679
0.0414272
0.0392495
0.0367225
0.0337839
0.030193
0.0251987
0.0223359
0.0185645
0.00559165
0.00559165
0.00749265
0.0120557
0.0211842
0.0412594
0.123081
0.00698382
0.0334602
0.07929
0.127227
0.15334
0.144354
0.00698382
0.0219516
0.0316495
0.0392854
0.0456595
0.0509473
0.0552722
0.0587246
0.0613694
0.06325
0.0643949
0.0648406
0.0647819
0.0642091
0.0630539
0.061236
0.0586753
0.055286
0.0509699
0.0456222
0.0391511
0.031507
0.0221405
0.00646192