/*--------------------------------*- C++ -*----------------------------------*\
  =========                 |
  \\      /  F ield         | OpenFOAM: The Open Source CFD Toolbox
   \\    /   O peration     | Website:  https://openfoam.org
    \\  /    A nd           | Version:  11
     \\/     M anipulation  |
\*---------------------------------------------------------------------------*/
FoamFile
{
    format      ascii;
    class       volScalarField;
    location    "0.18";
    object      nut;
}
// * * * * * * * * * * * * * * * * * * * * * * * * * * * * * * * * * * * * * //

dimensions      [0 2 -1 0 0 0 0];

internalField   nonuniform List<scalar> 
2880
(
1.99315e-06
5.64438e-06
1.09558e-05
1.72891e-05
2.54128e-05
7.50516e-05
4.81686e-05
6.23887e-05
8.07643e-05
0.000103946
0.000114897
0.000165709
5.68371e-05
9.70934e-05
0.00014112
0.000178931
0.00019508
0.000237085
6.09192e-05
0.000120213
0.000195255
0.000241754
0.000263946
0.000301246
6.36567e-05
0.000147791
0.000246707
0.000299168
0.000326372
0.000362746
6.57219e-05
0.000178601
0.000297328
0.000353135
0.000384014
0.000419474
6.74006e-05
0.000211318
0.000345794
0.00040378
0.00043687
0.000467293
6.88095e-05
0.000244764
0.000390618
0.000451045
0.000484703
0.000506346
7.00042e-05
0.000277645
0.000430774
0.000495055
0.000527359
0.000539857
7.10187e-05
0.00030818
0.000465574
0.000535229
0.000565561
0.000570599
7.18782e-05
0.000334354
0.000494615
0.000571054
0.000600518
0.000600658
7.26051e-05
0.000354147
0.000517703
0.000602065
0.000633631
0.000632009
7.32232e-05
0.000365509
0.000534714
0.000628105
0.000665575
0.000666881
7.34563e-05
0.000370844
0.000545629
0.000649342
0.000696698
0.000706039
7.33694e-05
0.00037044
0.000549935
0.000665372
0.000726263
0.000748422
7.28395e-05
0.00036373
0.000546493
0.000674699
0.000752272
0.000793642
7.18335e-05
0.000349239
0.00053369
0.000674856
0.000770909
0.000835805
7.02746e-05
0.000327066
0.000508935
0.0006625
0.000776785
0.000867431
6.80265e-05
0.000295156
0.000471268
0.000632551
0.000762986
0.000879286
6.49626e-05
0.000252485
0.000418035
0.00058186
0.000719863
0.000861057
6.09419e-05
0.000197659
0.000347167
0.000504386
0.000637936
0.00079679
5.52713e-05
0.000132051
0.000257559
0.000395513
0.000507194
0.000650462
4.174e-05
6.22514e-05
0.000149771
0.000254316
0.000333474
0.000370183
1.86595e-06
1.54815e-05
5.37527e-05
0.000106061
0.00016603
5.02568e-05
0.000414134
0.000993846
0.00144634
0.0016223
0.00172075
0.00183741
0.00203074
0.00232298
0.00269967
0.00312676
0.00355378
0.00395401
0.00431183
0.00461422
0.00484949
0.00500799
0.0050835
0.00507417
0.00498263
0.00481503
0.00457965
0.00428596
0.00394526
0.00357415
0.00038609
0.0008939
0.00132447
0.00152995
0.00164306
0.00176145
0.00194172
0.00221259
0.00256868
0.00298259
0.00340992
0.00382048
0.00419557
0.00451998
0.00478041
0.00496572
0.00506801
0.00508337
0.005012
0.00485742
0.00462521
0.00432236
0.00395871
0.00355874
0.000373756
0.000818845
0.00121828
0.00145176
0.00157132
0.00168792
0.00185749
0.00210784
0.00244148
0.00283804
0.00325989
0.00367593
0.00406471
0.00440875
0.00469289
0.00490431
0.00503321
0.00507353
0.00502293
0.00488214
0.00465372
0.00434146
0.00395245
0.00352122
0.000377354
0.000784808
0.00112799
0.00137737
0.0015049
0.0016196
0.00177686
0.00200834
0.00231867
0.00269456
0.00310568
0.00352219
0.00392071
0.00428165
0.00458796
0.00482494
0.00498077
0.00504704
0.00501869
0.00489335
0.00467009
0.00434846
0.00393048
0.00345999
0.000393323
0.000759268
0.00104865
0.00131406
0.00144448
0.00155677
0.00170177
0.00191262
0.00219946
0.00255275
0.00294885
0.00336102
0.00376516
0.00414015
0.00446719
0.00472975
0.00491394
0.00500888
0.00500659
0.00490116
0.00468731
0.00435851
0.00390759
0.00338051
0.00041541
0.000738856
0.000982457
0.00126013
0.0013897
0.00149898
0.00163223
0.00182255
0.00208419
0.0024128
0.00279046
0.00319382
0.00359945
0.00398554
0.00433212
0.00462117
0.00483709
0.0049669
0.00500001
0.00492706
0.00473768
0.00441753
0.00394642
0.00334525
0.000441484
0.000723196
0.000932267
0.00121217
0.00133923
0.00144564
0.00156791
0.00173831
0.00197408
0.00227602
0.00263175
0.0030218
0.00342452
0.00381844
0.00418325
0.00450036
0.00475356
0.00492942
0.00501706
0.00500703
0.00489031
0.00466528
0.00437657
0.00417497
0.000471462
0.000712465
0.000894279
0.00115909
0.00129104
0.00139543
0.00150819
0.0016598
0.00186977
0.00214346
0.0024739
0.00284603
0.00324091
0.00363855
0.00401944
0.00436571
0.00466225
0.00489778
0.0050654
0.00516248
0.00519049
0.00515871
0.00509571
0.00505211
0.000504194
0.000706672
0.000862943
0.00110911
0.0012468
0.00134818
0.00145248
0.00158674
0.00177153
0.00201597
0.00231814
0.00266767
0.00304924
0.00344542
0.00383868
0.004213
0.00455525
0.00485627
0.00511113
0.00531825
0.0054779
0.0055917
0.00566486
0.00570509
0.000537842
0.000705759
0.000837417
0.00106308
0.00120534
0.00130357
0.00140022
0.00151874
0.00167949
0.00189434
0.00216578
0.00248824
0.00285066
0.00323916
0.00363927
0.00403771
0.00442345
0.00478803
0.00512464
0.00542631
0.0056846
0.00589041
0.00603197
0.00611842
0.00057184
0.000709714
0.000817573
0.00102153
0.00116706
0.00126132
0.00135089
0.00145538
0.00159365
0.00177929
0.00201836
0.00230981
0.00264716
0.00302083
0.00342025
0.00383546
0.00425749
0.00467743
0.00508433
0.00546348
0.00579715
0.00606244
0.00625152
0.00636428
0.000608177
0.000718411
0.000805831
0.000986431
0.00112989
0.00122093
0.00130421
0.00139625
0.00151392
0.00167146
0.00187749
0.00213484
0.00244157
0.00279269
0.00318205
0.00360345
0.00405014
0.00451255
0.00497538
0.00541667
0.00580869
0.0061205
0.00634928
0.0064799
0.000649226
0.000735429
0.000804128
0.000959313
0.00109285
0.00118203
0.00125985
0.00134097
0.0014402
0.00157143
0.00174478
0.00196612
0.00223749
0.00255838
0.00292719
0.0033418
0.00379822
0.00428713
0.00479022
0.00527976
0.00571432
0.00607143
0.00633179
0.0064805
0.000695073
0.00075555
0.0008158
0.000939604
0.00105814
0.00114516
0.00121794
0.00128936
0.00137234
0.00147959
0.0016217
0.0018065
0.00203912
0.00232294
0.0026606
0.00305421
0.00350335
0.00400057
0.00452674
0.00505046
0.00551905
0.0059153
0.00620377
0.00637261
0.000750276
0.000783119
0.000829268
0.000934791
0.00103349
0.00111286
0.00117932
0.00124168
0.00131031
0.00139619
0.00150941
0.00165861
0.0018509
0.00209251
0.00238956
0.00274817
0.00317215
0.00365782
0.0041882
0.004731
0.00522603
0.00565436
0.00597136
0.00615916
0.000812869
0.00083072
0.000858353
0.000935438
0.00101669
0.0010864
0.00114506
0.00119844
0.00125429
0.00132143
0.00140876
0.00152468
0.00167709
0.00187378
0.00212321
0.00243464
0.0028162
0.00326961
0.00378311
0.00432716
0.00484001
0.0052923
0.00563775
0.00584382
0.000875209
0.000891114
0.000905845
0.000951453
0.00101245
0.00106833
0.00111696
0.0011608
0.00120486
0.00125566
0.00132036
0.00140638
0.00152131
0.00167326
0.00187154
0.00212718
0.00245172
0.00285277
0.00332631
0.00384962
0.00436845
0.00483264
0.00520512
0.0054291
0.0009325
0.000958387
0.000966275
0.000988303
0.00102436
0.00106247
0.00109817
0.00113106
0.00116352
0.00119971
0.00124487
0.00130488
0.00138625
0.00149633
0.00164396
0.0018402
0.00209814
0.00243004
0.00284047
0.00331703
0.00382486
0.00428938
0.00468656
0.00492814
0.000976357
0.00102017
0.00103008
0.00103733
0.0010521
0.00107147
0.00109212
0.00111241
0.00113278
0.00115535
0.00118342
0.0012212
0.00127368
0.00134678
0.00144791
0.00158664
0.00177534
0.00202817
0.00235666
0.00276134
0.00322306
0.00367961
0.00407701
0.00434197
0.000996475
0.0010639
0.00108477
0.00108756
0.0010892
0.0010934
0.00109975
0.00110714
0.00111524
0.00112484
0.00113774
0.00115659
0.00118483
0.00122677
0.00128793
0.00137563
0.00149977
0.00167316
0.00190999
0.00222058
0.0026022
0.00302233
0.00340579
0.00368364
0.000982523
0.00108138
0.00111953
0.00112673
0.00112486
0.001121
0.00111733
0.00111413
0.00111137
0.00110938
0.00110909
0.00111204
0.00112041
0.00113704
0.00116569
0.00121136
0.00128094
0.00138384
0.00153229
0.00173939
0.00201403
0.0023508
0.00270958
0.00297909
0.000926982
0.00106952
0.00112671
0.00114681
0.00114944
0.00114541
0.00113809
0.00112901
0.00111884
0.00110809
0.00109742
0.00108777
0.00108048
0.00107734
0.00108073
0.00109378
0.00112076
0.00116757
0.00124229
0.0013552
0.00151711
0.00173646
0.00200739
0.00227218
0.000819021
0.00102944
0.00110893
0.00114474
0.00115888
0.00116147
0.00115665
0.00114746
0.001135
0.00112
0.00110313
0.0010851
0.00106677
0.00104924
0.00103393
0.0010227
0.00101798
0.00102284
0.00104024
0.00107757
0.00114279
0.00124506
0.0013914
0.00159538
0.000665235
0.000973163
0.00107567
0.00112671
0.00115455
0.00116885
0.00117353
0.00116939
0.0011605
0.00114739
0.00113056
0.00111048
0.0010876
0.00106247
0.00103579
0.00100862
0.000981868
0.000956056
0.000934481
0.000920931
0.000918239
0.000933581
0.000965653
0.00106203
7.31793e-07
3.24976e-06
1.1079e-05
2.73233e-05
6.05402e-05
0.00014569
2.74858e-05
5.49803e-05
0.000100195
0.000156463
0.000232644
0.000346962
0.000160094
0.000130332
0.000212411
0.000304135
0.000410757
0.000540468
0.000177859
0.000198657
0.000314134
0.000435016
0.000563766
0.000703549
0.000191051
0.000255015
0.000401145
0.000545245
0.000689731
0.000835342
0.00019895
0.000298115
0.000473367
0.000635685
0.000791046
0.000939783
4.74868e-05
0.000327305
0.000531654
0.000707951
0.000870086
0.00101953
4.81888e-05
0.000350077
0.000577283
0.000763672
0.000929006
0.00107675
4.89305e-05
0.000367141
0.000611432
0.000804287
0.00096992
0.00111419
4.95476e-05
0.000378877
0.000635136
0.000831025
0.000993915
0.00113195
4.99809e-05
0.000385625
0.000649121
0.000844959
0.00100211
0.00113093
5.01972e-05
0.000387655
0.000654108
0.000846952
0.000995665
0.00111237
5.01825e-05
0.000385173
0.00065068
0.000837938
0.000975818
0.00107784
4.99311e-05
0.000378106
0.000639291
0.000818767
0.000943908
0.00102928
4.948e-05
0.000366219
0.000620281
0.000790201
0.000901352
0.00096886
4.88304e-05
0.000350106
0.000593862
0.000752859
0.000849562
0.000898831
4.80492e-05
0.000331074
0.000559942
0.000707085
0.000789816
0.00082136
0.000201252
0.000312052
0.000517949
0.000652659
0.000723041
0.000738349
0.000197789
0.000290674
0.000466326
0.000588612
0.000649449
0.000651337
0.000191105
0.000256966
0.000402865
0.000512701
0.000567773
0.000561315
0.000179553
0.000208016
0.000324212
0.00042068
0.000473902
0.000467936
0.000163449
0.000142599
0.000226467
0.000305886
0.000360076
0.000367526
2.86201e-05
6.20484e-05
0.000109843
0.000162956
0.000213858
0.000251517
8.05504e-07
3.42687e-06
1.07773e-05
2.54475e-05
4.95782e-05
0.000105021
0.000673786
0.000939752
0.00104926
0.0011098
0.00114949
0.00117598
0.00119288
0.0012016
0.00120227
0.00119827
0.0011897
0.00117665
0.00115912
0.00113725
0.00111122
0.00108125
0.0010477
0.00101145
0.000972853
0.00093299
0.000892705
0.000858762
0.000824633
0.000817178
0.000731707
0.000944607
0.00105074
0.00111721
0.00116545
0.00120052
0.00123116
0.00125399
0.00127168
0.00128377
0.00129157
0.00129447
0.00129211
0.00128487
0.00127272
0.00125558
0.00123313
0.00120506
0.0011711
0.00113207
0.00108702
0.00104189
0.000989863
0.000943984
0.000822052
0.000992057
0.00109095
0.00116003
0.00121504
0.00126241
0.00130274
0.00134011
0.00137554
0.00140845
0.00143692
0.00146318
0.00148684
0.00150686
0.00152326
0.00153595
0.0015435
0.00154362
0.00153502
0.00151748
0.00149026
0.00145517
0.00140923
0.00136499
0.000924645
0.00107143
0.0011664
0.00123854
0.00130055
0.00135746
0.00141077
0.00146264
0.00151232
0.00156035
0.00160633
0.00164973
0.0016908
0.00172915
0.00176378
0.00179566
0.0018249
0.00184812
0.00186388
0.00187493
0.00188179
0.0018859
0.00188777
0.00189271
0.00102414
0.00116362
0.00126231
0.00134143
0.00141158
0.00147752
0.00154133
0.00160429
0.0016659
0.00172565
0.00178259
0.00183645
0.00188777
0.00193549
0.00197915
0.00201852
0.00205525
0.0020888
0.00211815
0.00214438
0.00216708
0.00218761
0.00220619
0.00222162
0.00111104
0.00125132
0.00135933
0.00144949
0.00153007
0.00160538
0.00167762
0.00174799
0.00181676
0.00188408
0.00194881
0.00201115
0.0020705
0.00212634
0.0021783
0.00222623
0.00226983
0.00230923
0.00234343
0.0023753
0.0024067
0.00243646
0.00246263
0.00248105
0.00118072
0.00132219
0.00143824
0.00153866
0.00162912
0.00171277
0.00179154
0.00186648
0.00193776
0.00200489
0.00206681
0.00212421
0.00217674
0.00222446
0.00226771
0.00230711
0.00234358
0.00237829
0.00241333
0.00244871
0.00248493
0.0025204
0.00255185
0.0025745
0.00123116
0.00137362
0.001495
0.0016017
0.00169713
0.00178339
0.00186194
0.00193369
0.00199913
0.00205858
0.00211186
0.00215957
0.00220187
0.00223942
0.00227308
0.00230377
0.00233279
0.00236082
0.00238858
0.00241734
0.00244637
0.00247555
0.0025011
0.00251861
0.00126225
0.00140275
0.00152544
0.00163418
0.00173055
0.0018156
0.00189027
0.00195533
0.00201138
0.00205892
0.00209838
0.00213066
0.0021564
0.00217675
0.00219304
0.00220601
0.00221812
0.00222904
0.00224267
0.0022579
0.00227536
0.00229783
0.00232821
0.00235358
0.00127112
0.00140512
0.00152372
0.00162893
0.00172086
0.0017997
0.00186601
0.00192046
0.0019638
0.00199688
0.0020206
0.00203614
0.0020447
0.00204751
0.00204638
0.0020398
0.00203056
0.00202463
0.0020235
0.00203296
0.00205286
0.00207782
0.00209966
0.00211988
0.00125794
0.00138087
0.00149076
0.0015881
0.00167182
0.00174151
0.00179746
0.00184041
0.0018713
0.00189122
0.0019013
0.00190331
0.00189778
0.00188269
0.0018569
0.00183701
0.00182547
0.00182267
0.00182097
0.00181373
0.0017977
0.00177847
0.00176523
0.00176705
0.00122391
0.00133227
0.00143074
0.00151818
0.00159241
0.00165249
0.0016986
0.00173147
0.0017524
0.00176184
0.001761
0.00174328
0.00171954
0.00169953
0.00169062
0.00168231
0.00166723
0.00163884
0.0016013
0.00155823
0.0015151
0.00147417
0.00143606
0.00142261
0.00117123
0.00126332
0.00135012
0.00142812
0.00149376
0.00154558
0.00158364
0.00160802
0.00161592
0.00160666
0.00159657
0.00158993
0.00158703
0.00157717
0.0015517
0.00151461
0.00146843
0.00141908
0.00136808
0.00131756
0.00126863
0.00122535
0.00118008
0.00116827
0.00110278
0.00117906
0.00125626
0.00132706
0.00138604
0.00143123
0.00145766
0.00146368
0.00146878
0.00147919
0.00148734
0.00147506
0.00144829
0.00140986
0.00136549
0.00131687
0.00126618
0.00121549
0.00116733
0.00112455
0.00108997
0.00107122
0.00105256
0.00110251
0.00102175
0.00108474
0.00115597
0.00122241
0.00127623
0.00130613
0.00132629
0.00135107
0.0013727
0.00136926
0.00134705
0.00131512
0.00127651
0.00123306
0.00118701
0.00114098
0.00109811
0.00106222
0.00103822
0.00103085
0.00104845
0.00109232
0.00117184
0.00132014
0.000931184
0.000985152
0.00105444
0.00111743
0.00115858
0.0012012
0.00123474
0.00125433
0.00124629
0.00122576
0.00119661
0.00116149
0.00112312
0.00108472
0.00105005
0.00102379
0.00101152
0.00101898
0.00105369
0.00111432
0.00119827
0.00130715
0.00145623
0.00163878
0.000833499
0.000884163
0.000954308
0.00101028
0.00106913
0.00111064
0.00113663
0.00113587
0.00112143
0.00109835
0.00107048
0.00104184
0.0010169
0.00100073
0.00099926
0.00101811
0.00106071
0.00112746
0.00120895
0.00131215
0.00143601
0.00158774
0.00179051
0.00196962
0.000730241
0.00078502
0.000853023
0.000925957
0.000979838
0.00102551
0.00103873
0.00103469
0.00102162
0.001005
0.0009903
0.000982992
0.000988701
0.00101233
0.00105586
0.00111747
0.00119313
0.00128021
0.00138279
0.00151061
0.00167911
0.00190842
0.00217868
0.00241349
0.000622437
0.000689305
0.000766684
0.000840906
0.000912278
0.000950285
0.00096221
0.000963173
0.000960531
0.000961122
0.000970727
0.000993844
0.00103238
0.00108495
0.00114895
0.00122397
0.00131406
0.00142851
0.00158179
0.00179196
0.00207459
0.00240643
0.00273887
0.00300748
0.000513281
0.000605281
0.000691649
0.000783124
0.000862161
0.000897713
0.000916491
0.000928696
0.000942765
0.000964587
0.000997431
0.00104191
0.00109746
0.0011652
0.00124938
0.00135717
0.00149856
0.00168587
0.00193154
0.00224271
0.00260083
0.00295383
0.00328399
0.00354045
0.000412417
0.000534494
0.000629198
0.000760754
0.000835541
0.000875121
0.000901961
0.000927007
0.000957199
0.000996159
0.00104559
0.00110746
0.00118569
0.00128595
0.00141474
0.00157881
0.0017847
0.00203857
0.00234537
0.00270385
0.00306899
0.00343583
0.00375622
0.00400271
0.000333835
0.000485813
0.000622251
0.000763955
0.000832052
0.000875306
0.000910503
0.000947776
0.000992577
0.00104823
0.00111829
0.0012074
0.00132051
0.00146195
0.0016351
0.0018432
0.00209122
0.00238663
0.00273558
0.00312064
0.00350386
0.00388008
0.00419457
0.00441498
0.000290632
0.000467809
0.000667715
0.000788119
0.000848055
0.00089238
0.000935781
0.000985913
0.00104714
0.00112342
0.00121913
0.00133848
0.00148488
0.00166101
0.00186966
0.00211524
0.00240391
0.00274096
0.00312536
0.00352114
0.00390928
0.00426538
0.0045677
0.00475016
0.00027491
0.000505731
0.000722361
0.000813706
0.000870204
0.000919344
0.000973689
0.0010387
0.00111838
0.00121703
0.00133905
0.00148836
0.00166797
0.0018801
0.00212673
0.00240998
0.00273193
0.00309267
0.00348621
0.00387309
0.00424366
0.00456947
0.00484768
0.00499834
1.20472e-06
1.19158e-05
4.96321e-05
0.000116844
0.000196406
5.28952e-05
3.20562e-05
6.95949e-05
0.000172527
0.000299596
0.000377227
0.000410233
4.91305e-05
0.000149096
0.000297501
0.000459434
0.000585203
0.000673613
5.42979e-05
0.000221385
0.00039776
0.000571857
0.000702706
0.000796646
5.79698e-05
0.000281588
0.000472282
0.000642402
0.000759178
0.000822329
6.06342e-05
0.000328309
0.000523951
0.000680254
0.000773772
0.00080745
6.25514e-05
0.000361563
0.000556511
0.000694368
0.000763623
0.000781038
6.38781e-05
0.000382747
0.000573724
0.000691932
0.000741435
0.000753808
6.47146e-05
0.000393802
0.000579051
0.000679737
0.000716127
0.000729037
6.51252e-05
0.000396415
0.000575343
0.000662226
0.000691312
0.000707491
6.51512e-05
0.000391882
0.000564746
0.000641233
0.000666145
0.000688125
6.48224e-05
0.000381033
0.000548829
0.000617707
0.00064149
0.000670747
6.42112e-05
0.000364135
0.000528729
0.000592425
0.000616973
0.000653157
6.33769e-05
0.000341546
0.000505258
0.000565435
0.000591913
0.000634856
6.22972e-05
0.000314493
0.000478675
0.000536556
0.000565622
0.000613642
6.09531e-05
0.000284064
0.000448955
0.000505061
0.00053752
0.000589162
5.93242e-05
0.000251218
0.000415874
0.000470435
0.000506027
0.00056062
5.73767e-05
0.000216912
0.000378847
0.000433142
0.000468509
0.000526934
5.50261e-05
0.000182241
0.000337422
0.000393682
0.000422539
0.000485356
5.20117e-05
0.000148638
0.000290934
0.000350224
0.000367689
0.000434794
4.75087e-05
0.000118233
0.000238086
0.000297747
0.000301264
0.000371127
0.000178499
9.57057e-05
0.000174085
0.000230226
0.000226724
0.000278457
3.21585e-05
4.73706e-05
8.89078e-05
0.000138168
0.000149819
0.000143954
1.07921e-06
2.79782e-06
7.41418e-06
1.94082e-05
5.26598e-05
4.84293e-05
0.000319258
0.000639724
0.000785646
0.000850799
0.000900206
0.000955463
0.00102209
0.0011031
0.00120261
0.00132561
0.00147673
0.0016592
0.0018743
0.0021215
0.0023994
0.00270691
0.00304337
0.00340652
0.00378846
0.00415477
0.00449382
0.00478827
0.00503359
0.00515959
0.000625026
0.000795517
0.000838741
0.000877239
0.000929864
0.000997
0.00107844
0.00117746
0.00129955
0.00145015
0.00163289
0.0018487
0.00209581
0.00237067
0.00266918
0.00298786
0.00332379
0.00367302
0.00402748
0.00436404
0.00466165
0.00491829
0.00512756
0.00523564
0.00078879
0.000827057
0.000851485
0.000898721
0.0009651
0.0010461
0.00114318
0.00126208
0.00140926
0.00158932
0.00180366
0.00205029
0.00232446
0.00261972
0.00292925
0.00324706
0.0035684
0.00388887
0.00420219
0.00449801
0.00474905
0.0049585
0.00513339
0.00522538
0.000833483
0.000835596
0.000867083
0.000927931
0.00100708
0.00110128
0.00121513
0.00135616
0.00153053
0.00174084
0.00198554
0.00225946
0.00255482
0.00286247
0.0031732
0.00347907
0.00377417
0.00405445
0.00431627
0.0045544
0.0047611
0.00491779
0.00504886
0.00512824
0.000831234
0.000837802
0.00088586
0.000961544
0.00105313
0.00116124
0.00129378
0.00145914
0.00166203
0.0019021
0.00217443
0.00247079
0.00278082
0.00309327
0.00339711
0.00368288
0.00394369
0.00417573
0.00437782
0.00455012
0.00469255
0.00480401
0.00487935
0.00493971
0.000815896
0.000842449
0.000910165
0.000999579
0.00110283
0.00122565
0.0013787
0.00157002
0.00180165
0.00206967
0.00236588
0.00267946
0.00299816
0.00330923
0.00360046
0.00386124
0.00408374
0.00426376
0.00440128
0.00450036
0.00456801
0.00461088
0.00463168
0.00464241
0.000800221
0.000852834
0.000939113
0.00104036
0.00115494
0.00129369
0.00146897
0.0016872
0.00194678
0.00224007
0.00255597
0.00288176
0.00320398
0.00350914
0.00378443
0.00401867
0.00420322
0.00433289
0.00440688
0.00442969
0.00441101
0.0043599
0.00427349
0.00413408
0.000790691
0.000869131
0.000971437
0.00108288
0.00120886
0.00136475
0.00156352
0.00180877
0.00209467
0.00240995
0.00274128
0.00307475
0.00339644
0.00369271
0.00395087
0.00415981
0.00431071
0.00439754
0.00441738
0.00437083
0.0042603
0.00407703
0.00375462
0.00319966
0.00078839
0.000890276
0.00100588
0.00112622
0.00126382
0.00143786
0.00166083
0.00193256
0.00224253
0.0025763
0.002919
0.0032563
0.00357434
0.00385995
0.00410107
0.00428743
0.00441102
0.00446618
0.00444936
0.0043587
0.00419404
0.00395812
0.00365533
0.00331339
0.000791907
0.000914827
0.00104135
0.00116962
0.00131904
0.00151181
0.00175916
0.00205632
0.00238782
0.00273656
0.00308693
0.00342477
0.00373677
0.00401053
0.00423502
0.00440124
0.00450276
0.0045357
0.00449847
0.00439115
0.00421532
0.00397554
0.00368466
0.00338948
0.000799727
0.000941551
0.00107698
0.00121236
0.00137352
0.00158509
0.0018566
0.00217797
0.00252835
0.0028887
0.00324341
0.00357897
0.00388294
0.00414385
0.00435176
0.00449907
0.00458103
0.00459578
0.00454398
0.00442822
0.00425262
0.0040236
0.0037526
0.00346674
0.000810361
0.000969522
0.00111212
0.00125376
0.00142608
0.00165598
0.00195119
0.00229574
0.00266241
0.00303124
0.0033873
0.00371817
0.00401238
0.0042594
0.00445037
0.00457897
0.00464201
0.00463943
0.00457385
0.00444975
0.00427281
0.00405031
0.00379245
0.0035139
0.000823303
0.000997816
0.00114619
0.00129281
0.00147551
0.00172365
0.00204157
0.00240834
0.00278878
0.00316321
0.00351803
0.00384212
0.00412503
0.00435713
0.00453047
0.00463989
0.00468359
0.00466316
0.00458291
0.004449
0.00426846
0.00404926
0.00380095
0.00353237
0.000837524
0.00102495
0.00117842
0.00132898
0.00152154
0.00178769
0.00212739
0.00251492
0.00290667
0.00328413
0.00363546
0.00395099
0.00422128
0.00443744
0.00459232
0.00468178
0.00470538
0.00466631
0.00457067
0.00442631
0.0042416
0.00402521
0.00378651
0.00353259
0.000853637
0.00105335
0.00120832
0.00136236
0.0015641
0.00184789
0.00220825
0.00261472
0.00301562
0.00339391
0.00373987
0.00404535
0.00430187
0.00450112
0.00463661
0.00470513
0.00470761
0.00464898
0.00453726
0.00438214
0.00419352
0.00398096
0.00375428
0.00352099
0.000867103
0.00108184
0.00123276
0.00139333
0.00160327
0.00190426
0.00228411
0.00270718
0.00311557
0.00349285
0.00383183
0.00412604
0.00436781
0.00454925
0.00466439
0.00471094
0.00469131
0.0046124
0.00448446
0.00431928
0.00412837
0.00392228
0.00371121
0.00350327
0.000878027
0.00110662
0.001259
0.00142261
0.00163936
0.00195707
0.00235525
0.00279216
0.00320686
0.00358149
0.00391216
0.00419411
0.00442031
0.00458315
0.00467704
0.00470067
0.00465817
0.00455879
0.00441536
0.00424196
0.00405165
0.00385556
0.0036636
0.00348345
0.000884389
0.00113205
0.00128884
0.00144816
0.00167313
0.00200692
0.00242185
0.00287054
0.00329008
0.00366059
0.00398184
0.00425073
0.00446074
0.00460431
0.00467619
0.00467617
0.00461047
0.00449116
0.00433396
0.00415525
0.00396918
0.00378667
0.00361627
0.00346406
0.000885214
0.00115628
0.00131316
0.00146778
0.00170576
0.00205476
0.00248463
0.00294298
0.00336593
0.00373099
0.0040419
0.00429716
0.00449052
0.00461435
0.00466369
0.00463967
0.00455104
0.00441312
0.00424478
0.00406437
0.00388634
0.00372032
0.00357245
0.0034465
0.000879026
0.00118069
0.00133739
0.00148961
0.00173907
0.002102
0.00254458
0.00301032
0.00343518
0.00379358
0.00409343
0.00433467
0.00451115
0.00461499
0.00464157
0.00459366
0.004483
0.00432861
0.00415243
0.00397413
0.00380743
0.00365967
0.00353391
0.00343137
0.000864367
0.00120703
0.00136772
0.00151578
0.00177146
0.00214998
0.00260284
0.0030736
0.00349865
0.00384926
0.00413748
0.00436452
0.0045241
0.004608
0.00461199
0.0045408
0.00440965
0.00424151
0.00406106
0.00388839
0.00373539
0.00360638
0.00350124
0.00341883
0.000846784
0.00123691
0.00140487
0.00154571
0.00180677
0.00219918
0.00266068
0.00313386
0.00355711
0.00389885
0.00417507
0.00438791
0.00453083
0.00459514
0.00457713
0.00448378
0.00433421
0.00415536
0.00397408
0.00380983
0.00367173
0.00356084
0.00347426
0.00340866
0.00083255
0.00128861
0.00143658
0.00158159
0.00184823
0.0022506
0.00271945
0.00319211
0.00361119
0.0039431
0.0042071
0.004406
0.00453277
0.0045782
0.00453918
0.00442526
0.00425967
0.00407318
0.00389404
0.00374003
0.003617
0.00352274
0.0034522
0.00340041
0.000864823
0.00134986
0.00147312
0.00162705
0.00189923
0.00230703
0.00277929
0.00324899
0.00366132
0.00398259
0.00423443
0.0044199
0.00453134
0.00455897
0.00450036
0.00436781
0.00418875
0.00399742
0.00382262
0.00367972
0.00357102
0.00349145
0.00343437
0.00339377
1.34829e-06
1.24943e-05
4.86972e-05
0.000116402
0.0001956
5.22175e-05
3.80222e-05
7.93364e-05
0.000164258
0.000290649
0.000414096
0.000435069
5.32343e-05
0.000175702
0.000307666
0.000480923
0.000655614
0.000793081
5.9309e-05
0.000268333
0.000445579
0.000657298
0.000875403
0.00106645
6.39384e-05
0.000351078
0.000571155
0.00081292
0.00106059
0.0012673
6.7538e-05
0.000421022
0.000681968
0.000949347
0.00120883
0.00141705
7.03451e-05
0.000477977
0.000777345
0.0010658
0.00132626
0.00153001
7.25081e-05
0.000522697
0.000857279
0.001162
0.00141955
0.00161651
7.41227e-05
0.000556101
0.000922037
0.00123907
0.00149357
0.00168341
7.52499e-05
0.000579039
0.000972058
0.00129857
0.00155171
0.001735
7.59284e-05
0.000592084
0.00100781
0.00134201
0.00159622
0.00177494
7.6191e-05
0.000595262
0.00102968
0.00137063
0.00162855
0.00180638
7.61565e-05
0.000588337
0.00103793
0.00138532
0.00164937
0.0018273
7.58206e-05
0.000571987
0.00103276
0.00138699
0.00165609
0.00183907
7.51384e-05
0.000547775
0.00101422
0.00137426
0.0016486
0.00184057
7.40514e-05
0.00051693
0.000982216
0.00134522
0.00162541
0.00182908
7.24914e-05
0.000480512
0.000936368
0.00129791
0.00158348
0.00180075
7.03721e-05
0.000439594
0.000875596
0.00122879
0.00151769
0.00174901
6.75752e-05
0.000393888
0.000797472
0.00113307
0.00142235
0.00166312
6.39381e-05
0.000341936
0.000697952
0.00100437
0.001286
0.00152662
5.92361e-05
0.00028076
0.000570182
0.000834799
0.00109736
0.00131295
5.3145e-05
0.000203522
0.000407322
0.000615804
0.000840005
0.000981606
3.83697e-05
0.000103026
0.000212189
0.000347649
0.000511916
0.000517574
1.24836e-06
9.38956e-06
3.57604e-05
8.83977e-05
0.000191151
5.81064e-05
0.000930172
0.00140811
0.00153609
0.00169253
0.0019626
0.00236913
0.00283962
0.00330466
0.00370765
0.00401775
0.00425779
0.00443065
0.00452792
0.00453923
0.00446285
0.00431389
0.00412385
0.00392997
0.00376083
0.00362898
0.00353329
0.0034663
0.00342019
0.00338857
0.00120072
0.00154614
0.00164095
0.00177623
0.0020352
0.00243478
0.00289959
0.00335821
0.00375004
0.00404886
0.00427778
0.00443919
0.00452381
0.00452067
0.00442873
0.00426574
0.00406701
0.00387217
0.00370912
0.00358745
0.00350298
0.00344642
0.00340912
0.00338463
0.00138364
0.00166091
0.00174022
0.00186182
0.00210936
0.00249972
0.00295649
0.00340674
0.00378802
0.00407599
0.00429488
0.00444633
0.00452016
0.00450484
0.00439986
0.00422532
0.00401981
0.0038249
0.00366754
0.00355454
0.00347926
0.00343101
0.00340066
0.00338173
0.00151402
0.00175129
0.00182476
0.00193829
0.00217854
0.00255955
0.00300724
0.00344823
0.00381877
0.00409902
0.00430935
0.00445269
0.00451793
0.00449303
0.00437781
0.00419419
0.00398345
0.00378865
0.00363587
0.00352964
0.00346138
0.00341945
0.00339438
0.00337967
0.00161445
0.0018183
0.0018943
0.00200437
0.00223894
0.00261089
0.00304936
0.0034823
0.00384263
0.00411567
0.0043212
0.00445878
0.00451788
0.00448626
0.00436383
0.00417359
0.0039588
0.00376372
0.00361388
0.00351221
0.00344876
0.00341119
0.00338988
0.00337826
0.00169459
0.00186869
0.00195073
0.00206
0.00228869
0.00265234
0.00308401
0.00351038
0.00386246
0.00413013
0.00433103
0.00446476
0.00452048
0.00448532
0.00435886
0.00416448
0.00394651
0.00375036
0.00360149
0.00350202
0.00344118
0.00340567
0.0033869
0.00337736
0.00175919
0.00190818
0.00199601
0.00210395
0.00232753
0.00268585
0.00311294
0.00353496
0.00388067
0.00414399
0.00434153
0.00447333
0.00452768
0.00449133
0.00436348
0.00416722
0.00394704
0.00374876
0.00359866
0.00349891
0.00343769
0.00340332
0.0033856
0.00337698
0.00181162
0.00193941
0.00203138
0.00213784
0.00236027
0.00271438
0.00313738
0.00355602
0.00389749
0.00415942
0.00435674
0.00448872
0.00454366
0.00450816
0.0043808
0.00418369
0.00396099
0.00375923
0.00360552
0.00350285
0.00343958
0.00340408
0.00338581
0.003377
0.00185446
0.00196404
0.00205946
0.00216676
0.00238429
0.00273091
0.00314805
0.00356387
0.00390387
0.00416657
0.00436537
0.00449942
0.00455772
0.00452725
0.00440524
0.00421153
0.00398839
0.00378248
0.0036229
0.00351459
0.00344754
0.00340832
0.00338772
0.00337747
0.00188925
0.00198324
0.00207968
0.0021842
0.0023946
0.00273279
0.00314456
0.00355906
0.00390072
0.00416689
0.00436999
0.00450942
0.00457465
0.00455254
0.00443915
0.00425156
0.00402934
0.00381882
0.00365139
0.00353483
0.00346088
0.00341655
0.00339156
0.00337857
0.00191824
0.00199797
0.0020928
0.00219292
0.0023946
0.00272342
0.0031299
0.00354432
0.00389056
0.00416274
0.00437245
0.00451946
0.00459395
0.00458298
0.00448129
0.00430281
0.00408353
0.00386862
0.00369177
0.00356438
0.0034807
0.00342881
0.003398
0.00338045
0.00194137
0.00200926
0.00209858
0.00219308
0.00238454
0.00270282
0.0031037
0.00351893
0.00387253
0.0041532
0.00437186
0.00452869
0.00461472
0.0046174
0.00453034
0.00436408
0.00415031
0.00393209
0.00374498
0.00360454
0.00350836
0.00344601
0.00340704
0.00338336
0.00195948
0.00201857
0.00209591
0.00218507
0.00236502
0.00267133
0.0030659
0.00348239
0.0038458
0.00413735
0.00436722
0.00453603
0.00463575
0.00465439
0.00458462
0.00443369
0.00422849
0.00400896
0.00381169
0.00365647
0.00354506
0.00346933
0.0034196
0.00338758
0.00197237
0.00202529
0.00208792
0.0021703
0.00233705
0.00262958
0.00301662
0.0034343
0.00380954
0.00411413