/*--------------------------------*- C++ -*----------------------------------*\
  =========                 |
  \\      /  F ield         | OpenFOAM: The Open Source CFD Toolbox
   \\    /   O peration     | Website:  https://openfoam.org
    \\  /    A nd           | Version:  11
     \\/     M anipulation  |
\*---------------------------------------------------------------------------*/
FoamFile
{
    format      ascii;
    class       surfaceScalarField;
    location    "0.18";
    object      phi;
}
// * * * * * * * * * * * * * * * * * * * * * * * * * * * * * * * * * * * * * //

dimensions      [0 3 -1 0 0 0 0];

internalField   nonuniform List<scalar> 
5640
(
1.39041e-06
-1.39041e-06
3.05971e-06
-1.6693e-06
4.28399e-06
-1.22428e-06
5.15242e-06
-8.68436e-07
5.24599e-06
-9.35709e-08
7.80023e-07
4.46597e-06
1.76664e-06
-3.15705e-06
3.45971e-06
-3.36237e-06
4.79942e-06
-2.56399e-06
5.58105e-06
-1.65006e-06
5.555e-06
-6.7525e-08
1.8534e-06
4.48162e-06
1.81197e-06
-4.96902e-06
3.39931e-06
-4.94971e-06
4.66903e-06
-3.83371e-06
5.35549e-06
-2.33653e-06
5.29356e-06
-5.58752e-09
2.95562e-06
4.19134e-06
1.74307e-06
-6.71209e-06
3.19068e-06
-6.39732e-06
4.33242e-06
-4.97544e-06
4.95405e-06
-2.95816e-06
4.92083e-06
2.76334e-08
3.95092e-06
3.92554e-06
1.60653e-06
-8.31862e-06
2.89794e-06
-7.68873e-06
3.9083e-06
-5.9858e-06
4.48445e-06
-3.53432e-06
4.49537e-06
1.6716e-08
4.71636e-06
3.72993e-06
1.4302e-06
-9.74883e-06
2.55441e-06
-8.81294e-06
3.4403e-06
-6.87169e-06
3.96864e-06
-4.06266e-06
4.04317e-06
-5.7815e-08
5.20991e-06
3.54961e-06
1.22792e-06
-1.09768e-05
2.17729e-06
-9.76231e-06
2.94526e-06
-7.63966e-06
3.42946e-06
-4.54685e-06
3.57815e-06
-2.06507e-07
5.46442e-06
3.32364e-06
1.00135e-06
-1.19781e-05
1.78962e-06
-1.05506e-05
2.43157e-06
-8.28161e-06
2.87068e-06
-4.98596e-06
3.08819e-06
-4.24016e-07
5.5056e-06
3.04701e-06
7.6532e-07
-1.27434e-05
1.3874e-06
-1.11727e-05
1.90176e-06
-8.79596e-06
2.29036e-06
-5.37456e-06
2.56362e-06
-6.97273e-07
5.35481e-06
2.71441e-06
5.20714e-07
-1.32641e-05
9.73274e-07
-1.16252e-05
1.35777e-06
-9.18046e-06
1.68636e-06
-5.70316e-06
1.99804e-06
-1.00895e-06
5.03711e-06
2.31574e-06
2.70722e-07
-1.35349e-05
5.51071e-07
-1.19056e-05
8.01947e-07
-9.43134e-06
1.05806e-06
-5.95927e-06
1.38768e-06
-1.33857e-06
4.58104e-06
1.84374e-06
1.3692e-08
-1.35485e-05
1.23921e-07
-1.20158e-05
2.37374e-07
-9.54479e-06
4.06868e-07
-6.12877e-06
7.31478e-07
-1.66318e-06
4.01787e-06
1.29465e-06
-2.28481e-07
-1.33201e-05
-2.99585e-07
-1.19447e-05
-3.31535e-07
-9.51284e-06
-2.63442e-07
-6.19686e-06
2.53027e-08
-1.95192e-06
3.37549e-06
6.67685e-07
-4.69307e-07
-1.28508e-05
-7.18228e-07
-1.16958e-05
-8.99584e-07
-9.33149e-06
-9.45529e-07
-6.15091e-06
-7.05306e-07
-2.19214e-06
2.69198e-06
-2.1803e-08
-7.00111e-07
-1.21506e-05
-1.12662e-06
-1.12693e-05
-1.46014e-06
-8.99797e-06
-1.63116e-06
-5.97989e-06
-1.47217e-06
-2.35114e-06
2.01878e-06
-7.9896e-07
-9.16632e-07
-1.1234e-05
-1.51899e-06
-1.06669e-05
-2.00536e-06
-8.5116e-06
-2.30845e-06
-5.6768e-06
-2.25182e-06
-2.40777e-06
1.38275e-06
-1.61579e-06
-1.11464e-06
-1.01194e-05
-1.88952e-06
-9.89203e-06
-2.52657e-06
-7.87455e-06
-2.96331e-06
-5.24006e-06
-3.02587e-06
-2.34521e-06
8.1889e-07
-2.46201e-06
-1.28948e-06
-8.8299e-06
-2.23195e-06
-8.94956e-06
-3.01443e-06
-7.09207e-06
-3.57975e-06
-4.67474e-06
-3.77148e-06
-2.15348e-06
3.56711e-07
-3.3093e-06
-1.43535e-06
-7.39455e-06
-2.53984e-06
-7.84507e-06
-3.45916e-06
-6.17276e-06
-4.14016e-06
-3.99373e-06
-4.46077e-06
-1.83286e-06
1.85217e-08
-4.12259e-06
-1.54269e-06
-5.85186e-06
-2.80834e-06
-6.57941e-06
-3.85047e-06
-5.13063e-06
-4.62587e-06
-3.21833e-06
-5.06006e-06
-1.39868e-06
-1.83925e-07
-4.85761e-06
-1.60245e-06
-4.24942e-06
-3.02949e-06
-5.15237e-06
-4.17699e-06
-3.98313e-06
-5.01793e-06
-2.37739e-06
-5.52809e-06
-8.88518e-07
-2.61248e-07
-5.45077e-06
-1.602e-06
-2.64742e-06
-3.18829e-06
-3.56607e-06
-4.42267e-06
-2.74876e-06
-5.29216e-06
-1.5079e-06
-5.80337e-06
-3.77305e-07
-2.56334e-07
-5.80829e-06
-1.51126e-06
-1.13616e-06
-3.23996e-06
-1.83737e-06
-4.55344e-06
-1.43528e-06
-5.37925e-06
-6.82085e-07
-5.73999e-06
-1.65699e-08
-2.00233e-07
-5.79609e-06
-1.13616e-06
-2.97353e-06
-4.40881e-06
-5.09089e-06
-5.10746e-06
-5.3077e-06
7.69502e-06
3.01515e-05
-3.33806e-05
5.29688e-06
4.04464e-05
-3.80483e-05
3.01124e-06
4.15594e-05
-3.92738e-05
8.92046e-07
4.059e-05
-3.84708e-05
-1.09818e-06
3.87272e-05
-3.6737e-05
-2.94526e-06
3.65809e-05
-3.47338e-05
-4.6403e-06
3.4485e-05
-3.279e-05
-6.20073e-06
3.25975e-05
-3.10371e-05
-7.65219e-06
3.09282e-05
-2.94767e-05
-9.02019e-06
2.94297e-05
-2.80617e-05
-1.03258e-05
2.80466e-05
-2.67409e-05
-1.15845e-05
2.67341e-05
-2.54754e-05
-1.28068e-05
2.54637e-05
-2.42414e-05
-1.39999e-05
2.4217e-05
-2.30239e-05
-1.51689e-05
2.29809e-05
-2.1812e-05
-1.63171e-05
2.17457e-05
-2.05974e-05
-1.74472e-05
2.05031e-05
-1.93731e-05
-1.85602e-05
1.92461e-05
-1.8133e-05
-1.96564e-05
1.79682e-05
-1.6872e-05
-2.07345e-05
1.66636e-05
-1.55855e-05
-2.17916e-05
1.53264e-05
-1.42693e-05
-2.28224e-05
1.39496e-05
-1.29188e-05
-2.38174e-05
1.25243e-05
-1.15292e-05
1.10617e-05
-1.01297e-05
6.21479e-06
2.84184e-05
5.25259e-06
4.14086e-05
3.59027e-06
4.32218e-05
1.83352e-06
4.23468e-05
9.97068e-08
4.0461e-05
-1.52796e-06
3.82086e-05
-3.0408e-06
3.59978e-05
-4.43551e-06
3.39922e-05
-5.7275e-06
3.22202e-05
-6.93805e-06
3.06403e-05
-8.08661e-06
2.91951e-05
-9.18843e-06
2.7836e-05
-1.02544e-05
2.65297e-05
-1.12922e-05
2.52547e-05
-1.23072e-05
2.39959e-05
-1.33034e-05
2.27419e-05
-1.42836e-05
2.14833e-05
-1.52496e-05
2.02121e-05
-1.62021e-05
1.89207e-05
-1.71405e-05
1.7602e-05
-1.80623e-05
1.62482e-05
-1.89623e-05
1.48496e-05
-1.98299e-05
1.33918e-05
1.18668e-05
5.45603e-06
2.71537e-05
5.16554e-06
4.16991e-05
4.06205e-06
4.43253e-05
2.6945e-06
4.37143e-05
1.26168e-06
4.18939e-05
-1.38923e-07
3.96092e-05
-1.45002e-06
3.73089e-05
-2.66553e-06
3.52077e-05
-3.78799e-06
3.33426e-05
-4.83369e-06
3.16859e-05
-5.81927e-06
3.01807e-05
-6.75905e-06
2.87757e-05
-7.66385e-06
2.74345e-05
-8.54149e-06
2.61324e-05
-9.39764e-06
2.48521e-05
-1.02365e-05
2.35808e-05
-1.10613e-05
2.23081e-05
-1.18743e-05
2.1025e-05
-1.26768e-05
1.97232e-05
-1.34689e-05
1.83942e-05
-1.42492e-05
1.70285e-05
-1.5013e-05
1.56134e-05
-1.57485e-05
1.41273e-05
1.25423e-05
4.9576e-06
2.61216e-05
5.15151e-06
4.15052e-05
4.50701e-06
4.49698e-05
3.51217e-06
4.47091e-05
2.38096e-06
4.30251e-05
1.2315e-06
4.07586e-05
1.2718e-07
3.84133e-05
-8.94478e-07
3.62294e-05
-1.83897e-06
3.42871e-05
-2.7144e-06
3.25614e-05
-3.5328e-06
3.09991e-05
-4.30715e-06
2.95501e-05
-5.04777e-06
2.81751e-05
-5.76238e-06
2.6847e-05
-6.45665e-06
2.55464e-05
-7.13486e-06
2.4259e-05
-7.80028e-06
2.29736e-05
-8.45541e-06
2.16802e-05
-9.102e-06
2.03698e-05
-9.74106e-06
1.90332e-05
-1.03725e-05
1.766e-05
-1.09937e-05
1.62345e-05
-1.15922e-05
1.47258e-05
1.30851e-05
4.61276e-06
2.52388e-05
5.19111e-06
4.09269e-05
4.94704e-06
4.52138e-05
4.30725e-06
4.53489e-05
3.47774e-06
4.38546e-05
2.58606e-06
4.16503e-05
1.70684e-06
3.92925e-05
8.77198e-07
3.7059e-05
1.13459e-07
3.50509e-05
-5.86882e-07
3.32617e-05
-1.23555e-06
3.16478e-05
-1.84301e-06
3.01575e-05
-2.41859e-06
2.87507e-05
-2.96968e-06
2.73981e-05
-3.50176e-06
2.60785e-05
-4.01894e-06
2.47762e-05
-4.5242e-06
2.34788e-05
-5.01976e-06
2.21757e-05
-5.50712e-06
2.08572e-05
-5.98728e-06
1.95134e-05
-6.46116e-06
1.81339e-05
-6.92968e-06
1.6703e-05
-7.38601e-06
1.51821e-05
1.34897e-05
4.38346e-06
2.44049e-05
5.25985e-06
4.00505e-05
5.38285e-06
4.50908e-05
5.08738e-06
4.56444e-05
4.55689e-06
4.43851e-05
3.92573e-06
4.22815e-05
3.27285e-06
3.99454e-05
2.64651e-06
3.76854e-05
2.06916e-06
3.56282e-05
1.54371e-06
3.37872e-05
1.06504e-06
3.21264e-05
6.24105e-07
3.05985e-05
2.1228e-07
2.91626e-05
-1.77414e-07
2.77878e-05
-5.50364e-07
2.64514e-05
-9.10441e-07
2.51363e-05
-1.26026e-06
2.38286e-05
-1.60132e-06
2.25168e-05
-1.93411e-06
2.11899e-05
-2.25796e-06
1.98372e-05
-2.57107e-06
1.8447e-05
-2.87279e-06
1.70047e-05
-3.17032e-06
1.54797e-05
1.37589e-05
4.216e-06
2.35126e-05
5.34213e-06
3.89244e-05
5.806e-06
4.4627e-05
5.8482e-06
4.56022e-05
5.62836e-06
4.46049e-05
5.25227e-06
4.26576e-05
4.8294e-06
4.03682e-05
4.4087e-06
3.81061e-05
4.01949e-06
3.60174e-05
3.67143e-06
3.41352e-05
3.36283e-06
3.2435e-05
3.087e-06
3.08743e-05
2.8363e-06
2.94133e-05
2.60393e-06
2.80201e-05
2.38446e-06
2.66709e-05
2.17375e-06
2.5347e-05
1.96903e-06
2.40334e-05
1.76893e-06
2.27169e-05
1.57365e-06
2.13852e-05
1.38521e-06
2.00257e-05
1.20984e-06
1.86224e-05
1.06367e-06
1.71509e-05
9.6195e-07
1.55814e-05
1.39484e-05
4.05927e-06
2.25003e-05
5.42041e-06
3.75632e-05
6.21232e-06
4.3835e-05
6.57942e-06
4.52351e-05
6.68092e-06
4.45034e-05
6.56334e-06
4.27751e-05
6.37317e-06
4.05584e-05
6.16107e-06
3.83182e-05
5.96227e-06
3.62162e-05
5.79227e-06
3.43052e-05
5.65337e-06
3.25739e-05
5.54122e-06
3.09865e-05
5.44924e-06
2.95052e-05
5.37096e-06
2.80984e-05
5.3008e-06
2.6741e-05
5.23437e-06
2.54134e-05
5.1686e-06
2.40991e-05
5.1021e-06
2.27834e-05
5.0357e-06
2.14516e-05
4.97334e-06
2.00881e-05
4.92191e-06
1.86738e-05
4.88631e-06
1.71865e-05
4.86347e-06
1.56042e-05
1.39032e-05
3.87811e-06
2.13366e-05
5.47392e-06
3.59674e-05
6.59264e-06
4.27163e-05
7.2768e-06
4.45509e-05
7.68889e-06
4.40913e-05
7.85239e-06
4.26116e-05
7.89848e-06
4.05123e-05
7.89855e-06
3.83181e-05
7.89306e-06
3.62217e-05
7.90263e-06
3.42957e-05
7.93384e-06
3.25427e-05
7.98507e-06
3.09352e-05
8.05131e-06
2.9439e-05
8.12692e-06
2.80228e-05
8.20701e-06
2.66609e-05
8.28796e-06
2.53325e-05
8.36775e-06
2.40193e-05
8.44629e-06
2.27048e-05
8.52563e-06
2.13723e-05
8.60991e-06
2.00038e-05
8.70425e-06
1.85794e-05
8.81296e-06
1.70778e-05
8.94074e-06
1.54764e-05
1.37499e-05
3.64801e-06
2.00044e-05
5.48064e-06
3.41348e-05
6.92508e-06
4.12719e-05
7.9345e-06
4.35415e-05
8.64553e-06
4.33803e-05
9.10802e-06
4.21492e-05
9.39489e-06
4.02254e-05
9.61384e-06
3.80992e-05
9.80627e-06
3.60293e-05
9.99829e-06
3.41036e-05
1.02013e-05
3.23397e-05
1.04171e-05
3.07195e-05
1.06426e-05
2.92134e-05
1.08738e-05
2.77916e-05
1.11069e-05
2.64279e-05
1.13393e-05
2.51e-05
1.15703e-05
2.37884e-05
1.18004e-05
2.24747e-05
1.20317e-05
2.1141e-05
1.22668e-05
1.97687e-05
1.2508e-05
1.83382e-05
1.27569e-05
1.68289e-05
1.30154e-05
1.52179e-05
1.34785e-05
3.35053e-06
1.84976e-05
5.421e-06
3.20643e-05
7.19443e-06
3.94985e-05
8.53666e-06
4.21993e-05
9.54209e-06
4.23749e-05
1.03107e-05
4.13806e-05
1.08529e-05
3.96832e-05
1.12986e-05
3.76534e-05
1.16948e-05
3.5633e-05
1.20737e-05
3.37248e-05
1.24518e-05
3.19616e-05
1.28345e-05
3.03367e-05
1.32218e-05
2.88262e-05
1.3611e-05
2.74024e-05
1.39998e-05
2.60391e-05
1.43866e-05
2.47132e-05
1.47711e-05
2.34039e-05
1.51538e-05
2.2092e-05
1.55355e-05
2.07593e-05
1.5917e-05
1.93872e-05
1.62986e-05
1.79567e-05
1.66803e-05
1.64471e-05
1.70638e-05
1.48345e-05
1.30888e-05
2.97156e-06
1.68207e-05
5.27785e-06
2.9758e-05
7.38136e-06
3.7395e-05
9.06671e-06
4.05139e-05
1.03759e-05
4.10657e-05
1.14355e-05
4.0321e-05
1.22563e-05
3.88625e-05
1.29406e-05
3.69692e-05
1.3549e-05
3.50246e-05
1.41211e-05
3.31527e-05
1.4679e-05
3.14037e-05
1.52327e-05
2.9783e-05
1.57848e-05
2.8274e-05
1.6335e-05
2.68522e-05
1.68819e-05
2.54922e-05
1.74247e-05
2.41704e-05
1.79628e-05
2.28657e-05
1.84962e-05
2.15586e-05
1.90245e-05
2.02311e-05
1.95467e-05
1.8865e-05
2.00621e-05
1.74413e-05
2.05704e-05
1.59387e-05
2.10737e-05
1.43312e-05
1.25846e-05
2.49981e-06
1.49885e-05
5.0349e-06
2.72229e-05
7.46389e-06
3.4966e-05
9.49221e-06
3.84856e-05
1.1132e-05
3.94259e-05
1.24797e-05
3.89732e-05
1.35894e-05
3.77528e-05
1.45249e-05
3.60337e-05
1.53562e-05
3.41933e-05
1.61297e-05
3.23791e-05
1.6874e-05
3.06594e-05
1.76038e-05
2.90532e-05
1.83252e-05
2.75527e-05
1.90397e-05
2.61377e-05
1.9747e-05
2.47849e-05
2.04466e-05
2.34709e-05
2.11376e-05
2.21746e-05
2.18192e-05
2.08771e-05
2.24898e-05
1.95604e-05
2.31476e-05
1.82072e-05
2.37911e-05
1.67978e-05
2.44202e-05
1.53096e-05
2.50375e-05
1.37139e-05
1.19719e-05
1.9275e-06
1.30392e-05
4.67786e-06
2.44726e-05
7.42149e-06
3.22223e-05
9.79662e-06
3.61105e-05
1.17731e-05
3.74494e-05
1.34239e-05
3.73224e-05
1.48334e-05
3.63432e-05
1.60321e-05
3.48349e-05
1.70983e-05
3.31271e-05
1.80841e-05
3.13934e-05
1.90236e-05
2.97199e-05
1.99366e-05
2.81402e-05
2.08328e-05
2.66564e-05
2.1716e-05
2.52546e-05
2.25867e-05
2.39141e-05
2.34444e-05
2.26131e-05
2.4288e-05
2.1331e-05
2.51159e-05
2.00492e-05
2.59258e-05
1.87506e-05
2.67151e-05
1.74179e-05
2.74821e-05
1.60308e-05
2.82265e-05
1.45651e-05
2.89514e-05
1.2989e-05
1.12577e-05
1.25305e-06
1.09872e-05
4.19588e-06
2.15298e-05
7.23825e-06
2.918e-05
9.95514e-06
3.33936e-05
1.22741e-05
3.51305e-05
1.42492e-05
3.53473e-05
1.59556e-05
3.46369e-05
1.74334e-05
3.33571e-05
1.87506e-05
3.181e-05
1.99627e-05
3.01813e-05
2.11092e-05
2.85735e-05
2.2215e-05
2.70344e-05
2.32939e-05
2.55775e-05
2.43519e-05
2.41966e-05
2.53907e-05
2.28754e-05
2.64097e-05
2.15941e-05
2.74074e-05
2.03333e-05
2.83816e-05
1.9075e-05
2.93296e-05
1.78026e-05
3.02484e-05
1.64991e-05
3.11357e-05
1.51436e-05
3.19908e-05
1.371e-05
3.28171e-05
1.21627e-05
1.04502e-05
4.90779e-07
8.88065e-06
3.57988e-06
1.84407e-05
6.89099e-06
2.58688e-05
9.94034e-06
3.03442e-05
1.26047e-05
3.24661e-05
1.49144e-05
3.30377e-05
1.69299e-05
3.26213e-05
1.86991e-05
3.15878e-05
2.02832e-05
3.02259e-05
2.17378e-05
2.87267e-05
2.31059e-05
2.72053e-05
2.44171e-05
2.57231e-05
2.56893e-05
2.43054e-05
2.69311e-05
2.29548e-05
2.81455e-05
2.1661e-05
2.93321e-05
2.04075e-05
3.04888e-05
1.91766e-05
3.16128e-05
1.7951e-05
3.2701e-05
1.67143e-05
3.37501e-05
1.54499e-05
3.4757e-05
1.41368e-05
3.57202e-05
1.27468e-05
3.66426e-05
1.12403e-05
9.55715e-06
-3.3887e-07
6.75751e-06
2.83731e-06
1.52645e-05
6.36082e-06
2.23453e-05
9.71803e-06
2.6987e-05
1.27239e-05
2.94603e-05
1.53739e-05
3.03877e-05
1.77128e-05
3.02824e-05
1.97883e-05
2.95123e-05
2.16568e-05
2.83574e-05
2.33724e-05
2.70111e-05
2.49799e-05
2.55978e-05
2.65127e-05
2.41904e-05
2.79923e-05
2.28258e-05
2.94306e-05
2.15165e-05
3.08322e-05
2.02594e-05
3.21969e-05
1.90428e-05
3.35222e-05
1.78513e-05
3.48045e-05
1.66686e-05
3.604e-05
1.54788e-05
3.72248e-05
1.42651e-05
3.83548e-05
1.30068e-05
3.9427e-05
1.16745e-05
4.04431e-05
1.02242e-05
8.58495e-06
-1.20192e-06
4.65013e-06
2.00131e-06
1.20613e-05
5.65358e-06
1.86931e-05
9.26092e-06
2.33797e-05
1.25848e-05
2.61364e-05
1.55732e-05
2.73993e-05
1.82464e-05
2.76092e-05
2.06441e-05
2.71146e-05
2.28167e-05
2.61848e-05
2.4815e-05
2.50128e-05
2.66839e-05
2.37289e-05
2.84588e-05
2.24154e-05
3.01648e-05
2.11198e-05
3.18169e-05
1.98643e-05
3.34221e-05
1.86542e-05
3.4981e-05
1.74839e-05
3.64908e-05
1.63415e-05
3.79468e-05
1.52126e-05
3.93437e-05
1.4082e-05
4.06765e-05
1.29324e-05
4.19398e-05
1.17435e-05
4.31283e-05
1.0486e-05
4.42409e-05
9.11168e-06
7.53602e-06
-2.03981e-06
2.56735e-06
1.12818e-06
8.89327e-06
4.80818e-06
1.50131e-05
8.57117e-06
1.96167e-05
1.21539e-05
2.25536e-05
1.54552e-05
2.4098e-05
1.84605e-05
2.46038e-05
2.11916e-05
2.43836e-05
2.36876e-05
2.36889e-05
2.59928e-05
2.27075e-05
2.81495e-05
2.15723e-05
3.01931e-05
2.03719e-05
3.21507e-05
1.91622e-05
3.40404e-05
1.79746e-05
3.58717e-05
1.68229e-05
3.7647e-05
1.57086e-05
3.93639e-05
1.46247e-05
4.10181e-05
1.35584e-05
4.26004e-05
1.24997e-05
4.41038e-05
1.1429e-05
4.55211e-05
1.03261e-05
4.68438e-05
9.16336e-06
4.80651e-05
7.89034e-06
6.40524e-06
-2.7951e-06
5.04835e-07
2.89981e-07
5.80819e-06
3.89434e-06
1.14087e-05
7.69186e-06
1.58192e-05
1.14319e-05
1.88135e-05
1.49804e-05
2.05496e-05
1.82856e-05
2.12987e-05
2.13423e-05
2.13268e-05
2.41714e-05
2.08598e-05
2.6805e-05
2.0074e-05
2.92778e-05
1.90994e-05
3.16221e-05
1.80276e-05
3.38642e-05
1.692e-05
3.60238e-05
1.58151e-05
3.81124e-05
1.47343e-05
4.01344e-05
1.36865e-05
4.20883e-05
1.26707e-05
4.39707e-05
1.1676e-05
4.57755e-05
1.06949e-05
4.74871e-05
9.71737e-06
4.90948e-05
8.71846e-06
5.05861e-05
7.67204e-06
5.19458e-05
6.53063e-06
5.17319e-06
-3.386e-06
-1.55994e-06
-4.34528e-07
2.85672e-06
2.99748e-06
7.97669e-06
6.69919e-06
1.21175e-05
1.04641e-05
1.50486e-05
1.41499e-05
1.68637e-05
1.76778e-05
1.77708e-05
2.10148e-05
1.79898e-05
2.41585e-05
1.7716e-05
2.71237e-05
1.71088e-05
2.99324e-05
1.62907e-05
3.26083e-05
1.53517e-05
3.51731e-05
1.43553e-05
3.7644e-05
1.33442e-05
4.00332e-05
1.23451e-05
4.23471e-05
1.13726e-05
4.45858e-05
1.0432e-05
4.67405e-05
9.52133e-06
4.88065e-05
8.62894e-06
5.07745e-05
7.74934e-06
5.26254e-05
6.86751e-06
5.43419e-05
5.9556e-06
5.58972e-05
4.97535e-06
3.79523e-06
-3.70786e-06
-3.66037e-06
-9.58065e-07
1.06926e-07
2.20184e-06
4.81679e-06
5.67987e-06
8.63943e-06
9.32584e-06
1.14027e-05
1.30087e-05
1.31809e-05
1.66376e-05
1.4142e-05
2.01598e-05
1.44676e-05
2.35524e-05
1.43234e-05
2.68116e-05
1.38496e-05
2.99444e-05
1.3158e-05
3.29622e-05
1.23338e-05
3.58775e-05
1.144e-05
3.87009e-05
1.05208e-05
4.144e-05
9.60597e-06
4.40991e-05
8.71353e-06
4.66774e-05
7.85377e-06
4.91661e-05
7.03263e-06
5.15546e-05
6.24043e-06
5.38389e-05
5.465e-06
5.60045e-05
4.70193e-06
5.80277e-05
3.93241e-06
5.98775e-05
3.12549e-06
2.18397e-06
-3.61792e-06
-5.83854e-06
-1.19396e-06
-2.31703e-06
1.57319e-06
2.04964e-06
4.70512e-06
5.50749e-06
8.09451e-06
8.01327e-06
1.16248e-05
9.65057e-06
1.52046e-05
1.05621e-05
1.87721e-05
1.09e-05
2.22917e-05
1.08039e-05
2.57464e-05
1.03949e-05
2.9131e-05
9.77332e-06
3.24465e-05
9.01838e-06
3.56955e-05
8.19092e-06
3.88804e-05
7.33591e-06
4.20012e-05
6.48525e-06
4.50546e-05
5.66012e-06
4.80343e-05
4.87399e-06
5.09319e-05
4.13506e-06
5.37323e-05
3.44001e-06
5.6423e-05
2.77437e-06
5.89954e-05
2.12949e-06
6.14387e-05
1.4891e-06
6.37101e-05
8.54051e-07
2.13132e-07
-2.76662e-06
-8.37962e-06
-1.07404e-06
-4.00961e-06
1.13312e-06
-1.57515e-07
3.80673e-06
2.83388e-06
6.82155e-06
4.99845e-06
1.00607e-05
6.41137e-06
1.34343e-05
7.18855e-06
1.68794e-05
7.45495e-06
2.03555e-05
7.32782e-06
2.38395e-05
6.91089e-06
2.73208e-05
6.29207e-06
3.07954e-05
5.54371e-06
3.42627e-05
4.72368e-06
3.77216e-05
3.87702e-06
4.11687e-05
3.03808e-06
4.45967e-05
2.23214e-06
4.79943e-05
1.47638e-06
5.13487e-05
7.80726e-07
5.46404e-05
1.48317e-07
5.78469e-05
-4.32142e-07
6.09454e-05
-9.6908e-07
6.39187e-05
-1.48415e-06
6.67718e-05
-1.99902e-06
-2.38817e-06
-1.18464e-07
1.18464e-07
-2.73562e-07
1.55098e-07
-3.55116e-07
8.15539e-08
-3.51298e-07
-3.81767e-09
1.31151e-08
-3.64413e-07
-3.88815e-07
4.0193e-07
-1.57357e-07
2.75821e-07
-3.09077e-07
3.06818e-07
-3.79541e-07
1.52018e-07
-3.28206e-07
-5.51531e-08
-5.30886e-08
-6.39531e-07
-8.85371e-07
4.43468e-07
-1.63604e-07
4.39425e-07
-3.07955e-07
4.51169e-07
-3.80625e-07
2.24689e-07
-3.30711e-07
-1.05068e-07
-1.64923e-07
-8.05318e-07
-1.28071e-06
2.30411e-07
-1.66313e-07
6.05739e-07
-3.04728e-07
5.89583e-07
-3.85219e-07
3.0518e-07
-3.62062e-07
-1.28225e-07
-2.78423e-07
-8.88957e-07
-1.50535e-06
-5.37786e-08
-1.68038e-07
7.73777e-07
-3.02035e-07
7.2358e-07
-3.94619e-07
3.97764e-07
-4.10008e-07
-1.12835e-07
-3.93536e-07
-9.05429e-07
-1.62549e-06
-2.73398e-07
-1.69293e-07
9.4307e-07
-2.99243e-07
8.53531e-07
-4.06054e-07
5.04574e-07
-4.62443e-07
-5.64465e-08
-5.04458e-07
-8.63413e-07
-1.64046e-06
-4.8949e-07
-1.67773e-07
1.11084e-06
-2.94891e-07
9.80649e-07
-4.16022e-07
6.25705e-07
-5.1126e-07
3.87919e-08
-6.03718e-07
-7.70956e-07
-1.57799e-06
-6.66183e-07
-1.56224e-07
1.26707e-06
-2.85333e-07
1.10976e-06
-4.20968e-07
7.6134e-07
-5.50632e-07
1.68456e-07
-6.84055e-07
-6.37533e-07
-1.46552e-06
-7.96527e-07
-1.4077e-07
1.40784e-06
-2.69322e-07
1.23831e-06
-4.17678e-07
9.09696e-07
-5.76228e-07
3.27006e-07
-7.40863e-07
-4.72898e-07
-1.32447e-06
-8.81909e-07
-1.21874e-07
1.52971e-06
-2.46057e-07
1.36249e-06
-4.03621e-07
1.06726e-06
-5.85008e-07
5.08393e-07
-7.72186e-07
-2.8572e-07
-1.17089e-06
-9.25771e-07
-9.91056e-08
1.62882e-06
-2.14533e-07
1.47792e-06
-3.76732e-07
1.22946e-06
-5.74853e-07
7.06514e-07
-7.77667e-07
-8.29071e-08
-1.01583e-06
-9.32724e-07
-7.20483e-08
1.70086e-06
-1.73954e-07
1.57983e-06
-3.35296e-07
1.3908e-06
-5.44114e-07
9.15332e-07
-7.57225e-07
1.30204e-07
-8.66145e-07
-9.06911e-07
-4.05181e-08
1.74138e-06
-1.23813e-07
1.66312e-06
-2.77916e-07
1.5449e-06
-4.91317e-07
1.12873e-06
-7.10685e-07
3.49572e-07
-7.24892e-07
-8.51938e-07
-4.25285e-09
1.74564e-06
-6.39808e-08
1.72285e-06
-2.03508e-07
1.68443e-06
-4.14978e-07
1.3402e-06
-6.37738e-07
5.72332e-07
-5.91848e-07
-7.70781e-07
3.56364e-08
1.71e-06
4.72781e-09
1.75376e-06
-1.11321e-07
1.80048e-06
-3.13361e-07
1.54224e-06
-5.36989e-07
7.95959e-07
-4.6384e-07
-6.64997e-07
7.9928e-08
1.63007e-06
8.29541e-08
1.75073e-06
-1.74709e-09
1.88518e-06
-1.84408e-07
1.7249e-06
-4.05612e-07
1.01716e-06
-3.3473e-07
-5.34722e-07
1.28575e-07
1.5015e-06
1.67588e-07
1.71172e-06
1.26908e-07
1.92586e-06
-2.55186e-08
1.87733e-06
-2.39321e-07
1.23097e-06
-1.95789e-07
-3.78262e-07
1.81908e-07
1.31959e-06
2.55499e-07
1.63813e-06
2.71194e-07
1.91017e-06
1.65346e-07
1.98318e-06
-4.05831e-08
1.43689e-06
-4.99565e-08
-1.86416e-07
2.11038e-07
1.10855e-06
3.41092e-07
1.50807e-06
4.29214e-07
1.82204e-06
3.91901e-07
2.02049e-06
2.23039e-07
1.60576e-06
1.08872e-07
6.42108e-08
2.28472e-07
8.80078e-07
4.22261e-07
1.31428e-06
5.97216e-07
1.64709e-06
6.55624e-07
1.96209e-06
5.50076e-07
1.7113e-06
3.07551e-07
3.51397e-07
2.39627e-07
6.40452e-07
4.95699e-07
1.05821e-06
7.68521e-07
1.37427e-06
9.56784e-07
1.77382e-06
9.63545e-07
1.70454e-06
5.06697e-07
7.64398e-07
2.42681e-07
3.97771e-07
5.56528e-07
7.44363e-07
9.32209e-07
9.98587e-07
1.29224e-06
1.41379e-06
1.49581e-06
1.50097e-06
6.1329e-07
1.38922e-06
2.32495e-07
1.65276e-07
5.96149e-07
3.80708e-07
1.06679e-06
5.27949e-07
1.64452e-06
8.36054e-07
2.16928e-06
9.76216e-07
4.83701e-07
2.29886e-06
1.65276e-07
5.45984e-07
1.07393e-06
1.90999e-06
2.8862e-06
3.3699e-06
-1.24804e-06
-6.72965e-06
-7.10769e-07
-4.54688e-06
8.24813e-07
-1.6931e-06
2.96686e-06
6.91829e-07
5.52305e-06
2.44226e-06
8.36163e-06
3.57279e-06
1.13886e-05
4.16161e-06
1.45411e-05
4.30239e-06
1.77786e-05
4.09032e-06
2.10763e-05
3.61319e-06
2.4422e-05
2.94644e-06
2.78119e-05
2.15383e-06
3.1247e-05
1.28849e-06
3.47304e-05
3.93646e-07
3.82643e-05
-4.95802e-07
4.18484e-05
-1.35193e-06
4.54782e-05
-2.15342e-06
4.91442e-05
-2.88535e-06
5.2832e-05
-3.53942e-06
5.65169e-05
-4.1171e-06
6.01764e-05
-4.62851e-06
6.37672e-05
-5.07499e-06
6.73049e-05
-5.53672e-06
-5.81773e-06
-5.54321e-07
-5.73186e-06
-5.02755e-07
-4.59845e-06
5.09314e-07
-2.70517e-06
2.14441e-06
-9.43266e-07
4.21304e-06
3.73626e-07
6.58441e-06
1.20143e-06
9.16473e-06
1.58129e-06
1.18898e-05
1.57728e-06
1.4718e-05
1.2622e-06
1.76238e-05
7.07344e-07
2.05941e-05
-2.39061e-08
2.36249e-05
-8.76877e-07
2.67182e-05
-1.80484e-06
2.98803e-05
-2.76844e-06
3.31194e-05
-3.73495e-06
3.64443e-05
-4.67685e-06
3.98623e-05
-5.5714e-06
4.33784e-05
-6.40145e-06
4.6996e-05
-7.15696e-06
5.07102e-05
-7.8313e-06
5.45131e-05
-8.43142e-06
5.838e-05
-8.94193e-06
6.2286e-05
-9.44273e-06
-9.82599e-06
-4.30593e-07
-5.07086e-06
-5.05126e-07
-4.52392e-06
1.50984e-07
-3.36128e-06
1.35301e-06
-2.14529e-06
2.95794e-06
-1.2313e-06
4.84985e-06
-6.90482e-07
6.94387e-06
-5.12732e-07
9.17815e-06
-6.56998e-07
1.15098e-05
-1.0695e-06
1.39128e-05
-1.69557e-06
1.63729e-05
-2.48402e-06
1.88846e-05
-3.38857e-06
2.14485e-05
-4.36873e-06
2.40695e-05
-5.38946e-06
2.67554e-05
-6.42089e-06
2.95158e-05
-7.43727e-06
3.23612e-05
-8.4168e-06
3.5303e-05
-9.34326e-06
3.83528e-05
-1.02068e-05
4.15222e-05
-1.10007e-05
4.48169e-05
-1.17261e-05
4.82555e-05
-1.23806e-05
5.1817e-05
-1.30042e-05
-1.35786e-05
-5.25943e-07
-4.59869e-06
-6.29362e-07
-4.4205e-06
-2.12463e-07
-3.77818e-06
6.49969e-07
-3.00773e-06
1.85986e-06
-2.44119e-06
3.32241e-06
-2.15303e-06
4.96407e-06
-2.1544e-06
6.72938e-06
-2.42231e-06
8.57946e-06
-2.91958e-06
1.04895e-05
-3.60559e-06
1.24451e-05
-4.43966e-06
1.44402e-05
-5.38365e-06
1.64742e-05
-6.40273e-06
1.85503e-05
-7.46558e-06
2.06744e-05
-8.54497e-06
2.28538e-05
-9.61663e-06
2.50972e-05
-1.06602e-05
2.74152e-05
-1.16612e-05
2.98191e-05
-1.26107e-05
3.23225e-05
-1.3504e-05
3.4939e-05
-1.43427e-05
3.76925e-05
-1.5134e-05
4.05858e-05
-1.58975e-05
-1.66181e-05
-6.80926e-07
-4.19116e-06
-7.94859e-07
-4.30656e-06
-5.311e-07
-4.04193e-06
9.4011e-08
-3.63284e-06
1.00543e-06
-3.35261e-06
2.13165e-06
-3.27925e-06
3.41173e-06
-3.43448e-06
4.79814e-06
-3.80872e-06
6.25691e-06
-4.37835e-06
7.76589e-06
-5.11457e-06
9.31209e-06
-5.98586e-06
1.089e-05
-6.96153e-06
1.2499e-05
-8.01174e-06
1.41416e-05
-9.10822e-06
1.58225e-05
-1.02259e-05
1.75491e-05
-1.13432e-05
1.93302e-05
-1.24414e-05
2.11749e-05
-1.35059e-05
2.30913e-05
-1.45271e-05
2.5087e-05
-1.54998e-05
2.71695e-05
-1.64251e-05
2.93477e-05
-1.73122e-05
3.16238e-05
-1.81736e-05
-1.89861e-05
-8.34341e-07
-3.84631e-06
-9.43103e-07
-4.1978e-06
-7.59013e-07
-4.22602e-06
-2.81489e-07
-4.11036e-06
4.35393e-07
-4.06949e-06
1.336e-06
-4.17986e-06
2.3708e-06
-4.46927e-06
3.50041e-06
-4.93833e-06
4.6957e-06
-5.57364e-06
5.93696e-06
-6.35583e-06
7.2138e-06
-7.2627e-06
8.52263e-06
-8.27036e-06
9.86532e-06
-9.35444e-06
1.12485e-05
-1.04914e-05
1.26811e-05
-1.16585e-05
1.41724e-05
-1.28345e-05
1.57313e-05
-1.40003e-05
1.73653e-05
-1.514e-05
1.90789e-05
-1.62406e-05
2.08711e-05
-1.7292e-05
2.2734e-05
-1.8288e-05
2.46461e-05
-1.92244e-05
2.65793e-05
-2.01069e-05
-2.09222e-05
-9.57498e-07
-3.555e-06
-1.04311e-06
-4.11219e-06
-8.81798e-07
-4.38734e-06
-4.70462e-07
-4.5217e-06
1.49865e-07
-4.68982e-06
9.33957e-07
-4.96396e-06
1.84144e-06
-5.37676e-06
2.84035e-06
-5.93724e-06
3.9082e-06
-6.64148e-06
5.03011e-06
-7.47774e-06
6.198e-06
-8.43059e-06
7.40959e-06
-9.48195e-06
8.66727e-06
-1.06121e-05
9.97666e-06
-1.18008e-05
1.13457e-05
-1.30275e-05
1.27835e-05
-1.42723e-05
1.42988e-05
-1.55155e-05
1.58997e-05
-1.6741e-05
1.75914e-05
-1.79323e-05
1.93734e-05
-1.90739e-05
2.12373e-05
-2.01519e-05
2.31647e-05
-2.11518e-05
2.51188e-05
-2.2061e-05
-2.28837e-05
-1.03741e-06
-3.31411e-06
-1.07999e-06
-4.0696e-06
-8.93348e-07
-4.57399e-06
-4.77997e-07
-4.93705e-06
1.31677e-07
-5.29949e-06
8.97405e-07
-5.72968e-06
1.78497e-06
-6.26432e-06
2.76715e-06
-6.91941e-06
3.82423e-06
-7.69856e-06
4.94381e-06
-8.59732e-06
6.11951e-06
-9.60629e-06
7.35015e-06
-1.07126e-05
8.63911e-06
-1.19011e-05
9.99326e-06
-1.31549e-05
1.14224e-05
-1.44567e-05
1.2937e-05
-1.57869e-05
1.45491e-05
-1.71276e-05
1.62683e-05
-1.84602e-05
1.81022e-05
-1.97662e-05
2.00562e-05
-2.10279e-05
2.21316e-05
-2.22274e-05
2.43241e-05
-2.33442e-05
2.66193e-05
-2.43562e-05
-2.5243e-05
-1.06994e-06
-3.12607e-06
-1.04794e-06
-4.09161e-06
-7.92989e-07
-4.82893e-06
-3.1168e-07
-5.41836e-06
3.64445e-07
-5.97562e-06
1.20117e-06
-6.5664e-06
2.16834e-06
-7.23149e-06
3.24224e-06
-7.99332e-06
4.406e-06
-8.86232e-06
5.64937e-06
-9.8407e-06
6.96783e-06
-1.09247e-05
8.36164e-06
-1.21064e-05
9.83519e-06
-1.33746e-05
1.13959e-05
-1.47157e-05
1.30532e-05
-1.61139e-05
1.48186e-05
-1.75523e-05
1.67036e-05
-1.90126e-05
1.87197e-05
-2.04762e-05
2.08772e-05
-2.19237e-05
2.31858e-05
-2.33365e-05
2.56542e-05
-2.46958e-05
2.82897e-05
-2.59797e-05
3.10842e-05
-2.71506e-05
-2.81231e-05
-1.05493e-06
-2.99691e-06
-9.45859e-07
-4.20069e-06
-5.82214e-07
-5.19258e-06
2.25621e-08
-6.02313e-06
8.36332e-07
-6.78939e-06
1.82769e-06
-7.55777e-06
2.96921e-06
-8.37302e-06
4.24001e-06
-9.26412e-06
5.62569e-06
-1.0248e-05
7.11783e-06
-1.13328e-05
8.71319e-06
-1.25201e-05
1.04123e-05
-1.38055e-05
1.22188e-05
-1.51812e-05
1.41389e-05
-1.66358e-05
1.61803e-05
-1.81552e-05
1.83511e-05
-1.97232e-05
2.06591e-05
-2.13205e-05
2.31097e-05
-2.29268e-05
2.57079e-05
-2.45219e-05
2.84579e-05
-2.60865e-05
3.13647e-05
-2.76026e-05
3.4438e-05
-2.90531e-05
3.76805e-05
-3.03931e-05
-3.14912e-05
-9.94887e-07
-2.93475e-06
-7.74111e-07
-4.42146e-06
-2.60886e-07
-5.7058e-06
5.22776e-07
-6.80679e-06
1.5436e-06
-7.81021e-06
2.77006e-06
-8.78423e-06
4.17691e-06
-9.77986e-06
5.74558e-06
-1.08328e-05
7.46381e-06
-1.19662e-05
9.32429e-06
-1.31933e-05
1.1324e-05
-1.45198e-05
1.34627e-05
-1.59442e-05
1.57421e-05
-1.74605e-05
1.81648e-05
-1.90585e-05
2.07326e-05
-2.07231e-05
2.34433e-05
-2.24339e-05
2.62911e-05
-2.41683e-05
2.92677e-05
-2.59034e-05
3.23646e-05
-2.76188e-05
3.55758e-05
-2.92977e-05
3.88979e-05
-3.09247e-05
4.23334e-05
-3.24887e-05
4.58808e-05
-3.39405e-05
-3.521e-05
-8.91498e-07
-2.95016e-06
-5.31593e-07
-4.78137e-06
1.74865e-07
-6.41226e-06
1.19473e-06
-7.82666e-06
2.49001e-06
-9.10549e-06
4.02811e-06
-1.03223e-05
5.78452e-06
-1.15363e-05
7.74192e-06
-1.27902e-05
9.88899e-06
-1.41133e-05
1.22192e-05
-1.55235e-05
1.47282e-05
-1.70288e-05
1.74132e-05
-1.86292e-05
2.02695e-05
-2.03168e-05
2.3288e-05
-2.20771e-05
2.64541e-05
-2.38892e-05
2.97518e-05
-2.57316e-05
3.31666e-05
-2.75832e-05
3.66859e-05
-2.94227e-05
4.02947e-05
-3.12277e-05
4.39763e-05
-3.29792e-05
4.77027e-05
-3.46511e-05
5.14427e-05
-3.62287e-05
5.51562e-05
-3.76539e-05
-3.90682e-05
-7.45827e-07
-3.05627e-06
-2.13828e-07
-5.31337e-06
7.34006e-07
-7.3601e-06
2.04889e-06
-9.14154e-06
3.68355e-06
-1.07402e-05
5.60172e-06
-1.22405e-05
7.77757e-06
-1.37121e-05
1.01945e-05
-1.52071e-05
1.2841e-05
-1.67598e-05
1.57072e-05
-1.83898e-05
1.87805e-05
-2.01021e-05
2.2043e-05
-2.18917e-05
2.54737e-05
-2.37475e-05
2.90518e-05
-2.56551e-05
3.27598e-05
-2.75972e-05
3.65804e-05
-2.95522e-05
4.04948e-05
-3.14976e-05
4.44762e-05
-3.3404e-05
4.84881e-05
-3.52395e-05
5.24991e-05
-3.69902e-05
5.6474e-05
-3.86261e-05
6.03643e-05
-4.0119e-05
6.40981e-05
-4.13877e-05
-4.26355e-05
-5.56824e-07
-3.27023e-06
1.88125e-07
-6.05832e-06
1.43205e-06
-8.60402e-06
3.1007e-06
-1.08102e-05
5.1323e-06
-1.27718e-05
7.4846e-06
-1.45928e-05
1.01297e-05
-1.63572e-05
1.30473e-05
-1.81248e-05
1.62142e-05
-1.99267e-05
1.96011e-05
-2.17766e-05
2.31797e-05
-2.36806e-05
2.6926e-05
-2.5638e-05
3.08177e-05
-2.76392e-05
3.48303e-05
-2.96678e-05
3.89368e-05
-3.17037e-05
4.30978e-05
-3.37132e-05
4.72761e-05
-3.56759e-05
5.14308e-05
-3.75588e-05
5.55092e-05
-3.93179e-05
5.94021e-05
-4.08831e-05
6.29899e-05
-4.22139e-05
6.61844e-05
-4.33135e-05
6.89955e-05
-4.41988e-05
-4.51176e-05
-3.20068e-07
-3.61516e-06
6.89495e-07
-7.06788e-06
2.29006e-06
-1.02046e-05
4.36712e-06
-1.28873e-05
6.84145e-06
-1.52461e-05
9.66159e-06
-1.74129e-05
1.27865e-05
-1.9482e-05
1.61713e-05
-2.15096e-05
1.97762e-05
-2.35315e-05
2.357e-05
-2.55704e-05
2.75253e-05
-2.7636e-05
3.16097e-05