/*--------------------------------*- C++ -*----------------------------------*\
  =========                 |
  \\      /  F ield         | OpenFOAM: The Open Source CFD Toolbox
   \\    /   O peration     | Website:  https://openfoam.org
    \\  /    A nd           | Version:  11
     \\/     M anipulation  |
\*---------------------------------------------------------------------------*/
FoamFile
{
    format      ascii;
    class       volVectorField;
    location    "0.18";
    object      U;
}
// * * * * * * * * * * * * * * * * * * * * * * * * * * * * * * * * * * * * * //

dimensions      [0 1 -1 0 0 0 0];

internalField   nonuniform List<vector> 
2880
(
(-0.0719781 -0.185157 -1.78052e-18)
(-0.132945 -0.344074 4.01572e-20)
(-0.1714 -0.506978 0)
(-0.155802 -0.510013 0)
(-0.126595 -0.549737 1.05754e-19)
(0.0513205 -0.271768 -8.1848e-19)
(-0.141789 -0.246312 7.58245e-19)
(-0.192583 -0.402551 3.89679e-20)
(-0.203707 -0.555316 7.00289e-20)
(-0.162755 -0.563146 -5.7983e-20)
(-0.0983413 -0.576786 4.03397e-19)
(0.0574499 -0.344288 9.04813e-19)
(-0.196443 -0.25015 8.43263e-19)
(-0.229552 -0.400385 -7.09671e-19)
(-0.213202 -0.538032 3.20821e-20)
(-0.147894 -0.543335 1.15668e-19)
(-0.0521603 -0.553707 -4.92269e-19)
(0.116704 -0.360916 -3.43509e-19)
(-0.250684 -0.238883 -8.18202e-19)
(-0.258704 -0.381761 5.72023e-19)
(-0.216464 -0.50149 -3.5574e-20)
(-0.127914 -0.504213 5.74187e-19)
(-0.00520232 -0.515227 -4.91477e-20)
(0.185857 -0.356421 -7.99972e-20)
(-0.29899 -0.22441 1.2264e-18)
(-0.28251 -0.355128 -3.06361e-19)
(-0.2177 -0.45667 2.59497e-19)
(-0.110942 -0.457921 -2.20479e-19)
(0.0356618 -0.465833 0)
(0.247066 -0.337781 0)
(-0.342408 -0.211121 -4.11362e-19)
(-0.302925 -0.324507 2.96827e-19)
(-0.220266 -0.408363 -2.67365e-19)
(-0.0982281 -0.407955 -2.08722e-19)
(0.0699544 -0.408432 0)
(0.294205 -0.308059 -8.78251e-20)
(-0.379527 -0.200173 0)
(-0.322205 -0.291884 0)
(-0.225182 -0.35896 0)
(-0.0906074 -0.355356 3.49212e-21)
(0.0931887 -0.348435 -9.2208e-21)
(0.329587 -0.267388 9.21857e-20)
(-0.412891 -0.185876 -4.23856e-19)
(-0.339488 -0.261787 -9.34962e-21)
(-0.232626 -0.309673 -2.38813e-19)
(-0.0886439 -0.301033 -2.35448e-19)
(0.105674 -0.28699 1.2233e-20)
(0.351247 -0.218208 0)
(-0.439875 -0.175027 4.4378e-19)
(-0.355996 -0.231599 -8.5729e-21)
(-0.242551 -0.260904 2.09488e-19)
(-0.0925247 -0.245637 2.50212e-20)
(0.107832 -0.224445 0)
(0.358803 -0.16303 4.32268e-20)
(-0.460563 -0.166167 -1.34213e-20)
(-0.37171 -0.201054 5.56957e-19)
(-0.254907 -0.212857 -5.07065e-19)
(-0.102206 -0.189691 -1.3606e-19)
(0.100049 -0.16126 -4.84458e-20)
(0.352537 -0.103798 -4.39702e-19)
(-0.474566 -0.158269 4.12133e-20)
(-0.386655 -0.170318 -5.97076e-19)
(-0.269585 -0.165693 2.77241e-20)
(-0.117453 -0.133697 4.25765e-19)
(0.0827906 -0.0980378 2.9012e-19)
(0.332821 -0.0422713 8.91101e-20)
(-0.481707 -0.150256 5.55452e-20)
(-0.400834 -0.139635 3.70533e-20)
(-0.286388 -0.119548 -5.17155e-19)
(-0.137855 -0.0781816 -8.36882e-19)
(0.0567163 -0.0354893 -1.1432e-18)
(0.300251 0.0198587 8.62862e-19)
(-0.482025 -0.141064 0)
(-0.414138 -0.10923 0)
(-0.304993 -0.0745335 9.7419e-19)
(-0.162837 -0.0237066 7.77526e-19)
(0.0227575 0.02562 1.58972e-18)
(0.255635 0.0809832 -7.63649e-19)
(-0.476324 -0.129896 0)
(-0.426081 -0.0792298 1.11886e-18)
(-0.325007 -0.0307526 8.43797e-19)
(-0.191693 0.0291233 0)
(-0.0181893 0.0844175 -7.36589e-19)
(0.200119 0.139598 8.03862e-19)
(-0.464819 -0.116057 -1.68206e-18)
(-0.436473 -0.0496824 -2.09314e-18)
(-0.346029 0.0116277 -8.96315e-19)
(-0.22361 0.0797307 9.95556e-20)
(-0.0648301 0.139992 8.68954e-20)
(0.13581 0.194229 -6.45263e-19)
(-0.448058 -0.0990765 1.6842e-18)
(-0.445043 -0.0205579 1.11549e-18)
(-0.367612 0.0524192 -9.3033e-19)
(-0.257633 0.127486 -7.71605e-19)
(-0.115477 0.191436 0)
(0.064754 0.24357 5.9293e-19)
(-0.426636 -0.0786728 0)
(-0.451453 0.00820766 6.72024e-20)
(-0.389276 0.0914307 8.30346e-19)
(-0.292728 0.171752 7.71795e-19)
(-0.168364 0.237925 0)
(-0.0107713 0.286453 -7.25295e-19)
(-0.401138 -0.0547892 -5.27434e-20)
(-0.455273 0.0366406 3.16344e-20)
(-0.410504 0.128481 0)
(-0.327803 0.211893 0)
(-0.221562 0.278681 1.58309e-19)
(-0.0880281 0.321804 -1.42029e-19)
(-0.371874 -0.027913 -1.62542e-18)
(-0.455993 0.0649066 1.12714e-18)
(-0.430705 0.163393 5.75667e-20)
(-0.361731 0.247279 6.47916e-19)
(-0.273026 0.312919 -1.54287e-19)
(-0.163945 0.348598 6.60646e-19)
(-0.337745 0.000189364 1.68776e-18)
(-0.453447 0.0937531 -2.18581e-18)
(-0.449171 0.195919 -5.4396e-20)
(-0.39341 0.277243 -1.43729e-20)
(-0.320733 0.339736 -6.24202e-19)
(-0.235021 0.365712 -5.26183e-19)
(-0.297937 0.0286415 2.49173e-20)
(-0.447286 0.123225 1.14811e-18)
(-0.465075 0.225403 0)
(-0.421844 0.300909 -8.61285e-19)
(-0.362695 0.358072 7.21581e-19)
(-0.296552 0.372062 -3.90906e-19)
(-0.251674 0.0548416 7.73016e-20)
(-0.436799 0.15257 4.08828e-20)
(-0.477273 0.249531 -5.88452e-20)
(-0.445689 0.316598 0)
(-0.396109 0.366761 0)
(-0.340959 0.367516 1.0517e-18)
(-0.196421 0.0721621 1.62535e-18)
(-0.416698 0.178786 -1.24103e-18)
(-0.482604 0.263343 0)
(-0.458113 0.321904 -1.00781e-19)
(-0.41359 0.364582 8.58603e-20)
(-0.355885 0.35133 -5.53008e-19)
(-0.100292 0.0726387 -1.76081e-18)
(-0.330441 0.201054 1.36789e-18)
(-0.450403 0.29492 1.31243e-19)
(-0.431055 0.322798 -1.04788e-19)
(-0.409248 0.325837 1.76491e-19)
(-0.366868 0.265329 -2.44949e-20)
(0.762471 -1.02105 2.54276e-19)
(1.08083 -0.865369 7.97646e-20)
(1.19323 -0.747766 5.8371e-20)
(1.23767 -0.6307 3.2671e-21)
(1.24612 -0.527159 0)
(1.2378 -0.441613 -5.24966e-20)
(1.22409 -0.372982 5.98659e-20)
(1.21061 -0.319106 -5.89607e-20)
(1.19891 -0.276746 -4.3471e-20)
(1.18874 -0.242856 9.00668e-20)
(1.1794 -0.214996 -5.79599e-20)
(1.17025 -0.191418 0)
(1.16095 -0.170972 3.27721e-20)
(1.15129 -0.152868 5.19761e-20)
(1.14113 -0.136539 -1.25312e-19)
(1.13035 -0.121562 -5.06337e-20)
(1.11885 -0.107613 4.88302e-20)
(1.10651 -0.0944481 0)
(1.09323 -0.0818652 0)
(1.07896 -0.0695983 -8.49124e-20)
(1.06366 -0.0573407 1.66139e-19)
(1.04685 -0.0457982 -8.15185e-20)
(1.02672 -0.0386624 0)
(1.00354 -0.0368627 4.20993e-20)
(0.828901 -0.806721 -5.04146e-19)
(1.19357 -0.798628 -5.12097e-20)
(1.29077 -0.708309 -1.48555e-19)
(1.31936 -0.60391 -2.01256e-20)
(1.31509 -0.508297 -1.30983e-20)
(1.29578 -0.426988 -2.36645e-20)
(1.2728 -0.360604 -4.0314e-20)
(1.25162 -0.308024 2.80841e-20)
(1.23376 -0.266534 -2.83365e-20)
(1.21873 -0.233402 -5.72028e-20)
(1.20555 -0.206316 1.18667e-19)
(1.19333 -0.183561 -7.34003e-20)
(1.18149 -0.16397 7.05729e-20)
(1.16967 -0.146739 2.08041e-20)
(1.15765 -0.131291 6.74643e-20)
(1.14524 -0.117198 -4.20087e-20)
(1.13226 -0.104135 0)
(1.11857 -0.091855 0)
(1.10402 -0.0801502 0)
(1.0885 -0.0687483 0)
(1.0719 -0.0573253 1.77486e-20)
(1.05373 -0.0465551 -1.77045e-20)
(1.03228 -0.0401848 -1.85038e-20)
(1.00715 -0.0395268 -1.77157e-20)
(0.835438 -0.639174 4.03681e-19)
(1.26607 -0.713693 -2.74133e-19)
(1.37094 -0.649123 8.33746e-20)
(1.39248 -0.56152 0)
(1.37933 -0.477432 3.90985e-21)
(1.3509 -0.403063 1.08322e-20)
(1.3196 -0.341064 3.9385e-22)
(1.29128 -0.291234 3.57176e-20)
(1.26747 -0.251637 -1.47573e-20)
(1.2477 -0.219995 -2.07396e-21)
(1.23074 -0.194212 -3.99993e-20)
(1.2155 -0.172682 -2.17094e-20)
(1.20119 -0.154271 -3.98162e-20)
(1.18732 -0.138188 -2.26184e-20)
(1.17354 -0.123863 5.45447e-20)
(1.15959 -0.110877 0)
(1.14526 -0.0989096 1.70334e-20)
(1.13034 -0.087717 0)
(1.11466 -0.0770941 1.65145e-20)
(1.09803 -0.0667683 -1.62174e-20)
(1.08029 -0.0564021 -1.81834e-21)
(1.06091 -0.0466122 1.76491e-21)
(1.0383 -0.0411211 1.75479e-21)
(1.01133 -0.0417852 1.78194e-20)
(0.844353 -0.515496 5.2477e-20)
(1.31059 -0.620712 2.15042e-19)
(1.43263 -0.577987 -2.73144e-20)
(1.45428 -0.507773 -4.87027e-21)
(1.43634 -0.436584 2.66109e-20)
(1.40144 -0.370915 5.19974e-21)
(1.36323 -0.31489 -1.15343e-20)
(1.32852 -0.269075 -9.23402e-21)
(1.29928 -0.232291 5.59628e-21)
(1.27505 -0.202828 -1.98255e-20)
(1.2545 -0.178842 1.16102e-20)
(1.23637 -0.158907 0)
(1.21973 -0.141967 1.39106e-20)
(1.20392 -0.127269 0)
(1.1885 -0.114272 -1.75381e-20)
(1.17315 -0.102575 -3.26555e-20)
(1.1576 -0.091875 4.63859e-20)
(1.14159 -0.0819414 -1.38892e-20)
(1.12492 -0.07258 -7.84854e-20)
(1.10735 -0.0635299 7.72392e-20)
(1.08865 -0.0544467 -4.58128e-20)
(1.06828 -0.0458495 -6.08895e-20)
(1.04468 -0.0413167 7.82697e-20)
(1.01606 -0.0435099 0)
(0.854405 -0.418524 0)
(1.33585 -0.524933 -1.38828e-19)
(1.47775 -0.499563 3.38544e-20)
(1.50406 -0.445803 -3.00768e-20)
(1.48487 -0.387797 0)
(1.44596 -0.331815 0)
(1.40263 -0.282823 4.21109e-21)
(1.36257 -0.242024 2.66165e-22)
(1.32855 -0.208922 5.798e-21)
(1.30026 -0.182215 9.41852e-21)
(1.2764 -0.160453 -1.17105e-20)
(1.25561 -0.142437 1.19993e-20)
(1.2368 -0.127209 -1.22796e-20)
(1.21922 -0.114084 -1.21665e-20)
(1.20233 -0.102563 0)
(1.18572 -0.0922775 0)
(1.16908 -0.0829534 2.03436e-20)
(1.15212 -0.0743855 -5.09757e-21)
(1.13459 -0.0664062 0)
(1.11622 -0.0587907 2.73439e-20)
(1.09674 -0.0512128 -3.30009e-20)
(1.07561 -0.0440366 1.42772e-20)
(1.0513 -0.0404501 2.88716e-20)
(1.0212 -0.0444318 -2.82181e-20)
(0.858512 -0.33608 0)
(1.34522 -0.429303 2.14222e-19)
(1.50753 -0.416788 0)
(1.54157 -0.377997 0)
(1.52406 -0.332854 -7.4484e-21)
(1.48353 -0.286987 6.83943e-21)
(1.43685 -0.24578 0)
(1.39278 -0.210779 2.06249e-21)
(1.35476 -0.181967 2.59627e-21)
(1.32292 -0.158524 -9.63243e-22)
(1.29612 -0.139379 -5.41018e-22)
(1.27293 -0.123545 4.0786e-21)
(1.2522 -0.110216 -6.87121e-21)
(1.23304 -0.0987897 4.53411e-21)
(1.21485 -0.088824 -2.37721e-21)
(1.19715 -0.0799934 5.88761e-21)
(1.17957 -0.0720583 -1.19628e-20)
(1.16179 -0.0648473 6.40909e-21)
(1.14351 -0.0582348 0)
(1.12444 -0.0520716 0)
(1.10429 -0.0461128 6.35279e-21)
(1.08256 -0.0405217 0)
(1.05786 -0.037582 3.0503e-21)
(1.02705 -0.0435216 3.15495e-21)
(0.853295 -0.261169 -6.29898e-21)
(1.34006 -0.335432 -6.97703e-20)
(1.52239 -0.331812 0)
(1.56622 -0.305602 3.52197e-21)
(1.55351 -0.273956 -3.20197e-21)
(1.51353 -0.237802 0)
(1.46527 -0.204729 8.86466e-22)
(1.41854 -0.176034 -1.84368e-21)
(1.37745 -0.151999 1.45732e-21)
(1.34271 -0.132229 -1.25971e-22)
(1.31339 -0.116002 6.85637e-22)
(1.28814 -0.102565 -2.80932e-22)
(1.26574 -0.0912747 -7.08003e-22)
(1.24526 -0.0816257 -7.64841e-22)
(1.226 -0.0732394 1.27035e-21)
(1.20742 -0.0658351 1.06236e-21)
(1.18909 -0.0592084 0)
(1.17066 -0.0532185 0)
(1.15178 -0.0477787 0)
(1.13212 -0.0428204 1.36376e-21)
(1.11129 -0.0382189 -1.32338e-21)
(1.08872 -0.0340562 0)
(1.0634 -0.0318271 -2.99799e-21)
(1.03402 -0.0379316 -3.08598e-21)
(0.838998 -0.190245 1.29652e-20)
(1.32137 -0.244134 -2.90754e-20)
(1.52264 -0.24635 1.58083e-20)
(1.57811 -0.230868 1.56989e-20)
(1.57207 -0.211526 -3.94361e-20)
(1.53573 -0.185663 0)
(1.48746 -0.160598 0)
(1.43941 -0.138523 0)
(1.39628 -0.11962 0)
(1.35934 -0.103838 2.95885e-21)
(1.32801 -0.0907721 -6.02207e-22)
(1.30107 -0.0799095 5.60623e-22)
(1.27733 -0.0707701 2.32599e-22)
(1.2558 -0.0629593 0)
(1.23573 -0.0561722 0)
(1.21653 -0.0501811 -3.84928e-21)
(1.19772 -0.0448243 3.65304e-21)
(1.17887 -0.0400003 0)
(1.15958 -0.0356586 2.04161e-21)
(1.13941 -0.0317599 0)
(1.1178 -0.0282668 0)
(1.09411 -0.0256617 -5.03215e-21)
(1.06783 -0.0261529 2.5093e-21)
(1.03878 -0.0311403 0)
(0.815253 -0.121385 -2.93947e-20)
(1.28961 -0.155944 0)
(1.50843 -0.161673 0)
(1.57748 -0.156128 0)
(1.57897 -0.146115 2.53744e-20)
(1.54962 -0.131437 -3.79341e-20)
(1.50306 -0.114301 1.07981e-20)
(1.45508 -0.0989809 -9.99795e-21)
(1.41096 -0.0854437 0)
(1.3726 -0.0738873 -1.10141e-20)
(1.33982 -0.0641823 3.06868e-21)
(1.31163 -0.056044 -2.85855e-21)
(1.28689 -0.0491637 -2.34848e-22)
(1.2646 -0.0432708 0)
(1.24399 -0.0381528 0)
(1.22441 -0.0336581 5.74919e-21)
(1.20533 -0.0296936 -5.44415e-21)
(1.18628 -0.0262246 3.00494e-21)
(1.16677 -0.0232612 8.956e-21)
(1.14629 -0.0208078 -7.3714e-21)
(1.12424 -0.0188807 0)
(1.10002 -0.0180871 1.706e-20)
(1.0732 -0.0205289 -1.01626e-20)
(1.04314 -0.0257068 -3.58677e-21)
(0.780992 -0.0538429 5.88298e-20)
(1.2448 -0.071421 -7.65308e-20)
(1.47974 -0.0789641 6.76704e-20)
(1.5639 -0.0818654 -3.65478e-20)
(1.57498 -0.0804596 1.48841e-19)
(1.55412 -0.0755704 3.13585e-21)
(1.51161 -0.0667352 -2.56763e-20)
(1.4652 -0.0581064 -5.80065e-20)
(1.42124 -0.050071 -1.29198e-20)
(1.38231 -0.0429182 8.093e-21)
(1.3487 -0.0367337 9.50936e-21)
(1.31971 -0.0314491 -1.70034e-20)
(1.29433 -0.0269297 1.85911e-21)
(1.27158 -0.0230391 -2.66134e-21)
(1.25065 -0.0196715 -5.78031e-22)
(1.23087 -0.0167643 -7.75011e-21)
(1.21167 -0.0143019 3.81751e-21)
(1.1925 -0.0123162 1.27136e-20)
(1.17284 -0.0108681 -1.40407e-20)
(1.15214 -0.00999358 0)
(1.1298 -0.00972866 1.33979e-20)
(1.10527 -0.0106517 -1.28646e-20)
(1.07822 -0.0146068 2.69375e-21)
(1.04772 -0.0207416 -2.39273e-21)
(0.735333 0.0121758 0)
(1.18687 0.0087141 -7.72303e-20)
(1.43647 0.000541724 3.681e-19)
(1.53721 -0.00935793 4.74343e-20)
(1.56019 -0.0159446 -4.81522e-20)
(1.5481 -0.0190682 0)
(1.51302 -0.0187113 1.73873e-19)
(1.46944 -0.0166168 -8.6388e-21)
(1.42687 -0.0141168 8.79874e-20)
(1.38829 -0.0114674 -2.51049e-20)
(1.35454 -0.00891839 0)
(1.32525 -0.00659314 8.21714e-21)
(1.2996 -0.00452465 0)
(1.27667 -0.00271359 1.5523e-21)
(1.25565 -0.00116606 0)
(1.23585 8.87331e-05 0)
(1.21665 0.000992284 -3.0257e-21)
(1.19749 0.00145824 -6.49557e-21)
(1.17781 0.00139121 1.7244e-20)
(1.15707 0.000734095 -8.95934e-21)
(1.13468 -0.000567747 -4.53408e-21)
(1.11014 -0.00305632 2.33336e-20)
(1.08315 -0.00837864 -2.90209e-20)
(1.05264 -0.0157603 9.88675e-22)
(0.677771 0.0758988 1.15035e-19)
(1.11575 0.0834958 0)
(1.37851 0.0755236 -1.34855e-19)
(1.49704 0.0600879 -3.49283e-19)
(1.53448 0.0461735 7.00921e-20)
(1.5318 0.0365575 -8.84617e-20)
(1.50632 0.0293648 -6.21127e-20)
(1.46744 0.0247867 4.75627e-20)
(1.42758 0.0218134 -3.23194e-20)
(1.39038 0.0199445 0)
(1.35723 0.018794 0)
(1.32819 0.0180833 2.01991e-20)
(1.30266 0.0176294 -1.89017e-20)
(1.27986 0.0173007 -6.87679e-21)
(1.259 0.0169819 8.87452e-21)
(1.23937 0.0165561 -1.30436e-21)
(1.22035 0.0158988 -3.55551e-21)
(1.20136 0.0148797 3.35489e-21)
(1.18186 0.0133769 0)
(1.16132 0.0113112 0)
(1.13915 0.00859525 -1.24663e-20)
(1.11487 0.00470456 -2.68788e-21)
(1.08818 -0.00189004 1.82005e-20)
(1.0579 -0.0106197 4.94314e-21)
(0.608298 0.136279 9.5538e-19)
(1.03154 0.15185 -2.4042e-19)
(1.3058 0.144642 -2.35672e-19)
(1.44314 0.125193 -3.65733e-19)
(1.49705 0.105855 -7.09771e-20)
(1.506 0.0891619 8.91684e-20)
(1.49064 0.0764929 -1.3243e-19)
(1.45872 0.0653677 -4.77596e-20)
(1.42306 0.0571128 -1.05442e-19)
(1.38834 0.0508098 -1.70914e-20)
(1.35662 0.0459594 4.41049e-20)
(1.32844 0.0421746 0)
(1.3035 0.0391527 -2.04266e-20)
(1.28117 0.0366477 -3.58926e-21)
(1.26074 0.0344452 -9.59444e-21)
(1.24151 0.0323491 3.63623e-21)
(1.22288 0.0301766 -1.74154e-21)
(1.20428 0.0277585 2.53705e-21)
(1.18519 0.0249466 0)
(1.16508 0.0216314 0)
(1.14339 0.0176813 1.3025e-20)
(1.11962 0.0125648 -2.76261e-20)
(1.09347 0.00481278 2.18443e-20)
(1.06364 -0.0052675 0)
(0.527393 0.192053 -1.8731e-18)
(0.934779 0.212648 2.33218e-19)
(1.21869 0.206575 3.48491e-19)
(1.37528 0.184768 3.46626e-19)
(1.44725 0.161095 1.12494e-19)
(1.47069 0.139523 -2.84791e-19)
(1.46556 0.120786 -4.87364e-22)
(1.44271 0.104395 0)
(1.41288 0.0912333 1.48841e-19)
(1.38188 0.0806659 0)
(1.35252 0.0721744 0)
(1.32589 0.0653173 0)
(1.30206 0.0597098 2.06444e-20)
(1.28061 0.0550162 9.84787e-22)
(1.26093 0.0509397 1.22054e-20)
(1.24239 0.0472151 -4.68003e-21)
(1.2244 0.0436078 0)
(1.20644 0.039911 -9.07053e-22)
(1.188 0.0359456 -4.97399e-21)
(1.16859 0.0315639 2.38843e-21)
(1.14763 0.0265836 9.63973e-21)
(1.1246 0.0204416 -9.1908e-21)
(1.0992 0.0116874 1.83329e-20)
(1.07002 0.000324616 -3.27487e-20)
(0.436075 0.241568 7.07428e-19)
(0.825904 0.264496 0)
(1.11782 0.259836 0)
(1.29351 0.237352 0)
(1.3848 0.210952 -1.29975e-19)
(1.42419 0.185445 8.05694e-20)
(1.43161 0.162142 7.39473e-20)
(1.419 0.141264 5.65204e-20)
(1.39653 0.123671 -6.77184e-21)
(1.37056 0.109082 -6.44064e-20)
(1.34463 0.0970665 0)
(1.32035 0.0871814 0)
(1.29824 0.0790007 0)
(1.27814 0.0721294 -3.02313e-20)
(1.25961 0.066209 2.84449e-20)
(1.2421 0.0609187 8.57036e-21)
(1.22507 0.0559775 5.28765e-21)
(1.20803 0.0511409 0)
(1.19052 0.0461944 6.65142e-22)
(1.17206 0.0409465 2.34216e-21)
(1.15207 0.0351618 8.95267e-21)
(1.13003 0.0282295 -6.48555e-21)
(1.1056 0.0186759 0)
(1.07731 0.00616279 5.48409e-21)
(0.336022 0.282974 -1.75813e-19)
(0.706349 0.305775 -2.74586e-19)
(1.00356 0.303174 -6.40503e-19)
(1.19802 0.281766 2.34554e-19)
(1.30948 0.254289 2.32621e-19)
(1.36627 0.226232 2.70992e-19)
(1.38788 0.199594 5.9854e-20)
(1.38692 0.175145 -1.46101e-19)
(1.37332 0.153785 8.44563e-20)
(1.35381 0.135572 0)
(1.33246 0.120251 3.98621e-20)
(1.31147 0.107446 -3.74947e-20)
(1.2918 0.0967442 4.51062e-20)
(1.27363 0.0877299 -2.3631e-20)
(1.25673 0.0800109 0)
(1.24067 0.0732277 -1.84413e-20)
(1.22498 0.0670609 1.1198e-21)
(1.20921 0.0612295 -3.89285e-21)
(1.19294 0.0554811 3.95528e-22)
(1.17572 0.0495789 -2.93526e-21)
(1.15698 0.043237 8.67395e-21)
(1.13617 0.035787 -8.58084e-21)
(1.11297 0.0256925 0)
(1.08583 0.012226 4.2267e-21)
(0.229902 0.314364 9.44122e-20)
(0.579155 0.334912 3.24176e-20)
(0.877515 0.33535 4.1941e-19)
(1.08878 0.316846 2.93953e-19)
(1.22079 0.290133 -1.28745e-19)
(1.29623 0.261128 -1.02534e-19)
(1.33354 0.232428 1.24112e-19)
(1.34566 0.205361 -8.79434e-20)
(1.34244 0.180984 1.54271e-19)
(1.33083 0.159657 5.53934e-20)
(1.31536 0.141343 0)
(1.29872 0.125796 0)
(1.28235 0.112668 0)
(1.2668 0.10157 -1.90775e-20)
(1.25211 0.0921067 0)
(1.23801 0.0839036 9.88841e-21)
(1.22411 0.0766153 -6.60241e-21)
(1.21003 0.0699288 3.96461e-21)
(1.19538 0.0635564 0)
(1.17974 0.0572179 -9.72845e-22)
(1.16256 0.0505841 5.08815e-21)
(1.14331 0.0429293 -5.17304e-21)
(1.12164 0.032618 0)
(1.09599 0.0184639 -7.00145e-21)
(0.120918 0.333722 6.44415e-19)
(0.448312 0.350072 5.22166e-19)
(0.743019 0.354784 0)
(0.967038 0.341286 -2.92796e-19)
(1.11843 0.317543 -2.05595e-19)
(1.21311 0.289366 -3.19414e-19)
(1.26741 0.259993 -1.24298e-19)
(1.29403 0.231343 -8.9234e-20)
(1.3027 0.204753 -7.23164e-20)
(1.3005 0.180894 -1.05106e-19)
(1.29231 0.159974 6.02984e-21)
(1.28125 0.141923 0)
(1.26921 0.126505 4.5056e-20)
(1.25712 0.113401 -6.10444e-20)
(1.24534 0.102253 2.5451e-20)
(1.23381 0.0926943 -3.43624e-20)
(1.22228 0.0843725 1.27241e-20)
(1.21041 0.0769524 -1.20291e-20)
(1.19786 0.0701213 2.99131e-21)
(1.18423 0.0635617 -4.22483e-22)
(1.16902 0.0569072 3.66557e-22)
(1.15171 0.0493979 -1.10849e-21)
(1.13197 0.0392665 2.57003e-21)
(1.10823 0.0247754 3.77783e-21)
(0.0127737 0.33901 -6.39503e-19)
(0.318673 0.349651 -3.42776e-19)
(0.605191 0.359886 -9.68252e-20)
(0.836085 0.353635 -3.73165e-19)
(1.00329 0.335283 5.0602e-19)
(1.11626 0.310005 2.98992e-19)
(1.1881 0.281571 0)
(1.23036 0.252526 1.6804e-19)
(1.25237 0.224618 -7.36158e-20)
(1.26116 0.198876 4.63882e-20)
(1.26179 0.175797 3.45395e-20)
(1.25773 0.155527 0)
(1.25125 0.13799 2.22454e-20)
(1.24367 0.122975 3.39194e-20)
(1.23567 0.110196 -3.07067e-20)
(1.22746 0.0993311 1.9979e-20)
(1.21897 0.0900414 -6.90675e-21)
(1.20996 0.0819855 4.73206e-21)
(1.20014 0.0748261 1.72486e-21)
(1.1891 0.0682328 -6.85674e-21)
(1.17639 0.0618164 3.26983e-21)
(1.16153 0.0548182 1.94701e-21)
(1.14426 0.0453494 -2.63032e-21)
(1.12307 0.0309592 0)
(-0.0898596 0.327878 1.32873e-19)
(0.195781 0.332398 3.28057e-19)
(0.470428 0.349574 1.61392e-19)
(0.701308 0.352609 4.96661e-19)
(0.878468 0.342001 -3.23244e-20)
(1.00647 0.321865 -1.50829e-19)
(1.09475 0.296228 -4.22854e-20)
(1.1529 0.268207 -3.83225e-21)
(1.18925 0.240042 -6.79154e-20)
(1.21045 0.213182 4.41586e-20)
(1.22151 0.18847 -7.01379e-20)
(1.22607 0.166322 8.06599e-20)
(1.22664 0.146865 -6.96589e-20)
(1.22489 0.13004 2.95276e-21)
(1.2218 0.115676 2.76514e-20)
(1.21788 0.103531 -9.68375e-21)
(1.21327 0.0932955 1.2945e-20)
(1.20775 0.0846307 -8.84247e-21)
(1.20149 0.0772263 2.50359e-21)
(1.19385 0.0707616 0)
(1.18438 0.0648041 3.19132e-22)
(1.1727 0.058656 -7.21144e-21)
(1.15863 0.0504235 1.50221e-20)
(1.14095 0.0366802 -1.21303e-20)
(-0.180587 0.297261 -7.79268e-20)
(0.0857205 0.297638 -9.00677e-20)
(0.34551 0.323829 -2.25465e-19)
(0.569433 0.337827 0)
(0.749287 0.336825 -2.52361e-19)
(0.886779 0.323835 -4.02218e-21)
(0.988166 0.302877 4.68349e-20)
(1.06072 0.277468 7.63281e-20)
(1.11127 0.250302 2.36118e-21)
(1.14562 0.223264 4.02956e-20)
(1.1684 0.197583 -3.47235e-20)
(1.18315 0.17399 4.86267e-20)
(1.19245 0.152865 -2.05037e-20)
(1.19815 0.134349 -2.71936e-20)
(1.20145 0.118418 8.95837e-21)
(1.20313 0.10494 1.31443e-20)
(1.20355 0.0936914 -1.40676e-20)
(1.20279 0.0843412 1.18712e-21)
(1.20063 0.0766271 7.40891e-22)
(1.19733 0.0704197 -9.19602e-22)
(1.19209 0.0651776 -1.93833e-21)
(1.18456 0.0601659 7.71025e-22)
(1.17467 0.0537684 0)
(1.16199 0.0413493 2.66443e-21)
(-0.250406 0.242905 1.16188e-19)
(-0.0046514 0.245824 -1.96053e-20)
(0.236973 0.284104 -7.44541e-20)
(0.447222 0.310416 0)
(0.622117 0.320091 -2.19826e-19)
(0.76218 0.315559 1.21972e-20)
(0.871352 0.300766 8.91424e-20)
(0.95473 0.279436 -9.64308e-20)
(1.01747 0.254583 -4.06081e-20)
(1.06426 0.22845 7.55873e-20)
(1.09904 0.202624 -2.93912e-20)
(1.12494 0.178162 1.98247e-22)
(1.1444 0.15573 -9.14943e-21)
(1.1592 0.135702 5.58611e-20)
(1.17062 0.118246 -2.69601e-20)
(1.17956 0.103374 0)
(1.18656 0.0910129 -4.51635e-21)
(1.19198 0.0810341 4.33886e-21)
(1.19555 0.0731541 0)
(1.19735 0.0668916 -2.52883e-22)
(1.19746 0.0622426 -1.90376e-22)
(1.19532 0.0584935 1.27956e-21)
(1.1908 0.0544139 9.62079e-21)
(1.18538 0.0440117 -4.71844e-21)
(-0.28621 0.160527 4.72365e-19)
(-0.0667841 0.179703 -2.3512e-19)
(0.150843 0.233969 -6.78352e-20)
(0.340216 0.273461 -1.80728e-19)
(0.502797 0.293857 1.49107e-19)
(0.638235 0.298088 0)
(0.748793 0.290176 7.78283e-20)
(0.837774 0.273924 5.32424e-20)
(0.908785 0.252479 -8.46873e-21)
(0.965342 0.228305 -6.2543e-21)
(1.01057 0.203245 -2.62809e-20)
(1.04708 0.178631 -3.85798e-21)
(1.07696 0.155396 9.36216e-21)
(1.1018 0.134162 0)
(1.12276 0.115314 0)
(1.14067 0.0990525 -1.72546e-21)
(1.15607 0.0854726 0)
(1.16939 0.0746039 -1.08502e-21)
(1.18059 0.0662421 -1.33911e-21)
(1.18958 0.0599641 2.57953e-21)
(1.19631 0.0554477 1.58654e-21)
(1.20097 0.0523462 3.58159e-21)
(1.20302 0.0502824 -6.28587e-21)
(1.20816 0.0437574 -1.46893e-21)
(-0.25922 0.031259 -6.03963e-19)
(-0.0897427 0.108567 2.87687e-19)
(0.0913544 0.180377 1.13435e-19)
(0.251443 0.232102 1.33593e-19)
(0.395094 0.261875 0)
(0.519473 0.274052 -4.53277e-20)
(0.62506 0.272838 -2.24295e-21)
(0.713682 0.261991 -5.52895e-20)
(0.787665 0.244631 1.89109e-20)
(0.849475 0.223279 2.36784e-20)
(0.901479 0.199893 -2.2364e-20)
(0.945762 0.175969 -2.43169e-20)
(0.984061 0.15263 4.49644e-23)
(1.01775 0.130698 -5.83781e-21)
(1.04787 0.110765 3.53056e-21)
(1.07515 0.0932492 -1.19918e-21)
(1.10003 0.0784359 3.1792e-21)
(1.12282 0.0664443 1.1775e-21)
(1.1436 0.0572647 -2.79679e-21)
(1.16223 0.0504954 2.63987e-21)
(1.17813 0.0461507 -5.43905e-21)
(1.19225 0.0428028 -2.27041e-21)
(1.20136 0.042738 2.07265e-21)
(1.22164 0.0385241 0)
(0.00342295 0.0426947 -6.72889e-19)
(-0.00940672 0.0681804 0)
(-0.0169722 0.0864838 4.37409e-20)
(0.00720746 0.0900518 -9.50275e-22)
(-0.0153044 0.106442 -2.94297e-20)
(0.109407 0.0722742 -2.7971e-19)
(-0.00526134 0.0530494 2.84883e-19)
(-0.0186004 0.0753004 1.41487e-20)
(-0.0242993 0.0886071 2.0747e-20)
(-0.00364006 0.0917783 -1.69418e-20)
(-0.0137233 0.0894306 1.1254e-19)
(0.0704662 0.0693507 1.94051e-19)
(-0.00953309 0.0587945 2.71134e-19)
(-0.0221193 0.0794013 -2.33642e-19)
(-0.0283354 0.0892954 9.99705e-21)
(-0.0133707 0.0900193 3.12728e-20)
(-0.0157704 0.0798982 -1.32179e-19)
(0.038891 0.0647309 -7.97094e-20)
(-0.0133909 0.0642635 -2.38384e-19)
(-0.0257895 0.083097 1.81705e-19)
(-0.0326927 0.090051 -8.88948e-21)
(-0.0228513 0.0881918 1.49297e-19)
(-0.0224699 0.074103 -1.26651e-20)
(0.0114854 0.0602321 -2.22044e-20)
(-0.0174767 0.0704347 3.50195e-19)
(-0.0299819 0.0865438 -9.20092e-20)
(-0.0375731 0.0910579 7.09128e-20)
(-0.0322763 0.0868706 -5.6371e-20)
(-0.0317615 0.0711173 0)
(-0.0122126 0.056862 0)
(-0.0222833 0.0752026 -1.22895e-19)
(-0.0346767 0.089598 8.83867e-20)
(-0.0428339 0.0923385 -7.21634e-20)
(-0.0415094 0.0863077 -5.1768e-20)
(-0.0421565 0.0699183 0)
(-0.0321925 0.0547643 -2.03861e-20)
(-0.0267358 0.0800297 0)
(-0.0396457 0.0922345 0)
(-0.0482633 0.0938823 0)
(-0.0503545 0.0865129 8.45941e-22)
(-0.0526553 0.0698679 -2.16995e-21)
(-0.0487086 0.053848 2.12551e-20)
(-0.0292962 0.0865347 -1.5413e-19)
(-0.0440216 0.0946877 -2.65323e-21)
(-0.0535963 0.0957095 -6.33714e-20)
(-0.0586205 0.0874353 -5.72915e-20)
(-0.062586 0.070598 2.90071e-21)
(-0.062149 0.0536754 0)
(-0.0322857 0.0900586 1.61076e-19)
(-0.0477647 0.0970705 -2.65665e-21)
(-0.0585794 0.0978688 5.62475e-20)
(-0.0661444 0.0890305 6.214e-21)
(-0.0715469 0.0718983 0)
(-0.0728522 0.0538529 9.85142e-21)
(-0.0354481 0.0933269 -4.82767e-21)
(-0.0509478 0.0994605 1.68803e-19)
(-0.0630307 0.100408 -1.36838e-19)
(-0.0728012 0.0912845 -3.42418e-20)
(-0.0793335 0.0736752 -1.15802e-20)
(-0.0811153 0.0541622 -1.00012e-19)
(-0.0385629 0.0961331 1.44971e-20)
(-0.0534923 0.101862 -1.83588e-19)
(-0.0667998 0.103371 6.96609e-21)
(-0.0784981 0.0942201 1.06702e-19)
(-0.0858597 0.0759324 7.02898e-20)
(-0.0872144 0.0544751 1.96814e-20)
(-0.0413339 0.0981845 1.93911e-20)
(-0.0553142 0.104278 1.05135e-20)
(-0.0697558 0.106804 -1.47074e-19)
(-0.083165 0.0978994 -2.18275e-19)
(-0.0910921 0.0787655 -2.82199e-19)
(-0.0913668 0.0548129 2.06536e-19)
(-0.0434898 0.099398 0)
(-0.0563495 0.106714 0)
(-0.0717901 0.110758 2.76312e-19)
(-0.086749 0.102419 2.05195e-19)
(-0.0950271 0.0823516 4.06561e-19)
(-0.0937613 0.0553587 -1.87403e-19)
(-0.0447686 0.0997843 0)
(-0.0565646 0.109164 3.66239e-19)
(-0.0728157 0.115265 2.49795e-19)
(-0.089208 0.1079 0)
(-0.0976728 0.0869429 -1.94771e-19)
(-0.0946196 0.0563512 2.16496e-19)
(-0.0448987 0.0994611 -6.29726e-19)
(-0.0559638 0.111594 -6.97711e-19)
(-0.0727655 0.120332 -2.69004e-19)
(-0.0904993 0.114467 2.87228e-20)
(-0.0990187 0.0928756 2.4581e-20)
(-0.0941536 0.0581654 -1.79361e-19)
(-0.0436712 0.0988474 6.30712e-19)
(-0.0546077 0.113938 3.7675e-19)
(-0.0716045 0.125937 -2.94925e-19)
(-0.0905655 0.122223 -2.39962e-19)
(-0.0990018 0.100578 0)
(-0.092596 0.0612697 1.90491e-19)
(-0.0408043 0.098635 0)
(-0.0526738 0.116104 2.28734e-20)
(-0.0693147 0.131955 2.65423e-19)
(-0.0893461 0.131226 2.44354e-19)
(-0.0974998 0.110619 0)
(-0.0902252 0.0662274 -2.41678e-19)
(-0.0333086 0.0968794 -1.84811e-20)
(-0.0505564 0.11766 1.15554e-20)
(-0.06588 0.138094 0)
(-0.0867292 0.141438 0)
(-0.0943917 0.123743 5.73122e-20)
(-0.0872322 0.0735199 -5.21689e-20)
(-0.0318684 0.0909811 -5.31693e-19)
(-0.0485461 0.117727 4.03775e-19)
(-0.0612483 0.14388 2.00366e-20)
(-0.0824498 0.152662 2.36808e-19)
(-0.0893788 0.140482 -6.06977e-20)
(-0.0839081 0.0838389 2.84486e-19)
(-0.0320065 0.0831113 5.2085e-19)
(-0.0459649 0.116012 -7.85117e-19)
(-0.0552159 0.148794 -1.95852e-20)
(-0.0761371 0.164432 4.31831e-21)
(-0.0817666 0.161253 -2.56148e-19)
(-0.0805063 0.0984839 -2.3464e-19)
(-0.0303602 0.0736744 7.95383e-21)
(-0.0424077 0.112279 4.12824e-19)
(-0.0476225 0.152329 0)
(-0.0674054 0.175877 -3.32744e-19)
(-0.0702809 0.186914 2.97096e-19)
(-0.076655 0.118881 -2.08719e-19)
(-0.0292094 0.0645147 2.56588e-20)
(-0.038102 0.106592 1.43421e-20)
(-0.0386642 0.154013 -2.20045e-20)
(-0.0561396 0.185779 0)
(-0.0529486 0.218472 0)
(-0.0696732 0.145623 5.66921e-19)
(-0.0282943 0.0542868 6.11052e-19)
(-0.0333326 0.0983913 -4.62297e-19)
(-0.0290254 0.152819 0)
(-0.0433577 0.191844 -4.36953e-20)
(-0.0273974 0.256652 3.69331e-20)
(-0.0553941 0.177333 -3.00809e-19)
(-0.027656 0.0345354 -6.92711e-19)
(-0.0306437 0.0774509 4.72616e-19)
(-0.0198483 0.138228 2.5099e-20)
(-0.0262666 0.178093 4.67111e-20)
(0.0126752 0.292975 -3.918e-20)
(-0.0346605 0.201687 6.80157e-20)
(-0.0962222 -0.0677215 1.25153e-19)
(-0.06516 0.0519362 1.84246e-19)
(0.0563319 0.134312 9.40626e-20)
(0.180074 0.19284 -4.39615e-20)
(0.299936 0.228742 0)
(0.408407 0.246976 -8.90799e-20)
(0.503815 0.251498 3.64143e-20)
(0.586501 0.245799 -4.11156e-21)
(0.657787 0.232794 -5.53022e-20)
(0.719299 0.214911 -1.20929e-20)
(0.772735 0.194091 0)
(0.819727 0.171861 -7.6044e-21)
(0.861725 0.149424 1.59908e-20)
(0.899948 0.127706 9.12698e-22)
(0.935376 0.107432 -2.13696e-21)
(0.968762 0.0891574 5.20741e-22)
(1.00061 0.0733001 -6.59049e-21)
(1.03126 0.0601292 1.06228e-20)
(1.06074 0.0498495 -5.4563e-21)
(1.08924 0.0421335 0)
(1.11524 0.0373421 5.22629e-21)
(1.14205 0.0336115 -5.04759e-21)
(1.1591 0.0333838 0)
(1.19753 0.0303888 -3.41798e-22)
(-0.0245772 -0.0479977 -2.67771e-19)
(-0.045005 0.0336357 -6.6156e-20)
(0.0313527 0.104073 -2.0041e-19)
(0.121461 0.160543 -4.12441e-20)
(0.216504 0.19815 -3.12319e-20)
(0.306495 0.219866 6.5897e-20)
(0.388314 0.228705 6.79235e-20)
(0.461001 0.227503 -2.49972e-20)
(0.524932 0.218801 1.76576e-20)
(0.581082 0.204802 1.98563e-20)
(0.630627 0.187312 -3.88798e-20)
(0.674775 0.167794 1.36037e-20)
(0.714697 0.147418 -8.71042e-21)
(0.751453 0.127128 -7.73739e-22)
(0.785957 0.107684 2.17252e-21)
(0.818982 0.0897041 -1.77087e-21)
(0.85115 0.0736897 0)
(0.882961 0.0600002 0)
(0.914604 0.0488721 0)
(0.946607 0.0402808 0)
(0.977624 0.0343771 1.57544e-21)
(1.01154 0.03033 -1.44865e-21)
(1.03661 0.0290871 -1.2412e-21)
(1.08545 0.0253144 -1.08558e-21)
(-0.00893962 -0.0227953 1.73594e-19)
(-0.0381047 0.0308102 -1.35787e-19)
(0.0088959 0.0856288 9.41557e-20)
(0.0724137 0.135453 0)
(0.144882 0.171373 3.19327e-20)
(0.216391 0.194233 -2.03043e-20)
(0.283288 0.205805 2.94073e-20)
(0.343968 0.208117 -7.38857e-20)
(0.398082 0.203244 2.02091e-20)
(0.446012 0.193053 1.55719e-21)
(0.488516 0.179099 1.75768e-20)
(0.52647 0.162703 4.67205e-21)
(0.560754 0.144985 3.73918e-21)
(0.592221 0.126863 -1.91693e-21)
(0.621642 0.109101 -1.27888e-21)
(0.649689 0.0923499 0)
(0.676947 0.077149 9.11186e-22)
(0.703925 0.0638841 0)
(0.730988 0.0527755 1.40418e-21)
(0.758524 0.043944 -1.46656e-21)
(0.7864 0.0373224 -9.6792e-23)
(0.815877 0.0328583 2.30716e-23)
(0.843835 0.0297892 -9.84868e-23)
(0.885425 0.0245744 1.07866e-21)
(-0.0160458 -0.00452082 1.45353e-20)
(-0.0409223 0.0319934 1.06647e-19)
(-0.0120549 0.0738015 -2.04774e-20)