/*--------------------------------*- C++ -*----------------------------------*\
  =========                 |
  \\      /  F ield         | OpenFOAM: The Open Source CFD Toolbox
   \\    /   O peration     | Website:  https://openfoam.org
    \\  /    A nd           | Version:  11
     \\/     M anipulation  |
\*---------------------------------------------------------------------------*/
FoamFile
{
    format      ascii;
    class       surfaceVectorField;
    location    "0.18";
    object      Uf;
}
// * * * * * * * * * * * * * * * * * * * * * * * * * * * * * * * * * * * * * //

dimensions      [0 1 -1 0 0 0 0];

internalField   nonuniform List<vector> 
5640
(
(-0.102544 -0.264302 -9.25835e-19)
(-0.102935 -0.217286 -5.29102e-19)
(-0.159304 -0.440497 2.0933e-20)
(-0.159804 -0.374475 3.95625e-20)
(-0.16068 -0.501059 0)
(-0.185652 -0.531894 3.50144e-20)
(-0.134792 -0.513512 5.13944e-20)
(-0.155852 -0.537926 -2.89915e-20)
(-0.0643613 -0.471117 -2.73505e-19)
(-0.115206 -0.562186 2.54576e-19)
(0.041122 -0.302817 1.03519e-19)
(0.370558 -0.531385 -3.71238e-19)
(-0.166727 -0.322754 4.1733e-19)
(-0.170423 -0.247814 8.0366e-19)
(-0.202666 -0.489064 5.38375e-20)
(-0.211544 -0.401316 -3.35352e-19)
(-0.183365 -0.557531 6.83932e-21)
(-0.207973 -0.546828 5.10555e-20)
(-0.127329 -0.558183 1.66239e-19)
(-0.155173 -0.553289 2.88423e-20)
(-0.0360702 -0.502011 6.48095e-19)
(-0.0759789 -0.565014 -4.60541e-20)
(0.0887806 -0.353146 2.84439e-19)
(0.391338 -0.502594 3.91431e-19)
(-0.212752 -0.323438 1.13347e-19)
(-0.224988 -0.244163 1.25304e-20)
(-0.22456 -0.476283 -3.59833e-19)
(-0.244478 -0.390986 -6.80601e-20)
(-0.181968 -0.54171 7.24629e-20)
(-0.214316 -0.51989 -1.74594e-21)
(-0.0987429 -0.539109 -1.92765e-19)
(-0.137418 -0.523895 3.44927e-19)
(0.0225307 -0.486848 -4.19672e-19)
(-0.0278399 -0.534676 -2.70708e-19)
(0.153949 -0.359332 -2.11753e-19)
(0.423184 -0.452816 -3.19981e-20)
(-0.254986 -0.308647 -1.63192e-19)
(-0.274583 -0.231693 2.0355e-19)
(-0.240226 -0.447229 2.76938e-19)
(-0.27044 -0.368474 1.32831e-19)
(-0.174027 -0.504406 2.57683e-19)
(-0.216608 -0.479165 1.11962e-19)
(-0.0666323 -0.501871 2.65953e-19)
(-0.119017 -0.481141 1.77739e-19)
(0.0838373 -0.457361 -6.42027e-20)
(0.016561 -0.49077 -2.45738e-20)
(0.21778 -0.347338 -3.99986e-20)
(0.463975 -0.405985 -7.43908e-21)
(-0.291542 -0.288163 5.04232e-19)
(-0.319973 -0.217848 4.08292e-19)
(-0.252491 -0.410621 -3.54713e-20)
(-0.292599 -0.339831 -4.89319e-21)
(-0.166311 -0.458552 2.76167e-20)
(-0.218721 -0.432546 -3.65481e-21)
(-0.0388578 -0.456043 -1.13331e-19)
(-0.104277 -0.432973 -2.14273e-19)
(0.136867 -0.416759 0)
(0.0539913 -0.437266 0)
(0.271893 -0.323062 -4.39125e-20)
(0.501734 -0.36145 0)
(-0.323956 -0.266419 -7.76957e-20)
(-0.360771 -0.205656 -2.05681e-19)
(-0.263822 -0.370492 2.67353e-20)
(-0.312405 -0.308203 1.48414e-19)
(-0.161377 -0.409018 -2.39207e-19)
(-0.222502 -0.383672 -1.33682e-19)
(-0.0161845 -0.404312 -1.07287e-19)
(-0.094196 -0.381666 -1.02615e-19)
(0.178669 -0.368489 -4.28598e-20)
(0.0820525 -0.378456 -4.6104e-21)
(0.312998 -0.287775 1.59661e-21)
(0.529891 -0.314487 -5.121e-20)
(-0.352545 -0.245145 0)
(-0.396329 -0.193027 -2.11928e-19)
(-0.275827 -0.328788 0)
(-0.330497 -0.276829 -4.67481e-21)
(-0.160176 -0.357798 1.68707e-21)
(-0.228813 -0.334315 -1.19407e-19)
(-0.00124861 -0.349402 -2.79527e-21)
(-0.0894811 -0.328191 -1.15978e-19)
(0.208459 -0.31549 3.97897e-20)
(0.0996802 -0.317708 1.50608e-21)
(0.340893 -0.242789 4.60929e-20)
(0.547968 -0.26187 5.11265e-20)
(-0.378206 -0.22362 -2.2856e-19)
(-0.42625 -0.18044 9.82024e-21)
(-0.288134 -0.288562 -1.19687e-19)
(-0.347623 -0.246683 -8.96126e-21)
(-0.163042 -0.305985 -2.37187e-19)
(-0.23754 -0.285285 -1.47143e-20)
(0.0057059 -0.292548 -1.148e-19)
(-0.0904906 -0.273327 -1.05313e-19)
(0.225776 -0.258487 6.26311e-21)
(0.106913 -0.255704 6.11648e-21)
(0.355229 -0.190602 2.16134e-20)
(0.554505 -0.204787 5.4053e-21)
(-0.400104 -0.203826 2.31016e-19)
(-0.450109 -0.17058 2.15179e-19)
(-0.301324 -0.248729 9.5818e-20)
(-0.363811 -0.216321 2.74192e-19)
(-0.170019 -0.25398 1.20187e-19)
(-0.2487 -0.236876 -1.48788e-19)
(0.00473237 -0.234375 1.28614e-20)
(-0.0973109 -0.217655 -5.55779e-20)
(0.230767 -0.198385 2.10953e-20)
(0.104037 -0.192838 -2.42229e-20)
(0.355788 -0.133396 -1.98237e-19)
(0.548973 -0.144571 1.23921e-20)
(-0.418289 -0.184838 2.55314e-19)
(-0.467473 -0.162198 1.3896e-20)
(-0.315326 -0.209244 4.75846e-20)
(-0.379179 -0.185685 -2.00516e-20)
(-0.181058 -0.20209 -3.28004e-19)
(-0.262231 -0.189272 -2.39701e-19)
(-0.00399722 -0.175421 -9.37915e-20)
(-0.109808 -0.161689 1.44806e-19)
(0.22382 -0.136225 -2.39384e-19)
(0.0914603 -0.12964 1.20837e-19)
(0.342718 -0.0730261 -1.7538e-19)
(0.531024 -0.0822106 -2.31077e-19)
(-0.432588 -0.166154 -2.58751e-19)
(-0.478113 -0.154255 4.83792e-20)
(-0.330075 -0.170226 -2.99076e-19)
(-0.393746 -0.154977 -2.80011e-19)
(-0.195991 -0.150622 2.20021e-19)
(-0.277973 -0.142616 -2.44745e-19)
(-0.020163 -0.11627 3.59844e-19)
(-0.127663 -0.105942 -2.05558e-19)
(0.205386 -0.0731069 1.89302e-19)
(0.0697372 -0.0667683 -4.26575e-19)
(0.31649 -0.0112195 4.76087e-19)
(0.500461 -0.0188969 5.19592e-20)
(-0.44326 -0.146315 4.75859e-20)
(-0.481822 -0.145644 2.77726e-20)
(-0.345513 -0.131667 -2.26507e-19)
(-0.407588 -0.124469 1.85266e-20)
(-0.214524 -0.0998929 -6.71617e-19)
(-0.295714 -0.0970491 2.28624e-19)
(-0.0432571 -0.0575578 -9.85746e-19)
(-0.150386 -0.0509585 -2.9498e-20)
(0.176111 -0.0101668 -1.64214e-19)
(0.0396038 -0.00498261 2.23861e-19)
(0.277881 0.0503985 4.9326e-20)
(0.457396 0.0439867 5.5271e-19)
(-0.449112 -0.1284 0)
(-0.4793 -0.135535 0)
(-0.36122 -0.0942996 4.66368e-19)
(-0.420147 -0.0942466 5.5943e-19)
(-0.236203 -0.0502624 8.79427e-19)
(-0.315028 -0.0526552 9.08993e-19)
(-0.0725538 4.47829e-05 1.17224e-18)
(-0.177322 0.00268365 3.88763e-19)
(0.13668 0.051945 4.42107e-19)
(0.00223677 0.0549981 4.26348e-19)
(0.227753 0.110237 2.01064e-20)
(0.402285 0.104987 -4.69695e-20)
(-0.451382 -0.108695 5.27156e-19)
(-0.470749 -0.123068 -8.41032e-19)
(-0.376921 -0.0576499 9.89003e-19)
(-0.431322 -0.0644792 -4.87352e-19)
(-0.260491 -0.00205919 4.36152e-19)
(-0.335554 -0.00958109 -2.64308e-20)
(-0.107226 0.0556858 -3.57968e-19)
(-0.207725 0.0543889 4.97778e-20)
(0.0887956 0.110405 1.51722e-20)
(-0.0416522 0.112131 -3.24847e-19)
(0.167678 0.166766 7.79355e-20)
(0.33642 0.161768 -3.12866e-19)
(-0.449806 -0.0877528 -1.87574e-18)
(-0.45664 -0.107689 2.06591e-21)
(-0.392324 -0.0218569 -1.52019e-18)
(-0.440821 -0.0351579 -4.88517e-19)
(-0.286778 0.0443319 -4.15202e-19)
(-0.356868 0.0319948 -9.13323e-19)
(-0.146252 0.10867 9.39385e-20)
(-0.240705 0.103558 -3.36025e-19)
(0.0334065 0.165884 -2.68884e-19)
(-0.0903083 0.165621 4.34477e-20)
(0.100061 0.218767 -2.61667e-20)
(0.260284 0.215236 -8.42565e-20)
(-0.444525 -0.0653449 1.41625e-18)
(-0.437545 -0.0890126 8.42099e-19)
(-0.407054 0.0129558 1.3782e-19)
(-0.448327 -0.00622987 5.91345e-19)
(-0.314365 0.0885066 -8.53649e-19)
(-0.3785 0.0718865 -4.97071e-20)
(-0.18833 0.158228 -3.96619e-19)
(-0.275265 0.14956 5.32544e-22)
(-0.0273225 0.21657 2.89358e-19)
(-0.142079 0.214571 0)
(0.0267532 0.264846 -6.74109e-20)
(0.176821 0.261583 2.72433e-19)
(-0.435687 -0.0412853 3.16627e-20)
(-0.414069 -0.0668759 -2.63717e-20)
(-0.420702 0.0467245 4.34206e-19)
(-0.453456 0.02235 4.94184e-20)
(-0.342502 0.130059 8.02059e-19)
(-0.399953 0.109906 4.15173e-19)
(-0.232056 0.203597 3.96717e-19)
(-0.310347 0.191757 3.85897e-19)
(-0.0913286 0.261436 -3.53954e-19)
(-0.195125 0.258174 7.91544e-20)
(-0.0496603 0.303921 -4.33662e-19)
(0.0880536 0.300123 -3.78423e-19)
(-0.423398 -0.0155223 -1.63631e-20)
(-0.386672 -0.0415023 -8.39082e-19)
(-0.432797 0.079381 1.64903e-20)
(-0.455763 0.0506555 5.79389e-19)
(-0.370392 0.168591 0)
(-0.420695 0.145855 2.87833e-20)
(-0.275911 0.244044 7.69351e-20)
(-0.344848 0.229512 3.23958e-19)
(-0.156237 0.29954 1.23041e-20)
(-0.247448 0.29566 2.01096e-21)
(-0.126233 0.334977 2.59308e-19)
(-0.0031894 0.329441 1.85847e-19)
(-0.407572 0.0117696 -3.28539e-19)
(-0.355006 -0.0140663 3.23717e-20)
(-0.442799 0.110934 6.16692e-19)
(-0.454962 0.079079 -5.3081e-19)
(-0.397188 0.203719 3.43221e-19)
(-0.440102 0.179485 1.58531e-21)
(-0.318291 0.278838 2.5806e-19)
(-0.377657 0.262172 3.16246e-19)
(-0.219409 0.329935 2.42138e-19)
(-0.296954 0.32625 -3.89244e-19)
(-0.199576 0.357058 6.6662e-20)
(-0.0937128 0.348145 1.18601e-19)
(-0.387435 0.039918 -1.28528e-19)
(-0.318268 0.0139096 8.56337e-19)
(-0.450287 0.141658 -1.16394e-18)
(-0.450605 0.108207 -5.17288e-19)
(-0.422016 0.235012 -3.50606e-20)
(-0.457373 0.210364 -2.7198e-20)
(-0.3576 0.307171 -3.10738e-19)
(-0.407645 0.289054 -4.3795e-19)
(-0.27793 0.351533 -5.76367e-19)
(-0.341569 0.349076 4.77365e-20)
(-0.265624 0.36908 -4.58545e-19)
(-0.1798 0.354722 -2.51416e-19)
(-0.362164 0.068352 5.54112e-19)
(-0.275409 0.0409253 5.11094e-20)
(-0.454725 0.171289 5.9848e-19)
(-0.441693 0.138371 5.94494e-19)
(-0.444019 0.261745 -4.16094e-19)
(-0.471006 0.237694 -2.94226e-20)
(-0.392313 0.328068 -9.33926e-20)
(-0.433378 0.30928 -4.30643e-19)
(-0.328248 0.363186 1.78672e-19)
(-0.379133 0.362781 3.60791e-19)
(-0.319178 0.369218 3.33405e-19)
(-0.256348 0.347313 -2.81413e-19)
(-0.330763 0.0952805 6.68029e-20)
(-0.223521 0.0643226 8.51324e-19)
(-0.455099 0.198246 -5.53756e-21)
(-0.424878 0.168591 -6.00075e-19)
(-0.462242 0.282089 -3.04166e-20)
(-0.477657 0.259991 -2.94226e-20)
(-0.420374 0.340136 0)
(-0.451058 0.320564 -5.03904e-20)
(-0.364618 0.363975 5.13245e-19)
(-0.405925 0.363996 4.29301e-20)
(-0.352026 0.35381 2.21098e-19)
(-0.315612 0.324114 6.61678e-19)
(-0.289394 0.115947 2.66353e-19)
(-0.147252 0.0743969 -5.80686e-20)
(-0.446389 0.218156 -6.46922e-19)
(-0.375448 0.186525 7.98605e-20)
(-0.473317 0.293153 -4.8688e-20)
(-0.469005 0.274609 6.56214e-20)
(-0.43444 0.34143 -1.32733e-20)
(-0.448341 0.31556 -1.02785e-19)
(-0.37405 0.351325 -2.25916e-19)
(-0.41214 0.343907 1.31175e-19)
(-0.354154 0.321387 -2.88751e-19)
(-0.346532 0.283535 -1.2552e-19)
(-0.19541 0.126335 -2.86712e-19)
(-0.385266 0.244659 7.75877e-19)
(-0.446312 0.311075 7.66247e-21)
(-0.417493 0.32276 3.19079e-20)
(-0.357536 0.280446 1.58958e-19)
(-0.35983 0.187087 -3.52035e-19)
(0.918016 -0.944655 1.69112e-19)
(0.763956 -0.90142 -2.33219e-19)
(0.734209 -1.11142 1.43583e-19)
(1.1313 -0.818358 3.44069e-20)
(1.14445 -0.834846 3.90044e-20)
(1.01966 -0.882886 1.45248e-20)
(1.21481 -0.690849 2.97838e-20)
(1.24442 -0.728987 -3.68424e-20)
(1.14387 -0.75445 2.63787e-20)
(1.24176 -0.579962 1.66087e-21)
(1.27941 -0.617657 -8.42924e-21)
(1.19662 -0.634967 -4.62968e-20)
(1.24178 -0.485597 -2.58495e-20)
(1.28106 -0.517909 -6.54913e-21)
(1.21157 -0.530218 0)
(1.23086 -0.408193 2.90252e-21)
(1.26718 -0.434453 -3.94028e-20)
(1.20878 -0.444205 8.28676e-21)
(1.21731 -0.34668 3.65973e-23)
(1.24867 -0.366882 8.99969e-21)
(1.19977 -0.375576 5.71759e-20)
(1.20475 -0.29835 -5.13082e-20)
(1.23126 -0.313623 -1.49352e-20)
(1.1901 -0.321813 1.2172e-20)
(1.19385 -0.260078 2.25549e-20)
(1.21644 -0.27168 -3.62518e-20)
(1.18141 -0.279524 3.66533e-20)
(1.1841 -0.229109 1.65734e-20)
(1.20381 -0.238158 1.61859e-20)
(1.1736 -0.245605 8.11398e-21)
(1.17486 -0.203339 -2.92644e-20)
(1.19253 -0.210677 3.03533e-20)
(1.16613 -0.217615 5.30056e-21)
(1.16564 -0.181299 1.62342e-20)
(1.18183 -0.187506 -3.67002e-20)
(1.15851 -0.193828 3.46267e-20)
(1.15616 -0.162005 4.22898e-20)
(1.17125 -0.167484 5.17836e-20)
(1.15049 -0.173123 5.12112e-20)
(1.14625 -0.144775 -3.59488e-20)
(1.16051 -0.149814 3.63901e-20)
(1.14192 -0.154729 -3.07917e-21)
(1.13578 -0.129112 -8.82693e-20)
(1.14942 -0.133924 -2.88444e-20)
(1.13272 -0.138091 -3.65158e-20)
(1.12464 -0.114642 -1.27877e-21)
(1.13782 -0.119388 -4.63212e-20)
(1.12279 -0.122793 2.52285e-20)
(1.11272 -0.101073 2.45921e-20)
(1.12557 -0.105882 2.44151e-20)
(1.11207 -0.108515 -5.11785e-20)
(1.09992 -0.088179 0)
(1.11256 -0.0931587 0)
(1.10045 -0.0950179 0)
(1.08613 -0.075786 -4.2173e-20)
(1.09864 -0.0810146 0)
(1.08786 -0.0821036 0)
(1.07125 -0.0637631 4.18766e-20)
(1.08374 -0.0691802 -4.24562e-20)
(1.07428 -0.0695124 -2.01778e-20)
(1.05513 -0.0520145 3.98687e-20)
(1.0678 -0.0573396 9.19438e-20)
(1.0597 -0.0569491 1.37188e-20)
(1.03761 -0.0404733 -4.1002e-20)
(1.05031 -0.0461828 -4.96115e-20)
(1.04364 -0.0451255 -6.34441e-20)
(1.01886 -0.029287 2.09286e-20)
(1.02952 -0.03943 -9.25189e-21)
(1.02422 -0.0376722 2.10301e-20)
(1.00536 -0.0381998 1.21918e-20)
(1.00204 -0.0353823 1.65241e-22)
(1.01089 -0.791455 -2.83107e-19)
(0.809412 -0.715684 2.56469e-20)
(1.23913 -0.760095 -8.05714e-20)
(1.22776 -0.755504 -1.62671e-19)
(1.30448 -0.657967 -8.29966e-20)
(1.3313 -0.678859 -3.40874e-20)
(1.31703 -0.557541 -1.66707e-20)
(1.35637 -0.582858 -1.00628e-20)
(1.30545 -0.468619 -1.74617e-20)
(1.34765 -0.493005 -6.05669e-21)
(1.28428 -0.394726 -3.18734e-20)
(1.32356 -0.415097 -5.66455e-21)
(1.26221 -0.335021 -6.55426e-21)
(1.29642 -0.350904 -1.92258e-20)
(1.24272 -0.287745 2.10219e-22)
(1.27159 -0.299676 3.19008e-20)
(1.22629 -0.25027 -4.2609e-20)
(1.25072 -0.259119 -2.15469e-20)
(1.21219 -0.220056 3.01702e-20)
(1.23329 -0.226723 -2.98892e-20)
(1.19949 -0.195077 2.34151e-20)
(1.2182 -0.200282 3.91486e-20)
(1.18746 -0.173872 -1.99276e-21)
(1.20446 -0.178135 -4.76958e-20)
(1.17563 -0.15544 4.5907e-20)
(1.19137 -0.159131 1.53783e-20)
(1.16371 -0.139086 4.39397e-20)
(1.17852 -0.142472 -9.98411e-22)
(1.15149 -0.124305 1.31411e-20)
(1.16562 -0.127585 6.10045e-20)
(1.1388 -0.110719 -2.11636e-20)
(1.15243 -0.114044 -2.10044e-20)
(1.12547 -0.0980357 0)
(1.13878 -0.101529 8.51668e-21)
(1.11135 -0.086023 0)
(1.12448 -0.0897919 0)
(1.09631 -0.0744999 0)
(1.10936 -0.078628 8.25725e-21)
(1.08016 -0.0633257 8.81741e-21)
(1.09328 -0.0677642 -8.10871e-21)
(1.06272 -0.0523917 1.31543e-22)
(1.07611 -0.0568695 7.90511e-21)
(1.0437 -0.0416139 -1.81018e-20)
(1.05733 -0.0465885 -7.91902e-21)
(1.02293 -0.0310342 -1.8112e-20)
(1.03531 -0.0406577 -8.32505e-21)
(1.00927 -0.040663 1.25092e-22)
(1.04763 -0.668349 5.99414e-20)
(0.836441 -0.576477 2.28079e-19)
(1.31767 -0.681161 -9.91226e-20)
(1.2853 -0.66645 -1.96287e-20)
(1.38138 -0.606608 4.24625e-20)
(1.40123 -0.613416 2.80301e-20)
(1.38574 -0.521172 1.92224e-21)
(1.42348 -0.534672 -2.43513e-21)
(1.36511 -0.441587 5.54298e-21)
(1.40807 -0.457065 1.52604e-20)
(1.33533 -0.372974 5.6857e-21)
(1.37642 -0.38705 8.01599e-21)
(1.3055 -0.316885 1.9443e-20)
(1.34156 -0.328013 -5.0975e-21)
(1.27944 -0.271924 9.87077e-21)
(1.31007 -0.280196 1.26915e-20)
(1.25765 -0.236138 -8.4862e-21)
(1.28348 -0.241991 -4.58051e-21)
(1.23929 -0.207311 -2.10696e-20)
(1.26144 -0.21143 -1.09497e-20)
(1.22319 -0.18359 -3.09441e-20)
(1.24268 -0.186541 -1.41945e-20)
(1.2084 -0.163583 -3.06789e-20)
(1.22598 -0.165804 -1.08547e-20)
(1.19431 -0.146314 -3.12193e-20)
(1.21049 -0.148127 -1.29528e-20)
(1.18048 -0.131094 1.56863e-20)
(1.19564 -0.132735 -1.13092e-20)
(1.16662 -0.117428 2.7489e-20)
(1.18104 -0.119073 1.84313e-20)
(1.15248 -0.104943 8.45211e-21)
(1.16639 -0.106731 -1.63277e-20)
(1.13786 -0.0933511 8.57843e-21)
(1.15145 -0.0953968 3.16505e-20)
(1.12256 -0.0824236 8.19988e-21)
(1.13599 -0.0848336 -6.94461e-21)
(1.1064 -0.0719769 2.57711e-22)
(1.11981 -0.0748417 -3.1047e-20)
(1.08915 -0.0618629 -9.06405e-21)
(1.10271 -0.0651542 3.0579e-20)
(1.07054 -0.0519601 -3.77828e-23)
(1.08449 -0.0554299 -2.38873e-20)
(1.05016 -0.042166 1.75988e-21)
(1.06461 -0.046235 -2.95073e-20)
(1.02745 -0.0324535 9.74093e-21)
(1.0415 -0.0412213 4.00439e-20)
(1.01373 -0.0426565 8.90971e-21)
(1.07301 -0.561576 1.31811e-19)
(0.85049 -0.46721 2.62385e-20)
(1.37131 -0.595249 9.64015e-20)
(1.32174 -0.572555 3.81068e-20)
(1.44326 -0.543524 -1.629e-20)
(1.45471 -0.538689 3.27e-21)
(1.44524 -0.47383 7.98439e-21)
(1.47919 -0.47679 -1.74735e-20)
(1.41899 -0.405034 1.6068e-20)
(1.46075 -0.412217 1.33055e-20)
(1.38248 -0.34386 -1.87665e-21)
(1.42389 -0.351399 2.59987e-21)
(1.34604 -0.292539 -1.03989e-20)
(1.38313 -0.298892 -4.29096e-21)
(1.31402 -0.251149 -1.9073e-21)
(1.34563 -0.255566 -4.19193e-21)
(1.28726 -0.217901 -7.55981e-21)
(1.314 -0.220622 5.96983e-21)
(1.26486 -0.19105 -4.27158e-21)
(1.28773 -0.192536 -4.9512e-21)
(1.24551 -0.16902 5.8621e-21)
(1.2655 -0.169657 -2.23708e-22)
(1.22812 -0.150544 6.89085e-21)
(1.24603 -0.150679 5.99965e-21)
(1.21189 -0.1347 7.01639e-21)
(1.2283 -0.134593 7.19171e-22)
(1.19627 -0.120837 -8.69593e-21)
(1.21159 -0.120681 -6.08327e-21)
(1.18089 -0.108478 -2.50368e-20)
(1.19544 -0.108421 -8.76907e-21)
(1.16543 -0.0972712 6.58992e-21)
(1.17945 -0.0974292 -1.63277e-20)
(1.14965 -0.0869426 1.64738e-20)
(1.16335 -0.0874167 3.33648e-20)
(1.13332 -0.0772757 -4.58902e-20)
(1.14687 -0.078166 -9.4477e-21)
(1.11619 -0.0680931 -1.11065e-21)
(1.12977 -0.0694961 -3.92427e-20)
(1.09801 -0.0592458 1.52359e-20)
(1.11181 -0.0611643 5.22915e-20)
(1.07844 -0.0505989 -5.33046e-20)
(1.09273 -0.0528353 -3.94069e-20)
(1.05689 -0.0420217 -2.89243e-21)
(1.07198 -0.0449482 -2.32135e-20)
(1.03237 -0.0334476 3.93599e-20)
(1.048 -0.0408846 5.35707e-20)
(1.01871 -0.0439859 -1.41091e-20)
(1.09018 -0.464844 -6.77501e-20)
(0.856337 -0.377288 0)
(1.40621 -0.50642 -5.42952e-20)
(1.33978 -0.477032 3.89068e-20)
(1.49071 -0.472815 1.98248e-21)
(1.49242 -0.458151 1.69272e-20)
(1.49448 -0.418256 -1.52899e-20)
(1.5228 -0.411898 -1.50384e-20)
(1.46561 -0.360948 0)
(1.50459 -0.36034 -3.7242e-21)
(1.42451 -0.308298 2.07623e-21)
(1.46488 -0.309416 3.41972e-21)
(1.38279 -0.263176 1.33838e-21)
(1.41987 -0.264316 2.10555e-21)
(1.34572 -0.22595 2.9991e-21)
(1.3778 -0.226416 9.62902e-22)
(1.31454 -0.195861 7.58811e-21)
(1.34175 -0.195455 4.19713e-21)
(1.28844 -0.171542 -1.03579e-21)
(1.31165 -0.170376 4.22764e-21)
(1.2661 -0.151594 2.80567e-23)
(1.28631 -0.149922 -6.12575e-21)
(1.24629 -0.134929 -1.24777e-22)
(1.26431 -0.132995 8.03895e-21)
(1.22809 -0.120727 -1.22807e-20)
(1.24453 -0.118716 -9.57543e-21)
(1.21085 -0.108386 -6.134e-21)
(1.22615 -0.106439 -3.81621e-21)
(1.19409 -0.0974705 0)
(1.2086 -0.0956949 -1.18861e-21)
(1.17746 -0.0876572 1.00947e-20)
(1.19145 -0.0861364 2.9438e-21)
(1.16066 -0.0787001 7.71613e-21)
(1.17433 -0.0775064 4.18207e-21)
(1.14342 -0.0704074 -2.5665e-21)
(1.15696 -0.0696168 6.6168e-22)
(1.12546 -0.0626245 1.35808e-20)
(1.13905 -0.0623209 0)
(1.10651 -0.0552205 -3.36862e-21)
(1.12034 -0.0554318 1.3672e-20)
(1.08618 -0.0480647 -9.50783e-21)
(1.10053 -0.0486644 -1.3302e-20)
(1.06372 -0.0409845 2.15309e-20)
(1.07913 -0.042284 7.13862e-21)
(1.0376 -0.0338257 2.95998e-20)
(1.05466 -0.0390248 1.59609e-20)
(1.02408 -0.0439721 -1.25316e-20)
(1.0965 -0.375743 1.04543e-19)
(0.855168 -0.29859 -3.14949e-21)
(1.42521 -0.416429 1.09354e-19)
(1.34207 -0.382341 7.17754e-20)
(1.52429 -0.397043 0)
(1.5148 -0.374293 0)
(1.53289 -0.356636 -3.66192e-21)
(1.55392 -0.341801 1.76098e-21)
(1.50405 -0.310878 -7.49902e-22)
(1.53888 -0.303409 -5.32519e-21)
(1.46046 -0.267323 3.46732e-21)
(1.4986 -0.262398 3.41972e-21)
(1.41506 -0.229018 1.018e-21)
(1.45116 -0.225259 4.43233e-22)
(1.37397 -0.196884 2.03122e-21)
(1.40575 -0.193411 1.09404e-22)
(1.339 -0.170588 1.00791e-21)
(1.36618 -0.166987 2.02679e-21)
(1.30965 -0.14917 -7.54332e-22)
(1.33288 -0.14538 -5.94696e-22)
(1.28464 -0.131609 1.74612e-21)
(1.3048 -0.127693 1.08626e-22)
(1.26266 -0.116983 -1.40084e-21)
(1.28057 -0.113057 1.89883e-21)
(1.2427 -0.104578 -1.18623e-21)
(1.25899 -0.100746 -3.80767e-21)
(1.22402 -0.0938653 1.10727e-21)
(1.23917 -0.0902084 1.88464e-21)
(1.20607 -0.0844554 1.72238e-21)
(1.22043 -0.081032 -5.48391e-22)
(1.18843 -0.0760639 -2.9788e-21)
(1.20228 -0.0729142 3.47498e-21)
(1.17074 -0.0684812 -2.84347e-21)
(1.18432 -0.0656328 -5.98141e-21)
(1.15271 -0.0615525 3.22681e-21)
(1.1662 -0.0590318 3.20454e-21)
(1.13404 -0.0551637 0)
(1.1476 -0.0530048 0)
(1.11442 -0.0492338 3.15603e-21)
(1.12821 -0.0474424 6.8188e-22)
(1.09346 -0.0437025 3.19601e-21)
(1.10767 -0.04216 2.51471e-21)
(1.07033 -0.0384599 1.51607e-21)
(1.08555 -0.0372847 0)
(1.04313 -0.0331918 3.10232e-21)
(1.06083 -0.0347143 -1.38839e-22)
(1.02984 -0.0406939 5.86259e-22)
(1.09092 -0.291855 -3.66719e-20)
(0.845791 -0.225713 3.33309e-21)
(1.42942 -0.326752 -3.56157e-20)
(1.33034 -0.28979 -4.94229e-20)
(1.54391 -0.318013 1.72824e-21)
(1.52239 -0.289084 7.90416e-21)
(1.55996 -0.290601 3.00829e-22)
(1.57221 -0.268234 9.61042e-21)
(1.53382 -0.256685 -1.62531e-21)
(1.56277 -0.242741 -2.1319e-20)
(1.48973 -0.22213 4.37063e-22)
(1.52472 -0.211731 0)
(1.4422 -0.191095 -3.99264e-22)
(1.47644 -0.182662 4.43233e-22)
(1.39823 -0.164518 -2.90529e-22)
(1.42905 -0.157277 -9.21842e-22)
(1.36027 -0.142449 7.20098e-22)
(1.38693 -0.135808 7.28658e-22)
(1.3282 -0.124334 2.50105e-22)
(1.35108 -0.118032 1.41644e-21)
(1.30089 -0.109429 2.07096e-22)
(1.32074 -0.103386 4.17149e-23)
(1.27704 -0.0970212 -4.8425e-22)
(1.29464 -0.0912369 1.39845e-22)
(1.25559 -0.0865241 -7.46253e-22)
(1.27156 -0.081022 -2.37702e-22)
(1.23571 -0.0774887 2.44269e-22)
(1.25055 -0.0722922 -3.8242e-22)
(1.21678 -0.0695818 1.17156e-21)
(1.23087 -0.0647057 6.35177e-22)
(1.19832 -0.0625583 5.35207e-22)
(1.21197 -0.0580082 -1.39346e-21)
(1.17994 -0.0562429 0)
(1.19339 -0.0520166 1.82652e-21)
(1.16129 -0.0505162 0)
(1.17474 -0.0466098 0)
(1.14202 -0.0453055 6.77332e-22)
(1.15564 -0.0417194 1.0208e-21)
(1.12177 -0.0405809 1.79551e-23)
(1.13572 -0.0372911 6.8188e-22)
(1.10007 -0.0363858 -6.65774e-22)
(1.11448 -0.033244 -6.61688e-22)
(1.07613 -0.0329137 -1.49007e-21)
(1.09122 -0.0298626 -2.51608e-21)
(1.04886 -0.0303121 -3.04174e-21)
(1.06505 -0.0290002 -2.44345e-22)
(1.03711 -0.034523 -1.54299e-21)
(1.07414 -0.211316 -8.68554e-21)
(0.827085 -0.155818 -8.21479e-21)
(1.41955 -0.238495 -4.55034e-21)
(1.30529 -0.200055 -1.45377e-20)
(1.5498 -0.237673 1.57546e-20)
(1.51546 -0.204018 7.90416e-21)
(1.57515 -0.221543 -1.12956e-20)
(1.57775 -0.193502 7.84943e-21)
(1.55421 -0.199392 -2.00176e-20)
(1.5755 -0.178822 -7.01663e-21)
(1.51195 -0.173819 0)
(1.54279 -0.158541 -1.8967e-20)
(1.46377 -0.150253 0)
(1.4953 -0.137446 5.39904e-21)
(1.41812 -0.129556 0)
(1.4473 -0.118748 -4.99898e-21)
(1.37803 -0.112053 1.46296e-21)
(1.40368 -0.102527 0)
(1.34384 -0.0975182 1.19689e-21)
(1.36601 -0.0888585 -3.99004e-21)
(1.31468 -0.0854825 -8.96923e-23)
(1.33395 -0.0774739 1.23324e-21)
(1.28932 -0.0754372 3.98131e-22)
(1.30638 -0.0679741 -1.14896e-21)
(1.26666 -0.0669348 1.17321e-22)
(1.28213 -0.0599648 -2.05911e-23)
(1.24585 -0.0596187 0)
(1.26022 -0.0531134 0)
(1.22621 -0.0532185 -1.90935e-21)
(1.23988 -0.0471611 0)
(1.2072 -0.0475368 -1.11329e-22)
(1.22049 -0.0419182 9.49951e-22)
(1.18836 -0.0424379 1.83976e-21)
(1.20154 -0.0372573 -8.95558e-22)
(1.16929 -0.0378421 1.01371e-21)
(1.1826 -0.0331101 1.50247e-21)
(1.14956 -0.0337276 1.02761e-21)
(1.16322 -0.0294563 5.46409e-21)
(1.12868 -0.0301372 0)
(1.14292 -0.0262779 -3.6857e-21)
(1.10604 -0.0271674 -2.50054e-21)
(1.12113 -0.0235645 0)
(1.081 -0.0248749 -2.17866e-21)
(1.09723 -0.0218605 6.01393e-21)
(1.05311 -0.023176 1.26187e-21)
(1.07074 -0.0233223 -3.65e-21)
(1.04097 -0.0284223 -1.79338e-21)
(1.04616 -0.133287 -1.50497e-20)
(0.79813 -0.0876129 1.47175e-20)
(1.39599 -0.152455 0)
(1.26709 -0.1137 -3.82654e-20)
(1.54216 -0.157632 0)
(1.49401 -0.120331 3.38352e-20)
(1.57821 -0.151181 1.2475e-20)
(1.57064 -0.119004 -1.82739e-20)
(1.56459 -0.139532 -5.7989e-21)
(1.57702 -0.113281 8.71077e-20)
(1.52671 -0.123369 -1.39072e-20)
(1.55184 -0.103508 -1.735e-20)
(1.47944 -0.107303 1.06299e-21)
(1.50738 -0.0905115 -7.4391e-21)
(1.43333 -0.0926698 -5.05859e-21)
(1.46019 -0.078536 -3.40022e-20)
(1.39202 -0.0799742 -5.44578e-21)
(1.41615 -0.0677505 -6.45989e-21)
(1.3564 -0.0692393 -4.04616e-21)
(1.37749 -0.0583966 -1.52584e-21)
(1.32587 -0.0602483 2.71056e-22)
(1.3443 -0.0504526 6.28902e-21)
(1.29938 -0.0526952 -1.55886e-21)
(1.3157 -0.0437419 -9.93098e-21)
(1.27585 -0.0462813 -1.18455e-22)
(1.29063 -0.0380428 8.1213e-22)
(1.25439 -0.0407584 0)
(1.26811 -0.0331515 -1.33067e-21)
(1.23428 -0.0359405 2.85176e-21)
(1.24734 -0.0289091 -2.89016e-22)
(1.21494 -0.0317022 1.69873e-22)
(1.22766 -0.0252082 -1.00046e-21)
(1.19587 -0.0279749 -1.25024e-21)
(1.20852 -0.0219945 -8.13319e-22)
(1.17659 -0.024745 5.95979e-21)
(1.18941 -0.0192668 7.82074e-21)
(1.1566 -0.0220516 8.29359e-22)
(1.16983 -0.0170606 -2.58607e-21)
(1.13535 -0.0199803 -3.70934e-21)
(1.14924 -0.0153963 -3.6857e-21)
(1.11222 -0.0186389 8.47733e-21)
(1.12705 -0.0143001 6.69897e-21)
(1.08655 -0.0181208 7.64866e-21)
(1.10268 -0.0143636 2.09768e-21)
(1.05772 -0.0185192 -6.89361e-21)
(1.07576 -0.0175604 -3.8137e-21)
(1.04541 -0.0232266 -3.01572e-21)
(1.00648 -0.057751 -7.22803e-21)
(0.758109 -0.0208452 2.94149e-20)
(1.35875 -0.0693549 2.94154e-21)
(1.21571 -0.0313793 -7.68806e-20)
(1.52076 -0.0788769 1.65303e-20)
(1.45801 -0.0392331 2.17885e-19)
(1.56934 -0.0811257 5.46564e-20)
(1.55052 -0.045619 5.44326e-21)
(1.56479 -0.0784706 7.70953e-20)
(1.56757 -0.048205 5.03006e-20)
(1.53325 -0.0717071 -1.20829e-20)
(1.55102 -0.0473396 1.56792e-21)
(1.48879 -0.062958 -4.16337e-20)
(1.51238 -0.0427094 7.38912e-20)
(1.44355 -0.0545093 -3.6389e-20)
(1.46736 -0.0373534 -3.3444e-20)
(1.40204 -0.046787 -2.5303e-21)
(1.42409 -0.0320869 3.74307e-20)
(1.36571 -0.0400191 8.7938e-21)
(1.38533 -0.0271858 -8.50595e-21)
(1.33437 -0.0342177 -3.32546e-21)
(1.35165 -0.0228193 4.75468e-21)
(1.30715 -0.029273 -7.65956e-21)
(1.32251 -0.0190149 -4.48581e-21)
(1.28306 -0.0250409 -2.78759e-22)
(1.29699 -0.0157216 9.29554e-22)
(1.2612 -0.0213944 -1.69012e-21)
(1.27414 -0.0128713 -6.29856e-22)
(1.24084 -0.0182453 -4.13559e-21)
(1.25317 -0.0104142 -2.89016e-22)
(1.22134 -0.0155518 -1.96795e-21)
(1.23338 -0.00833342 -3.87505e-21)
(1.20215 -0.013318 8.23331e-21)
(1.21418 -0.00665064 4.57992e-22)
(1.18274 -0.0115895 -5.38811e-22)
(1.19501 -0.00542498 3.04941e-21)
(1.16256 -0.0104459 -7.06716e-21)
(1.17534 -0.00473478 1.60167e-21)
(1.14106 -0.00998747 6.65601e-21)
(1.15462 -0.00462673 -4.47967e-21)
(1.11763 -0.0103172 -1.27076e-22)
(1.13225 -0.00514623 4.43193e-21)
(1.09163 -0.0115333 -5.13177e-21)
(1.10771 -0.00685286 5.23447e-21)
(1.06234 -0.0137533 1.65132e-22)
(1.08069 -0.0114911 -1.31886e-20)
(1.0502 -0.0182474 -6.48432e-22)
(0.954602 0.0147821 -3.76895e-20)
(0.706433 0.044003 5.75174e-20)
(1.30775 0.00989192 1.48873e-19)
(1.15115 0.0460584 -3.86152e-20)
(1.48551 -0.00278016 2.08613e-19)
(1.40733 0.0379875 1.16104e-19)
(1.5485 -0.0125411 5.78195e-22)
(1.51707 0.0253501 -1.51095e-19)
(1.55427 -0.0176065 -2.44419e-20)
(1.54729 0.0151018 1.09699e-20)
(1.53098 -0.0195921 8.57263e-20)
(1.53988 0.00872599 -4.42309e-20)
(1.49159 -0.0180098 8.50693e-20)
(1.50967 0.00532701 5.58833e-20)
(1.4485 -0.01575 3.90982e-20)
(1.46846 0.0040886 1.94619e-20)
(1.40786 -0.0130658 3.29347e-20)
(1.42725 0.0038535 2.78932e-20)
(1.37163 -0.0103718 -1.26834e-20)
(1.38936 0.00424505 -1.25525e-20)
(1.34007 -0.00787119 4.06824e-21)
(1.35591 0.00494492 0)
(1.31256 -0.00563347 4.14665e-21)
(1.32675 0.00575221 1.42081e-20)
(1.28824 -0.00366748 7.69337e-22)
(1.30115 0.00655919 -9.45085e-21)
(1.26625 -0.00197114 7.82625e-22)
(1.27829 0.00729992 -2.66224e-21)
(1.24583 -0.000558774 0)
(1.25735 0.00791381 4.43726e-21)
(1.22633 0.000528257 -1.50138e-21)
(1.23763 0.00832784 -6.5218e-22)
(1.20714 0.00122124 -4.73791e-21)
(1.21851 0.0084505 -3.2906e-21)
(1.18772 0.00142977 5.27164e-21)
(1.19944 0.00817336 -1.57034e-21)
(1.16752 0.00104998 4.1702e-21)
(1.17985 0.00738783 8.622e-21)
(1.14598 -2.72195e-05 -6.7609e-21)
(1.1592 0.00602566 -4.47967e-21)
(1.12252 -0.00191433 9.3137e-21)
(1.13692 0.00401576 -8.47708e-21)
(1.09648 -0.00474219 4.17426e-21)
(1.11251 0.000825278 1.03229e-20)
(1.06713 -0.00869444 -1.41024e-20)
(1.08567 -0.00513264 -5.41021e-21)
(1.05529 -0.0131841 3.0337e-21)
(0.890271 0.0834355 5.88963e-20)
(0.642847 0.106021 5.35207e-19)
(1.2429 0.0841619 -6.60153e-20)
(1.07345 0.117602 -1.2021e-19)
(1.4362 0.0693944 -2.44171e-19)
(1.34194 0.110008 -1.85263e-19)
(1.51542 0.0533304 -1.4289e-19)
(1.46992 0.0925823 -3.57508e-19)
(1.53316 0.0414384 -7.98031e-21)
(1.51575 0.0760067 -4.4248e-22)
(1.51946 0.0323324 -7.54706e-20)
(1.51898 0.0628903 6.6413e-23)
(1.48723 0.0268078 -7.97947e-21)
(1.49834 0.0528789 -9.72716e-20)
(1.44786 0.022971 8.09792e-21)
(1.46305 0.0450644 -2.18331e-22)
(1.40927 0.0206337 -1.63395e-20)
(1.42532 0.0394626 -6.88805e-20)
(1.37403 0.019208 0)
(1.38937 0.0353806 -8.54569e-21)
(1.34288 0.0183356 1.00004e-20)
(1.35694 0.0323823 2.20525e-20)
(1.31557 0.0177916 1.20903e-21)
(1.32833 0.0301357 1.00995e-20)
(1.29138 0.0174251 -1.2942e-20)
(1.3031 0.0283982 -1.96642e-20)
(1.26953 0.0171175 8.04967e-22)
(1.28054 0.0269812 -5.23302e-21)
(1.24927 0.0167556 3.8988e-21)
(1.25989 0.0257202 -3.5996e-22)
(1.22993 0.016221 -2.4214e-21)
(1.24046 0.0244586 1.22225e-21)
(1.21092 0.0153895 -1.10159e-22)
(1.22163 0.023043 -2.64852e-21)
(1.19168 0.0141356 1.6891e-21)
(1.20283 0.0213235 2.94597e-21)
(1.17166 0.0123344 0)
(1.18354 0.0191653 0)
(1.15033 0.00986006 -6.19317e-21)
(1.16321 0.0164739 0)
(1.12711 0.0065671 -6.89067e-21)
(1.14127 0.01314 2.79376e-22)
(1.10133 0.00226633 1.57624e-21)
(1.11725 0.00863558 -1.5157e-20)
(1.07219 -0.00331704 1.16099e-20)
(1.09083 0.00146272 2.00224e-20)
(1.06079 -0.00793743 2.47157e-21)
(0.81354 0.14716 3.6569e-19)
(0.567523 0.164025 -4.61093e-19)
(1.16424 0.152236 -2.25317e-19)
(0.982863 0.18212 -3.60086e-21)
(1.37266 0.136426 -3.03345e-19)
(1.26199 0.175498 5.81635e-20)
(1.4696 0.115802 -2.21123e-19)
(1.409 0.15489 -8.11161e-21)
(1.5015 0.0975134 7.87909e-21)
(1.47199 0.133404 2.07584e-20)
(1.49857 0.0825459 -2.00886e-20)
(1.48833 0.114337 -9.78111e-20)
(1.47506 0.0705565 -9.06388e-20)
(1.47808 0.0986311 -6.63284e-20)
(1.44123 0.0609797 -7.62566e-20)
(1.45067 0.0848615 -2.38798e-20)
(1.40599 0.0537569 -6.25919e-20)
(1.41795 0.0741647 2.18333e-20)
(1.37271 0.0482446 1.21079e-20)
(1.3851 0.0657362 -8.54569e-21)
(1.34271 0.0439776 2.22689e-20)
(1.35458 0.0590693 2.20525e-20)
(1.31611 0.0406092 -1.01186e-20)
(1.32718 0.0537509 0)
(1.29245 0.0378686 -1.20819e-20)
(1.3028 0.0494376 8.62349e-24)
(1.27105 0.0355297 -6.43139e-21)
(1.28091 0.0458388 -1.41062e-21)
(1.25121 0.0333899 -3.03165e-21)
(1.26085 0.0426991 1.3055e-21)
(1.23227 0.0312616 9.67727e-22)
(1.24197 0.0397882 -4.25107e-22)
(1.21365 0.0289719 4.22511e-22)
(1.22365 0.0368974 -8.7077e-22)