/*--------------------------------*- C++ -*----------------------------------*  =========                 |
  \      /  F ield         | OpenFOAM: The Open Source CFD Toolbox
   \    /   O peration     | Website:  https://openfoam.org
    \  /    A nd           | Version:  11
     \/     M anipulation  |
\*---------------------------------------------------------------------------*/
FoamFile
{
    format      ascii;
    class       volScalarField;
    object      U;
}
// * * * * * * * * * * * * * * * * * * * * * * * * * * * * * * * * * * * * * //

dimensions      [0 1 -1 0 0 0 0];

internalField   nonuniform List<scalar> 
2880
( 
0.09573342326741764
0.18922005638882503
0.25108293074276394
0.24518334161473856
0.35629288751033367
0.5332801567324155
0.12658236619427451
0.2091937291546656
0.2693919704909797
0.2644231733333972
0.353803264608844
0.5568306989325388
0.13744251364024435
0.2053159026908974
0.26254196397803653
0.27690353566497183
0.39382153467075887
0.6617411605976127
0.14928681326119994
0.20893623288205226
0.25440503856646113
0.29321803082763787
0.46542268961886046
0.7465572841707644
0.16316927735397888
0.208772977771008
0.25840061752509413
0.3227438336104292
0.5280239664465252
0.7947911400811081
0.18168363787966363
0.21005056312253612
0.2574943274844352
0.355154588689373
0.5773459564454775
0.8406492980481244
0.19180503431632
0.21815068845105162
0.26626944498245964
0.3879844285864656
0.6236463477844714
0.8927240606184641
0.20340025106214218
0.22138219391363506
0.27520869268029774
0.4143727006633764
0.6503734413348082
0.8839215315625665
0.21569383028743772
0.22543388906626805
0.2786592962698993
0.4326550470039292
0.6865137033062965
0.9456176908045923
0.22280114171759696
0.2272996591714606
0.28002988831441344
0.45502034086888354
0.6921079945198508
0.9568868213411366
0.23340601564480115
0.23172599032112925
0.28917923369518606
0.4701133241916864
0.6864349448143592
0.9339793518137761
0.2329767929234247
0.23075388921151627
0.3062250078421103
0.4530614664047774
0.6929110766426352
0.9369767730220306
0.22550791960941186
0.24055553567224056
0.30757581516910143
0.4661766848280083
0.6854875174248177
0.8724028502064742
0.22913107061276686
0.23880657125555182
0.30812606374330587
0.47681897281466895
0.6907327712645692
0.8849471303552314
0.22478121808445434
0.23813963047586537
0.3136353677849122
0.4585667514171811
0.6576140182392558
0.8560692468629121
0.22604123817232924
0.237933069772531
0.31264065553341114
0.4448096308955849
0.62370718879793
0.8453424314911064
0.21930776421647785
0.24016447479039585
0.31292225786271477
0.4411547450634852
0.6083536957252706
0.8282367937744963
0.2115924810309675
0.24699287422450025
0.3061113537444001
0.4309667302181504
0.6000401261836394
0.7784913793829411
0.18971574141920516
0.24420057371112497
0.3137018287284428
0.4069522920591246
0.5730906595658677
0.748939636942407
0.18064538282953221
0.24649986291243758
0.3123288165663057
0.3959469244934793
0.5414822222557856
0.7075889311108948
0.1633376057363721
0.24093011390162908
0.3056486365037706
0.383051889133466
0.5061372042834545
0.6666728112411173
0.1448568946436303
0.2352634851608646
0.30695134811523767
0.3749936207129581
0.4791101221016012
0.6262785402375461
0.1278877385297316
0.22132093326666777
0.30780511892898615
0.3653903590415297
0.4592877676634368
0.5811680981201771
0.0893186319688829
0.18818149965858672
0.28973933109872435
0.3579469804500685
0.46113745447951593
0.5685446427440941
0.8432553039366285
0.8237325723449072
0.821789890943458
0.7810774759776082
0.8109613852906494
0.8128541749678009
0.8514584739702282
0.8573844283197811
0.8858593652722757
0.9166667781134905
0.9407334553936846
0.9585936165198115
0.9782605702846643
0.9936911033279581
0.9915122365695764
1.001411455364908
1.0036555972311827
1.0087315711451228
1.0002799249992422
1.0089817322629695
1.0020162729633457
1.003993171548426
1.0030274340455507
0.9953083022709505
0.9575312193565175
0.9074232325974718
0.835140497980771
0.7942058127831506
0.8003372992571596
0.8280688462635228
0.8390441339424483
0.8655487525047428
0.8920411222619635
0.9214577934165746
0.957457571627673
0.9769280759254798
0.9892660534099809
0.9955441018714232
1.0070898608533487
1.0009283406001035
1.0112131041213237
1.0097378350140278
1.0079635409553567
1.0075470527105397
1.0020126576279038
0.9997354736726769
0.9953983299568705
0.990176453022159
1.021937139228947
0.9145174372349671
0.8422846721983411
0.8323420416951419
0.8477547577715125
0.8345817816088801
0.8734605107703959
0.8829259603439901
0.9175800026037984
0.9354043634877922
0.9657522264732005
0.9776182110115414
0.9965861828068925
0.999982253732182
1.002431687550271
0.9990159903332428
1.0070450256814065
1.010402117589772
1.0019776126418776
1.0012539293720344
1.0040326505625634
0.9933430595517629
0.9925553493437388
0.9872625063040971
1.103100119254473
1.0022455713253946
0.8895416279214046
0.8702583925792121
0.8507711788849034
0.8113325587004776
0.8556274916200902
0.8719887855548453
0.9101116428945779
0.9536899861436414
0.9745433355046733
0.974718782931147
0.9878387872729519
0.997619983023474
0.998428428741124
0.9956663227288118
1.002282288060849
1.0118325214200263
0.9943357156999026
1.0020223769266898
0.9990439416976151
0.9931072117634081
0.9878314272235683
0.9816269270817097
1.040780460016348
1.0594157400385917
0.9062923885290558
0.8762553756589088
0.8711017045716403
0.8314511655275476
0.8710071519318252
0.896816464537881
0.9242180159995376
0.9485268684982938
0.9813627260956749
0.9757461030406013
0.9945791446147005
0.9963733398696651
1.008589079128328
1.0010382941041691
1.0022760233994188
1.0036650628163886
0.9971101548692469
0.9926778731006017
0.9961447508757703
0.9903927450112806
0.9854854387549722
0.9757294164497933
1.1028695935264756
1.1081165821602583
0.980719455482609
0.886649215580041
0.8809596372014329
0.84608974092024
0.8565905812097917
0.898606078839177
0.9337527556633153
0.9456163289345771
0.9628951218219004
0.9893634306009869
0.9910779161187857
0.9955892843555744
1.0018127410828945
1.003093942835822
1.0038333549158616
1.0004882583919363
1.001658489158274
0.9934728478816711
0.9887026837196812
0.9876571028435558
0.9806484374363059
0.9769940040890739
1.1616153128150695
1.1199129509015977
1.0037697212755379
0.892639379351186
0.8534321905923377
0.8899338410716479
0.9072179026883691
0.8993911625326886
0.9346608228956218
0.9655283751654042
0.9839348075142906
0.9849441253459639
0.9945031237683948
0.9923266637255438
1.0028033674383632
1.0050750517891605
1.0055860894993884
0.9998437445262591
0.9930023025537289
0.9917530048234088
0.9878956288038935
0.9838876460908453
0.9747215000042475
0.9721034307451386
1.1290451909263686
1.1593144616542364
1.0470601728086957
0.9569654528832835
0.893525957163688
0.8888359320053182
0.903330933722081
0.925088572172029
0.9371126730972088
0.9556750410817507
0.968550162680742
0.9807539753088621
0.9834403595178673
0.9917215556007192
0.9982193396635903
0.9967179836062035
1.0040883286408386
0.9919626123419331
0.9896573597805249
0.9879239122747895
0.9840584989995721
0.9852635359423456
0.9761975572561428
0.9691512405198862
1.1186142852762542
1.1790844475058035
1.1247744440604932
1.0434761628577793
0.976762607557534
0.9435054295217842
0.9203717158838927
0.9498727631870294
0.9499953765781108
0.951960349186238
0.9648655548121566
0.9830275135232265
0.9801144135346036
0.9896414370154012
0.9895183305447925
0.9975589343218474
0.988984043019217
0.9902156805895423
0.9943989647552615
0.9896615416617236
0.99021406653754
0.9846802079970877
0.9725648309782933
0.9661685746104809
1.0931057612105244
1.1925533521948861
1.1755245074938712
1.0782226739536613
1.0151103419769585
0.9903446652017264
0.9443535346992605
0.9449972505497231
0.936561594395342
0.9570053803181995
0.97005402815839
0.9855368300722673
0.9839094064009761
0.9944896794565321
0.9987843968893707
0.9888969471533448
0.9976933819279261
0.9887542259983471
0.9914432985489738
0.9898061932218228
0.9866598910422162
0.9818067385741587
0.9733042479175219
0.9669749028366869
1.1240671934522526
1.2470627508103367
1.194066342485696
1.15624996467448
1.0853388798862982
1.027119540275295
1.0178856955132745
0.9892417063952744
0.9680487794367006
0.9840391890421991
0.9691801036340575
0.9745242269486889
0.9817144405433448
0.9803125576459274
0.991495926354861
0.9848318984546305
0.9912602790753544
1.0025256737096193
0.9956215867366119
0.9891845689504721
0.9881661733702174
0.9781506533448969
0.9742872384085325
0.9614300717737629
1.0981134767006147
1.2309277939679366
1.2598477060694266
1.2161636239577776
1.1572945217085437
1.0821402108822977
1.0603616213117755
1.0294560532553967
1.0135499761910804
0.9952587342751135
0.9791988044688694
0.9675334699569026
0.9812744059851319
0.9941746810715716
1.0015407096258075
0.998397898652577
0.9904879923321247
0.993847650625461
0.995082171137279
0.9955089444079777
0.9815318916816639
0.9821122598067528
0.9744294876216094
0.9630695648314506
1.0946012110825967
1.231651361705273
1.2683839067981366
1.2579881464278642
1.1987143929032016
1.1438515545728405
1.108157430024491
1.05960541130288
1.0407698558876508
0.9978948119852967
0.9946578074403813
1.0042008217907707
0.9936317997658388
0.9941064804539412
0.992776470415119
0.998023501196312
1.0023431492505348
1.0006107908230428
0.9907548551247818
1.0022494558510489
0.9928134600275389
0.9834193175989377
0.9783390429764869
0.9678253517270607
1.1308675452141275
1.2578783038458246
1.3136723065744755
1.3132976195163142
1.274551195094899
1.224709899394999
1.1824312825826435
1.1235790011175468
1.0646606127601168
1.050993529261108
1.0405063175435603
1.030698583670537
1.0113968227929302
1.016488471518518
1.0081457584592406
1.0067964018838549
1.0104339382790457
1.0063180133958822
1.004683268180107
1.0008668052379384
0.9933961559874812
0.9898105233951641
0.9763030280467715
0.9736821013232883
1.0789930440950881
1.3234218686333028
1.379127142324395
1.3928132331215841
1.3542079366661202
1.3099394038595666
1.235296890080551
1.1502504581429653
1.1284193160067755
1.0855426379828403
1.0495125116406092
1.0639098510034488
1.0453500517567225
1.0399256762061777
1.0320734959412534
1.028041473934113
1.0143477974317283
1.0223113490538436
1.0071348922960275
1.0144142503927738
1.0075049254946504
0.9960203980056059
0.9852897680135886
0.9727557923780448
1.03510782453333
1.2630222564176454
1.4027859800594704
1.435509004467973
1.4189276871692704
1.361833457243756
1.29303198754925
1.2398005244724255
1.1919337193270945
1.1492214855505674
1.121997710087697
1.0913503614737579
1.070394485792548
1.0673445219215094
1.0569168816070011
1.0542471092412848
1.0493603357529495
1.0447578167552762
1.0363692202032546
1.0252398195126236
1.014650062802109
1.0078744451174244
0.9868940832436396
0.9770916156717541
1.0049716836586464
1.2205575190909426
1.4050809212435709
1.4830996712755402
1.447289964977025
1.4309963374985188
1.3706055364391736
1.3114133882491186
1.2524328300273369
1.22269622012894
1.1697745959803452
1.144872893893741
1.1258399749965375
1.1077027397981543
1.086006365844133
1.0909955783594687
1.0646618627157807
1.067195472217281
1.0583669111330607
1.0415241415696943
1.03167910584793
1.0165680251661648
0.9986232989893526
0.9830157983000595
1.0190670276462024
1.2098922991253378
1.4108723591548378
1.4725157073673154
1.485440194454453
1.4477263388175197
1.426519398889115
1.3662820046617326
1.3246950279465572
1.272156247490014
1.2374084346865115
1.2030122118452897
1.1860449187397872
1.1511583061312816
1.1463462173814616
1.1261784234615455
1.1199858172093857
1.0953036111651666
1.0902480291931784
1.07764601428228
1.059194117807155
1.0407467973371194
1.014512936488691
0.9923187993920481
0.9876800214097878
1.2576568507371861
1.388335540030253
1.485601773400742
1.481692772433053
1.496761201812404
1.4563569254512638
1.4242727380220594
1.3860382467568262
1.332145531768245
1.3043208488379698
1.275104578750234
1.245144030646791
1.225930729901765
1.184120684047696
1.1832849321849916
1.1658792489579504
1.1427777197130284
1.1251461885667797
1.1149921329134798
1.0944410838743424
1.067088914257389
1.0418557608862005
1.0100369079727278
0.9677322528758459
1.2265751389817814
1.387448509865496
1.4865569001843262
1.4881338439228184
1.4896440060798333
1.4987576135690224
1.4640192310786877
1.456193843685349
1.387568147945507
1.3742495307385179
1.3455036073002744
1.3097430686866034
1.3054669652148427
1.2531118461593185
1.2338340411764035
1.2217238276565263
1.196396617943769
1.1809677603113018
1.1580335456983835
1.134983774368867
1.1131659448878943
1.0811211299144374
1.0408513676619289
0.9793460017353719
1.2303167697122306
1.3985360141305128
1.466321153643177
1.4909979416314876
1.5140422603909764
1.4893738975676674
1.4921067258325202
1.4801936937444993
1.43624048790342
1.4050690117770384
1.3993664973645044
1.3788904311162509
1.3624282249142043
1.327530231095447
1.3126028742801146
1.284174203194087
1.257451196283418
1.2295920568753065
1.2164295725233705
1.187556974255305
1.1512311062516676
1.1151936275343675
1.0853720996283776
0.9729743416857797
1.2240205325618034
1.3826802671570988
1.4491838319904866
1.4966346111637516
1.5091821790467947
1.4963697031320065
1.4880840170667295
1.494649932411089
1.5130908159830696
1.479702651011324
1.453827917880283
1.4174700606638713
1.420264992542714
1.3948300960797817
1.3651220731088913
1.3495047367642596
1.327651162944356
1.3114609051793047
1.279844140002108
1.2529972600218138
1.2088228734983981
1.1800998816461123
1.1402410524333861
1.0121089011114104
1.1966102358089146
1.3399606240521897
1.428081525671046
1.455794673089919
1.4913500710005523
1.5361145566827799
1.5258041315548896
1.5237985697288408
1.517629259952756
1.5019596114796958
1.504936006223734
1.4964853883679805
1.4927997733228415
1.480214001326493
1.4516533543062526
1.4016901650356124
1.3847644375588912
1.3720943552977023
1.333109395524248
1.3005195934200477
1.274906884546139
1.2368149637258519
1.198519929294653
1.0623851024029307
1.2125521916030622
1.3143220571083267
1.3775947232591368
1.4541478589923134
1.4904140502022378
1.5244279072128588
1.535737711595456
1.542761872132215
1.5471417540075139
1.5898288012265769
1.5677826783468982
1.5737507099454757
1.5704192497009353
1.5380550451534627
1.4947241918964185
1.4683603805948984
1.452383592563779
1.454074143548731
1.404851710885536
1.3475917271525955
1.3403910266732126
1.306109910126403
1.252409113710324
0.05791665011383258
0.08937572128113555
0.13234322762021
0.18095059075179326
0.2791524950857952
0.37417469329841635
0.06428439600021536
0.0900615476944568
0.13590852685641652
0.17679018905369598
0.27055583500694946
0.3361357957483008
0.06492144813303839
0.09270289964958027
0.12821411458811713
0.17845334553543826
0.24602484527765084
0.3215652200058654
0.06656999919976694
0.08503231750756214
0.13155717831566516
0.17657797408754883
0.2366412224942081
0.30523036370556994
0.07032087316642335
0.08746977859201566
0.12425648114654263
0.15408208858357894
0.20867859762435015
0.271990891565418
0.0709008491567376
0.08238851130543166
0.11258713872440292
0.15228466349489395
0.19176084712250596
0.25025847371612997
0.07252390863581114
0.08307385496408663
0.1088135211797838
0.13929947579234064
0.16714006940158982
0.21971580967505172
0.0682936773036115
0.07136972492246686
0.09648257834115143
0.1305613300585682
0.15520658155423958
0.21869443367559074
0.06439496476074198
0.07726730432552263
0.09473129673955394
0.11601686076016726
0.16431100534863974
0.19340693691067612
0.06897425516097615
0.07765612282373478
0.09390224921962906
0.11820263206582263
0.1704520872462592
0.19135042120138626
0.06970255273316023
0.06851001555654157
0.09324884157323182
0.11584030041460294
0.15149123267434025
0.18389991013492782
0.06430771358813406
0.08120980823726248
0.0919472447835708
0.1236494976818501
0.166618065103463
0.22336579764878264
0.06228506332569207
0.07112555661324682
0.0939893470735031
0.12884483731897034
0.1795678329974174
0.23339676737076218
0.06441395596186629
0.07002048309681105
0.09461556216376166
0.1404259377787698
0.19097677299788537
0.23412540369451493
0.0670657121272144
0.08147014031768897
0.10234823685798389
0.13593393086930705
0.20931255275559071
0.2696825996574278
0.060466113531299784
0.08656316169681079
0.09947760621754168
0.1498586273211663
0.19780769454923458
0.27217102668573556
0.05771619040580264
0.08356630961395235
0.11056807419757153
0.15553504819249137
0.21204968520630016
0.27697350388741354
0.050247387702847104
0.08765473858842952
0.11838519130054434
0.1527673983712577
0.22097396404767045
0.2885281580118314
0.050550980348515254
0.09364987581162783
0.10983733619886596
0.15145644092576027
0.20831386157252144
0.2876827463901129
0.05043700807925933
0.08072957372704176
0.1073617321119967
0.16012098522351967
0.2256540937591756
0.28779650561932735
0.04184159483982047
0.08200583998431678
0.11669019875941848
0.16005033562419552
0.19351402478996196
0.28682356574404577
0.043275670409624205
0.08044575748188726
0.11200585457159903
0.14942236017470634
0.18475484306767676
0.2738256278692527
0.038104390307327304
0.07407731832387057
0.11293155120851818
0.14535373280494038
0.16359693950458984
0.27438559834465814
0.04241252908833215
0.0753436550708849
0.11142796548728107
0.15106928155615781
0.15833695791484173
0.2836321451614986
0.9297543703254703
1.1669234195747553
1.262698165474017
1.3955154111108898
1.4240476481833717
1.4835063390102432
1.5264078525737725
1.5295480305472695
1.5521089700802322
1.5813527958789575
1.604478113784222
1.6062075807516978
1.6080004697449626
1.5990827554650588
1.6097704112625173
1.558897348571586
1.5140016214154977
1.5326471049215802
1.5073243567205543
1.4585351277392475
1.436194672083801
1.3869465365208462
1.3513129764810905
1.3086287734369502
0.6747891116374388
1.012055424677256
1.1847214779641175
1.304913945100161
1.3856721873783837
1.475531191921036
1.465999611246065
1.5387837751348434
1.5525753136924134
1.5435396164804844
1.6162396815404665
1.6633880121552582
1.607695706833789
1.6302153391851242
1.6147196299487256
1.589619147058976
1.5498722592069392
1.5239485204747563
1.531926404088244
1.4700808140967627
1.4453325077030195
1.4145668748314266
1.4039847244964736
1.3397838871252743
0.5490692076544298
0.8406678927916486
1.0743883238940546
1.211480668550999
1.346763075704732
1.3724978581791274
1.4769638905736193
1.490353788876671
1.555321818450954
1.589124573654841
1.6140249269673839
1.6491899592309034
1.6230396559181313
1.600578829963559
1.6328536773631952
1.593836607812251
1.5732582001014155
1.5369431259332282
1.5255824776888656
1.4579420366984754
1.447802107020716
1.459422893093549
1.394200750852962
1.3522352032801102
0.445787040021066
0.6939380107211038
0.9104539703208175
1.0969291492121487
1.2160544181737678
1.3151522366445936
1.4316010715565346
1.4755131781546376
1.5525910988646523
1.5754374725930214
1.596820405324876
1.6088175584968325
1.613371404527415
1.610459745271216
1.5754892980119568
1.5873604660980962
1.5534185862645056
1.516050963125736
1.4686924399479764
1.4402493716710159
1.4099920417151925
1.4090143644229691
1.3660607074483768
1.3567317437735797
0.37438486715061225
0.5779125348496345
0.7612079119516167
0.9546753211584271
1.127812317814615
1.2385062464996726
1.288936307447968
1.3910689443294846
1.4135042342238233
1.4708540146701226
1.5051647665333294
1.5002069481618223
1.5291410693070926
1.5071482305109543
1.4823264267843643
1.4848224914078783
1.4450144813116013
1.457838652750436
1.4036155787829643
1.3975959714581974
1.3721669634815041
1.3541947508359344
1.342350113918826
1.3037090692832973
0.304202846108759
0.4450385937107326
0.6731839114292048
0.8266635332847517
0.9610481025216657
1.107031451385065
1.1774151338107326
1.285560373195993
1.3495395562836054
1.3321952597570421
1.3824685743987373
1.3814800369604052
1.3565716674549138
1.3938393225413614
1.3691051071434348
1.3781891098419388
1.3622118211371763
1.361943785180006
1.3003056997290798
1.2994245751839615
1.2988554216584778
1.2939294143642546
1.2599928936790357
1.216135470943896
0.3211337535685119
0.4299881244225201
0.5767750775660001
0.6975985697097944
0.8729957740299925
1.0257920222960282
1.0811286534412048
1.1004849172308375
1.1685797819503123
1.1638297469028187
1.2404759392831883
1.2181578493701368
1.239314321513552
1.2073164565534238
1.2373874130257865
1.2230854816709857
1.2490247992206285
1.2176657279655958
1.1841480240926845
1.2199173997548667
1.1857316341519621
1.1603919716565665
1.1536910477918012
1.1341816400846658
0.24882837752376635
0.4007961361081725
0.5326485910336083
0.658619892954224
0.7941649786526118
0.888678452093237
0.9184182612947076
0.9719052113033999
0.948680123618686
1.0056157529461252
1.051539922874103
1.0218313324597046
1.060356310471868
1.08719688824871
1.070898177083984
1.073184217263377
1.0698305012877782
1.0923068020600708
1.0794005605433215
1.0834727213187922
1.0495374056481772
1.0493542604435768
1.0345790365820846
1.023037915638998
0.2686970945558115
0.32862599199328385
0.48784160101051455
0.5972472649742859
0.7031507760951881
0.7614874264727929
0.736317525751247
0.774071399041018
0.8272633684183773
0.8171101953537107
0.845668563488651
0.8693098824779292
0.85828304374742
0.8955139593780296
0.9117119815302996
0.9263812191558979
0.9320532890066665
0.9495641865941141
0.9328887889222414
0.9498344523103687
0.9423807126732849
0.94076623122536
0.9375155154633946
0.9212102398479041
0.2659384615060841
0.3265878659639072
0.46206763398828843
0.576563968357515
0.5906853410563471
0.6016093240792729
0.6149648672533464
0.593433990677398
0.6385363061222218
0.674981157147499
0.7162746290632477
0.7254341377343096
0.72606085225314
0.7593047469159668
0.8136349007533176
0.800215705642553
0.8230313718685289
0.8282858967077262
0.8302942299431291
0.8368410483677187
0.8490794334590676
0.8413249193956607
0.8408009310186791
0.8245852520156385
0.2449601435996249
0.37158796299122526
0.431800238207913
0.48795172168289286
0.4610994662502185
0.4346442331594257
0.4519004053286066
0.44880198200696536
0.5110050455138732
0.5095753998279859
0.5693497707771493
0.5628481009720714
0.6309167395870856
0.627249299544519
0.6131160492368672
0.7070022111035793
0.7040717013572135
0.7210302561595101
0.727922904745917
0.7508876654395118
0.7588070816723973
0.761216793559708
0.7628079662402265
0.7915506770397563
0.26875598597596473
0.37590650777027357
0.4548667280474465
0.4633261273182931
0.40835068970328253
0.31088027875390845
0.34757727379595676
0.3563574043329153
0.37599484797616545
0.42259425131474965
0.4490892418517987
0.4879603398121872
0.5138492660126397
0.5445167321790922
0.5917020746835251
0.5823895430977983
0.6344878865093837
0.6496237869384713
0.6573840415863885
0.6647115240805717
0.6852784013704607
0.7171886443181892
0.7289220123215834
0.7476448835608828
0.2932032014901946
0.40885357031391706
0.41012579421043627
0.3659662452426301
0.3291121014119521
0.23226690841401132
0.28180258803284086
0.24816635623846284
0.280969170076647
0.2956181157732777
0.35287509506345127
0.4229693710817828
0.46743495402421914
0.4845945049740485
0.5132812817120698
0.5139500660876142
0.5581202818081361
0.5911223922554445
0.6178962943156983
0.6377150299347462
0.6742009683629919
0.6821567341391005
0.7024722436497377
0.7296252481790727
0.3012314402473777
0.4275432461996796
0.39748045662220594
0.3409397356863017
0.27071907318805644
0.191823224716982
0.20821636939403054
0.19555836951652095
0.2266436197384315
0.2925663961585221
0.3169006382055535
0.38104220801656286
0.40733679696752223
0.42477680901077386
0.49347356054387403
0.5063975394658851
0.5641145929384777
0.576125591131547
0.6201620963417696
0.5975068362235365
0.644130992355008
0.7001999862241712
0.6931420487782898
0.73090144878898
0.3400126220175448
0.4324065942304635
0.37841274310071676
0.26080082678886496
0.14252965568470843
0.17565679055765204
0.16079475678332456
0.15452968105584874
0.19762877217824415
0.25022201434068303
0.30246863459512263
0.3591023560473777
0.37710652248856014
0.409967652801136
0.4780015437070151
0.5160375274123339
0.5751495316256079
0.5396424407668112
0.6029260768525475
0.6300325984656487
0.671584175932499
0.7041447077698806
0.7238533967032832
0.7524986133652677
0.35156064625851496
0.4083595130610965
0.28816620281728217
0.17601325458784722
0.12821148524537862
0.1278272826472574
0.07763532774668802
0.13351071947482052
0.1732731670060924
0.2438057333683883
0.28226298519368354
0.3334643146468753
0.3790247176192929
0.4375133099979883
0.49173025855769265
0.5378973737198439
0.5365052651388305
0.5845832884393758
0.6407523684668315
0.6625439022215742
0.67949947447668
0.7134481443024864
0.7645882465258078
0.7880312844273225
0.3730350822294767
0.3785920982632164
0.20728371479236035
0.13940288616001628
0.08786732725160651
0.040499544428339807
0.14768498426106713
0.1832404593949326
0.2265966526799552
0.326290217620671
0.3212476278757851
0.37410771679999966
0.43204559344777016
0.5051846668427911
0.5125903027012566
0.5662843884498048
0.5958000810201951
0.6450095096924742
0.6666281812334649
0.7176059338840153
0.742129740110604
0.7614517120072037
0.7980133237573621
0.8202187744506715
0.3821987944754056
0.3714649227772747
0.19664577118961168
0.07850750429799436
0.0304853981868054
0.14048733704097505
0.10268951844204988
0.1607142897014172
0.24921303729434718
0.3128961774615098
0.40113629091502245
0.3950021198154876
0.46660474652918094
0.546759532248599
0.5440870434248346
0.6237393130543035
0.6701694004272185
0.7043227288626119
0.7538695935689832
0.7641060952275991
0.7935407849681472
0.8199760437717878
0.8563660877507921
0.879285343591847
0.36676398688040823
0.307547505014318
0.16277579156121968
0.12225155590393688
0.09282691712909907
0.04486072889310744
0.10745974951693005
0.20271342692077032
0.23281605626909152
0.33390968318650427
0.4371188505520627
0.496977521676129
0.5573902804365918
0.5863950738683665
0.6331250368292229
0.7019990746545157
0.7198773514371553
0.7728842370273642
0.8060019597610677
0.8238566686851467
0.8448423588928948
0.8866153089303089
0.8895111595717848
0.9070250729327844
0.4059827098088393
0.25474281402318344
0.07711438559153272
0.10434724524914274
0.05602832860868279
0.13430710265369583
0.16009804705434894
0.21455179555954507
0.3161692047362198
0.4324106575893806
0.502907861285806
0.5642883086263399
0.6413377646790643
0.6810891383027955
0.7432774423407953
0.7579976485213131
0.8163733401537232
0.8169735524934773
0.8673423218574694
0.8799509270226107
0.8965588289361069
0.9247955928360868
0.9426868466621527
0.9617381309826937
0.40050784088821445
0.19006193975090124
0.0428347379905516
0.0851797039305402
0.1305258367708685
0.1831382444595513
0.27854285960174574
0.39562186606050487
0.4858953740011565
0.5199644713032183
0.6074917103046691
0.6324621117593217
0.7268702383490293
0.7554515487887314
0.7974253123463119
0.8333075588959402
0.8737764048746481
0.8909004668403006
0.9337239733709135
0.9385307693214847
0.9511552694704829
0.9741167892905322
0.9734482804540225
0.9948212115445682
0.34555878080857466
0.12922221896880004
0.1542996351083865
0.14117545208663473
0.1788139932858348
0.2895362927334153
0.32688426453074027
0.4623568830800876
0.5155202048390644
0.623740207040172
0.6451266565654681
0.7511890575269728
0.8029588726437288
0.8524574689516864
0.8909192887907443
0.917483049699956
0.936258625912672
0.9530991834426826
0.9819762372713094
1.0006150853274747
1.0176261992719704
1.0221398232071304
1.0236926309587309
1.0217474584204538
0.23208739583308985
0.15081531262825731
0.07263160438279592
0.23207307768634766
0.22901143197714313
0.3159503858493877
0.453932099684348
0.5199257805749408
0.6392644010371145
0.696440342491834
0.7787597674823028
0.8283207322970169
0.8879801570437259
0.9183313756379894
0.9398767455754069
0.9807883042215396
0.9996320464429702
1.0187520729675086
1.0267702147634505
1.0438834957889023
1.0397795480968055
1.0508756770562986
1.0522520791839627
1.0492469326203173
0.2035034656500061
0.11001245728967968
0.19021829779429
0.19765194577766498
0.31687778607620265
0.46971868459202404
0.5222112053531308
0.642314328171382
0.7296782310537715
0.814005067022097
0.8559226142646551
0.8984310602453937
0.9536603795895967
0.9869257890215879
1.013930824608569
1.031819200403996
1.0481009583288101
1.0690289590572872
1.0732445723995023
1.0778351435760796
1.0776193350133028
1.0784885992904607
1.072099899029867
1.06486204004822
0.09623244142320433
0.2711701628536953
0.434983981208124
0.43969868351117675
0.4127662696636675
0.15644302087439477
0.15726602932632944
0.36016497265160036
0.4611151744477595
0.4353268776513359
0.36665514672665306
0.17537355545181638
0.20297061125820706
0.38549402413891454
0.44573754343649363
0.39324709783359174
0.3168281506949857
0.1913458666106721
0.24325220411401752
0.39060159621790025
0.4249300511273354
0.3656061938205437
0.2711960240117875
0.18694049518668943
0.2759111408872391
0.3936001501832397
0.4020231804490938
0.32787840282176306
0.24383884566542777
0.19928797032742918
0.3085282935272068
0.40260813045068067
0.37931942199715596
0.2904982021881739
0.221222176513586
0.1691021317426179
0.3441213712728399
0.414530153319317
0.36211782471842546
0.26413851086897955
0.20195252743920838
0.1723265747278564
0.3645489857235276
0.40313150345343673
0.3389161679549728
0.23812396320655993
0.16581231101079774
0.13316759108450388
0.3991434355493624
0.406690345418374
0.3237851421253176
0.21407317592580338
0.13935145570708096
0.11893178264997434
0.3944714144194928
0.41037277277981976
0.3160137666893335
0.19982585698816335
0.11884886673702805
0.11228523995193024
0.41413893595941087
0.3953408356334983
0.3130261956520301
0.1856745268707653
0.11316105013359745
0.13574312199471272
0.42401739167391705
0.4004612837818037
0.30427402220134514
0.18530305265957714
0.10878531672427805
0.11350791012664518
0.41465634390965234
0.4087227856580188
0.30727408587819754
0.18669173709464135
0.11530883259893054
0.13307680412624018
0.4240960576294418
0.4091670854761219
0.31692255265462455
0.2002748318264663
0.12862799136428793
0.154168236757519
0.4192800161213833
0.40560161524254434
0.32261996129687387
0.21967506312229682
0.1314275870683851
0.18776078595026324
0.38977786338025866
0.4080437661880879
0.3504375714330712
0.24144393394172126
0.17993282858791973
0.22216890914601278
0.3711968068492419
0.41654653122241325
0.3694595485831052
0.2674059449279127