/*--------------------------------*- C++ -*----------------------------------*\
  =========                 |
  \\      /  F ield         | OpenFOAM: The Open Source CFD Toolbox
   \\    /   O peration     | Website:  https://openfoam.org
    \\  /    A nd           | Version:  11
     \\/     M anipulation  |
\*---------------------------------------------------------------------------*/
FoamFile
{
    format      ascii;
    class       volScalarField;
    location    "0.16";
    object      epsilon;
}
// * * * * * * * * * * * * * * * * * * * * * * * * * * * * * * * * * * * * * //

dimensions      [0 2 -3 0 0 0 0];

internalField   nonuniform List<scalar> 
2880
(
4.37991
3.34154
2.20125
1.62636
1.43659
3.51237
1.35505
1.80179
1.4984
1.23088
1.46536
4.15121
1.88342
1.81971
1.4603
1.33084
1.7768
4.79187
2.32244
1.99155
1.54828
1.50527
2.1187
5.32875
2.65352
2.09847
1.66343
1.67548
2.43744
5.67526
2.92259
2.16263
1.77685
1.84378
2.7188
5.84379
3.15326
2.20829
1.88748
2.01358
2.96424
5.87391
3.35434
2.24703
1.99886
2.18561
3.17861
5.81216
3.5289
2.28512
2.11284
2.35919
3.36548
5.69506
3.6784
2.32855
2.23005
2.5327
3.5288
5.5456
3.80409
2.38253
2.35071
2.7037
3.66718
5.38331
3.90755
2.45208
2.47534
2.86897
3.77947
5.22501
3.99128
2.54268
2.60571
3.02455
3.87091
5.08121
4.02364
2.6481
2.74099
3.1707
3.95178
4.95907
4.00495
2.76562
2.88176
3.31224
4.03053
4.87242
3.91923
2.898
3.03214
3.45629
4.11821
4.83887
3.76477
3.05143
3.19947
3.6122
4.22773
4.86713
3.53754
3.23555
3.39529
3.79206
4.37474
4.96088
3.22993
3.46529
3.63818
4.01307
4.58337
5.15391
2.84594
3.75425
3.96083
4.3026
4.88902
5.47294
2.36151
4.15438
4.43027
4.71224
5.35516
5.97676
1.77029
4.80856
5.21618
5.36709
6.09676
6.96672
1.19568
6.16362
7.00538
6.71604
7.33697
9.96644
4.39706
9.89402
12.6252
11.1437
8.96363
30.0569
17.8983
9.78172
4.332
1.917
0.8204
0.350159
0.155975
0.0749955
0.0393366
0.0223931
0.0137405
0.00894019
0.00610334
0.00434225
0.0032039
0.00244157
0.00191375
0.00153584
0.00125535
0.00103838
0.000862063
0.000712166
0.000582123
0.000464306
14.3322
9.57507
4.6004
2.09415
0.912355
0.393826
0.176115
0.0845554
0.0442029
0.0250941
0.0153798
0.0100195
0.00686171
0.0049026
0.00363408
0.00278138
0.00218765
0.00175933
0.00143833
0.00118694
0.000979456
0.000799504
0.000639186
0.000488194
12.0711
9.12157
4.66382
2.21762
0.992665
0.436566
0.197176
0.0949411
0.0495977
0.0281192
0.0172202
0.0112299
0.00771147
0.00553086
0.00411759
0.00316498
0.00249878
0.00201529
0.00165005
0.00136103
0.00111921
0.000905461
0.000709766
0.000517725
10.5414
8.41815
4.60401
2.29403
1.06095
0.477866
0.219039
0.106184
0.0555739
0.0315085
0.0192892
0.0125897
0.00866472
0.00623536
0.00466048
0.00359703
0.00285095
0.00230698
0.0018935
0.00156356
0.00128429
0.00103305
0.000796515
0.000554104
9.45887
7.73449
4.49295
2.33502
1.11902
0.517908
0.241796
0.118389
0.0622166
0.03532
0.0216243
0.0141229
0.00973747
0.00702731
0.00527106
0.00408409
0.00324959
0.00263913
0.0021729
0.00179842
0.00147843
0.00118599
0.000902787
0.000598813
8.64534
7.12701
4.35921
2.35081
1.16967
0.557397
0.265714
0.131731
0.0696444
0.0396327
0.0242738
0.0158604
0.0109502
0.00792132
0.00596063
0.00463561
0.00370312
0.00301949
0.00249551
0.00207236
0.00170793
0.00137028
0.00103395
0.000654131
7.99709
6.59934
4.20491
2.34848
1.21381
0.597154
0.291311
0.14648
0.0780193
0.0445449
0.0272983
0.01784
0.0123281
0.00893529
0.00674342
0.00526423
0.00422389
0.00346084
0.00287475
0.00239933
0.00198688
0.00159983
0.00120306
0.000726966
7.45512
6.1447
4.03499
2.33766
1.2534
0.637415
0.318963
0.163048
0.0875884
0.050187
0.0307741
0.0201078
0.0138998
0.0100888
0.00763453
0.00598374
0.00482657
0.00398053
0.00333223
0.00280642
0.00234853
0.00191423
0.00145678
0.000875134
6.98667
5.75455
3.86654
2.32189
1.29002
0.67865
0.348984
0.18171
0.0985966
0.0567201
0.0347965
0.0227189
0.0156972
0.0114005
0.00864558
0.00680282
0.00552031
0.00459169
0.00388978
0.00333137
0.00285802
0.00242989
0.0020455
0.00179753
6.57478
5.4216
3.71391
2.30473
1.32521
0.72128
0.381715
0.202828
0.111332
0.0643426
0.0394858
0.0257418
0.0177572
0.0128879
0.00978251
0.00772065
0.00630117
0.00529138
0.00455164
0.00399607
0.00357165
0.00325139
0.0030465
0.00301076
6.21212
5.14077
3.58027
2.28915
1.36028
0.765788
0.417542
0.226818
0.126152
0.0733096
0.0450025
0.0292701
0.0201305
0.0145759
0.0110544
0.00873663
0.0071623
0.00606729
0.0052966
0.00475864
0.00439998
0.00419309
0.00413299
0.00420445
5.89741
4.90909
3.46851
2.27799
1.39626
0.812595
0.456853
0.254153
0.143499
0.0839549
0.051567
0.0334385
0.0228961
0.0165089
0.0124852
0.00986298
0.00810909
0.00691977
0.00611839
0.00560079
0.00530388
0.0051881
0.00522337
0.00535802
5.63295
4.72582
3.38152
2.27287
1.43458
0.86227
0.500095
0.285387
0.163924
0.0967192
0.0594856
0.0384438
0.026175
0.01876
0.0141182
0.0111242
0.00915314
0.00784974
0.00700732
0.00650228
0.00625601
0.00621324
0.006317
0.00650786
5.42319
4.59235
3.32318
2.27597
1.4769
0.915722
0.547852
0.321183
0.188111
0.112182
0.0691832
0.0445714
0.0301502
0.0214435
0.0160239
0.0125619
0.0103158
0.00886291
0.00795619
0.00744617
0.00723552
0.00725057
0.00741653
0.00766145
5.27509
4.51304
3.29961
2.29541
1.52616
0.97421
0.60096
0.362353
0.216904
0.131098
0.0812438
0.0522315
0.0350941
0.0247356
0.0183139
0.0142451
0.0116372
0.00997856
0.00896956
0.00842721
0.00823297
0.00828883
0.00851671
0.00882031
5.20288
4.50102
3.31963
2.33802
1.58667
1.04
0.660713
0.409968
0.251365
0.154448
0.0964667
0.0620126
0.0414125
0.0289057
0.0211639
0.016287
0.0131883
0.0112394
0.0100705
0.00945566
0.00925029
0.00933081
0.00961383
0.00998335
5.22012
4.55343
3.39372
2.41318
1.66483
1.11675
0.72925
0.465575
0.292893
0.183525
0.115949
0.0747598
0.0497116
0.0343699
0.0248531
0.0188732
0.0150924
0.012727
0.0113124
0.0105653
0.0103079
0.0103906
0.0107138
0.0111557
5.31799
4.70271
3.54012
2.53544
1.77072
1.21065
0.810265
0.53164
0.343473
0.22009
0.141211
0.0916956
0.0609063
0.0417789
0.0298313
0.0223113
0.0175606
0.0145878
0.0127981
0.0118287
0.0114557
0.0115066
0.0118399
0.012357
5.53572
4.95203
3.774
2.72276
1.91927
1.332
0.910308
0.612425
0.406219
0.266706
0.174441
0.114622
0.0763984
0.0521688
0.0368382
0.0271211
0.0209583
0.0170814
0.0147163
0.0133848
0.0127959
0.0127583
0.013051
0.0136356
5.864
5.28596
4.09186
2.9869
2.12757
1.49593
1.04052
0.715613
0.486561
0.327517
0.21901
0.146311
0.0983996
0.0672303
0.0471208
0.0342027
0.0259311
0.0206749
0.0174106
0.015494
0.0145314
0.0142811
0.014492
0.0150877
6.26999
5.63815
4.44594
3.31177
2.40175
1.71743
1.21639
0.854013
0.594266
0.40993
0.280704
0.191398
0.130618
0.089863
0.0628767
0.0451805
0.0336656
0.0262367
0.0215248
0.0186454
0.0170392
0.016371
0.0164101
0.0169196
6.68824
5.86374
4.72794
3.63269
2.71587
1.99623
1.45031
1.04382
0.744808
0.527083
0.370183
0.258424
0.179861
0.125414
0.0882212
0.0631601
0.0464699
0.0354747
0.0283305
0.023804
0.0210737
0.0196328
0.0192303
0.0195643
6.96191
5.7819
4.78091
3.83902
3.00114
2.2999
1.73652
1.29539
0.956107
0.698801
0.506098
0.36357
0.259532
0.184661
0.131593
0.0945979
0.0692113
0.0520376
0.0405757
0.0330568
0.0282619
0.0253666
0.0239217
0.0238666
6.71125
5.27596
4.55589
3.82657
3.16982
2.56689
2.04282
1.6027
1.2416
0.950428
0.71905
0.537765
0.397818
0.291413
0.212878
0.155724
0.114735
0.0858245
0.065762
0.0520688
0.042906
0.036931
0.03321
0.031783
1.92877
2.51428
3.05788
3.2194
3.28955
4.11645
0.875659
1.15319
1.43619
1.59743
1.76666
2.23617
0.235742
0.885334
1.10191
1.23578
1.38547
1.6783
0.258517
0.805337
0.978622
1.09628
1.22734
1.4321
0.273235
0.787946
0.923404
1.02945
1.14607
1.30216
1.19283
0.804924
0.898289
0.994875
1.1005
1.22742
1.2964
0.8262
0.88817
0.977235
1.07487
1.1836
1.40579
0.846477
0.885992
0.969515
1.0619
1.15964
1.50209
0.864801
0.888159
0.968081
1.05776
1.14988
1.57918
0.880301
0.892642
0.971122
1.06076
1.15163
1.63351
0.89222
0.898241
0.97763
1.07025
1.16451
1.66293
0.899999
0.904222
0.987059
1.08608
1.18892
1.66623
0.90326
0.91014
0.999146
1.10853
1.22615
1.64299
0.901828
0.915747
1.01378
1.13809
1.27825
1.59383
0.895783
0.920957
1.03097
1.17544
1.34803
1.52124
0.885306
0.925889
1.0508
1.22137
1.4391
1.42705
0.869966
0.930987
1.07355
1.27674
1.55593
1.31512
0.849511
0.937436
1.10001
1.34257
1.70386
1.19374
0.823724
0.947965
1.13211
1.42047
1.88933
0.274677
0.791683
0.968925
1.1748
1.51392
2.12089
0.260551
0.795187
1.01438
1.241
1.63339
2.41396
0.238455
0.860029
1.12118
1.3686
1.81433
2.80994
0.892557
1.12152
1.4304
1.70506
2.19865
3.46839
2.02312
2.52071
3.03011
3.28951
3.72621
5.2324
4.32021
4.21934
3.99404
3.62048
3.17179
2.73894
2.32288
1.94285
1.60592
1.31267
1.06041
0.845277
0.664052
0.515297
0.395072
0.299596
0.22565
0.169879
0.128915
0.0995534
0.0789684
0.0648342
0.0552639
0.0493454
2.85653
3.19319
3.29536
3.22483
3.04039
2.79188
2.53217
2.27197
2.02201
1.78685
1.56726
1.36217
1.17007
0.989209
0.820314
0.667128
0.532238
0.417078
0.322553
0.248116
0.191884
0.150603
0.122209
0.0988752
2.10378
2.46867
2.6971
2.79423
2.79101
2.73063
2.62576
2.50756
2.38168
2.2516
2.12045
1.98756
1.85031
1.70619
1.55331
1.39075
1.22024
1.04634
0.875924
0.716461
0.577943
0.457954
0.371794
0.27916
1.7185
2.01631
2.25521
2.41859
2.51616
2.56581
2.57485
2.56449
2.54083
2.50219
2.45245
2.39381
2.32424
2.24356
2.15143
2.04735
1.93077
1.80094
1.65755
1.49902
1.33144
1.15245
1.00368
0.801348
1.50913
1.74183
1.95141
2.12111
2.25019
2.34339
2.40591
2.44611
2.46704
2.46929
2.45892
2.43599
2.39784
2.34791
2.28842
2.22004
2.14336
2.05897
1.96778
1.87159
1.77045
1.66331
1.5609
1.43435
1.38816
1.57259
1.74628
1.89653
2.01947
2.11501
2.18517
2.23309
2.26085
2.27052
2.26641
2.25109
2.22353
2.18838
2.14763
2.10249
2.05362
2.00099
1.94413
1.88246
1.81728
1.75183
1.69013
1.63113
1.31604
1.46654
1.60861
1.7331
1.83611
1.91648
1.97498
2.0133
2.03345
2.03788
2.03071
2.01245
1.9865
1.95575
1.92215
1.88686
1.85059
1.81366
1.77618
1.73836
1.70087
1.66524
1.63284
1.60311
1.27483
1.40207
1.51962
1.62116
1.70379
1.76688
1.81135
1.83899
1.85206
1.85323
1.84598
1.8325
1.81519
1.79565
1.77447
1.75194
1.72807
1.70271
1.67565
1.64684
1.6168
1.58694
1.55896
1.53418
1.25596
1.36942
1.47097
1.55649
1.6247
1.67628
1.71301
1.7372
1.75132
1.75781
1.75886
1.756
1.74989
1.74069
1.72908
1.71526
1.69912
1.68043
1.65904
1.63487
1.60848
1.58122
1.55467
1.53097
1.25485
1.36268
1.4569
1.535
1.59712
1.64494
1.68079
1.70704
1.72588
1.73913
1.74818
1.75391
1.75702
1.75776
1.75586
1.75099
1.74263
1.73049
1.71471
1.69518
1.6732
1.64979
1.6255
1.60425
1.27154
1.38179
1.4768
1.55538
1.61884
1.6698
1.71105
1.74505
1.77371
1.79829
1.81943
1.83719
1.85126
1.86113
1.86613
1.86613
1.86035
1.84863
1.83197
1.80915
1.77828
1.74307
1.70916
1.68506
1.30743
1.42946
1.53474
1.62318
1.69701
1.75944
1.81345
1.86123
1.90407
1.94233
1.97563
2.003
2.02321
2.03536
2.03783
2.03254
2.0149
1.98064
1.93211
1.8773
1.82346
1.7724
1.72691
1.69662
1.36563
1.51055
1.63683
1.74532
1.83885
1.92094
1.99428
2.0603
2.11917
2.16994
2.21098
2.24012
2.25464
2.25542
2.23657
2.18832
2.11773
2.03983
1.96295
1.8837
1.80081
1.71548
1.63619
1.57675
1.45109
1.63267
1.7922
1.93161
2.05396
2.1626
2.25928
2.34399
2.41526
2.47029
2.50605
2.52073
2.50493
2.44762
2.3532
2.24914
2.14055
2.02465
1.89808
1.76531
1.63053
1.49694
1.37364
1.26339
1.57104
1.80651
2.01278
2.1935
2.3515
2.48927
2.60679
2.70182
2.77119
2.81043
2.81223
2.75632
2.64563
2.51479
2.37036
2.20882
2.02966
1.84096
1.65063
1.46495
1.28943
1.12545
0.982257
0.834058
1.73556
2.04599
2.31179
2.54048
2.73419
2.89386
3.01698
3.09874
3.13607
3.09742
2.99063
2.83661
2.65968
2.45264
2.21804
1.96796
1.71533
1.47127
1.24465
1.04081
0.863255
0.712011
0.585793
0.466968
1.95831
2.36742
2.69979
2.97297
3.18847
3.34565
3.44044
3.45857
3.37046
3.2078
3.00811
2.76154
2.47389
2.16274
1.84682
1.54289
1.26424
1.02
0.814726
0.648451
0.517348
0.416374
0.341784
0.29063
2.25719
2.7863
3.17686
3.47138
3.67251
3.78017
3.75899
3.62574
3.4132
3.14086
2.80622
2.43486
2.05312
1.68515
1.3505
1.0624
0.826903
0.643061
0.504727
0.40306
0.328836
0.275098
0.23497
0.210834
2.65485
3.3099
3.7211
3.98504
4.10946
4.0548
3.87781
3.59952
3.23189
2.80454
2.35303
1.91224
1.5108
1.16739
0.891081
0.680507
0.526309
0.4157
0.336209
0.277903
0.234133
0.200523
0.174788
0.161663
3.17948
3.92461
4.27833
4.43015
4.3507
4.12911
3.76889
3.30327
2.78284
2.25794
1.77191
1.35437
1.01889
0.765444
0.582366
0.452546
0.359666
0.291143
0.238638
0.197378
0.164907
0.140295
0.123819
0.117916
3.86537
4.58158
4.76298
4.66498
4.39753
3.95193
3.38781
2.77644
2.1849
1.66401
1.24057
0.91879
0.686739
0.523205
0.406842
0.321384
0.256212
0.205264
0.165378
0.134889
0.112769
0.0980888
0.0901095
0.0889534
4.7539
5.19371
5.04442
4.70954
4.18766
3.52783
2.82524
2.16746
1.6126
1.1821
0.86799
0.646653
0.490497
0.377336
0.292625
0.227772
0.17797
0.140318
0.112697
0.0933227
0.080594
0.0730796
0.0700513
0.0707751
5.8963
5.65258
5.12146
4.52089
3.76831
2.96862
2.23378
1.6328
1.18183
0.860628
0.635722
0.475731
0.358787
0.271559
0.206186
0.157659
0.122259
0.0969641
0.0793469
0.067565
0.0602154
0.0563506
0.055524
0.056747
7.36597
5.85204
5.01102
4.1546
3.24509
2.40923
1.7361
1.24099
0.892985
0.649821
0.476699
0.351049
0.259169
0.192323
0.144242
0.110045
0.0859446
0.0691579
0.0577433
0.0503676
0.0460636
0.0442025
0.0443574
0.0457569
2.58032
6.71011
10.7315
11.3711
9.83297
27.8016
0.881869
4.13615
5.82442
6.62822
7.40212
10.4457
1.18813
3.29166
4.4453
5.33464
6.3696
7.58007
1.61357
2.89272
3.821
4.74209
5.79402
6.63222
1.97187
2.64008
3.46313
4.4064
5.47101
6.23341
2.26395
2.46558
3.23089
4.19879
5.308
6.07095
2.49357
2.34203
3.06671
4.06732
5.24365
6.02475
2.66434
2.25064
2.94154
3.98508
5.24107
6.05112
2.77976
2.17648
2.83813
3.93515
5.29628
6.14218
2.84308
2.11016
2.7449
3.90315
5.3915
6.27576
2.85651
2.04574
2.65352
3.8786
5.51325
6.44162
2.82568
1.98038
2.55778
3.85155
5.65132
6.63452
2.76146
1.91496
2.4529
3.81098
5.79725
6.85037
2.67242
1.8478
2.33683
3.74907
5.93776
7.08943
2.55763
1.77505
2.20823
3.65477
6.05938
7.36596
2.41737
1.69396
2.0661
3.51688
6.14654
7.68737
2.25257
1.60245
1.90992
3.32461
6.17699
8.06168
2.06369
1.49845
1.73973
3.06975
6.12583
8.49764
1.84722
1.37889
1.55628
2.7491
5.95066
9.00618
1.58594
1.23782
1.36202
2.36796
5.60368
9.60516
1.22873
1.06551
1.16535
1.94925
5.03474
10.3413
0.256426
0.867854
0.9983
1.54769
4.21541
11.331
0.986503
0.981432
0.98488
1.27679
3.24197
12.604
2.71926
2.01786
1.6832
1.81233
2.64159
6.20905
8.66906
5.81085
4.73411
3.6966
2.72447
1.93925
1.36688
0.968238
0.691309
0.495867
0.356332
0.256716
0.186191
0.13675
0.102311
0.0783949
0.0618501
0.0505425
0.0430503
0.038399
0.0359136
0.0351494
0.0356439
0.0371096
7.10013
5.51019
4.36207
3.22328
2.27319
1.57845
1.09817
0.768039
0.538379
0.377521
0.26526
0.187667
0.134537
0.0983496
0.0737185
0.0569257
0.0454867
0.037782
0.0327696
0.0297607
0.0282957
0.0280598
0.0286666
0.0300077
6.44041
5.2282
3.9572
2.7894
1.91079
1.30489
0.893728
0.612413
0.419046
0.28686
0.197517
0.13779
0.0981097
0.0717388
0.0541071
0.0422218
0.0341777
0.0287855
0.0253059
0.023264
0.0223448
0.0223241
0.0229119
0.0240537
6.08395
4.93419
3.55948
2.42211
1.6254
1.09079
0.73129
0.488573
0.325748
0.217984
0.147627
0.102064
0.0725522
0.0532758
0.0405112
0.0319376
0.0261319
0.0222287
0.0197017
0.0182216
0.0175705
0.0175896
0.0180882
0.0190089
5.85101
4.64231
3.20222
2.12147
1.39659
0.917368
0.599384
0.389597
0.253297
0.166239
0.11126
0.0765921
0.0545431
0.0402886
0.030885
0.0245598
0.0202502
0.0173198
0.0153877
0.0142221
0.0136722
0.0136371
0.0139998
0.0147127
5.70164
4.35223
2.89357
1.87441
1.20837
0.774039
0.491657
0.310916
0.197607
0.127713
0.0848322
0.0583433
0.0416992
0.0309931
0.0239265
0.0191472
0.0158546
0.0135721
0.0120163
0.011019
0.0104767
0.0103284
0.0105311
0.0110412
5.60074
4.08076
2.63217
1.66901
1.05092
0.654694
0.403915
0.248872
0.155135
0.0991273
0.0655736
0.0451517
0.0324094
0.0242212
0.0187968
0.0150985
0.0125141
0.0106773
0.00936899
0.00845998
0.00787594
0.00758349
0.00759701
0.007907
5.52931
3.83635
2.41197
1.4963
0.917984
0.555256
0.332851
0.200291
0.122884
0.0778992
0.0514448
0.035502
0.0255852
0.0192015
0.0149498
0.0120241
0.00994817
0.00843372
0.00730383
0.0064511
0.0058133
0.00536565
0.00513898
0.00522468
5.47736
3.62414
2.22739
1.35006
0.805345
0.472638
0.275636
0.162439
0.0984143
0.0620619
0.0409784
0.0283485
0.0204954
0.0154236
0.0120251
0.00966528
0.0079678
0.00670119
0.00571852
0.00492442
0.0042558
0.00367148
0.00315666
0.00281729
5.43794
3.44891
2.07366
1.22583
0.709968
0.404324
0.229819
0.13302
0.0798049
0.050159
0.0331366
0.0229723
0.0166451
0.012543
0.00977857
0.00784457
0.00643899
0.00537415
0.00452758
0.00381446
0.00317126
0.00254584
0.00188528
0.00105613
5.40991
3.31356
1.94659
1.12035
0.629472
0.348124
0.193269
0.110154
0.0655811
0.0411286
0.0271879
0.018876
0.0136926
0.0103204
0.00803777
0.00643273
0.00525957
0.00436528
0.00364975
0.00304301
0.00249207
0.00195733
0.00141245
0.000789856
5.40704
3.21146
1.84242
1.03113
0.561864
0.302114
0.164179
0.0923398
0.0546332
0.0342042
0.0226166
0.0157112
0.0113973
0.00858348
0.00667364
0.00532726
0.00434111
0.0035887
0.00298772
0.00248131
0.00202684
0.00159251
0.00115911
0.000694135
5.44465
3.13868
1.75859
0.956248
0.505431
0.264618
0.141056
0.0784098
0.0461361
0.0288338
0.0190572
0.0132316
0.00958757
0.00720701
0.00558938
0.00444835
0.00361267
0.00297564
0.00246798
0.00204215
0.00166323
0.00130719
0.000964116
0.00061898
5.52816
3.09557
1.6937
0.894185
0.458663
0.234214
0.122674
0.0674642
0.0394797
0.02462
0.0162497
0.0112628
0.00814126
0.00610136
0.00471576
0.00373958
0.00302617
0.00248409
0.00205418
0.00169628
0.00138157
0.00109161
0.000820857
0.000562223
5.66101
3.08212
1.64674
0.84361
0.420421
0.209616
0.107983
0.0588007
0.0342135
0.0212758
0.0140082
0.00967997
0.00697136
0.00520298
0.00400417
0.00316217
0.0025494
0.00208641
0.00172198
0.00142172
0.0011615
0.00092674
0.000713825
0.000519104
5.85097
3.09399
1.61743
0.803825
0.389353
0.189661
0.0961767
0.0518808
0.0300061
0.0185929
0.012198
0.0083932
0.00601513
0.00446615
0.00341987
0.00268862
0.0021598
0.00176342
0.00145454
0.00120327
0.000989056
0.000799871
0.000632897
0.000486026
6.10939
3.15245
1.60533
0.773738
0.364157
0.173417
0.0866302
0.0463088
0.0266137
0.0164184
0.010721
0.00733676
0.00522664
0.00385736
0.00293729
0.00229859
0.00184057
0.00150073
0.00123916
0.00102954
0.000853964
0.000702159
0.000571472
0.000460563
6.44648
3.24989
1.6082
0.75139
0.343691
0.160124
0.0788558
0.0417836
0.0238542
0.014639
0.00950444
0.00646201
0.00457177
0.00335147
0.00253708
0.00197653
0.00157865
0.00128703
0.00106578
0.000891418
0.000748113
0.000626788
0.000524695
0.000440908
6.88022
3.38602
1.62294
0.735354
0.326948
0.149152
0.0724678
0.0380735
0.0215907
0.0131698
0.00849399
0.00573245
0.0040247
0.00292929
0.00220425
0.00171019
0.00136367
0.00111322
0.000926278
0.000781644
0.000665154
0.000568601
0.000489026
0.000425698
7.43466
3.56981
1.64949
0.723988
0.312972
0.139964
0.0671574
0.0349987
0.0197171
0.0119464
0.00764859
0.00512037
0.00356566
0.00257592
0.001927
0.00148981
0.00118725
0.000971959
0.000814125
0.000694449
0.000600127
0.000523649
0.000461822
0.000413913
8.14238
3.80571
1.68339
0.714869
0.300766
0.132077
0.0626708
0.032421
0.0181484
0.0109196
0.00693697
0.00460452
0.00317929
0.00227961
0.00169588
0.00130747
0.00104258
0.000857284
0.000724071
0.000625243
0.000549135
0.000488843
0.000441056
0.000404748
9.05726
4.0755
1.71614
0.704817
0.289252
0.125051
0.058796
0.0302288
0.0168219
0.010052
0.00633518
0.00416847
0.00285356
0.00203103
0.00150327
0.00115675
0.000924106
0.000764327
0.000651874
0.000570392
0.00050917
0.000461832
0.000425101
0.000397542
10.2702
4.31131
1.73393
0.689576
0.277284
0.118494
0.0553624
0.0283355
0.0156897
0.00931525
0.00582491
0.0037995
0.00257902
0.00182271
0.00134301
0.00103238
0.000827258
0.000689126
0.000594109
0.000526988
0.000477866
0.000440841
0.000412763
0.000391847
11.8271
4.48167
1.71084
0.664188
0.263873
0.112116
0.0522475
0.0266786
0.0147166
0.00868807
0.00539223
0.00348778
0.00234821
0.00164863
0.00121007
0.000930068
0.000748326
0.000628468
0.000548023
0.000492725
0.000453372
0.0004245
0.000403166
0.000387347
3.11506
8.16372
11.1254
12.1604
10.7249
45.6302
1.13049
4.32308
5.99795
7.20823
10.2562
15.834
1.66838
3.39375
4.54203
5.56306
7.13595
9.24838
2.31218
3.02692
3.89746
4.74936
5.75287
6.65328
2.90535
2.8494
3.53659
4.25706
4.95666
5.3577
3.43241
2.76201
3.309
3.92862
4.43825
4.60201
3.88511
2.71995
3.15524
3.69508
4.08182
4.12036
4.25913
2.70158
3.04693
3.52352
3.83223
3.79907
4.55234
2.69497
2.96885
3.39773
3.65812
3.58402
4.76382
2.69323
2.912
3.30778
3.54135
3.44746
4.89415
2.69217
2.87066
3.24704
3.47159
3.37426
4.94741
2.69007
2.84087
3.21086
3.44283
3.35644
4.94176
2.68712
2.81968
3.19582
3.45125
3.38873
4.86742
2.6794
2.80468
3.19916
3.49409
3.4741
4.71977
2.66303
2.79404
3.21836
3.57441
3.61497
4.49509
2.63454
2.78646
3.25435
3.69091
3.81886
4.19125
2.59085
2.78214
3.30822
3.84695
4.09873
3.80747
2.53312
2.78422
3.38216
4.04927
4.47653
3.34514
2.46734
2.80141
3.48362
4.30979
4.99567
2.80979
2.40701
2.85536
3.63104
4.65362
5.75049
2.21434
2.38225
2.99606
3.87164
5.14108
6.97733
1.5837
2.4791
3.34497
4.33632
5.93484
9.41928
1.09349
3.03569
4.34702
5.50346
7.48109
15.8786
2.73884
6.61375
9.01488
10.1553
10.712
50.4961
12.9325
4.3463
1.61692
0.625809
0.248644
0.105807
0.049388
0.0252191
0.0138785
0.00815512
0.00502677
0.00322575
0.00215524
0.00150402
0.0011004
0.000846326
0.000684293
0.000579751
0.000511402
0.000465775
0.000434259
0.000411785
0.000395667
0.000383802
8.59385
3.66295
1.46015
0.578083
0.232395
0.0996855
0.0467793
0.023939
0.0131608
0.00770576
0.00472084
0.00300761
0.00199549
0.00138501
0.00101073
0.000778345
0.000632737
0.000540889
0.000482479
0.000444695
0.000419432
0.000401961
0.000389815
0.000381052
6.51746
3.10379
1.30565
0.530058
0.216583
0.0939947
0.0444537
0.0228347
0.0125559
0.0073329
0.00446886
0.0028289
0.00186527
0.00128852
0.000938431
0.000723866
0.000591717
0.000510223
0.000459851
0.000428335
0.000408014
0.000394447
0.000385324
0.000379
5.24185
2.68076
1.1711
0.486476
0.202271
0.088955
0.0424514
0.02191
0.0120607
0.00703198
0.00426679
0.00268617
0.00176166
0.00121201
0.000881331
0.000681042
0.000559655
0.000486408
0.000442385
0.000415768
0.000399282
0.000388751
0.000381985
0.000377532
4.38986
2.35823
1.06
0.449417
0.190065
0.0847146
0.0408039
0.0211687
0.0116768
0.00680025
0.00411171
0.00257681
0.00168234
0.00115348
0.00083769
0.000648375
0.000535274
0.00046837
0.000429206
0.000406312
0.000392731
0.000384506
0.000379536
0.000376503
3.80652
2.11596
0.97212
0.419559
0.18024
0.0813549
0.0395329
0.0206158
0.0114033
0.00663593
0.00400169
0.00249895
0.00162558
0.00111139
0.00080617
0.000624709
0.000517585
0.000455279
0.000419637
0.00039944
0.000387972
0.000381442
0.000377805
0.000375813
3.40194
1.93763
0.905597
0.396876
0.172879
0.0789162
0.0386542
0.0202562
0.0112373
0.00653804
0.00393568
0.00245142
0.00159023
0.00108466
0.000785823
0.000609224
0.000505887
0.000446544
0.000413196
0.000394774
0.000384722
0.000379358
0.000376673
0.000375381
3.12242
1.81106
0.85833
0.38109
0.167984
0.0774202
0.0381801
0.0200948
0.0111799
0.00650704
0.0039136
0.00243381
0.00157574
0.00107273
0.000776089
0.000601412
0.000499731
0.000441785
0.000409571
0.000392048
0.000382768
0.000378154
0.000376029
0.000375164
2.93531
1.72772
0.828595
0.371934
0.16555
0.0768894
0.0381229
0.0201332
0.0112277
0.0065396
0.00393308
0.00244459
0.0015812
0.00107508
0.000776703
0.000601035
0.000498889
0.000440828
0.000408646
0.000391225
0.000382165
0.00037774
0.000375788
0.000375086
2.82083
1.68202
0.815339
0.369289
0.165598
0.077314
0.038467
0.0203636
0.0113786
0.00663422
0.00399217
0.00248151
0.00160436
0.00108972
0.000786076
0.000607323
0.000503181
0.00044365
0.000410436
0.000392313
0.000382741
0.000378012
0.000375894
0.000375109
2.76741
1.67062
0.818284
0.373063
0.168101
0.0787335
0.0392504
0.0208081
0.0116437
0.00679714
0.00409563
0.00254928
0.00164984
0.0011209
0.000807686
0.000622131
0.00051325
0.000450486
0.000415052
0.000395393
0.00038466
0.000379085
0.00037641
0.000375251
2.76901
1.69237
0.838059
0.38393
0.173487
0.081338
0.040557
0.0215083
0.0120466
0.00704429
0.00425396
0.00265377
0.00172024
0.00116886
0.000840715
0.00064511
0.000529269
0.000461615
0.000422729
0.00040062
0.000388104
0.0003811
0.000377409
0.000375586
2.82387
1.74849
0.875354
0.402385
0.181986
0.0852397
0.0424404
0.0224885
0.0125972
0.00737851
0.00446739
0.00279442
0.00181505
0.00123403
0.000886181
0.000677138
0.000551895
0.000477541
0.000433851
0.000408274
0.00039319
0.000384235
0.000379074
0.000376221
2.93464
1.84195
0.932128
0.429457
0.194021
0.0905874
0.0449501
0.0237664
0.0133027
0.00780336
0.00473801
0.00297334
0.00193653
0.00131824
0.000945486
0.000719339
0.000582032
0.000498999
0.000449011
0.000418829
0.000400301
0.000388711
0.000381574
0.000377228
3.1071
1.97776
1.01144
0.466628
0.210213
0.0976257
0.0481831
0.0253822
0.0141805
0.00832782
0.0050716
0.00319453
0.00208758
0.00142372
0.0010204
0.000773149
0.000620855
0.000526952
0.000468986
0.000432895
0.000409896
0.000394859
0.00038511
0.000378726
3.35172
2.16349
1.11757
0.515909
0.231384
0.106671
0.0522619
0.0273864
0.0152529
0.00896326
0.0054749
0.00346255
0.00227156
0.0015531
0.00111305
0.000840306
0.00066981
0.0005626
0.000494757
0.000451248
0.000422563
0.000403099
0.000389957
0.000380857
3.6851
2.40982
1.25615
0.579901
0.258585
0.11812
0.0573373
0.0298407
0.016548
0.00972312
0.0059555
0.00378243
0.00249222
0.00170934
0.00122585
0.000922838
0.000730607
0.000607385
0.000527523
0.000474852
0.00043904
0.000413957
0.000396451
0.000383787
4.13335
2.73176
1.43436
0.661829
0.293106
0.132456
0.0635879
0.0328148
0.0181039
0.0106232
0.00652192
0.00415971
0.0027536
0.00189567
0.00136148
0.00102301
0.000805182
0.000662966
0.000568689
0.000504869
0.000460245
0.000428108
0.000404991
0.000387698
4.73742
3.15044
1.66097
0.765475
0.336446
0.150241
0.0712229
0.0363915
0.0199581
0.0116808
0.00718343
0.00460025
0.00305999
0.00211548
0.00152279
0.00114327
0.000895679
0.000731224
0.000619901
0.000542711
0.00048733
0.000446367
0.000415985
0.000392731
5.56529
3.69709
1.94614
0.894855
0.390198
0.172084
0.0804741
0.0406634
0.0221454
0.0129141
0.00794999
0.00511029
0.00341584
0.00237233
0.0017128
0.00128628
0.00100446
0.000814269
0.000683027
0.000589979
0.000521579
0.000469668
0.000430061
0.000399101
6.75054
4.41406
2.3001
1.05344
0.455764
0.198557
0.091569
0.0457225
0.0247052
0.0143423
0.00883214
0.00569634
0.00382579
0.00266989
0.00193463
0.00145483
0.00113407
0.000914422
0.000760156
0.000648506
0.000564526
0.000499199
0.000448019
0.000407096
8.60504
5.34231
2.7295
1.24257
0.533822
0.23004
0.10469
0.0516515
0.0276762
0.0159856
0.00984092
0.00636524
0.00429463
0.00301192
0.00219153
0.00165182
0.00128718
0.00103415
0.000853558
0.000720336
0.000617948
0.0005364
0.000470863
0.000417088
12.1267
6.61092
3.24
1.45961
0.623521
0.266474
0.119911
0.0585085
0.0310925
0.0178639
0.010988
0.00712425
0.00482737
0.00340232
0.00248677
0.00188021
0.00146652
0.00117603
0.000965645
0.00080771
0.000683866
0.000582973
0.000499822
0.000429545
20.9105
8.63383
3.83724
1.69545
0.721558
0.30709
0.137123
0.0663066
0.0349777
0.0199956
0.0122849
0.00798072
0.00542907
0.00384489
0.00282351
0.0021428
0.00167473
0.00134259
0.00109888
0.000912999
0.000764502
0.00064087
0.000536358
0.00044505
)
;

boundaryField
{
    rotor
    {
        type            epsilonWallFunction;
        value           nonuniform List<scalar> 
144
(
4.37991
3.34154
2.20125
1.62636
1.43659
3.51237
4.37991
1.35505
1.88342
2.32244
2.65352
2.92259
3.15326
3.35434
3.5289
3.6784
3.80409
3.90755
3.99128
4.02364
4.00495
3.91923
3.76477
3.53754
3.22993
2.84594
2.36151
1.77029
1.19568
4.39706
4.39706
9.89402
12.6252
11.1437
8.96363
30.0569
1.92877
2.51428
3.05788
3.2194
3.28955
4.11645
1.92877
0.875659
0.235742
0.258517
0.273235
1.19283
1.2964
1.40579
1.50209
1.57918
1.63351
1.66293
1.66623
1.64299
1.59383
1.52124
1.42705
1.31512
1.19374
0.274677
0.260551
0.238455
0.892557
2.02312
2.02312
2.52071
3.03011
3.28951
3.72621
5.2324
2.58032
6.71011
10.7315
11.3711
9.83297
27.8016
2.58032
0.881869
1.18813
1.61357
1.97187
2.26395
2.49357
2.66434
2.77976
2.84308
2.85651
2.82568
2.76146
2.67242
2.55763
2.41737
2.25257
2.06369
1.84722
1.58594
1.22873
0.256426
0.986503
2.71926
2.71926
2.01786
1.6832
1.81233
2.64159
6.20905
3.11506
8.16372
11.1254
12.1604
10.7249
45.6302
3.11506
1.13049
1.66838
2.31218
2.90535
3.43241
3.88511
4.25913
4.55234
4.76382
4.89415
4.94741
4.94176
4.86742
4.71977
4.49509
4.19125
3.80747
3.34514
2.80979
2.21434
1.5837
1.09349
2.73884
2.73884
6.61375
9.01488
10.1553
10.712
50.4961
)
;
    }
    freestream
    {
        type            inletOutlet;
        inletValue      uniform 0.000375;
        value           nonuniform List<scalar> 
96
(
0.000375
0.000375
0.000375
0.000375
0.000375
0.000375
0.000375
0.000375
0.00179753
0.00301076
0.00420445
0.00535802
0.00650786
0.00766145
0.00882031
0.00998335
0.0111557
0.012357
0.0136356
0.0150877
0.0169196
0.0195643
0.0238666
0.031783
0.0493454
0.0988752
0.27916
0.801348
1.43435
1.63113
1.60311
1.53418
1.53097
1.60425
1.68506
1.69662
1.57675
1.26339
0.834058
0.466968
0.29063
0.210834
0.161663
0.117916
0.0889534
0.0707751
0.056747
0.0457569
0.0371096
0.0300077
0.0240537
0.0190089
0.0147127
0.0110412
0.007907
0.00522468
0.00281729
0.000375
0.000375
0.000375
0.000375
0.000375
0.000375
0.000375
0.000375
0.000375
0.000375
0.000375
0.000375
0.000375
0.000375
0.000375
0.000375
0.000375
0.000375
0.000375
0.000375
0.000375
0.000375
0.000375
0.000375
0.000375
0.000375
0.000375
0.000375
0.000375
0.000375
0.000375
0.000375
0.000375
0.000375
0.000375
0.000375
0.000375
0.000375
0.000375
)
;
    }
    frontAndBack
    {
        type            empty;
    }
}


// ************************************************************************* //
