/*--------------------------------*- C++ -*----------------------------------*\
  =========                 |
  \\      /  F ield         | OpenFOAM: The Open Source CFD Toolbox
   \\    /   O peration     | Website:  https://openfoam.org
    \\  /    A nd           | Version:  11
     \\/     M anipulation  |
\*---------------------------------------------------------------------------*/
FoamFile
{
    format      ascii;
    class       surfaceScalarField;
    location    "0.16";
    object      meshPhi;
}
// * * * * * * * * * * * * * * * * * * * * * * * * * * * * * * * * * * * * * //

dimensions      [0 3 -1 0 0 0 0];

internalField   nonuniform List<scalar> 
5640
(
1.36966e-16
9.81747e-07
2.42112e-16
1.37445e-06
3.76962e-16
1.76715e-06
-1.3392e-15
2.15984e-06
-3.68155e-15
2.55254e-06
2.94524e-06
5.9514e-15
1.85443e-18
9.81747e-07
-3.88808e-16
1.37445e-06
-2.60424e-15
1.76715e-06
1.94372e-15
2.15984e-06
8.06636e-15
2.55254e-06
2.94524e-06
-9.02972e-15
-1.16441e-16
9.81747e-07
1.86414e-16
1.37445e-06
-1.56226e-15
1.76715e-06
-4.21248e-15
2.15984e-06
-7.49835e-15
2.55254e-06
2.94524e-06
7.72258e-16
8.6972e-17
9.81747e-07
-1.0191e-16
1.37445e-06
2.6932e-15
1.76715e-06
7.4429e-15
2.15984e-06
3.25987e-15
2.55254e-06
2.94524e-06
-2.7981e-15
-4.83904e-17
9.81747e-07
3.95558e-17
1.37445e-06
1.94383e-16
1.76715e-06
-1.80602e-15
2.15984e-06
-4.20847e-15
2.55254e-06
2.94524e-06
5.0133e-15
-1.80107e-16
9.81747e-07
4.34629e-18
1.37445e-06
-1.84774e-15
1.76715e-06
-3.88607e-15
2.15984e-06
3.15711e-15
2.55254e-06
2.94524e-06
4.98317e-16
2.53967e-16
9.81747e-07
2.55478e-16
1.37445e-06
2.06608e-15
1.76715e-06
4.50416e-15
2.15984e-06
-2.3099e-15
2.55254e-06
2.94524e-06
5.40827e-16
2.16627e-17
9.81747e-07
-3.21639e-16
1.37445e-06
-1.14881e-15
1.76715e-06
-5.28553e-15
2.15984e-06
-3.76659e-16
2.55254e-06
2.94524e-06
-5.63972e-15
-1.43397e-16
9.81747e-07
1.66439e-16
1.37445e-06
4.19117e-15
1.76715e-06
6.34948e-15
2.15984e-06
-8.05448e-16
2.55254e-06
2.94524e-06
8.3959e-16
-6.88048e-17
9.81747e-07
-9.20229e-17
1.37445e-06
-2.76934e-15
1.76715e-06
-3.68746e-16
2.15984e-06
-1.45086e-15
2.55254e-06
2.94524e-06
-1.76593e-16
1.66346e-16
9.81747e-07
-8.86978e-17
1.37445e-06
5.69766e-16
1.76715e-06
-2.10347e-15
2.15984e-06
9.65994e-15
2.55254e-06
2.94524e-06
5.29003e-15
-1.77798e-16
9.81747e-07
-2.04773e-17
1.37445e-06
-3.45398e-16
1.76715e-06
-4.17259e-15
2.15984e-06
-2.62228e-15
2.55254e-06
2.94524e-06
5.36962e-15
1.7778e-16
9.81747e-07
2.04891e-17
1.37445e-06
3.45472e-16
1.76715e-06
4.17268e-15
2.15984e-06
2.62241e-15
2.55254e-06
2.94524e-06
-5.36929e-15
-1.66331e-16
9.81747e-07
8.86735e-17
1.37445e-06
-5.69674e-16
1.76715e-06
2.10347e-15
2.15984e-06
-9.66002e-15
2.55254e-06
2.94524e-06
-5.29004e-15
6.88295e-17
9.81747e-07
9.20797e-17
1.37445e-06
2.76936e-15
1.76715e-06
3.68875e-16
2.15984e-06
1.45086e-15
2.55254e-06
2.94524e-06
1.76755e-16
1.43393e-16
9.81747e-07
-1.6638e-16
1.37445e-06
-4.19114e-15
1.76715e-06
-6.34941e-15
2.15984e-06
8.05823e-16
2.55254e-06
2.94524e-06
-8.39241e-16
-2.16548e-17
9.81747e-07
3.21735e-16
1.37445e-06
1.1489e-15
1.76715e-06
5.28565e-15
2.15984e-06
3.76903e-16
2.55254e-06
2.94524e-06
5.63989e-15
-2.53958e-16
9.81747e-07
-2.55416e-16
1.37445e-06
-2.06601e-15
1.76715e-06
-4.50409e-15
2.15984e-06
2.31002e-15
2.55254e-06
2.94524e-06
-5.40827e-16
1.80137e-16
9.81747e-07
-4.29412e-18
1.37445e-06
1.84777e-15
1.76715e-06
3.88615e-15
2.15984e-06
-3.15698e-15
2.55254e-06
2.94524e-06
-4.98232e-16
4.84008e-17
9.81747e-07
-3.95179e-17
1.37445e-06
-1.94326e-16
1.76715e-06
1.8061e-15
2.15984e-06
4.20856e-15
2.55254e-06
2.94524e-06
-5.01334e-15
-8.69261e-17
9.81747e-07
1.01951e-16
1.37445e-06
-2.69311e-15
1.76715e-06
-7.44276e-15
2.15984e-06
-3.25976e-15
2.55254e-06
2.94524e-06
2.7979e-15
1.16473e-16
9.81747e-07
-1.86357e-16
1.37445e-06
1.56245e-15
1.76715e-06
4.21262e-15
2.15984e-06
7.49854e-15
2.55254e-06
2.94524e-06
-7.7231e-16
-1.81814e-18
9.81747e-07
3.88826e-16
1.37445e-06
2.60411e-15
1.76715e-06
-1.94362e-15
2.15984e-06
-8.06623e-15
2.55254e-06
2.94524e-06
9.02995e-15
-1.36914e-16
-2.42038e-16
-3.76958e-16
1.33945e-15
3.68154e-15
-5.95127e-15
-1.1336e-14
4.53785e-06
-4.53785e-06
-4.80956e-16
5.23599e-06
-5.23599e-06
-5.35694e-15
5.93412e-06
-5.93412e-06
-1.13032e-14
6.63225e-06
-6.63225e-06
4.86942e-15
7.33038e-06
-7.33038e-06
-1.10886e-15
8.02851e-06
-8.02851e-06
-8.15742e-15
8.72664e-06
-8.72664e-06
1.30433e-14
9.42478e-06
-9.42478e-06
5.94935e-15
1.01229e-05
-1.01229e-05
-1.99561e-15
1.0821e-05
-1.0821e-05
2.4388e-14
1.15192e-05
-1.15192e-05
1.619e-14
1.22173e-05
-1.22173e-05
-3.27865e-14
1.29154e-05
-1.29154e-05
-3.05108e-15
1.36136e-05
-1.36136e-05
-1.44413e-14
1.43117e-05
-1.43117e-05
-2.69041e-14
1.50098e-05
-1.50098e-05
7.742e-15
1.5708e-05
-1.5708e-05
-4.43467e-15
1.64061e-05
-1.64061e-05
-1.79987e-14
1.71042e-05
-1.71042e-05
2.1822e-14
1.78024e-05
-1.78024e-05
8.21726e-15
1.85005e-05
-1.85005e-05
-6.07983e-15
1.91986e-05
-1.91986e-05
3.89231e-14
1.98967e-05
-1.98967e-05
2.05949e-05
-2.05949e-05
9.39925e-15
4.53785e-06
5.20738e-16
5.23599e-06
7.52892e-15
5.93412e-06
-4.41144e-15
6.63225e-06
3.78337e-15
7.33038e-06
1.33852e-14
8.02851e-06
-2.10906e-15
8.72664e-06
8.52872e-15
9.42478e-06
-1.00282e-14
1.01229e-05
1.86714e-15
1.0821e-05
-2.0201e-14
1.15192e-05
-7.01292e-15
1.22173e-05
7.51166e-15
1.29154e-05
2.36092e-14
1.36136e-05
-2.04322e-15
1.43117e-05
1.48352e-14
1.50098e-05
-1.38759e-14
1.5708e-05
2.39464e-15
1.64061e-05
2.04107e-14
1.71042e-05
-7.01776e-15
1.78024e-05
1.20677e-14
1.85005e-05
-2.59387e-14
1.91986e-05
1.8472e-15
1.98967e-05
2.05949e-05
-8.67592e-15
4.53785e-06
1.22926e-14
5.23599e-06
1.88335e-15
5.93412e-06
8.90244e-15
6.63225e-06
-5.10859e-15
7.33038e-06
-2.19905e-14
8.02851e-06
1.2265e-14
8.72664e-06
-5.37306e-15
9.42478e-06
4.45696e-15
1.01229e-05
-1.43045e-14
1.0821e-05
-7.32616e-15
1.15192e-05
7.04051e-15
1.22173e-05
2.39969e-14
1.29154e-05
-7.55499e-15
1.36136e-05
9.80135e-15
1.43117e-05
-1.6236e-14
1.50098e-05
4.02971e-14
1.5708e-05
1.44472e-14
1.64061e-05
-1.3701e-14
1.71042e-05
-7.89686e-15
1.78024e-05
-3.92505e-14
1.85005e-05
4.27532e-14
1.91986e-05
-8.85083e-15
1.98967e-05
2.05949e-05
5.98609e-15
4.53785e-06
2.19149e-16
5.23599e-06
-6.43532e-15
5.93412e-06
6.0639e-15
6.63225e-06
-2.0923e-15
7.33038e-06
1.61765e-14
8.02851e-06
-1.88306e-14
8.72664e-06
-2.34958e-15
9.42478e-06
9.17251e-15
1.01229e-05
-4.71061e-15
1.0821e-05
2.1628e-14
1.15192e-05
-2.96437e-14
1.22173e-05
-9.28861e-15
1.29154e-05
-1.89077e-14
1.36136e-05
4.46765e-15
1.43117e-05
3.01571e-14
1.50098e-05
-2.62165e-14
1.5708e-05
4.38401e-16
1.64061e-05
-2.11673e-14
1.71042e-05
1.87142e-14
1.78024e-05
-3.92103e-15
1.85005e-05
-2.91582e-14
1.91986e-05
1.52307e-14
1.98967e-05
2.05949e-05
6.71527e-15
4.53785e-06
-7.3065e-15
5.23599e-06
1.11013e-14
5.93412e-06
-4.24135e-15
6.63225e-06
1.51024e-14
7.33038e-06
-5.20867e-15
8.02851e-06
1.70128e-14
8.72664e-06
-3.93921e-15
9.42478e-06
-2.93273e-16
1.01229e-05
6.61164e-15
1.0821e-05
1.37047e-14
1.15192e-05
1.01854e-14
1.22173e-05
1.82182e-14
1.29154e-05
1.43678e-14
1.36136e-05
2.3343e-14
1.43117e-05
-2.53406e-14
1.50098e-05
2.90744e-14
1.5708e-05
-7.82702e-15
1.64061e-05
3.54209e-14
1.71042e-05
-4.51078e-15
1.78024e-05
4.23726e-14
1.85005e-05
-5.85435e-16
1.91986e-05
-8.72958e-15
1.98967e-05
2.05949e-05
-4.63036e-15
4.53785e-06
5.79746e-15
5.23599e-06
-1.61504e-14
5.93412e-06
-5.97485e-15
6.63225e-06
-8.555e-15
7.33038e-06
4.22451e-15
8.02851e-06
-8.18726e-15
8.72664e-06
6.99968e-15
9.42478e-06
-2.42288e-14
1.01229e-05
-7.76798e-15
1.0821e-05
-2.27652e-14
1.15192e-05
8.34984e-15
1.22173e-05
-7.4029e-15
1.29154e-05
2.82662e-14
1.36136e-05
-4.57113e-14
1.43117e-05
-8.21818e-15
1.50098e-05
-2.82284e-14
1.5708e-05
-2.3398e-15
1.64061e-05
-6.94661e-15
1.71042e-05
2.21553e-14
1.78024e-05
-3.4109e-14
1.85005e-05
-3.7382e-15
1.91986e-05
-3.23484e-14
1.98967e-05
2.05949e-05
-8.92497e-15
4.53785e-06
-2.28887e-15
5.23599e-06
-2.22378e-15
5.93412e-06
6.61557e-15
6.63225e-06
-3.38823e-15
7.33038e-06
-3.90661e-15
8.02851e-06
-6.41866e-15
8.72664e-06
-7.15957e-15
9.42478e-06
6.81112e-15
1.01229e-05
6.98312e-15
1.0821e-05
-9.06495e-15
1.15192e-05
6.75949e-15
1.22173e-05
-2.88873e-14
1.29154e-05
-1.22336e-14
1.36136e-05
4.80358e-15
1.43117e-05
2.50271e-14
1.50098e-05
3.86217e-15
1.5708e-05
3.61098e-15
1.64061e-05
-2.04852e-14
1.71042e-05
-2.17561e-14
1.78024e-05
3.467e-15
1.85005e-05
2.9039e-14
1.91986e-05
-1.66374e-15
1.98967e-05
2.05949e-05
6.21575e-15
4.53785e-06
-3.87932e-15
5.23599e-06
1.54226e-14
5.93412e-06
-7.06538e-15
6.63225e-06
-2.21058e-15
7.33038e-06
1.43037e-15
8.02851e-06
-5.49233e-15
8.72664e-06
1.32266e-14
9.42478e-06
6.04538e-15
1.01229e-05
-1.74506e-14
1.0821e-05
2.08872e-14
1.15192e-05
-2.14443e-14
1.22173e-05
1.91337e-14
1.29154e-05
-7.31789e-15
1.36136e-05
3.84846e-14
1.43117e-05
-1.2922e-14
1.50098e-05
-1.8829e-15
1.5708e-05
5.72148e-15
1.64061e-05
-7.58578e-15
1.71042e-05
2.766e-14
1.78024e-05
1.40999e-14
1.85005e-05
-5.31394e-14
1.91986e-05
3.90857e-14
1.98967e-05
2.05949e-05
-1.49851e-15
4.53785e-06
1.0897e-14
5.23599e-06
-6.59876e-15
5.93412e-06
7.26549e-15
6.63225e-06
6.17491e-15
7.33038e-06
2.48928e-15
8.02851e-06
-9.64335e-16
8.72664e-06
-4.36408e-15
9.42478e-06
-8.9016e-15
1.01229e-05
1.38635e-14
1.0821e-05
1.06909e-14
1.15192e-05
6.25198e-15
1.22173e-05
-1.24572e-16
1.29154e-05
-3.43707e-15
1.36136e-05
-1.10443e-14
1.43117e-05
-1.77664e-14
1.50098e-05
1.76799e-14
1.5708e-05
9.95712e-15
1.64061e-05
3.33082e-15
1.71042e-05
-3.29665e-14
1.78024e-05
-1.04228e-14
1.85005e-05
3.00687e-14
1.91986e-05
-5.99923e-14
1.98967e-05
2.05949e-05
5.17013e-15
4.53785e-06
-7.45547e-15
5.23599e-06
-7.56177e-16
5.93412e-06
6.84029e-15
6.63225e-06
-9.97416e-15
7.33038e-06
-1.66405e-15
8.02851e-06
9.21971e-15
8.72664e-06
-1.34588e-14
9.42478e-06
2.32208e-14
1.01229e-05
1.04726e-14
1.0821e-05
-1.72731e-14
1.15192e-05
-3.02471e-15
1.22173e-05
1.13982e-14
1.29154e-05
-1.98147e-14
1.36136e-05
-4.67759e-15
1.43117e-05
5.03065e-14
1.50098e-05
-2.40462e-14
1.5708e-05
-6.65621e-15
1.64061e-05
1.42634e-14
1.71042e-05
1.65405e-15
1.78024e-05
-6.81505e-15
1.85005e-05
1.44435e-14
1.91986e-05
5.07563e-14
1.98967e-05
2.05949e-05
-6.19734e-15
4.53785e-06
2.87114e-17
5.23599e-06
1.15122e-14
5.93412e-06
-2.06259e-14
6.63225e-06
5.3675e-15
7.33038e-06
1.22185e-15
8.02851e-06
-4.7456e-17
8.72664e-06
1.23949e-14
9.42478e-06
-1.3225e-14
1.01229e-05
-1.88945e-14
1.0821e-05
-4.96366e-15
1.15192e-05
-7.15144e-15
1.22173e-05
-1.48867e-14
1.29154e-05
3.53367e-14
1.36136e-05
-2.93843e-19
1.43117e-05
-4.31368e-14
1.50098e-05
1.3565e-14
1.5708e-05
-2.82521e-14
1.64061e-05
2.45558e-15
1.71042e-05
-1.02405e-14
1.78024e-05
2.38039e-14
1.85005e-05
1.38765e-14
1.91986e-05
-4.55625e-14
1.98967e-05
2.05949e-05
-1.90661e-15
4.53785e-06
1.13063e-15
5.23599e-06
-2.16614e-14
5.93412e-06
9.62428e-15
6.63225e-06
1.51379e-14
7.33038e-06
-1.40647e-14
8.02851e-06
8.092e-15
8.72664e-06
-2.69587e-14
9.42478e-06
-1.96411e-15
1.01229e-05
2.97164e-14
1.0821e-05
-1.17441e-14
1.15192e-05
1.98677e-14
1.22173e-05
-2.74444e-14
1.29154e-05
-2.06154e-14
1.36136e-05
1.60413e-14
1.43117e-05
-4.61206e-15
1.50098e-05
4.69146e-15
1.5708e-05
4.79691e-14
1.64061e-05
-1.37366e-14
1.71042e-05
3.2368e-14
1.78024e-05
-3.51838e-14
1.85005e-05
-2.49035e-14
1.91986e-05
7.19176e-14
1.98967e-05
2.05949e-05
1.9065e-15
4.53785e-06
-1.13024e-15
5.23599e-06
2.16625e-14
5.93412e-06
-9.62415e-15
6.63225e-06
-1.51367e-14
7.33038e-06
1.40667e-14
8.02851e-06
-8.09273e-15
8.72664e-06
2.69607e-14
9.42478e-06
1.96575e-15
1.01229e-05
-2.97157e-14
1.0821e-05
1.17455e-14
1.15192e-05
-1.98659e-14
1.22173e-05
2.74458e-14
1.29154e-05
2.06151e-14
1.36136e-05
-1.60396e-14
1.43117e-05
4.61249e-15
1.50098e-05
-4.69045e-15
1.5708e-05
-4.7967e-14
1.64061e-05
1.37428e-14
1.71042e-05
-3.23709e-14
1.78024e-05
3.51848e-14
1.85005e-05
2.49105e-14
1.91986e-05
-7.19166e-14
1.98967e-05
2.05949e-05
6.19721e-15
4.53785e-06
-2.84855e-17
5.23599e-06
-1.15115e-14
5.93412e-06
2.06261e-14
6.63225e-06
-5.36663e-15
7.33038e-06
-1.22095e-15
8.02851e-06
4.72785e-17
8.72664e-06
-1.23935e-14
9.42478e-06
1.32251e-14
1.01229e-05
1.88949e-14
1.0821e-05
4.96273e-15
1.15192e-05
7.15374e-15
1.22173e-05
1.48861e-14
1.29154e-05
-3.5339e-14
1.36136e-05
3.3749e-18
1.43117e-05
4.31376e-14
1.50098e-05
-1.35646e-14
1.5708e-05
2.82557e-14
1.64061e-05
-2.45154e-15
1.71042e-05
1.02412e-14
1.78024e-05
-2.38045e-14
1.85005e-05
-1.38704e-14
1.91986e-05
4.55612e-14
1.98967e-05
2.05949e-05
-5.17012e-15
4.53785e-06
7.45579e-15
5.23599e-06
7.56463e-16
5.93412e-06
-6.83966e-15
6.63225e-06
9.97448e-15
7.33038e-06
1.66493e-15
8.02851e-06
-9.21876e-15
8.72664e-06
1.34606e-14
9.42478e-06
-2.32215e-14
1.01229e-05
-1.04721e-14
1.0821e-05
1.72717e-14
1.15192e-05
3.02585e-15
1.22173e-05
-1.13966e-14
1.29154e-05
1.98178e-14
1.36136e-05
4.6808e-15
1.43117e-05
-5.0303e-14
1.50098e-05
2.40418e-14
1.5708e-05
6.65973e-15
1.64061e-05
-1.4258e-14
1.71042e-05
-1.64939e-15
1.78024e-05
6.81013e-15
1.85005e-05
-1.44429e-14
1.91986e-05
-5.0755e-14
1.98967e-05
2.05949e-05
1.49855e-15
4.53785e-06
-1.08967e-14
5.23599e-06
6.59968e-15
5.93412e-06
-7.26549e-15
6.63225e-06
-6.17472e-15
7.33038e-06
-2.48744e-15
8.02851e-06
9.65363e-16
8.72664e-06
4.36551e-15
9.42478e-06
8.89982e-15
1.01229e-05
-1.38631e-14
1.0821e-05
-1.069e-14
1.15192e-05
-6.25255e-15
1.22173e-05
1.26703e-16
1.29154e-05
3.43824e-15
1.36136e-05
1.10453e-14
1.43117e-05
1.77655e-14
1.50098e-05
-1.76817e-14
1.5708e-05
-9.94975e-15
1.64061e-05
-3.32619e-15
1.71042e-05
3.29744e-14
1.78024e-05
1.04206e-14
1.85005e-05
-3.0065e-14
1.91986e-05
5.99944e-14
1.98967e-05
2.05949e-05
-6.21565e-15
4.53785e-06
3.87922e-15
5.23599e-06
-1.54218e-14
5.93412e-06
7.06512e-15
6.63225e-06
2.21102e-15
7.33038e-06
-1.42865e-15
8.02851e-06
5.49328e-15
8.72664e-06
-1.32254e-14
9.42478e-06
-6.04525e-15
1.01229e-05
1.74507e-14
1.0821e-05
-2.08874e-14
1.15192e-05
2.14456e-14
1.22173e-05
-1.91348e-14
1.29154e-05
7.31508e-15
1.36136e-05
-3.84837e-14
1.43117e-05
1.29248e-14
1.50098e-05
1.88485e-15
1.5708e-05
-5.71461e-15
1.64061e-05
7.58589e-15
1.71042e-05
-2.76571e-14
1.78024e-05
-1.40991e-14
1.85005e-05
5.31395e-14
1.91986e-05
-3.90837e-14
1.98967e-05
2.05949e-05
8.92513e-15
4.53785e-06
2.28863e-15
5.23599e-06
2.22444e-15
5.93412e-06
-6.61642e-15
6.63225e-06
3.38757e-15
7.33038e-06
3.90748e-15
8.02851e-06
6.41891e-15
8.72664e-06
7.15844e-15
9.42478e-06
-6.80922e-15
1.01229e-05
-6.98269e-15
1.0821e-05
9.0664e-15
1.15192e-05
-6.75836e-15
1.22173e-05
2.88903e-14
1.29154e-05
1.2233e-14
1.36136e-05
-4.80361e-15
1.43117e-05
-2.50247e-14
1.50098e-05
-3.85741e-15
1.5708e-05
-3.60661e-15
1.64061e-05
2.04839e-14
1.71042e-05
2.17588e-14
1.78024e-05
-3.4661e-15
1.85005e-05
-2.9045e-14
1.91986e-05
1.66252e-15
1.98967e-05
2.05949e-05
4.63042e-15
4.53785e-06
-5.79747e-15
5.23599e-06
1.61507e-14
5.93412e-06
5.9747e-15
6.63225e-06
8.55486e-15
7.33038e-06
-4.22349e-15
8.02851e-06
8.1878e-15
8.72664e-06
-6.99965e-15
9.42478e-06
2.42295e-14
1.01229e-05
7.76992e-15
1.0821e-05
2.2764e-14
1.15192e-05
-8.34829e-15
1.22173e-05
7.40506e-15
1.29154e-05
-2.8266e-14
1.36136e-05
4.57114e-14
1.43117e-05
8.22247e-15
1.50098e-05
2.82273e-14
1.5708e-05
2.33777e-15
1.64061e-05
6.94558e-15
1.71042e-05
-2.21512e-14
1.78024e-05
3.41088e-14
1.85005e-05
3.73909e-15
1.91986e-05
3.23443e-14
1.98967e-05
2.05949e-05
-6.7149e-15
4.53785e-06
7.30677e-15
5.23599e-06
-1.11011e-14
5.93412e-06
4.2414e-15
6.63225e-06
-1.51023e-14
7.33038e-06
5.20993e-15
8.02851e-06
-1.70127e-14
8.72664e-06
3.94029e-15
9.42478e-06
2.94398e-16
1.01229e-05
-6.61069e-15
1.0821e-05
-1.3706e-14
1.15192e-05
-1.01829e-14
1.22173e-05
-1.8217e-14
1.29154e-05
-1.43679e-14
1.36136e-05
-2.33396e-14
1.43117e-05
2.53453e-14
1.50098e-05
-2.90731e-14
1.5708e-05
7.82674e-15
1.64061e-05
-3.54176e-14
1.71042e-05
4.51378e-15
1.78024e-05
-4.23713e-14
1.85005e-05
5.86962e-16
1.91986e-05
8.73128e-15
1.98967e-05
2.05949e-05
-5.98565e-15
4.53785e-06
-2.19076e-16
5.23599e-06
6.43589e-15
5.93412e-06
-6.06407e-15
6.63225e-06
2.09233e-15
7.33038e-06
-1.61763e-14
8.02851e-06
1.8831e-14
8.72664e-06
2.35101e-15
9.42478e-06
-9.17119e-15
1.01229e-05
4.71015e-15
1.0821e-05
-2.16272e-14
1.15192e-05
2.96449e-14
1.22173e-05
9.29054e-15
1.29154e-05
1.89093e-14
1.36136e-05
-4.46589e-15
1.43117e-05
-3.01553e-14
1.50098e-05
2.62176e-14
1.5708e-05
-4.34904e-16
1.64061e-05
2.11735e-14
1.71042e-05
-1.87146e-14
1.78024e-05
3.92177e-15
1.85005e-05
2.91643e-14
1.91986e-05
-1.52339e-14
1.98967e-05
2.05949e-05
8.67613e-15
4.53785e-06
-1.22924e-14
5.23599e-06
-1.88328e-15
5.93412e-06
-8.90216e-15
6.63225e-06
5.10844e-15
7.33038e-06
2.19908e-14
8.02851e-06
-1.22648e-14
8.72664e-06
5.37429e-15
9.42478e-06
-4.45557e-15
1.01229e-05
1.43056e-14
1.0821e-05
7.32593e-15
1.15192e-05
-7.03979e-15
1.22173e-05
-2.39948e-14
1.29154e-05
7.55442e-15
1.36136e-05
-9.79899e-15
1.43117e-05
1.62374e-14
1.50098e-05
-4.02924e-14
1.5708e-05
-1.44435e-14
1.64061e-05
1.37058e-14
1.71042e-05
7.89356e-15
1.78024e-05
3.92534e-14
1.85005e-05
-4.27493e-14
1.91986e-05
8.84929e-15
1.98967e-05
2.05949e-05
-9.39863e-15
4.53785e-06
-5.20145e-16
5.23599e-06
-7.52827e-15
5.93412e-06
4.41155e-15
6.63225e-06
-3.7827e-15
7.33038e-06
-1.33846e-14
8.02851e-06
2.10857e-15
8.72664e-06
-8.52836e-15
9.42478e-06
1.00268e-14
1.01229e-05
-1.86535e-15
1.0821e-05
2.02027e-14
1.15192e-05
7.01413e-15
1.22173e-05
-7.5111e-15
1.29154e-05
-2.36084e-14
1.36136e-05
2.04235e-15
1.43117e-05
-1.48334e-14
1.50098e-05
1.38788e-14
1.5708e-05
-2.38931e-15
1.64061e-05
-2.04093e-14
1.71042e-05
7.0179e-15
1.78024e-05
-1.2067e-14
1.85005e-05
2.59429e-14
1.91986e-05
-1.84467e-15
1.98967e-05
2.05949e-05
1.13362e-14
4.53785e-06
4.81651e-16
5.23599e-06
5.35735e-15
5.93412e-06
1.13034e-14
6.63225e-06
-4.86873e-15
7.33038e-06
1.1101e-15
8.02851e-06
8.15869e-15
8.72664e-06
-1.30447e-14
9.42478e-06
-5.94995e-15
1.01229e-05
1.99723e-15
1.0821e-05
-2.43858e-14
1.15192e-05
-1.61897e-14
1.22173e-05
3.27864e-14
1.29154e-05
3.05262e-15
1.36136e-05
1.44413e-14
1.43117e-05
2.6902e-14
1.50098e-05
-7.73801e-15
1.5708e-05
4.44039e-15
1.64061e-05
1.80015e-14
1.71042e-05
-2.18208e-14
1.78024e-05
-8.21368e-15
1.85005e-05
6.0865e-15
1.91986e-05
-3.89139e-14
1.98967e-05
2.05949e-05
1.36966e-16
9.81747e-07
2.42096e-16
1.37445e-06
3.76962e-16
1.76715e-06
-1.3392e-15
2.15984e-06
-3.68149e-15
2.55254e-06
2.94524e-06
5.95143e-15
1.85443e-18
9.81747e-07
-3.88808e-16
1.37445e-06
-2.60424e-15
1.76715e-06
1.94372e-15
2.15984e-06
8.06636e-15
2.55254e-06
2.94524e-06
-9.02972e-15
-1.16441e-16
9.81747e-07
1.86414e-16
1.37445e-06
-1.56226e-15
1.76715e-06
-4.21248e-15
2.15984e-06
-7.49835e-15
2.55254e-06
2.94524e-06
7.72258e-16
8.6972e-17
9.81747e-07
-1.0191e-16
1.37445e-06
2.6932e-15
1.76715e-06
7.4429e-15
2.15984e-06
3.25987e-15
2.55254e-06
2.94524e-06
-2.7981e-15
-4.83904e-17
9.81747e-07
3.95558e-17
1.37445e-06
1.94383e-16
1.76715e-06
-1.80602e-15
2.15984e-06
-4.20847e-15
2.55254e-06
2.94524e-06
5.0133e-15
-1.80107e-16
9.81747e-07
4.34629e-18
1.37445e-06
-1.84774e-15
1.76715e-06
-3.88607e-15
2.15984e-06
3.15711e-15
2.55254e-06
2.94524e-06
4.98317e-16
2.53967e-16
9.81747e-07
2.55478e-16
1.37445e-06
2.06608e-15
1.76715e-06
4.50416e-15
2.15984e-06
-2.3099e-15
2.55254e-06
2.94524e-06
5.40827e-16
2.16627e-17
9.81747e-07
-3.21639e-16
1.37445e-06
-1.14881e-15
1.76715e-06
-5.28553e-15
2.15984e-06
-3.76659e-16
2.55254e-06
2.94524e-06
-5.63972e-15
-1.43397e-16
9.81747e-07
1.66439e-16
1.37445e-06
4.19117e-15
1.76715e-06
6.34948e-15
2.15984e-06
-8.05448e-16
2.55254e-06
2.94524e-06
8.3959e-16
-6.88048e-17
9.81747e-07
-9.20229e-17
1.37445e-06
-2.76934e-15
1.76715e-06
-3.68746e-16
2.15984e-06
-1.45086e-15
2.55254e-06
2.94524e-06
-1.76593e-16
1.66346e-16
9.81747e-07
-8.86978e-17
1.37445e-06
5.69766e-16
1.76715e-06
-2.10347e-15
2.15984e-06
9.65994e-15
2.55254e-06
2.94524e-06
5.29003e-15
-1.77798e-16
9.81747e-07
-2.04773e-17
1.37445e-06
-3.45398e-16
1.76715e-06
-4.17259e-15
2.15984e-06
-2.62228e-15
2.55254e-06
2.94524e-06
5.36962e-15
1.7778e-16
9.81747e-07
2.04891e-17
1.37445e-06
3.45472e-16
1.76715e-06
4.17268e-15
2.15984e-06
2.62241e-15
2.55254e-06
2.94524e-06
-5.36929e-15
-1.66331e-16
9.81747e-07
8.86735e-17
1.37445e-06
-5.69674e-16
1.76715e-06
2.10347e-15
2.15984e-06
-9.66002e-15
2.55254e-06
2.94524e-06
-5.29004e-15
6.88295e-17
9.81747e-07
9.20797e-17
1.37445e-06
2.76936e-15
1.76715e-06
3.68875e-16
2.15984e-06
1.45086e-15
2.55254e-06
2.94524e-06
1.76755e-16
1.43393e-16
9.81747e-07
-1.6638e-16
1.37445e-06
-4.19114e-15
1.76715e-06
-6.34941e-15
2.15984e-06
8.05823e-16
2.55254e-06
2.94524e-06
-8.39241e-16
-2.16548e-17
9.81747e-07
3.21735e-16
1.37445e-06
1.1489e-15
1.76715e-06
5.28565e-15
2.15984e-06
3.76903e-16
2.55254e-06
2.94524e-06
5.63989e-15
-2.53958e-16
9.81747e-07
-2.55416e-16
1.37445e-06
-2.06601e-15
1.76715e-06
-4.50409e-15
2.15984e-06
2.31002e-15
2.55254e-06
2.94524e-06
-5.40827e-16
1.80137e-16
9.81747e-07
-4.29412e-18
1.37445e-06
1.84777e-15
1.76715e-06
3.88615e-15
2.15984e-06
-3.15698e-15
2.55254e-06
2.94524e-06
-4.98232e-16
4.84008e-17
9.81747e-07
-3.95179e-17
1.37445e-06
-1.94326e-16
1.76715e-06
1.8061e-15
2.15984e-06
4.20856e-15
2.55254e-06
2.94524e-06
-5.01334e-15
-8.69261e-17
9.81747e-07
1.01951e-16
1.37445e-06
-2.69311e-15
1.76715e-06
-7.44276e-15
2.15984e-06
-3.25976e-15
2.55254e-06
2.94524e-06
2.7979e-15
1.16473e-16
9.81747e-07
-1.86357e-16
1.37445e-06
1.56245e-15
1.76715e-06
4.21262e-15
2.15984e-06
7.49854e-15
2.55254e-06
2.94524e-06
-7.7231e-16
-1.81814e-18
9.81747e-07
3.88826e-16
1.37445e-06
2.60411e-15
1.76715e-06
-1.94362e-15
2.15984e-06
-8.06623e-15
2.55254e-06
2.94524e-06
9.02995e-15
-1.36925e-16
-2.42054e-16
-3.77004e-16
1.33936e-15
3.68161e-15
-5.95127e-15
-1.13359e-14
4.53785e-06
-4.80876e-16
5.23599e-06
-5.35681e-15
5.93412e-06
-1.13031e-14
6.63225e-06
4.86957e-15
7.33038e-06
-1.10892e-15
8.02851e-06
-8.15761e-15
8.72664e-06
1.30443e-14
9.42478e-06
5.94937e-15
1.01229e-05
-1.9956e-15
1.0821e-05
2.4387e-14
1.15192e-05
1.619e-14
1.22173e-05
-3.27865e-14
1.29154e-05
-3.05108e-15
1.36136e-05
-1.44434e-14
1.43117e-05
-2.69019e-14
1.50098e-05
7.74242e-15
1.5708e-05
-4.4357e-15
1.64061e-05
-1.80006e-14
1.71042e-05
2.18202e-14
1.78024e-05
8.21645e-15
1.85005e-05
-6.08017e-15
1.91986e-05
3.89215e-14
1.98967e-05
2.05949e-05
9.39925e-15
4.53785e-06
5.20738e-16
5.23599e-06
7.52892e-15
5.93412e-06
-4.41144e-15
6.63225e-06
3.78337e-15
7.33038e-06
1.33852e-14
8.02851e-06
-2.10906e-15
8.72664e-06
8.52872e-15
9.42478e-06
-1.00282e-14
1.01229e-05
1.86714e-15
1.0821e-05
-2.0201e-14
1.15192e-05
-7.01292e-15
1.22173e-05
7.51166e-15
1.29154e-05
2.36092e-14
1.36136e-05
-2.04322e-15
1.43117e-05
1.48352e-14
1.50098e-05
-1.38759e-14
1.5708e-05
2.39464e-15
1.64061e-05
2.04107e-14
1.71042e-05
-7.01776e-15
1.78024e-05
1.20677e-14
1.85005e-05
-2.59387e-14
1.91986e-05
1.8472e-15
1.98967e-05
2.05949e-05
-8.67592e-15
4.53785e-06
1.22926e-14
5.23599e-06
1.88335e-15
5.93412e-06
8.90244e-15
6.63225e-06
-5.10859e-15
7.33038e-06
-2.19905e-14
8.02851e-06
1.2265e-14
8.72664e-06
-5.37306e-15
9.42478e-06
4.45696e-15
1.01229e-05
-1.43045e-14
1.0821e-05
-7.32616e-15
1.15192e-05
7.04051e-15
1.22173e-05
2.39969e-14
1.29154e-05
-7.55499e-15
1.36136e-05
9.80135e-15
1.43117e-05
-1.6236e-14
1.50098e-05
4.02971e-14
1.5708e-05
1.44472e-14
1.64061e-05
-1.3701e-14
1.71042e-05
-7.89686e-15
1.78024e-05
-3.92505e-14
1.85005e-05
4.27532e-14
1.91986e-05
-8.85083e-15
1.98967e-05
2.05949e-05
5.98609e-15
4.53785e-06
2.19149e-16
5.23599e-06
-6.43532e-15
5.93412e-06
6.0639e-15
6.63225e-06
-2.0923e-15
7.33038e-06
1.61765e-14
8.02851e-06
-1.88306e-14
8.72664e-06
-2.34958e-15
9.42478e-06
9.17251e-15
1.01229e-05
-4.71061e-15
1.0821e-05
2.1628e-14
1.15192e-05
-2.96437e-14
1.22173e-05
-9.28861e-15
1.29154e-05
-1.89077e-14
1.36136e-05
4.46765e-15
1.43117e-05
3.01571e-14
1.50098e-05
-2.62165e-14
1.5708e-05
4.38401e-16
1.64061e-05
-2.11673e-14
1.71042e-05
1.87142e-14
1.78024e-05
-3.92103e-15
1.85005e-05
-2.91582e-14
1.91986e-05
1.52307e-14
1.98967e-05
2.05949e-05
6.71527e-15
4.53785e-06
-7.3065e-15
5.23599e-06
1.11013e-14
5.93412e-06
-4.24135e-15
6.63225e-06
1.51024e-14
7.33038e-06
-5.20867e-15
8.02851e-06
1.70128e-14
8.72664e-06
-3.93921e-15
9.42478e-06
-2.93273e-16
1.01229e-05
6.61164e-15
1.0821e-05
1.37047e-14
1.15192e-05
1.01854e-14
1.22173e-05
1.82182e-14
1.29154e-05
1.43678e-14
1.36136e-05
2.3343e-14
1.43117e-05
-2.53406e-14
1.50098e-05
2.90744e-14
1.5708e-05
-7.82702e-15
1.64061e-05
3.54209e-14
1.71042e-05
-4.51078e-15
1.78024e-05
4.23726e-14
1.85005e-05
-5.85435e-16
1.91986e-05
-8.72958e-15
1.98967e-05
2.05949e-05
-4.63036e-15
4.53785e-06
5.79746e-15
5.23599e-06
-1.61504e-14
5.93412e-06
-5.97485e-15
6.63225e-06
-8.555e-15
7.33038e-06
4.22451e-15
8.02851e-06
-8.18726e-15
8.72664e-06
6.99968e-15
9.42478e-06
-2.42288e-14
1.01229e-05
-7.76798e-15
1.0821e-05
-2.27652e-14
1.15192e-05
8.34984e-15
1.22173e-05
-7.4029e-15
1.29154e-05
2.82662e-14
1.36136e-05
-4.57113e-14
1.43117e-05
-8.21818e-15
1.50098e-05
-2.82284e-14
1.5708e-05
-2.3398e-15
1.64061e-05
-6.94661e-15
1.71042e-05
2.21553e-14
1.78024e-05
-3.4109e-14
1.85005e-05
-3.7382e-15
1.91986e-05
-3.23484e-14
1.98967e-05
2.05949e-05
-8.92497e-15
4.53785e-06
-2.28887e-15
5.23599e-06
-2.22378e-15
5.93412e-06
6.61557e-15
6.63225e-06
-3.38823e-15
7.33038e-06
-3.90661e-15
8.02851e-06
-6.41866e-15
8.72664e-06
-7.15957e-15
9.42478e-06
6.81112e-15
1.01229e-05
6.98312e-15
1.0821e-05
-9.06495e-15
1.15192e-05
6.75949e-15
1.22173e-05
-2.88873e-14
1.29154e-05
-1.22336e-14
1.36136e-05
4.80358e-15
1.43117e-05
2.50271e-14
1.50098e-05
3.86217e-15
1.5708e-05
3.61098e-15
1.64061e-05
-2.04852e-14
1.71042e-05
-2.17561e-14
1.78024e-05
3.467e-15
1.85005e-05
2.9039e-14
1.91986e-05
-1.66374e-15
1.98967e-05
2.05949e-05
6.21575e-15
4.53785e-06
-3.87932e-15
5.23599e-06
1.54226e-14
5.93412e-06
-7.06538e-15
6.63225e-06
-2.21058e-15
7.33038e-06
1.43037e-15
8.02851e-06
-5.49233e-15
8.72664e-06
1.32266e-14
9.42478e-06
6.04538e-15
1.01229e-05
-1.74506e-14
1.0821e-05
2.08872e-14
1.15192e-05
-2.14443e-14
1.22173e-05
1.91337e-14
1.29154e-05
-7.31789e-15
1.36136e-05
3.84846e-14
1.43117e-05
-1.2922e-14
1.50098e-05
-1.8829e-15
1.5708e-05
5.72148e-15
1.64061e-05
-7.58578e-15
1.71042e-05
2.766e-14
1.78024e-05
1.40999e-14
1.85005e-05
-5.31394e-14
1.91986e-05
3.90857e-14
1.98967e-05
2.05949e-05
-1.49851e-15
4.53785e-06
1.0897e-14
5.23599e-06
-6.59876e-15
5.93412e-06
7.26549e-15
6.63225e-06
6.17491e-15
7.33038e-06
2.48928e-15
8.02851e-06
-9.64335e-16
8.72664e-06
-4.36408e-15
9.42478e-06
-8.9016e-15
1.01229e-05
1.38635e-14
1.0821e-05
1.06909e-14
1.15192e-05
6.25198e-15
1.22173e-05
-1.24572e-16
1.29154e-05
-3.43707e-15
1.36136e-05
-1.10443e-14
1.43117e-05
-1.77664e-14
1.50098e-05
1.76799e-14
1.5708e-05
9.95712e-15
1.64061e-05
3.33082e-15
1.71042e-05
-3.29665e-14
1.78024e-05
-1.04228e-14
1.85005e-05
3.00687e-14
1.91986e-05
-5.99923e-14
1.98967e-05
2.05949e-05
5.17013e-15
4.53785e-06
-7.45547e-15
5.23599e-06
-7.56177e-16
5.93412e-06
6.84029e-15
6.63225e-06
-9.97416e-15
7.33038e-06
-1.66405e-15
8.02851e-06
9.21971e-15
8.72664e-06
-1.34588e-14
9.42478e-06
2.32208e-14
1.01229e-05
1.04726e-14
1.0821e-05
-1.72731e-14
1.15192e-05
-3.02471e-15
1.22173e-05
1.13982e-14
1.29154e-05
-1.98147e-14
1.36136e-05
-4.67759e-15
1.43117e-05
5.03065e-14
1.50098e-05
-2.40462e-14
1.5708e-05
-6.65621e-15
1.64061e-05
1.42634e-14
1.71042e-05
1.65405e-15
1.78024e-05
-6.81505e-15
1.85005e-05
1.44435e-14
1.91986e-05
5.07563e-14
1.98967e-05
2.05949e-05
-6.19734e-15
4.53785e-06
2.87114e-17
5.23599e-06
1.15122e-14
5.93412e-06
-2.06259e-14
6.63225e-06
5.3675e-15
7.33038e-06
1.22185e-15
8.02851e-06
-4.7456e-17
8.72664e-06
1.23949e-14
9.42478e-06
-1.3225e-14
1.01229e-05
-1.88945e-14
1.0821e-05
-4.96366e-15
1.15192e-05
-7.15144e-15
1.22173e-05
-1.48867e-14
1.29154e-05
3.53367e-14
1.36136e-05
-2.93843e-19
1.43117e-05
-4.31368e-14
1.50098e-05
1.3565e-14
1.5708e-05
-2.82521e-14
1.64061e-05
2.45558e-15
1.71042e-05
-1.02405e-14
1.78024e-05
2.38039e-14
1.85005e-05
1.38765e-14
1.91986e-05
-4.55625e-14
1.98967e-05
2.05949e-05
-1.90661e-15
4.53785e-06
1.13063e-15
5.23599e-06
-2.16614e-14
5.93412e-06
9.62428e-15
6.63225e-06
1.51379e-14
7.33038e-06
-1.40647e-14
8.02851e-06
8.092e-15
8.72664e-06
-2.69587e-14
9.42478e-06
-1.96411e-15
1.01229e-05
2.97164e-14
1.0821e-05
-1.17441e-14
1.15192e-05
1.98677e-14
1.22173e-05
-2.74444e-14
1.29154e-05
-2.06154e-14
1.36136e-05
1.60413e-14
1.43117e-05
-4.61206e-15
1.50098e-05
4.69146e-15
1.5708e-05
4.79691e-14
1.64061e-05
-1.37366e-14
1.71042e-05
3.2368e-14
1.78024e-05
-3.51838e-14
1.85005e-05
-2.49035e-14
1.91986e-05
7.19176e-14
1.98967e-05
2.05949e-05
1.9065e-15
4.53785e-06
-1.13024e-15
5.23599e-06
2.16625e-14
5.93412e-06
-9.62415e-15
6.63225e-06
-1.51367e-14
7.33038e-06
1.40667e-14
8.02851e-06
-8.09273e-15
8.72664e-06
2.69607e-14
9.42478e-06
1.96575e-15
1.01229e-05
-2.97157e-14
1.0821e-05
1.17455e-14
1.15192e-05
-1.98659e-14
1.22173e-05
2.74458e-14
1.29154e-05
2.06151e-14
1.36136e-05
-1.60396e-14
1.43117e-05
4.61249e-15
1.50098e-05
-4.69045e-15
1.5708e-05
-4.7967e-14
1.64061e-05
1.37428e-14
1.71042e-05
-3.23709e-14
1.78024e-05
3.51848e-14
1.85005e-05
2.49105e-14
1.91986e-05
-7.19166e-14
1.98967e-05
2.05949e-05
6.19721e-15
4.53785e-06
-2.84855e-17
5.23599e-06
-1.15115e-14
5.93412e-06
2.06261e-14
6.63225e-06
-5.36663e-15
7.33038e-06
-1.22095e-15
8.02851e-06
4.72785e-17
8.72664e-06
-1.23935e-14
9.42478e-06
1.32251e-14
1.01229e-05
1.88949e-14
1.0821e-05
4.96273e-15
1.15192e-05
7.15374e-15
1.22173e-05
1.48861e-14
1.29154e-05
-3.5339e-14
1.36136e-05
3.3749e-18
1.43117e-05
4.31376e-14
1.50098e-05
-1.35646e-14
1.5708e-05
2.82557e-14
1.64061e-05
-2.45154e-15
1.71042e-05
1.02412e-14
1.78024e-05
-2.38045e-14
1.85005e-05
-1.38704e-14
1.91986e-05
4.55612e-14
1.98967e-05
2.05949e-05
-5.17012e-15
4.53785e-06
7.45579e-15
5.23599e-06
7.56463e-16
5.93412e-06
-6.83966e-15
6.63225e-06
9.97448e-15
7.33038e-06
1.66493e-15
8.02851e-06
-9.21876e-15
8.72664e-06
1.34606e-14
9.42478e-06
-2.32215e-14
1.01229e-05
-1.04721e-14
1.0821e-05
1.72717e-14
1.15192e-05
3.02585e-15
1.22173e-05
-1.13966e-14
1.29154e-05
1.98178e-14
1.36136e-05
4.6808e-15
1.43117e-05
-5.0303e-14
1.50098e-05
2.40418e-14
1.5708e-05
6.65973e-15
1.64061e-05