/*--------------------------------*- C++ -*----------------------------------*\
  =========                 |
  \\      /  F ield         | OpenFOAM: The Open Source CFD Toolbox
   \\    /   O peration     | Website:  https://openfoam.org
    \\  /    A nd           | Version:  11
     \\/     M anipulation  |
\*---------------------------------------------------------------------------*/
FoamFile
{
    format      ascii;
    class       volScalarField;
    location    "0.16";
    object      nut;
}
// * * * * * * * * * * * * * * * * * * * * * * * * * * * * * * * * * * * * * //

dimensions      [0 2 -1 0 0 0 0];

internalField   nonuniform List<scalar> 
2880
(
1.81759e-06
5.19245e-06
9.25365e-06
1.51502e-05
2.58933e-05
0.000111375
4.52532e-05
6.02079e-05
7.38412e-05
9.58989e-05
0.000129697
0.000226148
5.52436e-05
9.43414e-05
0.000134003
0.000167775
0.000222277
0.000324558
5.92362e-05
0.000117626
0.000186224
0.000230667
0.000298039
0.000394416
6.19225e-05
0.000144442
0.000235623
0.000291787
0.0003621
0.000447247
6.39445e-05
0.000174667
0.000284304
0.00035
0.000417425
0.000488622
6.5581e-05
0.000207263
0.00033154
0.000403664
0.000465418
0.000521424
6.69439e-05
0.000240877
0.000375977
0.000451794
0.000506925
0.000547663
6.8084e-05
0.000273972
0.000416425
0.000494133
0.000540886
0.000570426
6.90317e-05
0.000304814
0.000451955
0.000529907
0.000568957
0.000592263
6.98097e-05
0.000331519
0.00048191
0.000559605
0.000593641
0.00061346
7.04387e-05
0.000352129
0.000505822
0.000584426
0.000617229
0.00063567
7.0941e-05
0.000364689
0.000523193
0.000605803
0.000640688
0.000659219
7.11344e-05
0.000370377
0.000534194
0.000624187
0.000664002
0.000684685
7.10258e-05
0.000369841
0.000538689
0.00063897
0.000687229
0.000712805
7.0516e-05
0.000362645
0.000535808
0.000648819
0.000709506
0.00074361
6.95762e-05
0.000347278
0.000524116
0.000651459
0.000728367
0.000776054
6.81433e-05
0.000324062
0.000501148
0.000643496
0.000739268
0.000807968
6.60994e-05
0.000290873
0.000465765
0.000619816
0.000734662
0.000827869
6.33682e-05
0.000247385
0.000414724
0.000575621
0.000703824
0.000822128
5.95472e-05
0.00019312
0.000345551
0.00050393
0.000633933
0.000771224
5.40937e-05
0.000128626
0.000256686
0.000398523
0.000513725
0.000639062
3.99141e-05
6.03193e-05
0.000148243
0.000256018
0.00034206
0.0003738
1.82322e-06
1.53458e-05
5.29306e-05
0.000103736
0.000162294
4.95494e-05
0.000486824
0.00109286
0.00149384
0.00168099
0.00180169
0.00196699
0.00223674
0.00261325
0.00306051
0.00353154
0.00396514
0.0043473
0.00466752
0.00491583
0.00508344
0.0051648
0.00515949
0.00507306
0.00491623
0.00470295
0.00444772
0.00416384
0.00386315
0.00355436
0.000482418
0.00101607
0.00138706
0.00159188
0.00172455
0.00188836
0.00214563
0.002507
0.00294431
0.00341509
0.00386005
0.00426012
0.00460235
0.00487532
0.00506921
0.00517736
0.00519789
0.0051343
0.00499489
0.00479108
0.00453519
0.00423908
0.00391417
0.00357103
0.000489885
0.000938542
0.0013219
0.0015108
0.00165297
0.00181517
0.00205996
0.00240449
0.00282833
0.00329387
0.00374574
0.0041607
0.00452308
0.00481963
0.00503922
0.0051739
0.00522022
0.0051797
0.0050583
0.00486496
0.00460971
0.00430258
0.00395418
0.00357867
0.000506116
0.000896424
0.00126728
0.00144282
0.00158762
0.00174703
0.00197922
0.00230567
0.00271299
0.00316891
0.00362306
0.00404948
0.00442971
0.00474847
0.00499302
0.00515393
0.00522605
0.00520887
0.00510605
0.00492401
0.00467033
0.00435276
0.00398046
0.00357331
0.000527412
0.000867116
0.00120732
0.00138488
0.00152782
0.00168295
0.00190236
0.00220985
0.00259819
0.0030406
0.00349264
0.00392692
0.00432249
0.00466192
0.00493069
0.00511767
0.00521586
0.00522263
0.00513923
0.00496949
0.00471825
0.0043904
0.00399254
0.00355172
0.000550677
0.000844373
0.00115219
0.00133755
0.00147289
0.00162185
0.00182824
0.00211614
0.00248358
0.00290893
0.00335486
0.00379343
0.00420171
0.0045603
0.0048528
0.00506618
0.00519143
0.00522366
0.00516152
0.00500599
0.0047587
0.00442075
0.00399428
0.0035128
0.00057383
0.000825954
0.0011051
0.00129467
0.00142113
0.00156252
0.00175503
0.00202336
0.00236848
0.00277391
0.00321002
0.00364931
0.00406767
0.00444403
0.0047602
0.00500125
0.00515606
0.00521735
0.00518101
0.00504476
0.00480623
0.00446099
0.00400283
0.00346417
0.000595768
0.000810662
0.00106722
0.00125212
0.00137288
0.00150577
0.00168307
0.00192992
0.00225131
0.00263522
0.00305816
0.00349459
0.00392029
0.00431312
0.00465343
0.00492468
0.00511391
0.00521179
0.00521187
0.00510896
0.00489701
0.00456662
0.00410126
0.00348997
0.00061625
0.000797793
0.00103555
0.00120869
0.00132721
0.00145129
0.00161273
0.00183703
0.00213282
0.00249298
0.00289928
0.00332906
0.00375899
0.00416667
0.00453172
0.00483663
0.0050676
0.00521473
0.00527156
0.0052344
0.00510426
0.00489812
0.00467614
0.00453684
0.000635616
0.000787114
0.00100722
0.00116749
0.00128354
0.00139882
0.00154432
0.00174546
0.00201405
0.00234783
0.0027337
0.00315251
0.00358278
0.00400286
0.00439246
0.00473416
0.00501459
0.00522527
0.0053627
0.00542821
0.00542901
0.00538292
0.00532413
0.00529187
0.000654213
0.000780514
0.00098066
0.00112873
0.0012416
0.0013482
0.00147807
0.00165591
0.00189607
0.00220087
0.00256222
0.00296514
0.00339092
0.00381961
0.00423198
0.00461128
0.00494482
0.00522486
0.0054486
0.00561733
0.00573559
0.00581147
0.00585728
0.00588525
0.00067291
0.000778353
0.000956129
0.00109272
0.00120146
0.00129943
0.00141422
0.0015691
0.00178015
0.00205361
0.00238633
0.00276794
0.0031834
0.00361546
0.00404672
0.00446145
0.00484699
0.00519425
0.00549722
0.00575198
0.00595625
0.00610917
0.00621246
0.00627605
0.000693052
0.000780574
0.000934942
0.00106014
0.0011634
0.00125264
0.00135304
0.00148576
0.00166761
0.00190797
0.00220824
0.0025629
0.00296132
0.00338984
0.00383363
0.0042782
0.00471023
0.00511754
0.00548859
0.00581261
0.00607788
0.00627787
0.00642813
0.00650522
0.000717191
0.000787847
0.000918334
0.00103211
0.00112734
0.00120798
0.0012948
0.00140658
0.00155987
0.00176616
0.00203079
0.002353
0.00272703
0.00314351
0.00359089
0.00405627
0.0045255
0.00498266
0.00541017
0.00578942
0.00609679
0.00634124
0.00652039
0.00660986
0.000743554
0.000802509
0.000909472
0.00100849
0.0010933
0.00116563
0.00123986
0.00133223
0.00145827
0.00163053
0.00185733
0.00214223
0.00248435
0.00287912
0.00331889
0.00379306
0.00428719
0.0047822
0.00525514
0.00567131
0.00602189
0.00630272
0.00650273
0.0066034
0.000772831
0.000819044
0.000906988
0.000990372
0.00106361
0.00112653
0.00118876
0.00126334
0.00136402
0.00150334
0.00169145
0.00193534
0.00223862
0.00260154
0.00302098
0.00348948
0.00399358
0.00451235
0.00501856
0.00546288
0.00585039
0.00616251
0.00638314
0.00649424
0.000809212
0.000847558
0.000912625
0.000979617
0.00103964
0.00109191
0.00114232
0.0012006
0.00127815
0.00138656
0.0015366
0.00173748
0.00199638
0.00231798
0.00270383
0.00315067
0.00364767
0.00417406
0.00469888
0.00516657
0.00558346
0.00592196
0.0061655
0.00628728
0.000853134
0.000884738
0.000932479
0.00097921
0.00102364
0.00106356
0.00110179
0.00114489
0.00120161
0.00128182
0.00139582
0.00155371
0.00176489
0.00203752
0.00237747
0.00278622
0.00325736
0.00377292
0.00430196
0.00478293
0.00522247
0.00558163
0.00585195
0.00598556
0.000891705
0.000926551
0.000963806
0.000990655
0.00101794
0.00104378
0.00106904
0.00109755
0.00113544
0.00119046
0.00127155
0.00138845
0.00155133
0.00177035
0.00205465
0.00241022
0.00283613
0.00331997
0.00383631
0.00431809
0.00476896
0.00514269
0.00544238
0.00559063
0.000913222
0.000962866
0.000999459
0.00101119
0.00102269
0.00103415
0.00104598
0.00106028
0.00108099
0.00111375
0.00116566
0.00124516
0.00136189
0.00152641
0.00174946
0.00204034
0.00240351
0.00283384
0.00331349
0.00378372
0.00422824
0.00461542
0.00492853
0.00510534
0.000904528
0.000980632
0.00102621
0.00103193
0.00103317
0.001033
0.00103277
0.00103402
0.00103938
0.00105278
0.00107949
0.00112622
0.00120116
0.00131393
0.00147519
0.00169561
0.00198343
0.00234037
0.00275724
0.00319801
0.00361639
0.00400652
0.00431812
0.00453118
0.000853993
0.000969256
0.00103058
0.00104131
0.00104066
0.00103463
0.00102617
0.00101726
0.00101007
0.00100747
0.00101328
0.00103252
0.00107155
0.00113825
0.00124194
0.00139284
0.00160053
0.00187112
0.00220327
0.00258421
0.00296322
0.0033259
0.00363581
0.0038659
0.000760943
0.000934037
0.00100974
0.00103184
0.00103786
0.00103265
0.00102131
0.00100661
0.000990809
0.00097629
0.00096592
0.000963319
0.000973119
0.00100124
0.0010551
0.00114323
0.00127443
0.00145621
0.00169242
0.00197971
0.00230177
0.00261313
0.00290798
0.00313274
0.000603784
0.000865746
0.000969479
0.00101413
0.00102588
0.00102603
0.00101677
0.00100107
0.000981183
0.000959261
0.000937594
0.000918864
0.000906235
0.000904286
0.000915133
0.000946365
0.00100651
0.00110338
0.00124324
0.0014287
0.00165493
0.00190934
0.00215764
0.00236846
7.96743e-07
3.8821e-06
1.27671e-05
2.9854e-05
5.94246e-05
0.000131865
2.91443e-05
6.26551e-05
0.000110004
0.000165973
0.000233261
0.000325486
0.000167009
0.000142709
0.000229048
0.000320233
0.000414934
0.000514957
0.000183335
0.00021307
0.00033594
0.000456527
0.000572053
0.000680044
0.000194778
0.000269002
0.000426657
0.000571602
0.000703855
0.000820759
4.76027e-05
0.000309551
0.000501678
0.000666946
0.000813202
0.000939716
4.8298e-05
0.000341798
0.000562525
0.000744542
0.00090249
0.00103849
4.99142e-05
0.000366822
0.000610699
0.000806122
0.000973467
0.00111775
5.10385e-05
0.000385627
0.000647393
0.000853082
0.00102752
0.0011781
5.18926e-05
0.000398853
0.000673535
0.000886321
0.00106537
0.00122001
5.24772e-05
0.000406981
0.000689816
0.000906526
0.00108744
0.00124326
5.27877e-05
0.000410339
0.000696735
0.000914217
0.00109413
0.001248
5.28208e-05
0.000409109
0.000694626
0.000909792
0.00108586
0.00123461
5.25733e-05
0.00040332
0.000683678
0.000893568
0.00106307
0.00120375
5.20444e-05
0.000392816
0.000663937
0.000865758
0.00102629
0.00115645
5.12463e-05
0.000377321
0.000635296
0.000826504
0.000976133
0.00109412
5.01727e-05
0.000356873
0.000597464
0.00077578
0.000913224
0.00101851
4.88351e-05
0.000331392
0.000549831
0.000713282
0.000838054
0.000931533
4.72969e-05
0.000300713
0.000491331
0.000638241
0.000750706
0.000834875
0.000194575
0.000264795
0.000420172
0.000549133
0.000650375
0.000729416
0.000184584
0.000213028
0.000334183
0.000443337
0.000534645
0.000614381
0.000168945
0.000145378
0.000231205
0.000317153
0.000398586
0.000486038
2.97155e-05
6.4444e-05
0.000112758
0.000169038
0.000236376
0.000336503
8.3636e-07
3.89383e-06
1.26471e-05
3.04576e-05
6.70069e-05
0.000166221
0.000569202
0.000809843
0.000919978
0.000982946
0.00101522
0.00102324
0.00102053
0.001009
0.000990327
0.00096624
0.000938431
0.000909014
0.000879925
0.000850119
0.00082428
0.000810273
0.000812941
0.000838267
0.000892192
0.000979558
0.00110301
0.0012598
0.00144694
0.00163493
0.000606444
0.000798763
0.000908506
0.00097301
0.00101624
0.00104332
0.00105261
0.00105247
0.00104314
0.00102627
0.0010027
0.000972858
0.000937878
0.000900327
0.000860725
0.0008185
0.000778655
0.000747252
0.000729957
0.00073236
0.000759295
0.000815131
0.000893173
0.00103176
0.000700163
0.000845002
0.000944012
0.00101292
0.00106647
0.00110212
0.00113444
0.00115433
0.00116303
0.00116485
0.00115922
0.00114483
0.00112172
0.00109098
0.00105273
0.00100762
0.000956712
0.000902108
0.00084741
0.000796604
0.000752125
0.000724759
0.000707284
0.000740174
0.000821948
0.00094008
0.00103043
0.0011036
0.00116669
0.0012199
0.00127054
0.00131146
0.00134285
0.00136803
0.00138838
0.00140084
0.00140203
0.00139404
0.00137474
0.00134288
0.00129906
0.00124423
0.00118037
0.00111217
0.00104428
0.000983747
0.000923961
0.000890625
0.000949344
0.00106081
0.0011519
0.00123211
0.00130653
0.00137614
0.00144246
0.00150202
0.00155469
0.00160148
0.00163918
0.00166711
0.00168919
0.00170661
0.00171304
0.00170687
0.00169226
0.0016695
0.00163825
0.00159715
0.00154594
0.00148917
0.00142739
0.00137983
0.00107
0.00118666
0.00128605
0.00137682
0.00146314
0.0015459
0.00162463
0.00169754
0.00176399
0.00182358
0.00187418
0.00191532
0.00195038
0.0019784
0.00199973
0.0020102
0.0020132
0.00201149
0.0020069
0.00200175
0.0019973
0.0019949
0.00199544
0.00200307
0.00117665
0.0013044
0.00141564
0.00151814
0.00161553
0.0017087
0.00179744
0.00188085
0.00195816
0.0020288
0.00209082
0.00214642
0.00219513
0.00223686
0.00227271
0.00230337
0.00232863
0.00234999
0.00236813
0.00238414
0.00239925
0.00241462
0.00243049
0.00244496
0.00126497
0.00140497
0.00152828
0.00164128
0.00174732
0.00184752
0.00194147
0.00202933
0.00211088
0.00218559
0.00225243
0.00231211
0.0023649
0.00241175
0.00245455
0.00249379
0.00253048
0.00256599
0.00260069
0.00263526
0.00266998
0.00270409
0.00273503
0.00275658
0.00133262
0.00148215
0.0016143
0.00173399
0.00184389
0.00194513
0.00203791
0.00212166
0.00219648
0.00226302
0.00232193
0.00237453
0.00242277
0.00246863
0.00251226
0.00255572
0.00260041
0.00264551
0.00269077
0.00273635
0.00278192
0.00282622
0.00286542
0.00289264
0.00137936
0.00153453
0.00167063
0.00179136
0.00189885
0.00199434
0.00207864
0.00215255
0.00221686
0.00227277
0.00232175
0.00236547
0.00240531
0.00244274
0.00247966
0.00251602
0.00255244
0.00259064
0.0026304
0.00267204
0.00271398
0.00275483
0.00279323
0.0028212
0.00140377
0.00156013
0.00169573
0.00181317
0.0019141
0.00199984
0.0020716
0.00213071
0.00217871
0.00221748
0.00224907
0.0022756
0.00229895
0.00232083
0.00234116
0.00236348
0.00238829
0.0024159
0.0024456
0.00248012
0.00252364
0.00257302
0.00262134
0.00265765
0.00140558
0.00155823
0.00168844
0.00179791
0.00188804
0.00196034
0.00201654
0.0020586
0.00208873
0.00210929
0.00212266
0.00213121
0.00213644
0.00213755
0.00214212
0.00214532
0.0021542
0.00217361
0.00220329
0.00223694
0.00226832
0.00229835
0.00233006
0.00236045
0.00138522
0.00152988
0.00165094
0.00174941
0.00182665
0.00188458
0.00192544
0.00195174
0.00196604
0.00197085
0.00196819
0.0019611
0.00194489
0.00193055
0.00191852
0.00191781
0.00192566
0.00193077
0.00192681
0.00191902
0.00191194
0.00190993
0.00191622
0.00193564
0.00134385
0.00147759
0.0015876
0.00167424
0.00173899
0.00178416
0.00181243
0.00182651
0.00182888
0.00182198
0.00180563
0.00177751
0.00175468
0.00174004
0.00173262
0.00171527
0.00168665
0.00165222
0.00161889
0.00158739
0.00155854
0.00153396
0.00151526
0.00152114
0.00128345
0.00140537
0.00150473
0.00158094
0.0016355
0.00167103
0.00169039
0.00169614
0.00168979
0.00166702
0.00164079
0.00162248
0.00160835
0.00158129
0.00154019
0.00149202
0.00144356
0.00139649
0.00135215
0.00131187
0.0012765
0.00124837
0.00122111
0.00122136
0.00120689
0.00131867
0.0014101
0.00147888
0.00152636
0.00155533
0.00156857
0.00156437
0.00154122
0.00153112
0.0015191
0.00149454
0.00145176
0.00140012
0.00134622
0.00129264
0.00124172
0.00119606
0.00115824
0.00113062
0.00111517
0.00111608
0.00112104
0.00120813
0.00111781
0.00122403
0.00131194
0.00137684
0.00141992
0.00144404
0.00144408
0.001432
0.00143493
0.00142574
0.00138911
0.00134145
0.00128926
0.00123556
0.00118366
0.00113742
0.00110085
0.00107791
0.00107225
0.00108651
0.00112303
0.00118182
0.00126901
0.00140851
0.00102039
0.0011283
0.00121774
0.00128178
0.00132175
0.00133206
0.00133816
0.00134727
0.00133414
0.00129548
0.00125006
0.00120067
0.00115124
0.00110662
0.00107201
0.00105254
0.00105255
0.00107463
0.00111877
0.00118277
0.0012653
0.00136592
0.00149569
0.00166226
0.000918834
0.00103766
0.00113309
0.00119789
0.00122605
0.00124876
0.0012621
0.00125058
0.00121733
0.00117611
0.00113194
0.00109036
0.00105749
0.00103932
0.00104096
0.00106477
0.00110933
0.00117067
0.00124573
0.00133596
0.00144812
0.00159532
0.00179912
0.00199233
0.000816906
0.00095663
0.00106107
0.00112002
0.00116119
0.00118256
0.00118112
0.00115413
0.00111902
0.00108231
0.00105106
0.00103227
0.00103166
0.00105219
0.00109253
0.00114843
0.00121684
0.00129942
0.00140402
0.00154425
0.00173795
0.00200073
0.00230134
0.00254788
0.000717965
0.000887592
0.000999871
0.0010686
0.00110519
0.00112264
0.00110453
0.00107711
0.00104901
0.00102873
0.00102324
0.00103663
0.00106886
0.00111661
0.00117726
0.00125217
0.00134762
0.00147457
0.00164803
0.00188454
0.0021945
0.00254836
0.00288653
0.00315173
0.000625979
0.000832029
0.000956791
0.00102316
0.00106681
0.00106538
0.00104618
0.00102664
0.00101603
0.00102057
0.00104241
0.00108009
0.00113157
0.0011977
0.00128302
0.00139499
0.00154348
0.00174015
0.00199669
0.00231942
0.00269434
0.00306103
0.00340539
0.00365572
0.000547541
0.000794783
0.000929817
0.00100141
0.00102928
0.00102036
0.00100912
0.00100613
0.0010173
0.00104394
0.00108511
0.00114097
0.0012147
0.00131156
0.00143784
0.00160035
0.00180684
0.00206638
0.00238735
0.00277008
0.00316733
0.00356174
0.00390264
0.00414531
0.000491218
0.000788871
0.000917637
0.000990071
0.000995662
0.000992515
0.000995371
0.00101115
0.00104143
0.00108622
0.00114704
0.00122763
0.00133276
0.00146727
0.0016359
0.0018445
0.00210136
0.00241611
0.00279378
0.00321734
0.00363374
0.00403771
0.00436267
0.00458514
1.06883e-06
1.04238e-05
4.50518e-05
0.000106065
0.000178516
4.82775e-05
2.94078e-05
5.57136e-05
0.000149253
0.000277793
0.000406051
0.000399617
4.73271e-05
0.000124745
0.000263247
0.000430854
0.000583684
0.000666959
5.24188e-05
0.00018986
0.000359017
0.000543674
0.000698417
0.000795948
5.60479e-05
0.000246829
0.00043428
0.000620645
0.000762234
0.000845507
5.86902e-05
0.000293703
0.000490561
0.00066911
0.000789468
0.000850391
6.06096e-05
0.000329404
0.000530214
0.000695904
0.000794779
0.000837468
6.19601e-05
0.000354189
0.000555706
0.000706695
0.000788443
0.000818326
6.28389e-05
0.000369266
0.00056935
0.000705846
0.000773804
0.000796964
6.33092e-05
0.000375856
0.000573192
0.000696948
0.000754708
0.000775823
6.3406e-05
0.000374782
0.000568913
0.000682327
0.000733552
0.000754794
6.31722e-05
0.000366591
0.000557824
0.000663595
0.000711593
0.000735219
6.26856e-05
0.000351066
0.00054089
0.000641891
0.000688421
0.000716277
6.19994e-05
0.000328977
0.000518419
0.000617283
0.000664196
0.000697294
6.10925e-05
0.00030195
0.000490497
0.000589914
0.000638552
0.000677053
5.99475e-05
0.000271444
0.000457145
0.000559473
0.000610406
0.000654607
5.8545e-05
0.000238809
0.000418353
0.000525264
0.000578679
0.000628758
5.68518e-05
0.000205359
0.000374194
0.000486107
0.000541495
0.000597587
5.47807e-05
0.000172456
0.000325025
0.000440281
0.00049753
0.000560438
5.20563e-05
0.000141614
0.000271729
0.000385612
0.000443929
0.000512679
4.78032e-05
0.000114576
0.000215431
0.000319659
0.000379376
0.0004447
0.00018179
9.45497e-05
0.000154173
0.000239235
0.000299645
0.000343419
3.28588e-05
4.94491e-05
7.71932e-05
0.000133491
0.000187593
0.000197679
1.12396e-06
3.11721e-06
7.04176e-06
1.68828e-05
4.77189e-05
0.000206863
0.000495002
0.000817871
0.000933045
0.000971516
0.000975118
0.000982471
0.00100195
0.00103559
0.00108375
0.00114821
0.00123259
0.00134136
0.00147902
0.00164992
0.00185899
0.00211259
0.00241815
0.00278089
0.00319762
0.00363169
0.00405262
0.00443612
0.00474766
0.00493267
0.000722371
0.00088165
0.000944383
0.000955972
0.000966849
0.000989271
0.00102582
0.00107648
0.00114262
0.00122774
0.00133668
0.00147459
0.0016462
0.0018555
0.00210599
0.00240114
0.00274408
0.0031348
0.00356466
0.00399193
0.00439684
0.00474944
0.00503682
0.00519106
0.000829841
0.000917526
0.000937817
0.000948592
0.000972112
0.00101088
0.00106339
0.00112991
0.00121384
0.00132071
0.00145668
0.00162702
0.00183507
0.0020821
0.00236813
0.00269308
0.00305645
0.00345456
0.00387587
0.00428281
0.00465576
0.00497165
0.00522828
0.00535796
0.000874737
0.000919561
0.000926559
0.000949194
0.000989614
0.00104408
0.00111078
0.00119253
0.00129553
0.00142704
0.00159321
0.00179758
0.00204054
0.00231995
0.00263234
0.00297407
0.00334122
0.00372759
0.00412131
0.00449578
0.00482419
0.00509903
0.00531909
0.00542997
0.000880356
0.000902499
0.000920587
0.000960979
0.00101778
0.00108555
0.00116519
0.00126306
0.00138766
0.00154658
0.00174443
0.00198195
0.00225613
0.00256115
0.00288984
0.00323505
0.00359011
0.00394779
0.00429814
0.00462682
0.00490466
0.00513068
0.00531073
0.0054032
0.000866935
0.000886467
0.00092358
0.00098254
0.00105331
0.0011325
0.00122524
0.00134116
0.0014899
0.00167807
0.00190765
0.00217593
0.00247617
0.00279894
0.00313372
0.00347038
0.00380025
0.00411599
0.00441047
0.00467534
0.00490095
0.00506968
0.00520064
0.00527655
0.00084721
0.000877801
0.000935835
0.0010113
0.00109353
0.00118334
0.00129032
0.00142653
0.00160155
0.00181974
0.00207965
0.00237481
0.00269503
0.00302784
0.00335997
0.00367894
0.00397437
0.00423889
0.00446803
0.00465939
0.00481133
0.00492267
0.00499042
0.00503946
0.000827862
0.000877518
0.000955697
0.00104496
0.00113683
0.00123734
0.00136017
0.00151878
0.00172141
0.00196917
0.00225673
0.00257412
0.00290831
0.00324454
0.00356761
0.00386326
0.0041197
0.00432894
0.0044876
0.00459689
0.00466099
0.00468431
0.00467276
0.00465175
0.000811727
0.000884415
0.000980953
0.00108173
0.00118225
0.00129414
0.00143448
0.00161711
0.00184775
0.00212354
0.0024353
0.0027701
0.00311286
0.0034474
0.00375747
0.00402785
0.00424573
0.00440192
0.00449182
0.0045156
0.00447588
0.00437254
0.00420408
0.00399834
0.000799884
0.000896281
0.00100976
0.00112043
0.0012292
0.00135331
0.00151262
0.00172023
0.00197842
0.00227992
0.00261206
0.00295967
0.00330646
0.00363573
0.00393102
0.0041771
0.00436093
0.00447242
0.0045047
0.00445328
0.00431204
0.00406222
0.00365665
0.00309134
0.000792395
0.000910855
0.00104092
0.00116033
0.00127721
0.00141435
0.0015936
0.00182653
0.0021111
0.00243554
0.00278415
0.00314037
0.00348753
0.00380907
0.00408912
0.00431328
0.00446943
0.00454816
0.0045427
0.00444843
0.00426259
0.00398431
0.0036168
0.00323741
0.000787327
0.00092849
0.00107391
0.00120099
0.00132588
0.00147652
0.00167613
0.00193412
0.00224354
0.00258789
0.00294918
0.00331025
0.00365471
0.00396671
0.00423138
0.00443566
0.00456917
0.00462454
0.00459733
0.00448543
0.00428876
0.00401081
0.00366622
0.00333136
0.000782651
0.000949196
0.00110842
0.00124208
0.00137468
0.0015388
0.00175852
0.00204103
0.00237364
0.00273489
0.00310524
0.00346776
0.00380688
0.00410773
0.00435661
0.00454196
0.00465519
0.00469121
0.00464823
0.00452722
0.00433143
0.00406753
0.00375096
0.00343441
0.00077831
0.000971977
0.0011435
0.00128321
0.00142296
0.00159977
0.00183907
0.00214537
0.00249978
0.00287494
0.00325095
0.00361185
0.00394323
0.00423138
0.00446379
0.00463026
0.00472391
0.00474164
0.00468391
0.00455405
0.0043576
0.00410314
0.00380588
0.0034996
0.000773878
0.000996467
0.00117778
0.00132414
0.00146924
0.0016584
0.00191737
0.00224617
0.0026209
0.00300699
0.00338546
0.00374194
0.00406346
0.00433744
0.00455246
0.00469956
0.00477337
0.00477262
0.0046998
0.00456031
0.00436163
0.00411359
0.0038302
0.00353242
0.000768851
0.0010245
0.00121205
0.00136407
0.00151311
0.00171475
0.00199328
0.00234329
0.00273638
0.00313037
0.00350834
0.00385796
0.00416773
0.00442616
0.00462278
0.00474971
0.00480298
0.00478308
0.00469449
0.00454468
0.00434285
0.00409971
0.00382807
0.00354187
0.000762568
0.00104963
0.00124881
0.00140261
0.00155481
0.00176914
0.00206691
0.00243659
0.00284573
0.00324476
0.00361961
0.00396022
0.00425661
0.00449823
0.00467538
0.00478111
0.00481278
0.00477264
0.00466731
0.00450638
0.00430082
0.00406226
0.00380309
0.00353497
0.000754795
0.0010754
0.00128526
0.00144035
0.00159491
0.00182216
0.00213863
0.00252618
0.00294874
0.00335017
0.0037196
0.00404937
0.00433097
0.00455464
0.00471123
0.00479458
0.00480341
0.00474192
0.00461907
0.00444686
0.00423821
0.0040058
0.00376212
0.0035186
0.000744808
0.00110354
0.00132414
0.00147582
0.00163412
0.00187462
0.00220902
0.00261249
0.0030453
0.00344691
0.0038089
0.00412628
0.00439189
0.00459658
0.00473155
0.00479135
0.00477615
0.00469241
0.00455188
0.00436929
0.00415961
0.00393649
0.00371229
0.00349803
0.000732277
0.00113317
0.00136447
0.00151001
0.00167386
0.00192767
0.00227884
0.00269614
0.00313579
0.0035356
0.00388833
0.00419196
0.00444062
0.00462544
0.00473782
0.004773
0.00473284
0.00462651
0.00446906
0.00427821
0.00407085
0.00386097
0.00365986
0.00347687
0.000719159
0.00116511
0.00140319
0.00154577
0.00171612
0.00198271
0.00234901
0.00277764
0.00322129
0.00361695
0.00395873
0.00424753
0.00447846
0.00464274
0.00473173
0.00474148
0.00467589
0.00454745
0.00437492
0.00417905
0.00397803
0.00378521
0.00360951
0.00345725
0.00070779
0.00120628
0.00143966
0.00158628
0.00176316
0.00204131
0.00242059
0.00285773
0.00330251
0.00369165
0.00402099
0.00429412
0.00450681
0.00465006
0.00471515
0.00469905
0.00460821
0.00445903
0.00427431
0.00407741
0.00388677
0.00371376
0.00356405
0.00344006
0.000701592
0.00127135
0.00147894
0.00163601
0.00181744
0.00210494
0.00249444
0.00293701
0.00338004
0.00376029
0.00407596
0.00433285
0.00452704
0.00464908
0.00469009
0.00464822
0.00453305
0.00436539
0.00417212
0.00397838
0.00380148
0.00364964
0.00352475
0.00342552
0.000706025
0.00132119
0.00153825
0.00170119
0.00188096
0.00217455
0.00257095
0.00301568
0.00345423
0.00382334
0.00412441
0.00436483
0.00454059
0.00464155
0.00465871
0.00459172
0.00445383
0.00427067
0.0040728
0.00388599
0.00372504
0.00359425
0.00349186
0.00341354
1.2916e-06
1.26507e-05
4.66409e-05
0.000112914
0.000195112
5.66854e-05
3.77173e-05
9.2587e-05
0.000180322
0.000305767
0.000378825
0.00046614
5.30092e-05
0.00020118
0.000344623
0.000521564
0.00068519
0.000862694
5.90979e-05
0.00030234
0.000499962
0.000720691
0.000942424
0.001169
6.37689e-05
0.000389633
0.00063827
0.000893897
0.00115037
0.00138646
6.741e-05
0.00046133
0.000757376
0.00103934
0.00131523
0.00154338
7.02497e-05
0.000518441
0.000857239
0.00115941
0.00144371
0.00165872
7.24335e-05
0.000562423
0.000938692
0.00125726
0.00154171
0.00174471
7.40574e-05
0.000594728
0.00100281
0.00133441
0.00161575
0.00180928
7.51855e-05
0.000616544
0.00105073
0.0013926
0.00167071
0.00185739
7.58636e-05
0.000628772
0.00108347
0.0014334
0.00170961
0.00189203
7.61362e-05
0.000631787
0.00110188
0.00145805
0.00173405
0.00191473
7.61065e-05
0.000625439
0.00110656
0.00146723
0.00174494
0.00192783
7.57243e-05
0.000610864
0.00109782
0.0014615
0.00174267
0.00192976
7.49539e-05
0.000589083
0.00107563
0.00144065
0.00172431
0.00191995
7.37494e-05
0.000560855
0.00103956
0.00140261
0.00168882
0.00189613
7.20538e-05
0.000526713
0.000988604
0.00134478
0.00163356
0.00185406
6.97894e-05
0.000486265
0.000920994
0.00126422
0.00155394
0.0017878
6.68477e-05
0.000438272
0.000833978
0.00115672
0.00144311
0.00168766
6.30784e-05
0.000380545
0.000723182
0.00101667
0.00129168
0.00153744
5.82706e-05
0.000309543
0.000583059
0.000836934
0.00108714
0.00131165
5.21166e-05
0.000219607
0.000410628
0.000611366
0.000816574
0.00097099
3.6503e-05
0.000107245
0.000211657
0.000344249
0.000486622
0.000512736
1.13631e-06
1.02386e-05
3.77534e-05
9.43685e-05
0.000194477
5.8721e-05
0.000748534
0.00140941
0.00163403
0.00177893
0.00195337
0.00224963
0.00264951
0.00309334
0.00352502
0.00388108
0.00416706
0.00439115
0.00454886
0.00462926
0.00462326
0.00453238
0.004374
0.00417868
0.00397998
0.00380298
0.0036589
0.00354785
0.00346495
0.00340382
0.00119207
0.00160166
0.00175275
0.00186511
0.0020311
0.00232766
0.00272837
0.00316888
0.00359198
0.00393367
0.00420456
0.00441286
0.00455329
0.00461404
0.00458607
0.00447306
0.00429684
0.00409272
0.00389634
0.00373086
0.00360334
0.00350996
0.00344337
0.00339609
0.00143829
0.00173767
0.00185329
0.00194605
0.00210773
0.00240492
0.00280512
0.00324082
0.00365436
0.00398115
0.00423751
0.00443098
0.00455529
0.00459774
0.00454946
0.00441655
0.00422533
0.00401546
0.00382359
0.00367015
0.0035579
0.00347967
0.00342637
0.0033901
0.00160297
0.0018338
0.00193518
0.00201852
0.00217992
0.00247852
0.00287757
0.00330772
0.0037112
0.00402348
0.00426645
0.00444647
0.0045562
0.0045821
0.00451565
0.0043654
0.00416203
0.00394883
0.00376263
0.00362063
0.00352166
0.00345595
0.00341326
0.00338561
0.00172346
0.00190662
0.00200257
0.00208239
0.00224594
0.00254636
0.00294403
0.00336861
0.0037609
0.00406057
0.00429191
0.00446022
0.00455723
0.00456874
0.00448664
0.00432186
0.00410893
0.00389408
0.00371368
0.00358169
0.00349363
0.00343784
0.00340339
0.00338232
0.00181444
0.00196346
0.00205818
0.00213784
0.00230465
0.0026069
0.00300312
0.00342252
0.00380313
0.00409262
0.00431441
0.00447302
0.00455945
0.00455905
0.00446416
0.00428773
0.00406753
0.00385194
0.00367658
0.00355258
0.00347288
0.00342452
0.00339619
0.00338
0.00188412
0.00200839
0.00210381
0.00218499
0.00235518
0.00265892
0.0030537
0.00346862
0.00383888
0.00412014
0.00433445
0.00448551
0.00456373
0.00455418
0.00444958
0.00426444
0.00403891
0.00382281
0.00365106
0.00353264
0.00345866
0.00341539
0.0033911
0.00337845
0.00193816
0.00204396
0.00214066
0.00222384
0.00239683
0.00270143
0.00309453
0.00350522
0.00386719
0.00414295
0.00435221
0.00449805
0.00457066
0.00455495
0.00444387
0.00425293
0.00402372
0.00380687
0.00363687
0.0035215
0.00345044
0.00340956
0.00338821
0.00337756
0.00198022
0.00207186
0.00216946
0.00225429
0.00242894
0.00273224
0.00312254
0.00353027
0.00388702
0.00415954
0.00436616
0.00450946
0.00457947
0.00456089
0.00444692
0.0042536
0.00402233
0.00380408
0.00363367
0.00351849
0.00344718
0.00340744
0.00338705
0.00337723
0.00201276
0.00209327
0.00219048
0.0022758
0.00244972
0.00275176
0.00314075
0.00354735
0.00390168
0.00417344
0.00437978
0.00452309
0.00459333
0.0045756
0.00446266
0.00426828
0.00403495
0.00381444
0.00364142
0.00352381
0.00345092
0.0034094
0.0033879
0.00337741
0.00203741
0.00210927
0.00220312
0.0022887
0.00246178
0.00276183
0.00314969
0.00355688
0.00391269
0.00418777
0.00439766
0.00454381
0.0046163
0.00459994
0.00448776
0.0042952
0.00406204
0.00383861
0.00366067
0.00353774
0.00346091
0.00341515
0.00339062
0.00337811
0.00205474
0.00212058
0.00220808
0.00229351
0.00246414
0.00276101
0.00314755
0.00355628
0.00391619
0.0041962
0.00441084
0.00456116
0.00463757
0.00462678
0.00452143
0.00433432
0.00410294
0.00387638
0.00369161
0.00356064
0.0034764
0.0034254
0.00339567
0.00337957
0.00206591
0.00212707
0.00220649
0.00229033
0.00245637
0.00274815
0.00313252
0.00354342
0.00391023
0.00419768
0.00441924
0.00457661
0.004661
0.00465912
0.00456346
0.00438469
0.00415709
0.00392774
0.00373479
0.00359337
0.00349906
0.00343956
0.00340331
0.00338187
0.00207004
0.00212857
0.00219905
0.00227971
0.00243919
0.00272424
0.00310581
0.00351947
0.00389566