/*--------------------------------*- C++ -*----------------------------------*\
  =========                 |
  \\      /  F ield         | OpenFOAM: The Open Source CFD Toolbox
   \\    /   O peration     | Website:  https://openfoam.org
    \\  /    A nd           | Version:  11
     \\/     M anipulation  |
\*---------------------------------------------------------------------------*/
FoamFile
{
    format      ascii;
    class       volVectorField;
    location    "0.16";
    object      U;
}
// * * * * * * * * * * * * * * * * * * * * * * * * * * * * * * * * * * * * * //

dimensions      [0 1 -1 0 0 0 0];

internalField   nonuniform List<vector> 
2880
(
(-0.0893878 -0.168182 1.69694e-18)
(-0.171761 -0.323301 -1.31034e-18)
(-0.212612 -0.454718 -1.10225e-18)
(-0.190345 -0.441966 -9.38374e-19)
(-0.181127 -0.509737 5.96653e-19)
(0.07286 -0.239832 1.77981e-19)
(-0.167913 -0.222702 -1.56895e-18)
(-0.231644 -0.368929 1.21843e-18)
(-0.240504 -0.498649 0)
(-0.204519 -0.49292 0)
(-0.139725 -0.511154 1.98882e-19)
(0.102017 -0.277803 5.12149e-19)
(-0.222505 -0.22205 -1.65602e-18)
(-0.26213 -0.358565 -4.29379e-20)
(-0.241429 -0.48075 1.95426e-19)
(-0.18 -0.474279 -2.22481e-19)
(-0.0728703 -0.481143 1.91418e-19)
(0.185904 -0.289868 -1.26273e-18)
(-0.27399 -0.206304 1.6137e-18)
(-0.282575 -0.334163 -3.67513e-20)
(-0.235843 -0.445916 0)
(-0.143974 -0.436821 0)
(-0.00322398 -0.439913 0)
(0.278854 -0.280838 9.8434e-19)
(-0.318906 -0.187588 -1.25934e-20)
(-0.297761 -0.304048 -6.40744e-19)
(-0.225924 -0.402054 -4.78391e-19)
(-0.108856 -0.392188 0)
(0.0614916 -0.391093 0)
(0.360764 -0.259414 -3.25185e-19)
(-0.357368 -0.170869 0)
(-0.310697 -0.271038 -8.52988e-21)
(-0.215822 -0.353941 4.2963e-19)
(-0.0779016 -0.34405 1.07252e-19)
(0.119422 -0.33661 4.62267e-20)
(0.429068 -0.229523 -8.16161e-20)
(-0.39238 -0.150039 -4.16564e-19)
(-0.321582 -0.241237 5.6956e-19)
(-0.207961 -0.305046 0)
(-0.0518783 -0.293683 -5.34719e-20)
(0.166539 -0.279698 -1.40191e-19)
(0.483575 -0.191422 0)
(-0.422479 -0.133727 6.1668e-19)
(-0.331708 -0.211281 1.41519e-19)
(-0.202751 -0.256631 0)
(-0.0317333 -0.241957 0)
(0.202355 -0.221588 1.84045e-19)
(0.523607 -0.146599 0)
(-0.44754 -0.120986 -2.06911e-19)
(-0.341207 -0.180924 -1.37403e-19)
(-0.200511 -0.209143 -1.87025e-21)
(-0.0180168 -0.189558 1.60156e-21)
(0.226853 -0.162945 2.85889e-21)
(0.54927 -0.096855 -2.5618e-21)
(-0.466943 -0.110845 -3.27102e-21)
(-0.350357 -0.150357 0)
(-0.201482 -0.162795 0)
(-0.0109959 -0.137041 0)
(0.240183 -0.104378 0)
(0.560776 -0.0438333 0)
(-0.480322 -0.102328 0)
(-0.359411 -0.11983 2.82728e-19)
(-0.205782 -0.117702 2.13224e-19)
(-0.010727 -0.0849149 0)
(0.242617 -0.0464802 0)
(0.558482 0.0109213 0)
(-0.487402 -0.0944588 0)
(-0.368522 -0.08956 -7.82608e-19)
(-0.213423 -0.073921 -6.69879e-19)
(-0.0170981 -0.0336487 0)
(0.234629 0.0102074 0)
(0.542906 0.0659778 0)
(-0.487981 -0.0862174 -3.99348e-20)
(-0.37778 -0.059733 4.98257e-19)
(-0.224315 -0.0314457 4.68317e-19)
(-0.0298503 0.0163371 0)
(0.216908 0.0651934 0)
(0.514641 0.120086 3.00955e-19)
(-0.4827 -0.0766717 0)
(-0.386887 -0.0304307 6.53878e-20)
(-0.2383 0.00978441 8.09616e-19)
(-0.0486333 0.0646519 9.59086e-20)
(0.189886 0.117919 5.885e-19)
(0.474462 0.172165 -2.98976e-19)
(-0.471816 -0.0650524 1.62692e-18)
(-0.395678 -0.00156636 -1.001e-18)
(-0.255202 0.0498373 -8.60197e-19)
(-0.0730185 0.111001 9.35207e-20)
(0.154325 0.167753 -8.33239e-19)
(0.423269 0.221069 7.30265e-20)
(-0.455727 -0.0507027 -1.60368e-18)
(-0.403963 0.0270201 1.35316e-20)
(-0.274825 0.0887871 -8.36837e-19)
(-0.102491 0.155079 7.28407e-19)
(0.111327 0.214252 -6.30166e-19)
(0.362687 0.265904 -1.28586e-19)
(-0.434959 -0.0331563 1.55346e-18)
(-0.411447 0.05552 1.07147e-18)
(-0.29694 0.126725 7.9174e-19)
(-0.136495 0.196565 -7.27881e-19)
(0.0620982 0.256776 6.2663e-19)
(0.294305 0.305948 6.28264e-19)
(-0.410027 -0.0121409 -1.60819e-18)
(-0.417706 0.0840955 6.43255e-20)
(-0.321284 0.163772 -1.54641e-19)
(-0.174483 0.235178 1.74318e-19)
(0.00780583 0.294746 6.69335e-20)
(0.219703 0.340363 -6.31299e-19)
(-0.381306 0.0125094 4.99473e-20)
(-0.422148 0.112818 3.43414e-20)
(-0.347491 0.200097 -7.69076e-19)
(-0.215938 0.27071 -2.07921e-21)
(-0.0504436 0.327689 6.36713e-20)
(0.140767 0.368381 -5.7936e-19)
(-0.348556 0.0395833 0)
(-0.424148 0.142258 9.69696e-19)
(-0.375035 0.235845 1.00325e-18)
(-0.260416 0.303042 -8.63264e-20)
(-0.111748 0.355066 0)
(0.0596037 0.388749 5.60254e-19)
(-0.309711 0.0661566 -1.58103e-18)
(-0.423951 0.173658 -9.57542e-19)
(-0.403295 0.270751 -5.27659e-20)
(-0.30777 0.332013 1.67144e-19)
(-0.175745 0.376199 -1.43347e-19)
(-0.0212207 0.39952 3.23549e-19)
(-0.263949 0.0897856 2.93109e-18)
(-0.421496 0.20696 6.89199e-20)
(-0.431604 0.302965 -7.7692e-19)
(-0.358053 0.357086 -6.14562e-19)
(-0.242488 0.390665 -1.44573e-19)
(-0.0975951 0.398677 -2.49736e-20)
(-0.208673 0.103295 -1.58576e-18)
(-0.412205 0.240578 -1.19962e-18)
(-0.456881 0.32853 1.04837e-18)
(-0.407351 0.377437 6.46104e-19)
(-0.309218 0.399769 0)
(-0.162498 0.386986 -4.40922e-19)
(-0.107809 0.0925212 -1.69375e-18)
(-0.336073 0.259961 1.20711e-18)
(-0.448692 0.366502 -9.22205e-19)
(-0.421139 0.403602 -7.57797e-19)
(-0.360947 0.39821 5.81691e-19)
(-0.223424 0.34092 0)
(0.75831 -0.999984 -5.86558e-20)
(1.06471 -0.818066 1.86337e-19)
(1.15039 -0.709989 2.25205e-20)
(1.18392 -0.591585 -2.97412e-20)
(1.18751 -0.49359 0)
(1.17976 -0.4143 -9.97708e-20)
(1.1698 -0.352217 4.41452e-20)
(1.16105 -0.30409 -4.04244e-20)
(1.15385 -0.266232 0)
(1.14757 -0.235612 -1.53527e-19)
(1.1415 -0.21 2.12824e-19)
(1.13519 -0.187895 4.48469e-21)
(1.12844 -0.168365 -6.58778e-20)
(1.12111 -0.150765 -6.25824e-20)
(1.11313 -0.134626 -1.73829e-19)
(1.10444 -0.119592 1.09178e-19)
(1.09495 -0.105394 0)
(1.08462 -0.0918358 0)
(1.07342 -0.078763 4.76297e-20)
(1.06138 -0.0659682 -1.3618e-22)
(1.04858 -0.0532222 -2.3836e-19)
(1.03456 -0.0412336 9.26982e-20)
(1.01738 -0.0332781 0)
(0.998477 -0.0297627 0)
(0.884836 -0.813712 5.12124e-20)
(1.19319 -0.760797 -1.38205e-19)
(1.25076 -0.67583 -5.87638e-20)
(1.26357 -0.569023 3.00259e-20)
(1.25222 -0.477981 2.22657e-20)
(1.23286 -0.402474 0)
(1.21379 -0.342462 -3.41327e-20)
(1.19802 -0.295608 3.12655e-20)
(1.18543 -0.258697 0)
(1.17495 -0.228912 -1.20427e-19)
(1.16556 -0.204104 5.9024e-20)
(1.15654 -0.182791 -5.34469e-20)
(1.14748 -0.164032 0)
(1.13817 -0.147179 0)
(1.12844 -0.131762 0)
(1.11815 -0.117428 0)
(1.1072 -0.10391 0)
(1.09549 -0.0910109 -9.34429e-20)
(1.08296 -0.0785716 9.05744e-20)
(1.06959 -0.0663727 0)
(1.05541 -0.0541616 0)
(1.03998 -0.0426503 0)
(1.02145 -0.0353001 0)
(1.00078 -0.0327138 0)
(0.940453 -0.655881 -4.23704e-19)
(1.28327 -0.684351 1.65909e-19)
(1.33568 -0.62223 -2.31891e-20)
(1.33558 -0.532511 5.35535e-20)
(1.31251 -0.451677 -1.62176e-20)
(1.28315 -0.382501 1.924e-20)
(1.25583 -0.326411 -1.76352e-20)
(1.23347 -0.282106 -2.03829e-20)
(1.21574 -0.247025 0)
(1.20124 -0.218701 5.72022e-20)
(1.18866 -0.195166 -2.29978e-20)
(1.17704 -0.175018 5.37088e-20)
(1.16581 -0.157342 4.89454e-20)
(1.15463 -0.141505 1.20255e-21)
(1.14325 -0.127052 -6.64372e-20)
(1.13149 -0.113639 0)
(1.1192 -0.101009 2.04285e-20)
(1.10624 -0.0889674 -8.45614e-20)
(1.0925 -0.0773553 8.19104e-20)
(1.07792 -0.0659475 -1.91281e-20)
(1.06249 -0.0544733 -1.86986e-20)
(1.04575 -0.0436329 -1.86235e-20)
(1.02599 -0.0370125 -1.93398e-20)
(1.0036 -0.0355012 0)
(0.986873 -0.533097 3.2747e-19)
(1.34667 -0.599518 -1.67084e-19)
(1.40359 -0.557693 0)
(1.39749 -0.485838 -3.29513e-20)
(1.3663 -0.416781 -3.04452e-21)
(1.32908 -0.355501 -2.92582e-21)
(1.29476 -0.304721 0)
(1.26657 -0.264023 2.05212e-20)
(1.24414 -0.231538 2.04513e-20)
(1.22591 -0.205236 -1.88459e-20)
(1.21036 -0.183393 -1.50369e-21)
(1.19633 -0.164739 8.3167e-20)
(1.18309 -0.148419 -2.12475e-20)
(1.1702 -0.133835 4.15595e-20)
(1.15734 -0.120555 -1.79829e-20)
(1.14426 -0.108259 0)
(1.13076 -0.0967003 5.73409e-20)
(1.11669 -0.0856947 -7.49341e-20)
(1.10189 -0.0750875 0)
(1.08626 -0.0646531 1.9084e-20)
(1.06972 -0.0541076 9.03583e-20)
(1.05181 -0.044121 -5.15915e-20)
(1.03096 -0.0383391 9.30004e-20)
(1.00695 -0.0380567 -5.41314e-20)
(1.02651 -0.432199 -2.89498e-19)
(1.39141 -0.51187 -2.8691e-19)
(1.4564 -0.486929 0)
(1.44872 -0.432129 -7.05902e-20)
(1.41249 -0.375277 1.0335e-20)
(1.36961 -0.32277 -1.16708e-20)
(1.32975 -0.278243 2.02299e-21)
(1.29663 -0.241954 -6.2842e-21)
(1.27008 -0.212683 1.01166e-20)
(1.24853 -0.188866 1.62809e-20)
(1.2303 -0.169066 -5.10306e-20)
(1.2141 -0.152179 1.61361e-20)
(1.19907 -0.137438 1.68833e-20)
(1.18466 -0.124296 -5.00195e-20)
(1.17048 -0.112361 0)
(1.15624 -0.101337 3.51381e-20)
(1.14171 -0.0909999 -3.36564e-20)
(1.12669 -0.0811812 -1.59157e-20)
(1.11099 -0.0717352 -1.57346e-20)
(1.09447 -0.0624423 6.55063e-20)
(1.077 -0.0530095 -6.38987e-20)
(1.0581 -0.044052 -6.64621e-20)
(1.03632 -0.0391963 6.5244e-20)
(1.01082 -0.0403107 2.37821e-20)
(1.0539 -0.343576 3.64472e-19)
(1.4206 -0.42403 1.02621e-19)
(1.49541 -0.412551 0)
(1.48919 -0.373706 7.0877e-20)
(1.45075 -0.328919 0)
(1.40413 -0.285635 -7.44803e-21)
(1.36019 -0.247901 6.83524e-21)
(1.32317 -0.216574 -5.93664e-21)
(1.29318 -0.190976 0)
(1.26876 -0.170005 0)
(1.2482 -0.15252 -8.23375e-21)
(1.23011 -0.13761 1.23448e-20)
(1.21352 -0.124611 0)
(1.1978 -0.113047 2.28854e-20)
(1.18251 -0.102571 3.0817e-20)
(1.16729 -0.0929244 -2.93243e-20)
(1.15189 -0.0839129 -3.06118e-20)
(1.13607 -0.0753893 7.97786e-21)
(1.11964 -0.0672263 1.50892e-20)
(1.10241 -0.0592221 2.90701e-20)
(1.08418 -0.0510821 -6.87529e-21)
(1.0645 -0.0433307 -3.01184e-20)
(1.04199 -0.0394562 -3.19024e-20)
(1.01516 -0.0421693 2.43124e-20)
(1.06867 -0.262465 4.22791e-20)
(1.43558 -0.337429 8.47958e-20)
(1.52135 -0.336778 0)
(1.51877 -0.312147 -4.90326e-20)
(1.481 -0.279257 4.13018e-20)
(1.43241 -0.245176 -1.02743e-20)
(1.38578 -0.214611 0)
(1.34583 -0.18859 -3.22694e-21)
(1.31312 -0.166974 0)
(1.28636 -0.149107 0)
(1.26386 -0.134133 -5.07025e-21)
(1.24419 -0.12134 -1.10643e-20)
(1.22631 -0.110185 2.24638e-20)
(1.20951 -0.100269 -1.81383e-20)
(1.1933 -0.0913035 0)
(1.17729 -0.0830726 0)
(1.16118 -0.0754176 0)
(1.14473 -0.0682233 1.32777e-20)
(1.1277 -0.0613945 -6.26535e-21)
(1.10989 -0.0547705 0)
(1.09108 -0.0480827 6.30362e-22)
(1.07082 -0.0417186 2.09781e-20)
(1.04783 -0.0387893 -2.68393e-20)
(1.01985 -0.0433596 0)
(1.072 -0.186344 2.16845e-20)
(1.43741 -0.252946 -5.17897e-20)
(1.53481 -0.261225 0)
(1.53761 -0.248812 4.92968e-20)
(1.50312 -0.227585 -3.01791e-20)
(1.45432 -0.202498 0)
(1.40636 -0.179179 -1.25258e-21)
(1.36446 -0.15866 1.0711e-20)
(1.32976 -0.141252 -1.93362e-21)
(1.30119 -0.126654 -1.48083e-22)
(1.27716 -0.114311 0)
(1.25624 -0.103712 -4.66326e-21)
(1.23735 -0.09444 3.73154e-21)
(1.21973 -0.0861822 0)
(1.20282 -0.0787082 0)
(1.18622 -0.0718493 0)
(1.16958 -0.0654852 0)
(1.15264 -0.059536 -7.59498e-21)
(1.13514 -0.053948 7.65378e-21)
(1.11686 -0.0486311 1.20157e-20)
(1.09754 -0.0433986 -1.894e-20)
(1.07679 -0.0384783 1.80284e-20)
(1.05355 -0.0361508 -1.14244e-20)
(1.02551 -0.0427304 1.43066e-20)
(1.06429 -0.113803 0)
(1.42686 -0.171242 3.3183e-20)
(1.53626 -0.186892 -2.36494e-21)
(1.54622 -0.185226 2.1102e-21)
(1.51695 -0.174766 0)
(1.46976 -0.158577 0)
(1.42179 -0.142409 -7.30536e-21)
(1.379 -0.12746 0)
(1.34303 -0.114363 1.96425e-22)
(1.3132 -0.103126 -3.21104e-23)
(1.28807 -0.0934777 0)
(1.26624 -0.0850998 6.7442e-22)
(1.24664 -0.0777057 -5.97579e-22)
(1.22846 -0.0710684 2.84588e-22)
(1.21112 -0.0650167 1.0597e-21)
(1.19415 -0.0594262 -5.42969e-22)
(1.1772 -0.054211 0)
(1.15996 -0.0493214 1.36825e-21)
(1.14217 -0.044738 -2.6268e-21)
(1.12353 -0.0404313 1.01329e-22)
(1.1037 -0.0363013 -1.19586e-21)
(1.08217 -0.0325594 0)
(1.05817 -0.0310035 -2.43466e-23)
(1.0312 -0.0364237 -2.22653e-21)
(1.04541 -0.0442424 -2.20469e-20)
(1.40433 -0.0929034 -1.32562e-19)
(1.52615 -0.114646 1.32057e-20)
(1.54504 -0.122564 -1.29886e-20)
(1.52239 -0.121658 1.18246e-20)
(1.47867 -0.114252 -3.34136e-20)
(1.43205 -0.105028 9.28142e-21)
(1.38938 -0.0956163 0)
(1.35291 -0.0868495 0)
(1.32238 -0.0790089 -4.14599e-21)
(1.29659 -0.0720755 0)
(1.27423 -0.0659152 0)
(1.25423 -0.0603713 6.02738e-22)
(1.23578 -0.0553061 -3.00404e-21)
(1.21826 -0.0506122 0)
(1.20119 -0.0462138 0)
(1.18418 -0.0420659 0)
(1.16688 -0.0381587 4.60308e-21)
(1.14897 -0.0345136 -2.70445e-21)
(1.13008 -0.0311405 1.08327e-21)
(1.10976 -0.0280331 1.26547e-21)
(1.08749 -0.0257355 4.59946e-21)
(1.06292 -0.0265598 -4.88509e-21)
(1.03601 -0.0313891 1.31596e-23)
(1.0152 0.0223483 -4.3796e-20)
(1.37001 -0.018519 1.75171e-19)
(1.50469 -0.045269 0)
(1.53425 -0.0617751 0)
(1.51938 -0.0691396 0)
(1.4812 -0.0702522 2.78003e-20)
(1.43713 -0.0676994 0)
(1.39561 -0.0637145 0)
(1.35942 -0.0592399 6.86634e-21)
(1.32878 -0.0547846 -2.17302e-21)
(1.30277 -0.0505543 3.05126e-21)
(1.28024 -0.0465908 0)
(1.26015 -0.0428676 -2.5451e-21)
(1.24171 -0.0393435 -1.00303e-21)
(1.22428 -0.0359857 4.06991e-21)
(1.20735 -0.0327812 -2.62891e-21)
(1.19049 -0.0297432 -7.31711e-21)
(1.17332 -0.026919 3.58582e-21)
(1.15546 -0.0243815 4.25403e-21)
(1.13647 -0.0221811 -4.36975e-21)
(1.11588 -0.0203677 1.70288e-20)
(1.0932 -0.0195962 -2.49161e-20)
(1.06822 -0.0220622 4.79082e-21)
(1.04046 -0.0271306 -1.52725e-20)
(0.973512 0.085595 4.30841e-20)
(1.32397 0.0512974 -3.78441e-20)
(1.47195 0.0204694 4.1126e-20)
(1.51413 -0.00356078 -3.68484e-20)
(1.50793 -0.0183029 0)
(1.47719 -0.027074 0)
(1.43703 -0.0310392 0)
(1.39771 -0.0323033 -1.26335e-20)
(1.3626 -0.0320272 1.16953e-20)
(1.33245 -0.0309084 0)
(1.30669 -0.0293462 2.46351e-21)
(1.28435 -0.0275462 -7.93629e-22)
(1.26448 -0.0256107 0)
(1.2463 -0.023599 -1.29681e-21)
(1.22916 -0.0215602 2.42128e-21)
(1.21254 -0.0195505 -1.1733e-21)
(1.19598 -0.0176454 0)
(1.17906 -0.0159462 1.0891e-20)
(1.16133 -0.0145694 -1.83219e-20)
(1.14236 -0.0135954 0)
(1.12163 -0.0131012 0)
(1.09874 -0.0137348 3.91775e-21)
(1.07356 -0.01749 7.37066e-21)
(1.04537 -0.0234162 -7.49328e-21)
(0.920379 0.144885 0)
(1.26633 0.1159 0)
(1.42797 0.0818458 1.82247e-19)
(1.48432 0.051741 -1.27273e-19)
(1.48858 0.0296715 0)
(1.46635 0.0145598 0)
(1.43169 0.00436262 0)
(1.39569 -0.00189828 -2.7678e-20)
(1.36251 -0.00566932 2.96895e-21)
(1.33347 -0.00780174 1.55459e-20)
(1.30843 -0.00885179 0)
(1.28664 -0.00917003 -6.60683e-21)
(1.26728 -0.00898125 -5.86187e-21)
(1.2496 -0.00844459 4.69934e-21)
(1.23296 -0.0076911 -7.00261e-21)
(1.21681 -0.00684579 1.61914e-20)
(1.20069 -0.00604086 -7.08039e-21)
(1.18413 -0.00542243 1.2024e-21)
(1.16669 -0.0051386 5.96429e-21)
(1.14789 -0.00529593 0)
(1.12725 -0.00599879 -1.93958e-20)
(1.10438 -0.00787553 -8.60663e-21)
(1.07924 -0.0127914 4.44944e-20)
(1.05092 -0.0198367 -2.00499e-20)
(0.856063 0.199507 4.29406e-19)
(1.19713 0.174518 -1.29407e-19)
(1.37272 0.138093 -2.11831e-19)
(1.44458 0.102911 2.56599e-19)
(1.46147 0.0749083 -2.43738e-21)
(1.44848 0.053622 3.67276e-20)
(1.42098 0.0379981 -4.10517e-20)
(1.38952 0.0270612 3.80323e-20)
(1.35915 0.0194319 1.94972e-20)
(1.33189 0.01416 -4.91236e-20)
(1.30806 0.0105703 1.32129e-20)
(1.28721 0.00819004 9.64272e-21)
(1.26866 0.00668334 -1.02539e-20)
(1.25171 0.00579694 1.90647e-22)
(1.23576 0.00532172 -7.8242e-22)
(1.22027 0.00506919 0)
(1.20474 0.0048573 9.29894e-21)
(1.18871 0.00450309 -2.20041e-21)
(1.17174 0.00383089 2.22402e-20)
(1.15334 0.00270081 2.22697e-21)
(1.13301 0.000978851 -1.97811e-20)
(1.1104 -0.00196983 5.78416e-21)
(1.08548 -0.00794737 5.60004e-21)
(1.05721 -0.0162091 -1.08733e-20)
(0.781177 0.248844 -3.46612e-19)
(1.11668 0.226423 -5.92154e-19)
(1.30614 0.188442 -2.41283e-19)
(1.39477 0.149275 2.97026e-19)
(1.42578 0.116265 3.42457e-20)
(1.42387 0.0898469 0)
(1.40477 0.0694281 0)
(1.37905 0.054192 -3.03009e-20)
(1.35248 0.042924 5.23988e-20)
(1.32773 0.0346466 3.0903e-20)
(1.30565 0.0286051 -3.4971e-21)
(1.28614 0.0242299 2.47848e-20)
(1.26871 0.0210903 7.74556e-21)
(1.25276 0.0188485 -4.48868e-21)
(1.23772 0.0172244 3.04712e-21)
(1.22306 0.0159721 0)
(1.20832 0.0148654 -2.43923e-21)
(1.19302 0.0136876 -4.58377e-21)
(1.17672 0.0122326 -9.68721e-21)
(1.15893 0.0103215 1.6251e-20)
(1.13915 0.00778099 -2.00586e-20)
(1.11701 0.00394566 0)
(1.09251 -0.00296804 -2.56985e-20)
(1.06445 -0.0124622 2.51687e-20)
(0.696284 0.291805 8.7549e-20)
(1.0253 0.270788 3.74795e-19)
(1.2283 0.231996 4.34057e-19)
(1.3347 0.190107 -2.42268e-19)
(1.38134 0.153231 6.98794e-20)
(1.39207 0.122647 -7.07647e-20)
(1.38273 0.0981454 0)
(1.36403 0.0790879 0)
(1.34231 0.0644682 4.48181e-20)
(1.3209 0.0533576 -1.10952e-19)
(1.30119 0.0449732 -2.18178e-20)
(1.28348 0.0386837 -1.73884e-20)
(1.26752 0.0339854 0)
(1.25285 0.0304701 -6.09149e-21)
(1.23897 0.0277955 -3.91837e-21)
(1.22538 0.0256648 -9.90548e-22)
(1.21163 0.0238108 5.97958e-21)
(1.19728 0.0219835 2.01439e-21)
(1.18188 0.0199408 5.90851e-21)
(1.16493 0.0174646 0)
(1.14592 0.0143256 0)
(1.12448 0.0098207 0)
(1.10058 0.00213587 0)
(1.07291 -0.00854062 0)
(0.60179 0.327198 -8.30106e-20)
(0.923409 0.306529 -4.23305e-19)
(1.13921 0.26793 3.01337e-19)
(1.26407 0.224712 0)
(1.3277 0.185279 -1.6762e-19)
(1.35255 0.151554 5.43408e-20)
(1.35441 0.123723 -9.06488e-20)
(1.34407 0.101381 -2.26908e-20)
(1.32835 0.083753 5.19266e-20)
(1.3112 0.0700201 -1.33057e-21)
(1.29458 0.0594258 8.16045e-20)
(1.27921 0.0513168 -4.18272e-20)
(1.26514 0.0451444 0)
(1.25209 0.0404474 -4.64581e-21)
(1.23965 0.0368324 1.6644e-20)
(1.22739 0.0339577 1.00588e-21)
(1.21488 0.0315176 0)
(1.2017 0.0292275 -7.52554e-21)
(1.18744 0.0268078 5.8377e-21)
(1.17158 0.0239972 -1.0617e-20)
(1.15358 0.0205079 -2.43441e-21)
(1.13307 0.0155876 5.87383e-21)
(1.11 0.00734933 0)
(1.08293 -0.00439629 0)
(0.499456 0.354111 0)
(0.812323 0.332665 4.20926e-19)
(1.03918 0.295375 -5.79207e-19)
(1.18249 0.252499 2.01728e-19)
(1.26418 0.211941 0)
(1.30457 0.176174 -1.09963e-19)
(1.31905 0.145812 -3.86103e-20)
(1.31849 0.120758 3.59109e-20)
(1.31007 0.100503 4.92624e-20)
(1.29825 0.0843896 -1.33621e-21)
(1.28556 0.0717388 5.06145e-20)
(1.27318 0.061918 1.65635e-20)
(1.26152 0.0543636 0)
(1.25049 0.0485818 -1.85252e-20)
(1.23984 0.0441401 0)
(1.22921 0.0406592 0)
(1.21822 0.0377979 0)
(1.20648 0.035236 -1.04143e-21)
(1.19361 0.0326576 4.2976e-21)
(1.1791 0.0297558 -6.02393e-21)
(1.16239 0.0261898 -2.09107e-20)
(1.14307 0.0211509 2.61309e-20)
(1.1211 0.0126425 2.86439e-20)
(1.09492 1.03274e-05 -2.19915e-20)
(0.391752 0.371074 1.17948e-19)
(0.694378 0.347642 3.35594e-19)
(0.929531 0.313227 2.02033e-19)
(1.08993 0.272761 -1.14037e-19)
(1.18998 0.232748 5.65076e-20)
(1.24702 0.196161 2.11939e-19)
(1.27554 0.164127 7.65499e-20)
(1.28625 0.136963 -5.79889e-20)
(1.28655 0.114484 0)
(1.28134 0.0962491 2.92188e-20)
(1.27363 0.0817076 -5.62109e-20)
(1.26507 0.0702893 -1.96986e-20)
(1.25644 0.0614484 0)
(1.24796 0.0546788 2.62625e-20)
(1.23952 0.0495178 -1.94688e-20)
(1.23088 0.0455641 9.63939e-21)
(1.22174 0.042444 1.68311e-21)
(1.21176 0.0398007 -6.89775e-22)
(1.20057 0.0372811 7.92438e-21)
(1.18771 0.0345417 -4.27318e-21)
(1.17259 0.0311918 0)
(1.15477 0.0263778 4.3538e-21)
(1.13424 0.0179582 0)
(1.10933 0.0047069 -6.86909e-21)
(0.28198 0.375466 -6.91816e-20)
(0.573358 0.349361 -6.03035e-19)
(0.813204 0.319997 -1.23476e-19)
(0.98743 0.284488 4.98279e-20)
(1.10467 0.247059 -1.36551e-19)
(1.17865 0.211109 -1.46098e-19)
(1.22231 0.178395 3.10294e-20)
(1.24576 0.14978 -3.99836e-21)
(1.25637 0.125502 -1.8051e-21)
(1.25927 0.105411 -9.91724e-20)
(1.25784 0.0891448 2.7565e-20)
(1.25418 0.0762424 1.64672e-20)
(1.24945 0.0662123 -1.55249e-20)
(1.24418 0.0585616 0)
(1.23851 0.0527983 -2.36091e-20)
(1.23235 0.0484812 1.30551e-22)
(1.22546 0.04524 3.99278e-21)
(1.21757 0.0426917 -5.04186e-22)
(1.2084 0.0404414 -4.44328e-21)
(1.19751 0.0381157 2.94861e-21)
(1.18434 0.0352864 0)
(1.16843 0.0310795 -4.44224e-21)
(1.14975 0.0232002 5.16119e-21)
(1.12661 0.00969794 -4.18536e-21)
(0.175302 0.363316 -3.38594e-20)
(0.454602 0.33565 4.11097e-19)
(0.695056 0.31424 -9.89273e-20)
(0.877943 0.286487 1.6271e-19)
(1.00907 0.253972 -6.6551e-20)
(1.09873 0.2204 0)
(1.1577 0.188214 0)
(1.19496 0.158943 4.57102e-20)
(1.2174 0.13336 -2.31419e-21)
(1.23008 0.111703 0)
(1.23656 0.0938745 0)
(1.23923 0.079584 3.02015e-20)
(1.2396 0.0684311 -6.34426e-21)
(1.23848 0.0599382 -3.67165e-20)
(1.23615 0.0535607 2.71631e-20)
(1.23316 0.0490176 3.98458e-21)
(1.22908 0.0459316 0)
(1.22378 0.0436625 -1.83351e-22)
(1.21703 0.0418806 -4.39303e-22)
(1.20851 0.0402019 0)
(1.19769 0.038188 -1.38574e-20)
(1.18414 0.0349816 -2.56749e-21)
(1.16784 0.028204 1.51046e-20)
(1.14717 0.0149394 3.25659e-21)
(0.0794994 0.327953 0)
(0.344736 0.304839 0)
(0.581122 0.295305 0)
(0.766142 0.278043 0)
(0.905818 0.252683 0)
(1.00785 0.223301 0)
(1.08069 0.193011 5.36254e-20)
(1.13173 0.164044 -5.0047e-20)
(1.16695 0.137773 -3.05417e-20)
(1.19095 0.11491 5.23425e-20)
(1.20715 0.0957081 1.78716e-20)
(1.21796 0.0801154 1.34753e-20)
(1.22506 0.0678756 1.00519e-20)
(1.22954 0.0585998 1.40226e-20)
(1.23202 0.0518851 -1.48358e-20)
(1.2327 0.0472475 -3.16322e-21)
(1.23209 0.0442928 -2.72494e-21)
(1.22994 0.0424524 -2.33471e-21)
(1.22615 0.0413309 1.0964e-21)
(1.22044 0.0404931 -6.41132e-21)
(1.21241 0.0395347 8.26332e-21)
(1.20177 0.0376943 -3.09736e-21)
(1.18851 0.0326649 -4.48649e-21)
(1.1713 0.0202828 2.41987e-21)
(0.00588976 0.259272 4.37538e-19)
(0.252536 0.257698 -2.45164e-19)
(0.477665 0.264416 -8.99306e-20)
(0.657032 0.259761 -2.2469e-20)
(0.798565 0.243283 5.42824e-20)
(0.907926 0.219559 6.75793e-20)
(0.991352 0.192406 4.71181e-20)
(1.05454 0.164715 -4.39914e-20)
(1.10228 0.138446 0)
(1.13839 0.114809 -4.18785e-21)
(1.16579 0.0944627 -3.63202e-20)
(1.18665 0.0776667 -2.58388e-21)
(1.20253 0.0643811 -2.04871e-20)
(1.21451 0.0543843 0)
(1.22346 0.0474155 1.30696e-20)
(1.22953 0.042852 -7.47192e-21)
(1.23339 0.0400778 1.47836e-21)
(1.23503 0.0387459 2.9587e-22)
(1.23476 0.038441 3.74347e-22)
(1.23272 0.0386018 -2.10533e-21)
(1.22796 0.0389513 -1.48661e-21)
(1.22075 0.0387637 0)
(1.2112 0.0361142 -1.41503e-20)
(1.19886 0.0253878 1.0525e-20)
(-0.0298846 0.146456 -3.61734e-19)
(0.188915 0.199025 1.81544e-19)
(0.390287 0.226037 4.41668e-20)
(0.554669 0.234829 0)
(0.690439 0.227694 0)
(0.801007 0.210267 -6.22387e-21)
(0.890239 0.187023 0)
(0.962207 0.161368 -2.9837e-20)
(1.02049 0.135722 4.96072e-20)
(1.06805 0.111729 -4.3178e-21)
(1.10716 0.0904558 -2.30685e-20)
(1.1395 0.0725175 -5.8695e-21)
(1.16625 0.0581792 1.40959e-20)
(1.18821 0.0474699 4.35382e-21)
(1.20596 0.0401263 -2.91324e-21)
(1.21977 0.0355621 5.67269e-21)
(1.23005 0.0331359 -1.49675e-21)
(1.23729 0.0325349 0)
(1.24178 0.033209 2.33395e-23)
(1.24351 0.0346692 9.488e-22)
(1.2428 0.0361792 1.50882e-21)
(1.23969 0.0377185 0)
(1.23387 0.0377013 0)
(1.22877 0.0300054 3.39094e-21)
(0.0146188 0.0378577 5.0816e-19)
(0.0168353 0.0543447 -1.01215e-22)
(0.0288116 0.0623094 -2.78506e-19)
(0.0504814 0.0629185 -2.22856e-19)
(0.0722167 0.0638116 -1.87693e-19)
(0.135743 0.0511015 0)
(0.0110203 0.0424641 -4.47464e-19)
(0.0128249 0.056014 3.32362e-19)
(0.0231776 0.0618016 0)
(0.04068 0.0620353 0)
(0.0572948 0.0606782 4.38545e-20)
(0.0996974 0.0573873 1.11805e-19)
(0.00871915 0.0450937 -4.06669e-19)
(0.00969211 0.0571173 -9.73725e-21)
(0.0170789 0.0618115 4.57405e-20)
(0.029749 0.0617747 -4.99109e-20)
(0.0419217 0.0606431 4.21522e-20)
(0.0700154 0.0608175 -2.67443e-19)
(0.00640517 0.0475419 3.70781e-19)
(0.00597009 0.0584259 -9.25419e-21)
(0.0104429 0.0623244 0)
(0.0185668 0.0621213 0)
(0.0263117 0.0610463 0)
(0.0439174 0.062855 2.08707e-19)
(0.00389577 0.0500049 -2.8007e-21)
(0.00170213 0.059956 -1.4885e-19)
(0.00349101 0.0633423 -1.0216e-19)
(0.00751557 0.0631655 0)
(0.0112889 0.0622553 0)
(0.0213115 0.0648471 -6.74898e-20)
(0.00113581 0.0523379 0)
(-0.00296684 0.0616283 -3.64184e-22)
(-0.00356817 0.0647905 9.12746e-20)
(-0.00310972 0.0647771 2.17303e-20)
(-0.00263117 0.0641304 9.21911e-21)
(0.00196253 0.0668959 -1.65718e-20)
(-0.00180632 0.0551973 -1.10547e-19)
(-0.00773275 0.0633645 1.31442e-19)
(-0.0105378 0.066553 0)
(-0.0130896 0.0667762 -1.05091e-20)
(-0.0152738 0.066333 -2.73092e-20)
(-0.0144367 0.0687223 0)
(-0.00513199 0.0575216 1.75881e-19)
(-0.0123746 0.065114 3.23792e-20)
(-0.0172374 0.0685185 0)
(-0.0222793 0.0689967 0)
(-0.0265431 0.0685581 3.56975e-20)
(-0.0281026 0.0702238 0)
(-0.00860838 0.0595188 -5.85908e-20)
(-0.0168143 0.0668367 -3.18564e-20)
(-0.0235128 0.0706121 -3.79345e-22)
(-0.0305889 0.0713236 3.19671e-22)
(-0.036377 0.0706488 5.4261e-22)
(-0.0392476 0.0712836 -4.8659e-22)
(-0.0120675 0.0614115 -9.17015e-22)
(-0.0209402 0.0685072 0)
(-0.0292387 0.0727865 0)
(-0.0379627 0.073693 0)
(-0.044768 0.0725263 0)
(-0.0480738 0.071812 0)
(-0.0153798 0.0630121 0)
(-0.0246465 0.0701063 6.72275e-20)
(-0.0343158 0.0750206 4.52413e-20)
(-0.0443693 0.0760829 0)
(-0.051744 0.0741723 0)
(-0.0548005 0.0717674 0)
(-0.0184166 0.0642508 0)
(-0.0278477 0.0716263 -1.89768e-19)
(-0.0386722 0.0773152 -1.44713e-19)
(-0.0498037 0.0785096 0)
(-0.057387 0.0756275 0)
(-0.0596385 0.0711416 0)
(-0.0210616 0.0650969 -1.106e-20)
(-0.0304841 0.0730667 1.22827e-19)
(-0.0422617 0.0796871 1.02795e-19)
(-0.0542845 0.0810256 0)
(-0.0618144 0.0769672 0)
(-0.0628029 0.0699719 6.11824e-20)
(-0.0232061 0.0655234 0)
(-0.0325248 0.0744258 1.60148e-20)
(-0.0450598 0.0821609 1.84328e-19)
(-0.0578478 0.0837118 2.03923e-20)
(-0.0651408 0.0783124 1.24569e-19)
(-0.064543 0.0683372 -6.1616e-20)
(-0.0247459 0.0655134 4.75592e-19)
(-0.0339704 0.075693 -2.59398e-19)
(-0.047057 0.0847594 -1.98577e-19)
(-0.0605368 0.0866674 2.07865e-20)
(-0.0674669 0.0798537 -1.80076e-19)
(-0.065144 0.0663616 1.60346e-20)
(-0.0255911 0.0650969 -4.69042e-19)
(-0.0348552 0.0768387 -6.06171e-22)
(-0.048251 0.0874909 -2.0386e-19)
(-0.0623855 0.0900025 1.73017e-19)
(-0.0688661 0.0818504 -1.49471e-19)
(-0.0649234 0.064255 -3.11486e-20)
(-0.025712 0.0644294 4.71578e-19)
(-0.0352506 0.0778068 2.85001e-19)
(-0.04865 0.090336 1.95077e-19)
(-0.0634032 0.0938214 -1.76439e-19)
(-0.069346 0.0846629 1.52305e-19)
(-0.0642236 0.0623306 1.68124e-19)
(-0.0251402 0.0636965 -4.87665e-19)
(-0.0352781 0.078498 1.73142e-20)
(-0.0482684 0.0932165 -4.04573e-20)
(-0.0635548 0.0982011 4.57344e-20)
(-0.0688305 0.088809 1.94609e-20)
(-0.0633473 0.0609642 -1.74544e-19)
(-0.0227676 0.0615547 1.40372e-20)
(-0.0351409 0.0786282 9.00442e-21)
(-0.0471056 0.0959569 -2.10325e-19)
(-0.0627303 0.103164 1.30688e-22)
(-0.0671957 0.0950121 2.07343e-20)
(-0.062405 0.0605078 -1.89723e-19)
(-0.0232732 0.0575982 0)
(-0.0349734 0.0777561 2.75248e-19)
(-0.0451131 0.0982722 2.78582e-19)
(-0.0606802 0.108638 -2.49326e-20)
(-0.0641457 0.103926 0)
(-0.0615176 0.0618003 1.92783e-19)
(-0.0244111 0.0527627 -3.98022e-19)
(-0.0344232 0.0757524 -2.70588e-19)
(-0.042198 0.0998566 -1.53569e-20)
(-0.0570747 0.114356 5.38548e-20)
(-0.0588748 0.116224 -4.64391e-20)
(-0.0609581 0.0665758 1.39646e-19)
(-0.0252238 0.0475037 7.8759e-19)
(-0.0333747 0.0726306 2.07606e-20)
(-0.0384049 0.100426 -2.3236e-19)
(-0.0516753 0.119883 -1.99755e-19)
(-0.0500094 0.133045 -4.9434e-20)
(-0.0606584 0.0766197 1.18757e-20)
(-0.026028 0.0416576 -4.77832e-19)
(-0.0319707 0.068218 -3.59849e-19)
(-0.0340758 0.0994887 3.24406e-19)
(-0.0446965 0.124482 2.15872e-19)
(-0.0354432 0.155713 0)
(-0.0594201 0.0926275 -2.03814e-19)
(-0.0273144 0.0309448 -8.18405e-21)
(-0.0319271 0.0576404 3.57081e-19)
(-0.0298363 0.0916464 -2.8697e-19)
(-0.0334989 0.119902 2.62776e-19)
(-0.0100034 0.179734 2.33302e-19)
(-0.0471635 0.109302 0)
(0.0408098 0.0476073 -5.72759e-20)
(0.162916 0.142617 1.87677e-19)
(0.318887 0.188871 1.82629e-19)
(0.459674 0.208811 1.07659e-19)
(0.582764 0.209711 0)
(0.687944 0.198235 -6.13956e-20)
(0.777089 0.179124 0)
(0.852746 0.15604 0)
(0.91745 0.131613 0)
(0.973427 0.107737 -1.60293e-20)
(1.02249 0.0857967 1.15096e-20)
(1.06591 0.0667761 8.32581e-21)
(1.10447 0.051323 -6.04896e-21)
(1.1386 0.0396672 -4.36625e-21)
(1.16813 0.0316631 -3.05896e-21)
(1.19317 0.0269668 0)
(1.2135 0.0249545 1.33228e-21)
(1.22919 0.0248919 -1.27423e-21)
(1.24075 0.0262536 2.79746e-22)
(1.2488 0.0286872 -1.86141e-21)
(1.25345 0.0316628 1.78314e-21)
(1.25516 0.0346818 0)
(1.25387 0.0369931 -8.53824e-21)
(1.25717 0.0337235 8.20439e-21)
(0.0721659 0.0478731 2.62448e-20)
(0.138928 0.116551 -1.64088e-19)
(0.253607 0.162384 -1.80213e-19)
(0.368288 0.186938 -1.07716e-19)
(0.474517 0.193235 -7.6548e-20)
(0.568912 0.186781 0)
(0.651754 0.171813 1.70642e-20)
(0.72469 0.151861 -1.59185e-20)
(0.78946 0.129508 0)
(0.847757 0.106664 2.25633e-20)
(0.901141 0.0848735 -9.81726e-21)
(0.950833 0.0652887 5.29647e-21)
(0.997624 0.0486836 0)
(1.04192 0.0356319 0)
(1.08392 0.0264817 0)
(1.1229 0.0210918 0)
(1.1579 0.0190002 0)
(1.18818 0.0195759 1.07074e-21)
(1.21304 0.0220928 -1.02828e-21)
(1.23234 0.0254524 0)
(1.24632 0.0293742 0)
(1.25634 0.0323014 0)
(1.26127 0.0371473 0)
(1.2761 0.0365771 0)
(0.0667782 0.0564399 -1.2665e-19)
(0.108526 0.105492 8.28867e-20)
(0.19098 0.145444 -3.07067e-20)
(0.280418 0.170302 7.83568e-20)
(0.367356 0.179817 1.1407e-19)
(0.447189 0.177375 -2.42146e-20)
(0.518962 0.166436 2.24433e-20)
(0.583403 0.1502 1.40215e-20)
(0.641782 0.130848 0)
(0.695379 0.110241 -1.20609e-20)
(0.745468 0.0899615 4.40767e-21)
(0.793231 0.0711439 -5.24399e-21)
(0.839614 0.0545933 -3.09855e-21)
(0.885327 0.0409705 5.65403e-22)
(0.930832 0.0307468 3.53556e-21)
(0.976213 0.0241136 0)
(1.02102 0.0209653 -9.76819e-22)
(1.06443 0.0208862 2.81501e-21)
(1.10519 0.0234018 -2.70987e-21)
(1.14244 0.0273729 5.06685e-22)
(1.17366 0.0327244 2.55226e-22)
(1.20204 0.0366508 -9.98038e-23)
(1.21685 0.0416886 -3.34439e-22)
(1.25196 0.0429787 0)
(0.0467369 0.0625674 1.00014e-19)
(0.0750559 0.100011 -8.17409e-20)
(0.133332 0.133923 0)
(0.200429 0.157302 -5.00535e-20)
(0.268162 0.168282 -2.0506e-20)
(0.331952 0.168761 -1.56793e-20)
(0.390435 0.161432 0)
(0.443511 0.148743 -1.38617e-20)
(0.491976 0.132587 -8.80421e-21)
(0.536788 0.114736 8.27382e-21)
(0.578929 0.0967296 -1.65773e-21)
(0.619319 0.0796364 -1.37773e-20)
(0.65877 0.0642119 2.5276e-21)
(0.698015 0.051187 -3.29242e-21)
(0.73766 0.041114 1.90812e-21)
(0.778094 0.0341966 0)
(0.819473 0.0304015 -3.17705e-21)
(0.861802 0.0295136 3.9788e-21)
(0.904665 0.0312094 0)
(0.947885 0.0349128 -4.99528e-22)
(0.989052 0.0402715 -9.48043e-22)
(1.03179 0.0459171 7.71856e-22)