/*--------------------------------*- C++ -*----------------------------------*\
  =========                 |
  \\      /  F ield         | OpenFOAM: The Open Source CFD Toolbox
   \\    /   O peration     | Website:  https://openfoam.org
    \\  /    A nd           | Version:  11
     \\/     M anipulation  |
\*---------------------------------------------------------------------------*/
FoamFile
{
    format      ascii;
    class       surfaceVectorField;
    location    "0.16";
    object      Uf;
}
// * * * * * * * * * * * * * * * * * * * * * * * * * * * * * * * * * * * * * //

dimensions      [0 1 -1 0 0 0 0];

internalField   nonuniform List<vector> 
5640
(
(-0.130663 -0.245448 2.80049e-19)
(-0.125204 -0.197325 8.06311e-20)
(-0.201771 -0.403944 -1.21073e-18)
(-0.199361 -0.347394 -5.72569e-20)
(-0.196694 -0.439806 -1.02308e-18)
(-0.224614 -0.477746 -5.51127e-19)
(-0.175067 -0.456588 -1.9238e-19)
(-0.194938 -0.468806 -4.69187e-19)
(-0.0907105 -0.434889 2.39735e-19)
(-0.165006 -0.507943 3.97767e-19)
(0.0717618 -0.250252 3.45065e-19)
(0.385947 -0.51042 7.93247e-20)
(-0.199461 -0.294611 -2.53389e-19)
(-0.196212 -0.221911 -1.61248e-18)
(-0.242164 -0.443472 6.35139e-19)
(-0.247357 -0.363529 5.87746e-19)
(-0.22191 -0.493484 0)
(-0.241274 -0.489557 9.77132e-20)
(-0.16627 -0.488384 9.66528e-20)
(-0.191594 -0.483909 -1.11241e-19)
(-0.0411851 -0.43579 4.51475e-19)
(-0.10617 -0.496208 1.9515e-19)
(0.147088 -0.285287 -3.60685e-19)
(0.443088 -0.472084 3.1998e-19)
(-0.242368 -0.289178 -8.98065e-19)
(-0.24932 -0.213762 -1.62852e-20)
(-0.256048 -0.426066 6.12744e-20)
(-0.272601 -0.346268 -3.98446e-20)
(-0.212271 -0.478844 -4.32257e-21)
(-0.23849 -0.463389 9.77132e-20)
(-0.123119 -0.466279 -4.72571e-21)
(-0.161402 -0.455776 -1.11241e-19)
(0.0413808 -0.416115 -4.82665e-19)
(-0.0368085 -0.461007 9.57089e-20)
(0.235219 -0.286451 -1.52088e-19)
(0.509364 -0.421565 -9.58852e-19)
(-0.279022 -0.269368 8.38099e-19)
(-0.295884 -0.197123 8.00553e-19)
(-0.262704 -0.394813 -1.91576e-20)
(-0.290252 -0.319079 -3.38748e-19)
(-0.192261 -0.44381 0)
(-0.230202 -0.424198 -2.39196e-19)
(-0.0722036 -0.428691 0)
(-0.126232 -0.414562 0)
(0.126782 -0.384163 4.80371e-19)
(0.0303327 -0.415879 0)
(0.320797 -0.270436 3.3177e-19)
(0.579628 -0.370009 7.10484e-19)
(-0.309653 -0.245014 -3.08549e-19)
(-0.337867 -0.179295 -6.2967e-21)
(-0.265075 -0.3571 -5.66241e-19)
(-0.304026 -0.287593 -3.25081e-19)
(-0.169879 -0.399131 -2.47276e-19)
(-0.220345 -0.378126 -2.5532e-20)
(-0.0240543 -0.384399 0)
(-0.0932415 -0.368152 5.3626e-20)
(0.202989 -0.343218 -1.58695e-19)
(0.0913282 -0.364063 2.31134e-20)
(0.395629 -0.244642 -2.03401e-19)
(0.641565 -0.319763 -3.10307e-19)
(-0.335872 -0.220427 -4.01889e-21)
(-0.374997 -0.160433 -2.08282e-19)
(-0.266349 -0.31586 2.01228e-19)
(-0.315668 -0.25622 2.79502e-19)
(-0.149441 -0.350361 2.72896e-19)
(-0.21173 -0.329521 2.14815e-19)
(0.0190385 -0.335424 7.41443e-20)
(-0.0647185 -0.318896 2.68901e-20)
(0.268016 -0.296428 -1.90337e-21)
(0.143334 -0.308216 -4.69822e-20)
(0.456837 -0.210562 -4.08081e-20)
(0.691322 -0.268649 1.04362e-19)
(-0.359391 -0.195615 4.8052e-20)
(-0.407252 -0.141902 9.98687e-20)
(-0.267775 -0.275942 2.96898e-19)
(-0.326467 -0.226278 3.5554e-19)
(-0.132682 -0.300446 -2.58327e-20)
(-0.205287 -0.280846 0)
(0.0547451 -0.283505 -9.33136e-20)
(-0.0416809 -0.267833 -2.67359e-20)
(0.31998 -0.245678 -7.17759e-20)
(0.184648 -0.250665 2.17122e-20)
(0.503908 -0.169045 0)
(0.728394 -0.214757 1.76266e-20)
(-0.379921 -0.173064 3.92806e-19)
(-0.434861 -0.127363 2.04963e-19)
(-0.270222 -0.236325 7.37707e-20)
(-0.336373 -0.196106 2.10298e-21)
(-0.120187 -0.250296 0)
(-0.201586 -0.232889 -9.35123e-22)
(0.0821944 -0.229849 8.94423e-20)
(-0.0247952 -0.215761 8.00778e-22)
(0.358615 -0.191889 9.42284e-20)
(0.214757 -0.192273 9.34518e-20)
(0.536658 -0.121736 -1.2809e-21)
(0.752608 -0.158242 9.04046e-21)
(-0.397467 -0.15212 -1.74162e-19)
(-0.457119 -0.115913 -1.05091e-19)
(-0.273877 -0.197129 -7.25201e-20)
(-0.345736 -0.16564 -6.87013e-20)
(-0.112353 -0.200363 -2.10228e-22)
(-0.200969 -0.185968 -9.35123e-22)
(0.100998 -0.175276 2.2126e-21)
(-0.014456 -0.163299 8.00778e-22)
(0.384148 -0.135965 4.03971e-22)
(0.23362 -0.133659 1.42944e-21)
(0.555154 -0.0703411 -1.2809e-21)
(0.764023 -0.0998583 -1.49376e-21)
(-0.41185 -0.132356 -1.72987e-21)
(-0.473517 -0.106576 -1.63551e-21)
(-0.278961 -0.15854 0)
(-0.35487 -0.135092 1.41364e-19)
(-0.109421 -0.150985 0)
(-0.203617 -0.140247 1.06612e-19)
(0.111031 -0.120437 0)
(-0.0108331 -0.110976 0)
(0.396862 -0.0788388 0)
(0.241449 -0.0754249 0)
(0.559674 -0.0164519 0)
(0.762628 -0.0405022 -9.19156e-21)
(-0.423016 -0.113339 1.33209e-19)
(-0.483742 -0.0983746 0)
(-0.285633 -0.120711 2.49939e-19)
(-0.363982 -0.104698 -2.49957e-19)
(-0.111478 -0.102444 1.10214e-19)
(-0.209591 -0.09581 -2.28316e-19)
(0.112355 -0.0659186 0)
(-0.0139063 -0.0592808 0)
(0.39713 -0.0214635 0)
(0.238616 -0.0181375 0)
(0.550682 0.0384476 0)
(0.748508 0.0188197 -1.8259e-20)
(-0.431006 -0.094184 -3.68729e-19)
(-0.487579 -0.0903131 -1.99674e-20)
(-0.293969 -0.0836726 -7.28642e-19)
(-0.373236 -0.0746655 -1.4199e-19)
(-0.11848 -0.0549761 -3.46255e-19)
(-0.218875 -0.0526847 -1.00769e-19)
(0.105221 -0.012255 0)
(-0.0234941 -0.00866023 0)
(0.38548 0.0352719 0)
(0.225632 0.0376699 0)
(0.528769 0.093031 1.50478e-19)
(0.721882 0.0770472 1.79622e-20)
(-0.435389 -0.0763333 2.12733e-19)
(-0.485381 -0.0814566 -1.99674e-20)
(-0.303914 -0.0477359 4.83117e-19)
(-0.382373 -0.0450936 2.81823e-19)
(-0.130253 -0.00880689 2.42069e-19)
(-0.231324 -0.0108355 6.38966e-19)
(0.0900739 0.0400632 0)
(-0.0392741 0.0404851 4.79543e-20)
(0.36242 0.0911495 1.4687e-19)
(0.203407 0.0915592 2.9425e-19)
(0.494355 0.146068 5.55817e-22)
(0.683104 0.133109 1.75484e-19)
(-0.436576 -0.057866 3.08077e-20)
(-0.477376 -0.0709052 8.13462e-19)
(-0.315237 -0.0127535 4.23344e-19)
(-0.391314 -0.0160102 -4.67807e-19)
(-0.146545 0.0359098 4.64818e-19)
(-0.246771 0.0298034 -2.53821e-20)
(0.0673188 0.0904289 3.35454e-19)
(-0.0608714 0.0878098 9.47147e-20)
(0.329175 0.143141 1.55399e-19)
(0.172021 0.142805 -1.22753e-19)
(0.448929 0.19664 -1.12975e-19)
(0.632805 0.185844 4.69314e-21)
(-0.434621 -0.0384186 3.88767e-19)
(-0.463921 -0.0579437 1.09286e-20)
(-0.327818 0.0215271 -9.33595e-19)
(-0.399866 0.0127068 -4.93524e-19)
(-0.16706 0.07907 -3.99448e-19)
(-0.265042 0.0692996 -8.48517e-19)
(0.0375082 0.138478 -3.56716e-19)
(-0.0878061 0.133017 4.10964e-19)
(0.285969 0.192791 -3.92192e-19)
(0.13271 0.190951 -7.31703e-19)
(0.392654 0.243343 -2.77796e-20)
(0.572173 0.23342 -1.01925e-19)
(-0.429607 -0.0176764 -8.41725e-19)
(-0.445488 -0.0420053 -2.51129e-20)
(-0.34145 0.0551548 -3.9356e-19)
(-0.407771 0.0412356 5.42813e-19)
(-0.19144 0.120546 -8.0655e-20)
(-0.285919 0.107737 -2.23762e-20)
(0.00146051 0.183753 6.81655e-20)
(-0.119545 0.175794 1.29508e-23)
(0.234265 0.238897 -3.85388e-19)
(0.0866149 0.235463 -1.30193e-21)
(0.328339 0.285844 2.49839e-19)
(0.500596 0.279133 -3.30212e-20)
(-0.421659 0.00469311 1.32636e-18)
(-0.422602 -0.0227147 -2.79034e-20)
(-0.35587 0.0882634 9.39116e-19)
(-0.414676 0.0697467 5.67896e-19)
(-0.219296 0.160232 5.75987e-20)
(-0.309158 0.145221 3.18549e-19)
(-0.0399728 0.225809 -6.96144e-20)
(-0.155538 0.215841 -2.76782e-19)
(0.175583 0.280481 6.27427e-19)
(0.0348655 0.275709 3.46782e-19)
(0.25688 0.32308 -2.13009e-21)
(0.420908 0.317621 3.2519e-19)
(-0.410831 0.0289051 -8.20176e-19)
(-0.39581 8.38903e-05 -7.79119e-19)
(-0.370735 0.120999 -3.90008e-20)
(-0.420067 0.098358 4.93335e-20)
(-0.250219 0.198049 3.85706e-21)
(-0.334472 0.181875 -4.61859e-19)
(-0.0859453 0.264205 1.22005e-19)
(-0.195266 0.252905 8.61194e-20)
(0.111338 0.316819 -2.73292e-19)
(-0.0214034 0.311158 6.53024e-20)
(0.180111 0.354285 -6.05329e-19)
(0.334266 0.349253 -3.68105e-19)
(-0.397003 0.0550611 4.65685e-20)
(-0.365246 0.0257928 2.49737e-20)
(-0.385582 0.153503 -3.48885e-19)
(-0.423373 0.127357 5.02019e-19)
(-0.283763 0.233979 -3.98065e-19)
(-0.361458 0.217813 1.18151e-19)
(-0.135653 0.298589 2.95562e-20)
(-0.238261 0.286809 -4.42028e-20)
(0.0430628 0.34729 -2.49394e-19)
(-0.0811306 0.341349 3.18356e-20)
(0.10019 0.378568 -9.57743e-21)
(0.242666 0.373141 -2.88645e-19)
(-0.379675 0.0827357 4.56876e-19)
(-0.329755 0.0522981 -7.90517e-19)
(-0.39986 0.186159 9.84558e-19)
(-0.424293 0.157734 4.67738e-21)
(-0.319437 0.268047 4.77426e-19)
(-0.389472 0.253016 4.75243e-19)
(-0.18843 0.328631 -4.43734e-20)
(-0.284132 0.317492 4.0409e-20)
(-0.027656 0.370958 2.73412e-19)
(-0.143562 0.365802 -7.16737e-20)
(0.0196465 0.394553 4.41901e-19)
(0.148502 0.387639 2.86018e-19)
(-0.357631 0.110793 -1.29864e-18)
(-0.28756 0.0772059 6.79509e-19)
(-0.413417 0.219481 -5.23473e-19)
(-0.422289 0.190764 -4.44311e-19)
(-0.356868 0.300064 5.34746e-20)
(-0.417307 0.287008 -4.14843e-19)
(-0.244073 0.35396 1.44632e-20)
(-0.332438 0.345046 -2.23709e-19)
(-0.0992848 0.38651 8.45043e-20)
(-0.208619 0.383953 -1.4396e-19)
(-0.0587101 0.39983 1.53569e-19)
(0.055204 0.390036 1.90441e-19)
(-0.330204 0.13787 1.56815e-18)
(-0.235497 0.0975143 6.78041e-19)
(-0.425774 0.252418 -3.36003e-19)
(-0.414912 0.226088 -5.6535e-19)
(-0.395911 0.328968 -6.98136e-19)
(-0.441976 0.318459 1.20755e-19)
(-0.302731 0.374156 -3.89196e-19)
(-0.381335 0.368897 6.74524e-21)
(-0.170002 0.392988 -8.6207e-20)
(-0.276458 0.394494 -7.22866e-20)
(-0.132441 0.389968 -2.48753e-19)
(-0.0314555 0.376064 -1.45619e-20)
(-0.294026 0.159733 -1.40383e-18)
(-0.156575 0.100189 -1.63976e-18)
(-0.432299 0.281671 -1.23455e-19)
(-0.376683 0.246788 2.20058e-20)
(-0.434014 0.352987 8.51853e-19)
(-0.455295 0.344084 6.30824e-20)
(-0.360932 0.389284 3.3211e-19)
(-0.420024 0.382609 -5.58464e-20)
(-0.235359 0.391765 -2.15176e-19)
(-0.340695 0.391307 2.90846e-19)
(-0.198239 0.356729 -2.20461e-19)
(-0.102342 0.341597 -7.46836e-20)
(-0.202083 0.162365 -3.27001e-19)
(-0.385092 0.307629 1.81765e-19)
(-0.439214 0.387038 -8.42778e-19)
(-0.390787 0.400233 -1.06831e-19)
(-0.286004 0.364916 2.97818e-19)
(-0.159691 0.271402 -1.50811e-19)
(0.909962 -0.907601 7.54114e-20)
(0.796789 -0.893307 -3.72172e-21)
(0.709406 -1.08116 1.13679e-20)
(1.10042 -0.775725 1.43355e-19)
(1.13558 -0.793052 7.20386e-20)
(0.996904 -0.832111 4.32744e-20)
(1.16723 -0.651232 -3.12444e-21)
(1.20249 -0.693958 -4.23222e-21)
(1.1004 -0.714597 2.10099e-21)
(1.18535 -0.543978 -1.51193e-20)
(1.2245 -0.580718 5.62259e-21)
(1.1439 -0.594639 -1.48706e-20)
(1.18339 -0.455069 -4.91275e-20)
(1.22029 -0.486019 1.11328e-20)
(1.15498 -0.495651 0)
(1.17463 -0.384065 -2.88146e-20)
(1.20658 -0.408535 -4.98854e-20)
(1.1531 -0.416022 6.10801e-20)
(1.16535 -0.328691 1.41292e-21)
(1.19197 -0.347435 5.00622e-21)
(1.14768 -0.353901 -4.88971e-21)
(1.15742 -0.28551 -2.04532e-20)
(1.17965 -0.299912 -4.57943e-21)
(1.14241 -0.305788 5.42544e-20)
(1.15071 -0.251151 -7.59092e-20)
(1.16972 -0.262508 0)
(1.13788 -0.267896 -4.57047e-20)
(1.14455 -0.222962 2.78971e-20)
(1.16131 -0.232292 -1.36977e-19)
(1.13366 -0.237172 -3.77059e-20)
(1.13837 -0.199064 1.09622e-19)
(1.15357 -0.207075 1.35924e-19)
(1.12926 -0.211395 6.97924e-20)
(1.13184 -0.178226 -3.03704e-20)
(1.1459 -0.18536 -2.44811e-20)
(1.12433 -0.189086 4.52002e-21)
(1.1248 -0.159646 -6.42445e-20)
(1.13799 -0.166213 -3.29389e-20)
(1.11875 -0.169335 -3.4922e-20)
(1.11715 -0.142765 -1.17742e-19)
(1.12966 -0.148985 -3.12912e-20)
(1.11245 -0.151506 -1.94774e-22)
(1.10882 -0.127169 -3.34412e-20)
(1.1208 -0.133205 -8.69146e-20)
(1.10539 -0.135134 -5.71708e-20)
(1.09973 -0.112547 5.5003e-20)
(1.11131 -0.11852 5.45892e-20)
(1.09752 -0.119869 5.45892e-20)
(1.08983 -0.0986579 0)
(1.10109 -0.104661 0)
(1.08881 -0.105441 -2.7735e-20)
(1.07907 -0.0853247 2.36494e-20)
(1.09007 -0.0914318 -4.67214e-20)
(1.07922 -0.0916594 5.59651e-20)
(1.06743 -0.072423 2.37737e-20)
(1.0782 -0.0786755 6.91021e-20)
(1.06873 -0.0783727 7.80189e-20)
(1.05488 -0.0598727 -1.20535e-19)
(1.0655 -0.0661785 -6.80901e-23)
(1.0574 -0.0653828 2.73348e-20)
(1.0414 -0.0476249 -7.08474e-20)
(1.05201 -0.0536999 -1.1918e-19)
(1.04534 -0.0524751 3.50742e-20)
(1.02697 -0.0356636 4.66251e-20)
(1.03729 -0.0419502 4.63491e-20)
(1.03206 -0.0403498 -5.43367e-20)
(1.0122 -0.0243801 0)
(1.01943 -0.0342973 0)
(1.0156 -0.0321601 0)
(0.999629 -0.0312393 0)
(0.997577 -0.0282388 -4.97558e-20)
(1.04233 -0.773989 -6.8216e-20)
(0.890898 -0.724702 -1.86246e-19)
(1.21741 -0.727054 -7.26383e-20)
(1.23656 -0.721797 1.38517e-20)
(1.25706 -0.623403 -1.51945e-20)
(1.29335 -0.649092 -4.09765e-20)
(1.25748 -0.52529 2.62106e-20)
(1.29996 -0.550946 4.17897e-20)
(1.24233 -0.441515 1.1302e-20)
(1.28268 -0.464976 8.10064e-22)
(1.22322 -0.37336 -1.68288e-20)
(1.25824 -0.392597 9.62e-21)
(1.20586 -0.319622 -6.57244e-22)
(1.23497 -0.334514 -2.5884e-20)
(1.19172 -0.27753 1.58192e-20)
(1.21586 -0.28891 5.4413e-21)
(1.18021 -0.244049 -5.95434e-20)
(1.20066 -0.252898 0)
(1.17029 -0.216671 -3.14056e-20)
(1.18815 -0.223833 -3.12069e-20)
(1.16109 -0.193567 3.34048e-21)
(1.17715 -0.199655 1.80131e-20)
(1.15205 -0.173509 -2.69712e-20)
(1.16682 -0.17892 3.66874e-22)
(1.14286 -0.155686 0)
(1.15667 -0.1607 2.44727e-20)
(1.13334 -0.139539 0)
(1.14642 -0.144353 6.01277e-22)
(1.12333 -0.124654 0)
(1.13586 -0.129416 -3.32186e-20)
(1.11271 -0.110722 0)
(1.12484 -0.115542 0)
(1.10139 -0.0975021 -4.63827e-20)
(1.11322 -0.102467 1.02142e-20)
(1.08928 -0.0848144 -2.25531e-21)
(1.10088 -0.0899964 -8.90021e-20)
(1.07631 -0.0725271 4.55893e-20)
(1.08774 -0.0779705 8.62424e-20)
(1.06242 -0.0605496 0)
(1.07377 -0.066167 -9.56404e-21)
(1.04755 -0.048822 0)
(1.05897 -0.0543242 -9.34931e-21)
(1.03162 -0.0373129 0)
(1.04288 -0.0431483 -9.31176e-21)
(1.01507 -0.0262999 0)
(1.02373 -0.0361632 -9.66992e-21)
(1.0022 -0.0341104 0)
(1.11217 -0.659376 -1.35965e-19)
(0.959333 -0.592814 -3.33697e-20)
(1.30737 -0.657613 7.33399e-20)
(1.31224 -0.64088 -9.87246e-21)
(1.33556 -0.578389 1.39301e-20)
(1.36914 -0.589771 -1.15946e-20)
(1.32374 -0.493945 1.92513e-20)
(1.3666 -0.509201 1.05316e-20)
(1.29771 -0.418419 1.24184e-21)
(1.33959 -0.434303 -8.98248e-21)
(1.26945 -0.35539 -1.33189e-21)
(1.30629 -0.36907 8.15709e-21)
(1.24465 -0.304878 -1.89914e-20)
(1.27544 -0.315621 -8.81759e-21)
(1.22463 -0.264963 -1.0313e-20)
(1.25013 -0.273105 4.28792e-22)
(1.20853 -0.233118 2.82829e-20)
(1.23001 -0.239311 1.02257e-20)
(1.195 -0.207102 1.75205e-20)
(1.21363 -0.21199 1.91782e-20)
(1.1829 -0.185214 1.4979e-20)
(1.19955 -0.189296 -1.2106e-20)
(1.17147 -0.166276 5.13491e-20)
(1.18671 -0.169891 6.84379e-20)
(1.16026 -0.149503 2.52297e-20)
(1.17448 -0.152891 1.38489e-20)
(1.14898 -0.134345 -3.23671e-20)
(1.16244 -0.137679 2.1381e-20)
(1.13742 -0.120403 -3.34824e-20)
(1.15031 -0.123811 -4.21435e-20)
(1.12539 -0.107375 1.01368e-20)
(1.13789 -0.110956 0)
(1.11277 -0.0950278 -3.16858e-20)
(1.125 -0.098861 3.88289e-20)
(1.09942 -0.0831822 -2.07538e-21)
(1.11148 -0.0873371 -7.97477e-20)
(1.08525 -0.071703 3.17281e-20)
(1.09721 -0.0762274 4.09552e-20)
(1.07015 -0.0604927 -1.89147e-20)
(1.0821 -0.0653062 3.03088e-23)
(1.054 -0.0494817 -1.86613e-20)
(1.06612 -0.0542962 3.58807e-20)
(1.03666 -0.0386244 -1.89795e-20)
(1.04879 -0.0438824 -3.50601e-20)
(1.01833 -0.0280889 -9.72552e-21)
(1.02849 -0.0376814 3.68797e-20)
(1.00529 -0.0367834 -2.70657e-20)
(1.16522 -0.557615 8.61206e-20)
(1.0074 -0.48287 1.8986e-20)
(1.37436 -0.579565 -8.52918e-20)
(1.36764 -0.555256 -2.26997e-19)
(1.40055 -0.522572 -1.61693e-20)
(1.42964 -0.5222 0)
(1.38177 -0.452996 -1.8248e-20)
(1.42304 -0.458963 -5.17707e-20)
(1.3477 -0.387393 -1.14772e-21)
(1.38955 -0.396077 3.64522e-21)
(1.31196 -0.331046 -1.48328e-21)
(1.34947 -0.339176 -7.29829e-21)
(1.28072 -0.285005 1.01288e-20)
(1.31237 -0.291518 1.01149e-21)
(1.25541 -0.248188 2.04867e-20)
(1.28169 -0.253017 7.11852e-21)
(1.23509 -0.218648 6.29346e-22)
(1.25718 -0.222133 1.5284e-20)
(1.2182 -0.194485 -1.02653e-20)
(1.23727 -0.197067 -1.2825e-21)
(1.2034 -0.174188 4.05986e-20)
(1.22037 -0.176242 -2.63997e-20)
(1.18976 -0.156674 3.13336e-20)
(1.20524 -0.158469 4.96515e-20)
(1.1767 -0.141203 9.88026e-21)
(1.19111 -0.142936 -2.26556e-21)
(1.16382 -0.127258 1.19951e-20)
(1.17745 -0.129072 -4.22998e-21)
(1.15085 -0.114462 -9.06287e-21)
(1.16393 -0.116464 -8.99146e-21)
(1.13756 -0.102527 2.84531e-20)
(1.15027 -0.104803 1.75691e-20)
(1.12378 -0.0912344 -8.29018e-21)
(1.13625 -0.0938549 1.18422e-20)
(1.10935 -0.0804093 -3.77274e-20)
(1.1217 -0.0834427 -4.54249e-20)
(1.09412 -0.0699177 9.47836e-21)
(1.10646 -0.0734162 -7.86732e-21)
(1.07796 -0.0596572 5.44926e-20)
(1.09038 -0.0635528 4.22951e-20)
(1.06068 -0.0495499 1.67381e-20)
(1.07337 -0.0535635 1.32298e-20)
(1.04204 -0.0395364 2.0274e-20)
(1.05497 -0.0440908 -5.90268e-20)
(1.022 -0.0296933 8.01841e-20)
(1.03365 -0.0387718 7.91222e-20)
(1.0089 -0.0391895 -1.52362e-20)
(1.20659 -0.463872 -3.01203e-19)
(1.04029 -0.387908 3.72156e-20)
(1.42362 -0.498243 -1.46459e-19)
(1.40536 -0.467794 -9.00457e-20)
(1.45263 -0.460017 -3.46388e-20)
(1.47572 -0.449696 0)
(1.43074 -0.404772 -3.08042e-20)
(1.46901 -0.40293 -2.86181e-23)
(1.39118 -0.350119 1.09426e-21)
(1.43157 -0.352087 5.16748e-21)
(1.34979 -0.301407 -6.15791e-21)
(1.38698 -0.304228 -9.55939e-21)
(1.31329 -0.260728 -2.07725e-21)
(1.34507 -0.263095 4.42911e-21)
(1.28345 -0.227726 2.65502e-21)
(1.30997 -0.229282 -6.35133e-21)
(1.25939 -0.201035 1.31645e-20)
(1.28169 -0.201844 5.05829e-21)
(1.23949 -0.179135 -1.72314e-20)
(1.25869 -0.179447 8.14046e-21)
(1.22227 -0.160742 -1.76674e-20)
(1.23929 -0.160802 -2.96322e-20)
(1.20665 -0.1449 1.65062e-20)
(1.22213 -0.144902 1.42404e-20)
(1.19192 -0.13094 -1.63555e-20)
(1.20632 -0.13103 8.44167e-21)
(1.17763 -0.118388 -2.52183e-20)
(1.19125 -0.118676 -1.35079e-20)
(1.16342 -0.106899 1.74295e-20)
(1.17651 -0.107469 1.54085e-20)
(1.14903 -0.0962123 9.79338e-22)
(1.16178 -0.0971339 2.90692e-21)
(1.13425 -0.0861241 -2.48504e-20)
(1.14681 -0.0874596 -3.21341e-20)
(1.1189 -0.0764734 -1.58258e-20)
(1.13139 -0.0782885 -3.92451e-21)
(1.10278 -0.0671305 2.46149e-20)
(1.11533 -0.0694844 -2.73784e-22)
(1.08572 -0.0579912 -6.02985e-22)
(1.09846 -0.0608365 4.72882e-20)
(1.06749 -0.0489688 -6.51725e-20)
(1.08061 -0.0520505 -3.5387e-20)
(1.04773 -0.039988 -1.28805e-20)
(1.06132 -0.0436951 -4.82903e-20)
(1.02605 -0.0310581 4.46322e-20)
(1.03916 -0.0393284 1.66708e-20)
(1.01302 -0.041248 2.40473e-20)
(1.23429 -0.375946 2.36685e-19)
(1.06082 -0.302939 2.03376e-19)
(1.45773 -0.415998 5.2385e-20)
(1.42762 -0.380648 9.44616e-20)
(1.49238 -0.393393 3.47795e-20)
(1.50823 -0.374637 0)
(1.4701 -0.352606 3.60311e-20)
(1.50392 -0.342916 1.09222e-20)
(1.4277 -0.308074 -3.66743e-21)
(1.46597 -0.304104 2.06509e-20)
(1.38236 -0.267554 -1.48673e-21)
(1.4183 -0.26541 -8.86118e-21)
(1.34183 -0.232845 5.31329e-22)
(1.37304 -0.231264 3.41762e-21)
(1.3083 -0.20417 -3.00372e-21)
(1.33457 -0.202595 -4.70037e-21)
(1.28107 -0.180745 0)
(1.3032 -0.178984 0)
(1.25857 -0.161428 -4.07393e-21)
(1.2776 -0.159563 0)
(1.23924 -0.145181 2.08002e-21)
(1.25606 -0.143332 -6.70115e-21)
(1.22189 -0.131198 6.22959e-21)
(1.23717 -0.129479 6.40237e-22)
(1.20573 -0.118898 1.13422e-20)
(1.21993 -0.117401 1.12319e-20)
(1.19022 -0.107864 2.68181e-20)
(1.20367 -0.106661 2.35109e-21)
(1.17496 -0.0977938 9.47602e-22)
(1.18791 -0.0969389 1.54085e-20)
(1.15965 -0.0884584 -2.99631e-20)
(1.1723 -0.0880001 -1.46621e-20)
(1.14404 -0.0796808 -1.1462e-20)
(1.15654 -0.0796667 -1.53059e-20)
(1.12792 -0.0713194 1.14397e-20)
(1.14041 -0.0718079 1.06426e-20)
(1.11108 -0.0632579 2.20608e-20)
(1.12368 -0.0643125 4.41195e-21)
(1.09331 -0.055397 1.12127e-20)
(1.10617 -0.0569995 1.4535e-20)
(1.07432 -0.0476429 -1.84251e-20)
(1.08766 -0.0495874 -3.07677e-21)
(1.05363 -0.0398959 -3.63496e-20)
(1.06769 -0.0425302 -4.57018e-21)
(1.03046 -0.0321124 -6.34061e-20)
(1.04493 -0.0391262 -2.93708e-20)
(1.01759 -0.0427799 1.21562e-20)
(1.24865 -0.292543 5.73328e-20)
(1.06996 -0.224363 3.19818e-20)
(1.47799 -0.334127 4.32858e-20)
(1.43611 -0.295146 1.6503e-20)
(1.52012 -0.324457 -2.40604e-20)
(1.5279 -0.298982 0)
(1.50007 -0.296916 -4.62072e-21)
(1.52811 -0.280471 2.68056e-22)
(1.45699 -0.2631 1.66019e-20)
(1.4921 -0.253425 5.62575e-21)
(1.40935 -0.23063 -5.20869e-21)
(1.44343 -0.223843 -5.13717e-21)
(1.36602 -0.20207 -1.59274e-21)
(1.39614 -0.196902 -6.26288e-22)
(1.32964 -0.178131 -1.63271e-21)
(1.35518 -0.173628 3.69109e-21)
(1.29987 -0.158284 0)
(1.32148 -0.154117 -9.6681e-22)
(1.27522 -0.14178 -2.50868e-21)
(1.29381 -0.137884 -7.40417e-23)
(1.25411 -0.127848 -8.03786e-21)
(1.27054 -0.124225 -2.53513e-21)
(1.23533 -0.115845 5.62783e-21)
(1.25023 -0.112528 -7.86378e-21)
(1.21798 -0.105291 2.28914e-21)
(1.23184 -0.102314 1.30977e-20)
(1.20147 -0.0958372 -9.14478e-21)
(1.21463 -0.0932268 -9.06915e-21)
(1.18536 -0.0872298 0)
(1.19807 -0.0850064 0)
(1.1693 -0.0792804 0)
(1.18176 -0.0774612 0)
(1.15302 -0.0718464 6.59072e-21)
(1.16538 -0.0704513 0)
(1.13628 -0.0648172 3.57408e-21)
(1.14868 -0.0638793 2.8461e-21)
(1.11886 -0.0581041 -3.15357e-21)
(1.13142 -0.0576707 6.8677e-22)
(1.10052 -0.0516325 3.1316e-22)
(1.11337 -0.0517 6.00783e-21)
(1.08095 -0.0453247 1.07414e-20)
(1.0943 -0.04574 -9.16481e-21)
(1.05956 -0.0390569 1.43374e-21)
(1.07383 -0.0401011 1.95434e-20)
(1.0351 -0.0326762 -1.34968e-20)
(1.05079 -0.0374807 -1.91318e-20)
(1.02251 -0.0430267 7.15331e-21)
(1.25078 -0.212763 -1.68159e-20)
(1.06794 -0.150065 1.08422e-20)
(1.48534 -0.253695 -2.64372e-20)
(1.43184 -0.212082 -9.18733e-21)
(1.53621 -0.254804 2.419e-20)
(1.53537 -0.224052 -1.18247e-21)
(1.52059 -0.239281 1.02234e-20)
(1.54186 -0.217017 2.57035e-20)
(1.47905 -0.215767 -1.53188e-20)
(1.51001 -0.201175 -1.50895e-20)
(1.43063 -0.191594 -6.17569e-22)
(1.46205 -0.180538 0)
(1.38565 -0.169457 4.27299e-21)
(1.41411 -0.160795 -4.26688e-21)
(1.3473 -0.150308 4.67923e-21)
(1.37177 -0.143062 5.3555e-21)
(1.31563 -0.134184 -1.05079e-21)
(1.33643 -0.127809 -8.68597e-22)
(1.2893 -0.120632 -7.4814e-23)
(1.30723 -0.114891 -1.00997e-22)
(1.2668 -0.109113 -2.30875e-21)
(1.28264 -0.103896 0)
(1.24688 -0.0991509 -4.6171e-22)
(1.26126 -0.0944066 -1.98849e-21)
(1.22861 -0.0903693 1.88215e-21)
(1.24201 -0.0860733 1.56698e-21)
(1.21135 -0.0824917 0)
(1.2241 -0.0786255 1.42294e-22)
(1.19459 -0.0753167 0)
(1.20697 -0.0718624 5.29849e-22)
(1.17796 -0.0686991 0)
(1.19018 -0.0656375 -2.71484e-22)
(1.16117 -0.0625348 -3.76995e-21)
(1.17338 -0.0598475 0)
(1.14395 -0.056751 -2.35785e-23)
(1.15627 -0.0544275 -3.12403e-21)
(1.12606 -0.0512985 9.82017e-21)
(1.13861 -0.0493411 2.53186e-21)
(1.10725 -0.0461498 -3.58402e-21)
(1.12011 -0.0445278 6.05849e-21)
(1.0872 -0.0413023 5.86818e-23)
(1.10049 -0.0398444 -1.01204e-20)
(1.06528 -0.0367541 3.38969e-21)
(1.07933 -0.0355126 9.01421e-21)
(1.04014 -0.0323574 -1.04901e-20)
(1.05584 -0.0335762 -5.71516e-21)
(1.02786 -0.0395563 6.23723e-21)
(1.24128 -0.136172 1.61938e-20)
(1.05473 -0.0790254 -1.10234e-20)
(1.48044 -0.175472 1.57813e-20)
(1.41538 -0.132078 -4.96895e-20)
(1.54115 -0.185729 -1.3987e-22)
(1.53108 -0.150772 5.42037e-21)
(1.53182 -0.180848 1.07274e-21)
(1.54556 -0.153897 -5.43921e-21)
(1.49371 -0.167309 0)
(1.51961 -0.148214 5.91229e-21)
(1.4461 -0.15119 -3.60183e-21)
(1.47421 -0.136415 -1.67068e-20)
(1.40066 -0.13543 -3.6996e-21)
(1.42694 -0.123718 9.81337e-22)
(1.36123 -0.121245 9.70415e-23)
(1.38421 -0.111537 0)
(1.32828 -0.108962 9.91631e-23)
(1.348 -0.100605 9.82127e-23)
(1.30077 -0.098444 -1.62227e-23)
(1.31782 -0.0910667 -2.08905e-21)
(1.27726 -0.0893868 3.339e-22)
(1.29235 -0.0827762 0)
(1.25653 -0.0814739 4.43154e-23)
(1.27025 -0.0755072 3.3721e-22)
(1.23763 -0.0744413 -1.60368e-22)
(1.25044 -0.0690383 6.39111e-24)
(1.21986 -0.0680856 6.71622e-22)
(1.23213 -0.0631871 -1.36189e-21)
(1.2027 -0.0622571 2.62794e-22)
(1.21469 -0.0578145 5.29849e-22)
(1.18574 -0.0568492 -2.73542e-22)
(1.19767 -0.0528201 -2.71484e-22)
(1.16864 -0.0517914 6.79164e-22)
(1.18068 -0.0481387 0)
(1.15113 -0.0470439 -6.15395e-22)
(1.16341 -0.0437404 2.98566e-21)
(1.13291 -0.0425933 -1.27183e-21)
(1.14555 -0.0396263 -2.67386e-21)
(1.11368 -0.0384533 -5.60327e-22)
(1.12679 -0.0357863 5.85863e-22)
(1.093 -0.0346898 -6.01624e-22)
(1.10672 -0.0321674 3.14036e-23)
(1.07024 -0.0314727 -1.21008e-23)
(1.08475 -0.0291492 2.29973e-21)
(1.0448 -0.0289244 -1.20301e-22)
(1.06026 -0.0287883 -2.45472e-21)
(1.03422 -0.0338919 -1.10669e-21)
(1.22028 -0.0627558 -7.37079e-20)
(1.03021 -0.0109559 -3.29214e-20)
(1.46378 -0.10019 -5.99294e-20)
(1.38699 -0.0557275 2.15955e-20)
(1.5354 -0.118207 3.52076e-22)
(1.51531 -0.0799675 6.60284e-21)
(1.53393 -0.122661 -1.11897e-21)
(1.53956 -0.092177 -6.49431e-21)
(1.5009 -0.118609 -1.04509e-20)
(1.52078 -0.0954078 5.91229e-21)
(1.45571 -0.11023 -1.26294e-20)
(1.47994 -0.0922519 -2.81291e-21)
(1.41101 -0.100772 4.70032e-21)
(1.43459 -0.086363 4.64071e-21)
(1.37138 -0.0915405 0)
(1.3925 -0.0796643 0)
(1.33783 -0.0831305 -2.04993e-21)
(1.35618 -0.0730432 3.43317e-21)
(1.30963 -0.0756739 -2.09462e-21)
(1.3256 -0.0668952 -3.1871e-21)
(1.28552 -0.0690852 0)
(1.29969 -0.0613135 1.52563e-21)
(1.26432 -0.0632079 2.98576e-22)
(1.27724 -0.0562518 0)
(1.24508 -0.0578877 -1.18482e-21)
(1.2572 -0.0516184 -9.71183e-22)
(1.22709 -0.0529981 -1.51455e-21)
(1.23875 -0.0473239 -1.98762e-21)
(1.20979 -0.0484453 0)
(1.22128 -0.0432981 2.03496e-21)
(1.19275 -0.0441671 0)
(1.20428 -0.0394965 -1.31445e-21)
(1.1756 -0.0401326 2.28485e-21)
(1.18735 -0.0359032 -3.65855e-21)
(1.15799 -0.036344 9.79574e-22)
(1.17013 -0.0325369 4.09445e-21)
(1.13959 -0.032843 -8.27817e-22)
(1.15225 -0.0294444 8.30226e-22)
(1.11999 -0.0297181 1.17379e-21)
(1.13333 -0.026656 -1.72935e-21)
(1.09871 -0.0270914 2.92217e-21)
(1.1129 -0.0241933 9.14712e-21)
(1.07522 -0.0250376 -1.14572e-22)
(1.09046 -0.0226557 -1.03388e-20)
(1.04924 -0.0235239 -2.45004e-21)
(1.06572 -0.024298 1.84983e-22)
(1.03822 -0.029261 -7.60971e-21)
(1.18777 0.00718091 6.72338e-20)
(0.994238 0.0539535 -3.55921e-22)
(1.43555 -0.0284635 8.94196e-20)
(1.34681 0.0163616 6.86633e-20)
(1.51916 -0.0530883 0)
(1.4882 -0.0124189 2.0563e-20)
(1.52698 -0.065704 0)
(1.52411 -0.0326801 -1.84242e-20)
(1.50067 -0.0704006 1.3689e-20)
(1.51357 -0.0437347 0)
(1.45952 -0.0694316 1.40937e-20)
(1.47916 -0.0486688 1.39002e-20)
(1.41668 -0.0661094 0)
(1.43706 -0.0493713 0)
(1.37776 -0.0617578 3.39223e-21)
(1.39666 -0.048009 -6.31677e-21)
(1.34429 -0.0571951 2.65467e-21)
(1.36102 -0.0456323 9.28083e-21)
(1.31592 -0.0527886 4.11875e-22)
(1.33063 -0.0428446 -1.08651e-21)
(1.29162 -0.0486528 1.5406e-21)
(1.30474 -0.0399482 2.77839e-21)
(1.27029 -0.044786 -1.26076e-21)
(1.2823 -0.0370665 -3.96814e-22)
(1.25102 -0.0411478 -1.71194e-21)
(1.26233 -0.0342373 -1.27255e-21)
(1.23307 -0.0376974 1.55824e-21)
(1.24402 -0.0314695 -1.13133e-21)
(1.21588 -0.0344098 7.47106e-22)
(1.22673 -0.0287712 3.2456e-21)
(1.19898 -0.0312831 -4.95524e-21)
(1.20996 -0.0261639 -1.88095e-21)
(1.18197 -0.0283436 -1.90044e-21)
(1.19325 -0.0236921 -3.65855e-21)
(1.16445 -0.0256502 3.9176e-21)
(1.17621 -0.02143 7.26563e-21)
(1.14603 -0.0232981 -2.90982e-23)
(1.15842 -0.0194724 -7.03392e-21)
(1.12626 -0.021415 6.26089e-21)
(1.13943 -0.0178851 -2.18488e-21)
(1.10463 -0.0201402 -4.37881e-21)
(1.11877 -0.0167312 8.51439e-21)
(1.08064 -0.0195894 -1.01511e-20)
(1.096 -0.0166616 -1.04589e-20)
(1.05384 -0.0198683 -5.18317e-21)
(1.07092 -0.0197715 6.08074e-21)
(1.04289 -0.0252774 -1.14243e-20)
(1.14373 0.0731239 -1.7398e-22)
(0.946809 0.11521 2.15421e-20)
(1.39587 0.0390735 8.1402e-22)
(1.29495 0.0835544 -1.89221e-20)
(1.4926 0.00890297 2.55466e-21)
(1.44978 0.051119 1.11686e-19)
(1.51112 -0.010995 -1.87323e-20)
(1.49914 0.024071 -8.20606e-20)
(1.49293 -0.0233336 0)
(1.49827 0.00568606 0)
(1.45747 -0.0294386 0)
(1.47167 -0.00628108 0)
(1.41769 -0.0320186 -6.23563e-21)
(1.43431 -0.013348 0)
(1.38041 -0.032415 -1.05194e-21)
(1.39669 -0.0171042 -2.01558e-20)
(1.34772 -0.0316306 5.91273e-21)
(1.36255 -0.0188487 7.33214e-21)
(1.31972 -0.0302324 1.21891e-21)
(1.33297 -0.0193538 7.77294e-21)
(1.29564 -0.0285158 1.02771e-21)
(1.30757 -0.0190969 1.23176e-21)
(1.27451 -0.0266265 -4.00492e-22)
(1.2855 -0.0183557 -3.66511e-21)
(1.25547 -0.0246396 -6.4271e-22)
(1.26589 -0.0172935 -2.93093e-21)
(1.2378 -0.0226057 5.90204e-22)
(1.24796 -0.0160193 1.70127e-21)
(1.22092 -0.0205755 6.38264e-22)
(1.23107 -0.0146231 -2.29067e-21)
(1.20433 -0.0186131 -5.91098e-22)
(1.21469 -0.0131956 7.54593e-21)
(1.18758 -0.0168033 5.40602e-21)
(1.19835 -0.0118405 -3.5402e-21)
(1.17026 -0.0152548 -3.58162e-21)
(1.18161 -0.0106818 6.08371e-21)
(1.15191 -0.0140989 -9.22204e-21)
(1.16402 -0.00985163 -6.1441e-21)
(1.13208 -0.0134816 0)
(1.14513 -0.00944367 0)
(1.11028 -0.0135486 1.94678e-21)
(1.12444 -0.00954875 -9.6979e-21)
(1.086 -0.0144328 5.63392e-21)
(1.10156 -0.0108045 -2.34444e-21)
(1.05875 -0.0162687 -1.85805e-23)
(1.0764 -0.0151397 2.59183e-20)
(1.04815 -0.0216249 -1.37716e-20)
(1.08825 0.134441 0)
(0.888055 0.172147 2.14703e-19)
(1.3448 0.101775 8.9215e-20)
(1.23153 0.14515 -6.47034e-20)
(1.45557 0.0672429 3.03647e-20)
(1.40015 0.109915 -1.54118e-20)
(1.48648 0.0406467 -6.47005e-20)
(1.46429 0.0772801 6.51843e-20)
(1.47778 0.0216977 0)
(1.47498 0.0522743 -1.21869e-21)
(1.44938 0.00906024 0)
(1.45737 0.0340755 1.83638e-20)
(1.41401 0.000942167 -1.36612e-20)
(1.42628 0.021165 -2.05258e-20)
(1.37936 -0.00399778 -1.3384e-20)
(1.39258 0.0125732 5.17719e-21)
(1.34819 -0.0068768 9.18744e-21)
(1.36082 0.00687779 1.12724e-20)
(1.3211 -0.00841709 7.85401e-21)
(1.33268 0.00317862 -1.67945e-20)
(1.29766 -0.00906934 -3.27099e-21)
(1.30825 0.000860574 6.60646e-21)
(1.27706 -0.00911468 -6.1315e-21)
(1.28693 -0.000487726 1.49234e-21)
(1.25852 -0.00874008 -7.58533e-22)
(1.26798 -0.00114622 -8.05787e-21)
(1.24135 -0.00808746 -1.1854e-21)
(1.25067 -0.00132091 2.47783e-21)
(1.22495 -0.00728308 4.55612e-21)
(1.23437 -0.00118176 -3.89252e-21)
(1.20881 -0.00645397 4.60914e-21)
(1.21855 -0.000885451 8.09572e-21)
(1.19247 -0.00573601 -2.96903e-21)
(1.20272 -0.000589091 1.10927e-21)
(1.17547 -0.00527652 3.5668e-21)
(1.18643 -0.000457218 -4.71314e-22)
(1.15736 -0.00523276 3.00204e-21)
(1.16922 -0.000651704 1.41022e-20)
(1.13767 -0.00576788 -9.63571e-21)
(1.15062 -0.00129599 1.11348e-21)
(1.11592 -0.00704724 -1.31739e-20)
(1.13013 -0.00250914 -1.95978e-20)
(1.09161 -0.00923927 1.00545e-20)
(1.10739 -0.00492223 -1.40621e-21)