/*--------------------------------*- C++ -*----------------------------------*  =========                 |
  \      /  F ield         | OpenFOAM: The Open Source CFD Toolbox
   \    /   O peration     | Website:  https://openfoam.org
    \  /    A nd           | Version:  11
     \/     M anipulation  |
\*---------------------------------------------------------------------------*/
FoamFile
{
    format      ascii;
    class       volScalarField;
    object      U;
}
// * * * * * * * * * * * * * * * * * * * * * * * * * * * * * * * * * * * * * //

dimensions      [0 1 -1 0 0 0 0];

internalField   nonuniform List<scalar> 
2880
( 
0.09528817208804916
0.16642312968968245
0.1681440021675206
0.2075084669457666
0.28896884843720083
0.7504787956407257
0.13283316237659856
0.15733995239912338
0.14611884249710397
0.20670831125769162
0.348342742185153
0.6540839321479535
0.142904703561595
0.1395675423041994
0.14258739054462968
0.22038208728690556
0.4000147177774243
0.6753559081976713
0.14983407643508212
0.12769132820705148
0.1403161258017802
0.2507295105412305
0.44441463239576595
0.7197680977246272
0.15762276646203488
0.12335261317149497
0.1563965493350407
0.2784888550695564
0.49796000743241775
0.7461346795806845
0.16269322952721202
0.1188069384533946
0.16357155660942568
0.30804145982844916
0.5264178391163477
0.7533069539464128
0.16488111433061753
0.11561728851761648
0.17261067126159618
0.32771222840135905
0.5452066198171496
0.7819169191737899
0.16852887174800588
0.1113560327329154
0.18210974472626335
0.3441547105725218
0.5709308148495291
0.7990135711505424
0.1701416158186168
0.11224369348103382
0.18835087203897122
0.3638988606813806
0.5906794404566333
0.8150515846190252
0.17248515453981672
0.11232301715758426
0.19199761285412026
0.37269859713405196
0.5998116514172063
0.8118788507362394
0.17323424034094548
0.10835414853528748
0.19061989444772898
0.3770685121960995
0.6053888730663867
0.8134458724084448
0.17254430882794092
0.11004336652598315
0.1908479464551103
0.38162634939806106
0.6130570750447297
0.82329762958598
0.17352414067793032
0.10718648439277167
0.18693590065093985
0.37273294111288874
0.6089819986986476
0.8236363049719733
0.17512451034187962
0.10893544906894656
0.17521021911705847
0.3587423806837168
0.5999642380248984
0.8337488077549307
0.17388301309774978
0.10502803351359043
0.1648267584849483
0.3439382029827921
0.5758163932538503
0.8085663166113712
0.17197175663755046
0.10940262512255798
0.15530412725403525
0.3180337339722113
0.5639598010964766
0.8056020620331115
0.17101599000477122
0.11155362934569767
0.146606464142213
0.2916562811481579
0.5282851896877518
0.7768706596910921
0.16628509709608963
0.11756932548181846
0.1281941737545461
0.25369411691959265
0.4907771557265108
0.7456255178402211
0.16713804014046568
0.11859983472017607
0.1262248289318937
0.22096694112420756
0.4448013163250216
0.7195276680433036
0.1584888295932989
0.12223512062369186
0.12611048527918287
0.18227307252480254
0.3872558703461413
0.6672108742123232
0.1497594905073517
0.12991908640547858
0.13103456665555588
0.1585898637861108
0.3111732419694756
0.6106551446359163
0.14020121627819593
0.1374345011082425
0.14569510458659918
0.14714733019736764
0.2370274331871468
0.5389187593628556
0.12545557932706689
0.14483551912705322
0.16184440002880104
0.15170478017096992
0.2005528637123516
0.44721638164313315
0.08204911971484714
0.1263127010635312
0.1682207370892026
0.1519382472269441
0.25577465034699315
0.4124372391888872
1.1468358934535945
1.275765103139025
1.3803164807947195
1.3764415022408722
1.4526320629194538
1.435703874295735
1.4513872289546157
1.437959973700007
1.4071529637866766
1.3823397558492585
1.3434495661271357
1.3118966956274314
1.2789154640061628
1.2562502307274668
1.2363892293216372
1.212804843617517
1.2155663990893002
1.1893639040022719
1.1856037620676625
1.154954837046741
1.1459219086119472
1.1168578881924855
1.0950504044742468
1.065474792837676
1.0983359686099246
1.229958030819041
1.3471759885164496
1.4170172277857953
1.4434011620111544
1.420500037425654
1.45299654893785
1.4187190562921599
1.3629777365630478
1.3373537222570964
1.309526749727642
1.2702099294121327
1.2566254541917075
1.2167637181572695
1.2145295869276842
1.1898129009083886
1.1776140665803037
1.1730482375522302
1.1460893877944422
1.1332220999481126
1.1193901474844172
1.0928426807104707
1.0859216050763028
1.053915065710101
1.0644556078775438
1.2557297044233289
1.3346082177828589
1.3946258270515304
1.4091909597822763
1.4168677751152485
1.402517772031115
1.3625549993684747
1.3391006818809807
1.2943739016301472
1.2635996279393202
1.23435036778899
1.208245503796754
1.1908488282484337
1.177626670898847
1.1764031543291418
1.1584325260242618
1.148592746606977
1.1282871048114949
1.1070057240823696
1.0939457626411087
1.0832541849787163
1.066439944812634
1.0302009663023866
1.0351829026974044
1.2333261411150303
1.3212908483958592
1.3760432968045349
1.4025450676194944
1.391233368070936
1.3558735728680262
1.3162880504837144
1.2826143389139466
1.25606541054356
1.226033150438317
1.198516283424247
1.172941596660676
1.1828270167385586
1.16447356092534
1.1405939215145935
1.1377936668246287
1.1214407918917093
1.1090985224599286
1.0995043269158322
1.0790446393431627
1.0704469772897311
1.0472461909315864
1.0256436970909333
1.013655434562088
1.209781367391908
1.3291757012762417
1.3552424008433936
1.3637605845449374
1.3330517473021646
1.3104315191213478
1.2710347509258129
1.227340189546605
1.2073055438390876
1.1847450259837489
1.1612838815311142
1.1541310769763846
1.1282374311513597
1.1343197472037603
1.1152497643382084
1.1098233756165907
1.1069335701273344
1.0922303958410287
1.0845504521502427
1.0674025271259848
1.0574562005506032
1.0421134629566882
1.0121292278675484
1.0328077501339294
1.2014448303246565
1.3094845669858988
1.3318338794902032
1.3155249849531856
1.2915710056944032
1.2641132192234559
1.22737279340582
1.1987791161567365
1.1652515602735685
1.1649672294123512
1.141216197569317
1.1297346749653945
1.1306219049356403
1.1108370575258382
1.1211334560128423
1.0983848637296039
1.0825839342780772
1.0833746761342424
1.0762808230423209
1.0644074511968422
1.0493882374173065
1.0269000740333278
1.0072926374411173
1.0263875682113335
1.189626563444537
1.2602927519403648
1.2857162260210893
1.2818257806055848
1.241455246738141
1.2112675624474465
1.1836996350534992
1.1573153184483587
1.1301161173717915
1.142691633666642
1.1220255140492315
1.1131932487781275
1.1035054633403678
1.0966519285240341
1.1020788285810146
1.0915629927605075
1.0752347985995914
1.0724645255550307
1.0615260239442612
1.0478552330694368
1.039614528108008
1.0188801435661607
1.003128961948487
1.0199481595482376
1.1874637247052986
1.2584549329903356
1.245825639016517
1.2280374243835612
1.2014977155394806
1.1793885919650247
1.1540331880855534
1.1328889746766149
1.1141024071373153
1.1167326066274588
1.0993083990150494
1.085884184127917
1.0919461727801392
1.0869474253332494
1.0820128402677927
1.0807265279530942
1.0605957913900448
1.0593767169657748
1.047098012394303
1.0395865437679197
1.0264670201667543
1.0150890366495136
0.9912202618518169
1.0177320354558115
1.1652540470070316
1.2230276246128902
1.2217168985267435
1.1895001432799974
1.1641061926916065
1.123122365185985
1.1229012161827685
1.0879561943777938
1.0903630106303872
1.0953246281370503
1.1062555964084007
1.0790001423924
1.0805855140359775
1.0715535124704696
1.0633663734051664
1.0688874175317131
1.0582991920972382
1.0469472826328379
1.0416755778797495
1.0278962716481848
1.0250627804756427
1.0061539506513284
0.9895223419012622
1.0325024901513133
1.139793140591092
1.1860507719893443
1.1616320998145453
1.150502364454134
1.1134804585834281
1.0943757705455568
1.0859317896933631
1.086661881955238
1.0833605755758466
1.0774897776607375
1.0656666365783938
1.0649792350964489
1.0727399895417393
1.056452587117361
1.0549846728527397
1.0397479349061227
1.0450225504045652
1.0394744698977287
1.0349654571063052
1.028226128155943
1.0151752917759875
1.0005490046448333
0.9876858464642083
1.0184496782180876
1.1098726973274662
1.137700620317119
1.1203341235510125
1.08196630700429
1.079540698928404
1.060284779952731
1.07284688086039
1.0462253541730235
1.0544730299396965
1.063149416874031
1.0645573080481903
1.0585958137810645
1.0713542228538475
1.054502537593623
1.0546076838970224
1.0345796449466271
1.0407714190154493
1.0406059354713098
1.0263426471785537
1.0168154516521977
1.0136641348984265
0.9970910263461661
0.9843732162870291
1.0101384035164485
1.08932744464239
1.1140715876939464
1.0824365305057324
1.0605691820524727
1.041459664756067
1.0408270733157323
1.0298106194670917
1.0394244062113298
1.048694512186088
1.0417394823926585
1.051040626881212
1.0447684050680839
1.0407430814057388
1.038659484979399
1.0425991815034157
1.0385572744526437
1.0366491643682578
1.0231351062389262
1.0209680551520022
1.0126234118594468
1.0070258150673757
0.9929948214673453
0.9821914027638232
1.0103264808372197
1.0772529231393695
1.0542608526362622
1.0333759096958508
1.025451023401579
1.0302147244997517
1.020588976617306
1.0303585940123547
1.0398263473762968
1.0379570731025822
1.0228162589719276
1.031704932459472
1.0448774432104972
1.0351897816640565
1.040987362919931
1.038163323412123
1.0306962734642222
1.0250009743462598
1.0243716456831857
1.016047979251612
1.009370283969427
1.0016462807499629
0.9919849727654201
0.98421748731226
0.9932442193145244
1.045392095649257
1.0251548719135637
1.0139120303488727
1.0251331635662302
0.997057274985614
0.9962707016671032
1.0123491146327233
1.0011087758043375
1.011033089923315
1.0371358303990879
1.023815927906907
1.033092205896125
1.025129075650081
1.0231104133622873
1.0261596243386515
1.0217982535249883
1.0232083971211636
1.0080070326460076
1.0084441953537864
1.0054556639502787
1.0018075832842672
0.9932114136978318
0.9826228211476128
0.9837195443686845
0.9995470676736752
0.9763562672772688
0.9725568302681511
0.9944859402424676
0.9760437335855241
0.9805499129372224
0.9831503441145953
0.9949409656448945
0.998724711038423
1.002295547121235
1.0093537841520883
1.0173981745639906
1.0148881675707602
1.0151586302162026
1.0172919863224068
1.0194348126732862
1.0115458776215955
1.01340886448135
1.006993931160407
1.008284013309854
0.9996394911664265
0.991624228280613
0.9836573136395799
0.9718911194910123
0.9806716351057152
0.9621593966537834
0.9592335219967127
0.9522647179912613
0.956692639023116
0.9693345662644289
0.9923974893433163
0.9900420026895944
0.9861762462865528
0.9962785330708149
1.0015467294296614
1.0103446340875128
1.0082982129856985
1.0192515498823258
1.0091082589604066
1.0149880564330511
1.0077959497285143
1.0007054670873439
1.0065547615435644
1.003658794196152
0.9974261719262847
0.9935498337244604
0.9865090056191155
0.9363304213082605
0.9398740279741096
0.9430242295893148
0.932812790125549
0.9300618326169218
0.9544321233665639
0.954119086571407
0.9636858693959456
0.973327541370219
0.9839274710261563
0.9825415111310454
0.9960665552996564
1.002475265571949
1.0041752985255392
1.0015021392985202
1.010561911400643
1.0059888082937698
1.008203131286215
1.0063595471506759
1.002786362320708
1.0013488262306474
1.001022941003391
0.9922559249550171
0.9869188826825439
0.9031278320466316
0.903955143902855
0.8967082621508946
0.907012065654424
0.9217074274967243
0.9307818522820968
0.9462126798433758
0.9535868875541391
0.960736744608542
0.9776165840386761
0.9844460327764231
0.9863049784406602
0.9899319106750335
1.0001076573140708
0.994965905946532
1.0003464577189976
0.998195738467312
1.0030977820592957
0.9997338275192715
1.0007670430602356
1.0003788324128504
0.9987315210859623
0.9922051639505435
0.9890617221764441
0.8778715028551095
0.8732670270663473
0.8829376068876025
0.9009647106675063
0.9182244580321383
0.9145689992678663
0.9388497982788923
0.9429648403894624
0.9476919870549526
0.9555079869480427
0.9688856225919358
0.9832391170047671
0.9827652671392423
0.9836219546765926
0.9934467869109898
0.9954827290832738
0.9996709173846955
1.0011589153744727
1.0000241773972478
1.0016330130055848
1.0015823011825844
0.9991507915483138
0.9934415869905886
0.9909907988715675
0.835669673990679
0.852933974848185
0.8502120013393808
0.8733612510975468
0.8937912883138103
0.8925551765399602
0.9238861699194268
0.9259502297713902
0.9449165468520628
0.9434720622962134
0.9691048560102039
0.9737251711311823
0.9830778722109744
0.9876961089212366
0.9872617791730794
0.9905759976495012
0.9952545247456637
0.9976506562884968
0.99698704700767
1.00208015695885
0.997741140083587
0.9999008886929842
0.9948370345295328
0.9928158667649237
0.8035206091195523
0.8160502670168961
0.8178840161295009
0.8533010794474278
0.8658528175572358
0.8848794972521238
0.9064943445780849
0.9115431834332152
0.9294174144277277
0.9366666828366675
0.9471486654910993
0.9695970188743397
0.9694720664289114
0.9793124210791546
0.9840022287010439
0.9928824626296139
0.9948139097264304
0.9956508754971843
0.9961825363348571
0.9994719443008074
0.9958669770989416
0.9974952184940622
0.9965840532154584
0.9944216272690279
0.7630453326439
0.7994586221782509
0.8251440767956391
0.828689948386232
0.8610465144556528
0.8703941113589396
0.8925348838459202
0.9117944345909993
0.9237502059242816
0.9388446292708974
0.9455521374029237
0.959781939383555
0.9709267992052555
0.975339561105826
0.9813379678082831
0.9866819359309857
0.9923535589087643
0.9962755623254872
0.9951564052621344
0.9979036446755015
0.999020446323456
0.9983897562803645
0.9959234898252507
0.9960122442043297
0.7096080428186192
0.7657054575928368
0.7900114404327977
0.8234249842082463
0.835476052806936
0.8536143682943856
0.8842027717974914
0.9002161981204838
0.9169987068862681
0.9277968647329029
0.9452946639676432
0.9498708469258497
0.9671098458354044
0.9718889026865295
0.9814609569994405
0.98480748585394
0.9876868826594989
0.992059983780532
0.995282664374326
0.9958798679265913
0.9989043627989486
0.9981649989482291
0.9991991272741579
0.9979602699534602
0.6524248741718267
0.7260301999009899
0.7699242050818325
0.7940405122338315
0.8185207054006396
0.836532983040773
0.8705699052049369
0.8895390554820668
0.9068018584614134
0.926526681816207
0.9396259116089042
0.9489192493668098
0.9600377463103993
0.970349788391849
0.9789673904773553
0.9850626697560585
0.9869280126402319
0.9909182719481773
0.9930289346244205
0.9960457672713147
0.9962504735883382
0.9991201513281319
0.9984091897620349
1.0005959715581774
0.06353310765444062
0.2088674311343087
0.35621038747983247
0.4136967367725988
0.42060631610846266
0.2734324837939384
0.11977447698536495
0.2857826761664961
0.39012248023602514
0.41166558154358973
0.4002329062141968
0.2904969321922001
0.15465792352107183
0.3068548320304278
0.3791041922219857
0.4003641317702269
0.37536506842669654
0.3283491377038514
0.19075051561209574
0.3260035165960175
0.38808470864532596
0.38458355799367777
0.3683414492453931
0.3507164540289318
0.22098323604987158
0.33143129554299555
0.3803382269869596
0.3809315616642687
0.376774331736412
0.36924861031466827
0.2508040590897175
0.34234729729006186
0.3817137893162621
0.3898518989965572
0.3802279777923421
0.39239316005277824
0.271789200724164
0.3525885678183361
0.3873063563913137
0.3924215269433776
0.39828583216485836
0.40809601671923235
0.2921567660229982
0.3671920714137879
0.38997162556230347
0.401226966228452
0.3989543379588939
0.42792407328268117
0.3129803886456587
0.3666911690138227
0.3937010756379907
0.40468253587621816
0.4170674952421688
0.4420844870524583
0.3201357669054598
0.3701612192430844
0.4017036922978305
0.41921945147107376
0.44031062600573323
0.47760391025411325
0.334989738353195
0.3732133764750522
0.4062224349859962
0.42850415604650016
0.4597070038443865
0.49350151896268024
0.3378759470930488
0.37564458621726754
0.40933592352887416
0.44248845004379844
0.4780714297987018
0.5294245367864697
0.34008154355569936
0.37436211370678874
0.4253908433501026
0.4703507729902866
0.5044673678049956
0.5585031052074607
0.3388515805254586
0.38291316339670756
0.43654554799314127
0.47732627440484926
0.5348669780726403
0.5797700810077167
0.33693885958341113
0.38493562677376036
0.4430008936523496
0.49434122285869053
0.5564391514453156
0.6222723117974313
0.3202984343153875
0.3747157007520338
0.4410915563361291
0.5119512793955818
0.5745774411232336
0.6603733310216158
0.3087490662821333
0.3732105512264137
0.4551860441216116
0.5197966895367002
0.6055966312442962
0.6935956028688424
0.2879466131898983
0.3681711444573684
0.4480213653280081
0.5331386041334846
0.6418642253997948
0.7303348939087027
0.2617659809454997
0.368163880484484
0.4529654978087355
0.5395573153057698
0.6549945296532114
0.7745105273938607
0.23803231237057457
0.34398654997215244
0.44324769184352997
0.549495729459583
0.6685544438368799
0.8061759309309202
0.20351091595797516
0.3312703798641117
0.4309749005709306
0.5387552475822297
0.6738816443237563
0.8434367225451768
0.1673036495277447
0.3070712652477516
0.4059792779746889
0.5312663527553882
0.6671284642538573
0.8762583714957111
0.12461243704588759
0.26727579854585903
0.3791697330702085
0.5138452301948077
0.6367662610900029
0.9290044608984902
0.06801314569882201
0.18276019522593034
0.2962735645771084
0.447813835162888
0.5557857685809797
1.0542206159956642
0.5606991729349908
0.6726400216335243
0.7328041334830064
0.7640352585870669
0.8042403267934534
0.83015611826119
0.8622606082901394
0.8861236290152401
0.9032257510410528
0.9167165275207263
0.9338102651198701
0.9474729268417881
0.9600084251997809
0.9674101748568054
0.9756110628639265
0.9805271770317092
0.9845956443522704
0.9927859041852838
0.9967303585739117
0.999039668661552
0.9983441534650785
1.0003821809497253
1.0004117157865515
1.0012369740873293
0.5051466386662299
0.6376426434706524
0.700248564251422
0.7502601657559683
0.7943996493637078
0.8280232586136466
0.8539872347441905
0.8775812813504587
0.8969958682641981
0.9188001228956182
0.9294824010327021
0.9467469834683391
0.9564242549903322
0.9651557806706457
0.9761836159427514
0.9836814287681495
0.9852175248592867
0.9915004728460332
0.9942829166536669
0.9962842968650949
0.9993650164136265
1.0000443809079282
1.0008446228097956
1.0017918362972473
0.47237877101414727
0.6090046506565604
0.6840881932607517
0.7318962719426296
0.779030936100193
0.8172867523825389
0.8461249864530638
0.8719643092253224
0.8963356000190459
0.9162553920684549
0.9313126169870368
0.9398899981995549
0.9551414026774568
0.9671442817848124
0.9752956232453744
0.9827163195622001
0.9881921852901745
0.9920164823960669
0.9952998608194239
0.9980805015424675
1.0010520320894827
0.9996882436030147
1.001579359006553
1.0021915844848341
0.46100106165730864
0.5926579652650573
0.6678818147512198
0.7254898513074733
0.7718492638740281
0.8102086976900551
0.8385348324214305
0.872202664490613
0.8938088371971428
0.9148229507154211
0.9275667766770741
0.9412309087766241
0.9551955867077411
0.9655041184327131
0.9768676419888555
0.9810234223266575
0.986227825964908
0.9897371332945211
0.9947541620567178
0.998704193693877
1.0003916903653398
1.0025332853229851
1.000320428654971
1.0015802232775617
0.46012258426747765
0.5766157650885932
0.6531704214598123
0.7172956586015843
0.7652087556789734
0.8073603356565676
0.8363486786105252
0.8707610583187244
0.8944024736155342
0.9133901609109217
0.932981606100636
0.9440099915830886
0.9546819122369736
0.9595491371917323
0.9769821941231825
0.9813371355491304
0.9831665131765215
0.9920776721950167
0.993685185277611
0.9982348334645348
1.0008015287413778
1.0010222628936225
1.0013523677795801
1.0020894343350666
0.4655016002796087
0.572912030832306
0.651298213412422
0.7092783397647178
0.7671466561419169
0.806238779432866
0.8379044180708328
0.8685596742485632
0.8924811687422098
0.9125906273033145
0.9329977870696542
0.9465908831700046
0.960649151296803
0.9681072287986295
0.9769411297687575
0.983374784912271
0.9900426239674265
0.9932578036926344
0.9963215781070878
1.0009575751887538
1.0011118192148918
1.0024370386383414
1.0016514277520256
1.0018449738692328
0.47824096860711046
0.5758725357844362
0.6518699658214526
0.7170201909216912
0.7675062421819487
0.8076969931784818
0.8455935473039269
0.8740288128709416
0.9001999542459778
0.9129048324646944
0.9331230838965736
0.949571382515545
0.9589706043261634
0.9735246171002498
0.980824962984885
0.98684909056693
0.9910967151105716
0.9958520347250567
0.9973313130452045
1.0014878565839478
1.0017232514642562
1.002306975378063
1.0027449167970883
1.0003947670737208
0.49275298564228487
0.5813950926760738
0.6572613479745913
0.7189591003497618
0.7715517192603842
0.8164641833804478
0.8522827478085765
0.8763193673751215
0.8946520136734866
0.9223022149656814
0.9417279156287545
0.9541171649915298
0.967530820555145
0.971688672566916
0.9837180284802678
0.9907461385421499
0.9913721412623033
0.9960273011861565
0.9996155988790115
1.0018828605306802
1.0023044064995656
1.0027591965411975
1.0010866407598817
1.0002863810579372
0.5087288637746012
0.5998610386766463
0.6701773440665975
0.7286456906665831
0.7828191960255103
0.827360694422234
0.862508398066271
0.8930402903287624
0.9147944090766958
0.9277893863230477
0.9471271564835795
0.9654650283716896
0.9741886979916837
0.9767518967567378
0.9850470196448539
0.9971009585557525
0.9955946337489058
0.9996796215627047
1.0034340500184709
1.0038208229985965
1.00267831645861
1.0046738596543434
1.0010044078271587
0.9992022709751516
0.5317206032259154
0.6167599595496667
0.6836438399773723
0.7468177833932712
0.7918806210584836
0.8379669656660259
0.866261657487747
0.8945503494470977
0.9175118352494585
0.9405388680343822
0.9525677509083632
0.9662558935477987
0.9743120817652356
0.9852246901105768
0.9923288623179539
0.9973673430169396
1.0022637915468613
1.0064685113291945
1.003127208591814
1.0067403351336965
1.004992168196113
1.005456698225688
1.0020117437166567
0.99790125895129
0.5583257124874925
0.6352280285610697
0.7040552002709692
0.7556022506527864
0.8052387939340083
0.8586936154682356
0.8848830364011023
0.9097737559474688
0.9328382317916646
0.9506186347330845
0.9645270469701581
0.9763283838808974
0.981301581309327
0.9884042766111698
0.997779041540337
1.0028004448380323
1.008290074082071
1.0098896796439414
1.0105470703968962
1.0073720410444225
1.0079867262015711
1.0053185342275743
1.001607697776502
0.9973906112900289
0.5817588344910134
0.6578644563522708
0.7248257740836566
0.7808974350990265
0.8285428534483398
0.8701469440639357
0.8960354865369871
0.9279993198356501
0.9419189537369536
0.9565527689385608
0.9785558617011147
0.9858271818382179
0.9957284271063193
1.004680824207094
1.008136739940072
1.0103043308608237
1.0105048537515142
1.014059228489575
1.014188461264385
1.011234088224843
1.009665939458575
1.008736179892724
1.0033604984587168
0.996387719228176
0.6154608984226894
0.6907908110984735
0.7497949053465975
0.8081909337333834
0.8633845483131148
0.8868658099049941
0.9194053513746905
0.9472784349286436
0.9605901141005166
0.9780205156793206
0.9922828642042771
0.9995163361957596
1.0090584784488914
1.0143093512703887
1.016134341837769
1.020885547124995
1.0189599003112542
1.0186367510638714
1.0195447539787867
1.0155780273942487
1.0139003040623928
1.0099143485499171
1.0032144996608747
0.9951518731400846
0.6593681708888315
0.7213996834394003
0.7909442185774208
0.8349066792200607
0.8744900728923575
0.9092506259528548
0.9455393376436034
0.9626887533620407
0.9886750785201088
0.990410324197888
1.003670017364556
1.0118872998600983
1.0180754202572213
1.0230155793972213
1.025862212254975
1.0283553621390318
1.0283119758928723
1.029644878185147
1.0259973548611305
1.022741031864638
1.0170896130853795
1.0131619171027428
1.0047162180412554
0.9954982801460753
0.6992275249748955
0.7636670322936228
0.820048370876465
0.8736405423205688
0.9061732448859254
0.9439801021194778
0.9667053775490859
0.9836691853756675
1.004028295131536
1.012705756363813
1.0263989413242212
1.0322543606376662
1.0325404208364124
1.0381012764134208
1.039017495262123
1.0389350029852304
1.037677241679713
1.036381120382753
1.0308024584184416
1.0288833321573598
1.0247676732225668
1.017530263390996
1.0073310354168983
0.9950313929578709
0.7422598607311608
0.8106277361949245
0.8668405088416276
0.913514100342384
0.9462937334663655
0.9764850528092204
1.0035097069014218
1.0185123264918046
1.0240166713248893
1.037709738117811
1.0459033677205458
1.0469825458828574
1.0510158110027956
1.053354389795972
1.0524836679643155
1.0518377587966825
1.052591826289114
1.0498342538610481
1.0444701331721171
1.0330982703814553
1.029999944398981
1.0225117649345672
1.0088667865815397
0.9956399336342876
0.7957796540295718
0.8677861636970854
0.924211830473649
0.9531547744196796
0.9876308716649803
1.0076566787005665
1.0318112618656639
1.0379528629503592
1.0537245399093953
1.0636298195768181
1.0646192167247084
1.070377557686064
1.0708626503096785
1.069618774194004
1.0721873984942538
1.0677270710293907
1.061677286746531
1.058944857160535
1.0482722965104476
1.044642305041565
1.0343262731067284
1.0230531801496991
1.0110391927736804
0.9949504131953719
0.8368752767436677
0.9220452922010762
0.9790988680241561
1.015560605427957
1.0308338374829003
1.0490188657147668
1.0584067122929899
1.0708893601685108
1.0783642745177382
1.0867335845427692
1.0883341773513937
1.0881087212908636
1.0900274556517695
1.0890074649590071
1.0867985296224387
1.0842720221150521
1.0783707910258027
1.0689221007562455
1.060984845412882
1.0532475152364194
1.0429008014947343
1.0309857874786348
1.01469987184883
0.9974933329802966
0.9040008909533378
0.990596139835801
1.0312266912148056
1.0624151813103688
1.0820145210932532
1.0914265167048254
1.0990278263397812
1.1019691653600727
1.1052387751380015
1.111363536553412
1.1097642705253024
1.1134530232095632
1.1121215170949768
1.1104820327879974
1.1018174359909536
1.0952961660497296
1.091695989201716
1.0810414812963811
1.0740532947686108
1.061429215097997
1.0469371898620727
1.0364897050639423
1.0192883700434612
1.0007397136153058
0.9769518568153539
1.0542193044269892
1.1057046261115455
1.123827506920606
1.1364506296651509
1.1387760295301095
1.140230038057751
1.1377543567735986
1.1456730851413648
1.1416420370157807
1.1413567866572158
1.1364389527276144
1.1328141275657135
1.1274169623686654
1.1216779911505979
1.11534043237517
1.1041851582208886
1.0976375159751488
1.085464019887562
1.0728645358998419
1.0578113376507878
1.0450523972991954
1.0248923420919103
1.003711657787984
1.0382249393395377
1.1409932165474022
1.1783988046365368
1.1886199899951488
1.1901521672788589
1.1806939357754789
1.180286449531239
1.1812205566107856
1.1765735659632353
1.1674056952674712
1.1672796037750741
1.1590527745823989
1.1535372581876682
1.1449718152687047
1.1402534906751576
1.1326944678050073
1.1234441142990463
1.1088267413849096
1.0980873152042954
1.0825238975315847
1.0679893089568262
1.0513594934824013
1.028962686372038
1.0056224915663527
1.1309633998046322
1.2189448619551855
1.2520091704081457
1.2620607789596365
1.2572572549520422
1.2322140327114313
1.2251844484654388
1.218564733530777
1.2067956143484815
1.2026379066679223
1.1955331876008157
1.1879591027754308
1.177323159288537
1.1724462085235454
1.157009012769328
1.1475402322335215
1.138700601465473
1.1232418672128885
1.1085414911274387
1.0946919661315817
1.0738177997076352
1.0606133866010508
1.036929259419578
1.0103411621319198
1.2307495915244528
1.3014141070805112
1.3264697688590907
1.3225371532541035
1.319494351110773
1.2969410769532888
1.2787187183519917
1.2589670171669072
1.2416289520051815
1.2336686442450422
1.2233976782452514
1.2177906226164168
1.2017779594986382
1.1905366037922325
1.1744823160653597
1.1668800403623651
1.156064992342643
1.1387683149196663
1.1222340510023583
1.1063414876335997
1.0899062157946255
1.0658131660440393
1.0441571217817534
1.0175127376204434
1.3547010855957708
1.368501890898759
1.3974602923846626
1.4116524447789462
1.3713131813165078
1.3494784999486868
1.3295194495323706
1.3009798652294464
1.2808462394195674
1.263519289230115
1.2487283625633492
1.2407243151555887
1.2280206089700627
1.2140411438255616
1.200036635057012
1.1832563248316301
1.1727116965400806
1.1582786794225775
1.137741991150706
1.1181152806739074
1.1024323385856432
1.0778989521007791
1.0504895840031871
1.0207465651502647
0.12805277358585387
0.2577270457098786
0.41756752226911703
0.4674030054711557
0.539738230234282
0.2702761520946557
0.18957010950089265
0.3227020607579164
0.45335696503427686
0.48792198242653617
0.5151788916919139
0.30601853076335916
0.21664885165722134
0.3400148256851943
0.44088885555983104
0.45590713021175194
0.4482811183344896
0.2991901045565935
0.23327926636007784
0.3369954678241726
0.41177975137264744
0.4049719699003611
0.38255036225511757
0.3035848863099544
0.255698593526867
0.32921285087367913
0.36969608908771556
0.3497454857849473
0.3322191175570746
0.29589957807751993
0.270977853465315
0.314556995901418
0.3356644823675443
0.30302745286525784
0.27960359540347707
0.29577601513660934
0.28951358218368894
0.303847437788367
0.3029702232315863
0.2562260804451643
0.23468829276784098
0.2583092014433781
0.30035579844547505
0.29426935780411567
0.27073374997248006
0.22003071990792647
0.20008127788560295
0.2501972002272467
0.31175876136867553
0.2887830977157695
0.24667220845591403
0.18514716200835485
0.1786996954563717
0.24501566345973896
0.3204833073594196
0.2832956386537714
0.22850569649394775
0.16238070593569282
0.14954432179005345
0.21454486654450083
0.3209948907687287
0.284420756226484
0.21937244272025352
0.14157557713910432
0.1295055940780469
0.17103991878043615
0.32343850505157784
0.2878363888095785
0.21721885569714502
0.1377136500384486
0.12438957808911055
0.14892632058276245
0.31839757143183184
0.2877180608158489
0.22179513755199495
0.15796449344771277
0.13325308309448697
0.17867272425122963
0.31074678740677253
0.29055569004073045
0.23756760174289665
0.16712963932929426
0.15711891289330096
0.21138045415995446
0.29936047004613286
0.29165037434006047
0.24753823991420776
0.20928620903038142
0.20938451095756402
0.2127298676634172
0.28654174280344674
0.29369333641623957
0.26294176287907306
0.23364968681500425
0.23291304141010583
0.2309255701934448
0.2704277724886146
0.29348170774472593
0.2795759339929826
0.2623073533317707
0.26716755779464796
0.27969160891276057
0.24209059816022818
0.29372469952502167
0.29251595843788775
0.29287188917342993
0.297403830597565
0.30603080615815265