/*--------------------------------*- C++ -*----------------------------------*  =========                 |
  \      /  F ield         | OpenFOAM: The Open Source CFD Toolbox
   \    /   O peration     | Website:  https://openfoam.org
    \  /    A nd           | Version:  11
     \/     M anipulation  |
\*---------------------------------------------------------------------------*/
FoamFile
{
    format      ascii;
    class       volScalarField;
    object      U;
}
// * * * * * * * * * * * * * * * * * * * * * * * * * * * * * * * * * * * * * //

dimensions      [0 1 -1 0 0 0 0];

internalField   nonuniform List<scalar> 
2880
( 
0.05586667090503496
0.15513656104673326
0.25999877546194516
0.2201813425185761
0.18764614979479927
0.022184668955030462
0.09940629490644437
0.21268010501210877
0.27144883557492006
0.22327341836312659
0.16294598323138978
0.06698502855639382
0.12433604192155656
0.23459864578890152
0.266245522240923
0.21055302630725067
0.14434723238939662
0.10211872624699975
0.14530854597035586
0.2436528113308763
0.252771682996793
0.1861573546949557
0.14014872413489773
0.1395702951357446
0.1673849698915392
0.2482755389854453
0.23502540863690335
0.17310677550330167
0.1382670049346033
0.13748253549355244
0.19235722478612371
0.2536218487341273
0.2217881331082306
0.1704255120854784
0.14980756126705727
0.14144286531576716
0.21445193449677816
0.2536690789595518
0.212401274954804
0.16013671750837719
0.1327836612670361
0.14856620006257226
0.2261663270902463
0.25826745710163934
0.2088737644225741
0.15410638803109455
0.14216429845567302
0.18613496599133833
0.24722476954487788
0.25275954247557314
0.20053642474222846
0.15206280415211476
0.1448289925168658
0.1719769024047924
0.25493912141842684
0.25596938464910035
0.19950571401863354
0.14511091183063643
0.12924196205081082
0.17260689108699417
0.26450614090744984
0.2563033682141937
0.19712665458446782
0.14587815783663047
0.1434373441123458
0.18520732236968368
0.27188373941857635
0.2613762381225661
0.20186937788549947
0.14670512122383048
0.1417833574262407
0.21049598868337058
0.2756429024550321
0.2604697889677958
0.20269951521215315
0.1471687496365661
0.15219311943757133
0.2261227526964625
0.2713176933313787
0.2610641627812015
0.20686060039772525
0.15746827033584568
0.14961661038785862
0.21727878581152896
0.26556892173257046
0.2663766696371624
0.2145692164140263
0.17382979611698737
0.16362593104336837
0.2531711290116927
0.2553570500138477
0.26912067624456043
0.23589103170513
0.18021317381479243
0.17351179586849086
0.23442006461083864
0.24775083331331216
0.27282150736539235
0.25079177951201664
0.19524539465563312
0.18067296593498763
0.24036595433660266
0.22987058038720248
0.27672206694159257
0.26889815041673976
0.2153107397822872
0.2094942512880816
0.27228260162476137
0.2125987937983748
0.2749061632089766
0.2820284643008746
0.2384679330703739
0.21798535776393016
0.25424915264263825
0.1904071014602686
0.27448182676479965
0.3037855642805012
0.263997716663949
0.24810578338657607
0.2592502773047597
0.16418242602179806
0.26363207413641454
0.32027518094155505
0.29197303367166216
0.26562912663164717
0.24772764777701636
0.138442178547542
0.24743475852206423
0.32157048242542746
0.32165812393976967
0.31498243282394944
0.2310546834651257
0.11178681486269909
0.21938789940112488
0.3236032951854207
0.34528984937667495
0.38466826606974525
0.22695271825281116
0.0640313233171778
0.15314805105011656
0.2869324897774116
0.3156076249349776
0.45011061312310946
0.2128047950220101
0.17684709974698953
0.29419062294246345
0.29477416612724194
0.40886701808489234
0.4513932076983146
0.5039968290549428
0.6167532157962226
0.6941251646541773
0.8259127124036395
0.9578603327601353
1.0568470482769257
1.1405348564746514
1.1925949136419691
1.234440305072269
1.2856081351050326
1.2946677867638836
1.2790717297696539
1.2824031334440438
1.2620708365329005
1.2597147066622583
1.2237908594360336
1.212501672094198
1.1952985791957347
1.1525651170289777
0.21568825025810712
0.30703072159245215
0.3724539174987638
0.444375697518254
0.4929311940800935
0.6034759654114252
0.7011654623013053
0.8188222189696774
0.9618674947628836
1.0602645785417077
1.1445981924731705
1.2228611140997758
1.2598792859464751
1.2930970333150764
1.3020294488006234
1.3137037908947475
1.3029487306822511
1.2874791532948158
1.267956860945406
1.2516326193838612
1.2291725289587265
1.2159903740901559
1.191998690922721
1.150873719694317
0.21247472585963978
0.30695482418975106
0.41317078430773924
0.48928703927768324
0.5909104663983756
0.7056545837546675
0.8249959307281473
0.9519870956936478
1.056530764241729
1.1455063739047324
1.2194951763257684
1.2846950988316777
1.3178561252675416
1.3275853084263614
1.312770410507626
1.303549268188681
1.3083015368634356
1.293353780238523
1.260894869766104
1.238310668729609
1.232318168689196
1.2055909151434716
1.1698429205190228
1.145958779815103
0.17783072711792186
0.32980939623669164
0.41314223826506363
0.5195683598616292
0.6578063610197902
0.7875916407575694
0.9140132968474683
1.0397054553005136
1.1357566087707907
1.2321847471787728
1.2785051558323786
1.3140877652545508
1.3202146545745406
1.3401519613518715
1.3367912672546205
1.3322476032063317
1.3139663829323702
1.2889789023699383
1.2596119912916985
1.24955573389747
1.219075311382618
1.1941259253789356
1.1589086758892178
1.1294478893407125
0.21319748998323296
0.3358007667395505
0.4715900366086124
0.5978786824638941
0.7279391110130753
0.8588872230077966
0.9916425232596566
1.110044401003534
1.2197639324851233
1.282891767257156
1.30452576445418
1.320093063190816
1.3330429087363862
1.3320296142510957
1.3181073449023877
1.339507410154475
1.3052993423690025
1.2777745214523528
1.2625219708402289
1.2358813541202314
1.2169728990697233
1.1810278735521662
1.1515733962682728
1.1290140380903213
0.23369734124441877
0.34607234258496294
0.49379824887070667
0.6496283242126144
0.8054816941674607
0.9476354202553081
1.088291013180021
1.1949248734552207
1.2778697149102425
1.3067160548685544
1.3454653543644923
1.3716626200660158
1.335510467302276
1.343995651684553
1.3168840600880625
1.2958048667447002
1.2858576798367634
1.2804755223219662
1.2618009188647203
1.2170421051711704
1.199233953974537
1.1613863741517758
1.139602931907879
1.1072269147769973
0.25006570704113756
0.3938262149808899
0.5395424698639181
0.7227310327097847
0.8790520835927859
1.0297040154632304
1.1436754955126516
1.2563595965331766
1.2929108462910164
1.3287932832036362
1.3365007652596284
1.341700441866442
1.3274861564260936
1.3409174514844204
1.3231777680400398
1.3032921727714502
1.267557984463481
1.250591892837969
1.2389731564225166
1.2072815326972648
1.1926112958520445
1.1600004021511559
1.1221251066540996
1.0992808464425343
0.2953374611409794
0.3861900674858676
0.5798184813466369
0.7757802833771117
0.9549727559932005
1.087752369553321
1.2162965759438702
1.2753899536804565
1.3356660762938697
1.3281176704305764
1.346972630602301
1.3414484352769134
1.3184903775741312
1.315576668808667
1.3033977618473076
1.2786648730636134
1.2626646515711015
1.2381569557770773
1.2260205281386694
1.2018597149272772
1.170986628653348
1.1513571924057548
1.114870842260416
1.0894757317689674
0.28371023070386814
0.4625584882491247
0.6502162829851534
0.8450897848061129
1.0241055134565358
1.1390215024879524
1.2476597377060792
1.3134256101399486
1.3362239647652143
1.3478690365122907
1.34217493497914
1.3232115083604141
1.3238587329809017
1.3193646631835083
1.284655932479141
1.2714678419583862
1.23448842753759
1.2289895491826832
1.2148355889502112
1.1946754359529919
1.1687717893072678
1.1391259551006658
1.110424683247331
1.078212905630054
0.2865924173121163
0.49524474851053896
0.7159973849358207
0.9177361736306723
1.079974159848047
1.201820224229227
1.2618688375425442
1.3136953697079023
1.34414622106425
1.348841750639595
1.3306781786831168
1.3227933895457196
1.3131883181845718
1.2985463486688757
1.283931413603415
1.2535407628477198
1.2345817493200624
1.2207113427207286
1.203265518638151
1.1831594343436782
1.1487572690099421
1.131124114827386
1.1061922580450803
1.0741110585709541
0.32336243007341003
0.5581096467905626
0.780019894162984
0.980999637898564
1.1589930986223795
1.246197392377507
1.2849916299198858
1.3036975452572626
1.33177887612349
1.3285669569957572
1.318139719617348
1.3081298244072153
1.295583216254848
1.2842654549885424
1.265188761003242
1.2436373994186052
1.2257959566609251
1.2084316548636909
1.1865285958311669
1.170395685610289
1.1529630956194605
1.1288598230784945
1.0981081862229773
1.0717560464685556
0.3696380885219129
0.6059969869898268
0.8599773016747768
1.0665615767920693
1.1983528940035075
1.2620902861385739
1.2973115065172767
1.320374013038999
1.32390386254085
1.3084296185257434
1.3027064563400454
1.2969835914570287
1.2903341242706423
1.2640332289482767
1.253302937435054
1.229526301257935
1.2223291604662598
1.1987569131649536
1.1925222356803815
1.1663215338519268
1.1404778067336416
1.1275919672637091
1.0922858889032465
1.0679544866786164
0.3742777025936432
0.6637535833433676
0.9075714817193179
1.0876939585441878
1.210061006560276
1.279050065620559
1.3150330524402354
1.3154828459918313
1.3138513262373523
1.3113755636661446
1.3016386480517819
1.2755748604290418
1.2677027244971963
1.236970097667346
1.2359354391336177
1.2213238238912403
1.199127382498856
1.1936621778585763
1.1781304596868434
1.169824111353713
1.1381889614425877
1.116024641566411
1.088228153976523
1.059157332460064
0.4424628259312319
0.739534965152205
1.0037228014041346
1.143588303959295
1.2565355382600907
1.283378609486135
1.3001985634016497
1.3262869741213232
1.3071276430098397
1.2685220209952965
1.2712778535694245
1.2587208860930519
1.2426899522979988
1.2391153938456125
1.2174237978007993
1.2104221857158461
1.1987365936341445
1.1824882488664734
1.166887652597584
1.1506537306542015
1.1307037350104256
1.1099383424482872
1.0872699026359838
1.057788263677026
0.4704616924433039
0.799924350089559
1.0789779048096184
1.1900785387928179
1.2678315199746382
1.3014980753595409
1.2910836646285069
1.3034358150227177
1.289534386901308
1.2861018051831643
1.2730302316053086
1.2424304515633473
1.2349888971877436
1.2201716689421758
1.2103185410002575
1.2024202520264682
1.1847040199708305
1.1733288448273933
1.1561340573381265
1.149725249735391
1.1273783113550764
1.109385524007679
1.0822311379223162
1.054984360170605
0.4999124975859041
0.8479813598389992
1.1095286629723426
1.2209526341102543
1.2789936727279763
1.2978605811606887
1.2963208339602064
1.2738257369129766
1.2688377939754614
1.260284786229557
1.246360351169687
1.2442234040323374
1.216981400731209
1.2120262474999943
1.2110746849725622
1.1901103138717184
1.1731830816470838
1.1676289632248034
1.1607085093609018
1.1398173461269328
1.1244231612320568
1.1017382025281546
1.0809034117210599
1.0516625114448555
0.5679014667183178
0.9477632672145383
1.1438890829684707
1.2193800732267936
1.262304994143725
1.2918372271284528
1.2924104993888241
1.2680622602502296
1.2569793610034043
1.245288202155977
1.2485315242870958
1.2239373604126385
1.2096484542669597
1.2086066670071764
1.189168886438345
1.1822521344538648
1.1778399410295426
1.1671726203559998
1.145606419120056
1.1327757444269713
1.1185614223843519
1.100351130183146
1.0745112716850003
1.047403704451925
0.6027001807265665
0.9963431064407032
1.197095942388125
1.260075684225334
1.3149908714491523
1.2860433880121958
1.2727494215029813
1.2548213199936886
1.247792610892571
1.233831001304742
1.2350677310554494
1.2119090604780802
1.2029862783273293
1.1907449213726586
1.1868669297684937
1.1754072264099058
1.1682118896468954
1.1534843105709742
1.1412904118266498
1.1330186285761592
1.1128533925963118
1.0943489189521485
1.072898930635629
1.0427422393514583
0.6488438861586439
1.0427811616077767
1.2064392051177106
1.2733702940220328
1.2853668396607194
1.2480198398522286
1.244455477332989
1.2469918111212284
1.2179346411393643
1.2172441390505588
1.2137442302008552
1.198100604060556
1.187995354236298
1.1778554876383354
1.1694394618432695
1.1661366661255865
1.1607357727439596
1.1518763783838701
1.1364720954839476
1.1274129411118028
1.1093934652356998
1.0892553818143236
1.0654255329074334
1.0369095768050218
0.7045171357490899
1.0846500239017272
1.2220643984852284
1.2527147275442627
1.2586714288877192
1.23657390741412
1.2279570232594301
1.225227144214481
1.2181883884335034
1.190404241146482
1.1922455838619896
1.185164663578836
1.1797468769374695
1.173785491362251
1.17208584765429
1.1669083683850903
1.1509657413581504
1.1433505915895723
1.135577924918615
1.117675412821839
1.1025628801828267
1.0832726605023468
1.0612293550240166
1.0339572094031328
0.759555680328594
1.1159791503405248
1.2137998876646834
1.2312711986228244
1.2314822980705822
1.2369978865395748
1.2190940695934356
1.1922967912204254
1.1919903573154738
1.173091893549608
1.1763472586745023
1.1774646435790588
1.1698057680529426
1.1628103021178198
1.1604069544183586
1.1501450837464282
1.1483391652780506
1.1402272194150762
1.1264016757712596
1.1142548604231144
1.0956768749693282
1.0765630155787471
1.0563140059383391
1.028129490938308
0.8375961333192286
1.1639877828056464
1.206968701750639
1.218484062706704
1.2077912065530905
1.2059383876727112
1.1892350875431417
1.172274594345814
1.1755822456780167
1.1635090559498384
1.1544258682827528
1.1530445165198577
1.1606951183597212
1.1546920235921048
1.1487025019739823
1.1445682388798486
1.1383224748334704
1.1294172791784884
1.1157142774542599
1.1055769008614158
1.0884084141904364
1.0732818749433597
1.052034775071953
1.0233052800131637
0.9411745532365805
1.150152622217618
1.1678733106932522
1.1898465598074484
1.170188489145331
1.165664342384351
1.1513495137342766
1.1371366727307943
1.145950053807189
1.15444928404508
1.1536920341506272
1.14802179625628
1.1478093337668316
1.1452766683056244
1.1433047255431477
1.1330910320820262
1.1321132011816908
1.1214805614543748
1.1116052747496432
1.0999483228811133
1.0814238336674813
1.0661543477083546
1.0448821765558653
1.022023314273192
1.0072922269734006
1.1016730988625079
1.1355250237791743
1.1207528150401167
1.134068398221649
1.125990706924519
1.119353078512156
1.1205810572604165
1.1219004107313404
1.1238535342306346
1.1244726583784785
1.1269892104437984
1.1336472580272188
1.1269093377448705
1.1289522768710885
1.1259897401130656
1.1185988113218186
1.1141438035409414
1.1016380920132867
1.0910226246905068
1.0787819772536955
1.0620759210052197
1.039805648746539
1.0168006202835962
0.07044412038873732
0.08036393783583286
0.08179057048788782
0.1168331256504522
0.14680220626695104
0.5126868676093661
0.07258299371498364
0.06140134689243257
0.06558523331810096
0.1044388268985657
0.15617282250658968
0.3407032785196938
0.06325593655962408
0.05095607364758603
0.07349387731457765
0.10138157193226285
0.16732779666933925
0.3122124254947064
0.06618985733316946
0.05551113872904301
0.06931633537965201
0.09017920511289854
0.16074860597126875
0.2989349846599158
0.056495781167528014
0.05124509377571809
0.06477795158470592
0.0915435873012474
0.16012085160293307
0.27596083349846257
0.043674311704766655
0.04692388625025007
0.05354820188936921
0.09280827196665306
0.1505766373706461
0.2568585391906617
0.045220820414383064
0.043333043845573294
0.05925407506150518
0.07849069049002716
0.13782825119324055
0.24386667241781562
0.03811963613621325
0.039634253003195064
0.05090306862697919
0.058910778376964484
0.12516351012041108
0.21315351431145074
0.04052788832694354
0.040690139253876795
0.048014178213258735
0.07271949848801199
0.12740382844076512
0.20491419430752258
0.02781811051572003
0.03320770671481066
0.04082848591413102
0.06393647038309086
0.11974758227720511
0.19034333039015203
0.028750294022887618
0.03208955017885004
0.03236141710129303
0.058558323062344014
0.1052812819309856
0.17197539708816426
0.03757204105068468
0.032122207218243076
0.04234148716972677
0.05974444280114763
0.10751994195780407
0.16929596677672162
0.03064859532183084
0.023894825418716376
0.038518607959008855
0.06704434667179615
0.12354472489465759
0.17342620706319217
0.03778184954895164
0.03380523072356917
0.030650139425740602
0.06381355831688229
0.10418815561932943
0.1849136558138044
0.029052120212506777
0.031854197743490825
0.035621418151060014
0.06739670546211857
0.1229777482588385
0.17709327792010726
0.022104321673566324
0.04047334236317979
0.053582840400823534
0.08552987695608477
0.11508210550636244
0.18478445643781213
0.03648547333100144
0.033174345325694604
0.05235362018278314
0.06943282933834136
0.12556084549345176
0.21396588787859153
0.02869241859679078
0.0288713842557832
0.056450328590705784
0.07119408092204701
0.12154922988178851
0.19562075347865396
0.03089761412089312
0.029056736644318237
0.05275277221352495
0.07586902980387503
0.12918483454528568
0.19060709112605323
0.030767593896390916
0.03528574767386761
0.05981989701725371
0.0763122061793462
0.13851563266039735
0.2054753949358431
0.03690907179954067
0.030052322898427936
0.06023801012206298
0.07295328554815658
0.11642165941196109
0.2057471971455811
0.036613840804566394
0.03190571867214814
0.045455740337497275
0.07045027157093992
0.12709593747740108
0.16689768709675762
0.04027796203739396
0.042020439246015215
0.05968385181724303
0.06769643050939392
0.13180670964956462
0.1748436593151157
0.04733062911208434
0.04786357111030695
0.07827365273753031
0.0630414998685074
0.15152780612891553
0.19111373993910039
0.9610766427231148
1.0358928526878879
1.061002468233555
1.0857812458419718
1.0955611775047793
1.09181853231104
1.0927977988308994
1.0912152140818085
1.099108880220757
1.1135586439868836
1.1166899330925562
1.1198909913376545
1.1196312282143093
1.1246943085903685
1.12837672440496
1.120221596361726
1.1097544394004872
1.1023366315451557
1.092818626573825
1.0847391307870997
1.0717591895765843
1.0568166851184884
1.0353148332152606
1.0153805406016
0.7743926058699667
0.9287354860431479
0.9868490607876335
1.037206167745272
1.0477473812899982
1.0497193902688675
1.0652687884846053
1.072013247709519
1.083843865279672
1.0882315006468137
1.1031941278002053
1.110288000466341
1.1060221441155806
1.1157100673053337
1.111376862335283
1.111009349468084
1.1020086845870163
1.0918588203098727
1.0905612915713976
1.0775015094499585
1.0643925168310062
1.0503478379905695
1.0312888492140957
1.0120352770895125
0.6564618997839708
0.828609423258312
0.9196005066206738
0.9601092169664268
0.9968496165840818
1.015144436493449
1.0237366559378902
1.0443493473387075
1.0645591121030018
1.0730092483588693
1.0850237119216182
1.0931843037105164
1.0974484742367387
1.1006756757462648
1.0946979195005617
1.096050757356005
1.0919387160702048
1.0866703892306964
1.0785165240132568
1.0679391179521096
1.0585729212932278
1.044760850281381
1.0297678834147206
1.012373544900719
0.5729520939554062
0.7477174461779027
0.8407028353811373
0.8976600232222007
0.9390705088706424
0.9707657309410009
0.9969277404290725
1.0190287136352605
1.0417802919231085
1.057136686958927
1.0685237166322021
1.0750269548208593
1.086365564258695
1.084812907201255
1.0880268036417187
1.0854951683984073
1.0782914590528314
1.0728418343255115
1.069789524477831
1.0609194838155631
1.0517504767503825
1.040514729120384
1.0250206787449712
1.0096302960062686
0.5040233547796735
0.6629752789493896
0.760552144835784
0.8332687761349614
0.8861608004454932
0.9240587568615666
0.9617137823748231
0.9915683574118288
1.0161951298493026
1.0342288983717611
1.04886624830017
1.0601712937116368
1.0674487824969603
1.0665627069746229
1.0724979792988139
1.0704842579722047
1.070442156145724
1.0609395331359504
1.0605148309398573
1.0506167274844076
1.0462550249480713
1.0343481096878937
1.0202957708430083
1.006877063654653
0.4456438898507346
0.5899742741364434
0.6993665943839129
0.780975145005607
0.8344026578830901
0.887637173418343
0.9262641204588574
0.9650135994041725
0.9897982929319864
1.0073335729936346
1.0320552250933968
1.0455049653396626
1.0500040093790264
1.056925518498872
1.057531594807912
1.0580266708305295
1.0542191780996535
1.0534874813352024
1.0461939447624682
1.0445720700161778
1.034964416829084
1.0290741917855226
1.0165913314604837
1.0046459572646411
0.3896381434981726
0.5359472944569336
0.6425933139835411
0.7248227123773875
0.7905560395030164
0.8563781919882799
0.9002843943730157
0.9398434270334679
0.978001197191413
0.9994911033556472
1.0105043320868667
1.0241129117870837
1.0314833253310123
1.0373275527168875
1.0401712875817766
1.0402707854356956
1.0437168411051938
1.0420121851257298
1.0387849177026196
1.0340840674497969
1.0284102175318135
1.021897450766842
1.0135198584008753
1.0026461885327216
0.3502749657092269
0.4856335311365182
0.5927110255343452
0.6800655133690316
0.7567254966976816
0.8188743645058776
0.8690432436772915
0.9190319686933973
0.9508937876922553
0.9756336654767119
0.9983765287876473
1.008092640160457
1.01440070370099
1.0200473446517904
1.0265504751586925
1.031964384986091
1.0281035407129961
1.0274473634620345
1.0307524279705835
1.0256738587395815
1.0223749546929646
1.0174093369926576
1.0095243899008768
1.0012321656089387
0.32107328639822497
0.440261281831715
0.5561085778712906
0.6464420064261264
0.7304302954718163
0.7985743242537912
0.8609891656428598
0.8984102714868928
0.9294046782175459
0.9557854956336671
0.975343022540718
0.984988916295289
0.9989658347618235
1.0055115035736462
1.0102975006559944
1.0172875319177794
1.0174589038419661
1.0208080239963648
1.0203101230009373
1.0190276609788391
1.0191436123466568
1.0132161703026183
1.0073708325724582
1.0008524504957923
0.28385534473441676
0.4206207147602453
0.5250373501125801
0.6214899543237954
0.7120817929981043
0.7854818487531421
0.8405074208126084
0.8867088412716888
0.9212778016006661
0.9394677954958871
0.9554730022624551
0.9672409080463258
0.9855054401629091
0.9939453096141275
1.0004631914500806
1.005710316946118
1.0110253504389006
1.011085227899244
1.0127464018378154
1.0125116269492145
1.0127210765021855
1.0109107513912055
1.006162461206011
1.0015516990231121
0.27349525974029276
0.3978782179246527
0.5019814982737241
0.6116360017008236
0.7043180109831458
0.7779474804766386
0.8326642238538158
0.8737918582296831
0.9004648222497842
0.9316810761449579
0.9449610045972788
0.9622315065445703
0.9736979874811356
0.976483284925045
0.991760840354671
0.9960733996438093
1.002088427028189
1.0031904535641638
1.008655965552536
1.008580395777585
1.0085136953750566
1.0083235392379075
1.006589298916503
1.0037221385510546
0.2694359211597731
0.391853558552508
0.5052353004869449
0.6063527623629996
0.7022086942185372
0.7686533850836413
0.8278993607552981
0.863464728186847
0.8973907760312341
0.912824711212255
0.9329255591758375
0.9488815161103512
0.9612978911533201
0.9735188406496249
0.9828081375452518
0.9879242468831504
0.9942322598880291
0.9993531847176889
1.0044940750937206
1.0068996009330389
1.0085717255627635
1.0090728207801323
1.0089781021080044
1.0076119847214164
0.27178583329724704
0.3951317249900814
0.5090963072557813
0.6192319652841917
0.7075309490690018
0.7713987433551492
0.8205849171386439
0.8591274724461315
0.8887385552363031
0.9109846111605705
0.931514988262372
0.9467161959152981
0.9561838377934515
0.9700704001306041
0.9763844980732042
0.9839952226989286
0.9937528178733176
0.9938995096847595
0.9987383114905922
1.005804249596502
1.0089950487807304
1.010188516752157
1.0115936971279729
1.0108356827266403
0.2839382688162552
0.4003107837596259
0.5148297067436842
0.6318342239637683
0.7094465049205702
0.7747808430828798
0.8123708879468268
0.8546120370165341
0.8884948430531544
0.9071836106801701
0.9239721909802775
0.9405182956786827
0.9526394240320022
0.9612958117388425
0.9718019107783117
0.9791011080224128
0.992742652381418
0.994495011647183
1.0023280921648074
1.0064320557535003
1.0117153651635666
1.0140145390039987
1.013933607095388
1.0145082507277703
0.27626613982832027
0.40388806178241654
0.5402138298591024
0.6413594965653104
0.7225620210875641
0.7794170097450341
0.8275228764257336
0.8535443978839433
0.876087632037706
0.8990011395301899
0.924533694790591
0.9383864760085521
0.9555136723105407
0.961310604840923
0.9744565903507336
0.9823870498982767
0.9887659649200082
0.9964239623784819
1.002185358882562
1.0096157482652202
1.0130726904515313
1.015618674338819
1.0181394206482821
1.0185889982203444
0.30720710430505493
0.43648668841337934
0.5647653696759508
0.6646604304895017
0.7433431552033323
0.7893510557698209
0.8235041415620505
0.8591662745656109
0.8863704286480437
0.9023365764333715
0.9232580096410077
0.936531121691732
0.9484822430915644
0.9641095485221187
0.9720876290695577
0.982581153928733
0.9899928255805687
1.0000870133562545
1.0055157010607592
1.0108363956646138
1.017069108692409
1.0200594237346559
1.0185497576511215
1.0222472109624627
0.3150419174010796
0.46472440049942154
0.5956752787928097
0.6793227175715033
0.7533232924606955
0.7991234605684625
0.8330210228201382
0.8614477762972612
0.8735380861209484
0.9026562839488181
0.919887211836423
0.9400066432090036
0.9536636452745506
0.9629056838215476
0.9716739305343423
0.9870064313781856
0.9938582306355721
1.0026287417920372
1.0117976010048344
1.013504604476105
1.0187414856346804
1.022107948723359
1.0223879353669294
1.0248236585616108
0.33037775088762134
0.4865650836734058
0.6154579460838053
0.7124626334207229
0.7636003818376875
0.8057072046226332
0.8259586350122959
0.8652191744621203
0.883502667199026
0.9078656004794982
0.9222875261523026
0.9382712309076419
0.9556078641293635
0.9668769787875625
0.9785227569121105
0.9914824001151608
1.0021066154475093
1.0031632609049432
1.0149207565344325
1.0164681481936222
1.0209348586490095
1.0227701075709639
1.0234349328540828
1.0262448445193308
0.35943200130658215
0.5417577323143455
0.659748899855641
0.7423064249269027
0.7733713207522459
0.8099291454792161
0.844248634712613
0.8644785523630362
0.8892333376587717
0.9031522653175641
0.9270433287179903
0.9412015005714052
0.9558707347712687
0.9681819871895156
0.9768799933622204
0.9909863157794379
0.998530710951093
1.0059412345001915
1.0125060154456116
1.0174541505375687
1.0221562208186639
1.0234851667824905
1.0234199975558986
1.0243956407110644
0.38837068385191764
0.594695400908304
0.6792721897419817
0.747855377530628
0.7954531390729349
0.8219591079203222
0.8415976387635196
0.8789371187388884
0.891273403547367
0.9073138235196364
0.9303851619749525
0.9457297742148956
0.9622367529713818
0.9725258170411317
0.9827602539047796
0.9901799637857219
1.0070830830599378
1.0090172713712722
1.0150017850654451
1.0203231432682283
1.0205133054023574
1.021080161112
1.0233013731494764
1.0242023808357834
0.44798448293087884
0.644031038162181
0.7138909731248625
0.7897891149504561
0.804614412865657
0.8306097730858948
0.858846348538201
0.8808094745267555
0.9102793768400621
0.9159638011774129
0.9349429501325317
0.9486693782659381
0.9644404195280716
0.9769099698581415
0.9895251321295855
0.9900208493192554
1.0036531560169109
1.0090029569363346
1.0143274449850277
1.0190700859240485
1.0220997181394937
1.020205873564065
1.0202830926261963
1.0199170345504647
0.4963218291890979
0.6946574774404441
0.7644854443518385
0.8034661006797161
0.8358838149263416
0.8442518473262823
0.8743221391666613
0.8805389576561389
0.9050742321606092
0.9239033968450819
0.9411195588051933
0.9579470387563777
0.9667181042087095
0.9846617837269516
0.9872907550135003
1.0002034443850913
1.0079387547224492
1.0143306193753194
1.0159560619830437
1.0157305148090374
1.016879625439208
1.0178914073329788
1.0142462702517652
1.013909118553612
0.6119501367809675
0.7708532123627347
0.7957867330246383
0.8236415592677996
0.8407761345024254
0.8718592763162496
0.873413246546024
0.8886024905826035
0.9100303039405283
0.9291516824533199
0.9416460536064949
0.9550275649373675
0.9685934357625634
0.9835147823960765
0.9969264722961948
1.0013777628520846
1.0127162996760903
1.0121326836652467
1.014284128965486
1.008462122534538
1.012205621966194
1.0118903921003835
1.008943093055146
1.0082389865145418
0.7129600658163716
0.8206536864895163
0.8373365004172212
0.8407450561206897
0.8719739147797103
0.8710458505505169
0.8821729441823865
0.904652433363769
0.9174034191780756
0.93020773208747
0.9558169067048259
0.9690533423528657
0.9799109113033586
0.9837540385392242
0.9970013370793513
1.0021393958797542
1.005462491436131
1.0061435279167548
1.0169414151743492
1.0071843103015419
1.0078138766215914
1.0057321721843344
1.0054254553880062
1.000999222825795
0.12527357208639933
0.2465048821579981
0.314194383840533
0.3152311738195801
0.4079729331319003
0.4880237076985139
0.17454226832742378
0.2814896373867997
0.3295146148050113
0.3260814790052572
0.3912535429592219
0.5307449664983472
0.18955464051141516
0.26696404587092337
0.31958439768570523
0.32986156380988496
0.42027740755157106
0.6210613428729732
0.20171198173104254
0.2609042043469479
0.3083244477159003
0.3291437615339636
0.46347463348875184
0.7042912187423798
0.22118673405076877
0.26149184080808
0.30626456102866634
0.3434488458430961
0.5082560764615146
0.7693325203587967
0.23006354467876117
0.26022152504039636
0.2909129953299114
0.3570205385361807
0.5428955004877041
0.7986792080242
0.25139694196710605
0.25962795187045973
0.2865918107906059
0.37662941552423473
0.5801734508529247
0.8419172917485818
0.2678141892847078
0.2604053141878612
0.28500484642088475
0.39094402863077526
0.6142768143060163
0.8499967111861844
0.2749573174438071
0.25778761784787496
0.28191782636241036
0.39038294795739137
0.6143366087936803
0.8725061699765935
0.2923111856783172
0.2598695212721315
0.27832059289040345
0.40105233771330673
0.6186763786174567
0.8504497509721505
0.29783778838726715
0.26161721750680794
0.28662516408968924
0.3994456515774385
0.6244643999150666
0.8475211684948286
0.29452126423344394
0.2642023319207317
0.29528554880902
0.41357103147210167
0.62643905561875
0.8721675437957404
0.2943341877983448
0.26622024322383975
0.2951373605005843
0.40138630990187235
0.6114805405299774
0.8468177977525042
0.29548889371978804
0.2696268008425196
0.3080279350895983
0.41709088719628623
0.6185888331604045
0.8102903983766594
0.2802836734897584
0.2724713581089685
0.3069102094909418
0.41016304664921055
0.5947457231788907
0.8156658963662544
0.27220620422545916
0.27576664894026964
0.3162228679858816
0.42382360276537345
0.5881167496810848
0.8026279571769985
0.26306647368482783
0.27966277492572805
0.3257673304733921
0.4237934128929284
0.5769598883842468