/*--------------------------------*- C++ -*----------------------------------*\
  =========                 |
  \\      /  F ield         | OpenFOAM: The Open Source CFD Toolbox
   \\    /   O peration     | Website:  https://openfoam.org
    \\  /    A nd           | Version:  11
     \\/     M anipulation  |
\*---------------------------------------------------------------------------*/
FoamFile
{
    format      ascii;
    class       surfaceScalarField;
    location    "0.92";
    object      meshPhi;
}
// * * * * * * * * * * * * * * * * * * * * * * * * * * * * * * * * * * * * * //

dimensions      [0 3 -1 0 0 0 0];

internalField   nonuniform List<scalar> 
5640
(
1.36908e-16
9.81747e-07
2.42023e-16
1.37445e-06
3.76873e-16
1.76715e-06
-1.3394e-15
2.15984e-06
-3.68165e-15
2.55254e-06
2.94524e-06
5.95095e-15
1.79656e-18
9.81747e-07
-3.88838e-16
1.37445e-06
-2.60429e-15
1.76715e-06
1.94352e-15
2.15984e-06
8.06604e-15
2.55254e-06
2.94524e-06
-9.03016e-15
-1.16499e-16
9.81747e-07
1.86331e-16
1.37445e-06
-1.56244e-15
1.76715e-06
-4.21265e-15
2.15984e-06
-7.49857e-15
2.55254e-06
2.94524e-06
7.72149e-16
8.69139e-17
9.81747e-07
-1.01972e-16
1.37445e-06
2.69307e-15
1.76715e-06
7.44264e-15
2.15984e-06
3.2596e-15
2.55254e-06
2.94524e-06
-2.79832e-15
-4.83941e-17
9.81747e-07
3.94808e-17
1.37445e-06
1.94252e-16
1.76715e-06
-1.80615e-15
2.15984e-06
-4.2087e-15
2.55254e-06
2.94524e-06
5.01304e-15
-1.80133e-16
9.81747e-07
4.2499e-18
1.37445e-06
-1.84788e-15
1.76715e-06
-3.88622e-15
2.15984e-06
3.15688e-15
2.55254e-06
2.94524e-06
4.97974e-16
2.53916e-16
9.81747e-07
2.55451e-16
1.37445e-06
2.06586e-15
1.76715e-06
4.50394e-15
2.15984e-06
-2.31024e-15
2.55254e-06
2.94524e-06
5.40613e-16
2.15919e-17
9.81747e-07
-3.21729e-16
1.37445e-06
-1.14902e-15
1.76715e-06
-5.28583e-15
2.15984e-06
-3.76972e-16
2.55254e-06
2.94524e-06
-5.64004e-15
-1.43436e-16
9.81747e-07
1.66331e-16
1.37445e-06
4.19102e-15
1.76715e-06
6.34931e-15
2.15984e-06
-8.05839e-16
2.55254e-06
2.94524e-06
8.39078e-16
-6.88451e-17
9.81747e-07
-9.21555e-17
1.37445e-06
-2.76945e-15
1.76715e-06
-3.68922e-16
2.15984e-06
-1.45094e-15
2.55254e-06
2.94524e-06
-1.76833e-16
1.66278e-16
9.81747e-07
-8.87575e-17
1.37445e-06
5.69572e-16
1.76715e-06
-2.10354e-15
2.15984e-06
9.65997e-15
2.55254e-06
2.94524e-06
5.28983e-15
-1.77825e-16
9.81747e-07
-2.06017e-17
1.37445e-06
-3.45564e-16
1.76715e-06
-4.17281e-15
2.15984e-06
-2.62249e-15
2.55254e-06
2.94524e-06
5.36925e-15
1.77749e-16
9.81747e-07
2.04623e-17
1.37445e-06
3.45373e-16
1.76715e-06
4.17245e-15
2.15984e-06
2.6223e-15
2.55254e-06
2.94524e-06
-5.36968e-15
-1.66359e-16
9.81747e-07
8.86433e-17
1.37445e-06
-5.6972e-16
1.76715e-06
2.10342e-15
2.15984e-06
-9.66015e-15
2.55254e-06
2.94524e-06
-5.2906e-15
6.87782e-17
9.81747e-07
9.20487e-17
1.37445e-06
2.76934e-15
1.76715e-06
3.68572e-16
2.15984e-06
1.45071e-15
2.55254e-06
2.94524e-06
1.76493e-16
1.43369e-16
9.81747e-07
-1.66456e-16
1.37445e-06
-4.1912e-15
1.76715e-06
-6.3495e-15
2.15984e-06
8.05464e-16
2.55254e-06
2.94524e-06
-8.3958e-16
-2.16885e-17
9.81747e-07
3.21699e-16
1.37445e-06
1.14882e-15
1.76715e-06
5.28556e-15
2.15984e-06
3.76517e-16
2.55254e-06
2.94524e-06
5.63958e-15
-2.53992e-16
9.81747e-07
-2.55478e-16
1.37445e-06
-2.06605e-15
1.76715e-06
-4.5042e-15
2.15984e-06
2.30984e-15
2.55254e-06
2.94524e-06
-5.40987e-16
1.80087e-16
9.81747e-07
-4.34739e-18
1.37445e-06
1.84771e-15
1.76715e-06
3.8861e-15
2.15984e-06
-3.15714e-15
2.55254e-06
2.94524e-06
-4.98178e-16
4.83583e-17
9.81747e-07
-3.95199e-17
1.37445e-06
-1.94386e-16
1.76715e-06
1.80598e-15
2.15984e-06
4.20832e-15
2.55254e-06
2.94524e-06
-5.01345e-15
-8.6992e-17
9.81747e-07
1.01862e-16
1.37445e-06
-2.69322e-15
1.76715e-06
-7.44296e-15
2.15984e-06
-3.25996e-15
2.55254e-06
2.94524e-06
2.79784e-15
1.16434e-16
9.81747e-07
-1.8643e-16
1.37445e-06
1.56231e-15
1.76715e-06
4.21239e-15
2.15984e-06
7.49831e-15
2.55254e-06
2.94524e-06
-7.72339e-16
-1.86945e-18
9.81747e-07
3.88765e-16
1.37445e-06
2.6041e-15
1.76715e-06
-1.9438e-15
2.15984e-06
-8.06635e-15
2.55254e-06
2.94524e-06
9.02972e-15
-1.36999e-16
-2.42184e-16
-3.77069e-16
1.33916e-15
3.68149e-15
-5.9515e-15
-1.13361e-14
4.53785e-06
-4.53785e-06
-4.81478e-16
5.23599e-06
-5.23599e-06
-5.35744e-15
5.93412e-06
-5.93412e-06
-1.13041e-14
6.63225e-06
-6.63225e-06
4.86852e-15
7.33038e-06
-7.33038e-06
-1.11042e-15
8.02851e-06
-8.02851e-06
-8.15934e-15
8.72664e-06
-8.72664e-06
1.30427e-14
9.42478e-06
-9.42478e-06
5.94859e-15
1.01229e-05
-1.01229e-05
-1.99783e-15
1.0821e-05
-1.0821e-05
2.43853e-14
1.15192e-05
-1.15192e-05
1.61876e-14
1.22173e-05
-1.22173e-05
-3.27897e-14
1.29154e-05
-1.29154e-05
-3.05178e-15
1.36136e-05
-1.36136e-05
-1.44432e-14
1.43117e-05
-1.43117e-05
-2.69036e-14
1.50098e-05
-1.50098e-05
7.73719e-15
1.5708e-05
-1.5708e-05
-4.44247e-15
1.64061e-05
-1.64061e-05
-1.80068e-14
1.71042e-05
-1.71042e-05
2.18188e-14
1.78024e-05
-1.78024e-05
8.21233e-15
1.85005e-05
-1.85005e-05
-6.08551e-15
1.91986e-05
-1.91986e-05
3.89154e-14
1.98967e-05
-1.98967e-05
2.05949e-05
-2.05949e-05
9.39892e-15
4.53785e-06
5.1986e-16
5.23599e-06
7.52784e-15
5.93412e-06
-4.41251e-15
6.63225e-06
3.78291e-15
7.33038e-06
1.33845e-14
8.02851e-06
-2.11063e-15
8.72664e-06
8.52729e-15
9.42478e-06
-1.00275e-14
1.01229e-05
1.86569e-15
1.0821e-05
-2.02048e-14
1.15192e-05
-7.01388e-15
1.22173e-05
7.50815e-15
1.29154e-05
2.36066e-14
1.36136e-05
-2.04306e-15
1.43117e-05
1.48299e-14
1.50098e-05
-1.38823e-14
1.5708e-05
2.38688e-15
1.64061e-05
2.04054e-14
1.71042e-05
-7.02317e-15
1.78024e-05
1.20651e-14
1.85005e-05
-2.59467e-14
1.91986e-05
1.84325e-15
1.98967e-05
2.05949e-05
-8.67631e-15
4.53785e-06
1.2292e-14
5.23599e-06
1.88282e-15
5.93412e-06
8.90164e-15
6.63225e-06
-5.10848e-15
7.33038e-06
-2.19919e-14
8.02851e-06
1.22632e-14
8.72664e-06
-5.37461e-15
9.42478e-06
4.45579e-15
1.01229e-05
-1.43061e-14
1.0821e-05
-7.32818e-15
1.15192e-05
7.03923e-15
1.22173e-05
2.39937e-14
1.29154e-05
-7.55652e-15
1.36136e-05
9.79354e-15
1.43117e-05
-1.62399e-14
1.50098e-05
4.02869e-14
1.5708e-05
1.44424e-14
1.64061e-05
-1.37093e-14
1.71042e-05
-7.90123e-15
1.78024e-05
-3.92525e-14
1.85005e-05
4.27441e-14
1.91986e-05
-8.85387e-15
1.98967e-05
2.05949e-05
5.98528e-15
4.53785e-06
2.18556e-16
5.23599e-06
-6.43565e-15
5.93412e-06
6.06343e-15
6.63225e-06
-2.09376e-15
7.33038e-06
1.61762e-14
8.02851e-06
-1.88323e-14
8.72664e-06
-2.35328e-15
9.42478e-06
9.17059e-15
1.01229e-05
-4.71158e-15
1.0821e-05
2.16255e-14
1.15192e-05
-2.9645e-14
1.22173e-05
-9.29133e-15
1.29154e-05
-1.89102e-14
1.36136e-05
4.46311e-15
1.43117e-05
3.0153e-14
1.50098e-05
-2.62191e-14
1.5708e-05
4.36251e-16
1.64061e-05
-2.11762e-14
1.71042e-05
1.87121e-14
1.78024e-05
-3.92153e-15
1.85005e-05
-2.91659e-14
1.91986e-05
1.52291e-14
1.98967e-05
2.05949e-05
6.71447e-15
4.53785e-06
-7.30705e-15
5.23599e-06
1.11007e-14
5.93412e-06
-4.24181e-15
6.63225e-06
1.51011e-14
7.33038e-06
-5.20974e-15
8.02851e-06
1.70117e-14
8.72664e-06
-3.94253e-15
9.42478e-06
-2.9543e-16
1.01229e-05
6.60974e-15
1.0821e-05
1.3704e-14
1.15192e-05
1.0182e-14
1.22173e-05
1.82169e-14
1.29154e-05
1.43672e-14
1.36136e-05
2.3337e-14
1.43117e-05
-2.53453e-14
1.50098e-05
2.90708e-14
1.5708e-05
-7.82942e-15
1.64061e-05
3.54165e-14
1.71042e-05
-4.51525e-15
1.78024e-05
4.2366e-14
1.85005e-05
-5.86867e-16
1.91986e-05
-8.73631e-15
1.98967e-05
2.05949e-05
-4.63097e-15
4.53785e-06
5.79745e-15
5.23599e-06
-1.61509e-14
5.93412e-06
-5.97506e-15
6.63225e-06
-8.55561e-15
7.33038e-06
4.22428e-15
8.02851e-06
-8.18769e-15
8.72664e-06
6.9987e-15
9.42478e-06
-2.42301e-14
1.01229e-05
-7.77138e-15
1.0821e-05
-2.27672e-14
1.15192e-05
8.34779e-15
1.22173e-05
-7.40702e-15
1.29154e-05
2.82635e-14
1.36136e-05
-4.57104e-14
1.43117e-05
-8.22516e-15
1.50098e-05
-2.82281e-14
1.5708e-05
-2.34362e-15
1.64061e-05
-6.94806e-15
1.71042e-05
2.21436e-14
1.78024e-05
-3.41096e-14
1.85005e-05
-3.74545e-15
1.91986e-05
-3.23521e-14
1.98967e-05
2.05949e-05
-8.92526e-15
4.53785e-06
-2.28919e-15
5.23599e-06
-2.2245e-15
5.93412e-06
6.61585e-15
6.63225e-06
-3.38936e-15
7.33038e-06
-3.90727e-15
8.02851e-06
-6.41986e-15
8.72664e-06
-7.1591e-15
9.42478e-06
6.80984e-15
1.01229e-05
6.98128e-15
1.0821e-05
-9.06571e-15
1.15192e-05
6.75625e-15
1.22173e-05
-2.88889e-14
1.29154e-05
-1.22348e-14
1.36136e-05
4.80224e-15
1.43117e-05
2.50231e-14
1.50098e-05
3.86239e-15
1.5708e-05
3.60524e-15
1.64061e-05
-2.04866e-14
1.71042e-05
-2.1764e-14
1.78024e-05
3.46293e-15
1.85005e-05
2.90371e-14
1.91986e-05
-1.66762e-15
1.98967e-05
2.05949e-05
6.21562e-15
4.53785e-06
-3.87964e-15
5.23599e-06
1.54219e-14
5.93412e-06
-7.06441e-15
6.63225e-06
-2.21173e-15
7.33038e-06
1.42832e-15
8.02851e-06
-5.49352e-15
8.72664e-06
1.3225e-14
9.42478e-06
6.04524e-15
1.01229e-05
-1.74527e-14
1.0821e-05
2.08859e-14
1.15192e-05
-2.14469e-14
1.22173e-05
1.91339e-14
1.29154e-05
-7.31656e-15
1.36136e-05
3.84828e-14
1.43117e-05
-1.29254e-14
1.50098e-05
-1.88567e-15
1.5708e-05
5.71327e-15
1.64061e-05
-7.5881e-15
1.71042e-05
2.76529e-14
1.78024e-05
1.40883e-14
1.85005e-05
-5.31465e-14
1.91986e-05
3.90792e-14
1.98967e-05
2.05949e-05
-1.49907e-15
4.53785e-06
1.08968e-14
5.23599e-06
-6.59956e-15
5.93412e-06
7.2656e-15
6.63225e-06
6.17405e-15
7.33038e-06
2.48735e-15
8.02851e-06
-9.65316e-16
8.72664e-06
-4.36666e-15
9.42478e-06
-8.90233e-15
1.01229e-05
1.38629e-14
1.0821e-05
1.06889e-14
1.15192e-05
6.24913e-15
1.22173e-05
-1.27273e-16
1.29154e-05
-3.44114e-15
1.36136e-05
-1.10446e-14
1.43117e-05
-1.77681e-14
1.50098e-05
1.76785e-14
1.5708e-05
9.94939e-15
1.64061e-05
3.32731e-15
1.71042e-05
-3.29736e-14
1.78024e-05
-1.04284e-14
1.85005e-05
3.00603e-14
1.91986e-05
-6.00013e-14
1.98967e-05
2.05949e-05
5.17e-15
4.53785e-06
-7.45556e-15
5.23599e-06
-7.56957e-16
5.93412e-06
6.83947e-15
6.63225e-06
-9.97517e-15
7.33038e-06
-1.66575e-15
8.02851e-06
9.2183e-15
8.72664e-06
-1.346e-14
9.42478e-06
2.32197e-14
1.01229e-05
1.04716e-14
1.0821e-05
-1.72729e-14
1.15192e-05
-3.02783e-15
1.22173e-05
1.13968e-14
1.29154e-05
-1.9819e-14
1.36136e-05
-4.68169e-15
1.43117e-05
5.03065e-14
1.50098e-05
-2.40475e-14
1.5708e-05
-6.66301e-15
1.64061e-05
1.42578e-14
1.71042e-05
1.64652e-15
1.78024e-05
-6.8191e-15
1.85005e-05
1.44387e-14
1.91986e-05
5.07531e-14
1.98967e-05
2.05949e-05
-6.19742e-15
4.53785e-06
2.83322e-17
5.23599e-06
1.15111e-14
5.93412e-06
-2.06264e-14
6.63225e-06
5.36576e-15
7.33038e-06
1.22085e-15
8.02851e-06
-4.80348e-17
8.72664e-06
1.23928e-14
9.42478e-06
-1.32283e-14
1.01229e-05
-1.88962e-14
1.0821e-05
-4.9651e-15
1.15192e-05
-7.15628e-15
1.22173e-05
-1.489e-14
1.29154e-05
3.5338e-14
1.36136e-05
-5.2805e-18
1.43117e-05
-4.31393e-14
1.50098e-05
1.35596e-14
1.5708e-05
-2.82602e-14
1.64061e-05
2.44792e-15
1.71042e-05
-1.02432e-14
1.78024e-05
2.37984e-14
1.85005e-05
1.38761e-14
1.91986e-05
-4.5565e-14
1.98967e-05
2.05949e-05
-1.90702e-15
4.53785e-06
1.13044e-15
5.23599e-06
-2.16625e-14
5.93412e-06
9.62267e-15
6.63225e-06
1.51365e-14
7.33038e-06
-1.40659e-14
8.02851e-06
8.09172e-15
8.72664e-06
-2.69613e-14
9.42478e-06
-1.96791e-15
1.01229e-05
2.97164e-14
1.0821e-05
-1.17477e-14
1.15192e-05
1.98665e-14
1.22173e-05
-2.74467e-14
1.29154e-05
-2.06194e-14
1.36136e-05
1.604e-14
1.43117e-05
-4.61511e-15
1.50098e-05
4.68927e-15
1.5708e-05
4.79639e-14
1.64061e-05
-1.37477e-14
1.71042e-05
3.23669e-14
1.78024e-05
-3.51899e-14
1.85005e-05
-2.49099e-14
1.91986e-05
7.19138e-14
1.98967e-05
2.05949e-05
1.90646e-15
4.53785e-06
-1.13075e-15
5.23599e-06
2.16609e-14
5.93412e-06
-9.62457e-15
6.63225e-06
-1.51382e-14
7.33038e-06
1.40642e-14
8.02851e-06
-8.09328e-15
8.72664e-06
2.69575e-14
9.42478e-06
1.96451e-15
1.01229e-05
-2.97187e-14
1.0821e-05
1.17442e-14
1.15192e-05
-1.98676e-14
1.22173e-05
2.74435e-14
1.29154e-05
2.06118e-14
1.36136e-05
-1.60435e-14
1.43117e-05
4.61176e-15
1.50098e-05
-4.69594e-15
1.5708e-05
-4.79723e-14
1.64061e-05
1.37311e-14
1.71042e-05
-3.23731e-14
1.78024e-05
3.51824e-14
1.85005e-05
2.48974e-14
1.91986e-05
-7.19235e-14
1.98967e-05
2.05949e-05
6.19696e-15
4.53785e-06
-2.91064e-17
5.23599e-06
-1.15122e-14
5.93412e-06
2.06257e-14
6.63225e-06
-5.36788e-15
7.33038e-06
-1.22333e-15
8.02851e-06
4.63931e-17
8.72664e-06
-1.23939e-14
9.42478e-06
1.3225e-14
1.01229e-05
1.88942e-14
1.0821e-05
4.96251e-15
1.15192e-05
7.15334e-15
1.22173e-05
1.48864e-14
1.29154e-05
-3.53411e-14
1.36136e-05
-2.22232e-18
1.43117e-05
4.31348e-14
1.50098e-05
-1.3565e-14
1.5708e-05
2.82516e-14
1.64061e-05
-2.45982e-15
1.71042e-05
1.02388e-14
1.78024e-05
-2.38093e-14
1.85005e-05
-1.38814e-14
1.91986e-05
4.5556e-14
1.98967e-05
2.05949e-05
-5.17043e-15
4.53785e-06
7.45519e-15
5.23599e-06
7.56333e-16
5.93412e-06
-6.84036e-15
6.63225e-06
9.97309e-15
7.33038e-06
1.66375e-15
8.02851e-06
-9.21984e-15
8.72664e-06
1.34582e-14
9.42478e-06
-2.3223e-14
1.01229e-05
-1.04734e-14
1.0821e-05
1.72707e-14
1.15192e-05
3.02533e-15
1.22173e-05
-1.13999e-14
1.29154e-05
1.98142e-14
1.36136e-05
4.67708e-15
1.43117e-05
-5.03088e-14
1.50098e-05
2.40457e-14
1.5708e-05
6.655e-15
1.64061e-05
-1.42678e-14
1.71042e-05
-1.65509e-15
1.78024e-05
6.80252e-15
1.85005e-05
-1.44491e-14
1.91986e-05
-5.07619e-14
1.98967e-05
2.05949e-05
1.49832e-15
4.53785e-06
-1.08973e-14
5.23599e-06
6.59858e-15
5.93412e-06
-7.2664e-15
6.63225e-06
-6.17547e-15
7.33038e-06
-2.48931e-15
8.02851e-06
9.6279e-16
8.72664e-06
4.36352e-15
9.42478e-06
8.90068e-15
1.01229e-05
-1.38649e-14
1.0821e-05
-1.06934e-14
1.15192e-05
-6.25204e-15
1.22173e-05
1.249e-16
1.29154e-05
3.4362e-15
1.36136e-05
1.10414e-14
1.43117e-05
1.77616e-14
1.50098e-05
-1.76847e-14
1.5708e-05
-9.95725e-15
1.64061e-05
-3.33248e-15
1.71042e-05
3.29631e-14
1.78024e-05
1.0415e-14
1.85005e-05
-3.00721e-14
1.91986e-05
5.99869e-14
1.98967e-05
2.05949e-05
-6.2161e-15
4.53785e-06
3.87904e-15
5.23599e-06
-1.54228e-14
5.93412e-06
7.06456e-15
6.63225e-06
2.21012e-15
7.33038e-06
-1.42984e-15
8.02851e-06
5.49146e-15
8.72664e-06
-1.32276e-14
9.42478e-06
-6.04554e-15
1.01229e-05
1.74489e-14
1.0821e-05
-2.08902e-14
1.15192e-05
2.14425e-14
1.22173e-05
-1.91361e-14
1.29154e-05
7.31523e-15
1.36136e-05
-3.84898e-14
1.43117e-05
1.29168e-14
1.50098e-05
1.87902e-15
1.5708e-05
-5.71935e-15
1.64061e-05
7.58194e-15
1.71042e-05
-2.76627e-14
1.78024e-05
-1.41072e-14
1.85005e-05
5.31369e-14
1.91986e-05
-3.90914e-14
1.98967e-05
2.05949e-05
8.92474e-15
4.53785e-06
2.28846e-15
5.23599e-06
2.22368e-15
5.93412e-06
-6.61687e-15
6.63225e-06
3.38731e-15
7.33038e-06
3.90651e-15
8.02851e-06
6.41843e-15
8.72664e-06
7.15687e-15
9.42478e-06
-6.81107e-15
1.01229e-05
-6.98438e-15
1.0821e-05
9.06344e-15
1.15192e-05
-6.76107e-15
1.22173e-05
2.88869e-14
1.29154e-05
1.22319e-14
1.36136e-05
-4.80698e-15
1.43117e-05
-2.50293e-14
1.50098e-05
-3.86829e-15
1.5708e-05
-3.60899e-15
1.64061e-05
2.04778e-14
1.71042e-05
2.17594e-14
1.78024e-05
-3.47664e-15
1.85005e-05
-2.90446e-14
1.91986e-05
1.65605e-15
1.98967e-05
2.05949e-05
4.63034e-15
4.53785e-06
-5.79788e-15
5.23599e-06
1.615e-14
5.93412e-06
5.97341e-15
6.63225e-06
8.55428e-15
7.33038e-06
-4.22469e-15
8.02851e-06
8.18588e-15
8.72664e-06
-7.00213e-15
9.42478e-06
2.42281e-14
1.01229e-05
7.76817e-15
1.0821e-05
2.27634e-14
1.15192e-05
-8.35121e-15
1.22173e-05
7.40156e-15
1.29154e-05
-2.827e-14
1.36136e-05
4.5708e-14
1.43117e-05
8.21793e-15
1.50098e-05
2.82226e-14
1.5708e-05
2.33629e-15
1.64061e-05
6.94194e-15
1.71042e-05
-2.21545e-14
1.78024e-05
3.41018e-14
1.85005e-05
3.73314e-15
1.91986e-05
3.23425e-14
1.98967e-05
2.05949e-05
-6.71559e-15
4.53785e-06
7.30649e-15
5.23599e-06
-1.11016e-14
5.93412e-06
4.24012e-15
6.63225e-06
-1.51028e-14
7.33038e-06
5.20842e-15
8.02851e-06
-1.70138e-14
8.72664e-06
3.93727e-15
9.42478e-06
2.92924e-16
1.01229e-05
-6.61189e-15
1.0821e-05
-1.37056e-14
1.15192e-05
-1.01863e-14
1.22173e-05
-1.82182e-14
1.29154e-05
-1.43727e-14
1.36136e-05
-2.33429e-14
1.43117e-05
2.53419e-14
1.50098e-05
-2.90772e-14
1.5708e-05
7.82324e-15
1.64061e-05
-3.54209e-14
1.71042e-05
4.50885e-15
1.78024e-05
-4.23767e-14
1.85005e-05
5.76184e-16
1.91986e-05
8.72463e-15
1.98967e-05
2.05949e-05
-5.98615e-15
4.53785e-06
-2.1939e-16
5.23599e-06
6.43502e-15
5.93412e-06
-6.06435e-15
6.63225e-06
2.09206e-15
7.33038e-06
-1.61776e-14
8.02851e-06
1.88299e-14
8.72664e-06
2.34913e-15
9.42478e-06
-9.17374e-15
1.01229e-05
4.70849e-15
1.0821e-05
-2.16287e-14
1.15192e-05
2.96439e-14
1.22173e-05
9.28847e-15
1.29154e-05
1.89034e-14
1.36136e-05
-4.46907e-15
1.43117e-05
-3.01598e-14
1.50098e-05
2.62132e-14
1.5708e-05
-4.39282e-16
1.64061e-05
2.11652e-14
1.71042e-05
-1.87159e-14
1.78024e-05
3.91585e-15
1.85005e-05
2.91509e-14
1.91986e-05
-1.52366e-14
1.98967e-05
2.05949e-05
8.67604e-15
4.53785e-06
-1.2293e-14
5.23599e-06
-1.88383e-15
5.93412e-06
-8.90289e-15
6.63225e-06
5.10807e-15
7.33038e-06
2.19897e-14
8.02851e-06
-1.22656e-14
8.72664e-06
5.37238e-15
9.42478e-06
-4.45802e-15
1.01229e-05
1.43029e-14
1.0821e-05
7.32475e-15
1.15192e-05
-7.04218e-15
1.22173e-05
-2.39973e-14
1.29154e-05
7.55248e-15
1.36136e-05
-9.80143e-15
1.43117e-05
1.62353e-14
1.50098e-05
-4.02976e-14
1.5708e-05
-1.4448e-14
1.64061e-05
1.36979e-14
1.71042e-05
7.89243e-15
1.78024e-05
3.9248e-14
1.85005e-05
-4.27555e-14
1.91986e-05
8.84406e-15
1.98967e-05
2.05949e-05
-9.39913e-15
4.53785e-06
-5.20761e-16
5.23599e-06
-7.52887e-15
5.93412e-06
4.41129e-15
6.63225e-06
-3.7836e-15
7.33038e-06
-1.33859e-14
8.02851e-06
2.10875e-15
8.72664e-06
-8.53009e-15
9.42478e-06
1.00255e-14
1.01229e-05
-1.86784e-15
1.0821e-05
2.02007e-14
1.15192e-05
7.01083e-15
1.22173e-05
-7.51255e-15
1.29154e-05
-2.36111e-14
1.36136e-05
2.04161e-15
1.43117e-05
-1.48338e-14
1.50098e-05
1.38753e-14
1.5708e-05
-2.39658e-15
1.64061e-05
-2.04123e-14
1.71042e-05
7.01382e-15
1.78024e-05
-1.20707e-14
1.85005e-05
2.59376e-14
1.91986e-05
-1.85144e-15
1.98967e-05
2.05949e-05
1.13356e-14
4.53785e-06
4.80712e-16
5.23599e-06
5.35649e-15
5.93412e-06
1.13029e-14
6.63225e-06
-4.86963e-15
7.33038e-06
1.10846e-15
8.02851e-06
8.15767e-15
8.72664e-06
-1.30454e-14
9.42478e-06
-5.95041e-15
1.01229e-05
1.99442e-15
1.0821e-05
-2.43874e-14
1.15192e-05
-1.61917e-14
1.22173e-05
3.27834e-14
1.29154e-05
3.05e-15
1.36136e-05
1.44391e-14
1.43117e-05
2.69013e-14
1.50098e-05
-7.74298e-15
1.5708e-05
4.43382e-15
1.64061e-05
1.79979e-14
1.71042e-05
-2.18217e-14
1.78024e-05
-8.21801e-15
1.85005e-05
6.07882e-15
1.91986e-05
-3.89234e-14
1.98967e-05
2.05949e-05
1.36932e-16
9.81747e-07
2.42062e-16
1.37445e-06
3.76942e-16
1.76715e-06
-1.33937e-15
2.15984e-06
-3.68171e-15
2.55254e-06
2.94524e-06
5.95097e-15
1.79656e-18
9.81747e-07
-3.88838e-16
1.37445e-06
-2.60429e-15
1.76715e-06
1.94352e-15
2.15984e-06
8.06604e-15
2.55254e-06
2.94524e-06
-9.03016e-15
-1.16499e-16
9.81747e-07
1.86331e-16
1.37445e-06
-1.56244e-15
1.76715e-06
-4.21265e-15
2.15984e-06
-7.49857e-15
2.55254e-06
2.94524e-06
7.72149e-16
8.69139e-17
9.81747e-07
-1.01972e-16
1.37445e-06
2.69307e-15
1.76715e-06
7.44264e-15
2.15984e-06
3.2596e-15
2.55254e-06
2.94524e-06
-2.79832e-15
-4.83941e-17
9.81747e-07
3.94808e-17
1.37445e-06
1.94252e-16
1.76715e-06
-1.80615e-15
2.15984e-06
-4.2087e-15
2.55254e-06
2.94524e-06
5.01304e-15
-1.80133e-16
9.81747e-07
4.2499e-18
1.37445e-06
-1.84788e-15
1.76715e-06
-3.88622e-15
2.15984e-06
3.15688e-15
2.55254e-06
2.94524e-06
4.97974e-16
2.53916e-16
9.81747e-07
2.55451e-16
1.37445e-06
2.06586e-15
1.76715e-06
4.50394e-15
2.15984e-06
-2.31024e-15
2.55254e-06
2.94524e-06
5.40613e-16
2.15919e-17
9.81747e-07
-3.21729e-16
1.37445e-06
-1.14902e-15
1.76715e-06
-5.28583e-15
2.15984e-06
-3.76972e-16
2.55254e-06
2.94524e-06
-5.64004e-15
-1.43436e-16
9.81747e-07
1.66331e-16
1.37445e-06
4.19102e-15
1.76715e-06
6.34931e-15
2.15984e-06
-8.05839e-16
2.55254e-06
2.94524e-06
8.39078e-16
-6.88451e-17
9.81747e-07
-9.21555e-17
1.37445e-06
-2.76945e-15
1.76715e-06
-3.68922e-16
2.15984e-06
-1.45094e-15
2.55254e-06
2.94524e-06
-1.76833e-16
1.66278e-16
9.81747e-07
-8.87575e-17
1.37445e-06
5.69572e-16
1.76715e-06
-2.10354e-15
2.15984e-06
9.65997e-15
2.55254e-06
2.94524e-06
5.28983e-15
-1.77825e-16
9.81747e-07
-2.06017e-17
1.37445e-06
-3.45564e-16
1.76715e-06
-4.17281e-15
2.15984e-06
-2.62249e-15
2.55254e-06
2.94524e-06
5.36925e-15
1.77749e-16
9.81747e-07
2.04623e-17
1.37445e-06
3.45373e-16
1.76715e-06
4.17245e-15
2.15984e-06
2.6223e-15
2.55254e-06
2.94524e-06
-5.36968e-15
-1.66359e-16
9.81747e-07
8.86433e-17
1.37445e-06
-5.6972e-16
1.76715e-06
2.10342e-15
2.15984e-06
-9.66015e-15
2.55254e-06
2.94524e-06
-5.2906e-15
6.87782e-17
9.81747e-07
9.20487e-17
1.37445e-06
2.76934e-15
1.76715e-06
3.68572e-16
2.15984e-06
1.45071e-15
2.55254e-06
2.94524e-06
1.76493e-16
1.43369e-16
9.81747e-07
-1.66456e-16
1.37445e-06
-4.1912e-15
1.76715e-06
-6.3495e-15
2.15984e-06
8.05464e-16
2.55254e-06
2.94524e-06
-8.3958e-16
-2.16885e-17
9.81747e-07
3.21699e-16
1.37445e-06
1.14882e-15
1.76715e-06
5.28556e-15
2.15984e-06
3.76517e-16
2.55254e-06
2.94524e-06
5.63958e-15
-2.53992e-16
9.81747e-07
-2.55478e-16
1.37445e-06
-2.06605e-15
1.76715e-06
-4.5042e-15
2.15984e-06
2.30984e-15
2.55254e-06
2.94524e-06
-5.40987e-16
1.80087e-16
9.81747e-07
-4.34739e-18
1.37445e-06
1.84771e-15
1.76715e-06
3.8861e-15
2.15984e-06
-3.15714e-15
2.55254e-06
2.94524e-06
-4.98178e-16
4.83583e-17
9.81747e-07
-3.95199e-17
1.37445e-06
-1.94386e-16
1.76715e-06
1.80598e-15
2.15984e-06
4.20832e-15
2.55254e-06
2.94524e-06
-5.01345e-15
-8.6992e-17
9.81747e-07
1.01862e-16
1.37445e-06
-2.69322e-15
1.76715e-06
-7.44296e-15
2.15984e-06
-3.25996e-15
2.55254e-06
2.94524e-06
2.79784e-15
1.16434e-16
9.81747e-07
-1.8643e-16
1.37445e-06
1.56231e-15
1.76715e-06
4.21239e-15
2.15984e-06
7.49831e-15
2.55254e-06
2.94524e-06
-7.72339e-16
-1.86945e-18
9.81747e-07
3.88765e-16
1.37445e-06
2.6041e-15
1.76715e-06
-1.9438e-15
2.15984e-06
-8.06635e-15
2.55254e-06
2.94524e-06
9.02972e-15
-1.36985e-16
-2.42137e-16
-3.77002e-16
1.33912e-15
3.6814e-15
-5.9515e-15
-1.13364e-14
4.53785e-06
-4.81453e-16
5.23599e-06
-5.35749e-15
5.93412e-06
-1.1304e-14
6.63225e-06
4.86853e-15
7.33038e-06
-1.11034e-15
8.02851e-06
-8.15875e-15
8.72664e-06
1.30419e-14
9.42478e-06
5.94792e-15
1.01229e-05
-1.99755e-15
1.0821e-05
2.43849e-14
1.15192e-05
1.61881e-14
1.22173e-05
-3.27885e-14
1.29154e-05
-3.05267e-15
1.36136e-05
-1.44451e-14
1.43117e-05
-2.69059e-14
1.50098e-05
7.73747e-15
1.5708e-05
-4.44137e-15
1.64061e-05
-1.8006e-14
1.71042e-05
2.18185e-14
1.78024e-05
8.21235e-15
1.85005e-05
-6.08708e-15
1.91986e-05
3.8918e-14
1.98967e-05
2.05949e-05
9.39892e-15
4.53785e-06
5.1986e-16
5.23599e-06
7.52784e-15
5.93412e-06
-4.41251e-15
6.63225e-06
3.78291e-15
7.33038e-06
1.33845e-14
8.02851e-06
-2.11063e-15
8.72664e-06
8.52729e-15
9.42478e-06
-1.00275e-14
1.01229e-05
1.86569e-15
1.0821e-05
-2.02048e-14
1.15192e-05
-7.01388e-15
1.22173e-05
7.50815e-15
1.29154e-05
2.36066e-14
1.36136e-05
-2.04306e-15
1.43117e-05
1.48299e-14
1.50098e-05
-1.38823e-14
1.5708e-05
2.38688e-15
1.64061e-05
2.04054e-14
1.71042e-05
-7.02317e-15
1.78024e-05
1.20651e-14
1.85005e-05
-2.59467e-14
1.91986e-05
1.84325e-15
1.98967e-05
2.05949e-05
-8.67631e-15
4.53785e-06
1.2292e-14
5.23599e-06
1.88282e-15
5.93412e-06
8.90164e-15
6.63225e-06
-5.10848e-15
7.33038e-06
-2.19919e-14
8.02851e-06
1.22632e-14
8.72664e-06
-5.37461e-15
9.42478e-06
4.45579e-15
1.01229e-05
-1.43061e-14
1.0821e-05
-7.32818e-15
1.15192e-05
7.03923e-15
1.22173e-05
2.39937e-14
1.29154e-05
-7.55652e-15
1.36136e-05
9.79354e-15
1.43117e-05
-1.62399e-14
1.50098e-05
4.02869e-14
1.5708e-05
1.44424e-14
1.64061e-05
-1.37093e-14
1.71042e-05
-7.90123e-15
1.78024e-05
-3.92525e-14
1.85005e-05
4.27441e-14
1.91986e-05
-8.85387e-15
1.98967e-05
2.05949e-05
5.98528e-15
4.53785e-06
2.18556e-16
5.23599e-06
-6.43565e-15
5.93412e-06
6.06343e-15
6.63225e-06
-2.09376e-15
7.33038e-06
1.61762e-14
8.02851e-06
-1.88323e-14
8.72664e-06
-2.35328e-15
9.42478e-06
9.17059e-15
1.01229e-05
-4.71158e-15
1.0821e-05
2.16255e-14
1.15192e-05
-2.9645e-14
1.22173e-05
-9.29133e-15
1.29154e-05
-1.89102e-14
1.36136e-05
4.46311e-15
1.43117e-05
3.0153e-14
1.50098e-05
-2.62191e-14
1.5708e-05
4.36251e-16
1.64061e-05
-2.11762e-14
1.71042e-05
1.87121e-14
1.78024e-05
-3.92153e-15
1.85005e-05
-2.91659e-14
1.91986e-05
1.52291e-14
1.98967e-05
2.05949e-05
6.71447e-15
4.53785e-06
-7.30705e-15
5.23599e-06
1.11007e-14
5.93412e-06
-4.24181e-15
6.63225e-06
1.51011e-14
7.33038e-06
-5.20974e-15
8.02851e-06
1.70117e-14
8.72664e-06
-3.94253e-15
9.42478e-06
-2.9543e-16
1.01229e-05
6.60974e-15
1.0821e-05
1.3704e-14
1.15192e-05
1.0182e-14
1.22173e-05
1.82169e-14
1.29154e-05
1.43672e-14
1.36136e-05
2.3337e-14
1.43117e-05
-2.53453e-14
1.50098e-05
2.90708e-14
1.5708e-05
-7.82942e-15
1.64061e-05
3.54165e-14
1.71042e-05
-4.51525e-15
1.78024e-05
4.2366e-14
1.85005e-05
-5.86867e-16
1.91986e-05
-8.73631e-15
1.98967e-05
2.05949e-05
-4.63097e-15
4.53785e-06
5.79745e-15
5.23599e-06
-1.61509e-14
5.93412e-06
-5.97506e-15
6.63225e-06
-8.55561e-15
7.33038e-06
4.22428e-15
8.02851e-06
-8.18769e-15
8.72664e-06
6.9987e-15
9.42478e-06
-2.42301e-14
1.01229e-05
-7.77138e-15
1.0821e-05
-2.27672e-14
1.15192e-05
8.34779e-15
1.22173e-05
-7.40702e-15
1.29154e-05
2.82635e-14
1.36136e-05
-4.57104e-14
1.43117e-05
-8.22516e-15
1.50098e-05
-2.82281e-14
1.5708e-05
-2.34362e-15
1.64061e-05
-6.94806e-15
1.71042e-05
2.21436e-14
1.78024e-05
-3.41096e-14
1.85005e-05
-3.74545e-15
1.91986e-05
-3.23521e-14
1.98967e-05
2.05949e-05
-8.92526e-15
4.53785e-06
-2.28919e-15
5.23599e-06
-2.2245e-15
5.93412e-06
6.61585e-15
6.63225e-06
-3.38936e-15
7.33038e-06
-3.90727e-15
8.02851e-06
-6.41986e-15
8.72664e-06
-7.1591e-15
9.42478e-06
6.80984e-15
1.01229e-05
6.98128e-15
1.0821e-05
-9.06571e-15
1.15192e-05
6.75625e-15
1.22173e-05
-2.88889e-14
1.29154e-05
-1.22348e-14
1.36136e-05
4.80224e-15
1.43117e-05
2.50231e-14
1.50098e-05
3.86239e-15
1.5708e-05
3.60524e-15
1.64061e-05
-2.04866e-14
1.71042e-05
-2.1764e-14
1.78024e-05
3.46293e-15
1.85005e-05
2.90371e-14
1.91986e-05
-1.66762e-15
1.98967e-05
2.05949e-05
6.21562e-15
4.53785e-06
-3.87964e-15
5.23599e-06
1.54219e-14
5.93412e-06
-7.06441e-15
6.63225e-06
-2.21173e-15
7.33038e-06
1.42832e-15
8.02851e-06
-5.49352e-15
8.72664e-06
1.3225e-14
9.42478e-06
6.04524e-15
1.01229e-05
-1.74527e-14
1.0821e-05
2.08859e-14
1.15192e-05
-2.14469e-14
1.22173e-05
1.91339e-14
1.29154e-05
-7.31656e-15
1.36136e-05
3.84828e-14
1.43117e-05
-1.29254e-14
1.50098e-05
-1.88567e-15
1.5708e-05
5.71327e-15
1.64061e-05
-7.5881e-15
1.71042e-05
2.76529e-14
1.78024e-05
1.40883e-14
1.85005e-05
-5.31465e-14
1.91986e-05
3.90792e-14
1.98967e-05
2.05949e-05
-1.49907e-15
4.53785e-06
1.08968e-14
5.23599e-06
-6.59956e-15
5.93412e-06
7.2656e-15
6.63225e-06
6.17405e-15
7.33038e-06
2.48735e-15
8.02851e-06
-9.65316e-16
8.72664e-06
-4.36666e-15
9.42478e-06
-8.90233e-15
1.01229e-05
1.38629e-14
1.0821e-05
1.06889e-14
1.15192e-05
6.24913e-15
1.22173e-05
-1.27273e-16
1.29154e-05
-3.44114e-15
1.36136e-05
-1.10446e-14
1.43117e-05
-1.77681e-14
1.50098e-05
1.76785e-14
1.5708e-05
9.94939e-15
1.64061e-05
3.32731e-15
1.71042e-05
-3.29736e-14
1.78024e-05
-1.04284e-14
1.85005e-05
3.00603e-14
1.91986e-05
-6.00013e-14
1.98967e-05
2.05949e-05
5.17e-15
4.53785e-06
-7.45556e-15
5.23599e-06
-7.56957e-16
5.93412e-06
6.83947e-15
6.63225e-06
-9.97517e-15
7.33038e-06
-1.66575e-15
8.02851e-06
9.2183e-15
8.72664e-06
-1.346e-14
9.42478e-06
2.32197e-14
1.01229e-05
1.04716e-14
1.0821e-05
-1.72729e-14
1.15192e-05
-3.02783e-15
1.22173e-05
1.13968e-14
1.29154e-05
-1.9819e-14
1.36136e-05
-4.68169e-15
1.43117e-05
5.03065e-14
1.50098e-05
-2.40475e-14
1.5708e-05
-6.66301e-15
1.64061e-05
1.42578e-14
1.71042e-05
1.64652e-15
1.78024e-05
-6.8191e-15
1.85005e-05
1.44387e-14
1.91986e-05
5.07531e-14
1.98967e-05
2.05949e-05
-6.19742e-15
4.53785e-06
2.83322e-17
5.23599e-06
1.15111e-14
5.93412e-06
-2.06264e-14
6.63225e-06
5.36576e-15
7.33038e-06
1.22085e-15
8.02851e-06
-4.80348e-17
8.72664e-06
1.23928e-14
9.42478e-06
-1.32283e-14
1.01229e-05
-1.88962e-14
1.0821e-05
-4.9651e-15
1.15192e-05
-7.15628e-15
1.22173e-05
-1.489e-14
1.29154e-05
3.5338e-14
1.36136e-05
-5.2805e-18
1.43117e-05
-4.31393e-14
1.50098e-05
1.35596e-14
1.5708e-05
-2.82602e-14
1.64061e-05
2.44792e-15
1.71042e-05
-1.02432e-14
1.78024e-05
2.37984e-14
1.85005e-05
1.38761e-14
1.91986e-05
-4.5565e-14
1.98967e-05
2.05949e-05
-1.90702e-15
4.53785e-06
1.13044e-15
5.23599e-06
-2.16625e-14
5.93412e-06
9.62267e-15
6.63225e-06
1.51365e-14
7.33038e-06
-1.40659e-14
8.02851e-06
8.09172e-15
8.72664e-06
-2.69613e-14
9.42478e-06
-1.96791e-15
1.01229e-05
2.97164e-14
1.0821e-05
-1.17477e-14
1.15192e-05
1.98665e-14
1.22173e-05
-2.74467e-14
1.29154e-05
-2.06194e-14
1.36136e-05
1.604e-14
1.43117e-05
-4.61511e-15
1.50098e-05
4.68927e-15
1.5708e-05
4.79639e-14
1.64061e-05
-1.37477e-14
1.71042e-05
3.23669e-14
1.78024e-05
-3.51899e-14
1.85005e-05
-2.49099e-14
1.91986e-05
7.19138e-14
1.98967e-05
2.05949e-05
1.90646e-15
4.53785e-06
-1.13075e-15
5.23599e-06
2.16609e-14
5.93412e-06
-9.62457e-15
6.63225e-06
-1.51382e-14
7.33038e-06
1.40642e-14
8.02851e-06
-8.09328e-15
8.72664e-06
2.69575e-14
9.42478e-06
1.96451e-15
1.01229e-05
-2.97187e-14
1.0821e-05
1.17442e-14
1.15192e-05
-1.98676e-14
1.22173e-05
2.74435e-14
1.29154e-05
2.06118e-14
1.36136e-05
-1.60435e-14
1.43117e-05
4.61176e-15
1.50098e-05
-4.69594e-15
1.5708e-05
-4.79723e-14
1.64061e-05
1.37311e-14
1.71042e-05
-3.23731e-14
1.78024e-05
3.51824e-14
1.85005e-05
2.48974e-14
1.91986e-05
-7.19235e-14
1.98967e-05
2.05949e-05
6.19696e-15
4.53785e-06
-2.91064e-17
5.23599e-06
-1.15122e-14
5.93412e-06
2.06257e-14
6.63225e-06
-5.36788e-15
7.33038e-06
-1.22333e-15
8.02851e-06
4.63931e-17
8.72664e-06
-1.23939e-14
9.42478e-06
1.3225e-14
1.01229e-05
1.88942e-14
1.0821e-05
4.96251e-15
1.15192e-05
7.15334e-15
1.22173e-05
1.48864e-14
1.29154e-05
-3.53411e-14
1.36136e-05
-2.22232e-18
1.43117e-05
4.31348e-14
1.50098e-05
-1.3565e-14
1.5708e-05
2.82516e-14
1.64061e-05
-2.45982e-15
1.71042e-05
1.02388e-14
1.78024e-05
-2.38093e-14
1.85005e-05
-1.38814e-14
1.91986e-05
4.5556e-14
1.98967e-05
2.05949e-05
-5.17043e-15
4.53785e-06
7.45519e-15
5.23599e-06
7.56333e-16
5.93412e-06
-6.84036e-15
6.63225e-06
9.97309e-15
7.33038e-06
1.66375e-15
8.02851e-06
-9.21984e-15
8.72664e-06
1.34582e-14
9.42478e-06
-2.3223e-14
1.01229e-05
-1.04734e-14
1.0821e-05
1.72707e-14
1.15192e-05
3.02533e-15
1.22173e-05
-1.13999e-14
1.29154e-05
1.98142e-14
1.36136e-05
4.67708e-15
1.43117e-05
-5.03088e-14
1.50098e-05
2.40457e-14
1.5708e-05
6.655e-15