/*--------------------------------*- C++ -*----------------------------------*\
  =========                 |
  \\      /  F ield         | OpenFOAM: The Open Source CFD Toolbox
   \\    /   O peration     | Website:  https://openfoam.org
    \\  /    A nd           | Version:  11
     \\/     M anipulation  |
\*---------------------------------------------------------------------------*/
FoamFile
{
    format      ascii;
    class       volScalarField;
    location    "0.92";
    object      p;
}
// * * * * * * * * * * * * * * * * * * * * * * * * * * * * * * * * * * * * * //

dimensions      [0 2 -2 0 0 0 0];

internalField   nonuniform List<scalar> 
2880
(
1.1077
1.10114
1.11466
1.15019
1.17513
1.37906
1.10974
1.10396
1.11418
1.13804
1.14912
1.27013
1.1113
1.10803
1.11474
1.13087
1.12727
1.1784
1.11153
1.11009
1.11394
1.12367
1.11036
1.1169
1.11087
1.11
1.11141
1.11528
1.09676
1.08202
1.10968
1.10873
1.10788
1.10669
1.08551
1.06208
1.10803
1.10698
1.10391
1.09867
1.07599
1.04908
1.10602
1.10509
1.09984
1.09139
1.06771
1.0394
1.1038
1.10326
1.09589
1.0848
1.06026
1.03142
1.10162
1.10165
1.09223
1.0788
1.05334
1.02407
1.09964
1.10039
1.08897
1.07334
1.04666
1.01664
1.09804
1.09958
1.08621
1.06838
1.04005
1.00862
1.09691
1.09927
1.084
1.06394
1.03335
0.999615
1.09629
1.09947
1.08237
1.06003
1.02643
0.989326
1.09618
1.10011
1.08131
1.05667
1.01927
0.977569
1.0965
1.10107
1.08076
1.05391
1.01197
0.964283
1.09711
1.10212
1.08063
1.05184
1.00472
0.949487
1.09787
1.10304
1.08082
1.05067
0.997832
0.932662
1.09858
1.1036
1.08129
1.05075
0.991946
0.914846
1.09909
1.10378
1.08229
1.05282
0.987945
0.896968
1.09935
1.10407
1.08472
1.05828
0.987239
0.881272
1.09962
1.10557
1.08982
1.06843
0.992625
0.87494
1.1005
1.10866
1.097
1.08063
1.00892
0.895339
1.1017
1.11109
1.10101
1.08489
1.0424
0.954572
0.631262
0.652352
0.631029
0.62237
0.605122
0.585072
0.564978
0.546997
0.531801
0.519282
0.508921
0.500297
0.493212
0.487515
0.483012
0.479464
0.476633
0.474333
0.472389
0.47061
0.469264
0.4701
0.474619
0.472598
0.754979
0.735692
0.692148
0.668849
0.642467
0.616036
0.591283
0.569831
0.552022
0.537493
0.525554
0.515685
0.507625
0.501177
0.496104
0.492123
0.488956
0.486387
0.484242
0.482365
0.480984
0.481446
0.484734
0.482987
0.836686
0.7984
0.743035
0.709313
0.675802
0.644021
0.615208
0.590643
0.570446
0.554051
0.540631
0.529586
0.520603
0.513439
0.507821
0.503423
0.49993
0.497099
0.494758
0.492778
0.491329
0.491378
0.49361
0.492393
0.888795
0.842432
0.783167
0.742942
0.70435
0.668387
0.636228
0.609001
0.586714
0.568656
0.553896
0.541781
0.531949
0.524124
0.517998
0.513211
0.509412
0.506336
0.503812
0.501738
0.500228
0.499934
0.501278
0.500443
0.922531
0.873141
0.813993
0.769933
0.727903
0.688821
0.654015
0.6246
0.600555
0.581069
0.565137
0.552074
0.541488
0.533069
0.526483
0.521339
0.51726
0.513959
0.511268
0.509103
0.507536
0.506955
0.507576
0.507054
0.94431
0.894591
0.837058
0.790838
0.746571
0.705253
0.668438
0.637293
0.611817
0.59114
0.574211
0.560331
0.549083
0.540138
0.533139
0.527676
0.523345
0.519844
0.517003
0.514752
0.513127
0.512319
0.512394
0.512112
0.958197
0.909245
0.853627
0.806258
0.760615
0.717784
0.679512
0.647047
0.620439
0.59879
0.581029
0.566454
0.554635
0.545229
0.537863
0.532113
0.527557
0.523881
0.520909
0.518578
0.516896
0.515921
0.515637
0.515525
0.96639
0.918481
0.864649
0.816747
0.77035
0.726556
0.687259
0.653806
0.626319
0.603898
0.585465
0.57032
0.558028
0.548231
0.54055
0.53455
0.529802
0.525977
0.522895
0.520492
0.518756
0.517679
0.517225
0.517214
0.970058
0.923135
0.87081
0.822741
0.775994
0.731615
0.691615
0.657445
0.629301
0.606299
0.587359
0.571786
0.55913
0.549028
0.541094
0.534891
0.529988
0.526048
0.522879
0.520406
0.518611
0.517518
0.517126
0.5171
0.969897
0.923698
0.872547
0.824482
0.777625
0.732941
0.692519
0.657883
0.629301
0.60591
0.586632
0.570772
0.55787
0.547553
0.539433
0.53308
0.528062
0.52404
0.52081
0.518277
0.516429
0.515385
0.515247
0.515146
0.966279
0.9204
0.870059
0.82206
0.77527
0.730543
0.68997
0.655114
0.626303
0.602707
0.583257
0.567249
0.554213
0.54377
0.535533
0.52908
0.523989
0.51992
0.516655
0.514072
0.512175
0.511249
0.51156
0.511304
0.959306
0.913251
0.863346
0.815464
0.768922
0.724412
0.683949
0.649109
0.62027
0.59665
0.577189
0.561173
0.548122
0.537647
0.529368
0.522873
0.517754
0.513675
0.510402
0.507781
0.505841
0.505097
0.506041
0.505553
0.948821
0.902048
0.852226
0.804548
0.758457
0.71444
0.674363
0.639788
0.611136
0.587681
0.568382
0.552508
0.539568
0.529167
0.520929
0.514458
0.509362
0.505312
0.502061
0.499418
0.497442
0.496938
0.498684
0.497894
0.934415
0.886345
0.836327
0.789015
0.743638
0.700442
0.661073
0.627047
0.598824
0.575747
0.556797
0.54123
0.528539
0.518328
0.510226
0.503852
0.498837
0.494862
0.491665
0.489018
0.487018
0.486808
0.489502
0.488347
0.915386
0.865424
0.815072
0.768412
0.724126
0.682165
0.643896
0.610762
0.583252
0.560795
0.542408
0.527328
0.515039
0.505145
0.497284
0.491093
0.486223
0.482373
0.479269
0.476643
0.474636
0.474772
0.478546
0.476955
0.89062
0.838249
0.787629
0.742113
0.699475
0.659296
0.622619
0.590794
0.564339
0.542783
0.525197
0.510806
0.499089
0.489654
0.48215
0.476234
0.471585
0.467917
0.464951
0.462379
0.460385
0.460911
0.465879
0.463806
0.858509
0.80341
0.752873
0.709312
0.669135
0.631463
0.596998
0.566995
0.542007
0.521682
0.50517
0.491692
0.480734
0.47191
0.464889
0.459352
0.455002
0.451578
0.448795
0.446308
0.444333
0.445227
0.451472
0.449093
0.817192
0.759039
0.709355
0.669024
0.632468
0.598259
0.566786
0.539226
0.516198
0.497491
0.482356
0.470041
0.460043
0.451999
0.445596
0.440546
0.43658
0.433463
0.430912
0.428541
0.426586
0.427818
0.435361
0.432803
0.763182
0.702426
0.655263
0.620109
0.588789
0.55928
0.531754
0.507378
0.486889
0.47024
0.456824
0.445942
0.437125
0.430036
0.424397
0.419949
0.416458
0.413716
0.411449
0.409237
0.407324
0.408881
0.417711
0.415037
0.692945
0.629718
0.588418
0.561349
0.537434
0.51418
0.491746
0.471412
0.454113
0.440017
0.428687
0.41953
0.412126
0.406181
0.401454
0.397728
0.394806
0.392514
0.39059
0.388587
0.386755
0.388634
0.398699
0.395949
0.600855
0.536933
0.506467
0.491592
0.477875
0.462757
0.446732
0.431399
0.417998
0.406978
0.398125
0.390997
0.385244
0.380632
0.376971
0.374088
0.371832
0.370065
0.368546
0.366809
0.36511
0.367315
0.378529
0.375723
0.475295
0.418246
0.406929
0.410018
0.409866
0.405053
0.396879
0.387559
0.378789
0.371378
0.365397
0.360597
0.356731
0.353638
0.351192
0.349273
0.347777
0.34661
0.345558
0.344149
0.342642
0.345182
0.357429
0.354591
0.277025
0.265294
0.287752
0.316479
0.333628
0.34148
0.342628
0.340309
0.336873
0.333579
0.330844
0.328653
0.326893
0.325494
0.324403
0.323561
0.322918
0.322424
0.321899
0.320879
0.319629
0.32251
0.335646
0.332817
-0.0412877
0.0828726
0.152579
0.21048
0.250155
0.273
0.28477
0.290302
0.292796
0.294056
0.294892
0.295555
0.29609
0.296539
0.296928
0.297268
0.297561
0.297808
0.297867
0.297294
0.296363
0.299584
0.313444
0.310696
-0.843868
-0.900162
-0.995051
-1.02882
-1.04143
-1.10432
-0.856356
-0.912756
-1.00287
-1.04068
-1.04052
-1.06715
-0.868325
-0.925838
-1.01408
-1.05594
-1.04744
-1.05722
-0.881162
-0.939835
-1.02884
-1.07359
-1.0634
-1.06615
-0.896493
-0.955116
-1.04553
-1.09221
-1.08586
-1.08428
-0.913095
-0.970994
-1.0621
-1.11073
-1.11074
-1.10741
-0.928938
-0.986903
-1.07739
-1.12774
-1.13397
-1.13067
-0.942944
-1.002
-1.09031
-1.14202
-1.15341
-1.14952
-0.954702
-1.01457
-1.10024
-1.15266
-1.16769
-1.16214
-0.963403
-1.02377
-1.10676
-1.15897
-1.17587
-1.16749
-0.968429
-1.02913
-1.10961
-1.16052
-1.17733
-1.16481
-0.969356
-1.03047
-1.10865
-1.15708
-1.1718
-1.15383
-0.966029
-1.0278
-1.10383
-1.14873
-1.15941
-1.13481
-0.958495
-1.0217
-1.09536
-1.13579
-1.14101
-1.10821
-0.947312
-1.01257
-1.0836
-1.11882
-1.11718
-1.07507
-0.933334
-1.00088
-1.06902
-1.09859
-1.08921
-1.03731
-0.917618
-0.987312
-1.05222
-1.07603
-1.05865
-0.996887
-0.90131
-0.972706
-1.03393
-1.05216
-1.02722
-0.956098
-0.885535
-0.958071
-1.01495
-1.02797
-0.996765
-0.917723
-0.871401
-0.94458
-0.996316
-1.00446
-0.969104
-0.884803
-0.860057
-0.933921
-0.979624
-0.982654
-0.945204
-0.859212
-0.85307
-0.927467
-0.966969
-0.963084
-0.923604
-0.839638
-0.85245
-0.923428
-0.957493
-0.940822
-0.901144
-0.828372
-0.856843
-0.914377
-0.932557
-0.908888
-0.884975
-0.856044
-0.519203
-0.132736
0.00206174
0.0981369
0.162332
0.201343
0.224528
0.238452
0.247277
0.2534
0.258047
0.261746
0.264726
0.267146
0.269122
0.270732
0.272038
0.273087
0.273783
0.273711
0.273155
0.276702
0.2911
0.288545
-0.714403
-0.342781
-0.146443
-0.0126631
0.07425
0.128897
0.163488
0.185888
0.201167
0.212289
0.220871
0.227714
0.233234
0.237714
0.241358
0.244313
0.246697
0.248605
0.249985
0.250464
0.25033
0.254172
0.268903
0.266708
-0.802474
-0.499197
-0.274274
-0.115192
-0.0101922
0.0581086
0.103332
0.133792
0.155367
0.171437
0.18395
0.193956
0.202053
0.208641
0.214012
0.218373
0.221895
0.224715
0.226826
0.227901
0.228227
0.232308
0.247146
0.245564
-0.872924
-0.613687
-0.37959
-0.206595
-0.088772
-0.00887644
0.0455903
0.083202
0.110726
0.131534
0.147851
0.160954
0.171603
0.180311
0.187442
0.193261
0.19798
0.201773
0.204671
0.206394
0.207209
0.211434
0.226107
0.225546
-0.936664
-0.70223
-0.466879
-0.286733
-0.160123
-0.0710664
-0.00835721
0.0348034
0.0679968
0.0932017
0.113084
0.129134
0.142255
0.153055
0.16196
0.169284
0.175271
0.180118
0.183892
0.186349
0.187695
0.191902
0.206008
0.207187
-0.988714
-0.7717
-0.539474
-0.356065
-0.223689
-0.12767
-0.0589887
-0.00942272
0.0280174
0.0569797
0.0800746
0.0988441
0.114297
0.127119
0.137791
0.146663
0.154005
0.160033
0.164839
0.168226
0.170257
0.174199
0.186912
0.19127
-1.02812
-0.825125
-0.598749
-0.415093
-0.278968
-0.177827
-0.104426
-0.0502372
-0.00900971
0.0232433
0.0491357
0.0703286
0.0879143
0.102636
0.115021
0.12546
0.134251
0.141635
0.147756
0.152517
0.155822
0.159655
0.169754
0.179825
-1.05667
-0.864672
-0.645594
-0.463929
-0.32531
-0.221433
-0.144539
-0.0869422
-0.0426803
-0.00775032
0.0204835
0.0437481
0.0631933
0.0796108
0.0935705
0.105501
0.115737
0.124558
0.132159
0.138524
0.143572
0.148871
0.158812
0.164456
-1.07505
-0.891656
-0.680607
-0.502344
-0.362961
-0.258425
-0.179107
-0.119169
-0.0727055
-0.0357568
-0.00569943
0.0192135
0.0401626
0.0579679
0.0732211
0.0863643
0.0977391
0.107607
0.116097
0.123084
0.128612
0.13506
0.146135
0.139222
-1.0831
-0.906668
-0.704095
-0.530429
-0.392661
-0.28825
-0.207966
-0.146745
-0.0988939
-0.0605916
-0.0292644
-0.00317314
0.0188679
0.0376827
0.0538583
0.0678213
0.0798863
0.0902732
0.0990512
0.106057
0.111494
0.118153
0.129203
0.11857
-1.08053
-0.909983
-0.716251
-0.548584
-0.414397
-0.310573
-0.231217
-0.169615
-0.121123
-0.08212
-0.0500797
-0.0232886
-0.000575856
0.0188699
0.0356187
0.0500747
0.062526
0.0731709
0.0820755
0.0891221
0.0946336
0.101456
0.112404
0.101729
-1.06734
-0.901876
-0.717366
-0.557115
-0.42801
-0.32601
-0.248732
-0.187665
-0.139306
-0.100242
-0.0680276
-0.0409989
-0.0180172
0.00170668
0.0187225
0.0334144
0.0460547
0.0568374
0.0658519
0.0730497
0.0788381
0.0859315
0.0968336
0.0872438
-1.04391
-0.882825
-0.707882
-0.556085
-0.433493
-0.335547
-0.260261
-0.200861
-0.15343
-0.114906
-0.0830178
-0.0561814
-0.0333021
-0.013619
0.00339726
0.0181158
0.0308007
0.0416494
0.0507779
0.0582035
0.0643686
0.0717781
0.0827186
0.0747314
-1.0111
-0.853576
-0.688497
-0.546127
-0.431064
-0.339029
-0.266365
-0.209415
-0.163571
-0.126119
-0.0950053
-0.0687449
-0.0462977
-0.026936
-0.0101501
0.004418
0.0170277
0.0278792
0.0371099
0.0447895
0.0513496
0.059082
0.0701431
0.0640249
-0.970554
-0.815468
-0.66014
-0.528059
-0.421413
-0.336077
-0.267613
-0.213562
-0.169851
-0.133947
-0.103998
-0.078643
-0.0569105
-0.0381107
-0.0217546
-0.00749401
0.00492653
0.0157069
0.0249979
0.0328996
0.0398197
0.0478516
0.0590847
0.054957
-0.923639
-0.770545
-0.624339
-0.502948
-0.40543
-0.327234
-0.264157
-0.213628
-0.172496
-0.138526
-0.110066
-0.0858879
-0.0651004
-0.0470606
-0.0313039
-0.0174926
-0.00537608
0.0052428
0.0145199
0.022564
0.0297634
0.038039
0.0494548
0.0473381
-0.871893
-0.720892
-0.583228
-0.472333
-0.384267
-0.313592
-0.256336
-0.209893
-0.171761
-0.140053
-0.113343
-0.0905525
-0.0708871
-0.0537609
-0.0387401
-0.0255019
-0.0138024
-0.00344946
0.00571064
0.013787
0.0211468
0.0295592
0.0410965
0.0409318
-0.816752
-0.668147
-0.538924
-0.438119
-0.35933
-0.296239
-0.244919
-0.202871
-0.168026
-0.138814
-0.114036
-0.09278
-0.0743574
-0.0582498
-0.0440631
-0.031495
-0.0203121
-0.0103293
-0.00140053
0.00658736
0.0139644
0.0223499
0.0338421
0.0354784
-0.760108
-0.613183
-0.493003
-0.402083
-0.332134
-0.27636
-0.230854
-0.193252
-0.161798
-0.135187
-0.112434
-0.0927864
-0.075667
-0.0606317
-0.0473334
-0.0354978
-0.0249071
-0.0153878
-0.00680448
0.000956633
0.00818144
0.0163194
0.0275014
0.0307287
-0.703608
-0.556788
-0.446561
-0.365609
-0.304109
-0.25521
-0.21518
-0.181842
-0.153691
-0.129646
-0.108905
-0.0908588
-0.0750386
-0.061075
-0.048673
-0.0375917
-0.0276351
-0.0186475
-0.0105065
-0.00310536
0.00380318
0.0114436
0.0219203
0.0264193
-0.648829
-0.499766
-0.40063
-0.329825
-0.27649
-0.233977
-0.198944
-0.169505
-0.144402
-0.122747
-0.103892
-0.0873542
-0.0727588
-0.0598086
-0.0482605
-0.0379103
-0.0285857
-0.0201556
-0.0125218
-0.00556789
0.000904701
0.0078304
0.0171273
0.0223885
-0.597864
-0.443008
-0.356541
-0.295987
-0.250426
-0.213746
-0.183141
-0.157116
-0.134677
-0.115114
-0.0979134
-0.0826979
-0.0691774
-0.0571197
-0.0463306
-0.0366378
-0.0278996
-0.0200457
-0.0129859
-0.00652501
-0.000528015
0.00556583
0.0132297
0.0185629
-0.551428
-0.386616
-0.315478
-0.265365
-0.227107
-0.195562
-0.16872
-0.145548
-0.125299
-0.107432
-0.0915567
-0.0773876
-0.0647108
-0.0533575
-0.0431887
-0.034081
-0.0259158
-0.0185835
-0.011998
-0.00610928
-0.000701372
0.004619
0.0104962
0.0151066
-0.500268
-0.328619
-0.278385
-0.239182
-0.207465
-0.180319
-0.15659
-0.135681
-0.117103
-0.100476
-0.0855201
-0.0720368
-0.0598816
-0.0489475
-0.0391502
-0.0304203
-0.0226746
-0.0157963
-0.00969371
-0.00432717
0.000289283
0.00449893
0.00863582
0.0127605
-0.219859
-0.208417
-0.199043
-0.184805
-0.178866
-0.154565
-0.219944
-0.209331
-0.201117
-0.189164
-0.185222
-0.169725
-0.220278
-0.210766
-0.204255
-0.194641
-0.193737
-0.18544
-0.220989
-0.212387
-0.207441
-0.199751
-0.199971
-0.195716
-0.221885
-0.214164
-0.210417
-0.20415
-0.204204
-0.201365
-0.222968
-0.216079
-0.213336
-0.208092
-0.207495
-0.204762
-0.224335
-0.218282
-0.21636
-0.211865
-0.210485
-0.207105
-0.226085
-0.220884
-0.219608
-0.215697
-0.213411
-0.209289
-0.227948
-0.224001
-0.223123
-0.21968
-0.216583
-0.211538
-0.229858
-0.227402
-0.226861
-0.223902
-0.220158
-0.214132
-0.231822
-0.23085
-0.230757
-0.22843
-0.224255
-0.217312
-0.233781
-0.234188
-0.234754
-0.233307
-0.228982
-0.221318
-0.235693
-0.237337
-0.238806
-0.238571
-0.234442
-0.226406
-0.237515
-0.240231
-0.24287
-0.244248
-0.240726
-0.232824
-0.239202
-0.242794
-0.246904
-0.250354
-0.247899
-0.240833
-0.240707
-0.244944
-0.250866
-0.256885
-0.255996
-0.250734
-0.242023
-0.246729
-0.254717
-0.263806
-0.264999
-0.262884
-0.24324
-0.248656
-0.258425
-0.271058
-0.274762
-0.277753
-0.244489
-0.250667
-0.261906
-0.278549
-0.284835
-0.296118
-0.245647
-0.25242
-0.26506
-0.285874
-0.294582
-0.319009
-0.246482
-0.253658
-0.26747
-0.291863
-0.30471
-0.345711
-0.246318
-0.254113
-0.268676
-0.295732
-0.314843
-0.371909
-0.245233
-0.253901
-0.268694
-0.296502
-0.32285
-0.398749
-0.244631
-0.253781
-0.268708
-0.296566
-0.328133
-0.421628
-0.318761
-0.271657
-0.248009
-0.218895
-0.192368
-0.168688
-0.14741
-0.128257
-0.110916
-0.0951002
-0.0806526
-0.0674577
-0.0554381
-0.0445495
-0.0347669
-0.0260743
-0.0184536
-0.0118255
-0.0061303
-0.00133188
0.00256931
0.00583569
0.00818887
0.0111318
-0.272123
-0.248298
-0.229447
-0.205552
-0.18235
-0.161087
-0.141643
-0.123783
-0.107339
-0.0920648
-0.0778478
-0.0646282
-0.0523937
-0.0411716
-0.0310122
-0.02197
-0.0141023
-0.00741323
-0.00188027
0.00255722
0.00573562
0.00805386
0.00870159
0.00983551
-0.252466
-0.234997
-0.218698
-0.1976
-0.176554
-0.157011
-0.138986
-0.122248
-0.106557
-0.0917383
-0.0776855
-0.0643498
-0.0517549
-0.0399884
-0.0291801
-0.0194771
-0.0110277
-0.00393486
0.00172268
0.00593631
0.00860126
0.0101452
0.00964345
0.00854831
-0.238056
-0.224948
-0.211128
-0.192208
-0.172924
-0.154859
-0.138083
-0.122432
-0.107631
-0.0934731
-0.0797985
-0.0665852
-0.0538917
-0.0418476
-0.030629
-0.0204413
-0.011506
-0.00402174
0.00184633
0.00598233
0.00830848
0.00900335
0.00805225
0.00536899
-0.227387
-0.216541
-0.204196
-0.187045
-0.169279
-0.152469
-0.136847
-0.122256
-0.108479
-0.0952664
-0.0824157
-0.0698935
-0.0577517
-0.0461173
-0.0351692
-0.025116
-0.0161756
-0.00857454
-0.00252958
0.00175108
0.00406518
0.00426571
0.00205282
-0.00181633
-0.219781
-0.209254
-0.197182
-0.181035
-0.164279
-0.148303
-0.133467
-0.1197
-0.106806
-0.0945268
-0.0826856
-0.071206
-0.0600825
-0.0493802
-0.0392133
-0.029742
-0.0211441
-0.0136083
-0.00731126
-0.00262541
4.43649e-05
0.000126087
-0.00339345
-0.00807969
-0.214343
-0.202953
-0.190169
-0.174119
-0.15764
-0.141898
-0.127313
-0.113903
-0.101501
-0.0899117
-0.0789838
-0.0686009
-0.058728
-0.0493758
-0.0405535
-0.0323568
-0.024917
-0.0184142
-0.0130611
-0.00893036
-0.00628521
-0.00588922
-0.00818883
-0.00958196
-0.210235
-0.197753
-0.183404
-0.166651
-0.149721
-0.133661
-0.118884
-0.105468
-0.0933589
-0.0823948
-0.0723927
-0.0632917
-0.0551001
-0.047706
-0.0410379
-0.0351225
-0.0299136
-0.0253235
-0.0212263
-0.0174457
-0.0137317
-0.00947574
-0.00455888
0.000897422
-0.207561
-0.193378
-0.177041
-0.158976
-0.141036
-0.124179
-0.108806
-0.0950206
-0.0827845
-0.0720064
-0.0626154
-0.0545073
-0.0475307
-0.0416505
-0.0368529
-0.0329168
-0.0295767
-0.0264839
-0.0232117
-0.0192645
-0.0141056
-0.00704078
0.0031858
0.012401
-0.206198
-0.189835
-0.171136
-0.151217
-0.131704
-0.113491
-0.0970119
-0.0824045
-0.0696951
-0.0588759
-0.0499046
-0.0426917
-0.0371469
-0.0331795
-0.0306097
-0.0291398
-0.0283743
-0.0278208
-0.0268944
-0.0249498
-0.021319
-0.0151998
-0.00474495
0.00663567
-0.206012
-0.18717
-0.165696
-0.143463
-0.121976
-0.102141
-0.0844039
-0.068964
-0.055902
-0.0452222
-0.0368797
-0.030813
-0.0269282
-0.0250672
-0.0249858
-0.0263095
-0.028521
-0.0309682
-0.0328569
-0.0332803
-0.0311957
-0.0252347
-0.0145705
-0.000576159
-0.206954
-0.185365
-0.160718
-0.135789
-0.112022
-0.090387
-0.0713451
-0.0551126
-0.0417739
-0.0313344
-0.0237564
-0.0189215
-0.0167103
-0.0168697
-0.0190481
-0.0227652
-0.0273894
-0.0321634
-0.0361248
-0.0381126
-0.0369032
-0.0310943
-0.0197053
-0.0025479
-0.209017
-0.184375
-0.156187
-0.128267
-0.102022
-0.0785131
-0.0581817
-0.04123
-0.027723
-0.0176244
-0.0108164
-0.00718648
-0.00648357
-0.00837428
-0.0124018
-0.0179774
-0.024351
-0.0305702
-0.035518
-0.0379614
-0.0366864
-0.0302436
-0.0182323
0.000988462
-0.212199
-0.18417
-0.152082
-0.120955
-0.0921955
-0.0668407
-0.0453221
-0.0277778
-0.0142019
-0.00454545
0.00136208
0.00378913
0.00314127
-8.3171e-05
-0.0053198
-0.0118504
-0.0187931
-0.0251541
-0.0299317
-0.0319995
-0.0305011
-0.0239031
-0.0127334
0.00678132
-0.216489
-0.184688
-0.148343
-0.113922
-0.082712
-0.0556833
-0.0331859
-0.0153647
-0.00208934
0.00689824
0.0119183
0.0134369
0.0119792
0.00811654
0.00251122
-0.00403209
-0.0106618
-0.0165427
-0.0209359
-0.0225234
-0.0212448
-0.015889
-0.00780044
0.00976651
-0.221823
-0.185776
-0.14482
-0.107152
-0.0737147
-0.0454437
-0.0225213
-0.00475846
0.00811288
0.016534
0.0209665
0.0219462
0.0200795
0.0160744
0.0107344
0.00480064
-0.000789347
-0.0054499
-0.00928366
-0.0104727
-0.00683682
0.00110392
0.00873043
0.0186094
-0.228007
-0.1871
-0.141284
-0.100585
-0.0654889
-0.0364692
-0.0133801
0.0041644
0.0165806
0.0243926
0.0282779
0.0289672
0.0272257
0.0237414
0.0194298
0.0144714
0.0099049
0.00754525
0.00856497
0.0110018
0.0134581
0.0171228
0.0198856
0.0248237
-0.234583
-0.188165
-0.137388
-0.0941461
-0.0578952
-0.0285172
-0.00564076
0.0112935
0.0230523
0.0303844
0.0340892
0.0349984
0.0339133
0.0312165
0.0281726
0.0266594
0.0261738
0.0258769
0.0260762
0.0270483
0.0268324
0.0257883
0.0260113
0.0323808
-0.240628
-0.188354
-0.132671
-0.0874453
-0.0506579
-0.0215886
0.000605865
0.0168369
0.0280346
0.0351025
0.0388747
0.0402642
0.0402951
0.0405962
0.0408988
0.0406738
0.040493
0.0404162
0.0393429
0.0378313
0.0370573
0.0370098
0.0378618
0.0400354
-0.244584
-0.186748
-0.126826
-0.0802243
-0.0437154
-0.0154327
0.00584001
0.0213592
0.032227
0.0393617
0.0437735
0.0468535
0.0494646
0.0511117
0.0521741
0.0527167
0.0522019
0.0513726
0.0509289
0.0504692
0.0496828
0.0489552
0.0500824
0.047338
-0.244765
-0.182201
-0.119485
-0.0723859
-0.0367739
-0.00965847
0.0107289
0.0258425
0.0367609
0.0445213
0.0505656
0.0554373
0.0589755
0.0614962
0.0625433
0.0629286
0.0634803
0.0637408
0.0635522
0.0627481
0.0613773
0.0605341
0.0630062
0.0588719
-0.242527
-0.172094
-0.109651
-0.0636639
-0.0293983
-0.0034845
0.0163065
0.0313505
0.0427332
0.0517303
0.0589664
0.0647781
0.068584
0.070895
0.0729528
0.0745396
0.0755495
0.0759546
0.0757121
0.0748014
0.0735041
0.073697
0.0792179
0.0740442
-0.23445
-0.150905
-0.0953185
-0.053214
-0.020856
0.00402705
0.0234448
0.0386239
0.0507579
0.0605848
0.06839
0.0738593
0.078064
0.0815816
0.0842082
0.086159
0.0874323
0.0880334
0.0879989
0.0874262
0.0866775
0.0881666
0.0963939
0.0894642
-0.203789
-0.117339
-0.075695
-0.040079
-0.0103032
0.0135665
0.0326214
0.0479533
0.0603861
0.0703405
0.0779842
0.083958
0.0888389
0.0927429
0.095749
0.0979877
0.0995319
0.100423
0.100728
0.100514
0.100168
0.102633
0.11293
0.104158
0.105051
0.105113
0.13063
0.18709
0.245071
0.2563
0.110009
0.105863
0.125478
0.163792
0.183829
0.19499
0.115746
0.107049
0.120796
0.146077
0.154772
0.141949
0.111009
0.10668
0.115047
0.131905
0.135455
0.114589
0.10503
0.104669
0.108949
0.120764
0.122536
0.104
0.101705
0.101878
0.103362
0.112447
0.11443
0.101126
0.098687
0.098878
0.0985988
0.106428
0.109623
0.101803
0.0951919
0.095889
0.0946427
0.10209
0.106998
0.104332
0.0914618
0.0930137
0.0913755
0.0989624
0.105851
0.107906
0.0878793
0.0903256
0.0886648
0.0966816
0.105691
0.112112
0.0847095
0.0878813
0.0863752
0.0949308
0.106171
0.11679
0.0821317
0.0857347
0.0843638
0.093421
0.107052
0.121862
0.0802465
0.0839485
0.0825091
0.0918978
0.108117
0.126984
0.0790648
0.0825121
0.0808574
0.0901376
0.109123
0.131756
0.0785823
0.0816191
0.0792024
0.0879158
0.109846
0.135818
0.0788286
0.0812849
0.0774943
0.0850126
0.110038
0.138795
0.0798319
0.0815469
0.0756747
0.0812243
0.109387
0.140152
0.0813478
0.0824236
0.0736791
0.0763081
0.107525
0.13906
0.0799575
0.0834462
0.0713131
0.0700039
0.104038
0.134207
0.0745384
0.083362
0.0684216
0.0622159
0.0985378
0.123541
0.0719082
0.0827905
0.0652124
0.0533158
0.0911936
0.103612
0.0771245
0.0830376
0.0620663
0.0438928
0.0841454
0.0669091
0.0862644
0.0841104
0.0595377
0.035021
0.081546
-0.0102171
0.0908878
0.0845228
0.0570201
0.026177
0.0565723
-0.193983
-0.112421
-0.0872858
-0.0544566
-0.0243296
0.00267793
0.0253623
0.0438899
0.0590115
0.0712612
0.0810965
0.0889956
0.0953343
0.100435
0.104525
0.107752
0.11022
0.111993
0.113131
0.113732
0.113859
0.113936
0.117357
0.129464
0.118968
-0.0572196
-0.0595721
-0.0330842
-0.00660858
0.0179945
0.0393289
0.0570907
0.0716903
0.0836283
0.0933213
0.10117
0.107538
0.112716
0.116912
0.120274
0.122912
0.12491
0.126348
0.127317
0.127812
0.128225
0.132322
0.145725
0.13374
-0.0227373
-0.0306361
-0.0101619
0.0129215
0.0352643
0.0551319
0.0719333
0.0858548
0.0972875
0.106637
0.114277
0.120527
0.125651
0.129857
0.133299
0.136088
0.138303
0.140018
0.141284
0.142027
0.142636
0.147158
0.16144
0.14846
0.00760536
-0.00194942
0.0133714
0.0335253
0.0538707
0.0722908
0.088036
0.101154
0.111971
0.120857
0.128154
0.134168
0.139148
0.143295
0.146755
0.149634
0.152009
0.153948
0.155455
0.156379
0.157096
0.161844
0.176683
0.163401
0.0342934
0.0246269
0.0365992
0.0545762
0.0732791
0.0903752
0.105061
0.117325
0.127452
0.135787
0.142661
0.148361
0.153126
0.157144
0.160557
0.163468
0.165953
0.168064
0.169765
0.170815
0.171558
0.176332
0.191415
0.178798
0.0566323
0.0484824
0.0589592
0.0756079
0.0930813
0.109045
0.122737
0.134151
0.14356
0.151303
0.157701
0.16303
0.167516
0.171338
0.174634
0.177504
0.180024
0.182238
0.184081
0.185247
0.185995
0.190597
0.205527
0.194981
0.0748549
0.0697043
0.0802514
0.0963578
0.113019
0.128074
0.140878
0.151479
0.160174
0.167308
0.173198
0.178111
0.18226
0.185815
0.188909
0.191646
0.194104
0.196335
0.198277
0.19962
0.20051
0.20474
0.218755
0.21285
0.0897995
0.088696
0.100495
0.116726
0.132965
0.147337
0.159373
0.169217
0.177219
0.183743
0.189108
0.193569
0.197326
0.20054
0.203338
0.205822
0.208077
0.210171
0.212101
0.21367
0.214815
0.217689
0.227229
0.236158
0.102376
0.105938
0.119833
0.136735
0.152895
0.166791
0.178172
0.18732
0.194658
0.200584
0.205417
0.209402
0.212728
0.215539
0.21795
0.22005
0.221912
0.223608
0.225206
0.22671
0.228209
0.229524
0.216073
0.26847
0.113349
0.121874
0.138474
0.156493
0.172862
0.186456
0.19728
0.205782
0.212487
0.217829
0.222133
0.225636
0.228513
0.230896
0.232883
0.234543
0.235927
0.237089
0.238028
0.238399
0.237556
0.237374
0.247444
0.265998
0.123271
0.136865
0.156656
0.176167
0.192982
0.206404
0.216737
0.224626
0.230719
0.235492
0.239277
0.242304
0.244739
0.246704
0.248289
0.249549
0.250529
0.251271
0.251711
0.251372
0.249995
0.251727
0.266824
0.272868
0.132526
0.151195
0.174657
0.195983
0.213415
0.226736
0.236607
0.243901
0.249387
0.253597
0.256868
0.259425
0.261431
0.263004
0.264227
0.265153
0.265823
0.266278
0.266423
0.265761
0.264307
0.266952
0.283223
0.284318
0.141457
0.165187
0.19284
0.216229
0.234337
0.247585
0.256986
0.263664
0.268528
0.272164
0.274914
0.277001
0.278585
0.279785
0.280678
0.281314
0.281732
0.281968
0.281909
0.281053
0.279538
0.282509
0.299047
0.297918
0.15018
0.179279
0.211631
0.237195
0.255981
0.269108
0.277981
0.28399
0.288184
0.291211
0.293416
0.295016
0.296173
0.297003
0.297581
0.297952
0.298149
0.298201
0.297981
0.29698
0.2954
0.298465
0.314844
0.312582
0.158738
0.193939
0.231427
0.259182
0.278583
0.291481
0.299713
0.30495
0.308393
0.310748
0.312359
0.313439
0.314145
0.314594
0.314855
0.314966
0.314949
0.314826
0.314457
0.313333
0.311699
0.314742
0.330676
0.327855
0.167261
0.20969
0.252566
0.28252
0.302398
0.314885
0.322295
0.32661
0.329183
0.330772
0.331718
0.332221
0.332438
0.332479
0.332408
0.33225
0.332017
0.331718
0.331204
0.329974
0.328305
0.331255
0.346515
0.343469
0.175945
0.227158
0.275485
0.30762
0.327708
0.339502
0.345837
0.349024
0.350562
0.351261
0.351447
0.351302
0.350975
0.350569
0.350138
0.349693
0.349233
0.348751
0.348091
0.34677
0.345089
0.347895
0.362297
0.359239
0.18516
0.247048
0.300861
0.33499
0.354812
0.365501
0.370423
0.372217
0.372519
0.372174
0.371482
0.370601
0.369663
0.368763
0.367938
0.367182
0.366477
0.365802
0.364996
0.363598
0.361926
0.364547
0.377944
0.375015
0.195587
0.270468
0.329524
0.365108
0.384006
0.393025
0.396104
0.396181
0.395008
0.393439
0.391737
0.390018
0.388396
0.386946
0.385688
0.384595
0.383628
0.382749
0.381793
0.38033
0.378685
0.381089
0.393361
0.390652
0.207976
0.298789
0.362257
0.398478
0.415555
0.422166
0.422871
0.420858
0.417938
0.414951
0.412095
0.409432
0.407045
0.404989
0.403259
0.401803
0.400556
0.399463
0.398355
0.396837
0.39523
0.397386
0.408442
0.406008
0.221839
0.333617
0.400112
0.435644
0.449644
0.452931
0.450636
0.446119
0.441169
0.436561
0.432406
0.428692
0.425466
0.42275
0.42051
0.418665
0.417124
0.415806
0.414543
0.412977
0.411416
0.413296
0.423073
0.420939
0.236295
0.379493
0.44501
0.477138
0.486299
0.485175
0.47919
0.471743
0.464489
0.458071
0.452482
0.447623
0.443489
0.440065
0.437285
0.435032
0.433181
0.431631
0.43021
0.428598
0.427087
0.428679
0.437147
0.435306
0.265724
0.448469
0.499659
0.523128
0.525191
0.518497
0.508166
0.497404
0.487614
0.479231
0.472101
0.466021
0.460926
0.45676
0.453415
0.450738
0.448569
0.446779
0.445196
0.443541
0.442092
0.44342
0.450591
0.448898
0.37557
0.550011
0.564198
0.572503
0.565352
0.552155
0.537006
0.522665
0.510188
0.499746
0.491007
0.48366
0.477573
0.472642
0.468721
0.46561
0.463114
0.461075
0.459321
0.457616
0.45624
0.457353
0.463191
0.461256
)
;

boundaryField
{
    rotor
    {
        type            zeroGradient;
    }
    freestream
    {
        type            freestreamPressure;
        freestreamValue uniform 0;
        supersonic      false;
        value           nonuniform List<scalar> 
96
(
0.446945
0.463481
0.47837
0.491133
0.501581
0.50951
0.514757
0.517196
0.516728
0.513321
0.506961
0.497692
0.485602
0.47083
0.453557
0.434028
0.4126
0.38945
0.364872
0.339213
0.312842
0.286157
0.259565
0.233468
0.208252
0.184275
0.161869
0.141338
0.122976
0.107137
0.0947609
0.0814677
0.0645675
0.0512509
0.0407903
0.0322984
0.0254191
0.0199054
0.0155316
0.012089
0.00938463
0.00725078
0.00555263
0.0041808
0.00306691
0.00216868
0.0014753
0.00101394
0.000692969
0.000463856
0.000313856
0.000172137
-5.51293e-05
-0.000224524
-0.000194607
6.96272e-06
7.14601e-07
6.68526e-05
-1.42927e-05
-9.1503e-05
4.34205e-05
0.000352317
0.000599234
0.00134295
0.00210801
0.00319981
0.00459923
0.00629669
0.00902997
0.0130076
0.0178524
0.0234503
0.0300359
0.0376262
0.0462571
0.0560467
0.0671177
0.0796528
0.094126
0.112506
0.137032
0.144715
0.15788
0.174231
0.192544
0.212206
0.232909
0.254422
0.276541
0.29906
0.321762
0.344414
0.366766
0.388561
0.409467
0.428914
)
;
    }
    frontAndBack
    {
        type            empty;
    }
}


// ************************************************************************* //
