/*--------------------------------*- C++ -*----------------------------------*\
  =========                 |
  \\      /  F ield         | OpenFOAM: The Open Source CFD Toolbox
   \\    /   O peration     | Website:  https://openfoam.org
    \\  /    A nd           | Version:  11
     \\/     M anipulation  |
\*---------------------------------------------------------------------------*/
FoamFile
{
    format      ascii;
    class       volVectorField;
    location    "0.92";
    object      U;
}
// * * * * * * * * * * * * * * * * * * * * * * * * * * * * * * * * * * * * * //

dimensions      [0 1 -1 0 0 0 0];

internalField   nonuniform List<vector> 
2880
(
(0.0110909 -0.0606762 1.99338e-21)
(0.0965476 -0.130875 -1.99441e-21)
(0.169808 -0.184344 1.21206e-18)
(0.187127 -0.185796 2.00491e-18)
(0.223796 -0.170203 6.30993e-19)
(-0.169517 0.0422991 3.36934e-20)
(0.0335447 -0.0883115 -2.11376e-18)
(0.112373 -0.163028 -4.48447e-21)
(0.157272 -0.195417 0)
(0.167572 -0.187243 -9.19342e-19)
(0.191004 -0.128941 0)
(0.0295386 0.0165985 0)
(0.0454473 -0.110048 1.00063e-18)
(0.110685 -0.176673 1.38684e-18)
(0.144369 -0.197241 4.43181e-19)
(0.155033 -0.176325 -1.04159e-19)
(0.174923 -0.104931 8.76799e-20)
(0.114077 0.0234832 1.4129e-19)
(0.0526181 -0.130997 -9.82303e-19)
(0.106548 -0.187448 5.98313e-19)
(0.134242 -0.199468 -4.65135e-19)
(0.146939 -0.170961 -3.8289e-19)
(0.168981 -0.0956456 0)
(0.162178 0.0186092 0)
(0.0567677 -0.149793 -3.03334e-20)
(0.102086 -0.196339 -5.04714e-19)
(0.126491 -0.202824 -2.70267e-20)
(0.142449 -0.170987 7.16607e-19)
(0.169486 -0.0976886 -2.24938e-19)
(0.193276 0.00271392 -4.50796e-21)
(0.0589603 -0.166088 4.80685e-19)
(0.0978204 -0.203803 2.62823e-19)
(0.12039 -0.207269 0)
(0.140307 -0.175458 -3.81122e-19)
(0.173293 -0.108168 3.2327e-19)
(0.215143 -0.021865 0)
(0.0600108 -0.18019 -4.62921e-19)
(0.0938167 -0.210305 -2.59105e-19)
(0.115243 -0.21288 9.65953e-20)
(0.13936 -0.183709 0)
(0.178189 -0.124786 -5.13556e-20)
(0.231295 -0.0523721 -1.52781e-20)
(0.060494 -0.192221 0)
(0.0897748 -0.216158 0)
(0.110631 -0.219675 -4.95606e-20)
(0.138748 -0.195166 -3.61685e-20)
(0.182903 -0.145948 3.35579e-20)
(0.243408 -0.0867364 -3.56072e-21)
(0.0607622 -0.202132 3.68847e-21)
(0.0854551 -0.221543 -2.35928e-19)
(0.10614 -0.227548 -4.49918e-20)
(0.137861 -0.209263 1.87328e-19)
(0.186711 -0.170492 3.24555e-20)
(0.252451 -0.12365 -1.40057e-20)
(0.0608342 -0.209776 -7.34304e-21)
(0.0806928 -0.226542 2.46496e-19)
(0.101405 -0.236318 -1.09978e-20)
(0.136242 -0.22545 -1.46892e-19)
(0.189174 -0.197577 0)
(0.258988 -0.162418 0)
(0.0604897 -0.215016 9.50698e-19)
(0.0753811 -0.231164 -1.43386e-20)
(0.0961261 -0.245756 -4.27118e-20)
(0.133531 -0.243208 3.62213e-20)
(0.189997 -0.226577 3.07126e-20)
(0.263346 -0.202685 -2.49741e-19)
(0.0594541 -0.217792 -9.20793e-19)
(0.0694494 -0.235365 -1.42897e-20)
(0.0900772 -0.25559 0)
(0.129438 -0.262048 0)
(0.188961 -0.257006 6.05456e-20)
(0.265691 -0.24427 1.64512e-19)
(0.0574547 -0.218098 1.77963e-18)
(0.0628651 -0.239045 -8.90466e-19)
(0.0831077 -0.265506 0)
(0.123731 -0.281485 0)
(0.185867 -0.28843 0)
(0.266065 -0.287092 0)
(0.0542925 -0.21597 -3.70788e-18)
(0.055646 -0.242047 9.57848e-19)
(0.0751472 -0.275136 -7.7109e-22)
(0.116234 -0.301001 -3.54438e-20)
(0.180522 -0.320435 -5.92578e-20)
(0.264417 -0.331126 5.44951e-20)
(0.0498709 -0.211457 1.87146e-18)
(0.0478901 -0.244155 1.00441e-18)
(0.066212 -0.284044 -4.30552e-20)
(0.106836 -0.32 -5.6111e-19)
(0.172723 -0.352559 -4.78664e-19)
(0.260577 -0.376322 0)
(0.0442384 -0.204597 -2.93256e-20)
(0.0397903 -0.245069 -9.66682e-19)
(0.0564152 -0.291694 0)
(0.0954837 -0.337779 6.3604e-19)
(0.162238 -0.384198 4.20452e-19)
(0.254252 -0.422578 -4.1486e-19)
(0.0376505 -0.195369 -5.90276e-20)
(0.0316345 -0.244366 3.09953e-20)
(0.0459705 -0.297427 -8.72036e-20)
(0.0821697 -0.353468 7.27482e-20)
(0.148801 -0.414537 0)
(0.245029 -0.469712 4.17412e-19)
(0.0306276 -0.183629 1.89603e-18)
(0.0237951 -0.241468 -1.02737e-18)
(0.0351749 -0.300434 -8.96891e-20)
(0.0669194 -0.366 7.44329e-20)
(0.132085 -0.442444 0)
(0.232202 -0.517152 -4.07405e-19)
(0.0239709 -0.169022 -3.87728e-18)
(0.0166757 -0.235609 3.29082e-20)
(0.02437 -0.29975 0)
(0.0497745 -0.374109 -7.37428e-20)
(0.1118 -0.466299 5.59533e-19)
(0.214688 -0.563933 4.14879e-19)
(0.0186543 -0.150942 1.80459e-18)
(0.0106329 -0.225832 2.37379e-18)
(0.013905 -0.294301 -5.02895e-20)
(0.0307769 -0.376393 1.54246e-19)
(0.0876886 -0.483894 -6.46943e-19)
(0.190829 -0.608656 -9.3883e-20)
(0.0155228 -0.128717 1.94713e-18)
(0.00599273 -0.211108 9.59951e-22)
(0.00418747 -0.283056 0)
(0.0101268 -0.37158 0)
(0.059714 -0.492034 0)
(0.157239 -0.649386 -9.26979e-20)
(0.0152514 -0.102714 -1.91969e-18)
(0.00332838 -0.190607 -1.32411e-18)
(-0.00398833 -0.26521 0)
(-0.0112904 -0.358815 8.44379e-19)
(0.0288836 -0.485689 5.15847e-19)
(0.105803 -0.685835 0)
(0.0187335 -0.0748228 -6.47529e-20)
(0.00403565 -0.162722 4.44048e-20)
(-0.00878994 -0.239297 9.37447e-19)
(-0.0313856 -0.336582 1.06967e-20)
(-0.00154442 -0.454914 -7.24967e-19)
(0.0168544 -0.731307 -3.97587e-19)
(0.027871 -0.0408523 0)
(0.0114714 -0.1144 0)
(-0.0101596 -0.191451 2.17263e-21)
(-0.0543599 -0.292271 1.87925e-21)
(-0.000106705 -0.390093 1.8323e-19)
(-0.151192 -0.862888 4.25561e-19)
(0.366664 0.545513 5.89085e-19)
(0.643492 0.431987 9.90985e-20)
(0.735233 0.36411 -3.33968e-19)
(0.800165 0.296896 -3.79576e-19)
(0.842123 0.246774 -2.84242e-19)
(0.874429 0.209258 2.47237e-19)
(0.900388 0.181245 0)
(0.921905 0.159422 9.85866e-20)
(0.939823 0.141671 8.50782e-20)
(0.954746 0.126595 -1.51221e-19)
(0.967135 0.113397 1.42035e-19)
(0.977339 0.101632 0)
(0.985661 0.0909615 0)
(0.992326 0.0811104 -1.17143e-19)
(0.997508 0.0718522 1.11433e-19)
(1.00135 0.0630131 -1.06698e-19)
(1.00397 0.0544887 2.02185e-19)
(1.00551 0.0462515 -1.96025e-19)
(1.00609 0.0383226 0)
(1.00592 0.0307053 -8.99547e-20)
(1.00513 0.0233816 0)
(1.00331 0.0165545 0)
(0.99938 0.010889 0)
(0.995052 0.00654277 0)
(0.319049 0.421218 -2.08151e-19)
(0.579911 0.371207 0)
(0.686999 0.320616 0)
(0.762223 0.263826 -1.7181e-19)
(0.811962 0.219708 1.33073e-19)
(0.849617 0.186269 -1.2216e-19)
(0.879404 0.16115 -1.12125e-19)
(0.903794 0.141535 -2.88438e-19)
(0.923986 0.125573 0)
(0.940794 0.112026 -2.35958e-19)
(0.954796 0.100196 1.46568e-19)
(0.966415 0.0896861 1.33405e-19)
(0.976 0.0801845 -1.80053e-21)
(0.983815 0.0714358 -2.39031e-21)
(0.990062 0.0632282 -1.1156e-19)
(0.994905 0.0554002 5.2129e-20)
(0.998486 0.0478575 0)
(1.00094 0.0405785 -5.08046e-20)
(1.00241 0.0335856 1.44635e-19)
(1.00309 0.0268862 -1.4036e-19)
(1.00309 0.0204646 1.35309e-19)
(1.00212 0.0144577 -1.3103e-19)
(0.9994 0.00932415 -1.70789e-19)
(0.996033 0.00491646 4.50094e-19)
(0.315754 0.322794 -3.57141e-19)
(0.539723 0.306146 1.14722e-19)
(0.650123 0.27093 -1.04419e-19)
(0.730554 0.22559 1.70262e-19)
(0.785742 0.188645 -8.10342e-20)
(0.827588 0.160116 -6.62835e-20)
(0.86059 0.138447 0)
(0.887486 0.121444 9.819e-20)
(0.909709 0.107584 0)
(0.928221 0.0958211 7.98404e-20)
(0.943692 0.0855793 1.47297e-19)
(0.956602 0.0765154 -2.09131e-19)
(0.967341 0.068353 0)
(0.976205 0.0608619 0)
(0.983424 0.0538499 0)
(0.989179 0.0471713 -5.57127e-20)
(0.993626 0.0407413 1.07113e-19)
(0.996906 0.0345404 2.56268e-19)
(0.99917 0.0285872 -1.49967e-19)
(1.00059 0.0228869 -4.74082e-20)
(1.00129 0.0174185 -1.39275e-19)
(1.00107 0.0122521 1.34822e-19)
(0.999398 0.00768211 -1.74087e-19)
(0.997102 0.00367139 4.65876e-21)
(0.321808 0.238086 -7.14546e-20)
(0.51355 0.24146 6.35802e-20)
(0.622866 0.218775 0)
(0.705213 0.184266 0)
(0.763865 0.154729 1.5382e-19)
(0.808765 0.131441 6.66656e-20)
(0.844314 0.113536 1.74447e-19)
(0.873294 0.0994179 -2.05785e-19)
(0.897263 0.0878996 9.33736e-20)
(0.917265 0.0781347 8.19412e-20)
(0.934024 0.0696687 -1.8488e-21)
(0.948071 0.0622177 6.95598e-20)
(0.959829 0.0555456 0)
(0.96962 0.0494509 -6.26772e-20)
(0.977694 0.0437652 -1.17693e-19)
(0.984253 0.0383604 1.13765e-19)
(0.98946 0.0331603 -1.08595e-19)
(0.993465 0.0281439 5.24234e-20)
(0.996415 0.0233223 0)
(0.998477 0.0186975 0)
(0.999772 0.0142471 0)
(1.0002 0.00999763 -4.59176e-20)
(0.999411 0.00612479 1.76916e-19)
(0.998042 0.0026568 -1.59144e-19)
(0.330005 0.165531 -4.11384e-20)
(0.496652 0.179553 0)
(0.603264 0.166362 0)
(0.685641 0.141371 -1.89906e-19)
(0.746305 0.118917 0)
(0.793319 0.100861 1.40108e-19)
(0.8308 0.0868357 -1.79552e-19)
(0.861441 0.0757565 -5.22839e-20)
(0.886847 0.0667471 9.44255e-20)
(0.908104 0.0591498 8.5402e-20)
(0.925957 0.052616 -1.54832e-19)
(0.940967 0.0469195 1.52611e-21)
(0.953587 0.0418651 0)
(0.964162 0.037285 1.26293e-19)
(0.972961 0.0330382 0)
(0.980196 0.0290152 0)
(0.986042 0.0251475 -1.10356e-19)
(0.990651 0.0214092 2.66387e-19)
(0.994172 0.0178014 -1.03137e-19)
(0.996761 0.0143213 0)
(0.998541 0.0109485 0)
(0.999487 0.00768531 9.24355e-20)
(0.999435 0.00463039 -1.79235e-19)
(0.998825 0.00184652 1.60956e-19)
(0.33768 0.100949 3.67543e-20)
(0.486186 0.120583 -6.44323e-20)
(0.589611 0.114634 2.85945e-20)
(0.671133 0.0978159 1.88756e-19)
(0.732858 0.0819039 0)
(0.78128 0.0688849 -1.39491e-19)
(0.82017 0.058728 1.2059e-19)
(0.852077 0.0507608 5.33707e-20)
(0.878607 0.0443703 -4.56713e-20)
(0.900866 0.0390644 -8.52627e-20)
(0.919601 0.0345861 7.80751e-20)
(0.935394 0.0307585 0)
(0.948713 0.0274276 6.73795e-20)
(0.959918 0.0244609 -1.91764e-19)
(0.969293 0.0217466 6.12671e-20)
(0.977065 0.0191953 -5.80302e-20)
(0.983415 0.0167455 5.62619e-20)
(0.988498 0.0143649 0)
(0.992461 0.0120421 1.03847e-19)
(0.995456 0.00976879 -1.00557e-19)
(0.997607 0.00752819 0)
(0.998951 0.00531413 -4.65117e-20)
(0.999457 0.00317976 0)
(0.99942 0.00119189 0)
(0.34456 0.0417528 0)
(0.480214 0.0641484 0)
(0.580661 0.063881 0)
(0.66105 0.054089 -2.35789e-20)
(0.723275 0.0441416 4.17759e-20)
(0.772605 0.0359016 -5.44271e-20)
(0.812474 0.0295558 0)
(0.845288 0.0247293 0)
(0.872645 0.0210208 0)
(0.895651 0.0180862 0)
(0.915048 0.0157468 3.92643e-20)
(0.93143 0.0138729 -7.35682e-20)
(0.945272 0.0123489 6.56692e-22)
(0.956945 0.0110754 3.25714e-20)
(0.966746 0.00996916 0)
(0.974907 0.00896215 2.92455e-20)
(0.981616 0.00799977 -4.25069e-20)
(0.987033 0.00704229 0)
(0.991305 0.00606476 -1.31334e-20)
(0.994579 0.0050521 0)
(0.996982 0.00399242 0)
(0.998595 0.00288174 4.70774e-20)
(0.999471 0.0017492 -3.41599e-20)
(0.999803 0.000643119 -1.0221e-20)
(0.350814 -0.0138296 2.46933e-21)
(0.477516 0.00966393 1.64292e-20)
(0.575554 0.0140517 0)
(0.654885 0.0103813 0)
(0.717319 0.0059038 0)
(0.767189 0.00223312 3.58812e-20)
(0.807687 -0.000360044 1.16101e-20)
(0.841107 -0.0020473 -3.4927e-21)
(0.869025 -0.00304538 5.95064e-21)
(0.89254 -0.00356248 -1.64426e-20)
(0.912384 -0.00370888 5.07886e-21)
(0.929157 -0.00357243 4.62232e-21)
(0.943338 -0.00323422 -4.30939e-21)
(0.955309 -0.00276161 0)
(0.965371 -0.00220804 -3.85296e-21)
(0.973765 -0.00161987 0)
(0.980684 -0.00104398 1.05951e-20)
(0.986289 -0.000527977 0)
(0.990729 -0.0001117 1.96906e-20)
(0.99415 0.000181402 -9.52515e-21)
(0.996682 0.000344556 0)
(0.998431 0.000382933 0)
(0.999474 0.000311056 -1.41448e-20)
(0.999954 0.000149144 -1.62591e-23)
(0.356531 -0.0671382 -1.41089e-19)
(0.47734 -0.0434623 -1.63678e-20)
(0.57372 -0.0350804 0)
(0.652246 -0.0332615 2.38831e-20)
(0.714733 -0.0325943 -2.17896e-20)
(0.764887 -0.0318478 -1.76405e-20)
(0.805751 -0.0307596 -5.42869e-20)
(0.839534 -0.0293314 5.46908e-20)
(0.867787 -0.0276129 -4.86165e-20)
(0.891597 -0.0256878 4.93351e-20)
(0.911684 -0.0236086 4.00461e-20)
(0.928654 -0.0214268 -4.15634e-20)
(0.942993 -0.0191915 -1.27749e-20)
(0.955086 -0.0169386 1.63682e-20)
(0.96524 -0.0146928 3.44699e-20)
(0.9737 -0.0124782 -5.89494e-20)
(0.980665 -0.0103324 3.19781e-20)
(0.986301 -0.00830941 -2.71869e-20)
(0.99076 -0.00646388 2.63655e-20)
(0.994189 -0.00482908 3.16821e-21)
(0.99672 -0.00340781 2.44236e-20)
(0.998455 -0.00218452 -7.37486e-23)
(0.99946 -0.00115797 -4.28243e-20)
(0.999886 -0.000353206 4.09357e-20)
(0.361786 -0.11918 1.50018e-19)
(0.479227 -0.0957991 -3.18544e-20)
(0.574765 -0.0837901 5.67488e-20)
(0.652812 -0.0768555 -1.23394e-19)
(0.715322 -0.0712437 0)
(0.765618 -0.0661912 -7.24262e-20)
(0.806664 -0.0614688 -3.04332e-20)
(0.840607 -0.0569399 -2.65803e-20)
(0.868986 -0.0525018 8.92646e-22)
(0.892881 -0.0481184 -8.59595e-20)
(0.91301 -0.0437934 2.18837e-22)
(0.929984 -0.039545 -7.83585e-22)
(0.944293 -0.0353911 -6.89733e-20)
(0.956327 -0.0313382 0)
(0.966397 -0.0273834 0)
(0.974752 -0.0235293 0)
(0.981598 -0.019802 0)
(0.987105 -0.0162578 0)
(0.991428 -0.0129639 -5.21685e-20)
(0.99472 -0.00996363 1.00902e-19)
(0.997119 -0.00725866 -4.8751e-20)
(0.998696 -0.00482985 7.04605e-20)
(0.999449 -0.00269628 -9.10266e-20)
(0.999586 -0.000912098 0)
(0.366645 -0.170771 0)
(0.482898 -0.147901 2.59404e-19)
(0.578458 -0.132399 -5.48721e-20)
(0.656435 -0.120522 1.01479e-21)
(0.719028 -0.110046 -4.34183e-20)
(0.76938 -0.100704 1.46052e-19)
(0.810446 -0.0923328 1.26607e-19)
(0.84436 -0.0846838 0)
(0.872664 -0.0775106 -9.48275e-20)
(0.896437 -0.0706575 3.04778e-19)
(0.916405 -0.0640776 -4.09308e-20)
(0.933186 -0.0577551 3.67109e-20)
(0.947276 -0.0516784 -3.35798e-20)
(0.959069 -0.0458257 0)
(0.968879 -0.0401673 -6.03604e-20)
(0.976959 -0.034683 -5.71094e-20)
(0.983519 -0.0293841 1.12013e-19)
(0.988734 -0.0243245 5.33705e-20)
(0.992765 -0.0195799 0)
(0.995772 -0.0152038 0)
(0.997897 -0.0111992 0)
(0.999165 -0.00755377 0)
(0.999453 -0.00432678 0)
(0.999077 -0.00158522 0)
(0.371185 -0.222613 0)
(0.48825 -0.200317 -2.58971e-19)
(0.584739 -0.181269 0)
(0.663107 -0.164421 1.94735e-19)
(0.725872 -0.149001 8.11871e-20)
(0.776204 -0.135278 -2.87726e-19)
(0.817131 -0.123186 6.36672e-20)
(0.850828 -0.11237 0)
(0.878854 -0.102437 9.49873e-20)
(0.902299 -0.0931071 -8.65968e-20)
(0.921902 -0.084275 0)
(0.938293 -0.0758876 0)
(0.951974 -0.0679018 6.76512e-20)
(0.963345 -0.0602676 6.26871e-20)
(0.972719 -0.0529294 -1.19023e-19)
(0.980354 -0.0458436 1.15069e-19)
(0.986461 -0.0390034 -5.44614e-20)
(0.99122 -0.0324544 -5.32215e-20)
(0.994799 -0.0262755 0)
(0.997368 -0.0205277 0)
(0.999074 -0.0152189 -1.90129e-19)
(0.999879 -0.0103582 2.29853e-19)
(0.999495 -0.00607473 0)
(0.998383 -0.00242391 3.98261e-20)
(0.375516 -0.275338 7.08339e-20)
(0.495327 -0.253576 -6.53116e-20)
(0.593697 -0.230768 -1.07321e-19)
(0.672936 -0.208707 1.91607e-19)
(0.735951 -0.188112 -2.48481e-19)
(0.786169 -0.169815 1.40277e-19)
(0.826781 -0.153868 1.88635e-21)
(0.860058 -0.139805 1.09345e-19)
(0.887596 -0.127078 -1.88406e-19)
(0.910499 -0.115266 -1.67461e-19)
(0.929531 -0.104194 -1.50291e-19)
(0.945332 -0.0937647 7.39125e-20)
(0.958415 -0.0839002 1.96417e-19)
(0.96918 -0.0745209 -1.8789e-19)
(0.977945 -0.0655451 0)
(0.984966 -0.0569053 -5.54978e-20)
(0.990455 -0.048574 5.42732e-20)
(0.994596 -0.0405824 0)
(0.997561 -0.0330057 0)
(0.999536 -0.0259084 -1.45146e-19)
(1.00067 -0.0193045 4.67303e-22)
(1.00086 -0.0132431 1.3541e-19)
(0.999605 -0.00796192 0)
(0.997541 -0.00347544 -7.91003e-20)
(0.379771 -0.329548 -4.95391e-19)
(0.504336 -0.308176 4.29639e-19)
(0.605578 -0.281261 5.33254e-19)
(0.686142 -0.253534 -9.68333e-20)
(0.749439 -0.227373 1.63723e-19)
(0.799403 -0.204205 -1.40614e-19)
(0.839488 -0.184206 -3.5796e-19)
(0.872115 -0.166784 -2.06301e-19)
(0.898934 -0.151214 9.347e-20)
(0.92107 -0.136919 8.40079e-20)
(0.939316 -0.123629 -7.29189e-20)
(0.954324 -0.111196 -6.70855e-20)
(0.966614 -0.0995012 -6.49229e-20)
(0.976591 -0.0884317 -3.62598e-19)
(0.984574 -0.0778792 2.37445e-21)
(0.990814 -0.0677518 -5.27658e-20)
(0.995524 -0.0579989 -1.037e-19)
(0.998888 -0.0486324 -9.99166e-20)
(1.00108 -0.0397164 -1.94893e-19)
(1.0023 -0.0313116 1.41623e-19)
(1.00272 -0.0234382 1.82496e-19)
(1.00213 -0.0162048 -3.54532e-19)
(0.999818 -0.0100042 -2.75306e-22)
(0.996599 -0.00478093 1.95095e-19)
(0.384128 -0.385832 6.32425e-19)
(0.515656 -0.364583 -4.38004e-19)
(0.620794 -0.333051 -5.37466e-19)
(0.70306 -0.29901 -3.60423e-19)
(0.766595 -0.266745 -1.53759e-19)
(0.816088 -0.238306 1.4028e-19)
(0.855371 -0.213997 2.37568e-19)
(0.887071 -0.193074 3.06644e-19)
(0.91291 -0.174605 -9.24137e-20)
(0.934036 -0.157828 -1.59479e-19)
(0.951269 -0.142358 1.49345e-19)
(0.965273 -0.127978 1.37289e-19)
(0.976576 -0.114519 3.59726e-21)
(0.985584 -0.101834 -1.13682e-19)
(0.992613 -0.0897858 2.25392e-19)
(0.997911 -0.078256 1.07671e-19)
(1.00169 -0.0671701 3.06355e-19)
(1.00412 -0.0565169 -9.7735e-20)
(1.00539 -0.0463419 0)
(1.0057 -0.0366937 0)
(1.00524 -0.0275952 0)
(1.00372 -0.0192341 0)
(1.00017 -0.0122106 0)
(0.99561 -0.00637504 0)
(0.388839 -0.444768 -1.32038e-19)
(0.529854 -0.423195 1.21939e-19)
(0.639931 -0.386342 0)
(0.724165 -0.345165 3.61283e-19)
(0.787769 -0.306121 -1.49062e-19)
(0.836457 -0.271924 1.36092e-19)
(0.874572 -0.242999 0)
(0.905006 -0.218408 3.92566e-22)
(0.929562 -0.196981 7.61624e-21)
(0.949406 -0.177736 1.59668e-19)
(0.965387 -0.160138 0)
(0.97817 -0.143886 0)
(0.988287 -0.128754 2.44316e-19)
(0.996145 -0.114551 2.27105e-19)
(1.00205 -0.101108 -3.2573e-19)
(1.00625 -0.0882811 2.28054e-21)
(1.00895 -0.0759703 3.93991e-19)
(1.0103 -0.0641388 -1.90414e-19)
(1.0105 -0.0528079 0)
(1.00976 -0.0420051 0)
(1.00827 -0.031749 -1.71714e-19)
(1.00566 -0.0223202 1.66877e-19)
(1.00071 -0.0145736 0)
(0.99465 -0.00828566 2.77702e-19)
(0.394261 -0.506889 1.27209e-19)
(0.547716 -0.484292 2.13736e-19)
(0.663768 -0.441196 -3.74633e-19)
(0.750075 -0.391888 -2.4289e-19)
(0.813398 -0.345288 0)
(0.860789 -0.304785 0)
(0.897253 -0.270907 0)
(0.925996 -0.242476 -1.94986e-19)
(0.94891 -0.218037 3.36752e-19)
(0.967172 -0.196354 -2.96572e-19)
(0.981641 -0.176705 1.39664e-19)
(0.992978 -0.158683 -1.23453e-19)
(1.00171 -0.141992 -2.3215e-19)
(1.00824 -0.126392 -1.03711e-19)
(1.01287 -0.111679 1.03299e-19)
(1.01582 -0.0976817 0)
(1.01729 -0.0842744 0)
(1.01743 -0.0713934 0)
(1.01642 -0.0590318 -1.75549e-19)
(1.01448 -0.0471861 2.54324e-19)
(1.01181 -0.0358565 3.30448e-19)
(1.00795 -0.0254086 -6.45493e-19)
(1.00142 -0.0169973 3.91418e-19)
(0.993895 -0.0105789 0)
(0.40097 -0.572769 0)
(0.570318 -0.54801 -3.38053e-19)
(0.693309 -0.497439 1.95919e-20)
(0.78155 -0.438862 -6.15137e-20)
(0.843999 -0.38387 -2.70098e-19)
(0.889393 -0.336503 2.34146e-19)
(0.923571 -0.297341 4.07339e-19)
(0.950097 -0.264913 -1.87278e-19)
(0.970947 -0.23743 -3.2359e-19)
(0.98729 -0.213367 2.95385e-19)
(0.999973 -0.191773 1.29688e-19)
(1.00963 -0.172112 1.18779e-19)
(1.01678 -0.154004 3.31279e-19)
(1.02181 -0.137155 1.0385e-19)
(1.02499 -0.121322 -2.96299e-19)
(1.02656 -0.106304 1.87739e-19)
(1.02667 -0.0919487 -1.8149e-19)
(1.02548 -0.0781668 8.50137e-20)
(1.02314 -0.0649208 8.2186e-20)
(1.01987 -0.0521707 -8.30949e-20)
(1.01586 -0.0398867 7.71412e-20)
(1.01064 -0.0285177 3.11014e-19)
(1.00245 -0.0195736 -7.55028e-20)
(0.993357 -0.0131875 -5.95071e-19)
(0.40975 -0.642952 0)
(0.599138 -0.614162 -3.78326e-19)
(0.729821 -0.554511 4.41121e-19)
(0.819479 -0.485453 -5.10624e-20)
(0.880134 -0.421266 2.11213e-20)
(0.922582 -0.36654 -2.35539e-19)
(0.953664 -0.321825 -1.09865e-20)
(0.977333 -0.285296 -1.76985e-19)
(0.995624 -0.25478 0)
(1.00968 -0.228434 -2.67808e-19)
(1.02028 -0.205038 3.70413e-19)
(1.02803 -0.183902 -2.33658e-19)
(1.0334 -0.164552 -1.09166e-19)
(1.03676 -0.146631 2.94903e-19)
(1.03836 -0.129853 -1.88736e-19)
(1.03841 -0.113986 1.80113e-19)
(1.03705 -0.0988522 0)
(1.03441 -0.0843369 -8.46023e-20)
(1.03063 -0.0703729 -8.1767e-20)
(1.02591 -0.0568806 0)
(1.02046 -0.0437919 -7.68121e-20)
(1.01376 -0.0316327 2.96855e-19)
(1.00385 -0.0223026 2.16052e-21)
(0.993092 -0.0160839 3.49263e-20)
(0.421896 -0.717946 1.67744e-19)
(0.636012 -0.681999 -1.34458e-19)
(0.774813 -0.611245 3.68394e-19)
(0.864826 -0.530575 2.86754e-19)
(0.922359 -0.456571 4.78481e-19)
(0.960624 -0.394169 0)
(0.987609 -0.343767 0)
(1.00766 -0.303138 1.58659e-19)
(1.02284 -0.269673 -1.46026e-19)
(1.0342 -0.241191 1.33195e-19)
(1.04242 -0.216182 -1.21091e-19)
(1.04802 -0.193776 0)
(1.05142 -0.173392 0)
(1.05295 -0.154604 -9.67911e-20)
(1.05284 -0.137082 -5.24867e-21)
(1.05126 -0.120562 0)
(1.04834 -0.10484 0)
(1.04417 -0.0897776 0)
(1.03887 -0.0752797 1.50513e-19)
(1.03262 -0.061228 -1.4656e-19)
(1.02562 -0.0475113 -2.1546e-19)
(1.01735 -0.0347224 6.26873e-19)
(1.00567 -0.0251626 -2.05173e-19)
(0.993158 -0.0192284 0)
(0.439888 -0.798697 6.14003e-20)
(0.68341 -0.749928 2.6167e-19)
(0.829915 -0.665681 -4.62759e-19)
(0.918504 -0.572551 0)
(0.971115 -0.488497 7.70403e-20)
(1.00367 -0.418437 -9.69723e-20)
(1.02538 -0.362452 1.65616e-19)
(1.04095 -0.317885 1.36399e-19)
(1.05241 -0.281669 -1.34851e-19)
(1.06065 -0.251267 0)
(1.06618 -0.224888 0)
(1.0694 -0.201458 -2.96935e-19)
(1.07066 -0.180283 1.89051e-19)
(1.07023 -0.160865 1.75301e-19)
(1.0683 -0.142826 -8.74584e-20)
(1.06501 -0.12587 -3.1752e-19)
(1.06044 -0.10977 8.23666e-22)
(1.05468 -0.0943631 2.93075e-19)
(1.0478 -0.0795315 -6.25746e-22)
(1.03996 -0.0651201 -1.37648e-19)
(1.03135 -0.0509735 -6.86358e-20)
(1.02144 -0.0377406 -6.7385e-20)
(1.00799 -0.0281156 -6.70582e-20)
(0.993613 -0.0225812 -2.01702e-19)
(0.468793 -0.887973 2.51368e-19)
(0.744871 -0.814606 -2.00788e-19)
(0.896821 -0.714568 2.43982e-19)
(0.981208 -0.608923 0)
(1.02659 -0.515312 -2.00687e-19)
(1.05165 -0.438151 1.54939e-19)
(1.06679 -0.37705 0)
(1.07696 -0.328935 1.17469e-19)
(1.08406 -0.290309 -2.42419e-19)
(1.08875 -0.2583 1.10919e-19)
(1.09128 -0.230853 0)
(1.09192 -0.20669 9.7111e-20)
(1.09089 -0.185 0)
(1.08839 -0.165215 0)
(1.08455 -0.146909 -1.54634e-19)
(1.07948 -0.129755 7.23453e-22)
(1.07323 -0.113503 2.10482e-19)
(1.06584 -0.0979705 1.36494e-19)
(1.05736 -0.0830187 -1.32491e-19)
(1.04791 -0.0684603 0)
(1.03766 -0.0540976 -2.5007e-19)
(1.02606 -0.0406243 2.44353e-19)
(1.01085 -0.0311019 2.4526e-19)
(0.994516 -0.0260893 -2.30452e-19)
(0.506736 -0.988734 -2.68095e-19)
(0.822543 -0.867095 3.1183e-19)
(0.976447 -0.75216 -1.19057e-19)
(1.05305 -0.636222 -8.03958e-20)
(1.08846 -0.534777 1.29979e-19)
(1.10415 -0.451886 -2.13908e-19)
(1.11139 -0.38664 6.53751e-20)
(1.11526 -0.335664 -2.98031e-19)
(1.11738 -0.295149 -1.07968e-19)
(1.1181 -0.261955 9.97484e-20)
(1.11738 -0.233808 9.12888e-20)
(1.11525 -0.209245 -1.70494e-19)
(1.11181 -0.187349 3.98026e-21)
(1.10716 -0.167482 2.22526e-19)
(1.10138 -0.149175 -7.48572e-20)
(1.09451 -0.132076 -2.02227e-19)
(1.08657 -0.115911 1.31426e-19)
(1.07755 -0.100484 -1.26842e-19)
(1.06747 -0.0856352 1.22564e-19)
(1.05641 -0.0711518 -4.21069e-22)
(1.04451 -0.056797 -1.71746e-19)
(1.03122 -0.0432985 0)
(1.0143 -0.0340451 2.29963e-19)
(0.995918 -0.0296889 -1.65045e-19)
(0.562365 -1.1517 -3.47287e-21)
(0.927056 -0.904245 -1.25031e-19)
(1.07006 -0.772611 9.46625e-20)
(1.13291 -0.650282 -7.70927e-20)
(1.15559 -0.54427 -1.33798e-19)
(1.16022 -0.458106 1.29328e-19)
(1.15844 -0.390298 0)
(1.15523 -0.337489 8.40244e-21)
(1.15186 -0.2958 9.46295e-20)
(1.14826 -0.261955 -8.82204e-20)
(1.14406 -0.233538 8.19737e-20)
(1.13903 -0.208948 -7.70229e-20)
(1.13311 -0.187176 2.21412e-19)
(1.12628 -0.167527 -1.40852e-19)
(1.11855 -0.149499 6.25803e-20)
(1.10988 -0.132714 -5.99216e-20)
(1.10027 -0.116883 6.29768e-20)
(1.08965 -0.101797 0)
(1.07802 -0.0872809 0)
(1.0654 -0.0731 -5.27934e-20)
(1.05188 -0.0589835 -5.19557e-20)
(1.03693 -0.0456804 1.05188e-19)
(1.01834 -0.0368574 0)
(0.997868 -0.0333057 -5.25779e-20)
(-0.087497 -0.184956 -1.21123e-20)
(-0.160082 -0.344774 2.55559e-18)
(-0.203933 -0.498398 -1.21814e-18)
(-0.185814 -0.497641 -1.74108e-18)
(-0.160585 -0.543013 2.05013e-19)
(0.0490636 -0.271427 -1.7435e-19)
(-0.162242 -0.242905 1.59379e-18)
(-0.221792 -0.397943 1.73752e-20)
(-0.234116 -0.545195 0)
(-0.197162 -0.549265 8.98982e-19)
(-0.130277 -0.564275 0)
(0.0602147 -0.331782 0)
(-0.218185 -0.243628 -7.78852e-19)
(-0.257075 -0.392152 -1.27508e-18)
(-0.242446 -0.527674 -4.5821e-19)
(-0.177407 -0.530579 1.11326e-19)
(-0.0766274 -0.540797 -9.52576e-20)
(0.127553 -0.34998 -1.47643e-19)
(-0.272814 -0.228498 7.71108e-19)
(-0.28394 -0.370779 -5.98033e-19)
(-0.242343 -0.491268 5.03354e-19)
(-0.150888 -0.492396 4.46427e-19)
(-0.021304 -0.502365 0)
(0.205235 -0.346293 0)
(-0.320871 -0.210482 2.52946e-20)
(-0.305193 -0.342241 5.24533e-19)
(-0.238742 -0.445948 2.96854e-20)
(-0.127052 -0.446605 -8.75498e-19)
(0.0286839 -0.453872 2.86771e-19)
(0.27351 -0.327496 4.7304e-21)
(-0.364156 -0.194273 -4.01419e-19)
(-0.322933 -0.310107 -2.9035e-19)
(-0.236337 -0.396781 0)
(-0.107182 -0.396796 4.84448e-19)
(0.0720559 -0.398179 -4.20135e-19)
(0.327892 -0.298105 0)
(-0.401085 -0.181149 3.83151e-19)
(-0.339582 -0.276056 2.87591e-19)
(-0.236315 -0.346338 -1.2095e-19)
(-0.0925277 -0.344111 0)
(0.104417 -0.3393 7.17389e-20)
(0.370991 -0.258969 2.09664e-20)
(-0.43432 -0.165037 0)
(-0.354292 -0.24462 0)
(-0.238986 -0.295919 6.19867e-20)
(-0.0837998 -0.289456 5.0261e-20)
(0.125682 -0.278269 -4.62178e-20)
(0.399821 -0.2114 5.09255e-21)
(-0.46122 -0.152745 -3.1986e-21)
(-0.368344 -0.213123 2.73204e-19)
(-0.244401 -0.245982 5.80145e-20)
(-0.0812752 -0.233478 -2.63839e-19)
(0.136078 -0.215666 -4.69404e-20)
(0.414365 -0.157371 2.04704e-20)
(-0.481919 -0.1428 6.45196e-21)
(-0.381731 -0.181312 -2.83299e-19)
(-0.252573 -0.196747 1.37931e-20)
(-0.0849917 -0.176714 2.07702e-19)
(0.135882 -0.152067 0)
(0.414757 -0.098781 0)
(-0.495967 -0.134208 -8.44198e-19)
(-0.394523 -0.149348 1.59017e-20)
(-0.263444 -0.14837 5.78365e-20)
(-0.0947948 -0.119695 -5.01938e-20)
(0.125463 -0.0880838 -4.62749e-20)
(0.401207 -0.0374141 3.7408e-19)
(-0.503138 -0.125913 8.16953e-19)
(-0.406756 -0.117469 1.56615e-20)
(-0.276864 -0.100972 0)
(-0.110357 -0.0629575 0)
(0.105387 -0.0244226 -9.09553e-20)
(0.374144 0.0251166 -2.46906e-19)
(-0.503325 -0.116834 -1.56937e-18)
(-0.418394 -0.0859131 9.87167e-19)
(-0.292566 -0.0546473 0)
(-0.131184 -0.00705877 0)
(0.0764743 0.0381486 0)
(0.334225 0.0873167 0)
(-0.497285 -0.106084 3.25206e-18)
(-0.429008 -0.0548217 -1.04776e-18)
(-0.310204 -0.0094822 -2.86661e-21)
(-0.156645 0.0474143 4.77864e-20)
(0.0395755 0.0987964 8.62568e-20)
(0.282448 0.147769 -7.8514e-20)
(-0.485241 -0.0929264 -1.63212e-18)
(-0.43839 -0.0242181 -1.06011e-18)
(-0.329417 0.0343804 5.16556e-20)
(-0.185989 0.0998824 7.55294e-19)
(-0.00408821 0.156629 6.70339e-19)
(0.220586 0.204997 0)
(-0.467698 -0.0768083 2.50086e-20)
(-0.446278 0.00594308 1.00136e-18)
(-0.349802 0.0767671 0)
(-0.21833 0.149705 -8.45065e-19)
(-0.0529349 0.210716 -5.82372e-19)
(0.150583 0.257561 5.5592e-19)
(-0.445242 -0.0573799 5.10513e-20)
(-0.452335 0.0357336 -2.99146e-20)
(-0.370919 0.117493 1.05936e-19)
(-0.252693 0.196208 -9.01878e-20)
(-0.105231 0.260134 0)
(0.0746524 0.304223 -5.50323e-19)
(-0.418462 -0.0345166 -1.54105e-18)
(-0.456128 0.0651927 9.9209e-19)
(-0.392294 0.156376 1.05275e-19)
(-0.288036 0.238694 -8.88316e-20)
(-0.15905 0.303972 0)
(-0.00450697 0.343841 5.03151e-19)
(-0.387849 -0.00827178 3.11404e-18)
(-0.457058 0.0942983 -4.5235e-20)
(-0.413375 0.193243 0)
(-0.323282 0.27644 8.73051e-20)
(-0.212299 0.341236 -6.65988e-19)
(-0.0836961 0.375121 -5.01975e-19)
(-0.352557 0.0193678 -1.4283e-18)
(-0.454831 0.123835 -2.20731e-18)
(-0.433498 0.227856 5.16148e-20)
(-0.357394 0.308673 -1.73835e-19)
(-0.262898 0.370706 7.48173e-19)
(-0.159258 0.396462 1.09041e-19)
(-0.311402 0.0471515 -1.50116e-18)
(-0.449307 0.154092 9.92403e-21)
(-0.451924 0.259562 0)
(-0.389527 0.334428 0)
(-0.308846 0.39084 0)
(-0.226414 0.405912 1.05891e-19)
(-0.263575 0.072654 1.47407e-18)
(-0.440055 0.184464 1.18707e-18)
(-0.467781 0.286045 0)
(-0.418969 0.351864 -8.14463e-19)
(-0.347692 0.399873 -5.18435e-19)
(-0.277187 0.40199 0)
(-0.207577 0.0882823 5.12516e-20)
(-0.42262 0.212823 -3.65034e-20)
(-0.47842 0.301692 -8.29298e-19)
(-0.439307 0.358471 1.91875e-20)
(-0.373049 0.396249 7.02167e-19)
(-0.298622 0.382997 3.80203e-19)
(-0.109532 0.0836226 1.669e-18)
(-0.341136 0.23418 1.29593e-18)
(-0.45157 0.334955 1.36536e-19)
(-0.421623 0.361592 -8.49214e-20)
(-0.379639 0.359721 -1.60988e-19)
(-0.314221 0.289416 -4.06637e-19)
(0.742496 -1.03718 -4.63358e-19)
(1.06609 -0.880888 -1.08348e-20)
(1.17478 -0.765797 5.26091e-20)
(1.21762 -0.646312 7.78897e-20)
(1.22557 -0.541536 -5.46296e-20)
(1.21822 -0.455526 1.15086e-19)
(1.20681 -0.387268 -4.13557e-20)
(1.19604 -0.33396 1.1886e-19)
(1.18682 -0.29198 -3.97267e-20)
(1.17867 -0.258113 -7.71731e-20)
(1.17085 -0.229907 7.16272e-20)
(1.16286 -0.205686 0)
(1.15443 -0.184381 0)
(1.14543 -0.165257 -5.86758e-20)
(1.13577 -0.147786 5.63936e-20)
(1.12536 -0.131576 -5.437e-20)
(1.11413 -0.116327 0)
(1.102 -0.101817 1.06985e-19)
(1.08888 -0.0878642 -1.03664e-19)
(1.07478 -0.0742147 -4.81895e-20)
(1.05971 -0.0605694 9.83984e-20)
(1.04315 -0.0476837 -9.99722e-20)
(1.02298 -0.0394444 -1.01697e-19)
(1.0004 -0.0368575 5.36188e-20)
(0.83441 -0.835612 1.91303e-19)
(1.18707 -0.820673 0)
(1.27593 -0.731202 0)
(1.30078 -0.623627 1.62911e-20)
(1.29475 -0.525957 4.75821e-20)
(1.27595 -0.443628 -3.93225e-20)
(1.25505 -0.377196 -2.85728e-20)
(1.23668 -0.324867 -1.049e-19)
(1.22153 -0.283577 0)
(1.20875 -0.250367 -9.50436e-20)
(1.19728 -0.222874 6.10747e-20)
(1.18632 -0.199425 6.06413e-20)
(1.17542 -0.178927 1.23631e-21)
(1.1643 -0.160625 3.95805e-21)
(1.15277 -0.143982 -5.64947e-20)
(1.1407 -0.128598 2.9967e-20)
(1.12795 -0.114168 0)
(1.11439 -0.100466 -2.31189e-20)
(1.09991 -0.0873018 7.21278e-20)
(1.08444 -0.0744104 -7.00601e-20)
(1.06793 -0.061469 6.90903e-20)
(1.04985 -0.0492208 -6.73035e-20)
(1.02822 -0.0417074 -9.21325e-20)
(1.00354 -0.0402559 2.10363e-19)
(0.861612 -0.673106 4.02019e-19)
(1.26904 -0.740962 -6.49524e-20)
(1.36099 -0.676497 5.5844e-20)
(1.37629 -0.58564 -1.64308e-20)
(1.35974 -0.498754 1.63476e-20)
(1.33115 -0.422836 -2.76955e-21)
(1.30167 -0.360237 0)
(1.27613 -0.310302 2.8922e-20)
(1.25522 -0.270667 0)
(1.23789 -0.238791 2.94165e-20)
(1.22283 -0.212506 5.36777e-20)
(1.20898 -0.190214 -7.35242e-20)
(1.19569 -0.17084 0)
(1.18255 -0.153637 0)
(1.16927 -0.13807 0)
(1.15565 -0.123742 -2.20962e-20)
(1.14149 -0.110353 4.46256e-20)
(1.12664 -0.0976742 1.11268e-19)
(1.11093 -0.0855144 -6.27915e-20)
(1.09424 -0.0736025 -2.1963e-20)
(1.07644 -0.0615959 -6.10973e-20)
(1.05699 -0.0502031 5.95092e-20)
(1.03401 -0.0435429 -8.48519e-20)
(1.0073 -0.0434087 2.81013e-20)
(0.886545 -0.550768 7.52686e-20)
(1.32396 -0.65234 -6.27283e-20)
(1.42831 -0.609648 0)
(1.44129 -0.536375 0)