/*--------------------------------*- C++ -*----------------------------------*\
  =========                 |
  \\      /  F ield         | OpenFOAM: The Open Source CFD Toolbox
   \\    /   O peration     | Website:  https://openfoam.org
    \\  /    A nd           | Version:  11
     \\/     M anipulation  |
\*---------------------------------------------------------------------------*/
FoamFile
{
    format      ascii;
    class       surfaceVectorField;
    location    "0.92";
    object      Uf;
}
// * * * * * * * * * * * * * * * * * * * * * * * * * * * * * * * * * * * * * //

dimensions      [0 1 -1 0 0 0 0];

internalField   nonuniform List<vector> 
5640
(
(0.0472049 -0.0916432 1.14518e-22)
(0.0233163 -0.0723574 -1.0459e-18)
(0.130474 -0.15589 5.792e-19)
(0.105055 -0.14568 -9.18378e-21)
(0.184561 -0.188289 1.59509e-18)
(0.163235 -0.190533 6.06028e-19)
(0.184709 -0.16794 1.33721e-18)
(0.175109 -0.191313 5.20373e-19)
(0.0689837 -0.0853568 2.43245e-19)
(0.204955 -0.154802 3.15497e-19)
(-0.0727212 0.0236034 1.68467e-20)
(0.00637148 0.276295 3.73332e-19)
(0.0680126 -0.12237 -1.11997e-18)
(0.0397322 -0.0985738 -5.56564e-19)
(0.134046 -0.17861 -2.33765e-21)
(0.112006 -0.168627 6.85612e-19)
(0.165248 -0.192752 -4.44142e-19)
(0.151099 -0.195615 2.2159e-19)
(0.168887 -0.154597 -4.72559e-19)
(0.161766 -0.180596 -5.11751e-19)
(0.144344 -0.0716729 0)
(0.183024 -0.11678 4.384e-20)
(0.0711745 0.0184168 7.06449e-20)
(0.127678 0.194946 -8.67802e-20)
(0.0749858 -0.141016 1.18259e-18)
(0.0489212 -0.120875 8.38202e-21)
(0.126768 -0.186505 9.3504e-19)
(0.108609 -0.182086 9.92574e-19)
(0.151564 -0.187857 1.78756e-19)
(0.139326 -0.198288 -1.08298e-20)
(0.159999 -0.139971 -4.2093e-21)
(0.151053 -0.173431 -2.43525e-19)
(0.164611 -0.0490981 1.13842e-19)
(0.172067 -0.0999233 4.384e-20)
(0.138293 0.0215699 7.06449e-20)
(0.175314 0.156325 -1.15502e-19)
(0.0775398 -0.157457 -2.3759e-19)
(0.0546432 -0.140598 -5.06318e-19)
(0.11973 -0.193181 8.92156e-20)
(0.104265 -0.192105 4.63387e-20)
(0.141863 -0.186114 -4.25402e-19)
(0.13034 -0.201253 -2.46081e-19)
(0.15549 -0.133753 -1.96813e-19)
(0.144667 -0.171082 1.67095e-19)
(0.175979 -0.042783 0)
(0.169277 -0.0964899 -1.12469e-19)
(0.178009 0.0118097 -2.25398e-21)
(0.213152 0.114482 -2.97901e-20)
(0.0779243 -0.171682 -2.53772e-19)
(0.057861 -0.157958 2.25176e-19)
(0.113744 -0.199438 -2.76047e-19)
(0.0999328 -0.200185 -1.20946e-19)
(0.135253 -0.187665 3.32229e-19)
(0.123429 -0.205109 -1.35134e-20)
(0.154488 -0.135133 2.59034e-19)
(0.141366 -0.173289 1.67599e-19)
(0.186577 -0.0498485 -1.1089e-19)
(0.171404 -0.102844 4.89849e-20)
(0.204329 -0.00890278 -2.25398e-21)
(0.240597 0.072639 -2.97874e-20)
(0.0772056 -0.183848 3.78038e-19)
(0.059485 -0.173145 8.87626e-21)
(0.108635 -0.205464 1.37003e-19)
(0.0958136 -0.207098 1.81138e-21)
(0.130741 -0.192006 -1.84123e-19)
(0.117814 -0.210101 4.82976e-20)
(0.155695 -0.142664 -3.83632e-20)
(0.139833 -0.179588 -1.90561e-19)
(0.196779 -0.0664907 1.6551e-19)
(0.175747 -0.116422 1.35957e-19)
(0.223249 -0.0368508 -7.63906e-21)
(0.260182 0.0302063 1.53232e-20)
(0.0759718 -0.194381 -3.66887e-19)
(0.0602504 -0.186251 -2.31461e-19)
(0.104082 -0.211538 -8.88227e-20)
(0.091795 -0.213249 -1.29552e-19)
(0.127407 -0.198827 4.99293e-20)
(0.112937 -0.21629 2.35108e-20)
(0.157805 -0.15504 -2.49579e-20)
(0.139055 -0.189423 -1.80842e-20)
(0.205901 -0.0895859 -3.3229e-20)
(0.180547 -0.135331 -8.91809e-21)
(0.237357 -0.0694423 -9.41942e-21)
(0.274677 -0.0128334 -8.90853e-21)
(0.0744271 -0.203501 0)
(0.0606294 -0.19724 1.84424e-21)
(0.0997335 -0.217841 -2.37258e-20)
(0.0876152 -0.218862 -1.17964e-19)
(0.12459 -0.207839 -4.31097e-20)
(0.108386 -0.223618 -4.72779e-20)
(0.159894 -0.171243 -2.28276e-21)
(0.138304 -0.2022 7.55756e-20)
(0.213517 -0.117065 1.54435e-20)
(0.184807 -0.158192 3.29993e-20)
(0.247928 -0.105125 -8.78321e-21)
(0.285717 -0.0563117 -8.90633e-22)
(0.0726487 -0.211264 -1.09208e-19)
(0.0608026 -0.206005 -1.82728e-21)
(0.0952827 -0.224422 -1.44522e-19)
(0.0830748 -0.224053 5.29514e-21)
(0.121751 -0.218699 6.72436e-20)
(0.103772 -0.231936 -2.79948e-20)
(0.161349 -0.190435 1.12063e-19)
(0.137051 -0.217345 2.02297e-20)
(0.219476 -0.147596 9.78181e-21)
(0.187941 -0.184012 1.62278e-20)
(0.255715 -0.142988 -7.00285e-21)
(0.294217 -0.100177 -6.65761e-20)
(0.0705618 -0.217631 1.12254e-19)
(0.0606667 -0.212428 4.71677e-19)
(0.0904799 -0.231237 1.23195e-19)
(0.0780381 -0.22886 1.16079e-19)
(0.118461 -0.231041 -7.66493e-20)
(0.0987654 -0.241037 -2.68548e-20)
(0.161749 -0.21193 -7.55051e-20)
(0.134885 -0.234321 -5.53352e-20)
(0.223695 -0.180364 0)
(0.189583 -0.212061 1.53563e-20)
(0.261162 -0.182519 -1.2487e-19)
(0.300728 -0.144525 6.25437e-20)
(0.0679916 -0.222534 4.96184e-19)
(0.059976 -0.216423 1.49125e-20)
(0.0851301 -0.238184 -2.79215e-20)
(0.0724152 -0.233264 -1.43141e-20)
(0.114381 -0.244491 -4.73068e-21)
(0.0931013 -0.250672 -2.13559e-20)
(0.160777 -0.235162 3.35442e-20)
(0.131483 -0.252623 1.81107e-20)
(0.22611 -0.214859 -1.05966e-19)
(0.189476 -0.241777 4.56291e-20)
(0.264513 -0.22345 -4.26734e-20)
(0.305589 -0.189534 -1.45621e-19)
(0.0646975 -0.225935 -4.93505e-19)
(0.0584532 -0.217941 4.29417e-19)
(0.0790907 -0.245107 -7.44886e-21)
(0.0661572 -0.237204 -4.52378e-19)
(0.109251 -0.25867 0)
(0.0865917 -0.260545 0)
(0.158182 -0.259644 2.9424e-20)
(0.126583 -0.271762 0)
(0.226647 -0.250729 1.11569e-19)
(0.18741 -0.272705 3.02728e-20)
(0.265871 -0.265657 8.22561e-20)
(0.308994 -0.235414 9.59255e-20)
(0.0606925 -0.227742 5.21115e-19)
(0.0558656 -0.217012 -9.64027e-19)
(0.0722757 -0.251804 -4.64179e-19)
(0.0592536 -0.24054 3.36666e-20)
(0.102879 -0.273178 0)
(0.0791255 -0.270315 -3.85545e-22)
(0.153751 -0.284918 0)
(0.119981 -0.291238 -1.77219e-20)
(0.225204 -0.287712 0)
(0.183191 -0.304424 -2.96289e-20)
(0.265234 -0.30909 2.72475e-20)
(0.311051 -0.282402 2.95313e-20)
(0.0557824 -0.227915 -1.50899e-18)
(0.0520651 -0.213676 -9.18385e-19)
(0.0646462 -0.258022 4.98569e-19)
(0.0517618 -0.243087 9.81129e-19)
(0.0951459 -0.287571 -1.73914e-20)
(0.0706761 -0.279582 -2.19132e-20)
(0.147297 -0.310517 -4.7017e-20)
(0.111533 -0.310497 -2.98277e-19)
(0.221651 -0.325578 -3.97709e-21)
(0.176621 -0.336494 -2.68961e-19)
(0.26249 -0.353709 2.72475e-20)
(0.311797 -0.330753 -1.74758e-19)
(0.0499242 -0.226391 1.46295e-18)
(0.047027 -0.207974 9.21068e-19)
(0.0562792 -0.263434 5.02535e-19)
(0.0438292 -0.244591 1.89648e-20)
(0.0860071 -0.301334 -2.93332e-19)
(0.0613084 -0.287859 -2.15276e-20)
(0.138665 -0.335915 -5.21043e-19)
(0.10116 -0.32889 3.74665e-20)
(0.215802 -0.364057 -2.4507e-19)
(0.167481 -0.36838 -2.91001e-20)
(0.257406 -0.399435 -2.0743e-19)
(0.311196 -0.380713 2.63664e-19)
(0.043247 -0.223045 -4.70965e-19)
(0.0409058 -0.199919 -4.41766e-20)
(0.0473271 -0.267627 -5.03909e-19)
(0.0356967 -0.244691 -4.67843e-19)
(0.0754953 -0.313842 3.07276e-19)
(0.0511866 -0.29455 -4.36018e-20)
(0.127717 -0.360455 5.30946e-19)
(0.0888302 -0.345629 3.54394e-19)
(0.207408 -0.402779 1.2808e-20)
(0.155523 -0.399374 2.10226e-19)
(0.249605 -0.446085 9.80052e-22)
(0.309162 -0.432504 -2.96949e-19)
(0.0360156 -0.217673 -1.75781e-20)
(0.034092 -0.189431 9.185e-19)
(0.0380441 -0.270063 -2.55893e-20)
(0.0276979 -0.242893 -4.98188e-19)
(0.063723 -0.324329 -1.044e-20)
(0.0405697 -0.298926 -8.84463e-20)
(0.114327 -0.383292 3.73939e-20)
(0.0745567 -0.359751 7.35906e-20)
(0.196169 -0.441198 2.03703e-19)
(0.140459 -0.428513 0)
(0.238638 -0.493464 5.00392e-21)
(0.305894 -0.486091 2.96424e-19)
(0.0286725 -0.209933 5.18657e-19)
(0.0272513 -0.176265 -9.90304e-19)
(0.0287679 -0.270052 -5.78481e-19)
(0.0202329 -0.238535 -4.97248e-19)
(0.0508671 -0.331843 -1.11202e-20)
(0.0297886 -0.300112 -4.48445e-20)
(0.0983685 -0.403315 3.82599e-20)
(0.0583828 -0.370099 3.45092e-22)
(0.18154 -0.478456 -1.98819e-19)
(0.121971 -0.454408 2.79766e-19)
(0.223451 -0.540551 3.77937e-21)
(0.300052 -0.54222 -2.37554e-19)
(0.0218267 -0.199288 -2.03613e-18)
(0.0212982 -0.159966 -1.03644e-18)
(0.0198718 -0.266732 1.71543e-20)
(0.0137115 -0.230783 1.20371e-18)
(0.0371412 -0.335247 -3.56257e-20)
(0.0192081 -0.297103 -2.51447e-20)
(0.0797121 -0.419088 2.34382e-19)
(0.0403646 -0.375348 4.02517e-20)
(0.162979 -0.513117 4.88939e-19)
(0.0998077 -0.475166 -4.41041e-20)
(0.202821 -0.586363 1.60498e-19)
(0.292151 -0.600182 2.41912e-19)
(0.0161706 -0.184961 2.07033e-18)
(0.0172277 -0.139963 1.87586e-18)
(0.0117063 -0.259091 1.21263e-18)
(0.00848281 -0.218633 1.18638e-18)
(0.0227823 -0.333251 4.85234e-20)
(0.00918343 -0.28881 -2.51447e-20)
(0.0582488 -0.428819 -2.35818e-19)
(0.0205675 -0.374098 7.71231e-20)
(0.139685 -0.543156 -3.77042e-19)
(0.0738811 -0.488137 -3.23471e-19)
(0.174413 -0.629384 -9.32905e-20)
(0.281215 -0.66003 3.20083e-20)
(0.0123511 -0.166067 1.03019e-18)
(0.015721 -0.115996 1.18757e-20)
(0.00461974 -0.246118 5.004e-22)
(0.00477545 -0.200954 -6.62209e-19)
(0.00817345 -0.324579 0)
(6.36736e-05 -0.274103 0)
(0.0340228 -0.430344 0)
(-0.000834101 -0.364985 4.2219e-19)
(0.110388 -0.565394 -4.52378e-20)
(0.0447546 -0.489245 2.57923e-19)
(0.13289 -0.668761 -4.63489e-20)
(0.265622 -0.722165 1.70923e-22)
(0.0111018 -0.142258 -1.63748e-18)
(0.0168461 -0.088661 -9.9222e-19)
(-0.000775764 -0.227086 -6.90226e-19)
(0.0030046 -0.176167 -6.39851e-19)
(-0.00573376 -0.308164 4.07927e-19)
(-0.00746628 -0.251462 4.68723e-19)
(0.00788452 -0.420917 6.83958e-19)
(-0.0229606 -0.346506 4.36065e-19)
(0.0730214 -0.574968 2.64107e-19)
(0.0146837 -0.471046 -1.09889e-19)
(0.0628029 -0.709654 -1.98794e-19)
(0.240674 -0.791047 1.04798e-19)
(0.0136905 -0.113491 -1.55671e-20)
(0.0219924 -0.0570014 -3.23765e-20)
(-0.00304086 -0.200747 4.71925e-19)
(0.00665213 -0.137858 2.22024e-20)
(-0.0170239 -0.282383 4.8205e-19)
(-0.00998719 -0.215047 4.72384e-19)
(-0.0175135 -0.395009 -3.45319e-19)
(-0.0419112 -0.31504 1.45664e-21)
(0.0237954 -0.565925 -6.32096e-19)
(-0.0107539 -0.416166 -2.70869e-19)
(-0.085083 -0.785663 -7.60211e-20)
(0.187932 -0.887012 -3.43601e-19)
(0.0222086 -0.0720246 0)
(-0.000499984 -0.154011 1.04009e-21)
(-0.0291658 -0.236201 2.0309e-21)
(-0.0263831 -0.337095 9.00122e-20)
(-0.0404505 -0.564535 4.52762e-19)
(0.0864711 -1.08415 2.46692e-19)
(0.531907 0.4748 3.49965e-19)
(0.337859 0.472673 1.15488e-19)
(0.485628 0.573952 2.96512e-19)
(0.685393 0.400288 -1.2314e-19)
(0.611782 0.40177 4.95493e-20)
(0.691918 0.451837 -1.06611e-19)
(0.768324 0.330504 -3.52631e-19)
(0.711353 0.342869 -1.66984e-19)
(0.764923 0.38068 1.56317e-19)
(0.820435 0.272436 -3.32706e-19)
(0.781334 0.280662 -2.75693e-19)
(0.821669 0.310267 -3.50423e-20)
(0.857853 0.228392 -2.25398e-20)
(0.827124 0.233415 -7.68069e-20)
(0.858742 0.258055 -2.67198e-19)
(0.887094 0.195515 1.2534e-19)
(0.862071 0.197867 6.32597e-20)
(0.887924 0.219044 2.34493e-19)
(0.910961 0.170498 4.86601e-20)
(0.889926 0.171262 -5.60626e-20)
(0.911739 0.189917 0)
(0.930753 0.150655 9.19298e-20)
(0.91287 0.150522 -9.46233e-20)
(0.931684 0.167218 2.25445e-19)
(0.947219 0.134208 -3.17564e-20)
(0.931919 0.133653 4.25391e-20)
(0.948376 0.14874 -3.92355e-20)
(0.96089 0.120058 -6.21733e-21)
(0.947781 0.119334 -1.93589e-19)
(0.962291 0.133036 -2.53595e-21)
(0.972191 0.10757 7.17148e-20)
(0.960974 0.106816 1.44302e-19)
(0.973821 0.119269 2.4408e-21)
(0.981464 0.0963452 0)
(0.971884 0.095675 6.67026e-20)
(0.983274 0.106977 0)
(0.988969 0.0860769 -5.80573e-20)
(0.980837 0.0855865 -9.00266e-22)
(0.990923 0.0958107 1.17169e-19)
(0.994903 0.076516 -3.8081e-21)
(0.988076 0.0762851 -5.98507e-20)
(0.996975 0.0854893 -2.81389e-19)
(0.999421 0.0674634 3.23385e-21)
(0.99379 0.0675511 1.33262e-23)
(1.00159 0.0757817 1.10316e-19)
(1.00266 0.0587798 4.65727e-20)
(0.998131 0.0592169 -2.73567e-20)
(1.00489 0.0665098 -3.13449e-21)
(1.00474 0.0503964 4.59074e-21)
(1.00123 0.0511829 1.01093e-19)
(1.007 0.0575646 5.14326e-20)
(1.00581 0.0423098 -9.86936e-20)
(1.00323 0.0434243 -1.23415e-19)
(1.00803 0.0489139 -3.02588e-21)
(1.00598 0.0345513 -4.46773e-20)
(1.00426 0.0359626 7.23177e-20)
(1.00813 0.0405752 0)
(1.00538 0.0271395 -4.52658e-20)
(1.00451 0.0288032 -1.15157e-19)
(1.00749 0.0325472 -3.07594e-23)
(1.00409 0.020057 0)
(1.00411 0.0219302 6.76547e-20)
(1.00625 0.024809 4.21135e-20)
(1.00219 0.013315 0)
(1.00272 0.015514 -6.55148e-20)
(1.00398 0.0176029 0)
(0.999961 0.0073408 0)
(0.999391 0.0101087 -8.53944e-20)
(0.999417 0.0117235 0)
(0.995532 0.00570791 2.25047e-19)
(0.994609 0.00749219 -3.59724e-20)
(0.468107 0.3875 -1.0657e-19)
(0.3167 0.370207 -2.88779e-19)
(0.629942 0.347465 0)
(0.559746 0.338493 5.73609e-20)
(0.725163 0.292214 -8.43076e-20)
(0.66859 0.295846 -5.22095e-20)
(0.786467 0.242226 -2.19178e-20)
(0.74643 0.244816 -1.14127e-21)
(0.830377 0.203297 7.39545e-21)
(0.798888 0.204269 2.5703e-20)
(0.864193 0.173932 -1.17697e-19)
(0.838629 0.173261 -9.42216e-20)
(0.891409 0.151483 -1.99149e-19)
(0.870016 0.149848 -5.60626e-20)
(0.913776 0.133647 -1.45939e-19)
(0.895654 0.131526 -9.52479e-20)
(0.932321 0.118865 -1.16666e-19)
(0.916858 0.116606 0)
(0.94774 0.106165 -4.68062e-20)
(0.934516 0.103946 -7.8134e-20)
(0.960554 0.0949903 1.40051e-19)
(0.949251 0.0929058 1.46933e-19)
(0.971166 0.0849778 6.64492e-20)
(0.961514 0.0831158 -3.78631e-20)
(0.979879 0.075846 -2.05979e-21)
(0.971675 0.0742817 -9.00266e-22)
(0.986922 0.0673622 -5.652e-20)
(0.980014 0.0661604 -1.19516e-21)
(0.992475 0.0593408 -3.03656e-20)
(0.986747 0.0585496 -5.57801e-20)
(0.99669 0.051654 2.62621e-20)
(0.992046 0.0512958 -1.82602e-21)
(0.99971 0.0442414 -2.52181e-20)
(0.99606 0.044309 5.35566e-20)
(1.00168 0.0371034 4.62364e-20)
(0.998926 0.0375686 1.02701e-19)
(1.00272 0.0302678 2.8998e-21)
(1.00079 0.0310949 -2.69498e-21)
(1.00297 0.023746 -3.40927e-21)
(1.00184 0.0248942 -9.38581e-20)
(1.00252 0.0175197 2.23249e-21)
(1.00219 0.018948 -2.00484e-21)
(1.00146 0.0116108 -1.50791e-19)
(1.0016 0.013359 1.91001e-21)
(0.999943 0.00618391 1.21721e-19)
(0.999399 0.00850447 -1.72438e-19)
(0.996563 0.00428394 2.27376e-19)
(0.438798 0.309823 -1.26865e-19)
(0.318357 0.279098 -2.14298e-19)
(0.591751 0.289618 9.61298e-22)
(0.526477 0.273298 8.9151e-20)
(0.690683 0.248297 3.03675e-20)
(0.636453 0.244721 -5.22095e-20)
(0.757559 0.207472 4.67149e-20)
(0.717883 0.204927 8.51309e-20)
(0.806245 0.174634 -7.35305e-20)
(0.774815 0.171722 3.62752e-20)
(0.843765 0.149466 -3.36031e-20)
(0.818189 0.145817 6.16642e-23)
(0.873841 0.130063 4.84643e-20)
(0.852463 0.126026 8.72235e-20)
(0.898479 0.114592 4.96804e-20)
(0.880399 0.110459 -5.37973e-20)
(0.918891 0.101758 3.9476e-20)
(0.903493 0.0977645 4.66868e-20)
(0.935896 0.0907464 1.13217e-19)
(0.922749 0.0869966 8.08908e-20)
(0.950091 0.0810892 -2.91228e-20)
(0.938863 0.0776398 7.27241e-20)
(0.961926 0.0724704 -1.05535e-19)
(0.952341 0.0693803 -6.98313e-20)
(0.971741 0.0646378 0)
(0.963588 0.0619613 0)
(0.979796 0.0573812 0)
(0.972916 0.0551672 -3.13386e-20)
(0.986291 0.0505328 -2.76351e-20)
(0.980562 0.0488176 -5.88463e-20)
(0.991395 0.0439773 2.50383e-20)
(0.986719 0.0427755 2.90264e-20)
(0.995261 0.037661 1.8115e-19)
(0.991546 0.0369603 -7.4104e-22)
(0.998034 0.0315829 5.45987e-20)
(0.995188 0.0313515 1.54346e-19)
(0.999856 0.0257628 -9.90298e-20)
(0.997795 0.0259639 -7.49837e-20)
(1.00085 0.0202018 -9.30472e-20)
(0.999536 0.0208013 -2.37041e-20)
(1.00111 0.0148755 -2.55026e-21)
(1.00053 0.0158428 -6.96377e-20)
(1.00075 0.00979954 -1.87128e-20)
(1.00064 0.0111373 4.44522e-20)
(0.999913 0.00510396 -9.69913e-20)
(0.999407 0.00691362 1.4146e-21)
(0.997567 0.00314802 -7.72427e-20)
(0.423854 0.237355 -2.08132e-20)
(0.325729 0.201086 -5.62965e-20)
(0.565448 0.230808 3.24559e-20)
(0.505009 0.210131 3.17901e-20)
(0.664127 0.201602 0)
(0.613029 0.192424 0)
(0.73395 0.169772 7.56238e-20)
(0.695417 0.162778 -9.4953e-20)
(0.785873 0.14329 1.10905e-19)
(0.755086 0.136826 7.691e-20)
(0.826204 0.122638 1.19992e-19)
(0.801046 0.116168 1.03387e-19)
(0.858597 0.106573 -1.33071e-20)
(0.837562 0.100205 -2.55256e-21)
(0.885155 0.0937219 -5.80602e-20)
(0.867372 0.0876045 -1.29034e-19)
(0.907186 0.0830621 8.7721e-20)
(0.892059 0.0773387 9.38996e-20)
(0.925579 0.0739397 4.05528e-20)
(0.912688 0.0686559 8.36716e-20)
(0.940987 0.0659773 3.35315e-20)
(0.929993 0.0611544 -7.83403e-20)
(0.953901 0.058911 3.51023e-20)
(0.944522 0.0545794 3.55782e-20)
(0.96469 0.0525226 -3.10634e-20)
(0.95671 0.0487153 0)
(0.973636 0.0466281 -8.99555e-20)
(0.966893 0.0433773 3.17774e-20)
(0.980962 0.0410803 -2.9508e-21)
(0.97533 0.0384107 -5.88463e-20)
(0.986848 0.035777 3.42797e-21)
(0.982226 0.0336966 5.68827e-20)
(0.991454 0.0306686 -2.86959e-20)
(0.987753 0.0291626 -1.09476e-19)
(0.994932 0.0257493 2.63938e-20)
(0.99206 0.0247851 1.59377e-19)
(0.997424 0.0210298 0)
(0.995296 0.0205702 -5.15686e-20)
(0.999056 0.0165047 0)
(0.997621 0.0165176 0)
(0.999935 0.0121487 -2.2817e-20)
(0.999159 0.0126067 0)
(1.00016 0.00797215 6.48359e-20)
(0.999844 0.00885236 2.32234e-20)
(0.999866 0.00408207 1.77495e-20)
(0.999425 0.00538585 -1.15945e-21)
(0.998431 0.0022397 9.06094e-22)
(0.416597 0.171262 -2.10623e-20)
(0.333765 0.132805 -2.19206e-21)
(0.54761 0.173355 0)
(0.491379 0.149841 -3.22161e-20)
(0.644302 0.153969 -9.31873e-20)
(0.596416 0.140379 1.42973e-20)
(0.715373 0.130351 -9.65408e-20)
(0.678378 0.119545 -4.18205e-22)
(0.769345 0.110049 6.89898e-20)
(0.739579 0.100397 0)
(0.81171 0.0939645 -1.74968e-20)
(0.7873 0.0848741 3.12738e-22)
(0.845903 0.0813716 -1.16696e-19)
(0.825486 0.0727887 -2.9503e-20)
(0.874016 0.0713005 2.0196e-20)
(0.85676 0.0632672 5.15952e-22)
(0.897394 0.062983 8.99639e-20)
(0.882729 0.0555675 2.44055e-20)
(0.91696 0.0559121 -3.34621e-20)
(0.904487 0.0491158 9.75555e-23)
(0.933398 0.0497936 -7.74491e-20)
(0.92278 0.0436094 -3.84053e-20)
(0.947226 0.0444143 7.70129e-22)
(0.938182 0.0388469 7.63057e-22)
(0.958838 0.0395932 6.25923e-20)
(0.951151 0.0346538 3.36897e-20)
(0.968539 0.0351763 6.36734e-20)
(0.962041 0.0308801 -3.27121e-20)
(0.976565 0.0310394 0)
(0.971128 0.0273996 3.06335e-20)
(0.983109 0.0270935 -5.47597e-20)
(0.978632 0.0241126 -2.90151e-20)
(0.988336 0.0232907 7.66259e-20)
(0.98473 0.0209539 -2.7047e-20)
(0.992399 0.0196178 8.29081e-20)
(0.989576 0.0178944 1.33193e-19)
(0.995445 0.0160757 -5.19126e-20)
(0.993318 0.014929 3.55002e-22)
(0.997602 0.0126548 0)
(0.99611 0.0120522 -5.02784e-20)
(0.998983 0.00933301 4.59323e-20)
(0.998076 0.00924593 0)
(0.999686 0.00611933 -4.2591e-20)
(0.999221 0.0065086 2.29906e-20)
(0.999825 0.00310007 -1.48606e-20)
(0.999447 0.00391169 -8.96176e-20)
(0.999121 0.00151043 8.04782e-20)
(0.413518 0.110047 -9.67938e-21)
(0.341094 0.0711156 1.83771e-20)
(0.53588 0.117805 -1.8176e-20)
(0.483186 0.0922362 -3.22161e-20)
(0.630037 0.106321 1.07186e-19)
(0.585126 0.0891681 1.42973e-20)
(0.701385 0.0900065 9.59562e-20)
(0.666086 0.075906 8.25885e-20)
(0.75658 0.0755107 -6.86859e-20)
(0.728064 0.0630013 2.0888e-20)
(0.800363 0.0638902 -1.12609e-20)
(0.776942 0.0523878 -9.69592e-20)
(0.835897 0.0547987 8.74121e-20)
(0.816323 0.0441451 6.0295e-20)
(0.86521 0.0475999 4.39497e-21)
(0.848683 0.0377523 2.66854e-20)
(0.889651 0.0417414 -6.52467e-20)
(0.875627 0.0327045 -2.28356e-20)
(0.910159 0.0368453 -4.44564e-21)
(0.898259 0.0285846 -4.26314e-20)
(0.927431 0.0326896 3.94207e-20)
(0.917326 0.0251753 5.86697e-20)
(0.941999 0.0291074 3.33775e-20)
(0.933413 0.0223239 -3.67841e-20)
(0.954276 0.0259558 -6.10284e-20)
(0.946993 0.0198959 3.40181e-20)
(0.964581 0.0231129 -6.63406e-20)
(0.958432 0.0177752 -7.95964e-20)
(0.973165 0.0204787 2.09218e-21)
(0.96802 0.0158646 3.06335e-20)
(0.980228 0.0179779 -1.34554e-21)
(0.975986 0.0140851 -1.43924e-20)
(0.985943 0.0155631 2.83349e-20)
(0.982516 0.0123789 6.87752e-21)
(0.990464 0.0132118 5.15629e-20)
(0.987766 0.0107098 0)
(0.993938 0.0109145 2.28573e-21)
(0.991884 0.0090595 4.53569e-20)
(0.996499 0.0086594 -5.06009e-20)
(0.995018 0.00741637 -5.02784e-20)
(0.99826 0.00643012 -2.31122e-20)
(0.997295 0.00576643 0)
(0.999323 0.00423597 -2.33943e-20)
(0.998774 0.00410483 2.82852e-22)
(0.99979 0.00214102 0)
(0.999464 0.00246982 -1.708e-20)
(0.999611 0.00091236 -5.11049e-21)
(0.412952 0.0525125 0)
(0.347681 0.013834 1.23467e-21)
(0.528665 0.0640733 0)
(0.478862 0.0368269 8.21458e-21)
(0.620388 0.0590544 -1.15702e-20)
(0.578105 0.038901 0)
(0.691546 0.0492059 8.6106e-21)
(0.657966 0.0321973 -1.17895e-20)
(0.747435 0.0400943 -5.66683e-21)
(0.720296 0.0250062 2.0888e-20)
(0.792167 0.0327802 -2.75924e-20)
(0.769897 0.0190664 -9.27216e-21)
(0.828646 0.0271755 0)
(0.810081 0.0146048 5.80507e-21)
(0.85883 0.0228951 0)
(0.843198 0.0113512 -1.74635e-21)
(0.884058 0.0195668 0)
(0.870835 0.00899882 2.97532e-21)
(0.905271 0.0169269 1.94274e-20)
(0.894096 0.00727276 -8.22129e-21)
(0.923169 0.0148182 -1.65829e-20)
(0.913717 0.00602899 2.21716e-20)
(0.938295 0.0131174 -3.68101e-20)
(0.930294 0.00515909 -3.44729e-20)
(0.951068 0.0117169 1.64604e-20)
(0.944305 0.00456509 -1.82635e-21)
(0.96182 0.0105257 1.64215e-20)
(0.956127 0.00416374 1.62857e-20)
(0.970811 0.00946831 1.45066e-20)
(0.966059 0.0038868 -1.92648e-21)
(0.978249 0.00848358 -6.34407e-21)
(0.974336 0.00367697 1.46227e-20)
(0.98431 0.00752412 -2.14076e-20)
(0.98115 0.00348341 -1.59603e-20)
(0.989152 0.00655713 -6.52109e-21)
(0.986661 0.00326241 0)
(0.992923 0.00556247 -6.61052e-21)
(0.991018 0.00298158 3.27459e-21)
(0.995758 0.00452675 0)
(0.994365 0.0026218 -4.76257e-21)
(0.997777 0.00344101 2.33933e-20)
(0.996832 0.00217386 0)
(0.999079 0.00231504 6.78597e-21)
(0.998513 0.00163723 2.35387e-20)
(0.999763 0.00118945 -2.22593e-20)
(0.999472 0.00103292 -2.41502e-20)
(0.999878 0.000394967 -5.11769e-21)
(0.41409 -0.00238141 9.28192e-21)
(0.353674 -0.0405601 -6.93097e-20)
(0.524942 0.0118185 8.38661e-21)
(0.477429 -0.0169469 2.11942e-23)
(0.614658 0.0122486 0)
(0.574638 -0.010556 0)
(0.685486 0.00818111 0)
(0.653566 -0.0114622 1.19415e-20)
(0.741739 0.00409795 1.7668e-20)
(0.716026 -0.0133512 -1.08948e-20)
(0.787057 0.000955755 2.39146e-20)
(0.766038 -0.0148041 9.12032e-21)
(0.824154 -0.0011925 4.15237e-21)
(0.806719 -0.0155532 -2.1337e-20)
(0.854925 -0.00254069 1.17266e-21)
(0.840321 -0.0156819 2.55991e-20)
(0.88069 -0.0033015 -5.11369e-21)
(0.868406 -0.015322 -2.13329e-20)
(0.90238 -0.00363517 -5.79822e-21)
(0.892068 -0.0146186 1.6445e-20)
(0.920699 -0.00364144 4.85283e-21)
(0.912034 -0.0136529 2.25625e-20)
(0.936189 -0.00340498 1.97862e-22)
(0.928905 -0.0124944 -1.84695e-20)
(0.949281 -0.00300011 -2.17361e-21)
(0.943165 -0.0112081 -8.54308e-21)
(0.960313 -0.00248732 -1.91041e-21)
(0.955197 -0.00984591 8.18408e-21)
(0.969552 -0.0019165 -1.94178e-21)
(0.965305 -0.00844668 1.53077e-20)
(0.977212 -0.00133426 5.25738e-21)
(0.973732 -0.0070456 -2.94747e-20)
(0.983471 -0.000787906 5.33595e-21)
(0.980675 -0.00568495 2.12859e-20)
(0.988491 -0.00032125 9.77691e-21)
(0.986295 -0.00441551 -1.35935e-20)
(0.992421 3.39598e-05 5.1784e-21)
(0.990745 -0.0032847 2.30281e-20)
(0.995399 0.000262552 -4.79312e-21)
(0.994169 -0.00232098 -3.17904e-21)
(0.997547 0.000363675 0)
(0.996701 -0.00152918 1.22118e-20)
(0.998963 0.000347044 -7.03031e-21)
(0.998443 -0.000897928 -3.68743e-23)
(0.999744 0.000230187 -7.12117e-21)
(0.999467 -0.000419633 -2.84853e-20)
(0.99992 -9.95004e-05 2.04597e-20)
(0.416459 -0.0555319 -8.02232e-20)
(0.359162 -0.0932002 4.5303e-21)
(0.524064 -0.0393837 -8.35531e-21)
(0.478286 -0.0696539 -2.41111e-20)
(0.612356 -0.0341823 1.17195e-20)
(0.574244 -0.0594554 2.83744e-20)
(0.682878 -0.0329383 1.37447e-21)
(0.652529 -0.0550669 -4.97553e-20)
(0.739289 -0.0322342 -1.97466e-20)
(0.715028 -0.0519207 -1.08948e-20)
(0.784931 -0.0313168 -3.56564e-20)
(0.765252 -0.0490186 -4.50334e-20)
(0.822393 -0.0300564 -4.97977e-22)
(0.806207 -0.0461125 -4.23628e-20)
(0.853517 -0.0284811 3.65313e-21)
(0.840071 -0.0431337 1.40583e-20)
(0.879597 -0.0266591 -1.85681e-22)
(0.868386 -0.0400553 -2.38652e-20)
(0.901556 -0.0246579 4.47391e-20)
(0.892239 -0.036901 -1.83089e-20)
(0.920096 -0.0225278 -3.58157e-22)
(0.912347 -0.033699 2.01356e-20)
(0.935765 -0.0203191 -2.73026e-20)
(0.929318 -0.030484 -2.11766e-20)
(0.948997 -0.0180744 1.66207e-21)
(0.943643 -0.0272894 -4.08741e-20)
(0.960136 -0.0158242 2.53435e-20)
(0.955707 -0.0241366 8.18408e-21)
(0.969454 -0.0135933 -1.18486e-20)
(0.965818 -0.0210364 1.72349e-20)
(0.97717 -0.0114127 -1.38455e-20)
(0.974226 -0.0180021 -2.94747e-20)
(0.983468 -0.00932795 2.61007e-21)
(0.981131 -0.0150657 1.5989e-20)
(0.988513 -0.00739318 -5.94426e-22)
(0.986703 -0.0122821 -1.35935e-20)
(0.992456 -0.0056523 1.48442e-20)
(0.991094 -0.00971237 -1.29015e-20)
(0.995437 -0.00412353 1.37277e-20)
(0.994454 -0.00739483 5.2035e-20)
(0.997575 -0.00280032 1.22442e-20)
(0.996919 -0.00533194 -1.21637e-20)
(0.998976 -0.00167314 -2.13217e-20)
(0.998576 -0.00350678 3.5194e-20)
(0.999738 -0.00075435 -1.29582e-21)
(0.999455 -0.0019262 -6.69254e-20)
(0.999735 -0.000625752 2.04679e-20)
(0.419781 -0.107688 6.12615e-20)
(0.364218 -0.144989 7.50088e-20)
(0.525618 -0.0899655 1.18078e-20)
(0.481063 -0.121853 1.13775e-19)
(0.613116 -0.080381 -3.16117e-20)
(0.576612 -0.108097 9.3831e-22)
(0.683461 -0.0741065 -6.27285e-20)
(0.654623 -0.0986889 -6.11891e-20)
(0.739946 -0.0687728 -3.56629e-20)
(0.717175 -0.0906448 -2.17091e-20)
(0.78575 -0.0638756 -5.1722e-20)
(0.767499 -0.0834469 3.6812e-20)
(0.823381 -0.0592378 -2.84976e-20)
(0.808555 -0.0768996 4.80848e-20)
(0.85465 -0.0547446 -1.30077e-20)
(0.842483 -0.0708102 -1.32902e-20)
(0.880837 -0.0503301 -4.21099e-20)
(0.870824 -0.0650043 -4.69675e-20)
(0.902861 -0.045976 -4.33513e-20)
(0.894659 -0.0593861 1.09406e-19)
(0.921424 -0.0416888 -2.62044e-22)
(0.914707 -0.0539337 -2.03588e-20)
(0.93708 -0.0374863 -3.45516e-20)
(0.931584 -0.0486485 1.79611e-20)
(0.950267 -0.0333812 -3.47894e-20)
(0.945784 -0.0435334 -5.12787e-20)
(0.961335 -0.0293755 0)
(0.957698 -0.0385809 0)
(0.970558 -0.0254697 0)
(0.967638 -0.0337747 -3.01802e-20)
(0.978163 -0.0216782 0)
(0.975856 -0.0291058 -2.85547e-20)
(0.984337 -0.018042 0)
(0.982558 -0.024593 5.60063e-20)
(0.98925 -0.0146224 -2.5903e-20)
(0.987919 -0.0202913 2.66853e-20)
(0.993056 -0.0114746 2.38705e-20)
(0.992096 -0.016272 -2.60842e-20)
(0.995894 -0.00862192 2.65223e-20)
(0.995246 -0.0125838 5.04509e-20)
(0.997886 -0.00605369 1.04866e-20)
(0.997508 -0.0092295 -2.43755e-20)
(0.999137 -0.00376146 -9.5701e-21)
(0.998931 -0.00619356 3.52302e-20)
(0.99975 -0.00178147 -4.5775e-20)
(0.999451 -0.00351185 -4.55133e-20)
(0.99933 -0.00123839 0)
(0.423894 -0.159514 1.26593e-19)
(0.368913 -0.196681 0)
(0.529359 -0.140372 1.05557e-19)
(0.48557 -0.174093 2.67659e-22)
(0.616739 -0.126568 -2.7472e-20)
(0.581596 -0.156821 -2.74361e-20)
(0.687132 -0.115386 -2.09246e-20)
(0.659769 -0.142461 9.78419e-20)
(0.743681 -0.105472 4.98775e-20)
(0.722448 -0.129516 1.88844e-20)
(0.78952 -0.0965965 1.36685e-19)
(0.772791 -0.117985 -7.08175e-20)
(0.827146 -0.0885647 6.41166e-20)
(0.813787 -0.107755 9.5137e-20)
(0.858364 -0.0811361 -4.68484e-20)
(0.847593 -0.0985232 0)
(0.884454 -0.0741155 1.02635e-19)
(0.875758 -0.0899712 7.98599e-23)
(0.906337 -0.067398 1.3379e-19)
(0.899368 -0.0818805 1.09097e-19)
(0.924724 -0.0609453 -2.49099e-21)
(0.919153 -0.0741751 -2.04654e-20)
(0.940174 -0.0547434 1.89129e-21)
(0.935739 -0.0668207 1.83554e-20)
(0.953131 -0.0487759 -1.69373e-20)
(0.949625 -0.05979 1.70352e-20)
(0.963947 -0.0430175 -2.99285e-20)
(0.961207 -0.0530469 3.13435e-20)
(0.972903 -0.037444 -5.87852e-20)
(0.970799 -0.0465491 -8.96919e-20)
(0.980227 -0.0320512 2.67514e-20)
(0.978657 -0.0402644 2.89798e-20)
(0.986114 -0.0268714 8.29041e-20)
(0.98499 -0.0341953 2.87756e-20)
(0.990736 -0.0219686 2.68707e-20)
(0.989977 -0.0283912 6.89261e-23)
(0.99425 -0.017408 0)
(0.993782 -0.0229295 0)
(0.996796 -0.0132201 0)
(0.99657 -0.0178675 0)
(0.998496 -0.00939344 0)
(0.998486 -0.0132115 -9.50647e-20)
(0.999456 -0.00592235 0)
(0.999523 -0.00895998 1.14927e-19)
(0.999788 -0.00286639 0)
(0.999475 -0.0052026 0)
(0.998727 -0.001991 1.99131e-20)
(0.42875 -0.211621 -1.26381e-19)
(0.373341 -0.248941 3.5417e-20)
(0.535209 -0.191063 -1.32197e-19)
(0.491778 -0.22691 -1.62141e-19)
(0.62319 -0.173003 9.55568e-20)
(0.58921 -0.20599 -5.36606e-20)
(0.693896 -0.156857 1.3891e-19)
(0.668015 -0.186542 1.93171e-19)
(0.75052 -0.142279 -1.00775e-19)
(0.730907 -0.168541 -8.36469e-20)
(0.796276 -0.129344 -1.14253e-19)
(0.781184 -0.152536 -7.37242e-20)
(0.833722 -0.117858 3.22425e-20)
(0.821954 -0.13852 3.27768e-20)
(0.864692 -0.107458 4.69273e-20)
(0.855442 -0.126083 5.46723e-20)
(0.89048 -0.0978151 5.20555e-21)
(0.883224 -0.114755 -4.67023e-20)
(0.912019 -0.0887319 -4.375e-20)
(0.906399 -0.104186 -1.27029e-19)
(0.930028 -0.0801195 0)
(0.925717 -0.0942347 -7.51454e-20)
(0.945078 -0.0719296 3.35121e-20)
(0.941813 -0.0848269 3.69562e-20)
(0.957619 -0.0641158 6.51909e-20)
(0.955195 -0.0759022 1.32034e-19)
(0.968006 -0.0566258 -2.74104e-20)
(0.966263 -0.0673959 -6.26066e-20)
(0.976521 -0.0494109 -2.97701e-21)
(0.975333 -0.0592393 -5.95117e-20)
(0.983397 -0.0424462 3.09464e-20)
(0.982661 -0.0513769 2.97856e-20)
(0.988831 -0.0357507 -5.3846e-20)
(0.988459 -0.0437916 -8.45275e-23)
(0.993 -0.0293856 -2.67957e-20)
(0.992909 -0.0365216 -2.66108e-20)
(0.996065 -0.0234233 0)
(0.996181 -0.0296439 0)
(0.998167 -0.0179029 -9.44551e-20)
(0.998453 -0.0232214 -7.25729e-20)
(0.999425 -0.0128162 1.89329e-20)
(0.999875 -0.0172659 -9.48311e-20)
(0.999948 -0.00816284 1.15611e-19)
(1.00037 -0.0118068 1.82611e-19)
(0.999863 -0.00402472 1.97986e-20)
(0.999551 -0.00702177 0)
(0.997957 -0.00293334 -1.9583e-20)
(0.43441 -0.264579 5.16748e-21)
(0.377622 -0.302384 -2.12279e-19)
(0.543236 -0.242491 -8.58766e-20)
(0.499811 -0.280818 1.82164e-19)
(0.632567 -0.219947 3.93993e-20)
(0.599621 -0.255969 2.12966e-19)
(0.703858 -0.198601 -2.4907e-20)
(0.679527 -0.231087 4.73869e-20)
(0.760551 -0.179144 -5.70551e-20)
(0.742687 -0.20772 -4.24533e-20)
(0.806087 -0.161987 7.2045e-20)
(0.792781 -0.186996 -1.22116e-22)
(0.843163 -0.146941 5.50931e-20)
(0.833132 -0.169029 -1.7801e-19)
(0.873678 -0.133512 -3.77552e-20)
(0.866085 -0.15329 -4.84783e-20)
(0.898953 -0.121227 -1.7805e-19)
(0.893264 -0.139145 -4.74724e-20)
(0.919937 -0.109781 -1.59032e-19)
(0.915785 -0.126093 -4.17255e-20)
(0.937366 -0.0990268 -3.93593e-20)
(0.934424 -0.113913 -1.116e-19)
(0.951821 -0.0888754 1.34597e-19)
(0.949829 -0.102483 3.42061e-21)
(0.963759 -0.0792487 6.00001e-21)