/*--------------------------------*- C++ -*----------------------------------*\
  =========                 |
  \\      /  F ield         | OpenFOAM: The Open Source CFD Toolbox
   \\    /   O peration     | Website:  https://openfoam.org
    \\  /    A nd           | Version:  11
     \\/     M anipulation  |
\*---------------------------------------------------------------------------*/
FoamFile
{
    format      ascii;
    class       surfaceScalarField;
    location    "1.1";
    object      phi;
}
// * * * * * * * * * * * * * * * * * * * * * * * * * * * * * * * * * * * * * //

dimensions      [0 3 -1 0 0 0 0];

internalField   nonuniform List<scalar> 
5640
(
8.94319e-07
-8.94319e-07
1.86521e-06
-9.70895e-07
2.8088e-06
-9.43585e-07
3.70727e-06
-8.98467e-07
3.15515e-06
5.52118e-07
6.03659e-06
-2.88144e-06
1.01778e-06
-1.9121e-06
1.84383e-06
-1.79694e-06
2.45856e-06
-1.55831e-06
2.61463e-06
-1.05454e-06
3.40109e-07
2.82664e-06
1.10406e-05
-4.66386e-06
9.50173e-07
-2.86227e-06
1.5619e-06
-2.40867e-06
1.80581e-06
-1.80222e-06
1.08271e-06
-3.31437e-07
-1.54772e-06
5.45706e-06
1.49369e-05
-5.44407e-06
8.49564e-07
-3.71184e-06
1.22815e-06
-2.78725e-06
1.08687e-06
-1.66094e-06
-2.31745e-07
9.87177e-07
-2.90088e-06
8.1262e-06
1.78368e-05
-5.80079e-06
6.62366e-07
-4.3742e-06
8.55626e-07
-2.98051e-06
3.88562e-07
-1.19388e-06
-1.21778e-06
2.59352e-06
-3.66072e-06
1.05691e-05
1.99757e-05
-5.79965e-06
4.78909e-07
-4.85311e-06
4.95179e-07
-2.99678e-06
-1.93738e-07
-5.04964e-07
-1.85948e-06
4.25927e-06
-3.97045e-06
1.26801e-05
2.15384e-05
-5.53307e-06
3.12752e-07
-5.16587e-06
1.77125e-07
-2.86115e-06
-6.30659e-07
3.0282e-07
-2.2166e-06
5.84521e-06
-3.9649e-06
1.44284e-05
2.26523e-05
-5.07889e-06
1.66846e-07
-5.33271e-06
-8.48773e-08
-2.60943e-06
-9.35708e-07
1.15365e-06
-2.34966e-06
7.25916e-06
-3.73381e-06
1.58126e-05
2.34079e-05
-4.48937e-06
4.00026e-08
-5.37271e-06
-2.85812e-07
-2.28362e-06
-1.1138e-06
1.98164e-06
-2.30921e-06
8.45456e-06
-3.34075e-06
1.68441e-05
2.38657e-05
-3.79859e-06
-5.67244e-08
-5.31599e-06
-4.26961e-07
-1.91338e-06
-1.18252e-06
2.7372e-06
-2.13552e-06
9.40756e-06
-2.83219e-06
1.75408e-05
2.40632e-05
-3.02964e-06
-1.32447e-07
-5.18354e-06
-5.14389e-07
-1.53144e-06
-1.16163e-06
3.38444e-06
-1.86172e-06
1.01077e-05
-2.24383e-06
1.79229e-05
2.40209e-05
-2.20158e-06
-1.90663e-07
-4.99288e-06
-5.56127e-07
-1.16597e-06
-1.07054e-06
3.89885e-06
-1.51522e-06
1.05523e-05
-1.60163e-06
1.80093e-05
2.37509e-05
-1.33158e-06
-2.33654e-07
-4.75923e-06
-5.61167e-07
-8.38461e-07
-9.272e-07
4.26488e-06
-1.11934e-06
1.07445e-05
-9.25585e-07
1.78155e-05
2.326e-05
-4.3472e-07
-2.65351e-07
-4.49387e-06
-5.39048e-07
-5.64764e-07
-7.47986e-07
4.47382e-06
-6.9426e-07
1.06907e-05
-2.33302e-07
1.73546e-05
2.25495e-05
4.7722e-07
-2.90287e-07
-4.20359e-06
-4.99643e-07
-3.55408e-07
-5.48347e-07
4.52253e-06
-2.58026e-07
1.04004e-05
4.58423e-07
1.66381e-05
2.16148e-05
1.39311e-06
-3.13185e-07
-3.8904e-06
-4.53082e-07
-2.15511e-07
-3.434e-07
4.41285e-06
1.72769e-07
9.88425e-06
1.13716e-06
1.56737e-05
2.04503e-05
2.30167e-06
-3.38574e-07
-3.55183e-06
-4.0952e-07
-1.44565e-07
-1.47651e-07
4.15098e-06
5.82387e-07
9.15421e-06
1.78884e-06
1.44673e-05
1.90482e-05
3.19093e-06
-3.70369e-07
-3.18146e-06
-3.78747e-07
-1.36187e-07
2.37518e-08
3.74848e-06
9.54258e-07
8.22371e-06
2.39555e-06
1.3026e-05
1.73956e-05
4.04811e-06
-4.11353e-07
-2.77011e-06
-3.69751e-07
-1.77789e-07
1.52446e-07
3.22628e-06
1.26847e-06
7.10768e-06
2.93766e-06
1.13568e-05
1.54717e-05
4.86164e-06
-4.617e-07
-2.30841e-06
-3.90093e-07
-2.49397e-07
2.27652e-07
2.60854e-06
1.50398e-06
5.83136e-06
3.39407e-06
9.46672e-06
1.3248e-05
5.61771e-06
-5.15938e-07
-1.79247e-06
-4.4592e-07
-3.19415e-07
2.33327e-07
1.92929e-06
1.63915e-06
4.42554e-06
3.73637e-06
7.3695e-06
1.06875e-05
6.2969e-06
-5.62634e-07
-1.22983e-06
-5.44843e-07
-3.37206e-07
1.55178e-07
1.22927e-06
1.64965e-06
2.93107e-06
3.92088e-06
5.09827e-06
7.71613e-06
6.89224e-06
-6.20008e-07
-6.09825e-07
-6.98686e-07
-2.58528e-07
-6.73294e-09
5.37315e-07
1.49656e-06
1.42778e-06
3.94034e-06
2.65448e-06
4.19086e-06
7.46561e-06
-6.09825e-07
-8.68353e-07
-3.31038e-07
1.09674e-06
3.75122e-06
7.94208e-06
-3.60682e-06
3.29457e-05
-3.22203e-05
-6.77728e-06
3.33496e-05
-3.01791e-05
-9.39923e-06
3.02801e-05
-2.76581e-05
-1.17778e-05
2.72331e-05
-2.48545e-05
-1.40093e-05
2.46708e-05
-2.24394e-05
-1.6164e-05
2.26267e-05
-2.04719e-05
-1.8277e-05
2.09616e-05
-1.88487e-05
-2.0364e-05
1.95255e-05
-1.74384e-05
-2.24318e-05
1.82223e-05
-1.61545e-05
-2.44836e-05
1.69956e-05
-1.49438e-05
-2.65208e-05
1.58126e-05
-1.37754e-05
-2.85435e-05
1.46558e-05
-1.26331e-05
-3.05511e-05
1.35137e-05
-1.15061e-05
-3.25428e-05
1.2378e-05
-1.03863e-05
-3.45174e-05
1.12423e-05
-9.26773e-06
-3.64735e-05
1.01031e-05
-8.14692e-06
-3.84096e-05
8.95904e-06
-7.02301e-06
-4.03234e-05
7.81127e-06
-5.89744e-06
-4.22126e-05
6.66187e-06
-4.77269e-06
-4.40746e-05
5.51257e-06
-3.6506e-06
-4.59069e-05
4.36329e-06
-2.53095e-06
-4.77072e-05
3.21207e-06
-1.41177e-06
-4.94724e-05
2.05989e-06
-2.94652e-07
9.89631e-07
7.64917e-07
-5.43094e-06
3.37127e-05
-7.19898e-06
3.51176e-05
-9.24201e-06
3.23231e-05
-1.1296e-05
2.92871e-05
-1.33035e-05
2.66783e-05
-1.52816e-05
2.46048e-05
-1.72418e-05
2.29218e-05
-1.91897e-05
2.14734e-05
-2.11273e-05
2.01598e-05
-2.30549e-05
1.89233e-05
-2.49729e-05
1.77305e-05
-2.68804e-05
1.65633e-05
-2.87764e-05
1.54098e-05
-3.06597e-05
1.42613e-05
-3.2529e-05
1.31116e-05
-3.43828e-05
1.19568e-05
-3.62191e-05
1.07954e-05
-3.80359e-05
9.62802e-06
-3.98304e-05
8.45635e-06
-4.15998e-05
7.282e-06
-4.33415e-05
6.10499e-06
-4.5053e-05
4.92358e-06
-4.6732e-05
3.7389e-06
2.65438e-06
-6.22867e-06
3.44974e-05
-7.39693e-06
3.62859e-05
-8.98849e-06
3.39147e-05
-1.07273e-05
3.1026e-05
-1.2507e-05
2.8458e-05
-1.43018e-05
2.63995e-05
-1.61016e-05
2.47216e-05
-1.79026e-05
2.32744e-05
-1.97022e-05
2.19594e-05
-2.14983e-05
2.07194e-05
-2.32896e-05
1.95218e-05
-2.50746e-05
1.83483e-05
-2.68519e-05
1.7187e-05
-2.86197e-05
1.60291e-05
-3.03767e-05
1.48685e-05
-3.2121e-05
1.37011e-05
-3.38508e-05
1.25252e-05
-3.55637e-05
1.1341e-05
-3.72571e-05
1.01497e-05
-3.89278e-05
8.95278e-06
-4.05733e-05
7.75046e-06
-4.21911e-05
6.54136e-06
-4.37796e-05
5.32741e-06
4.2196e-06
-6.48841e-06
3.5185e-05
-7.3216e-06
3.71191e-05
-8.58381e-06
3.51769e-05
-1.0047e-05
3.24892e-05
-1.16078e-05
3.00188e-05
-1.32183e-05
2.801e-05
-1.48535e-05
2.63567e-05
-1.6502e-05
2.49229e-05
-1.81575e-05
2.36149e-05
-1.98159e-05
2.23778e-05
-2.14744e-05
2.11803e-05
-2.31307e-05
2.00047e-05
-2.47829e-05
1.88392e-05
-2.64291e-05
1.76753e-05
-2.80675e-05
1.65069e-05
-2.96963e-05
1.533e-05
-3.13136e-05
1.41425e-05
-3.29168e-05
1.29442e-05
-3.45033e-05
1.17361e-05
-3.60699e-05
1.05194e-05
-3.76137e-05
9.29422e-06
-3.9132e-05
8.05966e-06
-4.06222e-05
6.81769e-06
5.67897e-06
-6.40182e-06
3.57872e-05
-7.00926e-06
3.77265e-05
-8.01178e-06
3.61794e-05
-9.2387e-06
3.37161e-05
-1.05954e-05
3.13755e-05
-1.20249e-05
2.94395e-05
-1.34945e-05
2.78263e-05
-1.49873e-05
2.64158e-05
-1.64946e-05
2.51222e-05
-1.80104e-05
2.38936e-05
-1.9531e-05
2.27009e-05
-2.10534e-05
2.15271e-05
-2.25752e-05
2.0361e-05
-2.40943e-05
1.91944e-05
-2.56088e-05
1.80214e-05
-2.71168e-05
1.6838e-05
-2.86162e-05
1.56419e-05
-3.01046e-05
1.44326e-05
-3.1579e-05
1.32105e-05
-3.30361e-05
1.19765e-05
-3.44726e-05
1.07307e-05
-3.58851e-05
9.47216e-06
-3.72698e-05
8.20236e-06
7.03e-06
-6.04836e-06
3.63024e-05
-6.49435e-06
3.81725e-05
-7.27842e-06
3.69635e-05
-8.29689e-06
3.47346e-05
-9.46345e-06
3.25421e-05
-1.07177e-05
3.06937e-05
-1.20229e-05
2.91315e-05
-1.3359e-05
2.7752e-05
-1.47154e-05
2.64786e-05
-1.60853e-05
2.52634e-05
-1.7464e-05
2.40796e-05
-1.88482e-05
2.29113e-05
-2.02352e-05
2.17479e-05
-2.16226e-05
2.05818e-05
-2.30084e-05
1.94073e-05
-2.43908e-05
1.82203e-05
-2.57676e-05
1.70187e-05
-2.71362e-05
1.58012e-05
-2.84936e-05
1.4568e-05
-2.98364e-05
1.33193e-05
-3.11607e-05
1.2055e-05
-3.24625e-05
1.0774e-05
-3.37369e-05
9.47674e-06
8.2683e-06
-5.48575e-06
3.67093e-05
-5.8031e-06
3.84899e-05
-6.3971e-06
3.75575e-05
-7.22706e-06
3.55645e-05
-8.2139e-06
3.35289e-05
-9.29774e-06
3.17775e-05
-1.04402e-05
3.0274e-05
-1.16195e-05
2.89313e-05
-1.28235e-05
2.76826e-05
-1.40449e-05
2.64848e-05
-1.52787e-05
2.53134e-05
-1.65212e-05
2.41538e-05
-1.77695e-05
2.29963e-05
-1.90212e-05
2.18335e-05
-2.02743e-05
2.06604e-05
-2.15268e-05
1.94728e-05
-2.27766e-05
1.82684e-05
-2.40211e-05
1.70457e-05
-2.52572e-05
1.58041e-05
-2.64814e-05
1.45434e-05
-2.76893e-05
1.3263e-05
-2.88764e-05
1.1961e-05
-3.00366e-05
1.06369e-05
9.38962e-06
-4.75885e-06
3.69788e-05
-4.96162e-06
3.86926e-05
-5.38623e-06
3.79821e-05
-6.03918e-06
3.62175e-05
-6.8537e-06
3.43434e-05
-7.77069e-06
3.26945e-05
-8.75154e-06
3.12548e-05
-9.77369e-06
2.99534e-05
-1.08241e-05
2.8733e-05
-1.18951e-05
2.75558e-05
-1.29815e-05
2.63998e-05
-1.40794e-05
2.52517e-05
-1.51858e-05
2.41027e-05
-1.62984e-05
2.29462e-05
-1.74151e-05
2.17771e-05
-1.8534e-05
2.05917e-05
-1.96528e-05
1.93873e-05
-2.07692e-05
1.81621e-05
-2.18801e-05
1.6915e-05
-2.29817e-05
1.5645e-05
-2.40696e-05
1.43509e-05
-2.51386e-05
1.303e-05
-2.61814e-05
1.16798e-05
1.03902e-05
-3.90828e-06
3.70885e-05
-3.99188e-06
3.87762e-05
-4.25979e-06
3.825e-05
-4.74382e-06
3.67015e-05
-5.3913e-06
3.49909e-05
-6.14399e-06
3.34472e-05
-6.96385e-06
3.20747e-05
-7.8284e-06
3.0818e-05
-8.72412e-06
2.96287e-05
-9.64302e-06
2.84747e-05
-1.05799e-05
2.73366e-05
-1.15307e-05
2.62026e-05
-1.24927e-05
2.50646e-05
-1.34632e-05
2.39167e-05
-1.44404e-05
2.27542e-05
-1.54222e-05
2.15735e-05
-1.64066e-05
2.03717e-05
-1.73912e-05
1.91467e-05
-1.83731e-05
1.78969e-05
-1.93486e-05
1.66205e-05
-2.03132e-05
1.53155e-05
-2.12613e-05
1.39781e-05
-2.21842e-05
1.26027e-05
1.12665e-05
-2.96556e-06
3.70244e-05
-2.91487e-06
3.87255e-05
-3.03031e-06
3.83654e-05
-3.35185e-06
3.70231e-05
-3.83587e-06
3.54749e-05
-4.42587e-06
3.40372e-05
-5.08507e-06
3.27339e-05
-5.79124e-06
3.15242e-05
-6.53108e-06
3.03686e-05
-7.29649e-06
2.92401e-05
-8.08213e-06
2.81223e-05
-8.88412e-06
2.70046e-05
-9.69945e-06
2.588e-05
-1.05257e-05
2.47429e-05
-1.13607e-05
2.35893e-05
-1.22027e-05
2.24154e-05
-1.30495e-05
2.12185e-05
-1.38989e-05
1.99962e-05
-1.47483e-05
1.87462e-05
-1.55941e-05
1.74664e-05
-1.64323e-05
1.61537e-05
-1.7257e-05
1.48028e-05
-1.80579e-05
1.34036e-05
1.2015e-05
-1.95033e-06
3.67731e-05
-1.75008e-06
3.85253e-05
-1.71342e-06
3.83288e-05
-1.87487e-06
3.71845e-05
-2.19704e-06
3.57971e-05
-2.62492e-06
3.44651e-05
-3.12328e-06
3.32323e-05
-3.67043e-06
3.20713e-05
-4.25341e-06
3.09515e-05
-4.8642e-06
2.98509e-05
-5.49745e-06
2.87555e-05
-6.1493e-06
2.76565e-05
-6.81669e-06
2.65474e-05
-7.49714e-06
2.54234e-05
-8.18844e-06
2.42806e-05
-8.88857e-06
2.31155e-05
-9.59545e-06
2.19254e-05
-1.03068e-05
2.07076e-05
-1.10201e-05
1.94595e-05
-1.17324e-05
1.81786e-05
-1.24404e-05
1.68617e-05
-1.31393e-05
1.55018e-05
-1.38167e-05
1.40809e-05
1.26311e-05
-8.79289e-07
3.63208e-05
-5.15023e-07
3.8161e-05
-3.2227e-07
3.8136e-05
-3.23747e-07
3.7186e-05
-4.84566e-07
3.59579e-05
-7.50226e-07
3.47307e-05
-1.0872e-06
3.35692e-05
-1.47464e-06
3.24587e-05
-1.89996e-06
3.13769e-05
-2.35534e-06
3.03063e-05
-2.83555e-06
2.92357e-05
-3.33674e-06
2.81576e-05
-3.85587e-06
2.70665e-05
-4.39033e-06
2.59578e-05
-4.93775e-06
2.4828e-05
-5.49582e-06
2.36736e-05
-6.06215e-06
2.24917e-05
-6.63414e-06
2.12796e-05
-7.20892e-06
2.00343e-05
-7.78341e-06
1.87531e-05
-8.3556e-06
1.74339e-05
-8.92527e-06
1.60715e-05
-9.48017e-06
1.46358e-05
1.31058e-05
2.33634e-07
3.56525e-05
7.75009e-07
3.76197e-05
1.12954e-06
3.77815e-05
1.29008e-06
3.70255e-05
1.29192e-06
3.59561e-05
1.18931e-06
3.48333e-05
1.01443e-06
3.37441e-05
7.87359e-07
3.26858e-05
5.20276e-07
3.16439e-05
2.20688e-07
3.06059e-05
-1.06392e-07
2.95628e-05
-4.57273e-07
2.85085e-05
-8.28975e-07
2.74382e-05
-1.21888e-06
2.63477e-05
-1.62447e-06
2.52336e-05
-2.04314e-06
2.40923e-05
-2.47197e-06
2.29206e-05
-2.90759e-06
2.17152e-05
-3.34593e-06
2.04726e-05
-3.78163e-06
1.91888e-05
-4.20901e-06
1.78612e-05
-4.63371e-06
1.64962e-05
-5.08915e-06
1.50912e-05
1.3418e-05
1.37545e-06
3.47543e-05
2.10487e-06
3.68902e-05
2.629e-06
3.72574e-05
2.95513e-06
3.66993e-05
3.1235e-06
3.57877e-05
3.1848e-06
3.4772e-05
3.17272e-06
3.37562e-05
3.10663e-06
3.27519e-05
2.99821e-06
3.17524e-05
2.85452e-06
3.07496e-05
2.68022e-06
2.97371e-05
2.47866e-06
2.87101e-05
2.25255e-06
2.76643e-05
2.00425e-06
2.65961e-05
1.73606e-06
2.55018e-05
1.45048e-06
2.43778e-05
1.15051e-06
2.32205e-05
8.40113e-07
2.20256e-05
5.24575e-07
2.07882e-05
2.10987e-07
1.95024e-05
-8.6746e-08
1.8159e-05
-3.29364e-07
1.67388e-05
-4.64869e-07
1.52268e-05
1.38065e-05
2.53452e-06
3.36129e-05
3.46279e-06
3.5962e-05
4.16475e-06
3.65554e-05
4.6601e-06
3.6204e-05
4.99973e-06
3.54481e-05
5.22663e-06
3.45451e-05
5.3784e-06
3.36044e-05
5.47402e-06
3.26563e-05
5.52472e-06
3.17017e-05
5.53705e-06
3.07372e-05
5.51514e-06
2.9759e-05
5.46185e-06
2.87634e-05
5.37933e-06
2.77468e-05
5.26938e-06
2.6706e-05
5.13358e-06
2.56376e-05
4.9735e-06
2.45379e-05
4.79098e-06
2.3403e-05
4.58844e-06
2.22281e-05
4.36959e-06
2.1007e-05
4.14067e-06
1.97313e-05
3.91141e-06
1.83882e-05
3.68812e-06
1.69621e-05
3.46291e-06
1.5452e-05
1.3893e-05
3.69779e-06
3.22167e-05
4.83632e-06
3.48234e-05
5.72468e-06
3.5667e-05
6.3961e-06
3.55326e-05
6.90887e-06
3.49353e-05
7.30513e-06
3.41489e-05
7.6219e-06
3.32877e-05
7.88018e-06
3.2398e-05
8.09075e-06
3.14911e-05
8.25954e-06
3.05684e-05
8.39013e-06
2.96284e-05
8.48483e-06
2.86687e-05
8.54527e-06
2.76864e-05
8.57274e-06
2.66785e-05
8.5684e-06
2.56419e-05
8.53354e-06
2.45728e-05
8.46999e-06
2.34666e-05
8.38074e-06
2.23174e-05
8.27074e-06
2.1117e-05
8.14761e-06
1.98544e-05
8.02132e-06
1.85145e-05
7.90366e-06
1.70797e-05
7.81703e-06
1.55386e-05
1.38868e-05
4.85261e-06
3.05551e-05
6.21279e-06
3.34633e-05
7.29929e-06
3.45805e-05
8.15495e-06
3.46769e-05
8.84051e-06
3.42498e-05
9.40843e-06
3.3581e-05
9.89285e-06
3.28032e-05
1.03155e-05
3.19754e-05
1.06871e-05
3.11195e-05
1.10134e-05
3.02422e-05
1.12974e-05
2.93445e-05
1.15408e-05
2.84252e-05
1.17451e-05
2.74821e-05
1.19111e-05
2.65125e-05
1.20399e-05
2.55131e-05
1.21328e-05
2.44798e-05
1.21922e-05
2.34072e-05
1.2222e-05
2.22876e-05
1.22282e-05
2.11109e-05
1.22192e-05
1.98634e-05
1.2206e-05
1.85277e-05
1.22028e-05
1.7083e-05
1.22321e-05
1.55092e-05
1.37893e-05
5.9853e-06
2.86179e-05
7.57663e-06
3.18719e-05
8.87024e-06
3.32869e-05
9.91869e-06
3.36284e-05
1.07849e-05
3.33835e-05
1.15267e-05
3.28392e-05
1.21813e-05
3.21486e-05
1.27702e-05
3.13864e-05
1.33046e-05
3.05851e-05
1.379e-05
2.97568e-05
1.4229e-05
2.89055e-05
1.46231e-05
2.80311e-05
1.49732e-05
2.7132e-05
1.52803e-05
2.62055e-05
1.55452e-05
2.52482e-05
1.57697e-05
2.42554e-05
1.59562e-05
2.32206e-05
1.61091e-05
2.21348e-05
1.62344e-05
2.09856e-05
1.63405e-05
1.97573e-05
1.64379e-05
1.84303e-05
1.65406e-05
1.69803e-05
1.667e-05
1.53798e-05
1.36002e-05
7.07926e-06
2.64002e-05
8.90874e-06
3.00425e-05
1.04197e-05
3.1776e-05
1.16709e-05
3.23773e-05
1.27277e-05
3.23266e-05
1.36492e-05
3.19177e-05
1.44768e-05
3.1321e-05
1.52343e-05
3.0629e-05
1.59336e-05
2.98858e-05
1.65803e-05
2.91101e-05
1.71768e-05
2.83089e-05
1.77244e-05
2.74836e-05
1.82236e-05
2.66328e-05
1.86751e-05
2.57539e-05
1.90801e-05
2.48432e-05
1.94401e-05
2.38954e-05
1.97576e-05
2.29031e-05
2.00367e-05
2.18557e-05
2.02828e-05
2.07395e-05
2.05034e-05
1.95367e-05
2.07079e-05
1.82257e-05
2.09096e-05
1.67786e-05
2.11299e-05
1.51596e-05
1.33262e-05
8.11284e-06
2.39051e-05
1.01844e-05
2.79709e-05
1.19278e-05
3.00326e-05
1.33962e-05
3.09088e-05
1.4654e-05
3.10689e-05
1.57622e-05
3.08095e-05
1.67673e-05
3.03159e-05
1.76967e-05
2.96996e-05
1.85639e-05
2.90185e-05
1.9375e-05
2.8299e-05
2.01325e-05
2.75515e-05
2.08371e-05
2.67789e-05
2.14894e-05
2.59805e-05
2.20897e-05
2.51536e-05
2.2639e-05
2.42939e-05
2.31387e-05
2.33957e-05
2.35909e-05
2.24508e-05
2.39989e-05
2.14477e-05
2.43671e-05
2.03713e-05
2.47018e-05
1.92021e-05
2.50108e-05
1.79167e-05
2.53062e-05
1.64831e-05
2.56096e-05
1.48562e-05
1.29764e-05
9.05671e-06
2.11453e-05
1.13704e-05
2.56573e-05
1.33617e-05
2.80413e-05
1.50659e-05
2.92045e-05
1.65417e-05
2.95931e-05
1.78484e-05
2.95027e-05
1.90386e-05
2.91257e-05
2.0145e-05
2.85932e-05
2.11844e-05
2.79791e-05
2.21642e-05
2.73192e-05
2.3087e-05
2.66287e-05
2.39535e-05
2.59124e-05
2.47637e-05
2.51702e-05
2.55179e-05
2.43994e-05
2.62165e-05
2.35953e-05
2.68606e-05
2.27516e-05
2.74517e-05
2.18597e-05
2.79918e-05
2.09076e-05
2.8484e-05
1.9879e-05
2.89332e-05
1.8753e-05
2.93454e-05
1.75044e-05
2.97308e-05
1.60978e-05
3.011e-05
1.4477e-05
1.25615e-05
9.88577e-06
1.81518e-05
1.2436e-05
2.3107e-05
1.46856e-05
2.57917e-05
1.66467e-05
2.72434e-05
1.83614e-05
2.78784e-05
1.98859e-05
2.79782e-05
2.12731e-05
2.77385e-05
2.25646e-05
2.73017e-05
2.37825e-05
2.67612e-05
2.49367e-05
2.61651e-05
2.60307e-05
2.55347e-05
2.70651e-05
2.4878e-05
2.80397e-05
2.41957e-05
2.89539e-05
2.34852e-05
2.98079e-05
2.27414e-05
3.0602e-05
2.19575e-05
3.1337e-05
2.11246e-05
3.20138e-05
2.02309e-05
3.26336e-05
1.92592e-05
3.31991e-05
1.81875e-05
3.3715e-05
1.69886e-05
3.41883e-05
1.56244e-05
3.46373e-05
1.40281e-05
1.20925e-05
1.05779e-05
1.50395e-05
1.33467e-05
2.03382e-05
1.58476e-05
2.32908e-05
1.80758e-05
2.50152e-05
2.00519e-05
2.59024e-05
2.18281e-05
2.6202e-05
2.34399e-05
2.61267e-05
2.49333e-05
2.58082e-05
2.63413e-05
2.53533e-05
2.76789e-05
2.48274e-05
2.89522e-05
2.42615e-05
3.01625e-05
2.36676e-05
3.13093e-05
2.30489e-05
3.23916e-05
2.24029e-05
3.34086e-05
2.17244e-05
3.43599e-05
2.10062e-05
3.52455e-05
2.0239e-05
3.60652e-05
1.94113e-05
3.68183e-05
1.85061e-05
3.75049e-05
1.75008e-05
3.81268e-05
1.63667e-05
3.86882e-05
1.50629e-05
3.92028e-05
1.35135e-05
1.15801e-05
1.09652e-05
1.20164e-05
1.40775e-05
1.72259e-05
1.68377e-05
2.05306e-05
1.93217e-05
2.25312e-05
2.15614e-05
2.36627e-05
2.35959e-05
2.41675e-05
2.54723e-05
2.42503e-05
2.72064e-05
2.40742e-05
2.8829e-05
2.37307e-05
3.03674e-05
2.3289e-05
3.18335e-05
2.27953e-05
3.32317e-05
2.22694e-05
3.45617e-05
2.17189e-05
3.58224e-05
2.11421e-05
3.70125e-05
2.05344e-05
3.81304e-05
1.98883e-05
3.91754e-05
1.9194e-05
4.01465e-05
1.84402e-05
4.10413e-05
1.76112e-05
4.1857e-05
1.66851e-05
4.2591e-05
1.56327e-05
4.32435e-05
1.44105e-05
4.38222e-05
1.29348e-05
1.10332e-05
1.68242e-07
-1.68242e-07
6.21703e-07
-4.53461e-07
1.25201e-06
-6.30309e-07
2.12258e-06
-8.70567e-07
3.13936e-06
-1.01678e-06
-1.3001e-06
4.43946e-06
3.07405e-07
-4.75647e-07
7.78717e-07
-9.24773e-07
1.38881e-06
-1.2404e-06
2.10358e-06
-1.58534e-06
2.88736e-06
-1.80055e-06
-1.88252e-06
3.46977e-06
3.53835e-07
-8.29482e-07
8.00099e-07
-1.37104e-06
1.34434e-06
-1.78464e-06
1.91989e-06
-2.1609e-06
2.49177e-06
-2.37243e-06
-2.29456e-06
2.90381e-06
3.74689e-07
-1.20417e-06
7.78904e-07
-1.77525e-06
1.23936e-06
-2.24509e-06
1.69046e-06
-2.612e-06
2.11257e-06
-2.79453e-06
-2.65181e-06
2.46982e-06
3.81304e-07
-1.58547e-06
7.28939e-07
-2.12289e-06
1.09946e-06
-2.61561e-06
1.43771e-06
-2.95025e-06
1.73905e-06
-3.09587e-06
-2.93863e-06
2.02587e-06
3.67293e-07
-1.95277e-06
6.54457e-07
-2.41005e-06
9.35667e-07
-2.89682e-06
1.17039e-06
-3.18498e-06
1.36316e-06
-3.28863e-06
-3.13372e-06
1.55824e-06
3.13146e-07
-2.26591e-06
5.55632e-07
-2.65254e-06
7.55809e-07
-3.097e-06
8.95308e-07
-3.32448e-06
9.8559e-07
-3.37892e-06
-3.22571e-06
1.07758e-06
2.51299e-07
-2.51721e-06
4.4169e-07
-2.84293e-06
5.67685e-07
-3.223e-06
6.19446e-07
-3.37624e-06
6.12469e-07
-3.37194e-06
-3.21047e-06
5.97228e-07
1.85224e-07
-2.70244e-06
3.20732e-07
-2.97844e-06
3.78264e-07
-3.28053e-06
3.49785e-07
-3.34776e-06
2.52225e-07
-3.27438e-06
-3.08956e-06
1.31315e-07
1.17233e-07
-2.81967e-06
1.98078e-07
-3.05928e-06
1.93379e-07
-3.27583e-06
9.31847e-08
-3.24757e-06
-8.64021e-08
-3.09479e-06
-2.86976e-06
-3.06199e-07
4.89529e-08
-2.86862e-06
7.78254e-08
-3.08815e-06
1.77216e-08
-3.21572e-06
-1.44289e-07
-3.08555e-06
-3.9509e-07
-2.84399e-06
-2.56255e-06
-7.02295e-07
-1.75977e-08
-2.85103e-06
-3.71515e-08
-3.0686e-06
-1.44856e-07
-3.10802e-06
-3.57812e-07
-2.8726e-06
-6.66674e-07
-2.53513e-06
-2.18354e-06
-1.04569e-06
-7.98786e-08
-2.77115e-06
-1.44688e-07
-3.00379e-06
-2.91909e-07
-2.9608e-06
-5.43865e-07
-2.62064e-06
-8.95508e-07
-2.18349e-06
-1.75174e-06
-1.32731e-06
-1.37572e-07
-2.63357e-06
-2.43281e-07
-2.89808e-06
-4.21885e-07
-2.7822e-06
-7.00306e-07
-2.34222e-06
-1.07785e-06
-1.80595e-06
-1.28878e-06
-1.5408e-06
-1.89365e-07
-2.44421e-06
-3.31975e-07
-2.75547e-06
-5.34302e-07
-2.57987e-06
-8.26498e-07
-2.05002e-06
-1.21208e-06
-1.42036e-06
-8.18003e-07
-1.68286e-06
-2.34241e-07
-2.20997e-06
-4.10291e-07
-2.57942e-06
-6.29683e-07
-2.36048e-06
-9.23385e-07
-1.75632e-06
-1.29891e-06
-1.04484e-06
-3.63462e-07
-1.75345e-06
-2.71255e-07
-1.93871e-06
-4.78119e-07
-2.37256e-06
-7.09507e-07
-2.12909e-06
-9.9353e-07
-1.4723e-06
-1.3414e-06
-6.96972e-07
5.09931e-08
-1.75585e-06
-2.99308e-07
-1.63941e-06
-5.35561e-07
-2.1363e-06
-7.76139e-07
-1.88851e-06
-1.04112e-06
-1.20732e-06
-1.345e-06
-3.93095e-07
4.02524e-07
-1.69653e-06
-3.16515e-07
-1.32289e-06
-5.82616e-07
-1.8702e-06
-8.32722e-07
-1.63841e-06
-1.07199e-06
-9.68051e-07
-1.3175e-06
-1.47578e-07
6.69781e-07
-1.58476e-06
-3.18939e-07
-1.00395e-06
-6.19223e-07
-1.56992e-06
-8.83043e-07
-1.37459e-06
-1.09368e-06
-7.57413e-07
-1.26908e-06
2.7818e-08
8.32905e-07
-1.4322e-06
-3.06638e-07
-6.97315e-07
-6.46448e-07
-1.23011e-06
-9.31286e-07
-1.08975e-06
-1.11574e-06
-5.72962e-07
-1.21303e-06
1.25107e-07
8.71807e-07
-1.25193e-06
-2.89451e-07
-4.07863e-07
-6.67684e-07
-8.51876e-07
-9.80872e-07
-7.76561e-07
-1.14985e-06
-4.03982e-07
-1.16664e-06
1.419e-07
7.62232e-07
-1.05707e-06
-2.5802e-07
-1.49844e-07
-6.74839e-07
-4.35056e-07
-1.02846e-06
-4.22943e-07
-1.20534e-06
-2.27099e-07
-1.14862e-06
8.51773e-08
4.72063e-07
-8.5845e-07
-1.49844e-07
-5.84899e-07
-1.00784e-06
-1.23494e-06
-1.14976e-06
-6.777e-07
1.00183e-05
6.43761e-06
1.39708e-05
1.32734e-05
1.72661e-05
1.72352e-05
2.01724e-05
1.96249e-05
2.27705e-05
2.10646e-05
2.51149e-05
2.18231e-05
2.72676e-05
2.20976e-05
2.92808e-05
2.2061e-05
3.11764e-05
2.18351e-05
3.29527e-05
2.15127e-05
3.46378e-05
2.11103e-05
3.62449e-05
2.06624e-05
3.7775e-05
2.01887e-05
3.92296e-05
1.96876e-05
4.06068e-05
1.91571e-05
4.19045e-05
1.85906e-05
4.31209e-05
1.79776e-05
4.42545e-05
1.73065e-05
4.53023e-05
1.65635e-05
4.62589e-05
1.57285e-05
4.71176e-05
1.4774e-05
4.78705e-05
1.36575e-05
4.85166e-05
1.22887e-05
1.04574e-05
7.36151e-06
2.54587e-06
1.2139e-05
8.4959e-06
1.64672e-05
1.2907e-05
2.01626e-05
1.59295e-05
2.33464e-05
1.78808e-05
2.61616e-05
1.90079e-05
2.86933e-05
1.95659e-05
3.10215e-05
1.97329e-05
3.32023e-05
1.96542e-05
3.5284e-05
1.9431e-05
3.72636e-05
1.91307e-05
3.91299e-05
1.87961e-05
4.08933e-05
1.84254e-05
4.25695e-05
1.80113e-05
4.41578e-05
1.75689e-05
4.56552e-05
1.70933e-05
4.70611e-05
1.65717e-05
4.83736e-05
1.59941e-05
4.95895e-05
1.53476e-05
5.07032e-05
1.46147e-05
5.17051e-05
1.37721e-05
5.25796e-05
1.2783e-05
5.33089e-05
1.15594e-05
9.85004e-06
5.3627e-06
8.69861e-08
9.40442e-06
4.45418e-06
1.39325e-05
8.37893e-06
1.83941e-05
1.14679e-05
2.25003e-05
1.37746e-05
2.61123e-05
1.53959e-05
2.92784e-05
1.63997e-05
3.21206e-05
1.68906e-05
3.47232e-05
1.70517e-05
3.71449e-05
1.70092e-05
3.94307e-05
1.68449e-05
4.16207e-05
1.66061e-05
4.37194e-05
1.63268e-05
4.57009e-05
1.60298e-05
4.75564e-05
1.57133e-05
4.92933e-05
1.53564e-05
5.0924e-05
1.4941e-05
5.24459e-05
1.44722e-05
5.38551e-05
1.39384e-05
5.51491e-05
1.33206e-05
5.63201e-05
1.26012e-05
5.73495e-05
1.17537e-05
5.82007e-05
1.07082e-05
9.18878e-06
4.0336e-06
-1.4768e-06
6.95637e-06
1.53142e-06
1.07621e-05
4.57321e-06
1.5005e-05
7.225e-06
1.94136e-05
9.36611e-06
2.37827e-05
1.10267e-05
2.79016e-05
1.22809e-05
3.16241e-05
1.31681e-05
3.49617e-05
1.3714e-05
3.7994e-05
1.3977e-05
4.0796e-05
1.40429e-05
4.34119e-05
1.39901e-05
4.58685e-05
1.38702e-05
4.81909e-05
1.37074e-05
5.04077e-05
1.34965e-05
5.25127e-05
1.32514e-05
5.44746e-05
1.29791e-05
5.62809e-05
1.26659e-05
5.79379e-05
1.22814e-05
5.94571e-05
1.18015e-05
6.08384e-05
1.12199e-05
6.20682e-05
1.05239e-05
6.31137e-05
9.66266e-06
8.41657e-06
3.06435e-06
-2.51528e-06
5.06057e-06
-4.64803e-07
7.9117e-06
1.72208e-06
1.13827e-05
3.75397e-06
1.52675e-05
5.48134e-06
1.94134e-05
6.88078e-06
2.37157e-05
7.97862e-06
2.80604e-05
8.82339e-06
3.23061e-05
9.46834e-06
3.63151e-05
9.968e-06
4.00152e-05
1.03428e-05
4.34194e-05
1.05859e-05
4.6562e-05
1.07276e-05
4.94792e-05
1.07902e-05
5.2194e-05
1.07817e-05
5.47205e-05
1.07248e-05
5.7075e-05
1.06247e-05
5.92839e-05
1.04569e-05
6.13448e-05
1.02206e-05
6.32299e-05
9.91632e-06
6.49214e-05
9.52833e-06
6.64215e-05
9.02382e-06
6.77417e-05
8.34245e-06
7.41154e-06
2.23963e-06
-3.19667e-06
3.56899e-06
-1.79416e-06
5.57609e-06
-2.85012e-07
8.17844e-06
1.15162e-06
1.12587e-05
2.40104e-06
1.47187e-05
3.42087e-06
1.84819e-05
4.21538e-06
2.24786e-05
4.82668e-06
2.66451e-05
5.30188e-06
3.0937e-05
5.67608e-06
3.52845e-05
5.99532e-06
3.95838e-05
6.28656e-06
4.37364e-05
6.57506e-06
4.76606e-05
6.86598e-06
5.13087e-05
7.13363e-06
5.46767e-05
7.35685e-06
5.77768e-05
7.52459e-06
6.06161e-05
7.61755e-06
6.3209e-05
7.62768e-06
6.55744e-05
7.55092e-06
6.77359e-05
7.36685e-06
6.97032e-05
7.05644e-06
7.14296e-05
6.61608e-06
6.05031e-06
1.47443e-06
-3.59352e-06
2.31162e-06
-2.63135e-06
3.64914e-06
-1.62252e-06
5.47819e-06
-6.77432e-07
7.75007e-06
1.29151e-07
1.04103e-05
7.60622e-07
1.34107e-05
1.21502e-06
1.67152e-05
1.52213e-06
2.02963e-05
1.72082e-06
2.41199e-05
1.85244e-06
2.81545e-05
1.96075e-06
3.23637e-05
2.0773e-06
3.67119e-05
2.22686e-06
4.11542e-05
2.42376e-06
4.56083e-05
2.67952e-06
4.9976e-05
2.98912e-06
5.41649e-05
3.33566e-06
5.8091e-05
3.69153e-06
6.17014e-05
4.01728e-06
6.49833e-05
4.26896e-06
6.79388e-05
4.41133e-06
7.05831e-05
4.41223e-06
7.29225e-05
4.27662e-06
4.08735e-06
7.47734e-07
-3.74403e-06
1.19508e-06
-3.0787e-06
2.00069e-06
-2.42813e-06
3.18367e-06
-1.86042e-06
4.73382e-06
-1.42099e-06
6.62921e-06
-1.13477e-06
8.84635e-06
-1.00211e-06
1.13689e-05
-1.00042e-06
1.41864e-05
-1.09668e-06
1.72893e-05
-1.25044e-06
2.06713e-05
-1.4213e-06
2.43203e-05
-1.57172e-06
2.822e-05
-1.67284e-06
3.23447e-05
-1.70092e-06
3.66607e-05
-1.63645e-06
4.11234e-05
-1.47356e-06
4.5676e-05
-1.21696e-06
5.02469e-05
-8.79373e-07
5.47444e-05
-4.80186e-07
5.90648e-05
-5.14605e-08
6.31126e-05
3.63502e-07
6.68061e-05
7.18785e-07
7.01583e-05
9.24433e-07
1.07967e-06
6.284e-08
-3.67555e-06
1.85148e-07
-3.20101e-06
5.54036e-07
-2.79702e-06
1.19742e-06
-2.5038e-06
2.12292e-06
-2.34649e-06
3.32852e-06
-2.34037e-06
4.80863e-06
-2.48223e-06
6.5622e-06
-2.75399e-06
8.59212e-06
-3.12659e-06
1.09049e-05
-3.5632e-06
1.3508e-05
-4.02444e-06
1.64071e-05
-4.47079e-06
1.96019e-05
-4.86766e-06
2.30853e-05
-5.18438e-06
2.68465e-05
-5.39758e-06
3.08642e-05
-5.49133e-06
3.51046e-05
-5.45731e-06
3.95201e-05
-5.29483e-06
4.40517e-05
-5.01181e-06
4.86263e-05
-4.62613e-06
5.31574e-05
-4.16758e-06
5.75475e-05
-3.67133e-06
6.17029e-05
-3.23089e-06
-2.91172e-06
-5.67968e-07
-3.41378e-06
-7.21512e-07
-3.04746e-06
-7.18175e-07
-2.80035e-06
-5.29204e-07
-2.69277e-06
-1.39797e-07
-2.7359e-06
4.57729e-07
-2.9379e-06
1.26988e-06
-3.29438e-06
2.30594e-06
-3.79005e-06
3.58017e-06
-4.40082e-06
5.11043e-06
-5.09345e-06
6.9157e-06
-5.8297e-06
9.01434e-06
-6.56944e-06
1.14202e-05
-7.27351e-06
1.41415e-05
-7.90573e-06
1.71793e-05
-8.43536e-06
2.0525e-05
-8.83701e-06
2.41597e-05
-9.09199e-06
2.80543e-05
-9.18941e-06
3.21704e-05
-9.1279e-06
3.64603e-05
-8.91606e-06
4.08663e-05
-8.57359e-06
4.53281e-05
-8.13318e-06
4.97804e-05
-7.68313e-06
-7.45035e-06
-1.1296e-06
-2.98647e-06
-1.51389e-06
-2.66318e-06
-1.81392e-06
-2.50032e-06
-2.00355e-06
-2.50314e-06
-2.06678e-06
-2.67267e-06
-1.99015e-06
-3.01453e-06
-1.76102e-06
-3.5235e-06
-1.36278e-06
-4.1883e-06
-7.72002e-07
-4.9916e-06
3.84447e-08
-5.9039e-06
1.09795e-06
-6.88921e-06
2.4347e-06
-7.90618e-06
4.07254e-06
-8.91135e-06
6.02987e-06
-9.86307e-06
8.3184e-06
-1.07239e-05
1.09409e-05
-1.14595e-05
1.38909e-05
-1.2042e-05
1.7153e-05
-1.24515e-05
2.07036e-05
-1.26785e-05
2.45141e-05
-1.27265e-05
2.85557e-05
-1.26152e-05
3.2815e-05
-1.23924e-05
3.72939e-05
-1.2162e-05
-1.21479e-05
-1.60692e-06
-2.42524e-06
-2.17534e-06
-2.09476e-06
-2.71662e-06
-1.95904e-06
-3.20855e-06
-2.01121e-06
-3.63521e-06
-2.24601e-06
-3.98294e-06
-2.6668e-06
-4.23463e-06
-3.27181e-06
-4.36661e-06
-4.05632e-06
-4.3489e-06
-5.00931e-06
-4.14513e-06
-6.10767e-06
-3.71558e-06
-7.31875e-06
-3.02153e-06
-8.60023e-06
-2.03031e-06
-9.90257e-06
-7.18635e-07
-1.11747e-05
9.33306e-07
-1.23758e-05
2.9338e-06
-1.346e-05
5.28116e-06
-1.43894e-05
7.96577e-06
-1.51361e-05
1.09733e-05
-1.56861e-05
1.42891e-05
-1.60423e-05
1.79027e-05
-1.62288e-05
2.18198e-05
-1.63095e-05
2.60605e-05
-1.64028e-05
-1.66585e-05
-1.98675e-06
-1.76579e-06
-2.68877e-06
-1.39274e-06
-3.40475e-06
-1.24307e-06
-4.11631e-06
-1.29964e-06
-4.80904e-06
-1.55328e-06
-5.46874e-06
-2.0071e-06
-6.07578e-06
-2.66477e-06
-6.60261e-06
-3.52949e-06
-7.01253e-06
-4.5994e-06
-7.2599e-06
-5.86029e-06
-7.29405e-06
-7.28461e-06
-7.06294e-06
-8.83135e-06
-6.52153e-06
-1.0444e-05
-5.64224e-06
-1.2054e-05
-4.39887e-06
-1.36192e-05
-2.78376e-06
-1.50751e-05
-8.00073e-07
-1.63731e-05
1.5372e-06
-1.74733e-05
4.20433e-06
-1.83532e-05
7.17083e-06
-1.90088e-05
1.04014e-05
-1.94594e-05
1.38474e-05
-1.97556e-05
1.74248e-05
-1.99802e-05
-2.0335e-05
-2.25926e-06
-1.04734e-06
-3.0402e-06
-6.11802e-07
-3.85868e-06
-4.24582e-07
-4.69903e-06
-4.59294e-07
-5.54828e-06
-7.0403e-07
-6.39136e-06
-1.16402e-06
-7.20458e-06
-1.85155e-06
-7.951e-06
-2.78307e-06
-8.58427e-06
-3.96612e-06
-9.05271e-06
-5.39186e-06
-9.30121e-06
-7.03611e-06
-9.27475e-06
-8.8578e-06
-8.92193e-06
-1.07968e-05
-8.19628e-06
-1.27797e-05
-7.08518e-06
-1.47303e-05
-5.57267e-06
-1.65876e-05
-3.65984e-06
-1.82859e-05
-1.36048e-06
-1.97727e-05
1.29815e-06
-2.10118e-05
4.27433e-06
-2.1985e-05
7.5099e-06
-2.26949e-05
1.09115e-05
-2.31572e-05
1.43541e-05
-2.34228e-05
-2.36968e-05
-2.41899e-06
-3.11217e-07
-3.22122e-06
1.90429e-07
-4.06555e-06
4.19748e-07
-4.93682e-06
4.11978e-07
-5.82054e-06
1.79688e-07
-6.69697e-06
-2.87587e-07
-7.53878e-06
-1.00975e-06
-8.31004e-06
-2.0118e-06
-8.96674e-06