/*--------------------------------*- C++ -*----------------------------------*\
  =========                 |
  \\      /  F ield         | OpenFOAM: The Open Source CFD Toolbox
   \\    /   O peration     | Website:  https://openfoam.org
    \\  /    A nd           | Version:  11
     \\/     M anipulation  |
\*---------------------------------------------------------------------------*/
FoamFile
{
    format      ascii;
    class       volScalarField;
    location    "0.04";
    object      epsilon;
}
// * * * * * * * * * * * * * * * * * * * * * * * * * * * * * * * * * * * * * //

dimensions      [0 2 -3 0 0 0 0];

internalField   nonuniform List<scalar> 
2880
(
3.26384
4.79673
5.53468
5.44837
4.93148
4.66004
1.22003
3.36065
3.80144
3.66186
2.95186
1.95761
1.83458
3.13764
3.27482
2.80351
1.9664
1.06114
2.58452
3.07561
3.00157
2.32771
1.47471
0.729164
3.30059
3.04391
2.81013
2.03888
1.21161
0.591987
3.94534
3.02421
2.66908
1.86405
1.07949
0.538976
4.50169
3.02225
2.57106
1.76685
1.02602
0.531796
4.96425
3.0398
2.51364
1.72676
1.02404
0.5535
5.33119
3.07794
2.4953
1.73021
1.05893
0.603365
5.60089
3.13641
2.50923
1.77242
1.12637
0.67649
5.77164
3.21468
2.5615
1.84942
1.22272
0.772307
5.84385
3.31141
2.64694
1.9594
1.34793
0.892009
5.83621
3.42596
2.76349
2.10219
1.50376
1.03882
5.80894
3.55974
2.90863
2.27848
1.69349
1.21773
5.73989
3.70088
3.07895
2.48963
1.92196
1.4355
5.60454
3.83481
3.27038
2.73765
2.19596
1.70147
5.37951
3.94687
3.47976
3.02606
2.52485
2.0293
5.04408
4.02694
3.70792
3.36193
2.92211
2.44021
4.58081
4.07629
3.96458
3.75912
3.4094
2.96872
3.97929
4.11736
4.27656
4.24401
4.02565
3.67689
3.2428
4.20802
4.71191
4.88168
4.8356
4.69844
2.39665
4.48402
5.44416
5.82282
6.01655
6.5831
1.511
5.46041
7.10303
7.64557
7.95076
11.7714
4.52913
10.9049
13.4434
13.2159
11.0081
44.0362
0.834881
0.258748
0.0896278
0.0357068
0.0164949
0.00866951
0.00505947
0.00323079
0.00220471
0.00158271
0.00118538
0.000922809
0.000745921
0.000625784
0.000544101
0.000488677
0.000451174
0.00042587
0.000408831
0.000397312
0.000389374
0.000383737
0.000379702
0.000376789
0.553538
0.189037
0.0720092
0.0312527
0.0154018
0.00842801
0.00503776
0.00325331
0.00223201
0.00160995
0.0012127
0.000950048
0.000772254
0.000650142
0.000565587
0.000506798
0.000465863
0.000437383
0.000417597
0.0004038
0.000393995
0.00038685
0.000381648
0.000377815
0.38238
0.143292
0.0603998
0.0286817
0.0150437
0.00852836
0.00519714
0.00337173
0.00231392
0.00167011
0.00126108
0.000991728
0.000809231
0.000682846
0.000593873
0.000530515
0.000485099
0.000452494
0.000429123
0.000412341
0.000400105
0.00039103
0.000384328
0.000379351
0.292647
0.118838
0.0548209
0.0281291
0.0155114
0.00907678
0.00557811
0.0036091
0.00246279
0.00176983
0.00133424
0.00105006
0.000858324
0.00072505
0.000630008
0.000560845
0.00050986
0.000472105
0.000444201
0.000423597
0.000408222
0.000396605
0.000387822
0.000381457
0.252127
0.109725
0.0543832
0.0295242
0.0170575
0.0101606
0.00624338
0.00400078
0.00269756
0.00191933
0.00143787
0.00112839
0.000921693
0.000778364
0.00067539
0.00059913
0.000541453
0.000497439
0.000463898
0.000438421
0.00041893
0.000403899
0.000392361
0.000384199
0.241898
0.111221
0.0582629
0.0333573
0.0198434
0.0119344
0.00729072
0.00460141
0.00304735
0.0021341
0.00158046
0.00123162
0.00100239
0.000844945
0.00073181
0.000647052
0.000581529
0.000530067
0.000489604
0.000457925
0.000433048
0.000413548
0.00039865
0.00038798
0.249885
0.122089
0.0670951
0.0398473
0.0241909
0.0146344
0.00886858
0.00549485
0.0035568
0.00243757
0.00177454
0.00136673
0.00110458
0.000927546
0.000801385
0.000706519
0.00063196
0.000571837
0.000523062
0.000483661
0.000451882
0.000426579
0.000407271
0.00039314
0.276172
0.142114
0.0811297
0.0495373
0.0305633
0.018597
0.0111951
0.00680803
0.0042941
0.00286514
0.00203859
0.00154369
0.0012339
0.00102961
0.000886523
0.000779554
0.000694729
0.000624785
0.000566299
0.000517504
0.000477004
0.000444134
0.000418918
0.00039998
0.317643
0.171348
0.101279
0.063194
0.039572
0.0242757
0.014579
0.00872918
0.00536294
0.0034706
0.00240014
0.00177681
0.00139806
0.00115551
0.00098997
0.000868256
0.000771841
0.000691069
0.000621608
0.000561703
0.000510375
0.000467683
0.000434516
0.000408914
0.37477
0.211073
0.128637
0.0817868
0.0519836
0.032255
0.0194398
0.0115298
0.00691947
0.00433615
0.00290076
0.00208713
0.00160789
0.00131098
0.00111493
0.00097473
0.000865158
0.000772762
0.000691383
0.000618805
0.000554377
0.000499126
0.000455325
0.000420515
0.449118
0.263229
0.164674
0.106505
0.0687317
0.0432609
0.0263238
0.0155878
0.00919446
0.00558725
0.00360407
0.00250618
0.00187907
0.00150384
0.00126532
0.00110107
0.000976198
0.000871558
0.000777825
0.000691456
0.000611748
0.000540829
0.000483009
0.00043555
0.543454
0.330174
0.211251
0.138795
0.0909372
0.0581715
0.0359148
0.0214067
0.0125187
0.00741368
0.00460823
0.00308219
0.00223496
0.00174528
0.00144628
0.00124947
0.00110596
0.000988405
0.000882507
0.000782029
0.000685366
0.000595575
0.000519682
0.000455033
0.661329
0.41483
0.270694
0.180413
0.119939
0.0780297
0.0490391
0.0296275
0.0173472
0.0100961
0.00606463
0.00389023
0.0027114
0.00205203
0.00166515
0.00142254
0.00125488
0.00112319
0.00100584
0.000892049
0.000777818
0.000666367
0.000567896
0.000480259
0.807408
0.521053
0.34592
0.233512
0.157341
0.104065
0.0666715
0.0410313
0.0242749
0.0140346
0.00820381
0.005048
0.00336468
0.00245008
0.00193321
0.00162423
0.0014232
0.0012746
0.00114661
0.00102149
0.000890715
0.000756015
0.000630532
0.000512791
0.988166
0.65394
0.440638
0.300747
0.205073
0.137726
0.0899446
0.0565358
0.0340395
0.0197714
0.011367
0.00673951
0.00428458
0.00298109
0.00226886
0.00186143
0.00161184
0.00144057
0.00130179
0.00116813
0.00102385
0.000866473
0.000710512
0.00055436
1.21257
0.820283
0.559611
0.385427
0.265477
0.180724
0.120168
0.0771937
0.0475117
0.0279988
0.0160366
0.00924726
0.00561512
0.00371313
0.00270301
0.00214706
0.0018244
0.00161956
0.00146731
0.00132756
0.00117457
0.000998089
0.000810426
0.000606626
1.49321
1.02926
0.70902
0.491712
0.341418
0.2351
0.158859
0.104198
0.0656808
0.0395461
0.0228528
0.0129889
0.00758508
0.00475846
0.00328834
0.00250524
0.0020708
0.00181358
0.00164046
0.00149481
0.00133835
0.00114955
0.000932627
0.000670995
1.84851
1.29353
0.896997
0.62487
0.436418
0.303298
0.207788
0.138899
0.0896458
0.0553536
0.0326043
0.0185451
0.0105476
0.00630128
0.00411463
0.00297991
0.00237317
0.0020335
0.00182533
0.00166963
0.00151321
0.0013211
0.00108226
0.000750699
2.30763
1.63132
1.13445
0.79163
0.554832
0.388262
0.269031
0.182836
0.120619
0.0764468
0.0461919
0.0266582
0.0150174
0.0086362
0.00533276
0.00364802
0.00277422
0.00230653
0.00204203
0.00186906
0.00171574
0.00153156
0.00128253
0.000878468
2.92375
2.07086
1.43656
1.00075
0.702083
0.493552
0.345037
0.237771
0.159941
0.103922
0.0645818
0.0381895
0.0216783
0.0122078
0.00718746
0.004637
0.00334517
0.00268073
0.00233313
0.00214251
0.00201368
0.00187905
0.00170533
0.00160581
3.82122
2.66193
1.82617
1.26412
0.88508
0.623523
0.438717
0.305741
0.209107
0.13895
0.0887714
0.054052
0.0313399
0.0176224
0.0100461
0.00614039
0.00418524
0.00321212
0.00274062
0.00254008
0.00249342
0.00253506
0.0026651
0.00301597
5.32675
3.5068
2.34232
1.59945
1.11313
0.783669
0.553586
0.389127
0.269803
0.182789
0.119777
0.0751526
0.0448561
0.0256133
0.0144151
0.00843934
0.00542845
0.00395399
0.00326697
0.0030118
0.00302187
0.00321428
0.00359439
0.00416916
8.67114
4.92013
3.07431
2.03953
1.40063
0.981458
0.694063
0.490775
0.343973
0.236828
0.158655
0.102376
0.0630578
0.0369724
0.0209387
0.0119445
0.00728963
0.00500514
0.00394803
0.00355149
0.00355336
0.00381813
0.00433156
0.00500497
20.0989
8.2332
4.31911
2.65932
1.77243
1.22763
0.865859
0.614159
0.433892
0.302635
0.206539
0.136614
0.086737
0.052484
0.0303553
0.0172151
0.0100996
0.00652945
0.00485327
0.00417673
0.00407242
0.00431628
0.00485876
0.00555412
5.57227
6.87009
8.43464
8.11923
7.47734
6.07025
1.67583
3.35484
4.19878
4.47991
4.61795
4.78052
2.70229
3.01762
3.38437
3.61146
3.83155
4.17646
3.57897
3.05502
3.1319
3.29211
3.51857
3.88498
4.33003
3.14785
3.0352
3.14691
3.37235
3.73752
4.96056
3.21396
2.9844
3.07171
3.29427
3.66004
5.48353
3.24368
2.94737
3.02231
3.2437
3.61043
5.91091
3.24498
2.91407
2.98233
3.20121
3.56225
6.25196
3.22473
2.88283
2.94624
3.15864
3.50368
6.51388
3.19471
2.85522
2.9134
3.11423
3.43343
6.7042
3.16545
2.83392
2.88539
3.06995
3.35616
6.83189
3.14672
2.82179
2.8652
3.03019
3.27945
6.85831
3.13496
2.82013
2.85623
3.00113
3.21212
6.79496
3.12843
2.8312
2.86171
2.98876
3.16403
6.62065
3.12793
2.8586
2.88735
2.99979
3.14435
6.33661
3.13598
2.90726
2.93963
3.0439
3.16326
5.94216
3.15994
2.98443
3.02729
3.13319
3.23553
5.43706
3.20823
3.10123
3.1629
3.28538
3.38042
4.82251
3.296
3.27612
3.36601
3.52607
3.63848
4.10345
3.44954
3.54288
3.67053
3.90187
4.08629
3.2933
3.7252
3.9689
4.14357
4.49802
4.90505
2.40678
4.2549
4.72199
4.9466
5.48399
6.63592
1.49132
5.52276
6.40311
6.60791
7.21971
11.6084
4.76878
10.335
12.2312
11.8494
10.1267
38.8063
14.8121
10.3646
5.70907
3.43261
2.23758
1.5307
1.0747
0.763064
0.542118
0.381975
0.264684
0.178808
0.116678
0.0729004
0.0434371
0.024947
0.0143442
0.00879651
0.00611188
0.00494308
0.00459619
0.00472817
0.00519695
0.00585182
10.2605
9.76459
6.83107
4.23551
2.7659
1.88708
1.32273
0.940316
0.671038
0.476662
0.334432
0.229965
0.153692
0.0989595
0.0609457
0.035921
0.0206803
0.0122323
0.00795426
0.00596892
0.00519587
0.00510844
0.0054127
0.00597269
7.49805
8.59018
7.17838
4.87062
3.29197
2.2763
1.60528
1.14608
0.822038
0.588164
0.417027
0.291086
0.198597
0.131388
0.083609
0.0509253
0.0298903
0.0174475
0.0107559
0.00746059
0.00599573
0.00551907
0.00560885
0.0060045
5.87296
7.76897
7.05398
5.2833
3.75144
2.66606
1.90982
1.37642
0.994506
0.71699
0.513256
0.362948
0.252098
0.170837
0.112076
0.0706716
0.0427658
0.0251932
0.0150654
0.00974347
0.00717612
0.00609354
0.00584965
0.0060376
5.05764
7.12646
6.80702
5.54708
4.13276
3.03488
2.22169
1.6242
1.18541
0.862092
0.62297
0.445776
0.314556
0.21772
0.146802
0.0956844
0.0599437
0.0361979
0.0215478
0.0132817
0.00900602
0.00698922
0.00622244
0.00615828
4.647
6.54089
6.54464
5.7296
4.45332
3.3777
2.53075
1.88105
1.38939
1.0204
0.744539
0.538788
0.38567
0.271989
0.187865
0.126143
0.0817302
0.0509243
0.0307702
0.0185815
0.0118275
0.00839709
0.00686392
0.00641248
4.42192
5.99972
6.38843
5.86963
4.74318
3.6984
2.82994
2.13739
1.59841
1.18622
0.87435
0.639792
0.464034
0.332733
0.2347
0.161676
0.107919
0.0693555
0.0429212
0.0259621
0.0159344
0.0105044
0.00786105
0.00685553
4.26742
5.55053
6.192
5.88457
4.98465
3.97833
3.09992
2.37583
1.79884
1.34984
1.00574
0.744395
0.546953
0.39813
0.285853
0.201144
0.137631
0.090865
0.0576385
0.0353163
0.0213817
0.0133948
0.00925652
0.00749003
4.12624
5.16998
5.87557
5.77304
5.07408
4.1511
3.29588
2.56574
1.9695
1.49676
1.12895
0.846004
0.629732
0.464789
0.338852
0.242595
0.169286
0.114203
0.0740016
0.046047
0.0278589
0.0169389
0.0109872
0.0082622
3.97741
4.82196
5.46134
5.48565
4.98178
4.16033
3.37229
2.67519
2.0875
1.61054
1.23216
0.936063
0.706105
0.528023
0.390081
0.283185
0.200616
0.137572
0.0906348
0.0571676
0.0347275
0.0207788
0.0128682
0.00906406
3.82091
4.49257
5.00577
5.06413
4.71776
4.04808
3.3378
2.6928
2.13964
1.6792
1.30513
1.00608
0.769182
0.582336
0.435193
0.319486
0.228916
0.158847
0.105907
0.0674837
0.0411714
0.0244135
0.0146297
0.00975499
3.66599
4.18632
4.5638
4.60713
4.33169
3.8111
3.22075
2.64291
2.13193
1.70036
1.34291
1.05029
0.813415
0.622823
0.470074
0.348153
0.251516
0.175933
0.118212
0.075813
0.0463731
0.0273269
0.0159902
0.0101997
3.52466
3.91362
4.17053
4.17683
3.93752
3.5136
3.02409
2.5353
2.08114
1.68341
1.34729
1.06755
0.836418
0.646698
0.492019
0.366795
0.26642
0.187223
0.126298
0.0812251
0.0496845
0.0291078
0.0167267
0.0102999
3.40861
3.68539
3.84251
3.80639
3.58287
3.22432
2.80935
2.38906
1.99444
1.63833
1.32706
1.06233
0.839711
0.654107
0.50054
0.374681
0.272861
0.192015
0.129573
0.0832526
0.0507659
0.0295319
0.0167217
0.0100162
3.32863
3.50929
3.58487
3.50781
3.28864
2.97161
2.60997
2.24205
1.89208
1.57281
1.28884
1.04085
0.82837
0.64849
0.49782
0.373173
0.271686
0.190813
0.128295
0.0819948
0.0496422
0.0286048
0.0159817
0.00937196
3.29354
3.39088
3.39691
3.28164
3.05977
2.7671
2.44123
2.11073
1.79429
1.50243
1.24001
1.00819
0.806338
0.633071
0.486393
0.364139
0.264184
0.184509
0.123118
0.0779395
0.0466551
0.0265491
0.0146456
0.0084582
3.31183
3.33455
3.27526
3.1235
2.8935
2.61297
2.30928
2.00372
1.71067
1.4386
1.19182
0.971899
0.778805
0.611695
0.469324
0.350178
0.252645
0.175045
0.115574
0.0722143
0.0425861
0.0238682
0.0130053
0.00743733
3.39985
3.34042
3.21699
3.02761
2.78449
2.50707
2.21516
1.92455
1.64627
1.38717
1.15097
0.939303
0.752522
0.590215
0.451529
0.335341
0.240339
0.165035
0.107718
0.0663666
0.0385229
0.0212596
0.0114592
0.0065194
3.5758
3.41231
3.21796
2.98921
2.72769
2.44593
2.15761
1.87394
1.60328
1.35128
1.12112
0.914381
0.731586
0.572553
0.436649
0.322929
0.23019
0.157005
0.101642
0.0620279
0.0356302
0.0194591
0.0104209
0.00591668
3.86862
3.55484
3.27563
3.00191
2.71842
2.42707
2.13528
1.85147
1.58237
1.33244
1.10435
0.899573
0.718648
0.561449
0.427383
0.315504
0.224572
0.153051
0.0991116
0.0605831
0.0349039
0.0191562
0.0102991
0.00585413
4.32659
3.77247
3.38679
3.06242
2.75232
2.4459
2.14529
1.85606
1.58343
1.33116
1.10165
0.896225
0.715306
0.558639
0.425467
0.314711
0.224927
0.154414
0.101135
0.0628071
0.0368856
0.0206131
0.0112148
0.00636995
5.03119
4.06611
3.54638
3.16675
2.82691
2.50108
2.18641
1.88648
1.60559
1.3471
1.11313
0.904723
0.722025
0.564587
0.431408
0.320999
0.231617
0.161262
0.107728
0.068655
0.0415717
0.0239516
0.0133137
0.00758051
6.12635
4.42496
3.74501
3.31017
2.93924
2.59031
2.25674
1.94118
1.64765
1.37932
1.13806
0.924583
0.738619
0.579223
0.444916
0.33388
0.243955
0.172849
0.11818
0.077544
0.0485748
0.0289778
0.016542
0.00944167
7.62952
4.79379
3.96575
3.48644
3.08595
2.71105
2.35405
2.0181
1.70768
1.42606
1.17487
0.954366
0.763721
0.60123
0.464625
0.351588
0.259759
0.186646
0.129774
0.0867848
0.0554704
0.0337411
0.0195912
0.011423
11.7174
20.538
19.8781
15.4861
47.5087
54.93
2.53128
11.6431
11.4213
10.7034
13.8589
15.1477
4.77161
8.82393
8.61826
8.45474
9.21406
9.0477
6.29561
7.55901
7.28588
7.19365
7.39297
7.08552
7.61799
6.8243
6.50572
6.41535
6.45191
6.23401
8.72699
6.37093
5.99882
5.90936
5.91648
5.82331
9.62926
6.07426
5.65063
5.56973
5.60093
5.63196
10.3358
5.87337
5.4035
5.33658
5.41398
5.56024
10.8571
5.73401
5.22365
5.17357
5.3044
5.55539
11.2018
5.63578
5.08981
5.05705
5.24082
5.58926
11.3776
5.56673
4.98841
4.97096
5.20242
5.64141
11.3884
5.52078
4.91131
4.90434
5.17496
5.6986
11.2402
5.50426
4.85412
4.84992
5.14872
5.75373
11.0153
5.52792
4.81556
4.80356
5.11719
5.8042
10.7066
5.58002
4.79189
4.76258
5.07766
5.84895
10.3044
5.64347
4.77853
4.72414
5.03162
5.89096
9.80069
5.69843
4.76943
4.68632
4.98226
5.93808
9.18606
5.71831
4.75845
4.64824
4.93405
6.00533
8.44468
5.67919
4.73784
4.61123
4.89259
6.10642
7.54455
5.55284
4.70179
4.58309
4.86737
6.25597
6.42645
5.28096
4.66291
4.59098
4.88264
6.48808
5.00322
4.89634
4.70892
4.71487
5.01088
6.96076
2.65247
4.88982
5.21697
5.29476
5.53335
8.33801
11.18
8.73591
8.87421
8.36405
7.73672
6.16518
8.2858
5.03405
4.1863
3.68857
3.26334
2.8604
2.47557
2.11448
1.78296
1.48466
1.22096
0.991656
0.793823
0.625508
0.484472
0.368047
0.273404
0.197762
0.138537
0.0933861
0.0601747
0.0368944
0.021578
0.0127996
7.05519
5.11375
4.39803
3.9123
3.46838
3.03537
2.61796
2.22662
1.86954
1.55107
1.27168
1.02834
0.820189
0.645074
0.499624
0.380119
0.283079
0.205426
0.144454
0.097789
0.0633058
0.0389985
0.0229053
0.0136867
6.29753
5.16761
4.61469
4.15888
3.69958
3.23281
2.77675
2.34911
1.96141
1.6165
1.31402
1.0555
0.838753
0.658418
0.50951
0.387573
0.288719
0.209633
0.1475
0.0999064
0.0647166
0.0399084
0.0235003
0.0141885
5.88642
5.25442
4.85303
4.43298
3.95612
3.44825
2.945
2.47354
2.04449
1.66494
1.34207
1.07219
0.848304
0.663713
0.512262
0.3888
0.289018
0.20935
0.146856
0.0990976
0.06394
0.0393278
0.0232215
0.0142269
5.69948
5.39338
5.12645
4.7388
4.2348
3.67329
3.11119
2.57854
2.09967
1.69333
1.35467
1.07508
0.845189
0.656977
0.503792
0.379843
0.280331
0.201381
0.139899
0.093365
0.0595698
0.0363512
0.0215472
0.0135521
5.65388
5.5886
5.44222
5.07567
4.52596
3.89209
3.24375
2.64205
2.12764
1.69908
1.34514
1.05542
0.820467
0.63098
0.478767
0.357033
0.260352
0.184495
0.126182
0.0827828
0.0519673
0.0314102
0.0187913
0.0122703
5.70418
5.83718
5.79925
5.43298
4.80839
4.05993
3.31763
2.66893
2.12271
1.66941
1.3012
1.00593
0.77092
0.584634
0.437354
0.3213
0.230465
0.160307
0.107386
0.0689519
0.0425167
0.025567
0.0156436
0.0107669
5.82502
6.13512
6.18442
5.78496
5.02649
4.14673
3.34177
2.64701
2.06575
1.59501
1.2212
0.927856
0.69911
0.521242
0.383148
0.27623
0.194047
0.131858
0.0861282
0.053995
0.0327944
0.0198523
0.0126714
0.00933068
5.99223
6.47326
6.57161
6.08986
5.13496
4.16837
3.29793
2.5574
1.95582
1.48061
1.11184
0.828728
0.612548
0.447811
0.322399
0.227208
0.155603
0.102805
0.0652503
0.0399698
0.0241348
0.0150047
0.0102199
0.00812821
6.1893
6.83581
6.92318
6.26098
5.1637
4.1032
3.17371
2.41023
1.80638
1.34033
0.986429
0.720382
0.52138
0.372784
0.261962
0.17968
0.119362
0.0763233
0.0470027
0.0283094
0.0173078
0.011346
0.0084095
0.00723119
6.40177
7.2087
7.21039
6.32786
5.09606
3.9539
2.9957
2.23053
1.6391
1.19213
0.859476
0.614329
0.43457
0.303025
0.207016
0.137493
0.0881186
0.0543435
0.0325713
0.0195877
0.0124643
0.00885056
0.00719901
0.00663557
6.62275
7.575
7.42187
6.32128
4.9537
3.76677
2.79975
2.04456
1.473
1.04975
0.740908
0.517677
0.357151
0.242062
0.160013
0.102336
0.0629801
0.0374748
0.0221248
0.0136469
0.00932031
0.00728061
0.00647148
0.00633522
6.86014
7.91824
7.56802
6.24619
4.79949
3.58133
2.60917
1.8665
1.31701
0.918875
0.634234
0.432502
0.290275
0.190487
0.121237
0.0743033
0.043857
0.0254032
0.0151378
0.00988954
0.00739807
0.0063505
0.00609214
0.00622756
7.13568
8.23723
7.69906
6.18304
4.66436
3.40744
2.42716
1.69768
1.17169
0.799459
0.538992
0.358094
0.233103
0.14751
0.0900053
0.0527618
0.0300557
0.017304
0.0107397
0.00760417
0.006241
0.00581676
0.00591099
0.0062364
7.4637
8.56319
7.87034
6.16645
4.54356
3.23559
2.24742
1.53476
1.03512
0.690099
0.453916
0.293108
0.184456
0.11215
0.0654574
0.0368461
0.0205971
0.0121308
0.00803648
0.00619873
0.00551955
0.00548854
0.00580765
0.00630136
7.85928
8.93713
8.10531
6.17197
4.41628
3.05438
2.06495
1.37579
0.906408
0.590016
0.377919
0.236587
0.143486
0.0836014
0.0467495
0.0255746
0.0143801
0.00888518
0.00634046
0.00528016
0.00501681
0.00520668
0.00570573
0.00629988
8.33305
9.39466
8.40258
6.16676
4.26095
2.85562
1.87824
1.22112
0.785699
0.498825
0.310555
0.187951
0.109522
0.0611182
0.0329877
0.0178877
0.0103725
0.0068159
0.0052157
0.0046158
0.00459113
0.00490981
0.00550475
0.00616409
8.90249
9.96362
8.71189
6.10363
4.06315
2.63788
1.68935
1.07228
0.673616
0.416546
0.251427
0.146637
0.0819304
0.043939
0.0232194
0.0127719
0.00777485
0.0054425
0.00441121
0.00407148
0.0041495
0.00451661
0.00511336
0.0057874
9.6388
10.6873
8.92767
5.96698
3.82026
2.40492
1.5016
0.931015
0.570653
0.343034
0.200156
0.112177
0.0601224
0.0312682
0.0164977
0.009393
0.00605018
0.00448168
0.00378658
0.00357182
0.00365676
0.00396204
0.00445685
0.00507518
10.7125
11.5936
9.06691
5.73562
3.53286
2.16139
1.31817
0.798682
0.477114
0.278135
0.15642
0.0841293
0.0434598
0.0222541
0.0119684
0.00714676
0.00486824
0.0037753
0.00327208
0.00309285
0.0031084
0.00325107
0.00351614
0.00396147
12.4139
12.6937
9.07018
5.39053
3.20604
1.91375
1.14234
0.676383
0.393132
0.221651
0.119881
0.0619851
0.0311957
0.0160376
0.00894588
0.00563357
0.00403554
0.00323959
0.00284226
0.00265067
0.00255602
0.00248384
0.00239981
0.00242807
15.0544
13.838
8.61623
4.92097
2.853
1.66955
0.976809
0.564771
0.318692
0.173354
0.0901508
0.0451111
0.0224885
0.0118404
0.00692941
0.00460119
0.00344156
0.00283542
0.00250137
0.00229333
0.00211862
0.00190684
0.00160565
0.00106584
18.9964
14.4262
7.90308
4.37467
2.48944
1.43403
0.823168
0.464177
0.25372
0.132971
0.0667069
0.032708
0.0164715
0.0090254
0.00556994
0.00388639
0.00301667
0.00253974
0.00225566
0.00205518
0.00186695
0.00163991
0.00134016
0.000874939
24.4604
14.2588
6.98701
3.77223
2.1286
1.21233
0.68294
0.374922
0.198126
0.10012
0.0488361
0.0238662
0.0123655
0.00711405
0.00462351
0.00336987
0.00269614
0.00230756
0.00205843
0.00186562
0.00167304
0.00144233
0.0011591
0.00077954
6.06612
15.2835
17.8744
17.5244
47.1302
63.4301
1.74172
7.59813
9.53588
10.4189
14.7166
20.0863
2.87501
5.90539
7.13455
7.86881
9.26113
11.2118
3.85406
5.25046
5.99994
6.49111
7.08058
7.76274
4.71853
4.93571
5.30869
5.57348
5.81447
5.99147
5.44062
4.76082
4.82474
4.89718
4.93435
4.87882
6.00933
4.63889
4.45631
4.3713
4.2744
4.09194
6.42683
4.52905
4.15676
3.94793
3.7562
3.49938
6.70339
4.41025
3.90197
3.5991
3.33978
3.03864
6.85388
4.27588
3.67941
3.30768
3.00034
2.67305
6.89605
4.12869
3.48375
3.06312
2.72144
2.37867
6.85024
3.97651
3.31389
2.85893
2.49167
2.1394
6.74029
3.82921
3.17087
2.6911
2.30292
1.94414
6.57136
3.69378
3.05667
2.55726
2.14943
1.78504
6.31308
3.57141
2.97376
2.45647
2.0274
1.65663
5.9559
3.4648
2.92607
2.38922
1.93483
1.55538
5.49997
3.37732
2.91651
2.36192
1.87204
1.47966
4.95002
3.3129
2.94879
2.37326
1.84579
1.43017
4.31393
3.27801
3.03257
2.43994
1.85944
1.41274
3.60416
3.27621
3.18032
2.58617
1.93895
1.43621
2.83972
3.32476
3.41685
2.86242
2.13537
1.53432
2.05105
3.46653
3.81323
3.38942
2.57949
1.79843
1.34812
3.90285
4.65926
4.54232
3.68555
2.55286
3.90308
6.10625
7.31408
7.57872
6.92846
5.88673
28.4254
11.3728
5.68812
3.14806
1.78753
1.00926
0.557305
0.297222
0.151716
0.074234
0.0356802
0.0176849
0.00953344
0.00576717
0.00392868
0.00296793
0.0024276
0.00209682
0.00186711
0.00167488
0.00147775
0.00125125
0.000996812
0.000696692
14.4699
7.82253
4.48042
2.59102
1.4823
0.828026
0.447024
0.231153
0.114119
0.0545631
0.0262218
0.013358
0.00753426
0.00478052
0.00339036
0.00263173
0.00218289
0.00189015
0.00167211
0.00148102
0.00128674
0.00107602
0.000858407
0.000626795
9.33134
5.93839
3.61101
2.1314
1.21771
0.669826
0.352424
0.17651
0.0847315
0.0400316
0.0195008
0.0103048
0.00608551
0.00403074
0.00295154
0.00233488
0.00195047
0.00168476
0.00147673
0.00129146
0.00110858
0.000922224
0.000743984
0.000569583
6.85418
4.68029
2.93647
1.74721
0.990514
0.534269
0.273236
0.132762
0.0624605
0.0295106
0.014739
0.00811652
0.00500532
0.00343911
0.00257939
0.00206497
0.00172835
0.00148482
0.00128882
0.0011153
0.000950723
0.000792993
0.000652151
0.00052375
5.32773
3.76132
2.39794
1.42637
0.798057
0.420446
0.208682
0.0988709
0.0459906
0.0219828
0.0113475
0.00651577
0.0041794
0.00295666
0.00225547
0.00181745
0.00151901
0.00129644
0.00111579
0.000959054
0.000816873
0.000688262
0.000580271
0.000487635
4.2833
3.06721
1.96481
1.16011
0.637306
0.326778
0.157614
0.0732514
0.0340261
0.0166191
0.00890486
0.00532006
0.00353135
0.00255392
0.00197013
0.00159178
0.00132624
0.00112514
0.00096291
0.000826133
0.000707574
0.000605914
0.000525134
0.000459491
3.52786
2.53101
1.61472
0.940385
0.5048
0.25129
0.118275
0.0542883
0.0254302
0.0127863
0.00711875
0.00441043
0.00301007
0.00221229
0.00171836
0.0013889
0.00115343
0.000974623
0.000832706
0.000716982
0.000621036
0.000542694
0.000483481
0.000437711
2.96165
2.10942
1.33057
0.759983
0.39694
0.191881
0.0885301
0.0404572
0.0192812
0.0100235
0.00578935
0.00370637
0.00258373
0.00192035
0.00149751
0.00120983
0.00100264
0.000846468
0.000725331
0.000629991
0.000554233
0.000495079
0.00045238
0.000420932
2.5238
1.77312
1.09918
0.612593
0.310234
0.146153
0.0664133
0.0304627
0.0148745
0.00800832
0.00478491
0.00314878
0.00223052
0.00167059
0.00130584
0.00105492
0.00087444
0.000740408
0.000639216
0.000562376
0.000503719
0.000459761
0.000429372
0.00040807
2.17761
1.50188
0.910235
0.492797
0.241682
0.111367
0.0501492
0.0232665
0.0116933
0.00651464
0.00401671
0.00270068
0.00193587
0.0014577
0.0011417
0.000923604
0.000768058
0.000654818
0.000571784
0.000510913
0.000466168
0.000433897
0.000412499
0.000398282
1.89982
1.28125
0.755637
0.395844
0.188435
0.0852079
0.0382692
0.0180769
0.00937268
0.00539202
0.003418
0.00233657
0.00168954
0.00127755
0.0010032
0.00081447
0.000681709
0.000587265
0.000520056
0.000472433
0.000438659
0.000415176
0.000400248
0.000390923
1.6746
1.10055
0.629005
0.318012
0.147505
0.0656974
0.0296137
0.0143122
0.00765833
0.00453657
0.00294323
0.00203829
0.0014839
0.00112652
0.000888119
0.000725459
0.000613017
0.000534985
0.000481079
0.000444107
0.000418776
0.000401794
0.000391476
0.000385492
1.49092
0.951802
0.525265
0.256224
0.116154
0.0511968
0.0232968
0.0115539
0.00637109
0.00387946
0.00256284
0.00179305
0.00131297
0.0010013
0.000793955
0.00065415
0.000559376
0.000495242
0.000452188
0.000423562
0.000404607
0.000392378
0.000385325
0.000381589
1.34087
0.828945
0.440179
0.207874
0.0922617
0.0404309
0.018663
0.00951017
0.005393
0.00336509
0.00225556
0.00159138
0.00117187
0.000898719
0.000718102
0.000598005
0.000518226
0.000465545
0.000431119
0.000408895
0.000394676
0.000385884
0.000381167
0.000378888
1.21872
0.727386
0.370793
0.170139
0.0740884
0.0324236
0.0152374
0.00797697
0.00463986
0.00295655
0.00200598
0.00142598
0.00105642
0.000815817
0.000657989
0.00055458
0.000487231
0.000443758
0.000416042
0.000398634
0.000387876
0.000381575
0.000378479
0.00037711
1.12033
0.643503
0.314733
0.140602
0.0602414
0.0264398
0.0126785
0.00681037
0.0040545
0.00262931
0.00180294
0.00129109
0.000963033
0.000749849
0.000611212
0.000521658
0.000464374
0.000428136
0.000405524
0.000391669
0.00038339
0.000378892
0.000376828
0.000376018
1.04279
0.574177
0.270104
0.117473
0.0496551
0.0219363
0.0107438
0.00591059
0.0035966
0.00236611
0.00163816
0.00118209
0.000888609
0.00069836
0.000575628
0.000497326
0.000447991
0.000417294
0.000398478
0.000387188
0.000380642
0.000377318
0.000375891
0.000375399
0.984302
0.517384
0.234665
0.0992999
0.0415152
0.0185166
0.00926429
0.00520984
0.00323288
0.002154
0.00150529
0.00109522
0.000830502
0.000659227
0.000549421
0.000480016
0.000436769
0.000410179
0.000394085
0.00038457
0.000379206
0.000376569
0.000375477
0.000375113
0.944032
0.471732
0.206169
0.084886
0.0352014
0.0158922
0.00811974
0.00465865
0.00294204
0.00198358
0.00139948
0.00102745
0.000786515
0.000630689
0.000531119
0.000468509
0.00042973
0.000406037
0.00039179
0.000383428
0.000378759
0.00037643
0.000375411
0.000375055
0.921777
0.436022
0.182963
0.0732874
0.0302439
0.0138537
0.00722486
0.00422248
0.00270969
0.0018481
0.00131699
0.000976364
0.000754866
0.000611338
0.000519585
0.000461901
0.000426176
0.000404341
0.000391192
0.000383437
0.000379003
0.00037668
0.00037557
0.000375094
0.918117
0.409582
0.163574
0.0637341
0.0262864
0.0122501
0.00652038
0.00387831
0.00252627
0.00174285
0.00125507
0.000940084
0.00073416
0.000600096
0.000513983
0.000459551
0.000425622
0.000404715
0.000391983
0.000384349
0.000379869
0.000377324
0.000375937
0.000375204
0.937883
0.387908
0.146287
0.0555751
0.0230637
0.0109761
0.00596577
0.00361355
0.00238595
0.00166474
0.00121176
0.000917233
0.000723372
0.0005962
0.000513749
0.000461055
0.000427777
0.00040696
0.000394049
0.00038611
0.00038126
0.000378302
0.000376501
0.0003754
0.987785
0.364246
0.129147
0.0482907
0.0203956
0.00996705
0.00554018
0.00341846
0.00228566
0.00161212
0.00118591
0.000906947
0.000721849
0.000599176
0.000518622
0.000466288
0.00043261
0.000411093
0.000397423
0.000388759
0.00038323
0.000379636
0.000377265
0.000375686
1.03596
0.326553
0.110246
0.0416041
0.0181977
0.00919565
0.00523596
0.00328983
0.00222469
0.00158455
0.00117705
0.000908756
0.000729347
0.000608998
0.000528649
0.000475381
0.000440289
0.000417286
0.000402258
0.000392419
0.000385878
0.000381402
0.000378294
0.00037612
)
;

boundaryField
{
    rotor
    {
        type            epsilonWallFunction;
        value           nonuniform List<scalar> 
144
(
3.26384
4.79673
5.53468
5.44837
4.93148
4.66004
3.26384
1.22003
1.83458
2.58452
3.30059
3.94534
4.50169
4.96425
5.33119
5.60089
5.77164
5.84385
5.83621
5.80894
5.73989
5.60454
5.37951
5.04408
4.58081
3.97929
3.2428
2.39665
1.511
4.52913
4.52913
10.9049
13.4434
13.2159
11.0081
44.0362
5.57227
6.87009
8.43464
8.11923
7.47734
6.07025
5.57227
1.67583
2.70229
3.57897
4.33003
4.96056
5.48353
5.91091
6.25196
6.51388
6.7042
6.83189
6.85831
6.79496
6.62065
6.33661
5.94216
5.43706
4.82251
4.10345
3.2933
2.40678
1.49132
4.76878
4.76878
10.335
12.2312
11.8494
10.1267
38.8063
11.7174
20.538
19.8781
15.4861
47.5087
54.93
11.7174
2.53128
4.77161
6.29561
7.61799
8.72699
9.62926
10.3358
10.8571
11.2018
11.3776
11.3884
11.2402
11.0153
10.7066
10.3044
9.80069
9.18606
8.44468
7.54455
6.42645
5.00322
2.65247
11.18
11.18
8.73591
8.87421
8.36405
7.73672
6.16518
6.06612
15.2835
17.8744
17.5244
47.1302
63.4301
6.06612
1.74172
2.87501
3.85406
4.71853
5.44062
6.00933
6.42683
6.70339
6.85388
6.89605
6.85024
6.74029
6.57136
6.31308
5.9559
5.49997
4.95002
4.31393
3.60416
2.83972
2.05105
1.34812
3.90308
3.90308
6.10625
7.31408
7.57872
6.92846
5.88673
)
;
    }
    freestream
    {
        type            inletOutlet;
        inletValue      uniform 0.000375;
        value           nonuniform List<scalar> 
96
(
0.000375
0.000375
0.000375
0.000375
0.000375
0.000375
0.000375
0.000375
0.000375
0.000375
0.000375
0.000375
0.000375
0.000375
0.000375
0.000375
0.000375
0.000375
0.000375
0.00160581
0.00301597
0.00416916
0.00500497
0.00555412
0.00585182
0.00597269
0.0060045
0.0060376
0.00615828
0.00641248
0.00685553
0.00749003
0.0082622
0.00906406
0.00975499
0.0101997
0.0102999
0.0100162
0.00937196
0.0084582
0.00743733
0.0065194
0.00591668
0.00585413
0.00636995
0.00758051
0.00944167
0.011423
0.0127996
0.0136867
0.0141885
0.0142269
0.0135521
0.0122703
0.0107669
0.00933068
0.00812821
0.00723119
0.00663557
0.00633522
0.00622756
0.0062364
0.00630136
0.00629988
0.00616409
0.0057874
0.00507518
0.00396147
0.00242807
0.000375
0.000375
0.000375
0.000375
0.000375
0.000375
0.000375
0.000375
0.000375
0.000375
0.000375
0.000375
0.000375
0.000375
0.000375
0.000375
0.000375
0.000375
0.000375
0.000375
0.000375
0.000375
0.000375
0.000375