/*--------------------------------*- C++ -*----------------------------------*\
  =========                 |
  \\      /  F ield         | OpenFOAM: The Open Source CFD Toolbox
   \\    /   O peration     | Website:  https://openfoam.org
    \\  /    A nd           | Version:  11
     \\/     M anipulation  |
\*---------------------------------------------------------------------------*/
FoamFile
{
    format      ascii;
    class       surfaceScalarField;
    location    "0.04";
    object      meshPhi;
}
// * * * * * * * * * * * * * * * * * * * * * * * * * * * * * * * * * * * * * //

dimensions      [0 3 -1 0 0 0 0];

internalField   nonuniform List<scalar> 
5640
(
1.36936e-16
9.81747e-07
2.42056e-16
1.37445e-06
3.76889e-16
1.76715e-06
-1.33941e-15
2.15984e-06
-3.68167e-15
2.55254e-06
2.94524e-06
5.95103e-15
1.79907e-18
9.81747e-07
-3.88799e-16
1.37445e-06
-2.60427e-15
1.76715e-06
1.94353e-15
2.15984e-06
8.06613e-15
2.55254e-06
2.94524e-06
-9.03004e-15
-1.16495e-16
9.81747e-07
1.864e-16
1.37445e-06
-1.56243e-15
1.76715e-06
-4.21268e-15
2.15984e-06
-7.49859e-15
2.55254e-06
2.94524e-06
7.72205e-16
8.69344e-17
9.81747e-07
-1.01917e-16
1.37445e-06
2.69313e-15
1.76715e-06
7.44271e-15
2.15984e-06
3.2597e-15
2.55254e-06
2.94524e-06
-2.79815e-15
-4.84051e-17
9.81747e-07
3.94559e-17
1.37445e-06
1.9415e-16
1.76715e-06
-1.80624e-15
2.15984e-06
-4.20861e-15
2.55254e-06
2.94524e-06
5.01321e-15
-1.80139e-16
9.81747e-07
4.27361e-18
1.37445e-06
-1.84795e-15
1.76715e-06
-3.88621e-15
2.15984e-06
3.15695e-15
2.55254e-06
2.94524e-06
4.97916e-16
2.53944e-16
9.81747e-07
2.55397e-16
1.37445e-06
2.06589e-15
1.76715e-06
4.50394e-15
2.15984e-06
-2.31006e-15
2.55254e-06
2.94524e-06
5.40796e-16
2.16334e-17
9.81747e-07
-3.21723e-16
1.37445e-06
-1.14905e-15
1.76715e-06
-5.28572e-15
2.15984e-06
-3.76981e-16
2.55254e-06
2.94524e-06
-5.63988e-15
-1.43423e-16
9.81747e-07
1.66356e-16
1.37445e-06
4.19107e-15
1.76715e-06
6.34932e-15
2.15984e-06
-8.05786e-16
2.55254e-06
2.94524e-06
8.39081e-16
-6.88189e-17
9.81747e-07
-9.21194e-17
1.37445e-06
-2.76944e-15
1.76715e-06
-3.68818e-16
2.15984e-06
-1.45096e-15
2.55254e-06
2.94524e-06
-1.76832e-16
1.66325e-16
9.81747e-07
-8.87502e-17
1.37445e-06
5.69591e-16
1.76715e-06
-2.10359e-15
2.15984e-06
9.65995e-15
2.55254e-06
2.94524e-06
5.28995e-15
-1.77791e-16
9.81747e-07
-2.05407e-17
1.37445e-06
-3.45557e-16
1.76715e-06
-4.17282e-15
2.15984e-06
-2.62235e-15
2.55254e-06
2.94524e-06
5.36926e-15
1.77775e-16
9.81747e-07
2.04699e-17
1.37445e-06
3.45351e-16
1.76715e-06
4.17253e-15
2.15984e-06
2.62224e-15
2.55254e-06
2.94524e-06
-5.36971e-15
-1.66346e-16
9.81747e-07
8.86673e-17
1.37445e-06
-5.69758e-16
1.76715e-06
2.10338e-15
2.15984e-06
-9.66022e-15
2.55254e-06
2.94524e-06
-5.29034e-15
6.87974e-17
9.81747e-07
9.2048e-17
1.37445e-06
2.76928e-15
1.76715e-06
3.68623e-16
2.15984e-06
1.45071e-15
2.55254e-06
2.94524e-06
1.7634e-16
1.43369e-16
9.81747e-07
-1.66424e-16
1.37445e-06
-4.19124e-15
1.76715e-06
-6.34954e-15
2.15984e-06
8.05443e-16
2.55254e-06
2.94524e-06
-8.39438e-16
-2.16794e-17
9.81747e-07
3.21656e-16
1.37445e-06
1.1488e-15
1.76715e-06
5.28551e-15
2.15984e-06
3.76648e-16
2.55254e-06
2.94524e-06
5.63984e-15
-2.53995e-16
9.81747e-07
-2.55456e-16
1.37445e-06
-2.06602e-15
1.76715e-06
-4.50425e-15
2.15984e-06
2.31001e-15
2.55254e-06
2.94524e-06
-5.41057e-16
1.80086e-16
9.81747e-07
-4.37965e-18
1.37445e-06
1.84768e-15
1.76715e-06
3.88611e-15
2.15984e-06
-3.15726e-15
2.55254e-06
2.94524e-06
-4.98388e-16
4.83699e-17
9.81747e-07
-3.95545e-17
1.37445e-06
-1.9444e-16
1.76715e-06
1.80597e-15
2.15984e-06
4.20837e-15
2.55254e-06
2.94524e-06
-5.01348e-15
-8.69821e-17
9.81747e-07
1.01843e-16
1.37445e-06
-2.69325e-15
1.76715e-06
-7.44291e-15
2.15984e-06
-3.25984e-15
2.55254e-06
2.94524e-06
2.79779e-15
1.16422e-16
9.81747e-07
-1.86406e-16
1.37445e-06
1.56224e-15
1.76715e-06
4.21246e-15
2.15984e-06
7.49824e-15
2.55254e-06
2.94524e-06
-7.72637e-16
-1.87155e-18
9.81747e-07
3.88756e-16
1.37445e-06
2.60405e-15
1.76715e-06
-1.9437e-15
2.15984e-06
-8.06636e-15
2.55254e-06
2.94524e-06
9.02971e-15
-1.36971e-16
-2.42141e-16
-3.77038e-16
1.33916e-15
3.68145e-15
-5.95137e-15
-1.13364e-14
4.53785e-06
-4.53785e-06
-4.81484e-16
5.23599e-06
-5.23599e-06
-5.35756e-15
5.93412e-06
-5.93412e-06
-1.13041e-14
6.63225e-06
-6.63225e-06
4.86877e-15
7.33038e-06
-7.33038e-06
-1.10934e-15
8.02851e-06
-8.02851e-06
-8.15882e-15
8.72664e-06
-8.72664e-06
1.30438e-14
9.42478e-06
-9.42478e-06
5.94811e-15
1.01229e-05
-1.01229e-05
-1.99839e-15
1.0821e-05
-1.0821e-05
2.43858e-14
1.15192e-05
-1.15192e-05
1.61872e-14
1.22173e-05
-1.22173e-05
-3.27875e-14
1.29154e-05
-1.29154e-05
-3.05207e-15
1.36136e-05
-1.36136e-05
-1.44468e-14
1.43117e-05
-1.43117e-05
-2.69e-14
1.50098e-05
-1.50098e-05
7.73657e-15
1.5708e-05
-1.5708e-05
-4.43735e-15
1.64061e-05
-1.64061e-05
-1.8003e-14
1.71042e-05
-1.71042e-05
2.18176e-14
1.78024e-05
-1.78024e-05
8.20924e-15
1.85005e-05
-1.85005e-05
-6.08639e-15
1.91986e-05
-1.91986e-05
3.89164e-14
1.98967e-05
-1.98967e-05
2.05949e-05
-2.05949e-05
9.39865e-15
4.53785e-06
5.19984e-16
5.23599e-06
7.52801e-15
5.93412e-06
-4.41215e-15
6.63225e-06
3.78281e-15
7.33038e-06
1.3384e-14
8.02851e-06
-2.11054e-15
8.72664e-06
8.52743e-15
9.42478e-06
-1.00268e-14
1.01229e-05
1.86464e-15
1.0821e-05
-2.02041e-14
1.15192e-05
-7.01672e-15
1.22173e-05
7.50925e-15
1.29154e-05
2.36081e-14
1.36136e-05
-2.0471e-15
1.43117e-05
1.48302e-14
1.50098e-05
-1.38813e-14
1.5708e-05
2.38956e-15
1.64061e-05
2.04086e-14
1.71042e-05
-7.01932e-15
1.78024e-05
1.20611e-14
1.85005e-05
-2.59438e-14
1.91986e-05
1.84396e-15
1.98967e-05
2.05949e-05
-8.67658e-15
4.53785e-06
1.22922e-14
5.23599e-06
1.88269e-15
5.93412e-06
8.90197e-15
6.63225e-06
-5.1088e-15
7.33038e-06
-2.1992e-14
8.02851e-06
1.22642e-14
8.72664e-06
-5.3756e-15
9.42478e-06
4.45605e-15
1.01229e-05
-1.43078e-14
1.0821e-05
-7.32777e-15
1.15192e-05
7.03895e-15
1.22173e-05
2.39933e-14
1.29154e-05
-7.55506e-15
1.36136e-05
9.79647e-15
1.43117e-05
-1.62378e-14
1.50098e-05
4.02931e-14
1.5708e-05
1.44445e-14
1.64061e-05
-1.37053e-14
1.71042e-05
-7.89977e-15
1.78024e-05
-3.9255e-14
1.85005e-05
4.2747e-14
1.91986e-05
-8.85081e-15
1.98967e-05
2.05949e-05
5.98585e-15
4.53785e-06
2.18821e-16
5.23599e-06
-6.43541e-15
5.93412e-06
6.06393e-15
6.63225e-06
-2.0938e-15
7.33038e-06
1.61762e-14
8.02851e-06
-1.88312e-14
8.72664e-06
-2.35137e-15
9.42478e-06
9.17083e-15
1.01229e-05
-4.71137e-15
1.0821e-05
2.16261e-14
1.15192e-05
-2.96446e-14
1.22173e-05
-9.28939e-15
1.29154e-05
-1.89093e-14
1.36136e-05
4.46542e-15
1.43117e-05
3.0151e-14
1.50098e-05
-2.62197e-14
1.5708e-05
4.36444e-16
1.64061e-05
-2.11745e-14
1.71042e-05
1.87086e-14
1.78024e-05
-3.92678e-15
1.85005e-05
-2.91618e-14
1.91986e-05
1.52318e-14
1.98967e-05
2.05949e-05
6.71512e-15
4.53785e-06
-7.307e-15
5.23599e-06
1.11009e-14
5.93412e-06
-4.2412e-15
6.63225e-06
1.51017e-14
7.33038e-06
-5.20956e-15
8.02851e-06
1.70129e-14
8.72664e-06
-3.9408e-15
9.42478e-06
-2.95374e-16
1.01229e-05
6.61011e-15
1.0821e-05
1.37044e-14
1.15192e-05
1.01836e-14
1.22173e-05
1.82178e-14
1.29154e-05
1.43656e-14
1.36136e-05
2.33396e-14
1.43117e-05
-2.53467e-14
1.50098e-05
2.90726e-14
1.5708e-05
-7.8285e-15
1.64061e-05
3.54132e-14
1.71042e-05
-4.5179e-15
1.78024e-05
4.23668e-14
1.85005e-05
-5.86764e-16
1.91986e-05
-8.73951e-15
1.98967e-05
2.05949e-05
-4.63065e-15
4.53785e-06
5.79726e-15
5.23599e-06
-1.61507e-14
5.93412e-06
-5.97505e-15
6.63225e-06
-8.55555e-15
7.33038e-06
4.22304e-15
8.02851e-06
-8.18776e-15
8.72664e-06
6.99907e-15
9.42478e-06
-2.42302e-14
1.01229e-05
-7.77051e-15
1.0821e-05
-2.27651e-14
1.15192e-05
8.34832e-15
1.22173e-05
-7.40547e-15
1.29154e-05
2.82645e-14
1.36136e-05
-4.57102e-14
1.43117e-05
-8.22323e-15
1.50098e-05
-2.82297e-14
1.5708e-05
-2.34317e-15
1.64061e-05
-6.94764e-15
1.71042e-05
2.21472e-14
1.78024e-05
-3.41132e-14
1.85005e-05
-3.74391e-15
1.91986e-05
-3.23514e-14
1.98967e-05
2.05949e-05
-8.92544e-15
4.53785e-06
-2.28924e-15
5.23599e-06
-2.22416e-15
5.93412e-06
6.6158e-15
6.63225e-06
-3.3892e-15
7.33038e-06
-3.90796e-15
8.02851e-06
-6.41946e-15
8.72664e-06
-7.15924e-15
9.42478e-06
6.8091e-15
1.01229e-05
6.98186e-15
1.0821e-05
-9.0664e-15
1.15192e-05
6.75792e-15
1.22173e-05
-2.88916e-14
1.29154e-05
-1.22358e-14
1.36136e-05
4.80459e-15
1.43117e-05
2.50211e-14
1.50098e-05
3.85827e-15
1.5708e-05
3.60456e-15
1.64061e-05
-2.04866e-14
1.71042e-05
-2.17628e-14
1.78024e-05
3.46266e-15
1.85005e-05
2.90367e-14
1.91986e-05
-1.66692e-15
1.98967e-05
2.05949e-05
6.21538e-15
4.53785e-06
-3.8792e-15
5.23599e-06
1.54221e-14
5.93412e-06
-7.0655e-15
6.63225e-06
-2.2109e-15
7.33038e-06
1.42852e-15
8.02851e-06
-5.49383e-15
8.72664e-06
1.32243e-14
9.42478e-06
6.04469e-15
1.01229e-05
-1.74524e-14
1.0821e-05
2.08864e-14
1.15192e-05
-2.14474e-14
1.22173e-05
1.91323e-14
1.29154e-05
-7.31856e-15
1.36136e-05
3.84848e-14
1.43117e-05
-1.29255e-14
1.50098e-05
-1.88593e-15
1.5708e-05
5.71408e-15
1.64061e-05
-7.58629e-15
1.71042e-05
2.76571e-14
1.78024e-05
1.40964e-14
1.85005e-05
-5.31435e-14
1.91986e-05
3.90839e-14
1.98967e-05
2.05949e-05
-1.49883e-15
4.53785e-06
1.08969e-14
5.23599e-06
-6.60006e-15
5.93412e-06
7.26478e-15
6.63225e-06
6.17467e-15
7.33038e-06
2.48739e-15
8.02851e-06
-9.65825e-16
8.72664e-06
-4.36583e-15
9.42478e-06
-8.90185e-15
1.01229e-05
1.38627e-14
1.0821e-05
1.06889e-14
1.15192e-05
6.24766e-15
1.22173e-05
-1.3052e-16
1.29154e-05
-3.44082e-15
1.36136e-05
-1.10442e-14
1.43117e-05
-1.7766e-14
1.50098e-05
1.76781e-14
1.5708e-05
9.94958e-15
1.64061e-05
3.32906e-15
1.71042e-05
-3.29708e-14
1.78024e-05
-1.04241e-14
1.85005e-05
3.00669e-14
1.91986e-05
-5.99996e-14
1.98967e-05
2.05949e-05
5.17004e-15
4.53785e-06
-7.45606e-15
5.23599e-06
-7.56999e-16
5.93412e-06
6.83949e-15
6.63225e-06
-9.97485e-15
7.33038e-06
-1.66534e-15
8.02851e-06
9.21848e-15
8.72664e-06
-1.34598e-14
9.42478e-06
2.32208e-14
1.01229e-05
1.04702e-14
1.0821e-05
-1.72735e-14
1.15192e-05
-3.028e-15
1.22173e-05
1.13947e-14
1.29154e-05
-1.98204e-14
1.36136e-05
-4.68169e-15
1.43117e-05
5.03053e-14
1.50098e-05
-2.40464e-14
1.5708e-05
-6.66135e-15
1.64061e-05
1.42597e-14
1.71042e-05
1.64904e-15
1.78024e-05
-6.81263e-15
1.85005e-05
1.44397e-14
1.91986e-05
5.07528e-14
1.98967e-05
2.05949e-05
-6.19758e-15
4.53785e-06
2.81478e-17
5.23599e-06
1.15116e-14
5.93412e-06
-2.06263e-14
6.63225e-06
5.3659e-15
7.33038e-06
1.22107e-15
8.02851e-06
-4.79181e-17
8.72664e-06
1.23935e-14
9.42478e-06
-1.32278e-14
1.01229e-05
-1.88957e-14
1.0821e-05
-4.96553e-15
1.15192e-05
-7.15489e-15
1.22173e-05
-1.48882e-14
1.29154e-05
3.53367e-14
1.36136e-05
-3.85642e-18
1.43117e-05
-4.31383e-14
1.50098e-05
1.3562e-14
1.5708e-05
-2.82592e-14
1.64061e-05
2.45211e-15
1.71042e-05
-1.02429e-14
1.78024e-05
2.38022e-14
1.85005e-05
1.38723e-14
1.91986e-05
-4.55653e-14
1.98967e-05
2.05949e-05
-1.90679e-15
4.53785e-06
1.13043e-15
5.23599e-06
-2.16626e-14
5.93412e-06
9.62337e-15
6.63225e-06
1.51366e-14
7.33038e-06
-1.40662e-14
8.02851e-06
8.092e-15
8.72664e-06
-2.69612e-14
9.42478e-06
-1.96738e-15
1.01229e-05
2.97171e-14
1.0821e-05
-1.17455e-14
1.15192e-05
1.98658e-14
1.22173e-05
-2.74473e-14
1.29154e-05
-2.06191e-14
1.36136e-05
1.60398e-14
1.43117e-05
-4.61575e-15
1.50098e-05
4.69152e-15
1.5708e-05
4.79639e-14
1.64061e-05
-1.37433e-14
1.71042e-05
3.2368e-14
1.78024e-05
-3.51866e-14
1.85005e-05
-2.49084e-14
1.91986e-05
7.19155e-14
1.98967e-05
2.05949e-05
1.9064e-15
4.53785e-06
-1.13073e-15
5.23599e-06
2.16615e-14
5.93412e-06
-9.62413e-15
6.63225e-06
-1.51375e-14
7.33038e-06
1.40644e-14
8.02851e-06
-8.09322e-15
8.72664e-06
2.69591e-14
9.42478e-06
1.96484e-15
1.01229e-05
-2.97175e-14
1.0821e-05
1.17452e-14
1.15192e-05
-1.98683e-14
1.22173e-05
2.7443e-14
1.29154e-05
2.06141e-14
1.36136e-05
-1.60429e-14
1.43117e-05
4.61119e-15
1.50098e-05
-4.69371e-15
1.5708e-05
-4.79713e-14
1.64061e-05
1.37366e-14
1.71042e-05
-3.23729e-14
1.78024e-05
3.51858e-14
1.85005e-05
2.4903e-14
1.91986e-05
-7.19188e-14
1.98967e-05
2.05949e-05
6.19721e-15
4.53785e-06
-2.86349e-17
5.23599e-06
-1.15119e-14
5.93412e-06
2.06257e-14
6.63225e-06
-5.36798e-15
7.33038e-06
-1.22238e-15
8.02851e-06
4.70802e-17
8.72664e-06
-1.23952e-14
9.42478e-06
1.32247e-14
1.01229e-05
1.88934e-14
1.0821e-05
4.96251e-15
1.15192e-05
7.15232e-15
1.22173e-05
1.48846e-14
1.29154e-05
-3.53411e-14
1.36136e-05
-1.63392e-18
1.43117e-05
4.31373e-14
1.50098e-05
-1.35655e-14
1.5708e-05
2.82522e-14
1.64061e-05
-2.45625e-15
1.71042e-05
1.02388e-14
1.78024e-05
-2.38047e-14
1.85005e-05
-1.38798e-14
1.91986e-05
4.556e-14
1.98967e-05
2.05949e-05
-5.17035e-15
4.53785e-06
7.45542e-15
5.23599e-06
7.56504e-16
5.93412e-06
-6.83984e-15
6.63225e-06
9.97334e-15
7.33038e-06
1.66365e-15
8.02851e-06
-9.21938e-15
8.72664e-06
1.34579e-14
9.42478e-06
-2.32227e-14
1.01229e-05
-1.04728e-14
1.0821e-05
1.72703e-14
1.15192e-05
3.02602e-15
1.22173e-05
-1.14003e-14
1.29154e-05
1.98143e-14
1.36136e-05
4.67923e-15
1.43117e-05
-5.03071e-14
1.50098e-05
2.40414e-14
1.5708e-05
6.65462e-15
1.64061e-05
-1.42627e-14
1.71042e-05
-1.65709e-15
1.78024e-05
6.80555e-15
1.85005e-05
-1.44469e-14
1.91986e-05
-5.07605e-14
1.98967e-05
2.05949e-05
1.49835e-15
4.53785e-06
-1.08972e-14
5.23599e-06
6.59904e-15
5.93412e-06
-7.26622e-15
6.63225e-06
-6.1753e-15
7.33038e-06
-2.48986e-15
8.02851e-06
9.63279e-16
8.72664e-06
4.3634e-15
9.42478e-06
8.90015e-15
1.01229e-05
-1.38639e-14
1.0821e-05
-1.0692e-14
1.15192e-05
-6.25081e-15
1.22173e-05
1.25418e-16
1.29154e-05
3.43738e-15
1.36136e-05
1.10429e-14
1.43117e-05
1.77624e-14
1.50098e-05
-1.76836e-14
1.5708e-05
-9.95945e-15
1.64061e-05
-3.33276e-15
1.71042e-05
3.29641e-14
1.78024e-05
1.04198e-14
1.85005e-05
-3.00721e-14
1.91986e-05
5.99924e-14
1.98967e-05
2.05949e-05
-6.21599e-15
4.53785e-06
3.87872e-15
5.23599e-06
-1.54226e-14
5.93412e-06
7.06415e-15
6.63225e-06
2.21008e-15
7.33038e-06
-1.43014e-15
8.02851e-06
5.49235e-15
8.72664e-06
-1.32271e-14
9.42478e-06
-6.04704e-15
1.01229e-05
1.74496e-14
1.0821e-05
-2.08884e-14
1.15192e-05
2.14438e-14
1.22173e-05
-1.91352e-14
1.29154e-05
7.31336e-15
1.36136e-05
-3.8486e-14
1.43117e-05
1.29182e-14
1.50098e-05
1.88083e-15
1.5708e-05
-5.72056e-15
1.64061e-05
7.5832e-15
1.71042e-05
-2.76638e-14
1.78024e-05
-1.40984e-14
1.85005e-05
5.31392e-14
1.91986e-05
-3.9088e-14
1.98967e-05
2.05949e-05
8.92478e-15
4.53785e-06
2.28836e-15
5.23599e-06
2.22372e-15
5.93412e-06
-6.61704e-15
6.63225e-06
3.38743e-15
7.33038e-06
3.90651e-15
8.02851e-06
6.41833e-15
8.72664e-06
7.15721e-15
9.42478e-06
-6.81052e-15
1.01229e-05
-6.98391e-15
1.0821e-05
9.06286e-15
1.15192e-05
-6.76228e-15
1.22173e-05
2.88858e-14
1.29154e-05
1.22322e-14
1.36136e-05
-4.80473e-15
1.43117e-05
-2.50326e-14
1.50098e-05
-3.86479e-15
1.5708e-05
-3.60831e-15
1.64061e-05
2.0479e-14
1.71042e-05
2.17581e-14
1.78024e-05
-3.47266e-15
1.85005e-05
-2.90434e-14
1.91986e-05
1.66169e-15
1.98967e-05
2.05949e-05
4.63015e-15
4.53785e-06
-5.79784e-15
5.23599e-06
1.61505e-14
5.93412e-06
5.97391e-15
6.63225e-06
8.55414e-15
7.33038e-06
-4.2244e-15
8.02851e-06
8.18639e-15
8.72664e-06
-7.00042e-15
9.42478e-06
2.42282e-14
1.01229e-05
7.76769e-15
1.0821e-05
2.27625e-14
1.15192e-05
-8.35275e-15
1.22173e-05
7.40234e-15
1.29154e-05
-2.82668e-14
1.36136e-05
4.57105e-14
1.43117e-05
8.21814e-15
1.50098e-05
2.82202e-14
1.5708e-05
2.33599e-15
1.64061e-05
6.94226e-15
1.71042e-05
-2.21518e-14
1.78024e-05
3.41072e-14
1.85005e-05
3.73528e-15
1.91986e-05
3.2344e-14
1.98967e-05
2.05949e-05
-6.71516e-15
4.53785e-06
7.30639e-15
5.23599e-06
-1.11015e-14
5.93412e-06
4.24009e-15
6.63225e-06
-1.51021e-14
7.33038e-06
5.20836e-15
8.02851e-06
-1.70142e-14
8.72664e-06
3.94021e-15
9.42478e-06
2.93633e-16
1.01229e-05
-6.61323e-15
1.0821e-05
-1.3707e-14
1.15192e-05
-1.01865e-14
1.22173e-05
-1.82192e-14
1.29154e-05
-1.43705e-14
1.36136e-05
-2.33423e-14
1.43117e-05
2.53411e-14
1.50098e-05
-2.9076e-14
1.5708e-05
7.82283e-15
1.64061e-05
-3.54165e-14
1.71042e-05
4.50745e-15
1.78024e-05
-4.23751e-14
1.85005e-05
5.77527e-16
1.91986e-05
8.73175e-15
1.98967e-05
2.05949e-05
-5.98605e-15
4.53785e-06
-2.19409e-16
5.23599e-06
6.43515e-15
5.93412e-06
-6.06391e-15
6.63225e-06
2.09266e-15
7.33038e-06
-1.61776e-14
8.02851e-06
1.88302e-14
8.72664e-06
2.35035e-15
9.42478e-06
-9.17282e-15
1.01229e-05
4.70779e-15
1.0821e-05
-2.16309e-14
1.15192e-05
2.96446e-14
1.22173e-05
9.28894e-15
1.29154e-05
1.89045e-14
1.36136e-05
-4.46836e-15
1.43117e-05
-3.01561e-14
1.50098e-05
2.62132e-14
1.5708e-05
-4.40417e-16
1.64061e-05
2.11693e-14
1.71042e-05
-1.87165e-14
1.78024e-05
3.91497e-15
1.85005e-05
2.91563e-14
1.91986e-05
-1.5232e-14
1.98967e-05
2.05949e-05
8.67585e-15
4.53785e-06
-1.22926e-14
5.23599e-06
-1.88379e-15
5.93412e-06
-8.90245e-15
6.63225e-06
5.10793e-15
7.33038e-06
2.199e-14
8.02851e-06
-1.22652e-14
8.72664e-06
5.37367e-15
9.42478e-06
-4.45746e-15
1.01229e-05
1.43034e-14
1.0821e-05
7.32421e-15
1.15192e-05
-7.04255e-15
1.22173e-05
-2.39968e-14
1.29154e-05
7.55301e-15
1.36136e-05
-9.79941e-15
1.43117e-05
1.62355e-14
1.50098e-05
-4.02984e-14
1.5708e-05
-1.44498e-14
1.64061e-05
1.37003e-14
1.71042e-05
7.89591e-15
1.78024e-05
3.92465e-14
1.85005e-05
-4.27495e-14
1.91986e-05
8.85047e-15
1.98967e-05
2.05949e-05
-9.39914e-15
4.53785e-06
-5.20764e-16
5.23599e-06
-7.52856e-15
5.93412e-06
4.41135e-15
6.63225e-06
-3.78397e-15
7.33038e-06
-1.33854e-14
8.02851e-06
2.10948e-15
8.72664e-06
-8.52925e-15
9.42478e-06
1.00269e-14
1.01229e-05
-1.86843e-15
1.0821e-05
2.02019e-14
1.15192e-05
7.00994e-15
1.22173e-05
-7.51202e-15
1.29154e-05
-2.36106e-14
1.36136e-05
2.0435e-15
1.43117e-05
-1.48338e-14
1.50098e-05
1.38787e-14
1.5708e-05
-2.39292e-15
1.64061e-05
-2.04152e-14
1.71042e-05
7.01789e-15
1.78024e-05
-1.20714e-14
1.85005e-05
2.59379e-14
1.91986e-05
-1.85145e-15
1.98967e-05
2.05949e-05
1.13356e-14
4.53785e-06
4.80725e-16
5.23599e-06
5.357e-15
5.93412e-06
1.13024e-14
6.63225e-06
-4.86985e-15
7.33038e-06
1.1088e-15
8.02851e-06
8.15772e-15
8.72664e-06
-1.3045e-14
9.42478e-06
-5.95048e-15
1.01229e-05
1.99435e-15
1.0821e-05
-2.43896e-14
1.15192e-05
-1.61913e-14
1.22173e-05
3.27851e-14
1.29154e-05
3.0492e-15
1.36136e-05
1.44391e-14
1.43117e-05
2.69013e-14
1.50098e-05
-7.74257e-15
1.5708e-05
4.4352e-15
1.64061e-05
1.7998e-14
1.71042e-05
-2.18233e-14
1.78024e-05
-8.21576e-15
1.85005e-05
6.08027e-15
1.91986e-05
-3.89204e-14
1.98967e-05
2.05949e-05
1.36936e-16
9.81747e-07
2.42042e-16
1.37445e-06
3.76889e-16
1.76715e-06
-1.33938e-15
2.15984e-06
-3.68174e-15
2.55254e-06
2.94524e-06
5.9511e-15
1.79907e-18
9.81747e-07
-3.88799e-16
1.37445e-06
-2.60427e-15
1.76715e-06
1.94353e-15
2.15984e-06
8.06613e-15
2.55254e-06
2.94524e-06
-9.03004e-15
-1.16495e-16
9.81747e-07
1.864e-16
1.37445e-06
-1.56243e-15
1.76715e-06
-4.21268e-15
2.15984e-06
-7.49859e-15
2.55254e-06
2.94524e-06
7.72205e-16
8.69344e-17
9.81747e-07
-1.01917e-16
1.37445e-06
2.69313e-15
1.76715e-06
7.44271e-15
2.15984e-06
3.2597e-15
2.55254e-06
2.94524e-06
-2.79815e-15
-4.84051e-17
9.81747e-07
3.94559e-17
1.37445e-06
1.9415e-16
1.76715e-06
-1.80624e-15
2.15984e-06
-4.20861e-15
2.55254e-06
2.94524e-06
5.01321e-15
-1.80139e-16
9.81747e-07
4.27361e-18
1.37445e-06
-1.84795e-15
1.76715e-06
-3.88621e-15
2.15984e-06
3.15695e-15
2.55254e-06
2.94524e-06
4.97916e-16
2.53944e-16
9.81747e-07
2.55397e-16
1.37445e-06
2.06589e-15
1.76715e-06
4.50394e-15
2.15984e-06
-2.31006e-15
2.55254e-06
2.94524e-06
5.40796e-16
2.16334e-17
9.81747e-07
-3.21723e-16
1.37445e-06
-1.14905e-15
1.76715e-06
-5.28572e-15
2.15984e-06
-3.76981e-16
2.55254e-06
2.94524e-06
-5.63988e-15
-1.43423e-16
9.81747e-07
1.66356e-16
1.37445e-06
4.19107e-15
1.76715e-06
6.34932e-15
2.15984e-06
-8.05786e-16
2.55254e-06
2.94524e-06
8.39081e-16
-6.88189e-17
9.81747e-07
-9.21194e-17
1.37445e-06
-2.76944e-15
1.76715e-06
-3.68818e-16
2.15984e-06
-1.45096e-15
2.55254e-06
2.94524e-06
-1.76832e-16
1.66325e-16
9.81747e-07
-8.87502e-17
1.37445e-06
5.69591e-16
1.76715e-06
-2.10359e-15
2.15984e-06
9.65995e-15
2.55254e-06
2.94524e-06
5.28995e-15
-1.77791e-16
9.81747e-07
-2.05407e-17
1.37445e-06
-3.45557e-16
1.76715e-06
-4.17282e-15
2.15984e-06
-2.62235e-15
2.55254e-06
2.94524e-06
5.36926e-15
1.77775e-16
9.81747e-07
2.04699e-17
1.37445e-06
3.45351e-16
1.76715e-06
4.17253e-15
2.15984e-06
2.62224e-15
2.55254e-06
2.94524e-06
-5.36971e-15
-1.66346e-16
9.81747e-07
8.86673e-17
1.37445e-06
-5.69758e-16
1.76715e-06
2.10338e-15
2.15984e-06
-9.66022e-15
2.55254e-06
2.94524e-06
-5.29034e-15
6.87974e-17
9.81747e-07
9.2048e-17
1.37445e-06
2.76928e-15
1.76715e-06
3.68623e-16
2.15984e-06
1.45071e-15
2.55254e-06
2.94524e-06
1.7634e-16
1.43369e-16
9.81747e-07
-1.66424e-16
1.37445e-06
-4.19124e-15
1.76715e-06
-6.34954e-15
2.15984e-06
8.05443e-16
2.55254e-06
2.94524e-06
-8.39438e-16
-2.16794e-17
9.81747e-07
3.21656e-16
1.37445e-06
1.1488e-15
1.76715e-06
5.28551e-15
2.15984e-06
3.76648e-16
2.55254e-06
2.94524e-06
5.63984e-15
-2.53995e-16
9.81747e-07
-2.55456e-16
1.37445e-06
-2.06602e-15
1.76715e-06
-4.50425e-15
2.15984e-06
2.31001e-15
2.55254e-06
2.94524e-06
-5.41057e-16
1.80086e-16
9.81747e-07
-4.37965e-18
1.37445e-06
1.84768e-15
1.76715e-06
3.88611e-15
2.15984e-06
-3.15726e-15
2.55254e-06
2.94524e-06
-4.98388e-16
4.83699e-17
9.81747e-07
-3.95545e-17
1.37445e-06
-1.9444e-16
1.76715e-06
1.80597e-15
2.15984e-06
4.20837e-15
2.55254e-06
2.94524e-06
-5.01348e-15
-8.69821e-17
9.81747e-07
1.01843e-16
1.37445e-06
-2.69325e-15
1.76715e-06
-7.44291e-15
2.15984e-06
-3.25984e-15
2.55254e-06
2.94524e-06
2.79779e-15
1.16422e-16
9.81747e-07
-1.86406e-16
1.37445e-06
1.56224e-15
1.76715e-06
4.21246e-15
2.15984e-06
7.49824e-15
2.55254e-06
2.94524e-06
-7.72637e-16
-1.87155e-18
9.81747e-07
3.88756e-16
1.37445e-06
2.60405e-15
1.76715e-06
-1.9437e-15
2.15984e-06
-8.06636e-15
2.55254e-06
2.94524e-06
9.02971e-15
-1.36971e-16
-2.42137e-16
-3.77013e-16
1.33928e-15
3.68153e-15
-5.95129e-15
-1.1336e-14
4.53785e-06
-4.81493e-16
5.23599e-06
-5.35752e-15
5.93412e-06
-1.13041e-14
6.63225e-06
4.86852e-15
7.33038e-06
-1.1093e-15
8.02851e-06
-8.15883e-15
8.72664e-06
1.30434e-14
9.42478e-06
5.94847e-15
1.01229e-05
-1.99729e-15
1.0821e-05
2.43865e-14
1.15192e-05
1.61869e-14
1.22173e-05
-3.27861e-14
1.29154e-05
-3.05215e-15
1.36136e-05
-1.44456e-14
1.43117e-05
-2.69022e-14
1.50098e-05
7.73664e-15
1.5708e-05
-4.4372e-15
1.64061e-05
-1.8003e-14
1.71042e-05
2.18176e-14
1.78024e-05
8.20951e-15
1.85005e-05
-6.08486e-15
1.91986e-05
3.89178e-14
1.98967e-05
2.05949e-05
9.39865e-15
4.53785e-06
5.19984e-16
5.23599e-06
7.52801e-15
5.93412e-06
-4.41215e-15
6.63225e-06
3.78281e-15
7.33038e-06
1.3384e-14
8.02851e-06
-2.11054e-15
8.72664e-06
8.52743e-15
9.42478e-06
-1.00268e-14
1.01229e-05
1.86464e-15
1.0821e-05
-2.02041e-14
1.15192e-05
-7.01672e-15
1.22173e-05
7.50925e-15
1.29154e-05
2.36081e-14
1.36136e-05
-2.0471e-15
1.43117e-05
1.48302e-14
1.50098e-05
-1.38813e-14
1.5708e-05
2.38956e-15
1.64061e-05
2.04086e-14
1.71042e-05
-7.01932e-15
1.78024e-05
1.20611e-14
1.85005e-05
-2.59438e-14
1.91986e-05
1.84396e-15
1.98967e-05
2.05949e-05
-8.67658e-15
4.53785e-06
1.22922e-14
5.23599e-06
1.88269e-15
5.93412e-06
8.90197e-15
6.63225e-06
-5.1088e-15
7.33038e-06
-2.1992e-14
8.02851e-06
1.22642e-14
8.72664e-06
-5.3756e-15
9.42478e-06
4.45605e-15
1.01229e-05
-1.43078e-14
1.0821e-05
-7.32777e-15
1.15192e-05
7.03895e-15
1.22173e-05
2.39933e-14
1.29154e-05
-7.55506e-15
1.36136e-05
9.79647e-15
1.43117e-05
-1.62378e-14
1.50098e-05
4.02931e-14
1.5708e-05
1.44445e-14
1.64061e-05
-1.37053e-14
1.71042e-05
-7.89977e-15
1.78024e-05
-3.9255e-14
1.85005e-05
4.2747e-14
1.91986e-05
-8.85081e-15
1.98967e-05
2.05949e-05
5.98585e-15
4.53785e-06
2.18821e-16
5.23599e-06
-6.43541e-15
5.93412e-06
6.06393e-15
6.63225e-06
-2.0938e-15
7.33038e-06
1.61762e-14
8.02851e-06
-1.88312e-14
8.72664e-06
-2.35137e-15
9.42478e-06
9.17083e-15
1.01229e-05
-4.71137e-15
1.0821e-05
2.16261e-14
1.15192e-05
-2.96446e-14
1.22173e-05
-9.28939e-15
1.29154e-05
-1.89093e-14
1.36136e-05
4.46542e-15
1.43117e-05
3.0151e-14
1.50098e-05
-2.62197e-14
1.5708e-05
4.36444e-16
1.64061e-05
-2.11745e-14
1.71042e-05
1.87086e-14
1.78024e-05
-3.92678e-15
1.85005e-05
-2.91618e-14
1.91986e-05
1.52318e-14
1.98967e-05
2.05949e-05
6.71512e-15
4.53785e-06
-7.307e-15
5.23599e-06
1.11009e-14
5.93412e-06
-4.2412e-15
6.63225e-06
1.51017e-14
7.33038e-06
-5.20956e-15
8.02851e-06
1.70129e-14
8.72664e-06
-3.9408e-15
9.42478e-06
-2.95374e-16
1.01229e-05
6.61011e-15
1.0821e-05
1.37044e-14
1.15192e-05
1.01836e-14
1.22173e-05
1.82178e-14
1.29154e-05
1.43656e-14
1.36136e-05
2.33396e-14
1.43117e-05
-2.53467e-14
1.50098e-05
2.90726e-14
1.5708e-05
-7.8285e-15
1.64061e-05
3.54132e-14
1.71042e-05
-4.5179e-15
1.78024e-05
4.23668e-14
1.85005e-05
-5.86764e-16
1.91986e-05
-8.73951e-15
1.98967e-05
2.05949e-05
-4.63065e-15
4.53785e-06
5.79726e-15
5.23599e-06
-1.61507e-14
5.93412e-06
-5.97505e-15
6.63225e-06
-8.55555e-15
7.33038e-06
4.22304e-15
8.02851e-06
-8.18776e-15
8.72664e-06
6.99907e-15
9.42478e-06
-2.42302e-14
1.01229e-05
-7.77051e-15
1.0821e-05
-2.27651e-14
1.15192e-05
8.34832e-15
1.22173e-05
-7.40547e-15
1.29154e-05
2.82645e-14
1.36136e-05
-4.57102e-14
1.43117e-05
-8.22323e-15
1.50098e-05
-2.82297e-14
1.5708e-05
-2.34317e-15
1.64061e-05
-6.94764e-15
1.71042e-05
2.21472e-14
1.78024e-05
-3.41132e-14
1.85005e-05
-3.74391e-15
1.91986e-05
-3.23514e-14
1.98967e-05
2.05949e-05
-8.92544e-15
4.53785e-06
-2.28924e-15
5.23599e-06
-2.22416e-15
5.93412e-06
6.6158e-15
6.63225e-06
-3.3892e-15
7.33038e-06
-3.90796e-15
8.02851e-06
-6.41946e-15
8.72664e-06
-7.15924e-15
9.42478e-06
6.8091e-15
1.01229e-05
6.98186e-15
1.0821e-05
-9.0664e-15
1.15192e-05
6.75792e-15
1.22173e-05
-2.88916e-14
1.29154e-05
-1.22358e-14
1.36136e-05
4.80459e-15
1.43117e-05
2.50211e-14
1.50098e-05
3.85827e-15
1.5708e-05
3.60456e-15
1.64061e-05
-2.04866e-14
1.71042e-05
-2.17628e-14
1.78024e-05
3.46266e-15
1.85005e-05
2.90367e-14
1.91986e-05
-1.66692e-15
1.98967e-05
2.05949e-05
6.21538e-15
4.53785e-06
-3.8792e-15
5.23599e-06
1.54221e-14
5.93412e-06
-7.0655e-15
6.63225e-06
-2.2109e-15
7.33038e-06
1.42852e-15
8.02851e-06
-5.49383e-15
8.72664e-06
1.32243e-14
9.42478e-06
6.04469e-15
1.01229e-05
-1.74524e-14
1.0821e-05
2.08864e-14
1.15192e-05
-2.14474e-14
1.22173e-05
1.91323e-14
1.29154e-05
-7.31856e-15
1.36136e-05
3.84848e-14
1.43117e-05
-1.29255e-14
1.50098e-05
-1.88593e-15
1.5708e-05
5.71408e-15
1.64061e-05
-7.58629e-15
1.71042e-05
2.76571e-14
1.78024e-05
1.40964e-14
1.85005e-05
-5.31435e-14
1.91986e-05
3.90839e-14
1.98967e-05
2.05949e-05
-1.49883e-15
4.53785e-06
1.08969e-14
5.23599e-06
-6.60006e-15
5.93412e-06
7.26478e-15
6.63225e-06
6.17467e-15
7.33038e-06
2.48739e-15
8.02851e-06
-9.65825e-16
8.72664e-06
-4.36583e-15
9.42478e-06
-8.90185e-15
1.01229e-05
1.38627e-14
1.0821e-05
1.06889e-14
1.15192e-05
6.24766e-15
1.22173e-05
-1.3052e-16
1.29154e-05
-3.44082e-15
1.36136e-05
-1.10442e-14
1.43117e-05
-1.7766e-14
1.50098e-05
1.76781e-14
1.5708e-05
9.94958e-15
1.64061e-05
3.32906e-15
1.71042e-05
-3.29708e-14
1.78024e-05
-1.04241e-14
1.85005e-05
3.00669e-14
1.91986e-05
-5.99996e-14
1.98967e-05
2.05949e-05
5.17004e-15
4.53785e-06
-7.45606e-15
5.23599e-06
-7.56999e-16
5.93412e-06
6.83949e-15
6.63225e-06
-9.97485e-15
7.33038e-06
-1.66534e-15
8.02851e-06
9.21848e-15
8.72664e-06
-1.34598e-14
9.42478e-06
2.32208e-14
1.01229e-05
1.04702e-14
1.0821e-05
-1.72735e-14
1.15192e-05
-3.028e-15
1.22173e-05
1.13947e-14
1.29154e-05
-1.98204e-14
1.36136e-05
-4.68169e-15
1.43117e-05
5.03053e-14
1.50098e-05
-2.40464e-14
1.5708e-05
-6.66135e-15
1.64061e-05
1.42597e-14
1.71042e-05
1.64904e-15
1.78024e-05
-6.81263e-15
1.85005e-05
1.44397e-14
1.91986e-05
5.07528e-14
1.98967e-05
2.05949e-05
-6.19758e-15
4.53785e-06
2.81478e-17
5.23599e-06
1.15116e-14
5.93412e-06
-2.06263e-14
6.63225e-06
5.3659e-15
7.33038e-06
1.22107e-15
8.02851e-06
-4.79181e-17
8.72664e-06
1.23935e-14
9.42478e-06
-1.32278e-14
1.01229e-05
-1.88957e-14
1.0821e-05
-4.96553e-15
1.15192e-05
-7.15489e-15
1.22173e-05
-1.48882e-14
1.29154e-05
3.53367e-14
1.36136e-05
-3.85642e-18
1.43117e-05
-4.31383e-14
1.50098e-05
1.3562e-14
1.5708e-05
-2.82592e-14
1.64061e-05
2.45211e-15
1.71042e-05
-1.02429e-14
1.78024e-05
2.38022e-14
1.85005e-05
1.38723e-14
1.91986e-05
-4.55653e-14
1.98967e-05
2.05949e-05
-1.90679e-15
4.53785e-06
1.13043e-15
5.23599e-06
-2.16626e-14
5.93412e-06
9.62337e-15
6.63225e-06
1.51366e-14
7.33038e-06
-1.40662e-14
8.02851e-06
8.092e-15
8.72664e-06
-2.69612e-14
9.42478e-06
-1.96738e-15
1.01229e-05
2.97171e-14
1.0821e-05
-1.17455e-14
1.15192e-05
1.98658e-14
1.22173e-05
-2.74473e-14
1.29154e-05
-2.06191e-14
1.36136e-05
1.60398e-14
1.43117e-05
-4.61575e-15
1.50098e-05
4.69152e-15
1.5708e-05
4.79639e-14
1.64061e-05
-1.37433e-14
1.71042e-05
3.2368e-14
1.78024e-05
-3.51866e-14
1.85005e-05
-2.49084e-14
1.91986e-05
7.19155e-14
1.98967e-05
2.05949e-05
1.9064e-15
4.53785e-06
-1.13073e-15
5.23599e-06
2.16615e-14
5.93412e-06
-9.62413e-15
6.63225e-06
-1.51375e-14
7.33038e-06
1.40644e-14
8.02851e-06
-8.09322e-15
8.72664e-06
2.69591e-14
9.42478e-06
1.96484e-15
1.01229e-05
-2.97175e-14
1.0821e-05
1.17452e-14
1.15192e-05
-1.98683e-14
1.22173e-05
2.7443e-14
1.29154e-05
2.06141e-14
1.36136e-05
-1.60429e-14
1.43117e-05
4.61119e-15
1.50098e-05
-4.69371e-15
1.5708e-05
-4.79713e-14
1.64061e-05
1.37366e-14
1.71042e-05
-3.23729e-14
1.78024e-05
3.51858e-14
1.85005e-05
2.4903e-14
1.91986e-05
-7.19188e-14
1.98967e-05
2.05949e-05
6.19721e-15
4.53785e-06
-2.86349e-17
5.23599e-06
-1.15119e-14
5.93412e-06
2.06257e-14
6.63225e-06
-5.36798e-15
7.33038e-06
-1.22238e-15
8.02851e-06
4.70802e-17
8.72664e-06
-1.23952e-14
9.42478e-06
1.32247e-14
1.01229e-05
1.88934e-14
1.0821e-05
4.96251e-15
1.15192e-05
7.15232e-15
1.22173e-05
1.48846e-14
1.29154e-05
-3.53411e-14
1.36136e-05
-1.63392e-18
1.43117e-05
4.31373e-14
1.50098e-05
-1.35655e-14
1.5708e-05
2.82522e-14
1.64061e-05
-2.45625e-15
1.71042e-05
1.02388e-14
1.78024e-05
-2.38047e-14
1.85005e-05
-1.38798e-14
1.91986e-05
4.556e-14
1.98967e-05
2.05949e-05
-5.17035e-15
4.53785e-06
7.45542e-15
5.23599e-06
7.56504e-16
5.93412e-06
-6.83984e-15
6.63225e-06
9.97334e-15
7.33038e-06
1.66365e-15
8.02851e-06
-9.21938e-15
8.72664e-06
1.34579e-14
9.42478e-06
-2.32227e-14
1.01229e-05
-1.04728e-14
1.0821e-05
1.72703e-14
1.15192e-05
3.02602e-15
1.22173e-05
-1.14003e-14
1.29154e-05
1.98143e-14
1.36136e-05
4.67923e-15
1.43117e-05
-5.03071e-14
1.50098e-05
2.40414e-14
1.5708e-05