/*--------------------------------*- C++ -*----------------------------------*\
  =========                 |
  \\      /  F ield         | OpenFOAM: The Open Source CFD Toolbox
   \\    /   O peration     | Website:  https://openfoam.org
    \\  /    A nd           | Version:  11
     \\/     M anipulation  |
\*---------------------------------------------------------------------------*/
FoamFile
{
    format      ascii;
    class       volScalarField;
    location    "0.04";
    object      nut;
}
// * * * * * * * * * * * * * * * * * * * * * * * * * * * * * * * * * * * * * //

dimensions      [0 2 -1 0 0 0 0];

internalField   nonuniform List<scalar> 
2880
(
1.33545e-06
7.33713e-06
2.29426e-05
5.03836e-05
8.91337e-05
0.000149673
4.03626e-05
5.92882e-05
9.16659e-05
0.000138351
0.000200947
0.000314999
5.42808e-05
0.000130243
0.000184064
0.000252406
0.000362273
0.000563098
6.08586e-05
0.000196826
0.000271623
0.000377879
0.000537272
0.000806159
6.60408e-05
0.000257698
0.0003573
0.000506817
0.000714033
0.00101202
7.01001e-05
0.000312833
0.000441856
0.000632419
0.000877896
0.00118841
7.32609e-05
0.00036196
0.000524589
0.000749711
0.00102154
0.00133577
7.56961e-05
0.000405223
0.00060326
0.000856406
0.00114434
0.00146264
7.75227e-05
0.000442415
0.000675733
0.000952043
0.00124952
0.00155845
7.88129e-05
0.000473136
0.000741543
0.00103467
0.00133651
0.0016351
7.9609e-05
0.000496689
0.00079669
0.00110367
0.00140795
0.00169748
7.99408e-05
0.00051225
0.000840471
0.00115837
0.00146433
0.00174791
7.9905e-05
0.000518818
0.00087116
0.00119791
0.00150539
0.00178571
7.97737e-05
0.000514963
0.000887413
0.00122104
0.00153002
0.00180909
7.94561e-05
0.000502105
0.000889028
0.00122735
0.00153531
0.00181597
7.88309e-05
0.000482407
0.00087601
0.00121577
0.00151949
0.00180239
7.77691e-05
0.000456681
0.000848225
0.00118416
0.00148282
0.00176092
7.61278e-05
0.000426295
0.000804907
0.00113023
0.00142078
0.00168714
7.37331e-05
0.000391159
0.000745702
0.00105058
0.00132617
0.00158038
7.0365e-05
0.000349137
0.000665227
0.000940196
0.00119063
0.00143143
6.57364e-05
0.000295265
0.000557946
0.00079564
0.00100586
0.00122363
5.94451e-05
0.000222032
0.000416941
0.000606266
0.000768565
0.000905076
5.00889e-05
0.000121341
0.000238935
0.000367185
0.000473165
0.000466409
1.85979e-06
1.6725e-05
5.58768e-05
0.000121903
0.000200631
5.61017e-05
0.00106879
0.00153816
0.00186228
0.00231964
0.00288952
0.00350065
0.00407198
0.00450245
0.00477013
0.0048803
0.00485114
0.00471455
0.00451141
0.00428424
0.00406792
0.00388353
0.00373795
0.00362853
0.00354854
0.00349085
0.00344933
0.00341931
0.00339756
0.00338181
0.00110128
0.00152685
0.00193196
0.0024261
0.00297533
0.00353408
0.00404426
0.00444086
0.00470652
0.00483294
0.00482794
0.00471599
0.00453351
0.0043206
0.00411163
0.0039286
0.00378021
0.00366558
0.00357933
0.00351511
0.00346726
0.00343139
0.00340452
0.00338451
0.00117786
0.00159233
0.00204677
0.00253759
0.00303362
0.00352493
0.00396839
0.00434131
0.00461491
0.0047681
0.00479722
0.00471819
0.00456213
0.00436672
0.00416629
0.00398452
0.00383249
0.00371151
0.00361769
0.00354559
0.00349001
0.00344691
0.00341362
0.00338825
0.00129051
0.0017064
0.00217249
0.00261928
0.00305413
0.00345729
0.00384756
0.00420512
0.00449454
0.00468329
0.00475566
0.00471774
0.00459436
0.00442048
0.00423064
0.00405074
0.00389478
0.00376669
0.0036643
0.00358312
0.00351847
0.00346665
0.00342528
0.00339313
0.00142697
0.00183475
0.00226702
0.00267806
0.00301821
0.00334809
0.00369232
0.00403767
0.00434633
0.00457627
0.00469935
0.00471039
0.00462651
0.00447915
0.00430298
0.00412641
0.0039669
0.00383138
0.00371973
0.0036285
0.00355349
0.00349132
0.00344004
0.00339935
0.00154718
0.00194752
0.00235974
0.00268882
0.00295322
0.00321841
0.00351784
0.00384784
0.00417318
0.00444539
0.00462405
0.0046911
0.00465397
0.00453921
0.00438098
0.00421025
0.00404828
0.00390553
0.00378427
0.00368226
0.00359573
0.00352164
0.00345876
0.00340746
0.00168614
0.00205845
0.00241717
0.00267925
0.00288221
0.00308909
0.00334106
0.00364704
0.00398017
0.00429013
0.00452559
0.0046542
0.00467124
0.00459619
0.00446149
0.00430026
0.00413776
0.00398848
0.00385762
0.00374442
0.00364561
0.00355834
0.00348211
0.00341781
0.00179687
0.00214406
0.00245746
0.00266809
0.00282252
0.00297688
0.00317777
0.00344801
0.00377462
0.00411172
0.00440048
0.00459374
0.00467195
0.00464458
0.00454033
0.00439355
0.00423343
0.00407894
0.00393882
0.00381435
0.00370287
0.00360158
0.00351038
0.00343048
0.00188916
0.00221615
0.00248928
0.00266567
0.00278353
0.00289212
0.00304029
0.00326335
0.00356591
0.00391386
0.00424671
0.00450402
0.0046491
0.00467785
0.00461228
0.00448634
0.00433267
0.00417502
0.00402637
0.00389073
0.00376647
0.00365073
0.00354335
0.00344537
0.00196473
0.00227625
0.00252057
0.00267541
0.00276755
0.00283851
0.00293598
0.00310389
0.00336488
0.00370312
0.00406473
0.0043804
0.00459551
0.00468858
0.00467102
0.00457384
0.00443213
0.00427436
0.00411835
0.00397171
0.00383459
0.00370426
0.00358003
0.00346196
0.00202558
0.0023246
0.00255254
0.00269582
0.00277188
0.00281441
0.00286703
0.00297727
0.0031826
0.00348901
0.00385833
0.00422032
0.00450443
0.00466869
0.00470916
0.00465025
0.00452763
0.00437408
0.00421263
0.00405528
0.00390495
0.00375978
0.00361846
0.00347909
0.00207192
0.00236244
0.00258336
0.00272279
0.00279116
0.00281469
0.00283116
0.00288701
0.00302873
0.00328319
0.00363529
0.00402456
0.00437062
0.00460999
0.00471838
0.00470866
0.0046141
0.00447077
0.00430692
0.00413956
0.00397536
0.0038145
0.0036557
0.00349466
0.00210433
0.00239023
0.00260986
0.00275116
0.00281887
0.00283238
0.00282286
0.00283229
0.00290979
0.00309784
0.00340725
0.00379836
0.00419161
0.00450496
0.00468966
0.004741
0.00468545
0.00456032
0.00439871
0.00422298
0.00404427
0.00386599
0.00368835
0.00350554
0.00212265
0.00240645
0.00262832
0.00277562
0.00284837
0.00285988
0.00283471
0.00280856
0.00282798
0.00294341
0.00318853
0.00355222
0.00396942
0.00434806
0.00461393
0.00473822
0.00473444
0.00463777
0.00448513
0.00430424
0.00411106
0.00391302
0.00371347
0.00350769
0.00212514
0.00240849
0.00263478
0.002791
0.00287331
0.00288968
0.00285852
0.00280872
0.002781
0.0028264
0.0029937
0.0033015
0.0037121
0.00413768
0.00448314
0.00469058
0.00475275
0.00469732
0.00456284
0.0043821
0.00417604
0.00395615
0.00372981
0.00349703
0.00210892
0.00239313
0.00262526
0.00279247
0.00288784
0.00291474
0.00288608
0.00282426
0.00276282
0.00274807
0.00283449
0.00306441
0.00343452
0.00387843
0.00429231
0.00458862
0.00473124
0.00473245
0.00462834
0.00445575
0.0042406
0.00399811
0.00373906
0.0034708
0.00207031
0.00235665
0.00259575
0.00277551
0.00288664
0.00292864
0.00290968
0.00284633
0.00276498
0.00270454
0.00271718
0.00285834
0.0031574
0.0035832
0.0040423
0.00442509
0.0046609
0.00473665
0.004679
0.00452611
0.00430865
0.00404512
0.00374749
0.00342966
0.00200346
0.00229477
0.00254212
0.00273583
0.00286494
0.00292571
0.00292233
0.00286642
0.00277799
0.00268796
0.00264139
0.00269586
0.00290357
0.00327355
0.00374301
0.00419792
0.00453454
0.00470465
0.00471506
0.00459952
0.00439167
0.00411237
0.003771
0.00338179
0.00189586
0.00220276
0.0024599
0.00266925
0.00281839
0.00290097
0.00291792
0.00287685
0.00279241
0.00268826
0.00260072
0.00258168
0.00269261
0.00297656
0.00341495
0.00391372
0.00434926
0.00463361
0.00474163
0.00469306
0.00451959
0.00424139
0.00386048
0.00337795
0.00173488
0.00207345
0.00234345
0.00257131
0.00274294
0.00285008
0.00289126
0.00287097
0.00279962
0.00269487
0.00258474
0.00251195
0.00253571
0.00271842
0.00308642
0.00358883
0.00410742
0.0045212
0.00476383
0.00482981
0.00474423
0.00453653
0.00425973
0.004082
0.00150355
0.0018913
0.00218447
0.00243678
0.0026346
0.0027693
0.00283808
0.0028433
0.00279224
0.00269793
0.00258146
0.00247615
0.00243247
0.00251665
0.00278721
0.00324716
0.00381438
0.00435664
0.00476515
0.00499785
0.00507007
0.0050296
0.00493934
0.00489092
0.00118633
0.00162951
0.00197114
0.00225906
0.00248914
0.00265527
0.00275494
0.00278958
0.00276441
0.00268911
0.00257947
0.00246072
0.00237284
0.00237518
0.00253955
0.00291535
0.00347812
0.00411636
0.00468819
0.00509808
0.00532337
0.00543509
0.00546649
0.00550363
0.000739977
0.00124468
0.00168964
0.0020293
0.00230153
0.00250493
0.00263935
0.00270686
0.00271191
0.00266207
0.00256929
0.00245255
0.0023422
0.00228629
0.00235391
0.00262063
0.00312165
0.00379844
0.00450483
0.00508462
0.00546452
0.00571441
0.00583594
0.00591801
0.000240522
0.000714426
0.00127348
0.0017301
0.00206607
0.00231651
0.00249052
0.00259407
0.0026326
0.0026128
0.00254416
0.00244106
0.00232615
0.00223601
0.00222831
0.00238298
0.00277704
0.00342127
0.00420739
0.00494567
0.00548444
0.00587998
0.00609556
0.00621688
2.29287e-06
1.05857e-05
3.51351e-05
7.5057e-05
0.000134177
0.000193196
5.56461e-05
0.000106536
0.000203635
0.000295039
0.000371822
0.000380942
6.198e-05
0.000199943
0.000380238
0.000515715
0.000595802
0.000561433
6.80706e-05
0.000273687
0.000526961
0.00069881
0.000777785
0.000725107
7.25414e-05
0.000337075
0.000648982
0.000849546
0.000928716
0.000872648
7.59135e-05
0.000396185
0.00075411
0.000975712
0.00105924
0.00100766
7.85019e-05
0.000452255
0.000846089
0.0010849
0.00117671
0.00113572
8.04993e-05
0.000504761
0.000926629
0.0011813
0.00128608
0.00126278
8.20269e-05
0.000553155
0.000996125
0.00126676
0.00138979
0.00139206
8.31644e-05
0.000595609
0.00105404
0.00134145
0.00148803
0.00152323
8.39738e-05
0.000629829
0.00109922
0.00140428
0.00157894
0.00165317
8.45106e-05
0.000653034
0.00113013
0.00145299
0.00165889
0.00177663
8.4623e-05
0.000665748
0.00114567
0.0014847
0.00172259
0.00188667
8.43656e-05
0.00066808
0.00114419
0.00149644
0.00176444
0.00197471
8.36402e-05
0.00065983
0.00112426
0.00148416
0.00177842
0.00203199
8.24272e-05
0.000640176
0.00108391
0.0014443
0.00175747
0.00204968
8.06794e-05
0.000607605
0.00102151
0.00137362
0.00169556
0.00201816
7.83235e-05
0.000560971
0.000935846
0.00126984
0.00158715
0.00192983
7.52514e-05
0.000499009
0.000826366
0.00113213
0.00142958
0.0017743
7.13069e-05
0.000420846
0.000693516
0.000961524
0.00122215
0.00154334
6.62695e-05
0.000326093
0.000539687
0.000761669
0.00096951
0.00123004
5.96902e-05
0.00021707
0.000369819
0.000539766
0.000685658
0.000834291
4.95713e-05
0.000101283
0.000193654
0.000309534
0.000401237
0.000388245
1.96376e-06
1.59303e-05
5.10725e-05
0.000109981
0.000183058
5.3886e-05
0.000163339
0.000475092
0.000937261
0.00142802
0.00180859
0.00210134
0.00231427
0.00245427
0.0025275
0.00254031
0.00250055
0.00241928
0.00231335
0.00220969
0.00215235
0.00221081
0.00247678
0.00302063
0.00380731
0.00466779
0.00536628
0.00590745
0.00624969
0.00641845
0.000206153
0.000367752
0.000715923
0.00114555
0.00156924
0.00188324
0.0021249
0.00229634
0.00240207
0.00244738
0.0024386
0.00238423
0.00229674
0.00219559
0.00211269
0.00210141
0.00224546
0.00264495
0.00334422
0.00424231
0.00509184
0.00576715
0.0062627
0.0064954
0.000317382
0.000335782
0.000578284
0.00095636
0.00134723
0.00168395
0.00193958
0.00213311
0.00226569
0.00234056
0.00236227
0.00233702
0.00227381
0.00218644
0.00209731
0.00204444
0.00209267
0.00233992
0.00288191
0.00371267
0.0046564
0.00546375
0.00608239
0.00642364
0.000491652
0.000381209
0.000503448
0.000816938
0.00116536
0.00151499
0.00177334
0.00197858
0.00213033
0.00222965
0.00227911
0.0022827
0.00224646
0.00217983
0.00209808
0.00202722
0.00201279
0.00213219
0.0024914
0.0031625
0.0040773
0.00498673
0.00571159
0.0061557
0.000665583
0.000454727
0.000504983
0.000728902
0.00103965
0.00136409
0.00163807
0.00184561
0.00200884
0.00212667
0.00219973
0.00222991
0.0022207
0.00217798
0.00211174
0.00203931
0.00199135
0.00202208
0.00221927
0.00268499
0.00344985
0.00438093
0.00517773
0.00568734
0.000821995
0.000572262
0.000559704
0.00070808
0.000973487
0.00126131
0.00153644
0.00174455
0.00191431
0.00204537
0.00213738
0.00219054
0.00220615
0.00218721
0.00213964
0.00207474
0.00201299
0.00199087
0.0020712
0.00234665
0.00290105
0.0037076
0.00455056
0.00509983
0.0009728
0.000728185
0.000666078
0.000739776
0.00095942
0.00121998
0.00148503
0.00168999
0.00186209
0.0020016
0.00210759
0.00217891
0.00221503
0.00221671
0.00218677
0.00213212
0.0020667
0.0020154
0.0020214
0.00215461
0.00250444
0.0031179
0.00388692
0.00448021
0.00112964
0.00091806
0.000834938
0.000869468
0.00103026
0.00126629
0.00150424
0.00169998
0.00186964
0.0020125
0.00212673
0.00221004
0.00226042
0.00227671
0.00225952
0.00221291
0.00214637
0.00207758
0.00203711
0.0020753
0.00226643
0.00268552
0.00331434
0.00389659
0.00129752
0.00113271
0.00105333
0.00107669
0.00120495
0.00140609
0.00160766
0.00178964
0.00195186
0.00209237
0.00220823
0.00229605
0.0023526
0.0023754
0.00236358
0.00231925
0.00224903
0.00216605
0.00209314
0.00206772
0.00214728
0.00240554
0.0028792
0.00340815
0.00147569
0.00136622
0.00130952
0.00133518
0.00144061
0.00162361
0.001799
0.00196286
0.00211361
0.00224652
0.00235738
0.00244185
0.00249588
0.00251618
0.00250109
0.00245155
0.00237237
0.00227375
0.00217373
0.00210168
0.00210286
0.00224093
0.0025762
0.00303392
0.00165979
0.00161219
0.00159313
0.00163466
0.00172475
0.00188712
0.002053
0.00220825
0.00234709
0.00246872
0.00256901
0.00264313
0.00268661
0.00269597
0.00266928
0.00260698
0.00251281
0.00239514
0.00226892
0.00215852
0.00210126
0.002151
0.00237413
0.00275985
0.001843
0.00186274
0.00189201
0.00195836
0.00205665
0.00220198
0.00234771
0.00249695
0.00263185
0.00274343
0.00282926
0.00288771
0.00291426
0.00290581
0.00286063
0.00277912
0.00266456
0.00252422
0.00237109
0.00222639
0.00212242
0.00210583
0.0022419
0.00256321
0.0020166
0.0021084
0.00219255
0.00229194
0.00240842
0.00255404
0.00269163
0.00282193
0.00294376
0.00304634
0.00311952
0.00315922
0.00316424
0.00313308
0.00306441
0.0029589
0.00281979
0.00265385
0.00247292
0.00229626
0.00215316
0.00208545
0.00215521
0.00242291
0.00217035
0.0023374
0.00248009
0.00261904
0.00276089
0.00291358
0.00305135
0.00317493
0.00327802
0.00335995
0.00341614
0.00343703
0.00342008
0.00336387
0.00326869
0.00313609
0.00296967
0.00277615
0.00256687
0.0023601
0.00218359
0.00207645
0.00209748
0.00232398
0.00229295
0.00253683
0.0027395
0.00292239
0.0030939
0.00325896
0.00340067
0.00352053
0.00361395
0.00367692
0.0037078
0.00370525
0.00366377
0.00358158
0.00345915
0.00329844
0.00310351
0.00288174
0.00264482
0.00241079
0.00220667
0.00207054
0.00205932
0.00225858
0.00237399
0.00269348
0.00295655
0.00318559
0.0033886
0.00356981
0.00371856
0.00383742
0.00392342
0.00397367
0.00398566
0.00395816
0.00389044
0.00378155
0.00363193
0.00344382
0.00322182
0.00297321
0.00270993
0.00245069
0.00222344
0.00206708
0.0020381
0.002224
0.00240514
0.00279587
0.00312029
0.00339533
0.00362998
0.00382946
0.00398751
0.00410793
0.00418924
0.00422976
0.00422798
0.0041829
0.00409426
0.00396236
0.00378836
0.00357503
0.00332717
0.00305276
0.00276448
0.00248224
0.00223591
0.00206684
0.00203255
0.00221765
0.00237672
0.00284022
0.00322375
0.00354362
0.00380885
0.00402693
0.00419548
0.00431949
0.00439889
0.00443306
0.00442145
0.00436376
0.00426017
0.00411139
0.00391889
0.00368583
0.00341739
0.00312196
0.00281303
0.00251189
0.00225073
0.00207457
0.00204275
0.00223443
0.00228577
0.00282606
0.00326787
0.00362831
0.00392214
0.0041581
0.00433696
0.00446588
0.00454605
0.0045776
0.00456089
0.00449622
0.0043841
0.00422538
0.00402199
0.00377723
0.00349638
0.00318786
0.00286567
0.00255175
0.0022794
0.00209787
0.00206643
0.00226104
0.00213409
0.00275957
0.0032593
0.00365706
0.00397408
0.0042238
0.00441234
0.00454711
0.00463032
0.00466271
0.00464555
0.00457971
0.00446597
0.00430551
0.00410037
0.00385379
0.00356979
0.00325741
0.00293113
0.00261171
0.00233228
0.00213695
0.00208978
0.00226907
0.00192872
0.00265378
0.00321118
0.00364011
0.00397481
0.0042344
0.00442939
0.00456835
0.00465491
0.00469051
0.00467688
0.00461516
0.00450635
0.00435184
0.00415336
0.003912
0.00363506
0.00333102
0.00301053
0.00269223
0.0024048
0.00218998
0.00210843
0.00225027
0.00168244
0.00252826
0.0031408
0.00359134
0.00393478
0.00419744
0.00439481
0.00453626
0.00462507
0.00466461
0.00465663
0.00460248
0.0045036
0.0043612
0.00417699
0.00395444
0.00369681
0.00340881
0.00310117
0.00278989
0.00249809
0.00226028
0.00213339
0.00222347
0.00141521
0.00240751
0.00306626
0.00352352
0.00386385
0.00412129
0.00431569
0.00445548
0.00454459
0.00458771
0.00458603
0.00454062
0.00445266
0.00432368
0.00415609
0.00395324
0.00371774
0.00345305
0.00316728
0.00287213
0.00258546
0.00233461
0.00216687
0.00220909
0.00118879
0.00232591
0.0030022
0.00344437
0.0037674
0.00401073
0.00419518
0.00432783
0.00441646
0.00446265
0.00446698
0.00442967
0.00435087
0.004232
0.0040765
0.00388738
0.00366758
0.00342158
0.00315487
0.00287753
0.00260575
0.00236565
0.00220381
0.00222326
4.809e-06
3.15945e-05
8.28961e-05
0.000143535
4.61421e-05
6.04404e-05
8.38693e-05
0.000113705
0.000229347
0.000348055
0.000359439
0.00049669
7.47825e-05
0.000227821
0.000405312
0.000586111
0.00073205
0.000999659
8.20297e-05
0.000335823
0.000570839
0.000807407
0.00103973
0.0013664
8.74225e-05
0.000431401
0.000716193
0.00099429
0.00126994
0.00159356
9.14814e-05
0.000510332
0.000837547
0.00114097
0.00142645
0.00171218
9.45353e-05
0.000572363
0.000933711
0.00124783
0.00151965
0.00175057
9.67941e-05
0.000618191
0.00100516
0.0013184
0.00156216
0.001733
9.83942e-05
0.000648996
0.00105351
0.00135763
0.00156601
0.00167886
9.94228e-05
0.000666009
0.00108091
0.00137066
0.00154189
0.00160163
9.99374e-05
0.000670681
0.00108969
0.00136245
0.00149847
0.00151206
9.99663e-05
0.000663172
0.0010817
0.00133724
0.00144253
0.00141763
9.95266e-05
0.000643106
0.00105842
0.00129833
0.00137906
0.0013237
9.88575e-05
0.000609237
0.00102073
0.00124793
0.00131145
0.00123358
9.7926e-05
0.000564667
0.000970083
0.00118745
0.00124122
0.00114891
9.66865e-05
0.00051285
0.000907938
0.00111784
0.00116807
0.00106926
9.50887e-05
0.000456783
0.000835733
0.00103928
0.00109062
0.000992897
9.30644e-05
0.000399113
0.000754515
0.000951267
0.00100657
0.000916496
9.04994e-05
0.000341217
0.00066522
0.000852521
0.000912666
0.00083622
8.71745e-05
0.000283893
0.000568295
0.000740789
0.000804467
0.000745734
8.26509e-05
0.000229031
0.000462449
0.000612167
0.000675949
0.000635059
7.60516e-05
0.000173938
0.00034202
0.000460824
0.000519999
0.000490209
8.80291e-05
0.000104164
0.000196324
0.000276704
0.000330953
0.000298588
4.59888e-06
1.34353e-05
3.68268e-05
7.68536e-05
0.000137919
0.000198648
0.00120032
0.0023292
0.00295312
0.00335342
0.00364495
0.00386469
0.00403177
0.0041575
0.00424494
0.00429415
0.00430439
0.00427381
0.00420782
0.00410766
0.00397382
0.00380639
0.00360739
0.00338082
0.00313288
0.00287323
0.00261709
0.00238942
0.00224199
0.00228383
0.00153552
0.00239311
0.00290366
0.00324158
0.00348899
0.00367892
0.00383061
0.00394887
0.00403405
0.0040854
0.00410322
0.00409422
0.00405507
0.00398108
0.00386995
0.00372311
0.00354331
0.00333469
0.00310343
0.00285863
0.00261542
0.00239968
0.00226557
0.00234198
0.00180275
0.00243469
0.00282607
0.00309301
0.00329571
0.00345883
0.00359327
0.00370172
0.00378387
0.00384334
0.00388471
0.00389988
0.00388042
0.00382567
0.00373532
0.00360977
0.00345049
0.00326049
0.00304555
0.00281608
0.00258854
0.00239042
0.00227981
0.00238119
0.00196668
0.00241926
0.00270537
0.00290759
0.00306786
0.00320275
0.00331993
0.00341973
0.00350868
0.00358846
0.00364436
0.00366952
0.0036619
0.00361981
0.00354308
0.0034319
0.00328771
0.00311403
0.00291768
0.00271004
0.00250968
0.00234738
0.00228359
0.00242404
0.00203328
0.00234608
0.00254107
0.00268335
0.00280476
0.00291549
0.00301884
0.00312333
0.00322747
0.00331098
0.00336879
0.00339783
0.00339737
0.0033662
0.00330214
0.0032046
0.00307508
0.00291783
0.00274108
0.00255899
0.00239452
0.00228511
0.00229726
0.00250894
0.00202216
0.00221993
0.0023362
0.00242676
0.00251671
0.00260967
0.00271596
0.00283023
0.0029297
0.00300885
0.00306818
0.00310563
0.00311629
0.00309656
0.00304425
0.00295906
0.0028432
0.00270242
0.00254751
0.00239679
0.00227989
0.00224377
0.00235991
0.00266257
0.00195318
0.00205409
0.00210306
0.00215164
0.00221963
0.00231451
0.00242761
0.00253249
0.00262505
0.00270785
0.00277473
0.00282021
0.00283936
0.00282845
0.00278543
0.00271059
0.00260744
0.00248399
0.00235488
0.00224466
0.00219257
0.00225741
0.00250792
0.0029076
0.0018431
0.00186278
0.0018574
0.00187529
0.00194146
0.00204572
0.00215006
0.00225094
0.00234896
0.00243711
0.00250938
0.00256016
0.00258459
0.00257914
0.00254233
0.00247557
0.00238438
0.00228019
0.00218332
0.00212754
0.00216539
0.00236695
0.00277972
0.00328009
0.00170838
0.00166129
0.00161562
0.0016158
0.0017002
0.00180188
0.00190963
0.00201953
0.00212362
0.00221578
0.00229052
0.00234277
0.00236818
0.00236392
0.00232959
0.00226841
0.00218893
0.00210769
0.00205361
0.00207407
0.00223832
0.00261717
0.00320095
0.00377133
0.0015631
0.00146302
0.00139292
0.00139898
0.00149309
0.00160973
0.00173423
0.00185452
0.00196385
0.00205726
0.00213037
0.00217915
0.0022003
0.00219221
0.00215623
0.00209835
0.00203172
0.00198068
0.00198737
0.00211861
0.00245793
0.00304577
0.0038056
0.0043918
0.00141917
0.00127784
0.00119909
0.00122318
0.00134242
0.00148857
0.00163156
0.00176138
0.0018733
0.00196399
0.00203058
0.00207045
0.00208181
0.00206489
0.00202372
0.00196849
0.00191933
0.00191282
0.0020111
0.00230351
0.00286799
0.00367513
0.0045118
0.00506191
0.00128468
0.00111423
0.00104088
0.00109568
0.00125942
0.00143712
0.00159619
0.0017321
0.0018427
0.0019264
0.00198178
0.00200786
0.00200478
0.00197544
0.00192781
0.00187839
0.0018582
0.00192255
0.00215926
0.00266584
0.00346141
0.00440663
0.00520209
0.0056987
0.00116201
0.000978668
0.000923802
0.00103588
0.00124442
0.00144278
0.00161178
0.00174929
0.00185484
0.00192796
0.00196855
0.00197741
0.00195722
0.00191458
0.00186327
0.00182931
0.00186009
0.0020359
0.00246254
0.00319965
0.00415634
0.00507507
0.00580974
0.00622559
0.00104928
0.000871492
0.000855329
0.00102216
0.00126697
0.00148487
0.00165937
0.00179509
0.00189271
0.00195262
0.00197604
0.00196596
0.00192838
0.00187523
0.00182863
0.00182843
0.00194374
0.00227643
0.00291465
0.00382662
0.00480032
0.00563643
0.00625456
0.00659531
0.000944908
0.000786085
0.000820455
0.00102507
0.00130892
0.00154979
0.00172577
0.001857
0.00194425
0.00198876
0.00199348
0.00196417
0.00191164
0.0018551
0.00182829
0.0018891
0.00212732
0.00264159
0.00345256
0.00442566
0.00530033
0.0060001
0.00649362
0.00672082
0.000845951
0.000722976
0.000800968
0.00105852
0.00138449
0.00162983
0.00180363
0.00192777
0.00200206
0.00202899
0.00201401
0.00196698
0.00190493
0.00185699
0.00187192
0.00202592
0.00241354
0.00309029
0.00398699
0.0048972
0.00563515
0.00619805
0.00654082
0.00671034
0.000748128
0.000677606
0.000813252
0.00112288
0.00147457
0.00171572
0.00188854
0.00200306
0.00206136
0.00206864
0.00203401
0.00197273
0.00191021
0.00188826
0.00197189
0.00224629
0.00278097
0.00355917
0.00444148
0.00521749
0.00579463
0.00621072
0.0064341
0.00655494
0.000647961
0.00064038
0.000848834
0.00121197
0.00157292
0.00181205
0.00197968
0.00208001
0.00211879
0.00210485
0.00205213
0.00198295
0.00193342
0.0019598
0.00213875
0.00254372
0.00318997
0.00398865
0.00477431
0.0053835
0.00579938
0.00605361
0.00618237
0.0062598
0.000548952
0.000629389
0.000908319
0.00132622
0.0016871
0.0019202
0.00207467
0.00215552
0.0021716
0.00213618
0.00206929
0.00200224
0.00198378
0.00208317
0.00237552
0.00289724
0.00359747
0.00434168
0.00498001
0.00541514
0.00566308
0.0057718
0.00580303
0.00583129
0.000457385
0.00064182
0.00098933
0.00145957
0.00180978
0.00203331
0.00216959
0.00222649
0.00221781
0.00216264
0.00208866
0.00203799
0.00207238
0.00226673
0.00267468
0.0032778
0.0039699
0.00460603
0.00507556
0.0053402
0.00542246
0.00538566
0.00529122
0.00523653
0.000381289
0.000677034
0.00109368
0.0016023
0.00193688
0.00214988
0.00226164
0.00229028
0.00225637
0.00218592
0.00211574
0.00209989
0.00220979
0.00251186
0.00301892
0.00365638
0.0042885
0.00478832
0.00508991
0.00519095
0.00512383
0.00493002
0.00466044
0.00441349
0.000331187
0.000738174
0.00126258
0.0017775
0.00208612
0.00226919
0.00234732
0.00234446
0.00228734
0.00220956
0.00215813
0.00219809
0.00240191
0.00281001
0.0033847
0.0040102
0.0045493
0.00490857
0.00506154
0.00502864
0.00484173
0.00451639
0.00403598
0.0033633
0.000334917
0.000840373
0.00146433
0.00195904
0.00223774
0.00238229
0.0024217
0.00238722
0.00231232
0.00223898
0.00222448
0.00234012
0.00264607
0.00314284
0.00374697
0.00432459
0.00475773
0.00499116
0.00502991
0.00491042
0.00467025
0.00433041
0.0038919
0.00335714
0.000372024
0.000987814
0.00169966
0.00214631
0.00238752
0.00248365
0.00248118
0.00241825
0.00233474
0.00228107
0.00232258
0.00252699
0.00292858
0.00348606
0.00408457
0.0045901
0.00491695
0.00504502
0.00500113
0.00482899
0.00456581
0.0042327
0.00383744
0.00339259
2.47746e-06
2.3419e-05
7.42224e-05
0.000161862
4.72523e-05
6.31749e-05
5.7585e-05
0.000137473
0.00026607
0.000419914
0.000423356
0.00059
6.30549e-05
0.000257318
0.000466006
0.000693404
0.000862253
0.0011355
6.95416e-05
0.000352642
0.000636389
0.000927128
0.00120557
0.00155581
7.4402e-05
0.000424054
0.00077398
0.00111668
0.00146552
0.00184229
7.80187e-05
0.000476929
0.000881933
0.00126817
0.00165567
0.00203661
8.06435e-05
0.000516865
0.000963018
0.00138254
0.00179135
0.00216885
8.24632e-05
0.000547635
0.00102282
0.00146447
0.00188477
0.00225598
8.36222e-05
0.000571437
0.00106317
0.00151804
0.00194348
0.00230774
8.42356e-05
0.000589003
0.00108603
0.00154654
0.00197288
0.00233024
8.44002e-05
0.000600016
0.00109256
0.00155252
0.0019769
0.00232777
8.42049e-05
0.000603471
0.00108333
0.00153784
0.00195834
0.0023045
8.37433e-05
0.000597969
0.00105858
0.00150356
0.00191927
0.00226355
8.30273e-05
0.000582744
0.00101846
0.00145002
0.00186156
0.00220685
8.19122e-05
0.000558566
0.000963136
0.00137761
0.00178576
0.00213553
8.03232e-05
0.000525781
0.000892726
0.00128667
0.00169151
0.00204961
7.8204e-05
0.000484526
0.000808341
0.00117547
0.00157741
0.0019477
7.54903e-05
0.000434858
0.000711633
0.00104808
0.0014385
0.00182648
7.20932e-05
0.000376694
0.000603741
0.000902494
0.0012768
0.00167803
6.78874e-05
0.000310852
0.000486861
0.000739362
0.00108592
0.00149601
6.26885e-05
0.000237387
0.000364221
0.000561466
0.000862242
0.00126317
5.62319e-05
0.000156989
0.000239364
0.000376053
0.000607393
0.000961305
4.44932e-05
7.1825e-05
0.000117302
0.000198148
0.000339308
0.000585224
1.59014e-06
9.34883e-06
3.04437e-05
7.03299e-05
0.000125455
0.000188993
0.000497437
0.00132121
0.00202313
0.00236654
0.00252875
0.00256616
0.00252298
0.00243905
0.0023599
0.00234297
0.00245432
0.0027511
0.00323448
0.00382271
0.00438315
0.00480116
0.00502729
0.00506914
0.00496652
0.00476482
0.00449803
0.00418452
0.00383268
0.00345268
0.00117053
0.00189466
0.00232919
0.00255447
0.00263793
0.00262214
0.00254663
0.00245351
0.00239415
0.00242745
0.00261941
0.00300637
0.00354882
0.00413477
0.00463011
0.00495439
0.00508897
0.00506027
0.00491415
0.00469425
0.00443055
0.00413877
0.00382658
0.00349791
0.0016718
0.00224155
0.00254321
0.00268546
0.00270846
0.00265168
0.00255576
0.00246793
0.00244099
0.00253754
0.00281624
0.00328113
0.00385436
0.00440527
0.00481992
0.00505144
0.00510537
0.00501971
0.00484197
0.00461257
0.00435734
0.00408882
0.00381194
0.00352425
0.00200516
0.00247595
0.00269258
0.00277053
0.00274628
0.00266003
0.00255673
0.00248719
0.00250433
0.00267521
0.0030393
0.00356188
0.00413585
0.00462556
0.00495265
0.00509724
0.005082
0.00495125
0.00475165
0.00451961
0.00427656
0.00403116
0.00378506
0.00353217
0.0022421
0.00263512
0.00278965
0.00281751
0.00275733
0.00265328
0.00255623
0.00251384
0.00258808
0.00284031
0.00328016
0.00383572
0.00437936
0.00479343
0.0050325
0.00509844
0.0050252
0.00485982
0.00464647
0.00441709
0.00418833
0.00396485
0.00374587
0.00352528
0.00241223
0.00273754
0.00284432
0.00283334
0.00274783
0.00263841
0.00255738
0.00255309
0.00269532
0.00302954
0.00352847
0.00409047
0.00457784
0.00490987
0.00506534
0.00506221
0.0049415
0.00475057
0.00453015
0.00430725
0.00409378
0.00389099
0.00369731
0.00350867
0.00252935
0.00279485
0.00286502
0.00282479
0.00272432
0.00262175
0.00256274
0.00260861
0.00282704
0.00323692
0.00377368
0.0043143
0.0047311
0.00497968
0.00505823
0.00499581
0.00483727
0.00462867
0.00440659
0.00419297
0.00399541
0.0038129
0.00364418
0.00348733
0.0026017
0.00281718
0.00285939
0.00279845
0.00269361
0.00260593
0.00257748
0.00268401
0.00298178
0.00345482
0.00400684
0.00449886
0.00483994
0.00500858
0.00501842
0.00490625
0.00471858
0.0044991
0.0042798
0.00407774
0.00389694
0.00373511
0.00359149
0.00346512
0.00263663
0.00281479
0.00283434
0.00276057
0.00266228
0.0025914
0.00260459
0.00278105
0.00315561
0.00367423
0.00421793
0.00464586
0.00490902
0.00500322
0.00495301
0.00480008
0.00459111
0.00436663
0.00415393
0.00396552
0.00380265
0.00366217
0.00354318
0.00344448
0.00264219
0.00279392
0.00279556
0.00271684
0.0026326
0.0025832
0.00264745
0.00289959
0.00334296
0.00388845
0.0043974
0.00475619
0.00494371
0.00497039
0.00486873
0.00468338
0.00446011
0.00423584
0.00403313
0.00386041
0.00371656
0.00359753
0.00350162
0.00342667
0.00262613
0.00275822
0.00274789
0.00267321
0.0026035
0.00258376
0.0027083
0.0030375
0.00353697
0.0040894
0.0045449
0.00483296
0.00494968
0.00491651
0.00477173
0.00456167
0.00433043
0.00411101
0.00392129
0.0037659
0.00364153
0.00354307
0.00346764
0.00341209
0.00259325
0.0027115
0.00269548
0.00263267
0.00257598
0.00259482
0.00278764
0.00319066
0.00373034
0.00427052
0.00466327
0.00488128
0.00493295
0.00484762
0.0046676
0.0044399
0.00420642
0.00399591
0.00382154
0.00368434
0.00357893
0.00349913
0.00344099
0.00340066
0.00254714
0.0026572
0.00264203
0.00259477
0.00255352
0.00261877
0.00288474
0.00335425
0.0039187
0.0044237
0.004754
0.00490589
0.00489911
0.00476919
0.00456132
0.00432247
0.00409179
0.00389344
0.00373587
0.00361667
0.00352872
0.003465
0.00342079
0.00339206
0.00249051
0.00259822
0.00259163
0.00255523
0.00253666
0.00265654
0.00299718
0.00352224
0.00409522
0.00455176
0.00482046
0.00491151
0.00485327
0.00468609
0.00445725
0.0042131
0.00398943
0.00380544
0.00366495
0.00356258
0.00348992
0.00343948
0.00340577
0.00338584
0.00242531
0.00253676
0.00254438
0.0025144
0.00252588
0.00270791
0.00312105
0.00368856
0.0042557
0.00465776
0.00486695
0.00490287