/*--------------------------------*- C++ -*----------------------------------*\
  =========                 |
  \\      /  F ield         | OpenFOAM: The Open Source CFD Toolbox
   \\    /   O peration     | Website:  https://openfoam.org
    \\  /    A nd           | Version:  11
     \\/     M anipulation  |
\*---------------------------------------------------------------------------*/
FoamFile
{
    format      ascii;
    class       volScalarField;
    location    "0.04";
    object      p;
}
// * * * * * * * * * * * * * * * * * * * * * * * * * * * * * * * * * * * * * //

dimensions      [0 2 -2 0 0 0 0];

internalField   nonuniform List<scalar> 
2880
(
0.609638
0.574485
0.546986
0.498416
0.387845
0.13486
0.611118
0.580168
0.555822
0.512414
0.438916
0.347844
0.613207
0.588263
0.567851
0.528842
0.476573
0.437852
0.615357
0.59563
0.579768
0.545992
0.506636
0.482309
0.617692
0.601355
0.590028
0.561821
0.531865
0.513627
0.620295
0.606012
0.598761
0.575281
0.551208
0.534976
0.623087
0.610276
0.606295
0.586206
0.564756
0.547487
0.625991
0.614589
0.612799
0.59482
0.573714
0.553698
0.628995
0.619231
0.618424
0.601438
0.579216
0.555599
0.632149
0.624387
0.623349
0.606345
0.581986
0.554473
0.635529
0.630154
0.627741
0.609823
0.582524
0.551026
0.639202
0.636546
0.631783
0.612193
0.581207
0.545432
0.643184
0.643515
0.635661
0.613762
0.578331
0.53772
0.647416
0.650885
0.639547
0.61482
0.574163
0.527871
0.651743
0.658425
0.643566
0.615647
0.568941
0.515852
0.655941
0.665731
0.647722
0.616465
0.56291
0.501642
0.659744
0.672305
0.651926
0.617548
0.556299
0.485226
0.662875
0.677658
0.656063
0.619295
0.54944
0.466667
0.665115
0.681524
0.660186
0.622307
0.543087
0.446182
0.666376
0.684225
0.664939
0.627639
0.538752
0.424444
0.666794
0.68719
0.672132
0.637417
0.538776
0.403779
0.666918
0.692916
0.684707
0.654819
0.545819
0.388612
0.667859
0.702288
0.703138
0.67889
0.562338
0.378589
0.669496
0.710511
0.717702
0.695714
0.605095
0.366968
0.580603
0.699734
0.702925
0.687879
0.666643
0.645718
0.626903
0.610872
0.597612
0.586781
0.578009
0.57089
0.565012
0.560037
0.555742
0.552016
0.548827
0.546167
0.543999
0.542233
0.540932
0.540791
0.542482
0.541815
0.534007
0.63931
0.65836
0.652471
0.637866
0.621987
0.606916
0.593507
0.582002
0.572384
0.564494
0.558046
0.552701
0.548162
0.544232
0.54081
0.537872
0.535414
0.533391
0.531686
0.530418
0.530633
0.533314
0.532222
0.53769
0.604565
0.622623
0.621136
0.611205
0.599203
0.587104
0.575809
0.56576
0.557178
0.550056
0.544203
0.539342
0.53521
0.531626
0.528495
0.525796
0.52353
0.521644
0.519992
0.518746
0.519356
0.52321
0.521641
0.540685
0.582066
0.59489
0.594128
0.586814
0.577437
0.567514
0.557849
0.548987
0.541275
0.534809
0.529475
0.525046
0.521288
0.518026
0.515167
0.512689
0.510599
0.508832
0.507204
0.505912
0.506818
0.512006
0.510413
0.541367
0.564816
0.572389
0.570529
0.564312
0.556505
0.548076
0.539654
0.531758
0.52477
0.518856
0.513966
0.509917
0.506495
0.503529
0.500921
0.498643
0.496704
0.49503
0.493384
0.491962
0.493048
0.499627
0.498451
0.541452
0.550417
0.553
0.54926
0.543165
0.53615
0.528716
0.521244
0.514133
0.507745
0.502288
0.497769
0.494047
0.490926
0.488232
0.485857
0.483767
0.481967
0.480371
0.478695
0.47715
0.478483
0.486446
0.485216
0.540291
0.538128
0.535434
0.529444
0.522866
0.516141
0.509355
0.502614
0.49615
0.490264
0.485184
0.480969
0.477522
0.474666
0.472222
0.470069
0.468161
0.466499
0.464983
0.463282
0.461637
0.463275
0.472671
0.471165
0.537364
0.526993
0.518773
0.510377
0.502977
0.49624
0.489874
0.483718
0.477812
0.472364
0.467602
0.463636
0.460417
0.45779
0.455576
0.453637
0.45191
0.450389
0.448956
0.44724
0.445505
0.447452
0.458284
0.456472
0.532514
0.515332
0.50219
0.491447
0.483076
0.476171
0.470099
0.464449
0.459067
0.454041
0.449576
0.445823
0.442793
0.440365
0.438364
0.436633
0.435092
0.433719
0.432382
0.430666
0.428856
0.431102
0.443341
0.441234
0.52561
0.502353
0.484997
0.472087
0.462732
0.45561
0.449792
0.444639
0.439807
0.435245
0.431102
0.427562
0.424702
0.422451
0.420648
0.419124
0.417777
0.416567
0.415344
0.413652
0.411789
0.414319
0.427907
0.425546
0.516438
0.487671
0.46664
0.451769
0.441504
0.4342
0.428668
0.424063
0.419864
0.415867
0.412136
0.408859
0.406181
0.404101
0.402489
0.401175
0.400035
0.399008
0.397924
0.396288
0.3944
0.397197
0.412046
0.40951
0.504823
0.470901
0.446589
0.429973
0.418945
0.411567
0.406415
0.402465
0.39903
0.395754
0.392587
0.389687
0.387251
0.385361
0.383948
0.382853
0.381938
0.381119
0.380204
0.378664
0.376789
0.379828
0.395819
0.393239
0.490471
0.451556
0.424275
0.406172
0.394603
0.387332
0.382718
0.379574
0.377072
0.374715
0.372322
0.36998
0.367908
0.366273
0.365086
0.364232
0.363565
0.362984
0.362275
0.360877
0.359059
0.362308
0.379285
0.376857
0.472948
0.429006
0.399053
0.379804
0.368015
0.36112
0.357268
0.35513
0.353762
0.352546
0.351174
0.349634
0.34812
0.346861
0.345968
0.345393
0.34501
0.344704
0.344243
0.343038
0.341325
0.344735
0.362495
0.360516
0.451621
0.402439
0.370182
0.350259
0.338701
0.332562
0.329777
0.328897
0.328893
0.329055
0.32897
0.328516
0.327819
0.327131
0.326654
0.32643
0.326382
0.326397
0.326233
0.325283
0.323724
0.327217
0.345492
0.344433
0.425644
0.370821
0.3368
0.316873
0.306167
0.301298
0.299983
0.300676
0.3023
0.304087
0.305553
0.30648
0.306907
0.307056
0.307185
0.307438
0.30781
0.308215
0.308412
0.307787
0.306433
0.309881
0.3283
0.328952
0.393931
0.332837
0.297899
0.278925
0.269909
0.266982
0.267656
0.270314
0.273869
0.277541
0.280811
0.283401
0.285266
0.286567
0.287569
0.288496
0.28943
0.290333
0.290992
0.290801
0.289719
0.292892
0.31087
0.3147
0.355021
0.286817
0.252315
0.235643
0.229425
0.229306
0.232616
0.237715
0.243545
0.249376
0.254694
0.259195
0.262785
0.26556
0.267754
0.269626
0.271341
0.272928
0.274231
0.274695
0.274047
0.276505
0.292861
0.303036
0.306785
0.230685
0.198719
0.186236
0.184256
0.188019
0.194747
0.202845
0.211349
0.219624
0.227218
0.233841
0.239381
0.243902
0.247598
0.250726
0.253509
0.256055
0.258312
0.259885
0.260191
0.261432
0.273889
0.297189
0.246341
0.161849
0.135634
0.129949
0.134028
0.14297
0.154029
0.165759
0.177372
0.188385
0.198464
0.207374
0.215017
0.221453
0.22686
0.231489
0.235599
0.23939
0.242947
0.246118
0.248344
0.25042
0.260302
0.28942
0.170362
0.0769135
0.0614906
0.0661585
0.0785411
0.0941698
0.11058
0.126625
0.141798
0.155839
0.168577
0.179884
0.1897
0.198094
0.205252
0.211424
0.216888
0.221907
0.226605
0.230772
0.234306
0.240319
0.25604
0.256279
0.0742006
-0.0285303
-0.0251104
-0.00548448
0.0178592
0.0418614
0.0647027
0.0857557
0.104927
0.122256
0.137787
0.151534
0.163508
0.173791
0.182576
0.190115
0.196673
0.202509
0.207739
0.212117
0.215852
0.223414
0.241356
0.228538
-0.0570989
-0.158644
-0.125288
-0.085061
-0.0476145
-0.0134142
0.0169388
0.043649
0.067205
0.0880352
0.106442
0.122616
0.13667
0.148722
0.158971
0.167692
0.17517
0.181668
0.18733
0.191967
0.195942
0.204072
0.22235
0.205125
-0.266633
-0.303827
-0.234863
-0.170445
-0.116423
-0.070562
-0.0318363
0.00103475
0.0292548
0.0537176
0.0750266
0.0935676
0.109581
0.123249
0.134785
0.144496
0.152731
0.159807
0.165905
0.170901
0.17523
0.183642
0.201526
0.182811
-0.691716
-0.694888
-0.729988
-0.787523
-0.858261
-0.959791
-0.69734
-0.702751
-0.741091
-0.799089
-0.864909
-0.962115
-0.701698
-0.711314
-0.753639
-0.812586
-0.868859
-0.935866
-0.705625
-0.718659
-0.763226
-0.820937
-0.871028
-0.925338
-0.710353
-0.725505
-0.770169
-0.824769
-0.871068
-0.916584
-0.715556
-0.732391
-0.775509
-0.825651
-0.868339
-0.905432
-0.720632
-0.739119
-0.7795
-0.824523
-0.862434
-0.891383
-0.725028
-0.745305
-0.782117
-0.821738
-0.853649
-0.874771
-0.728424
-0.750509
-0.783423
-0.81736
-0.842838
-0.856339
-0.730691
-0.754329
-0.783452
-0.811703
-0.830843
-0.837418
-0.731744
-0.756627
-0.782286
-0.80518
-0.818309
-0.818434
-0.731598
-0.75731
-0.780085
-0.798135
-0.805803
-0.800127
-0.730309
-0.75665
-0.777023
-0.790874
-0.793789
-0.783107
-0.728081
-0.754813
-0.773267
-0.783662
-0.782619
-0.767773
-0.725184
-0.751977
-0.768984
-0.776732
-0.772547
-0.754368
-0.721924
-0.748378
-0.764357
-0.770274
-0.763738
-0.743014
-0.718604
-0.744298
-0.759581
-0.764429
-0.756259
-0.733731
-0.715503
-0.740055
-0.754853
-0.759283
-0.750076
-0.726457
-0.712839
-0.736006
-0.750374
-0.754843
-0.745076
-0.721045
-0.710732
-0.732596
-0.746385
-0.750952
-0.741159
-0.717165
-0.70924
-0.730408
-0.743249
-0.747407
-0.738029
-0.714089
-0.708629
-0.730087
-0.74119
-0.743776
-0.734943
-0.711508
-0.709734
-0.731812
-0.739084
-0.73834
-0.731449
-0.713578
-0.711783
-0.731919
-0.733756
-0.729347
-0.73054
-0.734793
-0.591007
-0.477318
-0.357559
-0.2597
-0.18606
-0.127778
-0.0803227
-0.0410858
-0.00810917
0.0199987
0.0441605
0.0649662
0.0827891
0.0978891
0.110518
0.121007
0.12978
0.137264
0.143715
0.149069
0.153745
0.1622
0.179267
0.160737
-0.756106
-0.645887
-0.479789
-0.347257
-0.253319
-0.182732
-0.126856
-0.0814777
-0.0439102
-0.0123008
0.0145734
0.0374935
0.0569547
0.0732957
0.0868124
0.0978601
0.106917
0.114539
0.121133
0.126739
0.131677
0.139876
0.155752
0.138713
-0.854578
-0.75301
-0.579855
-0.426034
-0.314833
-0.232993
-0.169666
-0.118823
-0.0771047
-0.0423016
-0.0129528
0.0118798
0.0327918
0.0501867
0.0644008
0.0758084
0.0849132
0.0923663
0.098772
0.104349
0.109371
0.117048
0.131322
0.116698
-0.916889
-0.811983
-0.65306
-0.491624
-0.367968
-0.276857
-0.20725
-0.151923
-0.106709
-0.069156
-0.0376566
-0.0111638
0.0109882
0.0292512
0.0440013
0.0556171
0.0645982
0.0716329
0.0774841
0.0826336
0.0874406
0.0943254
0.106555
0.094898
-0.94042
-0.846247
-0.701692
-0.541461
-0.410995
-0.313202
-0.238655
-0.179865
-0.131903
-0.0921324
-0.0588707
-0.0310133
-0.00786365
0.0110542
0.0262057
0.0379358
0.0467105
0.0532104
0.0582704
0.0626176
0.0668019
0.0726512
0.0826279
0.0740523
-0.935709
-0.861827
-0.726979
-0.573628
-0.442388
-0.341067
-0.263351
-0.202071
-0.152111
-0.110687
-0.0760858
-0.0471855
-0.0233001
-0.00403972
0.0113803
0.0231711
0.0317264
0.0377114
0.0419492
0.0452964
0.0485213
0.0531137
0.0608195
0.0550376
-0.916782
-0.858518
-0.7317
-0.588417
-0.461598
-0.360178
-0.281194
-0.218358
-0.167081
-0.124559
-0.089079
-0.059629
-0.0354267
-0.0156855
-9.32602e-05
0.0115609
0.0198364
0.0253692
0.0289018
0.0312911
0.0334261
0.036587
0.0420303
0.0384373
-0.891382
-0.839742
-0.721729
-0.58925
-0.469904
-0.3713
-0.292484
-0.228912
-0.176913
-0.1338
-0.0979059
-0.0681815
-0.0437802
-0.0238743
-0.00848031
0.00290278
0.010886
0.0160347
0.0190212
0.0206417
0.0217814
0.0235586
0.0268943
0.0247557
-0.863048
-0.812055
-0.703261
-0.581157
-0.469699
-0.375227
-0.297588
-0.234119
-0.181953
-0.138677
-0.102705
-0.0729822
-0.0486861
-0.0291722
-0.0141271
-0.00304851
0.00460198
0.00938266
0.0119314
0.0129776
0.0133364
0.0139621
0.0155549
0.0142441
-0.833927
-0.78092
-0.680332
-0.567757
-0.463404
-0.37307
-0.297232
-0.234591
-0.182777
-0.13973
-0.104007
-0.0745893
-0.0506945
-0.0317071
-0.0171537
-0.00653169
0.000685669
0.0050595
0.00720561
0.00780041
0.00757845
0.00733291
0.00760492
0.00668424
-0.80578
-0.749741
-0.655699
-0.551236
-0.452994
-0.366561
-0.292837
-0.231343
-0.1802
-0.137673
-0.102449
-0.0735605
-0.0502477
-0.031891
-0.0179558
-0.00791295
-0.00121945
0.00269336
0.00442909
0.00462849
0.00395952
0.00307995
0.00242049
0.00163346
-0.779545
-0.72032
-0.63137
-0.533428
-0.440377
-0.357403
-0.285904
-0.225687
-0.175291
-0.133361
-0.0987403
-0.0704926
-0.0478605
-0.030213
-0.0169781
-0.00759421
-0.00149282
0.00190901
0.00321374
0.00304192
0.00201398
0.000688904
-0.000566664
-0.00134826
-0.755734
-0.693748
-0.608373
-0.515671
-0.42706
-0.347093
-0.277609
-0.218658
-0.169059
-0.127704
-0.0936405
-0.0660204
-0.0440876
-0.0271784
-0.0146813
-0.00599938
-0.000533179
0.00232363
0.00318415
0.00266269
0.00135007
-0.000256862
-0.00181469
-0.00262591
-0.734576
-0.670268
-0.587303
-0.498782
-0.413844
-0.336567
-0.268883
-0.211024
-0.162167
-0.121395
-0.087853
-0.0607862
-0.0394918
-0.0232876
-0.0115193
-0.0035463
0.00127004
0.00356908
0.00398642
0.00314326
0.00161783
-0.00012133
-0.00172439
-0.00252116
-0.716089
-0.649775
-0.568384
-0.483092
-0.401163
-0.326258
-0.260234
-0.203401
-0.155204
-0.114958
-0.0819178
-0.0553701
-0.0346414
-0.0190649
-0.00796576
-0.000665109
0.00351808
0.00526538
0.0052496
0.0041156
0.00244687
0.000713791
-0.000708982
-0.0013987
-0.700135
-0.631979
-0.551555
-0.468713
-0.389276
-0.31647
-0.251984
-0.196171
-0.148668
-0.108942
-0.0763737
-0.0503146
-0.0301074
-0.0150907
-0.0045829
0.00211899
0.00573169
0.00697749
0.0065713
0.00519488
0.00345635
0.00185605
0.000804304
0.000329365
-0.686457
-0.616526
-0.53663
-0.455694
-0.378372
-0.307456
-0.244426
-0.189648
-0.1429
-0.103765
-0.0717072
-0.0461296
-0.0264071
-0.0118848
-0.0018767
0.00433289
0.00748331
0.00832854
0.00762083
0.0060797
0.00434934
0.00298273
0.00243446
0.00226246
-0.674732
-0.603109
-0.52349
-0.444134
-0.368674
-0.299489
-0.237853
-0.184131
-0.138195
-0.0997155
-0.0682177
-0.0431423
-0.0238811
-0.00978695
-0.000175648
0.00567141
0.00850221
0.00908659
0.00820042
0.00659266
0.0049447
0.0038715
0.00387916
0.0040596
-0.664671
-0.59158
-0.512235
-0.434311
-0.360537
-0.292933
-0.232614
-0.17994
-0.134847
-0.0970621
-0.0661506
-0.041577
-0.0227445
-0.0090097
0.000310512
0.00593307
0.00860665
0.00910315
0.00820223
0.00666083
0.00517911
0.00442413
0.00495284
0.00547025
-0.656129
-0.582102
-0.503296
-0.426781
-0.354519
-0.288299
-0.22915
-0.177441
-0.133156
-0.0960504
-0.0657091
-0.0416055
-0.0231434
-0.00967587
-0.000517272
0.00504688
0.00775483
0.00836653
0.00764775
0.00633655
0.00511351
0.0046584
0.00556725
0.00632556
-0.649057
-0.575294
-0.497517
-0.422373
-0.351353
-0.286198
-0.227952
-0.177013
-0.133393
-0.0968563
-0.0669901
-0.0432631
-0.0250675
-0.0117435
-0.00260181
0.00307079
0.00600885
0.00695005
0.00661262
0.0056783
0.0047785
0.00456807
0.00565406
0.0065089
-0.64363
-0.572335
-0.496195
-0.422124
-0.351817
-0.287213
-0.229445
-0.178943
-0.13572
-0.0995319
-0.0699472
-0.0464204
-0.0283256
-0.0149882
-0.005702
0.000251495
0.00358268
0.00498708
0.00513695
0.00465165
0.00408728
0.00403951
0.00510898
0.00593612
-0.6427
-0.575264
-0.501156
-0.427148
-0.356569
-0.29174
-0.233864
-0.183339
-0.140145
-0.103987
-0.0743939
-0.0507918
-0.0325338
-0.0189354
-0.00929049
-0.00289358
0.00094021
0.00286594
0.00349953
0.00339484
0.00304782
0.00299974
0.00384654
0.00454606
-0.661369
-0.591393
-0.514528
-0.438193
-0.365884
-0.299845
-0.241158
-0.190098
-0.146532
-0.110055
-0.0801291
-0.056138
-0.0374275
-0.0233162
-0.0131113
-0.00613063
-0.00172448
0.000716002
0.00175339
0.00189593
0.00161451
0.00142329
0.00187675
0.00237254
-0.99976
-1.04533
-1.04423
-0.999965
-0.922734
-0.805167
-0.991053
-1.04171
-1.04616
-1.00864
-0.939555
-0.854001
-0.988947
-1.03651
-1.04683
-1.01873
-0.967301
-0.904984
-0.993636
-1.03536
-1.04923
-1.03052
-0.992988
-0.941213
-1.00107
-1.03863
-1.05568
-1.04366
-1.01462
-0.96764
-1.01075
-1.04474
-1.06515
-1.05783
-1.03456
-0.991069
-1.0224
-1.0524
-1.07621
-1.07276
-1.05442
-1.01462
-1.03519
-1.06085
-1.0879
-1.08814
-1.07469
-1.03927
-1.04813
-1.06945
-1.09955
-1.10369
-1.09538
-1.06516
-1.06029
-1.07748
-1.11065
-1.11907
-1.11626
-1.09198
-1.07081
-1.08436
-1.12078
-1.1339
-1.13689
-1.11913
-1.07889
-1.08959
-1.12961
-1.14778
-1.15665
-1.14573
-1.0839
-1.09279
-1.13685
-1.16026
-1.17478
-1.1706
-1.08555
-1.0938
-1.14212
-1.17093
-1.19049
-1.19267
-1.0839
-1.0921
-1.14541
-1.17945
-1.20304
-1.21157
-1.07913
-1.08775
-1.14664
-1.18561
-1.21181
-1.22557
-1.07158
-1.08112
-1.14583
-1.18936
-1.21645
-1.23403
-1.06182
-1.07295
-1.14319
-1.19085
-1.21708
-1.23703
-1.05048
-1.06446
-1.13933
-1.19033
-1.21463
-1.23687
-1.03877
-1.05628
-1.13503
-1.18848
-1.21154
-1.23826
-1.02845
-1.04893
-1.13037
-1.1864
-1.21138
-1.2469
-1.02122
-1.04234
-1.12525
-1.18463
-1.21731
-1.26868
-1.01346
-1.03522
-1.12054
-1.18505
-1.23158
-1.30516
-1.00211
-1.03007
-1.12004
-1.19528
-1.24855
-1.34
-0.72454
-0.623468
-0.536557
-0.455003
-0.379375
-0.311139
-0.250997
-0.198956
-0.154663
-0.117577
-0.0870844
-0.0625279
-0.0432155
-0.0284517
-0.0175669
-0.00991754
-0.00489469
-0.00192991
-0.000499958
-0.000128374
-0.000367772
-0.000752101
-0.000781811
-0.000422675
-0.776048
-0.661405
-0.564263
-0.475984
-0.396007
-0.324908
-0.262854
-0.209487
-0.164211
-0.12635
-0.0951753
-0.0699329
-0.049901
-0.0344083
-0.0228012
-0.0144555
-0.00879063
-0.00527399
-0.00341907
-0.00277194
-0.00289536
-0.00337411
-0.00377452
-0.00335556
-0.818618
-0.698495
-0.593869
-0.499189
-0.41461
-0.340322
-0.276059
-0.221127
-0.174707
-0.135917
-0.103869
-0.0777713
-0.0569083
-0.0405975
-0.0281968
-0.019117
-0.0128155
-0.00878799
-0.0065562
-0.00565168
-0.00561364
-0.00603968
-0.00655228
-0.00582564
-0.853332
-0.733094
-0.623505
-0.523308
-0.434216
-0.356579
-0.289922
-0.233285
-0.185543
-0.145585
-0.112464
-0.0853584
-0.0635272
-0.0462968
-0.0330603
-0.0232631
-0.0163854
-0.0119264
-0.00938916
-0.00826798
-0.00805034
-0.00829838
-0.00864725
-0.00737172
-0.88375
-0.765966
-0.652831
-0.547692
-0.454138
-0.373051
-0.303912
-0.24541
-0.196122
-0.15484
-0.120549
-0.0923546
-0.0695011
-0.0513384
-0.0372902
-0.0268232
-0.0194212
-0.0145694
-0.0117393
-0.0103727
-0.00988693
-0.00977355
-0.00963757
-0.00763813
-0.913108
-0.798358
-0.682102
-0.572116
-0.474032
-0.389425
-0.31765
-0.257068
-0.206131
-0.163491
-0.12798
-0.0986679
-0.0748046
-0.0557598
-0.0409663
-0.0298872
-0.0219932
-0.0167424
-0.0135618
-0.0118303
-0.0108874
-0.0101381
-0.00914782
-0.00637175
-0.943294
-0.831323
-0.711752
-0.596645
-0.493866
-0.405544
-0.330874
-0.268107
-0.215471
-0.171388
-0.134606
-0.104178
-0.0793454
-0.0594664
-0.0439641
-0.0322881
-0.0238855
-0.0181773
-0.0145367
-0.0122723
-0.0106449
-0.00897417
-0.00679201
-0.0033676
-0.9752
-0.865587
-0.742125
-0.621395
-0.513658
-0.421234
-0.343486
-0.278429
-0.22395
-0.178327
-0.140245
-0.108696
-0.0828965
-0.0621848
-0.0459638
-0.0336585
-0.0246832
-0.0184132
-0.0141599
-0.0111555
-0.00858814
-0.00570623
-0.00200789
0.00172001
-1.00909
-0.901441
-0.773251
-0.646385
-0.533172
-0.436273
-0.35527
-0.287712
-0.231241
-0.184
-0.144565
-0.111861
-0.0850703
-0.0634988
-0.0465177
-0.0335184
-0.0238753
-0.016911
-0.0118638
-0.00788316
-0.00411103
0.000247228
0.00578357
0.00934407
-1.04475
-0.938585
-0.804666
-0.671188
-0.551819
-0.450154
-0.365609
-0.295352
-0.236772
-0.187842
-0.147012
-0.113113
-0.0853045
-0.0628439
-0.0450567
-0.0312938
-0.0208817
-0.013077
-0.00702563
-0.00179985
0.00343633
0.00951592
0.0171549
0.0198588
-1.08149
-0.975747
-0.835442
-0.694694
-0.568552
-0.461753
-0.373443
-0.300386
-0.239656
-0.189038
-0.146818
-0.111703
-0.0828954
-0.0595659
-0.0409678
-0.0264013
-0.015133
-0.00632827
0.000976841
0.00772597
0.0145884
0.0224201
0.0322033
0.0332115
-1.11817
-1.01077
-0.864185
-0.715258
-0.581689
-0.469455
-0.377366
-0.301571
-0.238795
-0.186617
-0.143087
-0.10684
-0.077169
-0.0530732
-0.0337237
-0.0183585
-0.00616285
0.00380958
0.0125944
0.0209933
0.0293439
0.0385907
0.0503673
0.0489878
-1.15307
-1.04126
-0.888419
-0.730284
-0.588889
-0.471446
-0.375855
-0.297614
-0.233085
-0.179596
-0.134921
-0.0980597
-0.0677415
-0.0429999
-0.022992
-0.00686046
0.00632042
0.0175868
0.0279092
0.0377567
0.0471092
0.0573737
0.0710115
0.0667426
-1.18316
-1.06455
-0.904579
-0.736327
-0.587662
-0.465872
-0.3675
-0.287448
-0.221664
-0.167239
-0.122213
-0.0850032
-0.0542879
-0.0291402
-0.00863264
0.00819521
0.0223646
0.0348995
0.0465338
0.0573411
0.0671359
0.0781329
0.0934974
0.0860909
-1.2053
-1.0778
-0.908648
-0.730653
-0.576146
-0.451349
-0.351393
-0.270474
-0.204237
-0.149547
-0.104573
-0.0674127
-0.036726
-0.0115002
0.00928365
0.0266713
0.0416987
0.0552305
0.0676827
0.0788278
0.0885922
0.100012
0.116724
0.106396
-1.21654
-1.079
-0.897791
-0.711706
-0.553422
-0.427347
-0.327245
-0.246389
-0.180356
-0.126471
-0.0820537
-0.0454428
-0.01525
0.00968675
0.0304744
0.0481903
0.0637661
0.0778168
0.0905107
0.101506
0.110926
0.122493
0.140276
0.12761
-1.21402
-1.06683
-0.870684
-0.67851
-0.519097
-0.393747
-0.294598
-0.215011
-0.150552
-0.0980024
-0.054905
-0.0194586
0.00977142
0.0340337
0.0544966
0.0721888
0.0878525
0.101885
0.114342
0.124919
0.13388
0.145344
0.163912
0.149799
-1.19516
-1.04021
-0.826943
-0.630627
-0.472953
-0.350306
-0.253736
-0.176766
-0.114813
-0.064545
-0.0235001
0.0101611
0.0379157
0.0610717
0.0807968
0.0979908
0.113212
0.126744
0.138636
0.148637
0.157061
0.168248
0.187336
0.173095
-1.15689
-0.996706
-0.76644
-0.568147
-0.415064
-0.297218
-0.204947
-0.131958
-0.0736081
-0.0265308
0.0117125
0.0429551
0.0687003
0.0902717
0.108757
0.124903
0.139162
0.151801
0.162904
0.172266
0.180174
0.19094
0.210172
0.198051
-1.09616
-0.931414
-0.68853
-0.491355
-0.345683
-0.23486
-0.148729
-0.0811331
-0.0274877
0.0155056
0.0502107
0.0784185
0.10162
0.121082
0.137757
0.152286
0.165094
0.176475
0.186562
0.195219
0.202639
0.212459
0.230749
0.226714
-1.01499
-0.83742
-0.590846
-0.40027
-0.265129
-0.163768
-0.0857539
-0.0249978
0.0228648
0.0609353
0.0914265
0.116037
0.136178
0.152982
0.167272
0.179639
0.190505
0.200153
0.20874
0.216179
0.222259
0.228741
0.242497
0.26205
-0.923288
-0.703709
-0.467698
-0.294367
-0.174073
-0.0849523
-0.017036
0.0355034
0.0766086
0.10903
0.134742
0.155278
0.17189
0.185553
0.197013
0.206842
0.215417
0.222944
0.229494
0.234815
0.238264
0.241436
0.254615
0.281669
-0.81557
-0.512694
-0.312469
-0.173468
-0.0739843
-8.23785e-05
0.0559701
0.0991537
0.132729
0.158948
0.179455
0.195548
0.20827
0.218501
0.226974
0.234245
0.240623
0.246231
0.251008
0.254467
0.256148
0.259885
0.277404
0.29253
-0.592406
-0.256151
-0.130072
-0.0405539
0.0323807
0.0884856
0.131397
0.164484
0.190051
0.209731
0.224752
0.236152
0.244813
0.251574
0.257173
0.262104
0.266569
0.270588
0.273989
0.276169
0.276971
0.28153
0.30119
0.308411
1.3793
1.42107
1.45483
1.48911
1.42336
1.24139
1.3794
1.41278
1.43511
1.43473
1.35189
1.15674
1.37958
1.40276
1.41269
1.39939
1.29224
1.10253
1.37963
1.39584
1.39414
1.37002
1.25583
1.08513
1.37938
1.39164
1.38027
1.34658
1.2363
1.08569
1.37878
1.38838
1.36969
1.32866
1.2256
1.09295
1.37763
1.38479
1.361
1.31515
1.2197
1.10215
1.37579
1.38035
1.35341
1.30494
1.21665
1.11154
1.37335
1.37497
1.34659
1.29715
1.21532
1.12043
1.37046
1.36891
1.34056
1.29125
1.21506
1.12846
1.36731
1.3626
1.33546
1.28694
1.21546
1.13492
1.36408
1.35649
1.33143
1.28404
1.21636
1.14033
1.36092
1.35095
1.32855
1.28241
1.21768
1.14472
1.35796
1.34626
1.32683
1.28194
1.21942
1.14824
1.35527
1.34258
1.32617
1.28249
1.22165
1.1511
1.35288
1.33997
1.32642
1.2839
1.22446
1.15364
1.3508
1.33837
1.32735
1.28602
1.22801
1.15628
1.34905
1.3376
1.32861
1.28866
1.23252
1.15958
1.34764
1.33734
1.32977
1.29152
1.23824
1.1642
1.34659
1.33706
1.33022
1.29403
1.24522
1.17084
1.34587
1.33588
1.32905
1.29527
1.2533
1.18121
1.34532
1.33275
1.32539
1.29439
1.26288
1.20249
1.34467
1.32766
1.32013
1.29269
1.27618
1.25154
1.34405
1.32375
1.31793
1.29535
1.29673
1.3434
-0.0175854
0.00289864
0.0508091
0.0953434
0.140269
0.177604
0.207011
0.22984
0.247282
0.260321
0.26976
0.276394
0.28103
0.284511
0.287524
0.290423
0.293265
0.295952
0.298219
0.2994
0.299522
0.304298
0.324615
0.327635
0.348541
0.218543
0.211111
0.223589
0.244042
0.263947
0.280583
0.293586
0.303166
0.309683
0.313625
0.315627
0.316488
0.317028
0.317801
0.31897
0.320424
0.321963
0.323255
0.323595
0.323107
0.32776
0.348019
0.348613
0.559598
0.399604
0.352327
0.339293
0.340038
0.345081
0.350349
0.354358
0.356564
0.35689
0.355609
0.353305
0.350794
0.348809
0.347695
0.347395
0.347643
0.348163
0.348578
0.348167
0.347122
0.351486
0.371263
0.370362
0.69076
0.538672
0.471259
0.440618
0.42651
0.419502
0.41506
0.411089
0.406576
0.401194
0.395126
0.388995
0.383616
0.379547
0.376876
0.375326
0.374519
0.374128
0.373754
0.372682
0.371153
0.37515
0.394127
0.392291
0.78741
0.646637
0.570043
0.527982
0.502969
0.486439
0.473927
0.463037
0.452551
0.442047
0.431756
0.422392
0.414691
0.408961
0.405018
0.402409
0.40068
0.399479
0.398407
0.396767
0.394841
0.398433
0.416363
0.413967
0.860923
0.731109
0.651288
0.602335
0.569482
0.545626
0.526528
0.509757
0.494068
0.479101
0.465249
0.453297
0.44381
0.436797
0.431825
0.428324
0.425797
0.423888
0.42221
0.420101
0.41787
0.421046
0.437729
0.435045
0.916451
0.797377
0.717789
0.66468
0.626508
0.597146
0.572748
0.551052
0.530914
0.512192
0.495495
0.481598
0.470808
0.462832
0.457041
0.452797
0.44959
0.447075
0.444887
0.442408
0.439963
0.442724
0.458006
0.45524
0.958338
0.849344
0.771667
0.716498
0.674758
0.641299
0.612692
0.586909
0.563052
0.541307
0.522486
0.507239
0.495561
0.48688
0.480451
0.475602
0.471829
0.46881
0.466206
0.463451
0.460877
0.46323
0.476998
0.474302
0.989977
0.889978
0.814954
0.759032
0.715015
0.678529
0.6466
0.617452
0.590581
0.566549
0.546282
0.530201
0.517969
0.5088
0.501889
0.49656
0.492331
0.488905
0.485975
0.483032
0.480404
0.482355
0.494533
0.492017
1.01378
0.921505
0.849328
0.793434
0.748043
0.709353
0.674785
0.642905
0.613699
0.588088
0.566982
0.55049
0.537962
0.528485
0.521229
0.515535
0.510951
0.50721
0.504038
0.500986
0.498364
0.499922
0.510469
0.508204
1.03182
0.945625
0.876126
0.820729
0.77455
0.734275
0.697596
0.663553
0.632667
0.606134
0.584697
0.56812
0.5555
0.545863
0.538383
0.532429
0.527584
0.523612
0.520271
0.517175
0.514607
0.515781
0.524695
0.522718
1.04491
0.963569
0.89641
0.841782
0.795194
0.753755
0.715389
0.679718
0.647774
0.620894
0.599538
0.583121
0.570569
0.560896
0.553296
0.547174
0.542153
0.538024
0.53458
0.531493
0.529012
0.529814
0.53713
0.535454
1.05389
0.976267
0.911029
0.85727
0.810545
0.76821
0.728521
0.691731
0.659311
0.632566
0.611606
0.595526
0.583172
0.573567
0.565938
0.559731
0.554608
0.550388
0.546895
0.543859
0.541487
0.541937
0.547725
0.54634
1.05935
0.98438
0.92065
0.867721
0.821037
0.777994
0.737328
0.699921
0.66755
0.641331
0.620992
0.605385
0.593332
0.583882
0.576302
0.570083
0.564923
0.560668
0.557171
0.554216
0.551967
0.552092
0.55646
0.55534
1.06162
0.988347
0.925737
0.873562
0.826988
0.7834
0.742114
0.704586
0.672733
0.647348
0.627792
0.612759
0.60109
0.591868
0.584405
0.578234
0.573093
0.568851
0.565388
0.562536
0.560418
0.560257
0.563348
0.562439
1.06081
0.988429
0.926529
0.875088
0.82863
0.784677
0.743161
0.705998
0.675062
0.650751
0.632094
0.617717
0.606498
0.597566
0.590276
0.584208
0.579134
0.574945
0.571546
0.56881
0.566827
0.566441
0.568424
0.567594
1.05689
0.984716
0.923075
0.872412
0.8261
0.782026
0.740719
0.704399
0.674717
0.651658
0.633989
0.620335
0.609624
0.601032
0.593964
0.588045
0.58308
0.578978
0.575664
0.573043
0.571172
0.570599
0.571667
0.570864
1.04958
0.977069
0.915309
0.865502
0.819454
0.775606
0.735015
0.700005
0.671868
0.650194
0.633582
0.620706
0.610548
0.60234
0.595537
0.589807
0.584987
0.581003
0.577797
0.575296
0.573493
0.572691
0.573096
0.572678
1.03843
0.96504
0.903021
0.85423
0.808702
0.765562
0.726264
0.69302
0.666679
0.646493
0.630995
0.618936
0.609368
0.601578
0.595076
0.589572
0.584931
0.581093
0.578006
0.575623
0.573933
0.573029
0.572917
0.572703
1.02279
0.947814
0.885763
0.838366
0.793831
0.752047
0.714688
0.683652
0.65932
0.640705
0.62636
0.615145
0.606192
0.59885
0.592679
0.587433
0.583002
0.579348
0.576386
0.574123
0.572524
0.57158
0.571232
0.571163
1.00195
0.924163
0.862815
0.817594
0.77485
0.735272
0.700549
0.672131
0.649984
0.632992
0.619823
0.609468
0.601146
0.59427
0.588454
0.583485
0.579271
0.575766
0.572991
0.570861
0.569348
0.568433
0.568075
0.568064
0.974887
0.891617
0.833173
0.791634
0.751898
0.715573
0.684195
0.658738
0.638889
0.623539
0.611545
0.602048
0.594361
0.587966
0.582524
0.577857
0.573892
0.570603
0.56797
0.565947
0.564503
0.563685
0.563533
0.563483
0.932427
0.844477
0.795759
0.760504
0.725432
0.6935
0.666088
0.643813
0.626287
0.612547
0.6017
0.593041
0.585982
0.58007
0.575011
0.570656
0.566949
0.563871
0.561395
0.559469
0.558085
0.557431
0.557699
0.557529
0.824057
0.77632
0.750833
0.7251
0.696459
0.669873
0.646792
0.627736
0.612444
0.600228
0.590464
0.582603
0.576152
0.570716
0.566042
0.562003
0.558556
0.555689
0.553369
0.55153
0.550192
0.549765
0.55065
0.550275
)
;

boundaryField
{
    rotor
    {
        type            zeroGradient;
    }
    freestream
    {
        type            freestreamPressure;
        freestreamValue uniform 0;
        supersonic      false;
        value           nonuniform List<scalar> 
96
(
0.530954
0.516122
0.499482
0.481477
0.462145
0.441129
0.419005
0.396076
0.37257
0.34871
0.324715
0.300802
0.277187
0.25409
0.231751
0.210469
0.190668
0.173118
0.159468
0.145644
0.120661
0.100155
0.0832982
0.0685107
0.0553693
0.0437399
0.0335434
0.0247555
0.0174558
0.0116769
0.00731242
0.00420613
0.00214987
0.000888916
0.000189047
-0.000133357
-0.000216346
-0.000166931
-7.08127e-05
1.18876e-05
5.25579e-05
5.16309e-05
2.80934e-05
5.54047e-06
1.11734e-06
1.87062e-05
4.45775e-05
4.71287e-05
-1.38235e-05
-0.000159417
-0.000370121
-0.000591155
-0.000741583
-0.000726976
-0.000442319
0.000256537
0.00156866
0.00373123
0.00695542
0.0113933
0.0171711
0.0243983
0.0330653
0.0432975
0.0552587
0.0691319
0.0852869
0.104833
0.129558
0.148197
0.163896
0.183396
0.205957
0.230734
0.257092
0.284547
0.312657
0.340998
0.369155
0.39672
0.423295
0.448504
0.471999
0.493472
0.51266
0.529345
0.543349
0.554492
0.562712
0.568349
0.571014
0.570896
0.567994
0.5624
0.554266
0.543726
)
;
    }
    frontAndBack
    {
        type            empty;
    }
}


// ************************************************************************* //
