/*--------------------------------*- C++ -*----------------------------------*\
  =========                 |
  \\      /  F ield         | OpenFOAM: The Open Source CFD Toolbox
   \\    /   O peration     | Website:  https://openfoam.org
    \\  /    A nd           | Version:  11
     \\/     M anipulation  |
\*---------------------------------------------------------------------------*/
FoamFile
{
    format      ascii;
    class       volVectorField;
    location    "0.04";
    object      U;
}
// * * * * * * * * * * * * * * * * * * * * * * * * * * * * * * * * * * * * * //

dimensions      [0 1 -1 0 0 0 0];

internalField   nonuniform List<vector> 
2880
(
(-0.0196373 -0.0455872 0)
(0.0545387 -0.0580871 0)
(0.217564 -0.0414391 3.0449e-19)
(0.311313 -0.046129 0)
(0.478988 -0.0503798 -1.5796e-19)
(0.819504 -0.119969 -4.25838e-20)
(0.00874781 -0.0424373 -1.14582e-18)
(0.139835 -0.0665142 4.80562e-20)
(0.31883 -0.0471921 -3.76833e-20)
(0.443781 -0.0443401 -4.51733e-19)
(0.624652 -0.0285237 1.49702e-19)
(0.828078 -0.0683461 -6.21361e-20)
(0.0424462 -0.0408237 1.15216e-18)
(0.200752 -0.0793501 7.20381e-19)
(0.382231 -0.0667766 5.72242e-19)
(0.524601 -0.0681405 4.27132e-19)
(0.694021 -0.0672999 7.86901e-20)
(0.849125 -0.118185 1.92067e-19)
(0.0776069 -0.0421867 3.34753e-20)
(0.248842 -0.0946167 -1.45354e-20)
(0.428038 -0.0908998 -4.7282e-19)
(0.574622 -0.0977847 -5.44761e-20)
(0.727954 -0.108311 -8.00495e-20)
(0.855758 -0.158653 -1.12605e-19)
(0.110216 -0.0460893 1.03132e-18)
(0.288004 -0.110343 -1.30716e-18)
(0.462861 -0.116762 0)
(0.606976 -0.129056 4.99691e-20)
(0.744469 -0.145723 -4.18191e-20)
(0.852771 -0.188648 0)
(0.138567 -0.0520788 -1.0385e-18)
(0.319391 -0.125379 6.13536e-19)
(0.488866 -0.142504 -5.0877e-19)
(0.62783 -0.160272 0)
(0.752215 -0.180558 -7.89202e-20)
(0.846245 -0.216113 3.34529e-19)
(0.162427 -0.0596905 0)
(0.34376 -0.139512 6.53539e-19)
(0.50747 -0.167421 9.45349e-19)
(0.640542 -0.190796 0)
(0.75464 -0.21353 3.16891e-19)
(0.838763 -0.243145 6.97499e-20)
(0.181932 -0.0683284 0)
(0.361737 -0.152844 4.14751e-20)
(0.519822 -0.191284 -4.99685e-19)
(0.647275 -0.220412 0)
(0.753624 -0.245164 -7.18625e-20)
(0.831424 -0.270232 3.8911e-21)
(0.197203 -0.0773985 1.13985e-18)
(0.373876 -0.165514 -1.16335e-18)
(0.526827 -0.214057 -2.87099e-20)
(0.649476 -0.249063 9.04349e-20)
(0.7503 -0.275909 -3.77856e-19)
(0.824675 -0.29779 -4.46012e-19)
(0.20828 -0.0864099 -1.10347e-18)
(0.380708 -0.177631 5.87539e-19)
(0.529181 -0.235725 5.52212e-20)
(0.648078 -0.27678 -4.57197e-20)
(0.745412 -0.306147 2.96702e-19)
(0.818628 -0.326193 2.50033e-19)
(0.215137 -0.0950155 0)
(0.382732 -0.189246 3.53462e-20)
(0.527423 -0.256306 -2.7477e-20)
(0.643655 -0.303634 0)
(0.739319 -0.336144 -5.82032e-19)
(0.81311 -0.355595 1.83973e-19)
(0.21772 -0.10301 5.06321e-20)
(0.380442 -0.200345 5.86049e-19)
(0.521944 -0.275832 4.59892e-19)
(0.63651 -0.329666 -4.43205e-20)
(0.732126 -0.366058 2.8666e-19)
(0.808012 -0.386092 -2.98974e-19)
(0.215993 -0.110288 0)
(0.374301 -0.210835 -5.65688e-19)
(0.513029 -0.294255 -8.57822e-19)
(0.626755 -0.35488 0)
(0.723759 -0.395976 -2.80905e-19)
(0.80318 -0.417712 -5.64459e-20)
(0.210049 -0.116707 -1.09918e-18)
(0.364695 -0.220567 0)
(0.500875 -0.311451 4.79523e-19)
(0.614351 -0.379216 -4.37716e-20)
(0.714 -0.425905 2.79173e-19)
(0.798381 -0.450462 0)
(0.200157 -0.121935 1.10007e-18)
(0.351944 -0.229246 5.91992e-19)
(0.485603 -0.327145 -4.32062e-19)
(0.599128 -0.402488 -4.12719e-20)
(0.702496 -0.455789 3.58604e-20)
(0.793297 -0.484335 0)
(0.186728 -0.125377 -5.05482e-19)
(0.336377 -0.236269 -6.56887e-19)
(0.467279 -0.340814 6.81135e-19)
(0.580796 -0.424314 1.72479e-19)
(0.688729 -0.485482 -1.6827e-19)
(0.787481 -0.519305 2.89238e-20)
(0.170321 -0.125973 5.85713e-19)
(0.318231 -0.240663 -9.62919e-21)
(0.445863 -0.351626 -1.94587e-19)
(0.558898 -0.44408 -1.76021e-19)
(0.671989 -0.514617 -1.63656e-20)
(0.780283 -0.555383 0)
(0.15162 -0.122072 0)
(0.29753 -0.241072 0)
(0.421121 -0.35843 -1.28518e-19)
(0.532746 -0.460914 1.14834e-20)
(0.651302 -0.542545 1.53711e-19)
(0.770751 -0.592669 -1.41346e-20)
(0.131309 -0.111553 -9.01943e-21)
(0.273984 -0.235813 5.13727e-21)
(0.392577 -0.359787 5.86482e-20)
(0.501365 -0.473678 0)
(0.6253 -0.568351 -3.45926e-20)
(0.757468 -0.631221 0)
(0.109913 -0.0924732 0)
(0.246898 -0.223109 0)
(0.359437 -0.354185 6.57647e-20)
(0.463441 -0.481096 -3.11424e-21)
(0.59212 -0.590741 2.69761e-20)
(0.738317 -0.671007 0)
(0.0877703 -0.06432 0)
(0.21544 -0.201449 9.20228e-20)
(0.32079 -0.340249 -2.03127e-21)
(0.417667 -0.481872 4.66683e-21)
(0.549397 -0.607657 6.85391e-21)
(0.710391 -0.711926 0)
(0.0656723 -0.0297556 2.86339e-19)
(0.17957 -0.169535 -9.28308e-20)
(0.276475 -0.316455 9.01675e-21)
(0.363841 -0.474854 -7.36477e-21)
(0.494516 -0.614818 0)
(0.669931 -0.756156 0)
(0.0480119 0.004107 -3.07276e-19)
(0.13993 -0.124438 -2.7784e-20)
(0.227602 -0.279265 3.61783e-19)
(0.302582 -0.45812 -3.02498e-20)
(0.41732 -0.602849 2.57852e-20)
(0.606599 -0.818781 0)
(0.0342901 0.0369257 -6.49382e-19)
(0.0916812 -0.0555695 4.94543e-19)
(0.162904 -0.21522 3.91357e-21)
(0.228253 -0.425168 0)
(0.354736 -0.521944 0)
(0.4893 -0.962303 0)
(0.821556 -0.3401 -3.00015e-19)
(0.834765 -0.291731 6.87409e-20)
(0.84882 -0.243619 -1.00824e-19)
(0.867163 -0.202677 -1.68454e-19)
(0.883497 -0.170169 7.17712e-20)
(0.899044 -0.145199 5.97993e-20)
(0.913697 -0.126433 -1.6319e-19)
(0.92742 -0.112193 9.76901e-20)
(0.940091 -0.100942 -1.88545e-21)
(0.951546 -0.0914982 -1.6568e-19)
(0.961697 -0.0830762 -7.79421e-20)
(0.97051 -0.0752067 -7.39389e-20)
(0.977997 -0.0676467 -7.05832e-20)
(0.984214 -0.0603122 0)
(0.989255 -0.0532185 -1.26928e-19)
(0.993237 -0.0464202 3.70664e-19)
(0.996284 -0.0399626 -1.19084e-19)
(0.998513 -0.0338579 1.1394e-19)
(1.00003 -0.0280829 -1.10076e-19)
(1.00096 -0.0225817 1.58004e-19)
(1.00137 -0.017282 -2.73376e-22)
(1.00113 -0.0121835 -3.4528e-19)
(0.999764 -0.00748427 9.55534e-20)
(0.997826 -0.00324033 -1.68751e-19)
(0.885063 -0.28389 8.67174e-20)
(0.879893 -0.285588 1.55296e-19)
(0.879703 -0.247881 0)
(0.888978 -0.211246 0)
(0.900406 -0.180548 -6.5511e-20)
(0.912965 -0.15633 -5.6165e-20)
(0.925657 -0.137785 2.44066e-21)
(0.938005 -0.123498 1.97481e-21)
(0.949598 -0.112021 8.70848e-20)
(0.960145 -0.102211 0)
(0.969485 -0.0932937 -1.07567e-21)
(0.977544 -0.0848086 1.42816e-19)
(0.984312 -0.0765262 1.37271e-19)
(0.989838 -0.0683851 0)
(0.994212 -0.0604302 -6.07338e-20)
(0.997549 -0.0527491 -1.81511e-19)
(0.999972 -0.0454178 2.33401e-19)
(1.0016 -0.0384722 -3.34495e-19)
(1.00253 -0.0319013 0)
(1.00289 -0.0256468 2.0704e-19)
(1.00277 -0.0196288 -9.90801e-20)
(1.00193 -0.0138901 -4.83275e-19)
(0.999657 -0.00876684 5.16742e-19)
(0.996762 -0.00425322 -1.69653e-19)
(0.905824 -0.25388 0)
(0.903163 -0.274003 0)
(0.900974 -0.248548 3.17481e-19)
(0.906489 -0.21741 0)
(0.915238 -0.189316 0)
(0.925884 -0.166268 1.1134e-19)
(0.937231 -0.148164 9.65475e-20)
(0.948549 -0.133934 -1.80515e-19)
(0.959271 -0.122303 0)
(0.969041 -0.112197 -1.55632e-19)
(0.977654 -0.102868 1.44161e-19)
(0.98501 -0.0938634 -2.39187e-21)
(0.991089 -0.0849609 -1.33734e-19)
(0.995932 -0.0761116 1.27135e-19)
(0.999629 -0.0673816 1.03589e-21)
(1.0023 -0.0588861 1.16281e-19)
(1.00406 -0.0507324 1.14587e-19)
(1.00503 -0.0429835 1.10281e-19)
(1.00531 -0.0356458 -1.03743e-19)
(1.00506 -0.0286608 -9.99889e-20)
(1.00434 -0.0219422 -1.93181e-19)
(1.00282 -0.0155886 2.84878e-19)
(0.999495 -0.0101117 -1.85752e-19)
(0.995607 -0.00557078 1.66299e-19)
(0.909187 -0.246316 -3.01039e-19)
(0.914053 -0.26723 -8.13128e-20)
(0.915085 -0.249593 -2.36813e-19)
(0.920207 -0.223172 -3.34857e-19)
(0.928074 -0.197556 0)
(0.937827 -0.175672 2.13808e-19)
(0.948405 -0.157978 -2.97649e-19)
(0.959008 -0.143771 6.26178e-19)
(0.969054 -0.131969 -1.65929e-19)
(0.978175 -0.121584 1.51932e-19)
(0.986149 -0.111894 -2.8971e-19)
(0.992864 -0.102447 1.35191e-19)
(0.998292 -0.0930161 -1.29962e-19)
(1.00247 -0.0835534 1.22181e-19)
(1.00549 -0.0741345 -1.17357e-19)
(1.00746 -0.0648953 2.25314e-19)
(1.00853 -0.055972 -5.49402e-19)
(1.00879 -0.0474577 2.12636e-19)
(1.00837 -0.0393796 1.03538e-19)
(1.00741 -0.0316788 9.9832e-20)
(1.00603 -0.0242545 1.90211e-19)
(1.00376 -0.0172568 -3.71054e-19)
(0.999285 -0.0114307 2.64671e-19)
(0.994579 -0.00729427 -7.97574e-20)
(0.905928 -0.249353 3.41422e-19)
(0.918596 -0.266768 2.33418e-19)
(0.924646 -0.252925 4.3134e-19)
(0.931108 -0.229825 -5.49085e-20)
(0.939341 -0.206127 1.16169e-19)
(0.949003 -0.185104 -3.21957e-19)
(0.959249 -0.167613 0)
(0.969395 -0.153274 -1.77949e-19)
(0.978932 -0.141206 0)
(0.987518 -0.130507 -1.46601e-19)
(0.994939 -0.120471 1.57645e-21)
(1.00108 -0.110634 -1.32466e-19)
(1.0059 -0.100753 -1.25084e-19)
(1.00945 -0.0907642 -1.34473e-21)
(1.01179 -0.0807408 1.16981e-19)
(1.01306 -0.0708296 -3.33862e-19)
(1.01338 -0.0611913 3.22432e-19)
(1.01289 -0.0519513 1.014e-19)
(1.01169 -0.0431626 0)
(1.00997 -0.0347689 0)
(1.00784 -0.0266513 2.76298e-19)
(1.00481 -0.0190235 -3.58385e-19)
(0.999181 -0.0129636 -3.44182e-19)
(0.993658 -0.009358 3.15844e-19)
(0.899682 -0.258994 2.58108e-19)
(0.920027 -0.271331 -2.33799e-19)
(0.93139 -0.25921 -2.83656e-19)
(0.940144 -0.238108 1.30535e-19)
(0.94957 -0.21562 2.26223e-19)
(0.959656 -0.195025 -1.03509e-19)
(0.969881 -0.177415 -1.83827e-19)
(0.979766 -0.162703 -1.69826e-19)
(0.988925 -0.150208 1.56257e-19)
(0.997075 -0.139107 2.93737e-19)
(1.00402 -0.1287 2.84007e-21)
(1.00965 -0.118498 -1.24591e-19)
(1.01393 -0.108224 -1.20226e-19)
(1.01687 -0.0977867 2.32951e-19)
(1.01856 -0.0872394 1.09607e-19)
(1.01911 -0.076728 0)
(1.01867 -0.066431 1.01597e-19)
(1.01738 -0.0565057 -3.11963e-21)
(1.01536 -0.0470372 2.86264e-19)
(1.01281 -0.0379797 -9.44833e-20)
(1.00989 -0.0292079 0)
(1.00605 -0.0210403 3.50629e-19)
(0.999287 -0.0149635 2.34108e-21)
(0.992573 -0.0116923 -4.32175e-19)
(0.892757 -0.273894 -3.87843e-19)
(0.920563 -0.280971 0)
(0.93651 -0.268644 2.63922e-19)
(0.948146 -0.248419 -1.19821e-19)
(0.959216 -0.226448 1.10232e-19)
(0.970049 -0.205802 -1.95994e-19)
(0.980466 -0.187701 -1.74375e-19)
(0.990225 -0.172318 1.70109e-19)
(0.999099 -0.159173 -1.59728e-19)
(1.00689 -0.147529 -1.38775e-19)
(1.01343 -0.136683 1.29242e-19)
(1.01861 -0.126107 1.25884e-19)
(1.02239 -0.115476 0)
(1.02478 -0.104653 0)
(1.02584 -0.0936582 -1.0922e-19)
(1.02569 -0.082621 0)
(1.02447 -0.0717274 -1.01208e-19)
(1.02235 -0.0611622 -1.91983e-19)
(1.01946 -0.0510448 -9.42167e-20)
(1.01602 -0.0413453 -9.0939e-20)
(1.01224 -0.031938 3.46124e-19)
(1.00749 -0.0232629 -3.35601e-19)
(0.999505 -0.0172564 -3.25588e-19)
(0.991535 -0.0144054 2.96969e-19)
(0.887059 -0.292324 -2.09271e-19)
(0.920677 -0.294526 2.15357e-19)
(0.940996 -0.281225 -2.62677e-19)
(0.955773 -0.260965 1.15469e-19)
(0.968714 -0.238875 2.0606e-19)
(0.98048 -0.217713 1.00085e-19)
(0.991219 -0.198748 -1.69271e-19)
(1.00093 -0.182366 3.29435e-19)
(1.00957 -0.1683 -1.52057e-19)
(1.01704 -0.155918 -1.31542e-19)
(1.02322 -0.144517 -1.74334e-21)
(1.028 -0.13352 -1.17324e-19)
(1.03134 -0.122541 0)
(1.03321 -0.111381 0)
(1.03368 -0.100009 0)
(1.03284 -0.0885248 -9.74398e-20)
(1.03085 -0.0771064 0)
(1.02787 -0.0659581 1.84653e-19)
(1.02406 -0.055232 -9.04935e-20)
(1.01968 -0.0449182 1.72543e-19)
(1.01494 -0.0348952 -2.51775e-19)
(1.0092 -0.0257342 7.31051e-19)
(0.999948 -0.019862 3.13769e-21)
(0.990657 -0.0175402 -3.65206e-19)
(0.882687 -0.313697 3.69719e-19)
(0.921147 -0.311702 -4.28401e-19)
(0.94568 -0.296784 -6.01821e-20)
(0.963619 -0.275774 1.13229e-19)
(0.978503 -0.253018 -2.08202e-19)
(0.991294 -0.230935 -9.2952e-20)
(1.00242 -0.210767 2.59366e-19)
(1.01212 -0.193063 3.15939e-19)
(1.02053 -0.177775 -2.87962e-19)
(1.02767 -0.16441 3.34529e-21)
(1.03349 -0.152289 1.24329e-19)
(1.0379 -0.140785 3.48129e-19)
(1.04082 -0.129435 -2.18555e-19)
(1.04223 -0.117967 -1.01413e-19)
(1.04214 -0.106282 0)
(1.04065 -0.0944314 1.90346e-19)
(1.03789 -0.0825706 0)
(1.03403 -0.0709092 -2.67169e-19)
(1.02926 -0.0596259 -8.66182e-20)
(1.02386 -0.0487325 2.46663e-19)
(1.01807 -0.0381156 -4.01643e-19)
(1.01125 -0.0284836 -1.61022e-19)
(1.0007 -0.0227932 3.76756e-19)
(0.990026 -0.0211188 0)
(0.879496 -0.337657 0)
(0.922588 -0.332009 6.73257e-20)
(0.951206 -0.315049 -6.10627e-20)
(0.972221 -0.292734 2.10283e-19)
(0.989032 -0.268852 -9.70869e-20)
(1.00287 -0.245511 2.66082e-19)
(1.0144 -0.223867 -3.34167e-19)
(1.02407 -0.204561 1.53624e-19)
(1.03221 -0.187749 2.83596e-19)
(1.03897 -0.173123 -2.56834e-19)
(1.0444 -0.160072 0)
(1.04841 -0.147931 -1.09033e-19)
(1.05093 -0.136155 -1.02438e-19)
(1.05189 -0.124384 3.96606e-19)
(1.05128 -0.112439 -1.90032e-19)
(1.04917 -0.100304 -9.29467e-20)
(1.04566 -0.0880931 -2.61089e-19)
(1.04092 -0.076005 8.67582e-20)
(1.03516 -0.0642337 -2.43644e-19)
(1.02867 -0.0528096 4.71091e-19)
(1.02174 -0.0416302 -7.4612e-20)
(1.01373 -0.0315439 -2.21758e-19)
(1.00185 -0.0260649 -7.51287e-20)
(0.98973 -0.0251534 0)
(0.877609 -0.363992 3.49308e-19)
(0.925431 -0.355012 -6.46624e-20)
(0.958084 -0.335688 5.88083e-20)
(0.982062 -0.311612 -2.09852e-19)
(1.00074 -0.286217 0)
(1.01561 -0.261344 -8.70309e-21)
(1.02753 -0.238025 0)
(1.03713 -0.216909 -1.46128e-19)
(1.04491 -0.198312 1.36377e-19)
(1.05119 -0.18214 2.50294e-19)
(1.05611 -0.16791 1.12934e-19)
(1.05967 -0.154961 1.09885e-19)
(1.06175 -0.14267 4.63712e-21)
(1.06227 -0.130578 9.25174e-20)
(1.06117 -0.118411 -1.81518e-19)
(1.05846 -0.106071 -1.73491e-19)
(1.05423 -0.0936123 8.59848e-20)
(1.04862 -0.0812024 4.05866e-19)
(1.04185 -0.0690346 1.55756e-19)
(1.03421 -0.0571509 -3.0248e-19)
(1.02604 -0.0454584 1.46034e-19)
(1.01675 -0.0349421 -2.91247e-19)
(1.00351 -0.0296875 3.48735e-19)
(0.989864 -0.0296493 2.09944e-19)
(0.877115 -0.392498 -2.66734e-19)
(0.930033 -0.380355 0)
(0.966747 -0.358344 0)
(0.993586 -0.33209 0)
(1.01405 -0.30483 0)
(1.02989 -0.278198 -8.63008e-20)
(1.04217 -0.253069 -7.58925e-20)
(1.05165 -0.230025 2.75799e-19)
(1.05896 -0.209463 -1.30714e-19)
(1.0646 -0.191491 -1.2357e-19)
(1.06887 -0.17582 -2.25294e-19)
(1.07182 -0.161854 3.00225e-21)
(1.07339 -0.148923 1.92952e-19)
(1.07343 -0.136464 -8.864e-20)
(1.07183 -0.124096 -8.42567e-20)
(1.06856 -0.111625 0)
(1.06365 -0.0990274 -7.76917e-20)
(1.0572 -0.0864187 -7.50612e-20)
(1.04942 -0.0739724 -3.48755e-21)
(1.04061 -0.0617293 7.3616e-20)
(1.03112 -0.0495997 -2.82655e-19)
(1.02043 -0.0386934 2.05103e-19)
(1.00579 -0.0336628 -1.36498e-19)
(0.990528 -0.0346049 2.58111e-19)
(0.878102 -0.42302 3.86382e-20)
(0.936712 -0.407713 0)
(0.977587 -0.382634 0)
(1.0072 -0.35377 -9.04813e-20)
(1.02934 -0.324304 1.66597e-19)
(1.04607 -0.295706 -5.45212e-21)
(1.05865 -0.26868 7.2239e-22)
(1.06795 -0.243677 5.83536e-20)
(1.07469 -0.221074 0)
(1.07952 -0.201126 1.1188e-19)
(1.08292 -0.183769 0)
(1.08508 -0.168558 1.04334e-19)
(1.08597 -0.154827 -1.87598e-19)
(1.08544 -0.141925 8.90657e-20)
(1.08333 -0.129358 4.278e-21)
(1.07951 -0.116821 0)
(1.07395 -0.104195 1.51098e-19)
(1.06671 -0.0915266 2.20581e-19)
(1.05795 -0.0789472 -1.44889e-19)
(1.04795 -0.0664796 -1.36324e-19)
(1.03709 -0.0540254 6.48174e-20)
(1.02492 -0.0427942 1.29855e-19)
(1.00881 -0.037978 1.30837e-19)
(0.991835 -0.040009 1.18277e-19)
(0.880652 -0.455428 0)
(0.945774 -0.436764 1.67296e-19)
(0.990978 -0.40813 5.06106e-20)
(1.02327 -0.37618 0)
(1.04694 -0.344153 -7.18252e-20)
(1.06445 -0.313385 -1.18491e-20)
(1.07725 -0.284401 -5.26683e-21)
(1.08631 -0.257471 -6.62709e-20)
(1.0924 -0.232866 2.29322e-19)
(1.09626 -0.210882 -2.2249e-19)
(1.09854 -0.191661 -3.0052e-21)
(1.09964 -0.174981 1.92829e-19)
(1.09964 -0.160265 8.58189e-20)
(1.09839 -0.146816 1.63119e-19)
(1.09567 -0.134026 2.05905e-21)
(1.09129 -0.121471 7.24889e-20)
(1.08513 -0.108927 -1.46922e-19)
(1.07715 -0.0963493 2.05461e-19)
(1.06747 -0.0838079 -6.86271e-20)
(1.05633 -0.071289 0)
(1.04407 -0.0586673 -6.10647e-20)
(1.03035 -0.0472122 -3.13846e-21)
(1.01274 -0.0425961 1.24484e-19)
(0.993901 -0.0458358 -2.37738e-19)
(0.884837 -0.489625 -1.62144e-19)
(0.957531 -0.467173 -3.87361e-20)
(1.00728 -0.434342 -9.11832e-20)
(1.04213 -0.398765 1.54409e-19)
(1.06715 -0.363798 4.16411e-20)
(1.08526 -0.330652 -7.03437e-20)
(1.09816 -0.299655 -1.27261e-19)
(1.10691 -0.27087 5.75941e-20)
(1.1123 -0.244393 -1.67518e-19)
(1.11508 -0.220451 0)
(1.11602 -0.199304 -5.32902e-20)
(1.11575 -0.180977 -9.02253e-20)
(1.11455 -0.165084 -2.51851e-21)
(1.11235 -0.150954 -8.12041e-20)
(1.10889 -0.137891 0)
(1.10389 -0.12535 6.85338e-20)
(1.09713 -0.112987 -1.72049e-19)
(1.08849 -0.100655 -6.70875e-20)
(1.07797 -0.0883433 0)
(1.06576 -0.0759841 -1.2212e-19)
(1.05214 -0.063404 6.05604e-20)
(1.03685 -0.0518725 -6.38681e-20)
(1.01772 -0.0474367 1.77387e-19)
(0.996845 -0.0520343 0)
(0.890723 -0.525538 1.3068e-19)
(0.972323 -0.498562 1.44263e-20)
(1.02686 -0.460695 -2.16365e-20)
(1.0641 -0.420868 -7.50641e-20)
(1.09019 -0.382559 0)
(1.10865 -0.346823 5.57254e-20)
(1.12148 -0.313765 5.5525e-20)
(1.12984 -0.283216 -5.25442e-20)
(1.13448 -0.255057 0)
(1.13613 -0.229358 4.78567e-20)
(1.13559 -0.206372 -9.21571e-20)
(1.13365 -0.186322 0)
(1.13089 -0.169086 4.13957e-20)
(1.12742 -0.154123 3.62174e-20)
(1.12299 -0.140708 -7.04143e-20)
(1.11726 -0.128184 0)
(1.10988 -0.116083 -1.91702e-21)
(1.10062 -0.104145 -2.98785e-20)
(1.08937 -0.0922682 -1.47989e-19)
(1.07621 -0.0803137 2.30858e-19)
(1.06134 -0.0680405 -1.12228e-19)
(1.04454 -0.0566357 -8.68923e-20)
(1.02391 -0.0523419 2.24125e-19)
(1.00078 -0.0585068 -1.09447e-19)
(0.898392 -0.563109 0)
(0.990534 -0.53048 -1.78463e-19)
(1.05007 -0.486483 0)
(1.08941 -0.441706 -3.09352e-20)
(1.11619 -0.399644 -2.35283e-20)
(1.13468 -0.361118 -5.56682e-20)
(1.1472 -0.325963 -4.61722e-20)
(1.15503 -0.293753 0)
(1.15891 -0.264133 0)
(1.15945 -0.236963 0)
(1.15736 -0.212378 -4.20698e-20)
(1.15356 -0.190677 7.96604e-20)
(1.14887 -0.172006 1.55243e-21)
(1.14373 -0.156063 1.54846e-22)
(1.13801 -0.142187 -1.33307e-19)
(1.13134 -0.129646 6.30075e-20)
(1.12326 -0.117854 -1.89775e-21)
(1.1134 -0.106436 5.79943e-20)
(1.10151 -0.0951919 1.64766e-21)
(1.08753 -0.0839106 0)
(1.07157 -0.0722702 1.06169e-19)
(1.05345 -0.0612595 -1.55835e-19)
(1.03145 -0.0570017 0)
(1.00576 -0.0650556 0)
(0.907955 -0.602247 3.79488e-20)
(1.0126 -0.562334 7.83541e-20)
(1.07724 -0.510817 -1.66418e-20)
(1.11825 -0.460332 -2.38634e-20)
(1.1452 -0.414132 3.06647e-20)
(1.16327 -0.372661 0)
(1.17517 -0.335408 2.64287e-20)
(1.18231 -0.301659 0)
(1.18538 -0.270811 -1.88468e-20)
(1.18487 -0.242499 0)
(1.18132 -0.21667 3.84882e-20)
(1.17558 -0.193561 -3.64497e-20)
(1.16868 -0.173491 3.5307e-20)
(1.16143 -0.156462 -1.44731e-20)
(1.15402 -0.141993 0)
(1.14611 -0.129352 4.53766e-20)
(1.13715 -0.117856 -8.59369e-20)
(1.12663 -0.107022 -9.60821e-20)
(1.11415 -0.0965573 7.98903e-20)
(1.09948 -0.0862038 -1.24684e-20)
(1.08263 -0.0755795 0)
(1.06345 -0.0653082 2.52693e-20)
(1.04039 -0.0607551 -5.16765e-20)
(1.01173 -0.0711965 3.76119e-20)
(0.919565 -0.642856 -5.10237e-20)
(1.03905 -0.593284 3.56149e-20)
(1.10865 -0.532553 -1.04017e-20)
(1.15066 -0.475596 2.4017e-20)
(1.17711 -0.424957 1.19769e-20)
(1.19421 -0.380476 9.13572e-21)
(1.2051 -0.341197 1.97126e-20)
(1.21132 -0.306071 1.80553e-20)
(1.21352 -0.274241 2.75743e-20)
(1.21203 -0.245126 -2.50248e-20)
(1.20719 -0.218465 0)
(1.19964 -0.194336 1.68893e-20)
(1.19043 -0.173078 -1.59815e-20)
(1.18071 -0.15495 1.61909e-20)
(1.17113 -0.139758 0)
(1.16158 -0.126875 -1.36401e-20)
(1.15148 -0.115569 2.6582e-20)
(1.14017 -0.105259 1.32612e-20)
(1.12706 -0.0955778 2.49224e-20)
(1.11176 -0.0862738 -1.75415e-20)
(1.0941 -0.0770045 0)
(1.07399 -0.0678482 -4.16221e-20)
(1.05029 -0.0621447 4.63458e-20)
(1.01941 -0.0755532 1.27117e-20)
(0.933493 -0.684866 0)
(1.07042 -0.622136 2.60977e-21)
(1.14445 -0.55019 7.41413e-21)
(1.18652 -0.486086 0)
(1.21161 -0.430887 0)
(1.22708 -0.383492 7.30443e-22)
(1.23652 -0.342376 0)
(1.24155 -0.306112 4.5377e-21)
(1.24278 -0.273579 -8.63523e-21)
(1.24039 -0.244 4.43723e-21)
(1.23448 -0.216927 0)
(1.22541 -0.192249 -8.67466e-22)
(1.21405 -0.170186 7.43136e-21)
(1.2017 -0.151111 -1.42349e-20)
(1.18953 -0.135127 5.96048e-21)
(1.17789 -0.121827 7.84449e-22)
(1.16631 -0.110507 7.52942e-22)
(1.15401 -0.100509 0)
(1.1402 -0.0913833 -7.05171e-22)
(1.12425 -0.0828783 5.84898e-21)
(1.1057 -0.0747463 1.11721e-20)
(1.08423 -0.0668156 -1.71412e-20)
(1.05952 -0.0603307 0)
(1.03096 -0.0738556 -5.35402e-21)
(0.950548 -0.728458 0)
(1.10724 -0.647302 0)
(1.18453 -0.561773 7.91067e-22)
(1.22536 -0.490098 0)
(1.24809 -0.430523 0)
(1.26122 -0.380552 -7.35077e-22)
(1.26872 -0.337968 0)
(1.27229 -0.300919 -2.26411e-21)
(1.27245 -0.268025 6.74698e-22)
(1.26922 -0.238336 1.46536e-21)
(1.26248 -0.21126 0)
(1.25229 -0.186521 8.69447e-22)
(1.23918 -0.164167 0)
(1.22438 -0.144511 0)
(1.20941 -0.127848 8.27999e-22)
(1.19527 -0.114052 5.36243e-21)
(1.18185 -0.102556 -6.53248e-21)
(1.16836 -0.0926846 -5.37946e-21)
(1.1538 -0.0839003 7.05162e-22)
(1.13724 -0.0758137 0)
(1.11784 -0.0681057 0)
(1.09492 -0.0613081 5.97231e-21)
(1.06857 -0.0592396 -5.16086e-21)
(1.04081 -0.0688468 -6.92006e-22)
(0.973775 -0.774427 0)
(1.14999 -0.666861 -1.49767e-20)
(1.22837 -0.564854 8.84144e-22)
(1.26634 -0.485649 0)
(1.28557 -0.422324 0)
(1.29561 -0.370453 -1.42361e-21)
(1.30074 -0.327004 3.81043e-21)
(1.3026 -0.289678 -1.49916e-21)
(1.30161 -0.256856 -3.95043e-21)
(1.29761 -0.227452 0)
(1.29027 -0.200779 -1.08791e-20)
(1.27937 -0.176459 2.17259e-20)
(1.26509 -0.154386 7.65743e-22)
(1.24832 -0.13473 -1.10439e-20)
(1.23069 -0.11781 0)
(1.21376 -0.103752 -1.04426e-20)
(1.19809 -0.0922424 -2.18137e-20)
(1.1831 -0.0827078 1.60289e-20)
(1.16767 -0.0745995 0)
(1.15059 -0.0674543 0)
(1.13073 -0.0609288 9.02197e-21)
(1.10724 -0.0559696 1.05883e-20)
(1.0801 -0.0570677 -3.81209e-20)
(1.0497 -0.065401 1.87486e-20)
(1.01227 -0.827065 5.04981e-21)
(1.19701 -0.679815 1.05776e-20)
(1.27377 -0.556956 -7.20055e-21)
(1.30764 -0.470637 6.40762e-21)
(1.32246 -0.404684 -1.80687e-20)
(1.32884 -0.351998 1.44074e-21)
(1.33126 -0.308572 -2.44017e-21)
(1.33128 -0.271666 5.70781e-21)
(1.32913 -0.239461 -1.44818e-20)
(1.32446 -0.210796 9.64664e-21)
(1.31674 -0.184949 -6.34915e-21)
(1.30553 -0.161502 -1.55596e-20)
(1.29067 -0.140269 1.96502e-20)
(1.27265 -0.121279 -3.66814e-20)
(1.25284 -0.104751 0)
(1.23309 -0.0909174 -7.88504e-21)
(1.21472 -0.0797295 1.81922e-20)
(1.19768 -0.0708065 -7.74389e-21)
(1.18094 -0.0636511 0)
(1.16308 -0.0577693 -1.66168e-20)
(1.14267 -0.0528126 -8.97373e-21)
(1.11874 -0.0498133 8.92794e-21)
(1.09111 -0.0531008 1.7058e-20)
(1.05904 -0.0618599 -1.53315e-20)
(1.07359 -0.938454 0)
(1.26471 -0.692239 -1.07186e-19)
(1.32439 -0.537441 -1.93022e-20)
(1.34839 -0.443137 0)
(1.35692 -0.376139 -2.6128e-20)
(1.35909 -0.324151 9.64941e-21)
(1.35868 -0.281926 1.07404e-20)
(1.35688 -0.246317 -1.38771e-21)
(1.35367 -0.215389 6.30104e-21)
(1.3485 -0.187977 -1.7072e-20)
(1.34065 -0.163396 4.69643e-21)
(1.32949 -0.141258 4.15251e-21)
(1.31459 -0.12137 -1.32651e-20)
(1.29608 -0.103682 1.79557e-20)
(1.27487 -0.0882811 1.54636e-20)
(1.25271 -0.0753518 -9.9548e-22)
(1.23146 -0.0649895 1.50048e-20)
(1.21188 -0.0570231 1.79736e-20)
(1.19335 -0.0510617 -3.30729e-20)
(1.17441 -0.0466204 6.48508e-20)
(1.1534 -0.0433623 -3.01452e-20)
(1.12919 -0.0423042 7.83202e-20)
(1.10146 -0.0474389 -3.21851e-20)
(1.06866 -0.0572857 -4.52139e-20)
(0.0465448 -0.075911 6.27126e-19)
(0.0832849 -0.180788 3.02993e-20)
(0.129612 -0.306249 -3.96682e-19)
(0.16412 -0.381561 -9.12865e-20)
(0.208406 -0.496574 3.92469e-19)
(0.176483 -0.416064 3.01692e-19)
(0.0410216 -0.123765 1.28055e-18)
(0.0711048 -0.227037 -5.78929e-20)
(0.107131 -0.319991 4.42003e-20)
(0.131985 -0.377092 6.47999e-19)
(0.172408 -0.444284 -2.91342e-19)
(0.180801 -0.380108 1.30379e-19)
(0.0236547 -0.14917 -1.29021e-18)
(0.0539438 -0.238895 -8.10892e-19)
(0.0828263 -0.308302 -6.67608e-19)
(0.103261 -0.34808 -5.88822e-19)
(0.135955 -0.380483 -1.41971e-19)
(0.15808 -0.333178 -4.02848e-19)
(-0.000359455 -0.166161 -3.868e-20)
(0.0342244 -0.238509 1.64581e-20)
(0.0576831 -0.289141 5.32516e-19)
(0.0745451 -0.313449 6.69517e-20)
(0.1037 -0.322558 1.34276e-19)
(0.1414 -0.279601 2.63122e-19)
(-0.0249435 -0.175077 -1.16964e-18)
(0.0134836 -0.230593 1.46303e-18)
(0.0326649 -0.26548 0)
(0.0467998 -0.276288 -6.75047e-20)
(0.0727759 -0.268414 6.06208e-20)
(0.116731 -0.224344 0)
(-0.0488799 -0.179486 1.17934e-18)
(-0.00754529 -0.218166 -6.87265e-19)
(0.0081367 -0.239328 5.56259e-19)
(0.0198963 -0.238286 0)
(0.0426648 -0.217477 1.2213e-19)
(0.0864091 -0.169198 -5.81651e-19)
(-0.0706611 -0.181539 0)
(-0.0283841 -0.20348 -7.33356e-19)
(-0.0156798 -0.21238 -1.03079e-18)
(-0.0062301 -0.201017 0)
(0.0134454 -0.169909 -4.57728e-19)
(0.0539654 -0.116746 -1.05852e-19)
(-0.0898182 -0.181708 0)
(-0.0484671 -0.188122 -4.75356e-20)
(-0.0386201 -0.185992 5.45343e-19)
(-0.0312601 -0.165469 0)
(-0.0146524 -0.12643 1.16904e-19)
(0.0215609 -0.0691894 1.07367e-20)
(-0.105759 -0.1806 -1.30352e-18)
(-0.0673428 -0.172935 1.28809e-18)
(-0.0603352 -0.160922 3.05844e-20)
(-0.055018 -0.132505 -1.14285e-19)
(-0.0412049 -0.0875962 5.31572e-19)
(-0.00945083 -0.0277496 7.11314e-19)
(-0.117976 -0.178346 1.26268e-18)
(-0.084867 -0.158315 -6.47013e-19)
(-0.0806111 -0.137633 -6.204e-20)
(-0.0772634 -0.102707 5.3588e-20)
(-0.0659261 -0.0537398 -4.04691e-19)
(-0.0383964 0.00697091 -3.90874e-19)
(-0.126684 -0.17467 0)
(-0.100897 -0.144486 -3.91698e-20)
(-0.0993094 -0.116432 2.93508e-20)
(-0.0978335 -0.0763103 0)
(-0.0887009 -0.0249256 7.84885e-19)
(-0.0649617 0.0349281 -2.72098e-19)
(-0.132261 -0.169228 -5.8036e-20)
(-0.115325 -0.131541 -6.27005e-19)
(-0.116352 -0.0974295 -4.99833e-19)
(-0.116662 -0.0533579 5.12123e-20)
(-0.10949 -0.0010033 -3.81789e-19)
(-0.0890222 0.0565281 4.40872e-19)
(-0.135225 -0.161903 0)
(-0.128065 -0.119467 6.01882e-19)
(-0.131725 -0.0806129 9.30583e-19)
(-0.133746 -0.0337423 0)
(-0.128326 0.0183316 3.64862e-19)
(-0.110636 0.0723433 8.26053e-20)
(-0.136009 -0.152567 1.21649e-18)
(-0.139111 -0.108238 0)
(-0.145458 -0.0658868 -5.22854e-19)
(-0.149129 -0.0172547 4.9866e-20)
(-0.145283 0.0334826 -3.61211e-19)
(-0.129935 0.0830194 0)
(-0.135042 -0.141207 -1.21842e-18)
(-0.148491 -0.0977683 -5.99104e-19)
(-0.157615 -0.053093 4.63335e-19)
(-0.16289 -0.00362168 4.98228e-20)
(-0.160461 0.0449038 -4.42338e-20)
(-0.147059 0.0892186 0)
(-0.13269 -0.127901 5.4795e-19)
(-0.156256 -0.0879156 6.64397e-19)
(-0.168291 -0.0420288 -7.34607e-19)
(-0.175125 0.00746356 -1.99834e-19)
(-0.17396 0.0530639 2.1771e-19)
(-0.162136 0.0915824 -3.9084e-20)
(-0.12922 -0.112822 -6.36647e-19)
(-0.16247 -0.0784922 9.46478e-21)
(-0.177614 -0.0324648 2.10565e-19)
(-0.185941 0.0163144 2.04339e-19)
(-0.185874 0.0584215 2.05599e-20)
(-0.17527 0.0907162 0)
(-0.124751 -0.0962071 0)
(-0.167189 -0.069263 0)
(-0.185729 -0.024158 1.39016e-19)
(-0.195439 0.023231 -1.30219e-20)
(-0.196276 0.0614128 -2.02372e-19)
(-0.186543 0.0871924 1.96159e-20)
(-0.11923 -0.078327 9.6639e-21)
(-0.170441 -0.0599342 -5.08539e-21)
(-0.192802 -0.0168571 -6.53542e-20)
(-0.203695 0.0284853 0)
(-0.205214 0.0624438 4.6293e-20)
(-0.19602 0.0815622 0)
(-0.112401 -0.0593775 0)
(-0.17218 -0.0501352 0)
(-0.199011 -0.0103114 -7.33277e-20)
(-0.210717 0.0323596 3.57307e-21)
(-0.212678 0.0618367 -3.67093e-20)
(-0.203765 0.0743995 0)
(-0.103782 -0.0394151 0)
(-0.172227 -0.0394106 -9.47384e-20)
(-0.2045 -0.00435142 2.33056e-21)
(-0.216365 0.0349449 -5.71006e-21)
(-0.218517 0.0600101 -9.74119e-21)
(-0.209879 0.0665342 0)
(-0.092301 -0.0186879 -3.04098e-19)
(-0.17027 -0.0272362 9.83414e-20)
(-0.20919 0.000979217 -1.02453e-20)
(-0.22001 0.036196 8.28782e-21)
(-0.221894 0.0576753 0)
(-0.214584 0.059578 0)
(-0.0769828 -0.000299369 3.27269e-19)
(-0.16465 -0.0130585 2.9436e-20)
(-0.211799 0.00593888 -3.84275e-19)
(-0.219817 0.0369603 3.63276e-20)
(-0.219975 0.0567892 -3.09234e-20)
(-0.218496 0.0567404 0)
(-0.0492494 0.0198617 0)
(-0.142333 0.0121719 4.81106e-19)
(-0.20694 0.0228654 2.61868e-20)
(-0.210417 0.0462105 3.97974e-20)
(-0.203221 0.0545813 -3.38847e-20)
(-0.211754 0.0340533 0)
(1.00421 -0.719944 5.36612e-20)
(1.30415 -0.634713 2.8098e-19)
(1.3719 -0.492731 -4.61381e-20)
(1.38488 -0.398983 1.1116e-20)
(1.38626 -0.334919 6.05463e-20)
(1.38409 -0.286075 -1.09201e-20)
(1.38104 -0.24658 1.10011e-20)
(1.3777 -0.213304 -1.53886e-20)
(1.37371 -0.184393 5.95716e-21)
(1.36831 -0.158792 5.86599e-21)
(1.36063 -0.13593 7.75957e-22)
(1.34985 -0.115515 -1.99951e-21)
(1.33538 -0.0974123 5.85694e-20)
(1.31707 -0.0815679 -2.38796e-20)
(1.29539 -0.0679825 1.28189e-21)
(1.27167 -0.0567159 -4.87506e-22)
(1.24787 -0.0478429 -5.91103e-20)
(1.22553 -0.0413132 5.86479e-20)
(1.2048 -0.0368555 -2.8021e-20)
(1.18451 -0.0340431 -4.14638e-20)
(1.16287 -0.0325625 5.29791e-20)
(1.13854 -0.0334191 -1.43466e-20)
(1.11105 -0.0402462 -5.21567e-20)
(1.07816 -0.0514716 5.34063e-20)
(0.749321 -0.416889 -1.65233e-19)
(1.28637 -0.516112 -1.38021e-19)
(1.39668 -0.414713 0)
(1.40927 -0.335032 0)
(1.40602 -0.279793 2.5737e-20)
(1.40086 -0.237312 9.77634e-21)
(1.39604 -0.202388 -9.91568e-21)
(1.39182 -0.172585 -7.53495e-21)
(1.38758 -0.146465 -1.0682e-20)
(1.38237 -0.123241 0)
(1.3752 -0.102544 -7.61976e-21)
(1.36516 -0.0842408 1.00406e-21)
(1.35154 -0.0683061 1.30246e-20)
(1.33399 -0.0547403 0)
(1.31268 -0.0435227 -6.66909e-21)
(1.28849 -0.0346081 -3.81351e-20)
(1.26305 -0.02795 5.26035e-20)
(1.23826 -0.0234706 -7.06785e-20)
(1.21517 -0.0209559 0)
(1.19328 -0.020044 4.88631e-20)
(1.17096 -0.0204651 -1.89907e-20)
(1.14665 -0.0232278 -1.15964e-19)
(1.11969 -0.0316762 1.29718e-19)
(1.08727 -0.0444263 -4.6358e-20)
(0.510579 -0.245948 0)
(1.17168 -0.366167 0)
(1.37448 -0.312454 -3.86225e-19)
(1.41046 -0.253241 0)
(1.41066 -0.211464 0)
(1.40569 -0.178044 -4.36981e-20)
(1.401 -0.149559 -3.47139e-20)
(1.3971 -0.124375 4.96602e-20)
(1.39343 -0.101804 0)
(1.38902 -0.0815045 8.94821e-21)
(1.38284 -0.0634038 -1.6425e-20)
(1.37394 -0.0475785 -7.09336e-22)
(1.36156 -0.0341494 -6.1529e-21)
(1.34524 -0.023208 1.51635e-20)
(1.32498 -0.0147649 4.66835e-21)
(1.30132 -0.00872604 1.60067e-20)
(1.27547 -0.00492173 2.23167e-20)
(1.24918 -0.00314827 2.28219e-20)
(1.22405 -0.00313648 -1.82518e-20)
(1.20049 -0.00452203 -1.80399e-20)
(1.17741 -0.00707575 -3.67125e-20)
(1.15327 -0.0117814 5.98263e-20)
(1.12711 -0.0217959 -4.35521e-20)
(1.09565 -0.0361207 3.93146e-20)