/*--------------------------------*- C++ -*----------------------------------*\
  =========                 |
  \\      /  F ield         | OpenFOAM: The Open Source CFD Toolbox
   \\    /   O peration     | Website:  https://openfoam.org
    \\  /    A nd           | Version:  11
     \\/     M anipulation  |
\*---------------------------------------------------------------------------*/
FoamFile
{
    format      ascii;
    class       surfaceVectorField;
    location    "0.04";
    object      Uf;
}
// * * * * * * * * * * * * * * * * * * * * * * * * * * * * * * * * * * * * * //

dimensions      [0 1 -1 0 0 0 0];

internalField   nonuniform List<vector> 
5640
(
(0.0145758 -0.0516912 0)
(-0.00574177 -0.0431062 -5.7291e-19)
(0.139166 -0.0481954 1.45767e-19)
(0.0962624 -0.0594801 2.40281e-20)
(0.273373 -0.0406342 1.57389e-19)
(0.266868 -0.0402611 1.33404e-19)
(0.410608 -0.0429959 -7.67658e-20)
(0.375582 -0.0392405 -2.25866e-19)
(0.575471 -0.104687 -1.01655e-19)
(0.546305 -0.0226277 -4.16209e-20)
(0.809214 -0.0496896 -5.236e-20)
(0.893517 -0.190386 -1.49909e-19)
(0.0669077 -0.0550942 -5.83321e-19)
(0.0254614 -0.0412931 1.63015e-21)
(0.229988 -0.0556376 1.18145e-20)
(0.169643 -0.0713145 3.84219e-19)
(0.381237 -0.0450701 -2.37714e-19)
(0.349914 -0.0554496 2.67279e-19)
(0.528731 -0.0377288 -1.59447e-19)
(0.483941 -0.0556192 -1.51355e-20)
(0.697124 -0.0577263 4.63221e-20)
(0.660193 -0.0500434 1.14196e-19)
(0.843501 -0.105454 6.49652e-20)
(0.876095 -0.149367 -5.22992e-20)
(0.114409 -0.0601312 9.46794e-19)
(0.0601158 -0.0416911 5.92818e-19)
(0.290052 -0.072264 6.49464e-19)
(0.224702 -0.086786 3.5385e-19)
(0.450353 -0.0677255 5.02138e-19)
(0.404953 -0.0784603 5.14866e-20)
(0.603822 -0.0691038 2.57796e-19)
(0.549403 -0.0825281 1.86328e-19)
(0.760596 -0.0961494 1.1099e-19)
(0.711341 -0.0885424 -6.7971e-22)
(0.854495 -0.142695 1.96439e-20)
(0.883082 -0.170212 1.11992e-19)
(0.156509 -0.0678148 9.50475e-21)
(0.0939827 -0.0442641 5.32397e-19)
(0.336169 -0.092034 -2.33927e-19)
(0.268548 -0.102702 -6.61928e-19)
(0.497867 -0.0947405 -2.72516e-19)
(0.44551 -0.103938 -2.3641e-19)
(0.647522 -0.103743 -6.69043e-20)
(0.59074 -0.113315 -2.25353e-21)
(0.786454 -0.134896 -8.58484e-20)
(0.736187 -0.126974 -6.09343e-20)
(0.854468 -0.174012 -5.63025e-20)
(0.883212 -0.192502 -1.79354e-19)
(0.192626 -0.0771859 -6.93961e-20)
(0.124412 -0.0491152 -3.74619e-21)
(0.372876 -0.112709 -6.81393e-19)
(0.30381 -0.118033 -3.45942e-19)
(0.531599 -0.123239 2.41405e-20)
(0.475933 -0.129738 -2.54385e-19)
(0.672993 -0.137643 4.09683e-21)
(0.617425 -0.144698 2.49845e-20)
(0.795727 -0.167639 -2.14108e-20)
(0.748393 -0.163219 -6.03697e-20)
(0.849587 -0.2025 1.67264e-19)
(0.877218 -0.212568 1.42342e-19)
(0.222607 -0.0874244 -2.61086e-19)
(0.15052 -0.0559157 -5.19248e-19)
(0.401501 -0.132892 7.62621e-20)
(0.331646 -0.132539 6.33538e-19)
(0.555295 -0.151583 -2.62979e-19)
(0.498209 -0.155017 2.18577e-19)
(0.687873 -0.170416 -3.83538e-20)
(0.63423 -0.175593 0)
(0.797464 -0.198358 1.24654e-19)
(0.753534 -0.197185 1.18985e-19)
(0.842654 -0.229828 2.01085e-19)
(0.869418 -0.233364 3.02668e-19)
(0.246849 -0.0981135 3.07918e-19)
(0.172231 -0.0640698 0)
(0.422988 -0.152185 7.94345e-19)
(0.352794 -0.146231 3.4721e-19)
(0.571226 -0.179142 4.88643e-19)
(0.513678 -0.179389 2.22629e-19)
(0.69577 -0.202022 1.54003e-19)
(0.643949 -0.205651 0)
(0.795403 -0.228216 1.96283e-19)
(0.754217 -0.229446 1.21963e-19)
(0.835205 -0.256819 3.60951e-20)
(0.861547 -0.255745 -1.20317e-19)
(0.265786 -0.108938 1.95412e-20)
(0.189647 -0.0729452 5.69927e-19)
(0.438156 -0.170567 -2.16575e-19)
(0.367839 -0.159213 -5.61135e-19)
(0.58101 -0.205709 -2.58283e-19)
(0.523352 -0.202699 -2.64197e-19)
(0.698818 -0.232569 -3.49238e-20)
(0.648406 -0.234769 4.52175e-20)
(0.791407 -0.257566 -3.43158e-20)
(0.752012 -0.260588 -2.25163e-19)
(0.828118 -0.284081 -2.21475e-19)
(0.854643 -0.27942 -8.50456e-20)
(0.279765 -0.119623 5.33695e-20)
(0.202839 -0.0819922 1.76326e-20)
(0.447711 -0.188111 -6.19272e-19)
(0.377315 -0.171593 -2.87773e-19)
(0.585813 -0.231248 2.88499e-20)
(0.528026 -0.224911 1.32556e-20)
(0.69837 -0.26222 -1.37556e-19)
(0.648803 -0.262945 2.23576e-20)
(0.786433 -0.286757 -4.11117e-19)
(0.747888 -0.291056 -4.05769e-20)
(0.821685 -0.312022 -9.77978e-20)
(0.848802 -0.304483 -1.06098e-19)
(0.289052 -0.129947 -3.06254e-19)
(0.211811 -0.0907935 -5.51736e-19)
(0.452263 -0.204871 3.32706e-19)
(0.381735 -0.18345 3.11443e-19)
(0.586447 -0.255767 6.01605e-21)
(0.528322 -0.246031 1.38721e-20)
(0.695285 -0.291166 1.20691e-19)
(0.645891 -0.290226 -2.28598e-20)
(0.780989 -0.316114 2.73927e-19)
(0.742386 -0.321162 -1.42778e-19)
(0.815873 -0.340897 2.17003e-19)
(0.843914 -0.33108 1.45792e-19)
(0.293855 -0.139747 1.66535e-20)
(0.216521 -0.0990762 2.53161e-20)
(0.452339 -0.220885 5.85298e-21)
(0.381597 -0.194802 3.10697e-19)
(0.583474 -0.27931 -1.42026e-20)
(0.524701 -0.266081 2.16208e-19)
(0.690047 -0.319568 -2.82857e-19)
(0.640103 -0.316664 -2.21603e-20)
(0.775194 -0.345821 -2.08212e-19)
(0.735736 -0.351111 -1.47615e-19)
(0.810555 -0.370839 -5.74709e-20)
(0.839881 -0.359258 2.5331e-19)
(0.294362 -0.148909 3.02865e-19)
(0.216929 -0.106692 2.53161e-20)
(0.448389 -0.236158 5.26044e-19)
(0.377367 -0.205588 1.02005e-20)
(0.577248 -0.301908 2.16172e-19)
(0.517501 -0.285052 -1.99036e-19)
(0.68287 -0.347521 1.1653e-19)
(0.631649 -0.342283 -2.21603e-20)
(0.769047 -0.376012 8.62395e-22)
(0.727952 -0.381023 2.87724e-21)
(0.805586 -0.401896 -1.7771e-19)
(0.836674 -0.388995 -2.84977e-19)
(0.290688 -0.157465 -2.66526e-19)
(0.213048 -0.113512 -5.49592e-19)
(0.4408 -0.250612 -7.05539e-19)
(0.369491 -0.215697 -2.82844e-19)
(0.567975 -0.323537 -4.43401e-19)
(0.506961 -0.302857 -1.89105e-19)
(0.673785 -0.375056 -1.36515e-19)
(0.620567 -0.367055 -2.18858e-20)
(0.762429 -0.406744 -1.71366e-19)
(0.718885 -0.410943 -8.39299e-22)
(0.800766 -0.43408 -2.82229e-20)
(0.834242 -0.420242 -1.60743e-20)
(0.28324 -0.164934 -5.813e-19)
(0.205105 -0.119322 4.50751e-22)
(0.429877 -0.264096 2.29559e-19)
(0.35829 -0.224894 2.95996e-19)
(0.555736 -0.344102 2.26869e-19)
(0.493238 -0.319297 2.37307e-20)
(0.662655 -0.402172 1.13173e-19)
(0.606748 -0.390856 -4.25217e-20)
(0.755107 -0.438045 1.42933e-19)
(0.708251 -0.440848 1.57517e-19)
(0.795822 -0.467391 0)
(0.832476 -0.452971 0)
(0.272124 -0.171332 8.60685e-19)
(0.193418 -0.123647 2.97292e-19)
(0.415847 -0.276326 1.01753e-19)
(0.344116 -0.232742 -3.22482e-20)
(0.540515 -0.363371 -2.43268e-19)
(0.476432 -0.333976 1.24494e-19)
(0.649236 -0.428719 -3.31304e-21)
(0.589973 -0.413405 6.56037e-20)
(0.746752 -0.469866 1.836e-20)
(0.695612 -0.470635 -6.62048e-20)
(0.790367 -0.501812 1.44619e-20)
(0.831221 -0.487157 -6.75992e-20)
(0.257751 -0.175986 -5.75659e-19)
(0.178484 -0.125663 4.00253e-20)
(0.398917 -0.286715 -1.59229e-20)
(0.327255 -0.238452 -3.33258e-19)
(0.522205 -0.380882 4.35399e-19)
(0.456559 -0.346217 2.433e-19)
(0.633124 -0.454438 6.88144e-21)
(0.569868 -0.434203 -1.81785e-21)
(0.73688 -0.502119 -7.18778e-20)
(0.680362 -0.50005 -9.23115e-20)
(0.783858 -0.537337 1.44619e-20)
(0.830244 -0.522792 7.13469e-20)
(0.240522 -0.17791 3.05944e-19)
(0.160939 -0.124016 2.92857e-19)
(0.379195 -0.294341 -9.81728e-20)
(0.307855 -0.240862 -4.81459e-21)
(0.500568 -0.395894 -1.85287e-19)
(0.433498 -0.35503 -1.61553e-19)
(0.61374 -0.478844 -9.87676e-20)
(0.545862 -0.452506 -8.22689e-20)
(0.724815 -0.534605 -8.37894e-21)
(0.661676 -0.528587 6.87382e-20)
(0.775493 -0.574021 -7.06728e-21)
(0.829202 -0.559924 0)
(0.220808 -0.175626 0)
(0.14148 -0.116815 -4.50972e-21)
(0.356578 -0.297926 -6.15246e-20)
(0.28582 -0.238452 2.56864e-21)
(0.475151 -0.407356 -6.11223e-20)
(0.406922 -0.359119 -3.48571e-20)
(0.590255 -0.501191 8.06032e-20)
(0.517141 -0.467308 5.74171e-21)
(0.709595 -0.567005 7.18009e-20)
(0.638391 -0.555461 5.9559e-20)
(0.764104 -0.611944 -7.06728e-21)
(0.827596 -0.598691 7.5795e-21)
(0.198843 -0.167241 -2.83389e-21)
(0.120732 -0.102022 -4.50972e-21)
(0.330678 -0.295889 3.07542e-20)
(0.260709 -0.229482 2.56864e-21)
(0.445229 -0.413929 3.03148e-20)
(0.376237 -0.357003 6.23284e-20)
(0.561511 -0.520453 -1.68114e-20)
(0.482611 -0.477403 -1.55712e-21)
(0.689822 -0.598829 -1.77109e-20)
(0.608893 -0.57956 -3.71092e-21)
(0.748006 -0.651122 0)
(0.824695 -0.639301 -2.12723e-20)
(0.174591 -0.150856 0)
(0.0991996 -0.0784004 0)
(0.300742 -0.286566 3.14831e-20)
(0.231721 -0.212285 4.60114e-20)
(0.40974 -0.414151 3.26249e-20)
(0.340563 -0.347222 3.18667e-20)
(0.525936 -0.535321 1.15091e-20)
(0.440935 -0.481488 7.76296e-22)
(0.663492 -0.62931 1.38114e-20)
(0.571051 -0.599202 1.69537e-20)
(0.724665 -0.69147 0)
(0.819456 -0.682138 0)
(0.147842 -0.125326 4.33569e-20)
(0.0774716 -0.0469965 1.4317e-19)
(0.265887 -0.268524 4.69969e-20)
(0.197847 -0.185474 -5.85504e-22)
(0.367545 -0.406561 1.09802e-21)
(0.298827 -0.328342 3.49274e-21)
(0.481711 -0.544141 5.63367e-21)
(0.390694 -0.478366 -1.34897e-21)
(0.62793 -0.656993 3.50911e-21)
(0.522199 -0.611224 3.42695e-21)
(0.689909 -0.734055 0)
(0.810725 -0.728281 0)
(0.118945 -0.0911743 1.06941e-19)
(0.0568491 -0.0128234 -1.0476e-20)
(0.22601 -0.240436 -4.4074e-20)
(0.158184 -0.147176 -6.03074e-20)
(0.318377 -0.389503 1.80836e-21)
(0.249757 -0.298136 1.854e-19)
(0.427484 -0.54443 -3.78563e-21)
(0.330729 -0.466787 -1.88073e-20)
(0.57974 -0.679463 0)
(0.458584 -0.608511 1.28926e-20)
(0.636389 -0.787696 0)
(0.798255 -0.782527 0)
(0.0904509 -0.0508306 -1.75592e-19)
(0.039276 0.0201638 -4.78329e-19)
(0.181991 -0.19914 1.59009e-19)
(0.111843 -0.0907488 2.3338e-19)
(0.262901 -0.359683 1.72389e-19)
(0.190621 -0.248113 1.9283e-19)
(0.358587 -0.530041 -1.93632e-21)
(0.260806 -0.442511 -1.51249e-20)
(0.507691 -0.695275 1.32017e-20)
(0.369945 -0.565421 1.28926e-20)
(0.551165 -0.889937 0)
(0.782379 -0.865317 2.10531e-21)
(0.060413 -0.00252551 -1.10417e-19)
(0.126072 -0.133324 2.59667e-19)
(0.192542 -0.307947 2.02289e-21)
(0.286686 -0.458537 0)
(0.413721 -0.706759 0)
(0.752211 -1.0393 0)
(0.816836 -0.319756 -9.98912e-20)
(0.848234 -0.296512 -1.06649e-19)
(0.736495 -0.372213 -1.61e-19)
(0.837219 -0.269471 -1.42662e-20)
(0.857605 -0.289501 1.14833e-19)
(0.799711 -0.289391 -3.79721e-20)
(0.857285 -0.223685 -1.35516e-19)
(0.864423 -0.246242 -5.04122e-20)
(0.82966 -0.237858 1.87606e-20)
(0.874918 -0.186775 -5.10473e-20)
(0.878131 -0.207146 -8.42271e-20)
(0.854673 -0.19641 4.0581e-20)
(0.891077 -0.157895 6.58762e-20)
(0.891979 -0.175442 3.1301e-21)
(0.874289 -0.163763 -1.47912e-19)
(0.906238 -0.135955 -5.02086e-20)
(0.906018 -0.150805 1.81716e-21)
(0.891742 -0.138791 -1.16658e-21)
(0.920464 -0.119406 -3.44257e-20)
(0.919684 -0.132132 -8.03748e-20)
(0.907616 -0.120107 2.97795e-20)
(0.933687 -0.106632 4.84961e-20)
(0.932717 -0.11786 4.98325e-20)
(0.922178 -0.105998 2.52381e-20)
(0.945764 -0.0962703 -8.28419e-20)
(0.944849 -0.106493 4.25997e-20)
(0.935477 -0.0949348 8.92032e-20)
(0.95658 -0.0873278 -1.22269e-19)
(0.955849 -0.0968645 -8.284e-20)
(0.947445 -0.0857323 -4.2252e-20)
(0.966074 -0.0791762 -7.59602e-20)
(0.965594 -0.0881943 -3.95089e-20)
(0.958036 -0.0776131 -2.52476e-23)
(0.97423 -0.0714583 -7.22766e-20)
(0.97403 -0.0800166 3.44386e-20)
(0.967245 -0.0701067 5.03108e-22)
(0.981085 -0.0640096 -3.56015e-20)
(0.981157 -0.0720952 3.3344e-20)
(0.975098 -0.0629619 3.58795e-22)
(0.986715 -0.0567946 -6.29348e-20)
(0.987029 -0.0643573 0)
(0.981658 -0.0560807 1.36849e-19)
(0.991227 -0.0498472 1.19906e-19)
(0.991736 -0.0568329 -9.38025e-20)
(0.987023 -0.0494603 -1.61799e-19)
(0.994744 -0.0432173 1.27626e-19)
(0.995396 -0.049593 9.45488e-20)
(0.99131 -0.0431372 1.85883e-19)
(0.997388 -0.0369331 -3.41658e-21)
(0.998131 -0.0426984 5.71587e-20)
(0.994647 -0.0371422 -2.96707e-20)
(0.999269 -0.0309899 2.71874e-21)
(1.00006 -0.0361729 -1.10277e-19)
(0.997153 -0.0314777 -3.00701e-20)
(1.00048 -0.0253535 2.30699e-20)
(1.00128 -0.0299997 -5.50381e-20)
(0.998937 -0.0261168 -5.48277e-20)
(1.0011 -0.0199668 7.88929e-20)
(1.00193 -0.0241217 1.82522e-19)
(1.00011 -0.0210066 1.8674e-19)
(1.00119 -0.0147667 -1.72178e-19)
(1.00208 -0.0184634 -4.96767e-20)
(1.00076 -0.0160809 -5.20389e-20)
(1.00081 -0.00974418 -1.28742e-19)
(1.00153 -0.0130465 -4.14278e-19)
(1.00078 -0.0113289 -4.68628e-20)
(1.00005 -0.0050101 -3.58391e-20)
(0.999713 -0.0081329 3.06172e-19)
(0.999795 -0.00689561 -1.47024e-19)
(0.997289 -0.00373051 -1.69202e-19)
(0.998263 -0.00283538 2.4937e-20)
(0.882067 -0.284891 1.19311e-19)
(0.893335 -0.26364 4.33587e-20)
(0.877316 -0.268034 7.92743e-20)
(0.891023 -0.278539 7.76482e-20)
(0.883585 -0.230148 0)
(0.890307 -0.248138 1.5874e-19)
(0.894304 -0.196261 -3.22077e-20)
(0.897744 -0.214354 0)
(0.90651 -0.168652 -6.07221e-20)
(0.90783 -0.184953 -3.27555e-20)
(0.919188 -0.147199 -2.71196e-20)
(0.91943 -0.161313 2.75875e-20)
(0.931738 -0.130738 2.26584e-21)
(0.931448 -0.142985 4.94941e-20)
(0.943728 -0.11783 4.40381e-20)
(0.94328 -0.128725 -8.92702e-20)
(0.954814 -0.10717 4.40269e-20)
(0.954438 -0.117171 4.35424e-20)
(0.964774 -0.097796 -5.32225e-22)
(0.964597 -0.107212 -7.78159e-20)
(0.973485 -0.0890889 7.00998e-20)
(0.973573 -0.098089 7.14863e-20)
(0.980906 -0.0807021 1.40012e-19)
(0.98128 -0.089344 7.0157e-20)
(0.987057 -0.0724891 6.92382e-20)
(0.987704 -0.0807515 1.76837e-21)
(0.992008 -0.0644404 -3.01136e-20)
(0.992888 -0.0722563 6.35676e-20)
(0.995864 -0.0566212 -1.20643e-19)
(0.996923 -0.0639137 -2.97952e-20)
(0.998747 -0.0491128 2.43929e-20)
(0.999925 -0.0558253 -3.2615e-20)
(1.00078 -0.0419706 -4.84982e-20)
(1.00202 -0.0480824 1.74045e-19)
(1.00206 -0.035208 -1.68409e-19)
(1.00331 -0.0407347 -1.1206e-19)
(1.00269 -0.0287998 1.0283e-19)
(1.00392 -0.0337796 -5.18713e-20)
(1.00274 -0.0226894 5.42574e-20)
(1.00397 -0.0271588 5.35256e-20)
(1.00227 -0.016809 -2.9066e-19)
(1.00356 -0.0207886 -1.46109e-19)
(1.00132 -0.0111534 9.90083e-21)
(1.00237 -0.0147389 -9.92018e-20)
(1.00002 -0.00586447 1.88393e-19)
(0.999574 -0.00943552 1.65521e-19)
(0.99618 -0.00489987 -1.67702e-21)
(0.904713 -0.263617 0)
(0.907394 -0.249866 -1.5052e-19)
(0.901014 -0.262017 1.55416e-19)
(0.908309 -0.269993 -4.06564e-20)
(0.903263 -0.233452 1.61692e-19)
(0.907924 -0.248852 4.18757e-20)
(0.910558 -0.2037 0)
(0.913321 -0.220235 -1.67428e-19)
(0.920409 -0.177998 5.48242e-20)
(0.92165 -0.193422 0)
(0.931444 -0.157357 1.03892e-19)
(0.931855 -0.170969 1.62574e-19)
(0.942797 -0.141149 -4.02043e-20)
(0.94282 -0.153074 -1.00576e-19)
(0.953834 -0.128194 -9.13339e-20)
(0.953781 -0.13886 2.22878e-19)
(0.964098 -0.117308 -7.69499e-20)
(0.964166 -0.127143 -8.29643e-20)
(0.973306 -0.107579 -7.32457e-21)
(0.973611 -0.116898 -1.84987e-21)
(0.981304 -0.0984062 7.16036e-20)
(0.981905 -0.107388 -7.28271e-20)
(0.98803 -0.0894496 -6.74037e-20)
(0.988941 -0.0981625 6.63997e-20)
(0.993495 -0.0805726 -4.44487e-21)
(0.994694 -0.0889958 -1.31848e-19)
(0.997766 -0.0717824 6.46189e-20)
(0.999205 -0.0798399 1.24658e-19)
(1.00095 -0.0631687 5.82006e-20)
(1.00256 -0.0707654 -5.81606e-20)
(1.00317 -0.054842 1.1544e-19)
(1.00488 -0.061898 1.70746e-19)
(1.00454 -0.0468861 1.1245e-19)
(1.00629 -0.0533593 -2.17407e-19)
(1.00518 -0.0393372 4.01297e-21)
(1.00691 -0.0452273 1.61459e-19)
(1.00517 -0.0321841 -1.01878e-19)
(1.00684 -0.0375186 -6.08864e-23)
(1.00458 -0.025375 -1.46286e-19)
(1.00624 -0.0301745 -4.51706e-23)
(1.00347 -0.0188369 4.52969e-20)
(1.00519 -0.0231028 -1.45338e-21)
(1.00187 -0.0125557 5.09641e-20)
(1.00329 -0.0164291 -4.30881e-20)
(0.999952 -0.00680153 -2.82224e-20)
(0.99939 -0.0107721 3.94531e-20)
(0.995081 -0.00640808 4.3271e-20)
(0.911751 -0.256424 -1.93071e-19)
(0.907598 -0.247907 2.07178e-20)
(0.914071 -0.25885 -1.57435e-19)
(0.916214 -0.266801 7.60526e-20)
(0.917354 -0.236755 -2.85665e-19)
(0.919779 -0.251106 9.72636e-20)
(0.923923 -0.210657 -1.70228e-19)
(0.925621 -0.226434 -1.95356e-19)
(0.932824 -0.186807 1.0528e-19)
(0.933694 -0.201817 5.80847e-20)
(0.943012 -0.166964 -3.83605e-20)
(0.943411 -0.180381 -5.40247e-20)
(0.953615 -0.150978 1.58428e-19)
(0.953828 -0.162797 -1.48824e-19)
(0.963955 -0.137949 2.34719e-19)
(0.964204 -0.148528 2.24075e-19)
(0.973557 -0.126838 -8.76681e-21)
(0.973997 -0.136594 -8.29643e-20)
(0.982121 -0.116789 -6.65779e-20)
(0.98285 -0.126052 2.66564e-21)
(0.98948 -0.107214 -7.93449e-20)
(0.990548 -0.116189 -1.44067e-19)
(0.995561 -0.0977712 3.88952e-21)
(0.996976 -0.106547 1.36242e-21)
(1.00037 -0.0883234 -4.9972e-21)
(1.0021 -0.096891 -1.27523e-19)
(1.00397 -0.0788823 3.41106e-21)
(1.00596 -0.0871657 6.03684e-20)
(1.00647 -0.0695526 5.26177e-20)
(1.00864 -0.0774447 -1.36594e-22)
(1.00799 -0.0604694 -1.59145e-19)
(1.01026 -0.0678697 -5.43268e-20)
(1.00866 -0.0517453 -1.71153e-19)
(1.01096 -0.0585893 -1.13429e-19)
(1.00859 -0.0434418 1.58466e-19)
(1.01084 -0.0497125 1.57018e-19)
(1.00788 -0.0355642 1.01697e-19)
(1.01003 -0.0412795 5.17691e-20)
(1.00658 -0.0280661 1.44732e-19)
(1.00869 -0.0332329 4.9916e-20)
(1.00473 -0.0208647 -8.86881e-20)
(1.00694 -0.0254665 2.33155e-19)
(1.00238 -0.0139208 -6.82976e-20)
(1.0043 -0.0181662 -3.64719e-19)
(0.999877 -0.00784688 9.34469e-20)
(0.999245 -0.0122181 -3.97556e-20)
(0.994097 -0.00828825 1.17767e-19)
(0.912368 -0.257695 2.88714e-19)
(0.902753 -0.254094 2.99765e-19)
(0.921401 -0.260087 3.30864e-19)
(0.919262 -0.268974 3.83396e-22)
(0.927649 -0.241692 1.92205e-19)
(0.927961 -0.25598 7.45097e-20)
(0.935069 -0.218227 2.92e-20)
(0.935593 -0.233915 3.74236e-20)
(0.944067 -0.195795 -9.97308e-20)
(0.94444 -0.210849 1.71196e-19)
(0.954032 -0.176494 -1.63219e-19)
(0.954325 -0.190057 -2.12733e-19)
(0.964235 -0.160548 -8.78318e-20)
(0.964566 -0.172515 -9.19133e-20)
(0.974089 -0.147323 -9.00358e-20)
(0.974583 -0.157992 -1.73888e-19)
(0.983168 -0.135922 -7.24847e-20)
(0.983932 -0.145712 7.81284e-20)
(0.991189 -0.125542 -7.32849e-20)
(0.9923 -0.134813 7.361e-20)
(0.997984 -0.115598 -6.47553e-20)
(0.999485 -0.124592 2.25208e-21)
(1.00348 -0.105735 -1.28809e-19)
(1.00537 -0.114572 -1.28529e-19)
(1.00767 -0.0957988 -6.37906e-20)
(1.00992 -0.104494 -1.22655e-19)
(1.01061 -0.0857928 5.73249e-20)
(1.01316 -0.0942816 1.15803e-19)
(1.01242 -0.0758253 -1.0665e-19)
(1.01518 -0.0839965 1.13294e-19)
(1.01321 -0.066049 -8.16863e-21)
(1.01609 -0.0737854 -1.66931e-19)
(1.01314 -0.0566038 2.12717e-19)
(1.01603 -0.0638181 2.12015e-19)
(1.01231 -0.0475797 5.10522e-20)
(1.01514 -0.0542358 4.90849e-20)
(1.01082 -0.0390036 0)
(1.01353 -0.0451075 1.43132e-19)
(1.00874 -0.0308386 1.37263e-19)
(1.01139 -0.0363824 -4.72416e-20)
(1.0061 -0.0230004 -4.29457e-20)
(1.00887 -0.0279392 1.38149e-19)
(1.00295 -0.0154401 -3.51326e-19)
(1.00544 -0.020045 -3.87778e-21)
(0.99992 -0.00905468 -7.06569e-20)
(0.999243 -0.0139763 -1.70921e-19)
(0.993107 -0.010512 -5.82654e-20)
(0.909845 -0.26485 1.70574e-20)
(0.896175 -0.266385 -6.44e-20)
(0.925617 -0.265378 -2.58206e-19)
(0.920231 -0.276066 -1.16899e-19)
(0.935562 -0.248941 -8.04118e-20)
(0.933903 -0.263865 -9.86715e-21)
(0.944736 -0.227081 1.77828e-19)
(0.944114 -0.243223 5.35707e-21)
(0.95452 -0.20549 6.37767e-20)
(0.954377 -0.221012 1.68227e-19)
(0.964684 -0.186352 -1.43109e-19)
(0.964845 -0.200404 -1.49752e-19)
(0.974744 -0.170165 -1.76916e-19)
(0.975172 -0.182556 -1.79119e-19)
(0.984275 -0.156541 -8.59163e-21)
(0.984997 -0.167512 1.41394e-22)
(0.992944 -0.144727 2.24316e-19)
(0.994014 -0.154693 -1.75955e-21)
(1.00051 -0.13396 1.49806e-19)
(1.00198 -0.143322 7.7481e-20)
(1.00681 -0.123647 -6.02727e-20)
(1.00873 -0.132696 6.60411e-20)
(1.01178 -0.113404 -1.22469e-19)
(1.01414 -0.122307 6.86727e-22)
(1.01539 -0.103047 5.47415e-20)
(1.01817 -0.111855 -6.0113e-20)
(1.01771 -0.0925549 1.71793e-19)
(1.02083 -0.101225 1.16476e-19)
(1.01883 -0.0820258 5.52386e-20)
(1.0222 -0.0904544 1.48688e-22)
(1.01889 -0.0716204 5.04134e-20)
(1.0224 -0.0796802 0)
(1.01803 -0.0615024 4.96184e-20)
(1.02158 -0.0690851 1.47426e-22)
(1.01639 -0.0517934 1.40567e-19)
(1.01987 -0.05884 -9.75994e-20)
(1.01408 -0.0425498 9.70094e-20)
(1.01741 -0.0490469 9.5976e-20)
(1.01117 -0.0337562 -4.75446e-20)
(1.01442 -0.0396683 -9.27569e-20)
(1.00771 -0.0253412 1.74232e-19)
(1.01107 -0.0305789 1.73062e-19)
(1.00376 -0.0172671 1.95716e-19)
(1.00677 -0.022159 7.51406e-21)
(1.00007 -0.0104505 -1.46317e-19)
(0.999399 -0.0161134 -1.61624e-19)
(0.992038 -0.0130276 -6.74342e-20)
(0.906508 -0.277202 -1.9857e-19)
(0.889885 -0.283082 -2.98557e-19)
(0.928454 -0.274869 1.29197e-19)
(0.920528 -0.287641 1.07678e-19)
(0.942141 -0.258783 7.56186e-20)
(0.938707 -0.274882 1.065e-21)
(0.953578 -0.237626 -6.64923e-21)
(0.95193 -0.254657 -2.17604e-21)
(0.964548 -0.216284 -4.05547e-20)
(0.963947 -0.23264 1.58146e-19)
(0.975181 -0.196881 -1.85335e-19)
(0.975254 -0.211746 -4.80549e-20)
(0.985273 -0.180116 -4.25176e-21)
(0.985837 -0.193219 -1.71871e-19)
(0.994595 -0.165835 7.03593e-21)
(0.995578 -0.17734 2.49756e-19)
(1.00294 -0.153425 -1.49368e-19)
(1.00434 -0.163737 -1.55897e-19)
(1.01012 -0.142166 -6.16414e-21)
(1.01196 -0.151726 -1.35139e-19)
(1.016 -0.131445 1.2758e-19)
(1.01832 -0.140603 6.37204e-20)
(1.02049 -0.120836 6.35256e-20)
(1.02331 -0.129818 4.28006e-21)
(1.02358 -0.110107 0)
(1.02687 -0.119013 0)
(1.02531 -0.0991984 -5.41547e-20)
(1.029 -0.108022 0)
(1.02576 -0.0881831 -5.5044e-20)
(1.02976 -0.0968387 -5.46102e-20)
(1.02508 -0.077217 -5.02203e-20)
(1.02927 -0.085578 -4.87199e-20)
(1.02342 -0.0664802 -1.46266e-19)
(1.02767 -0.0744222 -5.06039e-20)
(1.02093 -0.0561246 -1.4344e-19)
(1.02511 -0.0635656 -3.6189e-21)
(1.01774 -0.0462405 -9.25888e-20)
(1.02176 -0.0531439 -9.23551e-20)
(1.01393 -0.0368413 1.26191e-19)
(1.01786 -0.0431373 4.0802e-20)
(1.00957 -0.0278744 1.69016e-21)
(1.01359 -0.0334231 4.71743e-20)
(1.00472 -0.0193119 -3.30625e-19)
(1.00835 -0.0245078 1.97725e-19)
(1.00022 -0.0120803 -9.6466e-20)
(0.999732 -0.0185649 -1.61225e-19)
(0.991076 -0.0159495 -3.39231e-20)
(0.903607 -0.293268 -1.37969e-21)
(0.884854 -0.302991 8.00519e-20)
(0.930678 -0.287965 -1.86548e-20)
(0.920864 -0.303066 -1.06093e-19)
(0.948214 -0.271314 -7.71202e-20)
(0.943298 -0.288964 -1.6143e-19)
(0.962146 -0.250095 1.60075e-19)
(0.959666 -0.268339 1.14349e-19)
(0.974517 -0.228446 1.53933e-19)
(0.973587 -0.245925 -8.81582e-22)
(0.98578 -0.208358 -3.2718e-20)
(0.985873 -0.22431 3.56662e-21)
(0.996011 -0.190665 7.69066e-20)
(0.996811 -0.204749 4.49691e-20)
(1.00519 -0.175426 9.15598e-20)
(1.00652 -0.18771 3.22687e-19)
(1.01325 -0.162188 -1.41913e-19)
(1.01505 -0.173036 -2.20009e-19)
(1.02009 -0.150283 -6.72663e-20)
(1.02235 -0.160164 -6.40955e-20)
(1.02558 -0.139073 -5.89666e-20)
(1.02835 -0.148405 6.1293e-20)
(1.02966 -0.128077 -5.92058e-20)
(1.03295 -0.137156 1.15431e-19)
(1.03227 -0.117004 0)
(1.03608 -0.125992 -1.09277e-19)
(1.03345 -0.105738 0)
(1.03772 -0.114678 -5.07067e-20)
(1.03326 -0.0943114 -4.83329e-20)
(1.03791 -0.10315 0)
(1.03185 -0.0828599 -4.90892e-20)
(1.03675 -0.0914827 4.64939e-20)
(1.02938 -0.0715687 9.16572e-20)
(1.03437 -0.0798433 0)
(1.026 -0.060615 4.80358e-20)
(1.03095 -0.0684386 -4.13018e-20)
(1.02187 -0.0501245 4.03202e-20)
(1.02667 -0.057434 -8.86004e-20)
(1.0171 -0.0401451 -3.82555e-20)
(1.02178 -0.0468304 2.09603e-19)
(1.01175 -0.0306493 2.43121e-19)
(1.01651 -0.0365114 -3.26762e-19)
(1.0059 -0.0216191 3.93812e-19)
(1.01023 -0.0271178 2.84936e-19)
(1.00049 -0.013974 -8.61948e-20)
(1.00033 -0.0213334 1.89947e-19)
(0.990319 -0.0193067 -1.82603e-19)
(0.901551 -0.312624 -1.92977e-20)
(0.881071 -0.325658 1.8486e-19)
(0.933185 -0.304369 -2.48272e-19)
(0.921838 -0.321829 -1.80538e-19)
(0.954479 -0.286479 2.49446e-20)
(0.948409 -0.305886 -6.06224e-20)
(0.97096 -0.264562 -4.47991e-20)
(0.96789 -0.284228 1.61756e-19)
(0.984819 -0.242125 -1.51453e-19)
(0.983744 -0.260915 -1.52645e-19)
(0.996792 -0.220978 8.0679e-20)
(0.997065 -0.238208 8.65649e-20)
(1.00721 -0.202025 2.87245e-19)
(1.0084 -0.217307 -3.73005e-20)
(1.01627 -0.185516 1.75353e-20)
(1.01809 -0.198805 2.34782e-19)
(1.02405 -0.171178 -1.43929e-19)
(1.02636 -0.182758 -2.22215e-21)
(1.03054 -0.158421 6.32768e-20)
(1.03332 -0.168765 -1.26744e-19)
(1.03567 -0.146596 2.35131e-19)
(1.03894 -0.156181 6.21647e-20)
(1.03935 -0.13516 6.74577e-20)
(1.04316 -0.14436 1.19548e-19)
(1.04152 -0.123746 -1.60498e-19)
(1.04588 -0.132799 -1.60496e-19)
(1.04219 -0.112168 -5.11296e-20)
(1.04706 -0.121179 1.47631e-19)
(1.0414 -0.100401 9.4417e-20)
(1.04672 -0.109364 -9.50161e-20)
(1.03928 -0.0885462 9.58944e-20)
(1.04491 -0.0973718 4.86595e-20)
(1.03598 -0.0767769 -1.32616e-19)
(1.04178 -0.0853362 -1.30545e-19)
(1.03168 -0.0652861 -1.77752e-19)
(1.03748 -0.0734616 -9.02053e-20)
(1.02656 -0.0542321 7.90893e-20)
(1.03222 -0.0619344 -1.65131e-19)
(1.02075 -0.0437011 -7.54106e-20)
(1.02627 -0.0507757 3.58833e-19)
(1.01433 -0.0336978 -2.74744e-19)
(1.01991 -0.0398784 -2.38127e-19)
(1.00738 -0.0242184 7.86895e-20)
(1.0125 -0.0300218 -1.91314e-19)
(1.00094 -0.0161642 1.89461e-19)
(1.00128 -0.0244344 1.50763e-19)
(0.989854 -0.0231146 0)
(0.900577 -0.334839 3.28559e-20)
(0.878533 -0.350809 1.74654e-19)
(0.936616 -0.323685 4.56039e-21)
(0.92398 -0.343487 1.33165e-21)
(0.961531 -0.304083 7.20872e-20)
(0.954611 -0.325341 -1.12719e-21)
(0.980515 -0.280957 5.91679e-20)
(0.977111 -0.30215 4.57253e-22)
(0.995869 -0.25733 8.15738e-20)
(0.994862 -0.277516 -4.85435e-20)
(1.00857 -0.234817 -2.98645e-20)
(1.00922 -0.253413 1.28838e-19)
(1.01919 -0.214326 -9.35218e-20)
(1.02095 -0.230935 -1.67083e-19)
(1.02809 -0.196255 2.17835e-19)
(1.03059 -0.210727 3.74835e-21)
(1.03554 -0.180527 1.63072e-20)
(1.03855 -0.193025 2.09986e-19)
(1.04165 -0.166676 -1.29756e-19)
(1.04508 -0.177629 -3.30138e-21)
(1.04638 -0.154066 -5.39812e-20)
(1.05025 -0.16399 5.64668e-20)
(1.04966 -0.142096 -1.05766e-19)
(1.05404 -0.151447 4.37707e-22)
(1.05141 -0.130316 1.44894e-19)
(1.05634 -0.139415 -4.8875e-20)
(1.0516 -0.118455 1.05812e-19)
(1.05708 -0.127484 2.44528e-19)
(1.05024 -0.106416 -1.41875e-19)
(1.05623 -0.115428 -1.85775e-19)
(1.04743 -0.0942439 -1.76381e-19)
(1.05382 -0.103191 -1.33219e-19)
(1.04331 -0.0820863 -8.84993e-20)
(1.04995 -0.0908568 -8.751e-20)
(1.03808 -0.0701363 -7.7295e-20)
(1.04478 -0.078608 2.46356e-19)
(1.03192 -0.0585774 1.11519e-19)
(1.03851 -0.0666385 -4.38995e-20)
(1.02499 -0.0475342 1.94563e-19)
(1.03145 -0.0549846 8.42605e-20)
(1.0174 -0.03705 -1.55835e-19)
(1.0239 -0.0435493 3.57629e-20)
(1.00923 -0.0271428 -1.4888e-19)
(1.01525 -0.0332502 -2.56503e-19)
(1.00163 -0.0186856 -3.77803e-20)
(1.00269 -0.0278811 1.36803e-19)
(0.989772 -0.0273816 1.04972e-19)
(0.900974 -0.359573 1.47285e-19)
(0.877334 -0.378226 4.15021e-20)
(0.941431 -0.345532 -4.2965e-21)
(0.927696 -0.367659 -3.23312e-20)
(0.969873 -0.323842 -7.3024e-20)
(0.962379 -0.346991 2.94041e-20)
(0.991278 -0.299082 -1.06681e-19)
(0.987793 -0.32183 -1.04926e-19)
(1.00809 -0.273932 -4.28543e-21)
(1.00737 -0.295507 0)
(1.02151 -0.249817 -4.41212e-21)
(1.02273 -0.269758 -4.73571e-20)
(1.03228 -0.227582 -7.21253e-20)
(1.03483 -0.245538 -3.79462e-20)
(1.04098 -0.207715 -6.61651e-21)
(1.04438 -0.22346 6.48358e-20)
(1.04801 -0.190323 1.92702e-19)
(1.05193 -0.203882 2.8315e-21)
(1.05362 -0.175112 1.8233e-19)
(1.05789 -0.186812 6.34038e-20)
(1.05786 -0.161509 1.11424e-19)
(1.06249 -0.171863 -5.61597e-20)
(1.0607 -0.148875 5.7749e-20)
(1.06575 -0.158408 5.64438e-20)
(1.06201 -0.136673 4.81915e-20)
(1.06757 -0.145798 9.88144e-20)
(1.06173 -0.124538 -4.32758e-20)
(1.06785 -0.133524 1.9387e-21)
(1.05983 -0.112285 -1.77536e-19)
(1.06651 -0.121257 -1.32887e-19)
(1.05636 -0.0998866 -4.47603e-20)
(1.06351 -0.108852 -8.67455e-20)
(1.05145 -0.0874442 2.44681e-19)
(1.05894 -0.0963238 4.14652e-21)
(1.04528 -0.0751337 2.81951e-19)
(1.05292 -0.0838146 1.65402e-19)
(1.03804 -0.0631504 -7.20076e-20)
(1.04564 -0.0715077 7.60875e-20)
(1.02993 -0.0516532 -7.96613e-20)
(1.03742 -0.0594443 -1.14385e-19)
(1.02106 -0.0407276 -7.12563e-20)
(1.02859 -0.0475337 -6.83628e-20)
(1.01157 -0.0304209 -5.99019e-21)
(1.0186 -0.036824 -4.30724e-20)
(1.00266 -0.0215709 2.79738e-19)
(1.00466 -0.0316796 1.06068e-19)
(0.99017 -0.0321096 2.34028e-19)
(0.902956 -0.386546 -1.36564e-19)
(0.87757 -0.407736 -1.14048e-19)
(0.948022 -0.369555 0)
(0.933327 -0.394007 0)
(0.979946 -0.345416 0)
(0.972125 -0.370465 0)
(1.00368 -0.318635 0)
(1.00036 -0.34291 -4.52406e-20)
(1.02188 -0.291671 -4.24948e-20)
(1.02167 -0.314552 8.32984e-20)
(1.03597 -0.265771 -8.09869e-20)
(1.03796 -0.286941 -4.58765e-20)
(1.04686 -0.241667 9.76945e-20)
(1.0504 -0.260867 -3.7585e-20)
(1.05527 -0.219852 7.50862e-20)
(1.05979 -0.236845 1.67146e-19)
(1.06175 -0.200578 -1.27181e-19)
(1.06682 -0.215265 -6.53568e-20)
(1.06671 -0.18375 -1.73901e-19)
(1.07206 -0.196305 -5.84468e-21)
(1.07032 -0.168919 -1.12174e-19)
(1.07589 -0.179792 -1.12647e-19)
(1.07259 -0.155455 9.70967e-20)
(1.07845 -0.165206 5.36613e-20)
(1.07341 -0.142746 5.3392e-20)
(1.07968 -0.151876 2.66266e-21)
(1.07264 -0.130325 -8.64666e-20)
(1.07944 -0.139197 2.4286e-22)
(1.07022 -0.117904 -4.2463e-20)
(1.07759 -0.12673 -3.99496e-20)
(1.06613 -0.10537 -3.85514e-20)
(1.07404 -0.114226 0)
(1.06045 -0.092759 -7.6386e-20)
(1.0688 -0.101615 3.6751e-20)
(1.05336 -0.0802087 -3.95231e-20)
(1.06196 -0.0889767 7.28095e-20)
(1.04503 -0.0679094 3.48071e-20)
(1.05369 -0.0764639 -7.42387e-20)
(1.03568 -0.0560429 -1.03377e-19)
(1.04429 -0.0641085 -3.13538e-20)
(1.02545 -0.0447361 -3.0806e-20)
(1.03411 -0.0518169 -1.08973e-19)
(1.0145 -0.0340721 3.53194e-20)
(1.02268 -0.0407492 1.67546e-19)
(1.00411 -0.0248478 5.96724e-20)
(1.00731 -0.0358244 -2.78098e-21)
(0.991157 -0.0372922 1.88378e-19)
(0.906723 -0.415517 1.97822e-20)
(0.879324 -0.439197 1.93191e-20)
(0.956741 -0.395401 0)
(0.941185 -0.422209 8.36479e-20)
(0.992149 -0.368411 -4.43994e-20)
(0.984235 -0.395358 2.53053e-20)
(1.01812 -0.339221 3.55666e-20)
(1.0152 -0.364957 -4.52406e-20)
(1.03761 -0.310169 8.21457e-20)
(1.03811 -0.334215 4.73859e-20)
(1.0523 -0.282336 -2.61367e-21)
(1.05525 -0.304537 -8.52618e-21)
(1.06326 -0.256304 2.90171e-20)
(1.06794 -0.276535 -2.27222e-21)
(1.07129 -0.232488 2.95248e-20)
(1.07712 -0.25057 -3.9089e-21)
(1.07708 -0.211205 5.53177e-20)
(1.08354 -0.226968 1.14661e-19)
(1.0812 -0.192547 5.65236e-20)
(1.08789 -0.206002 -5.52779e-20)
(1.08398 -0.176255 5.16551e-20)
(1.09073 -0.187714 -1.5026e-21)
(1.08551 -0.161768 -4.03547e-20)
(1.09236 -0.171769 1.4857e-19)
(1.08571 -0.148435 -5.04809e-20)
(1.0928 -0.157546 -5.08897e-20)
(1.0844 -0.135689 4.70254e-20)