/*--------------------------------*- C++ -*----------------------------------*\
  =========                 |
  \\      /  F ield         | OpenFOAM: The Open Source CFD Toolbox
   \\    /   O peration     | Website:  https://openfoam.org
    \\  /    A nd           | Version:  11
     \\/     M anipulation  |
\*---------------------------------------------------------------------------*/
FoamFile
{
    format      ascii;
    class       surfaceScalarField;
    location    "0.96";
    object      meshPhi;
}
// * * * * * * * * * * * * * * * * * * * * * * * * * * * * * * * * * * * * * //

dimensions      [0 3 -1 0 0 0 0];

internalField   nonuniform List<scalar> 
5640
(
1.36913e-16
9.81747e-07
2.42042e-16
1.37445e-06
3.76887e-16
1.76715e-06
-1.33942e-15
2.15984e-06
-3.68172e-15
2.55254e-06
2.94524e-06
5.95096e-15
1.79834e-18
9.81747e-07
-3.88816e-16
1.37445e-06
-2.60418e-15
1.76715e-06
1.94344e-15
2.15984e-06
8.06595e-15
2.55254e-06
2.94524e-06
-9.02992e-15
-1.16485e-16
9.81747e-07
1.86343e-16
1.37445e-06
-1.56241e-15
1.76715e-06
-4.21266e-15
2.15984e-06
-7.49864e-15
2.55254e-06
2.94524e-06
7.72032e-16
8.69226e-17
9.81747e-07
-1.01933e-16
1.37445e-06
2.69307e-15
1.76715e-06
7.44272e-15
2.15984e-06
3.25967e-15
2.55254e-06
2.94524e-06
-2.79823e-15
-4.83714e-17
9.81747e-07
3.94892e-17
1.37445e-06
1.94267e-16
1.76715e-06
-1.8061e-15
2.15984e-06
-4.20836e-15
2.55254e-06
2.94524e-06
5.01332e-15
-1.8014e-16
9.81747e-07
4.29935e-18
1.37445e-06
-1.84779e-15
1.76715e-06
-3.88629e-15
2.15984e-06
3.15688e-15
2.55254e-06
2.94524e-06
4.98002e-16
2.5395e-16
9.81747e-07
2.55394e-16
1.37445e-06
2.06593e-15
1.76715e-06
4.504e-15
2.15984e-06
-2.31009e-15
2.55254e-06
2.94524e-06
5.40595e-16
2.16351e-17
9.81747e-07
-3.21759e-16
1.37445e-06
-1.14889e-15
1.76715e-06
-5.2856e-15
2.15984e-06
-3.76856e-16
2.55254e-06
2.94524e-06
-5.64006e-15
-1.4342e-16
9.81747e-07
1.66321e-16
1.37445e-06
4.19102e-15
1.76715e-06
6.34935e-15
2.15984e-06
-8.05767e-16
2.55254e-06
2.94524e-06
8.39027e-16
-6.88384e-17
9.81747e-07
-9.21334e-17
1.37445e-06
-2.7695e-15
1.76715e-06
-3.68847e-16
2.15984e-06
-1.45095e-15
2.55254e-06
2.94524e-06
-1.76904e-16
1.66315e-16
9.81747e-07
-8.87702e-17
1.37445e-06
5.69504e-16
1.76715e-06
-2.10346e-15
2.15984e-06
9.65986e-15
2.55254e-06
2.94524e-06
5.29001e-15
-1.77814e-16
9.81747e-07
-2.05945e-17
1.37445e-06
-3.4555e-16
1.76715e-06
-4.17271e-15
2.15984e-06
-2.62265e-15
2.55254e-06
2.94524e-06
5.3692e-15
1.77753e-16
9.81747e-07
2.04566e-17
1.37445e-06
3.45407e-16
1.76715e-06
4.17254e-15
2.15984e-06
2.62237e-15
2.55254e-06
2.94524e-06
-5.36964e-15
-1.66365e-16
9.81747e-07
8.85877e-17
1.37445e-06
-5.69776e-16
1.76715e-06
2.10344e-15
2.15984e-06
-9.66003e-15
2.55254e-06
2.94524e-06
-5.29039e-15
6.87773e-17
9.81747e-07
9.19853e-17
1.37445e-06
2.76925e-15
1.76715e-06
3.68716e-16
2.15984e-06
1.45061e-15
2.55254e-06
2.94524e-06
1.76478e-16
1.43357e-16
9.81747e-07
-1.66458e-16
1.37445e-06
-4.19124e-15
1.76715e-06
-6.34943e-15
2.15984e-06
8.05464e-16
2.55254e-06
2.94524e-06
-8.39449e-16
-2.16877e-17
9.81747e-07
3.21632e-16
1.37445e-06
1.14883e-15
1.76715e-06
5.28554e-15
2.15984e-06
3.76572e-16
2.55254e-06
2.94524e-06
5.63972e-15
-2.53992e-16
9.81747e-07
-2.55451e-16
1.37445e-06
-2.06605e-15
1.76715e-06
-4.50416e-15
2.15984e-06
2.30974e-15
2.55254e-06
2.94524e-06
-5.40934e-16
1.8009e-16
9.81747e-07
-4.32189e-18
1.37445e-06
1.84766e-15
1.76715e-06
3.88613e-15
2.15984e-06
-3.1572e-15
2.55254e-06
2.94524e-06
-4.98255e-16
4.83425e-17
9.81747e-07
-3.9559e-17
1.37445e-06
-1.94402e-16
1.76715e-06
1.80597e-15
2.15984e-06
4.20849e-15
2.55254e-06
2.94524e-06
-5.01366e-15
-8.70084e-17
9.81747e-07
1.01869e-16
1.37445e-06
-2.69326e-15
1.76715e-06
-7.44289e-15
2.15984e-06
-3.26003e-15
2.55254e-06
2.94524e-06
2.79772e-15
1.16436e-16
9.81747e-07
-1.8639e-16
1.37445e-06
1.56228e-15
1.76715e-06
4.21238e-15
2.15984e-06
7.49828e-15
2.55254e-06
2.94524e-06
-7.72543e-16
-1.85614e-18
9.81747e-07
3.88758e-16
1.37445e-06
2.60408e-15
1.76715e-06
-1.94378e-15
2.15984e-06
-8.06646e-15
2.55254e-06
2.94524e-06
9.02968e-15
-1.36967e-16
-2.42146e-16
-3.77116e-16
1.33927e-15
3.68131e-15
-5.95155e-15
-1.13361e-14
4.53785e-06
-4.53785e-06
-4.8148e-16
5.23599e-06
-5.23599e-06
-5.35768e-15
5.93412e-06
-5.93412e-06
-1.13047e-14
6.63225e-06
-6.63225e-06
4.86762e-15
7.33038e-06
-7.33038e-06
-1.11024e-15
8.02851e-06
-8.02851e-06
-8.15878e-15
8.72664e-06
-8.72664e-06
1.30444e-14
9.42478e-06
-9.42478e-06
5.94774e-15
1.01229e-05
-1.01229e-05
-1.9991e-15
1.0821e-05
-1.0821e-05
2.43852e-14
1.15192e-05
-1.15192e-05
1.61878e-14
1.22173e-05
-1.22173e-05
-3.27879e-14
1.29154e-05
-1.29154e-05
-3.05321e-15
1.36136e-05
-1.36136e-05
-1.44446e-14
1.43117e-05
-1.43117e-05
-2.69075e-14
1.50098e-05
-1.50098e-05
7.73868e-15
1.5708e-05
-1.5708e-05
-4.44095e-15
1.64061e-05
-1.64061e-05
-1.80028e-14
1.71042e-05
-1.71042e-05
2.18171e-14
1.78024e-05
-1.78024e-05
8.21192e-15
1.85005e-05
-1.85005e-05
-6.08616e-15
1.91986e-05
-1.91986e-05
3.89116e-14
1.98967e-05
-1.98967e-05
2.05949e-05
-2.05949e-05
9.39864e-15
4.53785e-06
5.20087e-16
5.23599e-06
7.52776e-15
5.93412e-06
-4.41272e-15
6.63225e-06
3.78176e-15
7.33038e-06
1.33842e-14
8.02851e-06
-2.1107e-15
8.72664e-06
8.52802e-15
9.42478e-06
-1.00285e-14
1.01229e-05
1.86439e-15
1.0821e-05
-2.02037e-14
1.15192e-05
-7.01476e-15
1.22173e-05
7.5111e-15
1.29154e-05
2.36057e-14
1.36136e-05
-2.04753e-15
1.43117e-05
1.48282e-14
1.50098e-05
-1.38836e-14
1.5708e-05
2.38866e-15
1.64061e-05
2.04065e-14
1.71042e-05
-7.02004e-15
1.78024e-05
1.20605e-14
1.85005e-05
-2.59453e-14
1.91986e-05
1.83946e-15
1.98967e-05
2.05949e-05
-8.67641e-15
4.53785e-06
1.22923e-14
5.23599e-06
1.88281e-15
5.93412e-06
8.90101e-15
6.63225e-06
-5.10924e-15
7.33038e-06
-2.19914e-14
8.02851e-06
1.22633e-14
8.72664e-06
-5.37507e-15
9.42478e-06
4.45506e-15
1.01229e-05
-1.43079e-14
1.0821e-05
-7.32892e-15
1.15192e-05
7.03958e-15
1.22173e-05
2.39951e-14
1.29154e-05
-7.55921e-15
1.36136e-05
9.79559e-15
1.43117e-05
-1.62406e-14
1.50098e-05
4.02929e-14
1.5708e-05
1.44426e-14
1.64061e-05
-1.37027e-14
1.71042e-05
-7.89919e-15
1.78024e-05
-3.92581e-14
1.85005e-05
4.27473e-14
1.91986e-05
-8.85713e-15
1.98967e-05
2.05949e-05
5.9856e-15
4.53785e-06
2.18828e-16
5.23599e-06
-6.43578e-15
5.93412e-06
6.06268e-15
6.63225e-06
-2.09332e-15
7.33038e-06
1.61757e-14
8.02851e-06
-1.88313e-14
8.72664e-06
-2.35222e-15
9.42478e-06
9.17082e-15
1.01229e-05
-4.71236e-15
1.0821e-05
2.16274e-14
1.15192e-05
-2.96472e-14
1.22173e-05
-9.28922e-15
1.29154e-05
-1.89104e-14
1.36136e-05
4.46601e-15
1.43117e-05
3.015e-14
1.50098e-05
-2.62207e-14
1.5708e-05
4.3094e-16
1.64061e-05
-2.11717e-14
1.71042e-05
1.8713e-14
1.78024e-05
-3.92553e-15
1.85005e-05
-2.91599e-14
1.91986e-05
1.52271e-14
1.98967e-05
2.05949e-05
6.7145e-15
4.53785e-06
-7.30709e-15
5.23599e-06
1.11006e-14
5.93412e-06
-4.24167e-15
6.63225e-06
1.51024e-14
7.33038e-06
-5.21026e-15
8.02851e-06
1.70143e-14
8.72664e-06
-3.9425e-15
9.42478e-06
-2.96877e-16
1.01229e-05
6.61019e-15
1.0821e-05
1.37049e-14
1.15192e-05
1.0182e-14
1.22173e-05
1.82176e-14
1.29154e-05
1.43659e-14
1.36136e-05
2.33406e-14
1.43117e-05
-2.53455e-14
1.50098e-05
2.90704e-14
1.5708e-05
-7.83212e-15
1.64061e-05
3.54154e-14
1.71042e-05
-4.50982e-15
1.78024e-05
4.23681e-14
1.85005e-05
-5.87343e-16
1.91986e-05
-8.73691e-15
1.98967e-05
2.05949e-05
-4.63088e-15
4.53785e-06
5.79735e-15
5.23599e-06
-1.6151e-14
5.93412e-06
-5.97477e-15
6.63225e-06
-8.55491e-15
7.33038e-06
4.22392e-15
8.02851e-06
-8.18697e-15
8.72664e-06
6.99848e-15
9.42478e-06
-2.42294e-14
1.01229e-05
-7.76979e-15
1.0821e-05
-2.27659e-14
1.15192e-05
8.34722e-15
1.22173e-05
-7.40515e-15
1.29154e-05
2.82636e-14
1.36136e-05
-4.57132e-14
1.43117e-05
-8.22344e-15
1.50098e-05
-2.82284e-14
1.5708e-05
-2.34091e-15
1.64061e-05
-6.94558e-15
1.71042e-05
2.2147e-14
1.78024e-05
-3.41139e-14
1.85005e-05
-3.74633e-15
1.91986e-05
-3.23483e-14
1.98967e-05
2.05949e-05
-8.92529e-15
4.53785e-06
-2.28923e-15
5.23599e-06
-2.22464e-15
5.93412e-06
6.61631e-15
6.63225e-06
-3.38856e-15
7.33038e-06
-3.90791e-15
8.02851e-06
-6.41923e-15
8.72664e-06
-7.15921e-15
9.42478e-06
6.80981e-15
1.01229e-05
6.98161e-15
1.0821e-05
-9.06674e-15
1.15192e-05
6.75656e-15
1.22173e-05
-2.88924e-14
1.29154e-05
-1.22345e-14
1.36136e-05
4.80171e-15
1.43117e-05
2.50235e-14
1.50098e-05
3.85422e-15
1.5708e-05
3.60438e-15
1.64061e-05
-2.04867e-14
1.71042e-05
-2.17637e-14
1.78024e-05
3.46472e-15
1.85005e-05
2.90345e-14
1.91986e-05
-1.66509e-15
1.98967e-05
2.05949e-05
6.21548e-15
4.53785e-06
-3.8794e-15
5.23599e-06
1.54216e-14
5.93412e-06
-7.06532e-15
6.63225e-06
-2.21138e-15
7.33038e-06
1.42785e-15
8.02851e-06
-5.49401e-15
8.72664e-06
1.32255e-14
9.42478e-06
6.04505e-15
1.01229e-05
-1.74509e-14
1.0821e-05
2.08844e-14
1.15192e-05
-2.14476e-14
1.22173e-05
1.91325e-14
1.29154e-05
-7.31578e-15
1.36136e-05
3.84867e-14
1.43117e-05
-1.29252e-14
1.50098e-05
-1.88706e-15
1.5708e-05
5.71142e-15
1.64061e-05
-7.58771e-15
1.71042e-05
2.76572e-14
1.78024e-05
1.40929e-14
1.85005e-05
-5.31431e-14
1.91986e-05
3.9084e-14
1.98967e-05
2.05949e-05
-1.49888e-15
4.53785e-06
1.08966e-14
5.23599e-06
-6.59976e-15
5.93412e-06
7.26488e-15
6.63225e-06
6.17391e-15
7.33038e-06
2.4877e-15
8.02851e-06
-9.65288e-16
8.72664e-06
-4.36642e-15
9.42478e-06
-8.90185e-15
1.01229e-05
1.38609e-14
1.0821e-05
1.0689e-14
1.15192e-05
6.24967e-15
1.22173e-05
-1.28293e-16
1.29154e-05
-3.44094e-15
1.36136e-05
-1.10432e-14
1.43117e-05
-1.7767e-14
1.50098e-05
1.76771e-14
1.5708e-05
9.9508e-15
1.64061e-05
3.32886e-15
1.71042e-05
-3.29717e-14
1.78024e-05
-1.04285e-14
1.85005e-05
3.00665e-14
1.91986e-05
-5.99989e-14
1.98967e-05
2.05949e-05
5.16994e-15
4.53785e-06
-7.45591e-15
5.23599e-06
-7.57474e-16
5.93412e-06
6.83847e-15
6.63225e-06
-9.97497e-15
7.33038e-06
-1.66568e-15
8.02851e-06
9.21848e-15
8.72664e-06
-1.34592e-14
9.42478e-06
2.32199e-14
1.01229e-05
1.04697e-14
1.0821e-05
-1.72759e-14
1.15192e-05
-3.0299e-15
1.22173e-05
1.13954e-14
1.29154e-05
-1.98192e-14
1.36136e-05
-4.67998e-15
1.43117e-05
5.03034e-14
1.50098e-05
-2.40489e-14
1.5708e-05
-6.66271e-15
1.64061e-05
1.42573e-14
1.71042e-05
1.64478e-15
1.78024e-05
-6.81282e-15
1.85005e-05
1.44448e-14
1.91986e-05
5.07507e-14
1.98967e-05
2.05949e-05
-6.19768e-15
4.53785e-06
2.8188e-17
5.23599e-06
1.15111e-14
5.93412e-06
-2.06267e-14
6.63225e-06
5.36642e-15
7.33038e-06
1.22022e-15
8.02851e-06
-4.72355e-17
8.72664e-06
1.23931e-14
9.42478e-06
-1.3228e-14
1.01229e-05
-1.88974e-14
1.0821e-05
-4.96715e-15
1.15192e-05
-7.1567e-15
1.22173e-05
-1.48897e-14
1.29154e-05
3.53372e-14
1.36136e-05
-3.87741e-19
1.43117e-05
-4.31405e-14
1.50098e-05
1.35595e-14
1.5708e-05
-2.82616e-14
1.64061e-05
2.45061e-15
1.71042e-05
-1.02442e-14
1.78024e-05
2.38006e-14
1.85005e-05
1.38745e-14
1.91986e-05
-4.5569e-14
1.98967e-05
2.05949e-05
-1.90699e-15
4.53785e-06
1.13041e-15
5.23599e-06
-2.16623e-14
5.93412e-06
9.62352e-15
6.63225e-06
1.51368e-14
7.33038e-06
-1.40656e-14
8.02851e-06
8.09277e-15
8.72664e-06
-2.69613e-14
9.42478e-06
-1.96678e-15
1.01229e-05
2.97162e-14
1.0821e-05
-1.17491e-14
1.15192e-05
1.98658e-14
1.22173e-05
-2.74477e-14
1.29154e-05
-2.06172e-14
1.36136e-05
1.60398e-14
1.43117e-05
-4.61817e-15
1.50098e-05
4.68763e-15
1.5708e-05
4.79624e-14
1.64061e-05
-1.37415e-14
1.71042e-05
3.23711e-14
1.78024e-05
-3.51872e-14
1.85005e-05
-2.49118e-14
1.91986e-05
7.19091e-14
1.98967e-05
2.05949e-05
1.90642e-15
4.53785e-06
-1.1308e-15
5.23599e-06
2.16614e-14
5.93412e-06
-9.62444e-15
6.63225e-06
-1.5138e-14
7.33038e-06
1.40646e-14
8.02851e-06
-8.09418e-15
8.72664e-06
2.6959e-14
9.42478e-06
1.96458e-15
1.01229e-05
-2.97183e-14
1.0821e-05
1.17424e-14
1.15192e-05
-1.98692e-14
1.22173e-05
2.74427e-14
1.29154e-05
2.06141e-14
1.36136e-05
-1.60431e-14
1.43117e-05
4.60943e-15
1.50098e-05
-4.69334e-15
1.5708e-05
-4.79704e-14
1.64061e-05
1.37343e-14
1.71042e-05
-3.23767e-14
1.78024e-05
3.51846e-14
1.85005e-05
2.49017e-14
1.91986e-05
-7.19205e-14
1.98967e-05
2.05949e-05
6.19704e-15
4.53785e-06
-2.87044e-17
5.23599e-06
-1.15121e-14
5.93412e-06
2.06255e-14
6.63225e-06
-5.36749e-15
7.33038e-06
-1.22242e-15
8.02851e-06
4.63001e-17
8.72664e-06
-1.2395e-14
9.42478e-06
1.32246e-14
1.01229e-05
1.88931e-14
1.0821e-05
4.96207e-15
1.15192e-05
7.15216e-15
1.22173e-05
1.48857e-14
1.29154e-05
-3.53417e-14
1.36136e-05
-1.40181e-18
1.43117e-05
4.31344e-14
1.50098e-05
-1.35642e-14
1.5708e-05
2.82498e-14
1.64061e-05
-2.45885e-15
1.71042e-05
1.02344e-14
1.78024e-05
-2.38082e-14
1.85005e-05
-1.3877e-14
1.91986e-05
4.55584e-14
1.98967e-05
2.05949e-05
-5.17024e-15
4.53785e-06
7.4553e-15
5.23599e-06
7.56078e-16
5.93412e-06
-6.84023e-15
6.63225e-06
9.97364e-15
7.33038e-06
1.66358e-15
8.02851e-06
-9.22006e-15
8.72664e-06
1.34589e-14
9.42478e-06
-2.32227e-14
1.01229e-05
-1.0473e-14
1.0821e-05
1.7272e-14
1.15192e-05
3.02431e-15
1.22173e-05
-1.14006e-14
1.29154e-05
1.98128e-14
1.36136e-05
4.67744e-15
1.43117e-05
-5.03077e-14
1.50098e-05
2.4043e-14
1.5708e-05
6.65434e-15
1.64061e-05
-1.42653e-14
1.71042e-05
-1.65569e-15
1.78024e-05
6.80583e-15
1.85005e-05
-1.44465e-14
1.91986e-05
-5.07642e-14
1.98967e-05
2.05949e-05
1.49866e-15
4.53785e-06
-1.08974e-14
5.23599e-06
6.59892e-15
5.93412e-06
-7.26624e-15
6.63225e-06
-6.17583e-15
7.33038e-06
-2.48963e-15
8.02851e-06
9.64131e-16
8.72664e-06
4.36447e-15
9.42478e-06
8.89953e-15
1.01229e-05
-1.38644e-14
1.0821e-05
-1.06913e-14
1.15192e-05
-6.25318e-15
1.22173e-05
1.26036e-16
1.29154e-05
3.43705e-15
1.36136e-05
1.10417e-14
1.43117e-05
1.77601e-14
1.50098e-05
-1.76851e-14
1.5708e-05
-9.9585e-15
1.64061e-05
-3.33015e-15
1.71042e-05
3.2964e-14
1.78024e-05
1.04205e-14
1.85005e-05
-3.00738e-14
1.91986e-05
5.9993e-14
1.98967e-05
2.05949e-05
-6.21578e-15
4.53785e-06
3.87869e-15
5.23599e-06
-1.54227e-14
5.93412e-06
7.06505e-15
6.63225e-06
2.20967e-15
7.33038e-06
-1.43015e-15
8.02851e-06
5.49203e-15
8.72664e-06
-1.32261e-14
9.42478e-06
-6.04703e-15
1.01229e-05
1.74475e-14
1.0821e-05
-2.08884e-14
1.15192e-05
2.14429e-14
1.22173e-05
-1.91364e-14
1.29154e-05
7.31442e-15
1.36136e-05
-3.84889e-14
1.43117e-05
1.29172e-14
1.50098e-05
1.8782e-15
1.5708e-05
-5.7206e-15
1.64061e-05
7.58304e-15
1.71042e-05
-2.76632e-14
1.78024e-05
-1.41023e-14
1.85005e-05
5.31384e-14
1.91986e-05
-3.90881e-14
1.98967e-05
2.05949e-05
8.92482e-15
4.53785e-06
2.28837e-15
5.23599e-06
2.22367e-15
5.93412e-06
-6.61712e-15
6.63225e-06
3.38735e-15
7.33038e-06
3.90646e-15
8.02851e-06
6.41739e-15
8.72664e-06
7.15796e-15
9.42478e-06
-6.81139e-15
1.01229e-05
-6.98467e-15
1.0821e-05
9.06219e-15
1.15192e-05
-6.76137e-15
1.22173e-05
2.88871e-14
1.29154e-05
1.22324e-14
1.36136e-05
-4.80604e-15
1.43117e-05
-2.50303e-14
1.50098e-05
-3.86574e-15
1.5708e-05
-3.61092e-15
1.64061e-05
2.04811e-14
1.71042e-05
2.17534e-14
1.78024e-05
-3.47145e-15
1.85005e-05
-2.9044e-14
1.91986e-05
1.65873e-15
1.98967e-05
2.05949e-05
4.63016e-15
4.53785e-06
-5.79824e-15
5.23599e-06
1.61502e-14
5.93412e-06
5.97362e-15
6.63225e-06
8.55502e-15
7.33038e-06
-4.22477e-15
8.02851e-06
8.18663e-15
8.72664e-06
-7.00114e-15
9.42478e-06
2.42282e-14
1.01229e-05
7.76798e-15
1.0821e-05
2.27631e-14
1.15192e-05
-8.35221e-15
1.22173e-05
7.40093e-15
1.29154e-05
-2.82696e-14
1.36136e-05
4.57073e-14
1.43117e-05
8.2192e-15
1.50098e-05
2.82224e-14
1.5708e-05
2.33556e-15
1.64061e-05
6.94187e-15
1.71042e-05
-2.21548e-14
1.78024e-05
3.41048e-14
1.85005e-05
3.73435e-15
1.91986e-05
3.23398e-14
1.98967e-05
2.05949e-05
-6.71556e-15
4.53785e-06
7.30631e-15
5.23599e-06
-1.11015e-14
5.93412e-06
4.24021e-15
6.63225e-06
-1.5102e-14
7.33038e-06
5.20894e-15
8.02851e-06
-1.70144e-14
8.72664e-06
3.93906e-15
9.42478e-06
2.93193e-16
1.01229e-05
-6.6128e-15
1.0821e-05
-1.37083e-14
1.15192e-05
-1.01868e-14
1.22173e-05
-1.82205e-14
1.29154e-05
-1.4371e-14
1.36136e-05
-2.33429e-14
1.43117e-05
2.53393e-14
1.50098e-05
-2.90782e-14
1.5708e-05
7.82511e-15
1.64061e-05
-3.54195e-14
1.71042e-05
4.50716e-15
1.78024e-05
-4.23776e-14
1.85005e-05
5.77278e-16
1.91986e-05
8.72475e-15
1.98967e-05
2.05949e-05
-5.98621e-15
4.53785e-06
-2.19397e-16
5.23599e-06
6.43492e-15
5.93412e-06
-6.06474e-15
6.63225e-06
2.09142e-15
7.33038e-06
-1.6178e-14
8.02851e-06
1.88301e-14
8.72664e-06
2.34917e-15
9.42478e-06
-9.17347e-15
1.01229e-05
4.7091e-15
1.0821e-05
-2.16294e-14
1.15192e-05
2.9642e-14
1.22173e-05
9.28656e-15
1.29154e-05
1.89039e-14
1.36136e-05
-4.47128e-15
1.43117e-05
-3.01611e-14
1.50098e-05
2.6215e-14
1.5708e-05
-4.38167e-16
1.64061e-05
2.1168e-14
1.71042e-05
-1.87183e-14
1.78024e-05
3.91611e-15
1.85005e-05
2.91524e-14
1.91986e-05
-1.52402e-14
1.98967e-05
2.05949e-05
8.67577e-15
4.53785e-06
-1.22927e-14
5.23599e-06
-1.88362e-15
5.93412e-06
-8.90336e-15
6.63225e-06
5.10754e-15
7.33038e-06
2.19902e-14
8.02851e-06
-1.22659e-14
8.72664e-06
5.37374e-15
9.42478e-06
-4.45694e-15
1.01229e-05
1.43033e-14
1.0821e-05
7.32311e-15
1.15192e-05
-7.04252e-15
1.22173e-05
-2.39981e-14
1.29154e-05
7.55148e-15
1.36136e-05
-9.80361e-15
1.43117e-05
1.62339e-14
1.50098e-05
-4.02967e-14
1.5708e-05
-1.44489e-14
1.64061e-05
1.36976e-14
1.71042e-05
7.89126e-15
1.78024e-05
3.92489e-14
1.85005e-05
-4.27593e-14
1.91986e-05
8.84296e-15
1.98967e-05
2.05949e-05
-9.39894e-15
4.53785e-06
-5.20829e-16
5.23599e-06
-7.52909e-15
5.93412e-06
4.41058e-15
6.63225e-06
-3.78362e-15
7.33038e-06
-1.33849e-14
8.02851e-06
2.10862e-15
8.72664e-06
-8.52903e-15
9.42478e-06
1.00263e-14
1.01229e-05
-1.86904e-15
1.0821e-05
2.02004e-14
1.15192e-05
7.01167e-15
1.22173e-05
-7.51348e-15
1.29154e-05
-2.3613e-14
1.36136e-05
2.03884e-15
1.43117e-05
-1.48366e-14
1.50098e-05
1.3875e-14
1.5708e-05
-2.3965e-15
1.64061e-05
-2.04127e-14
1.71042e-05
7.01067e-15
1.78024e-05
-1.20722e-14
1.85005e-05
2.59352e-14
1.91986e-05
-1.84551e-15
1.98967e-05
2.05949e-05
1.13358e-14
4.53785e-06
4.80582e-16
5.23599e-06
5.35674e-15
5.93412e-06
1.13028e-14
6.63225e-06
-4.87e-15
7.33038e-06
1.10859e-15
8.02851e-06
8.15778e-15
8.72664e-06
-1.30462e-14
9.42478e-06
-5.95054e-15
1.01229e-05
1.99454e-15
1.0821e-05
-2.43891e-14
1.15192e-05
-1.61909e-14
1.22173e-05
3.27835e-14
1.29154e-05
3.05256e-15
1.36136e-05
1.44371e-14
1.43117e-05
2.68971e-14
1.50098e-05
-7.73999e-15
1.5708e-05
4.43437e-15
1.64061e-05
1.79983e-14
1.71042e-05
-2.18236e-14
1.78024e-05
-8.21675e-15
1.85005e-05
6.07647e-15
1.91986e-05
-3.89263e-14
1.98967e-05
2.05949e-05
1.3692e-16
9.81747e-07
2.42025e-16
1.37445e-06
3.76914e-16
1.76715e-06
-1.33939e-15
2.15984e-06
-3.68179e-15
2.55254e-06
2.94524e-06
5.95103e-15
1.79834e-18
9.81747e-07
-3.88816e-16
1.37445e-06
-2.60418e-15
1.76715e-06
1.94344e-15
2.15984e-06
8.06595e-15
2.55254e-06
2.94524e-06
-9.02992e-15
-1.16485e-16
9.81747e-07
1.86343e-16
1.37445e-06
-1.56241e-15
1.76715e-06
-4.21266e-15
2.15984e-06
-7.49864e-15
2.55254e-06
2.94524e-06
7.72032e-16
8.69226e-17
9.81747e-07
-1.01933e-16
1.37445e-06
2.69307e-15
1.76715e-06
7.44272e-15
2.15984e-06
3.25967e-15
2.55254e-06
2.94524e-06
-2.79823e-15
-4.83714e-17
9.81747e-07
3.94892e-17
1.37445e-06
1.94267e-16
1.76715e-06
-1.8061e-15
2.15984e-06
-4.20836e-15
2.55254e-06
2.94524e-06
5.01332e-15
-1.8014e-16
9.81747e-07
4.29935e-18
1.37445e-06
-1.84779e-15
1.76715e-06
-3.88629e-15
2.15984e-06
3.15688e-15
2.55254e-06
2.94524e-06
4.98002e-16
2.5395e-16
9.81747e-07
2.55394e-16
1.37445e-06
2.06593e-15
1.76715e-06
4.504e-15
2.15984e-06
-2.31009e-15
2.55254e-06
2.94524e-06
5.40595e-16
2.16351e-17
9.81747e-07
-3.21759e-16
1.37445e-06
-1.14889e-15
1.76715e-06
-5.2856e-15
2.15984e-06
-3.76856e-16
2.55254e-06
2.94524e-06
-5.64006e-15
-1.4342e-16
9.81747e-07
1.66321e-16
1.37445e-06
4.19102e-15
1.76715e-06
6.34935e-15
2.15984e-06
-8.05767e-16
2.55254e-06
2.94524e-06
8.39027e-16
-6.88384e-17
9.81747e-07
-9.21334e-17
1.37445e-06
-2.7695e-15
1.76715e-06
-3.68847e-16
2.15984e-06
-1.45095e-15
2.55254e-06
2.94524e-06
-1.76904e-16
1.66315e-16
9.81747e-07
-8.87702e-17
1.37445e-06
5.69504e-16
1.76715e-06
-2.10346e-15
2.15984e-06
9.65986e-15
2.55254e-06
2.94524e-06
5.29001e-15
-1.77814e-16
9.81747e-07
-2.05945e-17
1.37445e-06
-3.4555e-16
1.76715e-06
-4.17271e-15
2.15984e-06
-2.62265e-15
2.55254e-06
2.94524e-06
5.3692e-15
1.77753e-16
9.81747e-07
2.04566e-17
1.37445e-06
3.45407e-16
1.76715e-06
4.17254e-15
2.15984e-06
2.62237e-15
2.55254e-06
2.94524e-06
-5.36964e-15
-1.66365e-16
9.81747e-07
8.85877e-17
1.37445e-06
-5.69776e-16
1.76715e-06
2.10344e-15
2.15984e-06
-9.66003e-15
2.55254e-06
2.94524e-06
-5.29039e-15
6.87773e-17
9.81747e-07
9.19853e-17
1.37445e-06
2.76925e-15
1.76715e-06
3.68716e-16
2.15984e-06
1.45061e-15
2.55254e-06
2.94524e-06
1.76478e-16
1.43357e-16
9.81747e-07
-1.66458e-16
1.37445e-06
-4.19124e-15
1.76715e-06
-6.34943e-15
2.15984e-06
8.05464e-16
2.55254e-06
2.94524e-06
-8.39449e-16
-2.16877e-17
9.81747e-07
3.21632e-16
1.37445e-06
1.14883e-15
1.76715e-06
5.28554e-15
2.15984e-06
3.76572e-16
2.55254e-06
2.94524e-06
5.63972e-15
-2.53992e-16
9.81747e-07
-2.55451e-16
1.37445e-06
-2.06605e-15
1.76715e-06
-4.50416e-15
2.15984e-06
2.30974e-15
2.55254e-06
2.94524e-06
-5.40934e-16
1.8009e-16
9.81747e-07
-4.32189e-18
1.37445e-06
1.84766e-15
1.76715e-06
3.88613e-15
2.15984e-06
-3.1572e-15
2.55254e-06
2.94524e-06
-4.98255e-16
4.83425e-17
9.81747e-07
-3.9559e-17
1.37445e-06
-1.94402e-16
1.76715e-06
1.80597e-15
2.15984e-06
4.20849e-15
2.55254e-06
2.94524e-06
-5.01366e-15
-8.70084e-17
9.81747e-07
1.01869e-16
1.37445e-06
-2.69326e-15
1.76715e-06
-7.44289e-15
2.15984e-06
-3.26003e-15
2.55254e-06
2.94524e-06
2.79772e-15
1.16436e-16
9.81747e-07
-1.8639e-16
1.37445e-06
1.56228e-15
1.76715e-06
4.21238e-15
2.15984e-06
7.49828e-15
2.55254e-06
2.94524e-06
-7.72543e-16
-1.85614e-18
9.81747e-07
3.88758e-16
1.37445e-06
2.60408e-15
1.76715e-06
-1.94378e-15
2.15984e-06
-8.06646e-15
2.55254e-06
2.94524e-06
9.02968e-15
-1.36982e-16
-2.42164e-16
-3.77115e-16
1.33919e-15
3.68111e-15
-5.95163e-15
-1.13362e-14
4.53785e-06
-4.81485e-16
5.23599e-06
-5.35757e-15
5.93412e-06
-1.13045e-14
6.63225e-06
4.8676e-15
7.33038e-06
-1.11053e-15
8.02851e-06
-8.15944e-15
8.72664e-06
1.30433e-14
9.42478e-06
5.94774e-15
1.01229e-05
-1.99785e-15
1.0821e-05
2.43856e-14
1.15192e-05
1.61887e-14
1.22173e-05
-3.27869e-14
1.29154e-05
-3.05216e-15
1.36136e-05
-1.44446e-14
1.43117e-05
-2.69075e-14
1.50098e-05
7.73868e-15
1.5708e-05
-4.44212e-15
1.64061e-05
-1.80029e-14
1.71042e-05
2.18197e-14
1.78024e-05
8.20927e-15
1.85005e-05
-6.0863e-15
1.91986e-05
3.89146e-14
1.98967e-05
2.05949e-05
9.39864e-15
4.53785e-06
5.20087e-16
5.23599e-06
7.52776e-15
5.93412e-06
-4.41272e-15
6.63225e-06
3.78176e-15
7.33038e-06
1.33842e-14
8.02851e-06
-2.1107e-15
8.72664e-06
8.52802e-15
9.42478e-06
-1.00285e-14
1.01229e-05
1.86439e-15
1.0821e-05
-2.02037e-14
1.15192e-05
-7.01476e-15
1.22173e-05
7.5111e-15
1.29154e-05
2.36057e-14
1.36136e-05
-2.04753e-15
1.43117e-05
1.48282e-14
1.50098e-05
-1.38836e-14
1.5708e-05
2.38866e-15
1.64061e-05
2.04065e-14
1.71042e-05
-7.02004e-15
1.78024e-05
1.20605e-14
1.85005e-05
-2.59453e-14
1.91986e-05
1.83946e-15
1.98967e-05
2.05949e-05
-8.67641e-15
4.53785e-06
1.22923e-14
5.23599e-06
1.88281e-15
5.93412e-06
8.90101e-15
6.63225e-06
-5.10924e-15
7.33038e-06
-2.19914e-14
8.02851e-06
1.22633e-14
8.72664e-06
-5.37507e-15
9.42478e-06
4.45506e-15
1.01229e-05
-1.43079e-14
1.0821e-05
-7.32892e-15
1.15192e-05
7.03958e-15
1.22173e-05
2.39951e-14
1.29154e-05
-7.55921e-15
1.36136e-05
9.79559e-15
1.43117e-05
-1.62406e-14
1.50098e-05
4.02929e-14
1.5708e-05
1.44426e-14
1.64061e-05
-1.37027e-14
1.71042e-05
-7.89919e-15
1.78024e-05
-3.92581e-14
1.85005e-05
4.27473e-14
1.91986e-05
-8.85713e-15
1.98967e-05
2.05949e-05
5.9856e-15
4.53785e-06
2.18828e-16
5.23599e-06
-6.43578e-15
5.93412e-06
6.06268e-15
6.63225e-06
-2.09332e-15
7.33038e-06
1.61757e-14
8.02851e-06
-1.88313e-14
8.72664e-06
-2.35222e-15
9.42478e-06
9.17082e-15
1.01229e-05
-4.71236e-15
1.0821e-05
2.16274e-14
1.15192e-05
-2.96472e-14
1.22173e-05
-9.28922e-15
1.29154e-05
-1.89104e-14
1.36136e-05
4.46601e-15
1.43117e-05
3.015e-14
1.50098e-05
-2.62207e-14
1.5708e-05
4.3094e-16
1.64061e-05
-2.11717e-14
1.71042e-05
1.8713e-14
1.78024e-05
-3.92553e-15
1.85005e-05
-2.91599e-14
1.91986e-05
1.52271e-14
1.98967e-05
2.05949e-05
6.7145e-15
4.53785e-06
-7.30709e-15
5.23599e-06
1.11006e-14
5.93412e-06
-4.24167e-15
6.63225e-06
1.51024e-14
7.33038e-06
-5.21026e-15
8.02851e-06
1.70143e-14
8.72664e-06
-3.9425e-15
9.42478e-06
-2.96877e-16
1.01229e-05
6.61019e-15
1.0821e-05
1.37049e-14
1.15192e-05
1.0182e-14
1.22173e-05
1.82176e-14
1.29154e-05
1.43659e-14
1.36136e-05
2.33406e-14
1.43117e-05
-2.53455e-14
1.50098e-05
2.90704e-14
1.5708e-05
-7.83212e-15
1.64061e-05
3.54154e-14
1.71042e-05
-4.50982e-15
1.78024e-05
4.23681e-14
1.85005e-05
-5.87343e-16
1.91986e-05
-8.73691e-15
1.98967e-05
2.05949e-05
-4.63088e-15
4.53785e-06
5.79735e-15
5.23599e-06
-1.6151e-14
5.93412e-06
-5.97477e-15
6.63225e-06
-8.55491e-15
7.33038e-06
4.22392e-15
8.02851e-06
-8.18697e-15
8.72664e-06
6.99848e-15
9.42478e-06
-2.42294e-14
1.01229e-05
-7.76979e-15
1.0821e-05
-2.27659e-14
1.15192e-05
8.34722e-15
1.22173e-05
-7.40515e-15
1.29154e-05
2.82636e-14
1.36136e-05
-4.57132e-14
1.43117e-05
-8.22344e-15
1.50098e-05
-2.82284e-14
1.5708e-05
-2.34091e-15
1.64061e-05
-6.94558e-15
1.71042e-05
2.2147e-14
1.78024e-05
-3.41139e-14
1.85005e-05
-3.74633e-15
1.91986e-05
-3.23483e-14
1.98967e-05
2.05949e-05
-8.92529e-15
4.53785e-06
-2.28923e-15
5.23599e-06
-2.22464e-15
5.93412e-06
6.61631e-15
6.63225e-06
-3.38856e-15
7.33038e-06
-3.90791e-15
8.02851e-06
-6.41923e-15
8.72664e-06
-7.15921e-15
9.42478e-06
6.80981e-15
1.01229e-05
6.98161e-15
1.0821e-05
-9.06674e-15
1.15192e-05
6.75656e-15
1.22173e-05
-2.88924e-14
1.29154e-05
-1.22345e-14
1.36136e-05
4.80171e-15
1.43117e-05
2.50235e-14
1.50098e-05
3.85422e-15
1.5708e-05
3.60438e-15
1.64061e-05
-2.04867e-14
1.71042e-05
-2.17637e-14
1.78024e-05
3.46472e-15
1.85005e-05
2.90345e-14
1.91986e-05
-1.66509e-15
1.98967e-05
2.05949e-05
6.21548e-15
4.53785e-06
-3.8794e-15
5.23599e-06
1.54216e-14
5.93412e-06
-7.06532e-15
6.63225e-06
-2.21138e-15
7.33038e-06
1.42785e-15
8.02851e-06
-5.49401e-15
8.72664e-06
1.32255e-14
9.42478e-06
6.04505e-15
1.01229e-05
-1.74509e-14
1.0821e-05
2.08844e-14
1.15192e-05
-2.14476e-14
1.22173e-05
1.91325e-14
1.29154e-05
-7.31578e-15
1.36136e-05
3.84867e-14
1.43117e-05
-1.29252e-14
1.50098e-05
-1.88706e-15
1.5708e-05
5.71142e-15
1.64061e-05
-7.58771e-15
1.71042e-05
2.76572e-14
1.78024e-05
1.40929e-14
1.85005e-05
-5.31431e-14
1.91986e-05
3.9084e-14
1.98967e-05
2.05949e-05
-1.49888e-15
4.53785e-06
1.08966e-14
5.23599e-06
-6.59976e-15
5.93412e-06
7.26488e-15
6.63225e-06
6.17391e-15
7.33038e-06
2.4877e-15
8.02851e-06
-9.65288e-16
8.72664e-06
-4.36642e-15
9.42478e-06
-8.90185e-15
1.01229e-05
1.38609e-14
1.0821e-05
1.0689e-14
1.15192e-05
6.24967e-15
1.22173e-05
-1.28293e-16
1.29154e-05
-3.44094e-15
1.36136e-05
-1.10432e-14
1.43117e-05
-1.7767e-14
1.50098e-05
1.76771e-14
1.5708e-05
9.9508e-15
1.64061e-05
3.32886e-15
1.71042e-05
-3.29717e-14
1.78024e-05
-1.04285e-14
1.85005e-05
3.00665e-14
1.91986e-05
-5.99989e-14
1.98967e-05
2.05949e-05
5.16994e-15
4.53785e-06
-7.45591e-15
5.23599e-06
-7.57474e-16
5.93412e-06
6.83847e-15
6.63225e-06
-9.97497e-15
7.33038e-06
-1.66568e-15
8.02851e-06
9.21848e-15
8.72664e-06
-1.34592e-14
9.42478e-06
2.32199e-14
1.01229e-05
1.04697e-14
1.0821e-05
-1.72759e-14
1.15192e-05
-3.0299e-15
1.22173e-05
1.13954e-14
1.29154e-05
-1.98192e-14
1.36136e-05
-4.67998e-15
1.43117e-05
5.03034e-14
1.50098e-05
-2.40489e-14
1.5708e-05
-6.66271e-15
1.64061e-05
1.42573e-14
1.71042e-05
1.64478e-15
1.78024e-05
-6.81282e-15
1.85005e-05
1.44448e-14
1.91986e-05
5.07507e-14
1.98967e-05
2.05949e-05
-6.19768e-15
4.53785e-06
2.8188e-17
5.23599e-06
1.15111e-14
5.93412e-06
-2.06267e-14
6.63225e-06
5.36642e-15
7.33038e-06
1.22022e-15
8.02851e-06
-4.72355e-17
8.72664e-06
1.23931e-14
9.42478e-06
-1.3228e-14
1.01229e-05
-1.88974e-14
1.0821e-05
-4.96715e-15
1.15192e-05
-7.1567e-15
1.22173e-05
-1.48897e-14
1.29154e-05
3.53372e-14
1.36136e-05
-3.87741e-19
1.43117e-05
-4.31405e-14
1.50098e-05
1.35595e-14
1.5708e-05
-2.82616e-14
1.64061e-05
2.45061e-15
1.71042e-05
-1.02442e-14
1.78024e-05
2.38006e-14
1.85005e-05
1.38745e-14
1.91986e-05
-4.5569e-14
1.98967e-05
2.05949e-05
-1.90699e-15
4.53785e-06
1.13041e-15
5.23599e-06
-2.16623e-14
5.93412e-06
9.62352e-15
6.63225e-06
1.51368e-14
7.33038e-06
-1.40656e-14
8.02851e-06
8.09277e-15
8.72664e-06
-2.69613e-14
9.42478e-06
-1.96678e-15
1.01229e-05
2.97162e-14
1.0821e-05
-1.17491e-14
1.15192e-05
1.98658e-14
1.22173e-05
-2.74477e-14
1.29154e-05
-2.06172e-14
1.36136e-05
1.60398e-14
1.43117e-05
-4.61817e-15
1.50098e-05
4.68763e-15
1.5708e-05
4.79624e-14
1.64061e-05
-1.37415e-14
1.71042e-05
3.23711e-14
1.78024e-05
-3.51872e-14
1.85005e-05
-2.49118e-14
1.91986e-05
7.19091e-14
1.98967e-05
2.05949e-05
1.90642e-15
4.53785e-06
-1.1308e-15
5.23599e-06
2.16614e-14
5.93412e-06
-9.62444e-15
6.63225e-06
-1.5138e-14
7.33038e-06
1.40646e-14
8.02851e-06
-8.09418e-15
8.72664e-06
2.6959e-14
9.42478e-06
1.96458e-15
1.01229e-05
-2.97183e-14
1.0821e-05
1.17424e-14
1.15192e-05
-1.98692e-14
1.22173e-05
2.74427e-14
1.29154e-05
2.06141e-14
1.36136e-05
-1.60431e-14
1.43117e-05
4.60943e-15
1.50098e-05
-4.69334e-15
1.5708e-05
-4.79704e-14
1.64061e-05
1.37343e-14
1.71042e-05
-3.23767e-14
1.78024e-05
3.51846e-14
1.85005e-05
2.49017e-14
1.91986e-05
-7.19205e-14
1.98967e-05
2.05949e-05
6.19704e-15
4.53785e-06
-2.87044e-17
5.23599e-06
-1.15121e-14
5.93412e-06
2.06255e-14
6.63225e-06
-5.36749e-15
7.33038e-06
-1.22242e-15
8.02851e-06
4.63001e-17
8.72664e-06
-1.2395e-14
9.42478e-06
1.32246e-14
1.01229e-05
1.88931e-14
1.0821e-05
4.96207e-15
1.15192e-05
7.15216e-15
1.22173e-05
1.48857e-14
1.29154e-05
-3.53417e-14
1.36136e-05
-1.40181e-18
1.43117e-05
4.31344e-14
1.50098e-05
-1.35642e-14
1.5708e-05
2.82498e-14
1.64061e-05
-2.45885e-15
1.71042e-05
1.02344e-14
1.78024e-05
-2.38082e-14
1.85005e-05
-1.3877e-14
1.91986e-05
4.55584e-14
1.98967e-05
2.05949e-05
-5.17024e-15
4.53785e-06
7.4553e-15
5.23599e-06
7.56078e-16
5.93412e-06
-6.84023e-15
6.63225e-06
9.97364e-15
7.33038e-06
1.66358e-15
8.02851e-06
-9.22006e-15
8.72664e-06
1.34589e-14
9.42478e-06
-2.32227e-14
1.01229e-05
-1.0473e-14
1.0821e-05
1.7272e-14
1.15192e-05
3.02431e-15
1.22173e-05
-1.14006e-14
1.29154e-05
1.98128e-14
1.36136e-05
4.67744e-15
1.43117e-05
-5.03077e-14
1.50098e-05
2.4043e-14
1.5708e-05