/*--------------------------------*- C++ -*----------------------------------*\
  =========                 |
  \\      /  F ield         | OpenFOAM: The Open Source CFD Toolbox
   \\    /   O peration     | Website:  https://openfoam.org
    \\  /    A nd           | Version:  11
     \\/     M anipulation  |
\*---------------------------------------------------------------------------*/
FoamFile
{
    format      ascii;
    class       volScalarField;
    location    "0.96";
    object      nut;
}
// * * * * * * * * * * * * * * * * * * * * * * * * * * * * * * * * * * * * * //

dimensions      [0 2 -1 0 0 0 0];

internalField   nonuniform List<scalar> 
2880
(
1.2013e-06
1.06491e-05
4.211e-05
8.86937e-05
0.000142192
4.61921e-05
3.42022e-05
5.94449e-05
0.00013324
0.000230811
0.000325539
0.000350578
5.08143e-05
0.000134893
0.000251982
0.000393821
0.000544275
0.000675411
5.66598e-05
0.000210132
0.000366527
0.000546569
0.000735571
0.000932945
6.1085e-05
0.000279786
0.000472037
0.000684657
0.000894946
0.00112318
6.45323e-05
0.000341779
0.000567005
0.000804807
0.00102596
0.00126293
6.72738e-05
0.000394349
0.000650778
0.000906666
0.00113299
0.0013672
6.9395e-05
0.000437361
0.000722306
0.000991679
0.00122071
0.00144652
7.09817e-05
0.000470911
0.000781313
0.0010617
0.00129222
0.00150792
7.21015e-05
0.000495243
0.000827774
0.00111801
0.00135087
0.00155789
7.28067e-05
0.000510458
0.00086183
0.00116161
0.0013976
0.00159642
7.31375e-05
0.000516359
0.000883602
0.00119292
0.0014333
0.00162645
7.315e-05
0.000512101
0.000893533
0.00121069
0.00145847
0.0016491
7.29555e-05
0.00049712
0.000890855
0.00121631
0.00147209
0.0016645
7.24944e-05
0.00047328
0.000874947
0.00120954
0.00147315
0.00167151
7.17055e-05
0.000442439
0.000846125
0.00118886
0.00146021
0.00166855
7.05161e-05
0.000406342
0.000804607
0.00115255
0.00143059
0.00165131
6.88279e-05
0.000365599
0.000750615
0.00109665
0.00137968
0.00161248
6.65063e-05
0.000321456
0.000683575
0.00101746
0.00130098
0.00154283
6.33644e-05
0.000275338
0.000601226
0.000909016
0.00118851
0.00142803
5.91385e-05
0.00022573
0.000497745
0.000762961
0.00102347
0.00123965
5.34586e-05
0.000167726
0.000364355
0.000569709
0.000786279
0.000938371
3.95085e-05
8.91804e-05
0.000195396
0.000323317
0.000470163
0.000494358
1.34702e-06
7.56682e-06
2.91738e-05
7.20422e-05
0.000154042
5.33002e-05
0.000861474
0.0013525
0.00156701
0.00190063
0.00235465
0.00286266
0.00334374
0.0037355
0.00402825
0.00424924
0.0044061
0.0044878
0.00448152
0.0043868
0.00422196
0.00402385
0.00383301
0.00367694
0.00356383
0.00348821
0.00343987
0.00340952
0.00339065
0.00337905
0.00113084
0.00147055
0.00165613
0.00197347
0.00241131
0.00290364
0.003372
0.00375421
0.00404258
0.00426084
0.00441322
0.0044897
0.00448004
0.00438234
0.00421384
0.00401172
0.00381811
0.0036613
0.00354941
0.00347617
0.00343068
0.00340324
0.00338707
0.00337781
0.00132279
0.00159291
0.00175308
0.0020508
0.00246865
0.0029423
0.00339592
0.00376615
0.00404838
0.00426488
0.00441685
0.00449433
0.00448498
0.00438599
0.00421557
0.00401074
0.00381408
0.00365481
0.00354209
0.0034693
0.00342504
0.00339912
0.00338459
0.00337698
0.00143875
0.0016914
0.00184588
0.0021256
0.00252141
0.00297557
0.00341562
0.0037748
0.00405109
0.00426445
0.00441623
0.00449633
0.00449158
0.00439709
0.00422811
0.00402123
0.00382042
0.00365767
0.00354207
0.00346769
0.00342278
0.00339686
0.00338332
0.0033766
0.00152164
0.00176753
0.00192541
0.00219005
0.00256515
0.00300231
0.00343033
0.00377924
0.00405097
0.00426282
0.00441586
0.00450003
0.00450158
0.00441408
0.00425001
0.00404378
0.0038395
0.00367081
0.00354979
0.00347148
0.00342377
0.00339698
0.00338317
0.0033765
0.001586
0.00182528
0.00198888
0.0022396
0.00259841
0.00302062
0.00343806
0.00377838
0.00404721
0.00425916
0.00441504
0.00450515
0.00451554
0.0044381
0.004282
0.00407843
0.0038708
0.003695
0.00356629
0.00348168
0.0034297
0.00339984
0.00338434
0.00337677
0.00163856
0.00186535
0.00203377
0.00227561
0.00261996
0.0030286
0.00343712
0.0037712
0.00403907
0.00425283
0.00441317
0.00451101
0.00453252
0.00446802
0.00432312
0.00412491
0.003915
0.00373118
0.00359254
0.00349905
0.00344078
0.00340571
0.00338699
0.00337752
0.00168226
0.0018907
0.00206383
0.00229783
0.00262869
0.00302498
0.0034262
0.00375679
0.0040258
0.00424317
0.0044096
0.00451681
0.00455141
0.00450252
0.00437217
0.00418261
0.0039724
0.00378046
0.00363
0.00352492
0.00345719
0.00341575
0.00339161
0.00337893
0.0017187
0.00190617
0.00208124
0.00230686
0.00262436
0.00300899
0.00340428
0.00373424
0.00400661
0.00422945
0.00440356
0.00452163
0.00457102
0.00454008
0.00442752
0.00425032
0.00404278
0.00384368
0.00368019
0.00356097
0.00348093
0.00343
0.00339912
0.00338135
0.00174812
0.0019146
0.00208795
0.0023037
0.00260722
0.00298033
0.00337063
0.00370268
0.0039806
0.00421077
0.00439414
0.00452444
0.00459002
0.00457893
0.00448707
0.00432615
0.00412515
0.00392118
0.00374451
0.00360903
0.00351368
0.00345016
0.00340974
0.00338507
0.00177212
0.00191828
0.00208531
0.00228938
0.00257785
0.00293897
0.00332471
0.00366125
0.00394679
0.00418613
0.0043803
0.00452407
0.00460693
0.00461713
0.0045484
0.00440752
0.00421759
0.0040124
0.00382384
0.00367086
0.00355734
0.00347783
0.0034246
0.00339045
0.00179183
0.00191961
0.00207348
0.00226491
0.00253708
0.00288522
0.00326618
0.00360906
0.00390408
0.00415434
0.00436081
0.0045192
0.00462024
0.00465269
0.00460887
0.00449135
0.00431722
0.00411561
0.00391813
0.00374778
0.00361382
0.00351477
0.00344492
0.00339791
0.00180792
0.00192012
0.00205416
0.00223189
0.00248613
0.0028197
0.00319494
0.00354528
0.00385129
0.00411407
0.0043343
0.00450842
0.00462835
0.00468366
0.00466589
0.00457431
0.00442045
0.00422791
0.00402606
0.00384023
0.00368469
0.00356278
0.00347205
0.00340799
0.00182039
0.00192001
0.00203126
0.00219265
0.00242675
0.00274347
0.00311122
0.00346916
0.00378719
0.00406389
0.00429925
0.00449018
0.00462966
0.00470816
0.004717
0.00465308
0.00452317
0.0043452
0.00414468
0.00394711
0.00377054
0.00362336
0.00350755
0.00342141
0.00182836
0.00191939
0.00200747
0.00214947
0.00236092
0.00265801
0.00301565
0.00338017
0.00371059
0.00400229
0.00425403
0.00446285
0.00462251
0.00472439
0.00475994
0.00472452
0.00462116
0.00446251
0.00426938
0.0040654
0.00387046
0.00369721
0.00355259
0.00343874
0.00182964
0.00191785
0.00198466
0.00210405
0.00229069
0.00256518
0.00290937
0.00327802
0.00362042
0.00392777
0.00419695
0.00442466
0.00460515
0.00473054
0.00479261
0.00478578
0.00471034
0.00457453
0.00439428
0.00418998
0.0039812
0.00378323
0.00360739
0.00346025
0.00182175
0.0019143
0.001964
0.00205674
0.00221793
0.00246723
0.0027942
0.00316267
0.0035158
0.00383896
0.00412634
0.00437381
0.00457575
0.0047248
0.00481303
0.00483437
0.00478715
0.00467617
0.00451299
0.00431409
0.00409709
0.00387788
0.0036706
0.00348559
0.00180341
0.00190344
0.00194352
0.00201038
0.00214496
0.00236683
0.00267311
0.00303381
0.00339636
0.00373484
0.00404069
0.00430851
0.00453245
0.00470529
0.00481934
0.00486814
0.00484868
0.00476315
0.00461949
0.00443037
0.00421062
0.00397504
0.00373852
0.00351338
0.00176972
0.001877
0.00192012
0.00196602
0.00207361
0.00226639
0.00254823
0.00289552
0.00326322
0.00361512
0.00393888
0.00422719
0.00447341
0.00467019
0.00480974
0.00488526
0.00489269
0.0048322
0.00470889
0.00453209
0.00431368
0.00406659
0.00380483
0.00354054
0.00170602
0.00182722
0.00189099
0.00192322
0.0020048
0.0021681
0.0024224
0.00275123
0.00311817
0.00348015
0.00382028
0.00412855
0.00439703
0.00461774
0.00478256
0.00488416
0.00491752
0.00488117
0.00477784
0.00461409
0.00439913
0.00414392
0.00386112
0.00356179
0.00158853
0.0017443
0.00185069
0.00187948
0.00193853
0.00207347
0.00229848
0.00260447
0.00296339
0.00333099
0.00368491
0.00401185
0.00430204
0.00454646
0.0047363
0.00486351
0.00492201
0.00490881
0.00482455
0.00467335
0.00446204
0.00419978
0.00389839
0.00356971
0.00137991
0.00161051
0.00178764
0.00182885
0.00187448
0.00198294
0.00217869
0.00245875
0.00280192
0.00316972
0.0035337
0.00387707
0.00418774
0.00445526
0.00466978
0.00482227
0.00490544
0.00491468
0.00484863
0.00470904
0.00450034
0.00422987
0.00390908
0.00355539
0.000982275
0.0014054
0.00168796
0.00176268
0.00180931
0.00189646
0.00206385
0.00231641
0.00263864
0.00299978
0.00336872
0.00372515
0.00405425
0.00434373
0.00458236
0.00475987
0.00486754
0.00489901
0.00485079
0.00472213
0.00451483
0.00423377
0.00388958
0.00351038
0.000419185
0.00103008
0.00149066
0.00166284
0.00173439
0.00181299
0.00195453
0.00217884
0.00247712
0.00282499
0.00319297
0.00355801
0.00390257
0.00421223
0.00447411
0.0046764
0.00480876
0.00486288
0.00483292
0.00471543
0.00450905
0.00421508
0.00384106
0.00342878
1.80004e-06
6.16057e-06
1.65861e-05
2.90184e-05
4.17575e-05
7.05275e-05
4.59699e-05
7.09027e-05
0.000124298
0.000152949
0.000175713
0.000186911
5.60984e-05
0.000123817
0.00021646
0.000260552
0.000288632
0.000278039
6.09447e-05
0.000163487
0.000288754
0.000349502
0.000380311
0.000360106
6.44368e-05
0.0002023
0.000352204
0.000425531
0.000459054
0.00043713
6.71157e-05
0.000241864
0.000410392
0.000493592
0.000528859
0.000509353
6.92628e-05
0.00028141
0.000463306
0.000554392
0.000591221
0.000576758
7.10206e-05
0.000319471
0.00051009
0.000607467
0.000647054
0.000639665
7.24686e-05
0.000354528
0.000549991
0.00065262
0.000697559
0.000698948
7.36605e-05
0.000384834
0.000582577
0.000690575
0.000743171
0.000754452
7.46413e-05
0.000408552
0.000607671
0.000721777
0.000783863
0.000806327
7.5449e-05
0.00042376
0.000625246
0.00074613
0.000818735
0.000853847
7.58651e-05
0.000432366
0.000635196
0.000763413
0.000847533
0.000896762
7.5866e-05
0.000434769
0.000637156
0.000772924
0.000869288
0.000934049
7.54385e-05
0.000430389
0.000630481
0.000773535
0.000882375
0.000963683
7.45428e-05
0.000419138
0.000613773
0.000762688
0.000883828
0.000982824
7.31156e-05
0.000399889
0.000587333
0.000740345
0.000870325
0.000986163
7.10792e-05
0.000371666
0.000549226
0.000703502
0.000841128
0.000973773
6.83265e-05
0.000333399
0.000498132
0.000649319
0.000789165
0.000936377
6.47178e-05
0.000283952
0.000432758
0.000575014
0.000708932
0.000862629
6.00968e-05
0.00022336
0.000351947
0.000478259
0.000596082
0.000744612
5.40159e-05
0.000151773
0.000255016
0.000359954
0.000448358
0.000551733
3.9617e-05
7.19212e-05
0.000141827
0.000221341
0.000276988
0.000273953
1.37984e-06
1.08237e-05
3.8561e-05
8.17689e-05
0.00013537
4.6151e-05
0.000297779
0.000826135
0.00127737
0.00155325
0.00165291
0.00173207
0.00185337
0.00204871
0.00232
0.00264919
0.00301007
0.00337849
0.00373469
0.00406212
0.00434606
0.00457298
0.0047307
0.00480878
0.0047988
0.00469421
0.00448986
0.0041819
0.00377088
0.00330949
0.0002407
0.000705166
0.00109824
0.00143554
0.00156669
0.00165336
0.00176073
0.00192908
0.00217096
0.00247654
0.00282413
0.00319015
0.00355345
0.00389566
0.00420025
0.00445196
0.00463669
0.00474174
0.0047559
0.00466914
0.00447161
0.00415223
0.00369872
0.00316127
0.000204251
0.000626606
0.000973564
0.00130448
0.00148186
0.00157778
0.00167654
0.00182138
0.00203326
0.00231122
0.00263959
0.00299705
0.00336227
0.00371569
0.00403938
0.00431659
0.00453166
0.00467
0.00471803
0.00466244
0.00448861
0.00417763
0.00370098
0.00305291
0.000232045
0.000551316
0.000877037
0.00118982
0.00141092
0.00150918
0.00160118
0.00172597
0.00190887
0.00215667
0.00246061
0.00280328
0.00316464
0.00352496
0.00386567
0.00416938
0.00441998
0.00460274
0.00470429
0.00471228
0.00461651
0.00441961
0.00417432
0.00401161
0.000311921
0.000498184
0.000804434
0.00106585
0.00132455
0.00144044
0.00153196
0.00164155
0.00179817
0.0020151
0.00229063
0.0026126
0.00296377
0.00332555
0.00367988
0.00401006
0.0043014
0.00454196
0.00472308
0.00483955
0.00489045
0.00488436
0.00484987
0.00483109
0.000405263
0.000467016
0.00075417
0.00097403
0.00123279
0.00137534
0.00146722
0.00156614
0.00170039
0.00188753
0.00213225
0.00242832
0.00276266
0.00311923
0.00348179
0.0038356
0.00416865
0.00447234
0.00474132
0.004972
0.00516067
0.00530377
0.00540194
0.00546142
0.000498807
0.000463988
0.000711575
0.000899255
0.00114779
0.00131817
0.00140831
0.00149871
0.00161428
0.00177394
0.00198711
0.0022533
0.00256443
0.00290829
0.00327176
0.0036432
0.00401384
0.00437762
0.0047291
0.00505988
0.00535614
0.00560058
0.00576949
0.00588184
0.000580696
0.000488175
0.000680552
0.000842193
0.00105068
0.00124733
0.00134898
0.00143655
0.00153793
0.0016735
0.00185602
0.00208995
0.00237242
0.0026959
0.00305139
0.00343122
0.00383012
0.00424383
0.00466489
0.0050778
0.00545812
0.00576769
0.00599857
0.00613628
0.000659173
0.000533041
0.000665926
0.00080365
0.00097552
0.0011763
0.00129038
0.00137717
0.0014689
0.00158461
0.00173892
0.00194007
0.00218999
0.00248604
0.00282392
0.00320036
0.00361381
0.00406178
0.00453488
0.00501154
0.00545563
0.0058206
0.00609689
0.00625815
0.000730111
0.000587652
0.000675933
0.000775327
0.000916241
0.00110918
0.00123886
0.00132199
0.00140592
0.00150556
0.00163504
0.00180469
0.00202014
0.0022832
0.00259422
0.00295437
0.00336602
0.00382913
0.00433406
0.00485567
0.00534587
0.00576134
0.00607319
0.0062592
0.000793891
0.000667671
0.000700695
0.000757876
0.000873243
0.00104002
0.00117757
0.00126692
0.00134696
0.00143459
0.00154317
0.00168401
0.00186513
0.0020918
0.0023683
0.00269982
0.00309265
0.00355014
0.00406478
0.00461113
0.00513479
0.00559025
0.00593736
0.00614305
0.000855317
0.000764158
0.000749473
0.000765739
0.000850875
0.000987817
0.00111828
0.00121158
0.00129031
0.00136961
0.00146166
0.00157749
0.00172633
0.00191568
0.00215258
0.00244533
0.00280365
0.00323499
0.00373632
0.0042857
0.0048299
0.00531363
0.0056935
0.00591724
0.000915744
0.000859425
0.000828489
0.000795166
0.000852263
0.000957423
0.00107015
0.00116004
0.00123654
0.00130944
0.00138881
0.00148395
0.00160409
0.00175763
0.00195306
0.00220042
0.00251183
0.00289864
0.00336392
0.00389268
0.00444205
0.00493973
0.00534845
0.00558881
0.000973235
0.000950206
0.000915058
0.000857006
0.000868917
0.000943919
0.00103518
0.00111556
0.00118718
0.00125413
0.00132333
0.00140198
0.00149782
0.00161907
0.00177436
0.00197404
0.00223102
0.00255937
0.00296838
0.00345267
0.00398326
0.00448277
0.00490905
0.00516903
0.00102457
0.00103149
0.00100408
0.000943051
0.000917125
0.000948217
0.00101419
0.00108154
0.00114503
0.00120495
0.00126508
0.0013303
0.00140633
0.00150006
0.00161921
0.00177314
0.00197395
0.00223633
0.00257402
0.00299158
0.0034734
0.00396428
0.0043889
0.00466806
0.00106821
0.00109877
0.00108679
0.00103909
0.000996338
0.00099009
0.00101855
0.00106552
0.00111538
0.00116522
0.00121563
0.00126886
0.00132858
0.00139969
0.00148821
0.00160167
0.00175003
0.0019464
0.00220578
0.00253997
0.00294744
0.00340036
0.00381297
0.00410382
0.00109603
0.00115134
0.0011583
0.00112918
0.00108701
0.0010616
0.00106008
0.00107824
0.00110714
0.00114156
0.00117926
0.00121996
0.00126505
0.00131733
0.00138077
0.00146064
0.00156412
0.0017012
0.00188495
0.0021297
0.00244487
0.00282256
0.00321867
0.00350166
0.00110891
0.00118371
0.00121114
0.0012023
0.00117421
0.00114496
0.0011256
0.00111983
0.00112597
0.00114105
0.00116243
0.00118842
0.00121866
0.00125407
0.00129664
0.00134945
0.00141694
0.00150556
0.00162452
0.00178601
0.0020034
0.00228454
0.0026122
0.00289349
0.00110381
0.00120119
0.00124343
0.00125315
0.00124337
0.00122228
0.00119914
0.00118045
0.00116912
0.00116575
0.00116952
0.0011791
0.00119355
0.00121261
0.00123683
0.00126752
0.00130691
0.00135848
0.00142747
0.00152164
0.00165161
0.0018296
0.00206458
0.0023128
0.00107882
0.00120122
0.0012552
0.00127913
0.00128445
0.00128075
0.00126382
0.00124387
0.00122474
0.00120914
0.00119837
0.0011926
0.00119153
0.00119479
0.00120228
0.00121425
0.00123148
0.00125543
0.0012885
0.00133447
0.00139911
0.00149053
0.00162145
0.00180895
0.00102832
0.00118812
0.00124949
0.00128379
0.00130228
0.00130811
0.00130764
0.00129499
0.0012772
0.00125803
0.00123957
0.00122322
0.00120971
0.00119933
0.00119215
0.0011882
0.00118762
0.00119084
0.00119867
0.00121251
0.00123467
0.00126879
0.00131728
0.00142436
0.000952111
0.00116768
0.00123675
0.00127458
0.00130068
0.00131706
0.00132421
0.00132371
0.00131457
0.00129871
0.00127992
0.00125995
0.00124001
0.00122097
0.00120336
0.00118747
0.00117347
0.00116153
0.00115189
0.00114497
0.00114123
0.00114313
0.00114455
0.00118509
0.000861655
0.00114649
0.0012297
0.00126575
0.00129389
0.00131478
0.00132718
0.00133352
0.00133152
0.00132348
0.00130989
0.00129216
0.00127206
0.00125095
0.00122951
0.00120815
0.00118707
0.00116669
0.00114732
0.00112917
0.00111172
0.00109759
0.0010785
0.00108009
0.000760374
0.00114357
0.00124154
0.0012755
0.00129998
0.00131993
0.00133375
0.00134065
0.00134331
0.00133903
0.00132993
0.00131727
0.00130171
0.00128407
0.00126567
0.00124628
0.00122483
0.00120318
0.00118354
0.00116547
0.00114697
0.00113027
0.00110959
0.00110049
6.58981e-07
3.03929e-06
1.33685e-05
3.97298e-05
9.25316e-05
0.000184813
2.52061e-05
4.04802e-05
8.51953e-05
0.000159512
0.000277246
0.000454586
0.000152403
0.000106156
0.000190209
0.000305893
0.00046637
0.000680732
0.000172507
0.000172068
0.00029069
0.000437834
0.000621579
0.000839673
0.00018793
0.000231624
0.000379145
0.000547216
0.000737184
0.000941187
0.000197836
0.000281369
0.000453272
0.000632845
0.00081673
0.000997536
4.76616e-05
0.000317675
0.000512538
0.000695885
0.000867735
0.00101937
4.85374e-05
0.000344656
0.00055742
0.000738889
0.000895187
0.00101707
4.92248e-05
0.000363195
0.000589007
0.000764808
0.000903108
0.000997865
4.96975e-05
0.000374182
0.000608677
0.00077662
0.000896161
0.000966138
4.99494e-05
0.000378381
0.000617861
0.000776881
0.000878153
0.000925429
4.99748e-05
0.00037649
0.000617899
0.000767944
0.000852172
0.000878796
4.97708e-05
0.000368304
0.00060992
0.00075169
0.000820571
0.000828703
4.94371e-05
0.000353338
0.000594818
0.000729646
0.000785174
0.000777072
4.89443e-05
0.000333662
0.000573399
0.00070283
0.000747278
0.000725273
4.82812e-05
0.000311123
0.000546648
0.000671529
0.000707544
0.00067404
4.75278e-05
0.000288754
0.000515564
0.000635302
0.000665814
0.000622383
0.000199322
0.000275834
0.000480403
0.000592934
0.000620858
0.000567054
0.00019561
0.000264306
0.000438177
0.000543024
0.000569856
0.00050561
0.000188939
0.000241426
0.000384853
0.00048118
0.000508551
0.000438121
0.000177936
0.000202169
0.000316149
0.000401804
0.000431505
0.000366229
0.000162724
0.000143738
0.000225281
0.000296541
0.000330685
0.000291411
2.87077e-05
6.29183e-05
0.000109293
0.000157475
0.000189934
0.000202938
8.60193e-07
3.41326e-06
9.55743e-06
2.17591e-05
3.69753e-05
6.51154e-05
0.000867785
0.00117567
0.00127687
0.00131333
0.00133651
0.00135332
0.00136416
0.00136943
0.00136978
0.00136685
0.00136005
0.00135059
0.0013393
0.00132692
0.00131411
0.00130321
0.00129539
0.00128442
0.00126976
0.00125563
0.00124543
0.00123845
0.00123228
0.00123366
0.000980016
0.00121927
0.00132455
0.00137198
0.00140285
0.00142331
0.00143423
0.00143732
0.001435
0.00142936
0.00142196
0.00141343
0.00140479
0.00139687
0.00139041
0.00138624
0.0013863
0.00139583
0.00140996
0.00142469
0.0014386
0.00145451
0.00147356
0.00149371
0.00106951
0.00125586
0.00135889
0.00142108
0.00146962
0.00150747
0.00153148
0.00154351
0.00154713
0.00154408
0.00153601
0.00152624
0.00151682
0.00150944
0.00150539
0.00150529
0.00150981
0.00151945
0.00153479
0.00155701
0.00158502
0.00161473
0.00164361
0.00166582
0.00112852
0.00127306
0.00136895
0.00144108
0.00150426
0.00156003
0.00159971
0.0016266
0.00164452
0.00165409
0.00165739
0.00165697
0.00165499
0.00165341
0.0016538
0.00165735
0.00166487
0.00167535
0.00169059
0.00170957
0.00173075
0.00175445
0.00177851
0.00179736
0.00115565
0.00127178
0.00135967
0.00143586
0.00150805
0.00157604
0.00162796
0.00166733
0.00169787
0.00171927
0.00173344
0.00174239
0.00174807
0.00175234
0.0017569
0.00176323
0.00177258
0.00178579
0.00180294
0.00182533
0.00185026
0.00187394
0.00189341
0.00190595
0.00115615
0.00124918
0.0013227
0.00139794
0.00147527
0.00155214
0.00161771
0.00167195
0.00171858
0.00175717
0.00178858
0.00181396
0.00183459
0.00185151
0.00186566
0.00187778
0.00188851
0.00189823
0.00190711
0.00191518
0.0019224
0.00192932
0.00193586
0.00194078
0.00113864
0.00120563
0.00126472
0.00133525
0.00141292
0.00149245
0.00156609
0.00163049
0.00168785
0.00173835
0.0017826
0.00182097
0.00185434
0.00188292
0.00190696
0.00192659
0.00194195
0.0019531
0.00196008
0.00196309
0.00196282
0.00196051
0.00195768
0.00195627
0.00110311
0.00114591
0.00119096
0.00125473
0.00133047
0.00140999
0.0014873
0.00155868
0.00162287
0.00168066
0.00173279
0.00177898
0.00182044
0.00185532
0.00188423
0.00190732
0.00192454
0.00193575
0.00194066
0.00193926
0.00193214
0.00192055
0.00190684
0.00189502
0.00105411
0.00107434
0.00110514
0.00116046
0.00123209
0.00130964
0.00138526
0.00145345
0.00151128
0.0015647
0.00161373
0.00165667
0.00169546
0.00173089
0.00176024
0.00178368
0.00180121
0.00181259
0.00181799
0.00181804
0.00181372
0.00180743
0.00180077
0.0018029
0.000995487
0.000993972
0.00100938
0.00105368
0.00111331
0.00117772
0.0012419
0.00130809
0.00137804
0.00144572
0.00150594
0.0015588
0.00160618
0.00164604
0.0016773
0.00170185
0.00171993
0.00173166
0.001737
0.00173603
0.00172901
0.00171743
0.00170108
0.00168903
0.000930282
0.000906961
0.000905054
0.000931384
0.000979014
0.00104003
0.00111724
0.00119807
0.00127087
0.00132955
0.00137866
0.00142045
0.00145341
0.0014793
0.00149916
0.0015131
0.00152113
0.0015233
0.00151956
0.00151008
0.00149435
0.00147474
0.00144722
0.001427
0.000861069
0.000815755
0.0007947
0.000807273
0.00084245
0.000906103
0.000975129
0.00103604
0.00108946
0.00113683
0.00117504
0.00120576
0.00122927
0.00124617
0.0012569
0.00126177
0.00126126
0.00125588
0.00124552
0.00123036
0.00120941
0.00118845
0.00116314
0.00114772
0.000790211
0.000723057
0.0006847
0.000681864
0.000708021
0.00075255
0.000802893
0.000854461
0.00090043
0.000940113
0.000972462
0.000997212
0.00101511
0.00102754
0.00103481
0.00103728
0.00104081
0.00104476
0.00104355
0.0010395
0.00103508
0.00103557
0.00102487
0.00105319
0.000719947
0.000632519
0.000579629
0.000564087
0.000577625
0.000609908
0.00065492
0.000702292
0.000747305
0.000787471
0.000821691
0.000850167
0.00087731
0.000905766
0.000931483
0.000953771
0.00096456
0.000967798
0.00097679
0.000995858
0.00102727
0.00107665
0.0011487
0.0012739
0.000652171
0.000547274
0.000486912
0.000467987
0.00047108
0.000512184
0.000563607
0.000617915
0.000671396
0.000722378
0.000770492
0.000818429
0.0008621
0.000894064
0.000922585
0.000954399
0.00099171
0.00103651
0.00109196
0.00116309
0.00125633
0.00138075
0.00154542
0.00172556
0.000587881
0.000467791
0.000411843
0.000401384
0.000417437
0.000475665
0.00054195
0.000609547
0.000675488
0.000738936
0.000800823
0.000859598
0.000912385
0.000964056
0.00101949
0.00108238
0.00115525
0.00124136
0.00134541
0.00147381
0.00163438
0.00183705
0.00206656
0.00226169
0.00052552
0.000398172
0.000357732
0.000352255
0.000410017
0.000487632
0.00056726
0.000644249
0.000717142
0.000785798
0.000850842
0.000914675
0.000982205
0.00105627
0.00113896
0.00123273
0.00134142
0.00147034
0.00162663
0.00181924
0.00205458
0.00231451
0.00256719
0.00278818
0.000461262
0.000340671
0.000322114
0.000345705
0.000432096
0.000522738
0.000611518
0.000697294
0.000779658
0.000859175
0.000938052
0.0010185
0.00110346
0.00119705
0.00130363
0.0014279
0.00157517
0.00175293
0.00196866
0.00222938
0.00251628
0.00279995
0.00306383
0.00332225
0.000382718
0.000298039
0.000298298
0.00036942
0.000472195
0.000573462
0.000673443
0.00077214
0.000869425
0.000967183
0.00106921
0.00118086
0.00130631
0.0014483
0.00160926
0.00179204
0.00200063
0.00223889
0.00251368
0.00282265
0.00311437
0.00339561
0.00367326
0.00388066
0.000282215
0.000268564
0.000291073
0.000409982
0.000525378
0.000637775
0.000750209
0.000862035
0.000973625
0.00108869
0.00121198
0.00134716
0.00149747
0.00166574
0.00185421
0.00206545
0.00230345
0.00257339
0.00287844
0.00319254
0.00349587
0.00378752
0.00407099
0.00424031
0.000195696
0.000249045
0.000308905
0.000469023
0.000593049
0.000716644
0.000840473
0.000964133
0.00109103
0.00122629
0.00137419
0.00153734
0.00171655
0.00191207
0.00212528
0.00235957
0.00262005
0.0029116
0.00323444
0.00355085
0.00385549
0.00415242
0.00440839
0.00454279
0.000160952
0.000246549
0.000363814
0.000544663
0.000673768
0.000805713
0.000939416
0.00107768
0.00122569
0.00138788
0.00156681
0.00176343
0.00197778
0.00220952
0.00245847
0.0027253
0.00301167
0.00331849
0.003642
0.00394416
0.00422554
0.0045007
0.00471287
0.00482408
0.0001634
0.000270239
0.000475604
0.00062543
0.000760997
0.000900863
0.00104668
0.00120363
0.00137618
0.00156659
0.00177514
0.00200069
0.00224124
0.00249475
0.00275996
0.00303687
0.00332636
0.00362817
0.00393733
0.00422247
0.00447798
0.0047255
0.0049057
0.00500462
0.000170273
0.00032461
0.0005624
0.000707744
0.000853076
0.00100099
0.00116145
0.00134057
0.00154004
0.00175915
0.0019958
0.00224692
0.00250891
0.0027782
0.00305204
0.00332909
0.00360928
0.00389205
0.0041732
0.00443332
0.00465446
0.00486562
0.00501825
0.00510571
1.1497e-06
1.15852e-05
4.52843e-05
0.000109223
0.000196475
5.53505e-05
3.23744e-05
8.68444e-05
0.000183656
0.000300838
0.000368469
0.000387189
4.89778e-05
0.00017507
0.000310059
0.000447288
0.000547306
0.000621514
5.39064e-05
0.000246247
0.000400172
0.000533054
0.000638154
0.000682726
5.73586e-05
0.000298563
0.000458272
0.00057856
0.000658539
0.000685277
5.98098e-05
0.000334163
0.000490984
0.000592261
0.000641697
0.00066933
6.15272e-05
0.000356124
0.000505466
0.000585685
0.000611217
0.000643904
6.26775e-05
0.000367475
0.000506773
0.000567007
0.000581291
0.000622507
6.33683e-05
0.000370821
0.000499241
0.000543088
0.00055339
0.000609942
6.36679e-05
0.00036828
0.000486005
0.000517708
0.000528358
0.000603419
6.36342e-05
0.000361148
0.000469185
0.000492572
0.000505745
0.000600105
6.32696e-05
0.000350273
0.000450076
0.000467843
0.00048442
0.000597872
6.26021e-05
0.00033613
0.000429425
0.000443604
0.000463628
0.000594268
6.16689e-05
0.000318943
0.000407569
0.000420184
0.000442027
0.000587498
6.04901e-05
0.00029901
0.000384495
0.000396015
0.000418924
0.000575284
5.90443e-05
0.000276825
0.00036009
0.000370986
0.000393736
0.000556246
5.72974e-05
0.000252728
0.000334225
0.000344737
0.000365961
0.000528879
5.51781e-05
0.000226996
0.000307045
0.000316248
0.000335883
0.000491686
5.25088e-05
0.000200151
0.000279236
0.000282598
0.0003032
0.000443697
4.87999e-05
0.000174233
0.000248961
0.000243854
0.000267841
0.000384465
0.000195733
0.000153721
0.000211734
0.000201645
0.000224774
0.000314544
0.00017997
0.000116724
0.000164332
0.000160684
0.000173896
0.000242611
3.22165e-05
5.41035e-05
9.30832e-05
0.000106392
0.000103832
0.000163882
1.04452e-06
3.02484e-06
9.12851e-06
2.11045e-05
5.91903e-05
4.58671e-05
0.000217086
0.000529433
0.000705127
0.000831402
0.000954501
0.00110373
0.00128289
0.00148845
0.00171657
0.00196365
0.00222572
0.00249821
0.00277614
0.00305457
0.00332938
0.00359792
0.00385919
0.00411269
0.00435592
0.00458185
0.00476439
0.00492898
0.00505541
0.00513128
0.000568705
0.000738062
0.000790158
0.000875187
0.00101568
0.00119778
0.00140955
0.00164537
0.00190145
0.00217353
0.00245651
0.00274459
0.00303158
0.00331134
0.00357857
0.00382957
0.00406272
0.00427794
0.0044749
0.00465051
0.00479713
0.00490683
0.00500136
0.00506437
0.000732637
0.000751916
0.000816549
0.000943873
0.00111345
0.00131669
0.00155072
0.00181096
0.00209101
0.00238403
0.00268316
0.00298144
0.00327167
0.00354677
0.00380042
0.00402795
0.00422692
0.00439716
0.00453984
0.00465591
0.00474489
0.00480626
0.00484818
0.0048959
0.000750246
0.000778318
0.00086779
0.00100878
0.0011959
0.00142531
0.00168882
0.00197663
0.0022798
0.00259047
0.0029013
0.00320485
0.00349335
0.00375911
0.0039951
0.0041958
0.00435779
0.00448005
0.0045637
0.00461175
0.00462925
0.00462408
0.00460807
0.00461845
0.000737712
0.000794004
0.000908727
0.00107482
0.00128866
0.00154506
0.0018342
0.00214459
0.00246592
0.00278951
0.00310748
0.00341195
0.00369481
0.00394797
0.00416409
0.00433719
0.00446313
0.00453977
0.00456675
0.00454569
0.00448178
0.00438777
0.00428477
0.00421555
0.000723111
0.000816136
0.000956089
0.001143
0.00138006
0.00166245
0.00197666
0.00230797
0.00264464
0.00297765
0.00329911
0.0036011
0.00387541
0.00411399
0.00430957
0.00445638
0.00455042
0.00458934
0.0045718
0.00449642
0.00436062
0.00416008
0.00388628
0.00349743
0.000723707
0.000844551
0.00100367
0.00121066
0.00147189
0.00177992
0.00211699
0.00246587
0.00281416
0.00315297
0.00347463
0.00377131
0.0040349
0.00425759
0.00443261
0.004555
0.00462184
0.00463206
0.00458583
0.0044836
0.00432514
0.00410911
0.0038335
0.00349161
0.00073283
0.000875883
0.00105124
0.00127711
0.00156153
0.00189405
0.00225188
0.00261546
0.00297223
0.0033138
0.0036329
0.00392194
0.00417299
0.00437861
0.00453278
0.00463167
0.00467389
0.00466024
0.00459296
0.00447476
0.00430778
0.00409333
0.00383244
0.00351945
0.000747878
0.000907865
0.00109688
0.00134047
0.00164722
0.00200335
0.0023798
0.00275526
0.0031176
0.00345922
0.00377339
0.00405274
0.00428957
0.00447682
0.00460931
0.00468448
0.0047027
0.0046668
0.00458117
0.0044506
0.00427895
0.00406898
0.00382357
0.00353788
0.000765796
0.000938765
0.0011394
0.00139923
0.00172724
0.00210635
0.00249937
0.00288415
0.00324949
0.00358885
0.00389605
0.00416393
0.00438496
0.00455249
0.00466217
0.00471286
0.00470672
0.00464864
0.00454512
0.00440284
0.00422729
0.00402278
0.00379411
0.00353849
0.000784233
0.000967082
0.00117675
0.00145248
0.00180154
0.00220212
0.00260972
0.0030015
0.00336765
0.00370281
0.00400134
0.00425624
0.00446008
0.00460663
0.00469248
0.004718
0.00468738
0.00460773
0.00448772
0.0043359
0.00415917
0.00396295
0.00375321
0.00352879
0.000800814
0.000991431
0.00121018
0.00150099
0.00186965
0.00228964
0.00271025
0.00310709
0.00347224
0.00380164
0.00409015
0.00433086
0.00451639
0.00464096
0.00470221
0.00470228
0.00464759
0.00454767
0.0044134
0.00425498
0.00408033
0.00389542
0.00370646
0.00351316
0.000815169
0.00101321
0.00123977
0.00154416
0.00193084
0.0023683
0.00280073
0.00320107
0.00356379
0.00388622
0.0041637
0.00438933
0.00455575
0.00465766
0.00469396
0.00466877
0.00459104
0.00447287
0.00432722
0.00416562
0.00399644
0.00382548
0.00365831
0.00349481
0.000827704
0.00103172
0.00126535
0.00158165
0.00198465
0.00243784