/*--------------------------------*- C++ -*----------------------------------*\
  =========                 |
  \\      /  F ield         | OpenFOAM: The Open Source CFD Toolbox
   \\    /   O peration     | Website:  https://openfoam.org
    \\  /    A nd           | Version:  11
     \\/     M anipulation  |
\*---------------------------------------------------------------------------*/
FoamFile
{
    format      ascii;
    class       volScalarField;
    location    "0.96";
    object      p;
}
// * * * * * * * * * * * * * * * * * * * * * * * * * * * * * * * * * * * * * //

dimensions      [0 2 -2 0 0 0 0];

internalField   nonuniform List<scalar> 
2880
(
1.10592
1.08808
1.07847
1.0816
1.14021
1.30637
1.10899
1.09125
1.07993
1.07947
1.12088
1.18545
1.11133
1.09656
1.08337
1.07908
1.10151
1.11428
1.11147
1.1
1.08544
1.0775
1.08457
1.07239
1.1101
1.10064
1.08526
1.07393
1.07016
1.04791
1.10786
1.09942
1.08336
1.06936
1.05798
1.03192
1.10495
1.09731
1.08048
1.06443
1.04752
1.01957
1.10156
1.09494
1.07714
1.05941
1.03836
1.00916
1.09797
1.09272
1.07372
1.05442
1.03012
0.999852
1.09458
1.09093
1.07049
1.04957
1.02248
0.990983
1.09181
1.08977
1.06768
1.04494
1.01514
0.981989
1.08996
1.08944
1.06542
1.0406
1.00786
0.972422
1.08924
1.09004
1.06383
1.0366
1.00049
0.961926
1.08977
1.09157
1.063
1.03301
0.992888
0.950166
1.09146
1.09406
1.06296
1.02991
0.984989
0.93682
1.09416
1.09733
1.06368
1.02737
0.976755
0.921501
1.09758
1.1011
1.06508
1.02545
0.96822
0.903857
1.10134
1.10496
1.06697
1.0242
0.959509
0.883627
1.10498
1.10846
1.06909
1.02379
0.950904
0.860746
1.10808
1.11119
1.07137
1.02479
0.943037
0.83552
1.11034
1.1133
1.07454
1.02872
0.937412
0.809526
1.11206
1.11596
1.08041
1.03764
0.937151
0.787797
1.11431
1.12013
1.0894
1.04945
0.945641
0.780152
1.11688
1.1233
1.09501
1.05118
0.965719
0.790986
0.849767
0.812182
0.774174
0.743627
0.710824
0.681165
0.655469
0.634087
0.616386
0.601592
0.589219
0.579011
0.570739
0.56412
0.558817
0.554502
0.55093
0.547961
0.545522
0.543556
0.542144
0.541728
0.542563
0.541944
0.909584
0.85335
0.80246
0.765351
0.728557
0.69607
0.668279
0.645306
0.626386
0.610643
0.597521
0.586717
0.577975
0.570994
0.565421
0.560903
0.557174
0.554082
0.551556
0.549558
0.548129
0.54749
0.547731
0.547394
0.935228
0.880586
0.824816
0.783462
0.743716
0.708883
0.679251
0.654831
0.634771
0.618121
0.604274
0.592887
0.583682
0.576342
0.570496
0.565774
0.561889
0.558675
0.55606
0.554017
0.552558
0.551756
0.551597
0.551457
0.947236
0.896625
0.841026
0.797453
0.755833
0.719242
0.688107
0.662443
0.641364
0.623882
0.609356
0.597416
0.587762
0.580068
0.573953
0.569031
0.564995
0.561664
0.558962
0.556863
0.55536
0.554455
0.554102
0.554073
0.953208
0.905437
0.851858
0.807362
0.764739
0.726949
0.694662
0.667976
0.646024
0.627802
0.612662
0.600209
0.590131
0.582095
0.575717
0.5706
0.566421
0.562981
0.560195
0.55803
0.556472
0.555524
0.55519
0.555191
0.955524
0.90969
0.858253
0.813503
0.770473
0.731927
0.698794
0.671298
0.648621
0.629769
0.61409
0.601178
0.59071
0.582353
0.575722
0.570417
0.566103
0.562565
0.559699
0.557457
0.555834
0.554926
0.554821
0.554741
0.955429
0.910637
0.860948
0.816246
0.773153
0.734166
0.700434
0.672312
0.649052
0.629678
0.613547
0.600239
0.589426
0.580774
0.573906
0.568426
0.563988
0.560362
0.557425
0.555102
0.553406
0.5526
0.552937
0.552695
0.953224
0.90885
0.860456
0.81589
0.772897
0.733678
0.699535
0.670943
0.647229
0.627444
0.610949
0.597317
0.58621
0.5773
0.570219
0.564578
0.56003
0.556331
0.553332
0.550927
0.549154
0.548519
0.549503
0.549007
0.948998
0.904614
0.857084
0.812609
0.769775
0.730463
0.696058
0.667127
0.643078
0.622989
0.606224
0.592343
0.581005
0.571881
0.564618
0.558838
0.554196
0.55044
0.547391
0.544905
0.543061
0.542674
0.544509
0.543634
0.942755
0.897996
0.850929
0.80645
0.763786
0.724487
0.689944
0.660795
0.636524
0.61624
0.599302
0.585259
0.573758
0.564476
0.55707
0.551177
0.546462
0.542664
0.539579
0.537018
0.535103
0.535018
0.537905
0.53662
0.934399
0.888872
0.841903
0.797331
0.754845
0.715662
0.681107
0.65186
0.627487
0.607124
0.590119
0.576007
0.564423
0.555047
0.547546
0.541574
0.536807
0.532984
0.529875
0.527238
0.525223
0.525418
0.529533
0.528067
0.923708
0.876961
0.829743
0.785042
0.742776
0.703838
0.669422
0.640218
0.615875
0.595562
0.57861
0.564534
0.55296
0.543565
0.536028
0.530019
0.525227
0.521396
0.518271
0.515552
0.513397
0.513822
0.519279
0.517861
0.910305
0.861803
0.814036
0.769255
0.727314
0.688805
0.654722
0.625739
0.601586
0.581474
0.56471
0.550792
0.539333
0.530009
0.522508
0.516516
0.511737
0.507921
0.504796
0.501997
0.499681
0.500315
0.507169
0.505843
0.893614
0.842739
0.794214
0.749513
0.708099
0.67028
0.636795
0.608265
0.584504
0.564772
0.548359
0.53474
0.52352
0.514373
0.506994
0.501086
0.496371
0.492609
0.48951
0.48665
0.484196
0.485092
0.49337
0.491848
0.872799
0.818882
0.769511
0.725195
0.684661
0.647908
0.615378
0.587613
0.564501
0.54537
0.529498
0.516345
0.505508
0.496659
0.489505
0.483765
0.47918
0.475522
0.472492
0.469609
0.467053
0.468249
0.477976
0.47616
0.846728
0.789084
0.738913
0.695483
0.656403
0.621253
0.590164
0.563576
0.541441
0.52318
0.508078
0.495586
0.485298
0.476889
0.470079
0.464604
0.460226
0.456736
0.453827
0.45097
0.448353
0.449857
0.461013
0.458915
0.813856
0.751793
0.701097
0.659355
0.622611
0.589812
0.560808
0.535925
0.515185
0.498123
0.484063
0.472461
0.462914
0.455107
0.448774
0.443674
0.439593
0.436341
0.433614
0.430842
0.428216
0.430032
0.44256
0.440223
0.772144
0.70482
0.654384
0.615615
0.582473
0.553048
0.526953
0.504436
0.485607
0.47014
0.457442
0.446994
0.438405
0.431381
0.425676
0.421075
0.41739
0.414456
0.411979
0.40936
0.406787
0.408918
0.422721
0.420224
0.718644
0.645238
0.596792
0.562939
0.535119
0.51041
0.488258
0.468912
0.452613
0.439207
0.428241
0.419243
0.411857
0.405816
0.400906
0.396939
0.39376
0.391231
0.389076
0.386683
0.384234
0.386682
0.401626
0.399081
0.649458
0.569254
0.526171
0.499936
0.479684
0.461393
0.444438
0.429209
0.416157
0.405353
0.39653
0.38931
0.383394
0.378558
0.374623
0.371438
0.368883
0.366853
0.365098
0.363007
0.360758
0.363518
0.379429
0.376979
0.559996
0.472208
0.440236
0.425333
0.415425
0.405602
0.395313
0.385274
0.376267
0.368664
0.362435
0.357349
0.35319
0.349793
0.347029
0.344787
0.342985
0.341556
0.340282
0.338572
0.336595
0.339647
0.3563
0.354139
0.442068
0.34863
0.336956
0.338139
0.341882
0.342867
0.340879
0.337192
0.333079
0.32931
0.326149
0.323567
0.321466
0.319757
0.318371
0.317244
0.316336
0.315618
0.314913
0.31366
0.312025
0.315317
0.332422
0.330862
0.26857
0.192647
0.21447
0.237772
0.259044
0.273377
0.281379
0.285228
0.286863
0.28756
0.287942
0.288235
0.288493
0.288727
0.288935
0.289108
0.289251
0.289373
0.289341
0.288641
0.287437
0.290943
0.30812
0.307296
-0.0112056
0.0103095
0.0751631
0.125729
0.167965
0.197921
0.217425
0.229879
0.238043
0.24379
0.248163
0.251681
0.254587
0.257013
0.259037
0.260709
0.262077
0.263189
0.263957
0.263925
0.263239
0.266878
0.283744
0.284132
-0.703392
-0.71657
-0.760373
-0.801845
-0.83853
-0.887659
-0.711243
-0.726347
-0.772737
-0.815311
-0.841691
-0.874684
-0.718095
-0.736277
-0.785344
-0.829104
-0.847013
-0.866415
-0.725087
-0.746547
-0.797749
-0.843196
-0.858861
-0.872048
-0.73334
-0.757527
-0.80987
-0.856892
-0.876745
-0.889385
-0.742467
-0.76901
-0.821544
-0.869663
-0.895639
-0.912152
-0.751723
-0.780333
-0.832299
-0.880914
-0.912443
-0.933594
-0.76043
-0.790856
-0.841666
-0.890114
-0.925715
-0.95024
-0.76803
-0.800101
-0.849311
-0.896929
-0.934902
-0.961579
-0.774104
-0.807779
-0.855054
-0.901247
-0.939875
-0.967405
-0.778424
-0.813734
-0.858926
-0.903082
-0.940793
-0.96775
-0.781028
-0.817679
-0.861065
-0.902605
-0.938062
-0.962904
-0.781966
-0.819915
-0.861651
-0.900197
-0.93225
-0.953587
-0.781484
-0.820598
-0.860896
-0.89637
-0.924249
-0.940925
-0.779954
-0.819897
-0.859006
-0.891766
-0.915025
-0.925921
-0.777789
-0.818112
-0.85624
-0.886871
-0.905787
-0.910123
-0.775408
-0.815619
-0.853045
-0.882253
-0.89751
-0.895199
-0.773186
-0.812833
-0.849976
-0.878634
-0.891204
-0.882471
-0.7714
-0.810185
-0.847494
-0.876298
-0.888333
-0.873494
-0.770196
-0.808187
-0.845753
-0.875571
-0.889532
-0.872033
-0.769663
-0.807486
-0.844945
-0.876608
-0.895021
-0.88302
-0.770136
-0.808617
-0.845038
-0.87876
-0.903994
-0.905885
-0.772175
-0.811058
-0.844838
-0.879052
-0.914196
-0.940372
-0.774589
-0.811806
-0.840944
-0.874988
-0.925685
-1.08066
-0.425102
-0.19956
-0.0804387
0.00576227
0.0713482
0.11816
0.150111
0.171928
0.187233
0.198493
0.20723
0.214276
0.220089
0.224942
0.229001
0.23238
0.23517
0.237454
0.239186
0.239972
0.239896
0.243477
0.259493
0.262184
-0.594072
-0.402434
-0.236736
-0.114454
-0.026689
0.0364218
0.0809516
0.112431
0.135187
0.152264
0.165618
0.176421
0.185339
0.192824
0.199125
0.204425
0.208862
0.212547
0.215482
0.217348
0.218076
0.221267
0.23535
0.242512
-0.686414
-0.556268
-0.372841
-0.227733
-0.122237
-0.0448042
0.0116205
0.0525643
0.0827706
0.105743
0.123825
0.138497
0.150668
0.160919
0.169624
0.177042
0.183362
0.188735
0.193237
0.196683
0.198815
0.201569
0.211993
0.227183
-0.766648
-0.665877
-0.485837
-0.331206
-0.212862
-0.123416
-0.0563311
-0.00653497
0.0308385
0.0595834
0.0823498
0.100887
0.11632
0.129382
0.140564
0.150212
0.158586
0.165894
0.172284
0.177685
0.181803
0.185872
0.195661
0.207833
-0.837131
-0.745915
-0.58082
-0.42461
-0.297417
-0.198079
-0.121773
-0.063932
-0.0198509
0.0143883
0.0416546
0.0639209
0.082504
0.0982816
0.111852
0.123637
0.133948
0.143014
0.150939
0.157552
0.162785
0.169092
0.181327
0.17662
-0.893368
-0.808078
-0.661755
-0.507884
-0.37508
-0.267843
-0.183797
-0.118838
-0.0686354
-0.0292968
0.00217449
0.0279244
0.0494316
0.0676994
0.0834106
0.0970343
0.108893
0.119192
0.127967
0.134985
0.140386
0.14733
0.160061
0.149144
-0.935685
-0.858565
-0.730065
-0.580745
-0.445099
-0.331921
-0.24155
-0.170525
-0.114903
-0.0709526
-0.0356532
-0.00674029
0.0173977
0.0378726
0.0554412
0.0706109
0.0837147
0.0949517
0.104357
0.111746
0.117415
0.124642
0.137186
0.125532
-0.96625
-0.8996
-0.785834
-0.642807
-0.506802
-0.389676
-0.294371
-0.218395
-0.158102
-0.110079
-0.0713814
-0.0396704
-0.0132274
0.00915394
0.0282997
0.0447619
0.0588987
0.0709308
0.080937
0.0888298
0.0950095
0.102571
0.114775
0.104293
-0.985981
-0.930996
-0.828865
-0.693601
-0.559445
-0.440381
-0.341578
-0.261913
-0.197731
-0.146202
-0.104564
-0.0704414
-0.0420294
-0.0180418
0.00241484
0.0199456
0.0349508
0.0476927
0.058309
0.0668102
0.0736522
0.0815956
0.0934859
0.0851403
-0.995523
-0.951958
-0.858989
-0.732678
-0.602368
-0.48321
-0.382783
-0.30031
-0.233172
-0.17881
-0.134743
-0.0986165
-0.0685761
-0.0432736
-0.0217551
-0.00335699
0.0123759
0.0257578
0.0369876
0.0461572
0.053727
0.0620846
0.0737277
0.0680438
-0.995721
-0.962231
-0.876538
-0.759677
-0.634986
-0.517661
-0.416933
-0.333171
-0.26393
-0.207422
-0.161452
-0.123757
-0.0924372
-0.0661045
-0.0437599
-0.0246826
-0.0083582
0.00558408
0.0174001
0.0272447
0.0355442
0.0443203
0.0557906
0.0530131
-0.987641
-0.961801
-0.882533
-0.774574
-0.656877
-0.543314
-0.443368
-0.359701
-0.289256
-0.231839
-0.184347
-0.145491
-0.113227
-0.0861378
-0.0631909
-0.0436152
-0.0268406
-0.012441
-0.000107219
0.0103636
0.01935
0.0285302
0.0399
0.0400557
-0.972529
-0.9507
-0.877863
-0.77782
-0.667832
-0.559564
-0.462267
-0.379378
-0.309117
-0.250998
-0.203203
-0.163592
-0.130646
-0.103046
-0.0797062
-0.059805
-0.0427264
-0.0279949
-0.0152522
-0.00425468
0.00533977
0.0148913
0.0262098
0.0291437
-0.951694
-0.929994
-0.862987
-0.770319
-0.668028
-0.566162
-0.47293
-0.392226
-0.323413
-0.264884
-0.217421
-0.177664
-0.144393
-0.116551
-0.0930272
-0.0729722
-0.0557399
-0.0408175
-0.0278046
-0.0164174
-0.00632687
0.00353374
0.0148023
0.0202023
-0.927062
-0.901771
-0.838905
-0.753418
-0.658482
-0.563515
-0.475397
-0.397914
-0.331503
-0.274412
-0.226666
-0.18733
-0.154247
-0.126471
-0.102974
-0.0829322
-0.0656935
-0.050723
-0.0375891
-0.0259682
-0.0155383
-0.00546479
0.00570862
0.0131212
-0.900251
-0.86862
-0.80766
-0.72876
-0.640897
-0.552775
-0.470305
-0.396796
-0.333128
-0.278451
-0.231766
-0.192748
-0.160219
-0.132777
-0.109494
-0.0896185
-0.0725073
-0.0576191
-0.0445055
-0.0328114
-0.022217
-0.0120464
-0.00106016
0.00779177
-0.873016
-0.83287
-0.77182
-0.698231
-0.617106
-0.535542
-0.458752
-0.389639
-0.329129
-0.276909
-0.232128
-0.194269
-0.162427
-0.135501
-0.11262
-0.0930633
-0.0762081
-0.0615237
-0.0485599
-0.0369438
-0.0263526
-0.0162499
-0.00558741
0.00411609
-0.847213
-0.796864
-0.733729
-0.663958
-0.588889
-0.513453
-0.442094
-0.377415
-0.320337
-0.270759
-0.22809
-0.191732
-0.160914
-0.134756
-0.112475
-0.0933944
-0.0769272
-0.0625674
-0.0498772
-0.0384801
-0.0280497
-0.0181504
-0.00796633
0.00194938
-0.824379
-0.762486
-0.695584
-0.628168
-0.558073
-0.488149
-0.421781
-0.361319
-0.307676
-0.260839
-0.220355
-0.185666
-0.156091
-0.130889
-0.109363
-0.0908903
-0.0749286
-0.0610046
-0.0487039
-0.0376578
-0.0275385
-0.0179638
-0.00842069
0.00112419
-0.804637
-0.730908
-0.659176
-0.592885
-0.526525
-0.461244
-0.399329
-0.342727
-0.292307
-0.248131
-0.209824
-0.176863
-0.148633
-0.124485
-0.103798
-0.0860142
-0.0706378
-0.0572339
-0.0454188
-0.0348442
-0.0252
-0.0161102
-0.00735546
0.00143495
-0.787542
-0.70241
-0.625836
-0.559787
-0.496052
-0.43439
-0.376247
-0.323038
-0.275545
-0.233831
-0.197576
-0.166291
-0.139402
-0.116322
-0.0964951
-0.0794215
-0.0646591
-0.0518161
-0.0405475
-0.0305316
-0.0214977
-0.0130658
-0.00534436
0.00248049
-0.774828
-0.676332
-0.596185
-0.530157
-0.468217
-0.409178
-0.353979
-0.303629
-0.258683
-0.219183
-0.184814
-0.155087
-0.12946
-0.107391
-0.0883769
-0.0719754
-0.0577979
-0.0455013
-0.0347924
-0.0253906
-0.0171077
-0.00950181
-0.0029813
0.00378478
-0.766247
-0.648819
-0.569673
-0.504747
-0.444195
-0.386961
-0.333861
-0.285731
-0.242914
-0.205353
-0.172685
-0.144406
-0.11997
-0.0988518
-0.0805862
-0.0647835
-0.051112
-0.0392824
-0.0290588
-0.0202146
-0.012629
-0.00586834
-0.000580126
0.00479209
-0.741726
-0.613675
-0.545343
-0.483785
-0.424681
-0.368673
-0.316972
-0.270397
-0.229219
-0.193274
-0.162127
-0.135212
-0.111949
-0.0917957
-0.0742795
-0.0590347
-0.0458162
-0.0344135
-0.0246164
-0.0162417
-0.00923524
-0.00331995
0.00103495
0.00476534
-0.594547
-0.593597
-0.577563
-0.550509
-0.495224
-0.374324
-0.591014
-0.591733
-0.576571
-0.55324
-0.512404
-0.441709
-0.584343
-0.589112
-0.575409
-0.555769
-0.527209
-0.485992
-0.580608
-0.587766
-0.576161
-0.56018
-0.54029
-0.515037
-0.581342
-0.588588
-0.578923
-0.566596
-0.552502
-0.535751
-0.586843
-0.591323
-0.583311
-0.57422
-0.564244
-0.552038
-0.595476
-0.595079
-0.588838
-0.582536
-0.57579
-0.566344
-0.601358
-0.598619
-0.594948
-0.591281
-0.587404
-0.58029
-0.604522
-0.601952
-0.6013
-0.600285
-0.599238
-0.594593
-0.607343
-0.605231
-0.607701
-0.609412
-0.611325
-0.609474
-0.610297
-0.608367
-0.613994
-0.618527
-0.623587
-0.624913
-0.613054
-0.611177
-0.620042
-0.627489
-0.635863
-0.640707
-0.615299
-0.613542
-0.625707
-0.636141
-0.647926
-0.656481
-0.616821
-0.6156
-0.630831
-0.644321
-0.659497
-0.671645
-0.617624
-0.616966
-0.635377
-0.651939
-0.670236
-0.685521
-0.617883
-0.617412
-0.639315
-0.658897
-0.679893
-0.698591
-0.617419
-0.617255
-0.642749
-0.665154
-0.688231
-0.709317
-0.619606
-0.617625
-0.645855
-0.670692
-0.695268
-0.717704
-0.62584
-0.619349
-0.648647
-0.675526
-0.701247
-0.724117
-0.629283
-0.62117
-0.650649
-0.679685
-0.706657
-0.729895
-0.628273
-0.621654
-0.651217
-0.682967
-0.712159
-0.740207
-0.623544
-0.61999
-0.649733
-0.684567
-0.71811
-0.764157
-0.616209
-0.616806
-0.646972
-0.684098
-0.723308
-0.797235
-0.6126
-0.61477
-0.645949
-0.684229
-0.727303
-0.818184
-0.624236
-0.578463
-0.524223
-0.467113
-0.409747
-0.354701
-0.303874
-0.258283
-0.218222
-0.183488
-0.153601
-0.127932
-0.105837
-0.0867338
-0.0701189
-0.0555773
-0.0428398
-0.0318057
-0.0224191
-0.0145685
-0.00817539
-0.00312426
0.000449038
0.00244347
-0.577788
-0.552
-0.507621
-0.454466
-0.398838
-0.344659
-0.294402
-0.249349
-0.209921
-0.175944
-0.146926
-0.122209
-0.101108
-0.0830111
-0.0673864
-0.0537964
-0.0419128
-0.0315571
-0.0227068
-0.0154133
-0.00971275
-0.0056426
-0.00337005
-0.00276772
-0.563467
-0.536181
-0.49593
-0.4452
-0.390904
-0.337387
-0.287471
-0.242641
-0.203388
-0.169658
-0.141008
-0.116774
-0.0962644
-0.0788768
-0.0640493
-0.0513277
-0.0404312
-0.0311299
-0.0232686
-0.0168431
-0.0119376
-0.00884227
-0.00825334
-0.00877531
-0.557085
-0.52785
-0.488928
-0.439021
-0.385185
-0.331699
-0.28159
-0.236493
-0.196992
-0.163059
-0.134299
-0.110115
-0.08993
-0.0731136
-0.0591075
-0.0474331
-0.0376627
-0.0295009
-0.0227948
-0.0174428
-0.0134345
-0.0112007
-0.0117102
-0.0117712
-0.555662
-0.525579
-0.486141
-0.436088
-0.381613
-0.327213
-0.276103
-0.230048
-0.189698
-0.155066
-0.125816
-0.101453
-0.0813462
-0.0647806
-0.0511662
-0.0400227
-0.0309906
-0.0237603
-0.0180736
-0.0137109
-0.0105443
-0.00867792
-0.00810992
-0.00587231
-0.558817
-0.528406
-0.487825
-0.436572
-0.380341
-0.324017
-0.271041
-0.223285
-0.181468
-0.145606
-0.115337
-0.0900987
-0.069211
-0.0520854
-0.0382173
-0.0271638
-0.0184921
-0.0118489
-0.00688594
-0.00330787
-0.000802865
0.00105699
0.00308747
0.00477614
-0.565873
-0.5357
-0.493986
-0.440467
-0.381428
-0.322158
-0.266417
-0.21622
-0.172355
-0.134846
-0.103301
-0.0771355
-0.0556903
-0.0383491
-0.0245769
-0.0138821
-0.00582705
-1.26548e-05
0.00391429
0.00633093
0.00764238
0.00861713
0.0104527
0.0107668
-0.57634
-0.547183
-0.504098
-0.447647
-0.384818
-0.321595
-0.262203
-0.208877
-0.162473
-0.123006
-0.0900268
-0.0629159
-0.0409933
-0.0235953
-0.0101327
-8.24716e-05
0.00703827
0.0116747
0.0142532
0.0151988
0.0149916
0.0144664
0.0146842
0.0133561
-0.589874
-0.562437
-0.517931
-0.457838
-0.39015
-0.321959
-0.258197
-0.201411
-0.152406
-0.111055
-0.0768312
-0.0490346
-0.0268921
-0.00966442
0.00329832
0.0125832
0.0187405
0.022274
0.0236544
0.0233544
0.0218634
0.0200028
0.0184548
0.016003
-0.606069
-0.581161
-0.535187
-0.470574
-0.396933
-0.323
-0.254574
-0.194278
-0.142815
-0.0999397
-0.0649834
-0.0370203
-0.0151213
0.00153235
0.0136995
0.0220843
0.0273077
0.0299344
0.030501
0.0295187
0.0273745
0.0248903
0.0219791
0.0198349
-0.624465
-0.602995
-0.55542
-0.485282
-0.404523
-0.324162
-0.250698
-0.186952
-0.133578
-0.0899559
-0.0549643
-0.0274307
-0.00628445
0.00946679
0.0207258
0.0283046
0.0327889
0.0346706
0.0346482
0.0334181
0.0311464
0.0283602
0.02294
0.0211867
-0.644519
-0.627385
-0.577935
-0.500915
-0.411821
-0.324342
-0.245961
-0.179642
-0.125367
-0.0818775
-0.0475929
-0.0210822
-0.00108621
0.0135667
0.0237631
0.0306487
0.0346973
0.0357141
0.0344442
0.0324734
0.0302124
0.028563
0.0252708
0.024124
-0.665538
-0.65358
-0.601493
-0.516129
-0.418258
-0.323847
-0.241591
-0.173867
-0.119729
-0.0772195
-0.044333
-0.01935
-0.000791811
0.0127277
0.0217236
0.0276955
0.0323431
0.0356222
0.0370763
0.036099
0.0332755
0.0295795
0.0257973
0.0279347
-0.686612
-0.680611
-0.624011
-0.530346
-0.423791
-0.323828
-0.239188
-0.171275
-0.118122
-0.0770178
-0.0455754
-0.0219455
-0.00444
0.00885928
0.0196928
0.0273347
0.0317159
0.0341023
0.0350232
0.0346559
0.03309
0.0309775
0.0291737
0.0332268
-0.706786
-0.705935
-0.64406
-0.541874
-0.42795
-0.324239
-0.238779
-0.171564
-0.119612
-0.079634
-0.0488966
-0.0251902
-0.00705034
0.0064097
0.0165138
0.0244311
0.0300223
0.0334705
0.0353172
0.0361574
0.0363161
0.0362682
0.0378772
0.0411795
-0.724763
-0.725455
-0.658169
-0.54741
-0.428126
-0.32262
-0.23772
-0.171766
-0.121015
-0.0818554
-0.0514616
-0.0276733
-0.00894421
0.00549697
0.0164009
0.0247416
0.0308925
0.0353706
0.0390479
0.041623
0.0426721
0.0430419
0.0460874
0.0481605
-0.739277
-0.734404
-0.662381
-0.543174
-0.420442
-0.315514
-0.232476
-0.168278
-0.118924
-0.0806728
-0.0506979
-0.0270126
-0.00805632
0.00712765
0.01889
0.0276573
0.0345003
0.0401576
0.0443447
0.0471238
0.0488988
0.0509408
0.0562688
0.0553458
-0.748366
-0.72889
-0.652138
-0.52621
-0.402479
-0.300515
-0.220678
-0.159011
-0.111473
-0.0745073
-0.045317
-0.0220162
-0.00330118
0.011784
0.0238811
0.0334848
0.041031
0.046925
0.0514806
0.0548885
0.0574795
0.0610527
0.0692145
0.0670866
-0.748385
-0.710069
-0.625027
-0.495219
-0.373765
-0.276459
-0.201786
-0.143794
-0.0984708
-0.0631664
-0.0351581
-0.0126348
0.00561652
0.0204573
0.0325102
0.0422542
0.0501173
0.05646
0.0615311
0.0654995
0.0687531
0.0736779
0.084688
0.0813136
-0.733505
-0.683187
-0.582612
-0.450968
-0.33504
-0.244242
-0.17561
-0.122118
-0.0800338
-0.0469457
-0.020549
0.000813079
0.0182522
0.0325553
0.0443081
0.0539651
0.0618899
0.0683783
0.0736788
0.0779414
0.0815758
0.087479
0.100498
0.0952183
-0.69354
-0.646975
-0.526119
-0.394684
-0.287145
-0.20505
-0.142816
-0.09453
-0.0564925
-0.0262788
-0.00196178
0.0178648
0.0341795
0.0476817
0.0588922
0.0682079
0.0759412
0.0823508
0.0876599
0.0919725
0.0957109
0.102229
0.116686
0.109342
-0.631989
-0.583405
-0.451362
-0.326663
-0.230801
-0.159133
-0.104624
-0.062286
-0.0287607
-0.00185267
0.0200294
0.0380402
0.0530007
0.0655041
0.0759919
0.0848005
0.0921933
0.0983916
0.103578
0.107795
0.111464
0.118345
0.133871
0.124438
-0.558719
-0.474578
-0.353216
-0.247691
-0.167788
-0.108024
-0.0623333
-0.0265032
0.00218071
0.0254939
0.0446823
0.0606502
0.0740549
0.0853787
0.0949807
0.103132
0.110044
0.115895
0.120813
0.12477
0.128191
0.13515
0.151305
0.140084
-0.441019
-0.32415
-0.237415
-0.161365
-0.100733
-0.0539677
-0.0174665
0.0116656
0.035375
0.0549477
0.0712876
0.08506
0.0967602
0.106759
0.115337
0.122702
0.129019
0.134422
0.138976
0.142572
0.145637
0.152486
0.168991
0.156545
0.681929
0.70085
0.737368
0.788762
0.78155
0.599717
0.683487
0.698528
0.723509
0.751832
0.705549
0.573058
0.684168
0.695105
0.709313
0.723641
0.670341
0.549506
0.683408
0.690815
0.697786
0.703492
0.65086
0.54622
0.681743
0.686629
0.689261
0.689979
0.643861
0.554986
0.679612
0.682956
0.683123
0.681321
0.642588
0.566145
0.677162
0.679754
0.678698
0.676028
0.643357
0.576761
0.674477
0.676857
0.675445
0.672796
0.644812
0.586241
0.671661
0.674127
0.672968
0.670755
0.64659
0.59478
0.668826
0.671485
0.670979
0.669451
0.648724
0.602726
0.66609
0.668905
0.669343
0.668608
0.651294
0.610283
0.663571
0.666395
0.667901
0.668214
0.654012
0.617196
0.661385
0.663991
0.66656
0.668125
0.657018
0.623907
0.659613
0.661775
0.665273
0.668247
0.66022
0.630449
0.65827
0.659872
0.664008
0.668459
0.663497
0.636767
0.65742
0.65839
0.662744
0.668602
0.666706
0.642776
0.65716
0.657414
0.661468
0.668442
0.669664
0.648274
0.657535
0.657011
0.660182
0.667554
0.672002
0.652589
0.658249
0.657157
0.658834
0.665335
0.672913
0.654179
0.656922
0.657468
0.657161
0.661268
0.671379
0.651469
0.652896
0.65729
0.654697
0.655246
0.667586
0.646408
0.653568
0.656974
0.651177
0.64673
0.664
0.645294
0.660436
0.656774
0.647105
0.638211
0.66234
0.618759
0.664289
0.656135
0.643284
0.630694
0.64775
0.40037
-0.139285
-0.1737
-0.12339
-0.0743543
-0.0330065
0.000898253
0.0284485
0.0510618
0.0698882
0.0857367
0.0991952
0.110712
0.120634
0.12923
0.136702
0.143205
0.148858
0.153754
0.157894
0.161079
0.163723
0.170303
0.186925
0.174084
0.0704092
-0.0384322
-0.0189604
0.00780368
0.0325516
0.0548562
0.0741923
0.0907317
0.104926
0.117178
0.127806
0.137071
0.145187
0.152331
0.15864
0.164219
0.169151
0.173495
0.177203
0.179992
0.182214
0.188378
0.204822
0.192896
0.204219
0.0851725
0.0750183
0.0828698
0.0943481
0.106859
0.118904
0.129911
0.139817
0.148687
0.15661
0.163685
0.170013
0.175689
0.180795
0.185397
0.189551
0.193298
0.196569
0.199061
0.201017
0.206628
0.222368
0.213801
0.301953
0.18693
0.156484
0.150259
0.151496
0.155975
0.16178
0.167937
0.174011
0.179799
0.185208
0.190206
0.194801
0.19902
0.202893
0.206454
0.209737
0.212777
0.215545
0.217809
0.219599
0.223914
0.237417
0.240879
0.37296
0.267483
0.226226
0.210095
0.203578
0.201735
0.20241
0.204435
0.207157
0.210192
0.213311
0.216381
0.219334
0.222132
0.224759
0.227206
0.229471
0.231573
0.233525
0.235151
0.235898
0.235862
0.241167
0.282222
0.425165
0.330634
0.285122
0.262831
0.250737
0.24402
0.240551
0.239133
0.238994
0.23963
0.240716
0.242047
0.24349
0.24496
0.24639
0.247728
0.248936
0.250005
0.250896
0.251239
0.250397
0.250676
0.263053
0.284372
0.464208
0.380808
0.334937
0.309179
0.293211
0.282836
0.276121
0.271909
0.269385
0.267978
0.267302
0.267105
0.267211
0.267497
0.267861
0.268221
0.268513
0.26871
0.268701
0.267971
0.266187
0.267542
0.282996
0.291137
0.494201
0.421368
0.377216
0.349887
0.33141
0.318378
0.30918
0.302747
0.298273
0.295159
0.292991
0.291485
0.290442
0.289712
0.28917
0.288713
0.288267
0.287791
0.287134
0.285736
0.283519
0.285537
0.302225
0.30438
0.518025
0.454755
0.413392
0.385746
0.365784
0.350898
0.339843
0.33169
0.325656
0.321146
0.317737
0.315135
0.313128
0.311549
0.31026
0.309142
0.308112
0.307122
0.305998
0.304162
0.301682
0.303984
0.321056
0.32028
0.537527
0.482747
0.444678
0.417503
0.396795
0.380694
0.368296
0.358837
0.351578
0.345942
0.341518
0.338014
0.335211
0.332937
0.331042
0.329397
0.327912
0.326534
0.325075
0.322949
0.320313
0.322733
0.339748
0.337411
0.553895
0.506728
0.471987
0.445837
0.424927
0.408086
0.394748
0.384315
0.376107
0.369577
0.364333
0.360094
0.356644
0.353808
0.351427
0.349367
0.34753
0.345858
0.344155
0.341839
0.339126
0.34158
0.358231
0.355071
0.568419
0.527658
0.496207
0.47138
0.450636
0.433395
0.419417
0.408267
0.399331
0.392094
0.386191
0.381357
0.377386
0.374099
0.371335
0.36895
0.366844
0.364954
0.363079
0.360649
0.357926
0.360358
0.376395
0.372859
0.581226
0.546265
0.518012
0.494677
0.474333
0.456927
0.442521
0.430845
0.421346
0.413547
0.407112
0.401797
0.397405
0.393759
0.390692
0.388056
0.385747
0.383697
0.381706
0.379223
0.376545
0.378909
0.394122
0.390504
0.592622
0.5631
0.537952
0.516196
0.496393
0.478968
0.464271
0.452194
0.44225
0.433994
0.427122
0.421412
0.416676
0.412741
0.409436
0.406607
0.404145
0.40198
0.399915
0.397429
0.394839
0.397093
0.411308
0.407802
0.602819
0.578597
0.556494
0.536357
0.517157
0.499784
0.484864
0.472458
0.46214
0.453495
0.446249
0.440203
0.43518
0.431008
0.427512
0.424532
0.421955
0.419709
0.417601
0.415149
0.412678
0.414783
0.427856
0.424592
0.611956
0.593098
0.574073
0.555542
0.536942
0.519623
0.504486
0.491769
0.481105
0.472103
0.464518
0.458171
0.452895
0.448521
0.444867
0.441767
0.4391
0.436795
0.434667
0.432275
0.429945
0.431862
0.443683
0.440739
0.620132
0.606917
0.5911
0.574135
0.556041
0.538715
0.523309
0.510247
0.499225
0.489867
0.48195
0.475313
0.469802
0.465244
0.46145
0.458247
0.455508
0.453157
0.451023
0.448708
0.446528
0.448226
0.458715
0.456131
0.627355
0.620466
0.608009
0.592517
0.574735
0.55727
0.541489
0.527998
0.516567
0.506821
0.498555
0.491622
0.485873
0.481135
0.477209
0.47391
0.471105
0.468715
0.466579
0.46435
0.462325
0.463778
0.47289
0.470677
0.63367
0.634292
0.625261
0.611042
0.593299
0.575475
0.55916
0.54511
0.533179
0.522987
0.514332
0.507077
0.501076
0.496148
0.492086
0.48869
0.485818
0.483386
0.481249
0.479109
0.477237
0.478433
0.486162
0.484299
0.639604
0.64902
0.643312
0.630086
0.611989
0.593487
0.576414
0.561647
0.549087
0.538367
0.529266
0.521647
0.515364
0.510229
0.506017
0.502515
0.499569
0.497089
0.494946
0.492891
0.491178
0.492144
0.498531
0.496874
0.646602
0.665528
0.662762
0.650112
0.631067
0.611438
0.5933
0.577621
0.564293
0.552938
0.543319
0.535285
0.528684
0.523314
0.518932
0.515307
0.512272
0.509732
0.507568
0.505587
0.504037
0.504826
0.509877
0.508042
0.65619
0.686095
0.684833
0.671661
0.650742
0.629393
0.609816
0.592993
0.578754
0.566653
0.556435
0.547929
0.540966
0.535328
0.53075
0.526981
0.523836
0.521212
0.519001
0.517059
0.51562
0.516173
0.519921
0.518038
0.669962
0.716821
0.711411
0.695012
0.67098
0.647255
0.625856
0.60766
0.592367
0.579429
0.568534
0.559499
0.552131
0.546191
0.541392
0.537456
0.53418
0.53145
0.52917
0.527233
0.525826
0.526037
0.528622
0.527134
0.71106
0.763898
0.742644
0.719533
0.691295
0.664692
0.641192
0.621442
0.604976
0.59113
0.579507
0.569897
0.562089
0.55582
0.550777
0.546657
0.543237
0.54039
0.538032
0.536086
0.534679
0.534543
0.536159
0.535175
)
;

boundaryField
{
    rotor
    {
        type            zeroGradient;
    }
    freestream
    {
        type            freestreamPressure;
        freestreamValue uniform 0;
        supersonic      false;
        value           nonuniform List<scalar> 
96
(
0.535494
0.54419
0.550397
0.554005
0.554932
0.553106
0.548517
0.541167
0.531083
0.518406
0.503347
0.485935
0.466181
0.444123
0.420228
0.394828
0.36824
0.340805
0.31288
0.284832
0.257037
0.229905
0.203703
0.179021
0.156421
0.136491
0.120248
0.103293
0.0822384
0.0647859
0.0506592
0.0389434
0.0292976
0.0214895
0.015302
0.0105219
0.00693617
0.00433614
0.00252726
0.00133946
0.000627586
0.000261607
0.000131484
0.000144324
0.000210619
0.000264633
0.000268889
0.000211714
8.80991e-05
-8.64794e-05
-0.00024728
-0.000264865
-7.28366e-05
1.52572e-05
1.08113e-06
6.10553e-05
0.000214391
0.000476405
0.000757499
0.0011872
0.00179912
0.00272214
0.00419611
0.00595906
0.00810843
0.0114441
0.0159204
0.0211412
0.0272858
0.0346476
0.0432143
0.0531597
0.0646876
0.0779917
0.0935547
0.113511
0.142548
0.152884
0.166588
0.184617
0.20506
0.227115
0.250303
0.274273
0.298721
0.323364
0.347929
0.372152
0.395781
0.418572
0.440297
0.460685
0.479242
0.496033
0.511189
0.524447
)
;
    }
    frontAndBack
    {
        type            empty;
    }
}


// ************************************************************************* //
