/*--------------------------------*- C++ -*----------------------------------*\
  =========                 |
  \\      /  F ield         | OpenFOAM: The Open Source CFD Toolbox
   \\    /   O peration     | Website:  https://openfoam.org
    \\  /    A nd           | Version:  11
     \\/     M anipulation  |
\*---------------------------------------------------------------------------*/
FoamFile
{
    format      ascii;
    class       volVectorField;
    location    "0.96";
    object      U;
}
// * * * * * * * * * * * * * * * * * * * * * * * * * * * * * * * * * * * * * //

dimensions      [0 1 -1 0 0 0 0];

internalField   nonuniform List<vector> 
2880
(
(0.0348156 -0.0609191 -1.06846e-18)
(0.181083 -0.12147 1.50079e-18)
(0.328845 -0.173164 3.72618e-20)
(0.401554 -0.192469 -5.43379e-19)
(0.395928 -0.190777 4.71507e-19)
(0.232946 -0.0970548 3.12156e-19)
(0.0773138 -0.0931256 1.01346e-18)
(0.233731 -0.171645 -7.09407e-19)
(0.343343 -0.205068 2.38918e-19)
(0.389587 -0.207214 4.11993e-19)
(0.392504 -0.191144 -2.95033e-19)
(0.302076 -0.105867 -5.03063e-19)
(0.102771 -0.121139 0)
(0.245605 -0.199827 -1.70854e-19)
(0.33171 -0.22149 -1.27135e-19)
(0.371815 -0.213323 2.60556e-20)
(0.376924 -0.182084 -1.10441e-19)
(0.344287 -0.088889 0)
(0.122913 -0.150504 0)
(0.247341 -0.222905 1.58414e-19)
(0.318097 -0.236727 -1.16159e-19)
(0.356108 -0.220321 2.1156e-20)
(0.36593 -0.180635 1.03715e-19)
(0.364828 -0.0925089 0)
(0.138792 -0.178457 0)
(0.246247 -0.242828 -1.48641e-19)
(0.306305 -0.251503 1.12718e-19)
(0.342656 -0.230129 -2.28597e-20)
(0.359632 -0.186692 -9.65579e-20)
(0.377054 -0.1077 0)
(0.151193 -0.203637 0)
(0.244121 -0.259787 1.40574e-19)
(0.295722 -0.265881 -1.06857e-19)
(0.331586 -0.242459 1.5146e-19)
(0.355978 -0.198985 1.2899e-19)
(0.385902 -0.129769 -1.57819e-19)
(0.160898 -0.226017 9.57902e-19)
(0.24108 -0.274276 0)
(0.286025 -0.280048 0)
(0.322219 -0.257192 -1.25294e-19)
(0.353376 -0.216371 -3.17244e-19)
(0.392374 -0.156811 -1.20082e-19)
(0.168529 -0.245529 -1.93402e-18)
(0.23702 -0.286872 -4.67659e-19)
(0.276764 -0.294213 -4.15434e-19)
(0.313821 -0.27414 -3.96834e-20)
(0.350876 -0.237844 3.09299e-19)
(0.39684 -0.187347 2.38577e-19)
(0.174419 -0.261936 2.83738e-18)
(0.231769 -0.29801 5.02292e-19)
(0.267483 -0.308523 3.79468e-19)
(0.305727 -0.293042 6.21013e-19)
(0.347891 -0.262642 0)
(0.399524 -0.220624 4.6181e-19)
(0.178732 -0.275048 -6.40233e-20)
(0.225134 -0.307978 3.07718e-20)
(0.257764 -0.323051 0)
(0.297361 -0.31363 -6.08989e-19)
(0.344012 -0.29021 0)
(0.400566 -0.256284 -4.56779e-19)
(0.181198 -0.284684 -1.84715e-18)
(0.217008 -0.316981 9.70175e-19)
(0.247248 -0.337809 -8.96716e-20)
(0.288228 -0.335645 6.70077e-19)
(0.338906 -0.320143 5.08075e-19)
(0.400057 -0.294193 -4.44581e-19)
(0.181399 -0.290816 -1.92709e-18)
(0.207337 -0.32514 -9.35579e-19)
(0.23563 -0.352751 -8.84785e-20)
(0.277908 -0.358831 -1.10044e-18)
(0.332293 -0.352135 -5.03347e-19)
(0.398032 -0.334356 3.34047e-19)
(0.178908 -0.293544 1.86853e-18)
(0.196088 -0.332513 0)
(0.222673 -0.367757 -7.11279e-19)
(0.266036 -0.382929 5.82642e-19)
(0.323906 -0.385925 0)
(0.394448 -0.376821 4.29861e-19)
(0.173369 -0.293065 2.92168e-20)
(0.18323 -0.33908 0)
(0.208225 -0.382637 7.12175e-19)
(0.252295 -0.407638 -5.77523e-19)
(0.313461 -0.421253 4.87245e-19)
(0.389193 -0.421661 -4.28357e-19)
(0.164573 -0.289595 1.87742e-18)
(0.168777 -0.34473 0)
(0.192197 -0.397115 -8.82888e-20)
(0.23644 -0.432539 6.52288e-19)
(0.300653 -0.457803 1.14425e-19)
(0.382081 -0.468929 -4.2133e-19)
(0.152442 -0.283333 -1.91061e-18)
(0.152871 -0.349241 9.66925e-19)
(0.174593 -0.410767 1.35615e-19)
(0.218289 -0.457063 5.06123e-19)
(0.285151 -0.49511 -3.67422e-19)
(0.372832 -0.518574 8.17526e-19)
(0.137122 -0.274396 -1.89812e-18)
(0.135781 -0.352191 -1.12612e-18)
(0.155544 -0.422965 7.9063e-19)
(0.197731 -0.480413 -5.87264e-19)
(0.266588 -0.532447 -3.63444e-19)
(0.361046 -0.570338 -5.15022e-19)
(0.119112 -0.262648 1.90573e-18)
(0.117882 -0.352885 0)
(0.135304 -0.43279 -1.528e-18)
(0.174687 -0.501503 0)
(0.244548 -0.568726 3.70218e-19)
(0.346148 -0.623688 1.04405e-19)
(0.0993885 -0.247426 0)
(0.0996071 -0.350225 -1.15123e-18)
(0.114228 -0.438929 1.68103e-18)
(0.149061 -0.518904 -4.4114e-21)
(0.218526 -0.602346 -6.37158e-20)
(0.327233 -0.67768 -3.89705e-19)
(0.0793917 -0.22723 9.12478e-20)
(0.0814164 -0.342515 2.36749e-18)
(0.0927005 -0.439589 -1.65907e-18)
(0.12072 -0.530872 7.17667e-19)
(0.188006 -0.630909 -6.55601e-20)
(0.302772 -0.730755 3.99728e-19)
(0.0606352 -0.199828 0)
(0.0637581 -0.327431 2.70925e-21)
(0.0711421 -0.43262 8.80553e-19)
(0.0896049 -0.535612 -1.44098e-18)
(0.152487 -0.651007 6.87592e-20)
(0.269943 -0.78111 -3.92965e-19)
(0.0448514 -0.164177 6.26873e-20)
(0.047537 -0.302506 -1.47319e-18)
(0.0504455 -0.415774 6.10593e-20)
(0.0564119 -0.531766 7.38038e-19)
(0.112089 -0.6576 0)
(0.222809 -0.82903 4.22083e-19)
(0.0351186 -0.122059 3.26085e-20)
(0.0347939 -0.263958 0)
(0.033023 -0.385304 -5.3886e-19)
(0.0230984 -0.517555 -4.16695e-19)
(0.067365 -0.639284 7.17862e-20)
(0.147323 -0.888579 -6.32183e-20)
(0.0340098 -0.063053 -1.02241e-18)
(0.0260637 -0.185272 -8.41328e-19)
(0.0149251 -0.31435 5.95193e-19)
(-0.026457 -0.47514 4.65207e-19)
(0.0417904 -0.566671 -8.15422e-20)
(0.00323984 -1.02449 3.3631e-20)
(0.472867 0.277664 5.03699e-20)
(0.652809 0.231245 5.01859e-19)
(0.723147 0.189548 -5.24269e-20)
(0.777323 0.154908 2.26581e-19)
(0.816412 0.130957 7.7409e-20)
(0.848305 0.113285 2.73292e-21)
(0.874554 0.099584 2.36474e-19)
(0.896556 0.0883771 5.2422e-20)
(0.915167 0.0788412 -9.56333e-20)
(0.930983 0.0705316 8.61428e-20)
(0.944423 0.0631713 1.60655e-19)
(0.955831 0.0565483 -7.57332e-20)
(0.965478 0.0504874 7.10468e-20)
(0.973578 0.0448446 6.66804e-20)
(0.980305 0.0395105 1.28391e-19)
(0.985805 0.0344191 6.20329e-20)
(0.990209 0.0295492 5.96799e-20)
(0.993642 0.0249099 -5.65698e-20)
(0.996229 0.0205115 1.65664e-19)
(0.998099 0.016342 -1.05271e-19)
(0.99934 0.0123685 5.09707e-20)
(0.999875 0.00859241 -4.92903e-20)
(0.999479 0.00513039 1.9155e-19)
(0.998617 0.00205103 4.27268e-20)
(0.440632 0.189041 4.72378e-20)
(0.615069 0.181792 -2.85405e-19)
(0.69593 0.153168 2.82978e-20)
(0.756619 0.125643 9.45127e-20)
(0.799901 0.105852 0)
(0.834621 0.0910235 -6.90283e-20)
(0.862964 0.0794922 -1.18466e-19)
(0.886604 0.070092 -1.05575e-19)
(0.906539 0.0621341 1.44033e-19)
(0.923454 0.055259 0)
(0.937836 0.0492443 -1.21908e-19)
(0.950073 0.0439001 0)
(0.960459 0.039069 -3.51895e-20)
(0.969228 0.0346207 6.76105e-20)
(0.976568 0.0304542 -6.4641e-20)
(0.982635 0.0265043 -6.20665e-20)
(0.987565 0.0227427 -1.49763e-19)
(0.991487 0.0191669 4.81859e-22)
(0.994526 0.0157792 -5.53756e-20)
(0.996807 0.0125689 -1.60504e-19)
(0.998422 0.00950971 1.29576e-19)
(0.999365 0.00659012 -4.97161e-20)
(0.999558 0.00386901 -9.67472e-20)
(0.999304 0.00141883 1.73029e-19)
(0.441269 0.117978 0)
(0.593024 0.12916 0)
(0.675603 0.113105 -2.71675e-20)
(0.739535 0.0934758 -9.25496e-20)
(0.785847 0.0784562 -1.87073e-20)
(0.822857 0.0668909 1.04413e-19)
(0.853009 0.0578307 0)
(0.87811 0.0504706 0)
(0.899253 0.044286 -4.84617e-20)
(0.917172 0.0390107 4.4111e-20)
(0.932403 0.0344721 -7.07182e-22)
(0.945371 0.0305168 0)
(0.9564 0.0270126 -3.59844e-20)
(0.965745 0.0238477 0)
(0.973606 0.0209329 -3.26653e-20)
(0.980148 0.0182045 -3.11372e-20)
(0.985512 0.0156252 9.09457e-20)
(0.989829 0.0131799 -5.81785e-20)
(0.993227 0.0108624 5.62852e-20)
(0.995829 0.00866261 0)
(0.99773 0.00656248 -2.59778e-20)
(0.998977 0.00454978 0)
(0.999589 0.0026503 -4.87288e-20)
(0.999756 0.000914317 4.36721e-20)
(0.449365 0.0600764 4.82266e-21)
(0.580283 0.0787086 4.06595e-21)
(0.661545 0.071986 -6.84523e-21)
(0.726345 0.0595618 6.15755e-21)
(0.774589 0.0493275 5.13549e-21)
(0.813319 0.0411952 0)
(0.844943 0.0347939 -7.53271e-21)
(0.87128 0.0296482 6.95728e-21)
(0.893466 0.0253951 -9.16842e-21)
(0.91226 0.0218595 5.70721e-21)
(0.928229 0.0189185 0)
(0.941823 0.0164552 -1.20246e-20)
(0.953391 0.0143655 1.34472e-22)
(0.963205 0.0125619 2.26467e-21)
(0.97148 0.0109707 1.64999e-20)
(0.978392 0.00953168 -9.92826e-21)
(0.984087 0.00819991 1.51785e-20)
(0.988697 0.00694632 -1.46985e-20)
(0.992353 0.00575464 0)
(0.995178 0.00461451 0)
(0.997275 0.00351689 -1.6402e-21)
(0.998716 0.00245617 0)
(0.999567 0.0014399 0)
(0.999957 0.000479276 9.59133e-21)
(0.457781 0.00935768 0)
(0.573248 0.0312406 -8.24063e-21)
(0.65235 0.0310896 -5.66029e-20)
(0.716842 0.0247419 -4.83956e-20)
(0.766222 0.0189723 5.62866e-20)
(0.806177 0.0142658 1.73754e-20)
(0.838941 0.0106157 -4.62337e-20)
(0.866275 0.00779842 4.16159e-20)
(0.889321 0.00559327 1.57238e-20)
(0.908839 0.00390677 3.4181e-20)
(0.925414 0.00266322 -2.09098e-20)
(0.939515 0.00178036 2.42445e-21)
(0.951506 0.00118294 0)
(0.961675 0.000807579 -2.16012e-21)
(0.970252 0.000599296 0)
(0.977419 0.000505561 1.97902e-21)
(0.983331 0.00047591 0)
(0.988124 0.000467387 0)
(0.991931 0.000451719 0)
(0.994877 0.000416933 2.72034e-20)
(0.997071 0.000363045 -5.09106e-20)
(0.998593 0.000294157 2.53446e-20)
(0.999487 0.00020247 -2.44905e-20)
(0.999898 5.24512e-05 4.53119e-20)
(0.464519 -0.0378859 1.93878e-19)
(0.569656 -0.0138327 9.82447e-20)
(0.646788 -0.00921173 1.41695e-19)
(0.710633 -0.0105292 2.59198e-20)
(0.760679 -0.0122238 8.418e-20)
(0.801482 -0.0135971 -3.55138e-20)
(0.835099 -0.0144745 5.12445e-22)
(0.86321 -0.0149008 5.59833e-20)
(0.886933 -0.0149759 -2.48738e-20)
(0.907016 -0.0147288 -2.26923e-20)
(0.924055 -0.0141953 1.04193e-19)
(0.93853 -0.0134264 -7.82592e-20)
(0.95082 -0.0124696 0)
(0.961222 -0.0113631 0)
(0.969978 -0.0101417 9.86611e-20)
(0.977281 -0.00884711 -6.35979e-20)
(0.98329 -0.00753218 0)
(0.988148 -0.0062522 0)
(0.99199 -0.00504809 -5.6348e-20)
(0.994948 -0.0039355 5.45124e-20)
(0.997137 -0.00290661 0)
(0.998612 -0.00195052 -1.26597e-19)
(0.999365 -0.00110078 1.6376e-23)
(0.99958 -0.000427508 1.09805e-19)
(0.469871 -0.0828956 -1.54356e-19)
(0.568253 -0.0573972 6.72733e-20)
(0.644053 -0.0490232 -5.44489e-20)
(0.707334 -0.0460624 0)
(0.757812 -0.0440055 -8.26959e-20)
(0.799217 -0.0421597 1.42835e-19)
(0.833469 -0.0402772 -1.24712e-19)
(0.862163 -0.0382799 -5.53636e-20)
(0.88639 -0.0361687 -9.96649e-20)
(0.90688 -0.0339249 9.07653e-20)
(0.924237 -0.0315525 -4.1853e-20)
(0.938949 -0.0290754 1.15918e-19)
(0.951404 -0.0265157 -7.35405e-20)
(0.961912 -0.0238874 0)
(0.97072 -0.021204 -3.28933e-20)
(0.978031 -0.018493 0)
(0.984013 -0.0158046 1.81019e-19)
(0.988811 -0.0132034 -6.83421e-22)
(0.992567 -0.0107436 -1.12634e-19)
(0.995421 -0.0084467 -1.081e-19)
(0.997494 -0.00629956 5.25706e-20)
(0.998798 -0.00429375 7.55249e-20)
(0.999207 -0.0025036 0)
(0.999014 -0.00102115 -2.19468e-20)
(0.474172 -0.12677 -3.04933e-19)
(0.568426 -0.100258 -8.65785e-22)
(0.643633 -0.0886269 0)
(0.706624 -0.0818274 -9.3898e-20)
(0.757478 -0.0762389 8.50864e-20)
(0.799349 -0.0712593 -1.42867e-19)
(0.834077 -0.066628 6.36983e-20)
(0.863192 -0.0621838 -5.3831e-20)
(0.887762 -0.0578445 1.64563e-21)
(0.908506 -0.0535562 -8.90434e-20)
(0.926034 -0.0492977 -8.24067e-20)
(0.940843 -0.0450699 7.82087e-20)
(0.953329 -0.040872 0)
(0.963809 -0.0366952 -1.35962e-19)
(0.972539 -0.0325312 1.95854e-19)
(0.979728 -0.0283899 0)
(0.985552 -0.0243137 5.93628e-20)
(0.990162 -0.0203714 -1.15905e-19)
(0.993704 -0.0166296 0)
(0.996331 -0.0131173 0)
(0.99817 -0.00981966 4.87654e-22)
(0.999169 -0.00674488 -2.50591e-19)
(0.999034 -0.00403872 2.42276e-19)
(0.998224 -0.00178956 0)
(0.477675 -0.170362 3.03006e-19)
(0.569874 -0.143066 -3.23291e-19)
(0.645219 -0.128349 -5.13071e-20)
(0.708288 -0.117914 1.92026e-19)
(0.759575 -0.108883 -8.4771e-20)
(0.801857 -0.100791 1.39052e-19)
(0.836948 -0.0933945 -2.49125e-19)
(0.866348 -0.0864726 3.31377e-19)
(0.891114 -0.0798675 -2.37933e-21)
(0.911963 -0.0734961 1.79974e-19)
(0.929517 -0.0673158 0)
(0.94428 -0.0613067 -1.51852e-19)
(0.956658 -0.0554473 2.87055e-19)
(0.966975 -0.0497074 6.52594e-20)
(0.975494 -0.0440572 -1.30021e-19)
(0.98243 -0.0384866 -1.2376e-19)
(0.987964 -0.0330237 1.17935e-19)
(0.992253 -0.0277353 1.12972e-19)
(0.995449 -0.0226969 -4.39743e-19)
(0.997719 -0.0179454 4.24118e-19)
(0.999199 -0.0134689 2.39709e-22)
(0.999751 -0.00931239 -1.97999e-19)
(0.998869 -0.00573399 1.91646e-19)
(0.997237 -0.00278811 -1.73022e-19)
(0.480569 -0.214389 -7.29685e-20)
(0.572471 -0.186391 -5.93655e-20)
(0.648664 -0.168548 1.13678e-19)
(0.712226 -0.154475 9.27424e-20)
(0.764067 -0.141957 -8.42401e-20)
(0.806749 -0.13069 2.81262e-19)
(0.842121 -0.120468 0)
(0.871685 -0.111018 1.07383e-19)
(0.896507 -0.102105 -3.93819e-19)
(0.917316 -0.0936157 -2.66716e-19)
(0.934749 -0.0854861 0)
(0.949322 -0.0776755 0)
(0.961451 -0.0701424 -1.40308e-19)
(0.971469 -0.0628365 -6.70789e-20)
(0.979643 -0.055707 6.37237e-20)
(0.986193 -0.0487217 1.19981e-19)
(0.991304 -0.0418898 0)
(0.995137 -0.0352681 -1.11017e-19)
(0.99785 -0.0289344 2.15583e-19)
(0.999627 -0.0229316 -3.13839e-19)
(1.00061 -0.0172533 5.10797e-20)
(1.00057 -0.0119977 1.94986e-19)
(0.99873 -0.00757191 4.62885e-20)
(0.996133 -0.00409424 -8.45604e-20)
(0.483029 -0.259489 -7.19735e-20)
(0.576195 -0.230774 5.7073e-19)
(0.653956 -0.209595 0)
(0.718447 -0.191702 -3.74184e-19)
(0.770991 -0.175514 -1.63866e-19)
(0.814078 -0.160919 -1.48143e-19)
(0.849656 -0.147755 0)
(0.879269 -0.135695 0)
(0.904007 -0.124422 5.78472e-19)
(0.92463 -0.11378 -1.66261e-21)
(0.941792 -0.10368 3.3665e-22)
(0.956028 -0.0940567 1.5089e-19)
(0.967765 -0.0848485 -1.37918e-19)
(0.977344 -0.075985 -1.29471e-19)
(0.985036 -0.0673947 0)
(0.991064 -0.0590231 -1.19561e-19)
(0.995615 -0.050856 2.26751e-19)
(0.998854 -0.0429325 -1.09397e-19)
(1.00094 -0.0353234 0)
(1.00208 -0.0280696 -1.03039e-19)
(1.00242 -0.0211651 0)
(1.00164 -0.0147712 0)
(0.998648 -0.00950448 -4.62169e-19)
(0.99506 -0.00579446 4.18612e-19)
(0.4852 -0.306243 7.48643e-20)
(0.581114 -0.276743 -5.05297e-19)
(0.661195 -0.251882 3.22681e-19)
(0.727069 -0.2298 4.70818e-19)
(0.780456 -0.209623 4.79282e-19)
(0.823945 -0.191449 -4.21545e-19)
(0.859644 -0.175163 -1.18039e-19)
(0.889181 -0.160377 3.19792e-19)
(0.913688 -0.146676 -3.80436e-19)
(0.93397 -0.133844 1.75884e-19)
(0.950707 -0.121756 -4.72393e-19)
(0.964453 -0.110318 2.95537e-19)
(0.97565 -0.0994442 1.37535e-19)
(0.984646 -0.0890426 1.29256e-19)
(0.991716 -0.0790217 1.19621e-19)
(0.997084 -0.0693042 3.44181e-19)
(1.00094 -0.0598505 -1.133e-19)
(1.00344 -0.0506758 0)
(1.00476 -0.0418347 -3.07234e-19)
(1.00509 -0.0333567 9.41696e-22)
(1.00464 -0.0252306 9.78637e-20)
(1.00299 -0.0176941 0)
(0.998715 -0.0116536 8.88425e-20)
(0.994055 -0.00786339 2.25537e-19)
(0.487222 -0.3552 1.39035e-19)
(0.587406 -0.324805 -6.89781e-21)
(0.670609 -0.295822 -5.38001e-19)
(0.738311 -0.26899 1.8314e-19)
(0.792647 -0.244359 4.6755e-21)
(0.836502 -0.22225 -4.20408e-21)
(0.872208 -0.202592 1.21687e-19)
(0.901519 -0.184925 -5.34074e-21)
(0.925631 -0.168709 -1.84363e-19)
(0.945406 -0.153646 0)
(0.961553 -0.139558 1.56166e-19)
(0.974649 -0.126312 1.44439e-19)
(0.985151 -0.113793 -1.30766e-19)
(0.993415 -0.101885 0)
(0.99972 -0.0904747 -2.3536e-19)
(1.00429 -0.0794632 1.0972e-19)
(1.00731 -0.0687845 -4.30985e-19)
(1.00894 -0.0584263 2.06406e-19)
(1.00934 -0.0484189 -9.92049e-20)
(1.00873 -0.0387698 -9.50573e-20)
(1.00732 -0.0294526 4.68184e-19)
(1.00467 -0.0207971 2.70279e-21)
(0.999001 -0.0140902 -5.21597e-19)
(0.993144 -0.0103064 -2.12918e-19)
(0.489258 -0.406883 -1.35932e-19)
(0.595376 -0.375432 1.24292e-19)
(0.682562 -0.341802 0)
(0.752489 -0.309487 -1.05183e-20)
(0.80783 -0.279788 6.16059e-19)
(0.851958 -0.25328 -2.70225e-19)
(0.887507 -0.229928 -2.28043e-19)
(0.916402 -0.209178 -2.06767e-19)
(0.939926 -0.190343 5.50456e-19)
(0.959007 -0.173003 -1.61939e-19)
(0.974385 -0.156907 -1.52648e-19)
(0.986662 -0.14187 -1.36198e-19)
(0.996307 -0.127739 1.96034e-21)
(1.00369 -0.114369 3.64684e-19)
(1.00908 -0.101625 -1.89552e-21)
(1.01272 -0.0893833 -1.06619e-19)
(1.01477 -0.0775535 1.05472e-19)
(1.0154 -0.0660946 1.99205e-19)
(1.01475 -0.055008 -1.93462e-19)
(1.01306 -0.0442696 4.66427e-19)
(1.01056 -0.0338323 -4.49967e-19)
(1.00676 -0.0241395 0)
(0.999612 -0.0169216 8.61279e-20)
(0.992258 -0.0130963 0)
(0.491515 -0.461779 -6.08393e-19)
(0.605467 -0.429048 5.73847e-19)
(0.697556 -0.390143 -1.04159e-19)
(0.770041 -0.351466 -1.84474e-19)
(0.826364 -0.315944 -4.59633e-19)
(0.870583 -0.284466 0)
(0.905735 -0.257025 8.54814e-21)
(0.933965 -0.232948 -7.54751e-21)
(0.956666 -0.21137 -6.74879e-21)
(0.974839 -0.191704 1.62484e-19)
(0.989252 -0.1736 1.42624e-19)
(1.00053 -0.156801 1.36376e-19)
(1.00915 -0.141106 -3.73288e-19)
(1.01549 -0.126336 5.84854e-19)
(1.01983 -0.112328 -2.22453e-19)
(1.0224 -0.0989347 2.06411e-19)
(1.02336 -0.0860414 -4.97505e-19)
(1.02285 -0.0735796 1.92713e-19)
(1.02104 -0.0615195 -2.75418e-19)
(1.01815 -0.0497986 2.67247e-19)
(1.01442 -0.0383376 1.73039e-19)
(1.00933 -0.0276885 0)
(1.00056 -0.0200545 0)
(0.991564 -0.0162775 -3.40845e-19)
(0.494267 -0.520334 3.39723e-19)
(0.618284 -0.485979 -3.43112e-19)
(0.716251 -0.441068 3.78447e-19)
(0.79154 -0.395019 0)
(0.84871 -0.352792 0)
(0.892713 -0.315684 1.21986e-19)
(0.927121 -0.283696 3.34519e-19)
(0.954356 -0.25601 -7.8038e-21)
(0.975947 -0.231549 -1.81908e-19)
(0.992962 -0.20951 3.01672e-19)
(1.00619 -0.189405 -2.85237e-19)
(1.01626 -0.170889 0)
(1.02369 -0.153696 0)
(1.02883 -0.137606 0)
(1.03197 -0.122423 1.07546e-19)
(1.03334 -0.107975 1.94786e-19)
(1.03309 -0.094121 -1.91462e-19)
(1.03135 -0.0807682 1.28688e-21)
(1.02826 -0.0678561 9.14419e-20)
(1.02405 -0.0552795 8.42902e-20)
(1.01897 -0.0429161 2.47109e-19)
(1.01244 -0.0314129 4.53176e-21)
(1.00195 -0.0234618 -3.13101e-19)
(0.991182 -0.0198507 -1.0551e-19)
(0.497886 -0.582938 1.22501e-19)
(0.63462 -0.546362 -1.12223e-19)
(0.739483 -0.494594 -5.58692e-19)
(0.817711 -0.440096 -1.4382e-19)
(0.875435 -0.390181 0)
(0.918748 -0.346724 -1.29101e-19)
(0.951926 -0.309695 -1.07135e-19)
(0.97773 -0.278091 1.80042e-19)
(0.997859 -0.250599 -3.34173e-19)
(1.01342 -0.226143 -1.50829e-19)
(1.02521 -0.20406 0)
(1.03388 -0.183889 0)
(1.03991 -0.165288 0)
(1.0437 -0.14798 0)
(1.04551 -0.131733 -1.99862e-19)
(1.04555 -0.116346 -9.55839e-20)
(1.04397 -0.101653 8.96834e-20)
(1.04089 -0.0875369 1.74071e-19)
(1.03644 -0.0739082 -8.67848e-20)
(1.03081 -0.060619 3.24191e-19)
(1.02424 -0.0474969 -3.92426e-19)
(1.01615 -0.0352663 3.87702e-19)
(1.00389 -0.0271067 -2.99593e-19)
(0.991219 -0.0237941 -7.19519e-20)
(0.502876 -0.649825 0)
(0.655474 -0.610033 0)
(0.768302 -0.550368 -3.3046e-19)
(0.849433 -0.486383 3.09955e-19)
(0.907185 -0.427788 0)
(0.949129 -0.377251 0)
(0.980424 -0.334694 0)
(1.00425 -0.298867 1.6806e-19)
(1.02248 -0.268192 1.52617e-19)
(1.03623 -0.241292 -2.77058e-19)
(1.04631 -0.217274 2.48812e-19)
(1.05333 -0.195535 -1.20764e-19)
(1.0578 -0.175637 1.09413e-19)
(1.06006 -0.157239 9.82347e-20)
(1.0604 -0.140063 2.82088e-19)
(1.059 -0.123876 -1.81637e-19)
(1.05599 -0.108486 0)
(1.05149 -0.093751 8.03166e-20)
(1.04558 -0.0795556 -1.59101e-19)
(1.03844 -0.065711 0)
(1.03029 -0.0519927 3.02462e-19)
(1.02054 -0.0391855 -6.91914e-20)
(1.00646 -0.0309348 -2.85181e-19)
(0.991777 -0.0280628 2.19195e-19)
(0.509933 -0.720843 4.31605e-19)
(0.682132 -0.676396 -2.60293e-19)
(0.803947 -0.607508 -4.83546e-20)
(0.887666 -0.533142 3.93709e-19)
(0.944644 -0.465023 -1.23438e-19)
(0.984312 -0.406762 9.74829e-20)
(1.0129 -0.358245 9.46232e-20)
(1.03406 -0.317942 -3.30138e-19)
(1.04985 -0.283961 2.91877e-19)
(1.06139 -0.254613 1.32323e-19)
(1.06943 -0.228728 -2.44971e-19)
(1.07457 -0.205534 -1.13696e-19)
(1.07726 -0.184478 0)
(1.07785 -0.165143 -6.20776e-21)
(1.07658 -0.1472 -2.71241e-19)
(1.07363 -0.130376 1.71013e-19)
(1.06912 -0.114453 0)
(1.06311 -0.099264 7.50459e-20)
(1.05568 -0.0846683 -2.22503e-19)
(1.04697 -0.0704402 2.15241e-19)
(1.03716 -0.0563045 7.20628e-20)
(1.02566 -0.0430903 2.80318e-19)
(1.00973 -0.0348732 -5.44348e-19)
(0.992949 -0.0325914 4.60976e-19)
(0.520068 -0.795367 -4.36567e-19)
(0.71623 -0.744164 3.52247e-19)
(0.847734 -0.664376 4.87271e-19)
(0.93333 -0.579079 -1.97779e-19)
(0.988458 -0.500937 9.59826e-20)
(1.02472 -0.434531 -1.04253e-19)
(1.04958 -0.379771 0)
(1.06727 -0.334831 0)
(1.07998 -0.297489 -1.28642e-19)
(1.08882 -0.265731 0)
(1.09448 -0.238084 0)
(1.09747 -0.21358 2.00406e-19)
(1.09819 -0.191533 -9.60935e-20)
(1.09695 -0.171441 -6.59929e-21)
(1.09396 -0.152915 -1.67279e-19)
(1.08936 -0.135643 1.59913e-19)
(1.08326 -0.119374 0)
(1.0757 -0.103916 0)
(1.06671 -0.0891053 0)
(1.05638 -0.0746819 6.50624e-20)
(1.04487 -0.0603233 -1.31436e-19)
(1.03156 -0.0468873 0)
(1.01378 -0.0388309 1.96008e-19)
(0.994818 -0.0372935 -2.45714e-19)
(0.535189 -0.872638 0)
(0.759639 -0.811007 0)
(0.900825 -0.718268 -2.58297e-19)
(0.987142 -0.622155 0)
(1.03912 -0.534111 -2.03658e-19)
(1.07066 -0.459548 0)
(1.09064 -0.398528 -7.53039e-20)
(1.1039 -0.348965 6.93152e-20)
(1.11281 -0.308314 1.29855e-19)
(1.11843 -0.274246 0)
(1.12133 -0.244989 0)
(1.12189 -0.219353 8.5547e-20)
(1.12043 -0.196513 -1.73031e-19)
(1.1172 -0.17587 -8.60739e-20)
(1.11238 -0.156971 -1.55425e-19)
(1.10607 -0.139459 1.48411e-19)
(1.09834 -0.123053 0)
(1.08918 -0.107533 -6.51194e-20)
(1.07861 -0.0927117 0)
(1.06666 -0.0782999 6.06657e-20)
(1.05342 -0.0639306 0)
(1.03829 -0.0504709 -2.46207e-19)
(1.01866 -0.0426992 2.42306e-19)
(0.997446 -0.0420605 0)
(0.559474 -0.952475 2.41118e-19)
(0.814517 -0.873168 -1.6197e-19)
(0.96406 -0.765249 -4.54762e-20)
(1.04942 -0.659436 8.39597e-20)
(1.09676 -0.562545 -1.7646e-19)
(1.12218 -0.480482 -1.30165e-19)
(1.13604 -0.413592 0)
(1.14387 -0.35968 0)
(1.1482 -0.315931 0)
(1.15004 -0.279745 9.4585e-20)
(1.14976 -0.249085 0)
(1.1476 -0.222538 -4.79012e-21)
(1.14377 -0.19913 -7.68164e-20)
(1.13842 -0.178163 7.60936e-20)
(1.13167 -0.159119 1.43211e-19)
(1.12359 -0.141596 -1.36588e-19)
(1.11418 -0.125278 -1.92451e-19)
(1.10344 -0.10992 1.90312e-19)
(1.0913 -0.095312 0)
(1.07775 -0.0811384 -1.76813e-19)
(1.0628 -0.0669912 1.1318e-19)
(1.04585 -0.0537216 0)
(1.02443 -0.0463444 2.27635e-19)
(1.00088 -0.0467719 9.45713e-20)
(0.595171 -1.04011 -2.3727e-19)
(0.880365 -0.923578 1.80904e-19)
(1.03631 -0.799627 -3.95644e-20)
(1.11936 -0.686885 -1.43913e-20)
(1.16081 -0.583535 1.09831e-19)
(1.17891 -0.495629 1.90113e-19)
(1.1855 -0.423858 -5.44414e-20)
(1.18693 -0.366219 0)
(1.18591 -0.319797 0)
(1.18338 -0.281814 -9.55104e-20)
(1.17952 -0.250028 0)
(1.17436 -0.222831 0)
(1.16796 -0.199106 0)
(1.16037 -0.178062 6.88991e-20)
(1.15161 -0.159114 4.31688e-23)
(1.14171 -0.141817 -6.22714e-20)
(1.13063 -0.125823 1.81752e-19)
(1.1183 -0.110862 -8.7327e-20)
(1.10464 -0.0967023 0)
(1.08955 -0.0830081 1.06963e-19)
(1.07297 -0.0693378 4.10817e-22)
(1.0543 -0.0565083 -1.83383e-19)
(1.03121 -0.0496548 -5.79336e-20)
(1.00496 -0.0513064 -1.84032e-20)
(0.638472 -1.18241 2.11163e-20)
(0.963603 -0.96429 -6.34634e-20)
(1.11848 -0.817719 4.04734e-20)
(1.19573 -0.700299 6.24528e-20)
(1.22982 -0.594034 4.89547e-20)
(1.2398 -0.503016 2.65936e-21)
(1.23835 -0.428106 -2.054e-20)
(1.23258 -0.367782 0)
(1.22554 -0.319364 -4.06797e-20)
(1.21811 -0.280053 7.22633e-20)
(1.21028 -0.247499 0)
(1.20186 -0.219956 3.16248e-20)
(1.19271 -0.19619 9.53553e-20)
(1.18276 -0.175323 2.94507e-20)
(1.17194 -0.156715 -3.09083e-20)
(1.1602 -0.139882 5.65179e-20)
(1.14745 -0.124447 -5.40303e-20)
(1.13359 -0.110121 2.49031e-20)
(1.11846 -0.0966537 -5.04974e-20)
(1.10193 -0.0836957 -1.21305e-19)
(1.08384 -0.0707774 2.13943e-19)
(1.06355 -0.0586402 -9.5838e-20)
(1.03888 -0.0524007 0)
(1.00979 -0.05548 2.28227e-20)
(-0.00618254 -0.12372 3.81783e-21)
(-0.0306178 -0.255001 -1.01698e-18)
(-0.0561989 -0.413463 0)
(-0.0604483 -0.492155 4.12638e-19)
(-0.0406405 -0.570862 -3.57448e-19)
(0.0309507 -0.362401 -2.84612e-19)
(-0.0455917 -0.17263 -6.35806e-19)
(-0.0756435 -0.311671 4.68486e-19)
(-0.0874037 -0.446109 -1.76082e-19)
(-0.0745206 -0.509629 -3.24242e-19)
(-0.0271175 -0.558821 2.28346e-19)
(0.0377824 -0.421889 3.69242e-19)
(-0.0831552 -0.183118 0)
(-0.107931 -0.316002 1.1738e-19)
(-0.110402 -0.430816 9.36507e-20)
(-0.0842785 -0.47984 -2.14592e-20)
(-0.0163987 -0.51889 9.29938e-20)
(0.0622013 -0.417524 0)
(-0.121435 -0.181168 0)
(-0.13531 -0.304202 -1.12168e-19)
(-0.129472 -0.401127 8.90792e-20)
(-0.0929554 -0.44029 -1.83516e-20)
(-0.00995836 -0.473877 -9.15146e-20)
(0.0928549 -0.40185 0)
(-0.155894 -0.173228 0)
(-0.15985 -0.284122 1.10957e-19)
(-0.147676 -0.364799 -9.11054e-20)
(-0.103674 -0.397627 2.01498e-20)
(-0.00891214 -0.423137 9.19981e-20)
(0.113053 -0.381969 0)
(-0.186636 -0.16345 0)
(-0.18233 -0.259987 -1.06769e-19)
(-0.166015 -0.325706 8.79455e-20)
(-0.1173 -0.353288 -1.40791e-19)
(-0.0163855 -0.372016 -1.26885e-19)
(0.118141 -0.353122 1.69583e-19)
(-0.21338 -0.153778 -6.55461e-19)
(-0.203283 -0.234184 0)
(-0.184965 -0.285965 0)
(-0.134351 -0.308184 1.16784e-19)
(-0.0324783 -0.3218 3.28762e-19)
(0.11008 -0.315261 1.39252e-19)
(-0.23562 -0.144681 1.33358e-18)
(-0.222797 -0.208009 3.75444e-19)
(-0.204533 -0.246685 3.64966e-19)
(-0.154776 -0.263072 3.97906e-20)
(-0.0558944 -0.272307 -3.23161e-19)
(0.0883925 -0.271352 -2.68422e-19)
(-0.252995 -0.136033 -1.98472e-18)
(-0.240764 -0.182179 -4.02236e-19)
(-0.224449 -0.208457 -3.36639e-19)
(-0.178126 -0.218545 -6.1916e-19)
(-0.0853226 -0.223653 0)
(0.0556426 -0.223972 -5.41253e-19)
(-0.265288 -0.127489 3.34505e-20)
(-0.257018 -0.157102 -2.43395e-20)
(-0.244301 -0.171599 0)
(-0.203716 -0.175081 6.09497e-19)
(-0.119537 -0.176134 0)
(0.0138521 -0.175295 5.33613e-19)
(-0.27245 -0.118652 1.30853e-18)
(-0.271378 -0.133014 -7.88841e-19)
(-0.263686 -0.136296 8.4905e-20)
(-0.230629 -0.13309 -6.78319e-19)
(-0.157299 -0.130213 -5.62877e-19)
(-0.035045 -0.127253 5.27199e-19)
(-0.274707 -0.109181 1.3767e-18)
(-0.283509 -0.109956 7.54347e-19)
(-0.281997 -0.102712 8.42174e-20)
(-0.25801 -0.0929096 1.12399e-18)
(-0.197317 -0.0864377 5.5682e-19)
(-0.089071 -0.0814761 -3.89736e-19)
(-0.272263 -0.0987997 -1.33498e-18)
(-0.293087 -0.0879627 0)
(-0.298669 -0.070948 6.55112e-19)
(-0.284845 -0.0548746 -5.94057e-19)
(-0.238202 -0.0453562 0)
(-0.146209 -0.039212 -5.06037e-19)
(-0.265504 -0.0872036 -2.08595e-20)
(-0.299799 -0.0671277 0)
(-0.313145 -0.0411005 -6.54457e-19)
(-0.310062 -0.0193108 5.87094e-19)
(-0.278456 -0.00747226 -5.36758e-19)
(-0.204476 -0.00142762 5.01591e-19)
(-0.254755 -0.0742868 -1.33185e-18)
(-0.303354 -0.0474751 0)
(-0.324829 -0.0132056 8.31646e-20)
(-0.332607 0.0134615 -6.5728e-19)
(-0.316516 0.0268156 -1.28412e-19)
(-0.261753 0.0311668 4.82007e-19)
(-0.240397 -0.0601236 1.35537e-18)
(-0.303444 -0.0289956 -7.33179e-19)
(-0.332996 0.0124235 -1.23557e-19)
(-0.351526 0.0435955 -5.08261e-19)
(-0.350742 0.0571511 3.96095e-19)
(-0.315903 0.0581996 -9.53349e-19)
(-0.222777 -0.0449547 1.33094e-18)
(-0.2998 -0.011672 8.46867e-19)
(-0.336802 0.0356479 -7.03509e-19)
(-0.366005 0.0710525 5.81239e-19)
(-0.37939 0.0834221 3.87668e-19)
(-0.364905 0.0795546 5.89839e-19)
(-0.202165 -0.0291762 -1.33701e-18)
(-0.292177 0.00453503 0)
(-0.335608 0.0564232 1.35432e-18)
(-0.374296 0.0950308 0)
(-0.401317 0.106218 -3.89044e-19)
(-0.406539 0.0954759 -1.15661e-19)
(-0.178708 -0.0133032 0)
(-0.280342 0.019715 8.35464e-19)
(-0.329217 0.0748445 -1.47901e-18)
(-0.373837 0.115062 -1.78406e-21)
(-0.415502 0.125786 6.52697e-20)
(-0.438479 0.106418 4.57445e-19)
(-0.152355 0.0021251 -6.42156e-20)
(-0.263994 0.0339914 -1.71941e-18)
(-0.31746 0.0907516 1.44176e-18)
(-0.364102 0.131424 -7.02307e-19)
(-0.417149 0.142157 6.77625e-20)
(-0.458954 0.111569 -4.59057e-19)
(-0.122982 0.0166017 0)
(-0.242636 0.0473221 -2.458e-22)
(-0.299973 0.103714 -7.56595e-19)
(-0.344361 0.143555 1.3838e-18)
(-0.404202 0.153903 -7.05751e-20)
(-0.466165 0.114419 4.83452e-19)
(-0.091074 0.0290797 -4.43545e-20)
(-0.21518 0.0591563 1.08729e-18)
(-0.276019 0.11287 -4.91725e-20)
(-0.312337 0.150056 -6.87124e-19)
(-0.371987 0.161752 0)
(-0.457908 0.122397 -5.09409e-19)
(-0.0575651 0.0367745 -2.26069e-20)
(-0.177513 0.0682379 0)
(-0.242547 0.116752 4.315e-19)
(-0.263194 0.149658 3.66135e-19)
(-0.309931 0.165354 -8.19441e-20)
(-0.426624 0.154248 6.93651e-20)
(-0.0128682 0.0380829 0)
(-0.106536 0.0755929 0)
(-0.185205 0.122238 -4.61116e-19)
(-0.185205 0.143145 -3.91751e-19)
(-0.188803 0.141067 0)
(-0.388142 0.120944 7.52957e-20)
(0.741323 -1.00772 3.05987e-20)
(1.06565 -0.932321 -9.55818e-20)
(1.20772 -0.80811 2.7314e-21)
(1.27513 -0.694637 -1.92283e-20)
(1.30107 -0.59132 -1.69414e-20)
(1.30299 -0.500871 -1.01842e-20)
(1.29339 -0.425198 3.90935e-20)
(1.28005 -0.363645 1.13864e-20)
(1.26654 -0.314143 -2.74972e-20)
(1.25379 -0.274115 -3.49454e-20)
(1.24167 -0.24123 2.73758e-20)
(1.22975 -0.213684 -6.16669e-20)
(1.21771 -0.190163 2.34308e-20)
(1.20531 -0.169727 -5.43573e-20)
(1.19238 -0.151691 -3.42317e-21)
(1.17878 -0.135542 2.37163e-20)
(1.16439 -0.120886 2.30204e-20)
(1.14904 -0.10742 2.2385e-20)
(1.13253 -0.0948847 2.18072e-20)
(1.11467 -0.0829311 6.87974e-23)
(1.09521 -0.0710708 2.06598e-20)
(1.07349 -0.0598979 8.70323e-20)
(1.04741 -0.0542796 3.26137e-21)
(1.01539 -0.0590604 -1.1093e-19)
(0.708146 -0.748682 -3.943e-20)
(1.13745 -0.856755 1.16782e-19)
(1.28893 -0.769501 -1.1757e-20)
(1.35025 -0.668988 -2.21355e-20)
(1.37048 -0.574288 0)
(1.36589 -0.488206 4.55257e-22)
(1.34897 -0.414339 -2.32139e-20)
(1.32831 -0.353266 -2.64431e-20)
(1.30819 -0.303773 3.7145e-20)
(1.2899 -0.263745 0)
(1.27325 -0.23103 -3.83934e-20)
(1.25767 -0.203848 0)
(1.24262 -0.180859 -1.53744e-20)
(1.22771 -0.161089 2.54361e-20)
(1.21265 -0.143826 -2.46214e-20)
(1.19721 -0.128542 -2.38399e-20)
(1.1812 -0.114834 -5.52491e-20)
(1.1644 -0.102399 -1.42748e-21)
(1.14658 -0.0909867 -2.18444e-20)
(1.12748 -0.080281 -6.17826e-20)
(1.10679 -0.0698111 4.8871e-20)
(1.08388 -0.0599247 -2.06012e-20)
(1.05668 -0.0547685 -4.16519e-20)
(1.0217 -0.0616057 6.37813e-20)
(0.621902 -0.558819 0)
(1.15994 -0.760448 0)
(1.3476 -0.709841 1.12228e-20)
(1.41485 -0.627196 1.83096e-20)
(1.43421 -0.543827 -2.27242e-22)
(1.42579 -0.465023 -5.05617e-21)
(1.40323 -0.395237 0)
(1.37611 -0.336362 0)
(1.34969 -0.288057 -9.46789e-21)
(1.32585 -0.248818 9.24606e-21)
(1.30459 -0.216806 2.25082e-21)
(1.28526 -0.190365 0)
(1.26714 -0.168182 -1.09823e-20)
(1.2497 -0.149282 0)
(1.23251 -0.132942 -1.00388e-20)
(1.21526 -0.118629 -1.02687e-20)
(1.19767 -0.105942 2.90893e-20)