/*--------------------------------*- C++ -*----------------------------------*\
  =========                 |
  \\      /  F ield         | OpenFOAM: The Open Source CFD Toolbox
   \\    /   O peration     | Website:  https://openfoam.org
    \\  /    A nd           | Version:  11
     \\/     M anipulation  |
\*---------------------------------------------------------------------------*/
FoamFile
{
    format      ascii;
    class       surfaceVectorField;
    location    "0.96";
    object      Uf;
}
// * * * * * * * * * * * * * * * * * * * * * * * * * * * * * * * * * * * * * //

dimensions      [0 1 -1 0 0 0 0];

internalField   nonuniform List<vector> 
5640
(
(0.0986621 -0.0883219 1.42054e-19)
(0.0566924 -0.0736845 -3.46888e-20)
(0.250295 -0.145878 8.00956e-19)
(0.207621 -0.145422 3.98139e-19)
(0.353294 -0.180119 -2.43251e-19)
(0.336033 -0.189438 1.3809e-19)
(0.38665 -0.188943 -4.17589e-20)
(0.395245 -0.201572 -6.19643e-20)
(0.374719 -0.157997 3.93742e-19)
(0.393059 -0.19711 7.49874e-20)
(0.264006 -0.1201 -1.35615e-19)
(0.279343 0.0710829 2.58569e-19)
(0.14722 -0.129535 2.0302e-19)
(0.0901818 -0.105982 5.06732e-19)
(0.285555 -0.187545 -2.55422e-19)
(0.239924 -0.183617 -4.40131e-19)
(0.361831 -0.20551 3.24109e-19)
(0.337672 -0.212076 5.71736e-20)
(0.392638 -0.199656 6.72774e-20)
(0.380809 -0.209376 2.19024e-19)
(0.378608 -0.154195 -3.78877e-19)
(0.384727 -0.186502 -2.02737e-19)
(0.323639 -0.0936003 -2.51532e-19)
(0.326171 0.0222802 -2.39185e-19)
(0.168165 -0.158046 -8.04987e-20)
(0.112811 -0.13639 0)
(0.286068 -0.210131 -1.49925e-19)
(0.246486 -0.211132 -6.3443e-21)
(0.349491 -0.217404 -5.31275e-20)
(0.324915 -0.228906 -1.2154e-19)
(0.377132 -0.198391 -3.93203e-20)
(0.363973 -0.216623 2.36058e-20)
(0.373481 -0.137702 -5.65442e-20)
(0.371434 -0.181236 -3.42851e-21)
(0.354655 -0.0889226 0)
(0.366558 -0.00104721 0)
(0.180714 -0.184598 7.46375e-20)
(0.130857 -0.164898 0)
(0.280509 -0.229506 2.69697e-20)
(0.246797 -0.233165 4.8868e-21)
(0.33586 -0.228788 -4.98514e-20)
(0.312202 -0.244236 -1.72041e-21)
(0.363 -0.201081 6.12783e-20)
(0.349384 -0.225366 -8.70487e-22)
(0.370443 -0.137741 5.31009e-20)
(0.36278 -0.183566 3.5916e-21)
(0.37093 -0.0990167 0)
(0.390372 -0.0286787 2.01062e-21)
(0.189077 -0.208801 -7.00327e-20)
(0.144998 -0.191125 0)
(0.274454 -0.247005 -2.35221e-20)
(0.245201 -0.251529 -3.91559e-21)
(0.323652 -0.241186 4.72194e-20)
(0.301023 -0.258815 2.86519e-21)
(0.352249 -0.208961 -5.86756e-20)
(0.337126 -0.236364 6.43001e-20)
(0.370456 -0.148043 -4.94363e-20)
(0.357798 -0.192748 1.61681e-20)
(0.381439 -0.118223 -7.89096e-20)
(0.405079 -0.0591412 0)
(0.19484 -0.230107 6.62321e-20)
(0.15605 -0.214855 4.78951e-19)
(0.2684 -0.26275 2.21231e-20)
(0.242616 -0.26714 7.02872e-20)
(0.313005 -0.25457 1.79379e-20)
(0.290883 -0.273034 -5.34285e-20)
(0.34422 -0.221246 1.40276e-19)
(0.326905 -0.249843 1.30643e-20)
(0.371837 -0.16507 -1.02466e-20)
(0.354668 -0.207618 -9.41266e-20)
(0.389116 -0.143134 -1.39118e-19)
(0.415156 -0.0918463 -1.11933e-20)
(0.198678 -0.248754 5.06583e-19)
(0.16473 -0.235852 -4.88229e-19)
(0.262227 -0.277104 0)
(0.239062 -0.280631 -2.33829e-19)
(0.303564 -0.268997 -6.05304e-20)
(0.281402 -0.287169 -2.07717e-19)
(0.337777 -0.237281 -2.18293e-19)
(0.318021 -0.26567 -8.24885e-20)
(0.373145 -0.187175 -2.21026e-19)
(0.352117 -0.227063 -4.06912e-21)
(0.394593 -0.172011 5.91004e-20)
(0.422416 -0.126394 -1.34371e-19)
(0.200952 -0.26497 -1.24319e-18)
(0.171511 -0.253864 4.51974e-19)
(0.25568 -0.290476 -4.42848e-19)
(0.234403 -0.292472 1.73855e-20)
(0.294778 -0.284488 -2.33906e-19)
(0.27213 -0.301392 -1.79299e-20)
(0.332016 -0.256455 1.29786e-19)
(0.309774 -0.283593 2.90665e-19)
(0.373758 -0.213091 2.74786e-19)
(0.349374 -0.250207 1.5465e-19)
(0.398168 -0.203935 3.50193e-19)
(0.427601 -0.162453 1.19823e-20)
(0.201771 -0.278828 1.7372e-18)
(0.176625 -0.268632 1.38605e-18)
(0.24847 -0.303168 4.43494e-19)
(0.228459 -0.303015 2.66532e-19)
(0.286104 -0.300998 4.96161e-19)
(0.262629 -0.315801 1.89734e-19)
(0.326261 -0.278255 3.19212e-19)
(0.301544 -0.303336 6.0108e-21)
(0.373377 -0.242046 2.2537e-19)
(0.345941 -0.276397 0)
(0.40003 -0.238411 2.70836e-21)
(0.431112 -0.199982 3.95603e-19)
(0.201112 -0.290362 -1.9735e-20)
(0.180009 -0.27997 -9.56067e-19)
(0.240312 -0.315366 1.60406e-20)
(0.221079 -0.312498 5.00473e-19)
(0.277058 -0.318436 -2.94207e-19)
(0.252509 -0.330437 -4.48358e-20)
(0.319987 -0.302266 -3.13032e-19)
(0.292794 -0.324636 3.05442e-20)
(0.371807 -0.273578 -2.22915e-19)
(0.341449 -0.305153 2.54037e-19)
(0.400297 -0.275205 -4.5068e-19)
(0.433215 -0.239091 -2.96765e-19)
(0.198762 -0.299579 -5.19759e-19)
(0.181332 -0.287815 -1.88712e-18)
(0.230992 -0.327182 4.62802e-19)
(0.212179 -0.321072 1.72425e-20)
(0.26722 -0.336683 2.77058e-19)
(0.24144 -0.345283 -8.9075e-20)
(0.312756 -0.328158 5.91347e-19)
(0.283067 -0.347236 -2.15174e-19)
(0.368889 -0.307413 4.31655e-20)
(0.33559 -0.336121 2.45048e-21)
(0.39903 -0.314246 -5.54032e-20)
(0.434106 -0.279977 -2.89238e-19)
(0.194431 -0.306543 -1.46056e-18)
(0.180174 -0.292213 -2.91188e-20)
(0.220343 -0.338653 -5.30052e-19)
(0.201713 -0.328826 -4.67789e-19)
(0.256236 -0.355589 -5.77703e-19)
(0.229153 -0.360257 -3.99879e-19)
(0.304203 -0.355651 -8.10266e-19)
(0.271971 -0.370878 -2.58912e-19)
(0.364482 -0.3434 -9.46874e-20)
(0.32809 -0.369015 -2.51673e-19)
(0.396223 -0.35556 3.81954e-19)
(0.433907 -0.322891 2.27066e-19)
(0.187836 -0.311375 9.88164e-19)
(0.17613 -0.293291 9.48872e-19)
(0.208246 -0.349747 -3.40506e-19)
(0.189663 -0.335803 0)
(0.243801 -0.374973 -8.61753e-20)
(0.215447 -0.375193 4.28197e-22)
(0.294 -0.384487 2.99489e-19)
(0.259165 -0.395283 2.55967e-21)
(0.358419 -0.381427 2.09778e-19)
(0.318674 -0.403576 2.43623e-19)
(0.391801 -0.399212 9.01716e-22)
(0.43267 -0.368098 3.08613e-19)
(0.179125 -0.313932 1.54512e-20)
(0.168941 -0.291292 9.53318e-19)
(0.194543 -0.360409 3.40935e-19)
(0.175993 -0.341891 0)
(0.229717 -0.394568 8.91115e-20)
(0.200207 -0.389871 3.11943e-19)
(0.281845 -0.414384 -6.00655e-20)
(0.244365 -0.420085 3.73643e-20)
(0.350498 -0.421395 4.04186e-20)
(0.307048 -0.439516 3.00901e-19)
(0.38561 -0.44526 -4.24843e-19)
(0.430405 -0.41587 -3.06443e-19)
(0.167819 -0.314511 9.92866e-19)
(0.158448 -0.286398 -1.62202e-20)
(0.179277 -0.370404 -4.22659e-20)
(0.160801 -0.34696 4.83462e-19)
(0.213793 -0.414042 2.6902e-19)
(0.183386 -0.403931 2.36629e-20)
(0.267452 -0.44498 3.90896e-19)
(0.22736 -0.444797 5.79205e-19)
(0.340472 -0.463165 -1.46786e-19)
(0.292893 -0.476446 -1.2644e-19)
(0.377424 -0.493716 1.97895e-19)
(0.427105 -0.466451 -5.00902e-19)
(0.154037 -0.313053 -5.54847e-19)
(0.14469 -0.278774 -1.90436e-18)
(0.162504 -0.379427 5.70028e-19)
(0.14429 -0.350681 -7.93896e-20)
(0.195955 -0.432892 3.15175e-19)
(0.165052 -0.416849 4.63122e-19)
(0.250576 -0.475751 8.15965e-20)
(0.208006 -0.468734 -4.05445e-20)
(0.328037 -0.506469 2.11157e-19)
(0.275862 -0.513771 -3.65433e-19)
(0.366904 -0.544422 1.51462e-19)
(0.422656 -0.520076 6.16076e-19)
(0.137987 -0.309417 -1.53439e-18)
(0.127996 -0.268418 3.13153e-21)
(0.144432 -0.386955 -2.07317e-19)
(0.126779 -0.352492 -5.63062e-19)
(0.176219 -0.450398 1.24958e-19)
(0.1454 -0.427857 -3.68554e-19)
(0.230982 -0.505933 -4.78491e-19)
(0.18621 -0.490959 -2.93632e-19)
(0.312813 -0.550799 -4.36977e-19)
(0.255566 -0.550585 3.37407e-21)
(0.353561 -0.596982 -2.05309e-19)
(0.416971 -0.576818 -2.49233e-19)
(0.120106 -0.303205 1.00784e-18)
(0.109118 -0.254937 9.52865e-19)
(0.125379 -0.392188 -7.31491e-19)
(0.10869 -0.351514 -5.75616e-19)
(0.154684 -0.465545 -7.89812e-19)
(0.124756 -0.435852 7.64651e-20)
(0.208431 -0.53443 1.79919e-19)
(0.161907 -0.510228 -2.2057e-21)
(0.294322 -0.595309 2.39789e-19)
(0.231554 -0.585549 1.53251e-19)
(0.336661 -0.650662 -1.4265e-19)
(0.409903 -0.63656 6.08775e-20)
(0.101108 -0.293553 -5.42408e-19)
(0.0893142 -0.237278 4.56239e-20)
(0.105741 -0.393925 2.04639e-19)
(0.0905407 -0.346389 6.08273e-19)
(0.131502 -0.476929 8.68038e-19)
(0.103543 -0.43931 1.05816e-20)
(0.182633 -0.559722 -3.36718e-20)
(0.135014 -0.524968 3.56628e-19)
(0.271899 -0.63865 -2.22803e-19)
(0.203347 -0.61668 -6.4638e-20)
(0.315038 -0.704241 5.19225e-21)
(0.401121 -0.69893 -4.72927e-20)
(0.0819697 -0.278873 1.16582e-18)
(0.0702514 -0.213663 4.56239e-20)
(0.0859422 -0.390429 4.3988e-19)
(0.0728604 -0.335127 1.18377e-18)
(0.106837 -0.4827 -5.10849e-19)
(0.0821765 -0.436248 -3.88018e-19)
(0.153262 -0.579749 3.36622e-19)
(0.105379 -0.533364 -3.62709e-19)
(0.2446 -0.678669 1.61507e-19)
(0.170488 -0.641094 1.59956e-21)
(0.286655 -0.7561 3.38151e-21)
(0.390013 -0.763211 5.10687e-20)
(0.0637268 -0.256839 1.27647e-21)
(0.0534913 -0.182362 3.13437e-20)
(0.0664076 -0.379486 4.22953e-19)
(0.0559759 -0.315126 -7.3678e-19)
(0.0809324 -0.480705 -2.41001e-19)
(0.0609166 -0.424256 4.70806e-19)
(0.120024 -0.591961 -7.06867e-19)
(0.0727481 -0.533564 -3.52696e-19)
(0.210951 -0.712304 -1.56569e-19)
(0.132653 -0.654479 3.43796e-20)
(0.247242 -0.805486 1.86302e-20)
(0.375433 -0.829044 -2.29134e-19)
(0.0477997 -0.225531 -6.58131e-19)
(0.0399328 -0.143097 4.76479e-20)
(0.047988 -0.358867 -7.36345e-19)
(0.0401153 -0.28281 -7.36593e-19)
(0.0546508 -0.468808 3.88113e-19)
(0.0400447 -0.39986 -2.389e-19)
(0.0833178 -0.593264 3.79365e-19)
(0.0371133 -0.523598 1.60671e-19)
(0.168669 -0.735479 2.05982e-19)
(0.0902748 -0.648662 3.58931e-20)
(0.18549 -0.858975 1.79432e-19)
(0.354667 -0.899792 3.46637e-19)
(0.0368818 -0.183658 1.72449e-20)
(0.0320488 -0.0917314 -4.94901e-19)
(0.0327958 -0.325205 -2.57965e-19)
(0.028699 -0.224048 -4.20664e-19)
(0.0301701 -0.443867 -4.79841e-19)
(0.02256 -0.349363 2.50154e-20)
(0.0445923 -0.576765 -1.79302e-19)
(0.00118281 -0.497286 3.06341e-20)
(0.113239 -0.742138 2.90343e-20)
(0.0461625 -0.600219 -4.87798e-21)
(0.0665249 -0.953663 -1.47936e-20)
(0.317293 -0.997689 -1.35782e-19)
(0.0321352 -0.114234 -9.32596e-19)
(0.0193534 -0.251784 -1.53632e-19)
(-0.00320998 -0.385668 5.32396e-19)
(0.00959544 -0.509739 1.99497e-19)
(0.0380673 -0.738404 -8.75662e-20)
(0.239335 -1.18877 1.32116e-19)
(0.584209 0.249784 2.70703e-19)
(0.455642 0.227464 4.88039e-20)
(0.54997 0.316328 7.09055e-20)
(0.686695 0.210954 2.3052e-19)
(0.634092 0.207333 1.10859e-19)
(0.680981 0.250007 -5.22335e-20)
(0.750289 0.172426 8.37127e-20)
(0.7096 0.171681 -1.20646e-20)
(0.739506 0.204745 1.01393e-19)
(0.796209 0.143207 1.53242e-19)
(0.766997 0.140416 1.60547e-19)
(0.789031 0.167755 1.0957e-19)
(0.832055 0.122269 4.0777e-20)
(0.808171 0.118482 3.87045e-20)
(0.825613 0.142233 -1.49311e-21)
(0.861215 0.106537 1.18042e-19)
(0.841471 0.102201 -3.31477e-20)
(0.855906 0.123424 1.25917e-22)
(0.885432 0.0940485 1.45665e-19)
(0.868765 0.0895683 5.91021e-20)
(0.88102 0.108817 1.45637e-19)
(0.905777 0.08366 -2.07228e-20)
(0.891584 0.0792556 -2.65087e-20)
(0.902154 0.0968359 -7.68077e-20)
(0.923002 0.0747293 -5.7566e-21)
(0.910856 0.0705032 2.41498e-20)
(0.920072 0.0866121 4.55173e-20)
(0.937638 0.0668888 1.2301e-19)
(0.927221 0.0629073 4.30714e-20)
(0.9353 0.0776637 -4.32954e-20)
(0.950075 0.0598914 4.36325e-20)
(0.941132 0.0562179 1.94065e-20)
(0.948226 0.0696971 8.03276e-20)
(0.960617 0.0535443 -3.02342e-21)
(0.952954 0.0502332 -3.78666e-20)
(0.959181 0.0624923 -3.78666e-20)
(0.969504 0.0476882 6.88525e-20)
(0.96297 0.044786 1.79541e-20)
(0.968421 0.0558694 -6.88364e-20)
(0.976926 0.0421969 9.72785e-20)
(0.971405 0.0397396 6.71227e-20)
(0.97615 0.0496788 1.32392e-19)
(0.983042 0.0369829 9.54756e-20)
(0.978438 0.0349889 3.18962e-20)
(0.982532 0.0438075 3.17852e-20)
(0.987994 0.0320018 6.08653e-20)
(0.984221 0.030468 3.4064e-24)
(0.98771 0.0381887 3.05972e-20)
(0.991913 0.0272464 1.97654e-21)
(0.988888 0.026152 -4.50219e-20)
(0.991811 0.0328045 -2.87968e-20)
(0.994925 0.0227263 5.37804e-20)
(0.992565 0.0220442 -2.8025e-20)
(0.994958 0.0276686 -2.7552e-23)
(0.997145 0.0184435 3.11004e-20)
(0.995379 0.0181509 5.51622e-20)
(0.997277 0.0227952 2.84803e-20)
(0.998668 0.0143785 -2.74712e-20)
(0.997454 0.0144608 -1.3287e-19)
(0.998899 0.0181719 7.80937e-20)
(0.999574 0.0104991 1.26614e-21)
(0.998882 0.0109451 9.02734e-20)
(0.999911 0.0137642 -1.00893e-19)
(0.999938 0.00681405 6.85691e-20)
(0.999622 0.007599 -4.94782e-20)
(1.00019 0.00958923 4.88453e-20)
(0.999854 0.00342113 1.17566e-19)
(0.999519 0.00450525 4.74013e-20)
(0.999423 0.00580431 -9.3391e-20)
(0.998959 0.00172386 1.07878e-19)
(0.998165 0.0024438 8.51454e-20)
(0.537838 0.183639 -1.15097e-19)
(0.440586 0.150493 2.36189e-20)
(0.654118 0.167862 -1.31428e-19)
(0.604005 0.155137 -1.42703e-19)
(0.726456 0.139546 6.07896e-20)
(0.68577 0.133166 5.65126e-22)
(0.777645 0.115952 4.80466e-20)
(0.748084 0.109619 1.07614e-21)
(0.816955 0.0985569 -3.39898e-20)
(0.79288 0.092202 -9.35363e-21)
(0.848573 0.0853416 -9.34028e-20)
(0.828743 0.0789907 1.76388e-20)
(0.874655 0.0748489 -1.12103e-19)
(0.857989 0.0686851 -5.92328e-20)
(0.896483 0.0661557 1.77407e-20)
(0.882359 0.0602989 -5.27877e-20)
(0.91492 0.0587321 7.2818e-20)
(0.902898 0.0532236 4.78076e-20)
(0.930576 0.052282 -6.0318e-20)
(0.920314 0.0471458 2.20555e-20)
(0.943899 0.0465977 -6.15521e-20)
(0.935121 0.0418671 -6.13217e-20)
(0.955226 0.0415057 -1.74317e-20)
(0.947723 0.0372162 0)
(0.964818 0.0368625 1.57592e-20)
(0.958431 0.0330478 -3.55757e-20)
(0.972882 0.0325527 2.03621e-21)
(0.967487 0.0292408 3.38052e-20)
(0.979588 0.0284933 -6.3364e-20)
(0.975088 0.0256998 -4.86532e-20)
(0.985086 0.0246371 -1.05582e-19)
(0.981392 0.0223603 -4.66018e-20)
(0.989511 0.0209679 -7.51835e-20)
(0.986539 0.0191896 -2.94177e-20)
(0.992993 0.0174853 -2.72528e-20)
(0.990658 0.0161789 -2.88483e-20)
(0.995649 0.0141863 -1.07589e-19)
(0.993877 0.0133261 4.54794e-22)
(0.997582 0.0110534 -1.62892e-20)
(0.996318 0.0106209 -8.02519e-20)
(0.998875 0.0080614 4.04836e-20)
(0.998077 0.00804155 5.18078e-20)
(0.999603 0.00521567 -7.30916e-20)
(0.999172 0.00557635 -2.4858e-20)
(0.999852 0.00258611 3.59421e-20)
(0.999574 0.0032642 -7.2738e-20)
(0.999529 0.00115967 1.08351e-19)
(0.522099 0.12284 0)
(0.445266 0.0880951 2.41133e-21)
(0.632546 0.12138 -1.32993e-20)
(0.58663 0.103504 2.03297e-21)
(0.707648 0.103414 -5.97066e-20)
(0.66857 0.0924637 -1.70064e-20)
(0.762091 0.0861103 -5.61159e-20)
(0.73294 0.07652 -4.3196e-20)
(0.804032 0.0727648 4.19605e-20)
(0.780219 0.0639116 -6.78589e-21)
(0.837704 0.0624256 5.29333e-20)
(0.818089 0.054063 5.22065e-20)
(0.865424 0.0541957 0)
(0.848977 0.0463291 -3.76636e-21)
(0.888589 0.0474122 -2.39419e-20)
(0.874696 0.0400733 3.47864e-21)
(0.908132 0.041676 -2.69043e-21)
(0.89636 0.0348519 -2.88151e-20)
(0.924715 0.0367644 2.1947e-20)
(0.914716 0.0304445 2.49091e-20)
(0.938829 0.0325134 -3.57062e-22)
(0.930316 0.0267033 -3.53591e-22)
(0.950843 0.0287802 -1.78254e-20)
(0.943597 0.0234928 -6.0123e-21)
(0.961044 0.0254429 -1.81502e-20)
(0.954896 0.020695 -1.7925e-20)
(0.969657 0.0224012 -1.61965e-20)
(0.964475 0.0182102 1.13233e-21)
(0.976862 0.0195785 -3.1921e-20)
(0.972543 0.0159568 -8.08274e-21)
(0.982814 0.0169242 2.94304e-20)
(0.97927 0.0138731 -2.05327e-20)
(0.987653 0.0144115 1.69242e-20)
(0.984799 0.0119176 5.30621e-20)
(0.991512 0.0120296 -1.33553e-21)
(0.989263 0.0100679 -3.64385e-20)
(0.994511 0.00977053 2.83303e-20)
(0.992791 0.00831311 2.81426e-20)
(0.996759 0.00762054 -1.29056e-20)
(0.995504 0.00664297 0)
(0.998344 0.00556288 -1.30691e-20)
(0.997503 0.00504419 -1.3809e-20)
(0.999342 0.00360035 -2.42193e-20)
(0.998847 0.0035079 0)
(0.999832 0.00177324 -3.06265e-21)
(0.999578 0.00204889 -2.43644e-20)
(0.999857 0.000694295 2.66317e-20)
(0.517402 0.0690769 4.90277e-21)
(0.453576 0.0344231 2.41133e-21)
(0.619144 0.0754382 -1.27539e-21)
(0.576768 0.0547012 -2.11448e-21)
(0.693843 0.0658783 -5.49127e-22)
(0.656949 0.0514403 -3.17241e-20)
(0.749866 0.0545346 5.65506e-21)
(0.721594 0.0421252 -2.1119e-20)
(0.793612 0.0453242 2.60676e-21)
(0.770405 0.0341502 3.07111e-20)
(0.82889 0.0380396 -3.71392e-21)
(0.809748 0.02774 8.68769e-21)
(0.857969 0.0322535 -3.86899e-22)
(0.841942 0.0227162 -2.68832e-20)
(0.882275 0.0275462 -1.00942e-21)
(0.868777 0.0187343 2.42866e-20)
(0.902779 0.0236465 -1.81746e-21)
(0.891394 0.015504 3.2767e-21)
(0.920169 0.0204042 2.88337e-21)
(0.910549 0.0128915 1.99441e-20)
(0.934965 0.0176988 -5.95329e-21)
(0.926821 0.010798 -1.04549e-20)
(0.947562 0.0154198 -6.00429e-21)
(0.940669 0.00912383 -4.80068e-21)
(0.958268 0.0134713 1.18604e-21)
(0.952449 0.00777961 6.72362e-23)
(0.967323 0.0117726 9.31825e-21)
(0.96244 0.00668958 5.27535e-23)
(0.974922 0.0102566 3.39445e-21)
(0.970866 0.00578864 8.24993e-21)
(0.981224 0.00887072 2.52996e-21)
(0.977906 0.00502286 -3.97504e-21)
(0.986374 0.00757768 3.47751e-22)
(0.983709 0.00434199 7.58925e-21)
(0.990508 0.00635473 -7.4003e-21)
(0.988411 0.00371086 -7.34923e-21)
(0.99375 0.00518852 0)
(0.992142 0.0031071 0)
(0.996212 0.00406939 -8.14842e-22)
(0.995028 0.00251955 1.36017e-20)
(0.997989 0.00298986 -8.25166e-22)
(0.997173 0.00194374 -2.62758e-20)
(0.999157 0.00195065 0)
(0.998655 0.00137796 1.26723e-20)
(0.999795 0.000961582 4.76809e-21)
(0.999527 0.000823748 -1.22453e-20)
(0.999928 0.000268325 2.74514e-20)
(0.516835 0.0201537 -4.02154e-21)
(0.461162 -0.0144201 9.69389e-20)
(0.611206 0.0311336 -3.19153e-20)
(0.571462 0.00857605 4.5002e-20)
(0.684333 0.0279893 -5.25755e-20)
(0.649575 0.0108643 4.26055e-20)
(0.740933 0.0218973 3.07021e-21)
(0.71374 0.0070736 -1.12118e-20)
(0.785836 0.0166522 3.70937e-20)
(0.763451 0.0033663 7.0227e-20)
(0.822305 0.0124651 -1.39864e-20)
(0.803829 0.000337645 -9.06658e-21)
(0.852457 0.00922622 -2.88461e-21)
(0.837019 -0.00192207 -2.28665e-20)
(0.877695 0.00671048 2.88242e-20)
(0.864742 -0.00354287 4.88062e-20)
(0.898992 0.00476027 2.48415e-20)
(0.888127 -0.00468325 -4.56857e-21)
(0.917049 0.00329187 6.92292e-21)
(0.907927 -0.0054037 5.75019e-21)
(0.932401 0.00222639 -9.35717e-21)
(0.924734 -0.00575965 4.16367e-20)
(0.945463 0.00148479 1.22346e-21)
(0.939022 -0.00581753 -3.79174e-20)
(0.956559 0.000997464 -1.07058e-21)
(0.951162 -0.00563863 0)
(0.965944 0.000704986 -1.08907e-21)
(0.961448 -0.00527371 -1.08006e-21)
(0.97382 0.000553372 9.81652e-22)
(0.970115 -0.00476772 4.93305e-20)
(0.980359 0.000491133 9.97013e-22)
(0.97735 -0.00416743 -3.08095e-20)
(0.98571 0.000471655 0)
(0.98331 -0.00352493 0)
(0.99001 0.000459407 0)
(0.988136 -0.00288932 0)
(0.993388 0.000434179 1.35109e-20)
(0.99196 -0.0022952 -2.8174e-20)
(0.99596 0.000389852 -1.16099e-20)
(0.994912 -0.00175652 4.08579e-20)
(0.997822 0.000328574 -1.30135e-20)
(0.997104 -0.00126954 -2.54553e-20)
(0.999055 0.000249356 5.75437e-22)
(0.998603 -0.000826246 -5.06264e-20)
(0.999742 0.000130076 1.01677e-20)
(0.999426 -0.000446858 -1.22371e-20)
(0.999738 -0.000181043 7.75585e-20)
(0.517671 -0.0259465 1.48815e-19)
(0.467202 -0.0604411 1.96803e-20)
(0.606807 -0.0116368 1.19515e-19)
(0.568963 -0.035674 8.26642e-20)
(0.678333 -0.00983461 8.47371e-20)
(0.645428 -0.0291689 4.35405e-20)
(0.735066 -0.011381 5.47716e-20)
(0.708987 -0.0283225 1.29599e-20)
(0.780699 -0.0129079 2.52424e-20)
(0.759247 -0.0281233 7.28239e-22)
(0.818025 -0.0140331 -1.77514e-20)
(0.800349 -0.0278775 5.36606e-20)
(0.848995 -0.0146826 2.78716e-20)
(0.834284 -0.027371 -6.20998e-20)
(0.874963 -0.0149343 1.60369e-20)
(0.862685 -0.0265842 3.19757e-22)
(0.896882 -0.0148516 -2.37952e-20)
(0.886661 -0.025566 -6.22694e-20)
(0.915456 -0.0144638 4.00888e-20)
(0.906947 -0.024321 3.40365e-20)
(0.931228 -0.013814 1.38716e-20)
(0.924145 -0.0228686 3.11786e-20)
(0.944626 -0.0129516 -3.94923e-20)
(0.938739 -0.0212463 1.88222e-20)
(0.955988 -0.0119199 0)
(0.951111 -0.0194887 -3.67703e-20)
(0.965579 -0.0107558 4.89191e-20)
(0.961566 -0.0176219 0)
(0.973614 -0.00949807 1.82078e-20)
(0.970349 -0.0156701 3.28884e-20)
(0.98027 -0.00819383 -3.204e-20)
(0.977656 -0.0136676 -3.1799e-20)
(0.985702 -0.00689679 0)
(0.983651 -0.0116662 9.05094e-20)
(0.990052 -0.00565472 -2.79782e-20)
(0.988479 -0.00972569 -3.4171e-22)
(0.993453 -0.00449624 -1.27453e-21)
(0.992278 -0.0078938 -8.44909e-20)
(0.996021 -0.00342596 2.7431e-20)
(0.995184 -0.00618915 -2.67936e-20)
(0.997856 -0.002433 -6.29078e-20)
(0.997315 -0.00460175 2.62853e-20)
(0.999046 -0.0015217 -6.38745e-20)
(0.998705 -0.00312237 -2.55359e-20)
(0.999678 -0.000743528 5.3899e-20)
(0.999286 -0.0018013 8.18802e-24)
(0.999295 -0.000713079 4.39472e-20)
(0.519137 -0.0702313 -4.61978e-20)
(0.472026 -0.104854 -2.29644e-19)
(0.604884 -0.0533814 8.41811e-21)
(0.568345 -0.0788566 3.31089e-20)
(0.67524 -0.0475466 -2.77307e-20)
(0.643849 -0.0688556 -2.72244e-20)
(0.731998 -0.045078 -4.06565e-20)
(0.706982 -0.0639608 -4.6949e-20)
(0.778119 -0.0431109 2.83563e-20)
(0.757646 -0.0601277 1.19526e-21)
(0.816067 -0.0412382 1.09237e-20)
(0.799283 -0.0567086 -1.3129e-23)
(0.847649 -0.0392883 -9.04833e-20)
(0.833772 -0.0534488 -3.05193e-20)
(0.874163 -0.0372313 -7.72501e-20)
(0.862676 -0.0502269 -5.45973e-20)
(0.896539 -0.035056 -5.50933e-21)
(0.887075 -0.0470015 -4.90262e-20)
(0.915477 -0.0327494 2.51478e-20)
(0.907692 -0.0437358 8.76355e-22)
(0.931527 -0.030325 3.62584e-20)
(0.925135 -0.0404209 -6.21299e-20)
(0.945127 -0.027806 2.20883e-20)
(0.939895 -0.037069 9.70635e-20)
(0.956623 -0.025211 -3.70931e-20)
(0.952366 -0.0336908 -3.67703e-20)
(0.966294 -0.0225543 -1.63095e-20)
(0.96286 -0.0302889 -6.79809e-20)
(0.97436 -0.0198568 -1.65773e-20)
(0.971629 -0.0268657 8.14804e-20)
(0.981007 -0.0171575 8.98233e-20)
(0.978879 -0.02344 0)
(0.986396 -0.0145131 9.08338e-20)
(0.984782 -0.0200579 1.20195e-19)
(0.990674 -0.0119823 -5.6277e-20)
(0.989487 -0.0167863 -5.82943e-20)
(0.993976 -0.00960423 -1.10382e-19)
(0.993135 -0.0136855 -5.63169e-20)
(0.996422 -0.00738503 -2.81715e-20)
(0.995875 -0.010781 -5.40498e-20)
(0.998114 -0.00530781 6.39769e-20)
(0.997832 -0.00805966 2.65293e-20)
(0.999142 -0.00337918 3.79873e-20)
(0.998984 -0.00552178 -8.75413e-20)
(0.99961 -0.00167892 -1.09103e-20)
(0.999121 -0.00327219 1.21138e-19)
(0.998616 -0.00138972 -1.09734e-20)
(0.521017 -0.113625 -1.56544e-19)
(0.475926 -0.148574 -9.3806e-22)
(0.604872 -0.0946544 -4.41959e-22)
(0.569152 -0.12167 -1.62104e-19)
(0.674622 -0.0852711 -4.6076e-20)
(0.644429 -0.108499 -2.56536e-20)
(0.731491 -0.0791127 -5.56639e-21)
(0.707458 -0.0998757 4.90642e-20)
(0.778008 -0.0738083 -2.71586e-20)
(0.758526 -0.0925617 1.57714e-22)
(0.816428 -0.0689865 -4.10221e-20)
(0.800602 -0.0860224 -1.90732e-21)
(0.848461 -0.0644312 5.66289e-21)
(0.835512 -0.0800072 -9.27135e-20)
(0.87536 -0.0600327 -2.64235e-20)
(0.864768 -0.0743237 1.38758e-19)
(0.898037 -0.0557198 -4.32539e-20)
(0.889437 -0.0688516 -3.66847e-22)
(0.917188 -0.0514468 -8.57597e-20)
(0.910234 -0.0635222 4.54526e-20)
(0.933373 -0.047203 -2.90619e-21)
(0.927775 -0.0583034 -4.12034e-20)
(0.947035 -0.0429886 3.94668e-20)
(0.942561 -0.0531855 -3.68216e-20)
(0.958533 -0.0387993 -6.73841e-20)
(0.954993 -0.0481574 1.43528e-19)
(0.968151 -0.0346271 2.84933e-20)
(0.965391 -0.0431997 -3.53513e-20)
(0.976118 -0.0304737 9.87049e-20)
(0.974016 -0.0382932 3.292e-20)
(0.982627 -0.0263652 2.94564e-20)
(0.981079 -0.0334377 -6.18801e-20)
(0.987844 -0.022356 -2.76216e-20)
(0.986758 -0.0286684 8.86488e-20)
(0.991922 -0.0185133 -5.83553e-20)
(0.991208 -0.0240533 -1.46657e-21)
(0.994998 -0.0148877 0)
(0.994577 -0.0196631 -2.19871e-19)
(0.997196 -0.0114908 2.42263e-22)
(0.997025 -0.0155314 2.12059e-19)
(0.998618 -0.00830351 -1.24277e-19)
(0.998685 -0.0116453 3.66939e-22)
(0.999361 -0.00533653 -7.4761e-21)
(0.99946 -0.00803166 -2.24295e-19)
(0.999545 -0.00269746 1.21834e-19)
(0.998952 -0.00488734 2.16958e-19)
(0.997725 -0.00227097 -8.65111e-20)
(0.523247 -0.156859 -2.63536e-21)
(0.47912 -0.19237 1.15019e-19)
(0.606468 -0.135953 -1.89687e-19)
(0.571169 -0.164719 -1.91328e-19)
(0.676205 -0.123216 6.79887e-20)
(0.646939 -0.148443 3.11853e-20)
(0.733386 -0.113511 5.56462e-20)
(0.710255 -0.136189 1.42384e-19)
(0.780304 -0.104927 2.54403e-20)
(0.761819 -0.125415 -8.45055e-20)
(0.819111 -0.0971591 -5.25369e-20)
(0.804301 -0.115735 2.10157e-19)
(0.851469 -0.0899751 3.73611e-20)
(0.839533 -0.106926 -1.24563e-19)
(0.878611 -0.0832007 1.6659e-19)
(0.869015 -0.0987406 2.1938e-19)
(0.90144 -0.0767118 8.77829e-20)
(0.893809 -0.0909821 -1.98086e-19)
(0.920658 -0.0704351 9.09257e-20)
(0.914639 -0.0835526 -4.33601e-20)
(0.936832 -0.0643387 -7.51807e-20)
(0.932132 -0.0763983 0)
(0.950418 -0.0584019 6.55286e-20)
(0.9468 -0.0694891 -7.59259e-20)
(0.961781 -0.0525995 1.77183e-19)
(0.959054 -0.0627934 7.33738e-20)
(0.971212 -0.0469019 -3.15021e-20)
(0.969222 -0.0562711 -9.0696e-22)
(0.978947 -0.0412901 -1.26855e-19)
(0.977569 -0.0498818 -3.31496e-20)
(0.985185 -0.0357731 -3.8288e-21)
(0.984312 -0.0436043 -1.8898e-21)
(0.990098 -0.0303971 1.15493e-19)
(0.989634 -0.0374572 5.89674e-20)
(0.993844 -0.0252325 -1.61436e-19)
(0.993695 -0.0315022 9.77461e-22)
(0.996564 -0.0203411 -1.05883e-20)
(0.99665 -0.0258159 -1.1208e-19)
(0.998382 -0.0157444 2.12971e-19)
(0.998673 -0.0204384 5.51396e-20)
(0.999401 -0.0114261 -9.88083e-20)
(0.999906 -0.0153606 2.5658e-20)
(0.999724 -0.00740438 -4.33676e-21)
(1.00016 -0.0106538 -1.50644e-21)
(0.999486 -0.0038199 2.03847e-20)
(0.998798 -0.00664877 1.18981e-19)
(0.996679 -0.00342349 -1.28791e-19)
(0.525827 -0.200566 -6.70904e-20)
(0.481791 -0.23692 -7.2471e-20)
(0.609541 -0.177745 2.60878e-20)
(0.574323 -0.208559 2.55682e-19)
(0.679862 -0.16164 1.03405e-19)
(0.651301 -0.189052 5.68389e-20)
(0.737614 -0.148359 5.47351e-21)
(0.71533 -0.173073 -1.40721e-19)
(0.784994 -0.136444 9.57345e-20)
(0.767524 -0.158724 -1.24053e-19)
(0.824138 -0.12567 1.42589e-19)
(0.81041 -0.145796 6.66208e-20)
(0.856718 -0.115802 5.30017e-20)
(0.845885 -0.134105 0)
(0.883974 -0.106604 -1.40133e-19)
(0.875475 -0.123351 5.36914e-20)
(0.906813 -0.0979009 -3.30975e-19)
(0.900255 -0.113259 9.23005e-20)
(0.925951 -0.0895894 -1.34749e-19)
(0.920972 -0.103695 -1.34209e-19)
(0.94197 -0.0816165 0)
(0.938269 -0.0945811 1.68325e-22)
(0.955337 -0.0739413 -6.95037e-20)
(0.952674 -0.0858649 7.54451e-20)
(0.966425 -0.0665181 -1.04015e-19)
(0.964608 -0.0774948 -1.39117e-19)
(0.975534 -0.0592971 -2.22308e-21)
(0.974407 -0.0694107 -9.82751e-20)
(0.982904 -0.0522376 9.16287e-20)
(0.98234 -0.0615514 3.18619e-20)
(0.988738 -0.0453283 6.04451e-20)
(0.988629 -0.0538734 2.02595e-22)
(0.993213 -0.0386005 -5.51061e-20)
(0.99346 -0.0463743 1.13375e-19)
(0.99649 -0.0321208 5.11481e-20)
(0.996996 -0.0391019 -1.10196e-19)
(0.998717 -0.0259592 -4.74948e-20)
(0.999396 -0.0321303 1.07791e-19)
(1.00002 -0.0201495 -1.31749e-19)
(1.00085 -0.0255015 -2.08445e-19)
(1.00049 -0.0146807 1.23363e-19)
(1.00151 -0.0192103 2.55399e-20)
(1.00024 -0.00957113 1.2108e-19)
(1.0011 -0.0133875 9.74932e-20)
(0.999438 -0.00506698 -1.87598e-20)
(0.998689 -0.00853745 -2.07935e-19)
(0.995585 -0.0049182 1.66845e-19)
(0.528806 -0.24533 2.4108e-19)
(0.484098 -0.282833 1.44539e-21)
(0.614079 -0.220491 2.91341e-19)
(0.578635 -0.253721 3.29852e-20)
(0.685587 -0.200822 -1.83613e-19)
(0.657559 -0.230706 1.6134e-19)
(0.744197 -0.183782 -2.70784e-19)
(0.722746 -0.210727 4.81468e-20)
(0.792121 -0.168367 -1.56542e-19)
(0.775715 -0.192551 1.57586e-19)
(0.831567 -0.154453 -7.51027e-20)
(0.819005 -0.176172 -2.84757e-19)
(0.864273 -0.141802 0)
(0.854645 -0.16145 -5.90196e-20)
(0.891514 -0.130115 2.85787e-19)
(0.884222 -0.148031 1.59896e-19)
(0.914221 -0.119152 2.91754e-19)
(0.908846 -0.135545 9.90447e-20)
(0.933131 -0.108778 -6.73404e-22)
(0.929299 -0.12381 8.71106e-20)
(0.948847 -0.0989123 7.48311e-20)
(0.946249 -0.112717 -2.3602e-19)
(0.961848 -0.0894923 7.86236e-21)
(0.96024 -0.102187 2.23211e-19)
(0.972521 -0.0804519 -1.33732e-19)
(0.971708 -0.0921465 -1.90059e-22)
(0.981168 -0.071721 -6.52756e-20)
(0.980995 -0.0825146 -1.01782e-22)
(0.988036 -0.0632373 -5.93057e-20)
(0.988377 -0.0732096 5.98107e-20)
(0.993331 -0.0549666 5.22822e-20)
(0.994075 -0.0641656 1.1231e-19)
(0.99723 -0.0469194 5.99666e-20)
(0.998278 -0.0553558 5.67253e-20)
(0.9999 -0.0391499 -5.50787e-20)
(1.00115 -0.0468071 -5.46986e-20)
(1.00149 -0.0317288 -5.11758e-20)
(1.00285 -0.0385821 -1.53617e-19)
(1.00212 -0.0246987 -5.18499e-20)
(1.00359 -0.0307161 -5.10486e-20)
(1.00189 -0.0180537 0)
(1.00353 -0.0232022 4.89318e-20)
(1.00089 -0.0118091 -2.29708e-19)
(1.00232 -0.0162414 0)
(0.999437 -0.00646207 -6.23057e-20)
(0.998684 -0.0105843 -1.86663e-19)
(0.994544 -0.00680225 3.22074e-19)
(0.532271 -0.291702 -2.08262e-19)
(0.486183 -0.330673 1.0695e-19)
(0.620169 -0.264653 -9.99782e-20)
(0.584229 -0.300721 -2.56097e-19)
(0.693493 -0.241061 3.95455e-19)
(0.665876 -0.273809 -1.0734e-19)
(0.753248 -0.219918 4.74979e-19)
(0.732671 -0.249363 3.26979e-19)
(0.80179 -0.200718 3.53124e-20)
(0.786538 -0.226969 2.41979e-19)
(0.841493 -0.183448 -2.71904e-19)
(0.830214 -0.206834 -2.12874e-19)
(0.87422 -0.167866 9.80762e-20)
(0.86592 -0.188867 1.82399e-21)
(0.90131 -0.153596 -2.61468e-20)
(0.895346 -0.172645 1.57272e-19)
(0.923733 -0.140322 -1.05498e-19)
(0.919658 -0.157689 -2.82399e-19)
(0.942262 -0.127858 -1.44874e-19)
(0.939687 -0.143744 8.79419e-20)
(0.95752 -0.11609 -9.22435e-20)
(0.95613 -0.130657 -1.58117e-19)
(0.970006 -0.104928 2.17268e-19)
(0.969552 -0.118316 2.19988e-19)
(0.980116 -0.0942851 1.33432e-19)
(0.980401 -0.10662 3.38426e-21)
(0.98816 -0.0840691 1.24479e-19)
(0.989031 -0.0954653 6.46281e-20)
(0.994388 -0.0741965 2.3101e-19)
(0.995719 -0.0847505 -5.78865e-20)
(0.999005 -0.064609 1.17252e-19)
(1.00069 -0.0743866 2.26929e-19)
(1.00219 -0.0552917 -5.70608e-20)
(1.00413 -0.0643211 -2.72169e-19)
(1.00411 -0.0462788 -1.5255e-19)
(1.00619 -0.0545553 1.03203e-19)
(1.00491 -0.0376333 -1.54023e-19)
(1.00705 -0.0451314 -2.03186e-19)
(1.00472 -0.0294032 5.03897e-20)
(1.00692 -0.0360683 -4.70578e-20)
(1.00363 -0.0215905 4.9234e-20)
(1.00598 -0.0273492 2.8308e-19)
(1.00174 -0.0142122 4.41567e-20)
(1.00384 -0.0192605 1.3514e-21)
(0.999561 -0.008036 1.56797e-19)
(0.998865 -0.0128832 -2.16461e-19)
(0.993582 -0.00905425 6.08337e-21)
(0.536368 -0.340204 6.88668e-20)
(0.488194 -0.380974 1.55131e-21)
(0.628017 -0.310693 -2.67317e-19)
(0.591344 -0.350051 5.86969e-20)
(0.703803 -0.282673 -1.84135e-19)
(0.676546 -0.318755 -2.69e-19)
(0.764969 -0.256916 9.57204e-20)
(0.745371 -0.289196 8.66385e-20)
(0.814171 -0.233518 -6.49837e-23)
(0.800219 -0.262045 3.10145e-19)
(0.854055 -0.212591 5.81127e-20)
(0.844217 -0.237746 -1.37069e-19)
(0.886669 -0.193876 5.89891e-20)