/*--------------------------------*- C++ -*----------------------------------*\
  =========                 |
  \\      /  F ield         | OpenFOAM: The Open Source CFD Toolbox
   \\    /   O peration     | Website:  https://openfoam.org
    \\  /    A nd           | Version:  11
     \\/     M anipulation  |
\*---------------------------------------------------------------------------*/
FoamFile
{
    format      ascii;
    class       volScalarField;
    location    "1.12";
    object      epsilon;
}
// * * * * * * * * * * * * * * * * * * * * * * * * * * * * * * * * * * * * * //

dimensions      [0 2 -3 0 0 0 0];

internalField   nonuniform List<scalar> 
2880
(
2.97737
2.34494
2.1517
2.06551
2.56149
6.19116
1.04443
1.25551
1.3244
1.54843
3.23696
8.95076
1.33574
1.29133
1.38575
1.92235
4.61669
10.1826
1.70301
1.48166
1.62349
2.50368
5.85734
10.1669
2.01328
1.6624
1.902
3.12084
6.63729
9.75778
2.27993
1.81932
2.18544
3.68386
6.97946
9.04643
2.51322
1.95796
2.45897
4.14499
7.00298
8.28162
2.71753
2.08127
2.71263
4.48633
6.85512
7.54947
2.89381
2.19029
2.93751
4.70345
6.58105
6.88768
3.04203
2.28515
3.12508
4.81133
6.27853
6.30945
3.16254
2.36638
3.2702
4.83793
5.99141
5.81227
3.25667
2.43435
3.37321
4.81389
5.73021
5.39808
3.31342
2.48414
3.44049
4.75824
5.50168
5.06562
3.31825
2.51263
3.47871
4.6873
5.31084
4.81154
3.27522
2.52282
3.49382
4.61464
5.16177
4.63427
3.17719
2.52227
3.49357
4.55194
5.05827
4.53617
3.02399
2.51913
3.48824
4.51011
5.00776
4.52465
2.81321
2.52455
3.49081
4.50065
5.01767
4.58447
2.54143
2.5574
3.51929
4.53149
5.08663
4.74462
2.20465
2.64641
3.60239
4.6211
5.24543
5.013
1.7991
2.82776
3.79278
4.81555
5.51575
5.43815
1.32201
3.19012
4.22336
5.2179
5.95278
6.25637
0.94767
4.07195
5.37233
6.23596
6.76068
8.59746
2.88266
7.25907
10.1327
10.6924
9.33516
26.5315
15.4873
6.1722
2.27647
0.843479
0.314962
0.127149
0.0577361
0.0294737
0.0165844
0.0101269
0.00656634
0.00446105
0.00315529
0.00231576
0.0017597
0.00138136
0.00111712
0.000927521
0.000787499
0.000680525
0.000595272
0.000524757
0.000465544
0.000416206
12.9163
5.85002
2.26901
0.856473
0.322616
0.130475
0.0592822
0.0303228
0.0171363
0.010532
0.00688729
0.00472536
0.00337672
0.00250256
0.00191763
0.00151481
0.0012295
0.00102149
0.000865071
0.000743164
0.000643915
0.000559991
0.000488001
0.000427044
10.9149
5.32323
2.18344
0.844353
0.323373
0.132251
0.060441
0.0310642
0.0176585
0.0109336
0.00721383
0.0049993
0.00360987
0.00270221
0.00208893
0.00166171
0.00135507
0.00112807
0.000954397
0.000816389
0.000701632
0.00060241
0.000515432
0.000440144
9.33904
4.6997
2.06326
0.818097
0.320199
0.13284
0.0612931
0.0317233
0.0181606
0.0113349
0.00754699
0.00528318
0.00385493
0.00291498
0.00227408
0.00182276
0.00149475
0.00124842
0.00105681
0.000901664
0.00076996
0.000653504
0.00054907
0.00045603
8.05484
4.14649
1.91149
0.784261
0.314532
0.132728
0.0619565
0.0323365
0.0186568
0.0117415
0.00788941
0.00557836
0.00411271
0.00314156
0.00247378
0.00199883
0.0016496
0.00138378
0.00117375
0.00100061
0.000850625
0.000714998
0.000590479
0.000475458
6.99766
3.6681
1.74355
0.747226
0.307388
0.132259
0.062531
0.0329404
0.0191629
0.0121609
0.008245
0.00588715
0.00438478
0.00338316
0.00268916
0.00219104
0.00182086
0.00153558
0.00130686
0.00111509
0.000945653
0.000788909
0.000641289
0.000499252
6.12629
3.26276
1.59302
0.708374
0.299661
0.131649
0.0631001
0.0335685
0.0196965
0.0126021
0.00861907
0.00621305
0.0046737
0.00364188
0.00292209
0.00240122
0.00201039
0.00170575
0.00145822
0.00124732
0.0010574
0.000877586
0.000703467
0.000528348
5.41061
2.92402
1.46197
0.67049
0.292149
0.131128
0.0637411
0.0342532
0.0202761
0.0130754
0.00901848
0.00656106
0.00498347
0.00392117
0.00317576
0.00263244
0.00222121
0.00189732
0.00163085
0.00140036
0.00118894
0.000984068
0.000779679
0.000563969
4.82587
2.64429
1.3502
0.635972
0.28554
0.130897
0.0645367
0.0350352
0.02092
0.0135936
0.00945232
0.00693823
0.00532003
0.00422645
0.00345539
0.00288989
0.00245853
0.00211551
0.00182991
0.00157921
0.00134509
0.00111296
0.000873999
0.000607864
4.35162
2.41614
1.25715
0.606462
0.280431
0.131123
0.0655817
0.0359633
0.0216542
0.0141736
0.00993274
0.00735418
0.00569178
0.00456568
0.00376898
0.00318191
0.00273122
0.00236969
0.00206509
0.00179358
0.00153525
0.0012732
0.000994368
0.000663343
3.97122
2.23293
1.18196
0.58301
0.277353
0.132178
0.0670093
0.0371031
0.022515
0.0148382
0.010476
0.00782177
0.00610999
0.00494969
0.00412781
0.00352093
0.0030534
0.00267611
0.00235508
0.00206454
0.00178239
0.00148874
0.00116384
0.000743891
3.67175
2.08953
1.12371
0.566542
0.276428
0.134434
0.0690526
0.0385645
0.0235557
0.0156193
0.0111038
0.00835773
0.00658895
0.00539202
0.00454597
0.0039229
0.00344435
0.00305918
0.00273171
0.0024346
0.00214384
0.00183544
0.00147907
0.000964491
3.4431
1.98192
1.08229
0.559702
0.278221
0.138081
0.07186
0.0404493
0.0248426
0.0165589
0.0118451
0.00898375
0.00714641
0.00590847
0.0050389
0.00440446
0.00392399
0.00354532
0.00323346
0.00296439
0.00272248
0.00250517
0.00234537
0.00234369
3.27921
1.9078
1.05562
0.557954
0.283405
0.143475
0.075655
0.0428924
0.0264605
0.0177127
0.0127387
0.0097288
0.00780532
0.00651831
0.00562371
0.00498199
0.00450961
0.00415498
0.00388647
0.00368629
0.00354741
0.00347816
0.00352046
0.00372884
3.17618
1.86699
1.04829
0.563525
0.292629
0.151101
0.0807166
0.0460722
0.0285258
0.0191576
0.0138388
0.0106335
0.00859804
0.00724846
0.00632375
0.00567642
0.00522049
0.00490584
0.00470523
0.00460679
0.00460867
0.00471314
0.00495497
0.00533373
3.13887
1.86146
1.05794
0.578721
0.306924
0.161575
0.0874489
0.0502468
0.0312032
0.0210035
0.0152231
0.0117569
0.00957193
0.00813887
0.00717382
0.00651872
0.00608418
0.00582125
0.0057068
0.00573106
0.0058863
0.00618771
0.00663645
0.00718854
3.1581
1.89428
1.08923
0.60576
0.327811
0.175878
0.0964614
0.0557958
0.0347341
0.0234109
0.0170058
0.0131856
0.010797
0.00924864
0.00822531
0.00755411
0.00714012
0.0069346
0.00691777
0.00706669
0.00740253
0.00791275
0.00858595
0.00934071
3.25991
1.97444
1.1478
0.648231
0.357594
0.195481
0.108678
0.0632951
0.0394845
0.0266231
0.0193591
0.0150503
0.0123784
0.0106662
0.0095547
0.00884936
0.00844623
0.0082959
0.00836794
0.00865349
0.00918074
0.00991725
0.0108446
0.0118469
3.455
2.11499
1.24276
0.711945
0.399896
0.222648
0.12552
0.0736423
0.0460283
0.0310214
0.0225516
0.0175535
0.0144782
0.0125277
0.0112797
0.0105073
0.0100923
0.0099822
0.0101267
0.0105457
0.0112638
0.0122423
0.0134587
0.0147659
3.75995
2.33329
1.38796
0.806325
0.460719
0.261144
0.149355
0.0883164
0.0553097
0.0372308
0.0270208
0.0210217
0.0173562
0.0150504
0.0135886
0.0126938
0.0122252
0.0121223
0.012312
0.012837
0.0137329
0.0149569
0.0164927
0.0181718
4.1952
2.64733
1.60145
0.945585
0.549624
0.317029
0.184021
0.109792
0.0689209
0.0463126
0.0335086
0.0260054
0.0214465
0.0185954
0.0167939
0.0156864
0.0150933
0.0149381
0.0151292
0.0157024
0.0167368
0.0181854
0.0200544
0.0221777
4.81061
3.06886
1.89992
1.14901
0.683037
0.402034
0.237172
0.142894
0.0899268
0.0602507
0.0433719
0.0334925
0.0275158
0.0237931
0.0214377
0.019966
0.0191294
0.0188191
0.0189469
0.019473
0.0205512
0.0221624
0.0243428
0.02698
5.7643
3.61491
2.28581
1.42569
0.874922
0.53011
0.320092
0.195803
0.123952
0.0828568
0.0592299
0.0453702
0.0370034
0.0318053
0.0285062
0.0264005
0.0251144
0.0244679
0.0244088
0.0247733
0.0257093
0.0273492
0.0297488
0.0329481
7.73718
4.56704
2.85796
1.82422
1.1578
0.727224
0.453482
0.283861
0.181696
0.121485
0.0862242
0.0653651
0.0527417
0.0448884
0.0398817
0.0366251
0.0345127
0.0332315
0.0326563
0.0327445
0.0333125
0.0346447
0.0370448
0.0407856
1.97384
2.33962
2.80301
2.85638
2.64461
2.49389
0.866332
0.996203
1.23128
1.34794
1.37932
1.49593
0.232211
0.748901
0.944486
1.04218
1.10556
1.23413
0.254582
0.704657
0.860199
0.945897
1.01902
1.13897
0.269925
0.724843
0.838649
0.916234
0.993957
1.10664
1.1871
0.785627
0.842293
0.91284
0.993025
1.1015
1.30093
0.838624
0.857447
0.922125
1.00384
1.10865
1.43299
0.877203
0.875807
0.937208
1.01941
1.12036
1.5433
0.904615
0.893776
0.954553
1.03609
1.13244
1.62945
0.923309
0.910529
0.972238
1.05215
1.14288
1.69201
0.935939
0.926188
0.989577
1.06704
1.15115
1.73253
0.944883
0.941325
1.00666
1.08109
1.15777
1.74788
0.951314
0.956552
1.0243
1.09535
1.16415
1.73634
0.95518
0.972714
1.04371
1.11142
1.17245
1.69481
0.956598
0.990903
1.06652
1.13159
1.18562
1.62392
0.955981
1.01255
1.09496
1.1589
1.20755
1.52543
0.954015
1.03962
1.13207
1.19756
1.24349
1.4026
0.951816
1.07494
1.18225
1.25368
1.30087
1.26119
0.951128
1.12298
1.25237
1.33687
1.3912
1.18571
0.955293
1.19162
1.35438
1.46385
1.53444
0.264101
0.982802
1.29728
1.51221
1.66797
1.7705
0.239664
1.06624
1.48218
1.78516
2.02535
2.19854
0.883371
1.31229
1.90729
2.38047
2.77833
3.13275
1.951
2.451
3.63595
4.55469
5.19175
6.06964
5.34308
4.60733
3.33122
2.29533
1.54049
1.01577
0.663519
0.432801
0.285407
0.193305
0.136789
0.102329
0.0811673
0.0679303
0.0594585
0.0538982
0.0501618
0.0476557
0.0460682
0.0452929
0.0453663
0.0460495
0.0478607
0.0518015
2.94464
3.95461
3.5667
2.79445
2.04949
1.44131
0.986774
0.670117
0.456351
0.317788
0.228783
0.171823
0.135227
0.111424
0.0956756
0.0850804
0.077817
0.072771
0.0692166
0.0667442
0.0652384
0.0648546
0.0656018
0.068692
1.9045
3.00899
3.33496
3.13034
2.66558
2.10263
1.58085
1.1415
0.817178
0.591026
0.43568
0.330443
0.259168
0.210496
0.176834
0.15319
0.136252
0.123741
0.114287
0.107134
0.101793
0.0979736
0.0959053
0.0971188
1.52442
2.30273
2.878
3.08297
3.01366
2.79065
2.41314
2.00689
1.60876
1.24902
0.960328
0.751566
0.598129
0.484177
0.399175
0.33565
0.287686
0.250954
0.22245
0.200099
0.182425
0.168447
0.156993
0.151007
1.37627
1.90669
2.43974
2.84416
3.04618
3.08224
3.01449
2.85562
2.61006
2.33543
2.04542
1.75526
1.48908
1.25269
1.04951
0.88265
0.746414
0.634001
0.541144
0.464618
0.402
0.351183
0.310464
0.275421
1.31422
1.70107
2.1373
2.54594
2.87262
3.08449
3.21537
3.25589
3.23207
3.16481
3.03856
2.87328
2.68467
2.4778
2.25833
2.03033
1.80207
1.58098
1.37249
1.18039
1.00896
0.857441
0.73564
0.609429
1.28888
1.59067
1.94464
2.3071
2.64137
2.92395
3.14997
3.31646
3.43219
3.49853
3.51288
3.49308
3.43989
3.34406
3.2165
3.06043
2.87938
2.67762
2.4601
2.2321
2.00023
1.76675
1.55422
1.31691
1.27867
1.52561
1.81674
2.12611
2.43013
2.71145
2.96063
3.17247
3.34592
3.47912
3.57103
3.62368
3.63545
3.6149
3.56166
3.46943
3.35016
3.20893
3.04828
2.87047
2.67908
2.47908
2.28393
2.08746
1.27352
1.48077
1.72228
1.98152
2.24271
2.49314
2.7239
2.92893
3.10431
3.24718
3.35597
3.4301
3.46981
3.47658
3.45631
3.40636
3.32658
3.22431
3.10304
2.96657
2.81961
2.66985
2.5303
2.41373
1.26851
1.44374
1.64359
1.85668
2.07165
2.27881
2.47057
2.64119
2.78652
2.90382
2.99168
3.04984
3.07944
3.08243
3.06344
3.02294
2.96438
2.89209
2.80974
2.72108
2.63072
2.54461
2.46816
2.40122
1.26193
1.40919
1.57248
1.74325
1.9127
2.07313
2.21831
2.34349
2.44538
2.52236
2.57417
2.60157
2.60762
2.59523
2.56839
2.53052
2.48319
2.43076
2.37698
2.32439
2.27513
2.23101
2.19149
2.14702
1.25393
1.37599
1.50691
1.63976
1.76735
1.8835
1.98346
2.06393
2.12329
2.16153
2.1799
2.18301
2.17264
2.15368
2.1313
2.1097
2.09388
2.08388
2.07791
2.07454
2.07174
2.06779
2.05862
2.03118
1.24629
1.34577
1.44882
1.54943
1.64163
1.72067
1.78349
1.82875
1.85627
1.86866
1.87085
1.86727
1.86496
1.86944
1.88151
1.90084
1.92603
1.95451
1.98345
2.01045
2.03484
2.05555
2.07191
2.09499
1.24172
1.32212
1.40273
1.47848
1.54437
1.5971
1.63539
1.65982
1.67398
1.68326
1.69332
1.70955
1.73512
1.76862
1.80936
1.85468
1.90081
1.94426
1.98217
2.01224
2.03606
2.05372
2.07312
2.13554
1.24382
1.31015
1.37559
1.43575
1.48689
1.52725
1.55742
1.58005
1.59977
1.62203
1.65188
1.69276
1.74567
1.80906
1.87701
1.94137
1.99333
2.02466
2.03188
2.00862
1.96462
1.90456
1.85209
1.88954
1.25756
1.31533
1.37393
1.42939
1.4788
1.52157
1.55957
1.59676
1.63842
1.68974
1.75456
1.83361
1.92321
2.01482
2.09643
2.15524
2.17912
2.15521
2.07234
1.96068
1.8199
1.65785
1.4857
1.43464
1.28907
1.34543
1.40715
1.47038
1.53271
1.59438
1.65799
1.72775
1.80814
1.90227
2.01005
2.12648
2.2408
2.3378
2.40159
2.42027
2.36476
2.23175
2.07138
1.87547
1.66186
1.44815
1.24078
1.13192
1.34635
1.40961
1.48611
1.57138
1.66274
1.76042
1.86654
1.98377
2.11345
2.25362
2.39733
2.53202
2.64102
2.70555
2.70725
2.61853
2.44168
2.23808
1.99421
1.7321
1.47766
1.25188
1.061
0.963755
1.44039
1.51951
1.62422
1.74774
1.88544
2.0357
2.19789
2.37028
2.5479
2.72105
2.87484
2.99051
3.05296
3.01345
2.87918
2.67074
2.42071
2.12477
1.81282
1.51498
1.25541
1.04731
0.889069
0.815139
1.58699
1.69016
1.83819
2.01802
2.21942
2.43551
2.65929
2.88112
3.08717
3.25991
3.37874
3.41861
3.32895
3.14033
2.89261
2.5823
2.22717
1.86269
1.52301
1.23321
1.00555
0.837863
0.722455
0.678226
1.80982
1.94032
2.14751
2.40214
2.68118
2.96699
3.24186
3.48592
3.67658
3.79274
3.76579
3.62859
3.38848
3.0781
2.69436
2.27327
1.85678
1.48185
1.17253
0.936384
0.766363
0.650057
0.577397
0.555324
2.14466
2.29083
2.5709
2.91504
3.27445
3.614
3.90254
4.11216
4.20273
4.11144
3.90904
3.6058
3.2026
2.73503
2.24836
1.78898
1.39359
1.08114
0.851024
0.689129
0.578564
0.505047
0.46089
0.451389
2.64097
2.7579
3.11746
3.55395
3.97274
4.31702
4.54528
4.58641
4.44007
4.16251
3.76357
3.26019
2.7077
2.1631
1.67599
1.27849
0.979074
0.765964
0.61777
0.514403
0.442296
0.393352
0.365843
0.362856
3.33819
3.33601
3.77368
4.28199
4.70191
4.96085
4.95841
4.76649
4.39644
3.8749
3.26302
2.631
2.04369
1.54777
1.16458
0.88797
0.69485
0.559284
0.461221
0.389412
0.338074
0.304334
0.287733
0.288207
1.94715
2.61137
4.57201
6.07686
6.58137
6.19342
0.869929
1.5724
2.56989
3.44999
4.33447
5.97616
0.239148
1.33017
2.0421
2.73612
3.52504
4.37085
0.263624
1.24115
1.82773
2.44788
3.17982
3.98346
0.281001
1.19992
1.71419
2.31062
3.05466
3.92915
1.31588
1.17621
1.64466
2.24157
3.0298
4.01335
1.45786
1.1624
1.5966
2.2057
3.0553
4.16522
1.57118
1.15203
1.55849
2.18458
3.10503
4.35261
1.65391
1.14152
1.5235
2.16702
3.16307
4.55552
1.70535
1.12871
1.48723
2.14552
3.21945
4.76864
1.72472
1.11237
1.44672
2.11483
3.26709
4.98702
1.71788
1.09214
1.40012
2.07109
3.30082
5.21035
1.68036
1.0686
1.34642
2.01149
3.31633
5.43961
1.62646
1.04394
1.28531
1.93408
3.30848
5.67322
1.55476
1.01525
1.21782
1.83866
3.27118
5.90795
1.46446
0.978777
1.14448
1.72611
3.19878
6.13557
1.35488
0.92869
1.06541
1.59841
3.08689
6.34035
1.22138
0.855015
0.981142
1.45925
2.93117
6.49902
0.27863
0.737214
0.895921
1.31492
2.72709
6.58146
0.267622
0.657972
0.821299
1.17308
2.4745
6.5541
0.251003
0.620914
0.777194
1.05017
2.18394
6.39187
0.228788
0.65022
0.795211
0.981818
1.88855
6.08053
0.855933
0.882815
0.980687
1.06617
1.68318
5.61894
2.03332
2.15585
2.18761
1.97026
2.20623
5.35989
4.06587
3.97063
4.49402
5.01717
5.33781
5.32116
5.08564
4.61194
3.96386
3.24405
2.54192
1.92687
1.43625
1.07485
0.820775
0.642898
0.51452
0.4183
0.345423
0.292035
0.255373
0.233308
0.22474
0.22699
4.24875
4.56993
5.19962
5.63981
5.66965
5.41
4.8444
4.06867
3.24391
2.48003
1.8462
1.36455
1.02078
0.780193
0.608419
0.480904
0.383502
0.309126
0.254152
0.21587
0.191334
0.178182
0.174897
0.178172
4.42332
5.12747
5.79005
5.97366
5.74385
5.1347
4.23647
3.30631
2.48005
1.82416
1.34263
1.00331
0.763298
0.588314
0.456618
0.356144
0.280137
0.224176
0.184857
0.158949
0.14353
0.136414
0.136132
0.139803
4.67071
5.61694
6.16422
6.05724
5.50962
4.51335
3.47193
2.56931
1.87419
1.37372
1.02103
0.768302
0.582085
0.442252
0.337053
0.258805
0.201802
0.161557
0.134501
0.117539
0.108244
0.104868
0.105847
0.10976
4.95947
6.01393
6.29066
5.92235
4.94804
3.7789
2.77185
2.00801
1.4624
1.07624
0.797594
0.592385
0.440038
0.327501
0.24538
0.186403
0.144929
0.116664
0.0983563
0.0874188
0.0819839
0.0807267
0.0822654
0.0860474
5.27114
6.30279
6.27176
5.54329
4.26424
3.11789
2.24408
1.61998
1.17713
0.857557
0.62385
0.452799
0.328758
0.240017
0.177431
0.133949
0.104305
0.0846823
0.0723567
0.065325
0.0622196
0.0620628
0.0637848
0.0671836
5.59529
6.44822
6.11454
4.98177
3.65385
2.61404
1.86816
1.33908
0.958833
0.683291
0.484432
0.342751
0.243421
0.174837
0.12807
0.0965191
0.0755215
0.0618984
0.0535207
0.0489275
0.047152
0.0474342
0.0491585
0.0520359
5.92646
6.48806
5.84762
4.43042
3.16681
2.24274
1.58688
1.11796
0.781193
0.541206
0.372997
0.257384
0.179318
0.127268
0.0927985
0.070051
0.0551369
0.0455546
0.0397151
0.0365843
0.0354916
0.0358837
0.0374227
0.0397961
6.25912
6.48063
5.50868
3.97986
2.80038
1.95917
1.36085
0.93439
0.633559
0.425609
0.285239
0.192495
0.132121
0.0930683
0.0677787
0.0513234
0.0406023
0.0337087
0.0294801
0.0271944
0.0263917
0.0267087
0.0279321
0.0298407
6.57321
6.4491
5.1507
3.62748
2.51638
1.72861
1.17015
0.778786
0.510951
0.33281
0.217408
0.144054
0.0978251
0.0686358
0.0500223
0.0379951
0.0301472
0.0250444
0.0218367
0.0200171
0.0192713
0.0193917
0.020234
0.0217101
6.85688
6.42208
4.83203
3.3476
2.28447
1.53178
1.00523
0.646488
0.41017
0.259502
0.165819
0.108333
0.0730635
0.0511841
0.0373578
0.0284335
0.0225658
0.0186742
0.0161272
0.0145563
0.0137449
0.0135793
0.0140115
0.0150509
7.1177
6.38057
4.58328
3.12787
2.08891
1.35963
0.861811
0.534832
0.328453
0.202434
0.127044
0.0821664
0.0551992
0.0386644
0.0282567
0.0215185
0.0170377
0.0139926
0.0119006
0.0104783
0.00956165
0.00907121
0.00903424
0.00957184
7.37026
6.33415
4.40341
2.94989
1.91756
1.2066
0.737193
0.441521
0.263033
0.158508
0.0980999
0.0630241
0.0422619
0.0296179
0.0216619
0.0164834
0.0129979
0.0105732
0.00883067
0.00753872
0.00655285
0.00578132
0.00516514
0.00490448
7.63164
6.30168
4.28186
2.80024
1.76373
1.06998
0.629643
0.364398
0.211219
0.124938
0.0765376
0.0489746
0.0328253
0.0230223
0.016843
0.012798
0.0100478
0.00810164
0.00666003
0.00552983
0.00457782
0.00370691
0.00281183
0.00155398
7.91707
6.3097
4.19426
2.66882
1.62368
0.948196
0.537582
0.301268
0.170488
0.0993584
0.0604346
0.0385894
0.0258725
0.0181605
0.0132875
0.010083
0.00789085
0.00632759
0.00515838
0.00422987
0.00343263
0.00268651
0.00194059
0.00103153
8.23859
6.37049
4.13584
2.55097
1.49538
0.840057
0.459374
0.249967
0.138595
0.0798428
0.0483322
0.0308325
0.0206826
0.0145253
0.0106258
0.00805386
0.00628925
0.00502825
0.00408505
0.00333844
0.0027017
0.00211144
0.00152857
0.000873514
8.60969
6.48253
4.10015
2.44282
1.37736
0.744404
0.393343
0.208483
0.113641
0.0648855
0.0391519
0.0249642
0.0167493
0.0117607
0.00859536
0.00650389
0.00506714
0.00403998
0.00327217
0.00266568
0.00215082
0.0016795
0.00122931
0.000757327
9.05061
6.65343
4.08112
2.34109
1.26832
0.660017
0.337839
0.175027
0.094078
0.0533354
0.0321091
0.0204625
0.0137213
0.00962238
0.00701815
0.00529635
0.00411396
0.00326986
0.00264066
0.00214601
0.00172957
0.00135484
0.00100882
0.00066705
9.5936
6.88778
4.07131
2.24254
1.167
0.585706
0.291347
0.14799
0.0786455
0.0443284
0.026639
0.0169608
0.0113558
0.00794382
0.00577509
0.00434239
0.00336075
0.00266266
0.00214533
0.00174212
0.00140701
0.00111162
0.000847304
0.000598054
10.2897
7.18734
4.06078
2.14353
1.07212
0.520417
0.252243
0.125972
0.0663398
0.0372265
0.0223376
0.0142007
0.00948336
0.0066097
0.00478443
0.00358161
0.00276104
0.00218123
0.00175533
0.00142729
0.00115896
0.00092757
0.000726606
0.000544812
11.2192
7.54609
4.03551
2.03957
0.982871
0.462482
0.219058
0.107879
0.0564266
0.031567
0.0189147
0.0119987
0.0079843
0.0055388
0.00398859
0.00297129
0.00228174
0.00179878
0.0014481
0.00118194
0.000968167
0.000788023
0.000636008
0.000503741
12.5093
7.88157
3.97528
1.9268
0.897015
0.410386
0.190618
0.0928745
0.0483602
0.0270057
0.0161599
0.0102232
0.00677288
0.00467271
0.00334582
0.00248013
0.00189824
0.00149515
0.00120654
0.000991209
0.000821725
0.000682277
0.000567901
0.000472105
14.3748
8.13524
3.85553
1.79902
0.812337
0.362881
0.166008
0.0803195
0.0417359
0.0232905
0.013921
0.00877875
0.0057867
0.0039685
0.00282497
0.00208437
0.00159152
0.00125451
0.00101707
0.00084332
0.000709569
0.000602246
0.000516709
0.000447758
17.1209
8.23902
3.63803
1.64877
0.727332
0.319166
0.14457
0.0697415
0.036253
0.0202398
0.0120869
0.00759539
0.00497963
0.00339401
0.00240235
0.00176555
0.0013466
0.00106427
0.000868918
0.000729038
0.000623955
0.000541851
0.0004783
0.00042903
2.99984
8.82302
11.4677
12.3901
10.8104
53.6912
1.1253
4.17871
5.72086
6.99922
10.3164
17.6098
1.64532
3.21727
4.29069
5.39851
7.29765
10.3392
2.28364
2.87894
3.69293
4.64976
5.98577
7.51597
2.88255
2.74146
3.37859
4.20712
5.21612
6.08917
3.42586
2.68948
3.19136
3.90958
4.69561
5.22009
3.90445
2.67725
3.07036
3.69487
4.31932
4.63235
4.30493
2.6819
2.987
3.53398
4.03732
4.21368
4.62102
2.69055
2.92632
3.4115
3.82341
3.90957
4.85092
2.69586
2.88012
3.31852
3.66363
3.69031
4.99512
2.69383
2.8439
3.2499
3.55034
3.53902
5.05507
2.68259
2.81544
3.20355
3.4793
3.44655
5.03339
2.66171
2.79388
3.17841
3.44787
3.40953
4.93022
2.63164
2.77927
3.17417
3.45534
3.42645
4.74765
2.59357
2.77231
3.19176
3.50359
3.50121
4.48665
2.54946
2.77467
3.23276
3.59789
3.64326
4.14836
2.50241
2.78932
3.30084
3.74467
3.86849
3.73481
2.45742
2.82185
3.40242
3.95442
4.20621
3.25026
2.42306
2.88281
3.54912
4.24587
4.71075
2.70309
2.41515
2.99315
3.76313
4.65516
5.49057
2.10868
2.4667
3.19938
4.09433
5.25812
6.80349
1.49313
2.66575
3.62242
4.67835
6.28797
9.42863
1.04144
3.34431
4.70406
5.99663
8.87293
16.1865
2.49603
7.00252
9.38927
10.7682
10.6609
48.8952
19.3933
7.45288
3.28561
1.47566
0.642588
0.279062
0.125895
0.0608002
0.0316898
0.0177221
0.0105754
0.00662112
0.00431696
0.00292465
0.00205947
0.00150911
0.00115152
0.000914368
0.000753523
0.000641093
0.000558882
0.000496456
0.000449562
0.000414634
11.7763
5.9516
2.85149
1.29383
0.56131
0.24294
0.109754
0.0532515
0.0278822
0.0156386
0.00932515
0.00581665
0.0037721
0.00254127
0.00178174
0.0013034
0.000996691
0.000796739
0.000664057
0.000573755
0.000509679
0.000462504
0.000428144
0.000403599
8.51385
4.90075
2.45932
1.12362
0.487379
0.21127
0.0959829
0.0469099
0.024707
0.0139085
0.00828852
0.00515174
0.00332433
0.00222868
0.00155743
0.00113899
0.000874348
0.000704909
0.000595089
0.000522509
0.000472702
0.000437264
0.000412282
0.000395205
6.70353
4.12136
2.12089
0.972644
0.422753
0.184189
0.0843938
0.0416153
0.0220642
0.0124714
0.00742899
0.00460276
0.00295718
0.00197465
0.00137702
0.00100825
0.000778236
0.000633698
0.000542318
0.000483804
0.000445114
0.000418642
0.000400659
0.000388919
5.53528
3.5218
1.83585
0.843672
0.367985
0.161509
0.0747593
0.0372234
0.019872
0.0112801
0.00671795
0.00415097
0.00265739
0.00176923
0.00123273
0.000904954
0.000703298
0.000578961
0.000502337
0.000454858
0.000424702
0.000405
0.00039226
0.000384309
4.72896
3.05693
1.60107
0.736499
0.322635
0.142825
0.0668332
0.0336043
0.0180623
0.0102964
0.00613257
0.00378133
0.00241424
0.00160436
0.00111827
0.000824059
0.00064545
0.00053737
0.000472435
0.0004335
0.000409779
0.000395088
0.000386237
0.000380956
4.14822
2.69485
1.41079
0.649202
0.285737
0.127634
0.0603743
0.0306442
0.0165785
0.00948999
0.00565454
0.00348174
0.00221913
0.00147357
0.00102861
0.000761577
0.000601475
0.00050631
0.000450507
0.00041809
0.000399146
0.000388058
0.000381919
0.000378531
3.71978
2.41318
1.25877
0.579272
0.25616
0.115431
0.0551632
0.0282456
0.015374
0.00883601
0.00526912
0.0032425
0.0020652
0.00137179
0.000959874
0.000714462
0.000568936
0.000483801
0.000434945
0.000407358
0.000391863
0.000383313
0.000379
0.000376883
3.40239
2.19623
1.13937
0.524214
0.232817
0.105759
0.0510094
0.0263264
0.014412
0.00831456
0.00496438
0.00305584
0.00194701
0.00129504
0.000909069
0.00068041
0.000546006
0.000468368
0.000424553
0.000400342
0.000387174
0.000380416
0.000377249
0.000375868
3.17115
2.03289
1.0478
0.481819
0.214754
0.098228
0.047753
0.0248164
0.0136655
0.00790947
0.00473065
0.00291546
0.00186025
0.00124021
0.000873871
0.000657638
0.000531285
0.000458896
0.000418448
0.00039636
0.000384645
0.000378871
0.000376321
0.000375328
3.01062
1.91528
0.980219
0.450262
0.201188
0.0925219
0.0452696
0.0236642
0.0131004
0.00760675
0.00456007
0.00281635
0.00180145
0.00120484
0.00085247
0.00064477
0.000523697
0.000454541
0.000416004
0.00039499
0.000383913
0.000378468
0.00037606
0.00037516
2.91158
1.83809
0.933726
0.428125
0.191503
0.0883917
0.0434582
0.022825
0.0126945
0.00739535
0.00444635
0.00275454
0.00176799
0.00118709
0.00084356
0.00064084
0.000522487
0.000454679
0.000416752
0.000395872
0.000384583
0.000378891
0.000376252
0.000375185
2.87013
1.79821
0.906334
0.414385
0.185241
0.0856475
0.0422398
0.0222639
0.0124308
0.00726659
0.00438457
0.00272704
0.00175801
0.00118567
0.000845903
0.000644473
0.000526607
0.000458871
0.000420414
0.000398816
0.000386786
0.000380241
0.000376931
0.000375355
2.88469
1.79454
0.89694
0.408388
0.182086
0.084151
0.0415547
0.0219538
0.0122966
0.00721377
0.00437091
0.00273113
0.00176877
0.00119804
0.000857877
0.000655878
0.000536674
0.000467098
0.000426914
0.000403747
0.000390324
0.000382545
0.000378121
0.000375688
2.9596
1.82803
0.905316
0.409827
0.181846
0.0838067
0.041359
0.0218739
0.0122815
0.00723023
0.00440007
0.0027631
0.0017989
0.00122483
0.000881336
0.000675341
0.000552274
0.000479341
0.000436297
0.000410725
0.000395264
0.000385734
0.00037984
0.000376236
3.10349
1.90196
0.932154
0.41872
0.184432
0.0845537
0.0416195
0.0220064
0.012375
0.00731021
0.00447029
0.00282343
0.0018499
0.0012673
0.000915676
0.00070258
0.000573614
0.000495802
0.000448766
0.000419937
0.000401771
0.00038995
0.000382154
0.000377028
3.33157
2.02214
0.979189
0.435398
0.189848
0.0863559
0.0423117
0.0223391
0.0125728
0.00745334
0.00458211
0.00291299
0.00192186
0.00132457
0.000960811
0.000737935
0.000601051
0.000516828
0.000464632
0.000431648
0.000410065
0.000395372
0.000385206
0.000378159
3.66889
2.19745
1.04957
0.460475
0.198159
0.0891917
0.0434132
0.0228575
0.0128658
0.00765384
0.00473276
0.0030301
0.00201362
0.00139651
0.00101716
0.000781898
0.000635093
0.000542901
0.000484325
0.000446222
0.000420446
0.000402244
0.000389186
0.000379747
4.15667
2.442
1.14662
0.494699
0.20945
0.0930385
0.0448996
0.0235468
0.0132459
0.00790693
0.00491876
0.00317269
0.00212465
0.00148341
0.00108523
0.000835082
0.000676379
0.000574634
0.000508396
0.000464129
0.000433294
0.000410867
0.000394323
0.000381932
4.86609
2.77686
1.27463
0.538838
0.223763
0.0978486
0.0467354
0.0243875
0.0137033
0.00820713
0.00513732
0.00333961
0.00225468
0.0015855
0.00116556
0.000898172
0.000725651
0.000612758
0.000537515
0.000485944
0.000449081
0.000421605
0.000400876
0.000384863
5.92816
3.23363
1.43838
0.593345
0.240966
0.103511
0.0488621
0.0253511
0.0142271
0.00854788
0.00538492
0.00352917
0.00240313
0.00170284
0.00125858
0.000971833
0.000783683
0.000658074
0.000572447
0.000512348
0.000468369
0.000434889
0.000409146
0.000388721
7.58538
3.86085
1.64129
0.657563
0.260529
0.109793
0.0511852
0.0263973
0.014803
0.00892108
0.00565717
0.00373913
0.00256901
0.00183521
0.00136457
0.00105662
0.000851204
0.00071139
0.000614005
0.000544103
0.000491829
0.000451259
0.000419438
0.000393673
10.5148
4.74362
1.8815
0.728228
0.281175
0.116277
0.0535661
0.0274763
0.0154057
0.00931668
0.00594906
0.00396684
0.00275101
0.00198215
0.0014836
0.00115299
0.000928907
0.000773547
0.000663106
0.000582126
0.00052028
0.000471289
0.00043194
0.000399794
17.2869
5.94156
2.13529
0.796536
0.300478
0.122312
0.0558156
0.0285239
0.0160089
0.00972316
0.0062547
0.00420907
0.00294741
0.0021429
0.00161558
0.00126129
0.00101744
0.000845385
0.00072067
0.000627309
0.000554481
0.000495546
0.000447124
0.00040723
)
;

boundaryField
{
    rotor
    {
        type            epsilonWallFunction;
        value           nonuniform List<scalar> 
144
(
2.97737
2.34494
2.1517
2.06551
2.56149
6.19116
2.97737
1.04443
1.33574
1.70301
2.01328
2.27993
2.51322
2.71753
2.89381
3.04203
3.16254
3.25667
3.31342
3.31825
3.27522
3.17719
3.02399
2.81321
2.54143
2.20465
1.7991
1.32201
0.94767
2.88266
2.88266
7.25907
10.1327
10.6924
9.33516
26.5315
1.97384
2.33962
2.80301
2.85638
2.64461
2.49389
1.97384
0.866332
0.232211
0.254582
0.269925
1.1871
1.30093
1.43299
1.5433
1.62945
1.69201
1.73253
1.74788
1.73634
1.69481
1.62392
1.52543
1.4026
1.26119
1.18571
0.264101
0.239664
0.883371
1.951
1.951
2.451
3.63595
4.55469
5.19175
6.06964
1.94715
2.61137
4.57201
6.07686
6.58137
6.19342
1.94715
0.869929
0.239148
0.263624
0.281001
1.31588
1.45786
1.57118
1.65391
1.70535
1.72472
1.71788
1.68036
1.62646
1.55476
1.46446
1.35488
1.22138
0.27863
0.267622
0.251003
0.228788
0.855933
2.03332
2.03332
2.15585
2.18761
1.97026
2.20623
5.35989
2.99984
8.82302
11.4677
12.3901
10.8104
53.6912
2.99984
1.1253
1.64532
2.28364
2.88255
3.42586
3.90445
4.30493
4.62102
4.85092
4.99512
5.05507
5.03339
4.93022
4.74765
4.48665
4.14836
3.73481
3.25026
2.70309
2.10868
1.49313
1.04144
2.49603
2.49603
7.00252
9.38927
10.7682
10.6609
48.8952
)
;
    }
    freestream
    {
        type            inletOutlet;
        inletValue      uniform 0.000375;
        value           nonuniform List<scalar> 
96
(
0.000375
0.000375
0.000375
0.000375
0.000375
0.000375
0.000375
0.000375
0.000375
0.000375
0.000375
0.000375
0.00234369
0.00372884
0.00533373
0.00718854
0.00934071
0.0118469
0.0147659
0.0181718
0.0221777
0.02698
0.0329481
0.0407856
0.0518015
0.068692
0.0971188
0.151007
0.275421
0.609429
1.31691
2.08746
2.41373
2.40122
2.14702
2.03118
2.09499
2.13554
1.88954
1.43464
1.13192
0.963755
0.815139
0.678226
0.555324
0.451389
0.362856
0.288207
0.22699
0.178172
0.139803
0.10976
0.0860474
0.0671836
0.0520359
0.0397961
0.0298407
0.0217101
0.0150509
0.00957184
0.00490448
0.000375
0.000375
0.000375
0.000375
0.000375
0.000375
0.000375
0.000375
0.000375
0.000375
0.000375
0.000375
0.000375
0.000375
0.000375
0.000375
0.000375
0.000375
0.000375
0.000375
0.000375
0.000375
0.000375
0.000375
0.000375
0.000375
0.000375
0.000375
0.000375
0.000375
0.000375
0.000375
0.000375
0.000375
0.000375
)
;
    }
    frontAndBack
    {
        type            empty;
    }
}


// ************************************************************************* //
