/*--------------------------------*- C++ -*----------------------------------*\
  =========                 |
  \\      /  F ield         | OpenFOAM: The Open Source CFD Toolbox
   \\    /   O peration     | Website:  https://openfoam.org
    \\  /    A nd           | Version:  11
     \\/     M anipulation  |
\*---------------------------------------------------------------------------*/
FoamFile
{
    format      ascii;
    class       volScalarField;
    location    "1.12";
    object      k;
}
// * * * * * * * * * * * * * * * * * * * * * * * * * * * * * * * * * * * * * //

dimensions      [0 2 -2 0 0 0 0];

internalField   nonuniform List<scalar> 
2880
(
0.00639941
0.00973412
0.0146444
0.0209495
0.0363147
0.11718
0.0201482
0.0270165
0.0362957
0.0467574
0.0814526
0.170199
0.0270829
0.036667
0.0503885
0.0680989
0.120146
0.213136
0.0318385
0.04537
0.0630601
0.0881952
0.150295
0.230753
0.0355882
0.0538273
0.0753242
0.106712
0.170738
0.233897
0.0386587
0.0620051
0.086901
0.122736
0.183899
0.231805
0.0412487
0.0698418
0.0975002
0.135756
0.191245
0.225896
0.0434522
0.0772105
0.106985
0.146053
0.19459
0.218936
0.0453092
0.0839727
0.11532
0.154105
0.195283
0.211909
0.0468417
0.0899867
0.122495
0.160257
0.194615
0.205358
0.0480694
0.0951138
0.128539
0.164857
0.19316
0.199583
0.0490173
0.0992189
0.133479
0.168259
0.191649
0.194775
0.0495864
0.102251
0.137347
0.170769
0.190542
0.191074
0.0496355
0.104213
0.140185
0.17266
0.190166
0.188576
0.0492077
0.105097
0.142023
0.174146
0.190506
0.187507
0.0482225
0.104895
0.142829
0.17535
0.191531
0.187854
0.0466612
0.10359
0.142548
0.176263
0.193475
0.189754
0.0444682
0.101131
0.141084
0.176642
0.196049
0.193512
0.041557
0.0973847
0.138257
0.175989
0.19855
0.19849
0.0377999
0.0920551
0.133674
0.173486
0.199705
0.203695
0.0330094
0.084548
0.126676
0.167977
0.197919
0.206577
0.0268796
0.0736298
0.116024
0.157631
0.190048
0.203198
0.0182727
0.0562778
0.0988153
0.139275
0.170276
0.183607
0.00620395
0.0302139
0.0693619
0.108965
0.132462
0.116552
0.324572
0.297862
0.196208
0.12517
0.0807335
0.0560805
0.041954
0.0330377
0.0268567
0.0222662
0.0187062
0.0158776
0.0135972
0.0117404
0.0102166
0.00895857
0.00791492
0.00704623
0.006321
0.00571168
0.00519207
0.00474174
0.00434936
0.00401045
0.299354
0.284534
0.192577
0.123625
0.0801357
0.0558611
0.0419235
0.033153
0.0270896
0.0225963
0.0191129
0.0163392
0.0140931
0.012252
0.010728
0.00945567
0.00838564
0.00747991
0.00670829
0.00604455
0.00546356
0.00494606
0.00448287
0.00407364
0.278567
0.264408
0.186577
0.121089
0.0791223
0.0554527
0.0417878
0.0331915
0.0272714
0.0228919
0.0194977
0.0167898
0.0145877
0.0127712
0.0112546
0.00997494
0.00888442
0.00794631
0.00713142
0.00641433
0.00577047
0.00518126
0.00463954
0.00414771
0.26165
0.245052
0.178071
0.117805
0.0778121
0.0549029
0.0415698
0.0331721
0.0274092
0.0231549
0.01986
0.0172274
0.0150783
0.0132947
0.0117936
0.0105138
0.00940921
0.00844411
0.00758996
0.00682169
0.0061147
0.00545026
0.00482256
0.0042341
0.247081
0.227419
0.168336
0.113837
0.076335
0.0542563
0.0412905
0.0331095
0.0275103
0.0233888
0.0202008
0.0176513
0.0155631
0.0138204
0.0123423
0.0110698
0.00995785
0.00897171
0.00808312
0.00726688
0.00649766
0.00575572
0.00503555
0.00433474
0.23412
0.2116
0.158792
0.109318
0.0746753
0.0535379
0.0409665
0.0330123
0.0275813
0.0235972
0.0205219
0.0180618
0.0160415
0.0143469
0.0128991
0.0116409
0.0105284
0.00952756
0.00861002
0.00775001
0.00692071
0.00610006
0.00528096
0.00445107
0.222203
0.197533
0.149828
0.104833
0.0728705
0.0527725
0.040611
0.0328892
0.0276281
0.0237843
0.0208258
0.0184605
0.016514
0.0148741
0.0134636
0.0122265
0.0111203
0.0101111
0.00917047
0.00827149
0.00738513
0.00648545
0.00556105
0.00458399
0.21126
0.18512
0.141629
0.100611
0.0710089
0.0519815
0.0402336
0.0327477
0.0276573
0.0239553
0.0211165
0.0188502
0.0169831
0.0154042
0.0140377
0.0128288
0.0117357
0.0107247
0.0097668
0.00883377
0.00789365
0.00691514
0.0058792
0.00473446
0.201355
0.174262
0.134267
0.0967217
0.0691709
0.0511594
0.0398424
0.0325957
0.0276758
0.0241158
0.0213988
0.0192355
0.0174534
0.0159422
0.0146273
0.0134544
0.012382
0.0113763
0.0104074
0.00944516
0.00845433
0.00739708
0.00624272
0.00490444
0.192547
0.164868
0.127772
0.0932151
0.0674254
0.0503338
0.0394524
0.0324433
0.0276912
0.0242724
0.0216787
0.0196225
0.0179315
0.0164962
0.0152422
0.0141157
0.0130748
0.0120847
0.0111137
0.010129
0.00909116
0.00795492
0.00667293
0.00510135
0.184898
0.156855
0.122146
0.0901275
0.0658657
0.0495562
0.0390863
0.0323038
0.0277124
0.0244325
0.0219633
0.0200183
0.0184257
0.0170764
0.0158962
0.0148314
0.0138395
0.0128843
0.0119313
0.0109433
0.00987465
0.00866903
0.00725134
0.00537427
0.178472
0.150162
0.117387
0.0874826
0.0645245
0.0488805
0.0387744
0.0321959
0.0277522
0.0246059
0.0222606
0.0204306
0.0189441
0.0176926
0.0166027
0.0156215
0.0147069
0.0138226
0.0129339
0.012003
0.0109821
0.00980206
0.00833756
0.0061471
0.173331
0.144749
0.113495
0.0852992
0.0634358
0.0483767
0.0385553
0.0321401
0.027826
0.024804
0.0225797
0.0208665
0.0194927
0.0183506
0.0173688
0.0164965
0.0156954
0.0149343
0.0141884
0.0134399
0.0126831
0.0119432
0.0113378
0.0111683
0.169585
0.140611
0.110476
0.0836248
0.0626592
0.0481016
0.0384574
0.0321479
0.0279482
0.0250392
0.0229303
0.0213333
0.0200762
0.0190524
0.0181934
0.0174529
0.016799
0.0162104
0.0156764
0.0151992
0.0147975
0.0145214
0.0144969
0.0148674
0.16739
0.137795
0.108363
0.0824967
0.0623535
0.0480318
0.0384845
0.0322565
0.0281404
0.0253274
0.0233245
0.0218398
0.0206999
0.0197994
0.0190732
0.0184808
0.0179983
0.0176151
0.0173335
0.0171673
0.0171407
0.0172838
0.0176728
0.0183268
0.16701
0.136448
0.107249
0.0820509
0.0623396
0.0482061
0.0387034
0.0324975
0.0284276
0.0256881
0.0237777
0.022398
0.0213723
0.0205959
0.020007
0.019571
0.0192718
0.0191078
0.0190904
0.0192297
0.0195516
0.0200637
0.0207875
0.0216584
0.168204
0.136566
0.107244
0.0823198
0.0628215
0.0487239
0.0391635
0.0329097
0.0288402
0.0261452
0.0243097
0.0230239
0.0221057
0.0214497
0.0209969
0.0207177
0.0206026
0.0206532
0.020882
0.0213199
0.0219603
0.0227927
0.0238054
0.0248824
0.171819
0.138586
0.108569
0.0834935
0.0639263
0.0496796
0.0399348
0.033545
0.0294174
0.0267299
0.0249458
0.0237385
0.0229171
0.0223732
0.0220492
0.0219198
0.0219729
0.0222159
0.0226879
0.0233901
0.0243163
0.0254381
0.0267207
0.0280109
0.177738
0.142739
0.111519
0.0858132
0.0658348
0.0512082
0.0411174
0.0344773
0.0302141
0.0274842
0.0257196
0.0245699
0.0238297
0.0233846
0.0231762
0.0231801
0.0233682
0.0237956
0.0244731
0.0254063
0.0265847
0.0279691
0.0295106
0.0310272
0.185223
0.149075
0.11641
0.0896105
0.0688172
0.0535141
0.0428635
0.035815
0.0313094
0.0284677
0.0266783
0.0255568
0.0248764
0.024512
0.0244025
0.0244979
0.0248097
0.0253845
0.0262263
0.027348
0.0287381
0.0303528
0.0321382
0.0338932
0.1921
0.156897
0.123276
0.0952115
0.0732352
0.0569042
0.045409
0.0377356
0.0328273
0.0297707
0.027891
0.0267552
0.0261047
0.0257967
0.0257619
0.0259178
0.0263201
0.0269961
0.027954
0.0292121
0.0307622
0.0325629
0.0345641
0.0365615
0.193669
0.1642
0.131313
0.1026
0.07942
0.0617807
0.0491081
0.0405135
0.0349745
0.0315397
0.0294664
0.0282504
0.0275867
0.0273038
0.0273093
0.0274987
0.027951
0.028678
0.0296937
0.0310243
0.0326687
0.0345929
0.0367619
0.0389914
0.186562
0.166544
0.138197
0.110769
0.0872298
0.0684528
0.0544121
0.044573
0.0380886
0.0340283
0.0315883
0.0301826
0.0294355
0.0291309
0.0291418
0.0293338
0.0297898
0.0305161
0.0315251
0.0328532
0.0345111
0.0364761
0.038738
0.0411684
0.161488
0.158512
0.140773
0.117509
0.0954363
0.0765246
0.0614774
0.0503199
0.0426093
0.0376155
0.0345554
0.0327801
0.0318315
0.0314258
0.0314043
0.0315637
0.0319721
0.0326494
0.0335875
0.0348305
0.0364075
0.0383111
0.0405596
0.0431301
0.00423112
0.00969953
0.0191045
0.029001
0.0374401
0.0469873
0.0166697
0.0265146
0.0398809
0.0505608
0.0588042
0.0661615
0.0206122
0.0346357
0.0503391
0.0621115
0.0712722
0.0790672
0.022606
0.040288
0.057599
0.0703096
0.0803834
0.0890626
0.0240255
0.0450195
0.0634384
0.0769249
0.0878161
0.0973376
0.0250038
0.0493497
0.0684137
0.0825343
0.0941376
0.104387
0.0264426
0.0533216
0.0727086
0.0873537
0.0995654
0.110412
0.0282913
0.0567748
0.0763802
0.0914713
0.104192
0.115499
0.029727
0.0596691
0.0794465
0.0949273
0.108062
0.119692
0.030823
0.0619918
0.0819205
0.0977474
0.111209
0.123034
0.0316069
0.0637407
0.083816
0.0999542
0.113669
0.125582
0.0321094
0.0649112
0.0851447
0.10157
0.115486
0.127414
0.0322988
0.065504
0.0859125
0.102614
0.116708
0.128626
0.0321566
0.0655224
0.086107
0.103101
0.117386
0.129326
0.0316421
0.0649585
0.0857334
0.103034
0.117564
0.129625
0.0307543
0.063783
0.084749
0.102397
0.117275
0.129631
0.0294992
0.0619494
0.0830989
0.101149
0.116522
0.129437
0.0278943
0.0593857
0.0806946
0.0992056
0.11527
0.129104
0.0259697
0.0559744
0.077397
0.0964181
0.113413
0.128648
0.0248564
0.0515134
0.0729813
0.0925335
0.110733
0.128017
0.023455
0.0459662
0.0670595
0.0871068
0.106805
0.127028
0.0212828
0.0387017
0.058844
0.0792887
0.100791
0.125248
0.0170016
0.0280129
0.0463166
0.0671457
0.090911
0.121701
0.00418353
0.0101581
0.0247646
0.0462174
0.0735227
0.114473
0.112204
0.139331
0.135855
0.121914
0.102806
0.0850309
0.0698785
0.0578491
0.0489387
0.0427857
0.038813
0.0364081
0.0350645
0.0344231
0.0342801
0.034382
0.0346929
0.0352762
0.0360898
0.0371723
0.0385656
0.0402885
0.0423874
0.0450006
0.0926505
0.123267
0.127933
0.123199
0.110127
0.0941755
0.0793257
0.0667961
0.0569501
0.0497088
0.04472
0.0414966
0.0395549
0.0384958
0.0380588
0.038053
0.038222
0.0386324
0.0392939
0.0401704
0.0413042
0.0427253
0.0445027
0.0470142
0.0951951
0.119513
0.129383
0.128832
0.122954
0.110311
0.0958599
0.082322
0.0708986
0.0618278
0.0551173
0.0503998
0.047231
0.0452042
0.0440127
0.0434196
0.0432872
0.0434099
0.04371
0.0442811
0.0451006
0.0461327
0.0474262
0.0495898
0.102589
0.122288
0.136136
0.142966
0.142681
0.138042
0.127906
0.115636
0.102716
0.090496
0.0804028
0.0725147
0.066423
0.0618071
0.058393
0.0559454
0.0542662
0.0530939
0.0522914
0.0518676
0.0518405
0.0520283
0.0524928
0.0537445
0.110144
0.127758
0.143728
0.155961
0.163351
0.165815
0.164402
0.16025
0.152952
0.144383
0.134758
0.12475
0.115101
0.106104
0.0979352
0.0908026
0.0847225
0.0795022
0.0750532
0.0713408
0.0683446
0.0659588
0.0641486
0.0634271
0.1171
0.133659
0.150222
0.165311
0.17773
0.18696
0.193255
0.196849
0.19765
0.196886
0.194666
0.190252
0.184407
0.177518
0.16951
0.160493
0.150714
0.140579
0.130426
0.120542
0.111261
0.102762
0.0954515
0.0888304
0.123236
0.139148
0.155586
0.171702
0.18664
0.199828
0.211122
0.22043
0.227764
0.233357
0.237051
0.238649
0.238481
0.236951
0.233485
0.227861
0.220546
0.211641
0.201379
0.189988
0.177771
0.165019
0.152658
0.140331
0.128438
0.143813
0.159726
0.175778
0.191426
0.206193
0.219814
0.232059
0.242775
0.251857
0.259137
0.264513
0.267978
0.269434
0.269
0.267034
0.263014
0.257011
0.24951
0.240625
0.2305
0.219357
0.207979
0.197507
0.132655
0.147447
0.162537
0.177799
0.192916
0.207578
0.221453
0.234251
0.245729
0.255679
0.263919
0.270321
0.274818
0.277383
0.278061
0.277156
0.274609
0.270243
0.264566
0.257823
0.250397
0.242884
0.235928
0.230471
0.135895
0.149995
0.164019
0.178009
0.191831
0.205225
0.217905
0.229589
0.240026
0.249013
0.256399
0.2621
0.266096
0.268435
0.269225
0.268666
0.26688
0.26387
0.259958
0.255375
0.250419
0.245532
0.241253
0.237785
0.138225
0.151524
0.164295
0.176713
0.188709
0.200106
0.210671
0.220169
0.228394
0.235212
0.240543
0.244391
0.246837
0.248025
0.248173
0.247465
0.246079
0.244183
0.241953
0.239548
0.237135
0.234866
0.232703
0.229947
0.139765
0.152211
0.163666
0.174363
0.184303
0.193374
0.201412
0.20826
0.213811
0.218037
0.220979
0.222759
0.223567
0.223708
0.223423
0.222949
0.222482
0.222097
0.22179
0.221579
0.221421
0.221231
0.220804
0.219619
0.140676
0.152309
0.162513
0.171562
0.179512
0.186318
0.191905
0.196222
0.199297
0.201224
0.202127
0.202299
0.202014
0.20159
0.201368
0.20161
0.20253
0.204098
0.205874
0.207991
0.210404
0.212916
0.215181
0.217209
0.141153
0.152138
0.161315
0.169002
0.175316
0.180283
0.183924
0.186295
0.187518
0.187892
0.187707
0.18732
0.187075
0.18721
0.187812
0.188818
0.190153
0.192087
0.194362
0.1967
0.199159
0.201772
0.204939
0.210458
0.141409
0.152036
0.160588
0.167425
0.172723
0.176595
0.179161
0.180599
0.181224
0.181383
0.181401
0.181588
0.182149
0.183104
0.184282
0.185366
0.185956
0.18549
0.184722
0.183409
0.1815
0.179373
0.178726
0.182586
0.141662
0.152349
0.160792
0.167425
0.172493
0.176185
0.178703
0.18032
0.181385
0.182238
0.183178
0.184385
0.185836
0.18727
0.18824
0.188214
0.18685
0.183279
0.177936
0.171413
0.163946
0.156006
0.149305
0.149912
0.14213
0.153417
0.16238
0.169553
0.175259
0.179748
0.183276
0.18614
0.188649
0.191052
0.193476
0.195857
0.197883
0.199064
0.198857
0.196702
0.191132
0.183338
0.1738
0.163093
0.152047
0.141532
0.133203
0.133253
0.143027
0.155554
0.165717
0.174186
0.181357
0.18751
0.192888
0.197716
0.202159
0.206252
0.20985
0.212617
0.214014
0.213555
0.209931
0.202288
0.192741
0.181247
0.168112
0.154525
0.141846
0.131312
0.124685
0.125041
0.14457
0.159061
0.171102
0.181555
0.190857
0.199252
0.206876
0.213771
0.219855
0.22488
0.228415
0.230035
0.228584
0.223298
0.214176
0.203003
0.189342
0.173854
0.157902
0.143009
0.130675
0.122079
0.118819
0.120449
0.147009
0.164252
0.1788
0.191774
0.2036
0.214379
0.224031
0.232324
0.238906
0.243316
0.244805
0.241912
0.235067
0.225036
0.21194
0.195859
0.177978
0.159841
0.143118
0.129317
0.119608
0.114617
0.114676
0.117843
0.150675
0.171476
0.189042
0.204841
0.219185
0.231916
0.242654
0.250873
0.256019
0.256652
0.252834
0.245036
0.233369
0.217684
0.199039
0.178883
0.158939
0.140965
0.126402
0.116137
0.110518
0.109503
0.111052
0.116003
0.15606
0.181114
0.201978
0.220535
0.236841
0.250382
0.260508
0.266274
0.265964
0.261677
0.252471
0.238117
0.219752
0.198636
0.176504
0.1553
0.136793
0.122201
0.111985
0.106058
0.10427
0.105011
0.107871
0.113548
0.163919
0.193467
0.217494
0.238181
0.255163
0.267568
0.273917
0.273139
0.268196
0.257068
0.239878
0.218724
0.195331
0.17173
0.149963
0.131654
0.117609
0.107778
0.101665
0.098901
0.0989864
0.10054
0.104373
0.109656
0.175143
0.208444
0.234898
0.256356
0.271884
0.279551
0.278875
0.273035
0.259608
0.239585
0.215805
0.1905
0.165995
0.144288
0.126675
0.113404
0.103935
0.0975492
0.0937918
0.0926802
0.0933066
0.0955977
0.0998025
0.10465
0.00417768
0.0108592
0.0312916
0.0619222
0.0933909
0.117882
0.016745
0.0284581
0.0533772
0.0847209
0.11832
0.15515
0.0212314
0.0405782
0.067866
0.0998671
0.135289
0.174132
0.0233818
0.0488065
0.0773033
0.109967
0.146315
0.185114
0.0250189
0.0549784
0.0839003
0.11695
0.153741
0.192568
0.0268085
0.0595252
0.0885465
0.121727
0.15879
0.197897
0.0286623
0.0627776
0.0916873
0.124795
0.162106
0.201773
0.0301268
0.0649709
0.0935797
0.126457
0.164071
0.204595
0.0311757
0.066256
0.0943913
0.126912
0.164922
0.206592
0.0318187
0.066737
0.0942554
0.126294
0.164829
0.208058
0.032059
0.0665241
0.0932363
0.124695
0.16389
0.209175
0.031974
0.0656166
0.0914183
0.122178
0.162171
0.210088
0.0315063
0.0640784
0.0888628
0.118782
0.159689
0.210876
0.0308294
0.0619169
0.0856236
0.114529
0.15638
0.211504
0.0299169
0.0591785
0.0817523
0.10943
0.152156
0.211881
0.0287473
0.0558982
0.0772987
0.103484
0.146865
0.211818
0.0272943
0.0521088
0.0723215
0.0966875
0.140294
0.210877
0.0254674
0.0479037
0.0669048
0.0890671
0.132193
0.208551
0.02475
0.0436206
0.0611725
0.0807056
0.122292
0.20405
0.023771
0.0395886
0.0552526
0.071795
0.110363
0.196341
0.0222941
0.0355485
0.0490941
0.0623852
0.0963347
0.184316
0.0203208
0.0309699
0.0422525
0.0522103
0.0799129
0.166531
0.0164798
0.0243352
0.0331534
0.0399519
0.059936
0.138463
0.00436373
0.00894224
0.0149111
0.0200188
0.0313178
0.101327
0.190411
0.225068
0.25262
0.272743
0.283136
0.283373
0.276801
0.261298
0.238597
0.212473
0.185692
0.160783
0.139533
0.122734
0.110072
0.100696
0.0938335
0.0891088
0.0865501
0.0862816
0.087345
0.0901708
0.094336
0.0987779
0.206112
0.241232
0.26831
0.283831
0.286498
0.280026
0.263296
0.238299
0.210181
0.182294
0.157262
0.136511
0.120272
0.10781
0.0981683
0.0906431
0.0849487
0.0811531
0.0794606
0.0796639
0.0811615
0.0843027
0.0883142
0.0923654
0.218632
0.254906
0.279413
0.287335
0.282754
0.266489
0.239856
0.210119
0.181321
0.156141
0.135603
0.119446
0.106707
0.0964649
0.0881283
0.0814758
0.0765574
0.0735396
0.0725497
0.0730815
0.0749622
0.0781277
0.0819182
0.0856005
0.228393
0.26491
0.28359
0.284078
0.270871
0.244096
0.213123
0.18341
0.157799
0.136987
0.120372
0.106907
0.0957701
0.08648
0.0788548
0.0728979
0.0687059
0.0663734
0.065898
0.0666658
0.0687356
0.071783
0.0753009
0.0786299
0.235792
0.27064
0.282452
0.274584
0.251312
0.219643
0.188926
0.162467
0.140838
0.123242
0.108648
0.096333
0.0859158
0.0772422
0.0702691
0.065008
0.0614881
0.0597012
0.0595489
0.0604381
0.0625154
0.0653521
0.0685599
0.0715544
0.241197
0.27211
0.275525
0.260198
0.229676
0.198079
0.170365
0.147397
0.12835
0.11224
0.0984445
0.0866714
0.0767982
0.0687517
0.0624648
0.057875
0.0549204
0.0535119
0.0535047
0.0543988
0.0563333
0.0588875
0.0617603
0.0644409
0.245038
0.270498
0.265785
0.243024
0.210962
0.181718
0.156988
0.136079
0.118073
0.102455
0.0890279
0.0777201
0.0684512
0.0610949
0.0554954
0.0514992
0.0489689
0.0477713
0.0477562
0.048545
0.050217
0.0524314
0.0549496
0.0573362
0.247634
0.26604
0.255142
0.227122
0.196652
0.169954
0.146873
0.126617
0.108795
0.093342
0.0802729
0.0695317
0.0609574
0.0543145
0.0493483
0.045831
0.0435794
0.0424468
0.0423005
0.0428841
0.0441977
0.0460223
0.0481668
0.050274
0.249353
0.260123
0.244715
0.214925
0.18651
0.161168
0.138406
0.118
0.100081
0.0848202
0.0722425
0.0621845
0.0543488
0.048385
0.0439604
0.0408015
0.0387048
0.0375245
0.0371512
0.0374411
0.0383197
0.0397016
0.0414454
0.0432792
0.250429
0.254166
0.235694
0.206595
0.179264
0.15398
0.130705
0.109849
0.0918644
0.0769534
0.0650116
0.0557053
0.0485939
0.0432356
0.0392509
0.0363464
0.0343128
0.0330099
0.0323469
0.0322598
0.0326493
0.0335185
0.034812
0.0363605
0.251075
0.249433
0.229063
0.200953
0.173667
0.147555
0.12339
0.102085
0.0842019
0.0698142
0.0586082
0.0500638
0.0436204
0.0387791
0.0351422
0.0324149
0.0303903
0.028931
0.0279541
0.0274147
0.027288
0.0275532
0.0282894
0.0294927
0.251504
0.24643
0.224882
0.197197
0.168982
0.141504
0.116357
0.0947498
0.0771654
0.0634384
0.0530102
0.0451916
0.0393388
0.0349284
0.0315666
0.0289689
0.026934
0.0253241
0.0240511
0.0230678
0.022357
0.0219349
0.0219093
0.022526
0.252005
0.245028
0.222991
0.194732
0.164801
0.135679
0.109619
0.0879096
0.0708003
0.0578168
0.0481579
0.0410012
0.0356572
0.0316043
0.0284667
0.0259767
0.0239426
0.0222253
0.0207239
0.0193677
0.0181058
0.0168922
0.0156839
0.0148321
0.252737
0.244942
0.222908
0.193102
0.160896
0.130039
0.103225
0.081617
0.065114
0.052904
0.0439703
0.0373994
0.0324887
0.0287357
0.02579
0.0234055
0.0214037
0.0196494
0.0180328
0.0164556
0.0148129
0.0129641
0.0106209
0.00699394
0.25382
0.246464
0.224209
0.192012
0.157158
0.124596
0.0972237
0.0758954
0.0600797
0.0486308
0.0403574
0.0342952
0.0297518
0.0262543
0.0234811
0.0212091
0.0192772
0.0175624
0.0159628
0.0143842
0.0127269
0.0108858
0.00876093
0.00592109
0.255316
0.249737
0.22668
0.191274
0.153537
0.11938
0.0916478
0.0707388
0.0556464
0.0449171
0.0372305
0.0316037
0.0273702
0.0240909
0.0214733
0.0193163
0.0174759
0.0158433
0.0143304
0.0128571
0.0113391
0.00969053
0.00784253
0.00557609
0.257297
0.254797
0.22998
0.190746
0.15001
0.114411
0.0865064
0.0661172
0.0517495
0.0416823
0.034508
0.0292495
0.0252753
0.0221806
0.0196994
0.0176499
0.015902
0.014358
0.012939
0.0115746
0.0101916
0.00872246
0.00713405
0.00530651
0.259929
0.261747
0.23393
0.190339
0.146565
0.1097
0.0817877
0.0619847
0.0483197
0.0388511
0.0321195
0.0271704
0.0234116
0.0204715
0.0181076
0.0161544
0.0144929
0.0130341
0.0117068
0.010448
0.00919456
0.00789503
0.00653978
0.00506313
0.263575
0.2706
0.23841
0.189969
0.143175
0.105234
0.0774584
0.0582854
0.0452911
0.0363588
0.0300074
0.0253173
0.0217374
0.018927
0.0166643
0.0147971
0.0132159
0.0118386
0.0106002
0.00944427
0.00831659
0.00717802
0.00603123
0.00483924
0.268839
0.28136
0.243311
0.189512
0.13979
0.100976
0.0734729
0.054964
0.0426057
0.0341516
0.0281257
0.0236526
0.0202223
0.0175221
0.0153482
0.0135596
0.0120545
0.0107564
0.00960543
0.00855051
0.00754435
0.00655638
0.00559468
0.00463867
0.276673
0.294091
0.248019
0.188774
0.136322
0.0968708
0.0697843
0.0519698
0.0402131
0.0321844
0.0264376
0.0221477
0.0188441
0.0162398
0.0141459
0.0124311
0.0109996
0.00977932
0.0087144
0.00775797
0.00686795
0.00601933
0.00522134
0.00446257
0.288584
0.308746
0.251917
0.187506
0.132647
0.0928572
0.0663453
0.0492559
0.0380686
0.0304199
0.0249144
0.0207811
0.0175873
0.0150686
0.0130492
0.0114052
0.0100457
0.00890229
0.00792189
0.00706077
0.00628061
0.00555963
0.00490562
0.00431157
0.306909
0.32478
0.254847
0.185354
0.128603
0.0888659
0.063111
0.0467802
0.0361347
0.0288283
0.0235338
0.0195369
0.0164408
0.0140009
0.0120523
0.0104774
0.00918894
0.00812114
0.00722319
0.00645352
0.00577631
0.00517123
0.0046428
0.00418506
0.334839
0.337131
0.25594
0.181777
0.124013
0.0848417
0.0600472
0.0445094
0.0343817
0.0273865
0.0222792
0.0184037
0.0153968
0.0130312
0.0111513
0.00964417
0.00842562
0.00743187
0.00661372
0.00593102
0.00534938
0.00484839
0.00442802
0.00408122
0.00643775
0.0366086
0.0782355
0.125868
0.154022
0.189048
0.0216669
0.0723541
0.117213
0.165141
0.220389
0.319219
0.0310583
0.0918016
0.140071
0.191318
0.252913
0.33635
0.0386436
0.104975
0.155637
0.208603
0.268743
0.3348
0.0451315
0.114952
0.167064
0.220189
0.276293
0.32792
0.050633
0.122817
0.175663
0.227902
0.279226
0.319613
0.0552408
0.12905
0.18212
0.232894
0.279536
0.311129
0.0589564
0.133904
0.186847
0.235932
0.278373
0.303165
0.0618095
0.137523
0.190121
0.237547
0.276395
0.296104
0.0638451
0.139993
0.192139
0.238113
0.274072
0.290138
0.0651066
0.141373
0.193044
0.237886
0.271739
0.285377
0.065629
0.141704
0.192935
0.237023
0.269614
0.281893
0.0654439
0.141013
0.191874
0.235624
0.267824
0.279741
0.0645488
0.139312
0.189881
0.233714
0.266407
0.278949
0.0629473
0.136594
0.186935
0.231251
0.265314
0.279538
0.0606204
0.132837
0.182967
0.228112
0.264398
0.28151
0.0575353
0.127993
0.177862
0.224092
0.263388
0.284903
0.0536468
0.121985
0.171441
0.21887
0.261849
0.289644
0.0489019
0.11469
0.163454
0.211962
0.259142
0.295586
0.0432488
0.105903
0.153529
0.202681
0.254309
0.30221
0.0366519
0.0952282
0.141063
0.19003
0.245709
0.308442
0.029119
0.0817547
0.1249
0.172428
0.230402
0.311006
0.020058
0.0627638
0.102139
0.147049
0.202558
0.297316
0.00535887
0.0290756
0.0640917
0.109364
0.151145
0.177725
0.371749
0.342297
0.253044
0.176282
0.118787
0.0807747
0.05714
0.042421
0.0327882
0.0260774
0.0211385
0.0173736
0.01445
0.0121559
0.010343
0.00890229
0.00775212
0.00683025
0.00608862
0.00548783
0.00499388
0.00458497
0.00425591
0.00399755
0.394557
0.334426
0.245065
0.168913
0.113034
0.0767224
0.0543989
0.040504
0.03134
0.0248895
0.0201037
0.0164411
0.0135968
0.0113719
0.00962423
0.00824834
0.0071644
0.00631157
0.00564252
0.00511792
0.00470319
0.00437423
0.00412064
0.00393124
0.38161
0.319242
0.233889
0.160377
0.107051
0.0727946
0.0518494
0.0387555
0.0300283
0.0238154
0.0191697
0.0156029
0.0128344
0.0106763
0.00899194
0.00767848
0.00665794
0.0058706
0.00526946
0.00481457
0.00447002
0.00420895
0.0040164
0.00387963
0.362803
0.302422
0.221482
0.151483
0.101173
0.0691053
0.0495185
0.0371757
0.028848
0.0228506
0.0183334
0.0148565
0.0121603
0.0100664
0.00844246
0.00718836
0.00622768
0.0055016
0.00496295
0.00457053
0.00428662
0.00408183
0.00393769
0.00384034
0.34392
0.285769
0.209062
0.142845
0.0956547
0.0657378
0.0474244
0.0357647
0.0277959
0.0219925
0.0175929
0.0141998
0.0115719
0.00953858
0.00797161
0.00677305
0.00586803
0.00519833
0.00471606
0.0043782
0.00414514
0.00398574
0.00387948
0.00381117
0.326716
0.270279
0.197386
0.134856
0.0906547
0.0627381
0.0455745
0.034521
0.0268695
0.0212392
0.0169464
0.0136308
0.0110664
0.00908939
0.00757491
0.00642729
0.00557303
0.00495418
0.00452161
0.00423008
0.00403831
0.00391432
0.00383703
0.00378977
0.311599
0.256414
0.186861
0.127725
0.0862504
0.0601226
0.0439679
0.0334413
0.0260665
0.0205891
0.0163925
0.0131477
0.0106413
0.0087153
0.00724805
0.00614598
0.00533684
0.00476266
0.00437265
0.00411934
0.00396011
0.00386274
0.00380634
0.00377422
0.298629
0.24437
0.177677
0.121545
0.0824656
0.0578885
0.042598
0.0325216
0.0253847
0.0200409
0.01593
0.0127487
0.0102942
0.00841327
0.0069873
0.0059247
0.00515435
0.00461793
0.00426292
0.00403982
0.00390526
0.00382722
0.00378526
0.00376358
0.287808
0.234224
0.169909
0.116337
0.079292
0.0560213
0.0414549
0.0317568
0.0248213
0.0195928
0.0155573
0.0124321
0.0100228
0.00818058
0.00678942
0.00575965
0.00502109
0.00451496
0.00418705
0.00398634
0.00386928
0.00380453
0.00377225
0.00375699
0.279112
0.225987
0.163565
0.112083
0.0767036
0.0545011
0.0405272
0.0311415
0.0243733
0.0192427
0.0152727
0.0121959
0.00982491
0.00801456
0.00665132
0.00564728
0.00493301
0.00444924
0.00414045
0.00395466
0.00384857
0.00379234
0.00376541
0.00375348
0.272504
0.219637
0.158616
0.108746
0.0746668
0.0533059
0.0398028
0.0306686
0.0240373
0.0189886
0.0150741
0.0120379
0.00969807
0.0079125
0.00657
0.00558421
0.00488639
0.00441694
0.0041196
0.00394189
0.00384113
0.00378827
0.00376312
0.00375229
0.267958
0.215146
0.155021
0.10628
0.0731463
0.0524137
0.0392692
0.030331
0.023809
0.0188277
0.0149592
0.0119559
0.00963985
0.00787195
0.00654283
0.00556763
0.0048782
0.00441483
0.00412155
0.00394582
0.00384535
0.00379122
0.00376456
0.00375252
0.265475
0.21249
0.15274
0.104641
0.0721082
0.0518033
0.0389142
0.0301211
0.0236838
0.0187567
0.0149253
0.0119472
0.0096472
0.00788856
0.00656403
0.00559101
0.00490303
0.00444017
0.00414458
0.00396502
0.00386013
0.00380109
0.00376956
0.00375379
0.265089
0.211666
0.151739
0.103791
0.0715212
0.0514543
0.0387253
0.0300309
0.0236561
0.0187704
0.0149657
0.0120036
0.00971151
0.00795573
0.00663231
0.00565804
0.00496452
0.00449298
0.00418793
0.00399879
0.00388479
0.00381736
0.00377832
0.0037563
0.26686
0.212695
0.151997
0.103697
0.0713567
0.051347
0.0386896
0.0300513
0.0237172
0.0188608
0.0150756
0.012124
0.00983675
0.00808127
0.00675221
0.00576682
0.00505941
0.00457235
0.00425147
0.0040473
0.00391969
0.00384015
0.00379069
0.00376019
0.270941
0.215628
0.153504
0.104329
0.0715866
0.0514613
0.0387931
0.0301724
0.0238618
0.0190258
0.0152548
0.0123109
0.0100237
0.00826084
0.00691827
0.00591548
0.00518771
0.00467865
0.00433586
0.0041114
0.00396567
0.00387023
0.00380727
0.00376573
0.27749
0.220537
0.156254
0.105658
0.0721815
0.0517748
0.0390204
0.0303842
0.0240833
0.0192618
0.0155006
0.012559
0.0102661
0.0084903
0.00712936
0.00610377
0.0053498
0.00481277
0.00444235
0.00419237
0.00402396
0.00390868
0.00382892
0.00377348
0.286719
0.227508
0.160234
0.107649
0.0731066
0.0522616
0.0393527
0.0306718
0.0243687
0.0195569
0.0158031
0.0128611
0.0105594
0.00876759
0.00738448
0.00633159
0.00554639
0.00497604
0.0045726
0.00429199
0.0040962
0.00395694
0.0038568
0.00378418
0.298855
0.236615
0.165406
0.110251
0.0743179
0.0528898
0.0397672
0.0310187
0.0247054
0.019901
0.016154
0.0132112
0.0108999
0.00909032
0.00768242
0.00659883
0.00577834
0.00517007
0.00472869
0.00441241
0.00418441
0.00401673
0.00389227
0.00379863
0.314159
0.247895
0.171661
0.113375
0.0757514
0.0536176
0.0402364
0.0314054
0.0250787
0.0202826
0.0165444
0.0136027
0.0112828
0.00945531
0.00802148
0.0069051
0.00604642
0.00539658
0.00491289
0.00455613
0.00429093
0.00409003
0.0039368
0.00381769
0.332634
0.261262
0.178753
0.116857
0.0773086
0.0543884
0.0407254
0.0318088
0.0254714
0.0206885
0.0169642
0.0140277
0.0117022
0.00985851
0.00839921
0.00724944
0.00635098
0.00565701
0.00512747
0.00472578
0.00441837
0.00417907
0.00399204
0.00384235
0.352783
0.276309
0.186146
0.120399
0.0788356
0.0551247
0.0411915
0.0322025
0.0258647
0.0211043
0.017402
0.0144774
0.0121512
0.0102949
0.0088122
0.00762998
0.0066916
0.00595222
0.00537431
0.00492393
0.00456956
0.00428647
0.00405958
0.00387351
0.36953
0.291918
0.192801
0.123485
0.0801036
0.0557256
0.0415853
0.0325575
0.0262396
0.0215158
0.0178465
0.0149426
0.0126226
0.0107587
0.00925641
0.00804423
0.00706728
0.00628265
0.00565513
0.00515328
0.00474758
0.00441472
0.00414027
0.00391146
0.352383
0.302605
0.196797
0.125322
0.0808094
0.0560744
0.0418544
0.0328448
0.026577
0.0219086
0.0182861
0.0154136
0.0131083
0.0112436
0.00972708
0.008489
0.00747636
0.00664806
0.00597092
0.00541565
0.00495456
0.00456579
0.00423617
0.00395681
)
;

boundaryField
{
    rotor
    {
        type            kqRWallFunction;
        value           nonuniform List<scalar> 
144
(
0.00639941
0.00973412
0.0146444
0.0209495
0.0363147
0.11718
0.00639941
0.0201482
0.0270829
0.0318385
0.0355882
0.0386587
0.0412487
0.0434522
0.0453092
0.0468417
0.0480694
0.0490173
0.0495864
0.0496355
0.0492077
0.0482225
0.0466612
0.0444682
0.041557
0.0377999
0.0330094
0.0268796
0.0182727
0.00620395
0.00620395
0.0302139
0.0693619
0.108965
0.132462
0.116552
0.00423112
0.00969953
0.0191045
0.029001
0.0374401
0.0469873
0.00423112
0.0166697
0.0206122
0.022606
0.0240255
0.0250038
0.0264426
0.0282913
0.029727
0.030823
0.0316069
0.0321094
0.0322988
0.0321566
0.0316421
0.0307543
0.0294992
0.0278943
0.0259697
0.0248564
0.023455
0.0212828
0.0170016
0.00418353
0.00418353
0.0101581
0.0247646
0.0462174
0.0735227
0.114473
0.00417768
0.0108592
0.0312916
0.0619222
0.0933909
0.117882
0.00417768
0.016745
0.0212314
0.0233818
0.0250189
0.0268085
0.0286623
0.0301268
0.0311757
0.0318187
0.032059
0.031974
0.0315063
0.0308294
0.0299169
0.0287473
0.0272943
0.0254674
0.02475
0.023771
0.0222941
0.0203208
0.0164798
0.00436373
0.00436373
0.00894224
0.0149111
0.0200188
0.0313178
0.101327
0.00643775
0.0366086
0.0782355
0.125868
0.154022
0.189048
0.00643775
0.0216669
0.0310583
0.0386436
0.0451315
0.050633
0.0552408
0.0589564
0.0618095
0.0638451
0.0651066
0.065629
0.0654439
0.0645488
0.0629473
0.0606204
0.0575353
0.0536468
0.0489019
0.0432488
0.0366519
0.029119
0.020058
0.00535887
0.00535887
0.0290756
0.0640917
0.109364
0.151145
0.177725
)
;
    }
    freestream
    {