/*--------------------------------*- C++ -*----------------------------------*\
  =========                 |
  \\      /  F ield         | OpenFOAM: The Open Source CFD Toolbox
   \\    /   O peration     | Website:  https://openfoam.org
    \\  /    A nd           | Version:  11
     \\/     M anipulation  |
\*---------------------------------------------------------------------------*/
FoamFile
{
    format      ascii;
    class       volScalarField;
    location    "1.12";
    object      nut;
}
// * * * * * * * * * * * * * * * * * * * * * * * * * * * * * * * * * * * * * //

dimensions      [0 2 -1 0 0 0 0];

internalField   nonuniform List<scalar> 
2880
(
1.23791e-06
3.63667e-06
8.97026e-06
1.91232e-05
4.63355e-05
0.000199609
3.49816e-05
5.23219e-05
8.95225e-05
0.000127072
0.000184466
0.000291271
4.94207e-05
9.37038e-05
0.0001649
0.000217115
0.000281403
0.000401513
5.35711e-05
0.000125035
0.000220447
0.00027961
0.000347083
0.000471358
5.66176e-05
0.00015686
0.000268474
0.000328397
0.000395287
0.000504592
5.89951e-05
0.00019019
0.000310996
0.000368031
0.000436095
0.000534578
6.09303e-05
0.000224218
0.000347937
0.000400161
0.000470043
0.000554553
6.25303e-05
0.00025779
0.000379753
0.000427931
0.000497129
0.000571427
6.38478e-05
0.000289746
0.000407449
0.000454421
0.000521526
0.000586773
6.49149e-05
0.000318922
0.000432137
0.000480411
0.000542921
0.000601552
6.57572e-05
0.000344069
0.000454715
0.000505589
0.000560466
0.000616801
6.63999e-05
0.000363956
0.000475361
0.000529303
0.000576879
0.000632514
6.67869e-05
0.000378791
0.000493473
0.000551585
0.00059392
0.000648654
6.6822e-05
0.000389006
0.000508426
0.000572403
0.00061284
0.000665164
6.65379e-05
0.000394036
0.000519589
0.000591467
0.000632791
0.000682802
6.58717e-05
0.000392607
0.000525541
0.000607935
0.000652704
0.000700159
6.47998e-05
0.00038338
0.000524276
0.000619978
0.000672746
0.000716206
6.32615e-05
0.00036461
0.000513184
0.000623957
0.000689396
0.00073514
6.11577e-05
0.000333753
0.000488834
0.000615141
0.000697511
0.000747337
5.8329e-05
0.000288191
0.000446423
0.000586173
0.000684285
0.000744915
5.45084e-05
0.000227513
0.000380781
0.000527347
0.000639164
0.000706247
4.91876e-05
0.000152948
0.000286867
0.000428579
0.000546072
0.000593961
3.17097e-05
7.00028e-05
0.000163579
0.000279952
0.000385974
0.000352899
1.20167e-06
1.13181e-05
4.27325e-05
9.99406e-05
0.000169162
4.60805e-05
0.000612195
0.0012937
0.00152199
0.00167175
0.00186248
0.00222613
0.00274374
0.00333294
0.00391424
0.00440614
0.00479613
0.00508596
0.00527355
0.00535688
0.00533851
0.00522892
0.00504705
0.00481762
0.0045663
0.00431446
0.00407576
0.0038562
0.00365706
0.00347792
0.000624416
0.00124553
0.00147102
0.00160599
0.00179147
0.00215245
0.00266829
0.00326226
0.00385419
0.00436322
0.0047736
0.00508471
0.00529373
0.00539853
0.00540149
0.00531212
0.00514738
0.00492948
0.00468182
0.00442472
0.0041722
0.0039317
0.00370625
0.00349732
0.000639854
0.001182
0.00143488
0.00156288
0.00174235
0.00209261
0.00260022
0.00319181
0.00379056
0.00431362
0.00474288
0.00507486
0.0053055
0.00543232
0.00545731
0.00538899
0.00524253
0.00503775
0.00479584
0.00453573
0.00427126
0.00401071
0.00375855
0.00351775
0.000659751
0.00114998
0.00138317
0.00152674
0.00170183
0.00204223
0.00253739
0.00312184
0.00372309
0.00425708
0.00470358
0.00505576
0.005308
0.00545714
0.00550462
0.00545796
0.00533065
0.00514031
0.00490598
0.00464496
0.00437044
0.004091
0.00381216
0.00353811
0.000682126
0.00112258
0.00133421
0.00148713
0.00166734
0.00199609
0.00247661
0.00305108
0.00365087
0.00419307
0.00465518
0.00502678
0.00530038
0.00547192
0.00554213
0.00551752
0.00540998
0.00523512
0.00500986
0.00474977
0.00446703
0.00417001
0.00386484
0.00355678
0.000704961
0.00109858
0.00130156
0.00143938
0.00163272
0.00195048
0.00241548
0.0029776
0.0035728
0.00412092
0.00459711
0.00498725
0.00528181
0.00547563
0.00556862
0.00556625
0.00547889
0.00532028
0.00510529
0.00484771
0.0045584
0.00424507
0.00391394
0.00357151
0.000725345
0.00107631
0.00126826
0.00139629
0.00159483
0.00190388
0.00235234
0.00290013
0.00348784
0.00404001
0.00452884
0.00493656
0.00525153
0.00546735
0.00558302
0.00560293
0.00553601
0.0053942
0.00519043
0.00493665
0.00464216
0.00431353
0.00395651
0.00357939
0.000742387
0.0010548
0.00123483
0.00135874
0.00155333
0.00185457
0.0022856
0.00281775
0.00339529
0.00394995
0.00444994
0.00487417
0.00520888
0.00544634
0.00558454
0.00562674
0.00558048
0.00545596
0.00526421
0.00501527
0.00471669
0.0043734
0.00398992
0.00357708
0.000756117
0.00103357
0.00120166
0.00132389
0.00150807
0.00179955
0.00221374
0.00272935
0.0032952
0.00385047
0.00435997
0.00479957
0.00515332
0.00541209
0.00557278
0.00563751
0.00561239
0.00550592
0.00532718
0.00508418
0.00478244
0.00442468
0.00401309
0.00356135
0.00076677
0.0010125
0.00116876
0.00128947
0.00145903
0.00173894
0.00213603
0.0026341
0.00318701
0.00374101
0.00425835
0.00471212
0.00508427
0.00536422
0.00554774
0.00563582
0.00563316
0.00554652
0.00538297
0.0051482
0.0048451
0.0044732
0.00403022
0.00353081
0.000774791
0.000991656
0.00113605
0.00125395
0.00140776
0.00167216
0.0020519
0.00253128
0.00306986
0.00362073
0.00414422
0.00461097
0.00500095
0.00530221
0.00550949
0.00562274
0.00564546
0.00558287
0.00544014
0.00522054
0.00492359
0.00454324
0.00406619
0.00349439
0.00078075
0.000971207
0.00110365
0.00121578
0.00135553
0.00159958
0.00195954
0.00241911
0.00294267
0.00348865
0.00401649
0.00449485
0.00490201
0.00522482
0.00545724
0.00559858
0.00565166
0.00562107
0.00551149
0.00532595
0.00506318
0.00471127
0.0042299
0.00352602
0.000785313
0.000951449
0.00107116
0.00116997
0.00130173
0.00152539
0.00186176
0.0022984
0.00280509
0.00334389
0.00387382
0.00436199
0.0047852
0.00512944
0.00538822
0.00556075
0.00565012
0.00566185
0.00560326
0.005484
0.00531776
0.00512445
0.00493272
0.00478981
0.000789311
0.000932711
0.00104057
0.00112802
0.00124682
0.00145139
0.0017594
0.00216853
0.00265675
0.00318566
0.0037148
0.00421017
0.00464745
0.00501197
0.00529721
0.0055027
0.00563213
0.00569197
0.00569089
0.00564024
0.00555533
0.00545645
0.0053727
0.00533505
0.00079396
0.000915308
0.00100814
0.00108693
0.00119577
0.00137415
0.0016514
0.00203253
0.00249841
0.00301358
0.00353808
0.00403703
0.00448517
0.00486744
0.00517744
0.00541512
0.00558461
0.00569247
0.00574693
0.00575769
0.00573753
0.00570441
0.00567299
0.00566739
0.000799753
0.00090017
0.000978519
0.00104698
0.00113957
0.00129441
0.00154165
0.00189162
0.00233091
0.00282758
0.00334256
0.00384033
0.00429482
0.0046907
0.00502176
0.00528818
0.00549395
0.00564477
0.00574749
0.005807
0.00584474
0.0058551
0.00586017
0.00587294
0.000806284
0.000886102
0.000950316
0.00100682
0.00108352
0.00121483
0.00143104
0.00174699
0.00215517
0.0026279
0.00312755
0.00361826
0.00407332
0.00447722
0.00482394
0.0051138
0.00535034
0.00553601
0.00567311
0.00578892
0.00586326
0.00590888
0.00594025
0.0059655
0.000815037
0.000875463
0.000924236
0.000967872
0.00102852
0.0011363
0.0013207
0.00160003
0.00197253
0.00241535
0.00289302
0.0033698
0.00381856
0.00422367
0.00457944
0.00488655
0.00514464
0.00535432
0.00553623
0.00569006
0.0057964
0.00587245
0.00592546
0.00596059
0.000822914
0.000867
0.000900647
0.000930903
0.000975454
0.00105999
0.00121222
0.00145272
0.00178499
0.00219152
0.00263993
0.00309518
0.00352992
0.00392854
0.00428579
0.00460237
0.00486972
0.00510515
0.00532295
0.00550869
0.00564705
0.0057509
0.00582365
0.00586771
0.000821204
0.000857197
0.00087871
0.000896292
0.000925126
0.000986959
0.00110712
0.00130716
0.00159511
0.00195905
0.00237062
0.00279633
0.00320895
0.00359297
0.003944
0.0042551
0.00453138
0.00478405
0.00502793
0.00524362
0.00541248
0.0055437
0.00563629
0.00568942
0.00079167
0.000836881
0.000854058
0.000862821
0.000878246
0.000919245
0.00100846
0.00116728
0.00140722
0.00172235
0.00208937
0.00247739
0.00285973
0.00322083
0.00355669
0.00385403
0.00413081
0.00439086
0.0046485
0.00489104
0.00508868
0.00524765
0.00536148
0.00542467
0.000701721
0.0007907
0.000816814
0.000824545
0.000831109
0.000854446
0.000915135
0.00103378
0.00122421
0.00148592
0.00180172
0.00214459
0.0024892
0.00281991
0.00313101
0.00340859
0.00367565
0.00393316
0.00418825
0.00444851
0.00467379
0.00485959
0.00499652
0.00507154
0.000543428
0.000690561
0.000751972
0.000774553
0.000782713
0.000795534
0.000832449
0.000913202
0.00105337
0.00125775
0.00151619
0.00180711
0.00210738
0.00240132
0.00268125
0.00293337
0.00318021
0.00342534
0.00366446
0.00392115
0.00416937
0.0043784
0.00453991
0.00462956
0.000303347
0.000495143
0.00062406
0.000681249
0.000708006
0.00072473
0.000750088
0.000802817
0.000899299
0.00104823
0.00124636
0.00147951
0.00172904
0.00198008
0.00222561
0.00244816
0.00266567
0.00288698
0.00310907
0.00333444
0.0035811
0.00381289
0.00399671
0.00410484
8.16283e-07
3.61908e-06
1.17189e-05
2.65004e-05
4.7704e-05
7.96757e-05
2.8868e-05
6.35133e-05
0.000116256
0.000170686
0.000225628
0.000263356
0.000164668
0.000144167
0.000241467
0.000333153
0.000413524
0.000455905
0.000180661
0.000207308
0.000347116
0.000470357
0.000570682
0.000626785
0.000192462
0.000251652
0.000431884
0.000581259
0.00069827
0.000770543
4.73986e-05
0.000278994
0.000500109
0.00067161
0.000803172
0.000890325
4.83726e-05
0.000305128
0.000554889
0.000744759
0.000888777
0.000989653
5.02696e-05
0.000330715
0.000599509
0.000803482
0.000958433
0.00107162
5.15341e-05
0.000354224
0.000635569
0.000849621
0.00101435
0.00113857
5.2475e-05
0.000374597
0.000663337
0.000884464
0.0010579
0.00119204
5.31378e-05
0.000390687
0.000682649
0.000908646
0.0010898
0.00123301
5.35585e-05
0.000401332
0.000693136
0.000922331
0.00111029
0.00126199
5.3716e-05
0.000405933
0.000694459
0.000925183
0.00111916
0.00127907
5.35978e-05
0.000404517
0.000686015
0.000916621
0.00111583
0.00128386
5.31682e-05
0.000396995
0.000667592
0.000895843
0.00109927
0.00127548
5.24191e-05
0.000383003
0.000638402
0.000861829
0.00106808
0.00125243
5.13419e-05
0.000362045
0.000597804
0.000813383
0.00102038
0.0012126
4.99274e-05
0.000333467
0.000545189
0.000749216
0.000953865
0.00115316
4.8128e-05
0.000296471
0.000480086
0.00066808
0.000865925
0.00107069
4.68964e-05
0.000250004
0.000402278
0.000568986
0.000753877
0.000961227
0.000187475
0.000193488
0.000311983
0.000451579
0.00061551
0.000820243
0.000170097
0.00012643
0.000210255
0.000316948
0.00045143
0.000642166
2.94496e-05
5.38183e-05
0.000101228
0.000170458
0.000267726
0.000425508
8.07365e-07
3.78902e-06
1.51805e-05
4.2208e-05
9.37068e-05
0.000194305
0.000212063
0.000379219
0.000498643
0.000582779
0.000617475
0.000640619
0.000662332
0.000695901
0.000755237
0.000852308
0.000991165
0.00116585
0.00136331
0.00156993
0.00177874
0.00197392
0.00215949
0.00235013
0.00254454
0.00274568
0.0029506
0.00317234
0.00337861
0.00351834
0.000262365
0.000345806
0.000412988
0.000488832
0.000532582
0.00055381
0.000573921
0.000599231
0.000639636
0.000699797
0.000786724
0.000901957
0.00104131
0.00119699
0.00136255
0.00153176
0.00168965
0.00184582
0.00200762
0.00217591
0.00235357
0.00253322
0.00271707
0.00289598
0.000428243
0.000427223
0.000451757
0.000477201
0.000510433
0.00052086
0.000523149
0.000534315
0.000553607
0.000582108
0.000627552
0.000691835
0.000774669
0.000873688
0.000985896
0.0011076
0.00123771
0.00137058
0.00150456
0.00164722
0.00179841
0.00195502
0.00211075
0.00227889
0.000621354
0.000584479
0.000579557
0.000596678
0.000607966
0.00061455
0.000610157
0.000599658
0.000590242
0.00059011
0.00060585
0.000629691
0.000663872
0.000710092
0.000768779
0.000839238
0.00092126
0.00101097
0.00110629
0.00121001
0.00132586
0.0014463
0.00157965
0.00172153
0.000793348
0.000770439
0.000762046
0.000769695
0.000788373
0.000802833
0.000806947
0.000809358
0.000806681
0.000803359
0.000799044
0.00079796
0.000800725
0.000808842
0.000822499
0.000840718
0.000865487
0.000897244
0.000936845
0.000985876
0.00104574
0.00111495
0.0011929
0.0013146
0.000939055
0.000945184
0.000950262
0.000966047
0.000989661
0.00101989
0.00104538
0.00107112
0.00108782
0.00110236
0.00112242
0.00113376
0.00114001
0.00114462
0.0011451
0.00114179
0.00113443
0.00112501
0.00111547
0.00110787
0.00110422
0.00110842
0.00111466
0.00116531
0.00106049
0.00109551
0.00112033
0.00115008
0.00118692
0.00122909
0.00127351
0.00131859
0.00136032
0.00140087
0.00143967
0.00146742
0.00148801
0.00151107
0.00152537
0.00152686
0.00152035
0.00150554
0.00148361
0.00145539
0.00142194
0.00138719
0.00134949
0.00134584
0.00116111
0.0012201
0.00126387
0.00130793
0.00135711
0.0014112
0.00146883
0.00152772
0.00158539
0.00164089
0.00169242
0.00173774
0.00177779
0.00180738
0.0018285
0.00184977
0.00185839
0.00185262
0.00183807
0.0018154
0.00178484
0.00174685
0.0017045
0.00168186
0.00124361
0.00132138
0.00138053
0.00143583
0.00149351
0.00155546
0.00162037
0.00168616
0.00175062
0.00181187
0.00186795
0.00191733
0.00195897
0.00199182
0.00201331
0.00202955
0.00204021
0.00203852
0.00203013
0.00201665
0.0020013
0.00198863
0.00197985
0.00198056
0.00131026
0.00140251
0.00147312
0.001536
0.00159868
0.00166339
0.00172974
0.00179616
0.00186078
0.00192183
0.0019777
0.00202721
0.00206941
0.00210392
0.00212943
0.00214901
0.00216243
0.00216676
0.00216463
0.00215704
0.00214538
0.00213225
0.00212234
0.00211923
0.00136265
0.00146635
0.00154492
0.00161219
0.00167563
0.00173834
0.00180066
0.00186162
0.00191985
0.00197402
0.00202298
0.00206623
0.0021029
0.00213332
0.0021582
0.00217802
0.00219472
0.00220766
0.00221655
0.00222187
0.00222447
0.00222527
0.00222386
0.00221647
0.00140205
0.00151536
0.00159983
0.00166867
0.00172976
0.00178678
0.00184073
0.00189129
0.00193772
0.00197944
0.00201608
0.00204578
0.00207048
0.00209133
0.00210791
0.00212047
0.00212755
0.00213037
0.00213059
0.00212998
0.00212984
0.00213023
0.00213146
0.00213715
0.00142911
0.00155138
0.0016406
0.00170967
0.00176667
0.00181574
0.00185842
0.00189489
0.00192575
0.00195016
0.0019654
0.00197253
0.0019694
0.00195645
0.00193962
0.00192452
0.00191671
0.00191814
0.00192319
0.00193659
0.00195803
0.00198486
0.00201132
0.00202682
0.00144411
0.0015756
0.00166961
0.00173864
0.00179116
0.00183156
0.00186166
0.00188184
0.00189052
0.00188758
0.00187267
0.00184726
0.00181529
0.00178346
0.00175454
0.00173005
0.00171203
0.00170799
0.00171524
0.0017305
0.00175328
0.00178411
0.00182335
0.00186666
0.00144689
0.00158786
0.00168724
0.00175713
0.00180577
0.00183777
0.00185491
0.0018578
0.00184764
0.00182548
0.00179284
0.00175316
0.00171054
0.00166797
0.00162833
0.00159293
0.0015613
0.00152944
0.00151141
0.00150725
0.0015091
0.00152042
0.00155223
0.0015879
0.00143621
0.00158814
0.0016936
0.00176494
0.00181082
0.00183606
0.00184289
0.00183268
0.00180725
0.00176889
0.00172116
0.00166872
0.00161613
0.00156655
0.0015212
0.00147928
0.00144194
0.00140274
0.00137502
0.00134873
0.00132922
0.00132123
0.0013504
0.00140984
0.00141038
0.00157445
0.00168643
0.00175965
0.00180362
0.00182381
0.00182335
0.00180485
0.00177142
0.00172693
0.00167606
0.00162353
0.00157273
0.00152552
0.00148193
0.00143879
0.00139035
0.00135551
0.00131244
0.00127645
0.00125201
0.0012449
0.001287
0.00141182
0.00136747
0.00154492
0.00166312
0.00173776
0.00178028
0.00179753
0.00179397
0.00177352
0.00174035
0.00169886
0.00165322
0.00160683
0.00156082
0.00151707
0.00146509
0.00140645
0.00136932
0.00132102
0.00127546
0.0012407
0.00122546
0.00123963
0.00131873
0.0014601
0.00130593
0.00149853
0.00162222
0.00169738
0.00173879
0.00175524
0.00175249
0.00173517
0.00170739
0.00167267
0.00163335
0.00159252
0.00154034
0.00148918
0.00143389
0.00138872
0.00133289
0.00128027
0.00123783
0.00121496
0.00122418
0.00128071
0.00142916
0.00160183
0.00122563
0.0014366
0.00156525
0.0016402
0.00168096
0.00169831
0.0016986
0.00168605
0.00166393
0.00163448
0.00159635
0.00154067
0.00149389
0.00145134
0.00139759
0.00133697
0.00128003
0.00123446
0.00121039
0.00122045
0.00128045
0.00141113
0.00163822
0.00184278
0.00112898
0.00136388
0.00149769
0.00157209
0.00161265
0.0016315
0.00163464
0.00162493
0.00160452
0.00156307
0.00152777
0.00148924
0.00144652
0.00138551
0.00132332
0.00126686
0.00122445
0.00120687
0.00122638
0.00129638
0.0014344
0.00166014
0.00192231
0.00218088
0.00102203
0.00128871
0.00142812
0.0015016
0.00154177
0.00156121
0.00156508
0.00155179
0.00151481
0.00149892
0.00146756
0.00141521
0.00135708
0.00129836
0.00124706
0.00121333
0.00120846
0.00124313
0.00132624
0.00146902
0.00169125
0.00196509
0.00227226
0.00257068
0.000915668
0.00122145
0.00136564
0.00143664
0.00147498
0.00149255
0.00148566
0.00146399
0.001458
0.00142884
0.00137601
0.00132067
0.00126819
0.00122704
0.00120764
0.00122015
0.00127148
0.00136488
0.00150576
0.00171136
0.00199379
0.0023128
0.00267991
0.00298244
0.000827021
0.00117217
0.00131593
0.00138128
0.00141493
0.00141778
0.00141162
0.00140761
0.00137967
0.00133322
0.00128453
0.0012414
0.00121344
0.00121059
0.00124009
0.00130347
0.0013992
0.00153129
0.00171658
0.00198521
0.00231769
0.00270263
0.00311556
0.00341995
8.06702e-07
4.06415e-06
1.92749e-05
5.6788e-05
0.000119271
0.000201934
2.90087e-05
4.63543e-05
9.9779e-05
0.000187243
0.000290686
0.000362512
0.000169642
0.000111409
0.000202988
0.000328059
0.000467305
0.000624357
0.000186644
0.000172733
0.000294256
0.00044461
0.000605923
0.00077421
0.00020048
0.000226713
0.000369582
0.00053274
0.000696402
0.000849397
4.91553e-05
0.000271118
0.000429051
0.000594925
0.000748983
0.000878242
5.07161e-05
0.000305137
0.000473876
0.000635463
0.000774085
0.000879695
5.19902e-05
0.000329774
0.00050571
0.000658814
0.000780262
0.00086553
5.28884e-05
0.000346106
0.000526336
0.000668938
0.000773914
0.000843202
5.34312e-05
0.000355136
0.000537624
0.000669072
0.000759501
0.000816987
5.36318e-05
0.000358056
0.000540791
0.000661704
0.000739923
0.000789626
5.35602e-05
0.000354806
0.000537209
0.000648677
0.000717081
0.00076239
5.31659e-05
0.000345822
0.000527841
0.000631289
0.000692045
0.000735748
5.25932e-05
0.000330512
0.000513358
0.000610383
0.000665242
0.000709657
5.18101e-05
0.000310452
0.000493921
0.000586161
0.000636963
0.000683893
5.07877e-05
0.000287312
0.000469873
0.000558363
0.000606872
0.000658133
4.94863e-05
0.000263145
0.000441835
0.000526376
0.000573853
0.000631227
4.77925e-05
0.000241549
0.000410606
0.00048927
0.000536563
0.000602307
0.000197864
0.000232291
0.000375911
0.000445811
0.000493555
0.000569368
0.000190027
0.000214375
0.000334539
0.000395459
0.000443
0.00052936
0.000178215
0.00018317
0.000279108
0.000333538
0.000382444
0.000478345
0.00016244
0.000132758
0.000202053
0.000249876
0.000304333
0.00041048
2.85567e-05
6.03731e-05
0.000100872
0.000134738
0.000192082
0.000307084
8.42853e-07
3.33823e-06
9.1473e-06
1.83061e-05
4.00105e-05
0.000172398
0.000802556
0.00114819
0.00127804
0.00133441
0.00135167
0.00135817
0.00135591
0.00133239
0.00129257
0.00125245
0.00122086
0.00120746
0.00122002
0.00126131
0.00132854
0.00141947
0.00154012
0.00170842
0.00195176
0.00229427
0.00268871
0.00313649
0.00356384
0.00386862
0.00089989
0.00114605
0.00124607
0.00128557
0.00130295
0.00130449
0.00128793
0.00125613
0.00122564
0.00120596
0.00120562
0.00122911
0.00127538
0.00134078
0.00142555
0.00153764
0.00169352
0.00191742
0.0022359
0.0026459
0.00309849
0.00358973
0.00401348
0.00430945
0.000972568
0.00114051
0.00121354
0.00124388
0.00125273
0.00124476
0.00122219
0.0012018
0.00119311
0.00120286
0.00123261
0.00127983
0.00134255
0.00142355
0.0015308
0.00167755
0.00188298
0.00217118
0.00256259
0.00302412
0.00352359
0.00402713
0.00443652
0.00471715
0.00100513
0.00112445
0.00117421
0.00119907
0.00119852
0.00118813
0.00117742
0.00117834
0.00119574
0.00122943
0.00127717
0.00133882
0.00141813
0.00152196
0.00166035
0.00184799
0.00210526
0.00245416
0.00290576
0.00340304
0.00392828
0.00442226
0.0048213
0.00506962
0.00100894
0.00109614
0.0011414
0.00114578
0.00114878
0.00114898
0.00115892
0.00118306
0.00122072
0.00127015
0.00133199
0.0014099
0.00150973
0.0016396
0.00181106
0.00204044
0.00234784
0.00274962
0.0032448
0.00376062
0.0042903
0.00476151
0.0051424
0.00535522
0.000993304
0.0010573
0.00108937
0.00109922
0.00111335
0.00113256
0.00116403
0.001207
0.00125954
0.00132213
0.00139812
0.0014931
0.00161461
0.00177243
0.00197917
0.00225054
0.00260259
0.00304334
0.00356081
0.00407701
0.00459036
0.00502872
0.00538201
0.00556292
0.000965802
0.00102125
0.00103978
0.00106699
0.00109623
0.00113691
0.0011873
0.00124456
0.00130859
0.00138261
0.00147252
0.0015861
0.00173239
0.0019214
0.00216426
0.00247303
0.00285767
0.00331816
0.00383513
0.00433489
0.00481331
0.00521597
0.00552807
0.00568587
0.000931253
0.000981794
0.00100191
0.00104789
0.00109905
0.00115911
0.00122344
0.00129063
0.00136364
0.00144889
0.0015548
0.00169054
0.00186496
0.00208619
0.00236182
0.00269865
0.00310001
0.0035596
0.00405489
0.00452418
0.00495356
0.00531231
0.00557959
0.00571595
0.000894045
0.000939682
0.000978403
0.0010446
0.00111797
0.00119323
0.00126691
0.00134116
0.00142284
0.00152136
0.00164672
0.00180795
0.00201211
0.00226393
0.00256609
0.00291931
0.00332063
0.00375951
0.00421365
0.00463937
0.00500748
0.00531137
0.00553467
0.00564928
0.000858683
0.000901529
0.000970672
0.00105896
0.00114935
0.00123446
0.00131398
0.0013945
0.00148647
0.00160141
0.00174964
0.0019387
0.00217248
0.00245118
0.0027719
0.00312923
0.00351485
0.0039158
0.00431241
0.00467911
0.00497829
0.0052143
0.00539038
0.00548077
0.000827415
0.000871916
0.000977285
0.00108567
0.0011882
0.00127924
0.00136313
0.00145081
0.00155569
0.0016904
0.00186434
0.00208224
0.00234381
0.00264425
0.00297522
0.00332585
0.0036835
0.00403392
0.00436088
0.00464686
0.00487581
0.00503164
0.0051405
0.00520125
0.00079982
0.000856581
0.000993062
0.0011189
0.00123028
0.00132544
0.0014139
0.00151071
0.0016316
0.00178921
0.00199071
0.00223699
0.0025232
0.00283981
0.00317379
0.0035099
0.00383209
0.00412489
0.00437469
0.00457053
0.00470474
0.00477364
0.00478197
0.00477105
0.000775491
0.000853074
0.00101632
0.00115695
0.00127472
0.00137311
0.00146701
0.0015753
0.00171515
0.00189802
0.00212769
0.00240065
0.00270762
0.00303516
0.00336682
0.00368437
0.00396928
0.00420465
0.00437717
0.00447819
0.00450242
0.00444208
0.00428618
0.00403694
0.00075329
0.000856868
0.00104439
0.00119845
0.001321
0.00142237
0.00152306
0.00164524
0.00180658
0.00201615
0.00227345
0.0025704
0.00289399
0.00322803
0.00355408
0.00385246
0.00410348
0.00428911
0.00439432
0.00440713
0.00431382
0.00408051
0.00361058
0.00283297
0.000732367
0.000866444
0.00107868
0.0012433
0.00136904
0.00147352
0.00158249
0.00172076
0.00190547
0.0021422
0.00242551
0.0027431
0.00307916
0.00341598
0.00373453
0.00401511
0.00423847
0.00438702
0.00444577
0.00440239
0.00424676
0.00396984
0.00355966
0.0030589
0.00071211
0.000881117
0.00111816
0.00129078
0.00141879
0.00152684
0.00164559
0.00180167
0.0020108
0.00227421
0.0025811
0.00291547
0.00325982
0.00359604
0.0039055
0.00416951
0.00437041
0.0044928
0.00452442
0.00445642
0.00428315
0.00400276
0.00362133
0.00320356
0.000692027
0.000901338
0.00116098
0.00134048
0.00147041
0.0015826
0.00171225
0.00188713
0.0021209
0.00240989
0.00273735
0.00308433
0.00343272
0.00376491
0.00406333
0.00431075
0.00449143
0.00459249
0.00460479
0.00452322
0.00434635
0.004077
0.0037261
0.00334639
0.000671851
0.000926744
0.0012068
0.00139278
0.0015243
0.00164096
0.00178201
0.00197564
0.00223359
0.00254703
0.0028917
0.00324694
0.00359508
0.00391975
0.00420477
0.00443451
0.0045951
0.00467602
0.00467095
0.00457798
0.00439912
0.00414061
0.00381554
0.00345877
0.000651733
0.000956796
0.00125649
0.00144833
0.00158091
0.00170167
0.0018534
0.00206599
0.00234744
0.00268398
0.00304215
0.00340119
0.00374491
0.00405862
0.00432771
0.00453801
0.00467737
0.00473726
0.00471383
0.00460788
0.00442421
0.00417153
0.00386381
0.00352417
0.000632156
0.000991288
0.00131207
0.00150795
0.00164042
0.00176329
0.0019261
0.00215836
0.00246266
0.00281975
0.00318722
0.00354561
0.00388097
0.00418056
0.00443123
0.00462015
0.00473661
0.00477395
0.00473062
0.00461013
0.00441996
0.00417084
0.00387699
0.00355454
0.000614065
0.00103153
0.00137187
0.00157248
0.00170168
0.00182614
0.00200078
0.00225323
0.00257925
0.00295324
0.00332574
0.00367929
0.00400275
0.00428536
0.00451529
0.00468076
0.0047723
0.00478501
0.00471976
0.00458292
0.00438477
0.00413808
0.00385783
0.00355798
0.000599172
0.00108851
0.00143678
0.00164223
0.00176539
0.00189095
0.00207825
0.00235105
0.00269704
0.00308392
0.00345703
0.00380181
0.00411026
0.00437341
0.00458045
0.00472034
0.0047847
0.00477046
0.00468123
0.0045267
0.00432036
0.00407732
0.0038138
0.00354385
0.000589742
0.00116694
0.00151606
0.00171874
0.00183236
0.00195861
0.00215936
0.00245215
0.00281567
0.00321147
0.0035806
0.0039131
0.00420393
0.00444555
0.00462775
0.00473997
0.00477487
0.00473154
0.00461691
0.0044447
0.00423203
0.00399629
0.00375453
0.00352048
0.000589367
0.00124155
0.00162052
0.00180368
0.00190304
0.00202976
0.00224466
0.00255655
0.00293463
0.0033351
0.00369597
0.00401332
0.00428453
0.00450298
0.00465864
0.00474126
0.0047447
0.00467076
0.00453059
0.00434262
0.00412759
0.00390443
0.00368945
0.0034941
1.24341e-06
1.36707e-05
4.80369e-05
0.00011508
0.000197499
5.99081e-05
3.75461e-05
0.000112753
0.000216138
0.000350671
0.000423736
0.000520794
5.27651e-05
0.000235752
0.000411539
0.000610211
0.000788864
0.000984777
5.88533e-05
0.000344494
0.00059033
0.000842272
0.00108592
0.00134223
6.35955e-05
0.000433803
0.000743483
0.00103717
0.00131714
0.00158936
6.73505e-05
0.000504766
0.000870221
0.00119566
0.00149439
0.00176122
7.034e-05
0.000559845
0.000972229
0.00132117
0.00162818
0.00188071
7.26671e-05
0.000601708
0.00105191
0.00141759
0.00172744
0.00196308
7.44074e-05
0.000632629
0.00111168
0.00148866
0.00179826
0.00201838
7.56265e-05
0.000654271
0.00115362
0.00153768
0.00184528
0.002053
7.63742e-05
0.00066774
0.00117934
0.00156715
0.00187187
0.00207108
7.66845e-05
0.00067368
0.00118992
0.00157831
0.00188033
0.00207504
7.65808e-05
0.000672359
0.00118595
0.00157206
0.00187237
0.00206567
7.60593e-05
0.000663728
0.00116755
0.00154876
0.00184859
0.00204384
7.51135e-05
0.000647455
0.00113444
0.00150792
0.00180821
0.00200865
7.37154e-05
0.000622922
0.00108587
0.00144866
0.00174868
0.00195766
7.18184e-05
0.00058919
0.00102072
0.00136921
0.00166732
0.00188841
6.93524e-05
0.00054497
0.000937429
0.00126715
0.0015605
0.00179507
6.62182e-05
0.000488575
0.000834099
0.00113929
0.00142348
0.00166925
6.22773e-05
0.000417941
0.000708749
0.000982473
0.00125035
0.00149707
5.73356e-05
0.00033087
0.000559765
0.000793784
0.00103337
0.00125851
5.11091e-05
0.000225657
0.000387585
0.000571957
0.000759811
0.000923278
3.47683e-05
0.000106012
0.000199597
0.000324535
0.000416172
0.000491501
1.03547e-06
1.08654e-05
3.93744e-05
9.99655e-05
0.000192859
5.81397e-05
0.000641343
0.00141489
0.00175395
0.00189528
0.00197629
0.00210423
0.00233407
0.00266379
0.00305322
0.00345349
0.00380272
0.00410288
0.00435311
0.00454718
0.00467493
0.00472635
0.00469689
0.00459192
0.00442775
0.00422788
0.00401603
0.00381096
0.00362608
0.00346869
0.00118974
0.00169125
0.00189554
0.00198469
0.0020486
0.00218066
0.00242663
0.00277273
0.0031704
0.00356516
0.00390065
0.00418246
0.00441095
0.00457989
0.00467874
0.00469785
0.00463492
0.00449988
0.00431502
0.00410868
0.00390599
0.00372332
0.0035693
0.00344629
0.00153942
0.00187163
0.00200192
0.00206019
0.00211622
0.00225737
0.00252078
0.00288167
0.00328462
0.0036701
0.00399019
0.00425304
0.00445954
0.00460299
0.0046724
0.00465879
0.00456287
0.00440023
0.00419945
0.00399268
0.0038043
0.00364625
0.00352145
0.00342768
0.00176718
0.00199724
0.00208162
0.00212332
0.00217913
0.00233347
0.00261497
0.00298887
0.00339459
0.00376809
0.00407192
0.00431575
0.00450042
0.00461847
0.00465844
0.00461246
0.00448522
0.00429871
0.00408759
0.00388603
0.00371536
0.00358187
0.00348298
0.00341289
0.00192317
0.00208693
0.00214266
0.00217671
0.00223782
0.0024081
0.00270758
0.00309269
0.00349915
0.00385905
0.00414647
0.00437176
0.00453518
0.00462834
0.00463943
0.0045623
0.00440644
0.00420069
0.0039848
0.00379278
0.00364113
0.00353025
0.00345316
0.00340156
0.0020315
0.00215071
0.00219011
0.00222234
0.00229251
0.00248028
0.00279701
0.00319163
0.0035974
0.00394303
0.00421456
0.00442222
0.00456536
0.00463457
0.00461795
0.00451169
0.00433074
0.00411067
0.00389481
0.00371493
0.00358172
0.00349029
0.00343066
0.00339307
0.00210655
0.00219579
0.0022275
0.0022616
0.00234314
0.0025489
0.00288179
0.00328443
0.00368862
0.00402024
0.00427697
0.00446832
0.00459251
0.00463913
0.00459656
0.00446386
0.00426181
0.00403204
0.00381972
0.00365281
0.0035361
0.00346048
0.00341417
0.00338684
0.00215768
0.00222715
0.00225714
0.00229527
0.00238933
0.00261278
0.00296054
0.00337004
0.00377223
0.00409092
0.00433447
0.00451121
0.0046181
0.00464393
0.0045777
0.00442177
0.00420268
0.00396708
0.0037603
0.0036057
0.00350274
0.0034392
0.00340247
0.00338251
0.00219111
0.00224816
0.0022804
0.00232365
0.00243045
0.00267073
0.0030321
0.00344766
0.0038474
0.00415524
0.0043878
0.00455197
0.00464357
0.00465079
0.00456364
0.00438798
0.00415567
0.00391708
0.00371644
0.00357241
0.00348014
0.00342441
0.0033948
0.00337976
0.00221097
0.00226096
0.00229797
0.00234662
0.00246566
0.00272155
0.00309552
0.00351707
0.00391244
0.00421336
0.00443763
0.00459157
0.00467014
0.00466128
0.00455629
0.00436449
0.00412228
0.0038824
0.00368719
0.00355117
0.00346562
0.00341638
0.00339085
0.00337831
0.00221989
0.00226684
0.00231
0.00236377
0.002494
0.00276407
0.00314965
0.00357717
0.00396942
0.00426609
0.00448469
0.00463085
0.00469884
0.0046767
0.00455716
0.00435272
0.00410335
0.0038629
0.0036716
0.00354051
0.00345882
0.00341268
0.00338907
0.00337768
0.00221946
0.00226642
0.00231636
0.00237452
0.00251451
0.00279718
0.00319357
0.00362747
0.00401894
0.00431401
0.00452954
0.00467042
0.00473045
0.0046981
0.00456729
0.00435345
0.00409908
0.00385803
0.00366848
0.00353967
0.00346038
0.00341418
0.00338994
0.00337786
0.00220997
0.00225984
0.00231664
0.00237818
0.00252624
0.00281995
0.00322655
0.0036676
0.00406112
0.00435736
0.00457256
0.00471065
0.00476458
0.0047236
0.0045842
0.00436534
0.00410852
0.00386679
0.00367728
0.00354781
0.00346717
0.0034198
0.00339283
0.00337862
0.00219243
0.00224694
0.00231032
0.00237405
0.00252834
0.00283156
0.00324797
0.00369719
0.00409585
0.00439568
0.00461171
0.00474811
0.00479894
0.00475478