/*--------------------------------*- C++ -*----------------------------------*\
  =========                 |
  \\      /  F ield         | OpenFOAM: The Open Source CFD Toolbox
   \\    /   O peration     | Website:  https://openfoam.org
    \\  /    A nd           | Version:  11
     \\/     M anipulation  |
\*---------------------------------------------------------------------------*/
FoamFile
{
    format      ascii;
    class       volVectorField;
    location    "1.12";
    object      U;
}
// * * * * * * * * * * * * * * * * * * * * * * * * * * * * * * * * * * * * * //

dimensions      [0 1 -1 0 0 0 0];

internalField   nonuniform List<vector> 
2880
(
(-0.0973287 -0.120017 -1.16575e-18)
(-0.197539 -0.231412 0)
(-0.271141 -0.336674 0)
(-0.242368 -0.327876 0)
(-0.312466 -0.45889 0)
(0.15476 -0.189441 0)
(-0.17107 -0.142235 2.33583e-18)
(-0.250895 -0.25239 -5.32759e-20)
(-0.280543 -0.338895 9.83146e-20)
(-0.238042 -0.33078 -8.07423e-20)
(-0.191674 -0.405504 0)
(0.280897 -0.197777 0)
(-0.210531 -0.125235 -1.09843e-18)
(-0.26243 -0.230575 0)
(-0.255421 -0.304915 0)
(-0.186235 -0.295033 -8.15321e-20)
(-0.0458432 -0.346021 -6.36243e-19)
(0.460939 -0.215358 -3.87697e-19)
(-0.242037 -0.0986087 1.07404e-18)
(-0.259192 -0.198538 2.52338e-20)
(-0.223848 -0.264184 6.23249e-19)
(-0.115427 -0.251035 7.17691e-19)
(0.107582 -0.284384 5.47091e-19)
(0.618055 -0.205151 9.81611e-19)
(-0.267144 -0.07195 -2.20345e-18)
(-0.250909 -0.16262 0)
(-0.186297 -0.219095 -6.95679e-19)
(-0.0379894 -0.203319 -1.19848e-21)
(0.247057 -0.224686 0)
(0.744027 -0.184659 -4.72214e-19)
(-0.287149 -0.0449518 2.19255e-18)
(-0.240634 -0.128837 8.54818e-19)
(-0.146329 -0.172202 -4.07905e-20)
(0.0380666 -0.154498 -6.15601e-19)
(0.364489 -0.168032 0)
(0.843431 -0.15898 0)
(-0.304408 -0.0219866 -1.12392e-18)
(-0.22915 -0.0968984 -7.77302e-19)
(-0.106808 -0.125907 6.62489e-19)
(0.107484 -0.106911 0)
(0.45897 -0.115737 0)
(0.917467 -0.12842 0)
(-0.31872 -0.00413396 -5.57512e-19)
(-0.217098 -0.066458 0)
(-0.070265 -0.0820101 -6.49683e-19)
(0.167799 -0.0621723 0)
(0.532518 -0.0682239 0)
(0.968615 -0.0949812 2.85979e-19)
(-0.329678 0.00938119 5.65275e-19)
(-0.205085 -0.0377235 3.89623e-19)
(-0.0380065 -0.0415304 -1.90859e-20)
(0.217544 -0.0210109 0)
(0.586921 -0.0252779 0)
(1.00004 -0.0605102 -1.95084e-19)
(-0.336914 0.0193946 0)
(-0.193765 -0.0108639 -3.32564e-21)
(-0.0109986 -0.00487397 0)
(0.256232 0.0163142 -2.65726e-19)
(0.624058 0.013292 0)
(1.01485 -0.0266089 0)
(-0.340219 0.0267568 1.77739e-20)
(-0.183706 0.0140493 -3.56726e-19)
(0.0102973 0.0278845 0)
(0.284158 0.0497462 2.62883e-19)
(0.6458 0.0474535 2.56478e-20)
(1.01558 0.00556395 -2.28281e-20)
(-0.339389 0.0323106 0)
(-0.175376 0.0369823 0)
(0.0257861 0.0569073 -3.51546e-20)
(0.301772 0.0793637 0)
(0.65382 0.0771471 -1.21391e-20)
(1.00423 0.0351478 -1.83126e-20)
(-0.334745 0.0368959 -6.67412e-20)
(-0.168925 0.0579928 -3.99494e-20)
(0.0355463 0.0825487 9.59599e-22)
(0.309658 0.10529 0)
(0.649639 0.10246 1.78863e-22)
(0.982479 0.0615242 1.95498e-20)
(-0.326632 0.0412705 7.51882e-20)
(-0.164417 0.0773541 3.48323e-20)
(0.0397052 0.105255 3.35522e-20)
(0.308484 0.127697 0)
(0.634632 0.123611 0)
(0.951686 0.0841532 0)
(-0.315195 0.0461954 0)
(-0.161974 0.0954443 3.01246e-19)
(0.0384196 0.125516 1.55832e-20)
(0.29891 0.146835 1.93944e-19)
(0.609986 0.140846 0)
(0.912871 0.102736 0)
(-0.300737 0.052328 5.03449e-19)
(-0.161617 0.112647 -3.01672e-19)
(0.031864 0.143848 2.11769e-19)
(0.281548 0.163021 -1.80199e-19)
(0.576633 0.154298 3.76398e-20)
(0.866692 0.117133 -3.38118e-20)
(-0.283592 0.0601765 -5.04651e-19)
(-0.163269 0.129324 1.82374e-20)
(0.0202191 0.160784 -5.19186e-19)
(0.25693 0.176641 -1.61994e-19)
(0.535329 0.16413 0)
(0.813471 0.127013 -2.70359e-20)
(-0.264083 0.0700542 1.52978e-20)
(-0.166739 0.145794 0)
(0.00367002 0.176893 -2.18798e-19)
(0.225451 0.188152 2.29343e-19)
(0.486627 0.170588 -3.78542e-20)
(0.753519 0.132206 0)
(-0.242455 0.0820441 3.04876e-20)
(-0.171647 0.162312 5.55047e-19)
(-0.0175637 0.192819 4.33563e-19)
(0.187396 0.19813 2.29084e-20)
(0.430725 0.17416 2.24981e-19)
(0.686938 0.132652 2.75117e-20)
(-0.218728 0.0959827 1.48541e-20)
(-0.177321 0.179042 -5.96915e-19)
(-0.0432211 0.209298 4.92243e-19)
(0.142921 0.20729 -4.44398e-20)
(0.367441 0.175427 -2.56869e-19)
(0.613289 0.128173 0)
(-0.192638 0.11152 0)
(-0.182857 0.195864 6.05844e-19)
(-0.073099 0.227176 -4.57119e-19)
(0.0920487 0.216345 -3.15772e-19)
(0.295966 0.17535 2.23336e-19)
(0.531587 0.118882 -1.63026e-19)
(-0.164459 0.127318 -1.47081e-20)
(-0.187373 0.211732 -6.8787e-19)
(-0.107148 0.247372 2.98256e-20)
(0.0348048 0.226167 3.30097e-19)
(0.215342 0.17587 -2.308e-19)
(0.441535 0.105204 2.66214e-20)
(-0.130671 0.13215 9.44616e-19)
(-0.190136 0.228009 -6.65959e-19)
(-0.144686 0.270368 0)
(-0.027612 0.238113 0)
(0.125751 0.178639 -4.44932e-20)
(0.340567 0.082337 7.45418e-20)
(-0.0631337 0.105346 1.19228e-21)
(-0.164394 0.244732 7.33594e-19)
(-0.16177 0.297817 5.53654e-19)
(-0.0735359 0.263789 -1.1253e-19)
(0.0533695 0.198485 2.41466e-19)
(0.242331 0.0619129 1.53573e-19)
(0.75603 -0.928615 -4.16898e-21)
(1.02298 -0.752602 1.88001e-22)
(1.05447 -0.6528 0)
(1.07893 -0.534153 0)
(1.08126 -0.446122 9.15552e-20)
(1.08043 -0.378758 -8.27554e-20)
(1.08023 -0.328555 0)
(1.08103 -0.289857 0)
(1.08199 -0.258703 1.3173e-19)
(1.08245 -0.232466 1.20543e-19)
(1.08208 -0.209506 0)
(1.08077 -0.188898 2.01102e-19)
(1.07851 -0.17004 9.16569e-20)
(1.0753 -0.152499 8.74384e-20)
(1.07117 -0.135951 -2.57349e-19)
(1.06611 -0.120154 8.63808e-20)
(1.06016 -0.104945 -8.33683e-20)
(1.05337 -0.0902377 8.08665e-20)
(1.04581 -0.075993 0)
(1.03765 -0.0621229 3.68442e-19)
(1.02907 -0.0485123 -3.63108e-19)
(1.01945 -0.0357765 2.86972e-19)
(1.00648 -0.0263451 -5.56585e-19)
(0.993133 -0.0205691 4.80505e-19)
(0.975744 -0.788363 -3.75147e-20)
(1.15742 -0.716512 3.05645e-20)
(1.15268 -0.63083 0)
(1.1511 -0.52281 1.18572e-19)
(1.13667 -0.439431 0)
(1.1247 -0.374387 0)
(1.11691 -0.325579 0)
(1.1123 -0.287843 -1.24191e-19)
(1.10919 -0.257425 2.21206e-19)
(1.10645 -0.231788 0)
(1.10342 -0.209338 0)
(1.09984 -0.189166 -9.67504e-20)
(1.09557 -0.170682 -9.15691e-20)
(1.09056 -0.153464 -2.55754e-19)
(1.08476 -0.137198 4.07161e-19)
(1.07814 -0.12165 -7.53479e-20)
(1.07069 -0.106656 0)
(1.06245 -0.0921268 0)
(1.05345 -0.0780124 0)
(1.04386 -0.064202 2.06159e-19)
(1.03384 -0.050549 -2.05458e-19)
(1.02278 -0.0377389 0)
(1.00826 -0.0286546 2.64038e-19)
(0.993573 -0.0238087 -2.46643e-19)
(1.10052 -0.650044 0)
(1.25354 -0.655536 0)
(1.23599 -0.590378 1.89848e-20)
(1.21601 -0.499359 -1.36347e-19)
(1.18799 -0.42432 -1.04174e-19)
(1.16635 -0.363903 0)
(1.15177 -0.317882 1.1867e-19)
(1.14222 -0.282006 -2.17994e-19)
(1.13536 -0.252943 -7.2143e-21)
(1.12964 -0.228368 0)
(1.12415 -0.206792 -8.56562e-20)
(1.11844 -0.187361 0)
(1.1123 -0.169513 0)
(1.1056 -0.152852 0)
(1.09822 -0.137082 -2.22433e-19)
(1.09012 -0.121982 -4.82116e-22)
(1.08127 -0.107395 1.40562e-19)
(1.07164 -0.0932298 0)
(1.06128 -0.0794286 -6.44737e-20)
(1.0503 -0.0658611 0)
(1.03887 -0.0523477 -6.53055e-20)
(1.0264 -0.0396305 -3.14083e-19)
(1.01043 -0.0310318 2.44714e-19)
(0.994392 -0.0272014 0)
(1.18639 -0.538526 0)
(1.32269 -0.584075 -1.37803e-19)
(1.30294 -0.54075 0)
(1.27129 -0.467525 -4.82401e-20)
(1.23353 -0.40264 5.46306e-20)
(1.20423 -0.348398 -4.36052e-20)
(1.18399 -0.30619 3.95577e-20)
(1.17017 -0.272863 4.62357e-20)
(1.16001 -0.245646 8.46722e-20)
(1.15164 -0.222504 0)
(1.14393 -0.202102 -7.35919e-20)
(1.13631 -0.183664 7.28817e-20)
(1.12847 -0.166675 7.39854e-20)
(1.12021 -0.150772 0)
(1.1114 -0.135686 1.38454e-19)
(1.10194 -0.121211 6.45072e-20)
(1.09177 -0.107202 0)
(1.08087 -0.0935683 0)
(1.06923 -0.0802496 -5.9732e-20)
(1.05695 -0.0670986 1.20804e-19)
(1.04418 -0.0539038 -2.3655e-19)
(1.03035 -0.0414483 2.91251e-19)
(1.01302 -0.0334568 -2.33303e-19)
(0.995622 -0.0307243 2.2045e-19)
(1.24799 -0.44726 -4.03796e-19)
(1.37265 -0.510605 1.38325e-19)
(1.35535 -0.486865 -4.88472e-20)
(1.3167 -0.430604 6.81116e-20)
(1.27263 -0.376275 0)
(1.23774 -0.329066 4.66262e-20)
(1.21306 -0.291308 -5.26991e-20)
(1.19575 -0.261003 0)
(1.1828 -0.235984 -8.50263e-20)
(1.17215 -0.214549 -7.74719e-20)
(1.16251 -0.195548 1.49479e-19)
(1.15322 -0.178299 -1.40933e-19)
(1.14388 -0.162346 0)
(1.13425 -0.147365 0)
(1.12416 -0.133117 -6.6325e-20)
(1.11348 -0.119416 -6.43455e-20)
(1.10213 -0.106131 -1.20743e-19)
(1.09007 -0.0931761 1.17096e-19)
(1.07727 -0.0804895 -5.52586e-20)
(1.0638 -0.0679127 0)
(1.04976 -0.055207 0)
(1.03465 -0.0431837 0)
(1.01609 -0.0359107 0)
(0.997266 -0.0343538 0)
(1.28944 -0.368807 8.48095e-19)
(1.40725 -0.438951 -3.32451e-20)
(1.39465 -0.431798 1.23228e-19)
(1.3529 -0.390922 -2.16099e-20)
(1.3052 -0.34692 3.29433e-20)
(1.26666 -0.306999 -5.7883e-20)
(1.23873 -0.274034 3.02191e-20)
(1.2187 -0.247032 3.60643e-20)
(1.2035 -0.224432 -3.28871e-20)
(1.19097 -0.204882 0)
(1.17973 -0.187437 -6.13879e-20)
(1.16902 -0.171515 6.69329e-20)
(1.15841 -0.156726 -6.21468e-20)
(1.14759 -0.14279 5.90418e-20)
(1.13639 -0.1295 1.1707e-19)
(1.12465 -0.116693 -1.12506e-19)
(1.11227 -0.104252 0)
(1.09919 -0.0921003 5.65786e-20)
(1.08536 -0.0801751 -5.05103e-20)
(1.07081 -0.0683112 0)
(1.05562 -0.0562477 -5.30553e-20)
(1.03931 -0.0448103 5.12121e-20)
(1.01965 -0.0383447 -2.04492e-19)
(0.999371 -0.0380645 1.48298e-19)
(1.31453 -0.299393 -4.05421e-19)
(1.42885 -0.371196 0)
(1.42226 -0.377602 -1.44766e-20)
(1.38061 -0.350172 -1.6505e-20)
(1.33155 -0.316025 0)
(1.291 -0.283203 0)
(1.26093 -0.255115 -2.89771e-20)
(1.23893 -0.231531 2.62589e-20)
(1.22202 -0.211457 0)
(1.20801 -0.193888 -2.71596e-20)
(1.19548 -0.178084 6.15975e-20)
(1.18362 -0.163572 0)
(1.17195 -0.150027 -8.23645e-20)
(1.16016 -0.137218 5.33059e-20)
(1.14802 -0.12497 -2.52217e-20)
(1.13538 -0.113146 0)
(1.12213 -0.101643 -2.42905e-20)
(1.10817 -0.0903944 5.18361e-20)
(1.09345 -0.07934 -9.76852e-20)
(1.07797 -0.068311 -2.31631e-20)
(1.06175 -0.0570276 6.72011e-20)
(1.04434 -0.0463085 4.81809e-20)
(1.0237 -0.0407034 9.55193e-20)
(1.00201 -0.0418248 -1.29301e-19)
(1.32638 -0.237416 -5.88127e-20)
(1.43956 -0.308982 0)
(1.43983 -0.325233 -4.69577e-20)
(1.40061 -0.309761 -2.09695e-20)
(1.35212 -0.284708 4.42074e-21)
(1.31095 -0.258573 1.39205e-20)
(1.27974 -0.235231 8.43476e-22)
(1.25645 -0.215044 2.50477e-20)
(1.23833 -0.197506 -2.28401e-20)
(1.22322 -0.181937 2.72919e-20)
(1.20971 -0.167799 0)
(1.19697 -0.154725 2.35483e-20)
(1.18447 -0.142459 2.62479e-20)
(1.1719 -0.130817 0)
(1.15901 -0.119659 2.52189e-20)
(1.14564 -0.108872 2.51209e-20)
(1.13167 -0.0983726 -2.16591e-20)
(1.11699 -0.0881026 9.16796e-20)
(1.10153 -0.0780081 2.23045e-20)
(1.08524 -0.0679203 -4.35886e-20)
(1.06813 -0.0575428 -2.23791e-20)
(1.04976 -0.04766 0)
(1.02829 -0.0429345 0)
(1.00523 -0.0456019 7.85414e-20)
(1.32731 -0.181903 0)
(1.44153 -0.252526 1.10816e-19)
(1.44875 -0.276091 -5.98345e-20)
(1.41377 -0.270744 2.10511e-20)
(1.36746 -0.253843 0)
(1.32682 -0.233854 0)
(1.29531 -0.214981 -1.71425e-20)
(1.27137 -0.198061 4.35581e-21)
(1.2525 -0.182988 -4.01656e-20)
(1.23666 -0.169378 3.96076e-20)
(1.22246 -0.156877 0)
(1.20908 -0.145221 -2.99686e-21)
(1.19598 -0.134223 0)
(1.18282 -0.123745 4.46135e-20)
(1.16936 -0.113683 -8.65238e-20)
(1.15542 -0.103952 6.46648e-20)
(1.14088 -0.0944855 2.02054e-20)
(1.12562 -0.0852404 0)
(1.10955 -0.0761713 -2.14513e-20)
(1.09261 -0.0671164 -2.10599e-20)
(1.07475 -0.0577662 0)
(1.05558 -0.0488307 0)
(1.03345 -0.0449569 0)
(1.00901 -0.0493496 1.97133e-20)
(1.31922 -0.132351 9.23934e-20)
(1.43594 -0.201709 -1.34277e-19)
(1.4504 -0.230869 8.05062e-20)
(1.42097 -0.233851 1.65935e-20)
(1.37816 -0.224089 6.81542e-21)
(1.33901 -0.20965 0)
(1.30792 -0.194884 2.62872e-21)
(1.28387 -0.181019 1.83418e-20)
(1.26465 -0.168279 -7.15807e-21)
(1.24841 -0.156534 -2.78262e-20)
(1.23381 -0.145592 -1.97153e-20)
(1.22002 -0.135289 -1.12884e-20)
(1.20653 -0.125504 0)
(1.19297 -0.116144 0)
(1.1791 -0.10714 3.97551e-20)
(1.16475 -0.0984341 -3.80625e-20)
(1.14977 -0.0899845 -2.01877e-20)
(1.13405 -0.0817647 -9.14186e-21)
(1.1175 -0.0737471 0)
(1.10003 -0.0657933 0)
(1.08157 -0.0575945 0)
(1.06179 -0.0497236 0)
(1.03921 -0.0465768 0)
(1.01334 -0.0529474 2.52578e-20)
(1.30324 -0.0883309 -2.00488e-19)
(1.42375 -0.156288 5.24393e-21)
(1.44598 -0.189935 1.03609e-20)
(1.42307 -0.199572 -3.53461e-20)
(1.38479 -0.195948 -6.84874e-21)
(1.34794 -0.186445 -2.92358e-21)
(1.31785 -0.175381 2.1957e-21)
(1.29414 -0.164301 -3.77813e-21)
(1.27496 -0.15371 -5.47027e-21)
(1.25861 -0.143695 2.16424e-22)
(1.24386 -0.134198 1.45968e-20)
(1.2299 -0.125145 1.3114e-21)
(1.21621 -0.116477 7.97342e-21)
(1.20243 -0.108143 0)
(1.18832 -0.100107 -8.26532e-21)
(1.17369 -0.0923396 0)
(1.15841 -0.084821 0)
(1.14235 -0.077548 9.12841e-21)
(1.1254 -0.0705226 -8.35659e-21)
(1.10747 -0.0636636 -8.31556e-21)
(1.08849 -0.0567138 0)
(1.06823 -0.0500244 -8.22015e-21)
(1.04547 -0.0472118 0)
(1.0181 -0.0559066 0)
(1.28003 -0.0495349 9.4821e-20)
(1.40584 -0.1162 7.74214e-21)
(1.43628 -0.153335 5.18962e-21)
(1.4209 -0.168151 1.87546e-20)
(1.38786 -0.169792 -2.78959e-21)
(1.35401 -0.164594 2.44925e-21)
(1.32543 -0.156802 1.61956e-21)
(1.30245 -0.148226 1.82222e-21)
(1.28363 -0.139585 8.29299e-21)
(1.26746 -0.131129 1.9571e-21)
(1.25279 -0.122929 -1.38357e-20)
(1.23886 -0.114994 1.26659e-20)
(1.22516 -0.107314 -2.40702e-22)
(1.21135 -0.0998781 -5.54272e-21)
(1.19717 -0.0926738 8.28338e-21)
(1.18243 -0.0856935 -1.87276e-21)
(1.16698 -0.0789361 -1.89718e-21)
(1.1507 -0.0724151 1.91489e-21)
(1.13344 -0.0661603 1.64459e-20)
(1.11509 -0.0601677 3.9355e-22)
(1.09549 -0.0543131 0)
(1.07446 -0.0487339 8.16675e-21)
(1.05155 -0.0453782 0)
(1.02519 -0.056553 0)
(1.25048 -0.0159961 -1.99068e-20)
(1.38254 -0.081164 -2.69343e-20)
(1.42211 -0.120721 1.12675e-22)
(1.41475 -0.139917 -1.01784e-22)
(1.38787 -0.145859 2.80288e-21)
(1.35759 -0.144357 0)
(1.33098 -0.139437 0)
(1.30909 -0.133071 0)
(1.29091 -0.126147 -9.77838e-22)
(1.27514 -0.119067 3.41964e-22)
(1.26077 -0.112005 0)
(1.24707 -0.105039 -1.63748e-21)
(1.23356 -0.0982056 0)
(1.2199 -0.0915207 -1.79851e-21)
(1.20583 -0.0849923 0)
(1.19118 -0.0786248 1.87561e-21)
(1.17578 -0.0724249 1.8972e-21)
(1.15947 -0.0664101 -1.9117e-21)
(1.14211 -0.0606084 0)
(1.12348 -0.0550028 -1.78306e-21)
(1.10326 -0.0494779 -2.37021e-22)
(1.08106 -0.0444592 2.05193e-21)
(1.05681 -0.0427336 2.50904e-22)
(1.03149 -0.0498904 -2.125e-21)
(1.21488 0.0125153 1.14266e-20)
(1.35425 -0.0510039 2.07887e-20)
(1.40378 -0.0922411 3.40635e-20)
(1.40521 -0.114806 2.22847e-20)
(1.38518 -0.124225 0)
(1.35902 -0.125943 0)
(1.33482 -0.123509 -3.96846e-21)
(1.31432 -0.119048 0)
(1.29701 -0.113609 0)
(1.28187 -0.107715 9.56035e-22)
(1.26799 -0.101629 0)
(1.25471 -0.0954862 4.36743e-21)
(1.24157 -0.0893629 0)
(1.22824 -0.0833021 5.34682e-21)
(1.21449 -0.0773308 -6.83543e-22)
(1.20013 -0.0714706 6.0526e-21)
(1.18497 -0.0657477 0)
(1.16887 -0.060207 0)
(1.15162 -0.0549084 -2.0163e-20)
(1.13297 -0.04986 8.58781e-21)
(1.11252 -0.0450165 -7.45066e-21)
(1.08987 -0.0411757 1.17691e-20)
(1.06504 -0.04182 0)
(1.03844 -0.0482675 1.85192e-21)
(1.17339 0.0361262 1.63382e-20)
(1.3213 -0.0255436 -2.5436e-20)
(1.3816 -0.0677987 -2.432e-20)
(1.39268 -0.092783 -2.24168e-20)
(1.37986 -0.10512 -1.5081e-20)
(1.35855 -0.109489 0)
(1.33719 -0.109161 4.00153e-21)
(1.31839 -0.106316 0)
(1.30219 -0.102136 -1.29648e-21)
(1.28786 -0.0972454 -1.46332e-21)
(1.27464 -0.0919786 2.44696e-21)
(1.26194 -0.0865236 -4.40517e-21)
(1.24933 -0.0809908 0)
(1.23651 -0.0754486 5.12841e-21)
(1.22324 -0.0699455 -1.56436e-20)
(1.20932 -0.0645243 0)
(1.19457 -0.0592374 0)
(1.17879 -0.0541626 0)
(1.16174 -0.0493962 -1.85034e-20)
(1.1431 -0.0449804 3.04867e-20)
(1.12242 -0.0409287 -6.47973e-21)
(1.09932 -0.0382077 2.67774e-20)
(1.07389 -0.0403821 -5.2423e-20)
(1.04589 -0.0471465 3.20229e-20)
(1.12625 0.0548968 1.33738e-19)
(1.28378 -0.0046213 -9.3772e-20)
(1.35567 -0.0472518 -6.61192e-20)
(1.37711 -0.0739273 0)
(1.37225 -0.0885218 4.6985e-20)
(1.35637 -0.0950436 0)
(1.33831 -0.0964718 -4.5965e-21)
(1.32153 -0.09498 4.19398e-21)
(1.30666 -0.0918481 2.11624e-22)
(1.29331 -0.0877889 -9.22162e-22)
(1.28089 -0.0831991 -3.13794e-21)
(1.26891 -0.0783091 4.94592e-21)
(1.25697 -0.0732596 -6.32733e-21)
(1.24478 -0.0681434 7.40285e-21)
(1.23213 -0.0630299 -1.91894e-20)
(1.21879 -0.0579844 -2.0951e-21)
(1.20457 -0.0530851 -1.13128e-20)
(1.18922 -0.0484398 2.03077e-20)
(1.17247 -0.044176 1.02655e-20)
(1.15393 -0.0403589 0)
(1.1331 -0.0370604 0)
(1.10965 -0.0353045 0)
(1.08371 -0.0386159 0)
(1.05464 -0.0461938 -6.01734e-21)
(1.0736 0.068826 1.00171e-20)
(1.24161 0.0119 1.83455e-19)
(1.32588 -0.030482 1.60307e-19)
(1.35847 -0.05817 -2.65742e-20)
(1.3623 -0.0744221 -3.19996e-20)
(1.35254 -0.0826217 0)
(1.33833 -0.0854839 0)
(1.32392 -0.0850989 0)
(1.31059 -0.0828184 0)
(1.29837 -0.0794363 9.79042e-22)
(1.28689 -0.0753966 4.11525e-21)
(1.27575 -0.0709619 -8.2055e-21)
(1.26459 -0.0662984 1.89842e-20)
(1.25316 -0.0615197 -1.34228e-20)
(1.24124 -0.0567144 0)
(1.2286 -0.0519677 -7.56251e-21)
(1.21502 -0.0473817 1.36156e-21)
(1.20024 -0.0430886 0)
(1.18392 -0.0392296 -1.02927e-20)
(1.16564 -0.035912 -9.34431e-21)
(1.14487 -0.0332546 -9.55787e-21)
(1.12123 -0.0323079 0)
(1.09495 -0.0365908 1.111e-20)
(1.06503 -0.0452752 0)
(1.01544 0.0779129 -1.25182e-19)
(1.1945 0.0241878 -4.32635e-21)
(1.29196 -0.017332 -1.27834e-19)
(1.33654 -0.0454253 4.66508e-20)
(1.34989 -0.0627473 0)
(1.34698 -0.0721924 0)
(1.33724 -0.0762168 -1.36815e-20)
(1.32565 -0.0766981 2.07583e-20)
(1.31412 -0.0750827 -3.45961e-21)
(1.30319 -0.0722398 -1.88645e-21)
(1.29277 -0.0686407 0)
(1.28257 -0.0645649 9.79773e-21)
(1.2723 -0.0601977 -1.55118e-20)
(1.26173 -0.0556697 1.45216e-20)
(1.25064 -0.0510849 -1.64042e-20)
(1.23882 -0.0465459 7.63568e-21)
(1.22601 -0.0421746 1.31908e-21)
(1.21193 -0.0381115 4.14391e-20)
(1.19623 -0.0345246 -4.04312e-20)
(1.17842 -0.0315675 9.3795e-21)
(1.15793 -0.0293898 -1.97873e-20)
(1.13433 -0.029088 -4.5697e-21)
(1.10791 -0.0342117 2.8626e-20)
(1.07732 -0.0441686 9.35469e-21)
(0.951892 0.0821006 -1.95307e-19)
(1.14209 0.0323905 -1.46802e-19)
(1.25336 -0.00763069 6.9108e-20)
(1.31085 -0.0355785 -2.09904e-20)
(1.33468 -0.0534326 0)
(1.33937 -0.0637165 0)
(1.33501 -0.0685362 0)
(1.32674 -0.0697634 -2.60063e-20)
(1.31731 -0.0686444 2.30258e-20)
(1.30784 -0.0662191 -1.86363e-20)
(1.2986 -0.0629687 0)
(1.28945 -0.0591686 -3.28468e-21)
(1.28017 -0.0550163 -2.36577e-22)
(1.27056 -0.0506557 -6.00492e-21)
(1.26042 -0.0462021 1.62216e-20)
(1.24952 -0.0417744 -3.47848e-20)
(1.23763 -0.0374979 3.04126e-20)
(1.22442 -0.0335268 -3.68805e-20)
(1.20952 -0.030064 -8.57174e-21)
(1.19242 -0.0272923 2.96593e-20)
(1.17246 -0.0254091 -5.75836e-20)
(1.14919 -0.0255601 3.27141e-20)
(1.12287 -0.0313627 1.90007e-20)
(1.09185 -0.0426651 -3.62649e-20)
(0.883076 0.0811402 2.21521e-19)
(1.08405 0.0364243 -1.55593e-19)
(1.2094 -0.00127982 0)
(1.28065 -0.0284982 9.28664e-20)
(1.31606 -0.0464109 -3.24889e-20)
(1.32947 -0.057068 5.39921e-20)
(1.3307 -0.0624419 -2.20139e-20)
(1.32713 -0.0640571 -3.29048e-21)
(1.32018 -0.0634798 -1.71799e-20)
(1.31236 -0.0613737 1.00234e-20)
(1.30444 -0.0583916 0)
(1.29646 -0.0547958 -1.38947e-22)
(1.28827 -0.0507869 3.48307e-21)
(1.27971 -0.0465181 1.01511e-22)
(1.27062 -0.0421147 2.18802e-20)
(1.26077 -0.0376986 1.18898e-20)
(1.24993 -0.0333957 -1.86971e-20)
(1.23777 -0.0293811 2.48479e-20)
(1.22388 -0.0258792 -9.91532e-21)
(1.20774 -0.0231037 2.81884e-20)
(1.18862 -0.0213049 -1.18614e-20)
(1.166 -0.021674 1.43753e-20)
(1.14011 -0.0279304 1.8666e-20)
(1.10898 -0.0405644 0)
(0.809634 0.0742922 4.69323e-20)
(1.02054 0.0355303 1.1441e-19)
(1.15953 0.00150991 0)
(1.24504 -0.0241184 -9.32415e-20)
(1.29306 -0.0415456 7.35188e-20)
(1.31648 -0.0521992 0)
(1.32496 -0.0576678 -4.42447e-20)
(1.32528 -0.0595842 1.85826e-21)
(1.32243 -0.0594932 6.20813e-21)
(1.31669 -0.057654 1.79691e-20)
(1.31027 -0.054874 1.80127e-20)
(1.30358 -0.0514329 -5.81556e-22)
(1.29658 -0.0475148 0)
(1.28918 -0.0432801 -6.70141e-22)
(1.28125 -0.03886 -3.15395e-21)
(1.27259 -0.0343678 -2.48417e-21)
(1.26295 -0.0299335 0)
(1.25202 -0.0257449 0)
(1.23936 -0.0220407 0)
(1.22445 -0.0190647 0)
(1.20651 -0.017114 0)
(1.18492 -0.0174158 -1.45359e-20)
(1.15988 -0.0238122 0)
(1.12912 -0.0376622 0)
(0.733485 0.0590985 0)
(0.953099 0.0279344 0)
(1.10397 -0.000197588 -1.4146e-19)
(1.20319 -0.0227782 2.48041e-20)
(1.26444 -0.0388411 -7.38805e-20)
(1.29907 -0.0490029 0)
(1.3161 -0.0544023 4.45898e-20)
(1.3224 -0.0563441 -3.66572e-20)
(1.32267 -0.0563005 0)
(1.32043 -0.055066 0)
(1.31589 -0.0523222 -1.09864e-20)
(1.31071 -0.0490136 8.70411e-21)
(1.30505 -0.0451736 -1.00098e-20)
(1.29892 -0.0409499 4.91681e-21)
(1.29226 -0.0364723 3.21754e-21)
(1.28491 -0.0318432 -2.39101e-21)
(1.27664 -0.0271947 1.35275e-20)
(1.26713 -0.0227209 -2.83621e-21)
(1.25595 -0.0186629 -8.01829e-21)
(1.24255 -0.0152906 0)
(1.22614 -0.0129346 0)
(1.20604 -0.0128339 0)
(1.18237 -0.0189455 0)
(1.15263 -0.0337652 1.15373e-20)
(0.659261 0.0324549 0)
(0.885862 0.0129854 0)
(1.04516 -0.00734783 3.17486e-21)
(1.15562 -0.0250304 -1.37752e-19)
(1.22931 -0.0384663 -7.28247e-20)
(1.27572 -0.0473743 -3.01677e-20)
(1.3026 -0.0523123 0)
(1.31623 -0.0542543 1.76184e-21)
(1.32142 -0.054261 6.05405e-21)
(1.32237 -0.0528962 2.43539e-20)
(1.32077 -0.050672 1.69234e-20)
(1.3175 -0.0474442 -3.93766e-22)
(1.31343 -0.0437164 -2.60674e-20)
(1.30876 -0.0395255 4.968e-21)
(1.30353 -0.0349876 1.62547e-21)
(1.29764 -0.0301988 1.99256e-21)
(1.29089 -0.0252867 -7.98325e-21)
(1.28299 -0.0204451 1.0575e-20)
(1.27353 -0.0159083 -7.63499e-21)
(1.26194 -0.0119605 0)
(1.24744 -0.00894756 3.75756e-20)
(1.22933 -0.00806886 -3.6023e-20)
(1.20766 -0.0133457 -4.82782e-20)
(1.17982 -0.0287216 5.71869e-20)
(0.592363 -0.00412024 1.37399e-19)
(0.822071 -0.010194 0)
(0.986653 -0.0204537 5.96067e-20)
(1.10461 -0.0317218 9.81063e-20)
(1.1884 -0.0411759 1.56644e-19)
(1.24573 -0.0477605 2.92997e-20)
(1.28289 -0.0515034 4.92217e-20)
(1.30514 -0.0530115 -4.56253e-20)
(1.31698 -0.0530529 -3.44409e-20)
(1.32193 -0.0516655 -3.95814e-21)
(1.32385 -0.0495798 -3.80286e-20)
(1.32328 -0.0466588 -1.48899e-20)
(1.32125 -0.0431017 -7.43421e-21)
(1.31833 -0.0389977 1.90013e-20)
(1.31476 -0.0344375 -4.97536e-21)
(1.31051 -0.0295098 3.84061e-21)
(1.30546 -0.0243275 2.11242e-21)
(1.29937 -0.0190711 -2.04826e-21)
(1.29188 -0.0139759 -7.0137e-21)
(1.28242 -0.00931021 1.021e-20)
(1.27022 -0.00541065 -5.87289e-21)
(1.25462 -0.00338108 0)
(1.23565 -0.00715575 -4.09252e-20)
(1.21088 -0.0224551 4.74352e-20)
(0.0409169 0.0147535 -2.0446e-21)
(0.0681289 -0.00362279 -2.85659e-19)
(0.120143 -0.0397109 -2.00811e-19)
(0.154815 -0.0601794 0)
(0.206476 -0.0907982 0)
(0.211789 -0.089528 1.44884e-19)
(0.0484449 -0.00753691 7.27972e-19)
(0.0767934 -0.0273859 -1.63066e-20)
(0.122205 -0.0572295 2.60934e-20)
(0.151434 -0.0734448 -2.13895e-20)
(0.188649 -0.089876 0)
(0.207483 -0.0753084 0)
(0.0482475 -0.0176325 -3.05682e-19)
(0.0744071 -0.0380443 0)
(0.112896 -0.0626849 0)
(0.136999 -0.0742665 -2.1356e-20)
(0.164664 -0.081225 -1.71703e-19)
(0.184455 -0.0667021 -1.06481e-19)
(0.0464482 -0.0267383 2.82138e-19)
(0.0697971 -0.0453289 7.28366e-21)
(0.10089 -0.0647022 1.6234e-19)
(0.119897 -0.0715678 1.80701e-19)
(0.14036 -0.0718857 1.43481e-19)
(0.15876 -0.056513 2.69941e-19)
(0.0440059 -0.0361227 -5.71068e-19)
(0.0640588 -0.0503015 0)
(0.0877248 -0.0644106 -1.76501e-19)
(0.101769 -0.0667402 1.83198e-21)
(0.116242 -0.0621529 0)
(0.131219 -0.0457916 -1.30758e-19)
(0.0405006 -0.0439276 5.93585e-19)
(0.0571706 -0.0529478 2.30303e-19)
(0.0738021 -0.0621946 -1.04926e-20)
(0.0831212 -0.0604384 -1.49679e-19)
(0.0922513 -0.0520744 0)
(0.102824 -0.0347179 0)
(0.0308373 -0.0507709 -3.45736e-19)
(0.0483212 -0.0535811 -2.11697e-19)
(0.0591954 -0.0585723 1.6913e-19)
(0.0641814 -0.0532616 0)
(0.0684376 -0.0418491 0)
(0.0742383 -0.0235254 0)
(0.019006 -0.0540722 -1.8238e-19)
(0.037715 -0.0529107 0)
(0.0441263 -0.0541441 -1.64774e-19)
(0.045201 -0.0457075 0)
(0.0450078 -0.031699 0)
(0.0460977 -0.0124033 9.22122e-20)
(0.0101573 -0.0561078 1.84472e-19)
(0.0262882 -0.0518074 1.11404e-19)
(0.0289523 -0.0494763 -5.0003e-21)
(0.0264828 -0.0380962 0)
(0.0222566 -0.0218394 0)
(0.0189541 -0.0015812 -6.02868e-20)
(0.00226163 -0.0579448 0)
(0.0147653 -0.0505142 9.74212e-22)
(0.0140314 -0.0448474 0)
(0.00830905 -0.0307261 -7.07621e-20)
(0.00049574 -0.0124668 0)
(-0.00671457 0.00871082 0)
(-0.00466252 -0.0587904 5.79919e-21)
(0.00350823 -0.0491294 -1.05796e-19)
(-0.000369449 -0.0404416 0)
(-0.00904561 -0.0237948 7.01347e-20)
(-0.0199927 -0.00374526 7.99414e-21)
(-0.0305104 0.0182618 -7.20537e-21)
(-0.0107321 -0.058436 0)
(-0.00723715 -0.0477171 0)
(-0.0140419 -0.0363866 -1.00634e-20)
(-0.0253668 -0.0174298 0)
(-0.0389777 0.00419068 -3.95221e-21)
(-0.0521241 0.0268823 -7.19511e-21)
(-0.0161037 -0.0568769 -2.29977e-20)
(-0.0172987 -0.0462944 -1.28901e-20)
(-0.0268354 -0.0327566 -8.91853e-24)
(-0.0405018 -0.0117202 0)
(-0.0562932 0.0112307 6.12083e-23)
(-0.0713386 0.0344033 7.06771e-21)
(-0.0209155 -0.0541498 2.59305e-20)
(-0.0265566 -0.0448406 1.13208e-20)
(-0.0386591 -0.0295829 1.01096e-20)
(-0.0543566 -0.0067325 0)
(-0.0718388 0.0172838 0)
(-0.0880302 0.0406743 0)
(-0.0252792 -0.0502994 0)
(-0.0349303 -0.0433144 1.04175e-19)
(-0.0494751 -0.0268735 5.1641e-21)
(-0.0668912 -0.00251112 6.57696e-20)
(-0.0855801 0.0222779 0)
(-0.102165 0.0455638 0)
(-0.0292591 -0.0454815 1.84637e-19)
(-0.0423673 -0.0416442 -1.05436e-19)
(-0.0592961 -0.0246172 7.20248e-20)
(-0.0781144 0.000913042 -6.22519e-20)
(-0.0975424 0.0261583 1.55593e-20)
(-0.113794 0.0489609 -1.38799e-20)
(-0.0327854 -0.0401129 -1.85115e-19)
(-0.0488356 -0.0397255 6.75455e-21)
(-0.0681836 -0.0227863 -1.84122e-19)
(-0.088077 0.00351742 -6.29528e-20)
(-0.107802 0.0288896 0)
(-0.123043 0.0507831 -1.3721e-20)
(-0.0355773 -0.0345953 5.80328e-21)
(-0.0542981 -0.0373896 0)
(-0.0762468 -0.0213348 -8.56596e-20)
(-0.0968634 0.00528345 9.21031e-20)
(-0.11647 0.0304568 -1.58539e-20)
(-0.130095 0.0509907 0)
(-0.0389029 -0.0252077 1.09028e-20)
(-0.0585718 -0.0342726 2.18637e-19)
(-0.0836479 -0.0201907 1.67239e-19)
(-0.104584 0.00619065 9.32264e-21)
(-0.123668 0.0308671 1.13925e-19)
(-0.135163 0.0496026 1.42003e-20)
(-0.0394664 -0.0168561 4.6211e-21)
(-0.0616128 -0.0300048 -2.35225e-19)
(-0.0906158 -0.0192772 2.08917e-19)
(-0.111368 0.00619813 -1.93455e-20)
(-0.12951 0.0301995 -1.34529e-19)
(-0.138443 0.0466808 0)
(-0.0394435 -0.00906203 0)
(-0.0646695 -0.0247557 2.48617e-19)
(-0.0973802 -0.0186157 -1.96037e-19)
(-0.117305 0.00518959 -1.64155e-19)
(-0.133979 0.0284572 1.39252e-19)
(-0.140165 0.0425263 -1.17959e-19)
(-0.0398462 -0.00142784 -4.80058e-21)
(-0.0679544 -0.0187823 -2.8317e-19)
(-0.10388 -0.0182868 1.30132e-20)
(-0.122337 0.00301044 1.74218e-19)
(-0.136817 0.0255874 -1.47082e-19)
(-0.140518 0.0378903 3.69073e-22)
(-0.0391908 0.00676675 3.54795e-19)
(-0.0708326 -0.0111718 -2.80287e-19)
(-0.109209 -0.0177182 0)
(-0.125979 6.36483e-05 0)
(-0.137375 0.022491 -3.85552e-20)
(-0.139364 0.0343554 3.21624e-20)
(-0.0330229 0.023904 -8.3473e-19)
(-0.0652821 0.00805815 6.27153e-19)
(-0.111395 -0.00764155 2.95954e-20)
(-0.129691 0.00509477 1.68529e-19)
(-0.137191 0.0263044 0)
(-0.132347 0.0323927 1.73478e-19)
(0.455128 -0.0253299 -1.96401e-19)
(0.730955 -0.0272131 3.32442e-20)
(0.914913 -0.0306719 0)
(1.04495 -0.0379432 0)
(1.13966 -0.0446392 -3.91867e-20)
(1.20793 -0.0493373 3.59702e-20)
(1.25546 -0.0518109 5.30742e-20)
(1.28713 -0.0526318 -4.92404e-20)
(1.30691 -0.0522377 3.49324e-20)
(1.31788 -0.0508717 2.6695e-20)
(1.32331 -0.0487535 0)
(1.32633 -0.0461781 -2.57797e-21)
(1.32734 -0.043041 -1.31498e-20)
(1.32683 -0.0391551 -9.35535e-21)
(1.32531 -0.0346989 1.41227e-20)
(1.32302 -0.0297365 -3.89352e-21)
(1.31993 -0.0243509 5.73188e-22)
(1.31587 -0.0187014 -2.3177e-21)
(1.31055 -0.0130179 3.24433e-21)
(1.30352 -0.00756227 -2.2258e-20)
(1.29404 -0.00261246 6.76183e-22)
(1.28147 0.000905131 5.1517e-20)
(1.2659 -0.000652831 -6.14721e-20)
(1.24567 -0.0150399 3.78231e-20)
(0.343655 -0.0144237 -4.14485e-20)
(0.597968 -0.0160019 3.60766e-20)
(0.80038 -0.0225751 0)
(0.953145 -0.0317736 -1.05668e-19)
(1.06668 -0.0399152 0)
(1.15174 -0.0457235 0)
(1.21352 -0.0488091 0)
(1.2566 -0.0498731 4.65445e-20)
(1.28596 -0.0495263 -8.55895e-20)
(1.3052 -0.0484053 0)
(1.31686 -0.0469145 0)
(1.32375 -0.0449191 1.7714e-20)
(1.32818 -0.0422056 1.32601e-20)
(1.33126 -0.0389768 2.78655e-20)
(1.33303 -0.0350694 -3.602e-20)
(1.33354 -0.0304068 8.08354e-21)
(1.33301 -0.0250209 0)
(1.33141 -0.019124 0)
(1.32859 -0.0129408 0)
(1.32427 -0.00671276 8.8104e-21)
(1.31788 -0.000660114 -8.83615e-21)
(1.30887 0.00449725 0)
(1.29708 0.00571465 2.61268e-20)
(1.28366 -0.00662453 -2.55609e-20)
(0.270184 -0.0146604 0)
(0.454032 0.000391246 0)
(0.640233 0.0013972 -3.13116e-20)
(0.803084 -0.0059552 1.33869e-19)
(0.935501 -0.0153906 9.67797e-20)
(1.04171 -0.0238517 0)
(1.12677 -0.0308739 -6.23452e-20)
(1.1905 -0.0350102 1.09003e-19)
(1.23713 -0.0370334 -5.20675e-21)
(1.2702 -0.0383226 0)
(1.29285 -0.0391554 3.00905e-20)
(1.30834 -0.0391787 0)
(1.31907 -0.0382914 0)
(1.32647 -0.0363593 0)
(1.33195 -0.0333091 2.69821e-20)
(1.33651 -0.0293433 -4.41119e-21)
(1.33999 -0.024519 -1.07795e-20)
(1.34223 -0.0189155 0)
(1.343 -0.0127858 1.5033e-21)
(1.34211 -0.00608261 0)
(1.33931 0.000853373 -2.77475e-21)
(1.33435 0.00737673 -1.72576e-20)
(1.32575 0.0110612 1.39683e-20)
(1.32232 0.00320032 0)
(0.217231 -0.0144681 0)
(0.339523 0.011293 -1.63041e-19)
(0.482877 0.0242781 0)
(0.624962 0.0267809 1.21562e-19)
(0.75342 0.0238039 -4.78305e-20)
(0.865355 0.0178419 4.42704e-20)
(0.961975 0.0109462 -4.07585e-20)
(1.046 0.00372214 -3.15839e-20)
(1.11714 -0.00356494 -5.1815e-20)
(1.17428 -0.0102305 0)
(1.21735 -0.0153775 3.35504e-20)
(1.2503 -0.0194313 -3.19777e-20)
(1.2754 -0.022297 -2.20606e-20)
(1.29458 -0.0237826 0)
(1.30957 -0.0238136 -2.40417e-20)
(1.3213 -0.0222062 -1.01397e-20)
(1.3306 -0.0190041 0)
(1.338 -0.0143775 0)
(1.34381 -0.00847715 1.69125e-21)
(1.34815 -0.00203917 -3.08089e-21)
(1.35047 0.00490387 -4.25978e-21)
(1.35089 0.0117584 6.4531e-21)
(1.34803 0.0181848 -1.43147e-20)
(1.3537 0.0139685 1.37912e-20)