/*--------------------------------*- C++ -*----------------------------------*\
  =========                 |
  \\      /  F ield         | OpenFOAM: The Open Source CFD Toolbox
   \\    /   O peration     | Website:  https://openfoam.org
    \\  /    A nd           | Version:  11
     \\/     M anipulation  |
\*---------------------------------------------------------------------------*/
FoamFile
{
    format      ascii;
    class       volScalarField;
    location    "1.18";
    object      epsilon;
}
// * * * * * * * * * * * * * * * * * * * * * * * * * * * * * * * * * * * * * //

dimensions      [0 2 -3 0 0 0 0];

internalField   nonuniform List<scalar> 
2880
(
5.22757
3.94384
2.89063
2.08167
1.55589
2.33747
1.53469
2.21462
1.97876
1.50607
1.45562
2.70752
2.24871
2.25452
1.93062
1.49816
1.53107
2.77379
2.78141
2.47896
1.97581
1.58163
1.63968
2.83825
3.18582
2.59179
2.03331
1.6778
1.75007
2.88674
3.51776
2.64323
2.08413
1.77821
1.86202
2.92087
3.80526
2.66651
2.13855
1.88654
1.98236
2.95633
4.05937
2.6829
2.20519
2.00688
2.11703
3.00749
4.28461
2.70283
2.28857
2.14186
2.26951
3.08142
4.4835
2.73534
2.39075
2.29321
2.44355
3.18916
4.6581
2.78897
2.5124
2.46256
2.64299
3.33703
4.81085
2.8706
2.65343
2.6518
2.87116
3.52312
4.93947
2.98465
2.81332
2.86352
3.13014
3.75376
4.98729
3.11741
2.98954
3.0977
3.42276
4.04377
4.96927
3.26546
3.18133
3.35271
3.75072
4.40931
4.86048
3.42815
3.38935
3.6265
4.1116
4.84386
4.6587
3.60694
3.61616
3.9162
4.49796
5.33361
4.35903
3.80624
3.8679
4.2194
4.89757
5.84688
3.95006
4.03777
4.15588
4.53841
5.2991
6.34171
3.43491
4.32015
4.50746
4.88933
5.70655
6.78555
2.83361
4.6993
4.98949
5.32182
6.16981
7.20735
2.11616
5.32217
5.78197
5.97873
6.86285
7.87717
1.36078
6.6747
7.58788
7.3347
7.97104
10.5216
4.93137
10.6571
13.4369
11.753
9.33761
29.3788
17.6245
11.1565
5.75511
2.90742
1.38551
0.637125
0.296705
0.14551
0.0767194
0.0436426
0.0266792
0.0173032
0.0117805
0.00835211
0.00612823
0.00462921
0.00358231
0.00282511
0.00225677
0.00181154
0.00144406
0.0011248
0.000839819
0.000571146
13.3045
10.8838
6.18883
3.26257
1.60425
0.754066
0.354814
0.1742
0.0914241
0.0516619
0.0313888
0.0202791
0.0137864
0.00977947
0.00718977
0.00544702
0.00422971
0.00334764
0.0026831
0.0021592
0.0017223
0.00133594
0.000980434
0.000628063
10.5367
10.173
6.48423
3.55048
1.81181
0.877438
0.420039
0.20755
0.108842
0.061242
0.0370104
0.0238143
0.0161561
0.011458
0.00843444
0.006405
0.00498895
0.00396256
0.00318786
0.00257475
0.00205972
0.00159741
0.00115879
0.000699654
8.70065
9.17537
6.49118
3.75227
1.99884
1.00311
0.492109
0.246028
0.129387
0.0726718
0.0437335
0.0280303
0.0189693
0.013442
0.00990151
0.00753306
0.00588395
0.0046897
0.00378795
0.00307284
0.00246941
0.00192149
0.00138597
0.000790139
7.47366
8.31195
6.37566
3.88009
2.16204
1.12818
0.57007
0.290034
0.153594
0.0863148
0.0517933
0.0330784
0.0223259
0.0158011
0.0116424
0.00887205
0.00694955
0.00556054
0.00451283
0.0036814
0.00297776
0.00233337
0.0016854
0.000910982
6.64214
7.5838
6.19771
3.95199
2.30177
1.25069
0.65319
0.339772
0.181967
0.102591
0.0614744
0.0391436
0.0263475
0.0186188
0.0137187
0.010472
0.00823077
0.00661984
0.00541051
0.00445428
0.003646
0.0029021
0.00213517
0.00115633
6.06232
6.97393
5.94665
3.96592
2.4168
1.36901
0.740755
0.395431
0.215009
0.12197
0.0731124
0.0464456
0.0311752
0.0219871
0.0161935
0.0123798
0.00976779
0.00790926
0.00653352
0.00546771
0.00459322
0.00382769
0.00315218
0.00271537
5.64719
6.46516
5.66676
3.9436
2.50812
1.48096
0.831828
0.457089
0.253235
0.14498
0.0871008
0.0552435
0.0369701
0.0260027
0.0191219
0.0146247
0.0115751
0.00943903
0.00790106
0.0067704
0.00593
0.0053164
0.00493583
0.00487382
5.34261
6.04436
5.39401
3.90141
2.579
1.58531
0.925289
0.524672
0.297131
0.1722
0.103903
0.0658511
0.0439275
0.0307789
0.0225642
0.0172327
0.0136567
0.011197
0.00948247
0.00829542
0.00750789
0.00704972
0.00689618
0.00700696
5.12074
5.70303
5.14588
3.84678
2.63275
1.68183
1.01971
0.59783
0.347089
0.20425
0.124066
0.0786638
0.0523045
0.0364738
0.0266133
0.0202568
0.0160414
0.0131957
0.0112739
0.0100135
0.00925532
0.00889917
0.00887624
0.00906428
4.97085
5.43833
4.93504
3.78901
2.67389
1.77063
1.11389
0.676026
0.403392
0.241776
0.14824
0.0941866
0.06245
0.0433135
0.0314107
0.0237825
0.0187769
0.0154539
0.0132672
0.0118899
0.0111164
0.0108076
0.0108517
0.0110879
4.89983
5.25408
4.77293
3.7329
2.70665
1.85217
1.20712
0.758548
0.466145
0.285412
0.177177
0.113062
0.0748371
0.0516202
0.0371662
0.0279406
0.0219376
0.0180035
0.0154604
0.0138969
0.0130493
0.0127365
0.0128073
0.013076
4.92325
5.16639
4.66916
3.6928
2.73808
1.92865
1.29901
0.844528
0.535307
0.335764
0.211732
0.136097
0.0901008
0.0618486
0.0441868
0.0329286
0.0256424
0.0209065
0.0178749
0.0160289
0.0150335
0.0146615
0.0147273
0.0150125
5.02369
5.19355
4.66162
3.68918
2.77747
2.00431
1.39086
0.933762
0.610768
0.393383
0.252843
0.164277
0.10908
0.0746318
0.0529175
0.0390437
0.0300798
0.0242744
0.020569
0.018309
0.0170713
0.0165738
0.0166002
0.016882
5.24347
5.33131
4.73258
3.73684
2.83746
2.08582
1.48524
1.02719
0.692729
0.458829
0.301518
0.198776
0.132857
0.0908418
0.0640026
0.0467349
0.0355489
0.0282982
0.0236588
0.0208032
0.0191958
0.0184855
0.0184216
0.0186778
5.6106
5.65415
4.94699
3.86996
2.93844
2.18451
1.58746
1.12678
0.78207
0.532869
0.358876
0.240967
0.162804
0.111664
0.0783705
0.0566827
0.0425257
0.0332991
0.0273548
0.023645
0.0214878
0.0204405
0.020202
0.0204125
6.10735
6.17048
5.34704
4.13682
3.11581
2.32115
1.70825
1.23764
0.881102
0.616895
0.426316
0.292481
0.200636
0.138684
0.0973456
0.0699142
0.0517655
0.0398117
0.032025
0.027082
0.0241098
0.0225393
0.022002
0.0221223
6.69178
6.82283
5.91207
4.56897
3.4126
2.52893
1.86801
1.37083
0.995486
0.71398
0.506036
0.355419
0.248514
0.173995
0.122789
0.087964
0.0644608
0.0487217
0.0383054
0.0315593
0.0273687
0.0249892
0.0239547
0.0239016
7.27371
7.49051
6.54826
5.13782
3.8511
2.84501
2.09831
1.54744
1.13773
0.831256
0.602423
0.433072
0.309394
0.220408
0.157296
0.113095
0.0824748
0.0614891
0.0472945
0.0378788
0.0318362
0.0281944
0.0263484
0.0259297
7.71977
7.98618
7.08541
5.72113
4.38407
3.27604
2.42722
1.79637
1.32995
0.98353
0.724977
0.531833
0.388132
0.282072
0.204601
0.148647
0.108695
0.0805066
0.0608927
0.0474962
0.0385899
0.0329363
0.0297325
0.0286096
7.87918
8.09409
7.31445
6.12139
4.87061
3.75291
2.8403
2.13181
1.59526
1.19265
0.890871
0.664276
0.493972
0.36617
0.270678
0.199809
0.147665
0.109692
0.0823847
0.0630632
0.0497045
0.0407791
0.0352503
0.0327556
7.66479
7.6383
7.07412
6.1336
5.1128
4.12534
3.24678
2.51433
1.92816
1.47048
1.11795
0.84819
0.642313
0.485398
0.365992
0.27539
0.206961
0.155624
0.117462
0.0894362
0.0692019
0.0549613
0.0453951
0.0401356
7.03679
6.54032
6.25863
5.70975
4.98893
4.22606
3.5008
2.83753
2.26439
1.78732
1.40016
1.09115
0.847121
0.655694
0.506192
0.389835
0.299596
0.229919
0.176444
0.135745
0.105115
0.0824211
0.0660922
0.055099
5.71321
4.97138
4.9616
4.80192
4.48446
4.02018
3.4888
2.97616
2.496
2.06236
1.68538
1.366
1.10024
0.881881
0.704096
0.560317
0.444685
0.352142
0.278468
0.220162
0.174535
0.139065
0.112622
0.0901062
1.596
1.85569
2.30749
2.48789
2.65833
3.42115
0.76878
0.827337
1.02441
1.16025
1.33522
1.76152
0.212755
0.616729
0.772906
0.889874
1.03215
1.28323
0.238232
0.551737
0.687059
0.796794
0.918251
1.07868
0.258462
0.532949
0.654316
0.760385
0.868312
0.981027
0.272958
0.536707
0.64521
0.748917
0.849085
0.937406
0.280956
0.555118
0.648483
0.750625
0.846882
0.924524
0.281006
0.585805
0.658622
0.76069
0.857181
0.932685
1.20064
0.614473
0.672124
0.776373
0.87744
0.95849
1.22168
0.635724
0.687019
0.796089
0.906135
0.999814
1.24384
0.652225
0.702173
0.818806
0.942378
1.05595
1.2599
0.664403
0.716843
0.843724
0.985511
1.12686
1.26428
0.672221
0.730458
0.870053
1.0348
1.21276
1.25443
0.67547
0.7425
0.896877
1.08916
1.31363
1.23152
0.673844
0.752438
0.923077
1.14703
1.42896
1.20408
0.666932
0.759753
0.947345
1.20618
1.55731
1.19605
0.651891
0.764071
0.968358
1.26372
1.69581
1.18765
0.627149
0.766016
0.985251
1.31627
1.83933
0.276519
0.594671
0.767967
0.998607
1.36042
1.9797
0.265872
0.579568
0.774899
1.01234
1.39424
2.1048
0.248807
0.586908
0.797764
1.03731
1.42419
2.20871
0.225837
0.641149
0.866201
1.10651
1.47898
2.30142
0.839032
0.866517
1.09592
1.34785
1.67045
2.46503
1.89314
2.06605
2.427
2.69954
2.74186
3.13175
3.04174
3.27883
3.53066
3.66575
3.64931
3.49999
3.22849
2.88866
2.54016
2.2071
1.89464
1.6114
1.361
1.14352
0.957066
0.798748
0.665357
0.55362
0.460637
0.383598
0.32091
0.268549
0.230565
0.18943
1.84934
2.10172
2.39236
2.63789
2.78047
2.80331
2.74119
2.59667
2.40329
2.1891
1.97582
1.77044
1.57858
1.40345
1.24626
1.1071
0.985187
0.879183
0.787867
0.709105
0.643021
0.584095
0.541913
0.49006
1.34501
1.4794
1.6837
1.90038
2.07167
2.17398
2.2087
2.19093
2.12915
2.03671
1.93105
1.82192
1.71706
1.62026
1.53226
1.45437
1.38748
1.33122
1.28467
1.24628
1.21455
1.18711
1.16591
1.14368
1.11749
1.1811
1.30708
1.4565
1.59609
1.70412
1.77584
1.81504
1.82538
1.81864
1.79889
1.77268
1.74574
1.72243
1.7073
1.70027
1.69954
1.70352
1.71003
1.71638
1.71922
1.71772
1.71245
1.70596
1.01238
1.04614
1.12553
1.22295
1.31881
1.40331
1.47255
1.52647
1.56679
1.59818
1.62372
1.64665
1.66937
1.69309
1.71771
1.74335
1.76948
1.79442
1.81606
1.832
1.83949
1.83794
1.8298
1.81694
0.969664
0.995234
1.05114
1.11779
1.18257
1.23985
1.28946
1.33294
1.3729
1.41075
1.4477
1.48458
1.52154
1.55809
1.59371
1.62741
1.65777
1.68332
1.70257
1.71415
1.71618
1.70942
1.69261
1.6717
0.961175
0.988298
1.0354
1.088
1.13677
1.1777
1.21095
1.23952
1.26568
1.29095
1.31627
1.34199
1.36789
1.3933
1.4168
1.43675
1.45202
1.46185
1.46572
1.46387
1.45563
1.44025
1.41892
1.40006
0.978854
1.01599
1.06323
1.10982
1.14939
1.18044
1.20467
1.22411
1.24077
1.25603
1.27053
1.28422
1.29655
1.30675
1.31411
1.3186
1.32023
1.31925
1.31616
1.31169
1.30648
1.30106
1.29578
1.29092
1.02011
1.07534
1.13335
1.18516
1.22592
1.25525
1.27525
1.28856
1.29747
1.3036
1.30791
1.31083
1.3124
1.31257
1.31129
1.30845
1.30427
1.29924
1.29404
1.28947
1.28644
1.28618
1.28912
1.2929
1.08412
1.16686
1.24661
1.31452
1.36663
1.40354
1.42809
1.44344
1.45228
1.45655
1.45758
1.45618
1.45287
1.44802
1.44202
1.43527
1.42808
1.42077
1.41387
1.40779
1.40273
1.40009
1.40264
1.41213
1.17205
1.29399
1.40741
1.50228
1.57527
1.62828
1.6652
1.69002
1.70596
1.71549
1.72042
1.72191
1.72073
1.7178
1.71366
1.70832
1.70142
1.69257
1.68371
1.67124
1.65194
1.62493
1.5936
1.55837
1.28638
1.46189
1.62163
1.75305
1.85391
1.92825
1.9816
2.01932
2.04524
2.06269
2.07387
2.07959
2.08066
2.08056
2.07723
2.06872
2.05354
2.02919
1.98772
1.93013
1.8582
1.77278
1.6856
1.60443
1.43035
1.67688
1.89462
2.06805
2.19768
2.29145
2.35757
2.40356
2.43328
2.45348
2.46396
2.46321
2.45241
2.42655
2.38625
2.33317
2.26814
2.19088
2.10602
2.0122
1.90927
1.79463
1.6829
1.54204
1.60791
1.94586
2.22892
2.44082
2.58894
2.68858
2.75236
2.78992
2.80237
2.78543
2.74958
2.69686
2.63183
2.56032
2.4821
2.39477
2.29701
2.1883
2.06641
1.93073
1.78489
1.62243
1.47456
1.26478
1.824
2.27573
2.6211
2.85198
2.99146
3.06781
3.08609
3.04992
2.98807
2.91145
2.82882
2.73611
2.63259
2.51613
2.38611
2.24336
2.0885
1.92243
1.74635
1.56213
1.37537
1.18252
1.01777
0.801105
2.08483
2.67232
3.05718
3.2641
3.34672
3.31203
3.22519
3.12017
3.00178
2.86651
2.71387
2.54791
2.37118
2.18562
1.99293
1.79412
1.59136
1.38602
1.18345
0.989486
0.804865
0.641719
0.506347
0.384494
2.39886
3.13737
3.50716
3.61872
3.53172
3.38097
3.20682
3.00513
2.78588
2.5559
2.32037
2.08341
1.84824
1.61715
1.39163
1.17368
0.967608
0.775784
0.610286
0.474659
0.374325
0.299599
0.243662
0.205277
2.77829
3.66233
3.91842
3.80488
3.55796
3.26705
2.95635
2.64121
2.33022
2.02951
1.74393
1.47683
1.2298
1.00436
0.80097
0.625008
0.483504
0.379941
0.302128
0.243207
0.19867
0.165789
0.141886
0.130679
3.24469
4.21355
4.20906
3.84054
3.37744
2.93045
2.50952
2.11987
1.76512
1.44805
1.17
0.929612
0.72627
0.559591
0.431125
0.337632
0.267634
0.214812
0.174844
0.144707
0.122642
0.106999
0.0963586
0.0948021
3.84139
4.7204
4.33603
3.64785
3.01283
2.4647
1.99349
1.59134
1.25346
0.975384
0.750515
0.573303
0.43807
0.337887
0.265216
0.211087
0.170241
0.139185
0.115512
0.0976171
0.0844344
0.0751239
0.0697042
0.0703533
4.66141
5.14857
4.32992
3.32232
2.57528
1.99474
1.53389
1.16921
0.885164
0.667565
0.504046
0.383507
0.295202
0.230077
0.180858
0.143322
0.114604
0.0926469
0.0760438
0.0639145
0.0556449
0.0507011
0.0492196
0.0510983
5.82238
5.5602
4.09066
2.931
2.15823
1.59817
1.18142
0.871757
0.643734
0.477239
0.356288
0.267937
0.202721
0.15415
0.118057
0.091353
0.0717695
0.0576674
0.0478741
0.0415146
0.0378287
0.0363492
0.0368482
0.0394012
7.44903
5.81462
3.72215
2.54607
1.79855
1.28346
0.919138
0.660387
0.476459
0.345435
0.251555
0.184037
0.135572
0.101024
0.0765655
0.0593774
0.0474024
0.0391717
0.0336764
0.030239
0.0284267
0.02805
0.0288523
0.031354
9.87852
5.87965
3.36605
2.19163
1.49263
1.03153
0.717743
0.501892
0.352463
0.248594
0.176431
0.126545
0.0922505
0.0687243
0.0525487
0.0413619
0.0335881
0.0282221
0.0246535
0.0225023
0.0215304
0.0215934
0.0225121
0.0247379
2.82853
5.94603
9.91208
11.4626
10.7396
35.0993
1.00529
3.29997
5.25477
6.8385
8.75176
11.9796
1.1862
2.62903
4.1122
5.57913
7.10696
8.01409
1.43471
2.3608
3.6392
5.02684
6.29601
6.59689
1.74058
2.22459
3.39755
4.73619
5.85872
5.89717
1.99997
2.15056
3.26208
4.57718
5.59206
5.4738
2.21036
2.11043
3.18236
4.49747
5.44141
5.19198
2.36922
2.08714
3.13267
4.46358
5.36876
4.99591
2.47721
2.06825
3.09742
4.46061
5.34436
4.85738
2.53616
2.04539
3.06558
4.48309
5.35625
4.76507
2.54801
2.01276
3.02896
4.5209
5.40008
4.71672
2.51567
1.96676
2.98042
4.56286
5.46506
4.71721
2.44716
1.90594
2.91311
4.59778
5.55318
4.77085
2.35241
1.8302
2.82074
4.61605
5.66645
4.88366
2.23046
1.73915
2.69748
4.60644
5.80383
5.06285
2.08177
1.63137
2.54004
4.55417
5.96293
5.31954
1.90729
1.50608
2.34604
4.43857
6.14006
5.67317
1.70682
1.36223
2.11566
4.23109
6.32888
6.14859
1.47589
1.19723
1.85443
3.89312
6.51994
6.77776
1.19294
1.0054
1.57614
3.40406
6.61885
7.63428
0.25918
0.777261
1.31316
2.80866
6.5676
8.85905
0.238058
0.678401
1.10654
2.191
6.12804
10.7312
0.903917
0.819513
1.08199
1.71737
4.87183
14.4834
2.32665
1.86397
2.03145
2.29191
2.98051
27.6708
12.1714
4.95883
2.86542
1.85059
1.23107
0.82785
0.560304
0.381015
0.260328
0.179183
0.124858
0.088586
0.0643236
0.0479835
0.0368665
0.029232
0.0239782
0.0204173
0.0181256
0.0168366
0.0163905
0.0166259
0.0175764
0.0194749
7.3367
3.96045
2.45155
1.56847
1.01634
0.66454
0.437208
0.289119
0.192611
0.129942
0.0893401
0.0629729
0.0457132
0.0342714
0.0265732
0.0213241
0.0177241
0.0152861
0.0137221
0.0128624
0.0126109
0.0128595
0.0136841
0.0152006
5.85223
3.49849
2.1392
1.32925
0.837565
0.532742
0.340847
0.219558
0.143136
0.0951385
0.0649346
0.0457532
0.0333781
0.0252321
0.0197553
0.0160054
0.013414
0.0116407
0.0104873
0.00984151
0.00964152
0.00983013
0.0104703
0.0116468
5.11873
3.08364
1.84736
1.12176
0.689747
0.427151
0.266066
0.167443
0.107341
0.0706994
0.048154
0.0340352
0.0249843
0.0190302
0.0150133
0.012244
0.0103084
0.00895893
0.00805175
0.00750826
0.00728817
0.00737597
0.00781435
0.00869541
4.55981
2.72071
1.59901
0.94979
0.569465
0.3433
0.208557
0.128724
0.0815459
0.053467
0.0364579
0.0258889
0.0191255
0.0146648
0.0116371
0.00952899
0.00803203
0.00695995
0.00620328
0.00570221
0.00542917
0.0053912
0.00563194
0.00624576
4.10533
2.40982
1.3891
0.806995
0.471717
0.277104
0.164647
0.100081
0.0629241
0.0412117
0.0281885
0.0201209
0.0149491
0.0115208
0.00917574
0.00752465
0.00633177
0.005452
0.004797
0.00431608
0.0039851
0.00381069
0.00385904
0.00422908
3.73826
2.14952
1.21485
0.689861
0.393056
0.225288
0.131313
0.0789077
0.0494061
0.0323916
0.0222402
0.01595
0.0119026
0.00920364
0.00734298
0.00601902
0.00504735
0.00431178
0.00373803
0.00327928
0.00290886
0.00262412
0.0024709
0.00257576
3.44105
1.93502
1.07151
0.594259
0.330069
0.184918
0.106054
0.0632034
0.0395015
0.0259516
0.0178839
0.0128742
0.0096363
0.00746481
0.00595747
0.00487578
0.00407262
0.00345368
0.00295609
0.00253631
0.00216387
0.001823
0.00150256
0.00110552
3.20226
1.76043
0.954508
0.516707
0.27992
0.153585
0.0869048
0.0514857
0.0321625
0.0211775
0.0146373
0.0105642
0.00792061
0.00613941
0.00489694
0.00400064
0.00333121
0.0028118
0.00239074
0.00203111
0.00170433
0.00139049
0.00108653
0.000733416
3.01434
1.62033
0.859863
0.454202
0.240187
0.129319
0.0723497
0.0426724
0.026657
0.0175839
0.0121766
0.00879938
0.00660019
0.00511391
0.00407455
0.00332334
0.00276174
0.00232636
0.00197485
0.00167724
0.00141037
0.00115784
0.000914102
0.000642891
2.87171
1.51019
0.784265
0.404239
0.208874
0.110556
0.0612445
0.0359839
0.0224748
0.0148386
0.010282
0.0074294
0.00556799
0.00430835
0.00342715
0.00279063
0.00231557
0.00194841
0.0016535
0.00140569
0.00118571
0.000980851
0.000789223
0.000588243
2.76974
1.42654
0.725071
0.364763
0.184377
0.0960675
0.052738
0.030861
0.0192593
0.0127126
0.00880202
0.00635041
0.00474956
0.00366669
0.00291033
0.00236544
0.00196028
0.00164869
0.00140005
0.00119294
0.00101123
0.000845079
0.000694116
0.000543375
2.70538
1.36694
0.680315
0.334169
0.165337
0.0848568
0.0461826
0.0269023
0.0167599
0.0110459
0.00763112
0.00548979
0.00409267
0.00314962
0.00249317
0.00202245
0.00167449
0.0014088
0.00119865
0.0010255
0.000875661
0.000741227
0.000622176
0.000507885
2.67782
1.33027
0.648518
0.310982
0.150639
0.0761839
0.0411077
0.0238214
0.014799
0.00972537
0.0066946
0.00479597
0.0035601
0.00272905
0.00215359
0.00174362
0.00144294
0.00121546
0.00103745
0.000892638
0.000769189
0.000660543
0.000566593
0.000479603
2.69205
1.31535
0.628475
0.294061
0.139447
0.0694988
0.0371724
0.021412
0.0132493
0.00867011
0.00593874
0.0042317
0.0031248
0.0023845
0.00187541
0.00151574
0.00125449
0.00105904
0.000908026
0.00078691
0.00068532
0.000597612
0.000523419
0.000457048
2.75453
1.31992
0.619163
0.282535
0.131116
0.0643873
0.0341251
0.0195244
0.0120182
0.00782123
0.00532436
0.00376961
0.00276676
0.00210067
0.00164647
0.00132877
0.00110065
0.000932188
0.000803905
0.000702641
0.000619141
0.000548406
0.000489764
0.000439041
2.86768
1.35165
0.619923
0.275812
0.12514
0.0605342
0.0317772
0.0180493
0.0110378
0.00713539
0.00482245
0.00338927
0.00247088
0.0018659
0.0014574
0.00117493
0.000974761
0.000829117
0.000720012
0.00063538
0.000566838
0.000509848
0.000463454
0.000424642
3.03928
1.40631
0.628558
0.273255
0.12109
0.057696
0.0299884
0.0169009
0.0102572
0.00658018
0.00441118
0.0030752
0.00222564
0.00167119
0.00130092
0.00104812
0.000871588
0.000745263
0.000652348
0.000581649
0.00052547
0.000479598
0.000442853
0.000413126
3.2826
1.49052
0.650536
0.27432
0.11865
0.0556791
0.02865
0.0160138
0.00963775
0.0061311
0.00407396
0.00281552
0.00202207
0.00150951
0.00117125
0.000943491
0.000786968
0.000677003
0.000597752
0.000538714
0.00049274
0.000455857
0.000426721
0.000403934
3.61698
1.60621
0.681595
0.277863
0.117499
0.0543132
0.0276713
0.015338
0.00915006
0.00576933
0.00379799
0.002601
0.00185318
0.00137529
0.00106384
0.00085718
0.000717578
0.000621446
0.000553702
0.000504404
0.000466843
0.000437236
0.000414121
0.000396641
4.0705
1.75737
0.71891
0.283499
0.117337
0.0534521
0.0269769
0.014833
0.00877106
0.00548032
0.00357335
0.00242444
0.00171345
0.00126411
0.000975023
0.000786089
0.000660755
0.00057628
0.000518188
0.000476991
0.000446357
0.00042266
0.000404347
0.000390926
4.68126
1.94739
0.758007
0.290091
0.117662
0.0529544
0.0265045
0.0144659
0.00848262
0.00525281
0.0033924
0.00228024
0.00159851
0.00117243
0.000901852
0.000727721
0.000614354
0.000539652
0.000489603
0.000455097
0.00043014
0.000411272
0.00039685
0.000386539
5.49368
2.14473
0.793772
0.295976
0.118098
0.052684
0.0262011
0.0142112
0.00827062
0.00507817
0.00324928
0.00216409
0.00150499
0.00109748
0.00084197
0.000680053
0.000576632
0.000510058
0.000466657
0.000437616
0.000417256
0.000402314
0.000391148
0.000383226
6.22932
2.29044
0.817895
0.299218
0.118271
0.0525177
0.026022
0.0140486
0.00812457
0.0049501
0.00313977
0.00207283
0.00143034
0.00103712
0.000793533
0.00064147
0.000546172
0.000486271
0.000448308
0.000423692
0.000407007
0.000395196
0.000386723
0.00038068
3.20391
7.87535
11.4714
12.3964
10.6459
33.6186
1.12598
4.61728
6.36241
7.17165
7.87374
12.0375
1.66377
3.69284
4.80526
5.43198
6.04947
7.16337
2.3004
3.29086
4.08786
4.57009
4.94983
5.21336
2.88154
3.06783
3.67077
4.05505
4.2654
4.2355
3.39551
2.93792
3.40106
3.71042
3.83276
3.6762
3.83645
2.86049
3.21517
3.47433
3.54998
3.33682
4.2015
2.81368
3.08344
3.31233
3.36542
3.1294
4.48917
2.78539
2.98961
3.20387
3.25083
3.01106
4.69842
2.76836
2.92373
3.13598
3.18993
2.95945
4.82849
2.75828
2.87916
3.09994
3.173
2.96246
4.88084
2.75383
2.85109
3.08936
3.19228
3.01265
4.87522
2.75451
2.83555
3.09839
3.24594
3.11099
4.81369
2.75796
2.82893
3.12271
3.33242
3.25651
4.68879
2.75678
2.82735
3.16148
3.44847
3.452
4.49302
2.74498
2.82668
3.21065
3.5929
3.70268
4.22036
2.7168
2.82351
3.26775
3.76547
4.01679
3.86659
2.66386
2.81681
3.33299
3.96748
4.41147
3.42941
2.58514
2.8119
3.41167
4.20359
4.92051
2.9105
2.48995
2.82632
3.51946
4.48643
5.61794
2.31954
2.40143
2.90639
3.69682
4.85174
6.69937
1.67928
2.4008
3.17237
4.06235
5.42488
8.81765
1.15178
2.78164
4.03958
5.06208
6.62537
14.5474
3.03257
5.90921
8.36512
9.33458
10.4107
48.1332
6.6765
2.33949
0.817199
0.29749
0.117708
0.0523582
0.0259371
0.0139661
0.00803831
0.00486453
0.00306107
0.00200435
0.00137282
0.000989829
0.000755204
0.00061078
0.000521914
0.000467363
0.000433781
0.000412724
0.000398968
0.000389602
0.000383207
0.000378711
5.4725
2.12961
0.775481
0.289562
0.116366
0.0521898
0.0259383
0.0139603
0.00800975
0.00481973
0.00301186
0.00195748
0.00133138
0.00095466
0.000726113
0.000587186
0.00050313
0.000452676
0.000422494
0.000404228
0.000392791
0.000385355
0.000380513
0.000377286
4.41912
1.8734
0.72189
0.279236
0.114714
0.0520747
0.0260208
0.0140219
0.00803572
0.00481637
0.00299217
0.00193193
0.00130558
0.00093109
0.00070572
0.000570159
0.000489316
0.000441741
0.000414022
0.00039782
0.000388136
0.000382192
0.000378564
0.00037633
3.65862
1.65764
0.672565
0.269361
0.113266
0.0521194
0.0262103
0.0141577
0.00811386
0.00485047
0.00300155
0.00192815
0.0012955
0.000918928
0.000693724
0.000559338
0.00048009
0.000434185
0.000408023
0.000393206
0.00038476
0.000379914
0.000377202
0.000375709
3.13242
1.49682
0.633494
0.261645
0.112446
0.052419
0.0265454
0.0143845
0.00825225
0.00492474
0.00303812
0.00194412
0.00130057
0.000918241
0.000690069
0.00055454
0.000475215
0.000429763
0.000404264
0.000390177
0.000382483
0.000378373
0.000376317
0.000375327
2.77516
1.38718
0.606281
0.257002
0.112592
0.0530951
0.0270698
0.0147192
0.00845912
0.00504492
0.00310534
0.0019806
0.0013196
0.000927493
0.000693991
0.000555537
0.000474608
0.00042838
0.000402633
0.0003886
0.000381181
0.000377503
0.000375818
0.000375134
2.54018
1.31762
0.590827
0.255921
0.113887
0.0542586
0.0278484
0.0152114
0.00876889
0.00523227
0.00321752
0.0020474
0.00135914
0.000950707
0.000707374
0.000562973
0.000478467
0.000430144
0.000403221
0.000388588
0.00038097
0.000377257
0.000375634
0.000375065
2.39482
1.28148
0.586834
0.258646
0.116651
0.0561141
0.0289775
0.0158897
0.00918617
0.00548761
0.00337435
0.00214426
0.00141928
0.00098818
0.000730703
0.000577378
0.000487217
0.00043531
0.000406151
0.000390152
0.000381704
0.000377555
0.000375726
0.000375078
2.3184
1.2749
0.594381
0.266037
0.121364
0.0587869
0.0304833
0.0167664
0.0097145
0.00581221
0.00357679
0.00227205
0.0015008
0.00104065
0.000764684
0.000599389
0.00050137
0.000444288
0.000411755
0.000393584
0.00038365
0.000378561
0.000376173
0.000375192
2.29865
1.29643
0.614439
0.278542
0.128137
0.0623452
0.0324099
0.0178654
0.0103714
0.00621741
0.00383218
0.00243565
0.00160703
0.00111045
0.000810959
0.000630182
0.000521793
0.000457709
0.000420469
0.000399153
0.000387096
0.00038043
0.000377064
0.000375471
2.32799
1.34631
0.648057
0.296891
0.137364
0.0669804
0.0348485
0.0192282
0.0111796
0.00671665
0.0041491
0.00264086
0.00174205
0.0012005
0.000871656
0.000671327
0.000549657
0.000476442
0.000432922
0.00040729
0.000392228
0.000383435
0.000378556
0.000376053
2.40614
1.42647
0.69747
0.322285
0.149604
0.0729393
0.0379109
0.0209078
0.0121669
0.00732605
0.00453779
0.00289463
0.00191078
0.00131439
0.000949446
0.000724841
0.000586502
0.000501668
0.000450008
0.000418666
0.000399546
0.000387838
0.000380935
0.000377032
2.53326
1.54005
0.766402
0.356414
0.165603
0.0805414
0.0417388
0.0229728
0.0133674
0.008065
0.00501047
0.00320526
0.00211916
0.00145652
0.00104765
0.000793273
0.000634309
0.000534933
0.000472925
0.000434183
0.000409707
0.000394093
0.000384434
0.000378556
2.71349
1.69268
0.859005
0.401506
0.186357
0.0902078
0.0465117
0.0255133
0.0148235
0.00895691
0.00558166
0.00358257
0.00237425
0.00163214
0.00117029
0.000879761
0.00069555
0.000578192
0.000503204
0.000455008
0.000423557
0.000402779
0.00038942
0.000380823
2.95412
1.89234
0.980465
0.460497
0.213196
0.1025
0.0524702
0.0286339
0.0165868
0.01003
0.00626857
0.00403807
0.00268427
0.00184744
0.00132216
0.000988072
0.000773224
0.000633843
0.000542754
0.000482632
0.000442222
0.000414683
0.000396315
0.000384034
3.26599
2.14931
1.13776
0.53726
0.247881
0.118155
0.0599242
0.0324712
0.018722
0.0113187
0.00709159
0.00458513
0.00305875
0.00210959
0.00150884
0.00112265
0.000870913
0.0007048
0.000593946
0.000518956
0.000467146
0.000430771
0.000405639
0.000388385
3.66463
2.47701
1.33977
0.63677
0.2927
0.138137
0.0692745
0.0371999
0.0213098
0.0128645
0.00807482
0.00523927
0.00350858
0.00242675
0.00173674
0.00128868
0.000992873
0.000794575
0.000659668
0.000566299
0.000500096
0.00045227
0.00041815
0.00039417
4.16959
2.89327
1.59727
0.765211
0.350558
0.16368
0.081034
0.0430415
0.0244514
0.0147185
0.00924689
0.00601846
0.00404621
0.00280823
0.00201321
0.00149215
0.00114409
0.000907352
0.00074341
0.000627516
0.000543308
0.000480799
0.000434869
0.000401777
4.80635
3.42519
1.92301
0.929865
0.42499
0.19632
0.0958461
0.0502736
0.0282745
0.0169432
0.010642
0.00694362
0.00468579
0.00326447
0.00234648
0.00173985
0.00133029
0.00104799
0.000849292
0.00070604
0.000599545
0.00051843
0.000457136
0.000411705
5.63112
4.10185
2.33014
1.13861
0.520028
0.237887
0.114491
0.0592315
0.0329479
0.0196167
0.0123015
0.0080392
0.00544348
0.00380721
0.00274571
0.00203931
0.00155788
0.00122203
0.000982082
0.000805935
0.000672161
0.000567749
0.000486679
0.000424606
6.76994
4.95541
2.82994
1.3986
0.639775
0.290409
0.137881
0.0703197
0.0386675
0.0228332
0.0142748
0.00933407
0.00633787
0.0044496
0.00322099
0.00239879
0.00183388
0.00143559
0.00114718
0.000931915
0.000765151
0.000631932
0.000525676
0.000441318
8.5364
6.01509
3.42804
1.71302
0.787422
0.355856
0.167012
0.0840102
0.0456461
0.0267033
0.0166213
0.0108626
0.00739066
0.00520657
0.00378351
0.00282724
0.00216589
0.00169536
0.00135058
0.00108933
0.000883195
0.00071481
0.000576829
0.000462893
12.0567
7.40408
4.13285
2.07978
0.963866
0.435639
0.202823
0.100802
0.0541335
0.0313583
0.0194127
0.0126662
0.00862764
0.00609549
0.00444586
0.00333452
0.00256212
0.00200852
0.00159876
0.00128415
0.00103166
0.000820941
0.000643447
0.000490632
21.3047
9.77427
4.99266
2.4935
1.16663
0.529996
0.245996
0.121173
0.0644013
0.0369499
0.0227337
0.0147945
0.0100795
0.00713662
0.00522237
0.00393148
0.00303136
0.00238266
0.00189862
0.00152277
0.00121654
0.000955642
0.000729535
0.000526102
)
;

boundaryField
{
    rotor
    {
        type            epsilonWallFunction;
        value           nonuniform List<scalar> 
144
(
5.22757
3.94384
2.89063
2.08167
1.55589
2.33747
5.22757
1.53469
2.24871
2.78141
3.18582
3.51776
3.80526
4.05937
4.28461
4.4835
4.6581
4.81085
4.93947
4.98729
4.96927
4.86048
4.6587
4.35903
3.95006
3.43491
2.83361
2.11616
1.36078
4.93137
4.93137
10.6571
13.4369
11.753
9.33761
29.3788
1.596
1.85569
2.30749
2.48789
2.65833
3.42115
1.596
0.76878
0.212755
0.238232
0.258462
0.272958
0.280956
0.281006
1.20064
1.22168
1.24384
1.2599
1.26428
1.25443
1.23152
1.20408
1.19605
1.18765
0.276519
0.265872
0.248807
0.225837
0.839032
1.89314
1.89314
2.06605
2.427
2.69954
2.74186
3.13175
2.82853
5.94603
9.91208
11.4626
10.7396
35.0993
2.82853
1.00529
1.1862
1.43471
1.74058
1.99997
2.21036
2.36922
2.47721
2.53616
2.54801
2.51567
2.44716
2.35241
2.23046
2.08177
1.90729
1.70682
1.47589
1.19294
0.25918
0.238058
0.903917
2.32665
2.32665
1.86397
2.03145
2.29191
2.98051
27.6708
3.20391
7.87535
11.4714
12.3964
10.6459
33.6186
3.20391
1.12598
1.66377
2.3004
2.88154
3.39551
3.83645
4.2015
4.48917
4.69842
4.82849
4.88084
4.87522
4.81369
4.68879
4.49302
4.22036
3.86659
3.42941
2.9105
2.31954
1.67928
1.15178
3.03257
3.03257
5.90921
8.36512
9.33458
10.4107
48.1332
)
;
    }
    freestream
    {
        type            inletOutlet;
        inletValue      uniform 0.000375;
        value           nonuniform List<scalar> 
96
(
0.000375
0.000375
0.000375
0.000375
0.000375
0.000375
0.00271537
0.00487382
0.00700696
0.00906428
0.0110879
0.013076
0.0150125
0.016882
0.0186778
0.0204125
0.0221223
0.0239016
0.0259297
0.0286096
0.0327556
0.0401356
0.055099
0.0901062
0.18943
0.49006
1.14368
1.70596
1.81694
1.6717
1.40006
1.29092
1.2929
1.41213
1.55837
1.60443
1.54204
1.26478
0.801105
0.384494
0.205277
0.130679
0.0948021
0.0703533
0.0510983
0.0394012
0.031354
0.0247379
0.0194749
0.0152006
0.0116468
0.00869541
0.00624576
0.00422908
0.00257576
0.000375
0.000375
0.000375
0.000375
0.000375
0.000375
0.000375
0.000375
0.000375
0.000375
0.000375
0.000375
0.000375
0.000375
0.000375
0.000375
0.000375
0.000375
0.000375
0.000375
0.000375
0.000375
0.000375
0.000375
0.000375
0.000375
0.000375
0.000375
0.000375
0.000375
0.000375
0.000375
0.000375
0.000375
0.000375
0.000375
0.000375
0.000375
0.000375
0.000375
0.000375
)
;
    }
    frontAndBack
    {
        type            empty;
    }
}


// ************************************************************************* //
