/*--------------------------------*- C++ -*----------------------------------*\
  =========                 |
  \\      /  F ield         | OpenFOAM: The Open Source CFD Toolbox
   \\    /   O peration     | Website:  https://openfoam.org
    \\  /    A nd           | Version:  11
     \\/     M anipulation  |
\*---------------------------------------------------------------------------*/
FoamFile
{
    format      ascii;
    class       surfaceScalarField;
    location    "1.18";
    object      meshPhi;
}
// * * * * * * * * * * * * * * * * * * * * * * * * * * * * * * * * * * * * * //

dimensions      [0 3 -1 0 0 0 0];

internalField   nonuniform List<scalar> 
5640
(
1.36915e-16
9.81747e-07
2.42026e-16
1.37445e-06
3.76875e-16
1.76715e-06
-1.33947e-15
2.15984e-06
-3.6818e-15
2.55254e-06
2.94524e-06
5.95106e-15
1.79431e-18
9.81747e-07
-3.88872e-16
1.37445e-06
-2.60429e-15
1.76715e-06
1.94335e-15
2.15984e-06
8.06617e-15
2.55254e-06
2.94524e-06
-9.03019e-15
-1.16515e-16
9.81747e-07
1.86293e-16
1.37445e-06
-1.5625e-15
1.76715e-06
-4.21262e-15
2.15984e-06
-7.49864e-15
2.55254e-06
2.94524e-06
7.72065e-16
8.69107e-17
9.81747e-07
-1.02001e-16
1.37445e-06
2.69303e-15
1.76715e-06
7.44274e-15
2.15984e-06
3.25958e-15
2.55254e-06
2.94524e-06
-2.79815e-15
-4.8396e-17
9.81747e-07
3.94197e-17
1.37445e-06
1.94261e-16
1.76715e-06
-1.80626e-15
2.15984e-06
-4.20875e-15
2.55254e-06
2.94524e-06
5.01305e-15
-1.80165e-16
9.81747e-07
4.2565e-18
1.37445e-06
-1.84794e-15
1.76715e-06
-3.88626e-15
2.15984e-06
3.15693e-15
2.55254e-06
2.94524e-06
4.97814e-16
2.53926e-16
9.81747e-07
2.55306e-16
1.37445e-06
2.06585e-15
1.76715e-06
4.50401e-15
2.15984e-06
-2.31006e-15
2.55254e-06
2.94524e-06
5.40446e-16
2.16256e-17
9.81747e-07
-3.21794e-16
1.37445e-06
-1.14902e-15
1.76715e-06
-5.2857e-15
2.15984e-06
-3.76795e-16
2.55254e-06
2.94524e-06
-5.64011e-15
-1.43435e-16
9.81747e-07
1.66384e-16
1.37445e-06
4.19102e-15
1.76715e-06
6.34922e-15
2.15984e-06
-8.058e-16
2.55254e-06
2.94524e-06
8.3901e-16
-6.88461e-17
9.81747e-07
-9.2112e-17
1.37445e-06
-2.76937e-15
1.76715e-06
-3.68881e-16
2.15984e-06
-1.45099e-15
2.55254e-06
2.94524e-06
-1.76864e-16
1.66293e-16
9.81747e-07
-8.87364e-17
1.37445e-06
5.69559e-16
1.76715e-06
-2.10356e-15
2.15984e-06
9.65977e-15
2.55254e-06
2.94524e-06
5.29012e-15
-1.77828e-16
9.81747e-07
-2.05902e-17
1.37445e-06
-3.45552e-16
1.76715e-06
-4.17279e-15
2.15984e-06
-2.62259e-15
2.55254e-06
2.94524e-06
5.36938e-15
1.77741e-16
9.81747e-07
2.04588e-17
1.37445e-06
3.45319e-16
1.76715e-06
4.17251e-15
2.15984e-06
2.62226e-15
2.55254e-06
2.94524e-06
-5.3696e-15
-1.664e-16
9.81747e-07
8.85824e-17
1.37445e-06
-5.69775e-16
1.76715e-06
2.10349e-15
2.15984e-06
-9.66019e-15
2.55254e-06
2.94524e-06
-5.29058e-15
6.87435e-17
9.81747e-07
9.19734e-17
1.37445e-06
2.76924e-15
1.76715e-06
3.68734e-16
2.15984e-06
1.45057e-15
2.55254e-06
2.94524e-06
1.76265e-16
1.4336e-16
9.81747e-07
-1.66457e-16
1.37445e-06
-4.19125e-15
1.76715e-06
-6.34953e-15
2.15984e-06
8.05482e-16
2.55254e-06
2.94524e-06
-8.39688e-16
-2.16963e-17
9.81747e-07
3.21597e-16
1.37445e-06
1.14874e-15
1.76715e-06
5.28551e-15
2.15984e-06
3.76458e-16
2.55254e-06
2.94524e-06
5.63953e-15
-2.5401e-16
9.81747e-07
-2.55508e-16
1.37445e-06
-2.06608e-15
1.76715e-06
-4.50422e-15
2.15984e-06
2.30971e-15
2.55254e-06
2.94524e-06
-5.41111e-16
1.80066e-16
9.81747e-07
-4.36339e-18
1.37445e-06
1.84766e-15
1.76715e-06
3.88595e-15
2.15984e-06
-3.15725e-15
2.55254e-06
2.94524e-06
-4.98342e-16
4.83294e-17
9.81747e-07
-3.95701e-17
1.37445e-06
-1.94401e-16
1.76715e-06
1.80589e-15
2.15984e-06
4.20828e-15
2.55254e-06
2.94524e-06
-5.01359e-15
-8.7005e-17
9.81747e-07
1.01858e-16
1.37445e-06
-2.69325e-15
1.76715e-06
-7.44299e-15
2.15984e-06
-3.2601e-15
2.55254e-06
2.94524e-06
2.79781e-15
1.16418e-16
9.81747e-07
-1.86402e-16
1.37445e-06
1.56222e-15
1.76715e-06
4.21242e-15
2.15984e-06
7.49816e-15
2.55254e-06
2.94524e-06
-7.72406e-16
-1.8817e-18
9.81747e-07
3.88773e-16
1.37445e-06
2.60407e-15
1.76715e-06
-1.94376e-15
2.15984e-06
-8.06643e-15
2.55254e-06
2.94524e-06
9.02959e-15
-1.36988e-16
-2.42113e-16
-3.77096e-16
1.33915e-15
3.6814e-15
-5.9516e-15
-1.13365e-14
4.53785e-06
-4.53785e-06
-4.81615e-16
5.23599e-06
-5.23599e-06
-5.35774e-15
5.93412e-06
-5.93412e-06
-1.13042e-14
6.63225e-06
-6.63225e-06
4.86796e-15
7.33038e-06
-7.33038e-06
-1.11058e-15
8.02851e-06
-8.02851e-06
-8.15973e-15
8.72664e-06
-8.72664e-06
1.30437e-14
9.42478e-06
-9.42478e-06
5.948e-15
1.01229e-05
-1.01229e-05
-1.9963e-15
1.0821e-05
-1.0821e-05
2.4386e-14
1.15192e-05
-1.15192e-05
1.61865e-14
1.22173e-05
-1.22173e-05
-3.2788e-14
1.29154e-05
-1.29154e-05
-3.05477e-15
1.36136e-05
-1.36136e-05
-1.44428e-14
1.43117e-05
-1.43117e-05
-2.69064e-14
1.50098e-05
-1.50098e-05
7.73908e-15
1.5708e-05
-1.5708e-05
-4.44207e-15
1.64061e-05
-1.64061e-05
-1.80072e-14
1.71042e-05
-1.71042e-05
2.18151e-14
1.78024e-05
-1.78024e-05
8.20645e-15
1.85005e-05
-1.85005e-05
-6.08953e-15
1.91986e-05
-1.91986e-05
3.89103e-14
1.98967e-05
-1.98967e-05
2.05949e-05
-2.05949e-05
9.3987e-15
4.53785e-06
5.20197e-16
5.23599e-06
7.52773e-15
5.93412e-06
-4.4133e-15
6.63225e-06
3.78212e-15
7.33038e-06
1.3383e-14
8.02851e-06
-2.11113e-15
8.72664e-06
8.52741e-15
9.42478e-06
-1.00276e-14
1.01229e-05
1.86587e-15
1.0821e-05
-2.02049e-14
1.15192e-05
-7.01578e-15
1.22173e-05
7.50827e-15
1.29154e-05
2.36067e-14
1.36136e-05
-2.04535e-15
1.43117e-05
1.48323e-14
1.50098e-05
-1.38822e-14
1.5708e-05
2.38703e-15
1.64061e-05
2.04093e-14
1.71042e-05
-7.02279e-15
1.78024e-05
1.20619e-14
1.85005e-05
-2.59486e-14
1.91986e-05
1.84185e-15
1.98967e-05
2.05949e-05
-8.67633e-15
4.53785e-06
1.22919e-14
5.23599e-06
1.88249e-15
5.93412e-06
8.90146e-15
6.63225e-06
-5.10935e-15
7.33038e-06
-2.1992e-14
8.02851e-06
1.22627e-14
8.72664e-06
-5.37559e-15
9.42478e-06
4.45431e-15
1.01229e-05
-1.4307e-14
1.0821e-05
-7.32771e-15
1.15192e-05
7.03897e-15
1.22173e-05
2.39941e-14
1.29154e-05
-7.55537e-15
1.36136e-05
9.79793e-15
1.43117e-05
-1.624e-14
1.50098e-05
4.02917e-14
1.5708e-05
1.44423e-14
1.64061e-05
-1.37077e-14
1.71042e-05
-7.90191e-15
1.78024e-05
-3.92553e-14
1.85005e-05
4.27474e-14
1.91986e-05
-8.85809e-15
1.98967e-05
2.05949e-05
5.98578e-15
4.53785e-06
2.18363e-16
5.23599e-06
-6.43591e-15
5.93412e-06
6.06354e-15
6.63225e-06
-2.09344e-15
7.33038e-06
1.61751e-14
8.02851e-06
-1.88318e-14
8.72664e-06
-2.3519e-15
9.42478e-06
9.17037e-15
1.01229e-05
-4.71321e-15
1.0821e-05
2.16255e-14
1.15192e-05
-2.96467e-14
1.22173e-05
-9.29134e-15
1.29154e-05
-1.89096e-14
1.36136e-05
4.46346e-15
1.43117e-05
3.01527e-14
1.50098e-05
-2.62213e-14
1.5708e-05
4.29974e-16
1.64061e-05
-2.11797e-14
1.71042e-05
1.87096e-14
1.78024e-05
-3.92752e-15
1.85005e-05
-2.91589e-14
1.91986e-05
1.52329e-14
1.98967e-05
2.05949e-05
6.71471e-15
4.53785e-06
-7.3071e-15
5.23599e-06
1.11003e-14
5.93412e-06
-4.24191e-15
6.63225e-06
1.51014e-14
7.33038e-06
-5.21038e-15
8.02851e-06
1.7013e-14
8.72664e-06
-3.9433e-15
9.42478e-06
-2.95653e-16
1.01229e-05
6.60888e-15
1.0821e-05
1.37036e-14
1.15192e-05
1.0183e-14
1.22173e-05
1.82154e-14
1.29154e-05
1.43661e-14
1.36136e-05
2.33382e-14
1.43117e-05
-2.53462e-14
1.50098e-05
2.90688e-14
1.5708e-05
-7.83355e-15
1.64061e-05
3.54144e-14
1.71042e-05
-4.51966e-15
1.78024e-05
4.23612e-14
1.85005e-05
-5.92912e-16
1.91986e-05
-8.73682e-15
1.98967e-05
2.05949e-05
-4.63066e-15
4.53785e-06
5.79708e-15
5.23599e-06
-1.6151e-14
5.93412e-06
-5.97554e-15
6.63225e-06
-8.55615e-15
7.33038e-06
4.22227e-15
8.02851e-06
-8.18846e-15
8.72664e-06
6.99728e-15
9.42478e-06
-2.42313e-14
1.01229e-05
-7.77247e-15
1.0821e-05
-2.2767e-14
1.15192e-05
8.34668e-15
1.22173e-05
-7.40572e-15
1.29154e-05
2.82644e-14
1.36136e-05
-4.57111e-14
1.43117e-05
-8.22545e-15
1.50098e-05
-2.8231e-14
1.5708e-05
-2.34345e-15
1.64061e-05
-6.94615e-15
1.71042e-05
2.21452e-14
1.78024e-05
-3.4114e-14
1.85005e-05
-3.73939e-15
1.91986e-05
-3.23483e-14
1.98967e-05
2.05949e-05
-8.92538e-15
4.53785e-06
-2.28923e-15
5.23599e-06
-2.22455e-15
5.93412e-06
6.61536e-15
6.63225e-06
-3.3891e-15
7.33038e-06
-3.9081e-15
8.02851e-06
-6.41996e-15
8.72664e-06
-7.15979e-15
9.42478e-06
6.80942e-15
1.01229e-05
6.98219e-15
1.0821e-05
-9.06826e-15
1.15192e-05
6.75804e-15
1.22173e-05
-2.88916e-14
1.29154e-05
-1.22368e-14
1.36136e-05
4.80182e-15
1.43117e-05
2.50258e-14
1.50098e-05
3.85812e-15
1.5708e-05
3.60289e-15
1.64061e-05
-2.04879e-14
1.71042e-05
-2.17644e-14
1.78024e-05
3.46237e-15
1.85005e-05
2.90391e-14
1.91986e-05
-1.66174e-15
1.98967e-05
2.05949e-05
6.21553e-15
4.53785e-06
-3.87938e-15
5.23599e-06
1.54214e-14
5.93412e-06
-7.06567e-15
6.63225e-06
-2.21124e-15
7.33038e-06
1.42854e-15
8.02851e-06
-5.49382e-15
8.72664e-06
1.32259e-14
9.42478e-06
6.04514e-15
1.01229e-05
-1.74529e-14
1.0821e-05
2.0884e-14
1.15192e-05
-2.1447e-14
1.22173e-05
1.91318e-14
1.29154e-05
-7.31735e-15
1.36136e-05
3.8483e-14
1.43117e-05
-1.29282e-14
1.50098e-05
-1.88599e-15
1.5708e-05
5.71416e-15
1.64061e-05
-7.59087e-15
1.71042e-05
2.76554e-14
1.78024e-05
1.40927e-14
1.85005e-05
-5.31459e-14
1.91986e-05
3.90771e-14
1.98967e-05
2.05949e-05
-1.49909e-15
4.53785e-06
1.08969e-14
5.23599e-06
-6.59967e-15
5.93412e-06
7.26522e-15
6.63225e-06
6.17355e-15
7.33038e-06
2.48795e-15
8.02851e-06
-9.65068e-16
8.72664e-06
-4.36716e-15
9.42478e-06
-8.90213e-15
1.01229e-05
1.38622e-14
1.0821e-05
1.06886e-14
1.15192e-05
6.24912e-15
1.22173e-05
-1.30614e-16
1.29154e-05
-3.44232e-15
1.36136e-05
-1.10459e-14
1.43117e-05
-1.77684e-14
1.50098e-05
1.76752e-14
1.5708e-05
9.9518e-15
1.64061e-05
3.32483e-15
1.71042e-05
-3.29736e-14
1.78024e-05
-1.04294e-14
1.85005e-05
3.00647e-14
1.91986e-05
-6.00022e-14
1.98967e-05
2.05949e-05
5.16984e-15
4.53785e-06
-7.45588e-15
5.23599e-06
-7.57013e-16
5.93412e-06
6.83877e-15
6.63225e-06
-9.97547e-15
7.33038e-06
-1.6662e-15
8.02851e-06
9.21745e-15
8.72664e-06
-1.34606e-14
9.42478e-06
2.32191e-14
1.01229e-05
1.04723e-14
1.0821e-05
-1.72752e-14
1.15192e-05
-3.02805e-15
1.22173e-05
1.13944e-14
1.29154e-05
-1.9818e-14
1.36136e-05
-4.68125e-15
1.43117e-05
5.03007e-14
1.50098e-05
-2.40483e-14
1.5708e-05
-6.66478e-15
1.64061e-05
1.42566e-14
1.71042e-05
1.64557e-15
1.78024e-05
-6.81628e-15
1.85005e-05
1.44373e-14
1.91986e-05
5.07479e-14
1.98967e-05
2.05949e-05
-6.19748e-15
4.53785e-06
2.8182e-17
5.23599e-06
1.1511e-14
5.93412e-06
-2.06267e-14
6.63225e-06
5.3659e-15
7.33038e-06
1.2205e-15
8.02851e-06
-4.92856e-17
8.72664e-06
1.23921e-14
9.42478e-06
-1.32292e-14
1.01229e-05
-1.88956e-14
1.0821e-05
-4.96688e-15
1.15192e-05
-7.15599e-15
1.22173e-05
-1.4889e-14
1.29154e-05
3.5335e-14
1.36136e-05
-5.51878e-18
1.43117e-05
-4.31407e-14
1.50098e-05
1.35594e-14
1.5708e-05
-2.82619e-14
1.64061e-05
2.44875e-15
1.71042e-05
-1.02431e-14
1.78024e-05
2.37997e-14
1.85005e-05
1.38724e-14
1.91986e-05
-4.55693e-14
1.98967e-05
2.05949e-05
-1.90682e-15
4.53785e-06
1.13043e-15
5.23599e-06
-2.16628e-14
5.93412e-06
9.6227e-15
6.63225e-06
1.51361e-14
7.33038e-06
-1.40659e-14
8.02851e-06
8.09186e-15
8.72664e-06
-2.69609e-14
9.42478e-06
-1.96716e-15
1.01229e-05
2.97144e-14
1.0821e-05
-1.17489e-14
1.15192e-05
1.9864e-14
1.22173e-05
-2.74481e-14
1.29154e-05
-2.06193e-14
1.36136e-05
1.6039e-14
1.43117e-05
-4.61693e-15
1.50098e-05
4.68862e-15
1.5708e-05
4.7965e-14
1.64061e-05
-1.37448e-14
1.71042e-05
3.23674e-14
1.78024e-05
-3.51907e-14
1.85005e-05
-2.49089e-14
1.91986e-05
7.19086e-14
1.98967e-05
2.05949e-05
1.90645e-15
4.53785e-06
-1.13124e-15
5.23599e-06
2.1661e-14
5.93412e-06
-9.62464e-15
6.63225e-06
-1.51383e-14
7.33038e-06
1.40643e-14
8.02851e-06
-8.0942e-15
8.72664e-06
2.69587e-14
9.42478e-06
1.96367e-15
1.01229e-05
-2.97196e-14
1.0821e-05
1.17435e-14
1.15192e-05
-1.98703e-14
1.22173e-05
2.74425e-14
1.29154e-05
2.06122e-14
1.36136e-05
-1.60424e-14
1.43117e-05
4.60856e-15
1.50098e-05
-4.69523e-15
1.5708e-05
-4.79702e-14
1.64061e-05
1.37348e-14
1.71042e-05
-3.23768e-14
1.78024e-05
3.51807e-14
1.85005e-05
2.48967e-14
1.91986e-05
-7.19189e-14
1.98967e-05
2.05949e-05
6.19689e-15
4.53785e-06
-2.89165e-17
5.23599e-06
-1.15118e-14
5.93412e-06
2.06254e-14
6.63225e-06
-5.36772e-15
7.33038e-06
-1.22282e-15
8.02851e-06
4.56516e-17
8.72664e-06
-1.23951e-14
9.42478e-06
1.32246e-14
1.01229e-05
1.88924e-14
1.0821e-05
4.96158e-15
1.15192e-05
7.15151e-15
1.22173e-05
1.48847e-14
1.29154e-05
-3.53429e-14
1.36136e-05
-5.79026e-19
1.43117e-05
4.31332e-14
1.50098e-05
-1.35675e-14
1.5708e-05
2.82503e-14
1.64061e-05
-2.46004e-15
1.71042e-05
1.02374e-14
1.78024e-05
-2.38094e-14
1.85005e-05
-1.3882e-14
1.91986e-05
4.55539e-14
1.98967e-05
2.05949e-05
-5.17048e-15
4.53785e-06
7.45495e-15
5.23599e-06
7.56017e-16
5.93412e-06
-6.83993e-15
6.63225e-06
9.97351e-15
7.33038e-06
1.6636e-15
8.02851e-06
-9.21973e-15
8.72664e-06
1.34587e-14
9.42478e-06
-2.32219e-14
1.01229e-05
-1.0474e-14
1.0821e-05
1.72707e-14
1.15192e-05
3.02407e-15
1.22173e-05
-1.14e-14
1.29154e-05
1.98126e-14
1.36136e-05
4.677e-15
1.43117e-05
-5.03121e-14
1.50098e-05
2.40419e-14
1.5708e-05
6.65439e-15
1.64061e-05
-1.42661e-14
1.71042e-05
-1.65467e-15
1.78024e-05
6.80273e-15
1.85005e-05
-1.44473e-14
1.91986e-05
-5.07634e-14
1.98967e-05
2.05949e-05
1.49845e-15
4.53785e-06
-1.08974e-14
5.23599e-06
6.59866e-15
5.93412e-06
-7.26632e-15
6.63225e-06
-6.176e-15
7.33038e-06
-2.48948e-15
8.02851e-06
9.64276e-16
8.72664e-06
4.36451e-15
9.42478e-06
8.89983e-15
1.01229e-05
-1.38663e-14
1.0821e-05
-1.06935e-14
1.15192e-05
-6.25409e-15
1.22173e-05
1.24483e-16
1.29154e-05
3.43513e-15
1.36136e-05
1.10409e-14
1.43117e-05
1.77592e-14
1.50098e-05
-1.76847e-14
1.5708e-05
-9.95792e-15
1.64061e-05
-3.33617e-15
1.71042e-05
3.29629e-14
1.78024e-05
1.04182e-14
1.85005e-05
-3.00712e-14
1.91986e-05
5.99869e-14
1.98967e-05
2.05949e-05
-6.21621e-15
4.53785e-06
3.87864e-15
5.23599e-06
-1.54227e-14
5.93412e-06
7.064e-15
6.63225e-06
2.20952e-15
7.33038e-06
-1.43015e-15
8.02851e-06
5.4926e-15
8.72664e-06
-1.32275e-14
9.42478e-06
-6.04824e-15
1.01229e-05
1.745e-14
1.0821e-05
-2.089e-14
1.15192e-05
2.14425e-14
1.22173e-05
-1.91363e-14
1.29154e-05
7.31219e-15
1.36136e-05
-3.8489e-14
1.43117e-05
1.29198e-14
1.50098e-05
1.87783e-15
1.5708e-05
-5.72061e-15
1.64061e-05
7.5813e-15
1.71042e-05
-2.76653e-14
1.78024e-05
-1.4102e-14
1.85005e-05
5.31385e-14
1.91986e-05
-3.9092e-14
1.98967e-05
2.05949e-05
8.92466e-15
4.53785e-06
2.28829e-15
5.23599e-06
2.22393e-15
5.93412e-06
-6.61728e-15
6.63225e-06
3.38755e-15
7.33038e-06
3.90584e-15
8.02851e-06
6.41716e-15
8.72664e-06
7.15674e-15
9.42478e-06
-6.8114e-15
1.01229e-05
-6.98409e-15
1.0821e-05
9.06293e-15
1.15192e-05
-6.76102e-15
1.22173e-05
2.88857e-14
1.29154e-05
1.22296e-14
1.36136e-05
-4.80904e-15
1.43117e-05
-2.50299e-14
1.50098e-05
-3.8658e-15
1.5708e-05
-3.61227e-15
1.64061e-05
2.04808e-14
1.71042e-05
2.1752e-14
1.78024e-05
-3.47067e-15
1.85005e-05
-2.90454e-14
1.91986e-05
1.65501e-15
1.98967e-05
2.05949e-05
4.63008e-15
4.53785e-06
-5.79787e-15
5.23599e-06
1.61496e-14
5.93412e-06
5.97407e-15
6.63225e-06
8.55391e-15
7.33038e-06
-4.22442e-15
8.02851e-06
8.18577e-15
8.72664e-06
-7.00167e-15
9.42478e-06
2.42282e-14
1.01229e-05
7.76748e-15
1.0821e-05
2.27628e-14
1.15192e-05
-8.35202e-15
1.22173e-05
7.39982e-15
1.29154e-05
-2.82716e-14
1.36136e-05
4.57064e-14
1.43117e-05
8.21767e-15
1.50098e-05
2.82237e-14
1.5708e-05
2.33492e-15
1.64061e-05
6.94166e-15
1.71042e-05
-2.21563e-14
1.78024e-05
3.4103e-14
1.85005e-05
3.73183e-15
1.91986e-05
3.23403e-14
1.98967e-05
2.05949e-05
-6.71536e-15
4.53785e-06
7.30634e-15
5.23599e-06
-1.11015e-14
5.93412e-06
4.24043e-15
6.63225e-06
-1.51035e-14
7.33038e-06
5.2079e-15
8.02851e-06
-1.70152e-14
8.72664e-06
3.93861e-15
9.42478e-06
2.92181e-16
1.01229e-05
-6.61129e-15
1.0821e-05
-1.37079e-14
1.15192e-05
-1.01877e-14
1.22173e-05
-1.82222e-14
1.29154e-05
-1.43725e-14
1.36136e-05
-2.33422e-14
1.43117e-05
2.53381e-14
1.50098e-05
-2.90769e-14
1.5708e-05
7.82224e-15
1.64061e-05
-3.54202e-14
1.71042e-05
4.50442e-15
1.78024e-05
-4.23767e-14
1.85005e-05
5.77239e-16
1.91986e-05
8.72727e-15
1.98967e-05
2.05949e-05
-5.9862e-15
4.53785e-06
-2.19358e-16
5.23599e-06
6.43502e-15
5.93412e-06
-6.0648e-15
6.63225e-06
2.0917e-15
7.33038e-06
-1.61775e-14
8.02851e-06
1.8829e-14
8.72664e-06
2.34937e-15
9.42478e-06
-9.1746e-15
1.01229e-05
4.71035e-15
1.0821e-05
-2.16297e-14
1.15192e-05
2.9642e-14
1.22173e-05
9.28678e-15
1.29154e-05
1.8903e-14
1.36136e-05
-4.46934e-15
1.43117e-05
-3.01617e-14
1.50098e-05
2.62138e-14
1.5708e-05
-4.40305e-16
1.64061e-05
2.11637e-14
1.71042e-05
-1.87191e-14
1.78024e-05
3.91595e-15
1.85005e-05
2.91527e-14
1.91986e-05
-1.52379e-14
1.98967e-05
2.05949e-05
8.67582e-15
4.53785e-06
-1.22927e-14
5.23599e-06
-1.8835e-15
5.93412e-06
-8.90343e-15
6.63225e-06
5.10763e-15
7.33038e-06
2.19903e-14
8.02851e-06
-1.22665e-14
8.72664e-06
5.37322e-15
9.42478e-06
-4.45873e-15
1.01229e-05
1.43045e-14
1.0821e-05
7.32325e-15
1.15192e-05
-7.04345e-15
1.22173e-05
-2.39998e-14
1.29154e-05
7.55184e-15
1.36136e-05
-9.80309e-15
1.43117e-05
1.62331e-14
1.50098e-05
-4.02989e-14
1.5708e-05
-1.4449e-14
1.64061e-05
1.36977e-14
1.71042e-05
7.88959e-15
1.78024e-05
3.9242e-14
1.85005e-05
-4.27577e-14
1.91986e-05
8.84608e-15
1.98967e-05
2.05949e-05
-9.39898e-15
4.53785e-06
-5.20763e-16
5.23599e-06
-7.52926e-15
5.93412e-06
4.41094e-15
6.63225e-06
-3.78405e-15
7.33038e-06
-1.33854e-14
8.02851e-06
2.10762e-15
8.72664e-06
-8.53063e-15
9.42478e-06
1.00266e-14
1.01229e-05
-1.86833e-15
1.0821e-05
2.01997e-14
1.15192e-05
7.01054e-15
1.22173e-05
-7.51429e-15
1.29154e-05
-2.36106e-14
1.36136e-05
2.04133e-15
1.43117e-05
-1.48379e-14
1.50098e-05
1.38758e-14
1.5708e-05
-2.39508e-15
1.64061e-05
-2.04161e-14
1.71042e-05
7.0096e-15
1.78024e-05
-1.20742e-14
1.85005e-05
2.59324e-14
1.91986e-05
-1.85432e-15
1.98967e-05
2.05949e-05
1.13356e-14
4.53785e-06
4.8068e-16
5.23599e-06
5.35655e-15
5.93412e-06
1.13028e-14
6.63225e-06
-4.87014e-15
7.33038e-06
1.10897e-15
8.02851e-06
8.15729e-15
8.72664e-06
-1.30451e-14
9.42478e-06
-5.95076e-15
1.01229e-05
1.99376e-15
1.0821e-05
-2.43889e-14
1.15192e-05
-1.61916e-14
1.22173e-05
3.27834e-14
1.29154e-05
3.04751e-15
1.36136e-05
1.44408e-14
1.43117e-05
2.68936e-14
1.50098e-05
-7.74436e-15
1.5708e-05
4.43587e-15
1.64061e-05
1.79969e-14
1.71042e-05
-2.18272e-14
1.78024e-05
-8.21841e-15
1.85005e-05
6.07745e-15
1.91986e-05
-3.8926e-14
1.98967e-05
2.05949e-05
1.3692e-16
9.81747e-07
2.42022e-16
1.37445e-06
3.76897e-16
1.76715e-06
-1.33943e-15
2.15984e-06
-3.68166e-15
2.55254e-06
2.94524e-06
5.95113e-15
1.79431e-18
9.81747e-07
-3.88872e-16
1.37445e-06
-2.60429e-15
1.76715e-06
1.94335e-15
2.15984e-06
8.06617e-15
2.55254e-06
2.94524e-06
-9.03019e-15
-1.16515e-16
9.81747e-07
1.86293e-16
1.37445e-06
-1.5625e-15
1.76715e-06
-4.21262e-15
2.15984e-06
-7.49864e-15
2.55254e-06
2.94524e-06
7.72065e-16
8.69107e-17
9.81747e-07
-1.02001e-16
1.37445e-06
2.69303e-15
1.76715e-06
7.44274e-15
2.15984e-06
3.25958e-15
2.55254e-06
2.94524e-06
-2.79815e-15
-4.8396e-17
9.81747e-07
3.94197e-17
1.37445e-06
1.94261e-16
1.76715e-06
-1.80626e-15
2.15984e-06
-4.20875e-15
2.55254e-06
2.94524e-06
5.01305e-15
-1.80165e-16
9.81747e-07
4.2565e-18
1.37445e-06
-1.84794e-15
1.76715e-06
-3.88626e-15
2.15984e-06
3.15693e-15
2.55254e-06
2.94524e-06
4.97814e-16
2.53926e-16
9.81747e-07
2.55306e-16
1.37445e-06
2.06585e-15
1.76715e-06
4.50401e-15
2.15984e-06
-2.31006e-15
2.55254e-06
2.94524e-06
5.40446e-16
2.16256e-17
9.81747e-07
-3.21794e-16
1.37445e-06
-1.14902e-15
1.76715e-06
-5.2857e-15
2.15984e-06
-3.76795e-16
2.55254e-06
2.94524e-06
-5.64011e-15
-1.43435e-16
9.81747e-07
1.66384e-16
1.37445e-06
4.19102e-15
1.76715e-06
6.34922e-15
2.15984e-06
-8.058e-16
2.55254e-06
2.94524e-06
8.3901e-16
-6.88461e-17
9.81747e-07
-9.2112e-17
1.37445e-06
-2.76937e-15
1.76715e-06
-3.68881e-16
2.15984e-06
-1.45099e-15
2.55254e-06
2.94524e-06
-1.76864e-16
1.66293e-16
9.81747e-07
-8.87364e-17
1.37445e-06
5.69559e-16
1.76715e-06
-2.10356e-15
2.15984e-06
9.65977e-15
2.55254e-06
2.94524e-06
5.29012e-15
-1.77828e-16
9.81747e-07
-2.05902e-17
1.37445e-06
-3.45552e-16
1.76715e-06
-4.17279e-15
2.15984e-06
-2.62259e-15
2.55254e-06
2.94524e-06
5.36938e-15
1.77741e-16
9.81747e-07
2.04588e-17
1.37445e-06
3.45319e-16
1.76715e-06
4.17251e-15
2.15984e-06
2.62226e-15
2.55254e-06
2.94524e-06
-5.3696e-15
-1.664e-16
9.81747e-07
8.85824e-17
1.37445e-06
-5.69775e-16
1.76715e-06
2.10349e-15
2.15984e-06
-9.66019e-15
2.55254e-06
2.94524e-06
-5.29058e-15
6.87435e-17
9.81747e-07
9.19734e-17
1.37445e-06
2.76924e-15
1.76715e-06
3.68734e-16
2.15984e-06
1.45057e-15
2.55254e-06
2.94524e-06
1.76265e-16
1.4336e-16
9.81747e-07
-1.66457e-16
1.37445e-06
-4.19125e-15
1.76715e-06
-6.34953e-15
2.15984e-06
8.05482e-16
2.55254e-06
2.94524e-06
-8.39688e-16
-2.16963e-17
9.81747e-07
3.21597e-16
1.37445e-06
1.14874e-15
1.76715e-06
5.28551e-15
2.15984e-06
3.76458e-16
2.55254e-06
2.94524e-06
5.63953e-15
-2.5401e-16
9.81747e-07
-2.55508e-16
1.37445e-06
-2.06608e-15
1.76715e-06
-4.50422e-15
2.15984e-06
2.30971e-15
2.55254e-06
2.94524e-06
-5.41111e-16
1.80066e-16
9.81747e-07
-4.36339e-18
1.37445e-06
1.84766e-15
1.76715e-06
3.88595e-15
2.15984e-06
-3.15725e-15
2.55254e-06
2.94524e-06
-4.98342e-16
4.83294e-17
9.81747e-07
-3.95701e-17
1.37445e-06
-1.94401e-16
1.76715e-06
1.80589e-15
2.15984e-06
4.20828e-15
2.55254e-06
2.94524e-06
-5.01359e-15
-8.7005e-17
9.81747e-07
1.01858e-16
1.37445e-06
-2.69325e-15
1.76715e-06
-7.44299e-15
2.15984e-06
-3.2601e-15
2.55254e-06
2.94524e-06
2.79781e-15
1.16418e-16
9.81747e-07
-1.86402e-16
1.37445e-06
1.56222e-15
1.76715e-06
4.21242e-15
2.15984e-06
7.49816e-15
2.55254e-06
2.94524e-06
-7.72406e-16
-1.8817e-18
9.81747e-07
3.88773e-16
1.37445e-06
2.60407e-15
1.76715e-06
-1.94376e-15
2.15984e-06
-8.06643e-15
2.55254e-06
2.94524e-06
9.02959e-15
-1.36974e-16
-2.4213e-16
-3.77081e-16
1.33914e-15
3.68134e-15
-5.9516e-15
-1.13364e-14
4.53785e-06
-4.81533e-16
5.23599e-06
-5.35773e-15
5.93412e-06
-1.13046e-14
6.63225e-06
4.86811e-15
7.33038e-06
-1.11079e-15
8.02851e-06
-8.15966e-15
8.72664e-06
1.30429e-14
9.42478e-06
5.94766e-15
1.01229e-05
-1.99809e-15
1.0821e-05
2.43842e-14
1.15192e-05
1.6186e-14
1.22173e-05
-3.27889e-14
1.29154e-05
-3.05718e-15
1.36136e-05
-1.44428e-14
1.43117e-05
-2.69064e-14
1.50098e-05
7.73685e-15
1.5708e-05
-4.44317e-15
1.64061e-05
-1.80064e-14
1.71042e-05
2.18153e-14
1.78024e-05
8.20494e-15
1.85005e-05
-6.08433e-15
1.91986e-05
3.89143e-14
1.98967e-05
2.05949e-05
9.3987e-15
4.53785e-06
5.20197e-16
5.23599e-06
7.52773e-15
5.93412e-06
-4.4133e-15
6.63225e-06
3.78212e-15
7.33038e-06
1.3383e-14
8.02851e-06
-2.11113e-15
8.72664e-06
8.52741e-15
9.42478e-06
-1.00276e-14
1.01229e-05
1.86587e-15
1.0821e-05
-2.02049e-14
1.15192e-05
-7.01578e-15
1.22173e-05
7.50827e-15
1.29154e-05
2.36067e-14
1.36136e-05
-2.04535e-15
1.43117e-05
1.48323e-14
1.50098e-05
-1.38822e-14
1.5708e-05
2.38703e-15
1.64061e-05
2.04093e-14
1.71042e-05
-7.02279e-15
1.78024e-05
1.20619e-14
1.85005e-05
-2.59486e-14
1.91986e-05
1.84185e-15
1.98967e-05
2.05949e-05
-8.67633e-15
4.53785e-06
1.22919e-14
5.23599e-06
1.88249e-15
5.93412e-06
8.90146e-15
6.63225e-06
-5.10935e-15
7.33038e-06
-2.1992e-14
8.02851e-06
1.22627e-14
8.72664e-06
-5.37559e-15
9.42478e-06
4.45431e-15
1.01229e-05
-1.4307e-14
1.0821e-05
-7.32771e-15
1.15192e-05
7.03897e-15
1.22173e-05
2.39941e-14
1.29154e-05
-7.55537e-15
1.36136e-05
9.79793e-15
1.43117e-05
-1.624e-14
1.50098e-05
4.02917e-14
1.5708e-05
1.44423e-14
1.64061e-05
-1.37077e-14
1.71042e-05
-7.90191e-15
1.78024e-05
-3.92553e-14
1.85005e-05
4.27474e-14
1.91986e-05
-8.85809e-15
1.98967e-05
2.05949e-05
5.98578e-15
4.53785e-06
2.18363e-16
5.23599e-06
-6.43591e-15
5.93412e-06
6.06354e-15
6.63225e-06
-2.09344e-15
7.33038e-06
1.61751e-14
8.02851e-06
-1.88318e-14
8.72664e-06
-2.3519e-15
9.42478e-06
9.17037e-15
1.01229e-05
-4.71321e-15
1.0821e-05
2.16255e-14
1.15192e-05
-2.96467e-14
1.22173e-05
-9.29134e-15
1.29154e-05
-1.89096e-14
1.36136e-05
4.46346e-15
1.43117e-05
3.01527e-14
1.50098e-05
-2.62213e-14
1.5708e-05
4.29974e-16
1.64061e-05
-2.11797e-14
1.71042e-05
1.87096e-14
1.78024e-05
-3.92752e-15
1.85005e-05
-2.91589e-14
1.91986e-05
1.52329e-14
1.98967e-05
2.05949e-05
6.71471e-15
4.53785e-06
-7.3071e-15
5.23599e-06
1.11003e-14
5.93412e-06
-4.24191e-15
6.63225e-06
1.51014e-14
7.33038e-06
-5.21038e-15
8.02851e-06
1.7013e-14
8.72664e-06
-3.9433e-15
9.42478e-06
-2.95653e-16
1.01229e-05
6.60888e-15
1.0821e-05
1.37036e-14
1.15192e-05
1.0183e-14
1.22173e-05
1.82154e-14
1.29154e-05
1.43661e-14
1.36136e-05
2.33382e-14
1.43117e-05
-2.53462e-14
1.50098e-05
2.90688e-14
1.5708e-05
-7.83355e-15
1.64061e-05
3.54144e-14
1.71042e-05
-4.51966e-15
1.78024e-05
4.23612e-14
1.85005e-05
-5.92912e-16
1.91986e-05
-8.73682e-15
1.98967e-05
2.05949e-05
-4.63066e-15
4.53785e-06
5.79708e-15
5.23599e-06
-1.6151e-14
5.93412e-06
-5.97554e-15
6.63225e-06
-8.55615e-15
7.33038e-06
4.22227e-15
8.02851e-06
-8.18846e-15
8.72664e-06
6.99728e-15
9.42478e-06
-2.42313e-14
1.01229e-05
-7.77247e-15
1.0821e-05
-2.2767e-14
1.15192e-05
8.34668e-15
1.22173e-05
-7.40572e-15
1.29154e-05
2.82644e-14
1.36136e-05
-4.57111e-14
1.43117e-05
-8.22545e-15
1.50098e-05
-2.8231e-14
1.5708e-05
-2.34345e-15
1.64061e-05
-6.94615e-15
1.71042e-05
2.21452e-14
1.78024e-05
-3.4114e-14
1.85005e-05
-3.73939e-15
1.91986e-05
-3.23483e-14
1.98967e-05
2.05949e-05
-8.92538e-15
4.53785e-06
-2.28923e-15
5.23599e-06
-2.22455e-15
5.93412e-06
6.61536e-15
6.63225e-06
-3.3891e-15
7.33038e-06
-3.9081e-15
8.02851e-06
-6.41996e-15
8.72664e-06
-7.15979e-15
9.42478e-06
6.80942e-15
1.01229e-05
6.98219e-15
1.0821e-05
-9.06826e-15
1.15192e-05
6.75804e-15
1.22173e-05
-2.88916e-14
1.29154e-05
-1.22368e-14
1.36136e-05
4.80182e-15
1.43117e-05
2.50258e-14
1.50098e-05
3.85812e-15
1.5708e-05
3.60289e-15
1.64061e-05
-2.04879e-14
1.71042e-05
-2.17644e-14
1.78024e-05
3.46237e-15
1.85005e-05
2.90391e-14
1.91986e-05
-1.66174e-15
1.98967e-05
2.05949e-05
6.21553e-15
4.53785e-06
-3.87938e-15
5.23599e-06
1.54214e-14
5.93412e-06
-7.06567e-15
6.63225e-06
-2.21124e-15
7.33038e-06
1.42854e-15
8.02851e-06
-5.49382e-15
8.72664e-06
1.32259e-14
9.42478e-06
6.04514e-15
1.01229e-05
-1.74529e-14
1.0821e-05
2.0884e-14
1.15192e-05
-2.1447e-14
1.22173e-05
1.91318e-14
1.29154e-05
-7.31735e-15
1.36136e-05
3.8483e-14
1.43117e-05
-1.29282e-14
1.50098e-05
-1.88599e-15
1.5708e-05
5.71416e-15
1.64061e-05
-7.59087e-15
1.71042e-05
2.76554e-14
1.78024e-05
1.40927e-14
1.85005e-05
-5.31459e-14
1.91986e-05
3.90771e-14
1.98967e-05
2.05949e-05
-1.49909e-15
4.53785e-06
1.08969e-14
5.23599e-06
-6.59967e-15
5.93412e-06
7.26522e-15
6.63225e-06
6.17355e-15
7.33038e-06
2.48795e-15
8.02851e-06
-9.65068e-16
8.72664e-06
-4.36716e-15
9.42478e-06
-8.90213e-15
1.01229e-05
1.38622e-14
1.0821e-05
1.06886e-14
1.15192e-05
6.24912e-15
1.22173e-05
-1.30614e-16
1.29154e-05
-3.44232e-15
1.36136e-05
-1.10459e-14
1.43117e-05
-1.77684e-14
1.50098e-05
1.76752e-14
1.5708e-05
9.9518e-15
1.64061e-05
3.32483e-15
1.71042e-05
-3.29736e-14
1.78024e-05
-1.04294e-14
1.85005e-05
3.00647e-14
1.91986e-05
-6.00022e-14
1.98967e-05
2.05949e-05
5.16984e-15
4.53785e-06
-7.45588e-15
5.23599e-06
-7.57013e-16
5.93412e-06
6.83877e-15
6.63225e-06
-9.97547e-15
7.33038e-06
-1.6662e-15
8.02851e-06
9.21745e-15
8.72664e-06
-1.34606e-14
9.42478e-06
2.32191e-14
1.01229e-05
1.04723e-14
1.0821e-05
-1.72752e-14
1.15192e-05
-3.02805e-15
1.22173e-05
1.13944e-14
1.29154e-05
-1.9818e-14
1.36136e-05
-4.68125e-15
1.43117e-05
5.03007e-14
1.50098e-05
-2.40483e-14
1.5708e-05
-6.66478e-15
1.64061e-05
1.42566e-14
1.71042e-05
1.64557e-15
1.78024e-05
-6.81628e-15
1.85005e-05
1.44373e-14
1.91986e-05
5.07479e-14
1.98967e-05
2.05949e-05
-6.19748e-15
4.53785e-06
2.8182e-17
5.23599e-06
1.1511e-14
5.93412e-06
-2.06267e-14
6.63225e-06
5.3659e-15
7.33038e-06
1.2205e-15
8.02851e-06
-4.92856e-17
8.72664e-06
1.23921e-14
9.42478e-06
-1.32292e-14
1.01229e-05
-1.88956e-14
1.0821e-05
-4.96688e-15
1.15192e-05
-7.15599e-15
1.22173e-05
-1.4889e-14
1.29154e-05
3.5335e-14
1.36136e-05
-5.51878e-18
1.43117e-05
-4.31407e-14
1.50098e-05
1.35594e-14
1.5708e-05
-2.82619e-14
1.64061e-05
2.44875e-15
1.71042e-05
-1.02431e-14
1.78024e-05
2.37997e-14
1.85005e-05
1.38724e-14
1.91986e-05
-4.55693e-14
1.98967e-05
2.05949e-05
-1.90682e-15
4.53785e-06
1.13043e-15
5.23599e-06
-2.16628e-14
5.93412e-06
9.6227e-15
6.63225e-06
1.51361e-14
7.33038e-06
-1.40659e-14
8.02851e-06
8.09186e-15
8.72664e-06
-2.69609e-14
9.42478e-06
-1.96716e-15
1.01229e-05
2.97144e-14
1.0821e-05
-1.17489e-14
1.15192e-05
1.9864e-14
1.22173e-05
-2.74481e-14
1.29154e-05
-2.06193e-14
1.36136e-05
1.6039e-14
1.43117e-05
-4.61693e-15
1.50098e-05
4.68862e-15
1.5708e-05
4.7965e-14
1.64061e-05
-1.37448e-14
1.71042e-05
3.23674e-14
1.78024e-05
-3.51907e-14
1.85005e-05
-2.49089e-14
1.91986e-05
7.19086e-14
1.98967e-05
2.05949e-05
1.90645e-15
4.53785e-06
-1.13124e-15
5.23599e-06
2.1661e-14
5.93412e-06
-9.62464e-15
6.63225e-06
-1.51383e-14
7.33038e-06
1.40643e-14
8.02851e-06
-8.0942e-15
8.72664e-06
2.69587e-14
9.42478e-06
1.96367e-15
1.01229e-05
-2.97196e-14
1.0821e-05
1.17435e-14
1.15192e-05
-1.98703e-14
1.22173e-05
2.74425e-14
1.29154e-05
2.06122e-14
1.36136e-05
-1.60424e-14
1.43117e-05
4.60856e-15
1.50098e-05
-4.69523e-15
1.5708e-05
-4.79702e-14
1.64061e-05
1.37348e-14
1.71042e-05
-3.23768e-14
1.78024e-05
3.51807e-14
1.85005e-05
2.48967e-14
1.91986e-05
-7.19189e-14
1.98967e-05
2.05949e-05
6.19689e-15
4.53785e-06
-2.89165e-17
5.23599e-06
-1.15118e-14
5.93412e-06
2.06254e-14
6.63225e-06
-5.36772e-15
7.33038e-06
-1.22282e-15
8.02851e-06
4.56516e-17
8.72664e-06
-1.23951e-14
9.42478e-06
1.32246e-14
1.01229e-05
1.88924e-14
1.0821e-05
4.96158e-15
1.15192e-05
7.15151e-15
1.22173e-05
1.48847e-14
1.29154e-05
-3.53429e-14
1.36136e-05
-5.79026e-19
1.43117e-05
4.31332e-14
1.50098e-05
-1.35675e-14
1.5708e-05
2.82503e-14
1.64061e-05
-2.46004e-15
1.71042e-05
1.02374e-14
1.78024e-05
-2.38094e-14
1.85005e-05
-1.3882e-14
1.91986e-05
4.55539e-14
1.98967e-05
2.05949e-05
-5.17048e-15
4.53785e-06
7.45495e-15
5.23599e-06
7.56017e-16
5.93412e-06
-6.83993e-15
6.63225e-06
9.97351e-15
7.33038e-06
1.6636e-15
8.02851e-06
-9.21973e-15
8.72664e-06
1.34587e-14
9.42478e-06
-2.32219e-14
1.01229e-05
-1.0474e-14
1.0821e-05
1.72707e-14
1.15192e-05
3.02407e-15
1.22173e-05
-1.14e-14
1.29154e-05
1.98126e-14
1.36136e-05
4.677e-15
1.43117e-05
-5.03121e-14
1.50098e-05
2.40419e-14
1.5708e-05
6.65439e-15
1.64061e-05
-1.42661e-14
1.71042e-05