/*--------------------------------*- C++ -*----------------------------------*\
  =========                 |
  \\      /  F ield         | OpenFOAM: The Open Source CFD Toolbox
   \\    /   O peration     | Website:  https://openfoam.org
    \\  /    A nd           | Version:  11
     \\/     M anipulation  |
\*---------------------------------------------------------------------------*/
FoamFile
{
    format      ascii;
    class       volScalarField;
    location    "1.18";
    object      p;
}
// * * * * * * * * * * * * * * * * * * * * * * * * * * * * * * * * * * * * * //

dimensions      [0 2 -2 0 0 0 0];

internalField   nonuniform List<scalar> 
2880
(
-0.812339
-0.863776
-0.951228
-0.993201
-1.00799
-1.05789
-0.824723
-0.876256
-0.96275
-1.00428
-1.0089
-1.02766
-0.83635
-0.889267
-0.976723
-1.01935
-1.01661
-1.02025
-0.848764
-0.903202
-0.992634
-1.03788
-1.0334
-1.03196
-0.863615
-0.918527
-1.00941
-1.05787
-1.05751
-1.05459
-0.879772
-0.934536
-1.026
-1.07746
-1.08445
-1.08265
-0.895413
-0.950505
-1.04135
-1.09525
-1.10954
-1.11073
-0.909427
-0.965605
-1.05435
-1.11014
-1.13049
-1.13404
-0.921266
-0.978299
-1.06441
-1.12124
-1.14591
-1.15031
-0.930155
-0.987783
-1.07114
-1.12794
-1.15491
-1.15851
-0.93551
-0.993607
-1.07436
-1.12986
-1.15702
-1.15806
-0.936961
-0.995609
-1.07397
-1.12689
-1.15212
-1.14878
-0.934425
-0.994006
-1.06984
-1.11922
-1.14052
-1.13109
-0.92807
-0.989193
-1.06241
-1.10734
-1.1231
-1.10587
-0.918503
-0.98155
-1.05206
-1.09194
-1.10086
-1.07467
-0.906571
-0.971598
-1.03929
-1.07397
-1.07532
-1.03953
-0.893283
-0.960017
-1.02478
-1.05447
-1.04826
-1.00281
-0.879709
-0.947615
-1.00926
-1.03457
-1.02157
-0.967319
-0.866883
-0.935302
-0.993514
-1.01538
-0.997133
-0.93614
-0.855722
-0.924172
-0.978449
-0.997733
-0.976684
-0.912325
-0.847044
-0.91579
-0.965222
-0.981537
-0.961711
-0.897599
-0.841983
-0.911411
-0.95523
-0.966422
-0.951656
-0.892089
-0.84221
-0.909357
-0.947322
-0.947754
-0.943374
-0.904871
-0.847245
-0.902485
-0.926883
-0.923416
-0.940558
-0.977626
-0.510211
-0.162881
-0.0268224
0.0682276
0.134803
0.176821
0.20278
0.218978
0.229558
0.237021
0.24271
0.247247
0.250917
0.253905
0.256346
0.258332
0.259942
0.261241
0.262147
0.262247
0.261806
0.265536
0.280663
0.278513
-0.69824
-0.372834
-0.178489
-0.0453809
0.0440393
0.102179
0.139927
0.164956
0.182241
0.194891
0.204668
0.212481
0.218811
0.223973
0.22819
0.231622
0.234399
0.236631
0.238285
0.238995
0.239027
0.243006
0.258234
0.256683
-0.790057
-0.530684
-0.310147
-0.150974
-0.043396
0.029027
0.0777884
0.111303
0.135162
0.152971
0.166853
0.177982
0.187031
0.19444
0.200516
0.205482
0.209515
0.212764
0.215238
0.216622
0.217166
0.2213
0.236337
0.235824
-0.866478
-0.647424
-0.419202
-0.245879
-0.124955
-0.0407153
0.0178356
0.0591514
0.089168
0.111945
0.129818
0.144215
0.155979
0.165666
0.173662
0.180246
0.185634
0.190005
0.193402
0.19556
0.196666
0.200787
0.215207
0.216506
-0.935068
-0.738043
-0.510175
-0.32983
-0.199307
-0.105631
-0.0388107
0.00938773
0.0450772
0.0724369
0.09405
0.111585
0.125994
0.137943
0.147893
0.156174
0.163033
0.168672
0.173166
0.176301
0.178128
0.181977
0.194919
0.199546
-0.991417
-0.809487
-0.58647
-0.403023
-0.265692
-0.164839
-0.0912288
-0.037157
0.00347247
0.0349344
0.0599999
0.0804227
0.0973228
0.111457
0.12335
0.133375
0.141827
0.148929
0.154817
0.159379
0.162505
0.166186
0.17634
0.186911
-1.03523
-0.865099
-0.649468
-0.465557
-0.323634
-0.217819
-0.138752
-0.0798581
-0.0350872
-9.99471e-05
0.0279658
0.0509639
0.0701218
0.0862711
0.099997
0.111729
0.1218
0.130479
0.137959
0.144218
0.14913
0.154143
0.163841
0.170796
-1.06807
-0.906997
-0.69977
-0.517353
-0.373002
-0.264181
-0.180864
-0.118249
-0.0701824
-0.0323182
-0.00176565
0.0234032
0.0444824
0.0623589
0.0776594
0.0908436
0.10226
0.112171
0.120706
0.127738
0.133286
0.139677
0.15076
0.144254
-1.09034
-0.936182
-0.737683
-0.558473
-0.41408
-0.30306
-0.217233
-0.152008
-0.101491
-0.0614351
-0.0289541
-0.00208558
0.0205034
0.0397294
0.0562339
0.070474
0.0827777
0.0933677
0.102309
0.10943
0.114915
0.121563
0.13267
0.122021
-1.10156
-0.952892
-0.76335
-0.589038
-0.44634
-0.334023
-0.247891
-0.180937
-0.128771
-0.0872167
-0.053386
-0.0253122
-0.00164773
0.0185352
0.0358801
0.0508325
0.0637006
0.0746856
0.0838484
0.0910619
0.0966354
0.103426
0.114358
0.103625
-1.10134
-0.957278
-0.776798
-0.608915
-0.469405
-0.357856
-0.272372
-0.204812
-0.151843
-0.109467
-0.0748602
-0.0460722
-0.0217603
-0.000996933
0.0168582
0.0322434
0.0454573
0.0567011
0.0660611
0.0734833
0.0793597
0.0863987
0.097178
0.0876174
-1.08979
-0.949683
-0.778247
-0.618075
-0.483495
-0.37495
-0.289999
-0.223605
-0.170621
-0.128043
-0.0932035
-0.0641702
-0.0396157
-0.0186213
-0.000550946
0.0150316
0.0284263
0.0398438
0.0494008
0.0571096
0.063403
0.0707474
0.0814509
0.0736492
-1.06757
-0.930528
-0.768177
-0.616835
-0.488821
-0.385016
-0.301491
-0.237112
-0.184943
-0.142831
-0.108283
-0.0794394
-0.0550131
-0.0341036
-0.0160802
-0.000504301
0.0129309
0.0244478
0.0341879
0.042212
0.0489512
0.0566193
0.0673356
0.0615981
-1.03597
-0.900839
-0.747305
-0.605714
-0.485467
-0.387736
-0.30805
-0.245091
-0.194764
-0.153804
-0.120027
-0.091762
-0.0677932
-0.0472472
-0.0295021
-0.0141168
-0.000775373
0.0107548
0.0206316
0.0289467
0.0361028
0.0440778
0.0548696
0.0513235
-0.996546
-0.862532
-0.717098
-0.585704
-0.474229
-0.383198
-0.308913
-0.248594
-0.200425
-0.161064
-0.128452
-0.101095
-0.0778598
-0.0579126
-0.0406461
-0.0256189
-0.0125071
-0.00106958
0.00886183
0.0173966
0.0248979
0.033129
0.0440123
0.0426563
-0.95092
-0.81772
-0.679796
-0.558375
-0.456237
-0.37249
-0.303896
-0.247743
-0.202194
-0.164763
-0.133638
-0.107459
-0.0851817
-0.0660241
-0.0494032
-0.0348831
-0.0221352
-0.0109119
-0.0010373
0.00760802
0.0153425
0.0237353
0.0346746
0.0354144
-0.900781
-0.768539
-0.63768
-0.525763
-0.432935
-0.356804
-0.294162
-0.242568
-0.200168
-0.165057
-0.135711
-0.110934
-0.0897937
-0.0715742
-0.05573
-0.0418406
-0.0295793
-0.0186941
-0.0090013
-0.000374782
0.00745955
0.015882
0.026771
0.0294112
-0.848692
-0.716202
-0.592599
-0.489894
-0.405983
-0.337359
-0.280708
-0.233749
-0.194783
-0.162258
-0.134901
-0.111688
-0.0918102
-0.0746316
-0.0596554
-0.0464875
-0.034812
-0.0243777
-0.0149954
-0.00653886
0.00123405
0.0095096
0.0201619
0.0244381
-0.796822
-0.662049
-0.545982
-0.452402
-0.376986
-0.31548
-0.264583
-0.222157
-0.18667
-0.156823
-0.131547
-0.109979
-0.0914286
-0.0753441
-0.0612844
-0.0488909
-0.0378683
-0.0279739
-0.01902
-0.0108796
-0.00333784
0.00458933
0.0147046
0.02023
-0.747274
-0.607387
-0.498986
-0.414588
-0.347339
-0.292485
-0.246924
-0.20874
-0.176576
-0.149329
-0.126099
-0.106162
-0.088933
-0.0739394
-0.0607978
-0.0491905
-0.0388489
-0.0295451
-0.0210975
-0.0133763
-0.00620774
0.00117688
0.0103732
0.0166063
-0.702194
-0.553673
-0.452898
-0.377636
-0.318253
-0.269573
-0.228845
-0.194479
-0.165328
-0.140461
-0.119121
-0.100698
-0.0847012
-0.0707298
-0.0584549
-0.0475997
-0.0379259
-0.0292242
-0.0213224
-0.0140986
-0.0074072
-0.000698821
0.00721657
0.013528
-0.663448
-0.501957
-0.409139
-0.34278
-0.290896
-0.247847
-0.211399
-0.180357
-0.153809
-0.130992
-0.111277
-0.0941542
-0.0792143
-0.0661227
-0.0546019
-0.0444149
-0.0353488
-0.0272175
-0.0199047
-0.0133301
-0.00723565
-0.00120174
0.00527828
0.0110205
-0.62913
-0.449923
-0.368928
-0.311342
-0.266363
-0.228336
-0.195595
-0.167352
-0.142946
-0.121783
-0.103348
-0.0872252
-0.0730811
-0.0606446
-0.0496937
-0.0400423
-0.0315305
-0.0239925
-0.0172774
-0.0111846
-0.0056602
-0.000485342
0.00444579
0.00923985
-0.577734
-0.390765
-0.333144
-0.284727
-0.245657
-0.211863
-0.18226
-0.156346
-0.133669
-0.113769
-0.0962475
-0.0807786
-0.0671032
-0.0550146
-0.0443488
-0.0349719
-0.0267697
-0.0196411
-0.0134238
-0.00794464
-0.00318615
0.00113973
0.00476097
0.00883898
-0.295947
-0.285078
-0.269977
-0.246271
-0.24088
-0.183715
-0.295226
-0.285226
-0.271478
-0.250506
-0.247833
-0.2076
-0.294039
-0.285745
-0.274
-0.256251
-0.256813
-0.230173
-0.293755
-0.286805
-0.27695
-0.261987
-0.263812
-0.245232
-0.294479
-0.288426
-0.28015
-0.268178
-0.26822
-0.254318
-0.295773
-0.290559
-0.283624
-0.273802
-0.27187
-0.261247
-0.298186
-0.293187
-0.287448
-0.279192
-0.275866
-0.267099
-0.301474
-0.296243
-0.291656
-0.284636
-0.280361
-0.2721
-0.304241
-0.299551
-0.29618
-0.290281
-0.285399
-0.276969
-0.306498
-0.303041
-0.300949
-0.296214
-0.291065
-0.282264
-0.308779
-0.306643
-0.305898
-0.302492
-0.297465
-0.288433
-0.311103
-0.310233
-0.310963
-0.309153
-0.304682
-0.295791
-0.313368
-0.31368
-0.316079
-0.316209
-0.312759
-0.304466
-0.315479
-0.316851
-0.321183
-0.323656
-0.321726
-0.314686
-0.317361
-0.319597
-0.326218
-0.331471
-0.331576
-0.32664
-0.318986
-0.321876
-0.331127
-0.339608
-0.342241
-0.340508
-0.320965
-0.323888
-0.335826
-0.347986
-0.353539
-0.356527
-0.323486
-0.326282
-0.340343
-0.356449
-0.365078
-0.375174
-0.325479
-0.328827
-0.344519
-0.364767
-0.376523
-0.396998
-0.326664
-0.330913
-0.348062
-0.372617
-0.388846
-0.420673
-0.32727
-0.332149
-0.350491
-0.37927
-0.401137
-0.446039
-0.326121
-0.332129
-0.351255
-0.383362
-0.412246
-0.474249
-0.323546
-0.331172
-0.35057
-0.383914
-0.420503
-0.502879
-0.322208
-0.330605
-0.350289
-0.383884
-0.425709
-0.523887
-0.402692
-0.333352
-0.303523
-0.264035
-0.229605
-0.199105
-0.172007
-0.147981
-0.126708
-0.107805
-0.0909262
-0.0758237
-0.0623099
-0.0502422
-0.0395211
-0.0300773
-0.0218571
-0.0148024
-0.00885053
-0.00385329
0.000170191
0.00357848
0.00558157
0.00830076
-0.343234
-0.305244
-0.283741
-0.249625
-0.218364
-0.190221
-0.165043
-0.142573
-0.122479
-0.104435
-0.0880934
-0.0732412
-0.0597349
-0.0474797
-0.0364375
-0.0266134
-0.018037
-0.0107324
-0.00472142
7.29466e-05
0.00356358
0.00619761
0.00681308
0.00736688
-0.3191
-0.289097
-0.270152
-0.239669
-0.210762
-0.184393
-0.160728
-0.139586
-0.120622
-0.103454
-0.0877347
-0.0732325
-0.0598239
-0.0474612
-0.0361436
-0.0259187
-0.016893
-0.00919379
-0.00294684
0.0017797
0.00491912
0.00664755
0.00676884
0.00548869
-0.302367
-0.276546
-0.259384
-0.231894
-0.204897
-0.179971
-0.157552
-0.137543
-0.119634
-0.103423
-0.088565
-0.0747584
-0.0618423
-0.0497804
-0.0386146
-0.0284423
-0.0194081
-0.0116936
-0.00549237
-0.000968599
0.00175605
0.00265346
0.00163141
-0.000976406
-0.29052
-0.266049
-0.249946
-0.224514
-0.199083
-0.175253
-0.153718
-0.134545
-0.117458
-0.1021
-0.0881158
-0.0752081
-0.0631745
-0.0519151
-0.0414464
-0.0318629
-0.0232897
-0.0158934
-0.00987062
-0.00542169
-0.0027665
-0.00236132
-0.00507419
-0.00863169
-0.280763
-0.259602
-0.241572
-0.217137
-0.192482
-0.169213
-0.148081
-0.129263
-0.112588
-0.0977332
-0.0843836
-0.0722717
-0.0611698
-0.0509341
-0.041524
-0.0329655
-0.0252935
-0.0186203
-0.0131112
-0.00893297
-0.00630703
-0.00596351
-0.00935617
-0.0128473
-0.27442
-0.254433
-0.234391
-0.209824
-0.185084
-0.161711
-0.140494
-0.121659
-0.105101
-0.0906024
-0.0778628
-0.0665724
-0.05654
-0.0476464
-0.0398518
-0.0330368
-0.0271043
-0.0220606
-0.01789
-0.0145577
-0.0121009
-0.0108602
-0.0110461
-0.0088228
-0.271183
-0.250561
-0.228437
-0.202853
-0.177265
-0.153176
-0.131382
-0.112111
-0.0952751
-0.080688
-0.0681066
-0.0572983
-0.0480713
-0.0402479
-0.0336186
-0.0280688
-0.0235411
-0.0198214
-0.016633
-0.0136726
-0.010607
-0.00685839
-0.00140674
0.00434019
-0.270371
-0.248201
-0.223655
-0.196332
-0.169225
-0.143798
-0.1208
-0.100481
-0.0828373
-0.0677383
-0.0549805
-0.0443758
-0.0357405
-0.0288963
-0.0236546
-0.0198143
-0.0171035
-0.0151582
-0.0135295
-0.0117096
-0.00907277
-0.00451393
0.00308967
0.0103796
-0.271547
-0.247405
-0.219982
-0.190296
-0.161086
-0.13385
-0.109359
-0.0878903
-0.0694598
-0.0539584
-0.0412267
-0.0310804
-0.0233413
-0.017824
-0.0143124
-0.0125182
-0.0120694
-0.0124998
-0.0132201
-0.0135291
-0.0125963
-0.00917755
-0.00155714
0.00727967
-0.274556
-0.248053
-0.217368
-0.184783
-0.152997
-0.123591
-0.0973865
-0.0746702
-0.0554638
-0.0396611
-0.0271003
-0.0175847
-0.0108933
-0.00678196
-0.00495982
-0.00506121
-0.00664243
-0.00915115
-0.0118571
-0.0138663
-0.014176
-0.0114982
-0.00463879
0.00538147
-0.279328
-0.250072
-0.215739
-0.179804
-0.145084
-0.113302
-0.0852851
-0.0613264
-0.0414224
-0.0254179
-0.0131292
-0.00432754
0.00126799
0.00398397
0.00421548
0.00241508
-0.000875607
-0.004947
-0.00894591
-0.0119236
-0.0128662
-0.0103928
-0.00382022
0.00745346
-0.285802
-0.253455
-0.215
-0.175313
-0.137441
-0.103203
-0.0734215
-0.0483441
-0.027958
-0.0120561
-0.000330537
0.00756789
0.0120478
0.0135514
0.0125538
0.00960897
0.00539023
0.000682851
-0.00369044
-0.00678932
-0.00781865
-0.00543841
0.00015606
0.0122329
-0.293941
-0.258021
-0.214946
-0.171153
-0.130067
-0.0934898
-0.0623046
-0.0366069
-0.0161466
-0.000601812
0.0104647
0.0175459
0.0211566
0.0218159
0.0201048
0.0166808
0.0122414
0.00746903
0.00299946
2.10244e-05
-0.0011691
2.86796e-05
0.00220188
0.013769
-0.303652
-0.2635
-0.215122
-0.167153
-0.122999
-0.0845953
-0.052441
-0.0264302
-0.00614841
0.00889513
0.0192596
0.0255807
0.028494
0.0286295
0.0267145
0.0233112
0.019274
0.015072
0.0105024
0.00707664
0.00681107
0.0105877
0.0141033
0.0210562
-0.314725
-0.269414
-0.21509
-0.162973
-0.116166
-0.0762962
-0.0435982
-0.0177382
0.00191894
0.0161469
0.025733
0.0314571
0.0340834
0.0341504
0.0326326
0.029525
0.0258013
0.0232698
0.022849
0.0230071
0.0227144
0.0234667
0.0243706
0.0280895
-0.326743
-0.274975
-0.214299
-0.158144
-0.109097
-0.0684174
-0.035985
-0.010893
0.00788082
0.0212881
0.0302381
0.0355854
0.0383054
0.0385446
0.0376428
0.0376724
0.0375387
0.0365207
0.0352453
0.0345515
0.0334311
0.0311981
0.0295976
0.0347818
-0.338858
-0.279414
-0.211931
-0.152143
-0.101741
-0.0611769
-0.0295961
-0.00558916
0.0121878
0.0248287
0.0332992
0.0385086
0.0417996
0.0449574
0.0467995
0.0470462
0.0468853
0.0465107
0.04524
0.0433697
0.0414828
0.0397676
0.0394856
0.0424418
-0.349346
-0.282055
-0.207535
-0.144846
-0.094094
-0.0544329
-0.0241535
-0.00125039
0.0157548
0.0279834
0.0366509
0.0433745
0.0484921
0.051849
0.0542514
0.0554955
0.055451
0.0549097
0.0544996
0.0536168
0.0520401
0.0504875
0.0508281
0.0489083
-0.356055
-0.282348
-0.201017
-0.136289
-0.0860776
-0.047858
-0.0187943
0.00332968
0.0200154
0.0325474
0.0423305
0.0500385
0.0557859
0.0597923
0.0620949
0.0634177
0.0645794
0.0650471
0.0647335
0.0637603
0.0621333
0.060971
0.063001
0.0587006
-0.357031
-0.278594
-0.192291
-0.126245
-0.0771495
-0.040418
-0.0123075
0.00936126
0.0260835
0.0393241
0.0498256
0.0579906
0.0637469
0.067624
0.0707632
0.0731383
0.0746054
0.0752945
0.0752236
0.0744301
0.0731779
0.0732538
0.0784009
0.0732143
-0.350546
-0.264714
-0.178658
-0.113461
-0.0661666
-0.0308413
-0.00359471
0.0176834
0.0345111
0.047933
0.0584563
0.0662589
0.072303
0.0771585
0.0807673
0.0834365
0.0852506
0.0862731
0.0865774
0.0862657
0.0857043
0.0872847
0.0955106
0.0889237
-0.333349
-0.23176
-0.154785
-0.0957426
-0.0516329
-0.018069
0.00803698
0.0286302
0.0450271
0.0580366
0.0682997
0.0764005
0.0827527
0.0877646
0.0916471
0.0945768
0.0966772
0.0980316
0.0987384
0.0988758
0.098816
0.101458
0.111821
0.103464
-0.283587
-0.179189
-0.120023
-0.0719454
-0.0328015
-0.0017905
0.0226832
0.0421395
0.0577068
0.0701707
0.080142
0.0880959
0.09444
0.0994964
0.103491
0.10658
0.108874
0.110467
0.111469
0.111937
0.112284
0.115886
0.128103
0.118066
0.233401
0.238341
0.270386
0.329746
0.380072
0.341934
0.235424
0.238576
0.26241
0.301861
0.312164
0.285983
0.236667
0.238651
0.254305
0.280312
0.27862
0.236832
0.235543
0.237148
0.246346
0.263479
0.2566
0.21339
0.232772
0.234259
0.239037
0.251031
0.243637
0.207687
0.229482
0.230773
0.232809
0.24219
0.236649
0.209314
0.226169
0.227263
0.22773
0.236015
0.233165
0.213344
0.222503
0.223877
0.223631
0.231643
0.231581
0.218147
0.218629
0.220636
0.220269
0.228451
0.231066
0.223222
0.214853
0.217556
0.217427
0.226006
0.231238
0.228468
0.211422
0.214665
0.214943
0.223969
0.231877
0.233959
0.208516
0.211999
0.212697
0.222199
0.232838
0.239591
0.206237
0.209624
0.21057
0.22046
0.233918
0.244664
0.204639
0.207646
0.208474
0.218458
0.234953
0.249209
0.203723
0.206129
0.206426
0.216042
0.235802
0.253119
0.203487
0.20517
0.204347
0.212947
0.236192
0.256259
0.20397
0.204803
0.202252
0.208829
0.235715
0.258321
0.205177
0.205048
0.200115
0.203436
0.234004
0.258411
0.206738
0.205769
0.197658
0.196793
0.230715
0.254937
0.205411
0.206281
0.194704
0.188708
0.225325
0.246122
0.200433
0.205884
0.191161
0.179061
0.217898
0.230201
0.201509
0.205804
0.18737
0.168603
0.210509
0.202347
0.21003
0.206488
0.184063
0.158399
0.20684
0.133274
0.214628
0.206598
0.180939
0.148718
0.186574
-0.075013
-0.141212
-0.126909
-0.0820225
-0.043577
-0.0101789
0.0175791
0.0399641
0.0579384
0.0724173
0.0840969
0.0935244
0.101142
0.107306
0.112287
0.116288
0.119458
0.121909
0.123745
0.125069
0.125875
0.126548
0.130843
0.14441
0.132851
-0.0469835
-0.0746093
-0.0435942
-0.0128169
0.015168
0.039349
0.0593148
0.0755455
0.0887257
0.0994473
0.108185
0.115322
0.121167
0.125964
0.129898
0.133103
0.13568
0.137716
0.139268
0.140261
0.141077
0.145765
0.160194
0.147554
0.0136198
-0.0219986
-0.00432949
0.0191452
0.0421258
0.0627157
0.0801248
0.094481
0.106249
0.115901
0.123837
0.130388
0.135822
0.140351
0.144135
0.147291
0.14991
0.152064
0.153765
0.154863
0.155733
0.160621
0.1756
0.162543
0.0635354
0.0266566
0.0337382
0.0509485
0.0696015
0.0868985
0.101828
0.114307
0.124631
0.133165
0.140241
0.146141
0.151093
0.155282
0.158847
0.161893
0.164497
0.166717
0.168517
0.16966
0.170497
0.175383
0.190602
0.178056
0.104498
0.0687971
0.069354
0.0818046
0.096886
0.111315
0.123973
0.134666
0.143581
0.151
0.157197
0.162409
0.166831
0.170619
0.173897
0.176758
0.17927
0.181479
0.183323
0.184497
0.185278
0.189975
0.205065
0.194409
0.136678
0.104507
0.101965
0.111192
0.123504
0.135555
0.146222
0.155284
0.162872
0.169216
0.174544
0.179052
0.182904
0.186234
0.18915
0.191737
0.194064
0.196177
0.198014
0.199274
0.200131
0.204465
0.218748
0.212515
0.161578
0.134661
0.131525
0.138899
0.149218
0.159377
0.168355
0.17597
0.182345
0.187679
0.192167
0.195971
0.199226
0.202045
0.204521
0.206728
0.208734
0.210591
0.212292
0.213642
0.214612
0.217583
0.228298
0.236455
0.181145
0.160343
0.158296
0.164929
0.17395
0.182668
0.190252
0.19661
0.201896
0.206303
0.209998
0.213115
0.215766
0.21804
0.220009
0.221727
0.223238
0.224586
0.225803
0.226797
0.227211
0.226403
0.220258
0.270217
0.197015
0.182571
0.182688
0.189438
0.197747
0.205416
0.211868
0.217149
0.221474
0.225042
0.228003
0.230472
0.232538
0.234274
0.235729
0.236939
0.237926
0.238724
0.239315
0.239342
0.238157
0.237839
0.248649
0.267623
0.210365
0.202171
0.205159
0.212671
0.220738
0.227678
0.233219
0.237581
0.241064
0.24388
0.246173
0.248044
0.24957
0.250809
0.251801
0.252565
0.253119
0.253487
0.253594
0.252964
0.251346
0.252924
0.268027
0.274405
0.221912
0.219771
0.226173
0.234927
0.24311
0.249562
0.254366
0.257938
0.260677
0.262821
0.264507
0.265832
0.266867
0.267664
0.268256
0.268657
0.268881
0.268951
0.26876
0.267809
0.266103
0.268539
0.284734
0.28593
0.232166
0.235907
0.246208
0.256546
0.265064
0.27121
0.275401
0.278277
0.280346
0.281876
0.283004
0.283826
0.284413
0.284816
0.285061
0.285159
0.285121
0.284964
0.284563
0.283408
0.281626
0.284376
0.300821
0.29965
0.241832
0.251173
0.265721
0.277858
0.286862
0.292797
0.296446
0.298676
0.300115
0.301063
0.301662
0.302008
0.302176
0.302216
0.302152
0.301988
0.30173
0.301389
0.300826
0.299525
0.297677
0.300528
0.316818
0.314439
0.250867
0.266118
0.285145
0.299188
0.308756
0.314514
0.317632
0.319221
0.32003
0.3204
0.320474
0.320352
0.320112
0.319806
0.319451
0.319047
0.318591
0.318086
0.317384
0.315969
0.31408
0.316927
0.332784
0.329811
0.259366
0.281152
0.304835
0.320888
0.331019
0.336559
0.339097
0.339997
0.340139
0.339901
0.339428
0.338825
0.338171
0.337518
0.336879
0.336243
0.3356
0.334943
0.334116
0.332614
0.330712
0.33349
0.348692
0.345483
0.267449
0.296626
0.325225
0.343368
0.353945
0.359138
0.360977
0.361088
0.360478
0.359571
0.358505
0.357385
0.356295
0.355281
0.35435
0.353481
0.352651
0.351846
0.350905
0.34934
0.347453
0.350114
0.364478
0.361261
0.275251
0.312996
0.346872
0.367049
0.377837
0.382452
0.383397
0.382561
0.381076
0.379403
0.377672
0.375984
0.374418
0.373016
0.371777
0.370664
0.369644
0.36869
0.36764
0.366032
0.364185
0.36669
0.380065
0.376991
0.282972
0.331025
0.370359
0.392362
0.40302
0.406695
0.406463
0.404463
0.401937
0.399373
0.396884
0.394556
0.392463
0.390638
0.389066
0.387696
0.386476
0.385369
0.384212
0.382577
0.380789
0.383101
0.395368
0.392533
0.291084
0.351781
0.396356
0.419847
0.429816
0.432043
0.430245
0.426806
0.423037
0.41943
0.416071
0.413021
0.410341
0.408051
0.406118
0.40447
0.403039
0.401773
0.40051
0.398859
0.397141
0.399228
0.410292
0.407753
0.300374
0.376486
0.425706
0.450055
0.458478
0.458611
0.454759
0.449552
0.444309
0.439492
0.43514
0.431279
0.427947
0.425145
0.42282
0.420874
0.419219
0.417785
0.416414
0.414752
0.41311
0.414943
0.424739
0.42252
0.311322
0.406612
0.459471
0.483469
0.489171
0.486414
0.47995
0.472601
0.465638
0.459437
0.453968
0.449203
0.445154
0.441796
0.439047
0.436784
0.43489
0.433279
0.431795
0.430125
0.42856
0.430122
0.438617
0.436712
0.324551
0.446292
0.49937
0.520514
0.521923
0.515326
0.505659
0.495783
0.48685
0.4791
0.472396
0.466645
0.46182
0.457864
0.454664
0.452063
0.449917
0.448119
0.446515
0.444835
0.443355
0.444661
0.451864
0.450155
0.352687
0.506306
0.547647
0.561259
0.556418
0.544991
0.531573
0.518832
0.507709
0.498269
0.490234
0.48343
0.47778
0.473193
0.469518
0.466563
0.464152
0.462153
0.460418
0.458722
0.457338
0.458437
0.464331
0.462465
0.450911
0.594859
0.604162
0.604695
0.591824
0.574777
0.557213
0.541376
0.527917
0.516688
0.50726
0.49936
0.492856
0.487615
0.483448
0.480124
0.477431
0.475215
0.473328
0.471589
0.470266
0.471124
0.475708
0.47368
1.1006
1.09093
1.10029
1.12812
1.1635
1.3754
1.10293
1.09386
1.10005
1.11777
1.14175
1.27177
1.10473
1.09834
1.10147
1.11224
1.11915
1.17236
1.10498
1.10083
1.10151
1.10671
1.1014
1.1095
1.10419
1.10099
1.09954
1.09973
1.08714
1.07435
1.10277
1.09976
1.09633
1.09224
1.07527
1.05368
1.10083
1.09795
1.09255
1.08506
1.0652
1.03978
1.09849
1.09599
1.08861
1.07839
1.05645
1.02925
1.09595
1.09413
1.08477
1.07223
1.04864
1.02047
1.09348
1.09254
1.08121
1.06653
1.04142
1.01243
1.09132
1.09138
1.07809
1.06129
1.03451
1.00442
1.08967
1.09078
1.0755
1.0565
1.0277
0.995894
1.08864
1.0908
1.07349
1.05219
1.02081
0.986419
1.0883
1.09142
1.07211
1.04838
1.0137
0.975673
1.08862
1.09262
1.07134
1.0451
1.00633
0.963419
1.08949
1.09422
1.07113
1.04239
0.998751
0.949467
1.09076
1.09599
1.07139
1.04033
0.991097
0.93359
1.09219
1.09764
1.07196
1.03908
0.983659
0.915764
1.09355
1.09886
1.07275
1.03895
0.976961
0.896397
1.09461
1.09954
1.07395
1.04067
0.971854
0.876237
1.09526
1.10015
1.07648
1.04575
0.969804
0.857375
1.09582
1.10188
1.08185
1.05576
0.973707
0.846222
1.09699
1.10534
1.08969
1.06803
0.987988
0.858834
1.09851
1.10805
1.09419
1.07137
1.01817
0.905827
0.675981
0.684001
0.662294
0.648374
0.626754
0.60378
0.581945
0.562948
0.547116
0.534072
0.523233
0.514225
0.506859
0.500957
0.496291
0.492589
0.489603
0.487153
0.485094
0.483282
0.481948
0.482455
0.485801
0.484008
0.785797
0.759109
0.715413
0.688946
0.65946
0.63095
0.605062
0.583041
0.564923
0.550118
0.537901
0.527813
0.519601
0.513049
0.507889
0.503811
0.50053
0.497844
0.495609
0.493712
0.492324
0.492427
0.494713
0.493466
0.854454
0.814332
0.759518
0.724108
0.688501
0.655354
0.625922
0.601182
0.580978
0.564542
0.55103
0.539916
0.5309
0.523724
0.518088
0.513646
0.51008
0.507165
0.504763
0.502783
0.501345
0.501107
0.502503
0.501648
0.898127
0.852351
0.793973
0.753041
0.713129
0.676405
0.644083
0.617026
0.594999
0.577106
0.562414
0.550354
0.540589
0.532829
0.526742
0.521954
0.518117
0.514987
0.512425
0.510362
0.508872
0.50835
0.50902
0.508484
0.925916
0.878056
0.819995
0.775889
0.733166
0.693866
0.65931
0.63037
0.606805
0.587645
0.571904
0.558987
0.548532
0.540227
0.533719
0.528606
0.524516
0.521186
0.518476
0.51633
0.514784
0.514034
0.514152
0.513863
0.943249
0.895305
0.839006
0.793177
0.748765
0.707711
0.671488
0.641057
0.616224
0.59599
0.579341
0.56567
0.554599
0.545798
0.538899
0.533484
0.529161
0.52565
0.522806
0.520576
0.518972
0.518055
0.517809
0.51769
0.953772
0.906521
0.852194
0.805521
0.76018
0.717948
0.680496
0.648903
0.62305
0.601937
0.584533
0.570229
0.558632
0.549401
0.542158
0.536476
0.531948
0.528279
0.525317
0.523007
0.52134
0.520322
0.51991
0.519881
0.959447
0.912867
0.860411
0.813411
0.767587
0.724579
0.686246
0.653775
0.627134
0.605336
0.587341
0.572535
0.560515
0.550929
0.543396
0.537485
0.532784
0.528987
0.525927
0.523539
0.521809
0.52076
0.520385
0.520364
0.961207
0.915341
0.864277
0.817154
0.771105
0.727644
0.688736
0.655652
0.628444
0.606142
0.587708
0.572527
0.560181
0.550315
0.542545
0.536447
0.531606
0.527708
0.524571
0.522111
0.52032
0.519309
0.519176
0.51908
0.959574
0.914137
0.864098
0.816938
0.770866
0.727226
0.688004
0.654536
0.626951
0.604311
0.585586
0.57015
0.557577
0.547506
0.539558
0.533314
0.528368
0.524398
0.521206
0.518681
0.516829
0.515926
0.516233
0.515981
0.954815
0.909399
0.860014
0.812866
0.766932
0.723337
0.68403
0.650383
0.622598
0.599782
0.580909
0.565344
0.552649
0.542457
0.534394
0.528054
0.523039
0.51903
0.515807
0.513226
0.511317
0.510585
0.511519
0.511033
0.946935
0.901068
0.85198
0.804882
0.759229
0.715897
0.676731
0.643117
0.615316
0.59249
0.573621
0.55806
0.545356
0.535135
0.52703
0.52065
0.515611
0.511596
0.508367
0.505742
0.503782
0.503284
0.505017
0.504223
0.935705
0.88887
0.83974
0.792773
0.747575
0.704756
0.665987
0.63264
0.605025
0.582371
0.563671
0.548259
0.535668
0.525522
0.517459
0.511103
0.506089
0.502107
0.498902
0.49625
0.49425
0.494043
0.496732
0.495557
0.920676
0.872296
0.822859
0.776189
0.731692
0.689697
0.651636
0.618832
0.591639
0.569361
0.551014
0.53591
0.52357
0.513613
0.505685
0.499429
0.494498
0.490594
0.487447
0.484791
0.482771
0.482919
0.486713
0.485031
0.901098
0.850566
0.800704
0.754628
0.711205
0.670442
0.633477
0.601554
0.575064
0.5534
0.535613
0.520996
0.509059
0.499419
0.491732
0.485659
0.480875
0.477099
0.474047
0.471412
0.469373
0.46988
0.474909
0.472866
0.875841
0.822599
0.772389
0.727415
0.685627
0.646644
0.61127
0.580648
0.555202
0.534433
0.517445
0.503516
0.49215
0.482968
0.475639
0.469842
0.465277
0.461681
0.458764
0.456172
0.454109
0.454944
0.461276
0.45904
0.843313
0.786972
0.736728
0.693683
0.654362
0.617896
0.584746
0.555947
0.531963
0.512421
0.496505
0.48349
0.472882
0.464314
0.45747
0.452051
0.447785
0.444428
0.441689
0.43917
0.437086
0.438232
0.4459
0.443541
0.801233
0.741727
0.692197
0.652381
0.616723
0.583755
0.553627
0.52729
0.505272
0.487348
0.472814
0.460966
0.451324
0.443539
0.437318
0.432389
0.428509
0.425458
0.42295
0.420544
0.418462
0.41991
0.428907
0.426468
0.747179
0.68344
0.636868
0.602295
0.571971
0.543778
0.517658
0.494546
0.475088
0.459237
0.446433
0.436029
0.427577
0.420758
0.415309
0.410991
0.407591
0.404921
0.402701
0.40046
0.398421
0.400174
0.410449
0.407948
0.676541
0.609113
0.568605
0.54213
0.519388
0.497581
0.476653
0.457654
0.44143
0.428161
0.417467
0.408808
0.401788
0.396129
0.391608
0.388026
0.385207
0.382995
0.381129
0.379113
0.377172
0.379239
0.390708
0.388141
0.584259
0.514288
0.48503
0.470676
0.458399
0.444931
0.430558
0.416664
0.404409
0.394266
0.386088
0.379489
0.37415
0.369851
0.36642
0.363703
0.361568
0.359897
0.358452
0.356726
0.354949
0.357346
0.369889
0.367261
0.459685
0.39309
0.383915
0.387005
0.388722
0.385848
0.379521
0.37178
0.364256
0.357796
0.352547
0.348323
0.344913
0.342172
0.339991
0.33827
0.336923
0.335875
0.334919
0.333552
0.33201
0.334749
0.348219
0.345558
0.266035
0.237573
0.263487
0.29065
0.310547
0.320723
0.323963
0.323403
0.321344
0.319101
0.317177
0.315629
0.314383
0.31339
0.312613
0.312012
0.311556
0.311212
0.310813
0.309872
0.308634
0.31172
0.325945
0.323318
-0.0455968
0.0531633
0.125849
0.182987
0.225017
0.25049
0.264653
0.272169
0.276209
0.278649
0.280399
0.281791
0.282917
0.283843
0.284612
0.285251
0.285781
0.286221
0.286443
0.285993
0.285125
0.288547
0.303332
0.300855
)
;

boundaryField
{
    rotor
    {
        type            zeroGradient;
    }
    freestream
    {
        type            freestreamPressure;
        freestreamValue uniform 0;
        supersonic      false;
        value           nonuniform List<scalar> 
96
(
0.192723
0.16946
0.148009
0.128708
0.111949
0.098653
0.084728
0.0670196
0.052858
0.0416638
0.0325482
0.02516
0.0192566
0.014606
0.0109896
0.00820997
0.00609493
0.0044936
0.0032723
0.00233863
0.00163714
0.00112638
0.000778444
0.000594206
0.000429091
0.000290582
0.00017882
-2.96088e-05
-0.000251623
-0.000319975
-0.00012572
1.47474e-05
1.0011e-05
6.87025e-05
0.000109647
0.000225702
0.000490894
0.000703318
0.00132995
0.00216116
0.00320339
0.00463586
0.00627841
0.00878029
0.0126382
0.017522
0.023068
0.0295818
0.0371494
0.045744
0.0555154
0.0665934
0.0791605
0.0937016
0.112345
0.137576
0.145215
0.158379
0.174818
0.193256
0.213054
0.233883
0.255499
0.277684
0.300228
0.322912
0.345505
0.367769
0.389459
0.410278
0.429727
0.447685
0.46421
0.479196
0.492138
0.502857
0.511155
0.516865
0.519854
0.520025
0.517321
0.511722
0.503251
0.49198
0.478023
0.461512
0.442811
0.422068
0.399463
0.375287
0.349868
0.323559
0.296754
0.269863
0.243296
0.217456
)
;
    }
    frontAndBack
    {
        type            empty;
    }
}


// ************************************************************************* //
