/*--------------------------------*- C++ -*----------------------------------*\
  =========                 |
  \\      /  F ield         | OpenFOAM: The Open Source CFD Toolbox
   \\    /   O peration     | Website:  https://openfoam.org
    \\  /    A nd           | Version:  11
     \\/     M anipulation  |
\*---------------------------------------------------------------------------*/
FoamFile
{
    format      ascii;
    class       surfaceScalarField;
    location    "1.18";
    object      phi;
}
// * * * * * * * * * * * * * * * * * * * * * * * * * * * * * * * * * * * * * //

dimensions      [0 3 -1 0 0 0 0];

internalField   nonuniform List<scalar> 
5640
(
1.38886e-06
-1.38886e-06
3.08078e-06
-1.69192e-06
4.41699e-06
-1.33621e-06
5.30483e-06
-8.87837e-07
5.41133e-06
-1.06502e-07
6.93305e-07
4.71803e-06
1.75976e-06
-3.14862e-06
3.47431e-06
-3.40647e-06
4.88034e-06
-2.74224e-06
5.72166e-06
-1.72915e-06
5.74692e-06
-1.31762e-07
1.67785e-06
4.76237e-06
1.8059e-06
-4.95453e-06
3.41223e-06
-5.01279e-06
4.72071e-06
-4.05073e-06
5.48459e-06
-2.49303e-06
5.49896e-06
-1.46137e-07
2.67506e-06
4.50175e-06
1.73465e-06
-6.68918e-06
3.19583e-06
-6.47397e-06
4.36902e-06
-5.22392e-06
5.07667e-06
-3.20068e-06
5.13948e-06
-2.08949e-07
3.54852e-06
4.26602e-06
1.59336e-06
-8.28254e-06
2.89285e-06
-7.77346e-06
3.93395e-06
-6.26501e-06
4.59552e-06
-3.86225e-06
4.72314e-06
-3.36569e-07
4.17478e-06
4.09688e-06
1.41136e-06
-9.6939e-06
2.53808e-06
-8.90018e-06
3.45265e-06
-7.17958e-06
4.06463e-06
-4.47423e-06
4.27049e-06
-5.42435e-07
4.51732e-06
3.92795e-06
1.20329e-06
-1.08972e-05
2.14937e-06
-9.84626e-06
2.94099e-06
-7.9712e-06
3.50432e-06
-5.03756e-06
3.78893e-06
-8.27037e-07
4.61508e-06
3.69116e-06
9.71169e-07
-1.18684e-05
1.74924e-06
-1.06243e-05
2.40741e-06
-8.62937e-06
2.91727e-06
-5.54743e-06
3.26582e-06
-1.17559e-06
4.49928e-06
3.38163e-06
7.30274e-07
-1.25986e-05
1.33458e-06
-1.12286e-05
1.85506e-06
-9.14985e-06
2.30172e-06
-5.99409e-06
2.69338e-06
-1.56725e-06
4.19708e-06
2.99558e-06
4.82014e-07
-1.30806e-05
9.08621e-07
-1.16553e-05
1.28681e-06
-9.52804e-06
1.6566e-06
-6.36388e-06
2.06802e-06
-1.97867e-06
3.7389e-06
2.52621e-06
2.29687e-07
-1.33103e-05
4.75912e-07
-1.19015e-05
7.06223e-07
-9.75835e-06
9.83029e-07
-6.64069e-06
1.3887e-06
-2.38433e-06
3.1582e-06
1.96939e-06
-2.56721e-08
-1.32847e-05
3.8663e-08
-1.19658e-05
1.17959e-07
-9.83764e-06
2.84811e-07
-6.80754e-06
6.57087e-07
-2.75661e-06
2.4919e-06
1.32339e-06
-2.6827e-07
-1.30164e-05
-3.88049e-07
-1.1846e-05
-4.71341e-07
-9.75435e-06
-4.31124e-07
-6.84776e-06
-1.22576e-07
-3.06516e-06
1.77855e-06
5.9078e-07
-5.05638e-07
-1.25108e-05
-8.07944e-07
-1.15437e-05
-1.0545e-06
-9.50779e-06
-1.15425e-06
-6.74801e-06
-9.32288e-07
-3.28712e-06
1.0639e-06
-2.17644e-07
-7.30317e-07
-1.17804e-05
-1.21198e-06
-1.10621e-05
-1.62235e-06
-9.09742e-06
-1.87196e-06
-6.4984e-06
-1.76482e-06
-3.39425e-06
3.90532e-07
-1.09145e-06
-9.37886e-07
-1.08425e-05
-1.59356e-06
-1.04064e-05
-2.16465e-06
-8.52633e-06
-2.56848e-06
-6.09458e-06
-2.59665e-06
-3.36608e-06
-2.04458e-07
-2.00166e-06
-1.124e-06
-9.71855e-06
-1.94608e-06
-9.5843e-06
-2.67041e-06
-7.802e-06
-3.22575e-06
-5.53924e-06
-3.40307e-06
-3.18876e-06
-6.87177e-07
-2.92035e-06
-1.28399e-06
-8.43456e-06
-2.26273e-06
-8.60556e-06
-3.12812e-06
-6.93662e-06
-3.8238e-06
-4.84355e-06
-4.1551e-06
-2.85746e-06
-1.03038e-06
-3.8119e-06
-1.41243e-06
-7.02212e-06
-2.53671e-06
-7.48129e-06
-3.52597e-06
-5.94736e-06
-4.34101e-06
-4.02851e-06
-4.81824e-06
-2.38023e-06
-1.2132e-06
-4.63542e-06
-1.50066e-06
-5.52146e-06
-2.76277e-06
-6.21917e-06
-3.85211e-06
-4.85802e-06
-4.7536e-06
-3.12701e-06
-5.35111e-06
-1.78272e-06
-1.22622e-06
-5.33809e-06
-1.53999e-06
-3.98148e-06
-2.9338e-06
-4.82536e-06
-4.09518e-06
-3.69663e-06
-5.03298e-06
-2.18921e-06
-5.7028e-06
-1.11291e-06
-1.08551e-06
-5.84351e-06
-1.51871e-06
-2.46277e-06
-3.03685e-06
-3.30722e-06
-4.23518e-06
-2.4983e-06
-5.1378e-06
-1.28659e-06
-5.79023e-06
-4.60482e-07
-8.37112e-07
-6.03862e-06
-1.41287e-06
-1.0499e-06
-3.03385e-06
-1.68624e-06
-4.25629e-06
-1.27587e-06
-5.01348e-06
-5.29403e-07
-5.46438e-06
-9.58034e-09
-5.04836e-07
-5.79666e-06
-1.0499e-06
-2.73614e-06
-4.012e-06
-4.54141e-06
-4.55099e-06
-5.05582e-06
8.142e-06
2.95619e-05
-3.29859e-05
5.83848e-06
4.03374e-05
-3.80339e-05
3.5807e-06
4.17127e-05
-3.94549e-05
1.46212e-06
4.08909e-05
-3.87724e-05
-5.44169e-07
3.911e-05
-3.71037e-05
-2.40798e-06
3.70041e-05
-3.51402e-05
-4.12237e-06
3.49429e-05
-3.32285e-05
-5.70222e-06
3.30771e-05
-3.14972e-05
-7.17327e-06
3.14182e-05
-2.99472e-05
-8.56134e-06
2.99203e-05
-2.85322e-05
-9.88788e-06
2.85288e-05
-2.72022e-05
-1.11683e-05
2.72014e-05
-2.5921e-05
-1.24131e-05
2.59112e-05
-2.46664e-05
-1.36295e-05
2.4641e-05
-2.34246e-05
-1.48223e-05
2.33784e-05
-2.21855e-05
-1.5995e-05
2.21141e-05
-2.09414e-05
-1.71497e-05
2.08402e-05
-1.96855e-05
-1.82873e-05
1.95498e-05
-1.84122e-05
-1.94076e-05
1.82364e-05
-1.7116e-05
-2.0509e-05
1.68935e-05
-1.57922e-05
-2.15876e-05
1.55144e-05
-1.44358e-05
-2.26372e-05
1.40909e-05
-1.30413e-05
-2.36465e-05
1.26123e-05
-1.1603e-05
1.11107e-05
-1.01732e-05
6.69824e-06
2.7626e-05
5.85031e-06
4.11854e-05
4.2218e-06
4.33412e-05
2.46734e-06
4.26454e-05
7.21363e-07
4.0856e-05
-9.34399e-07
3.86598e-05
-2.47208e-06
3.64805e-05
-3.88984e-06
3.44948e-05
-5.20432e-06
3.27327e-05
-6.43703e-06
3.1153e-05
-7.60793e-06
2.96997e-05
-8.73245e-06
2.83259e-05
-9.82155e-06
2.70003e-05
-1.08829e-05
2.57023e-05
-1.19219e-05
2.44174e-05
-1.29425e-05
2.31347e-05
-1.39474e-05
2.1845e-05
-1.49381e-05
2.05405e-05
-1.59152e-05
1.92134e-05
-1.68776e-05
1.78559e-05
-1.78223e-05
1.64591e-05
-1.8743e-05
1.50117e-05
-1.96269e-05
1.34962e-05
1.19214e-05
5.96741e-06
2.61604e-05
5.81054e-06
4.13422e-05
4.75026e-06
4.44015e-05
3.3874e-06
4.40083e-05
1.93642e-06
4.2307e-05
5.1019e-07
4.0086e-05
-8.2984e-07
3.78206e-05
-2.07129e-06
3.57363e-05
-3.21948e-06
3.38809e-05
-4.28972e-06
3.22232e-05
-5.2994e-06
3.07093e-05
-6.26309e-06
2.92896e-05
-7.19176e-06
2.7929e-05
-8.09332e-06
2.66039e-05
-8.97352e-06
2.52976e-05
-9.83658e-06
2.39977e-05
-1.06856e-05
2.26941e-05
-1.15228e-05
2.13777e-05
-1.23495e-05
2.00401e-05
-1.31655e-05
1.86719e-05
-1.39692e-05
1.72628e-05
-1.47551e-05
1.57976e-05
-1.55092e-05
1.42504e-05
1.26022e-05
5.48904e-06
2.49374e-05
5.8366e-06
4.09947e-05
5.24549e-06
4.49926e-05
4.26026e-06
4.49935e-05
3.11465e-06
4.34526e-05
1.93858e-06
4.12621e-05
8.05079e-07
3.89541e-05
-2.50452e-07
3.67918e-05
-1.22446e-06
3.48549e-05
-2.12688e-06
3.31256e-05
-2.97172e-06
3.15542e-05
-3.77159e-06
3.00895e-05
-4.53718e-06
2.86946e-05
-5.27636e-06
2.73431e-05
-5.99491e-06
2.60162e-05
-6.69715e-06
2.47e-05
-7.38631e-06
2.33832e-05
-8.06485e-06
2.20563e-05
-8.7345e-06
2.07097e-05
-9.39624e-06
1.93337e-05
-1.005e-05
1.79166e-05
-1.06932e-05
1.64408e-05
-1.13124e-05
1.48695e-05
1.31498e-05
5.15792e-06
2.38763e-05
5.90285e-06
4.02498e-05
5.72844e-06
4.5167e-05
5.10575e-06
4.56162e-05
4.26776e-06
4.42906e-05
3.3483e-06
4.21816e-05
2.43439e-06
3.9868e-05
1.57172e-06
3.76545e-05
7.75625e-07
3.5651e-05
4.35003e-08
3.38578e-05
-6.33749e-07
3.22314e-05
-1.26878e-06
3.07245e-05
-1.87105e-06
2.92969e-05
-2.44804e-06
2.792e-05
-3.00536e-06
2.65735e-05
-3.54709e-06
2.52417e-05
-4.07619e-06
2.39123e-05
-4.59476e-06
2.25749e-05
-5.10422e-06
2.12192e-05
-5.60537e-06
1.98348e-05
-6.0988e-06
1.841e-05
-6.58556e-06
1.69275e-05
-7.06158e-06
1.53455e-05
1.35606e-05
4.934e-06
2.28703e-05
5.98743e-06
3.91963e-05
6.19886e-06
4.49556e-05
5.93007e-06
4.5885e-05
5.40059e-06
4.48201e-05
4.74284e-06
4.28393e-05
4.05461e-06
4.05562e-05
3.39134e-06
3.83178e-05
2.77788e-06
3.62645e-05
2.21871e-06
3.44169e-05
1.70764e-06
3.27425e-05
1.236e-06
3.11961e-05
7.94769e-07
2.97381e-05
3.76687e-07
2.83381e-05
-2.37492e-08
2.69739e-05
-4.10467e-07
2.56284e-05
-7.86065e-07
2.42879e-05
-1.15195e-06
2.29407e-05
-1.50846e-06
2.15757e-05
-1.85465e-06
2.0181e-05
-2.18749e-06
1.87429e-05
-2.50159e-06
1.72416e-05
-2.79827e-06
1.56422e-05
1.38533e-05
4.75832e-06
2.18031e-05
6.07374e-06
3.78809e-05
6.64923e-06
4.43801e-05
6.73036e-06
4.58038e-05
6.51843e-06
4.5032e-05
6.12151e-06
4.32362e-05
5.66494e-06
4.10128e-05
5.20556e-06
3.87771e-05
4.77699e-06
3.6693e-05
4.39097e-06
3.4803e-05
4.04612e-06
3.30873e-05
3.7357e-06
3.15066e-05
3.4518e-06
3.0022e-05
3.18733e-06
2.86026e-05
2.93656e-06
2.72247e-05
2.69522e-06
2.58697e-05
2.46044e-06
2.45227e-05
2.23089e-06
2.31703e-05
2.00685e-06
2.17997e-05
1.79071e-06
2.03972e-05
1.58935e-06
1.89442e-05
1.41851e-06
1.74125e-05
1.29051e-06
1.57702e-05
1.4053e-05
4.57503e-06
2.06097e-05
6.141e-06
3.63149e-05
7.07116e-06
4.34499e-05
7.49618e-06
4.53788e-05
7.61024e-06
4.4918e-05
7.48344e-06
4.3363e-05
7.26286e-06
4.12334e-05
7.01135e-06
3.90286e-05
6.7703e-06
3.69341e-05
6.55819e-06
3.50151e-05
6.37847e-06
3.32671e-05
6.22703e-06
3.1658e-05
6.09714e-06
3.01519e-05
5.98201e-06
2.87177e-05
5.87578e-06
2.73309e-05
5.7739e-06
2.59716e-05
5.67334e-06
2.46233e-05
5.57302e-06
2.32706e-05
5.47451e-06
2.18982e-05
5.3828e-06
2.04889e-05
5.30574e-06
1.90213e-05
5.24837e-06
1.74698e-05
5.20773e-06
1.58108e-05
1.40241e-05
4.34698e-06
1.92583e-05
6.16552e-06
3.44964e-05
7.44713e-06
4.21683e-05
8.21574e-06
4.46102e-05
8.65596e-06
4.44777e-05
8.82771e-06
4.31913e-05
8.84384e-06
4.12172e-05
8.80461e-06
3.90679e-05
8.75444e-06
3.69843e-05
8.71776e-06
3.50517e-05
8.70316e-06
3.32817e-05
8.70982e-06
3.16513e-05
8.73279e-06
3.01289e-05
8.76633e-06
2.86842e-05
8.80531e-06
2.72919e-05
8.84606e-06
2.59309e-05
8.8867e-06
2.45826e-05
8.92758e-06
2.32297e-05
8.97154e-06
2.18543e-05
9.02367e-06
2.04368e-05
9.08977e-06
1.89552e-05
9.174e-06
1.73856e-05
9.28054e-06
1.57043e-05
1.38857e-05
4.05103e-06
1.77335e-05
6.12511e-06
3.24223e-05
7.76197e-06
4.05315e-05
8.88521e-06
4.3487e-05
9.64206e-06
4.37209e-05
1.01336e-05
4.26998e-05
1.03976e-05
4.09532e-05
1.05788e-05
3.88867e-05
1.07248e-05
3.68383e-05
1.08666e-05
3.49099e-05
1.10187e-05
3.31296e-05
1.11842e-05
3.14859e-05
1.13608e-05
2.99523e-05
1.15444e-05
2.85006e-05
1.17313e-05
2.7105e-05
1.19192e-05
2.5743e-05
1.21074e-05
2.43944e-05
1.22971e-05
2.30401e-05
1.24907e-05
2.16606e-05
1.26916e-05
2.02359e-05
1.29024e-05
1.87444e-05
1.31245e-05
1.71635e-05
1.33601e-05
1.54687e-05
1.36317e-05
3.66952e-06
1.60333e-05
5.99854e-06
3.00933e-05
7.99647e-06
3.85335e-05
9.48682e-06
4.19966e-05
1.05637e-05
4.2644e-05
1.13775e-05
4.18859e-05
1.19156e-05
4.04151e-05
1.23263e-05
3.8476e-05
1.26753e-05
3.64894e-05
1.30007e-05
3.45845e-05
1.33227e-05
3.28075e-05
1.36492e-05
3.11593e-05
1.39813e-05
2.96203e-05
1.43171e-05
2.81648e-05
1.46545e-05
2.67676e-05
1.49924e-05
2.54051e-05
1.53307e-05
2.40561e-05
1.56703e-05
2.27004e-05
1.60124e-05
2.13185e-05
1.63579e-05
1.98904e-05
1.67071e-05
1.83953e-05
1.706e-05
1.68105e-05
1.74184e-05
1.51103e-05
1.32621e-05
3.18662e-06
1.41701e-05
5.76493e-06
2.7515e-05
8.12854e-06
3.61699e-05
9.9971e-06
4.01281e-05
1.14182e-05
4.12228e-05
1.25404e-05
4.07637e-05
1.33835e-05
3.95721e-05
1.40343e-05
3.78252e-05
1.4597e-05
3.59267e-05
1.51134e-05
3.40681e-05
1.56104e-05
3.23105e-05
1.61016e-05
3.06681e-05
1.6592e-05
2.91299e-05
1.70822e-05
2.76746e-05
1.7572e-05
2.62778e-05
1.80609e-05
2.49162e-05
1.8549e-05
2.3568e-05
1.90362e-05
2.22132e-05
1.95223e-05
2.08324e-05
2.00062e-05
1.94065e-05
2.04869e-05
1.79146e-05
2.0964e-05
1.63334e-05
2.14395e-05
1.46348e-05
1.27809e-05
2.59041e-06
1.21705e-05
5.40672e-06
2.46987e-05
8.13412e-06
3.34425e-05
1.03947e-05
3.78674e-05
1.21893e-05
3.94283e-05
1.36105e-05
3.93425e-05
1.47695e-05
3.84131e-05
1.56875e-05
3.69072e-05
1.64782e-05
3.5136e-05
1.71953e-05
3.33509e-05
1.78744e-05
3.16314e-05
1.85353e-05
3.00072e-05
1.91875e-05
2.84778e-05
1.98347e-05
2.70274e-05
2.0478e-05
2.56344e-05
2.11178e-05
2.42764e-05
2.17538e-05
2.29321e-05
2.23851e-05
2.15819e-05
2.30101e-05
2.02074e-05
2.36265e-05
1.87901e-05
2.42325e-05
1.73086e-05
2.48275e-05
1.57384e-05
2.5414e-05
1.40482e-05
1.21944e-05
1.87698e-06
1.00759e-05
4.91087e-06
2.16648e-05
7.99319e-06
3.03602e-05
1.06513e-05
3.52093e-05
1.28271e-05
3.72525e-05
1.4588e-05
3.75816e-05
1.60581e-05
3.6943e-05
1.72667e-05
3.56986e-05
1.8302e-05
3.41007e-05
1.92327e-05
3.24202e-05
2.01033e-05
3.07609e-05
2.09406e-05
2.91699e-05
2.17593e-05
2.76591e-05
2.25663e-05
2.62203e-05
2.33647e-05
2.48361e-05
2.4155e-05
2.34861e-05
2.49369e-05
2.21501e-05
2.5709e-05
2.08098e-05
2.64686e-05
1.94477e-05
2.72127e-05
1.8046e-05
2.79386e-05
1.65827e-05
2.86455e-05
1.50315e-05
2.93365e-05
1.33573e-05
1.15098e-05
1.05757e-06
7.92683e-06
4.26765e-06
1.84547e-05
7.68169e-06
2.69462e-05
1.07373e-05
3.21537e-05
1.33072e-05
3.46826e-05
1.54371e-05
3.54518e-05
1.72254e-05
3.51546e-05
1.8743e-05
3.41811e-05
2.00428e-05
3.28009e-05
2.12041e-05
3.12589e-05
2.22793e-05
2.96856e-05
2.33027e-05
2.81465e-05
2.42948e-05
2.6667e-05
2.52663e-05
2.52488e-05
2.62221e-05
2.38803e-05
2.71638e-05
2.25444e-05
2.8091e-05
2.1223e-05
2.90018e-05
1.9899e-05
2.98932e-05
1.85563e-05
3.07616e-05
1.71777e-05
3.16034e-05
1.57409e-05
3.24173e-05
1.42176e-05
3.3206e-05
1.25685e-05
1.07356e-05
1.61745e-07
5.76343e-06
3.48054e-06
1.51359e-05
7.17395e-06
2.32528e-05
1.06159e-05
2.87117e-05
1.35922e-05
3.17063e-05
1.611e-05
3.29339e-05
1.82487e-05
3.3016e-05
2.00818e-05
3.2348e-05
2.16683e-05
3.12144e-05
2.3081e-05
2.98462e-05
2.43782e-05
2.83885e-05
2.5601e-05
2.69236e-05
2.67763e-05
2.54918e-05
2.79192e-05
2.41059e-05
2.90375e-05
2.2762e-05
3.01339e-05
2.1448e-05
3.12081e-05
2.01487e-05
3.22584e-05
1.88488e-05
3.32814e-05
1.75332e-05
3.42731e-05
1.6186e-05
3.52291e-05
1.4785e-05
3.61466e-05
1.33e-05
3.70276e-05
1.16876e-05
9.87989e-06
-7.90422e-07
3.6335e-06
2.57818e-06
1.17673e-05
6.46638e-06
1.93646e-05
1.02511e-05
2.49269e-05
1.36316e-05
2.83259e-05
1.65539e-05
3.00116e-05
1.90691e-05
3.05008e-05
2.12428e-05
3.01742e-05
2.31388e-05
2.93184e-05
2.48265e-05
2.81585e-05
2.63667e-05
2.68483e-05
2.78064e-05
2.54839e-05
2.91786e-05
2.41197e-05
3.05038e-05
2.27807e-05
3.1793e-05
2.14727e-05
3.30509e-05
2.01901e-05
3.42779e-05
1.89217e-05
3.54722e-05
1.76545e-05
3.66304e-05
1.6375e-05
3.77482e-05
1.50682e-05
3.88198e-05
1.37133e-05
3.98407e-05
1.22791e-05
4.08109e-05
1.07174e-05
8.94909e-06
-1.73241e-06
1.554e-06
1.61723e-06
8.41769e-06
5.59148e-06
1.53903e-05
9.63002e-06
2.08884e-05
1.3377e-05
2.45789e-05
1.67048e-05
2.66838e-05
1.96173e-05
2.75884e-05
2.21611e-05
2.76304e-05
2.43957e-05
2.70838e-05
2.63871e-05
2.6167e-05
2.81971e-05
2.50382e-05
2.98769e-05
2.38041e-05
3.14652e-05
2.25314e-05
3.29883e-05
2.12576e-05
3.44617e-05
1.99993e-05
3.58929e-05
1.8759e-05
3.72835e-05
1.75311e-05
3.86319e-05
1.6306e-05
3.99347e-05
1.50723e-05
4.11868e-05
1.38161e-05
4.23815e-05
1.25187e-05
4.35111e-05
1.11495e-05
4.45722e-05
9.65621e-06
7.94616e-06
-2.61088e-06
-4.70535e-07
6.72993e-07
5.13382e-06
4.62169e-06
1.14416e-05
8.78598e-06
1.67241e-05
1.28093e-05
2.05556e-05
1.6504e-05
2.2989e-05
1.98144e-05
2.4278e-05
2.27511e-05
2.46937e-05
2.53558e-05
2.44791e-05
2.76855e-05
2.38373e-05
2.97993e-05
2.29245e-05
3.17501e-05
2.18533e-05
3.35812e-05
2.07003e-05
3.53247e-05
1.95141e-05
3.70018e-05
1.83222e-05
3.86241e-05
1.71368e-05
4.01956e-05
1.59596e-05
4.17156e-05
1.4786e-05
4.31803e-05
1.36076e-05
4.45837e-05
1.24126e-05
4.59176e-05
1.11847e-05
4.71707e-05
9.89639e-06
4.83334e-05
8.49358e-06
6.86687e-06
-3.35446e-06
-2.45417e-06
-1.71353e-07
1.95071e-06
3.65522e-06
7.61503e-06
7.80207e-06
1.25773e-05
1.19643e-05
1.63933e-05
1.59312e-05
1.90222e-05
1.95946e-05
2.06146e-05
2.29186e-05
2.13697e-05
2.59128e-05
2.14849e-05
2.86139e-05
2.11362e-05
3.10702e-05
2.04683e-05
3.33311e-05
1.95923e-05
3.54415e-05
1.85899e-05
3.74377e-05
1.75179e-05
3.93466e-05
1.64133e-05
4.11853e-05
1.52981e-05
4.29624e-05
1.41825e-05
4.46796e-05
1.30688e-05
4.63332e-05
1.19539e-05
4.7916e-05
1.08299e-05
4.94175e-05
9.68321e-06
5.08229e-05
8.49102e-06
5.21129e-05
7.20362e-06
5.69358e-06
-3.86771e-06
-4.42997e-06
-8.19005e-07
-1.09799e-06
2.79591e-06
4.00011e-06
6.78811e-06
8.58506e-06
1.09312e-05
1.22503e-05
1.50271e-05
1.49263e-05
1.894e-05
1.67017e-05
2.25935e-05
1.77162e-05
2.59591e-05
1.81193e-05
2.90426e-05
1.80527e-05
3.18714e-05
1.76395e-05
3.44827e-05
1.6981e-05
3.69159e-05
1.61567e-05
3.92073e-05
1.52265e-05
4.13871e-05
1.42335e-05
4.34778e-05
1.32074e-05
4.54936e-05
1.21666e-05
4.74414e-05
1.1121e-05
4.93206e-05
1.00747e-05
5.11235e-05
9.02695e-06
5.2837e-05
7.96964e-06
5.44434e-05
6.88464e-06
5.5911e-05
5.73603e-06
4.38369e-06
-4.02565e-06
-6.44295e-06
-1.17558e-06
-3.94806e-06
2.13543e-06
6.89106e-07
5.84926e-06
4.87123e-06
9.8202e-06
8.27933e-06
1.38825e-05
1.08639e-05
1.78965e-05
1.26877e-05
2.17631e-05
1.38496e-05
2.5423e-05
1.44594e-05
2.8851e-05
1.46247e-05
3.20472e-05
1.44433e-05
3.50283e-05
1.39999e-05
3.78199e-05
1.33651e-05
4.04509e-05
1.25955e-05
4.2949e-05
1.17355e-05
4.53377e-05
1.08186e-05
4.76344e-05
9.86994e-06
4.98504e-05
8.90507e-06
5.19937e-05
7.9314e-06
5.40658e-05
6.95483e-06
5.60553e-05
5.98015e-06
5.79371e-05
5.00284e-06
5.9668e-05
4.00521e-06
2.85539e-06
-3.62906e-06
-8.61054e-06
-1.13612e-06
-6.441e-06
1.73865e-06
-2.18567e-06
5.05755e-06
1.55233e-06
8.72282e-06
4.61407e-06
1.25967e-05
6.99004e-06
1.6549e-05
8.73542e-06
2.04736e-05
9.92495e-06
2.42951e-05
1.0638e-05
2.79661e-05
1.09536e-05
3.14634e-05
1.0946e-05
3.47818e-05
1.06815e-05
3.79288e-05
1.02181e-05
4.09195e-05
9.60485e-06
4.37727e-05
8.88218e-06
4.65082e-05
8.08309e-06
4.91441e-05
7.23413e-06
5.16925e-05
6.35658e-06
5.41599e-05
5.46404e-06
5.65502e-05
4.56459e-06
5.88634e-05
3.6669e-06
6.10894e-05
2.77685e-06
6.31998e-05
1.89477e-06
9.72167e-07
-2.21992e-06
-1.14464e-05
-6.49468e-07
-8.01145e-06
1.60322e-06
-4.43836e-06
4.41865e-06
-1.2631e-06
7.6739e-06
1.35882e-06
1.12316e-05
3.4323e-06
1.49704e-05
4.99665e-06
1.8789e-05
6.10639e-06
2.26067e-05
6.82026e-06
2.63663e-05
7.19403e-06
3.0031e-05
7.28123e-06
3.35804e-05
7.13213e-06
3.70066e-05
6.79197e-06
4.0311e-05
6.30044e-06
4.35012e-05
5.69195e-06
4.65883e-05
4.99598e-06
4.95851e-05
4.23736e-06
5.25038e-05
3.43792e-06
5.53505e-05
2.61732e-06
5.81284e-05
1.78664e-06
6.08377e-05
9.57609e-07
6.34796e-05
1.34957e-07
6.60551e-05
-6.80704e-07
-1.41046e-06
-1.369e-07
1.369e-07
-2.38404e-07
1.01504e-07
-2.05226e-07
-3.31784e-08
-1.95433e-08
-1.85683e-07
7.28352e-07
-7.47895e-07
-1.10313e-06
1.83148e-06
-1.46481e-07
2.83381e-07
-2.30264e-07
1.85287e-07
-1.72577e-07
-9.08653e-08
9.03321e-08
-4.48592e-07
6.30135e-07
-1.2877e-06
-2.06051e-06
1.58752e-06
-1.37537e-07
4.20918e-07
-2.1336e-07
2.6111e-07
-1.63505e-07
-1.4072e-07
7.6045e-08
-6.88142e-07
4.84484e-07
-1.69614e-06
-2.74668e-06
1.17065e-06
-1.31632e-07
5.5255e-07
-2.06261e-07
3.35739e-07
-1.78943e-07
-1.68038e-07
-5.20367e-09
-8.61881e-07
2.89542e-07
-1.99088e-06
-3.17714e-06
7.20001e-07
-1.27869e-07
6.80419e-07
-2.07874e-07
4.15744e-07
-2.12637e-07
-1.63275e-07
-1.03655e-07
-9.70864e-07
6.75281e-08
-2.16207e-06
-3.39814e-06
2.88536e-07
-1.25691e-07
8.0611e-07
-2.15852e-07
5.05905e-07
-2.59008e-07
-1.20119e-07
-2.2893e-07
-1.00094e-06
-1.76276e-07
-2.21472e-06
-3.46498e-06
-1.09437e-07
-1.25475e-07
9.31585e-07
-2.27544e-07
6.07974e-07
-3.11358e-07
-3.63051e-08
-3.59131e-07
-9.53169e-07
-4.07028e-07
-2.16682e-06
-3.42447e-06
-4.47537e-07
-1.24983e-07
1.05657e-06
-2.40091e-07
7.23083e-07
-3.63171e-07
8.67744e-08
-4.82718e-07
-8.33621e-07
-6.16505e-07
-2.03304e-06
-3.29049e-06
-7.50487e-07
-1.202e-07
1.17677e-06
-2.48935e-07
8.51817e-07
-4.08375e-07
2.46214e-07
-5.91716e-07
-6.50279e-07
-7.98743e-07
-1.82601e-06
-3.086e-06
-1.00324e-06
-1.1343e-07
1.2902e-06
-2.50937e-07
9.89325e-07
-4.41567e-07
4.36845e-07
-6.79476e-07
-4.12371e-07
-9.47319e-07
-1.55817e-06
-2.83004e-06
-1.20328e-06
-1.03394e-07
1.39359e-06
-2.43501e-07
1.12943e-06
-4.58031e-07
6.51374e-07
-7.40291e-07
-1.30111e-07
-1.05693e-06
-1.24152e-06
-2.53851e-06
-1.34846e-06
-8.84703e-08
1.48206e-06
-2.2429e-07
1.26525e-06
-4.53727e-07
8.80811e-07
-7.69294e-07
1.85456e-07
-1.12313e-06
-8.87687e-07
-2.22563e-06
-1.43601e-06
-6.73044e-08
1.54937e-06
-1.91497e-07
1.38944e-06
-4.25327e-07
1.11464e-06
-7.62344e-07
5.22473e-07
-1.1427e-06
-5.07336e-07
-1.90067e-06
-1.46766e-06
-3.88121e-08
1.58818e-06
-1.43975e-07
1.49461e-06
-3.70259e-07
1.34093e-06
-7.15774e-07
8.67988e-07
-1.11198e-06
-1.11128e-07
-1.57239e-06
-1.44026e-06
-1.61741e-09
1.5898e-06
-8.13628e-08
1.57435e-06
-2.86825e-07
1.54639e-06
-6.2634e-07
1.2075e-06
-1.02747e-06
2.90002e-07
-1.24651e-06
-1.35334e-06
4.58224e-08
1.54397e-06
-4.71928e-09
1.62489e-06
-1.74408e-07
1.71608e-06
-4.91232e-07
1.52433e-06
-8.85366e-07
6.84136e-07
-9.24851e-07
-1.20703e-06
9.91865e-08
1.44479e-06
8.46434e-08
1.63944e-06
-3.39429e-08
1.83466e-06
-3.08217e-07
1.7986e-06
-6.81171e-07
1.05709e-06
-6.04413e-07
-1.00161e-06
1.42882e-07
1.30191e-06
1.81451e-07
1.60087e-06
1.32788e-07
1.88333e-06
-7.55885e-08
2.00698e-06
-4.10385e-07
1.39189e-06
-2.78953e-07
-7.35844e-07
1.77456e-07
1.12445e-06
2.81615e-07
1.49671e-06
3.21415e-07
1.84353e-06
2.0643e-07
2.12196e-06
-8.25104e-08
1.68083e-06
3.43875e-08
-3.95851e-07
2.05851e-07
9.18598e-07
3.80976e-07
1.32158e-06
5.25583e-07
1.69892e-06
5.36802e-07
2.11074e-06
3.51118e-07
1.86651e-06
3.04823e-07
8.06819e-08
2.28005e-07
6.90593e-07
4.74566e-07
1.07502e-06
7.36003e-07
1.43748e-06
9.1154e-07
1.93521e-06
8.87349e-07
1.8907e-06
5.60493e-07
6.31679e-07
2.424e-07
4.48193e-07
5.56412e-07
7.61011e-07
9.38855e-07
1.05504e-06
1.32165e-06
1.55241e-06
1.5428e-06
1.66955e-06
6.76915e-07
1.42638e-06
2.46966e-07
2.01227e-07
6.18072e-07
3.89906e-07
1.11107e-06
5.6204e-07
1.74506e-06
9.18424e-07
2.33435e-06
1.08025e-06
5.16234e-07
2.49504e-06
2.01227e-07
5.91132e-07
1.15317e-06
2.0716e-06
3.15185e-06
3.66808e-06
-8.93289e-08
-9.52563e-06
1.14641e-07
-8.21542e-06
1.60675e-06
-5.93046e-06
3.84927e-06
-3.50562e-06
6.62566e-06
-1.41757e-06
9.77808e-06
2.79876e-07
1.31813e-05
1.59343e-06
1.67395e-05
2.54823e-06
2.03783e-05
3.18145e-06
2.40393e-05
3.53304e-06
2.76813e-05
3.63918e-06
3.12771e-05
3.53631e-06
3.48109e-05
3.2582e-06
3.82759e-05
2.83544e-06
4.16721e-05
2.29577e-06
4.50038e-05
1.66427e-06
4.82779e-05
9.63264e-07
5.15028e-05
2.12987e-07
5.46869e-05
-5.66778e-07
5.78339e-05
-1.36029e-06
6.09472e-05
-2.1557e-06
6.40227e-05
-2.94054e-06
6.70713e-05
-3.72931e-06
-4.40416e-06
5.47814e-07
-8.48593e-06
5.2765e-07
-8.19526e-06
1.49838e-06
-6.90119e-06
3.22236e-06
-5.2296e-06
5.49918e-06
-3.69439e-06
8.18079e-06
-2.40173e-06
1.11516e-05
-1.3774e-06
1.43179e-05
-6.18058e-07
1.76084e-05
-1.09071e-07
2.09687e-05
1.72802e-07
2.43585e-05
2.49387e-07
2.77489e-05
1.45873e-07
3.11214e-05
-1.14295e-07
3.44659e-05
-5.09116e-07
3.77795e-05
-1.01775e-06
4.10643e-05
-1.62055e-06
4.43263e-05
-2.29871e-06
4.75731e-05
-3.0339e-06
5.08148e-05
-3.80844e-06
5.40589e-05
-4.60434e-06
5.73145e-05
-5.41135e-06
6.05797e-05
-6.20572e-06
6.38657e-05
-7.0153e-06
-7.77818e-06
5.74299e-07
-7.88958e-06
5.35774e-07
-8.15673e-06
1.19321e-06
-7.55862e-06
2.48486e-06
-6.52126e-06
4.27678e-06
-5.48632e-06
6.45258e-06
-4.57753e-06
8.91348e-06
-3.8383e-06
1.15768e-05
-3.28142e-06
1.43733e-05
-2.90548e-06
1.72492e-05
-2.70316e-06
2.01631e-05
-2.66445e-06
2.30843e-05
-2.77533e-06
2.59929e-05
-3.02297e-06
2.88774e-05
-3.39358e-06
3.17333e-05
-3.87363e-06
3.45629e-05
-4.4502e-06
3.73743e-05
-5.11006e-06
4.01798e-05
-5.83947e-06
4.29957e-05
-6.62429e-06
4.58396e-05
-7.44828e-06
4.87258e-05
-8.2975e-06
5.16693e-05
-9.14924e-06
5.46626e-05
-1.00086e-05
-1.08828e-05
3.40084e-07
-7.50966e-06
3.03986e-07
-8.12064e-06
7.43739e-07
-7.99838e-06
1.68094e-06
-7.45846e-06
3.03223e-06
-6.83761e-06
4.71175e-06
-6.25705e-06
6.63939e-06
-5.76595e-06
8.7443e-06
-5.38632e-06
1.09644e-05
-5.12558e-06
1.32489e-05
-4.9877e-06
1.55553e-05
-4.97077e-06
1.78514e-05
-5.07147e-06
2.01158e-05
-5.28738e-06
2.23371e-05
-5.61485e-06
2.45135e-05
-6.05009e-06
2.66521e-05
-6.58873e-06
2.87674e-05
-7.2254e-06
3.08814e-05
-7.95346e-06
3.30211e-05
-8.76398e-06
3.52169e-05
-9.64405e-06
3.7495e-05
-1.05756e-05
3.98766e-05
-1.15308e-05
4.23521e-05
-1.2484e-05
-1.34329e-05
1.64622e-08
-7.23759e-06
-6.22743e-08
-8.0419e-06
2.3186e-07
-8.29251e-06
8.96656e-07
-8.12325e-06
1.88286e-06
-7.82381e-06
3.12696e-06
-7.50114e-06
4.56663e-06
-7.20562e-06
6.14358e-06
-6.96327e-06
7.80597e-06
-6.78797e-06
9.50853e-06
-6.69026e-06
1.12143e-05
-6.67658e-06
1.28957e-05
-6.75287e-06
1.45339e-05
-6.92554e-06
1.61203e-05
-7.20126e-06
1.76568e-05
-7.58657e-06
1.9155e-05
-8.08696e-06
2.06361e-05
-8.70649e-06
2.21296e-05
-9.44692e-06
2.36715e-05
-1.03059e-05
2.5302e-05
-1.12746e-05
2.70597e-05
-1.23333e-05
2.89749e-05
-1.3446e-05
3.10471e-05
-1.45562e-05
-1.55897e-05
-3.77501e-07
-6.96952e-06
-4.53605e-07
-7.9658e-06
-2.70944e-07
-8.47517e-06
1.98599e-07
-8.5928e-06
9.16028e-07
-8.54124e-06
1.82864e-06
-8.41376e-06
2.88511e-06
-8.26209e-06
4.03836e-06
-8.11653e-06
5.24712e-06
-7.99672e-06
6.47493e-06
-7.91807e-06
7.69222e-06
-7.89388e-06
8.87761e-06
-7.93825e-06
1.00179e-05
-8.06586e-06
1.11086e-05
-8.29193e-06
1.2154e-05
-8.63195e-06
1.31676e-05
-9.10056e-06
1.41723e-05
-9.71123e-06
1.52e-05
-1.04746e-05
1.62896e-05
-1.13955e-05
1.74842e-05
-1.24692e-05
1.8826e-05
-1.3675e-05
2.03486e-05
-1.49687e-05
2.20597e-05
-1.62674e-05
-1.74175e-05
-7.30295e-07
-6.68677e-06
-8.32239e-07
-7.86385e-06
-7.17636e-07
-8.58978e-06
-3.69477e-07
-8.94095e-06
1.76457e-07
-9.08718e-06
8.76056e-07
-9.11336e-06
1.6845e-06
-9.07053e-06
2.56206e-06
-8.99409e-06
3.47668e-06
-8.91134e-06
4.40273e-06
-8.84412e-06
5.32175e-06
-8.81289e-06
6.22149e-06
-8.838e-06
7.096e-06
-8.94037e-06
7.94608e-06
-9.14201e-06
8.77994e-06
-9.46581e-06
9.61268e-06
-9.93331e-06
1.04637e-05
-1.05623e-05
1.13558e-05
-1.13667e-05
1.2315e-05
-1.23547e-05
1.33689e-05
-1.35231e-05
1.45449e-05
-1.48511e-05
1.58646e-05
-1.62884e-05
1.73205e-05
-1.77232e-05
-1.89236e-05
-1.04114e-06
-6.39611e-06
-1.15493e-06
-7.75006e-06
-1.06683e-06
-8.67788e-06
-7.73259e-07
-9.23452e-06
-3.06082e-07
-9.55435e-06
2.97242e-07
-9.71668e-06
1.0023e-06
-9.77559e-06
1.77736e-06
-9.76915e-06
2.59755e-06
-9.73154e-06
3.44312e-06
-9.68969e-06
4.30096e-06
-9.67073e-06
5.16368e-06
-9.70072e-06
6.02873e-06
-9.80541e-06
6.89691e-06
-1.00102e-05
7.77097e-06
-1.03399e-05
8.65647e-06
-1.08188e-05
9.56352e-06
-1.14693e-05
1.05058e-05
-1.2309e-05
1.14995e-05
-1.33484e-05
1.25631e-05
-1.45866e-05
1.37157e-05
-1.60037e-05
1.49717e-05
-1.75444e-05
1.63306e-05
-1.90821e-05
-2.03745e-05
-1.29804e-06
-6.10131e-06
-1.40054e-06
-7.64756e-06
-1.29599e-06
-8.78243e-06
-9.91681e-07
-9.53883e-06
-5.18996e-07
-1.0027e-05
8.84758e-08
-1.03242e-05
8.00904e-07
-1.0488e-05
1.595e-06
-1.05632e-05
2.45076e-06
-1.05873e-05
3.35529e-06
-1.05942e-05
4.29852e-06
-1.0614e-05
5.27474e-06
-1.06769e-05
6.28195e-06
-1.08126e-05
7.32112e-06
-1.10494e-05
8.39531e-06
-1.14141e-05
9.50878e-06
-1.19323e-05
1.06663e-05
-1.26269e-05
1.18741e-05
-1.35168e-05
1.31413e-05
-1.46156e-05
1.44822e-05
-1.59275e-05
1.59182e-05
-1.74397e-05
1.74865e-05
-1.91127e-05
1.92058e-05
-2.08014e-05
-2.2276e-05
-1.49051e-06
-5.81408e-06
-1.55357e-06
-7.58451e-06
-1.38712e-06
-8.94888e-06
-1.00899e-06
-9.91696e-06
-4.52174e-07
-1.05839e-05
2.52084e-07
-1.10284e-05
1.07849e-06
-1.13144e-05
2.0088e-06
-1.14936e-05
3.03071e-06
-1.16092e-05
4.1363e-06
-1.16998e-05
5.32234e-06
-1.18e-05
6.58812e-06
-1.19427e-05
7.93499e-06
-1.21595e-05
9.36558e-06
-1.248e-05
1.08831e-05
-1.29316e-05
1.24909e-05
-1.35401e-05
1.4192e-05
-1.4328e-05
1.59886e-05
-1.53134e-05
1.78831e-05
-1.65101e-05
1.98814e-05
-1.79258e-05
2.19908e-05
-1.95492e-05
2.42259e-05
-2.13477e-05
2.66422e-05
-2.32178e-05
-2.49126e-05
-1.61084e-06
-5.5517e-06
-1.60134e-06
-7.59401e-06
-1.32364e-06
-9.22658e-06
-8.08776e-07
-1.04318e-05
-9.34959e-08
-1.12991e-05
7.91749e-07
-1.19137e-05
1.82583e-06
-1.23485e-05
2.99551e-06
-1.26632e-05
4.29409e-06
-1.29078e-05
5.7197e-06
-1.31254e-05
7.27401e-06
-1.33543e-05
8.9607e-06
-1.36294e-05
1.07846e-05
-1.39834e-05
1.27505e-05
-1.44459e-05
1.48622e-05
-1.50433e-05
1.71222e-05
-1.58001e-05
1.95292e-05
-1.67349e-05
2.2079e-05
-1.78632e-05
2.47632e-05
-1.91942e-05
2.75677e-05
-2.07303e-05
3.04799e-05
-2.24614e-05
3.34947e-05
-2.43625e-05
3.66303e-05
-2.63534e-05
-2.82238e-05
-1.65154e-06
-5.33616e-06
-1.53094e-06
-7.7146e-06
-1.08836e-06
-9.66916e-06
-3.72929e-07
-1.11473e-05
5.71202e-07
-1.22433e-05
1.71313e-06
-1.30556e-05
3.0341e-06
-1.36695e-05
4.52491e-06
-1.4154e-05
6.18309e-06
-1.4566e-05
8.01097e-06
-1.49533e-05
1.00139e-05
-1.53572e-05
1.21986e-05
-1.58142e-05
1.45721e-05
-1.63568e-05
1.71397e-05
-1.70135e-05
1.99041e-05
-1.78077e-05
2.28629e-05
-1.87589e-05
2.601e-05
-1.9882e-05
2.93326e-05
-2.11858e-05
3.28089e-05
-2.26706e-05
3.64075e-05
-2.43289e-05
4.00884e-05
-2.61424e-05
4.38122e-05
-2.80862e-05
4.75435e-05
-3.00848e-05
-3.20417e-05
-1.61081e-06
-5.19302e-06
-1.32984e-06
-7.99557e-06
-6.62887e-07
-1.03361e-05
3.18022e-07
-1.21282e-05
1.55758e-06
-1.34828e-05
3.02225e-06
-1.45203e-05
4.69394e-06
-1.53412e-05
6.56654e-06
-1.60266e-05
8.6408e-06
-1.66402e-05
1.09218e-05
-1.72343e-05
1.34168e-05
-1.78522e-05
1.61326e-05
-1.853e-05
1.90738e-05
-1.92981e-05
2.22417e-05
-2.01813e-05
2.56323e-05
-2.11983e-05
2.92362e-05
-2.23628e-05
3.3036e-05
-2.36819e-05
3.70064e-05
-2.51561e-05
4.11128e-05
-2.67769e-05
4.53144e-05
-2.85305e-05
4.95626e-05
-3.03906e-05
5.37985e-05
-3.23221e-05
5.79468e-05
-3.42331e-05
-3.62292e-05
-1.47939e-06
-5.15389e-06
-9.83249e-07
-8.49171e-06
-2.65535e-08
-1.12928e-05
1.28295e-06
-1.34377e-05
2.87846e-06
-1.50783e-05
4.72205e-06
-1.63638e-05
6.7965e-06
-1.74156e-05
9.0973e-06
-1.83274e-05
1.16255e-05
-1.91684e-05
1.43837e-05
-1.99925e-05
1.73739e-05
-2.08423e-05
2.05963e-05
-2.17525e-05
2.40482e-05
-2.27499e-05
2.77231e-05
-2.38563e-05
3.16114e-05
-2.50866e-05
3.5697e-05
-2.64484e-05
3.99567e-05
-2.79416e-05
4.4363e-05
-2.95625e-05
4.88711e-05
-3.12851e-05
5.34381e-05
-3.30976e-05
5.80178e-05
-3.49703e-05
6.25498e-05
-3.68541e-05
6.69572e-05
-3.86406e-05
-4.04537e-05
-1.25096e-06
-5.25627e-06
-4.74957e-07
-9.26771e-06
8.3685e-07
-1.26046e-05
2.53709e-06
-1.51379e-05
4.54227e-06
-1.70835e-05
6.81097e-06
-1.86326e-05
9.32201e-06
-1.99267e-05
1.20633e-05
-2.10687e-05
1.50295e-05
-2.21347e-05
1.82186e-05
-2.31816e-05
2.16289e-05
-2.42527e-05