/*--------------------------------*- C++ -*----------------------------------*\
  =========                 |
  \\      /  F ield         | OpenFOAM: The Open Source CFD Toolbox
   \\    /   O peration     | Website:  https://openfoam.org
    \\  /    A nd           | Version:  11
     \\/     M anipulation  |
\*---------------------------------------------------------------------------*/
FoamFile
{
    format      ascii;
    class       volVectorField;
    location    "1.18";
    object      U;
}
// * * * * * * * * * * * * * * * * * * * * * * * * * * * * * * * * * * * * * //

dimensions      [0 1 -1 0 0 0 0];

internalField   nonuniform List<vector> 
2880
(
(-0.0732644 -0.186889 2.60779e-20)
(-0.132403 -0.341284 -3.6982e-20)
(-0.179155 -0.513931 0)
(-0.163034 -0.529459 -1.14277e-19)
(-0.13082 -0.560139 9.55908e-20)
(0.0404661 -0.288205 6.88562e-19)
(-0.141053 -0.245564 7.65541e-19)
(-0.193811 -0.401536 0)
(-0.211117 -0.558535 6.52015e-20)
(-0.169086 -0.575146 -4.98813e-19)
(-0.103975 -0.588853 0)
(0.0454749 -0.363833 0)
(-0.195346 -0.2487 -7.38524e-19)
(-0.23176 -0.400362 5.81097e-19)
(-0.221903 -0.539068 0)
(-0.155006 -0.551784 4.28651e-19)
(-0.0596005 -0.566138 0)
(0.101747 -0.382274 0)
(-0.249584 -0.23674 0)
(-0.261509 -0.38128 -5.62859e-19)
(-0.225562 -0.501051 6.21242e-20)
(-0.137658 -0.510754 -1.0497e-19)
(-0.0155304 -0.528061 1.3746e-19)
(0.166946 -0.379435 2.43797e-19)
(-0.29738 -0.221484 2.43094e-20)
(-0.285564 -0.353414 -1.6921e-20)
(-0.228073 -0.455063 -2.40403e-19)
(-0.123237 -0.463173 -2.1236e-19)
(0.0220722 -0.47845 1.86167e-19)
(0.224222 -0.362817 -3.20381e-19)
(-0.340249 -0.20721 -1.93088e-19)
(-0.306194 -0.321366 0)
(-0.231839 -0.405665 2.47393e-19)
(-0.11337 -0.411977 2.20282e-19)
(0.0522532 -0.420624 -2.05211e-19)
(0.267339 -0.334468 0)
(-0.376889 -0.195211 1.89772e-19)
(-0.325549 -0.28734 -2.19577e-21)
(-0.237947 -0.355114 1.71864e-21)
(-0.108712 -0.35807 0)
(0.0709287 -0.35988 5.78919e-21)
(0.298381 -0.293909 -5.179e-21)
(-0.409421 -0.180037 0)
(-0.342991 -0.255743 2.74745e-19)
(-0.246543 -0.304598 -6.7787e-21)
(-0.109707 -0.302302 -2.06491e-19)
(0.0786834 -0.297347 -1.8666e-19)
(0.31543 -0.243719 0)
(-0.435555 -0.1683 0)
(-0.359532 -0.224168 -2.41247e-19)
(-0.2575 -0.254548 -4.20343e-20)
(-0.116436 -0.24533 2.27263e-19)
(0.0761428 -0.233396 3.69545e-19)
(0.317999 -0.186709 0)
(-0.455267 -0.158655 8.23697e-19)
(-0.375119 -0.192383 -5.60961e-19)
(-0.270673 -0.205212 2.64161e-20)
(-0.128733 -0.187718 0)
(0.0638463 -0.168522 -2.29242e-19)
(0.306486 -0.125175 3.76218e-19)
(-0.46821 -0.150056 -1.59871e-18)
(-0.389707 -0.160576 4.68414e-19)
(-0.285864 -0.156806 4.60397e-19)
(-0.146229 -0.130027 -3.9646e-19)
(0.0423954 -0.103381 0)
(0.281384 -0.061169 -4.12484e-19)
(-0.474233 -0.141447 2.45301e-18)
(-0.403205 -0.129006 -1.08448e-18)
(-0.302789 -0.109534 -3.77046e-19)
(-0.168363 -0.0728537 3.91309e-19)
(0.0125913 -0.0387911 -8.93795e-20)
(0.243444 0.00345014 8.14899e-20)
(-0.473433 -0.131788 -1.59866e-18)
(-0.415486 -0.0979503 9.7982e-19)
(-0.320988 -0.0635745 5.4021e-20)
(-0.194397 -0.0168521 7.16854e-19)
(-0.0244856 0.0243058 6.0827e-19)
(0.193793 0.0669603 7.96136e-20)
(-0.466555 -0.120316 2.47633e-20)
(-0.426102 -0.0675894 9.6577e-19)
(-0.339923 -0.0191306 -8.30457e-19)
(-0.223448 0.0372914 -7.57105e-19)
(-0.0675895 0.0848683 -6.88149e-19)
(0.134122 0.127664 -6.04296e-19)
(-0.453852 -0.106407 -2.45168e-20)
(-0.434779 -0.0380123 -9.03771e-19)
(-0.359109 0.0235176 -4.06735e-20)
(-0.254508 0.0888651 7.31871e-19)
(-0.115146 0.141831 -1.63798e-19)
(0.0666281 0.183946 1.67129e-19)
(-0.435892 -0.0896694 -5.00987e-20)
(-0.441221 -0.00924136 2.88834e-20)
(-0.377988 0.064087 9.25086e-19)
(-0.28643 0.137133 -1.44483e-18)
(-0.16528 0.194195 -8.02486e-20)
(-0.00625645 0.234365 5.72207e-19)
(-0.413275 -0.0698973 -2.56191e-20)
(-0.445085 0.0187415 -3.29999e-20)
(-0.395986 0.102295 8.54201e-19)
(-0.317981 0.181358 1.3279e-20)
(-0.215947 0.241021 1.52494e-19)
(-0.0817466 0.277646 -6.65613e-19)
(-0.386607 -0.0471275 4.9024e-20)
(-0.445959 0.0459244 9.30362e-19)
(-0.412515 0.137872 -1.2558e-20)
(-0.347871 0.220796 7.95764e-19)
(-0.264912 0.281409 -2.2422e-19)
(-0.156729 0.312674 7.7983e-19)
(-0.356275 -0.0218062 0)
(-0.443354 0.0723678 -9.24141e-19)
(-0.426963 0.170541 -8.72363e-19)
(-0.37479 0.254664 -1.73009e-19)
(-0.309753 0.314462 -4.39707e-19)
(-0.22772 0.338503 4.92456e-19)
(-0.321476 0.00450086 2.32298e-20)
(-0.43701 0.0986027 -1.00472e-18)
(-0.438698 0.199959 8.25003e-19)
(-0.397406 0.282045 0)
(-0.34792 0.339166 5.99163e-19)
(-0.290644 0.354162 -9.82716e-19)
(-0.281457 0.0308453 -4.81783e-20)
(-0.42655 0.124628 1.16059e-18)
(-0.447008 0.225509 -1.02247e-18)
(-0.413994 0.302141 8.75103e-20)
(-0.376879 0.353739 -1.44297e-19)
(-0.340056 0.358676 7.34149e-19)
(-0.235386 0.055122 -2.34105e-20)
(-0.411321 0.149625 0)
(-0.450864 0.245 0)
(-0.422385 0.311923 8.99174e-20)
(-0.392376 0.356394 5.3357e-19)
(-0.366596 0.351763 0)
(-0.181897 0.0711093 -5.05854e-20)
(-0.386896 0.171476 -1.15924e-18)
(-0.447203 0.253824 0)
(-0.419199 0.309702 -9.53243e-20)
(-0.386875 0.345201 -1.21645e-18)
(-0.361589 0.33252 5.69896e-19)
(-0.0925828 0.0707046 2.57804e-20)
(-0.303022 0.188635 1.36417e-18)
(-0.407521 0.276875 -6.11006e-20)
(-0.381501 0.298603 -9.97391e-20)
(-0.35328 0.297302 7.83997e-19)
(-0.360267 0.247012 2.36993e-20)
(0.741081 -1.0346 0)
(1.0659 -0.895339 -1.57495e-20)
(1.18588 -0.777363 1.25052e-20)
(1.23498 -0.659647 0)
(1.24666 -0.554131 0)
(1.24058 -0.466447 4.03899e-20)
(1.22874 -0.396012 -3.71195e-20)
(1.21669 -0.340484 0)
(1.206 -0.296603 -1.11241e-19)
(1.19648 -0.261269 1.77484e-19)
(1.18745 -0.232014 -6.79907e-20)
(1.17839 -0.20709 -9.63262e-20)
(1.16899 -0.18535 -8.28073e-22)
(1.15909 -0.165998 3.11783e-20)
(1.14857 -0.148464 0)
(1.13734 -0.132324 0)
(1.12529 -0.117252 -2.51688e-20)
(1.11232 -0.103005 -2.4421e-20)
(1.09834 -0.0893773 -1.51643e-19)
(1.08327 -0.0760853 4.61722e-20)
(1.06708 -0.0627845 0)
(1.04922 -0.0502382 0)
(1.02762 -0.0426595 0)
(1.00306 -0.0414779 0)
(0.801551 -0.820499 3.02341e-19)
(1.17652 -0.831818 0)
(1.28333 -0.741247 2.93049e-20)
(1.31754 -0.63584 1.81325e-22)
(1.31691 -0.537852 8.31862e-21)
(1.30005 -0.453944 -3.3701e-20)
(1.27892 -0.385342 5.385e-20)
(1.25914 -0.330729 -2.76101e-20)
(1.24225 -0.287444 2.90429e-21)
(1.22782 -0.252678 -4.22992e-21)
(1.21493 -0.224069 0)
(1.20275 -0.199881 8.8072e-20)
(1.19077 -0.17894 -5.38688e-20)
(1.17867 -0.160428 -4.97485e-20)
(1.16625 -0.143762 5.04773e-20)
(1.15333 -0.128504 2.32513e-20)
(1.13976 -0.114325 4.78037e-20)
(1.12539 -0.100973 2.44158e-20)
(1.11007 -0.0882353 0)
(1.09367 -0.0758192 1.09064e-19)
(1.07609 -0.0633574 7.16581e-22)
(1.05675 -0.0515792 -8.48083e-20)
(1.03368 -0.0447832 -8.8737e-20)
(1.00689 -0.0448671 8.56132e-20)
(0.802927 -0.654389 -3.03906e-19)
(1.24702 -0.749389 0)
(1.36376 -0.685182 0)
(1.39187 -0.59617 -3.85361e-20)
(1.38281 -0.509515 -1.15329e-20)
(1.35707 -0.432166 0)
(1.32756 -0.367455 9.4952e-21)
(1.30051 -0.315223 0)
(1.2776 -0.27356 4.31093e-20)
(1.25834 -0.240073 -1.78851e-21)
(1.24161 -0.212621 0)
(1.22635 -0.189559 0)
(1.21184 -0.169734 2.15604e-20)
(1.19762 -0.152335 3.45121e-21)
(1.18338 -0.136777 -2.09673e-20)
(1.16888 -0.122627 -2.73997e-21)
(1.15389 -0.109557 -2.26502e-20)
(1.13824 -0.0973165 1.97614e-20)
(1.12172 -0.0856905 -1.93741e-20)
(1.10416 -0.0743841 3.9925e-20)
(1.08535 -0.0630119 -7.79015e-20)
(1.0647 -0.0522339 1.8564e-20)
(1.04034 -0.0463276 0)
(1.01138 -0.0478871 -4.95488e-20)
(0.80692 -0.533326 7.76775e-20)
(1.28935 -0.658243 -6.44295e-20)
(1.42596 -0.61669 0)
(1.45519 -0.544891 5.16177e-20)
(1.44186 -0.470968 0)
(1.40979 -0.402025 -1.28698e-21)
(1.37336 -0.342834 -8.37471e-21)
(1.33981 -0.294267 -1.36217e-20)
(1.31131 -0.255155 4.91159e-21)
(1.28746 -0.223616 -3.97022e-20)
(1.26704 -0.197803 -2.34805e-21)
(1.2488 -0.176222 2.15253e-20)
(1.23188 -0.157795 -4.0709e-20)
(1.21565 -0.141738 6.18381e-20)
(1.19971 -0.127488 4.08091e-20)
(1.18373 -0.114627 -5.85099e-20)
(1.16745 -0.102842 -3.84113e-20)
(1.15065 -0.0918907 -2.92949e-21)
(1.13307 -0.0815699 5.57388e-20)
(1.1145 -0.0715958 1.89672e-20)
(1.09466 -0.0615742 -3.56719e-20)
(1.07294 -0.0520452 -5.67841e-20)
(1.04752 -0.0470933 1.46745e-19)
(1.01648 -0.0503851 -1.33655e-19)
(0.81262 -0.43984 -1.96706e-19)
(1.31226 -0.563804 1.05182e-19)
(1.47152 -0.540392 2.31672e-20)
(1.5067 -0.485072 0)
(1.49265 -0.424153 0)
(1.45682 -0.364682 -1.47753e-20)
(1.41522 -0.312204 -1.51103e-21)
(1.37623 -0.268329 1.39292e-21)
(1.34275 -0.232573 -8.54894e-21)
(1.31468 -0.203585 -3.89034e-22)
(1.2908 -0.179835 0)
(1.26978 -0.160042 7.80289e-21)
(1.25059 -0.143243 1.51468e-20)
(1.2325 -0.128704 0)
(1.21499 -0.115898 -1.81983e-20)
(1.19767 -0.10444 0)
(1.18023 -0.0940391 -9.18888e-21)
(1.16239 -0.0844796 -9.13905e-21)
(1.14388 -0.0755843 0)
(1.12444 -0.0671118 3.2604e-20)
(1.10374 -0.0586949 -6.40837e-20)
(1.08119 -0.0506913 2.40143e-20)
(1.05503 -0.0466503 -4.22525e-20)
(1.02209 -0.0519983 3.20975e-20)
(0.812897 -0.360945 2.1889e-19)
(1.31906 -0.469199 -8.00401e-20)
(1.5015 -0.459286 4.6074e-20)
(1.54591 -0.419015 2.8645e-20)
(1.53422 -0.370784 -6.46772e-21)
(1.49716 -0.321346 2.07865e-20)
(1.45222 -0.276383 9.08271e-21)
(1.40904 -0.238006 -2.21543e-21)
(1.37138 -0.206274 2.17741e-21)
(1.33958 -0.180323 -5.7371e-21)
(1.31257 -0.159006 0)
(1.28901 -0.141272 -8.87067e-21)
(1.26776 -0.126272 0)
(1.24799 -0.11336 2.98412e-21)
(1.22908 -0.102061 -4.12689e-21)
(1.21058 -0.0920266 6.92512e-21)
(1.19211 -0.0829986 -7.83792e-21)
(1.17336 -0.074793 1.12616e-20)
(1.15402 -0.0672747 3.47156e-21)
(1.13379 -0.0602835 1.47819e-20)
(1.11232 -0.0535525 3.04326e-22)
(1.08904 -0.0472356 -6.77601e-21)
(1.06245 -0.0437462 1.17076e-20)
(1.02899 -0.0512885 -1.218e-20)
(0.804202 -0.289036 0)
(1.31108 -0.37606 -6.77191e-20)
(1.51616 -0.375509 -4.99284e-20)
(1.57233 -0.348306 -2.88033e-20)
(1.5659 -0.312743 0)
(1.53007 -0.273307 0)
(1.48364 -0.236259 -5.84911e-21)
(1.43766 -0.203962 6.78228e-22)
(1.39674 -0.176777 -6.27236e-22)
(1.36181 -0.154284 7.00841e-22)
(1.33209 -0.135705 0)
(1.3063 -0.120229 1.75731e-21)
(1.28324 -0.107155 -7.77035e-22)
(1.26201 -0.0959307 -1.81934e-21)
(1.24192 -0.086141 -3.20004e-21)
(1.22244 -0.0774765 0)
(1.20314 -0.0697109 0)
(1.18366 -0.0626885 -3.44381e-21)
(1.16364 -0.0563119 -5.13695e-21)
(1.14272 -0.0504945 -6.3918e-23)
(1.12042 -0.0450789 4.99183e-21)
(1.09602 -0.0402164 -3.27935e-21)
(1.06842 -0.0378274 -3.59301e-21)
(1.03684 -0.0445147 3.68713e-21)
(0.786426 -0.220172 -1.242e-20)
(1.28912 -0.285144 1.06209e-20)
(1.51558 -0.290705 0)
(1.58575 -0.274935 1.49024e-20)
(1.58672 -0.250673 6.42124e-22)
(1.55512 -0.221997 8.83833e-21)
(1.50892 -0.192767 -1.01761e-20)
(1.46159 -0.166922 2.23351e-21)
(1.41845 -0.144671 1.68887e-21)
(1.38111 -0.125965 0)
(1.34917 -0.110372 4.03042e-22)
(1.3215 -0.0973207 -3.7516e-22)
(1.29694 -0.0862744 -1.7469e-21)
(1.27452 -0.076788 -2.65571e-21)
(1.2535 -0.0685158 4.038e-21)
(1.23329 -0.061199 0)
(1.21341 -0.0546538 5.5471e-21)
(1.19342 -0.0487661 -7.82218e-21)
(1.17289 -0.0434824 0)
(1.15135 -0.0387577 0)
(1.12817 -0.0345398 -5.979e-21)
(1.1026 -0.0313957 3.01785e-21)
(1.07408 -0.0319357 -2.91454e-21)
(1.04252 -0.0375837 2.67099e-21)
(0.758969 -0.152349 5.06048e-20)
(1.25346 -0.196949 -4.36112e-20)
(1.49974 -0.206186 0)
(1.58584 -0.200232 7.70638e-20)
(1.59573 -0.185741 -2.37004e-20)
(1.57182 -0.168433 3.51913e-20)
(1.52769 -0.146913 -1.36674e-20)
(1.48047 -0.127635 0)
(1.43623 -0.110564 -1.3931e-20)
(1.39727 -0.0958989 0)
(1.36366 -0.0834929 0)
(1.33452 -0.0730147 -6.44987e-22)
(1.30877 -0.0641003 6.02196e-22)
(1.28544 -0.0564279 0)
(1.26374 -0.0497437 0)
(1.24304 -0.043864 3.32932e-21)
(1.22278 -0.0386743 -9.14934e-21)
(1.20247 -0.0341294 1.12318e-20)
(1.18159 -0.0302375 1.43538e-20)
(1.15959 -0.0269981 -1.40608e-20)
(1.1358 -0.0244193 4.57817e-21)
(1.10953 -0.0232015 2.72234e-21)
(1.08038 -0.0258119 7.82298e-21)
(1.04769 -0.0315878 -1.09483e-20)
(0.720496 -0.0850999 0)
(1.20393 -0.112114 0)
(1.46847 -0.123242 0)
(1.57225 -0.125675 -2.39221e-19)
(1.59358 -0.120297 0)
(1.5783 -0.112611 -3.52217e-20)
(1.53954 -0.0996338 2.39634e-20)
(1.49391 -0.086794 -3.68674e-20)
(1.44978 -0.0750555 -2.42824e-20)
(1.41008 -0.0646192 -2.69924e-21)
(1.37543 -0.0555669 1.08196e-20)
(1.34528 -0.0477927 0)
(1.31868 -0.0411123 0)
(1.29469 -0.0353412 3.39542e-21)
(1.27252 -0.0303336 -8.27358e-21)
(1.25147 -0.0259962 -1.12227e-20)
(1.23095 -0.0222941 1.19549e-20)
(1.21038 -0.0192493 0)
(1.18922 -0.0169192 -1.14293e-20)
(1.16684 -0.0153308 2.13279e-20)
(1.14259 -0.0145107 -2.06395e-20)
(1.11588 -0.0151332 0)
(1.08638 -0.019374 -4.89924e-21)
(1.0531 -0.0261269 6.49718e-21)
(0.669978 -0.0188435 5.56831e-20)
(1.14023 -0.0314886 -3.27081e-19)
(1.42145 -0.0431922 -5.28729e-20)
(1.54446 -0.052655 3.76022e-19)
(1.57989 -0.0557725 5.01994e-20)
(1.57381 -0.0558294 -4.57343e-20)
(1.54405 -0.0516484 0)
(1.50159 -0.0451447 2.73378e-21)
(1.45885 -0.0387665 5.69374e-20)
(1.41938 -0.0326642 1.53453e-20)
(1.38439 -0.0270847 -1.43026e-20)
(1.3537 -0.0221216 0)
(1.3266 -0.0177668 0)
(1.30223 -0.0139782 1.24065e-21)
(1.27977 -0.010725 0)
(1.25851 -0.00800853 0)
(1.23782 -0.00586861 -1.07362e-20)
(1.2171 -0.00438098 1.01451e-20)
(1.19576 -0.00363341 2.01951e-20)
(1.17318 -0.00366839 -3.98406e-20)
(1.14874 -0.00452968 2.60938e-20)
(1.12188 -0.00684718 -6.42526e-21)
(1.09234 -0.0125751 7.02326e-21)
(1.0589 -0.0206672 6.2623e-21)
(0.607012 0.0456257 4.1976e-19)
(1.06222 0.0440035 2.52108e-19)
(1.35823 0.0325173 1.72663e-19)
(1.50194 0.0173843 -2.62307e-19)
(1.5543 0.00693997 -1.19657e-19)
(1.55863 -0.000310433 0)
(1.54001 -0.00333047 -6.08064e-20)
(1.50297 -0.0034678 4.44562e-20)
(1.46309 -0.00231231 -3.19179e-20)
(1.42496 -0.000553843 -4.12222e-21)
(1.3904 0.00148742 -1.73089e-20)
(1.35974 0.00356415 0)
(1.33253 0.00552265 -6.46147e-21)
(1.30803 0.00726627 -3.54301e-22)
(1.28549 0.0087124 2.31879e-21)
(1.26419 0.00977002 0)
(1.24347 0.0103337 -7.23451e-21)
(1.22273 0.0102868 6.82119e-21)
(1.20139 0.00952101 0)
(1.17885 0.00797657 -4.45125e-21)
(1.15448 0.00557955 -1.80884e-20)
(1.12776 0.00172676 2.30876e-20)
(1.09843 -0.00539752 -1.1686e-21)
(1.06511 -0.0149686 -1.1521e-20)
(0.531601 0.107115 3.94751e-19)
(0.970232 0.113286 -1.44986e-19)
(1.27865 0.102366 -3.32205e-19)
(1.44413 0.0830347 3.3377e-19)
(1.51565 0.066376 1.20127e-19)
(1.53389 0.0525983 0)
(1.52562 0.0443662 6.07308e-20)
(1.49781 0.0377218 -4.44818e-20)
(1.46218 0.0337051 3.20877e-20)
(1.42657 0.0311903 -1.95477e-20)
(1.39335 0.0297063 -2.59594e-20)
(1.36334 0.0288705 5.29418e-20)
(1.33645 0.0283943 6.53247e-21)
(1.31215 0.0280587 -7.42759e-21)
(1.28976 0.0276781 -5.77212e-22)
(1.26859 0.0270812 0)
(1.24801 0.0261061 1.30373e-21)
(1.22744 0.0246028 -1.53806e-20)
(1.2063 0.0224428 -3.38603e-21)
(1.18404 0.0195411 1.82301e-20)
(1.16001 0.015783 1.3254e-20)
(1.13368 0.0105644 -3.22735e-20)
(1.1048 0.00215539 -6.62326e-21)
(1.07182 -0.00892257 2.54075e-20)
(0.444485 0.164067 -8.00672e-19)
(0.864426 0.174804 -5.97646e-19)
(1.18302 0.164657 3.5798e-19)
(1.3706 0.142703 -2.41585e-19)
(1.46333 0.121382 -1.08418e-19)
(1.49876 0.10316 3.37455e-21)
(1.50156 0.0887518 -2.01052e-19)
(1.48466 0.0777155 9.54823e-20)
(1.45557 0.0686468 7.168e-20)
(1.42392 0.0620654 -5.33688e-20)
(1.39304 0.0571647 7.56583e-20)
(1.36441 0.0534497 -2.54659e-20)
(1.33835 0.0505405 -2.0327e-20)
(1.31461 0.0481241 -3.11939e-21)
(1.29265 0.04593 1.3788e-20)
(1.27185 0.0437185 -1.01138e-20)
(1.25163 0.0412799 8.29668e-22)
(1.23143 0.0384329 1.57475e-21)
(1.21072 0.0350261 -9.53228e-21)
(1.18897 0.0309413 9.00253e-21)
(1.16552 0.0260167 0)
(1.13983 0.0196256 0)
(1.1116 0.0100798 3.34307e-20)
(1.07919 -0.0024539 -2.42183e-20)
(0.347493 0.214457 0)
(0.745808 0.22665 5.92989e-19)
(1.07142 0.217691 0)
(1.28115 0.194886 1.45161e-19)
(1.39676 0.170736 -2.38598e-19)
(1.4513 0.148915 2.73449e-19)
(1.46884 0.130582 1.29801e-19)
(1.46271 0.114997 5.18113e-22)
(1.4425 0.101935 -7.20073e-20)
(1.41647 0.0916491 5.36697e-20)
(1.38915 0.0835107 3.88996e-20)
(1.36275 0.0770044 -3.44809e-20)
(1.33815 0.0717047 2.05382e-20)
(1.31543 0.0672377 1.39437e-20)
(1.29424 0.0632706 -8.74821e-21)
(1.27411 0.0595101 0)
(1.25449 0.0557056 0)
(1.2349 0.0516458 0)
(1.21486 0.047153 -7.63568e-22)
(1.19384 0.0420723 2.3016e-21)
(1.17121 0.0361935 0)
(1.14638 0.0288529 -2.55687e-20)
(1.11904 0.0183642 3.07095e-20)
(1.08744 0.0044932 6.98465e-21)
(0.242944 0.255847 0)
(0.617226 0.266902 -5.28023e-19)
(0.945028 0.259911 0)
(1.17553 0.238222 2.95935e-19)
(1.31529 0.213099 0)
(1.39092 0.189115 0)
(1.42517 0.167906 0)
(1.43226 0.149199 -8.99052e-21)
(1.42234 0.132953 -2.23259e-19)
(1.40356 0.119468 6.43391e-21)
(1.38115 0.108381 -8.54663e-20)
(1.35803 0.0992515 -3.30276e-20)
(1.33565 0.0916595 0)
(1.3145 0.085209 -3.10028e-20)
(1.29453 0.0795337 4.24998e-20)
(1.27541 0.0743054 9.13431e-21)
(1.25671 0.0692418 5.79628e-21)
(1.23801 0.0641045 0)
(1.21888 0.0586887 3.06588e-21)
(1.19885 0.052804 -2.88124e-21)
(1.17727 0.0461971 0)
(1.15356 0.03816 -2.2952e-20)
(1.12735 0.0269739 1.73651e-20)
(1.09684 0.0119522 0)
(0.134062 0.285932 -1.53027e-19)
(0.482608 0.293262 5.50928e-20)
(0.806882 0.28938 -2.62222e-19)
(1.0542 0.271025 -5.70815e-19)
(1.21806 0.247203 -2.08514e-19)
(1.3165 0.222839 0)
(1.36962 0.200156 0)
(1.39194 0.179455 6.504e-21)
(1.39408 0.160939 8.81445e-20)
(1.3843 0.144951 1.76018e-19)
(1.36831 0.13137 -4.0135e-20)
(1.34969 0.119901 7.08663e-20)
(1.33045 0.11019 2.03181e-20)
(1.31159 0.101868 -7.83584e-20)
(1.29338 0.0945732 1.91701e-20)
(1.27571 0.0879673 -1.99469e-20)
(1.25832 0.0817509 -5.89555e-21)
(1.24084 0.0756657 -4.62773e-21)
(1.22292 0.0694837 -1.01599e-21)
(1.20414 0.0629855 -6.90061e-22)
(1.18389 0.0558877 0)
(1.16157 0.0474398 -1.11872e-20)
(1.13679 0.0358574 -5.62091e-21)
(1.1077 0.0199403 1.43753e-20)
(0.0244917 0.30268 -8.31222e-20)
(0.34684 0.3036 3.76617e-19)
(0.662123 0.303851 5.41116e-19)
(0.919872 0.291345 -5.34268e-20)
(1.10509 0.271526 3.09768e-19)
(1.22674 0.248992 1.55762e-19)
(1.30053 0.226518 -5.91115e-20)
(1.34014 0.205092 7.63522e-21)
(1.3563 0.185288 0)
(1.3574 0.167584 -1.63072e-19)
(1.34953 0.152082 9.23285e-20)
(1.33683 0.138662 -2.75627e-21)
(1.32188 0.127085 -3.19617e-21)
(1.30618 0.117057 2.05319e-20)
(1.29041 0.108256 0)
(1.27476 0.100367 1.90905e-20)
(1.25914 0.0930949 -4.10404e-20)
(1.24331 0.0861751 1.77007e-20)
(1.22698 0.0793651 -7.98032e-21)
(1.20978 0.0724276 4.21197e-21)
(1.19117 0.0650633 1.93904e-22)
(1.17057 0.0565096 0)
(1.14758 0.0448896 1.09434e-20)
(1.12035 0.0284173 -1.55468e-20)
(-0.0816777 0.303937 4.24269e-19)
(0.215524 0.296194 2.0308e-20)
(0.517688 0.301382 2.35391e-19)
(0.778022 0.297081 1.18678e-19)
(0.978677 0.284169 -1.93275e-19)
(1.12131 0.266092 -1.38677e-19)
(1.21622 0.245906 -2.23728e-19)
(1.27476 0.225309 0)
(1.30692 0.205378 -6.34716e-20)
(1.32093 0.186864 6.18304e-20)
(1.32312 0.170124 4.20475e-20)
(1.31803 0.155243 3.41497e-20)
(1.30878 0.142137 0)
(1.29735 0.130621 1.7051e-20)
(1.2849 0.120456 9.05054e-21)
(1.27198 0.11138 -1.55438e-20)
(1.25873 0.103132 -4.75447e-22)
(1.24508 0.0954601 0)
(1.23082 0.088124 3.59331e-21)
(1.21564 0.0808852 8.12301e-21)
(1.1991 0.0734484 -5.13552e-21)
(1.18066 0.0650923 -4.30841e-22)
(1.15994 0.0538551 0)
(1.13517 0.0372402 3.78429e-21)
(-0.179173 0.287095 -4.33377e-19)
(0.0946093 0.269662 -1.09127e-19)
(0.381105 0.280899 2.77466e-19)
(0.636328 0.286705 2.11368e-19)
(0.844292 0.283252 7.87253e-20)
(1.00248 0.272315 4.00697e-21)
(1.11632 0.256805 2.6172e-19)
(1.19388 0.238949 -1.66131e-19)
(1.24337 0.220355 7.12896e-20)
(1.27221 0.202157 5.31765e-20)
(1.28651 0.185029 -4.21794e-20)
(1.29101 0.169312 6.04126e-20)
(1.2892 0.155115 -3.17745e-20)
(1.28351 0.142404 0)
(1.27555 0.131055 -4.51937e-20)
(1.26627 0.120895 1.549e-20)
(1.25615 0.111727 9.16097e-21)
(1.24534 0.10334 0)
(1.23377 0.0955246 0)
(1.22124 0.0880634 -2.48143e-21)
(1.20733 0.0806967 1.96933e-21)
(1.19162 0.0727876 -1.86855e-21)
(1.17382 0.0624181 0)
(1.15238 0.0461602 -2.60514e-21)
(-0.260626 0.248724 3.06674e-19)
(-0.00926115 0.223126 1.01288e-19)
(0.259749 0.242605 -2.76883e-19)
(0.503107 0.260082 -2.10655e-19)
(0.709654 0.267847 0)
(0.875665 0.266139 5.66093e-20)
(1.00325 0.25753 -5.2673e-20)
(1.09732 0.244471 0)
(1.1637 0.22896 0)
(1.20829 0.212495 0)
(1.23639 0.19609 0)
(1.25248 0.180372 0)
(1.26011 0.165688 -7.13137e-20)
(1.26199 0.152194 4.34771e-20)
(1.26008 0.139919 1.31937e-20)
(1.25571 0.128812 -2.6285e-20)
(1.24973 0.118769 0)
(1.24259 0.109661 -6.50015e-21)
(1.23449 0.101348 0)
(1.22535 0.0936656 -2.86812e-21)
(1.21487 0.0864066 0)
(1.20266 0.0790709 2.44907e-21)
(1.18863 0.0700145 -1.20681e-21)
(1.17191 0.0546946 2.65924e-21)
(-0.315687 0.184131 -9.765e-19)
(-0.0880402 0.156581 -3.08092e-19)
(0.160749 0.188422 0)
(0.385844 0.219076 -1.73933e-19)
(0.582755 0.238714 -2.02348e-19)
(0.748151 0.247296 1.13195e-19)
(0.882331 0.247049 -4.84732e-20)
(0.987788 0.240468 6.59194e-20)
(1.06811 0.22973 -6.40033e-20)
(1.12736 0.216557 -7.40978e-21)
(1.1696 0.202216 -3.98343e-20)
(1.19852 0.187589 -2.69816e-20)
(1.21736 0.173263 2.56017e-20)
(1.22873 0.159601 0)
(1.23475 0.146813 -1.13795e-20)
(1.23697 0.135008 3.70081e-20)
(1.23656 0.124216 0)
(1.2342 0.114411 6.57131e-21)
(1.23036 0.105521 0)
(1.22539 0.0974547 -4.06437e-21)
(1.21935 0.090124 4.18091e-21)
(1.21178 0.0832456 -1.40515e-21)
(1.20258 0.0758259 -5.62777e-22)
(1.1926 0.0619782 -1.82355e-21)
(-0.327166 0.0856956 5.85144e-19)
(-0.131042 0.0735067 -5.22264e-20)
(0.0907211 0.122847 0)
(0.290143 0.167816 1.54909e-20)
(0.470028 0.198891 2.62029e-19)
(0.626841 0.217444 0)
(0.760034 0.225855 0)
(0.870328 0.22657 0)
(0.95951 0.221749 5.48591e-20)
(1.03002 0.213168 -8.022e-20)
(1.08457 0.202199 3.70429e-20)
(1.12587 0.189872 -2.49811e-20)
(1.15646 0.176941 2.3719e-20)
(1.17859 0.163947 -1.62714e-20)
(1.19417 0.151266 0)
(1.2048 0.139159 0)
(1.21174 0.127816 7.14536e-21)
(1.21598 0.11733 -5.12063e-21)
(1.21805 0.107714 9.85247e-21)
(1.21842 0.0989421 -1.43586e-21)
(1.21723 0.0911972 2.54696e-21)
(1.2152 0.0843123 -2.55221e-21)
(1.21166 0.0785033 4.91623e-23)
(1.21136 0.0665436 -3.70382e-22)
(-0.258498 -0.070618 0)
(-0.124474 -0.0120476 3.38281e-19)
(0.0538356 0.0550179 -7.86308e-21)
(0.218001 0.112852 1.89739e-19)
(0.374376 0.153444 -2.47587e-19)
(0.516252 0.180374 3.47902e-21)
(0.641632 0.196445 -5.86695e-21)
(0.750129 0.204146 -3.34066e-20)
(0.842172 0.205519 0)
(0.918892 0.202215 4.10076e-20)
(0.981881 0.195539 0)
(1.03292 0.186534 2.30591e-20)
(1.0738 0.176018 -4.10535e-20)
(1.10623 0.164625 1.62952e-20)
(1.13175 0.152842 0)
(1.15174 0.141044 0)
(1.16733 0.129531 4.25977e-21)
(1.17955 0.118542 1.99664e-21)
(1.18918 0.108283 -8.45078e-21)
(1.19666 0.0988332 -7.97266e-22)
(1.20224 0.0904506 4.33469e-22)
(1.20673 0.082815 -4.8312e-22)
(1.20898 0.076785 8.87143e-22)
(1.22051 0.067298 1.66797e-21)
(0.000967645 0.0448239 -9.10992e-21)
(-0.0115777 0.0676057 3.82262e-19)
(-0.00716066 0.0789037 1.93378e-20)
(0.0272535 0.0765993 0)
(0.0313097 0.0759647 0)
(0.189636 0.0127989 -4.50324e-20)
(-0.0037793 0.0531045 2.66089e-19)
(-0.0150928 0.0700191 0)
(-0.00909177 0.0750891 1.71804e-20)
(0.021517 0.0697753 -1.22715e-19)
(0.034353 0.0488792 0)
(0.130216 0.00658761 0)
(-0.00603063 0.0575351 -2.30457e-19)
(-0.0159456 0.0710181 1.78967e-19)
(-0.0117517 0.0717215 0)
(0.0123833 0.0620373 1.01026e-19)
(0.0274142 0.0352473 0)
(0.0863493 -0.0042816 0)
(-0.00839488 0.0616931 0)
(-0.0181127 0.0722838 -1.66475e-19)
(-0.0162816 0.0692382 1.53248e-20)
(0.00144919 0.0558142 -2.49432e-20)
(0.014129 0.0251969 3.08115e-20)
(0.0501376 -0.0127485 5.189e-20)
(-0.0110409 0.0663028 6.4443e-21)
(-0.0214464 0.0738403 -5.00996e-21)
(-0.022235 0.0677349 -6.06785e-20)
(-0.0107994 0.0512838 -4.83938e-20)
(-0.00211337 0.0187436 4.13822e-20)
(0.0189916 -0.0176233 -6.74556e-20)
(-0.0143366 0.0706728 -5.1618e-20)
(-0.0257418 0.0756399 0)
(-0.029273 0.0672734 6.18023e-20)
(-0.0237279 0.0484421 4.95597e-20)
(-0.0193251 0.0154109 -4.52576e-20)
(-0.00837286 -0.0196324 0)
(-0.0184143 0.0740144 5.4208e-20)
(-0.0308726 0.0776285 -5.82504e-22)
(-0.0370261 0.0677952 4.54084e-22)
(-0.0367714 0.0473094 0)
(-0.0364594 0.0143542 1.23658e-21)
(-0.0324996 -0.0201204 -1.10163e-21)
(-0.0224974 0.0775233 0)
(-0.0366269 0.079721 7.76291e-20)
(-0.045112 0.0691923 -1.79736e-21)
(-0.0495258 0.0477065 -4.73266e-20)
(-0.0529052 0.01489 -4.06294e-20)
(-0.0535356 -0.019662 0)
(-0.0263461 0.0821063 0)
(-0.0422639 0.08205 -6.97621e-20)
(-0.0531269 0.0713946 -1.06416e-20)
(-0.0616409 0.0494611 5.2694e-20)
(-0.0681904 0.0166716 8.13151e-20)
(-0.0715922 -0.0184505 0)
(-0.0309583 0.0847166 2.86949e-19)
(-0.0474882 0.084566 -1.6504e-19)
(-0.0606983 0.0743759 7.19162e-21)
(-0.0727982 0.0524747 0)
(-0.0819563 0.0195581 -5.10436e-20)
(-0.0867609 -0.016657 8.20564e-20)
(-0.0358267 0.0870049 -5.58377e-19)
(-0.0521142 0.0872538 1.4075e-19)
(-0.0674912 0.0781412 1.24103e-19)
(-0.0827155 0.0567225 -9.84336e-20)
(-0.0939226 0.0235394 0)
(-0.0990515 -0.0143585 -9.11804e-20)
(-0.0404364 0.0888558 8.6203e-19)
(-0.0559039 0.0900953 -3.3546e-19)
(-0.0732089 0.0827171 -1.02022e-19)
(-0.091151 0.0622432 9.85539e-20)
(-0.103876 0.0287119 -2.13812e-20)
(-0.108431 -0.011448 1.93423e-20)
(-0.0442751 0.090181 -5.64333e-19)
(-0.0586524 0.0930958 3.07319e-19)
(-0.0776011 0.0881447 1.49962e-20)
(-0.0979056 0.0691256 1.94406e-19)
(-0.111667 0.0352675 1.59815e-19)
(-0.114932 -0.00772223 2.00546e-20)
(-0.0468302 0.0910529 8.91241e-21)
(-0.0602209 0.0962766 3.15083e-19)
(-0.0804694 0.0944619 -2.47311e-19)
(-0.102816 0.0774913 -2.08902e-19)
(-0.117166 0.043497 -1.83761e-19)
(-0.118566 -0.00283021 -1.68536e-19)
(-0.0474565 0.0918525 -8.85454e-21)
(-0.0605708 0.0996816 -2.97656e-19)
(-0.0816727 0.101678 -1.9411e-20)
(-0.105754 0.0874652 2.21582e-19)
(-0.120249 0.0537703 -4.82694e-20)
(-0.119436 0.00365064 3.69642e-20)
(-0.0452233 0.0930758 -1.78888e-20)
(-0.059815 0.103352 1.01187e-20)
(-0.0811351 0.109736 2.90148e-19)
(-0.106614 0.0991356 -4.54621e-19)
(-0.120787 0.0665366 -2.53713e-20)
(-0.117772 0.0122651 1.80531e-19)
(-0.0407275 0.093734 -8.49337e-21)
(-0.0581919 0.107073 -1.07967e-20)
(-0.0788601 0.118456 2.85994e-19)
(-0.10531 0.112498 -5.7401e-21)
(-0.118606 0.0823378 5.37636e-20)
(-0.113986 0.0236995 -2.50419e-19)
(-0.0383684 0.0912343 1.48666e-20)
(-0.0559305 0.11026 3.30593e-19)
(-0.0748693 0.127475 3.5456e-21)
(-0.101754 0.127391 2.76543e-19)
(-0.113508 0.101874 -8.49906e-20)
(-0.108614 0.0386826 3.08023e-19)
(-0.0374549 0.0863803 0)
(-0.0529731 0.112239 -3.26655e-19)
(-0.0691056 0.136273 -3.05152e-19)
(-0.095803 0.143447 -6.60903e-20)
(-0.105402 0.126031 -1.83149e-19)
(-0.10199 0.0576471 2.34571e-19)
(-0.0361804 0.0798861 7.16479e-21)
(-0.0490535 0.112575 -3.65541e-19)
(-0.061459 0.144261 3.04198e-19)
(-0.0871244 0.16005 0)
(-0.0939265 0.155031 2.47634e-19)
(-0.094347 0.0812836 -4.93957e-19)
(-0.0338024 0.0721362 -1.47515e-20)
(-0.0440522 0.111058 4.20744e-19)
(-0.0518982 0.150828 -3.80071e-19)
(-0.0754318 0.176064 3.48372e-20)
(-0.0778961 0.188721 -7.03909e-20)
(-0.0848693 0.110743 3.84464e-19)
(-0.0318971 0.0642765 -7.87608e-21)
(-0.0381664 0.10778 0)
(-0.0407327 0.15546 0)
(-0.0608186 0.189996 3.99773e-20)
(-0.0554165 0.227912 2.53104e-19)
(-0.0720382 0.146756 0)
(-0.0299107 0.0554406 -1.8349e-20)
(-0.0315455 0.10249 -4.31753e-19)
(-0.0286869 0.157346 0)
(-0.0448106 0.199476 -4.30752e-20)
(-0.0243146 0.273275 -5.71675e-19)
(-0.0520345 0.186831 3.23904e-19)
(-0.0268049 0.0383112 6.43673e-19)
(-0.0265195 0.084952 9.4201e-19)
(-0.016324 0.146057 0)
(-0.0239434 0.187227 4.60128e-20)
(0.021378 0.316735 2.84176e-19)
(-0.0285829 0.217181 6.86991e-21)
(-0.0497557 -0.180768 2.61884e-20)
(-0.0644205 -0.0741501 0)
(0.0438617 -8.81273e-05 -8.74251e-20)
(0.165884 0.0628443 0)
(0.293865 0.108462 0)
(0.416507 0.140824 5.13139e-20)
(0.529305 0.16272 5.41243e-21)
(0.630385 0.176314 3.15992e-20)
(0.719451 0.183385 2.30473e-20)
(0.796745 0.185348 -1.84758e-20)
(0.863001 0.183349 0)
(0.919278 0.178327 3.31462e-20)
(0.966755 0.171053 -1.30886e-21)
(1.00663 0.162155 6.88433e-21)
(1.04007 0.15215 9.36842e-21)
(1.06816 0.14147 -8.95849e-21)
(1.09183 0.130478 2.45698e-21)
(1.11197 0.119489 -4.092e-21)
(1.1293 0.108873 2.85246e-21)
(1.14459 0.0987595 -1.28928e-21)
(1.15759 0.089649 0)
(1.17037 0.0808696 0)
(1.17839 0.0741656 -2.70778e-21)
(1.20208 0.0649563 2.58151e-21)
(0.0249029 -0.155141 1.25451e-19)
(-0.0211504 -0.0898602 0)
(0.0384919 -0.0327924 8.75039e-20)
(0.124243 0.0241188 3.1672e-20)
(0.223925 0.0688855 -5.42956e-20)
(0.325034 0.103178 6.39064e-20)
(0.421934 0.128633 -7.02318e-20)
(0.511679 0.146669 3.03924e-20)
(0.592887 0.158597 -2.04112e-21)
(0.665359 0.165525 -1.29405e-21)
(0.729237 0.168321 0)
(0.785083 0.167753 -3.2296e-20)
(0.833633 0.164478 1.96604e-20)
(0.875706 0.159041 1.16181e-20)
(0.912155 0.15191 -1.12723e-20)
(0.943832 0.143499 -3.36974e-21)
(0.971531 0.134188 -4.59774e-21)
(0.996025 0.124327 -1.50561e-21)
(1.0179 0.114305 0)
(1.03806 0.104354 8.89539e-22)
(1.05597 0.0950005 1.28908e-21)
(1.07492 0.0857721 -1.97717e-21)
(1.08745 0.0782851 -2.77859e-21)
(1.11743 0.0675448 2.65217e-21)
(0.0354502 -0.122111 -1.2395e-19)
(-0.0062842 -0.0902873 0)
(0.0276551 -0.0504014 0)
(0.0863635 -0.00381856 -3.3152e-20)
(0.161047 0.0365675 -2.78312e-20)
(0.240806 0.0700311 0)
(0.319917 0.0969427 -3.36293e-20)
(0.395249 0.118034 0)
(0.464907 0.133989 -4.28672e-20)
(0.528078 0.145543 1.50911e-21)
(0.584509 0.153221 0)
(0.634345 0.157613 0)
(0.678005 0.159167 -8.94862e-21)
(0.716051 0.158278 1.61009e-22)
(0.749134 0.155321 4.98901e-21)
(0.777931 0.150629 -1.16622e-22)
(0.803147 0.14451 2.13221e-21)
(0.825501 0.13727 -1.2226e-21)
(0.845636 0.129226 4.74392e-22)
(0.864333 0.120704 1.30024e-21)
(0.881748 0.112013 -1.39081e-21)
(0.899502 0.103442 4.66883e-22)
(0.915078 0.0952473 0)
(0.938062 0.0845889 -6.66862e-23)
(0.0214925 -0.100293 2.66047e-20)
(-0.00883965 -0.0869773 -2.35424e-20)
(0.0110012 -0.0600716 0)
(0.0508162 -0.0238867 6.29494e-20)
(0.105137 0.0107446 0)
(0.165517 0.0417895 -1.91178e-20)
(0.227085 0.0687602 5.11986e-20)
(0.286775 0.0916815 2.52333e-20)
(0.342747 0.110873 -2.33448e-20)
(0.393889 0.126537 3.44504e-20)
(0.43973 0.138966 -2.33589e-21)