/*--------------------------------*- C++ -*----------------------------------*\
  =========                 |
  \\      /  F ield         | OpenFOAM: The Open Source CFD Toolbox
   \\    /   O peration     | Website:  https://openfoam.org
    \\  /    A nd           | Version:  11
     \\/     M anipulation  |
\*---------------------------------------------------------------------------*/
FoamFile
{
    format      ascii;
    class       surfaceVectorField;
    location    "1.18";
    object      Uf;
}
// * * * * * * * * * * * * * * * * * * * * * * * * * * * * * * * * * * * * * //

dimensions      [0 1 -1 0 0 0 0];

internalField   nonuniform List<vector> 
5640
(
(-0.102922 -0.263794 -5.77687e-22)
(-0.103082 -0.217828 3.9581e-19)
(-0.16279 -0.442501 -1.92778e-20)
(-0.160045 -0.372613 -1.8491e-20)
(-0.168722 -0.515298 -5.5208e-20)
(-0.192564 -0.537243 3.26007e-20)
(-0.140334 -0.528031 1.17042e-20)
(-0.162833 -0.55357 -3.06545e-19)
(-0.0715161 -0.483755 3.84969e-19)
(-0.12017 -0.573407 4.77954e-20)
(0.0302437 -0.321018 3.44281e-19)
(0.355615 -0.545915 4.01494e-19)
(-0.166702 -0.321277 4.04854e-19)
(-0.169699 -0.246654 1.01751e-20)
(-0.206812 -0.489958 3.12135e-20)
(-0.213233 -0.400806 2.90548e-19)
(-0.19044 -0.565515 -2.08176e-19)
(-0.216126 -0.548924 3.26007e-20)
(-0.13365 -0.571139 -2.56399e-19)
(-0.161769 -0.563553 -3.56968e-20)
(-0.0444723 -0.51681 0)
(-0.082579 -0.577243 0)
(0.0749226 -0.373472 0)
(0.373241 -0.518926 1.26049e-19)
(-0.213045 -0.32207 -1.1678e-19)
(-0.223941 -0.242353 -3.69262e-19)
(-0.229892 -0.476823 3.02912e-19)
(-0.247014 -0.390727 8.29121e-21)
(-0.189823 -0.546052 2.07085e-19)
(-0.223328 -0.52016 3.10621e-20)
(-0.106336 -0.550627 2.20334e-19)
(-0.145737 -0.531417 1.6184e-19)
(0.0117619 -0.502439 0)
(-0.0367681 -0.547298 6.873e-20)
(0.136883 -0.381484 1.21898e-19)
(0.401029 -0.471189 -1.26701e-19)
(-0.255613 -0.306758 -2.65193e-19)
(-0.273196 -0.229163 1.21547e-20)
(-0.246048 -0.446787 -2.63665e-19)
(-0.273359 -0.367379 -2.8989e-19)
(-0.183361 -0.506984 -1.75701e-20)
(-0.226517 -0.478111 -8.91396e-20)
(-0.0768708 -0.512455 1.74728e-20)
(-0.129937 -0.487055 -1.58665e-19)
(0.0696032 -0.473841 2.10996e-19)
(0.00465437 -0.503504 1.61813e-19)
(0.197097 -0.371398 -3.50374e-20)
(0.437331 -0.426889 1.7454e-19)
(-0.292066 -0.285375 5.47334e-21)
(-0.318133 -0.214424 -8.43893e-20)
(-0.259037 -0.408878 -1.23907e-19)
(-0.295735 -0.337406 -8.46052e-21)
(-0.177586 -0.460072 -2.26855e-19)
(-0.229717 -0.430391 3.23986e-21)
(-0.0518844 -0.465573 -1.86834e-20)
(-0.118003 -0.437609 3.63998e-21)
(0.118936 -0.434237 -6.10354e-20)
(0.0383673 -0.449673 -8.23885e-21)
(0.247183 -0.348801 -1.6019e-19)
(0.470942 -0.385281 -2.68819e-19)
(-0.324327 -0.262538 -1.02114e-19)
(-0.358363 -0.20122 -1.76727e-21)
(-0.271054 -0.367409 1.18433e-19)
(-0.315717 -0.30436 -1.09788e-21)
(-0.174666 -0.409468 2.34448e-19)
(-0.234677 -0.3804 1.24556e-19)
(-0.0326106 -0.412807 1.23597e-20)
(-0.110836 -0.385033 1.10141e-19)
(0.156573 -0.386635 -1.05065e-19)
(0.0620888 -0.390276 -9.97112e-20)
(0.284015 -0.314243 -2.5895e-21)
(0.495171 -0.340709 9.12574e-20)
(-0.352721 -0.240121 9.93258e-20)
(-0.393245 -0.187625 9.48861e-20)
(-0.283678 -0.324407 -4.67927e-22)
(-0.333953 -0.271536 1.36274e-19)
(-0.17552 -0.357054 8.88351e-22)
(-0.242158 -0.329854 -2.53003e-21)
(-0.0213782 -0.35674 2.81344e-21)
(-0.109077 -0.330183 -1.03245e-19)
(0.181844 -0.333515 8.57694e-22)
(0.0750546 -0.328609 -9.04354e-20)
(0.30739 -0.268805 -2.5895e-21)
(0.509298 -0.289398 -3.01982e-21)
(-0.378033 -0.217454 1.29447e-19)
(-0.422372 -0.174158 0)
(-0.296631 -0.282818 1.40439e-19)
(-0.351149 -0.239946 1.68686e-20)
(-0.180415 -0.303915 -1.03261e-19)
(-0.251979 -0.279569 -2.44065e-20)
(-0.018223 -0.298523 -1.96853e-19)
(-0.112988 -0.273809 1.02971e-20)
(0.194446 -0.27562 -9.55674e-20)
(0.0775549 -0.265359 9.12916e-20)
(0.3169 -0.215199 0)
(0.511725 -0.232574 -5.17801e-21)
(-0.399509 -0.196567 -1.13664e-19)
(-0.445322 -0.163464 4.11848e-19)
(-0.310342 -0.241657 -1.45129e-19)
(-0.367286 -0.20827 -4.01104e-19)
(-0.189305 -0.250489 8.7905e-20)
(-0.264067 -0.229877 -7.80909e-21)
(-0.0229344 -0.238778 2.96409e-19)
(-0.122541 -0.216518 1.13632e-19)
(0.194572 -0.214029 1.89202e-19)
(0.0700659 -0.200948 7.02276e-20)
(0.312346 -0.155926 1.88109e-19)
(0.501767 -0.171726 2.10976e-20)
(-0.417126 -0.176606 1.72016e-19)
(-0.461674 -0.154341 -3.87365e-19)
(-0.324678 -0.200918 -2.81001e-19)
(-0.382415 -0.17648 -4.62691e-20)
(-0.202033 -0.197127 1.36543e-20)
(-0.278263 -0.181007 2.43407e-19)
(-0.0352001 -0.178079 -1.11408e-19)
(-0.137473 -0.158871 -1.9823e-19)
(0.182741 -0.149996 6.46864e-20)
(0.0531358 -0.135948 -1.14621e-19)
(0.29396 -0.0931663 -1.80773e-20)
(0.479028 -0.108128 2.19369e-19)
(-0.430707 -0.157055 -6.24775e-19)
(-0.471215 -0.145749 4.27135e-19)
(-0.339493 -0.160758 4.6354e-19)
(-0.396502 -0.144804 -3.08032e-19)
(-0.218323 -0.144192 4.64425e-20)
(-0.294303 -0.133163 4.17268e-20)
(-0.0545617 -0.117074 -2.03788e-19)
(-0.157318 -0.101447 -2.52658e-21)
(0.15953 -0.0847806 -2.01298e-19)
(0.0274552 -0.0710969 -4.46898e-20)
(0.262348 -0.0288783 -1.65497e-19)
(0.443319 -0.0432315 -2.16997e-19)
(-0.44033 -0.136937 7.87265e-19)
(-0.47385 -0.136624 4.27092e-19)
(-0.354723 -0.120953 -7.47162e-19)
(-0.409411 -0.113502 -5.20335e-20)
(-0.237765 -0.0920671 -5.84758e-21)
(-0.311936 -0.0865717 -1.61513e-19)
(-0.080361 -0.0564907 1.57703e-19)
(-0.181434 -0.0448724 5.54082e-19)
(0.125723 -0.0196383 -7.76812e-21)
(-0.00605413 -0.00728122 2.59445e-19)
(0.218493 0.0351601 8.05517e-20)
(0.394882 0.0214577 2.22518e-19)
(-0.445223 -0.118131 -3.83802e-19)
(-0.470152 -0.126121 -7.86951e-19)
(-0.369614 -0.0830885 5.36618e-19)
(-0.420836 -0.0827881 9.72795e-19)
(-0.259742 -0.0412255 3.74435e-19)
(-0.330486 -0.0413659 -3.88218e-19)
(-0.11171 0.00286527 6.64084e-19)
(-0.208994 0.0101885 -2.04555e-20)
(0.0823799 0.0442595 3.49206e-19)
(-0.0461399 0.0545424 -4.04121e-20)
(0.163745 0.0972201 -2.62341e-19)
(0.334381 0.0843227 2.10997e-19)
(-0.446263 -0.0980655 4.68122e-19)
(-0.460401 -0.113463 1.23243e-22)
(-0.38413 -0.0458969 1.05874e-19)
(-0.430491 -0.052827 3.07578e-20)
(-0.283565 0.00794235 -7.9502e-19)
(-0.349557 0.00217255 -4.35372e-19)
(-0.147539 0.0600666 -7.23593e-19)
(-0.239065 0.0630335 -1.26172e-20)
(0.0312159 0.10498 -6.47228e-19)
(-0.0915277 0.113267 -4.25973e-19)
(0.100118 0.155673 -2.1736e-19)
(0.26319 0.143525 -6.86167e-19)
(-0.443264 -0.0770514 -4.38781e-19)
(-0.445087 -0.0981678 -3.73078e-20)
(-0.397772 -0.00995835 -4.88962e-19)
(-0.438065 -0.0236658 -4.37444e-19)
(-0.308485 0.0549255 3.32549e-19)
(-0.368601 0.0437705 4.42467e-19)
(-0.186582 0.11425 2.96593e-19)
(-0.270563 0.112942 -3.56949e-19)
(-0.0261647 0.161895 -3.5958e-21)
(-0.140388 0.167908 -1.22023e-19)
(0.0299211 0.208996 3.70977e-19)
(0.183118 0.19775 9.74514e-20)
(-0.436375 -0.0549077 -1.54018e-20)
(-0.424791 -0.0799272 -3.78589e-20)
(-0.410105 0.0245571 4.57917e-19)
(-0.44323 0.00469663 -2.05821e-21)
(-0.333652 0.0992171 -2.19535e-19)
(-0.387046 0.0831503 8.89644e-19)
(-0.227336 0.164529 -7.81133e-19)
(-0.302302 0.159179 -7.15281e-19)
(-0.087476 0.213492 2.38159e-19)
(-0.190787 0.217488 3.61229e-20)
(-0.0442828 0.25581 -4.6703e-20)
(0.0966735 0.24481 3.33649e-19)
(-0.425751 -0.031508 -3.1932e-20)
(-0.400119 -0.0586542 1.17025e-20)
(-0.420673 0.0575225 3.90188e-19)
(-0.445614 0.0322601 4.48681e-19)
(-0.358171 0.140316 4.47945e-19)
(-0.404313 0.120034 4.20483e-19)
(-0.268164 0.210044 8.0935e-20)
(-0.333017 0.201004 4.05014e-19)
(-0.150253 0.258623 -2.45971e-19)
(-0.24059 0.261087 -3.58626e-20)
(-0.119526 0.29493 5.86697e-20)
(0.00667405 0.283185 -4.51911e-19)
(-0.411517 -0.0068702 4.67444e-19)
(-0.371579 -0.0345923 2.4512e-20)
(-0.428984 0.0888092 4.78964e-19)
(-0.444781 0.0590325 2.39556e-21)
(-0.381106 0.177723 3.77949e-19)
(-0.41982 0.154133 -4.42924e-19)
(-0.307307 0.249962 3.00586e-19)
(-0.361399 0.237668 3.11378e-19)
(-0.211761 0.296249 2.64501e-19)
(-0.287474 0.297807 -3.31964e-19)
(-0.192487 0.325349 6.36143e-19)
(-0.0836196 0.311376 4.12436e-19)
(-0.393641 0.0187956 -4.35413e-19)
(-0.339011 -0.00879345 1.16149e-20)
(-0.4345 0.118329 -8.97892e-19)
(-0.440403 0.0852558 -9.64431e-19)
(-0.401501 0.210917 -5.34499e-19)
(-0.432956 0.18512 -2.36797e-20)
(-0.342912 0.283446 -3.03668e-19)
(-0.386087 0.268367 -8.65043e-20)
(-0.268911 0.325362 1.52011e-20)
(-0.328957 0.326689 8.04614e-20)
(-0.259306 0.346204 -2.45886e-19)
(-0.170653 0.328023 4.64028e-19)
(-0.371467 0.044826 -4.61093e-19)
(-0.301791 0.0172885 -1.24743e-20)
(-0.4368 0.146206 -1.28789e-19)
(-0.432003 0.111352 7.93955e-20)
(-0.418408 0.239307 4.26437e-19)
(-0.443032 0.212522 -9.99087e-20)
(-0.373025 0.309505 2.91182e-19)
(-0.405651 0.292151 4.37551e-20)
(-0.318184 0.344872 -1.72816e-19)
(-0.362343 0.346519 2.27433e-19)
(-0.315302 0.356476 -1.246e-19)
(-0.250142 0.331592 -7.53691e-19)
(-0.344182 0.0705767 5.16495e-19)
(-0.259034 0.0421546 -3.57944e-20)
(-0.43539 0.172168 1.1674e-19)
(-0.418603 0.137577 5.80296e-19)
(-0.430807 0.262332 -4.86748e-19)
(-0.448752 0.235504 -5.11234e-19)
(-0.395331 0.326722 -2.51438e-20)
(-0.418004 0.307282 8.87138e-20)
(-0.355431 0.353399 2.74149e-19)
(-0.384334 0.355464 1.94636e-19)
(-0.354171 0.354076 3.67075e-19)
(-0.316118 0.32009 5.32273e-19)
(-0.310728 0.0944436 -1.23806e-20)
(-0.208445 0.0634211 -3.69979e-20)
(-0.429425 0.194714 0)
(-0.397381 0.163242 -5.79619e-19)
(-0.437498 0.277601 4.34398e-20)
(-0.447166 0.252321 0)
(-0.406461 0.332612 3.07718e-19)
(-0.42041 0.311407 -2.70346e-21)
(-0.373158 0.34956 2.7318e-19)
(-0.39018 0.349934 -3.45788e-19)
(-0.367816 0.336341 2.84948e-19)
(-0.359423 0.29156 -4.07112e-19)
(-0.268235 0.112283 -5.80977e-19)
(-0.136437 0.0723575 -1.24025e-20)
(-0.414495 0.21014 -6.04284e-19)
(-0.346436 0.177385 1.15391e-19)
(-0.437139 0.282887 -4.6052e-20)
(-0.43011 0.260381 -3.05503e-20)
(-0.400683 0.325279 -6.44579e-19)
(-0.403806 0.297904 -9.75317e-20)
(-0.358928 0.3297 -3.44691e-19)
(-0.370201 0.321028 -2.15146e-19)
(-0.351845 0.306186 3.76268e-19)
(-0.37048 0.243485 5.76253e-19)
(-0.179026 0.119773 6.56368e-19)
(-0.351875 0.230278 6.83193e-19)
(-0.402084 0.291018 -7.97672e-20)
(-0.367396 0.297771 3.2915e-19)
(-0.317208 0.252578 4.12961e-19)
(-0.363376 0.137867 1.38188e-20)
(0.898888 -0.968287 -7.68597e-21)
(0.739582 -0.915083 1.5117e-19)
(0.714747 -1.12497 0)
(1.12038 -0.847449 -3.45029e-20)
(1.12852 -0.86645 -7.87475e-21)
(1.00597 -0.910961 -6.09747e-20)
(1.2097 -0.720233 6.36887e-21)
(1.23706 -0.760272 1.25065e-20)
(1.13673 -0.782389 2.24065e-20)
(1.24064 -0.607944 0)
(1.27715 -0.648096 9.06624e-23)
(1.1937 -0.662427 -6.89547e-20)
(1.24345 -0.511459 1.98881e-20)
(1.28229 -0.54619 4.15931e-21)
(1.21164 -0.555912 8.89009e-20)
(1.23456 -0.432143 3.1223e-22)
(1.27065 -0.460328 3.34445e-21)
(1.21105 -0.468024 -4.92653e-21)
(1.22268 -0.368885 -1.87981e-20)
(1.25405 -0.390762 8.36526e-21)
(1.20386 -0.397783 -4.46269e-20)
(1.21134 -0.318968 -5.49574e-20)
(1.23806 -0.335663 -1.38051e-20)
(1.1956 -0.342535 -5.17387e-22)
(1.20126 -0.279215 3.20945e-20)
(1.22422 -0.292062 -5.38344e-20)
(1.18792 -0.298848 -3.31372e-20)
(1.19199 -0.24683 5.57902e-20)
(1.21222 -0.257001 8.63902e-20)
(1.18075 -0.26357 1.13391e-21)
(1.18296 -0.21969 -8.20194e-20)
(1.20124 -0.228062 -3.39953e-20)
(1.1736 -0.23424 5.33624e-21)
(1.17373 -0.19633 -4.89641e-20)
(1.19061 -0.203501 -3.99259e-21)
(1.16608 -0.209146 -1.10297e-20)
(1.16408 -0.175765 1.50696e-20)
(1.17991 -0.182157 -2.73485e-20)
(1.15797 -0.187171 -3.53223e-20)
(1.15388 -0.157308 1.57191e-20)
(1.16891 -0.163224 -9.19446e-21)
(1.14918 -0.167544 4.7125e-20)
(1.143 -0.140461 0)
(1.15743 -0.146122 2.52386e-20)
(1.13964 -0.149709 -6.31363e-20)
(1.13136 -0.124847 -1.2489e-20)
(1.14535 -0.130422 1.16256e-20)
(1.12928 -0.133251 0)
(1.11886 -0.110175 -2.47976e-20)
(1.13254 -0.115796 1.13837e-20)
(1.11803 -0.117852 1.783e-20)
(1.10539 -0.096215 -8.759e-20)
(1.11887 -0.101996 6.10703e-23)
(1.10582 -0.103274 -4.15426e-20)
(1.09085 -0.0827886 -5.32856e-20)
(1.10422 -0.0888135 -7.58215e-20)
(1.09256 -0.089317 3.29625e-20)
(1.07511 -0.0697593 2.32342e-20)
(1.08849 -0.0759595 7.76181e-20)
(1.07822 -0.0757053 -2.98533e-20)
(1.058 -0.0570244 0)
(1.0716 -0.0630781 3.58291e-22)
(1.06279 -0.0621071 -2.27878e-22)
(1.03933 -0.0445133 0)
(1.053 -0.0509153 -4.24042e-20)
(1.04574 -0.0492903 2.41146e-20)
(1.01953 -0.0325176 0)
(1.03067 -0.043728 -4.43685e-20)
(1.02492 -0.0413849 2.70303e-20)
(1.00499 -0.043177 4.28066e-20)
(1.00147 -0.0396589 2.56128e-20)
(0.987801 -0.816849 1.54794e-19)
(0.779801 -0.730283 -7.55955e-20)
(1.22713 -0.792182 1.43456e-20)
(1.20974 -0.789956 0)
(1.29979 -0.69044 1.50139e-20)
(1.32405 -0.713376 1.46524e-20)
(1.31698 -0.588363 5.97932e-21)
(1.35515 -0.616147 -1.91774e-20)
(1.30839 -0.497161 -1.38365e-20)
(1.35026 -0.523809 -1.60712e-21)
(1.28945 -0.420631 1.16539e-20)
(1.32882 -0.443141 -1.68505e-20)
(1.26903 -0.358732 1.22729e-20)
(1.30346 -0.376469 3.16726e-20)
(1.25072 -0.309554 -1.25349e-20)
(1.27997 -0.323023 -1.38051e-20)
(1.23508 -0.270366 -2.41034e-22)
(1.26002 -0.280535 2.30068e-20)
(1.22142 -0.238575 -2.13702e-21)
(1.24316 -0.246399 -3.00922e-21)
(1.20889 -0.212119 4.36038e-20)
(1.22832 -0.218362 0)
(1.19681 -0.189522 1.76724e-20)
(1.21459 -0.194733 4.4036e-20)
(1.18477 -0.169775 -5.18268e-20)
(1.20133 -0.174347 -1.61542e-20)
(1.17251 -0.152171 -2.05781e-23)
(1.18817 -0.15639 -2.30592e-20)
(1.15984 -0.136198 3.69724e-20)
(1.17484 -0.140277 1.4755e-20)
(1.14659 -0.121472 3.54345e-20)
(1.16112 -0.125572 1.01863e-20)
(1.13263 -0.107693 3.61945e-20)
(1.14684 -0.111947 1.25116e-20)
(1.11779 -0.0946259 1.22927e-20)
(1.13183 -0.0991509 2.20886e-20)
(1.10192 -0.082081 5.41682e-20)
(1.11591 -0.0869691 -9.68704e-21)
(1.08484 -0.0699092 5.30111e-20)
(1.09893 -0.0751081 7.44271e-20)
(1.0663 -0.0579921 -4.5502e-20)
(1.08074 -0.0631911 -3.85925e-20)
(1.04598 -0.0462366 -8.6761e-20)
(1.06074 -0.051912 -3.31222e-20)
(1.02393 -0.0347961 -7.33265e-20)
(1.03703 -0.0455604 -4.43685e-20)
(1.00916 -0.046384 1.80322e-20)
(1.0211 -0.69564 -1.55596e-19)
(0.801623 -0.593038 -1.13114e-19)
(1.30474 -0.715917 0)
(1.26517 -0.703067 -3.22147e-20)
(1.37744 -0.641928 -1.89098e-20)
(1.3943 -0.650797 0)
(1.38713 -0.554584 -2.26937e-20)
(1.42366 -0.570561 6.13411e-21)
(1.36992 -0.472178 -5.85404e-21)
(1.41258 -0.490303 -5.76643e-21)
(1.34238 -0.400748 4.68151e-21)
(1.38368 -0.417158 -6.43488e-22)
(1.3141 -0.342055 4.80859e-21)
(1.35062 -0.355186 1.85833e-23)
(1.28912 -0.294892 2.12976e-20)
(1.3203 -0.304779 -6.81085e-21)
(1.26804 -0.257143 2.04399e-20)
(1.29456 -0.264383 2.36719e-20)
(1.25004 -0.226561 -9.03581e-22)
(1.27298 -0.231863 -2.09869e-20)
(1.23404 -0.201239 0)
(1.25438 -0.205225 -1.17403e-21)
(1.21915 -0.17976 1.06803e-20)
(1.23762 -0.1829 1.07626e-20)
(1.20479 -0.161124 1.25853e-20)
(1.22189 -0.163772 -9.67716e-21)
(1.19056 -0.144629 -8.65622e-21)
(1.20666 -0.147043 3.27277e-20)
(1.17619 -0.129764 -1.1926e-20)
(1.19157 -0.132137 9.99093e-21)
(1.16144 -0.116147 -1.26196e-20)
(1.17632 -0.118632 -3.06873e-20)
(1.14612 -0.103478 -1.59816e-21)
(1.16069 -0.106204 -3.05307e-20)
(1.13004 -0.0915226 3.29599e-22)
(1.14446 -0.0946082 8.35585e-21)
(1.11299 -0.0800855 1.00777e-20)
(1.12742 -0.0836352 1.82477e-20)
(1.09473 -0.0690072 -2.07274e-20)
(1.10935 -0.0729957 2.95215e-20)
(1.07495 -0.0581516 -2.99666e-20)
(1.09003 -0.0622994 -5.67867e-20)
(1.05313 -0.0473979 9.33727e-21)
(1.06884 -0.0521446 -1.91769e-20)
(1.02887 -0.0367878 -2.4632e-20)
(1.04394 -0.046713 7.33727e-20)
(1.01397 -0.0491458 -9.1602e-20)
(1.04311 -0.590772 2.09593e-21)
(0.81087 -0.486781 -5.9514e-20)
(1.3574 -0.632422 -3.28894e-20)
(1.2993 -0.610752 2.03762e-20)
(1.44032 -0.581365 2.53289e-20)
(1.44826 -0.578453 1.15836e-20)
(1.44842 -0.509583 2.62404e-20)
(1.48098 -0.514988 2.58088e-20)
(1.42591 -0.437784 -6.33712e-22)
(1.46742 -0.447591 0)
(1.39169 -0.373456 -6.05196e-21)
(1.43348 -0.383385 -8.03116e-21)
(1.35671 -0.319269 -1.09645e-20)
(1.39446 -0.32755 -4.94287e-21)
(1.32568 -0.275208 -3.52912e-21)
(1.35814 -0.28132 -6.11439e-21)
(1.29949 -0.239722 -1.71471e-20)
(1.32712 -0.24388 -2.10721e-21)
(1.27734 -0.210934 -2.09401e-20)
(1.30114 -0.213612 -2.00456e-20)
(1.258 -0.187165 9.60741e-21)
(1.27898 -0.188829 -1.17403e-21)
(1.24041 -0.167122 -9.38086e-21)
(1.25933 -0.168139 1.47898e-20)
(1.22383 -0.149854 1.01143e-20)
(1.24126 -0.150524 -1.27811e-20)
(1.20774 -0.134683 5.13553e-20)
(1.2241 -0.135225 3.0919e-20)
(1.19178 -0.121116 -8.49281e-21)
(1.20737 -0.121696 1.12499e-20)
(1.17565 -0.108785 -4.85368e-20)
(1.19071 -0.109536 -2.92549e-20)
(1.15911 -0.097404 -2.08073e-20)
(1.17386 -0.0984427 -2.38001e-20)
(1.14193 -0.0867461 2.61177e-20)
(1.15653 -0.0881876 -6.07882e-21)
(1.12385 -0.0766223 3.74757e-20)
(1.1385 -0.0785802 2.78694e-20)
(1.10459 -0.0668701 -8.17714e-21)
(1.11949 -0.0693583 2.57856e-20)
(1.08376 -0.0573371 -4.43317e-20)
(1.09924 -0.0601413 -4.98778e-20)
(1.06067 -0.0478619 3.21632e-20)
(1.07711 -0.0513758 -1.63849e-20)
(1.0343 -0.0383849 7.81789e-20)
(1.0513 -0.0468765 5.22465e-20)
(1.01938 -0.051209 -5.04682e-20)
(1.05707 -0.496085 -4.93804e-20)
(0.812592 -0.400374 1.13582e-20)
(1.39123 -0.54545 7.03171e-20)
(1.31488 -0.516414 1.1328e-20)
(1.48885 -0.51277 1.1799e-20)
(1.48629 -0.499815 3.46206e-20)
(1.49966 -0.45601 0)
(1.52633 -0.452047 1.43225e-20)
(1.4749 -0.395584 -7.27543e-21)
(1.51356 -0.397483 -3.23386e-21)
(1.43621 -0.339442 -8.23552e-21)
(1.47712 -0.343028 2.80027e-21)
(1.3959 -0.291026 -9.78734e-22)
(1.43385 -0.294309 3.78584e-21)
(1.35964 -0.250973 -3.51873e-21)
(1.39275 -0.253181 -4.11253e-22)
(1.32885 -0.218408 -4.78874e-21)
(1.35716 -0.219434 -3.03932e-21)
(1.30285 -0.191906 -1.96546e-22)
(1.3272 -0.191962 -3.17304e-21)
(1.28039 -0.170086 3.86315e-21)
(1.30172 -0.169425 0)
(1.26027 -0.151756 1.15383e-20)
(1.27943 -0.15066 -5.86678e-22)
(1.24162 -0.136059 7.63992e-21)
(1.2592 -0.13476 7.57342e-21)
(1.22382 -0.122368 -9.02328e-21)
(1.24026 -0.121034 1.49206e-21)
(1.2064 -0.110224 -9.17144e-21)
(1.22205 -0.108981 -1.11626e-20)
(1.18902 -0.0992854 -4.55961e-21)
(1.20413 -0.0982339 3.46256e-21)
(1.17138 -0.0892933 -9.16557e-21)
(1.18617 -0.088519 -8.5165e-21)
(1.1532 -0.0800444 -4.60128e-21)
(1.16787 -0.0796362 1.06052e-21)
(1.13423 -0.0713734 1.61932e-20)
(1.14895 -0.0714292 1.73578e-21)
(1.11412 -0.0631393 -1.62182e-20)
(1.12911 -0.0636972 2.36929e-20)
(1.09246 -0.0552021 -1.85471e-20)
(1.10802 -0.0561233 -3.18897e-20)
(1.06838 -0.0473614 -8.9218e-21)
(1.08515 -0.0489677 8.67958e-21)
(1.04011 -0.0393768 -3.88941e-20)
(1.05889 -0.0452153 -1.50311e-20)
(1.02536 -0.0516228 9.95874e-21)
(1.06029 -0.409017 7.09395e-20)
(0.807833 -0.324957 1.09445e-19)
(1.40896 -0.456956 -1.83036e-20)
(1.31452 -0.422604 -7.43147e-20)
(1.52336 -0.438668 3.75215e-20)
(1.5087 -0.417392 -2.02363e-21)
(1.54011 -0.39597 1.13822e-20)
(1.55917 -0.383663 -3.67774e-23)
(1.51592 -0.347102 6.58602e-21)
(1.55014 -0.341767 -3.23386e-21)
(1.47495 -0.299799 1.50161e-20)
(1.51371 -0.297331 1.03933e-20)
(1.43087 -0.257941 3.97403e-21)
(1.46804 -0.256326 1.70425e-21)
(1.39041 -0.222668 2.49654e-22)
(1.42345 -0.220988 -7.68599e-22)
(1.35564 -0.193649 -1.90339e-21)
(1.38414 -0.191529 7.75086e-22)
(1.32621 -0.169898 -2.89847e-21)
(1.35076 -0.167306 -2.47133e-21)
(1.3009 -0.150295 -4.3918e-21)
(1.32238 -0.147358 0)
(1.27848 -0.133883 -4.47644e-21)
(1.29768 -0.130752 -3.53176e-21)
(1.25796 -0.119899 1.47896e-21)
(1.27552 -0.116714 -3.88517e-22)
(1.23861 -0.107775 -5.41733e-22)
(1.25501 -0.104646 5.72922e-22)
(1.2199 -0.0970953 1.36854e-21)
(1.23551 -0.0941014 -3.66621e-21)
(1.20141 -0.0875551 -4.0044e-22)
(1.2165 -0.0847513 3.46256e-21)
(1.1828 -0.0789283 1.64262e-21)
(1.19761 -0.076354 -3.91896e-21)
(1.16376 -0.0710478 7.39367e-21)
(1.17848 -0.0687393 3.93426e-21)
(1.14397 -0.0637891 9.08902e-21)
(1.15877 -0.0617907 -7.88651e-22)
(1.12311 -0.0570633 7.35784e-21)
(1.13816 -0.0553845 7.35901e-21)
(1.10072 -0.050817 -3.94159e-21)
(1.11622 -0.0493084 2.64808e-21)
(1.07586 -0.0449997 2.41076e-21)
(1.09236 -0.0437181 -5.02768e-21)
(1.04647 -0.0393591 -1.67548e-22)
(1.06543 -0.0407866 4.06015e-21)
(1.03234 -0.0478744 -4.70532e-21)
(1.05163 -0.32681 -3.30478e-20)
(0.795028 -0.25461 -6.20999e-21)
(1.41157 -0.368424 -5.97084e-20)
(1.29978 -0.330608 -2.85491e-20)
(1.54374 -0.360968 -3.95623e-20)
(1.51579 -0.333108 -2.49642e-20)
(1.56916 -0.33118 -1.46425e-20)
(1.57906 -0.31162 -6.95048e-21)
(1.54825 -0.293992 0)
(1.5763 -0.281708 3.21062e-22)
(1.50717 -0.255594 -2.88384e-21)
(1.54274 -0.247649 4.41916e-21)
(1.46094 -0.220833 -2.62737e-21)
(1.49637 -0.214511 -8.0126e-21)
(1.41744 -0.190891 1.11185e-22)
(1.4497 -0.185441 1.45587e-21)
(1.37947 -0.165879 2.94134e-23)
(1.40766 -0.160723 5.30815e-22)
(1.34711 -0.145226 3.54075e-22)
(1.37152 -0.140123 3.5042e-22)
(1.31932 -0.128123 8.70031e-22)
(1.34068 -0.123038 2.01521e-22)
(1.29488 -0.113802 5.10184e-22)
(1.31393 -0.108774 6.91075e-22)
(1.27272 -0.101624 -1.28347e-21)
(1.29011 -0.0967142 -1.26197e-21)
(1.25205 -0.0910983 -2.50393e-21)
(1.26828 -0.0863591 -2.23753e-21)
(1.23226 -0.0818589 -1.61273e-21)
(1.24772 -0.0773283 4.1898e-22)
(1.21286 -0.0736355 0)
(1.22786 -0.0693378 0)
(1.19347 -0.0662338 -1.70942e-21)
(1.20826 -0.0621826 2.77355e-21)
(1.17372 -0.0595203 -4.2845e-21)
(1.18851 -0.0557278 -5.633e-21)
(1.15325 -0.053412 -2.61994e-21)
(1.16823 -0.0498978 -2.56848e-21)
(1.13164 -0.0478738 2.46403e-21)
(1.147 -0.0446267 -3.1959e-23)
(1.10829 -0.0429486 7.5326e-22)
(1.12426 -0.03981 -4.93583e-22)
(1.0823 -0.038813 -3.43525e-21)
(1.09917 -0.0358085 -1.3075e-22)
(1.0528 -0.0355635 2.6131e-23)
(1.07083 -0.0348892 -3.25377e-21)
(1.04036 -0.0410367 3.17906e-21)
(1.03152 -0.247316 -1.85462e-22)
(0.772723 -0.186259 1.90924e-20)
(1.39962 -0.280861 5.42168e-21)
(1.27116 -0.241058 -1.64951e-20)
(1.54993 -0.281471 7.31263e-21)
(1.5076 -0.24845 0)
(1.58623 -0.26306 7.92381e-21)
(1.58577 -0.237585 4.59831e-20)
(1.5712 -0.237306 4.26232e-21)
(1.59129 -0.218202 -1.14776e-20)
(1.53236 -0.207974 -5.36532e-22)
(1.56356 -0.195207 2.20148e-20)
(1.48559 -0.180554 -4.051e-21)
(1.51834 -0.169837 -1.19469e-20)
(1.4403 -0.156303 2.1267e-21)
(1.47109 -0.147274 1.11676e-21)
(1.4 -0.135658 8.5383e-22)
(1.42739 -0.127613 -6.07779e-21)
(1.36532 -0.118396 1.99419e-22)
(1.38924 -0.110928 0)
(1.33548 -0.103999 -4.59938e-23)
(1.35646 -0.0969291 2.01521e-22)
(1.30934 -0.0919044 -1.05467e-21)
(1.32804 -0.0851652 -5.10074e-22)
(1.28583 -0.081609 -2.17416e-21)
(1.30288 -0.0751853 -5.72354e-22)
(1.2641 -0.0727113 6.93579e-22)
(1.28 -0.0666063 -1.32785e-21)
(1.24348 -0.0649048 2.03503e-21)
(1.25864 -0.0591284 2.019e-21)
(1.22343 -0.0579653 2.75252e-21)
(1.23818 -0.0525301 1.66466e-21)
(1.20349 -0.051739 -1.09718e-21)
(1.21811 -0.0466624 -1.80112e-21)
(1.18323 -0.0461375 -3.93827e-21)
(1.19797 -0.0414454 1.72752e-21)
(1.16219 -0.0411396 0)
(1.17729 -0.0368562 7.17689e-21)
(1.13984 -0.0367961 -2.97033e-21)
(1.15554 -0.032872 -7.03039e-21)
(1.11548 -0.033211 -1.29815e-21)
(1.13209 -0.0294707 -7.00415e-22)
(1.08836 -0.0304342 6.9319e-23)
(1.10622 -0.027286 2.98981e-21)
(1.05807 -0.0283719 -1.37834e-22)
(1.07742 -0.0288577 2.60686e-21)
(1.04513 -0.034584 -4.15565e-21)
(0.999764 -0.169635 7.16867e-22)
(0.739757 -0.118721 2.53024e-20)
(1.37327 -0.195018 -2.22622e-20)
(1.2286 -0.154546 -2.18056e-20)
(1.54178 -0.2015 3.78154e-20)
(1.48406 -0.164721 0)
(1.5907 -0.193059 2.75242e-20)
(1.57905 -0.162953 -8.10722e-20)
(1.58403 -0.177837 5.29804e-21)
(1.59471 -0.15301 -1.18502e-20)
(1.5501 -0.158146 1.1102e-20)
(1.57499 -0.140533 -1.29528e-22)
(1.50445 -0.137942 -6.92148e-21)
(1.53369 -0.123263 5.03793e-21)
(1.45866 -0.119578 -6.88243e-21)
(1.48725 -0.107206 -1.84337e-20)
(1.41699 -0.103558 -7.043e-21)
(1.44305 -0.0928032 -1.91791e-20)
(1.38066 -0.0899155 0)
(1.40371 -0.080253 -1.34962e-21)
(1.34925 -0.0784015 -3.19328e-22)
(1.36958 -0.0695246 5.4098e-21)
(1.32177 -0.068659 5.45415e-23)
(1.33993 -0.0603992 -3.22493e-22)
(1.29722 -0.0603363 3.03741e-22)
(1.31375 -0.0526024 3.01098e-22)
(1.27469 -0.0531392 0)
(1.29009 -0.0458812 1.69771e-21)
(1.25347 -0.0468445 1.65144e-21)
(1.26815 -0.0400355 -4.13679e-21)
(1.23299 -0.0413 -2.86271e-21)
(1.24728 -0.0349269 -3.98035e-21)
(1.2127 -0.0364207 9.7243e-22)
(1.22688 -0.0304808 1.40279e-21)
(1.1921 -0.0321863 1.27819e-20)
(1.20645 -0.0266855 5.61589e-21)
(1.17067 -0.0286383 2.22317e-22)
(1.18543 -0.023574 1.41488e-21)
(1.14779 -0.0258704 -4.80107e-21)
(1.16325 -0.0211597 3.68404e-21)
(1.12276 -0.0239958 3.65598e-21)
(1.13922 -0.0194601 -8.08287e-21)
(1.09488 -0.0230981 5.25747e-21)
(1.11274 -0.0191614 1.36117e-21)
(1.06349 -0.0232518 -1.50868e-21)
(1.08343 -0.0225856 1.38323e-21)
(1.05038 -0.0288597 -2.22554e-21)
(0.95562 -0.0939452 0)
(0.695172 -0.0519859 2.78416e-20)
(1.33236 -0.111762 0)
(1.17195 -0.0718294 -1.63541e-19)
(1.51905 -0.122539 -1.17387e-19)
(1.44487 -0.0832376 -2.64365e-20)
(1.58273 -0.122979 -1.21611e-19)
(1.55834 -0.0891681 6.84442e-20)
(1.58611 -0.116777 -1.73433e-20)
(1.58672 -0.0880391 2.50997e-20)
(1.55929 -0.106755 -6.04114e-21)
(1.57597 -0.0842387 -4.0478e-20)
(1.5171 -0.0937055 -6.06131e-21)
(1.5419 -0.0756194 1.19817e-20)
(1.47218 -0.0813715 -3.065e-20)
(1.49778 -0.0659632 -1.71587e-20)
(1.4302 -0.0701491 -1.40282e-20)
(1.45434 -0.0569048 1.62343e-20)
(1.39297 -0.060302 3.49069e-21)
(1.41476 -0.0486348 6.32305e-21)
(1.36052 -0.0518193 5.4629e-21)
(1.37994 -0.0413191 -1.74147e-21)
(1.33211 -0.0445467 0)
(1.34952 -0.0349511 0)
(1.3068 -0.0382918 1.68281e-21)
(1.32266 -0.029434 0)
(1.28371 -0.0328832 -2.45198e-21)
(1.29848 -0.0246546 2.31804e-21)
(1.26208 -0.0281978 -9.69967e-21)
(1.27617 -0.0205245 -4.13679e-21)
(1.24129 -0.0241683 3.18948e-22)
(1.25501 -0.0169978 -5.61137e-21)
(1.22074 -0.0207835 6.0208e-21)
(1.2344 -0.0140769 6.09352e-22)
(1.19987 -0.0180826 -5.67494e-21)
(1.21376 -0.0118108 5.07254e-21)
(1.17811 -0.0161447 4.84005e-21)
(1.19251 -0.0102722 4.4439e-21)
(1.15482 -0.015073 -8.93846e-23)
(1.17003 -0.00949611 -9.25635e-21)
(1.12934 -0.0149714 -1.03835e-20)
(1.14567 -0.00951773 2.72716e-21)
(1.10098 -0.0159332 -2.43503e-21)
(1.11889 -0.0109885 -3.21263e-21)
(1.06898 -0.0180729 7.66208e-22)
(1.08937 -0.0159721 1.06201e-21)
(1.05602 -0.023393 6.37974e-21)
(0.898442 -0.0209499 -1.31111e-19)
(0.638329 0.0133432 2.37721e-19)
(1.27661 -0.0321086 -1.92848e-19)
(1.10108 0.0062157 -3.70067e-20)
(1.48134 -0.0459718 1.60179e-19)
(1.38969 -0.00538222 5.98951e-20)
(1.56185 -0.0540947 2.15835e-19)
(1.52312 -0.0176592 5.65839e-20)
(1.5769 -0.0558074 2.97694e-21)
(1.56707 -0.0244246 -3.4729e-20)
(1.55932 -0.0544743 -2.31855e-20)
(1.56624 -0.028063 -2.28671e-20)
(1.52316 -0.0486923 1.34933e-21)
(1.54196 -0.0275086 -3.04032e-20)
(1.48056 -0.0423644 2.81866e-20)
(1.5023 -0.0242994 2.3595e-20)
(1.4394 -0.0360071 3.63728e-20)
(1.46099 -0.0205321 1.25098e-20)
(1.40211 -0.0300695 1.19539e-21)
(1.42219 -0.0166024 5.61156e-21)
(1.36922 -0.0247323 -7.22147e-21)
(1.38742 -0.0127918 -1.58057e-20)
(1.34029 -0.0200299 0)
(1.35675 -0.00927185 0)
(1.31453 -0.0159296 6.1488e-22)
(1.32959 -0.00611537 -3.23074e-21)
(1.2911 -0.0123897 6.255e-22)
(1.30515 -0.00334956 5.16687e-22)
(1.26923 -0.00939225 0)
(1.28265 -0.00100027 1.1594e-21)
(1.24825 -0.00695507 -5.32741e-21)
(1.26137 0.000886409 0)
(1.22754 -0.00513166 -3.64879e-22)
(1.24066 0.00223779 -8.98536e-21)
(1.2065 -0.00400333 1.51352e-20)
(1.21993 0.00295769 8.48313e-21)
(1.18455 -0.00366877 -9.69454e-21)
(1.19859 0.00294796 1.00976e-20)
(1.16107 -0.00423348 -6.02803e-21)
(1.17603 0.00215749 -2.21459e-20)
(1.13542 -0.00580846 9.93467e-21)
(1.15162 0.000527298 4.00271e-21)
(1.1069 -0.00852295 2.58954e-22)
(1.12483 -0.00255861 8.34947e-21)
(1.0747 -0.0125652 6.64496e-21)
(1.09539 -0.00898405 2.90158e-21)
(1.06203 -0.017811 -2.70803e-21)
(0.827978 0.0484815 3.37944e-19)
(0.569043 0.0762755 4.06365e-19)
(1.2057 0.0427916 2.2025e-19)
(1.01598 0.0785581 5.35613e-20)
(1.4282 0.0268029 -4.56285e-20)
(1.31823 0.0673668 -7.97707e-20)
(1.52762 0.0124475 -1.92175e-19)
(1.4729 0.0501581 3.57312e-20)
(1.55645 0.00331362 -6.07377e-20)
(1.53493 0.0366409 3.94391e-22)
(1.5496 -0.00228162 -2.99799e-20)
(1.54632 0.0261654 0)
(1.52185 -0.0037745 -8.8512e-21)
(1.53264 0.0204553 5.48284e-22)
(1.48336 -0.00318881 6.7245e-21)
(1.5004 0.0171308 2.31154e-23)
(1.44432 -0.00169252 -1.81747e-20)
(1.46264 0.015699 6.04854e-23)
(1.40791 0.000287384 -1.01087e-20)
(1.42577 0.0153215 -1.18655e-20)
(1.37526 0.0024087 -8.73937e-21)
(1.39189 0.015602 -2.16341e-20)
(1.34628 0.00446741 -3.20079e-21)
(1.36156 0.0162236 2.64709e-20)
(1.3204 0.00634568 -3.4347e-21)
(1.33451 0.0169653 -2.8981e-23)
(1.29686 0.00795874 8.45763e-22)
(1.31011 0.0176695 -3.82572e-21)
(1.27493 0.00922255 1.16861e-21)
(1.28764 0.018202 8.70791e-22)
(1.25391 0.0100412 -3.58983e-21)
(1.26641 0.0184318 0)
(1.23317 0.0103077 -2.45573e-22)
(1.24575 0.0182254 -2.96539e-21)
(1.21213 0.00990979 3.4343e-21)
(1.22509 0.0174495 -4.27969e-21)
(1.1902 0.00873419 -2.21078e-21)
(1.20386 0.0159858 -1.69301e-21)
(1.16678 0.00666342 -1.12261e-20)
(1.18145 0.0137618 6.91754e-21)
(1.14124 0.00355514 3.20319e-21)
(1.15725 0.0106834 -2.43684e-21)
(1.11285 -0.000780329 1.10317e-20)
(1.13073 0.00614692 -4.58048e-21)
(1.08073 -0.00663257 -6.31505e-21)
(1.10162 -0.00161912 -3.91414e-21)
(1.06849 -0.0119378 7.01602e-21)
(0.7444 0.113296 1.31352e-19)
(0.48775 0.135463 -2.04995e-19)
(1.11975 0.111625 -2.24608e-19)
(0.916926 0.14387 -3.71316e-19)
(1.35927 0.0943636 -5.40933e-21)
(1.2305 0.133364 1.52322e-20)
(1.4792 0.0750927 2.28734e-19)
(1.40713 0.112767 4.44754e-20)
(1.52474 0.0593306 6.09759e-20)
(1.48932 0.0938074 5.8544e-21)
(1.52984 0.0484847 2.99427e-20)
(1.51631 0.0778714 1.68728e-21)
(1.51213 0.040505 8.8003e-21)
(1.51366 0.0665875 -7.01607e-20)
(1.48029 0.0355368 -6.65356e-21)
(1.49111 0.0576654 2.55003e-20)
(1.44467 0.0322279 6.5573e-21)
(1.45883 0.0511582 5.18839e-20)
(1.4102 0.0302901 -2.38037e-20)
(1.42524 0.0466234 -3.64582e-20)
(1.37854 0.0291856 1.2447e-20)
(1.3932 0.0434362 2.48385e-20)
(1.35005 0.0285669 2.99522e-20)
(1.36388 0.0411638 1.37971e-20)
(1.32442 0.0281862 -3.86277e-22)
(1.33742 0.039473 -6.89728e-21)
(1.30106 0.027845 -3.90013e-21)
(1.3134 0.0380979 -5.37561e-21)
(1.27926 0.0273672 -2.90898e-22)
(1.29122 0.0368106 6.70986e-21)