/*--------------------------------*- C++ -*----------------------------------*  =========                 |
  \      /  F ield         | OpenFOAM: The Open Source CFD Toolbox
   \    /   O peration     | Website:  https://openfoam.org
    \  /    A nd           | Version:  11
     \/     M anipulation  |
\*---------------------------------------------------------------------------*/
FoamFile
{
    format      ascii;
    class       volScalarField;
    object      U;
}
// * * * * * * * * * * * * * * * * * * * * * * * * * * * * * * * * * * * * * //

dimensions      [0 1 -1 0 0 0 0];

internalField   nonuniform List<scalar> 
2880
( 
0.059180318527312745
0.15948814795395064
0.244385876947645
0.1977921674786608
0.1598951492437768
0.06632323553653902
0.10510560208649491
0.20840696744966353
0.24461001755754952
0.19452255965977755
0.1454219184232018
0.09990371257260111
0.12979911248004053
0.2235437786102956
0.23594029139633482
0.18316563015759552
0.13826502623131828
0.1385069179539422
0.15006703683158928
0.22846955281015013
0.22240023658806826
0.16570599743896128
0.14466545032248956
0.18135139203427103
0.17132902584657014
0.23043632289343938
0.2070448811725742
0.15926194232681448
0.15217610491361067
0.18648040241619307
0.19496928988364198
0.2334213397393109
0.1964186554293923
0.16233992280562656
0.1715746247563809
0.1976433635788712
0.2153210226124876
0.23194469577925575
0.18949601335517227
0.15796309814102005
0.16251342118821507
0.2121186195290891
0.22602814276882652
0.23549935176456493
0.18782017598951717
0.15671803336033285
0.17778248741250216
0.2543255042565091
0.2459220358016267
0.22972285101588763
0.18156843855519655
0.1581490773425041
0.18524271373984144
0.24674544600147236
0.2530941730655833
0.23228316374437333
0.18132548350011127
0.15365185317874128
0.17391770253065536
0.2520565535379073
0.26207058599502736
0.2320943203089212
0.17897668079584056
0.15500316255553812
0.1893122213388788
0.26771786886007803
0.26929433764435895
0.2366053754899008
0.18249745327758393
0.15485272799296082
0.18794132351264886
0.2939317697398085
0.2731691354584115
0.23540920343377134
0.18155485475480515
0.15311735844330712
0.19611100407075913
0.3089107934050209
0.26946055049106754
0.23591504646299574
0.18312524983489586
0.15923737129966686
0.19008991124646998
0.29863593165943325
0.2645526819230446
0.24105810668698077
0.18758655229056453
0.16989804685005727
0.19851858237759315
0.33002201286219635
0.25537156317927756
0.24436492105911883
0.20578609299800815
0.1701814158947431
0.2013892818196821
0.30696574674975863
0.24883656377796035
0.2492147520626585
0.21844361504735596
0.1771746785661577
0.2003006219903307
0.3060463082376387
0.2327778466500644
0.25501878164896213
0.23411851597907476
0.18961965333032882
0.21809033420193477
0.32798282404584944
0.21740867280108767
0.2556068470217297
0.24731706254663036
0.20576781367177122
0.2145822568295249
0.30027244580144336
0.19677055854375075
0.25798427518854244
0.2703739689314454
0.22340151687912063
0.23137897898216594
0.29255085501244515
0.17164392304245546
0.2508540836644685
0.2900236018031385
0.24901764394908435
0.2348358266865239
0.2660845623120308
0.14684598839364546
0.2387144088089369
0.2972300632954019
0.28010293596754876
0.271286254139837
0.2306092311469435
0.12024317012820299
0.21501240325454457
0.3057383054321969
0.30850131058883073
0.3395072826296603
0.2067453728715777
0.06781332854958871
0.15124582716017
0.2768841401922212
0.28615310653250325
0.43012655213067175
0.180409637152509
0.20873358772121886
0.3313051932555434
0.34640923187747963
0.47005721224518104
0.5230023839345324
0.5853000656184333
0.7026985608724989
0.7821259394914167
0.9113215056518218
1.0386303404969301
1.133128560598582
1.2118565531282581
1.2596273557317599
1.2974061808690898
1.3438364073542075
1.3495893993244912
1.3311738817022936
1.3308770627447577
1.3076868927899912
1.3014441679393365
1.2624260032781158
1.2464686137555998
1.2246927464275947
1.1778222292206486
0.25992197856858085
0.35195671371192716
0.42864940246596994
0.5115194626239186
0.5711960734121486
0.6881722230953569
0.7886890347557157
0.9047080366131335
1.0417452714423634
1.1351268091187006
1.2140536647784947
1.2858284191406923
1.3185137208157949
1.3473922918504866
1.3528513699137619
1.3610450481836511
1.347038606217144
1.3284928029176253
1.3067882511242896
1.2867049571350557
1.2610581761107504
1.2439394746463055
1.2160342478183614
1.1707768091616726
0.2700201439880062
0.3648132710044173
0.4788228152276607
0.5645534792033424
0.6736760474954913
0.7919808549634239
0.9104883974316508
1.0322526777178267
1.1307725889215
1.212691569897048
1.2800938851263173
1.338624022542068
1.3676804287396769
1.3729969105322313
1.356021005703842
1.3438399830264587
1.3460550248303231
1.3281205687688291
1.293492683149596
1.2684572866437112
1.2587994022696618
1.2286215098741466
1.189922101764503
1.1619420495524457
0.2467274587813535
0.3996436777898481
0.49139418787437594
0.6044581845250049
0.7464535020850895
0.876147559146314
0.997339980245784
1.1151871797018622
1.203333367763412
1.2909483290055768
1.3304477538184638
1.3607244716903732
1.3632258345864192
1.378922796299371
1.373033463315583
1.36610486944046
1.3453652284492286
1.3183011244916136
1.2874542389729264
1.2742046042647752
1.2416345465828629
1.2133281168279657
1.1753884744684369
1.1422841449742975
0.2888512807860434
0.4184242850388532
0.5614124053877412
0.6921801052942287
0.8222382171318542
0.9490583449182685
1.0731087626384725
1.180769167159308
1.279119296143535
1.3341497285461343
1.3497019392475778
1.3608903642281844
1.369835065846362
1.3654758026123637
1.3494432047796652
1.3673757866950473
1.331998724253765
1.302855181882704
1.2854362752193926
1.2566426574933571
1.2352570499474307
1.1968869150770791
1.1649126692493996
1.138752765040134
0.3170184617069913
0.4415259851953205
0.5952850065539501
0.7523727150723203
0.9038000168946811
1.0369595025670637
1.1649301431372479
1.2588510268775288
1.3308004375545819
1.3514892249508867
1.3842903216724798
1.4056209264422643
1.3672952044444653
1.3728472047391609
1.3440716703123554
1.321105753509444
1.3093299051739657
1.3012819082003944
1.2811582533537327
1.235038744497305
1.2150521073715312
1.1752925842262505
1.1504399652319954
1.1149549108662622
0.34019991177830466
0.49928062755457714
0.6511114659422492
0.830798380834852
0.9789744660310763
1.1157544644157742
1.2149195081862088
1.3136506897404499
1.3397468006668756
1.368541296748718
1.3706039064472786
1.3719135828283275
1.3550816160529915
1.3657374359569743
1.3466094110383249
1.3248013089978659
1.2881300632149075
1.2693593391919586
1.2558430483091854
1.2224732429931497
1.2055743638523797
1.171016918782672
1.1310500180337684
1.1047403055735943
0.391518247731819
0.5018134643306259
0.6988989337445977
0.8882018832012146
1.0534684478327785
1.170356720483163
1.2806058223783987
1.3263142498879108
1.376977941797604
1.3629041693816792
1.3766048148086376
1.3682432534093771
1.3427754356377455
1.3379215551807944
1.3237379632797415
1.2978343187144297
1.2796504051025117
1.2540419541781855
1.2400400608518947
1.2142662513171847
1.1818680170910094
1.1600242519199744
1.1213290832740321
1.0927454185065368
0.38878934682902294
0.583462918507245
0.7727573530948685
0.9573602195916019
1.1186925399341217
1.2148353935849276
1.3057831984517967
1.358639034186072
1.3734152044859624
1.3789382729029327
1.3691964087526907
1.3473073441197216
1.3454350565137243
1.3386712679942367
1.3029736913955388
1.2875813467108326
1.250195012737957
1.242791427071565
1.2265909929811334
1.2046073289451105
1.1770016277665254
1.1455443963915652
1.1147061080982894
1.0799196646980336
0.3976547860204446
0.6219762054292585
0.8399234831006396
1.0273614354835598
1.1689672337175812
1.2702699599639622
1.3143601095685111
1.3543378338415053
1.377068256749282
1.3763768624302428
1.354893850031158
1.344425674944529
1.3320276612445
1.3159584907882464
1.2997318641567968
1.2685033724911867
1.2479754253963247
1.232127426497113
1.213089369323028
1.1910912154563147
1.155201220009378
1.1353896211166528
1.1080439812647784
1.073496405815479
0.43819591148909826
0.6867752073368383
0.9025021684207206
1.0849648005246961
1.2390060250774912
1.3067997042775246
1.3314508586467924
1.3400107175914453
1.360736644931325
1.3530553973243957
1.339901343733069
1.3271450659995012
1.312435395217088
1.2993137188428474
1.2788682564111116
1.2560273812159353
1.2369305716696881
1.2176634527005095
1.1943982622612737
1.1761776901178278
1.1566080071977822
1.1304547294033382
1.0976432143096455
1.0685041862566493
0.48615401175636724
0.7344146764987828
0.9779981437852445
1.1614330717661796
1.2698818047918725
1.314331619511707
1.337347762434897
1.351710722855382
1.3494072182841212
1.3304940682126372
1.321934690861875
1.3134708918784004
1.3046255156867923
1.2774816032832266
1.2647058556805546
1.2403635885440827
1.2311914806750341
1.2060565692798597
1.1973326742634098
1.1693304027728741
1.1418973762431144
1.1264865953895875
1.0891115199471115
1.0622985806809553
0.4935501826649482
0.7902750230119526
1.0191983164517893
1.173693873469288
1.272308525762433
1.3237189869205197
1.3481958778646932
1.3416215147196273
1.3353753758617468
1.329675618265457
1.3170871982897663
1.28997563441261
1.280175109961341
1.2486924413259985
1.2457202585911202
1.2295925462643313
1.206113100437362
1.1982350856921555
1.1805256250064948
1.169720718073335
1.1364825463653203
1.1125120438467773
1.0825706036174432
1.051440362172629
0.558871279838929
0.8607185498209854
1.1044918376940893
1.2181487365949657
1.30858095281089
1.32100753361476
1.3288393522373563
1.3473456402796127
1.3247303171051212
1.2847176816593093
1.2846471549401992
1.2706414452827337
1.253238737670368
1.2480739776885346
1.2248379928757127
1.2158307181929906
1.2027177159097684
1.1844997924103462
1.166557119880293
1.1483124361587909
1.1263814999332258
1.1037119979737249
1.0792370316887787
1.0477151532981193
0.5846309265940943
0.9148134027636108
1.1676048501954877
1.2529868171011602
1.3103279397245844
1.3314415075171755
1.3141631106105853
1.320188527340275
1.3034683780035425
1.297829131048153
1.282791296311094
1.2515018767494774
1.2425328127672737
1.2264494433369437
1.2151466538780964
1.205230654433999
1.185799865668163
1.1719837709751466
1.1527927355496617
1.1440374597471783
1.1201284167926757
1.1004459300673113
1.0717772095252152
1.043082074921854
0.6104429939835166
0.9535033233412762
1.1861383196910384
1.2713537585586159
1.312229994533335
1.3208738987488462
1.3125822221425416
1.287235158186818
1.279121321214905
1.2685874524752685
1.2533385519179903
1.2499867367144037
1.2218059872687999
1.2152470605045507
1.2122053129403927
1.189657852251712
1.1711844471936068
1.1636040764502573
1.1540788066387768
1.1315548902682522
1.114513993137478
1.090696763508984
1.068727239432456
1.0385066599760193
0.6710764378831104
1.0396103916183637
1.2060332811923455
1.25965483174776
1.287657726821164
1.3082569289972863
1.3031225930312347
1.2761934161284314
1.2628851820340754
1.2499507412798458
1.2516466550685195
1.2262269505488517
1.210912677933404
1.208254407672952
1.1876710653345246
1.1785646773362757
1.1718828751954036
1.1595221373105065
1.1364316777832972
1.1218945493083925
1.1065676771255364
1.0874868290516373
1.0610380046703356
1.0336598549560432
0.6988412652674904
1.0736253077527225
1.2436431262536929
1.2875007462130346
1.3297165627903955
1.2953213067883425
1.2783677542657967
1.2581222444398885
1.2494249435422138
1.234310924807052
1.2343501630823965
1.210496579961305
1.2005951509022295
1.1871094354636897
1.1812977094124635
1.1682112811979855
1.159292825572659
1.1430788139256698
1.12930558547191
1.1194336438902437
1.0986488584436322
1.0800924334117699
1.058407285720151
1.028728212042579
0.7351181252032678
1.1034834664969777
1.2385498053762722
1.289743850210272
1.2923456501697488
1.2515864462973625
1.2444829321594748
1.2453527355861758
1.215518026560575
1.2142627083797926
1.2096100494064987
1.1932852901579858
1.1821179655795628
1.170575229060699
1.160209405058966
1.1555221124536397
1.148717176686601
1.138160520982898
1.1217262341669192
1.1115944989728725
1.0935270581537826
1.0737994398370614
1.050631637013465
1.0233835796076767
0.7779350700581942
1.1267981102269187
1.240858461515994
1.2595480868478228
1.258704844883844
1.2332217970406811
1.2229206324974562
1.2186776394128755
1.2114958746233622
1.1839492678345098
1.1844664961402898
1.1765854439171775
1.1695630816857585
1.1623980131897182
1.159153695434581
1.1522740843219734
1.1358645605493563
1.1271932697806362
1.1183023978762792
1.100581180812326
1.0856663842811003
1.0671954113973372
1.0461344043379186
1.0207083803097925
0.8161641798468795
1.1400385849124566
1.219296834366265
1.2285245718191204
1.2237571165244123
1.2264170963157928
1.2079291467813813
1.181870955107656
1.1809838341585752
1.1624377357435263
1.164280171151701
1.1642372230512086
1.1557813202811211
1.1475104304808428
1.1440109793493933
1.1331162284412304
1.1301318302057162
1.1213121245416469
1.1072622301186514
1.09566426596001
1.0778821666819798
1.0603255394975926
1.041462730047233
1.0157256426631969
0.8709767215655804
1.1690956058532362
1.1991207319432542
1.2053361646416985
1.1922890098592442
1.1895062525694016
1.1733634980245815
1.1570654554199984
1.1603064041281546
1.148189594268254
1.1384749364023377
1.1362823606662624
1.1424707382138508
1.1355910290186235
1.1290080222094194
1.1242411189644141
1.1173782517559783
1.1086068164644878
1.095210143304976
1.0859254909497675
1.0701552059332853
1.0568191863130143
1.0373872974470786
1.01156926332124
0.9449433630583151
1.1384184608044878
1.1481891615216264
1.16693983766146
1.147409702903804
1.143581524603757
1.1306755742784795
1.1178626239761864
1.1266089633174012
1.1342473827132569
1.1330131830305548
1.1265690949942517
1.1252332547538093
1.1223082935604338
1.1203746826054346
1.1099615997851058
1.1090778842224598
1.098992414206511
1.089938466884001
1.079503653221649
1.0630604661714727
1.049900120862445
1.0310672035855373
1.0110670660327472
0.9764693377537437
1.071789617063407
1.1036842496845067
1.089856422203242
1.1041033122452475
1.098263437181673
1.0940041842724901
1.0962776376628913
1.0979834760837834
1.099592928564543
1.0996590348800401
1.101719058737976
1.1075263540003975
1.10077401201651
1.1029272462611384
1.1002264126839194
1.0936843870408963
1.0901745656669903
1.0792094216532981
1.0702853110695174
1.059984525764629
1.0458287596987363
1.0264191840875396
1.0067961537782428
0.06782765213101605
0.09108556356520722
0.10487329384589002
0.13774839605743858
0.15315336269383548
0.4772676537514583
0.07404369967482226
0.07991989581517021
0.0884506468241307
0.12089972180250277
0.15462930420369872
0.3052269704920158
0.06924723089805125
0.07227598970491421
0.09457952371602643
0.11421207395464816
0.16074911602139896
0.2812050225862395
0.0760615970972536
0.07821518895815074
0.08961733853829362
0.10138817610550932
0.1530788868168042
0.27124213417641774
0.07055493359675974
0.07539477279575482
0.08547964273821068
0.10211462280051609
0.15240562151584064
0.25212011930997635
0.060964920202151315
0.07251016639139976
0.07527844137457029
0.10346081020436193
0.14474716234061707
0.2370735638223954
0.06435273137157611
0.07016336151383387
0.08167692188488637
0.09088833122134923
0.13514934305132725
0.22871640763775974
0.05950977431099823
0.06743603244304316
0.07527577677519987
0.07442675701298865
0.12673275730742495
0.20410595628074754
0.06342111769260031
0.06917016200830209
0.0740601586142173
0.09026189479394348
0.13347971587826435
0.20221335838267915
0.05241650568462691
0.06254911377231195
0.06867697627988717
0.08518401863748562
0.13105140462492906
0.19424350455542475
0.05393373870508436
0.06200583461442813
0.06223382038669362
0.08320699636215428
0.12245960100503256
0.1828471487311307
0.06300391958819179
0.062378896374846726
0.07326138464858045
0.08792436056782427
0.12971906392487123
0.18710671850923377
0.05631760996229171
0.05446900225115467
0.07086644706454007
0.09799431584396076
0.15045665948272394
0.1984675981551697
0.06276002601035545
0.0641717188460188
0.0646719298274015
0.09791621385188465
0.13716943855007618
0.21661893311694497
0.053814689565810064
0.062027540542582915
0.07060901194908556
0.10446201500134042
0.16070487791999427
0.2170790383965202
0.04617018753105864
0.06984038109127244
0.08863887552671967
0.12457120244733019
0.15891397487876366
0.23298640824296654
0.05849255451629473
0.06260314183462753
0.08807896676890853
0.11190018555404327
0.17426987547469827
0.2692612763261649
0.04961897756114374
0.05773580368352374
0.09256140790971137
0.11600911001200978
0.17622768148227813
0.26137349197657705
0.049503082664740086
0.05730800419069132
0.08887729646068945
0.12237675523312441
0.1886425110519512
0.26679388301073115
0.04694169889342281
0.0619244586137839
0.09462182935230451
0.12385401871483145
0.2015351605192118
0.29078461308664216
0.049635390961526055
0.05497460738938048
0.09257435930183239
0.1198411241235676
0.18268470004690646
0.30041626512003733
0.04494295369961954
0.05357054639555457
0.07453016900779641
0.11537419792971096
0.19165842304364822
0.27237555141055025
0.04361699556929211
0.05817033871762295
0.08261702759471987
0.10906989427324726
0.1889150532027827
0.2928622690942847
0.0469483756754974
0.05549743391309474
0.09127804392965365
0.09985837315111765
0.18979253481824968
0.3487063169503606
0.9109786960506666
0.9904184514609043
1.0188494278777713
1.046378223739115
1.0593902260432497
1.0589514679673457
1.06273427365608
1.0628762665179774
1.0708701352255456
1.0844497881701258
1.0870528738159704
1.09020693764473
1.090167969080408
1.0952063768198326
1.0990342271915519
1.0922039633995975
1.0833672736226443
1.0775227768727507
1.0697416912932254
1.0636191818039178
1.0529974351656382
1.040863980513007
1.022529044794099
1.0059556092916198
0.7298263667179662
0.8787678608571319
0.9386142377228265
0.9920793852897816
1.0070010765116868
1.0133190146133209
1.0313831932988597
1.0391532599376636
1.0510127858309757
1.0553026814944515
1.0696917639227446
1.0768824022684138
1.0734509690893015
1.0834908967631418
1.080604612551548
1.0815002060433567
1.0745219290195918
1.0663657159080242
1.0669865930038727
1.0564242630137375
1.0461490305786776
1.0351446977367424
1.019378731215376
1.0036692128266174
0.6186395869160219
0.7814856470759038
0.8706787551318039
0.9145465068472889
0.9543273515783122
0.9763258585954385
0.9872484647097385
1.00807895175614
1.0279629883494927
1.0365159263485364
1.0484035145733157
1.0570882767850256
1.0623042842039956
1.0669118158566102
1.062841221282077
1.0660492487935262
1.064106310665894
1.0609679413448903
1.0553840610587528
1.0473527559343458
1.0408638913725403
1.030231241523533
1.018673166586206
1.0045940259969863
0.5386395051723968
0.7056490613630481
0.7962067905338169
0.854831225656093
0.89846667362029
0.9323210219970572
0.9591829670439443
0.9810005596536182
1.0030210673523923
1.0179675223164293
1.0298346237501113
1.0371700215124806
1.0498457274039625
1.0503245437930668
1.0553957355796941
1.0554666250048057
1.050959116654694
1.0479736465387957
1.0471004278854954
1.0410588719414784
1.0350584237749274
1.0269672040122158
1.015039268345562
1.0034758594104636
0.47335088130236647
0.6275040917436315
0.7224311808522099
0.7954800944820857
0.849484518879116
0.8880130640929276
0.924406838861279
0.9530960479800854
0.976748840318384
0.9944963345698764
1.0097553308535503
1.0223181098153578
1.0314332577289926
1.0330587618155784
1.041340760433592
1.0416738322104258
1.044088608951671
1.0375076740682228
1.0395686121498362
1.0324752280083929
1.0307230616752046
1.0221426368806628
1.0117969479142481
1.0019073357548522
0.419407119222162
0.5613987799169096
0.6680725028399086
0.7489814784506804
0.8028248255933106
0.8545866268908626
0.891322515814206
0.9275309460516227
0.9514037361469676
0.968669283935708
0.9937297323345506
1.008876410629161
1.0155848045609235
1.0248286665292496
1.0281320312299114
1.0312126809507525
1.029985731022611
1.0316463427043674
1.0272850618274447
1.0281163191126215
1.0214443775414468
1.0184644671953562
1.009435023978155
1.0010704812543487
0.3688644484786343
0.5138158582176755
0.6184598487837006
0.6995676058930419
0.7639400107849387
0.826620800204556
0.8670839136832228
0.9040820653910163
0.9404180119800388
0.9621515664530279
0.9746599884997277
0.9901571065229939
0.9997541100716768
1.008249557605161
1.0135821311640885
1.0160362788200707
1.022031700414966
1.0225808027452106
1.021913109686237
1.0197741171374948
1.0167714267166774
1.0131377912202904
1.0079138556284701
1.000214664675723
0.33584149223843174
0.4706299240443409
0.5758899482302173
0.6613543616639168
0.7349417907844298
0.7925872437372354
0.8383083867095604
0.8850286644820025
0.9159322810276821
0.9413966680206278
0.9651893368854116
0.9772514546845879
0.9864194599261535
0.9941268351211114
1.0031092730176145
1.0105001479144895
1.0093488772558254
1.0107784907028103
1.0160546716101422
1.0134290405397515
1.0126567553290644
1.0100957025849666
1.0053075209637368
0.9997380333888227
0.3135031501891217
0.43263905122917506
0.5459662644486956
0.6340467340981956
0.7128162416566461
0.77466424999006
0.8318434031344929
0.8669959918877088
0.8974386158273034
0.9247232784511685
0.9463702156721445
0.9584047171690382
0.9744678589583551
0.9831529619480349
0.9902869774977362
0.9991282462484279
1.0014258803739082
1.0065088257507224
1.0081221055887948
1.0087085144148231
1.0106274825223842
1.007260110849288
1.0041145444312842
1.00003614425521
0.2842217164953272
0.4196737371599413
0.5218693204430482
0.6144116596049366
0.6975452363525976
0.7636236127751879
0.8138377336897782
0.8577491023821598
0.8924802790929016
0.9122180171946045
0.9303244665384399
0.9445589343503602
0.9643388436961042
0.9749067024381699
0.9834716709391087
0.9906265324700545
0.9976484840514231
0.9994569903195842
1.0026844602549214
1.0039044449658696
1.0057668633160413
1.0057397612867498
1.003300576978314
1.0006725539877337
0.28071046126815413
0.4035191623148955
0.5048691920084523
0.6080302696094033
0.6919444124858786
0.7578488045887481
0.808317605174359
0.8480748182770549
0.8755863231345542
0.9082121006982843
0.9236722130855104
0.9427811484161466
0.9562781364487697
0.9611768680952155
0.9779271105929703
0.9836671498460426
0.9911493841217202
0.9934594034482042
0.9999936378803898
1.0013775643925327
1.0025027921563556
1.0034312034453974
1.0033210259899217
1.002174049039033
0.2841089369530226
0.4039962461950568
0.5128000498732687
0.6053652375385468
0.6911356489802952
0.750419160369705
0.8062844815947868
0.8417186283367214
0.8766298210840484
0.893917580805536
0.9156994362757631
0.933597675492547
0.9473709830158827
0.9612137112657715
0.9715903173785287
0.9780626580301847
0.9854560970526428
0.9914857968901594
0.99725607200631
1.0002991025027943
1.0026822907934057
1.0039042899554425
1.004834230622123
1.0045901505169201
0.29475227287586736
0.41420495970166804
0.5215627611640395
0.6197586794058125
0.6979697374874699
0.7558649623776386
0.8028190516158382
0.8417541738088983
0.8723732592614164
0.8958684315161491
0.917915643789271
0.9346573586275531
0.9456074900213998
0.9606589190027597
0.9677851979651769
0.9762771741223127
0.9865883514447482
0.9875097705319227
0.9926158885818323
0.9993297940876232
1.0028652426180422
1.0041815687626816
1.0061289366414667
1.0060813147513312
0.3147332326729682
0.42713090862605296
0.5316391821580074
0.6346893640537676
0.7025571400514937
0.7628909411773027
0.7995021530230393
0.8416713702306018
0.8764980326095778
0.8966926559256253
0.9146408487520753
0.9322081027911346
0.945203568723753
0.9546895368468684
0.9658074218760802
0.9736586371911269
0.9869669477506542
0.9884282218209817
0.9958848367994392
0.9993960191781357
1.0044711553353236
1.0068970726962208
1.0071300130347514
1.008029696110762
0.3167130067117254
0.438733746711343
0.5608546743994333
0.6474687962211572
0.7194422763423866
0.7728203018677863
0.8197493555035178
0.8464371064678281
0.869880715205893
0.8934325989136805
0.9192108252187631
0.9338297900489211
0.9512145806296136
0.9576256932801139
0.970514946035203
0.9778927513015132
0.9839459152947659
0.9907459873649715
0.9956811235962154
1.002056928059873
1.0050220519924014
1.0071489230959663
1.0094774716153498
1.0101126789536157
0.35707927219433433
0.4783282201274045
0.5895254289247224
0.6745748006132295
0.7458082579864986
0.7891231759052152
0.8228044560080492
0.8582437598524477
0.8856182298927894
0.9019210339672968
0.9230028862800104
0.9359770888115779
0.9478335428217883
0.9629169969056339
0.9702076527989496
0.9798152830387916
0.9857637243941739
0.994385323510774
0.9985395995621028
1.0026287727131593
1.0078630246756806
1.010229155178033
1.008554612941831
1.0119133645002487
0.3766138754845835
0.5135054572316727
0.6244795972068197
0.6956606647232416
0.7634789301379605
0.8069273260444904
0.8400296376667375
0.8678079303204462
0.8800169665144957
0.9080176547856841
0.9245516629451196
0.9438644898488365
0.9564305132409585
0.9645026472000361
0.9715770682756172
0.9853488853651827
0.9904926089761921
0.9973747996308686
1.0045385546100747
1.0050961489784822
1.0088319370960772
1.0113574764369238
1.0111815670764817
1.012774595411226
0.4042349534823372
0.542658885508743
0.6507467688981096
0.7366651209927699
0.7830110562695395
0.8225631130359048
0.8420654957941471
0.8794578429568964
0.8965828084842692
0.9196942108187055
0.932568232358157
0.9469993157515535
0.9623216775800886
0.9713318673524697
0.9807311163666111
0.9911638220417753
0.9992337311433004
0.9984287760906971
1.0079537614772192
1.0076306546091767
1.0108305014397223
1.0116313779394066
1.0114790808282714
1.0131030633036893
0.44586088914407945
0.6042111877049532
0.7033801060927628
0.776508527746929
0.8037933881447349
0.8374716204693626
0.8692305286380743
0.8875191654102754
0.9100565643819103
0.921713598603036
0.9431328519003024
0.9547326371863145
0.9665475221427099
0.9757372889648525
0.9816012897837568
0.9927227656043479
0.9972845962221308
1.0020876493872408
1.0062754562173648
1.0091449218961017
1.012211875072988
1.0125405414610686
1.0111473816421512
1.0109122523495424
0.4885680291180539
0.6645060619398988
0.734900346443464
0.7959501631725441
0.8380310019744753
0.8606571398934963
0.8771317769223568
0.9104694177094771
0.9200703060408006
0.9328291304051722
0.9524916796876012
0.9639203342812254
0.9766939789895472
0.9834436533909572
0.9900133738491662
0.9941197623896296
1.0075112555606534
1.0067303149552342
1.0101117473255312
1.0132921683753857
1.0116125059083874
1.0109005108999485
1.0114106813882964
1.0109026887186914
0.5588906144746365
0.723634074562747
0.783998771086138
0.8520620774947981
0.8616262040462409
0.8816931277525851
0.9045188460683312
0.921706269824909
0.9466168628038574
0.9488728493107634
0.9629258326086286
0.9719701241303387
0.983136524406452
0.9912848066830107
0.9999401622379153
0.9969278449516094
1.006686272504104
1.0090458970268412
1.0114783793962256
1.0137197830178806
1.0147568160100153
1.0114453197228386
1.0096144451181037
1.0072910691677015
0.6178992038521753
0.7877045695695077
0.8510283598113244
0.8832055771367983
0.9073039653702298
0.9083353311175385
0.9307073239337118
0.9314623891391974
0.9499595077919802
0.9633330279669263
0.9750026916764598
0.9862271283994407
0.9899040370918906
1.0027310555749247
1.0013510800984473
1.0097645214107362
1.014048122616618
1.0169268323965317
1.015811132108522
1.0129870076433387
1.012042340654888
1.010994670155651
1.005512701149631
1.0027196550599011
0.7397403687060162
0.879667767162111
0.9016673267457068
0.9220740671473845
0.9289800521798918
0.949431861687929
0.94205173144593
0.949275895956418
0.9632932724378199
0.9753701861425094
0.9811255962084825
0.9886748724058788
0.9966305526699162
1.0060536414907646
1.0145161212971696
1.0148338558344712
1.0219227769188446
1.0183353883547297
1.0174849166235522
1.0089818805337067
1.01040220701803
1.0077499268609293
1.0024827320757665
0.9989410166162609
0.8622302457216042
0.9525076711805319
0.9644113868521778
0.9581160560239379
0.9757281477692776
0.9629345647986054
0.9628178931901312
0.9750562014921884
0.9791938541393771
0.9835592393044733
1.0009369296456032
1.0073400429725816
1.0122065881007765
1.0109681681972253
1.0189245509316647
1.0198323010696628
1.0190926253205372
1.0166010177078917
1.023711811032192
1.0115659607906349
1.0094249650122327
1.0048966544636397
1.0016288239208924
0.9941506529861066
0.14411992309632848
0.2806243621104323
0.3685376807513572
0.36446427982890317
0.46377688625688246
0.4393367552404196
0.20158946388324434
0.32376422397525106
0.3869776994828491
0.377065912055685
0.43384760003046585
0.5047104845276951
0.21927651234250783
0.30977232364803897
0.37093936601228206
0.3701785221242389
0.44561168537761453
0.601471817025326
0.2329910582917275
0.30009454094258814
0.35056216978291166
0.35655814346980175
0.4754883577540372
0.6896644301804707
0.2529603696407698
0.2953355971959688
0.3374148456960844
0.3580766674020596
0.5093423985763846
0.7596927981686701
0.2630560394885405
0.28890950213029476
0.31200165912190525
0.3603452103249112
0.5356956697543709
0.7924481410193762
0.2850721307294847
0.2840987223867919
0.2985831448666033
0.36971307639677287
0.5656936378052457
0.8361278078289027
0.3026753527526117
0.2815917749747857
0.2892297689040778
0.3755983662047751
0.5934822496557263
0.8438121020425713
0.31119094660524493
0.276786866629958
0.27997974820473975
0.3686392542577918
0.5887489541280985
0.8622328878709402
0.3287351984518485
0.27736995222784755
0.271754487983817
0.3742295039566575
0.5887862700236193
0.8371511440367676
0.3344474678544783
0.27848841845776434
0.27810823490246966
0.36961425364313283
0.5903807651769116
0.8286061385227661
0.331047375687253
0.28120010942922635
0.28661640426394785
0.382414761822475
0.5894636412570929
0.8460632169031157
0.3295684890996689
0.28384019353098416
0.2881505980529615
0.373220386422172
0.5758644720102273
0.819084533327327
0.32883804922569454
0.28790726444150816
0.3033757429668218
0.3936491823849717
0.5881080229360438
0.7841255506251488
0.3117892618406786
0.29191244757698326
0.3059855630289982
0.39345500416026336
0.5708394658512312
0.790954559063352
0.30082567469947863
0.29617506351658174
0.3186713590867672
0.41297558673489665
0.5706016250610948
0.7809117283744542
0.2886797788841095
0.30088709742006076
0.33189666507957455
0.4189787228105207
0.5649597539186023
0.724014298472601