/*--------------------------------*- C++ -*----------------------------------*  =========                 |
  \      /  F ield         | OpenFOAM: The Open Source CFD Toolbox
   \    /   O peration     | Website:  https://openfoam.org
    \  /    A nd           | Version:  11
     \/     M anipulation  |
\*---------------------------------------------------------------------------*/
FoamFile
{
    format      ascii;
    class       volScalarField;
    object      U;
}
// * * * * * * * * * * * * * * * * * * * * * * * * * * * * * * * * * * * * * //

dimensions      [0 1 -1 0 0 0 0];

internalField   nonuniform List<scalar> 
2880
( 
0.15000152593077165
0.29643013346252295
0.45281588571930514
0.48064454826948527
0.553811568118581
0.2441030427514007
0.2231476128491673
0.3646875075726749
0.48789265827627626
0.4990842734808812
0.5112411165652757
0.29983880224427256
0.2525592761846068
0.37378021751628643
0.46832190917701644
0.45823900188778816
0.44630280649949194
0.3242650226603312
0.2736014382780806
0.3637034665291874
0.430542271413735
0.40408447434383554
0.38824676949688114
0.3446887305120434
0.29042385202295085
0.3521600375381453
0.38788841242492855
0.3488122169177411
0.3373275787688658
0.3717362975220362
0.3068623500693589
0.33771174453398667
0.3421960561327586
0.298340512816705
0.30481415324773264
0.3759950459373326
0.32683424711704895
0.3218932399631512
0.30123143624411314
0.25429663433068833
0.2717688397666205
0.37864972163340704
0.3423539383177166
0.3111134407640983
0.26590341089273933
0.2166764871913949
0.24985255900513817
0.36990657861525894
0.3527769152399866
0.30391355885522436
0.23650252825684004
0.18404055209281117
0.22166108803978288
0.3567941254396246
0.3671330005918654
0.29751714197593093
0.21724284593762783
0.1608974750358441
0.19794744237711984
0.3185213036984975
0.3673232356594193
0.2943541787104418
0.20742937785543508
0.1417106251614945
0.19004990395483198
0.3063570491598564
0.37124625364146024
0.295763128025507
0.20238582677865863
0.14203307926331715
0.1708697248615403
0.2913018597311092
0.36860450410101187
0.2977949965097173
0.20988110829612366
0.1452545501410117
0.17764165588914704
0.2742349211957571
0.3591879821956138
0.3022995663326443
0.22306391202675396
0.16685976940949615
0.19290601082735784
0.29330270840606165
0.34953203526986953
0.306607736804636
0.23764654470608498
0.20235387054181786
0.23114645517808602
0.3057006729763928
0.3297808776425297
0.31122344712315186
0.258164113998527
0.23719195494525136
0.2636242500888613
0.3228401621363365
0.3077654073657946
0.31331573993093387
0.2775520867732275
0.26654885145759893
0.28526134421962107
0.3369592217453239
0.2884345091932598
0.3181691973759274
0.30043792721160145
0.2915337674065608
0.315633420202137
0.35429735356080494
0.2637158295011305
0.3202855868400107
0.31795349088501645
0.32125891873934453
0.33740561827903603
0.3694283281129553
0.23806501625980614
0.3201245629745954
0.33753884431696296
0.3401832065943912
0.35401807138510005
0.3841592200964581
0.21104967029429794
0.31754482933635486
0.35439443588119685
0.3570174829054107
0.3718696312903666
0.3910044920180933
0.18385561381746734
0.31839621875872676
0.3677140443810861
0.3699420309895943
0.375462919763563
0.38645911611661254
0.1527626724193738
0.3090754826286931
0.3745006971857019
0.3726420786809322
0.3694860409292314
0.37052448443402775
0.09409287876417047
0.2682981686763073
0.3659767461302494
0.34873016891020236
0.3285753251994438
0.32609912052697854
1.2568483543670992
1.4179407345767023
1.4511521712380124
1.4469846052685276
1.4107418176412423
1.3780707968260049
1.3474063308849535
1.3171382261761735
1.2954392302235913
1.2710555648071122
1.2535720486644069
1.2391380566875947
1.2268779429167904
1.2100555615069555
1.1987473405071307
1.1814866417183438
1.1658092674494478
1.1489091555308784
1.133602796185234
1.113159284605971
1.0954669799880756
1.0736926211572284
1.0479102441721664
1.018979866212215
1.064744405149397
1.4356659970921535
1.5016071616088682
1.5021137939284492
1.4736748961872266
1.4315564204966542
1.3910044175450302
1.3631605808866145
1.3315062182269437
1.3081593467335149
1.2821036192859219
1.2673450273782023
1.2479724391407776
1.2308782908607907
1.2142556265678826
1.1987915367422302
1.1830946266418092
1.1636487164776073
1.144007511418269
1.126333876334711
1.1042873721947333
1.0825367571402573
1.054619184673838
1.024604513895661
0.8974283306228319
1.405139582154979
1.5262644096163003
1.5352876068380503
1.5051555626612
1.4776199539313741
1.4283579264923183
1.3983255314927165
1.3656146586801632
1.340128585632006
1.312537640004918
1.2922515165748751
1.2706721512485142
1.2521127719243892
1.2356960613460537
1.2163266503738406
1.1970172073979803
1.1759475496314522
1.1589215875089536
1.1376830757472811
1.1137267165757028
1.092243277359291
1.0634136875308944
1.031270699913982
0.816772462120787
1.337446349045913
1.5222134518494737
1.5549357134865918
1.5409364947365982
1.5225874405362545
1.4748347407708529
1.4359577603591953
1.4008522360064675
1.3684711324604828
1.3362463244099663
1.3163341681992278
1.291402490411944
1.2714065470161429
1.2505920073771788
1.2343098076701138
1.212822843565624
1.1899654354522842
1.1713484552230564
1.1479620177998218
1.1264851025546514
1.1004953970074627
1.0697566094999915
1.0373308761621371
0.768980139060461
1.2586947219526827
1.4909785355520357
1.5701670925989055
1.57168930865756
1.546653759295486
1.5074581123868425
1.4682610977781896
1.4313649041737255
1.3979720087187169
1.3630981330059366
1.3409680538616753
1.3137681180520235
1.2895306037166054
1.265923498549834
1.247685960494936
1.2259734493319985
1.2024478511833587
1.1825676259420483
1.1600315149833111
1.1331283443841214
1.1070572510395005
1.077609293121682
1.0445228514003957
0.7281771521761142
1.18556768576061
1.4384007952715576
1.5538725883995648
1.5753246867225488
1.563115716528725
1.5285343528431699
1.4950619801327312
1.4538204119176066
1.424596341085156
1.3916397126186855
1.3620192838861462
1.3279523542862348
1.3074070256345856
1.2782252887914867
1.2578127521119769
1.23395274396257
1.2141259561393882
1.1910503701404376
1.1717611565968773
1.1442259985006382
1.1142901610844045
1.084544005877295
1.049696740287701
0.6953521123002934
1.1296392542528488
1.3994491773892483
1.5225588117605473
1.5721381413080715
1.5706831206565655
1.5421815944346855
1.5168809322499337
1.4802978408536105
1.4405698493394927
1.4056220687496688
1.3751456286655956
1.3448577909950017
1.3233829839741311
1.294227625057563
1.2700085257652185
1.2472142099440637
1.224524446220735
1.2021910846937325
1.1771093737625467
1.1513840100006139
1.1256018902763691
1.0940546096737955
1.0563141785054422
0.6725857976474838
1.062729548162749
1.338236920184124
1.483803491494149
1.55287033103324
1.5709215178095448
1.5531258223697115
1.530903834975148
1.4952667591176751
1.4583586615333255
1.4228109403576292
1.3888284742491637
1.3620505979784234
1.335403199740422
1.3058284651422243
1.2839684529224948
1.2573602510312731
1.2370688447381075
1.2125275547413463
1.1868104659567684
1.1595460365946035
1.1303891272362196
1.0992028285384172
1.063855461688154
0.6393095081356688
0.9890118143632267
1.2464180267891414
1.43089885858718
1.5166118278935508
1.552582806395875
1.55757931016162
1.5353783298303463
1.5036081478560681
1.471683331356863
1.4397062207531544
1.403463692486279
1.3746120212563815
1.3421738422367586
1.3155466619782328
1.2914851577741948
1.2678228849558137
1.2428490836598012
1.2193250298731704
1.1924833133248731
1.1654944739564501
1.1364497866223933
1.106695680333552
1.0713592542691177
0.5929627387285715
0.9253586236995917
1.1905906605203893
1.3684331875269593
1.475545167218653
1.5183821866352971
1.5370777344146513
1.531161594978531
1.508093160984346
1.4796791588143512
1.442074113696217
1.4085752798904494
1.3810393093445448
1.350966061461774
1.3227159465778697
1.3011125870441775
1.273654556101149
1.2522432699742125
1.2247894817756801
1.1985151527639035
1.1727627583224736
1.1431662535783653
1.112671881803914
1.0768151373854737
0.5514602481408606
0.8365093648762119
1.1098114172481273
1.2917835843944492
1.410497895803053
1.4789934521744543
1.5083098887231692
1.506081637130294
1.4945384092260947
1.4700812411867792
1.4456293925420687
1.41699936389947
1.3873688552793628
1.36012517586188
1.3316543281252624
1.3059189904466713
1.278895908792127
1.2545110594190951
1.231930635781162
1.205915661870559
1.1792813634079047
1.1521108772287336
1.1191908763193548
1.0855684787058582
0.5118461954464828
0.7825427143085977
1.0123856654149959
1.214211577513057
1.3378545830973207
1.427086170373265
1.4606724620303417
1.4781525060035505
1.470455953975807
1.4563513320064063
1.4383537810044884
1.415049687190779
1.387549698637441
1.359641155446154
1.3321485159842343
1.305683170101072
1.2840680056731104
1.2611252544063578
1.2358261441022773
1.2107637379738878
1.1855704028005647
1.157714793136005
1.126460309856839
1.0921396111647994
0.46303640529942053
0.7095200807269282
0.9490531421559653
1.1260598167492668
1.2654223762309704
1.3516417596354322
1.4055347286440996
1.4328206061493889
1.4441104438691863
1.4382300431151789
1.420963216294614
1.4037476360406413
1.3776212885902765
1.3551899294888008
1.3318330118331518
1.3085448168967144
1.2840441534677056
1.262847605809776
1.2400389608850029
1.2124774202602182
1.1890726790598152
1.161508523628498
1.1317750184083706
1.0973440748243561
0.4352004745050353
0.6504253495304892
0.8514397612225221
1.0361421650296883
1.1747396209406589
1.275330506084303
1.3402054804502463
1.3776711131999233
1.400849894139322
1.4022736603693877
1.394595676029439
1.3808826673988874
1.3618566035937303
1.3422356362905787
1.323573825147311
1.304518857831463
1.2806866313477772
1.2607559127581751
1.238798976122193
1.2145665658232183
1.1924787047687568
1.166178296917752
1.1401630373452025
1.1050549148753883
0.4191446757622541
0.5702221263499566
0.7692984758679245
0.9489738575475938
1.088346466493933
1.1908382021324546
1.2687653834877546
1.319756382045955
1.3420416495709877
1.3576975567926366
1.3587722579374852
1.3496403082325434
1.3403490595223972
1.3311243601761746
1.3091869354389563
1.2913115030126203
1.2762641608944016
1.254993176779232
1.2369782780190512
1.2141962972943863
1.1921601173007814
1.1706941842562608
1.1435967041676396
1.112883103856212
0.42021125106200685
0.5541496768401912
0.6954449555157538
0.8562123901522717
0.9843485465853702
1.0915456608912169
1.177898357859954
1.2365610067095945
1.2755772672576255
1.3000142865887374
1.309099601662889
1.3156109821833275
1.3113435709372563
1.3002033007463027
1.2882896268322557
1.2734159249633141
1.2623120726343406
1.2457467433430747
1.230056521637111
1.2132616203413358
1.1912163859008944
1.1702784350252693
1.1508262921751065
1.1205461297356858
0.4053555449016898
0.5123632493190357
0.6261795689362945
0.7661495039430849
0.9054377450819109
0.9887586386004164
1.0879208185701499
1.1482892324439637
1.201205275930742
1.230962575817519
1.2513358917984818
1.2616138224175575
1.2665733135231012
1.2657214555837264
1.2602913000056473
1.2522681855710764
1.2453082466575218
1.2326251828184236
1.2186129520660203
1.20430292016732
1.188658618048017
1.1715390152818632
1.1528582104869696
1.1271403903266657
0.4040258254133369
0.48372383534535357
0.571793696902551
0.701179535864034
0.806614492146781
0.9142313751369872
0.9964077357873722
1.0579652284556793
1.1147336583430212
1.151868229376157
1.1793044097463778
1.2030808550736736
1.2099868373138312
1.217640306712394
1.2202525089124747
1.2197542946293414
1.2126854394400517
1.2057903169744772
1.1993928529056879
1.1908708400982444
1.177794127611391
1.1648937108861017
1.1506358978698354
1.1309728201603695
0.4013328818357874
0.44427803721777587
0.5434997967919742
0.6422826023957602
0.7414717900204979
0.8228655853515061
0.9097613964015294
0.9725691533280437
1.0270298972578202
1.0696655972728355
1.1050022221164324
1.1287373119274136
1.14451324608613
1.1569692291672664
1.170856528353895
1.1753523571519304
1.1730848407247558
1.1735449411328749
1.1717777628433503
1.168436019406496
1.160971046485582
1.1535731885532832
1.1415308745565256
1.1292382645026409
0.4005957475591744
0.4191754228135117
0.48495529276317983
0.5642887580620954
0.6685112851564201
0.7515472219481323
0.8231117252020915
0.8814570934003709
0.9309770335396808
0.9822222917983817
1.0197912316093483
1.0470921869703864
1.0698877098063095
1.0845703148339878
1.1059973673141155
1.1197366378293487
1.1228632592617693
1.1337341986013159
1.133166885630977
1.1348826600025337
1.1348123577792684
1.1315544714124484
1.1251500380199135
1.119926320370471
0.38064135624535644
0.391096020705459
0.4338346619279956
0.5119397945539481
0.5999301962299151
0.6662660906933577
0.7443432275645964
0.8034344472274462
0.8485725242343032
0.8974717135203719
0.9335956380112377
0.9646712821089692
0.993035790494661
1.0132182497643276
1.0367547596796662
1.051330104900122
1.0654453578683063
1.0810584676229067
1.0836016276762521
1.0877312309621923
1.0995786608757392
1.0982025121917236
1.1017882397231205
1.1005059129204953
0.369822861139229
0.3641249271767987
0.3883852796581062
0.4641732844840537
0.529060063820761
0.5967585585457696
0.675067059848358
0.7345795391210188
0.7671741950728284
0.8119916663857855
0.8464721936036766
0.8763583864551459
0.9137336697681094
0.9355774833253747
0.9635920420051834
0.9765940305545591
0.9971618318701408
1.0119923026176438
1.0259122961430116
1.0378546879816999
1.0426103638243411
1.0570917258304544
1.0620716373357382
1.0678282616070818
0.3309946600032806
0.3254716465755101
0.34052782776303425
0.40613493043928295
0.48288992774791517
0.5384917977003205
0.578675460794869
0.6339633427124137
0.6793932803257499
0.7241301322443723
0.7645086766186714
0.7895958023045272
0.8231780162339406
0.844670545290961
0.8737650315726607
0.8992761738012165
0.9287293274548272
0.9445920660247341
0.9564351145943456
0.9772753287633995
0.9906682470869933
1.0038376136064395
1.0084666661124517
1.0225277603642589
0.25836883826789625
0.26815242255378346
0.31732556821897306
0.3568262584038643
0.4130254080353519
0.4567526228666432
0.5112006987886341
0.55931156002503
0.599670797211642
0.6436655162726712
0.6668421037836483
0.7055363998318115
0.7200605386806309
0.7496366284701131
0.7754814338308877
0.8138917404288135
0.8452366755607393
0.8664734937714004
0.8779518933870767
0.8981060464808109
0.929373088601514
0.9348892576202015
0.9526480237250927
0.9722852518435876
0.045630358429954346
0.09876986030801521
0.15910148982358757
0.19030100673480932
0.19959293106063408
0.18095203684507655
0.06859367255563852
0.13134291828157932
0.17418455361299204
0.19349706670677536
0.19057028992835098
0.16762669770609093
0.08254067724355729
0.14205657462143262
0.1770946272037315
0.18475473711596221
0.18031840076013006
0.16393870074598266
0.09513091894197778
0.15087677646644446
0.17728358646875259
0.18208857278086643
0.17654663355610534
0.15435635125060754
0.10815340495053126
0.15805709216561126
0.1823051632211296
0.18375306761534557
0.1762661531636626
0.16387671061858947
0.1191115974202647
0.1657798167402513
0.18518491854801966
0.18359524820783485
0.1795641778212947
0.1674074657171976
0.13207932396576147
0.17366046009985703
0.18464155742306154
0.18860927906382036
0.1841265945695107
0.17805253586200262
0.14265266659271
0.17514391148618436
0.193160339502685
0.19362155364864456
0.18916181686123193
0.18542036199347783
0.14928346947399987
0.18027117099102755
0.19592802208311755
0.19635335182569458
0.19508093972027565
0.19371118698266065
0.15433719180870256
0.18386288989716032
0.19875576785860444
0.20480454082686628
0.19864954610846697
0.20301767198876974
0.1594449772599072
0.18695586014591953
0.2053894801102445
0.20843898590530657
0.21107171878143827
0.19301886644026
0.16382971966826868
0.1875367973066019
0.2099341281771474
0.2093638712365125
0.20714871220133727
0.194108283055946
0.16783803807989245
0.19012966930022993
0.21041194725291945
0.21677469495297913
0.20505613179682153
0.1958321800272009
0.16776628935290946
0.18928070513333695
0.21532679613464253
0.21893816233711239
0.21531994374508007
0.1929818596967422
0.16404496928546644
0.1907736275799778
0.214005822253527
0.22341325894311223
0.22315299917527176
0.19468473152665544
0.16553336033773344
0.18928977400611846
0.21888615637252642
0.23073464695318868
0.22092968613103883
0.19161135502982998
0.15634507416791085
0.1874521585138083
0.21822316152729948
0.22909807981630853
0.2280742041564147
0.20029614986418579
0.15564148052716473
0.185708174448625
0.22416527066091324
0.241252280138424
0.23969437505455005
0.21091386611558516
0.14469640968526934
0.1818220682820398
0.22577007590742504
0.24807667643777084
0.24849237417864053
0.20853637464230607
0.13131305581454067
0.17697310838315292
0.22395540867841676
0.25067848367668566
0.25776621232115693
0.2262589280304568
0.11699215344825147
0.16623074047269923
0.22047352942395645
0.2534208513339183
0.2736719340603553
0.22889034464782526
0.10233565705889291
0.15463559631176477
0.21816121656715637
0.2569242789864075
0.30135079079841004
0.24899673545999515
0.08870908527926531
0.1386821128625335
0.20710558174683108
0.25329434253305166
0.3304994325593348
0.25823049180296764
0.054115807664370415
0.10392911882109362
0.18490118423448507
0.21963016407540084
0.3521677583185375
0.24832407779300675
0.18028752205573662
0.20538810696384213
0.264058804932668
0.29281527265114715
0.36164109495319396
0.4004561650145726
0.43776503128945177
0.484469695269499
0.5305286363495609
0.5521455800472386
0.5794802107253567
0.5941138685388185
0.6344325924588738
0.6574512871127156
0.6829360965762652
0.7262483371612584
0.7582273425879305
0.7754474736086477
0.8008950046671776
0.8291035378535663
0.8472991709410232
0.8668085098614013
0.8810762878781728
0.9097568220851473
0.18043916124797776
0.1797853206132206
0.22148633828180986
0.25889905351967224
0.30241521257993165
0.3265104325168212
0.3689791815047674
0.4060578510915075
0.4368520082944284
0.4779525358364872
0.47664161083176737
0.5133381152745524
0.5478428594468749
0.5705282857177982
0.6057415306668319
0.6433984771629343
0.6774869393947631
0.7017166489570595
0.718200239775598
0.7541180487736092
0.7726578345331718
0.7968926445930757
0.8134145341810575
0.8410124975057391
0.1776301055581948
0.17604694630208884
0.18194213118143443
0.2067566652377687
0.2379641486584977
0.2744596930316836
0.28965033492026704
0.33655045556834495
0.3445898687526465
0.36838331593652784
0.39116150864432186
0.4140554792798987
0.46161833302454003
0.4942586976527453
0.5149170205413485
0.5637412276711645
0.5886080650024106
0.6274590252451046
0.6492644810466108
0.6854804394501006
0.7094976942672337
0.7229056419046399
0.7458905458163527
0.779814532441424
0.17268592306317498
0.17610259660311345
0.17050280424859943
0.1680327798576392
0.1901577445155419
0.20511866353178732
0.2170972903699634
0.22533768636206875
0.24756597224626353
0.27632916310968536
0.3013912791958565
0.3245451165757498
0.3696176489740777
0.41053496683623814
0.458103896958882
0.48586840317072366
0.5223656920555311
0.5647926859249885
0.584274418481988
0.6179953327831066
0.6488659283507092
0.6703846730473721
0.7033423091351749
0.7251740958064726
0.1828664032998688
0.17789718653398634
0.1674233964532683
0.14893353319765168
0.13821097826098583
0.1341190816458826
0.15850381715297512
0.15440600561062556
0.17914361427062686
0.20704381409277517
0.2475408010622553
0.28473589946504463
0.3181362008526851
0.36380275681879193
0.4051292738320216
0.44652466461614637
0.483508838923671
0.5035061022498963
0.5420464096619931
0.5767537678506128
0.612535530519863
0.6329246502542126
0.6622158669670778
0.693786546703747
0.1929199076537535
0.18640942663530835
0.1550685025986085
0.13428088295219254
0.10920046341945233
0.09120741777901753
0.10402408929605966
0.09814112410120279
0.12325392892311249
0.18289824687673217
0.21248241663043255
0.2553040711975504
0.30337758993073993
0.3361064673634869
0.38298708153414807
0.4143187325258807
0.44619418150156753
0.48593781147586135
0.5205636739641785
0.5588024291064071
0.5789561432147635
0.6140812591656473
0.6460465660304437
0.688375815317322
0.18478711245769613
0.17045406730574175
0.15169162917682444
0.12571420187929438
0.0658782300143218
0.05557324109416817
0.06462661672091974
0.10091026916262402
0.13733652309796884
0.18653078384771804
0.21647995037995127
0.27030506676428845
0.3055283188956347
0.3535967756486298
0.3873979501497914
0.41682805093025144
0.4543746447115298
0.4992747358256049
0.5381292575629903
0.5599103771826037
0.5947821997480836
0.627580966595008
0.6567809882203437
0.6902637243869714
0.19496877485470143
0.17876248040312193
0.1448340186215627
0.09933887978242295
0.06661103561436932
0.06195298162337093
0.09731518588223209
0.13273631284357268
0.1914597186260002
0.22511466237345268
0.2695016175740309
0.3032626877082286
0.3497088863837403
0.3856831298143597
0.41994701712040783
0.46071468003237004
0.49704946673428674
0.5249711778610504
0.5677311584121685
0.5949542309722737
0.6323779576979559
0.6663379767055124
0.6947041376170136
0.7365596396896739
0.1893865995278149
0.17244247949031738
0.1374889986383132
0.09012633315397223
0.07425951645718265
0.09667937624109368
0.14997837501603217
0.21369617863957358
0.27025437417964027
0.29664577065502085
0.3388192482979684
0.3859154756849502
0.42419390307384564
0.45436150996858815
0.4851968959490339
0.5206046720859661
0.5554348114052536
0.5960254289419873
0.6288715098592363
0.6614290557718898
0.6942739122034451
0.7232041633392198
0.7547727229998218
0.7894732902786858
0.17866049195159944
0.1703168626632776
0.11700283911802939
0.07920834824182788
0.11735574436604079
0.17447774458043086
0.2596897043221368
0.3203104846450813
0.36901130841627816
0.40989495409941923
0.4337580488255365
0.4674222905271628
0.5000114900551638
0.5315391633096082
0.5760592289848743
0.6114338303266839
0.6316712048891012
0.6737631714624674
0.7079906202312505
0.7380951479129421
0.7754273677158661
0.8004443597839643
0.8330192972544236
0.8653916888317544
0.18390864787755629
0.14602658926850692
0.10690156090064856
0.09650122964984198
0.18139350905275697
0.28355946231833107
0.3689979333500206
0.4184206153508852
0.4641866006036263
0.5175839756665321
0.5524915836072442
0.5869847298494874
0.6096851051485843
0.6471797845802812
0.6842275254586124
0.7051331248363585
0.7378965944789959
0.7781136806724755
0.8123256986051252
0.833632273706421
0.863382061371594
0.8936576680535542
0.9158626019045663
0.9435123406863998
0.1765947319829494
0.13828426424737073
0.09237965192850262
0.17618193883132593
0.29387694079366194
0.4068924218699151
0.4924536098595856
0.5439263609642417
0.5929381205936477
0.6352012717555545
0.6550438747016452
0.6748196131048345
0.7365472895752436
0.7623918950014247
0.7902076117672632
0.8305189147606814
0.857664425079353
0.8842499649200679
0.9084968107270998
0.941790253402647
0.9627751787384516
0.989897611866978
0.9994740222010268
1.0244038737819101
0.16891261962628007
0.11662750877496358
0.1249835552281679
0.2601306071706158
0.39540941168551486
0.5482900662492762
0.61658944300589
0.672876920777635
0.7074178656582862
0.771802136653905
0.7749543111855283
0.8190793391472009
0.8289312094232051
0.8689418447677277
0.9090891005344656
0.9293476151516188
0.9626766250344158
0.9796267121919668
1.012909987825516
1.0379785702868705
1.04926587747132
1.069231696855286
1.0739956792494219
1.096462610584925
0.1553061472791547
0.09985084098324909
0.18849837527356988
0.3693424285257216
0.5554039076038293
0.6790497993635025
0.7317557818643248
0.8091625581262514
0.8359529810030089
0.8753540520974704
0.9245635570388272
0.936395370324943
0.9540176525872315
0.9898550851877693
1.012221774529879
1.04594369799402
1.069099258258175
1.0850487668531086
1.0959671885666438
1.1274820883261225
1.1435944200058974
1.13839512789987
1.1493883123570363
1.15114853081357
0.15516947505622602
0.10841615707657759
0.26544268747308064
0.49629053146181096
0.6916794577134757
0.8031034934714643
0.8725268560322551
0.923961113115958
0.9566859976028877
0.9900590523530308
1.0236835434824114
1.0628713466013393
1.0814326075628788
1.1079121457676278
1.1250336817859297
1.1450948684863502
1.1521335296760313
1.1842323483279167
1.1906381416722558
1.1961985202735448
1.2122292208706766
1.2081325056212582
1.2037007373738469
1.1972582042099356
0.1492287871893464
0.14087228950111713
0.3777590720648939
0.6578038338991367
0.8138401202593281
0.9181599327318969
0.9908308721397021
1.0336087516731358
1.069838106041429
1.0790282198969554
1.1160366777199497
1.1471593549400683
1.172691625307517
1.2015466734490707
1.2121487193572875
1.2220994807589072
1.2454312573115174
1.2476216543046221
1.2589037414743596
1.2619624394987574
1.2665281873938958
1.253935748470177
1.2350624063202114
1.224439493840888
0.12410011712779001
0.20919240339654382
0.5367298676166614
0.8006508012188716
0.9311640409517946
1.0176935227218165
1.0782166405046576
1.120516565384404
1.1338687887217458
1.1627393447906111
1.2101200235915417
1.2418595732218276
1.2591501315914542
1.2579091310598847
1.2942277379141507
1.3010759102217482
1.2990249606547974
1.3020631588479203
1.3083484873609088
1.3048820272605537
1.29258234714385
1.2816889809457175
1.2585347616159714
1.248326353826097
0.12166906295324731
0.3186915209070529
0.6839098607528239
0.9170108153264194
1.0520390723870363
1.1129259589265712
1.1794382545028046
1.218664949124676
1.2280321782955086
1.2680305924157909
1.277335590169193
1.3260181115972012
1.3202876526905334
1.3343161825283099
1.3602550350946245
1.3617693134746922
1.3527638923847671
1.34775420500781
1.3331840446432268
1.328005386667396
1.3135693796720385
1.295260118221914
1.2647078026368408
1.2426016965739937
0.1283311904717151
0.4437227555033755
0.8221710944530077
1.0208149929050636
1.1193452456974284
1.2293302261333492
1.2380083414935092
1.2906237112008259
1.318602520334692
1.3367147934644272
1.349481272602561
1.3553997234916384
1.3771338305542709
1.3950671895456221
1.3859275256994792
1.3810401149992895
1.3808693949637834
1.356574944471004
1.3495566962271435
1.3337129446442293
1.317682557165375
1.2837028325351143
1.2674427155294963
1.2382571366867798
0.15884631478957806
0.6175179400166502
0.9667394323602192
1.1214598392066228
1.2035669613655706
1.2546256745412674
1.3202264640494126
1.3517396577589538
1.3724767051007314
1.383645922353639
1.3992955051651224
1.4056654689849344
1.4189262123454163
1.415042919536287
1.4034563741876973
1.3952172589789549
1.3767816919769356
1.3776865763851682
1.3516386767798527
1.3322681502999396
1.320219246568341
1.281270541699678
1.2550106337468145
1.2196966720678912
0.24021927411176425
0.8065476757104584
1.0947585955383081
1.2033977926625408
1.2486010761052002
1.3174477181767172
1.3562238574659131
1.3761827849859354
1.4060583979316328
1.416938849472435
1.4197753844124184
1.4349048493377876
1.4233865644514827
1.4272852054340908
1.409216437673349
1.4025164621844413
1.378705849064552
1.3693203751121727
1.3454376886524984
1.3198038406747035
1.2955715825726521
1.2693244118513374
1.23619023826897
1.198384624667423
0.39544404100138936
0.9674025694404887
1.139389968577752
1.259285234197188
1.3211264611641726
1.3525089642080683
1.4039857517693295
1.4184789461724516
1.445478552112571
1.4438645039991818
1.4543202891576916
1.436468913614998
1.4296920049611477
1.4242483543552193
1.402907983039325
1.3875457735482926
1.3715196463013173
1.3500331826691436
1.3291374310841964
1.3013034550819862
1.2710237216900133
1.2434718363159596
1.211827634714534
1.1745946034839851
0.6478822763351224
1.072033076833714
1.2346206611545463
1.2927580443283662
1.3624080217474879
1.3952169745325904
1.4353516016376255
1.4512438630526108
1.4459271980812134
1.450061369829407
1.4496723533056106
1.440430718866857
1.4214310816408404
1.4111247200524146
1.391132687303289
1.3643626455312723
1.3533344218385372
1.3251493224931232
1.3028523078437768
1.279828073431414
1.251787758600443
1.2190114121744
1.189205744332596
1.150278639826019
0.9077337046353491
1.1410175839727232
1.244878580954514
1.33500320957427
1.394327845305574
1.41039671500083
1.4537825570318468
1.4515773993180237
1.4476527392338876
1.4463069849398913
1.4412156545072197
1.4268151365081738
1.4055308312908836
1.3902030703759172
1.3651572329543324
1.3462487788550268
1.3232154649530663
1.2984345594310973
1.278189353175093
1.2522487830074736
1.2269304390285245
1.1936262583415338
1.1612108475691576
1.1271697239276592
0.09090682445813411
0.17119117319540225
0.17874806469415624
0.18086564991960102
0.22454175089739892
0.5837019622509731
0.1341287631398982
0.1669800450296699
0.15438350972825388
0.17179800908085535
0.2700457560416961
0.5372804593564171
0.14774968267786193
0.15242711030374737
0.13671935172031835
0.18389036624215613
0.3242383579339619
0.5746705778085991
0.15707754050257247
0.14000375063636106
0.1395206921509749
0.20208314981765801
0.36886022920855255
0.6155901341761079
0.1664483884881294
0.1359440971320532
0.1378354359065509
0.22646731464771708
0.41137636583053966
0.6484408471878276
0.17132317599869634
0.1318933068753695
0.142803563679536
0.2513899638971565
0.4483605648685517
0.6823697933066553
0.17510862841153452
0.12140194909437373
0.14754014134224244
0.2698892180356072
0.4766830253649391
0.7096090820443188
0.18766414499311115
0.1234201788816227
0.1535507023163034
0.28859633844066124
0.5028157407167736
0.7504316822474726
0.18246821784855682
0.11773165767681457
0.15548273293948253
0.30269104946235853
0.528570183225443
0.7645516722845518
0.1908354790699135
0.10890388539939116
0.15493812540097612
0.311369931173468
0.5419368488273528
0.7906224884609105
0.19167793797154142
0.11714874175616641
0.15663652078430262
0.314730762053683
0.5474965275495196
0.7861788058234945
0.1885540265547983
0.11639107400335778
0.15446108744939668
0.3118381116973102
0.5442624439472874
0.8085829937229285
0.19547082626239726
0.11203811065449933
0.14949856194251188
0.306628359408519
0.5454165331648747
0.8030598993907982
0.1923655864205138
0.11352721021698423
0.13946546544145103
0.2967692861046796
0.5336184401114568
0.7955990550420291
0.18706947678477673
0.10890018334283894
0.13624440393058962
0.2810078543605241
0.5246840552450207
0.7897785447534864
0.19209220696026372
0.11580027441075552
0.12783736784101388
0.2611938932895564
0.49073484156275277
0.7608337483784298
0.18284414136866656
0.11696619588132329