/*--------------------------------*- C++ -*----------------------------------*\
  =========                 |
  \\      /  F ield         | OpenFOAM: The Open Source CFD Toolbox
   \\    /   O peration     | Website:  https://openfoam.org
    \\  /    A nd           | Version:  11
     \\/     M anipulation  |
\*---------------------------------------------------------------------------*/
FoamFile
{
    format      ascii;
    class       surfaceScalarField;
    location    "1.38";
    object      meshPhi;
}
// * * * * * * * * * * * * * * * * * * * * * * * * * * * * * * * * * * * * * //

dimensions      [0 3 -1 0 0 0 0];

internalField   nonuniform List<scalar> 
5640
(
1.36951e-16
9.81747e-07
2.42119e-16
1.37445e-06
3.77036e-16
1.76715e-06
-1.33929e-15
2.15984e-06
-3.68146e-15
2.55254e-06
2.94524e-06
5.95142e-15
1.86026e-18
9.81747e-07
-3.88724e-16
1.37445e-06
-2.60411e-15
1.76715e-06
1.94366e-15
2.15984e-06
8.06629e-15
2.55254e-06
2.94524e-06
-9.02964e-15
-1.16451e-16
9.81747e-07
1.86438e-16
1.37445e-06
-1.56234e-15
1.76715e-06
-4.21241e-15
2.15984e-06
-7.49824e-15
2.55254e-06
2.94524e-06
7.72514e-16
8.6964e-17
9.81747e-07
-1.01921e-16
1.37445e-06
2.69322e-15
1.76715e-06
7.44295e-15
2.15984e-06
3.25997e-15
2.55254e-06
2.94524e-06
-2.79778e-15
-4.83499e-17
9.81747e-07
3.95544e-17
1.37445e-06
1.94352e-16
1.76715e-06
-1.80611e-15
2.15984e-06
-4.20841e-15
2.55254e-06
2.94524e-06
5.0135e-15
-1.80106e-16
9.81747e-07
4.34146e-18
1.37445e-06
-1.84775e-15
1.76715e-06
-3.88601e-15
2.15984e-06
3.15725e-15
2.55254e-06
2.94524e-06
4.98253e-16
2.53955e-16
9.81747e-07
2.55448e-16
1.37445e-06
2.06603e-15
1.76715e-06
4.50418e-15
2.15984e-06
-2.30967e-15
2.55254e-06
2.94524e-06
5.40913e-16
2.16757e-17
9.81747e-07
-3.21651e-16
1.37445e-06
-1.1489e-15
1.76715e-06
-5.28553e-15
2.15984e-06
-3.76645e-16
2.55254e-06
2.94524e-06
-5.6396e-15
-1.43382e-16
9.81747e-07
1.66411e-16
1.37445e-06
4.19122e-15
1.76715e-06
6.34948e-15
2.15984e-06
-8.05453e-16
2.55254e-06
2.94524e-06
8.39397e-16
-6.87764e-17
9.81747e-07
-9.20217e-17
1.37445e-06
-2.76928e-15
1.76715e-06
-3.68657e-16
2.15984e-06
-1.45068e-15
2.55254e-06
2.94524e-06
-1.76384e-16
1.66349e-16
9.81747e-07
-8.86417e-17
1.37445e-06
5.69726e-16
1.76715e-06
-2.10351e-15
2.15984e-06
9.65996e-15
2.55254e-06
2.94524e-06
5.29065e-15
-1.77788e-16
9.81747e-07
-2.04761e-17
1.37445e-06
-3.45375e-16
1.76715e-06
-4.17262e-15
2.15984e-06
-2.62237e-15
2.55254e-06
2.94524e-06
5.36972e-15
1.7779e-16
9.81747e-07
2.05102e-17
1.37445e-06
3.45528e-16
1.76715e-06
4.17274e-15
2.15984e-06
2.62258e-15
2.55254e-06
2.94524e-06
-5.36933e-15
-1.66329e-16
9.81747e-07
8.86814e-17
1.37445e-06
-5.69628e-16
1.76715e-06
2.10354e-15
2.15984e-06
-9.65976e-15
2.55254e-06
2.94524e-06
-5.29003e-15
6.88088e-17
9.81747e-07
9.20638e-17
1.37445e-06
2.76941e-15
1.76715e-06
3.68818e-16
2.15984e-06
1.45095e-15
2.55254e-06
2.94524e-06
1.76698e-16
1.43421e-16
9.81747e-07
-1.66407e-16
1.37445e-06
-4.19107e-15
1.76715e-06
-6.34927e-15
2.15984e-06
8.05776e-16
2.55254e-06
2.94524e-06
-8.39002e-16
-2.1584e-17
9.81747e-07
3.21684e-16
1.37445e-06
1.14896e-15
1.76715e-06
5.28575e-15
2.15984e-06
3.76845e-16
2.55254e-06
2.94524e-06
5.64009e-15
-2.53945e-16
9.81747e-07
-2.55389e-16
1.37445e-06
-2.06595e-15
1.76715e-06
-4.50403e-15
2.15984e-06
2.31002e-15
2.55254e-06
2.94524e-06
-5.40632e-16
1.80115e-16
9.81747e-07
-4.30311e-18
1.37445e-06
1.84779e-15
1.76715e-06
3.88621e-15
2.15984e-06
-3.15684e-15
2.55254e-06
2.94524e-06
-4.98086e-16
4.83938e-17
9.81747e-07
-3.95227e-17
1.37445e-06
-1.94288e-16
1.76715e-06
1.80612e-15
2.15984e-06
4.20864e-15
2.55254e-06
2.94524e-06
-5.01325e-15
-8.6968e-17
9.81747e-07
1.01929e-16
1.37445e-06
-2.69316e-15
1.76715e-06
-7.44279e-15
2.15984e-06
-3.2598e-15
2.55254e-06
2.94524e-06
2.79806e-15
1.16481e-16
9.81747e-07
-1.86402e-16
1.37445e-06
1.56239e-15
1.76715e-06
4.21266e-15
2.15984e-06
7.49844e-15
2.55254e-06
2.94524e-06
-7.72274e-16
-1.82992e-18
9.81747e-07
3.88795e-16
1.37445e-06
2.60423e-15
1.76715e-06
-1.94356e-15
2.15984e-06
-8.0661e-15
2.55254e-06
2.94524e-06
9.03006e-15
-1.36924e-16
-2.42066e-16
-3.76898e-16
1.33935e-15
3.68167e-15
-5.95116e-15
-1.1336e-14
4.53785e-06
-4.53785e-06
-4.80725e-16
5.23599e-06
-5.23599e-06
-5.35716e-15
5.93412e-06
-5.93412e-06
-1.13026e-14
6.63225e-06
-6.63225e-06
4.86993e-15
7.33038e-06
-7.33038e-06
-1.1097e-15
8.02851e-06
-8.02851e-06
-8.15776e-15
8.72664e-06
-8.72664e-06
1.30451e-14
9.42478e-06
-9.42478e-06
5.95058e-15
1.01229e-05
-1.01229e-05
-1.99501e-15
1.0821e-05
-1.0821e-05
2.43886e-14
1.15192e-05
-1.15192e-05
1.61899e-14
1.22173e-05
-1.22173e-05
-3.27842e-14
1.29154e-05
-1.29154e-05
-3.0506e-15
1.36136e-05
-1.36136e-05
-1.44384e-14
1.43117e-05
-1.43117e-05
-2.68988e-14
1.50098e-05
-1.50098e-05
7.74068e-15
1.5708e-05
-1.5708e-05
-4.43881e-15
1.64061e-05
-1.64061e-05
-1.79964e-14
1.71042e-05
-1.71042e-05
2.18238e-14
1.78024e-05
-1.78024e-05
8.21652e-15
1.85005e-05
-1.85005e-05
-6.07988e-15
1.91986e-05
-1.91986e-05
3.89239e-14
1.98967e-05
-1.98967e-05
2.05949e-05
-2.05949e-05
9.3989e-15
4.53785e-06
5.20382e-16
5.23599e-06
7.52884e-15
5.93412e-06
-4.41128e-15
6.63225e-06
3.78399e-15
7.33038e-06
1.33853e-14
8.02851e-06
-2.10912e-15
8.72664e-06
8.52981e-15
9.42478e-06
-1.00266e-14
1.01229e-05
1.86659e-15
1.0821e-05
-2.02008e-14
1.15192e-05
-7.01046e-15
1.22173e-05
7.51224e-15
1.29154e-05
2.36107e-14
1.36136e-05
-2.04177e-15
1.43117e-05
1.48351e-14
1.50098e-05
-1.38783e-14
1.5708e-05
2.39445e-15
1.64061e-05
2.04142e-14
1.71042e-05
-7.016e-15
1.78024e-05
1.20711e-14
1.85005e-05
-2.59387e-14
1.91986e-05
1.8507e-15
1.98967e-05
2.05949e-05
-8.67582e-15
4.53785e-06
1.22925e-14
5.23599e-06
1.88359e-15
5.93412e-06
8.90261e-15
6.63225e-06
-5.10819e-15
7.33038e-06
-2.19907e-14
8.02851e-06
1.2265e-14
8.72664e-06
-5.37241e-15
9.42478e-06
4.45733e-15
1.01229e-05
-1.43038e-14
1.0821e-05
-7.32396e-15
1.15192e-05
7.04256e-15
1.22173e-05
2.39974e-14
1.29154e-05
-7.55262e-15
1.36136e-05
9.80552e-15
1.43117e-05
-1.6236e-14
1.50098e-05
4.02965e-14
1.5708e-05
1.44472e-14
1.64061e-05
-1.37025e-14
1.71042e-05
-7.8961e-15
1.78024e-05
-3.92447e-14
1.85005e-05
4.27537e-14
1.91986e-05
-8.84942e-15
1.98967e-05
2.05949e-05
5.98614e-15
4.53785e-06
2.19241e-16
5.23599e-06
-6.43547e-15
5.93412e-06
6.06431e-15
6.63225e-06
-2.09243e-15
7.33038e-06
1.61773e-14
8.02851e-06
-1.88297e-14
8.72664e-06
-2.35023e-15
9.42478e-06
9.17359e-15
1.01229e-05
-4.70897e-15
1.0821e-05
2.16294e-14
1.15192e-05
-2.96428e-14
1.22173e-05
-9.28718e-15
1.29154e-05
-1.89045e-14
1.36136e-05
4.4703e-15
1.43117e-05
3.01575e-14
1.50098e-05
-2.62142e-14
1.5708e-05
4.37708e-16
1.64061e-05
-2.11673e-14
1.71042e-05
1.87159e-14
1.78024e-05
-3.92098e-15
1.85005e-05
-2.91506e-14
1.91986e-05
1.52381e-14
1.98967e-05
2.05949e-05
6.71528e-15
4.53785e-06
-7.30651e-15
5.23599e-06
1.11011e-14
5.93412e-06
-4.24012e-15
6.63225e-06
1.51031e-14
7.33038e-06
-5.20854e-15
8.02851e-06
1.70141e-14
8.72664e-06
-3.94026e-15
9.42478e-06
-2.92999e-16
1.01229e-05
6.61244e-15
1.0821e-05
1.37092e-14
1.15192e-05
1.01841e-14
1.22173e-05
1.82198e-14
1.29154e-05
1.43695e-14
1.36136e-05
2.33447e-14
1.43117e-05
-2.53423e-14
1.50098e-05
2.90727e-14
1.5708e-05
-7.82721e-15
1.64061e-05
3.54234e-14
1.71042e-05
-4.50737e-15
1.78024e-05
4.23736e-14
1.85005e-05
-5.79922e-16
1.91986e-05
-8.72779e-15
1.98967e-05
2.05949e-05
-4.63007e-15
4.53785e-06
5.79767e-15
5.23599e-06
-1.61503e-14
5.93412e-06
-5.97382e-15
6.63225e-06
-8.55495e-15
7.33038e-06
4.22437e-15
8.02851e-06
-8.18722e-15
8.72664e-06
7.00043e-15
9.42478e-06
-2.42288e-14
1.01229e-05
-7.76807e-15
1.0821e-05
-2.27617e-14
1.15192e-05
8.35086e-15
1.22173e-05
-7.40106e-15
1.29154e-05
2.82672e-14
1.36136e-05
-4.57076e-14
1.43117e-05
-8.22016e-15
1.50098e-05
-2.82255e-14
1.5708e-05
-2.33782e-15
1.64061e-05
-6.94255e-15
1.71042e-05
2.21555e-14
1.78024e-05
-3.41056e-14
1.85005e-05
-3.73655e-15
1.91986e-05
-3.23438e-14
1.98967e-05
2.05949e-05
-8.92475e-15
4.53785e-06
-2.28832e-15
5.23599e-06
-2.22372e-15
5.93412e-06
6.61723e-15
6.63225e-06
-3.38803e-15
7.33038e-06
-3.90663e-15
8.02851e-06
-6.41845e-15
8.72664e-06
-7.15682e-15
9.42478e-06
6.8105e-15
1.01229e-05
6.98435e-15
1.0821e-05
-9.06376e-15
1.15192e-05
6.76135e-15
1.22173e-05
-2.88868e-14
1.29154e-05
-1.22321e-14
1.36136e-05
4.80617e-15
1.43117e-05
2.50291e-14
1.50098e-05
3.8629e-15
1.5708e-05
3.60743e-15
1.64061e-05
-2.04818e-14
1.71042e-05
-2.17581e-14
1.78024e-05
3.46805e-15
1.85005e-05
2.90436e-14
1.91986e-05
-1.6569e-15
1.98967e-05
2.05949e-05
6.21606e-15
4.53785e-06
-3.87899e-15
5.23599e-06
1.54224e-14
5.93412e-06
-7.06426e-15
6.63225e-06
-2.21013e-15
7.33038e-06
1.42929e-15
8.02851e-06
-5.49253e-15
8.72664e-06
1.32273e-14
9.42478e-06
6.04641e-15
1.01229e-05
-1.74501e-14
1.0821e-05
2.08898e-14
1.15192e-05
-2.14435e-14
1.22173e-05
1.9135e-14
1.29154e-05
-7.31267e-15
1.36136e-05
3.84898e-14
1.43117e-05
-1.29199e-14
1.50098e-05
-1.87978e-15
1.5708e-05
5.71714e-15
1.64061e-05
-7.58414e-15
1.71042e-05
2.7664e-14
1.78024e-05
1.41e-14
1.85005e-05
-5.31399e-14
1.91986e-05
3.90883e-14
1.98967e-05
2.05949e-05
-1.49817e-15
4.53785e-06
1.08972e-14
5.23599e-06
-6.59925e-15
5.93412e-06
7.26626e-15
6.63225e-06
6.17605e-15
7.33038e-06
2.48927e-15
8.02851e-06
-9.64284e-16
8.72664e-06
-4.36404e-15
9.42478e-06
-8.89924e-15
1.01229e-05
1.38624e-14
1.0821e-05
1.06927e-14
1.15192e-05
6.25187e-15
1.22173e-05
-1.26112e-16
1.29154e-05
-3.4353e-15
1.36136e-05
-1.10412e-14
1.43117e-05
-1.77625e-14
1.50098e-05
1.76831e-14
1.5708e-05
9.95706e-15
1.64061e-05
3.33021e-15
1.71042e-05
-3.29617e-14
1.78024e-05
-1.042e-14
1.85005e-05
3.00696e-14
1.91986e-05
-5.99924e-14
1.98967e-05
2.05949e-05
5.17047e-15
4.53785e-06
-7.45531e-15
5.23599e-06
-7.56314e-16
5.93412e-06
6.83989e-15
6.63225e-06
-9.9737e-15
7.33038e-06
-1.66385e-15
8.02851e-06
9.21968e-15
8.72664e-06
-1.34592e-14
9.42478e-06
2.32234e-14
1.01229e-05
1.04721e-14
1.0821e-05
-1.72689e-14
1.15192e-05
-3.02526e-15
1.22173e-05
1.14016e-14
1.29154e-05
-1.98161e-14
1.36136e-05
-4.67598e-15
1.43117e-05
5.03093e-14
1.50098e-05
-2.40442e-14
1.5708e-05
-6.6554e-15
1.64061e-05
1.42619e-14
1.71042e-05
1.65251e-15
1.78024e-05
-6.80594e-15
1.85005e-05
1.44447e-14
1.91986e-05
5.07647e-14
1.98967e-05
2.05949e-05
-6.19718e-15
4.53785e-06
2.88595e-17
5.23599e-06
1.15121e-14
5.93412e-06
-2.06257e-14
6.63225e-06
5.36744e-15
7.33038e-06
1.22252e-15
8.02851e-06
-4.64413e-17
8.72664e-06
1.23948e-14
9.42478e-06
-1.32256e-14
1.01229e-05
-1.88939e-14
1.0821e-05
-4.9627e-15
1.15192e-05
-7.15228e-15
1.22173e-05
-1.48854e-14
1.29154e-05
3.53404e-14
1.36136e-05
2.08055e-18
1.43117e-05
-4.31352e-14
1.50098e-05
1.3566e-14
1.5708e-05
-2.8254e-14
1.64061e-05
2.45517e-15
1.71042e-05
-1.02402e-14
1.78024e-05
2.38058e-14
1.85005e-05
1.38817e-14
1.91986e-05
-4.5559e-14
1.98967e-05
2.05949e-05
-1.9067e-15
4.53785e-06
1.13118e-15
5.23599e-06
-2.16614e-14
5.93412e-06
9.62469e-15
6.63225e-06
1.51374e-14
7.33038e-06
-1.40653e-14
8.02851e-06
8.0942e-15
8.72664e-06
-2.69588e-14
9.42478e-06
-1.96518e-15
1.01229e-05
2.97196e-14
1.0821e-05
-1.17451e-14
1.15192e-05
1.9868e-14
1.22173e-05
-2.74428e-14
1.29154e-05
-2.0613e-14
1.36136e-05
1.60422e-14
1.43117e-05
-4.61259e-15
1.50098e-05
4.69298e-15
1.5708e-05
4.7969e-14
1.64061e-05
-1.37375e-14
1.71042e-05
3.23768e-14
1.78024e-05
-3.51808e-14
1.85005e-05
-2.49015e-14
1.91986e-05
7.19201e-14
1.98967e-05
2.05949e-05
1.90679e-15
4.53785e-06
-1.13004e-15
5.23599e-06
2.16624e-14
5.93412e-06
-9.6237e-15
6.63225e-06
-1.51376e-14
7.33038e-06
1.40652e-14
8.02851e-06
-8.09219e-15
8.72664e-06
2.69598e-14
9.42478e-06
1.96603e-15
1.01229e-05
-2.97157e-14
1.0821e-05
1.17477e-14
1.15192e-05
-1.98663e-14
1.22173e-05
2.74467e-14
1.29154e-05
2.06176e-14
1.36136e-05
-1.60419e-14
1.43117e-05
4.61299e-15
1.50098e-05
-4.69192e-15
1.5708e-05
-4.79635e-14
1.64061e-05
1.37394e-14
1.71042e-05
-3.23688e-14
1.78024e-05
3.51835e-14
1.85005e-05
2.49078e-14
1.91986e-05
-7.19121e-14
1.98967e-05
2.05949e-05
6.19746e-15
4.53785e-06
-2.81553e-17
5.23599e-06
-1.15113e-14
5.93412e-06
2.06263e-14
6.63225e-06
-5.3673e-15
7.33038e-06
-1.22072e-15
8.02851e-06
4.71728e-17
8.72664e-06
-1.23923e-14
9.42478e-06
1.32279e-14
1.01229e-05
1.88953e-14
1.0821e-05
4.96462e-15
1.15192e-05
7.15433e-15
1.22173e-05
1.48871e-14
1.29154e-05
-3.53381e-14
1.36136e-05
1.84448e-18
1.43117e-05
4.31376e-14
1.50098e-05
-1.35617e-14
1.5708e-05
2.82603e-14
1.64061e-05
-2.45161e-15
1.71042e-05
1.0242e-14
1.78024e-05
-2.38005e-14
1.85005e-05
-1.38718e-14
1.91986e-05
4.55647e-14
1.98967e-05
2.05949e-05
-5.16991e-15
4.53785e-06
7.45582e-15
5.23599e-06
7.57061e-16
5.93412e-06
-6.83876e-15
6.63225e-06
9.97451e-15
7.33038e-06
1.66531e-15
8.02851e-06
-9.21859e-15
8.72664e-06
1.34607e-14
9.42478e-06
-2.32203e-14
1.01229e-05
-1.04715e-14
1.0821e-05
1.72739e-14
1.15192e-05
3.02824e-15
1.22173e-05
-1.13979e-14
1.29154e-05
1.98188e-14
1.36136e-05
4.67877e-15
1.43117e-05
-5.03052e-14
1.50098e-05
2.40474e-14
1.5708e-05
6.66125e-15
1.64061e-05
-1.42569e-14
1.71042e-05
-1.65114e-15
1.78024e-05
6.81585e-15
1.85005e-05
-1.44385e-14
1.91986e-05
-5.07545e-14
1.98967e-05
2.05949e-05
1.49868e-15
4.53785e-06
-1.08965e-14
5.23599e-06
6.59992e-15
5.93412e-06
-7.26496e-15
6.63225e-06
-6.17414e-15
7.33038e-06
-2.48872e-15
8.02851e-06
9.6526e-16
8.72664e-06
4.36586e-15
9.42478e-06
8.9013e-15
1.01229e-05
-1.38628e-14
1.0821e-05
-1.06891e-14
1.15192e-05
-6.2495e-15
1.22173e-05
1.26956e-16
1.29154e-05
3.43928e-15
1.36136e-05
1.10443e-14
1.43117e-05
1.77636e-14
1.50098e-05
-1.76763e-14
1.5708e-05
-9.95488e-15
1.64061e-05
-3.32685e-15
1.71042e-05
3.29702e-14
1.78024e-05
1.04263e-14
1.85005e-05
-3.00633e-14
1.91986e-05
5.99973e-14
1.98967e-05
2.05949e-05
-6.21536e-15
4.53785e-06
3.87965e-15
5.23599e-06
-1.54218e-14
5.93412e-06
7.06563e-15
6.63225e-06
2.21016e-15
7.33038e-06
-1.42818e-15
8.02851e-06
5.49403e-15
8.72664e-06
-1.32251e-14
9.42478e-06
-6.04471e-15
1.01229e-05
1.74519e-14
1.0821e-05
-2.08879e-14
1.15192e-05
2.14462e-14
1.22173e-05
-1.91316e-14
1.29154e-05
7.31711e-15
1.36136e-05
-3.84851e-14
1.43117e-05
1.29211e-14
1.50098e-05
1.88563e-15
1.5708e-05
-5.71271e-15
1.64061e-05
7.58981e-15
1.71042e-05
-2.76573e-14
1.78024e-05
-1.40937e-14
1.85005e-05
5.31469e-14
1.91986e-05
-3.90818e-14
1.98967e-05
2.05949e-05
8.92542e-15
4.53785e-06
2.28936e-15
5.23599e-06
2.22416e-15
5.93412e-06
-6.61621e-15
6.63225e-06
3.38859e-15
7.33038e-06
3.90816e-15
8.02851e-06
6.4194e-15
8.72664e-06
7.15955e-15
9.42478e-06
-6.80922e-15
1.01229e-05
-6.9813e-15
1.0821e-05
9.06703e-15
1.15192e-05
-6.76015e-15
1.22173e-05
2.88894e-14
1.29154e-05
1.2234e-14
1.36136e-05
-4.80346e-15
1.43117e-05
-2.50245e-14
1.50098e-05
-3.86028e-15
1.5708e-05
-3.60437e-15
1.64061e-05
2.04841e-14
1.71042e-05
2.17647e-14
1.78024e-05
-3.46737e-15
1.85005e-05
-2.90387e-14
1.91986e-05
1.66495e-15
1.98967e-05
2.05949e-05
4.63081e-15
4.53785e-06
-5.79704e-15
5.23599e-06
1.6151e-14
5.93412e-06
5.9746e-15
6.63225e-06
8.55612e-15
7.33038e-06
-4.2237e-15
8.02851e-06
8.18856e-15
8.72664e-06
-6.99704e-15
9.42478e-06
2.4231e-14
1.01229e-05
7.77166e-15
1.0821e-05
2.27662e-14
1.15192e-05
-8.34782e-15
1.22173e-05
7.40423e-15
1.29154e-05
-2.82657e-14
1.36136e-05
4.57126e-14
1.43117e-05
8.22412e-15
1.50098e-05
2.82297e-14
1.5708e-05
2.34101e-15
1.64061e-05
6.94512e-15
1.71042e-05
-2.21452e-14
1.78024e-05
3.41127e-14
1.85005e-05
3.74321e-15
1.91986e-05
3.23469e-14
1.98967e-05
2.05949e-05
-6.71473e-15
4.53785e-06
7.30713e-15
5.23599e-06
-1.11006e-14
5.93412e-06
4.24141e-15
6.63225e-06
-1.51016e-14
7.33038e-06
5.21011e-15
8.02851e-06
-1.70128e-14
8.72664e-06
3.94197e-15
9.42478e-06
2.94929e-16
1.01229e-05
-6.60939e-15
1.0821e-05
-1.37059e-14
1.15192e-05
-1.01846e-14
1.22173e-05
-1.82164e-14
1.29154e-05
-1.43661e-14
1.36136e-05
-2.33394e-14
1.43117e-05
2.53461e-14
1.50098e-05
-2.90716e-14
1.5708e-05
7.82898e-15
1.64061e-05
-3.54147e-14
1.71042e-05
4.5179e-15
1.78024e-05
-4.23677e-14
1.85005e-05
5.86581e-16
1.91986e-05
8.73563e-15
1.98967e-05
2.05949e-05
-5.98571e-15
4.53785e-06
-2.18571e-16
5.23599e-06
6.43571e-15
5.93412e-06
-6.0637e-15
6.63225e-06
2.09269e-15
7.33038e-06
-1.61767e-14
8.02851e-06
1.88314e-14
8.72664e-06
2.35248e-15
9.42478e-06
-9.17091e-15
1.01229e-05
4.71161e-15
1.0821e-05
-2.16267e-14
1.15192e-05
2.96458e-14
1.22173e-05
9.28992e-15
1.29154e-05
1.89069e-14
1.36136e-05
-4.46707e-15
1.43117e-05
-3.01554e-14
1.50098e-05
2.62175e-14
1.5708e-05
-4.35407e-16
1.64061e-05
2.11725e-14
1.71042e-05
-1.87095e-14
1.78024e-05
3.924e-15
1.85005e-05
2.91613e-14
1.91986e-05
-1.52314e-14
1.98967e-05
2.05949e-05
8.67627e-15
4.53785e-06
-1.22922e-14
5.23599e-06
-1.88306e-15
5.93412e-06
-8.90192e-15
6.63225e-06
5.10856e-15
7.33038e-06
2.19913e-14
8.02851e-06
-1.22635e-14
8.72664e-06
5.37552e-15
9.42478e-06
-4.45581e-15
1.01229e-05
1.43064e-14
1.0821e-05
7.32686e-15
1.15192e-05
-7.03954e-15
1.22173e-05
-2.39941e-14
1.29154e-05
7.5561e-15
1.36136e-05
-9.79904e-15
1.43117e-05
1.62361e-14
1.50098e-05
-4.02925e-14
1.5708e-05
-1.44432e-14
1.64061e-05
1.37044e-14
1.71042e-05
7.8979e-15
1.78024e-05
3.92563e-14
1.85005e-05
-4.27502e-14
1.91986e-05
8.85267e-15
1.98967e-05
2.05949e-05
-9.39871e-15
4.53785e-06
-5.20148e-16
5.23599e-06
-7.52805e-15
5.93412e-06
4.41189e-15
6.63225e-06
-3.7831e-15
7.33038e-06
-1.33843e-14
8.02851e-06
2.10948e-15
8.72664e-06
-8.52726e-15
9.42478e-06
1.00273e-14
1.01229e-05
-1.86505e-15
1.0821e-05
2.02033e-14
1.15192e-05
7.01428e-15
1.22173e-05
-7.50911e-15
1.29154e-05
-2.36067e-14
1.36136e-05
2.04581e-15
1.43117e-05
-1.48315e-14
1.50098e-05
1.38825e-14
1.5708e-05
-2.39097e-15
1.64061e-05
-2.04073e-14
1.71042e-05
7.01836e-15
1.78024e-05
-1.2062e-14
1.85005e-05
2.59439e-14
1.91986e-05
-1.84584e-15
1.98967e-05
2.05949e-05
1.13362e-14
4.53785e-06
4.81341e-16
5.23599e-06
5.35738e-15
5.93412e-06
1.13035e-14
6.63225e-06
-4.8688e-15
7.33038e-06
1.10994e-15
8.02851e-06
8.15883e-15
8.72664e-06
-1.30432e-14
9.42478e-06
-5.9486e-15
1.01229e-05
1.99694e-15
1.0821e-05
-2.4385e-14
1.15192e-05
-1.61873e-14
1.22173e-05
3.27883e-14
1.29154e-05
3.05346e-15
1.36136e-05
1.44443e-14
1.43117e-05
2.69019e-14
1.50098e-05
-7.7369e-15
1.5708e-05
4.43978e-15
1.64061e-05
1.80032e-14
1.71042e-05
-2.18207e-14
1.78024e-05
-8.20937e-15
1.85005e-05
6.08276e-15
1.91986e-05
-3.89199e-14
1.98967e-05
2.05949e-05
1.36951e-16
9.81747e-07
2.42126e-16
1.37445e-06
3.77036e-16
1.76715e-06
-1.33929e-15
2.15984e-06
-3.68146e-15
2.55254e-06
2.94524e-06
5.95144e-15
1.86026e-18
9.81747e-07
-3.88724e-16
1.37445e-06
-2.60411e-15
1.76715e-06
1.94366e-15
2.15984e-06
8.06629e-15
2.55254e-06
2.94524e-06
-9.02964e-15
-1.16451e-16
9.81747e-07
1.86438e-16
1.37445e-06
-1.56234e-15
1.76715e-06
-4.21241e-15
2.15984e-06
-7.49824e-15
2.55254e-06
2.94524e-06
7.72514e-16
8.6964e-17
9.81747e-07
-1.01921e-16
1.37445e-06
2.69322e-15
1.76715e-06
7.44295e-15
2.15984e-06
3.25997e-15
2.55254e-06
2.94524e-06
-2.79778e-15
-4.83499e-17
9.81747e-07
3.95544e-17
1.37445e-06
1.94352e-16
1.76715e-06
-1.80611e-15
2.15984e-06
-4.20841e-15
2.55254e-06
2.94524e-06
5.0135e-15
-1.80106e-16
9.81747e-07
4.34146e-18
1.37445e-06
-1.84775e-15
1.76715e-06
-3.88601e-15
2.15984e-06
3.15725e-15
2.55254e-06
2.94524e-06
4.98253e-16
2.53955e-16
9.81747e-07
2.55448e-16
1.37445e-06
2.06603e-15
1.76715e-06
4.50418e-15
2.15984e-06
-2.30967e-15
2.55254e-06
2.94524e-06
5.40913e-16
2.16757e-17
9.81747e-07
-3.21651e-16
1.37445e-06
-1.1489e-15
1.76715e-06
-5.28553e-15
2.15984e-06
-3.76645e-16
2.55254e-06
2.94524e-06
-5.6396e-15
-1.43382e-16
9.81747e-07
1.66411e-16
1.37445e-06
4.19122e-15
1.76715e-06
6.34948e-15
2.15984e-06
-8.05453e-16
2.55254e-06
2.94524e-06
8.39397e-16
-6.87764e-17
9.81747e-07
-9.20217e-17
1.37445e-06
-2.76928e-15
1.76715e-06
-3.68657e-16
2.15984e-06
-1.45068e-15
2.55254e-06
2.94524e-06
-1.76384e-16
1.66349e-16
9.81747e-07
-8.86417e-17
1.37445e-06
5.69726e-16
1.76715e-06
-2.10351e-15
2.15984e-06
9.65996e-15
2.55254e-06
2.94524e-06
5.29065e-15
-1.77788e-16
9.81747e-07
-2.04761e-17
1.37445e-06
-3.45375e-16
1.76715e-06
-4.17262e-15
2.15984e-06
-2.62237e-15
2.55254e-06
2.94524e-06
5.36972e-15
1.7779e-16
9.81747e-07
2.05102e-17
1.37445e-06
3.45528e-16
1.76715e-06
4.17274e-15
2.15984e-06
2.62258e-15
2.55254e-06
2.94524e-06
-5.36933e-15
-1.66329e-16
9.81747e-07
8.86814e-17
1.37445e-06
-5.69628e-16
1.76715e-06
2.10354e-15
2.15984e-06
-9.65976e-15
2.55254e-06
2.94524e-06
-5.29003e-15
6.88088e-17
9.81747e-07
9.20638e-17
1.37445e-06
2.76941e-15
1.76715e-06
3.68818e-16
2.15984e-06
1.45095e-15
2.55254e-06
2.94524e-06
1.76698e-16
1.43421e-16
9.81747e-07
-1.66407e-16
1.37445e-06
-4.19107e-15
1.76715e-06
-6.34927e-15
2.15984e-06
8.05776e-16
2.55254e-06
2.94524e-06
-8.39002e-16
-2.1584e-17
9.81747e-07
3.21684e-16
1.37445e-06
1.14896e-15
1.76715e-06
5.28575e-15
2.15984e-06
3.76845e-16
2.55254e-06
2.94524e-06
5.64009e-15
-2.53945e-16
9.81747e-07
-2.55389e-16
1.37445e-06
-2.06595e-15
1.76715e-06
-4.50403e-15
2.15984e-06
2.31002e-15
2.55254e-06
2.94524e-06
-5.40632e-16
1.80115e-16
9.81747e-07
-4.30311e-18
1.37445e-06
1.84779e-15
1.76715e-06
3.88621e-15
2.15984e-06
-3.15684e-15
2.55254e-06
2.94524e-06
-4.98086e-16
4.83938e-17
9.81747e-07
-3.95227e-17
1.37445e-06
-1.94288e-16
1.76715e-06
1.80612e-15
2.15984e-06
4.20864e-15
2.55254e-06
2.94524e-06
-5.01325e-15
-8.6968e-17
9.81747e-07
1.01929e-16
1.37445e-06
-2.69316e-15
1.76715e-06
-7.44279e-15
2.15984e-06
-3.2598e-15
2.55254e-06
2.94524e-06
2.79806e-15
1.16481e-16
9.81747e-07
-1.86402e-16
1.37445e-06
1.56239e-15
1.76715e-06
4.21266e-15
2.15984e-06
7.49844e-15
2.55254e-06
2.94524e-06
-7.72274e-16
-1.82992e-18
9.81747e-07
3.88795e-16
1.37445e-06
2.60423e-15
1.76715e-06
-1.94356e-15
2.15984e-06
-8.0661e-15
2.55254e-06
2.94524e-06
9.03006e-15
-1.36929e-16
-2.42066e-16
-3.76898e-16
1.33943e-15
3.68171e-15
-5.95116e-15
-1.1336e-14
4.53785e-06
-4.80725e-16
5.23599e-06
-5.35716e-15
5.93412e-06
-1.13026e-14
6.63225e-06
4.86993e-15
7.33038e-06
-1.10904e-15
8.02851e-06
-8.15774e-15
8.72664e-06
1.30451e-14
9.42478e-06
5.95058e-15
1.01229e-05
-1.99501e-15
1.0821e-05
2.43886e-14
1.15192e-05
1.61899e-14
1.22173e-05
-3.27842e-14
1.29154e-05
-3.0506e-15
1.36136e-05
-1.44384e-14
1.43117e-05
-2.68988e-14
1.50098e-05
7.74068e-15
1.5708e-05
-4.43617e-15
1.64061e-05
-1.79982e-14
1.71042e-05
2.18224e-14
1.78024e-05
8.21462e-15
1.85005e-05
-6.07988e-15
1.91986e-05
3.89239e-14
1.98967e-05
2.05949e-05
9.3989e-15
4.53785e-06
5.20382e-16
5.23599e-06
7.52884e-15
5.93412e-06
-4.41128e-15
6.63225e-06
3.78399e-15
7.33038e-06
1.33853e-14
8.02851e-06
-2.10912e-15
8.72664e-06
8.52981e-15
9.42478e-06
-1.00266e-14
1.01229e-05
1.86659e-15
1.0821e-05
-2.02008e-14
1.15192e-05
-7.01046e-15
1.22173e-05
7.51224e-15
1.29154e-05
2.36107e-14
1.36136e-05
-2.04177e-15
1.43117e-05
1.48351e-14
1.50098e-05
-1.38783e-14
1.5708e-05
2.39445e-15
1.64061e-05
2.04142e-14
1.71042e-05
-7.016e-15
1.78024e-05
1.20711e-14
1.85005e-05
-2.59387e-14
1.91986e-05
1.8507e-15
1.98967e-05
2.05949e-05
-8.67582e-15
4.53785e-06
1.22925e-14
5.23599e-06
1.88359e-15
5.93412e-06
8.90261e-15
6.63225e-06
-5.10819e-15
7.33038e-06
-2.19907e-14
8.02851e-06
1.2265e-14
8.72664e-06
-5.37241e-15
9.42478e-06
4.45733e-15
1.01229e-05
-1.43038e-14
1.0821e-05
-7.32396e-15
1.15192e-05
7.04256e-15
1.22173e-05
2.39974e-14
1.29154e-05
-7.55262e-15
1.36136e-05
9.80552e-15
1.43117e-05
-1.6236e-14
1.50098e-05
4.02965e-14
1.5708e-05
1.44472e-14
1.64061e-05
-1.37025e-14
1.71042e-05
-7.8961e-15
1.78024e-05
-3.92447e-14
1.85005e-05
4.27537e-14
1.91986e-05
-8.84942e-15
1.98967e-05
2.05949e-05
5.98614e-15
4.53785e-06
2.19241e-16
5.23599e-06
-6.43547e-15
5.93412e-06
6.06431e-15
6.63225e-06
-2.09243e-15
7.33038e-06
1.61773e-14
8.02851e-06
-1.88297e-14
8.72664e-06
-2.35023e-15
9.42478e-06
9.17359e-15
1.01229e-05
-4.70897e-15
1.0821e-05
2.16294e-14
1.15192e-05
-2.96428e-14
1.22173e-05
-9.28718e-15
1.29154e-05
-1.89045e-14
1.36136e-05
4.4703e-15
1.43117e-05
3.01575e-14
1.50098e-05
-2.62142e-14
1.5708e-05
4.37708e-16
1.64061e-05
-2.11673e-14
1.71042e-05
1.87159e-14
1.78024e-05
-3.92098e-15
1.85005e-05
-2.91506e-14
1.91986e-05
1.52381e-14
1.98967e-05
2.05949e-05
6.71528e-15
4.53785e-06
-7.30651e-15
5.23599e-06
1.11011e-14
5.93412e-06
-4.24012e-15
6.63225e-06
1.51031e-14
7.33038e-06
-5.20854e-15
8.02851e-06
1.70141e-14
8.72664e-06
-3.94026e-15
9.42478e-06
-2.92999e-16
1.01229e-05
6.61244e-15
1.0821e-05
1.37092e-14
1.15192e-05
1.01841e-14
1.22173e-05
1.82198e-14
1.29154e-05
1.43695e-14
1.36136e-05
2.33447e-14
1.43117e-05
-2.53423e-14
1.50098e-05
2.90727e-14
1.5708e-05
-7.82721e-15
1.64061e-05
3.54234e-14
1.71042e-05
-4.50737e-15
1.78024e-05
4.23736e-14
1.85005e-05
-5.79922e-16
1.91986e-05
-8.72779e-15
1.98967e-05
2.05949e-05
-4.63007e-15
4.53785e-06
5.79767e-15
5.23599e-06
-1.61503e-14
5.93412e-06
-5.97382e-15
6.63225e-06
-8.55495e-15
7.33038e-06
4.22437e-15
8.02851e-06
-8.18722e-15
8.72664e-06
7.00043e-15
9.42478e-06
-2.42288e-14
1.01229e-05
-7.76807e-15
1.0821e-05
-2.27617e-14
1.15192e-05
8.35086e-15
1.22173e-05
-7.40106e-15
1.29154e-05
2.82672e-14
1.36136e-05
-4.57076e-14
1.43117e-05
-8.22016e-15
1.50098e-05
-2.82255e-14
1.5708e-05
-2.33782e-15
1.64061e-05
-6.94255e-15
1.71042e-05
2.21555e-14
1.78024e-05
-3.41056e-14
1.85005e-05
-3.73655e-15
1.91986e-05
-3.23438e-14
1.98967e-05
2.05949e-05
-8.92475e-15
4.53785e-06
-2.28832e-15
5.23599e-06
-2.22372e-15
5.93412e-06
6.61723e-15
6.63225e-06
-3.38803e-15
7.33038e-06
-3.90663e-15
8.02851e-06
-6.41845e-15
8.72664e-06
-7.15682e-15
9.42478e-06
6.8105e-15
1.01229e-05
6.98435e-15
1.0821e-05
-9.06376e-15
1.15192e-05
6.76135e-15
1.22173e-05
-2.88868e-14
1.29154e-05
-1.22321e-14
1.36136e-05
4.80617e-15
1.43117e-05
2.50291e-14
1.50098e-05
3.8629e-15
1.5708e-05
3.60743e-15
1.64061e-05
-2.04818e-14
1.71042e-05
-2.17581e-14
1.78024e-05
3.46805e-15
1.85005e-05
2.90436e-14
1.91986e-05
-1.6569e-15
1.98967e-05
2.05949e-05
6.21606e-15
4.53785e-06
-3.87899e-15
5.23599e-06
1.54224e-14
5.93412e-06
-7.06426e-15
6.63225e-06
-2.21013e-15
7.33038e-06
1.42929e-15
8.02851e-06
-5.49253e-15
8.72664e-06
1.32273e-14
9.42478e-06
6.04641e-15
1.01229e-05
-1.74501e-14
1.0821e-05
2.08898e-14
1.15192e-05
-2.14435e-14
1.22173e-05
1.9135e-14
1.29154e-05
-7.31267e-15
1.36136e-05
3.84898e-14
1.43117e-05
-1.29199e-14
1.50098e-05
-1.87978e-15
1.5708e-05
5.71714e-15
1.64061e-05
-7.58414e-15
1.71042e-05
2.7664e-14
1.78024e-05
1.41e-14
1.85005e-05
-5.31399e-14
1.91986e-05
3.90883e-14
1.98967e-05
2.05949e-05
-1.49817e-15
4.53785e-06
1.08972e-14
5.23599e-06
-6.59925e-15
5.93412e-06
7.26626e-15
6.63225e-06
6.17605e-15
7.33038e-06
2.48927e-15
8.02851e-06
-9.64284e-16
8.72664e-06
-4.36404e-15
9.42478e-06
-8.89924e-15
1.01229e-05
1.38624e-14
1.0821e-05
1.06927e-14
1.15192e-05
6.25187e-15
1.22173e-05
-1.26112e-16
1.29154e-05
-3.4353e-15
1.36136e-05
-1.10412e-14
1.43117e-05
-1.77625e-14
1.50098e-05
1.76831e-14
1.5708e-05
9.95706e-15
1.64061e-05
3.33021e-15
1.71042e-05
-3.29617e-14
1.78024e-05
-1.042e-14
1.85005e-05
3.00696e-14
1.91986e-05
-5.99924e-14
1.98967e-05
2.05949e-05
5.17047e-15
4.53785e-06
-7.45531e-15
5.23599e-06
-7.56314e-16
5.93412e-06
6.83989e-15
6.63225e-06
-9.9737e-15
7.33038e-06
-1.66385e-15
8.02851e-06
9.21968e-15
8.72664e-06
-1.34592e-14
9.42478e-06
2.32234e-14
1.01229e-05
1.04721e-14
1.0821e-05
-1.72689e-14
1.15192e-05
-3.02526e-15
1.22173e-05
1.14016e-14
1.29154e-05
-1.98161e-14
1.36136e-05
-4.67598e-15
1.43117e-05
5.03093e-14
1.50098e-05
-2.40442e-14
1.5708e-05
-6.6554e-15
1.64061e-05
1.42619e-14
1.71042e-05
1.65251e-15
1.78024e-05
-6.80594e-15
1.85005e-05
1.44447e-14
1.91986e-05
5.07647e-14
1.98967e-05
2.05949e-05
-6.19718e-15
4.53785e-06
2.88595e-17
5.23599e-06
1.15121e-14
5.93412e-06
-2.06257e-14
6.63225e-06
5.36744e-15
7.33038e-06
1.22252e-15
8.02851e-06
-4.64413e-17
8.72664e-06
1.23948e-14
9.42478e-06
-1.32256e-14
1.01229e-05
-1.88939e-14
1.0821e-05
-4.9627e-15
1.15192e-05
-7.15228e-15
1.22173e-05
-1.48854e-14
1.29154e-05
3.53404e-14
1.36136e-05
2.08055e-18
1.43117e-05
-4.31352e-14
1.50098e-05
1.3566e-14
1.5708e-05
-2.8254e-14
1.64061e-05
2.45517e-15
1.71042e-05
-1.02402e-14
1.78024e-05
2.38058e-14
1.85005e-05
1.38817e-14
1.91986e-05
-4.5559e-14
1.98967e-05
2.05949e-05
-1.9067e-15
4.53785e-06
1.13118e-15
5.23599e-06
-2.16614e-14
5.93412e-06
9.62469e-15
6.63225e-06
1.51374e-14
7.33038e-06
-1.40653e-14
8.02851e-06
8.0942e-15
8.72664e-06
-2.69588e-14
9.42478e-06
-1.96518e-15
1.01229e-05
2.97196e-14
1.0821e-05
-1.17451e-14
1.15192e-05
1.9868e-14
1.22173e-05
-2.74428e-14
1.29154e-05
-2.0613e-14
1.36136e-05
1.60422e-14
1.43117e-05
-4.61259e-15
1.50098e-05
4.69298e-15
1.5708e-05
4.7969e-14
1.64061e-05
-1.37375e-14
1.71042e-05
3.23768e-14
1.78024e-05
-3.51808e-14
1.85005e-05
-2.49015e-14
1.91986e-05
7.19201e-14
1.98967e-05
2.05949e-05
1.90679e-15
4.53785e-06
-1.13004e-15
5.23599e-06
2.16624e-14
5.93412e-06
-9.6237e-15
6.63225e-06
-1.51376e-14
7.33038e-06
1.40652e-14
8.02851e-06
-8.09219e-15
8.72664e-06
2.69598e-14
9.42478e-06
1.96603e-15
1.01229e-05
-2.97157e-14
1.0821e-05
1.17477e-14
1.15192e-05
-1.98663e-14
1.22173e-05
2.74467e-14
1.29154e-05
2.06176e-14
1.36136e-05
-1.60419e-14
1.43117e-05
4.61299e-15
1.50098e-05
-4.69192e-15
1.5708e-05
-4.79635e-14
1.64061e-05
1.37394e-14
1.71042e-05
-3.23688e-14
1.78024e-05
3.51835e-14
1.85005e-05
2.49078e-14
1.91986e-05
-7.19121e-14
1.98967e-05
2.05949e-05
6.19746e-15
4.53785e-06
-2.81553e-17
5.23599e-06
-1.15113e-14
5.93412e-06
2.06263e-14
6.63225e-06
-5.3673e-15
7.33038e-06
-1.22072e-15
8.02851e-06
4.71728e-17
8.72664e-06
-1.23923e-14
9.42478e-06
1.32279e-14
1.01229e-05
1.88953e-14
1.0821e-05
4.96462e-15
1.15192e-05
7.15433e-15
1.22173e-05
1.48871e-14
1.29154e-05
-3.53381e-14
1.36136e-05
1.84448e-18
1.43117e-05
4.31376e-14
1.50098e-05
-1.35617e-14
1.5708e-05
2.82603e-14
1.64061e-05
-2.45161e-15
1.71042e-05
1.0242e-14
1.78024e-05
-2.38005e-14
1.85005e-05
-1.38718e-14
1.91986e-05
4.55647e-14
1.98967e-05
2.05949e-05
-5.16991e-15
4.53785e-06
7.45582e-15
5.23599e-06
7.57061e-16
5.93412e-06
-6.83876e-15
6.63225e-06
9.97451e-15
7.33038e-06
1.66531e-15
8.02851e-06
-9.21859e-15
8.72664e-06
1.34607e-14
9.42478e-06
-2.32203e-14
1.01229e-05
-1.04715e-14
1.0821e-05
1.72739e-14
1.15192e-05
3.02824e-15
1.22173e-05
-1.13979e-14
1.29154e-05
1.98188e-14
1.36136e-05
4.67877e-15
1.43117e-05
-5.03052e-14
1.50098e-05
2.40474e-14
1.5708e-05