/*--------------------------------*- C++ -*----------------------------------*\
  =========                 |
  \\      /  F ield         | OpenFOAM: The Open Source CFD Toolbox
   \\    /   O peration     | Website:  https://openfoam.org
    \\  /    A nd           | Version:  11
     \\/     M anipulation  |
\*---------------------------------------------------------------------------*/
FoamFile
{
    format      ascii;
    class       volScalarField;
    location    "1.38";
    object      nut;
}
// * * * * * * * * * * * * * * * * * * * * * * * * * * * * * * * * * * * * * //

dimensions      [0 2 -1 0 0 0 0];

internalField   nonuniform List<scalar> 
2880
(
7.97021e-07
3.44452e-06
1.10389e-05
2.48732e-05
4.44815e-05
7.83845e-05
2.85367e-05
6.18386e-05
0.000111772
0.000163393
0.000215979
0.000256073
0.000163268
0.000141525
0.000233289
0.000320475
0.00039803
0.000444054
0.000179622
0.000205017
0.000336516
0.000453917
0.000551327
0.000610908
0.000191739
0.000251024
0.000419622
0.000562309
0.000676143
0.000750898
0.000199522
0.000281933
0.000486645
0.000650603
0.000778812
0.000867413
4.77735e-05
0.000302465
0.000540345
0.000722257
0.000862879
0.00096435
4.9176e-05
0.000325503
0.000583712
0.00077989
0.000931273
0.00104435
5.03406e-05
0.000347288
0.000618621
0.000825134
0.000986091
0.00110968
5.12429e-05
0.000366309
0.000645432
0.000859191
0.00102861
0.00116177
5.18906e-05
0.000381295
0.00066401
0.000882669
0.00105947
0.00120145
5.23115e-05
0.000391081
0.000674031
0.000895689
0.00107881
0.00122904
5.24751e-05
0.000395227
0.000675179
0.000897927
0.00108633
0.00124432
5.23715e-05
0.000393746
0.000666899
0.00088883
0.00108135
0.00124657
5.19771e-05
0.000386485
0.000648959
0.000867661
0.00106284
0.00123462
5.129e-05
0.000373153
0.000620663
0.000833553
0.00102951
0.00120692
5.03134e-05
0.000353257
0.000581432
0.000785525
0.000979842
0.0011617
4.90628e-05
0.000326195
0.000530709
0.000722577
0.000912157
0.00109714
4.76262e-05
0.000291302
0.000468024
0.000643759
0.000824726
0.00101145
0.000196577
0.000247816
0.000393066
0.000548284
0.000715831
0.000902689
0.000185439
0.000191985
0.000305798
0.000435722
0.000583978
0.000768344
0.000168382
0.000125905
0.000206862
0.000306569
0.000428675
0.000604932
2.92173e-05
5.3752e-05
9.97034e-05
0.000164929
0.00025527
0.00040873
7.96899e-07
3.54332e-06
1.38294e-05
3.86146e-05
8.94428e-05
0.000197638
0.000287605
0.000489518
0.000602757
0.000678087
0.000707679
0.000720108
0.000724188
0.000728035
0.000740483
0.000771687
0.000832545
0.000931062
0.00106909
0.0012412
0.00143724
0.00164771
0.00185912
0.00205368
0.00225259
0.00245624
0.00265318
0.0028585
0.00305185
0.00319035
0.000305583
0.000424607
0.000516265
0.000581525
0.00063067
0.000643451
0.000647815
0.000649777
0.00065539
0.000671278
0.000699672
0.000748462
0.000823113
0.000924868
0.00105045
0.00119487
0.00135391
0.00151246
0.00166655
0.0018316
0.00200311
0.00217396
0.00233776
0.00251162
0.000448098
0.000473649
0.000521527
0.000565428
0.000594142
0.0006121
0.000611351
0.00060405
0.000598657
0.000600791
0.000607448
0.000625285
0.000658147
0.000707284
0.000772694
0.000853751
0.000948385
0.00105309
0.00116851
0.00128648
0.00140718
0.00154038
0.00168921
0.00184359
0.00062422
0.00061235
0.000626361
0.000640242
0.000670097
0.000679689
0.000686693
0.000681499
0.000671693
0.000658328
0.00064961
0.00064854
0.000655886
0.000669382
0.0006904
0.000720139
0.000758854
0.000807449
0.000865664
0.000931088
0.0010041
0.001089
0.00118932
0.00131116
0.000785955
0.000782571
0.000787011
0.000800617
0.000823777
0.000846614
0.00086383
0.000871428
0.000881488
0.000886005
0.000887909
0.000889754
0.000893266
0.000897908
0.000902502
0.000908187
0.000915152
0.000923137
0.000932494
0.000944399
0.000959972
0.000983653
0.00100748
0.00107117
0.000924513
0.00094459
0.000959594
0.000980682
0.00100969
0.00104251
0.00107616
0.00110761
0.00113999
0.0011705
0.00119497
0.00121684
0.00124317
0.00126822
0.001283
0.00129299
0.00130044
0.00130158
0.0012958
0.00128451
0.0012685
0.00125222
0.00123195
0.00123876
0.00104071
0.00108497
0.00111658
0.00114968
0.0011888
0.00123334
0.00128098
0.00133045
0.00138125
0.00143131
0.00147986
0.00152777
0.00157415
0.00161301
0.00164127
0.00166649
0.00169259
0.00170847
0.00170881
0.00170084
0.00168476
0.0016618
0.00163236
0.00161938
0.00113733
0.00120214
0.00124986
0.00129488
0.00134328
0.00139606
0.00145281
0.00151234
0.00157307
0.00163312
0.00169125
0.00174635
0.00179695
0.00184166
0.001879
0.00190629
0.00193119
0.00195348
0.00196361
0.0019664
0.00196556
0.0019631
0.00196154
0.00196675
0.00121699
0.00129846
0.00135955
0.00141403
0.00146878
0.00152708
0.00158864
0.00165251
0.00171719
0.00178101
0.00184248
0.00190009
0.00195243
0.0019984
0.00203721
0.0020665
0.00209089
0.00211048
0.00211963
0.00212233
0.00212123
0.00211867
0.00211758
0.00212068
0.00128162
0.00137683
0.00144853
0.00150972
0.00156828
0.0016276
0.00168849
0.0017504
0.00181212
0.00187221
0.00192929
0.0019821
0.00202953
0.00207119
0.00210669
0.0021366
0.00216188
0.00218218
0.00219919
0.00221285
0.00222336
0.00223078
0.00223509
0.00223493
0.00133249
0.00143978
0.00152015
0.00158606
0.00164565
0.0017028
0.00175894
0.00181404
0.00186734
0.00191779
0.00196437
0.00200629
0.0020423
0.0020737
0.00210125
0.00212428
0.0021429
0.00215659
0.00216288
0.00216327
0.00215982
0.00215389
0.00214571
0.00213887
0.00137062
0.00148886
0.00157718
0.00164681
0.00170592
0.0017591
0.00180806
0.0018532
0.0018942
0.00193076
0.00196165
0.00198466
0.00200024
0.00200658
0.00200238
0.00199159
0.00197965
0.00197181
0.00197087
0.00197104
0.00197708
0.00199108
0.00200837
0.00201897
0.00139615
0.00152411
0.00162009
0.00169433
0.00175355
0.00180226
0.0018428
0.00187574
0.00190098
0.00191677
0.00192217
0.00191673
0.00190097
0.00187706
0.00185022
0.00182341
0.00179846
0.00177769
0.00176848
0.00177309
0.00178657
0.00180826
0.00183982
0.00187456
0.00140842
0.00154662
0.00164939
0.00172677
0.00178587
0.00183086
0.00186377
0.00188527
0.00189511
0.00189309
0.00187981
0.00185629
0.00182471
0.00178814
0.00174892
0.00170999
0.00167283
0.00163752
0.00160045
0.00157644
0.00156795
0.00156926
0.0015871
0.00161839
0.00140623
0.00155437
0.00166425
0.00174548
0.00180501
0.00184688
0.0018731
0.00188448
0.00188135
0.00186443
0.0018352
0.00179608
0.00175037
0.00170172
0.00165291
0.00160622
0.00156069
0.00151696
0.00147148
0.00143582
0.00140297
0.00137735
0.00138172
0.00142059
0.00138803
0.00154542
0.00166123
0.00174527
0.00180474
0.00184388
0.00186494
0.00186925
0.00185806
0.00183324
0.00179743
0.00175401
0.00170639
0.00165779
0.00160853
0.00156452
0.00151306
0.00145607
0.00142031
0.00137311
0.00132735
0.00129016
0.00128056
0.00135086
0.00135237
0.00151826
0.00163831
0.00172346
0.00178196
0.00181875
0.00183673
0.00183805
0.00182487
0.00179979
0.00176571
0.00172583
0.00168198
0.0016386
0.00158546
0.0015287
0.00147016
0.00143122
0.00138035
0.00132792
0.00128415
0.00125623
0.00126391
0.0013575
0.00129861
0.00147295
0.00159569
0.00168033
0.00173711
0.00177217
0.00178923
0.001791
0.00177992
0.00175858
0.00172884
0.00169378
0.00164525
0.00159177
0.00153468
0.00149392
0.00144414
0.00138306
0.00132454
0.00127486
0.0012429
0.00123999
0.00129674
0.00144141
0.00122759
0.00141205
0.00153687
0.00162007
0.00167489
0.00170882
0.00172607
0.00172936
0.00172037
0.00170211
0.00167005
0.00161862
0.00157882
0.00154005
0.00149429
0.00143327
0.0013701
0.00131001
0.00125969
0.00122859
0.00123018
0.00128145
0.00142661
0.00161898
0.00114216
0.00134088
0.00146838
0.00154999
0.00160281
0.00163552
0.0016524
0.00165586
0.00164402
0.00160872
0.00158266
0.00155407
0.00151851
0.00146236
0.00140071
0.00133796
0.0012802
0.00123547
0.00121405
0.00122877
0.00129633
0.00143793
0.0016824
0.00189917
0.00104732
0.00126684
0.00139833
0.0014783
0.00152867
0.00155898
0.00157323
0.00156428
0.00153968
0.0015338
0.00151235
0.0014662
0.00141133
0.00135209
0.00129418
0.00124479
0.00121286
0.00120897
0.0012444
0.00133117
0.00148566
0.00172497
0.00199634
0.00225479
0.000949965
0.00119795
0.00133419
0.0014117
0.00145813
0.00148351
0.00147928
0.00147476
0.00147326
0.00145096
0.00140451
0.00135262
0.0012994
0.0012508
0.00121498
0.00120164
0.00122035
0.00127817
0.00138027
0.0015364
0.00176684
0.00204572
0.00235562
0.00264929
0.000858269
0.0011412
0.00128097
0.00135353
0.00139299
0.00139878
0.00140849
0.00140709
0.00138352
0.00134278
0.00129712
0.00125264
0.00121685
0.00119847
0.00120629
0.00124588
0.00131794
0.00142282
0.00156884
0.00177836
0.00206787
0.00239444
0.00276304
0.00306361
0.00078191
0.00110155
0.00124021
0.00130314
0.0013244
0.00134278
0.00134222
0.00132262
0.00128763
0.00124986
0.00121648
0.00119562
0.00119503
0.00122022
0.00127141
0.00134559
0.0014438
0.0015774
0.00177009
0.00205252
0.00240114
0.00279494
0.00320164
0.00350617
8.26503e-07
4.53535e-06
2.23538e-05
6.35961e-05
0.000127433
4.61581e-05
2.91345e-05
4.42568e-05
0.000102276
0.000197301
0.000302518
0.00034297
0.000170829
0.00010675
0.000204063
0.000337331
0.000477951
0.000619422
0.000187718
0.00016706
0.000294123
0.000451494
0.000611273
0.000764552
4.73258e-05
0.000221743
0.000368454
0.000536838
0.000696331
0.000834304
4.96186e-05
0.000266349
0.000427085
0.000596515
0.00074513
0.000860578
5.13688e-05
0.000300607
0.000471201
0.00063512
0.000768226
0.000861659
5.26709e-05
0.000325427
0.000502446
0.000657189
0.000773862
0.000849563
5.35772e-05
0.000341837
0.000522583
0.00066665
0.00076822
0.000831021
5.41194e-05
0.000350819
0.000533583
0.000666622
0.000755374
0.000809577
5.43079e-05
0.000353267
0.000536372
0.000659434
0.000738105
0.000787026
5.42306e-05
0.00034945
0.000532389
0.000646731
0.000717518
0.000764152
5.38469e-05
0.000339406
0.000522552
0.000629689
0.000694587
0.000741281
5.32786e-05
0.000323024
0.000507335
0.000609045
0.000669769
0.000718474
5.24962e-05
0.000301946
0.000486921
0.000584917
0.00064308
0.000695567
5.147e-05
0.000277821
0.000461675
0.000557029
0.000614507
0.00067218
5.01438e-05
0.000252601
0.00043225
0.000524807
0.000583169
0.000647716
4.82145e-05
0.000229383
0.000399555
0.000487344
0.00054774
0.000621009
4.70527e-05
0.000214565
0.000363901
0.000443448
0.000506018
0.000590322
0.00019109
0.000202124
0.000322676
0.000392476
0.000455246
0.000553427
0.00017941
0.00017525
0.000269842
0.000330434
0.000392806
0.000504006
0.000163897
0.00012834
0.00019537
0.000248345
0.000313364
0.000435521
2.89303e-05
5.88724e-05
9.71358e-05
0.000134475
0.000200831
0.000331262
8.70735e-07
3.25072e-06
8.57679e-06
1.78842e-05
4.35797e-05
0.000196985
0.000759106
0.00108442
0.0012074
0.0012503
0.00127907
0.00128028
0.00126805
0.00124058
0.00121197
0.00119041
0.00118357
0.0011968
0.00123144
0.00128474
0.00135503
0.00144701
0.00157377
0.0017572
0.00202355
0.00238882
0.00279643
0.00324385
0.00365234
0.00395111
0.000865036
0.00108688
0.00117312
0.00121305
0.00122166
0.00121895
0.00119982
0.0011807
0.00117006
0.00117421
0.00119576
0.00123362
0.00128581
0.00135391
0.00144474
0.00157005
0.00174708
0.00199768
0.00234226
0.00276501
0.00321686
0.00369078
0.00408449
0.00436759
0.000934898
0.00108311
0.00114273
0.00116352
0.00117136
0.0011617
0.00115199
0.00115072
0.00116288
0.00118933
0.00122878
0.00128118
0.00135008
0.00144217
0.00156663
0.00173595
0.00196709
0.00227977
0.00268718
0.00314581
0.00362808
0.00409443
0.00447852
0.00472858
0.000965524
0.00106268
0.00110901
0.00111695
0.00112275
0.00112189
0.00112908
0.00114797
0.0011787
0.00122052
0.00127459
0.00134483
0.00143704
0.00155849
0.0017186
0.00193057
0.00221153
0.00257736
0.00303075
0.00350896
0.00399958
0.0044446
0.00481254
0.0050239
0.000967935
0.00103635
0.00105991
0.00107802
0.00108747
0.00110309
0.00112886
0.00116467
0.00120986
0.00126578
0.00133617
0.00142642
0.00154321
0.00169466
0.00189109
0.00214553
0.00247187
0.00287823
0.0033564
0.00383591
0.00431292
0.00472596
0.00506665
0.00524341
0.000952812
0.00100648
0.00102057
0.00104605
0.00107031
0.00110393
0.00114625
0.00119582
0.00125352
0.00132302
0.00141002
0.00152159
0.00166551
0.00185007
0.00208413
0.00237711
0.00273699
0.00316429
0.00364353
0.0041074
0.00455144
0.00493109
0.00522946
0.00538058
0.000927965
0.000969066
0.000989758
0.00102787
0.00107077
0.00112133
0.00117678
0.001237
0.00130559
0.00138891
0.00149481
0.0016314
0.00180598
0.00202466
0.00229254
0.00261405
0.00299119
0.00341865
0.00387768
0.00431275
0.0047102
0.00504701
0.00530063
0.00543052
0.000900128
0.00093176
0.000972321
0.00102498
0.00108602
0.00115022
0.0012153
0.00128425
0.00136408
0.00146375
0.00159228
0.0017572
0.00196356
0.00221386
0.00250854
0.0028465
0.00322419
0.00363243
0.00405256
0.00444658
0.00478601
0.00506946
0.00528033
0.00538915
0.000873126
0.000902475
0.000965987
0.0010372
0.00111288
0.00118649
0.00125864
0.00133621
0.00142939
0.0015488
0.00170325
0.00189827
0.0021355
0.00241296
0.00272596
0.00306799
0.00343084
0.00380328
0.00416911
0.0045069
0.00478295
0.00500049
0.00516669
0.00525291
0.000848234
0.000884629
0.000969731
0.00105866
0.0011461
0.00122667
0.0013053
0.00139299
0.00150247
0.00164494
0.0018277
0.00205308
0.00231848
0.00261725
0.00293984
0.00327509
0.00361117
0.00393582
0.00423601
0.00449782
0.00470819
0.00485275
0.004955
0.00501633
0.000825847
0.000877065
0.000981514
0.00108705
0.00118353
0.00126956
0.00135518
0.00145519
0.0015841
0.0017524
0.0019646
0.00221898
0.00250857
0.00282249
0.00314723
0.00346797
0.00377002
0.00404017
0.0042677
0.00444503
0.00456793
0.00463524
0.00465071
0.00464943
0.000805418
0.0008772
0.00100002
0.0011207
0.00122405
0.00131489
0.00140867
0.00152351
0.00167462
0.00187054
0.00211194
0.00239272
0.00270195
0.00302547
0.00334697
0.00364923
0.0039155
0.00413129
0.00428612
0.00437486
0.00439716
0.00435163
0.00423033
0.00401777
0.000786293
0.000881742
0.00102679
0.00115877
0.00126685
0.00136244
0.00146597
0.00159809
0.0017736
0.00199787
0.00226704
0.0025708
0.0028951
0.00322363
0.00353864
0.00382184
0.0040556
0.00422436
0.00431594
0.00432191
0.00423399
0.00402613
0.00360375
0.00288687
0.000768168
0.000891808
0.00105836
0.00119949
0.00131132
0.00141221
0.00152722
0.00167872
0.00188001
0.0021323
0.00242686
0.00274971
0.00308469
0.00341452
0.00372123
0.00398676
0.00419398
0.00432775
0.0043756
0.00432771
0.00417662
0.00391708
0.00354323
0.00309671
0.000750654
0.000907058
0.00109377
0.00124224
0.00135734
0.0014643
0.00159231
0.00176461
0.00199223
0.00227137
0.00258828
0.00292606
0.00326751
0.0035954
0.00389239
0.00414152
0.00432722
0.00443644
0.00445926
0.00438894
0.00422179
0.00395802
0.00360702
0.00323511
0.00073335
0.000927728
0.00113232
0.00128683
0.00140501
0.0015187
0.00166066
0.00185439
0.00210815
0.00241247
0.00274832
0.00309677
0.0034406
0.0037634
0.00404898
0.0042818
0.00444814
0.00453728
0.0045422
0.00445961
0.00428964
0.00403657
0.0037128
0.00336801
0.000715881
0.000949531
0.00117339
0.00133331
0.00145446
0.00157516
0.0017312
0.00194607
0.00222545
0.00255333
0.00290452
0.00325934
0.00360157
0.00391616
0.00418829
0.00440388
0.00455098
0.004621
0.0046095
0.0045161
0.00434392
0.00409998
0.00379768
0.00346862
0.000698367
0.000975178
0.00121724
0.00138204
0.00150578
0.00163264
0.0018024
0.00203882
0.00234271
0.00269234
0.00305503
0.00341197
0.0037488
0.00405216
0.00430863
0.00450548
0.00463222
0.00468215
0.00465305
0.004547
0.00436961
0.00412989
0.00384147
0.00352483
0.000680912
0.00100218
0.00126486
0.00143352
0.00155827
0.00169008
0.00187435
0.00213276
0.00245997
0.00282859
0.00319859
0.00355351
0.00388141
0.00417076
0.00440941
0.00458574
0.00469055
0.00471884
0.00467058
0.00455036
0.00436616
0.00412867
0.0038515
0.00354903
0.000662924
0.00103296
0.00131752
0.00148789
0.00161099
0.00174809
0.00194774
0.00222822
0.00257702
0.00296118
0.00333426
0.00368331
0.00399916
0.00427201
0.00449076
0.00464464
0.00472556
0.00473021
0.00466085
0.00452477
0.00433255
0.00409667
0.00383135
0.00354935
0.000644951
0.00106968
0.00136999
0.001544
0.00166514
0.00180774
0.00202347
0.00232566
0.00269377
0.00308948
0.0034615
0.00380123
0.00410233
0.00435649
0.00455337
0.00468278
0.00473765
0.00471646
0.00462415
0.00447121
0.00427118
0.0040386
0.00378875
0.00353454
0.000628828
0.0011244
0.00142594
0.00160403
0.00172202
0.00187024
0.00210254
0.00242555
0.0028102
0.00321302
0.00358006
0.00390751
0.00419161
0.00442521
0.00459838
0.00470133
0.00472801
0.00467905
0.00456272
0.00439329
0.00418762
0.00396221
0.00373287
0.00351207
0.000616773
0.0011985
0.00149399
0.00167086
0.00178314
0.00193684
0.00218583
0.00252819
0.00292615
0.0033314
0.00368994
0.00400264
0.00426796
0.00447948
0.00462734
0.004702
0.00469865
0.0046207
0.0044805
0.00429675
0.0040895
0.0038764
0.00367227
0.00348735
0.000613624
0.00125969
0.00158341
0.00174634
0.00184943
0.00200838
0.00227381
0.00263348
0.00304126
0.00344427
0.00379129
0.00408737
0.00433263
0.0045209
0.00464213
0.004687
0.00465239
0.00454527
0.00438296
0.00418878
0.00398525
0.00378954
0.00361356
0.00346374
1.28034e-06
1.35301e-05
4.76743e-05
0.000114306
0.000201666
5.90788e-05
3.81528e-05
0.000108194
0.000207704
0.000339159
0.000435186
0.00050434
5.31614e-05
0.000228371
0.000394712
0.000585495
0.000761586
0.000947196
5.92629e-05
0.00033613
0.000566937
0.000807396
0.00104204
0.00128709
6.39825e-05
0.000425834
0.000715844
0.000995333
0.00126393
0.00152293
6.76862e-05
0.000497758
0.000840328
0.00114951
0.00143583
0.00168776
7.05933e-05
0.000553979
0.000941585
0.00127272
0.00156709
0.0018035
7.28467e-05
0.00059672
0.00102156
0.00136856
0.00166542
0.00188516
7.45427e-05
0.00062792
0.00108234
0.0014407
0.00173674
0.00194196
7.57495e-05
0.000649102
0.00112577
0.00149209
0.00178564
0.00197986
7.65186e-05
0.00066134
0.00115336
0.0015248
0.00181553
0.00200276
7.6882e-05
0.000665416
0.00116618
0.00154017
0.00182882
0.00201259
7.68422e-05
0.000662001
0.00116491
0.00153896
0.00182695
0.00201058
7.63861e-05
0.000651423
0.00114978
0.00152137
0.00181014
0.00199709
7.55036e-05
0.000633762
0.00112055
0.0014872
0.00177731
0.00197042
7.41661e-05
0.00060874
0.00107648
0.00143521
0.00172575
0.00192942
7.23265e-05
0.000575614
0.00101634
0.00136321
0.00165309
0.00187025
6.99143e-05
0.000533209
0.000938343
0.00126836
0.00155551
0.0017872
6.68284e-05
0.00047981
0.000839996
0.0011473
0.00142773
0.0016712
6.29268e-05
0.000413084
0.000718507
0.000996028
0.00126248
0.00150831
5.80083e-05
0.000330307
0.000571111
0.000810306
0.00105021
0.00127661
5.17756e-05
0.000228156
0.000397588
0.000587208
0.000775856
0.000941501
3.5855e-05
0.000108759
0.000205027
0.000333319
0.000423903
0.000502196
1.0892e-06
1.10677e-05
3.98066e-05
0.000100188
0.000193226
5.88314e-05
0.000658454
0.00139838
0.00169993
0.00182998
0.00192029
0.00208467
0.00236608
0.00274071
0.00315483
0.00355128
0.0038844
0.00416261
0.004387
0.00455126
0.00464491
0.00465903
0.00459276
0.00445761
0.00427649
0.00407702
0.00388268
0.0037082
0.00356097
0.00344296
0.00117697
0.00163858
0.00182946
0.00191463
0.00199248
0.00216409
0.00246129
0.00284851
0.00326581
0.00365208
0.00396968
0.00422935
0.00443257
0.00457247
0.00463807
0.00462113
0.00452384
0.00436311
0.00416769
0.00396845
0.00378789
0.00363652
0.0035165
0.00342567
0.00149661
0.00180081
0.00193139
0.00198845
0.00206178
0.00224439
0.00255746
0.00295515
0.003373
0.00374642
0.00404761
0.00428867
0.00447087
0.00458652
0.00462414
0.00457662
0.00444999
0.00426724
0.00406262
0.0038686
0.00370474
0.00357633
0.00348052
0.00341187
0.00170432
0.00191607
0.00200877
0.00205143
0.00212732
0.00232401
0.00265266
0.00305886
0.00347526
0.00383415
0.0041188
0.00434168
0.00450344
0.00459539
0.0046057
0.00452888
0.00437554
0.00417501
0.00396614
0.0037811
0.00363495
0.00352764
0.00345235
0.0034012
0.00184738
0.00199951
0.00206862
0.00210577
0.00218908
0.00240161
0.00274504
0.00315803
0.0035716
0.0039153
0.0041839
0.00438953
0.00453182
0.00460108
0.00458532
0.00448122
0.00430445
0.00409056
0.00388162
0.00370774
0.00357869
0.00348958
0.00343082
0.00339308
0.00194782
0.00206036
0.00211636
0.00215322
0.00224689
0.00247588
0.00283293
0.00325128
0.00366119
0.00398997
0.00424364
0.00443334
0.00455754
0.00460554
0.00456554
0.00443678
0.00424024
0.00401703
0.00381099
0.00364887
0.0035351
0.00346086
0.00341482
0.00338704
0.00201936
0.00210507
0.00215508
0.0021948
0.00230037
0.00254551
0.0029149
0.0033375
0.00374322
0.0040583
0.00429875
0.00447427
0.00458209
0.0046107
0.00454878
0.00439843
0.00418579
0.00395659
0.00375504
0.00360391
0.00350283
0.00344002
0.00340335
0.00338276
0.00206996
0.00213794
0.00218664
0.002231
0.00234886
0.00260925
0.00298977
0.00341607
0.00381614
0.00412036
0.00434994
0.00451338
0.00460686
0.00461833
0.00453723
0.00436863
0.00414333
0.00391054
0.00371379
0.00357188
0.0034806
0.0034255
0.00339545
0.00337997
0.00210513
0.00216177
0.00221206
0.00226182
0.00239156
0.00266586
0.00305642
0.00348626
0.00387974
0.00417654
0.00439792
0.00455164
0.00463308
0.00462995
0.0045327
0.00434927
0.00411432
0.00387935
0.00368661
0.00355143
0.00346616
0.00341685
0.00339118
0.00337843
0.00212846
0.00217836
0.0022318
0.002287
0.00242754
0.00271414
0.0031137
0.00354717
0.00393568
0.0042277
0.00444345
0.00458988
0.00466171
0.00464667
0.0045365
0.0043416
0.00409953
0.0038629
0.00367278
0.00354144
0.00345914
0.00341282
0.0033891
0.0033777
0.0021422
0.00218873
0.00224594
0.00230608
0.00245588
0.00275302
0.0031607
0.00359833
0.00398442
0.00427438
0.00448712
0.00462873
0.00469329
0.00466901
0.00454925
0.00434607
0.00409918
0.00386103
0.00367109
0.00354099
0.00346008
0.00341366
0.00338955
0.00337774
0.00214767
0.0021934
0.00225434
0.00231852
0.00247572
0.00278158
0.0031967
0.00363932
0.00402569
0.00431528
0.00452613
0.00466395
0.0047235
0.00469334
0.00456902
0.00436312
0.00411309
0.00387297
0.00368165
0.00354968
0.00346734
0.00341859
0.00339204
0.00337836
0.00214546
0.00219247
0.00225674
0.00232379
0.0024863
0.00279899
0.00322059
0.00366833
0.00405732
0.00434975
0.00456236
0.00470058
0.00476057
0.004732
0.00460568
0.00439491
0.0041422
0.00389918
0.00370387
0.00356714
0.00347997
0.00342742
0.0033969
0.00337971
0.00213571
0.00218578
0.00225278
0.00232139
0.00248703
0.00280465
0.00323238
0.00368689
0.00408258
0.00438115
0.00459959
0.00474377
0.00480699
0.00477696
0.00464862
0.00443844
0.0041851
0.00393887
0.00373766
0.00359358
0.00349903
0.00343982
0.00340356
0.00338168
0.00211752
0.00217284
0.00224207
0.00231089
0.0024775
0.00279837
0.00323198
0.00369462
0.00410077
0.00440961
0.00463685
0.00478659
0.00485272
0.00482492
0.00470044
0.00449353
0.00424112
0.00399161
0.00378292
0.00362914
0.00352469
0.00345651
0.00341259
0.00338444
0.00208979
0.0021529
0.00222413
0.00229197
0.00245745
0.00277982
0.00321882
0.00369053
0.00410997
0.00443094
0.00466851
0.00482638
0.00489909
0.00487807
0.00476026
0.00455916
0.00430934
0.00405686
0.00383966
0.00367417
0.00355747
0.00347801
0.00342439
0.0033882
0.00205041
0.00212485
0.00219835
0.00226429
0.00242677
0.00274896
0.0031928
0.00367438
0.00410988
0.00444552
0.00469568
0.00486442
0.00494699
0.00493535
0.00482686
0.004634
0.00438862
0.00413399
0.00390783
0.00372909
0.00359798
0.00350494
0.00343944
0.00339321
0.00199611
0.00208706
0.00216381
0.00222754
0.00238552
0.00270598
0.00315402
0.00364602
0.00409994
0.00445277
0.00471823
0.00490045
0.00499529
0.0049955
0.00489878
0.00471648
0.00447751
0.00422206
0.0039872
0.00379428
0.00364689
0.00353799
0.00345829
0.00339978
0.00192187
0.00203719
0.002119
0.00218127
0.00233391
0.00265136
0.00310287
0.00360552
0.00407959
0.00445187
0.00473506
0.0049332
0.0050427
0.00505706
0.00497436
0.0048048
0.00457433
0.00431985
0.00407726
0.00386987
0.00370476
0.00357782
0.00348147
0.00340812
0.00182005
0.001972
0.00206112
0.00212484
0.00227232
0.0025859
0.00304014
0.00355331
0.00404811
0.00444186
0.00474505
0.00496139
0.00508775
0.00511842
0.00505177
0.00489697
0.00467713
0.00442574
0.00417705
0.00395568
0.00377198
0.00362507
0.00350953
0.0034185
0.0016783
0.00188539
0.00198832
0.00205782
0.00220137
0.00251083
0.00296721
0.00349077
0.00400373
0.00442171
0.00474706
0.00498369
0.00512895
0.00517786
0.00512911
0.0049909
0.00478373
0.00453776
0.00428512
0.004051
0.00384856
0.00368018
0.00354296
0.00343118
0.00147429
0.00176803
0.00189738
0.00197954
0.00212197
0.00242787
0.00288576
0.00341875
0.00394848
0.00439139
0.00474033
0.00499891
0.00516482
0.00523367
0.00520443
0.00508445
0.00489187
0.00465367
0.00439959
0.00415466
0.0039341
0.00374331
0.00358192
0.0034462
0.00115581
0.00160664
0.00178355
0.00188922
0.00203559
0.00233952
0.00279824
0.00333917
0.00388418
0.00435131
0.00472438
0.00500604
0.00519398
0.00528422
0.00527589
0.00517557
0.00499931
0.00477113
0.00451824
0.00426486
0.00402747
0.00381396
0.00362645
0.00346351
0.000620599
0.00136066
0.00164159
0.00178792
0.00194526
0.00224935
0.00270796
0.0032546
0.00381266
0.00430209
0.00469898
0.00500427
0.00521522
0.005328
0.00534176
0.00526233
0.00510389
0.00488778
0.00463863
0.00437937
0.00412695
0.00389107
0.0036761
0.00348293
1.45713e-06
4.06912e-06
8.48844e-06
1.70395e-05
4.25297e-05
0.000193669
3.92703e-05
5.55608e-05
7.92966e-05
0.000118771
0.000191446
0.00032067
5.20391e-05
9.3964e-05
0.00014585
0.000213623
0.000300134
0.000419192
5.6184e-05
0.00012284
0.000202003
0.00028606
0.00037654
0.000483802
5.91359e-05
0.000153365
0.000256132
0.000344408
0.000429585
0.000528939
6.14179e-05
0.000186462
0.000307214
0.00039282
0.000468191
0.000553295
6.32759e-05
0.000221338
0.000353275
0.000432211
0.000499365
0.000577652
6.4816e-05
0.000256706
0.000393361
0.000464068
0.000526119
0.000594959
6.60893e-05
0.000291182
0.000427503
0.000491153
0.000548883
0.000609982
6.71255e-05
0.000323307
0.000456331
0.000515582
0.000570114
0.000623855
6.79476e-05
0.000351496
0.000480769
0.000538508
0.000590187
0.000637344
6.85769e-05
0.000373958
0.000501819
0.000560583
0.000609477
0.000651083
6.90123e-05
0.000389394
0.000519746
0.000581844
0.000628822
0.000665712
6.90783e-05
0.000398915
0.000533896
0.000602019
0.000648704
0.000682141
6.88626e-05
0.000402205
0.000543245
0.000620352
0.000668658
0.000701303
6.82408e-05
0.000397898
0.000546313
0.000635345
0.000687872
0.000723106
6.72078e-05
0.000385383
0.000540945
0.000644725
0.000705829
0.000744068
6.56902e-05
0.000362395
0.000524879
0.000645021
0.000719965
0.000766359
6.35828e-05
0.000327031
0.000494721
0.000630967
0.000724943
0.000784744
6.07192e-05
0.000277778
0.000446745
0.000595711
0.000707917
0.000781563
5.68218e-05
0.000215896
0.00037701
0.000532195
0.000656697
0.000733693
5.13578e-05
0.000143853
0.000282099
0.000431616
0.000554092
0.000612686
3.49842e-05
6.53264e-05
0.000162879
0.000284228
0.000386114
0.000375933
1.4448e-06
1.32979e-05
5.03637e-05
0.000107209
0.00017107
0.00020554
0.000580381
0.00123339
0.00151946
0.00169017
0.00185835
0.00216236
0.00261868
0.0031678
0.00373576
0.0042445
0.00466407
0.00499294
0.00522748
0.00536364
0.00540042
0.0053429
0.00520357
0.00500128
0.0047582
0.00449562
0.00423029
0.00397302
0.00372998
0.00350408
0.000590383
0.00118853
0.0014496
0.00160737
0.00177885
0.002082
0.00253316
0.00308085
0.00365486
0.00417919
0.00461963
0.00497151
0.00522978
0.00538987
0.00545038
0.00541558
0.00529637
0.00510938
0.00487438
0.00461086
0.00433485
0.00405761
0.00378656
0.00352618
0.000607817
0.00112142
0.00141158
0.0015523
0.00171384
0.00200961
0.00245231
0.00299449
0.0035705
0.00410646
0.00456554
0.00493945
0.00522126
0.00540553
0.00549023
0.00547874
0.00538045
0.00520994
0.00498471
0.00472234
0.00443777
0.00414215
0.00384366
0.0035479
0.000627718
0.00108859
0.00136955
0.00151129
0.00166219
0.00194537
0.0023758
0.00290844
0.00348241
0.0040262
0.00450151
0.00489617
0.00520107
0.00540953
0.0055187
0.00553093
0.00545417
0.00530105
0.00508695
0.00482748
0.00453621
0.00422374
0.00389852
0.0035673
0.000647915
0.00106159
0.00131518
0.00147481
0.00161932
0.0018889
0.00230255
0.0028218
0.0033899
0.00393801
0.0044271
0.00484111
0.00516844
0.00540093
0.00553468
0.0055709
0.0055161
0.00538109
0.00517919
0.00492405
0.00462765
0.00429959
0.00394816
0.00358179
0.000667695
0.00103882
0.0012705
0.00143703
0.00158006
0.00183625
0.0022308
0.00273346
0.0032921
0.00384134
0.00434183
0.00477369
0.0051227
0.00537897
0.00553732
0.00559773
0.00556525
0.00544893
0.0052601
0.00501046
0.00471018
0.00436743
0.0039898
0.00358831
0.000686373
0.00101871
0.00123665
0.00139574
0.00153992
0.0017844
0.00215891
0.0026423
0.00318822
0.00373565
0.00424521
0.00469343
0.00506335
0.00534315
0.00552617
0.00561104
0.0056013
0.00550424
0.00532931
0.00508616
0.004783
0.00442609
0.00402147
0.00358368
0.000702467
0.000999946
0.00120323
0.00135115
0.00149812
0.00173151
0.00208547
0.00254734
0.00307756
0.00362049
0.00413685
0.00459995
0.00499007
0.00529329
0.00550128
0.00561117
0.00562492
0.00554808
0.00538811
0.00515259
0.00484749
0.00447656
0.00404311
0.00356528
0.000715987
0.000981903
0.00117056
0.00130807
0.00145536
0.00167645
0.00200923
0.00244782
0.00295961
0.00349546
0.0040164
0.00449294
0.00490268
0.00522948
0.00546319
0.00559935
0.00563825
0.00558364
0.00544091
0.00521531
0.00491006
0.00452544
0.00405983
0.0035327
0.000727322
0.000964338
0.00113877
0.0012664
0.00141036
0.00161839
0.00192941
0.0023432
0.002834
0.00336025
0.00388349
0.00437201
0.00480089
0.00515177
0.00541265
0.00557743
0.00564483
0.00561688
0.00549701
0.00528798
0.0049897
0.00459688
0.00409718
0.00349723
0.000736939
0.000947227
0.00110777
0.00122563
0.00136248
0.00155616
0.00184356
0.00223138
0.00270003
0.00321446
0.00373764
0.00423651
0.00468398
0.00505961
0.00534968
0.00554667
0.00564815
0.00565514
0.00557036
0.00539617
0.00513195
0.00476863
0.00427237
0.00355228
0.000745435
0.000930858
0.00107756
0.00118537
0.00131305
0.00149104
0.00175336
0.0021134
0.00255799
0.00305791
0.00357825
0.00408536
0.00455042
0.00495116
0.0052724
0.00550566
0.00564815
0.0057015
0.00567085
0.00556512
0.0053994
0.00519891
0.00500123
0.00485816
0.000753514
0.000915502
0.00104792
0.00114583
0.00126361
0.00142352
0.00165998
0.00199051
0.00240854
0.00289067
0.00340473
0.00391718
0.00439795
0.00482322
0.00517659
0.00544899
0.00563778
0.00574556
0.00577931
0.00575049
0.0056763
0.00558124
0.00549654
0.00545823
0.000761879
0.000901716
0.00102112
0.0011102
0.00121488
0.00135433
0.00156453
0.00186401
0.0022527
0.00271317
0.00321673
0.00373062
0.00422399
0.00467173
0.00505629
0.00536794
0.00560381
0.00576657
0.0058631
0.00590389
0.00590284