/*--------------------------------*- C++ -*----------------------------------*\
  =========                 |
  \\      /  F ield         | OpenFOAM: The Open Source CFD Toolbox
   \\    /   O peration     | Website:  https://openfoam.org
    \\  /    A nd           | Version:  11
     \\/     M anipulation  |
\*---------------------------------------------------------------------------*/
FoamFile
{
    format      ascii;
    class       surfaceVectorField;
    location    "1.38";
    object      Uf;
}
// * * * * * * * * * * * * * * * * * * * * * * * * * * * * * * * * * * * * * //

dimensions      [0 1 -1 0 0 0 0];

internalField   nonuniform List<vector> 
5640
(
(0.0487486 0.0139771 1.67096e-19)
(0.0418524 0.00945598 3.06205e-19)
(0.0902138 -0.0101972 8.53076e-20)
(0.0696291 -0.00438448 -1.00178e-19)
(0.131283 -0.0315541 1.63189e-19)
(0.117014 -0.0301028 8.8298e-20)
(0.173531 -0.0520138 6.01e-20)
(0.150359 -0.0449654 6.51782e-20)
(0.210525 -0.0678301 4.41684e-20)
(0.189062 -0.0599784 -9.02906e-21)
(0.21734 -0.0591133 7.36946e-20)
(0.270331 -0.0347597 1.69165e-20)
(0.057086 -0.00621206 5.7797e-20)
(0.0464822 -0.00351571 2.5885e-20)
(0.0955419 -0.0280326 -1.10274e-19)
(0.0725427 -0.0198797 -1.12142e-19)
(0.131477 -0.0456799 -8.9318e-21)
(0.113265 -0.0417464 -5.32998e-21)
(0.163993 -0.0583904 -2.49718e-21)
(0.14072 -0.0530762 -7.61854e-22)
(0.196981 -0.0618748 8.04143e-21)
(0.170588 -0.0609699 7.10572e-20)
(0.195357 -0.0524589 -1.44397e-20)
(0.24065 -0.0313365 0)
(0.0565853 -0.0157093 -1.41336e-19)
(0.0453906 -0.0126051 -3.94187e-21)
(0.0900281 -0.0353217 -1.29373e-20)
(0.0689623 -0.0283836 8.92533e-20)
(0.120344 -0.049382 3.12558e-21)
(0.102919 -0.046259 7.24116e-20)
(0.146374 -0.0568551 7.0152e-20)
(0.125085 -0.053792 6.71306e-20)
(0.172391 -0.0548432 5.06256e-20)
(0.148167 -0.0563226 -5.1517e-21)
(0.169842 -0.0452236 1.35526e-20)
(0.208161 -0.0307145 -8.65968e-20)
(0.0539625 -0.0232441 2.21271e-19)
(0.0435717 -0.021241 2.24398e-21)
(0.0821552 -0.0398734 1.74124e-19)
(0.0638455 -0.0342062 -1.95559e-21)
(0.106478 -0.0501799 1.37035e-19)
(0.0908722 -0.0479599 8.12885e-21)
(0.126704 -0.0533698 -6.14065e-21)
(0.107917 -0.0517664 -7.08307e-20)
(0.146986 -0.047901 -4.37642e-20)
(0.125126 -0.0501772 -6.8049e-20)
(0.142721 -0.037874 4.18835e-20)
(0.175359 -0.0276671 8.7166e-20)
(0.05032 -0.0302472 -2.20184e-19)
(0.04154 -0.0294518 -1.17682e-19)
(0.0731323 -0.0424599 -1.68615e-19)
(0.0577453 -0.0378713 -1.0007e-19)
(0.0914652 -0.0490826 -1.96364e-19)
(0.0779043 -0.0477069 -6.93171e-20)
(0.106288 -0.0486338 -1.32684e-19)
(0.0899872 -0.0481132 -6.62283e-20)
(0.121303 -0.0407194 1.35582e-20)
(0.101849 -0.043337 0)
(0.114828 -0.0301771 1.38912e-20)
(0.142489 -0.0225046 1.60678e-20)
(0.0464459 -0.0352709 8.02752e-22)
(0.0378287 -0.0364172 7.70718e-20)
(0.0632193 -0.0431512 -2.96558e-21)
(0.0505397 -0.0395292 -2.84453e-21)
(0.0757698 -0.0464829 6.05053e-20)
(0.0642142 -0.0459637 4.51472e-21)
(0.0855347 -0.0429929 6.43766e-20)
(0.0716231 -0.043434 3.57534e-20)
(0.0954891 -0.0332089 0)
(0.0785542 -0.0361333 -6.88365e-21)
(0.086767 -0.0222378 -2.61801e-20)
(0.110069 -0.0159746 7.88388e-21)
(0.0400256 -0.0391008 7.74215e-20)
(0.0288985 -0.0408066 -7.76017e-20)
(0.0522053 -0.0423853 4.32261e-21)
(0.0417257 -0.0395972 -4.71487e-20)
(0.0595987 -0.0428512 -2.13805e-20)
(0.0499322 -0.0431994 1.10729e-20)
(0.0646906 -0.0368246 -3.41685e-20)
(0.0530938 -0.0381752 -3.07635e-20)
(0.0698563 -0.0255336 -3.26011e-20)
(0.0555027 -0.028822 -4.15568e-20)
(0.0590985 -0.0142741 2.49512e-20)
(0.0784733 -0.00870181 7.83737e-21)
(0.0287268 -0.0415127 -2.04663e-19)
(0.0177501 -0.0433732 -2.41703e-21)
(0.039929 -0.0406651 -4.30564e-20)
(0.0313805 -0.0392095 -2.3976e-21)
(0.0431686 -0.03864 2.9596e-21)
(0.0353116 -0.0399509 2.1721e-21)
(0.0440192 -0.0304718 -3.77206e-20)
(0.0346805 -0.0326949 6.35791e-20)
(0.0447772 -0.017922 1.43259e-20)
(0.0329929 -0.0216346 -3.79958e-20)
(0.0323356 -0.00652109 2.58847e-20)
(0.0481088 -0.00119065 3.34062e-21)
(0.0189329 -0.0420103 2.01684e-19)
(0.00897335 -0.0455291 7.41031e-20)
(0.0271399 -0.0386628 4.25832e-20)
(0.0204853 -0.0385838 4.48732e-20)
(0.0267898 -0.0342428 6.06793e-20)
(0.0207367 -0.0365749 -4.38612e-21)
(0.0238296 -0.0241922 6.61739e-20)
(0.0166746 -0.0272639 3.77843e-20)
(0.020635 -0.0105955 -2.80137e-20)
(0.0113375 -0.0147729 2.69269e-20)
(0.0069362 0.000793236 -2.82522e-20)
(0.0194187 0.00615604 6.6435e-23)
(0.00979141 -0.0425341 -8.10779e-20)
(0.00161567 -0.0468361 -7.66555e-20)
(0.0143996 -0.0366442 0)
(0.00962302 -0.0378341 5.47496e-21)
(0.0107853 -0.0299167 -2.86985e-20)
(0.00654016 -0.0332757 0)
(0.00441878 -0.0182023 -1.12874e-21)
(-0.000646124 -0.0220746 -2.97019e-20)
(-0.00221256 -0.00375261 2.80095e-20)
(-0.00917282 -0.0084015 3.35687e-20)
(-0.0167105 0.00746097 -3.05301e-21)
(-0.00717495 0.0130098 1.4254e-20)
(0.00128105 -0.0426109 5.1591e-21)
(-0.00474859 -0.0471188 0)
(0.00204541 -0.0346752 5.70794e-21)
(-0.000877568 -0.0370135 4.26764e-23)
(-0.00456575 -0.0258201 0)
(-0.00702868 -0.0301733 0)
(-0.013942 -0.0126552 3.22157e-21)
(-0.0170396 -0.0172564 0)
(-0.0234577 0.00243906 3.39396e-21)
(-0.0282952 -0.00264433 1.71469e-23)
(-0.0382971 0.0133024 2.97669e-21)
(-0.0313129 0.0190984 -1.40938e-20)
(-0.00656724 -0.0420734 -5.11788e-21)
(-0.0103739 -0.0463233 0)
(-0.00968141 -0.0328024 -5.66233e-21)
(-0.0107861 -0.0361341 -5.43122e-21)
(-0.0190361 -0.0220482 0)
(-0.0197795 -0.0273336 0)
(-0.0310419 -0.00764877 -3.20369e-21)
(-0.0323234 -0.0128829 1.85825e-21)
(-0.0428645 0.00784587 -4.69791e-22)
(-0.0458483 0.00241096 -6.56055e-21)
(-0.0576064 0.018167 1.48204e-21)
(-0.0527194 0.0241933 3.47135e-21)
(-0.0137451 -0.0409058 0)
(-0.0154252 -0.0444674 2.47483e-21)
(-0.0206075 -0.0310397 0)
(-0.0199398 -0.0351747 -1.35011e-21)
(-0.03247 -0.0186471 1.79547e-21)
(-0.0315793 -0.0247798 3.44431e-20)
(-0.046731 -0.00324303 -1.26029e-21)
(-0.0463724 -0.00898954 3.15003e-20)
(-0.0602731 0.0123661 -4.80596e-21)
(-0.0617162 0.00670996 -3.26445e-21)
(-0.0745137 0.0219352 -2.4796e-20)
(-0.0712129 0.0281025 -1.74138e-21)
(-0.0203084 -0.0391221 1.54095e-21)
(-0.020012 -0.041602 4.95713e-21)
(-0.0306158 -0.0293716 3.15698e-20)
(-0.0282256 -0.0340967 -2.71154e-21)
(-0.0447623 -0.0156284 6.42473e-20)
(-0.0423482 -0.0225052 -4.73e-21)
(-0.0609184 0.00053412 3.04731e-20)
(-0.0591141 -0.00558208 3.70828e-20)
(-0.0756017 0.0159304 -2.27442e-20)
(-0.0758465 0.0102313 3.2659e-21)
(-0.0889856 0.0245211 -5.75975e-21)
(-0.0867092 0.030665 -1.42193e-20)
(-0.0262516 -0.0367326 1.56281e-21)
(-0.024199 -0.0378084 1.26086e-21)
(-0.0396341 -0.0277605 -3.89203e-20)
(-0.0355673 -0.0328338 -1.36143e-21)
(-0.0558592 -0.0129773 -3.3418e-20)
(-0.0520552 -0.0204818 -3.91676e-20)
(-0.0735681 0.00368356 1.08363e-20)
(-0.0705227 -0.00264405 -2.28363e-20)
(-0.0888424 0.0185041 2.05083e-20)
(-0.0882432 0.0129884 2.96639e-20)
(-0.10107 0.0258781 1.18266e-20)
(-0.0992162 0.0317525 1.06306e-20)
(-0.0315661 -0.0337903 -1.29191e-21)
(-0.0280037 -0.0331816 -3.67294e-21)
(-0.0476286 -0.0261482 0)
(-0.0419181 -0.0312931 -9.15924e-20)
(-0.065753 -0.0106611 -2.9254e-20)
(-0.0607163 -0.0186671 -7.6558e-20)
(-0.0846906 0.00623164 -5.46795e-21)
(-0.0806118 -0.000143501 -2.64698e-20)
(-0.100046 0.0200953 2.14634e-20)
(-0.098953 0.0150303 -3.55057e-22)
(-0.110876 0.0260181 -5.70412e-21)
(-0.10883 0.0312802 -3.12264e-21)
(-0.0361866 -0.0304651 -8.89012e-20)
(-0.031361 -0.0278042 -2.45149e-21)
(-0.0545996 -0.0244568 -1.6879e-19)
(-0.0472472 -0.0293505 2.26424e-21)
(-0.0744752 -0.00863294 -7.56709e-20)
(-0.0683919 -0.017011 -7.63912e-20)
(-0.0943423 0.00823832 -2.20922e-20)
(-0.089422 0.00196414 3.80713e-21)
(-0.109286 0.0207703 -2.73977e-20)
(-0.108017 0.0164416 -2.00088e-20)
(-0.118575 0.0250241 -5.96416e-21)
(-0.115684 0.0291978 0)
(-0.0399267 -0.0268845 8.84174e-20)
(-0.0341658 -0.0217548 1.49107e-19)
(-0.0605796 -0.0225791 9.79446e-20)
(-0.0514508 -0.0267906 9.08756e-20)
(-0.082087 -0.00683854 1.30792e-22)
(-0.0751856 -0.0154629 7.68185e-20)
(-0.102572 0.00977659 6.55823e-21)
(-0.0969962 0.00372578 -6.54798e-20)
(-0.116646 0.0206724 1.43273e-21)
(-0.115425 0.0173672 6.74741e-21)
(-0.124434 0.0230731 5.55432e-21)
(-0.119966 0.0255082 -1.28069e-20)
(-0.0433987 -0.0209416 1.55385e-19)
(-0.0357698 -0.0148759 2.09752e-20)
(-0.0656053 -0.020334 7.02563e-20)
(-0.0544738 -0.0232972 -1.03337e-19)
(-0.0886819 -0.00521746 1.59167e-20)
(-0.0812605 -0.013972 -1.34414e-20)
(-0.109358 0.0109375 -6.73157e-20)
(-0.103329 0.00517559 1.09394e-20)
(-0.122231 0.0200252 1.12424e-20)
(-0.121172 0.0180271 -1.44336e-20)
(-0.128734 0.0204771 2.41271e-20)
(-0.121883 0.020304 1.02584e-20)
(-0.0448507 -0.0152242 -2.267e-19)
(-0.0366141 -0.00762465 -4.62225e-21)
(-0.0698368 -0.0176225 -1.9086e-19)
(-0.057029 -0.0187959 1.25463e-20)
(-0.0943479 -0.00375061 -2.00547e-20)
(-0.0868237 -0.0125293 -1.0897e-20)
(-0.114671 0.0118864 6.45644e-20)
(-0.10835 0.00633965 1.3892e-20)
(-0.12614 0.0191927 -4.77432e-21)
(-0.12519 0.0187312 -2.20284e-20)
(-0.131706 0.0177224 -4.03671e-20)
(-0.121517 0.0137249 -4.27469e-20)
(-0.0462074 -0.00937041 2.33427e-19)
(-0.0376196 -0.00060184 -1.35452e-19)
(-0.0739277 -0.0146393 1.92434e-19)
(-0.0597865 -0.0135495 1.09247e-19)
(-0.0991201 -0.00250876 2.13394e-20)
(-0.0919369 -0.0112262 4.13374e-22)
(-0.118333 0.0127736 -7.16475e-20)
(-0.111863 0.00723262 3.2216e-21)
(-0.128298 0.0187511 -5.94826e-20)
(-0.127131 0.0199533 -7.59482e-21)
(-0.133491 0.0156248 3.09275e-21)
(-0.118862 0.00612611 -1.46262e-20)
(-0.0478291 -0.00329102 -2.74978e-19)
(-0.0383067 0.00642186 -1.17685e-19)
(-0.0778348 -0.0115765 -7.89583e-20)
(-0.0624446 -0.00729197 1.18315e-20)
(-0.102803 -0.00160087 -1.59805e-20)
(-0.0961969 -0.00982155 -7.39459e-20)
(-0.119884 0.0137998 6.84155e-20)
(-0.113358 0.00798864 5.66129e-20)
(-0.128223 0.0197576 5.38893e-20)
(-0.125909 0.0225606 -1.76597e-20)
(-0.134115 0.0155988 1.33244e-19)
(-0.113745 -0.00171909 2.02368e-20)
(-0.0484955 0.00386045 1.64585e-19)
(-0.0350928 0.0163442 3.1868e-19)
(-0.080973 -0.00782893 2.03789e-20)
(-0.0610486 0.0039273 1.52935e-20)
(-0.104796 -0.000604869 -2.13559e-21)
(-0.0969231 -0.00574436 1.15947e-20)
(-0.118602 0.0156286 -2.73799e-20)
(-0.110988 0.00997307 7.4525e-20)
(-0.124633 0.0242203 4.45451e-20)
(-0.118985 0.0282447 5.56048e-20)
(-0.132916 0.0207141 9.90071e-20)
(-0.105571 -0.00847597 1.89196e-19)
(-0.0438027 0.0196044 1.84728e-19)
(-0.0791379 0.00466337 1.63491e-22)
(-0.104618 0.00740541 8.17848e-20)
(-0.116602 0.0236164 1.5804e-19)
(-0.114519 0.0341178 7.69428e-20)
(-0.0878661 -0.0148128 -8.43974e-20)
(0.468422 0.018898 -6.9523e-20)
(0.328633 0.00892938 -8.27813e-20)
(0.372401 0.0377014 -1.72904e-19)
(0.68021 0.0396383 -5.8289e-22)
(0.543578 0.0313228 6.50471e-20)
(0.624586 0.0553056 3.22052e-20)
(0.847705 0.0393518 -8.52924e-20)
(0.726531 0.0366196 -5.36021e-20)
(0.81471 0.0522884 7.69531e-20)
(0.976868 0.0323153 -1.51017e-20)
(0.874142 0.0331546 -1.78805e-22)
(0.958704 0.0428403 1.94681e-20)
(1.07558 0.0231934 9.14356e-20)
(0.990073 0.0258555 -4.60425e-21)
(1.06702 0.0314696 -1.77211e-20)
(1.14965 0.0143933 3.34609e-20)
(1.08038 0.0175973 1.27629e-20)
(1.14713 0.0204399 8.12977e-20)
(1.20369 0.0069045 2.20661e-20)
(1.14943 0.00990971 -1.47968e-20)
(1.20457 0.0110053 -1.43078e-20)
(1.24178 0.000979382 -1.28451e-20)
(1.20077 0.00356996 2.23532e-20)
(1.24425 0.00360741 -1.94346e-20)
(1.26761 -0.00354024 -4.82277e-21)
(1.23766 -0.00144646 5.5011e-21)
(1.27038 -0.00190605 -1.68356e-20)
(1.28435 -0.00686601 3.06727e-20)
(1.26315 -0.00520498 1.35462e-20)
(1.28664 -0.00585113 3.11007e-20)
(1.2944 -0.00911137 -7.67766e-22)
(1.28023 -0.00783019 1.11862e-20)
(1.29593 -0.0085727 -1.15606e-20)
(1.2998 -0.010484 0)
(1.29111 -0.00958311 -1.92447e-20)
(1.30049 -0.0101839 0)
(1.30254 -0.0110497 0)
(1.29752 -0.0107383 1.56929e-20)
(1.30224 -0.0108834 0)
(1.30395 -0.0107438 -3.2998e-21)
(1.30148 -0.0112008 0)
(1.30279 -0.0108465 -3.38026e-21)
(1.30427 -0.0096598 -5.41861e-21)
(1.30395 -0.0107538 6.37157e-21)
(1.30212 -0.00992317 -3.32755e-21)
(1.30356 -0.00791475 -2.09694e-21)
(1.30544 -0.0096068 -6.2595e-21)
(1.30049 -0.00836156 -2.08116e-21)
(1.30196 -0.00557814 0)
(1.30594 -0.00777686 -1.85949e-21)
(1.2981 -0.00623212 0)
(1.29945 -0.00274208 1.62815e-21)
(1.30552 -0.00528949 1.7799e-21)
(1.29487 -0.00361876 -1.11022e-21)
(1.29583 0.000436446 9.33979e-21)
(1.30407 -0.00221626 2.37197e-21)
(1.29062 -0.000682299 2.63174e-21)
(1.29071 0.00371273 1.69755e-21)
(1.30141 0.00126779 1.2827e-21)
(1.28495 0.00236968 7.74095e-21)
(1.28346 0.0066887 -4.1783e-21)
(1.29704 0.00499227 -6.23147e-21)
(1.27722 0.00530213 -1.76141e-20)
(1.27281 0.0083722 0)
(1.29052 0.00835209 1.28983e-20)
(1.26685 0.00729991 1.08003e-20)
(1.25575 0.00572875 5.50043e-21)
(1.28149 0.00857226 -7.86473e-21)
(1.25389 0.00511931 0)
(1.27249 -0.00243393 5.53224e-21)
(1.23735 -0.00836123 -1.84707e-21)
(0.395138 0.00630721 4.8245e-20)
(0.273097 -0.00363949 -8.79731e-20)
(0.583689 0.0260777 1.09184e-20)
(0.444391 0.0222852 3.29466e-20)
(0.749979 0.0304408 2.60088e-20)
(0.613059 0.033111 -4.13968e-20)
(0.885826 0.0274203 1.13293e-20)
(0.760754 0.0341868 5.64034e-20)
(0.994173 0.0210612 -7.75478e-20)
(0.883189 0.0298421 -7.94399e-20)
(1.07976 0.01392 -3.19291e-20)
(0.983246 0.0232687 -5.1847e-20)
(1.14625 0.00739163 -1.49869e-20)
(1.06435 0.0163218 1.4726e-20)
(1.19651 0.00199782 3.83559e-20)
(1.12923 0.00999495 -1.30815e-20)
(1.23323 -0.00232029 2.42154e-20)
(1.17979 0.00457301 3.65664e-20)
(1.25917 -0.00560623 -5.03979e-21)
(1.21764 0.000464773 -4.86908e-20)
(1.27699 -0.00795474 -8.73795e-21)
(1.24553 -0.00274525 1.35548e-20)
(1.28887 -0.00965741 -3.65344e-21)
(1.26564 -0.00545937 -7.67416e-21)
(1.29652 -0.0107532 1.58307e-20)
(1.27978 -0.00769453 6.24533e-21)
(1.30154 -0.0111445 9.53376e-21)
(1.28975 -0.00923183 6.4066e-21)
(1.30511 -0.010768 6.22555e-21)
(1.29697 -0.0100042 1.42917e-20)
(1.30775 -0.00956861 -5.69869e-21)
(1.30244 -0.00989566 -3.82431e-21)
(1.30947 -0.00754697 -4.28813e-23)
(1.30666 -0.0087367 -1.85949e-21)
(1.31017 -0.00477752 2.37338e-21)
(1.30993 -0.00663359 5.54797e-22)
(1.30972 -0.00139701 -6.12454e-21)
(1.31225 -0.00374503 1.75596e-21)
(1.30797 0.00240418 -7.22815e-21)
(1.31338 -0.000227564 -5.5617e-21)
(1.30451 0.00634421 1.37242e-20)
(1.31304 0.00385801 -3.196e-21)
(1.29819 0.00936535 1.07373e-20)
(1.31098 0.00812875 1.50465e-20)
(1.28696 0.00958318 -7.90995e-21)
(1.30644 0.0107282 -1.34427e-22)
(1.30653 0.0032686 -7.45496e-21)
(0.317018 0.00519972 -1.21315e-19)
(0.224524 -0.00837598 -2.17947e-20)
(0.467872 0.0260433 -3.30243e-20)
(0.346155 0.0208168 -1.49182e-20)
(0.619794 0.0350532 -1.28335e-20)
(0.48474 0.0380177 -1.56593e-20)
(0.755516 0.0358463 -3.20115e-20)
(0.618637 0.0452734 -1.23738e-20)
(0.870728 0.0318994 -5.44077e-20)
(0.737942 0.045805 1.15251e-21)
(0.966902 0.0258649 -6.29572e-21)
(0.84082 0.0426242 -3.94205e-20)
(1.04661 0.0192952 1.69728e-20)
(0.9287 0.0375132 4.59392e-20)
(1.1119 0.0131168 -1.39937e-20)
(1.00359 0.0317721 -1.30815e-20)
(1.16392 0.00796002 -3.44386e-20)
(1.06698 0.0263357 2.22486e-20)
(1.20401 0.00390046 -3.25026e-20)
(1.11994 0.0212734 -1.44922e-20)
(1.23424 0.000367203 1.31026e-20)
(1.16319 0.0160366 1.18468e-20)
(1.25669 -0.00293885 4.07226e-21)
(1.19755 0.0108201 1.15705e-20)
(1.27324 -0.00574094 -1.39374e-21)
(1.22434 0.00613288 4.66898e-22)
(1.28548 -0.00769484 1.10988e-20)
(1.24553 0.00219561 1.04991e-20)
(1.29463 -0.00867044 4.71492e-21)
(1.26245 -0.000829804 -1.33198e-20)
(1.30167 -0.00863489 0)
(1.27603 -0.00276537 0)
(1.30735 -0.00758551 -1.21622e-21)
(1.2872 -0.00360649 4.06577e-21)
(1.31208 -0.00556313 -3.31232e-22)
(1.29651 -0.00333453 -2.83023e-21)
(1.31587 -0.00264958 2.21311e-21)
(1.30432 -0.00180701 1.25974e-22)
(1.3185 0.00101297 -4.30051e-22)
(1.31075 0.000850493 -2.16932e-21)
(1.31972 0.00525596 3.71897e-22)
(1.31562 0.00458425 -1.21385e-21)
(1.31904 0.00942652 9.19851e-21)
(1.319 0.00868168 -2.71869e-21)
(1.31445 0.0128007 9.49114e-20)
(1.32054 0.0137997 5.9342e-21)
(1.33155 0.00996524 -1.44425e-21)
(0.249961 0.00568384 8.43284e-20)
(0.18192 -0.00795873 6.65508e-20)
(0.358677 0.0305504 1.76472e-21)
(0.264109 0.0219455 -6.1352e-20)
(0.479778 0.0461764 -1.52734e-20)
(0.366082 0.0446646 -1.49946e-20)
(0.598021 0.0535918 2.0564e-20)
(0.472949 0.0591285 0)
(0.705718 0.0553608 1.98884e-20)
(0.575175 0.0669633 2.09137e-20)
(0.800969 0.0535144 1.50291e-20)
(0.668032 0.070159 2.05481e-20)
(0.884329 0.0495859 1.66274e-20)
(0.751076 0.0700246 8.46017e-20)
(0.957373 0.0445111 2.27395e-20)
(0.824853 0.0675855 -2.82902e-20)
(1.02171 0.0387502 4.20527e-20)
(0.890435 0.0634901 1.29504e-20)
(1.07786 0.0325363 3.30953e-20)
(0.949412 0.0582455 -4.05943e-20)
(1.12553 0.0261173 1.41876e-20)
(1.00201 0.0524286 3.1242e-20)
(1.16481 0.0199405 8.0681e-21)
(1.04842 0.0464116 0)
(1.1967 0.0143173 1.40299e-20)
(1.08898 0.0401454 -1.1903e-20)
(1.2227 0.00943679 -1.00361e-20)
(1.12435 0.0337184 1.98525e-20)
(1.2441 0.00549782 -1.64798e-20)
(1.15527 0.027623 -1.635e-20)
(1.26191 0.00272169 4.03495e-21)
(1.18247 0.0223115 8.11833e-21)
(1.27683 0.00127488 2.99774e-21)
(1.20661 0.0181795 4.37018e-23)
(1.28931 0.00125046 -2.27654e-21)
(1.22807 0.0155272 -8.32852e-21)
(1.29975 0.00258552 -9.26576e-22)
(1.24701 0.0144721 5.39073e-21)
(1.30846 0.00511767 3.08149e-23)
(1.26377 0.0147097 -1.05131e-21)
(1.31546 0.00843466 -4.29514e-21)
(1.27796 0.0164465 2.99244e-22)
(1.32136 0.0130043 8.96774e-22)
(1.29058 0.0182755 -4.22398e-21)
(1.3254 0.0184973 -9.29493e-20)
(1.29929 0.0235116 -1.7961e-21)
(1.32426 0.0210914 7.19937e-21)
(0.193851 0.007947 -7.61912e-20)
(0.142378 -0.00427268 9.58635e-21)
(0.268623 0.0351164 -7.97042e-20)
(0.197293 0.0247937 -3.47954e-20)
(0.356445 0.0562259 0)
(0.267847 0.0504356 -1.53611e-20)
(0.447477 0.0709527 0)
(0.345528 0.0705202 0)
(0.535128 0.0803152 2.1352e-20)
(0.423754 0.0853273 0)
(0.616232 0.085418 8.95121e-20)
(0.497955 0.0956212 -3.48809e-20)
(0.690007 0.0871992 4.07886e-20)
(0.566634 0.10201 7.25493e-20)
(0.756847 0.0862849 -3.84307e-20)
(0.629447 0.105045 -2.85145e-20)
(0.817535 0.0833616 -6.71345e-20)
(0.686915 0.10531 -1.01493e-20)
(0.873042 0.0788545 -4.03817e-20)
(0.739774 0.10334 -1.9937e-20)
(0.924249 0.0730346 1.7361e-20)
(0.788757 0.0992969 -1.45625e-21)
(0.971821 0.0661349 -1.98607e-20)
(0.834564 0.0933647 0)
(1.01578 0.058498 -1.02778e-20)
(0.877815 0.0860919 -7.96846e-21)
(1.05603 0.0506311 9.9932e-21)
(0.918506 0.0782211 -6.18258e-22)
(1.09279 0.0430979 8.05385e-21)
(0.95691 0.0701531 0)
(1.12641 0.036456 4.54617e-21)
(0.99334 0.0624295 1.10346e-20)
(1.15715 0.031192 -1.07259e-20)
(1.02809 0.055691 -7.7008e-21)
(1.18516 0.0275926 -4.76788e-21)
(1.06133 0.0503362 -1.9741e-21)
(1.21051 0.0256908 1.5462e-21)
(1.09294 0.0465838 -4.93615e-21)
(1.23313 0.0254427 -1.63244e-21)
(1.12296 0.0444068 -2.91974e-21)
(1.25285 0.0264204 -4.53203e-22)
(1.15049 0.0441098 -1.12112e-21)
(1.26957 0.028638 0)
(1.17717 0.0443496 -8.67124e-22)
(1.28512 0.0331856 1.18182e-21)
(1.19671 0.0473861 0)
(1.23605 0.0439495 -5.2931e-22)
(0.144626 0.0122221 5.09764e-20)
(0.10483 0.00136339 5.547e-20)
(0.194736 0.0398516 2.85374e-20)
(0.140582 0.029329 3.38927e-20)
(0.25521 0.0641622 -1.56467e-20)
(0.187394 0.0559942 1.5249e-20)
(0.320059 0.0841453 0)
(0.240529 0.0793372 -1.33159e-20)
(0.384867 0.0997752 -5.87864e-20)
(0.295723 0.0989411 3.63174e-20)
(0.446813 0.111295 -5.88878e-20)
(0.349845 0.1147 -5.96934e-20)
(0.504685 0.118996 6.00873e-22)
(0.401214 0.126598 1.17036e-21)
(0.558302 0.123297 -2.27006e-22)
(0.449185 0.134725 -1.47856e-20)
(0.608035 0.124661 3.95172e-20)
(0.493907 0.139394 1.37861e-20)
(0.654526 0.123333 2.13802e-20)
(0.535728 0.140906 3.99619e-20)
(0.698393 0.119485 -1.88316e-20)
(0.575209 0.139379 -1.86485e-20)
(0.740178 0.113612 1.051e-20)
(0.612954 0.13518 0)
(0.780373 0.10643 2.44069e-21)
(0.64947 0.12901 1.06084e-20)
(0.819355 0.0984369 -8.40348e-21)
(0.685148 0.121427 -8.33398e-21)
(0.857436 0.0900467 2.89308e-21)
(0.720376 0.112788 0)
(0.894935 0.0818812 -7.12964e-22)
(0.755484 0.103715 3.71367e-21)
(0.932053 0.074595 2.57505e-21)
(0.790701 0.0950521 -3.67921e-21)
(0.968744 0.0686396 -6.06793e-22)
(0.826219 0.0874606 1.04339e-20)
(1.00479 0.0642761 -5.52946e-21)
(0.861958 0.0813487 -1.54617e-20)
(1.03981 0.0616458 5.57472e-21)
(0.897785 0.0770039 3.79988e-21)
(1.07342 0.0608591 1.06556e-21)
(0.933 0.0747335 5.78499e-21)
(1.1046 0.0613305 -8.72288e-22)
(0.96859 0.0742616 -1.47522e-21)
(1.13374 0.0636904 -1.68452e-21)
(0.999715 0.075398 0)
(1.04553 0.0717119 -2.91679e-21)
(0.100102 0.0179944 3.90659e-20)
(0.0692032 0.0080277 -2.15905e-20)
(0.132166 0.0453002 2.09601e-20)
(0.0908279 0.0350768 -8.34141e-21)
(0.171722 0.0710265 1.75983e-20)
(0.120066 0.0619138 3.01067e-20)
(0.215167 0.0939925 2.233e-20)
(0.154143 0.0868763 -1.33159e-20)
(0.25967 0.113663 3.68692e-20)
(0.190359 0.109239 3.59013e-20)
(0.303243 0.129701 0)
(0.226696 0.128441 1.02964e-20)
(0.344785 0.141919 -1.51008e-20)
(0.261843 0.144025 2.70758e-20)
(0.383896 0.150362 -1.85804e-21)
(0.295166 0.155739 -3.20352e-20)
(0.420713 0.155174 1.39395e-20)
(0.326603 0.163585 1.43132e-20)
(0.455626 0.156489 0)
(0.356363 0.167628 0)
(0.489089 0.154623 0)
(0.384811 0.167994 0)
(0.521595 0.150148 0)
(0.412423 0.165082 0)
(0.553662 0.143612 0)
(0.439715 0.159493 1.2861e-20)
(0.585717 0.135446 0)
(0.467128 0.151762 -1.22219e-20)
(0.618071 0.126253 4.91614e-22)
(0.495066 0.142421 -1.30848e-20)
(0.651017 0.116879 4.99307e-22)
(0.52392 0.132202 7.49212e-21)
(0.684788 0.108126 3.55134e-21)
(0.553909 0.122009 -8.10372e-21)
(0.71946 0.100547 -3.39992e-21)
(0.585207 0.112634 7.42275e-21)
(0.754982 0.0945608 -6.14621e-21)
(0.617905 0.104575 -1.03661e-20)
(0.791197 0.0905236 2.84653e-21)
(0.65196 0.0982744 -7.68219e-22)
(0.827808 0.0887314 2.40115e-21)
(0.687121 0.0941274 7.15883e-21)
(0.864285 0.088647 7.59806e-23)
(0.723553 0.0921933 -1.92662e-21)
(0.899487 0.0888024 1.40363e-22)
(0.760284 0.0914321 -6.62239e-22)
(0.803898 0.0873955 2.85215e-21)
(0.0595314 0.0245612 -6.91106e-20)
(0.0358009 0.0150319 -3.21038e-20)
(0.0780793 0.0513899 0)
(0.0467437 0.0413858 0)
(0.101889 0.0776033 0)
(0.0629311 0.0680724 0)
(0.128721 0.10207 4.31064e-23)
(0.082623 0.0937429 -6.4547e-21)
(0.156766 0.124015 1.01844e-20)
(0.10408 0.117549 -1.79342e-20)
(0.184697 0.142775 3.69985e-20)
(0.126001 0.138702 1.02964e-20)
(0.211679 0.157848 1.06473e-20)
(0.14747 0.156496 -7.58838e-22)
(0.237342 0.168968 -1.63874e-20)
(0.167986 0.170428 -8.3451e-21)
(0.261726 0.176045 5.62905e-22)
(0.187436 0.180231 -1.37899e-20)
(0.285088 0.179129 0)
(0.205963 0.185796 -1.17902e-20)
(0.307757 0.178472 0)
(0.223848 0.187209 1.1108e-20)
(0.330169 0.17452 1.27418e-20)
(0.241483 0.184777 -8.48517e-21)
(0.352845 0.167796 5.71941e-22)
(0.259361 0.178973 2.09044e-20)
(0.37625 0.158902 -2.52995e-20)
(0.277968 0.170336 -1.22219e-20)
(0.400737 0.148545 -6.1327e-21)
(0.297746 0.159525 -1.40299e-20)
(0.426625 0.137529 -8.18617e-22)
(0.319112 0.147319 2.10998e-20)
(0.454192 0.126737 -4.0426e-21)
(0.34242 0.134657 -1.23923e-20)
(0.483581 0.11691 6.15529e-22)
(0.367873 0.122459 7.87314e-21)
(0.51482 0.108557 -5.90584e-21)
(0.39558 0.111317 -5.51553e-22)
(0.547892 0.10209 2.22964e-21)
(0.425584 0.101706 -4.10108e-21)
(0.582711 0.0977457 3.2564e-21)
(0.457819 0.0940202 3.92591e-21)
(0.619078 0.0949927 -2.52842e-21)
(0.492294 0.0882367 -8.01631e-22)
(0.656179 0.0919856 -1.89548e-20)
(0.529238 0.0834967 -8.25063e-22)
(0.570242 0.0777226 9.95511e-22)
(0.0228205 0.0312801 3.61701e-20)
(0.00502857 0.0218459 5.66881e-20)
(0.0312259 0.0576563 0)
(0.00797539 0.047638 -3.87735e-21)
(0.0433183 0.0839341 -6.33467e-21)
(0.0146173 0.0740424 0)
(0.0576199 0.109071 -2.38176e-20)
(0.0237616 0.0999409 -1.26811e-20)
(0.0729477 0.132184 -1.78425e-20)
(0.0342312 0.124431 -2.33367e-20)
(0.0884219 0.152442 -2.7073e-20)
(0.0451759 0.146609 0)
(0.103456 0.169147 -1.94382e-20)
(0.0559733 0.16563 -2.74552e-20)
(0.117769 0.18181 -5.36685e-21)
(0.0662679 0.180815 8.39282e-21)
(0.131376 0.190148 -2.58421e-20)
(0.0759771 0.191688 -2.09954e-20)
(0.144482 0.194096 -7.98725e-22)
(0.0852365 0.197981 -5.24354e-21)
(0.157371 0.193804 2.8151e-21)
(0.0943052 0.199705 1.64248e-20)
(0.170483 0.189602 -4.99592e-22)
(0.103524 0.196991 -1.35116e-20)
(0.184326 0.181973 8.11403e-21)
(0.113387 0.190192 8.04341e-21)
(0.19939 0.17153 -1.8208e-21)
(0.124451 0.179813 0)
(0.216123 0.159011 1.07748e-20)
(0.137239 0.166513 -1.8681e-21)
(0.234931 0.145289 9.93922e-21)
(0.152236 0.151099 1.27919e-20)
(0.256145 0.131313 -7.67065e-22)
(0.16991 0.134575 -2.97219e-21)
(0.279954 0.117854 3.86419e-21)
(0.190547 0.11798 2.24294e-21)
(0.30643 0.105472 1.26568e-21)
(0.214206 0.102025 1.61691e-21)
(0.335602 0.0945996 -1.28198e-21)
(0.240817 0.0872411 -9.23433e-23)
(0.367407 0.0853418 1.27832e-22)
(0.270162 0.0740967 -9.21108e-22)
(0.401726 0.0772364 -1.76642e-22)
(0.301985 0.0625364 1.05743e-21)
(0.438289 0.0697967 -1.37895e-22)
(0.336853 0.0519514 -2.23951e-22)
(0.37663 0.0426651 2.60152e-23)
(-0.00985245 0.0376208 1.81001e-20)
(-0.0227206 0.0280499 4.44932e-21)
(-0.00881142 0.0635555 -3.95855e-21)
(-0.0254367 0.0533041 -3.87735e-21)
(-0.00511001 0.0896879 -6.11065e-21)
(-0.0253831 0.0793387 0)
(0.000185184 0.115051 -1.20156e-20)
(-0.0234756 0.105196 9.24018e-21)
(0.00626434 0.138706 -5.84878e-21)
(-0.0205756 0.129937 -5.76125e-21)
(0.012538 0.159731 0)
(-0.0172533 0.152588 0)
(0.0186143 0.177301 0)
(-0.0139368 0.172219 0)
(0.0243177 0.190758 -6.88528e-21)
(-0.0108269 0.188014 0)
(0.0296801 0.199656 -5.19858e-22)
(-0.00793178 0.199337 -6.96838e-21)
(0.0349506 0.203807 1.18763e-20)
(-0.00507486 0.20571 6.54669e-21)
(0.0403647 0.203226 3.68888e-22)
(-0.00195919 0.207133 5.31681e-21)
(0.0463647 0.198063 -5.07302e-21)
(0.00184499 0.203465 -1.00626e-20)
(0.0534855 0.18867 0)
(0.00690439 0.194891 4.77374e-21)
(0.0623072 0.175567 5.37194e-22)
(0.0138364 0.181783 0)
(0.0734007 0.159456 5.46015e-22)
(0.0231917 0.16474 -2.87292e-21)
(0.087281 0.141237 0)
(0.0354665 0.144585 -8.65334e-22)
(0.104355 0.121942 0)
(0.0511393 0.122427 0)
(0.124758 0.102593 0)
(0.0706536 0.0996531 0)
(0.148463 0.0840359 3.40027e-22)
(0.0938809 0.0772176 0)
(0.175282 0.0668721 3.44505e-22)
(0.120586 0.0559089 1.82614e-21)
(0.204742 0.0513601 0)
(0.150328 0.036696 -7.81298e-22)
(0.236164 0.0375583 -6.07633e-23)
(0.182555 0.0199952 -1.40337e-21)
(0.268714 0.026502 -6.14788e-23)
(0.218104 0.00592767 -1.83732e-21)
(0.259474 -0.00484791 0)
(-0.0382278 0.0431512 -1.73079e-20)
(-0.0471141 0.0333003 -1.69027e-20)
(-0.042064 0.0685944 0)
(-0.0533192 0.0579387 -3.61093e-21)
(-0.0438021 0.0944441 1.51069e-20)
(-0.0571761 0.0835021 0)
(-0.0443084 0.119778 1.56505e-20)
(-0.0594799 0.10914 9.52136e-21)
(-0.0441734 0.143617 0)
(-0.0609206 0.133865 0)
(-0.0438045 0.164973 0)
(-0.0618769 0.156657 0)
(-0.0434378 0.182921 0)
(-0.0625552 0.176501 0)
(-0.0431261 0.196665 0)
(-0.0630205 0.192454 0)
(-0.0427507 0.205543 0)
(-0.0631776 0.203719 1.78707e-21)
(-0.0420048 0.209219 0)
(-0.0627995 0.209613 0)
(-0.0405173 0.207496 -4.98672e-21)
(-0.0615152 0.210006 0)
(-0.0376585 0.200225 -3.8571e-22)
(-0.0588313 0.204383 -6.48481e-21)
(-0.0328229 0.187635 4.81565e-21)
(-0.0541932 0.192859 4.77374e-21)
(-0.0254061 0.170231 -4.22691e-21)
(-0.0470625 0.175719 0)
(-0.0148937 0.14878 -5.15477e-21)
(-0.0368875 0.153595 -2.07183e-21)
(-0.000831739 0.124408 -8.71894e-22)
(-0.023181 0.127337 -9.13027e-22)
(0.017181 0.0987771 0)
(-0.00550046 0.0981182 8.45172e-22)
(0.0394173 0.0732725 0)
(0.0166007 0.0674446 9.46713e-23)
(0.065728 0.0485292 1.08056e-21)
(0.0434774 0.0368005 6.96154e-22)
(0.095648 0.0255237 6.58649e-22)
(0.0750811 0.00757557 1.08781e-21)
(0.128609 0.00565049 -1.37978e-21)
(0.11093 -0.0189236 -7.81298e-22)
(0.16321 -0.00995557 -1.35072e-21)
(0.150566 -0.0406557 -1.21347e-21)
(0.197144 -0.0211371 6.17238e-23)
(0.193941 -0.0554404 6.13709e-23)
(0.240331 -0.0636462 0)
(-0.0620592 0.047512 -3.52437e-21)
(-0.0679031 0.0373075 0)
(-0.0684262 0.072347 -3.68655e-21)
(-0.0754952 0.061165 -1.76736e-21)
(-0.0728448 0.0977852 -5.74691e-21)
(-0.0807355 0.0861206 1.58797e-21)
(-0.0761072 0.122909 -5.95372e-21)
(-0.0843254 0.111391 -3.00514e-21)
(-0.0786482 0.146667 0)
(-0.0868406 0.135896 0)
(-0.0806508 0.167988 0)
(-0.0885882 0.15851 0)
(-0.0821565 0.185846 0)
(-0.089647 0.178135 0)
(-0.0831044 0.199304 1.76576e-21)
(-0.089978 0.193745 0)
(-0.0832555 0.207523 1.80695e-21)
(-0.0893607 0.204359 -3.44132e-23)
(-0.0823072 0.210032 0)
(-0.0875907 0.209183 0)
(-0.0798259 0.206463 -1.43444e-21)
(-0.0841691 0.207888 0)
(-0.0753676 0.196646 -1.46209e-21)
(-0.0786855 0.199864 1.23412e-20)
(-0.0684355 0.180785 0)
(-0.0705774 0.185082 -5.75051e-21)
(-0.0585417 0.159263 2.13641e-21)
(-0.0592631 0.163744 0)
(-0.0451695 0.132796 1.98655e-21)
(-0.0440945 0.136354 -4.11372e-21)
(-0.0278856 0.102248 6.50924e-22)
(-0.0244424 0.103785 5.70976e-21)
(-0.00625975 0.0684165 9.46375e-22)
(0.000196649 0.0671318 -3.77288e-23)
(0.0204165 0.0326245 7.86646e-22)
(0.0300768 0.0273752 3.68862e-21)
(0.0526753 -0.00288186 7.00797e-22)
(0.065621 -0.0138703 -3.92967e-21)
(0.0903426 -0.0359979 0)
(0.106859 -0.054152 -2.91307e-21)
(0.132952 -0.0647517 1.61077e-22)
(0.153538 -0.0916261 0)
(0.179738 -0.0868775 1.63043e-22)
(0.205246 -0.123605 1.62078e-22)
(0.229503 -0.101072 0)
(0.260011 -0.146958 -3.1122e-21)
(0.311949 -0.15757 1.81389e-21)
(-0.0811668 0.0503966 1.79657e-21)
(-0.0849339 0.0398225 1.55381e-20)
(-0.0877976 0.0744316 3.45609e-21)
(-0.0918526 0.0626632 1.8407e-21)
(-0.0921958 0.0992669 4.41518e-21)
(-0.0959916 0.086806 1.58797e-21)
(-0.0950696 0.123956 2.89836e-21)
(-0.098048 0.11147 1.32335e-20)
(-0.0968035 0.147385 0)
(-0.0986512 0.135504 0)
(-0.0976113 0.168417 0)
(-0.0979743 0.157756 0)
(-0.0974907 0.185925 0)
(-0.0960163 0.177018 7.80024e-21)
(-0.0962711 0.198814 -1.76777e-21)
(-0.0926224 0.192133 7.49552e-21)
(-0.0936823 0.206158 -1.80902e-21)
(-0.0875027 0.202005 -1.8198e-21)
(-0.0894289 0.207325 0)
(-0.0803936 0.205751 0)
(-0.0829885 0.201749 1.35692e-20)
(-0.0707325 0.202758 0)
(-0.0738684 0.188909 8.24565e-21)
(-0.0580274 0.192349 7.60731e-21)
(-0.0613709 0.168736 -5.801e-21)
(-0.0416403 0.174129 -5.75051e-21)
(-0.0447873 0.141524 -6.13549e-21)
(-0.0209002 0.148121 0)