/*--------------------------------*- C++ -*----------------------------------*\
  =========                 |
  \\      /  F ield         | OpenFOAM: The Open Source CFD Toolbox
   \\    /   O peration     | Website:  https://openfoam.org
    \\  /    A nd           | Version:  11
     \\/     M anipulation  |
\*---------------------------------------------------------------------------*/
FoamFile
{
    format      ascii;
    class       volScalarField;
    location    "0.22";
    object      k;
}
// * * * * * * * * * * * * * * * * * * * * * * * * * * * * * * * * * * * * * //

dimensions      [0 2 -2 0 0 0 0];

internalField   nonuniform List<scalar> 
2880
(
0.00837031
0.0157072
0.0267286
0.0320223
0.033293
0.040701
0.0247256
0.0404793
0.0557195
0.0585084
0.0571898
0.0657748
0.0330971
0.0535546
0.0711523
0.0739955
0.0721295
0.0775072
0.0391716
0.0642864
0.0831317
0.0862881
0.0841094
0.0876826
0.0438902
0.0737968
0.0933578
0.0970833
0.0949953
0.09707
0.0476863
0.0821904
0.102277
0.107001
0.105558
0.106493
0.0508256
0.089541
0.110144
0.116279
0.116096
0.116601
0.0534515
0.095937
0.11714
0.124996
0.126668
0.127589
0.0556459
0.101453
0.123382
0.133227
0.137209
0.13936
0.0574674
0.106132
0.12893
0.140968
0.147577
0.151748
0.0589704
0.10997
0.133788
0.148134
0.157581
0.164446
0.060214
0.112912
0.137909
0.154583
0.16695
0.176863
0.0608304
0.115041
0.141214
0.160128
0.175351
0.18843
0.0607852
0.116325
0.143582
0.164561
0.182418
0.198548
0.060029
0.116616
0.14484
0.167656
0.18778
0.206619
0.0585329
0.11591
0.144883
0.169043
0.191019
0.212074
0.0562261
0.113961
0.143554
0.168771
0.191816
0.21411
0.053045
0.110565
0.14061
0.166504
0.190252
0.213294
0.0489279
0.105452
0.135767
0.162016
0.18587
0.209064
0.0438379
0.0982228
0.128666
0.154969
0.178427
0.201424
0.037727
0.0882785
0.118781
0.144871
0.167487
0.190182
0.0303939
0.0746111
0.105168
0.130912
0.15201
0.174211
0.0210859
0.0545742
0.0855556
0.111316
0.12975
0.148756
0.00623164
0.0253373
0.0565577
0.0839786
0.102934
0.117946
0.204712
0.299461
0.296711
0.259374
0.203511
0.1525
0.112294
0.0835701
0.0640307
0.0507983
0.0416136
0.0350017
0.0300613
0.0262424
0.0231988
0.0207018
0.0185915
0.0167492
0.0150791
0.013494
0.0119016
0.0101993
0.00826069
0.00573186
0.148802
0.265707
0.288071
0.264804
0.215851
0.166045
0.124202
0.0928901
0.0709883
0.0560136
0.0456584
0.038282
0.0328385
0.0286804
0.0254002
0.0227318
0.0204917
0.0185448
0.0167824
0.0151048
0.0134051
0.0115562
0.00936622
0.00628542
0.114022
0.230952
0.271191
0.262009
0.225084
0.178065
0.135933
0.102724
0.0786274
0.0618347
0.0501792
0.0419282
0.035906
0.031363
0.0278244
0.024982
0.0226275
0.0206115
0.0188184
0.0171464
0.0154891
0.0137297
0.0118256
0.0102495
0.106012
0.200284
0.252017
0.254711
0.230588
0.188107
0.147048
0.112804
0.0868592
0.0682712
0.0552158
0.0459785
0.0392902
0.0343044
0.030475
0.0274493
0.0249953
0.0229578
0.0212337
0.0197562
0.0184836
0.0174054
0.0166199
0.0164582
0.11043
0.177431
0.232326
0.243544
0.229636
0.195418
0.156961
0.122755
0.0955143
0.0752882
0.0607901
0.0504635
0.0430108
0.0375071
0.0333374
0.0301028
0.027548
0.0255142
0.0239104
0.0226942
0.0218535
0.0213992
0.0213767
0.0217652
0.118747
0.162616
0.214284
0.231418
0.22595
0.200669
0.165505
0.132258
0.104375
0.0828007
0.0668968
0.0554046
0.047086
0.0409754
0.0363998
0.0329165
0.0302464
0.0282231
0.0267566
0.0258027
0.0253347
0.0253242
0.0257066
0.0263299
0.127839
0.155281
0.199239
0.219149
0.218803
0.202543
0.172186
0.140939
0.113167
0.0906668
0.0734954
0.060811
0.0515362
0.0447222
0.039661
0.0358727
0.0330527
0.0310195
0.0296691
0.0289351
0.0287563
0.0290308
0.029675
0.0304127
0.137629
0.155366
0.188321
0.207427
0.210172
0.200881
0.176886
0.148392
0.121538
0.0986678
0.0804934
0.0666688
0.056381
0.048771
0.043134
0.038966
0.0359369
0.0338422
0.0325518
0.0319666
0.0319852
0.0324438
0.0332574
0.0340698
0.148411
0.159403
0.181917
0.197308
0.201638
0.197311
0.179901
0.15452
0.129206
0.106547
0.0877413
0.0729277
0.0616282
0.053151
0.0468452
0.0422059
0.0388833
0.0366462
0.0353331
0.0348097
0.0349242
0.0355006
0.0364154
0.0372794
0.160408
0.168401
0.181959
0.190151
0.193749
0.191644
0.180009
0.158863
0.135852
0.114033
0.0950487
0.0794967
0.0672641
0.0578894
0.0508314
0.0456184
0.0418955
0.0394092
0.0379675
0.0374033
0.037528
0.0381395
0.0391042
0.0400012
0.173633
0.181521
0.185834
0.1873
0.187368
0.18593
0.178516
0.161564
0.141183
0.120831
0.10219
0.0862436
0.073245
0.0630028
0.0551366
0.0492482
0.0450025
0.0421378
0.0404403
0.0397166
0.0397651
0.0403201
0.0412822
0.0421923
0.187739
0.196431
0.19528
0.189365
0.18447
0.181501
0.175905
0.16281
0.145219
0.12668
0.108912
0.0929876
0.0794826
0.0684824
0.0598022
0.0531576
0.048265
0.0448775
0.0427775
0.0417581
0.041614
0.0420299
0.0429204
0.0438167
0.201915
0.21199
0.209539
0.196502
0.185788
0.179533
0.17347
0.16275
0.14795
0.131439
0.114956
0.0995049
0.0858325
0.0742748
0.0648506
0.0574172
0.0517747
0.0477192
0.045054
0.0435795
0.0430901
0.0432988
0.0440034
0.0448506
0.215152
0.22721
0.225624
0.210336
0.19151
0.180806
0.173175
0.162946
0.150009
0.135349
0.120232
0.105594
0.0921171
0.080278
0.0702675
0.0620887
0.0556453
0.0508021
0.0474086
0.045299
0.0442864
0.0441646
0.0445698
0.0453053
0.226441
0.240794
0.241797
0.227707
0.204059
0.186278
0.175016
0.164197
0.152106
0.138797
0.124956
0.11123
0.0982122
0.0863767
0.0760036
0.067208
0.0599935
0.0543032
0.0500505
0.0471267
0.0453959
0.0446913
0.0447625
0.0452368
0.234675
0.251717
0.256307
0.245352
0.221363
0.198519
0.181349
0.168093
0.155433
0.142593
0.129576
0.116642
0.10417
0.0925376
0.0820237
0.0727949
0.0649227
0.0584151
0.0532458
0.049369
0.0467198
0.045206
0.0446982
0.0448543
0.238654
0.25876
0.266856
0.260158
0.239963
0.21552
0.194111
0.176771
0.161851
0.148162
0.135105
0.122483
0.110369
0.0989507
0.0884201
0.0789233
0.0705484
0.0633352
0.0572933
0.0524193
0.0487068
0.0461485
0.0447405
0.0443767
0.238748
0.260855
0.271621
0.269971
0.255518
0.233449
0.210773
0.190423
0.172728
0.157149
0.143044
0.129965
0.117711
0.106248
0.0956221
0.0858969
0.0771236
0.0693316
0.0625329
0.0567324
0.0519412
0.0481917
0.0455764
0.0443391
0.23462
0.257692
0.270296
0.273102
0.264674
0.24781
0.227386
0.206752
0.187541
0.170218
0.154642
0.140503
0.12754
0.115596
0.104592
0.0944938
0.0852866
0.0769589
0.0694975
0.0628888
0.0571279
0.052223
0.0482428
0.0456343
0.226547
0.248963
0.262721
0.268641
0.265784
0.255245
0.239534
0.221568
0.203272
0.185761
0.169483
0.154513
0.140773
0.128158
0.11657
0.105936
0.0961961
0.0873015
0.0792103
0.0718822
0.0652921
0.0594059
0.0542489
0.0498966
0.215221
0.235721
0.249405
0.257345
0.259123
0.254227
0.244172
0.230803
0.21568
0.200084
0.18479
0.170207
0.156515
0.143767
0.131953
0.121034
0.110962
0.101686
0.0931554
0.0853155
0.0781344
0.0715277
0.0656392
0.0596957
0.201524
0.219506
0.231963
0.241089
0.245745
0.245738
0.2409
0.232271
0.221449
0.209302
0.196619
0.183974
0.171716
0.160048
0.149067
0.138805
0.129257
0.120396
0.112184
0.104568
0.0975144
0.0908993
0.0850177
0.078533
0.186102
0.202241
0.213046
0.222102
0.228614
0.231544
0.230783
0.226651
0.219772
0.211342
0.20206
0.192381
0.182712
0.173346
0.164459
0.156133
0.148388
0.141239
0.134666
0.12862
0.123053
0.117874
0.113264
0.108248
0.170538
0.186088
0.194988
0.203499
0.210741
0.215229
0.216796
0.215589
0.212097
0.206922
0.200736
0.194087
0.187357
0.180848
0.174757
0.16919
0.164179
0.159739
0.155857
0.152494
0.149588
0.147076
0.144893
0.142552
0.00340612
0.00797523
0.0236341
0.0497534
0.0820549
0.117569
0.0145429
0.0219071
0.0410869
0.0665351
0.095926
0.127319
0.0190335
0.032099
0.0525126
0.076426
0.102708
0.128751
0.0215336
0.0387872
0.0595214
0.0820533
0.10551
0.127083
0.0234505
0.0435343
0.0641693
0.0853934
0.106437
0.124714
0.024679
0.0470516
0.0673276
0.0873283
0.106381
0.122315
0.0252459
0.0497908
0.0694441
0.0883101
0.105732
0.120012
0.0261595
0.0517347
0.0707736
0.0885889
0.104666
0.11775
0.0268817
0.0530301
0.0714752
0.088321
0.103261
0.115445
0.0273726
0.0537654
0.0716521
0.0875877
0.101546
0.113012
0.0276194
0.0540006
0.0713758
0.0864554
0.0995321
0.110384
0.0276154
0.053783
0.0706911
0.0849642
0.0972234
0.107516
0.027362
0.0531102
0.0696264
0.0831389
0.0946225
0.104394
0.0269712
0.0519736
0.0681939
0.0809929
0.0917335
0.10103
0.0264131
0.0503766
0.0663911
0.0785308
0.0885613
0.0974612
0.0256957
0.0483045
0.0642037
0.0757496
0.0851108
0.09374
0.0249659
0.0457828
0.0616225
0.0726399
0.0813845
0.0899184
0.02492
0.0430132
0.058666
0.0691878
0.0773763
0.0860353
0.0244652
0.0402774
0.0553648
0.0653694
0.0730624
0.0821266
0.0235286
0.0374581
0.0516617
0.0611133
0.0683733
0.0780405
0.022102
0.0342968
0.0473273
0.0562222
0.0631074
0.0734622
0.0201745
0.0303085
0.0417731
0.0501881
0.0565811
0.0680306
0.016382
0.0240263
0.0332845
0.0414904
0.0466137
0.0606281
0.00435311
0.00888526
0.01486
0.0226097
0.027345
0.036624
0.158918
0.172089
0.17963
0.187726
0.195005
0.200126
0.202652
0.203007
0.201442
0.198463
0.194627
0.190383
0.186064
0.181898
0.178066
0.174714
0.171938
0.169683
0.167883
0.16646
0.16532
0.164339
0.16331
0.162013
0.152016
0.161096
0.16804
0.175999
0.183221
0.188531
0.191413
0.192348
0.191679
0.18983
0.187284
0.184435
0.181569
0.178882
0.176491
0.174444
0.172732
0.171343
0.170235
0.169352
0.168606
0.167876
0.166975
0.165833
0.146202
0.153191
0.160141
0.168377
0.176005
0.181725
0.184998
0.186259
0.186018
0.18465
0.182626
0.180312
0.177967
0.175763
0.173791
0.17209
0.170658
0.16947
0.168472
0.167592
0.166767
0.165925
0.164987
0.163978
0.141228
0.147742
0.155266
0.164373
0.172853
0.179245
0.183108
0.184795
0.184926
0.183863
0.182072
0.179919
0.177664
0.175481
0.173467
0.171661
0.170066
0.168658
0.167396
0.166239
0.165166
0.164185
0.163303
0.16248
0.137204
0.144084
0.152659
0.1629
0.172424
0.179895
0.184856
0.187433
0.188228
0.187674
0.186223
0.184229
0.181964
0.179622
0.177321
0.175122
0.173052
0.17111
0.169279
0.167565
0.166054
0.164803
0.163791
0.163017
0.133932
0.141647
0.151536
0.163128
0.174238
0.183253
0.189624
0.193436
0.195167
0.195318
0.194386
0.192666
0.190478
0.188021
0.185432
0.182792
0.180146
0.177499
0.174785
0.172056
0.169351
0.166858
0.16504
0.163857
0.131165
0.139951
0.151282
0.164596
0.177508
0.188231
0.196083
0.201176
0.203894
0.204715
0.204204
0.202629
0.200132
0.197088
0.193676
0.190009
0.186153
0.182168
0.178226
0.174359
0.170582
0.166973
0.163703
0.161113
0.12869
0.138618
0.151495
0.166599
0.181232
0.193425
0.202258
0.207679
0.210283
0.210671
0.209635
0.20739
0.204203
0.200439
0.196259
0.191774
0.187052
0.182132
0.176966
0.171516
0.165781
0.15977
0.153862
0.148173
0.126302
0.137337
0.151731
0.168414
0.184133
0.196342
0.204695
0.209522
0.211388
0.211011
0.209143
0.205678
0.201104
0.195797
0.189934
0.183627
0.176954
0.169953
0.162644
0.155034
0.147173
0.138932
0.130981
0.121618
0.123834
0.135869
0.151619
0.169287
0.184766
0.195944
0.202347
0.204709
0.203896
0.201042
0.196107
0.189857
0.18276
0.17508
0.166988
0.158583
0.149946
0.141091
0.132068
0.122885
0.113738
0.104491
0.0961093
0.0852705
0.121165
0.134091
0.150989
0.168808
0.182323
0.189527
0.191171
0.188696
0.183568
0.17621
0.167759
0.158665
0.149249
0.139705
0.130107
0.120531
0.111035
0.101734
0.0925489
0.0837594
0.0756591
0.0683904
0.0622896
0.0575224
0.118247
0.132063
0.150038
0.166579
0.175207
0.175598
0.170578
0.161813
0.15158
0.140829
0.130049
0.119552
0.109506
0.0998537
0.0906242
0.0820151
0.0741661
0.0671919
0.061388
0.0566442
0.0528262
0.0498715
0.0477942
0.0468675
0.115123
0.130144
0.149246
0.162352
0.163235
0.155969
0.143142
0.13003
0.117602
0.1061
0.0956152
0.0862546
0.0779211
0.0706669
0.0644835
0.0592216
0.0547783
0.0510587
0.0479926
0.0455542
0.0437438
0.0426105
0.0422085
0.0426529
0.111938
0.128996
0.149061
0.155663
0.148879
0.133201
0.11768
0.10451
0.0933427
0.0838306
0.0757142
0.0687021
0.0626598
0.0574944
0.0531359
0.0494815
0.046443
0.0439532
0.0419746
0.0405078
0.0395962
0.0393302
0.0395988
0.0407029
0.10894
0.129453
0.14919
0.147435
0.13305
0.115075
0.101641
0.0908797
0.0817033
0.0737058
0.0667399
0.0607155
0.0555628
0.0511839
0.0474836
0.0443784
0.0418094
0.0397469
0.0381978
0.0372069
0.0368427
0.0370138
0.0377155
0.0393799
0.106534
0.132474
0.14753
0.139075
0.119358
0.105192
0.0942105
0.0844661
0.0756272
0.0677696
0.0609312
0.0550861
0.0501435
0.0459957
0.0425452
0.0397191
0.0374703
0.0357836
0.0346769
0.0342005
0.0343055
0.0348558
0.0360893
0.038086
0.105243
0.137537
0.143144
0.129003
0.112744
0.100686
0.0896053
0.0792132
0.0699215
0.0619289
0.0551894
0.0495831
0.0449583
0.0411775
0.0381281
0.0357252
0.033915
0.0326782
0.0320257
0.0319735
0.0323312
0.0332602
0.0347991
0.0368379
0.105523
0.140887
0.137919
0.123183
0.109827
0.0971505
0.0848059
0.0736963
0.0642952
0.0564956
0.0501147
0.0449318
0.0407473
0.0373954
0.0347477
0.0327133
0.0312395
0.0303098
0.0299356
0.0300549
0.0306131
0.0317412
0.0333509
0.0353323
0.106839
0.141216
0.133336
0.121185
0.107596
0.0930094
0.0795363
0.0682486
0.0590509
0.0516457
0.045711
0.0409686
0.0371933
0.0342094
0.031886
0.0301351
0.0289082
0.0281908
0.0279908
0.0282134
0.0288981
0.0300729
0.0316692
0.0335466
0.106039
0.138469
0.131632
0.121079
0.104597
0.0879734
0.0740008
0.0628884
0.0541444
0.0472551
0.0418161
0.0375209
0.0341356
0.0314834
0.0294363
0.0279102
0.0268601
0.0262713
0.0261483
0.0264071
0.0271086
0.0282392
0.0297507
0.0314991
0.103822
0.136863
0.132451
0.120643
0.0999573
0.0820591
0.0682667
0.0577546
0.0496517
0.0433442
0.0384088
0.0345372
0.0314986
0.029122
0.0272867
0.0259152
0.0249663
0.0244275
0.0243034
0.0245375
0.0251727
0.0261983
0.0275821
0.0291912
0.113063
0.139969
0.136887
0.117879
0.0935589
0.0756942
0.0626973
0.0529934
0.0455857
0.0398581
0.0353958
0.0319011
0.0291549
0.0269978
0.0253187
0.0240464
0.0231433
0.0225983
0.0224175
0.0225767
0.023086
0.0239628
0.0251902
0.0266566
0.132464
0.151377
0.139419
0.109792
0.0858773
0.0693127
0.0574472
0.0486305
0.0419224
0.0367452
0.03271
0.0295402
0.027035
0.0250494
0.0234821
0.0222673
0.0213695
0.0207779
0.0204995
0.0205402
0.020881
0.0215728
0.0226208
0.0239439
0.156097
0.163639
0.135854
0.100731
0.0783077
0.0632975
0.0526136
0.0446797
0.0386362
0.0339585
0.0302956
0.027399
0.0250892
0.0232359
0.0217469
0.0205606
0.0196418
0.0189782
0.0185764
0.0184533
0.0186068
0.0190706
0.019914
0.0210901
0.00621768
0.0314712
0.0729834
0.116506
0.153607
0.159909
0.0192882
0.0621752
0.108627
0.154889
0.195256
0.232232
0.0273437
0.0783616
0.125866
0.171733
0.206502
0.222619
0.032918
0.0880732
0.134578
0.175993
0.199366
0.197267
0.0370611
0.0942736
0.138272
0.173616
0.184015
0.172475
0.0400859
0.0981493
0.138883
0.167172
0.167709
0.150449
0.0422155
0.100325
0.137624
0.159135
0.153868
0.133148
0.0436162
0.101167
0.135155
0.151178
0.142444
0.121231
0.0444126
0.1009
0.131968
0.144042
0.133389
0.11324
0.0446976
0.0996653
0.128359
0.137916
0.126531
0.10783
0.0445401
0.0975636
0.124492
0.13272
0.121572
0.104156
0.0439421
0.0946416
0.120467
0.128269
0.118157
0.101784
0.0429578
0.0909284
0.11629
0.124493
0.1159
0.100447
0.041647
0.0864512
0.111926
0.121254
0.11458
0.100079
0.0400412
0.0812531
0.107282
0.118384
0.114012
0.100484
0.0381366
0.0753979
0.102189
0.11571
0.114035
0.101754
0.0359177
0.0689615
0.0963829
0.113065
0.114465
0.103867
0.0333286
0.0620011
0.089532
0.110139
0.115182
0.106828
0.0302173
0.0545771
0.0814946
0.106089
0.116063
0.110597
0.0262196
0.0468042
0.0722103
0.0997853
0.116571
0.114978
0.0242344
0.0390279
0.0615873
0.0897763
0.116304
0.118792
0.0223361
0.0314064
0.0493481
0.0746506
0.112295
0.120343
0.0184985
0.0225235
0.0346066
0.0521191
0.0975492
0.115427
0.00534644
0.00746618
0.0133002
0.0231002
0.0658803
0.109596
0.197107
0.169671
0.121409
0.0905718
0.0709501
0.0577221
0.0482318
0.0411346
0.0356932
0.0314527
0.0281065
0.0254365
0.0232842
0.0215333
0.0200997
0.0189247
0.0179719
0.0172247
0.0166856
0.016371
0.0163039
0.0165094
0.0170996
0.0181126
0.213978
0.154074
0.108379
0.0811384
0.0641934
0.0526931
0.0443189
0.0379735
0.033057
0.0291899
0.0261098
0.0236274
0.0216032
0.0199335
0.0185413
0.0173704
0.0163819
0.0155531
0.0148776
0.0143641
0.0140344
0.0139407
0.0142095
0.0150055
0.190186
0.131207
0.0945313
0.0725948
0.0583663
0.048345
0.0408905
0.0351696
0.0306935
0.0271403
0.0242833
0.0219574
0.0200398
0.0184377
0.0170806
0.0159145
0.0148985
0.0140033
0.0132103
0.0125126
0.0119167
0.011463
0.0113087
0.0117739
0.160421
0.113066
0.083943
0.0657105
0.053403
0.0445386
0.0378534
0.0326659
0.0285658
0.0252792
0.0226115
0.020419
0.0185935
0.0170521
0.0157302
0.0145767
0.0135503
0.012617
0.0117477
0.0109177
0.0101059
0.00931344
0.00862695
0.00841722
0.134909
0.0986895
0.0753709
0.0599276
0.0491439
0.041228
0.0351811
0.0304381
0.0266524
0.0235902
0.0210835
0.019007
0.0172648
0.0157826
0.0145016
0.0133744
0.0123619
0.0114301
0.0105481
0.00968336
0.00879735
0.00785006
0.0068257
0.00546532
0.117113
0.0883475
0.0686866
0.0551395
0.0455032
0.0383481
0.0328262
0.0284524
0.0249294
0.0220566
0.0196884
0.0177146
0.01605
0.014628
0.0133952
0.0123088
0.0113334
0.0104391
0.00959962
0.00878813
0.00797201
0.00711818
0.00621157
0.00507848
0.105181
0.0807172
0.0633092
0.0511236
0.0423859
0.0358457
0.0307529
0.0266828
0.023378
0.0206646
0.0184154
0.0165329
0.0149406
0.0135783
0.0123975
0.0113593
0.0104316
0.0095879
0.00880534
0.00806047
0.00732402
0.00656916
0.00579585
0.0048861
0.0969378
0.0748888
0.0589319
0.0477511
0.0397183
0.0336727
0.0289282
0.0251063
0.0219814
0.0194016
0.0172544
0.0154524
0.0139266
0.0126215
0.0114926
0.0105038
0.00962559
0.00883384
0.00810788
0.00742674
0.00676446
0.00610046
0.00544353
0.00471109
0.0910681
0.0703302
0.0553421
0.0449188
0.0374408
0.03179
0.0273251
0.0237035
0.0207255
0.0182566
0.0161963
0.0144652
0.0129995
0.011748
0.0106689
0.00972847
0.00889899
0.00815805
0.00748675
0.00686622
0.0062737
0.00569384
0.00513963
0.00455075
0.0867813
0.0667254
0.0523998
0.0425492
0.0355045
0.0301646
0.0259206
0.0224582
0.0195985
0.0172209
0.015234
0.0135645
0.0121531
0.0109512
0.00991938
0.0090255
0.00824338
0.00755188
0.00693352
0.00637117
0.00584482
0.00534291
0.00487913
0.00440817
0.0836441
0.0638851
0.0500064
0.0405848
0.0338707
0.0287695
0.0246957
0.021357
0.0185906
0.016287
0.0143614
0.0127454
0.0113824
0.0102264
0.00923925
0.00839017
0.00765402
0.00701069
0.00644372
0.00593726
0.00547338
0.00504286
0.00465789
0.00428376
0.0814175
0.0616946
0.0480955
0.0389807
0.0325077
0.0275822
0.0236344
0.0203884
0.0176936
0.0154486
0.0135736
0.0120034
0.0106838
0.00956992
0.00862498
0.00781892
0.0071274
0.00653098
0.0060138
0.00556079
0.00515537
0.00478939
0.00447224
0.00417705
0.0799713
0.0600866
0.0466194
0.0377009
0.0313894
0.0265844
0.0227239
0.0195431
0.0169005
0.0147003
0.0128662
0.011335
0.0100537
0.00897853
0.00807328
0.00730846
0.00666015
0.00610925
0.00564008
0.00523777
0.00488643
0.00457794
0.00431835
0.00408683
0.0792325
0.0590226
0.0455451
0.0367187
0.0304962
0.0257617
0.0219537
0.0188136
0.0162056
0.0140375
0.0122352
0.0107364
0.00948885
0.00844897
0.00758091
0.00685542
0.00624876
0.00574176
0.00531848
0.00496374
0.0046617
0.00440363
0.00419224
0.00401154
0.0791921
0.0584916
0.0448538
0.0360162
0.0298138
0.0251034
0.0213159
0.0181937
0.0156039
0.0134561
0.011677
0.0102044
0.00898597
0.00797794
0.00714448
0.00645628
0.00588945
0.00542442
0.00504452
0.00473381
0.00447605
0.00426151
0.00409001
0.00394954
0.0798565
0.0585056
0.0445404
0.0355829
0.0293328
0.0246017
0.0208041
0.0176784
0.0150912
0.0129524
0.0111883
0.00973577
0.00854179
0.00756212
0.00676051
0.00610733
0.00557823
0.00515285
0.00481342
0.00454284
0.00432423
0.00414681
0.00400808
0.00389924
0.0812823
0.0590975
0.0446113
0.0354152
0.0290478
0.0242515
0.0204141
0.0172639
0.0146642
0.0125233
0.0107658
0.00932726
0.0081531
0.00719816
0.00642546
0.00580478
0.00531097
0.00492255
0.00462027
0.0043857
0.00420124
0.00405514
0.00394319
0.00385913
0.0835454
0.0603193
0.0450816
0.0355117
0.0289559
0.0240496
0.0201424
0.0169471
0.0143198
0.0121657
0.0104067
0.00897593
0.0078168
0.00688275
0.00613581
0.00554482
0.00508354
0.004729
0.00446025
0.00425746
0.0041024
0.0039826
0.00389255
0.00382782
0.0867494
0.0622519
0.045976
0.0358823
0.0290452
0.0239934
0.0199869
0.0167257
0.0140558
0.0118773
0.0101085
0.00867905
0.00752993
0.00661273
0.00588812
0.00532374
0.0048919
0.00456786
0.00432881
0.00415359
0.00402356
0.00392578
0.00385374
0.00380405
0.0910217
0.0649764
0.0473302
0.0365309
0.0293362
0.0240646
0.0199451
0.0165977
0.01387
0.011656
0.0098689
0.00843426
0.00728991
0.00638519
0.00567915
0.00513795
0.00473217
0.00443504
0.00422178
0.00407006
0.003961
0.0038816
0.00382458
0.00378662
0.0964891
0.0685762
0.0491654
0.0374669
0.0298162
0.0242942
0.0200047
0.016561
0.0137607
0.0115001
0.00968628
0.00823972
0.00709458
0.00619763
0.00550601
0.00498416
0.00460074
0.00432675
0.00413545
0.00400336
0.00391152
0.00384716
0.00380288
0.00377409
0.103233
0.0731229
0.0514856
0.038687
0.0304798
0.0246537
0.0201737
0.0166067
0.0137261
0.0114084
0.00955945
0.00809418
0.00694251
0.00604824
0.00536644
0.00485966
0.00449452
0.00423976
0.0040667
0.0039508
0.00387298
0.0038206
0.00378644
0.00376494
0.111249
0.0786331
0.0542447
0.0401671
0.0313155
0.0251394
0.0204485
0.0167308
0.0137598
0.0113797
0.00948774
0.00799706
0.00683297
0.00593605
0.00525907
0.00476266
0.00441134
0.00417168
0.00401317
0.00391026
0.00384371
0.00380085
0.0037743
0.00375862
0.120481
0.084858
0.0573011
0.0418461
0.0322955
0.0257384
0.0208141
0.0169409
0.0138563
0.0114092
0.00947075
0.00794825
0.00676588
0.0058607
0.00518322
0.00469206
0.00434976
0.00412083
0.00397306
0.00387996
0.00382207
0.0037866
0.00376591
0.00375469
0.00598105
0.0264846
0.0613464
0.0875432
0.104625
0.115897
0.0190755
0.0507917
0.0837175
0.107031
0.123406
0.133893
0.0280589
0.0703176
0.100647
0.121027
0.13434
0.140898
0.0349437
0.0836056
0.112334
0.130721
0.140647
0.143998
0.0407413
0.0932012
0.121152
0.137908
0.145392
0.146397
0.0456629
0.100335
0.128039
0.143716
0.149784
0.148957
0.049694
0.105772
0.133567
0.148822
0.154254
0.152048
0.0528959
0.109945
0.138114
0.153589
0.158953
0.1559
0.0553402
0.113109
0.141919
0.15819
0.163997
0.160648
0.0570902
0.115407
0.145125
0.162692
0.169466
0.166379
0.0581959
0.116911
0.147804
0.167094
0.175402
0.173161
0.058701
0.117624
0.149972
0.171336
0.18181
0.181034
0.0587187
0.117516
0.151588
0.175312
0.188627
0.190001
0.0584495
0.116456
0.152529
0.178903
0.195657
0.200031
0.0577982
0.114418
0.15261
0.181901
0.202633
0.210982
0.0566733
0.111308
0.151582
0.183947
0.2092
0.222576
0.0549747
0.106998
0.149145
0.18457
0.214815
0.234437
0.0525795
0.101354
0.144978
0.183376
0.218705
0.245865
0.0493267
0.0942528
0.138755
0.179498
0.219789
0.255935
0.0450231
0.0856169
0.130205
0.172392
0.217212
0.263366
0.039454
0.0754102
0.119031
0.161194
0.208508
0.266167
0.0324321
0.0634168
0.104584
0.144634
0.191143
0.262059
0.023349
0.04813
0.0845735
0.120078
0.160905
0.240641
0.00729439
0.0196305
0.045471
0.0754841
0.11425
0.144086
0.129806
0.0905386
0.060359
0.0436149
0.0333786
0.0264334
0.0212659
0.0172296
0.0140267
0.0114939
0.00950409
0.00794795
0.00674164
0.00582229
0.00513865
0.0046472
0.00430875
0.00408596
0.00394504
0.0038586
0.00380681
0.00377672
0.00376043
0.00375239
0.13419
0.0939474
0.0630336
0.0453667
0.034527
0.0272082
0.0217971
0.0175919
0.0142689
0.0116468
0.00959111
0.00799144
0.00675824
0.00582111
0.00512569
0.00462793
0.00428774
0.00406628
0.00392825
0.00384528
0.00379705
0.0037704
0.00375718
0.00375125
0.134445
0.0958311
0.0653109
0.0470692
0.0357235
0.028055
0.022405
0.0180288
0.0145804
0.011866
0.00974174
0.00809049
0.00681934
0.00585552
0.0051425
0.00463375
0.0042868
0.00406172
0.00392247
0.00383973
0.00379251
0.00376754
0.00375568
0.00375082
0.133574
0.0971007
0.067363
0.0487552
0.0369753
0.028977
0.0230922
0.0185433
0.0149648
0.0121518
0.00995279
0.00824507
0.00693101
0.0059344
0.00519611
0.00466805
0.00430728
0.00407309
0.00392826
0.0038424
0.00379359
0.00376794
0.00375581
0.00375084
0.133225
0.0984395
0.0694012
0.0504943
0.0383088
0.0299874
0.0238667
0.019141
0.015427
0.012509
0.0102283
0.00845685
0.00709273
0.00605627
0.00528587
0.00473198
0.00435103
0.00410189
0.00394667
0.00385394
0.00380065
0.0037718
0.00375767
0.00375138
0.133869
0.100222
0.071619
0.0523712
0.039763
0.0311064
0.0247406
0.0198306
0.0159737
0.0129433
0.0105732
0.00873052
0.00730891
0.00622538
0.00541573
0.00482893
0.0044209
0.00415052
0.0039796
0.00387577
0.00381466
0.00377995
0.00376173
0.00375281
0.135671
0.10269
0.074182
0.0544737
0.0413837
0.0323593
0.0257293
0.0206225
0.0166132
0.0134614
0.0109936
0.00907144
0.00758452
0.00644637
0.00559011
0.00496306
0.00452072
0.00422228
0.00402968
0.00390979
0.0038369
0.00379348
0.00376888
0.00375576
0.138712
0.106002
0.0772339
0.0568911
0.0432221
0.0337757
0.026851
0.0215293
0.0173546
0.014071
0.011496
0.00948561
0.00792514
0.00672455
0.00581415
0.0051394
0.00465531
0.00432157
0.00410065
0.00395904
0.00386972
0.00381393
0.00378041
0.00376086
0.143055
0.110303
0.0809182
0.0597188
0.0453358
0.0353893
0.0281267
0.0225649
0.0182085
0.0147804
0.0120876
0.00997955
0.00833687
0.00706582
0.00609365
0.00536378
0.00483045
0.00445385
0.00419734
0.00402748
0.00391621
0.00384358
0.00379773
0.00376906
0.148769
0.115743
0.085386
0.0630628
0.0477903
0.0372393
0.0295801
0.0237449
0.0191858
0.0155985
0.0127761
0.0105602
0.00882622
0.00747646
0.00643488
0.00564252
0.00505252
0.0046254
0.00432557
0.00412016
0.00398043
0.00388542
0.0038225
0.00378131
0.15595
0.122495
0.0908065
0.0670444
0.0506619
0.0393709
0.0312382
0.0250865
0.0202987
0.0165346
0.0135692
0.0112345
0.00939992
0.00796305
0.00684438
0.0059823
0.00532845
0.00484328
0.0044922
0.00424322
0.0040674
0.00394299
0.00385675
0.00379853
0.164705
0.130758
0.0973771
0.0718077
0.0540421
0.041839
0.033133
0.0266091
0.0215602
0.0175983
0.0144751
0.01201
0.0100649
0.00853235
0.007329
0.00639019
0.00566564
0.0051152
0.00470493
0.00440381
0.00418305
0.00402057
0.00390322
0.00382193
0.175149
0.140754
0.105333
0.0775295
0.0580443
0.0447109
0.035303
0.0283354
0.0229847
0.0188001
0.0155019
0.0128937
0.010828
0.00919138
0.00789591
0.00687366
0.00607195
0.00544946
0.00497229
0.00461012
0.00433447
0.00412355
0.00396558
0.00385312
0.187378
0.152716
0.114946
0.084427
0.0628102
0.0480706
0.0377959
0.0302927
0.0245887
0.0201508
0.0166581
0.0138931
0.0116964
0.00994712
0.00855236
0.00744031
0.00655543
0.00585458
0.00530317
0.00487097
0.00452975
0.00425876
0.00404925
0.00389466
0.201442
0.166873
0.126512
0.0927564
0.068515
0.0520232
0.0406714
0.0325142
0.0263915
0.0216627
0.0179524
0.0150152
0.0126765
0.0108063
0.00930532
0.00809748
0.00712385
0.00633883
0.00570637
0.0051956
0.00477818
0.00443461
0.00416006
0.00394908
0.217289
0.183435
0.140333
0.102806
0.0753681
0.0566987
0.0440043
0.0350414
0.0284162
0.0233494
0.0193937
0.016267
0.0137746
0.0117748
0.010161
0.00885178
0.00778425
0.00690978
0.00619013
0.00559303
0.00508919
0.00465988
0.00430444
0.00401895
0.234588
0.202588
0.156658
0.114871
0.0836098
0.0622549
0.047888
0.0379258
0.030691
0.0252268
0.0209918
0.0176551
0.014996
0.0128578
0.0111246
0.00970873
0.0085426
0.00757399
0.00676181
0.00607147
0.00547167
0.00494328
0.00448925
0.00410718
0.25309
0.224094
0.175572
0.129208
0.0934965
0.0688764
0.0524372
0.0412326
0.0332513
0.0273146
0.0227581
0.0191867
0.0163458
0.0140594
0.0122002
0.0106726
0.00940363
0.00833683
0.00742753
0.00663794
0.00593352
0.00529298
0.00472149
0.00421684
0.272274
0.247259
0.196913
0.145942
0.105261
0.076764
0.0577849
0.0450418
0.0361427
0.029638
0.0247065
0.0208698
0.0178289
0.0153833
0.0133907
0.0117464
0.0103708
0.00920233
0.00819207
0.0072981
0.00648131
0.00571622
0.00500771
0.00435068
0.291147
0.270866
0.220274
0.164978
0.119049
0.086108
0.0640784
0.0494481
0.0394206
0.0322285
0.0268547
0.0227144
0.0194513
0.0168329
0.0146988
0.0129324
0.0114465
0.0101733
0.00905891
0.00805631
0.00712043
0.00621926
0.00535386
0.00451029
0.308194
0.293204
0.244592
0.185812
0.134807
0.0970389
0.0714601
0.0545568
0.0431517
0.0351253
0.0292257
0.0247339
0.0212205
0.0184129
0.0161272
0.0142327
0.0126324
0.0112516
0.0100304
0.00891559
0.00785484
0.00680737
0.00576699
0.00469786
0.32097
0.311714
0.267972
0.207373
0.152139
0.109546
0.0800342
0.0604702
0.0474104
0.0383763
0.0318488
0.0269462
0.0231478
0.0201303
0.0176805
0.0156501
0.0139307
0.0124392
0.0111086
0.00987882
0.00868893
0.00748666
0.00625197
0.00491317
0.321019
0.32235
0.288058
0.228111
0.170217
0.123381
0.0898194
0.0672688
0.0522711
0.0420355
0.0347602
0.029375
0.0252491
0.0219962
0.0193669
0.0171913
0.0153468
0.0137407
0.012298
0.0109507
0.00962844
0.00826428
0.0068152
0.00515424
0.279316
0.318796
0.298927
0.246158
0.187807
0.137969
0.10068
0.0749858
0.0577983
0.0461594
0.0380013
0.03205
0.027546
0.0240273
0.0212006
0.018869
0.0168933
0.0151689
0.0136114
0.0121442
0.0106866
0.00915469
0.00747061
0.00542137
)
;

boundaryField
{
    rotor
    {
        type            kqRWallFunction;
        value           nonuniform List<scalar> 
144
(
0.00837031
0.0157072
0.0267286
0.0320223
0.033293
0.040701
0.00837031
0.0247256
0.0330971
0.0391716
0.0438902
0.0476863
0.0508256
0.0534515
0.0556459
0.0574674
0.0589704
0.060214
0.0608304
0.0607852
0.060029
0.0585329
0.0562261
0.053045
0.0489279
0.0438379
0.037727
0.0303939
0.0210859
0.00623164
0.00623164
0.0253373
0.0565577
0.0839786
0.102934
0.117946
0.00340612
0.00797523
0.0236341
0.0497534
0.0820549
0.117569
0.00340612
0.0145429
0.0190335
0.0215336
0.0234505
0.024679
0.0252459
0.0261595
0.0268817
0.0273726
0.0276194
0.0276154
0.027362
0.0269712
0.0264131
0.0256957
0.0249659
0.02492
0.0244652
0.0235286
0.022102
0.0201745
0.016382
0.00435311
0.00435311
0.00888526
0.01486
0.0226097
0.027345
0.036624
0.00621768
0.0314712
0.0729834
0.116506
0.153607
0.159909
0.00621768
0.0192882
0.0273437
0.032918
0.0370611
0.0400859
0.0422155
0.0436162
0.0444126
0.0446976
0.0445401
0.0439421
0.0429578
0.041647
0.0400412
0.0381366
0.0359177
0.0333286
0.0302173
0.0262196
0.0242344
0.0223361
0.0184985
0.00534644
0.00534644
0.00746618
0.0133002
0.0231002
0.0658803
0.109596
0.00598105
0.0264846
0.0613464
0.0875432
0.104625
0.115897
0.00598105
0.0190755
0.0280589
0.0349437
0.0407413
0.0456629
0.049694
0.0528959
0.0553402
0.0570902
0.0581959