/*--------------------------------*- C++ -*----------------------------------*\
  =========                 |
  \\      /  F ield         | OpenFOAM: The Open Source CFD Toolbox
   \\    /   O peration     | Website:  https://openfoam.org
    \\  /    A nd           | Version:  11
     \\/     M anipulation  |
\*---------------------------------------------------------------------------*/
FoamFile
{
    format      ascii;
    class       volScalarField;
    location    "0.22";
    object      nut;
}
// * * * * * * * * * * * * * * * * * * * * * * * * * * * * * * * * * * * * * //

dimensions      [0 2 -1 0 0 0 0];

internalField   nonuniform List<scalar> 
2880
(
1.61074e-06
5.86528e-06
1.64442e-05
2.93833e-05
4.26252e-05
6.92125e-05
4.27517e-05
7.01251e-05
0.000125954
0.000156309
0.000181803
0.000191528
5.43189e-05
0.00012392
0.00022012
0.000266142
0.000299058
0.000288247
5.91145e-05
0.000164244
0.000292081
0.000356713
0.000393501
0.000376601
6.25924e-05
0.000202654
0.000354408
0.000432848
0.000473433
0.00045848
6.5257e-05
0.000241258
0.000410932
0.00050006
0.00054326
0.000532708
6.73799e-05
0.000279416
0.000461838
0.000559259
0.000604904
0.000600278
6.91039e-05
0.000315855
0.000506398
0.000610109
0.000659635
0.000662485
7.05107e-05
0.000349079
0.000543935
0.000653113
0.000708333
0.0007199
7.16559e-05
0.000377475
0.00057405
0.000688794
0.000751647
0.000772924
7.25859e-05
0.000399361
0.000596571
0.000717516
0.000789722
0.000821758
7.33445e-05
0.000412937
0.000611483
0.000739139
0.000821812
0.000865649
7.37116e-05
0.000419956
0.000618651
0.000753443
0.000847679
0.000904949
7.36784e-05
0.000420789
0.00061776
0.000759703
0.000866408
0.000939146
7.32115e-05
0.000414807
0.000608001
0.000756749
0.000876336
0.000966522
7.22856e-05
0.00040239
0.000589
0.000741812
0.000874351
0.000984333
7.08396e-05
0.000382289
0.000560014
0.000715397
0.000856959
0.000985125
6.87995e-05
0.000353708
0.000519975
0.000674051
0.000822957
0.000971001
6.60693e-05
0.00031577
0.00046797
0.000615457
0.000765547
0.00093088
6.25331e-05
0.000267528
0.00040325
0.000537569
0.000679741
0.00085481
5.80044e-05
0.000209621
0.000325328
0.000441123
0.000561173
0.000724892
5.20589e-05
0.000142427
0.000233857
0.000328089
0.000407967
0.000517585
3.64723e-05
6.69467e-05
0.000129473
0.000200116
0.000242951
0.000246999
1.19904e-06
9.42895e-06
3.46065e-05
7.66438e-05
0.000131172
4.69343e-05
0.000272718
0.000782489
0.00122241
0.00152059
0.00160941
0.00166369
0.00174716
0.00189947
0.00213171
0.00243224
0.00277807
0.00314524
0.0035128
0.00386249
0.00417752
0.00444188
0.00464048
0.00475973
0.00478782
0.00471463
0.00453075
0.00422579
0.00378776
0.00325687
0.000208143
0.00065688
0.00103208
0.00138046
0.00152053
0.00159121
0.0016652
0.00179003
0.00198805
0.00225779
0.00258243
0.00293981
0.00330837
0.00366851
0.00400201
0.00429154
0.0045205
0.00467339
0.0047359
0.00469432
0.0045338
0.00423473
0.00376817
0.00314564
0.000185754
0.000565244
0.000914395
0.00124423
0.00144336
0.00152308
0.00159202
0.00169483
0.00186023
0.00209623
0.00239367
0.00273428
0.00309741
0.003463
0.00381213
0.00412679
0.00438996
0.00458591
0.00470024
0.00471904
0.00462721
0.00441231
0.00410173
0.0038593
0.000241112
0.000486802
0.000818378
0.00110866
0.00136435
0.00145793
0.0015263
0.00161272
0.00174902
0.0019506
0.0022163
0.00253346
0.00288408
0.00324896
0.00360947
0.00394817
0.00424941
0.00450021
0.00469103
0.00481591
0.004872
0.00486245
0.00481069
0.00477041
0.000346632
0.000437117
0.000750126
0.000992026
0.00125555
0.00138964
0.00146383
0.0015408
0.00165337
0.00182226
0.00205373
0.00234171
0.00267249
0.00302924
0.00339491
0.00375388
0.00409311
0.00440304
0.00467765
0.00491319
0.00510588
0.00525118
0.00534829
0.00540425
0.000451813
0.000422319
0.00069596
0.00090802
0.0011627
0.00133152
0.00140724
0.00147773
0.00157158
0.00171112
0.00190805
0.00216272
0.00246681
0.00280732
0.00317014
0.00354262
0.00391504
0.00428067
0.00463386
0.00496643
0.00526474
0.00551122
0.00568151
0.00579248
0.000543911
0.000437081
0.000653363
0.00084116
0.00105524
0.00125985
0.00135018
0.00142043
0.00150114
0.0016159
0.00178003
0.00199936
0.00227124
0.00258749
0.0029381
0.00331429
0.00371002
0.0041208
0.00453957
0.00495147
0.00533229
0.00564386
0.00587391
0.00601155
0.000624907
0.000482902
0.000628359
0.000795707
0.000971406
0.00117836
0.00129417
0.00136601
0.00143883
0.00153423
0.00166914
0.00185341
0.00208958
0.00237465
0.00270333
0.00307124
0.0034762
0.00391591
0.00438205
0.00485411
0.00529862
0.00566212
0.00593749
0.00609906
0.000697025
0.000540705
0.000622131
0.000759244
0.000905238
0.00110333
0.0012434
0.00131562
0.00138308
0.00146382
0.00157401
0.00172558
0.00192495
0.00217384
0.00247174
0.00281871
0.00321651
0.00366559
0.00415796
0.00467037
0.0051592
0.00557034
0.00588229
0.00606594
0.000760194
0.00061404
0.000646255
0.000735353
0.000852546
0.00102589
0.00117985
0.00126372
0.00133106
0.00140203
0.00149253
0.00161529
0.00177917
0.00198951
0.00224986
0.0025643
0.0029384
0.00337607
0.00387189
0.00440318
0.00492268
0.00537039
0.00571678
0.005919
0.000818295
0.000702093
0.000680327
0.000728914
0.000818798
0.000964405
0.00111888
0.00121242
0.00128078
0.00134627
0.00142216
0.00152096
0.00165265
0.00182481
0.00204386
0.00231692
0.00265277
0.00305912
0.00353513
0.00406235
0.00459809
0.0050694
0.00544702
0.00566622
0.000873984
0.00079142
0.000741695
0.000741926
0.000804517
0.000920599
0.00106066
0.00116233
0.0012326
0.00129482
0.00136058
0.00144053
0.00154465
0.00168143
0.00185878
0.00208553
0.00237247
0.00273068
0.00316504
0.00366457
0.00419522
0.00467917
0.00508077
0.00531741
0.000928324
0.000875997
0.000824848
0.00077936
0.000811523
0.000897964
0.00101277
0.00111072
0.00118463
0.00124616
0.00130557
0.00137167
0.00145351
0.00155953
0.00169788
0.0018777
0.00211034
0.00240876
0.00278306
0.00323151
0.00373074
0.00421784
0.00462696
0.00488367
0.000980883
0.000956055
0.00090898
0.000847162
0.000835944
0.000894052
0.000987649
0.00107119
0.00114197
0.00120165
0.00125625
0.00131239
0.00137712
0.00145794
0.00156229
0.00169854
0.00187712
0.00211092
0.00241307
0.00279028
0.00323225
0.0037011
0.00410503
0.00437789
0.00102961
0.00102807
0.000991517
0.000932446
0.000889803
0.000906855
0.000973073
0.00104368
0.00110762
0.00116327
0.00121326
0.0012616
0.00131344
0.00137459
0.00145117
0.00155003
0.0016797
0.00185124
0.00207785
0.00237148
0.00273455
0.00314699
0.00354528
0.00381812
0.00107293
0.001091
0.00107066
0.00102241
0.000966581
0.000955673
0.000982433
0.00103416
0.00108647
0.00113479
0.00117875
0.00121999
0.00126163
0.00130765
0.00136254
0.00143138
0.00152043
0.0016379
0.00179457
0.00200307
0.00227386
0.00260512
0.00296344
0.00323899
0.00110211
0.0011437
0.00114125
0.00110654
0.00105607
0.0010294
0.00103007
0.00105406
0.00108759
0.00112331
0.00115798
0.00119091
0.00122315
0.00125688
0.00129493
0.00134065
0.00139813
0.00147272
0.00157169
0.00170479
0.0018837
0.00211791
0.0024012
0.00266189
0.001119
0.00118346
0.00119764
0.0011802
0.00114403
0.00111476
0.00110021
0.00110239
0.00111599
0.00113571
0.00115777
0.0011801
0.00120222
0.00122473
0.00124897
0.00127679
0.00131054
0.00135324
0.00140902
0.00148371
0.00158548
0.00172502
0.00191237
0.00213019
0.00112131
0.0012151
0.00124102
0.00123842
0.00122089
0.00119784
0.00117971
0.00117012
0.00116878
0.00117364
0.0011823
0.00119278
0.00120394
0.00121542
0.0012275
0.00124087
0.0012566
0.00127615
0.00130148
0.00133541
0.001382
0.00144735
0.00154074
0.00168808
0.00110354
0.00123378
0.00127211
0.00128178
0.00127618
0.00126886
0.00125557
0.00124375
0.00123553
0.00123093
0.00122921
0.00122933
0.00123038
0.00123178
0.00123325
0.00123482
0.00123677
0.00123959
0.001244
0.00125109
0.00126236
0.00128047
0.00130594
0.00137764
0.00105886
0.00124074
0.00129383
0.00131237
0.00131807
0.00131675
0.00131734
0.00131221
0.00130389
0.00129652
0.00128996
0.00128405
0.00127843
0.00127272
0.00126662
0.0012599
0.00125246
0.00124429
0.00123549
0.00122629
0.00121682
0.00120904
0.00119721
0.00121263
0.000990391
0.00123765
0.00131084
0.00133539
0.00134862
0.00135742
0.00136069
0.00136378
0.00136527
0.00136109
0.00135489
0.00134838
0.00134137
0.00133381
0.00132556
0.0013163
0.00130579
0.00129389
0.00128044
0.00126538
0.0012481
0.00123051
0.00120618
0.00119431
0.00089456
0.00123098
0.00133026
0.0013588
0.00137839
0.00139195
0.00140278
0.00141011
0.00141365
0.00141761
0.00141901
0.00141702
0.00141382
0.00141054
0.00140704
0.00140225
0.00139575
0.0013883
0.00137972
0.0013698
0.00135799
0.00134532
0.0013275
0.00131696
0.000790932
0.00123494
0.00135755
0.0013927
0.00141586
0.00143559
0.00144946
0.00146145
0.00147124
0.00147796
0.00148393
0.00149
0.00149598
0.0015024
0.00151008
0.00151937
0.00152887
0.0015376
0.00154592
0.00155401
0.00156198
0.00157022
0.00157753
0.00158744
6.57574e-07
2.98323e-06
1.45709e-05
4.56852e-05
0.000104924
0.000200244
2.5193e-05
3.67226e-05
7.96585e-05
0.000153912
0.00026459
0.000424195
0.000152134
9.5117e-05
0.000173657
0.000284707
0.000441814
0.000658588
0.000172131
0.000154193
0.000264448
0.000406336
0.000595217
0.00083273
0.000187464
0.000208962
0.000346215
0.000511388
0.000713404
0.000943045
0.000197293
0.000256509
0.000416817
0.000596992
0.000797491
0.00100411
4.75781e-05
0.000293359
0.000475244
0.000662535
0.000853667
0.00102905
4.84332e-05
0.000321546
0.000521234
0.000709191
0.000885046
0.00102928
4.90967e-05
0.000341635
0.000555145
0.000739333
0.000896634
0.001011
4.95413e-05
0.000354287
0.000577731
0.000755192
0.000892842
0.000979244
4.97618e-05
0.000360087
0.000589967
0.00075921
0.00087744
0.000938243
4.97564e-05
0.000359448
0.000592818
0.000753515
0.000853553
0.000891473
4.95259e-05
0.000352263
0.000587201
0.000739937
0.000823659
0.000841621
4.91695e-05
0.000338368
0.000573861
0.000720022
0.000789602
0.00079056
4.86567e-05
0.000319628
0.000553758
0.000694671
0.000752554
0.000739313
4.79892e-05
0.000298095
0.000528136
0.000664153
0.000712935
0.000687734
4.72859e-05
0.000278229
0.000498402
0.000628029
0.000670256
0.000633859
0.000199144
0.00027181
0.000464949
0.000585316
0.000622843
0.00057543
0.000195517
0.000258873
0.000424361
0.000534866
0.000568025
0.000510746
0.000188036
0.000235631
0.000372705
0.000472522
0.000502603
0.000437651
0.000176636
0.000197099
0.00030599
0.000393175
0.000422807
0.000360423
0.000161233
0.0001402
0.000217844
0.000288619
0.000321349
0.000284052
2.83805e-05
6.15283e-05
0.000105529
0.000152258
0.000182879
0.000198337
8.40553e-07
3.3186e-06
9.11844e-06
2.06595e-05
3.48293e-05
6.20406e-05
0.000895083
0.0012678
0.00139367
0.0014394
0.00146993
0.00149717
0.00151536
0.00153151
0.00154568
0.00155801
0.0015701
0.00158273
0.0015962
0.0016106
0.00162658
0.0016455
0.00166898
0.00169586
0.00172487
0.00175514
0.00178573
0.00181541
0.00184248
0.00186682
0.00101397
0.00130847
0.00143299
0.00149274
0.00153642
0.00157639
0.00160404
0.00162633
0.00164666
0.00166484
0.00168253
0.00170095
0.0017208
0.00174247
0.00176615
0.00179168
0.00181858
0.00184688
0.00187641
0.00190693
0.00193777
0.00196784
0.00199544
0.00201736
0.00111067
0.00134186
0.00146244
0.00153355
0.00159422
0.00165223
0.00169512
0.0017291
0.0017599
0.00178659
0.0018111
0.00183489
0.00185895
0.00188388
0.00190996
0.00193726
0.00196571
0.00199517
0.00202509
0.00205459
0.00208282
0.00210859
0.00213014
0.00214504
0.00117249
0.00135764
0.00146418
0.00154392
0.00161737
0.00168807
0.00174354
0.00178696
0.0018259
0.00185881
0.00188751
0.00191344
0.0019377
0.00196108
0.00198401
0.00200666
0.00202896
0.00205066
0.00207136
0.00209061
0.00210829
0.00212442
0.00213835
0.00214867
0.00120108
0.0013474
0.00144263
0.00152693
0.00160569
0.00168215
0.00174835
0.00180043
0.00184602
0.00188461
0.00191735
0.0019451
0.00196878
0.00198912
0.00200661
0.00202154
0.00203405
0.0020442
0.00205169
0.00205684
0.00206161
0.00206632
0.00206882
0.00207111
0.00120179
0.00131521
0.00139502
0.00146963
0.00154583
0.00162019
0.00168875
0.00174469
0.00179207
0.00183168
0.00186557
0.00189279
0.00191422
0.00193034
0.00194166
0.00194859
0.00195145
0.00195001
0.00194113
0.00192758
0.00191124
0.00189546
0.00188834
0.00189107
0.00117837
0.00126054
0.00131804
0.00137903
0.00144633
0.00151383
0.00157778
0.00163346
0.00168039
0.00171752
0.00175012
0.00177479
0.00178691
0.00179177
0.00179069
0.00178433
0.00177329
0.00176037
0.00175137
0.00174582
0.00174312
0.00174402
0.00174633
0.00175144
0.00113766
0.00118692
0.00122017
0.00126393
0.00131835
0.00137692
0.00143222
0.00147729
0.00151302
0.00153731
0.00156266
0.00158397
0.00160353
0.00161985
0.00163213
0.00164049
0.00164529
0.00164514
0.00163755
0.00162284
0.00160109
0.00157342
0.00153983
0.00151596
0.00108277
0.00109998
0.0011086
0.00113331
0.00117182
0.0012125
0.00125361
0.00129212
0.00133349
0.00137835
0.00142389
0.00145709
0.00147634
0.00148577
0.00148665
0.00147974
0.0014656
0.00144493
0.00141913
0.0013887
0.00135339
0.00131614
0.00127172
0.0012397
0.00101802
0.00100498
0.000989534
0.000994208
0.00101463
0.00104416
0.00108077
0.00113221
0.00117901
0.00121595
0.00123777
0.00124889
0.00125315
0.00125089
0.00124252
0.00122843
0.00120915
0.00118553
0.00115846
0.00112881
0.00109651
0.00106761
0.0010333
0.00102145
0.000947475
0.000906613
0.000868681
0.000855246
0.000860864
0.000880323
0.000918287
0.000946718
0.00097211
0.000989634
0.00100218
0.00100948
0.00101164
0.00100922
0.00100277
0.000992837
0.000980206
0.00097228
0.000964685
0.000959769
0.000961302
0.000976633
0.000992654
0.00107417
0.000874641
0.000808942
0.000751854
0.000722658
0.00071282
0.000728038
0.000734668
0.000750572
0.00076716
0.000783319
0.000797839
0.000811313
0.00082373
0.000839242
0.000856007
0.000875283
0.000900126
0.00092121
0.000948946
0.000988442
0.00104287
0.00111756
0.00122092
0.00137843
0.00080234
0.000715689
0.000643568
0.000602909
0.000588541
0.000577645
0.000580457
0.000597811
0.000622407
0.00065163
0.000685045
0.000727066
0.000774851
0.000819315
0.000863056
0.000909343
0.000961276
0.00102205
0.00109454
0.00118298
0.00129309
0.00143343
0.00161689
0.00180222
0.000732486
0.000629157
0.000546973
0.000501836
0.000483549
0.00046936
0.000489843
0.000527333
0.000577479
0.0006378
0.00070631
0.000770689
0.000833864
0.000898442
0.000967183
0.00104254
0.00112712
0.00122344
0.0013346
0.00146599
0.00162545
0.00182424
0.00205454
0.00224251
0.00066572
0.000549035
0.000465148
0.000431042
0.000402925
0.000423156
0.000472497
0.000539078
0.000614347
0.000692944
0.000771748
0.000849921
0.000929013
0.0010111
0.00109837
0.00119328
0.00129914
0.00142082
0.00156576
0.00174446
0.00196846
0.0022277
0.00249726
0.00272454
0.000601103
0.000475619
0.000399879
0.000377516
0.000369575
0.000425883
0.000502923
0.000587928
0.000675373
0.000763255
0.000850834
0.000940879
0.00103571
0.00113775
0.00125042
0.00137839
0.00152775
0.00170665
0.00192547
0.00219479
0.00250453
0.00281577
0.00311048
0.00336983
0.00053791
0.000407405
0.000351358
0.00032997
0.000378574
0.000460654
0.000554665
0.000654847
0.00075989
0.000869377
0.000984349
0.00110581
0.00123616
0.00137924
0.00153945
0.00172147
0.00193058
0.0021731
0.00245497
0.00277577
0.0030902
0.00340045
0.00368526
0.00391621
0.00047412
0.00034251
0.000315352
0.000324511
0.000409443
0.000512317
0.000624946
0.000745862
0.000873656
0.00100652
0.00114469
0.00129088
0.00144858
0.00162074
0.0018099
0.00201936
0.00225434
0.00252208
0.00282915
0.00315943
0.00348486
0.00380638
0.00410609
0.00430387
0.000398035
0.000295104
0.000288015
0.000351089
0.000460719
0.000581841
0.000713408
0.000853876
0.000999718
0.00115023
0.00130765
0.00147505
0.00165529
0.00185119
0.00206611
0.00230455
0.00257245
0.00287594
0.00321725
0.0035638
0.00390364
0.00422155
0.00451581
0.00467988
0.000288348
0.000261447
0.000279807
0.000395097
0.000525632
0.000665873
0.000817537
0.000977354
0.00114335
0.00131714
0.00150198
0.0017009
0.00191586
0.00214794
0.00239835
0.0026695
0.00296505
0.00328802
0.0036366
0.00397378
0.00429599
0.0046014
0.00485744
0.00498934
0.000192057
0.000242077
0.000297634
0.000460982
0.000609381
0.000768578
0.000939652
0.00111902
0.00130669
0.00150531
0.00171736
0.00194393
0.00218495
0.00244001
0.00270938
0.00299461
0.00329832
0.00362205
0.00396214
0.00428499
0.00458471
0.00486854
0.00509079
0.00520825
0.000155409
0.000233827
0.000350986
0.000549154
0.000707833
0.000884032
0.00107243
0.00127069
0.00148054
0.00170405
0.00194186
0.0021931
0.00245597
0.0027285
0.00300958
0.00329958
0.00360004
0.00391162
0.0042303
0.00453139
0.00479951
0.00505272
0.00524497
0.00534934
0.000156932
0.000256362
0.000468454
0.000644371
0.000818847
0.00101056
0.00121515
0.00143366
0.00166744
0.00191622
0.00217827
0.00245075
0.00273022
0.00301328
0.00329747
0.00358194
0.00386735
0.00415418
0.0044395
0.00471069
0.00494048
0.00515523
0.00531982
0.00541184
0.00016069
0.000312518
0.000561708
0.000739502
0.000933762
0.00113993
0.0013628
0.00160428
0.00186278
0.00213521
0.00241777
0.00270604
0.00299524
0.00328076
0.003559
0.00382811
0.00408819
0.00434018
0.0045833
0.00481198
0.00500607
0.005171
0.00530879
0.00538873
1.19756e-06
1.17327e-05
4.47289e-05
0.000106388
0.000196497
5.51071e-05
3.33689e-05
8.81889e-05
0.000180769
0.000291566
0.000382125
0.000378097
4.93874e-05
0.000173551
0.000301633
0.000427886
0.000529147
0.000596867
5.41814e-05
0.000240466
0.000385589
0.000506229
0.000604369
0.000649029
5.74825e-05
0.000288225
0.000437229
0.000545841
0.0006143
0.000651487
5.97744e-05
0.000319584
0.000464708
0.000555071
0.000591462
0.000638317
6.1334e-05
0.00033803
0.000474968
0.000543655
0.000564236
0.000614478
6.23365e-05
0.000346751
0.000472738
0.000521746
0.00053665
0.000600298
6.28984e-05
0.000348397
0.000462398
0.000496085
0.000512394
0.00059513
6.30971e-05
0.000344796
0.000447239
0.000470368
0.000492085
0.000596459
6.29828e-05
0.000337212
0.000429421
0.00044615
0.0004749
0.000601651
6.25571e-05
0.000326451
0.000410172
0.000423796
0.000459441
0.000608718
6.18515e-05
0.000312937
0.000390115
0.000402546
0.000443897
0.000615044
6.08984e-05
0.00029683
0.000369549
0.000382522
0.000429697
0.000619984
5.97108e-05
0.000278281
0.000348458
0.000363184
0.000413967
0.000620465
5.82716e-05
0.000257663
0.000326483
0.000343854
0.000396886
0.00061739
5.65493e-05
0.000235456
0.000302983
0.00032462
0.000378009
0.000609469
5.44723e-05
0.000212054
0.000277229
0.000304905
0.000357925
0.000595313
5.18715e-05
0.000187972
0.000249896
0.000282033
0.000337211
0.00057342
4.83411e-05
0.000164122
0.000221981
0.000251749
0.000314475
0.000541015
0.000193402
0.000143548
0.000189696
0.000214055
0.000288548
0.000488329
0.000178268
0.000108487
0.000146591
0.000167879
0.000249675
0.00041228
3.20037e-05
5.06647e-05
8.28443e-05
0.000102237
0.000181579
0.000301245
1.03021e-06
2.78606e-06
8.15588e-06
2.1194e-05
8.45715e-05
0.000185335
0.000203996
0.000519934
0.000724311
0.000893092
0.0010676
0.00127584
0.00151683
0.00178197
0.00206381
0.00235655
0.00265489
0.00295328
0.0032459
0.00352716
0.00379242
0.0040389
0.00426607
0.00447521
0.00466761
0.00484192
0.00499283
0.00510488
0.00520518
0.005273
0.00055843
0.000740871
0.000823847
0.000952042
0.00114973
0.00139579
0.00167029
0.00196256
0.00226617
0.00257555
0.00288495
0.00318816
0.00347865
0.00375011
0.0039971
0.00421593
0.0044052
0.00456585
0.00470027
0.00481057
0.00489724
0.00495983
0.00500283
0.00505097
0.000717233
0.000760161
0.000862675
0.0010422
0.00127379
0.00154164
0.0018358
0.00214705
0.002467
0.00278826
0.00310396
0.00340722
0.00369105
0.00394868
0.00417413
0.00436291
0.00451256
0.00462279
0.00469534
0.00473358
0.00474278
0.00473099
0.00471045
0.00471657
0.000733045
0.000794313
0.000928053
0.00112611
0.0013792
0.00167387
0.0019939
0.00232607
0.00266083
0.0029907
0.00330885
0.00360839
0.00388224
0.00412353
0.0043261
0.00448508
0.00459713
0.00466053
0.00467498
0.00464167
0.00456504
0.00445707
0.00433954
0.00425602
0.000725182
0.000818817
0.000982316
0.00121068
0.00149295
0.00181309
0.00215391
0.00250165
0.00284647
0.0031808
0.0034978
0.00379059
0.00405219
0.0042759
0.0044558
0.0045872
0.00466683
0.00469252
0.00466267
0.0045751
0.00442591
0.0042086
0.00391097
0.00348894
0.000716398
0.000848301
0.0010416
0.00129571
0.00160338
0.00194732
0.00230737
0.00266838
0.00302039
0.00335621
0.00366933
0.00395317
0.00420104
0.00440664
0.00456466
0.00467123
0.004724
0.00472192
0.00466467
0.00455177
0.00438172
0.00415161
0.00385734
0.00349046
0.000723359
0.000884401
0.00110089
0.00137916
0.00171175
0.00207781
0.00245424
0.00282522
0.00318127
0.00351576
0.00382268
0.00409578
0.00432873
0.00451576
0.00465234
0.00473566
0.00476475
0.00474019
0.00466349
0.0045363
0.00435951
0.00413317
0.00385677
0.00352284
0.000738561
0.000922016
0.00115861
0.0014594
0.0018155
0.00220187
0.00259215
0.00297033
0.00332776
0.00365861
0.00395741
0.00421826
0.00443518
0.00460294
0.0047178
0.00477813
0.00478444
0.00473909
0.00464555
0.00450742
0.00432738
0.0041071
0.00384835
0.00354473
0.00075898
0.00095948
0.00121316
0.00153469
0.00191313
0.00231819
0.00271988
0.00310272
0.00345923
0.00378452
0.00407359
0.00432087
0.00452067
0.00466822
0.00476062
0.0047974
0.00478059
0.00471433
0.00460394
0.00445489
0.00427158
0.00405751
0.00381696
0.0035463
0.000781434
0.000994554
0.00126272
0.00160314
0.00200346
0.00242572
0.00283658
0.00322186
0.00357556
0.0038937
0.00417175
0.00440434
0.004586
0.00471242
0.0047815
0.00479407
0.00475386
0.00466694
0.00454064
0.00438232
0.00419803
0.00399278
0.00377258
0.00353607
0.000803523
0.00102503
0.00130576
0.00166531
0.00208597
0.00252377
0.00294176
0.00332765
0.00367702
0.0039868
0.00425283
0.00446985
0.00463253
0.00473699
0.00478206
0.00477005
0.0047066
0.00459995
0.00445956
0.00429462
0.00411251
0.00391918
0.0037214
0.00351911
0.000822435
0.00105072
0.00134376
0.00172094
0.00215998
0.00261184
0.00303527
0.00342034
0.00376427
0.00406482
0.00431813
0.00451894
0.00466202
0.00474395
0.00476464
0.00472809
0.0046422
0.00451756
0.00436579
0.00419761
0.00402122
0.00384276
0.00366866
0.00349915
0.000838974
0.00107267
0.00137647
0.0017695
0.00222492
0.00268965
0.00311725
0.00350048
0.00383821
0.004129
0.00436918
0.00455343
0.00467657
0.00473571
0.00473202
0.00467156
0.00456472
0.00442463
0.00426487
0.00409724
0.00393001
0.00376865
0.00361834
0.00347881
0.000852267
0.00109081
0.00140378
0.00181066
0.00228046
0.00275718
0.00318811
0.00356886
0.00389995
0.00418073
0.00440766
0.00457528
0.00467845
0.0047149
0.00468732
0.00460412
0.00447848
0.00432606
0.00416208
0.00399871
0.00384347
0.00370042
0.00357281
0.0034596
0.000862742
0.0011056
0.00142585
0.00184436
0.00232655
0.00281457
0.00324841
0.0036264
0.00395072
0.00422152
0.00443535
0.00458658
0.00467007
0.0046843
0.00463374
0.00452948
0.00438769
0.00422641
0.00406193
0.00390602
0.00376469
0.00364003
0.0035332
0.00344237
0.000871789
0.00111809
0.00144309
0.00187079
0.00236338
0.00286211
0.00329891
0.00367416
0.0039918
0.00425288
0.00445404
0.00458938
0.00465381
0.00464667
0.00457446
0.00445124
0.00429623
0.00412955
0.00396791
0.00382184
0.0036953
0.00358821
0.00349974
0.00342747
0.00087739
0.0011318
0.00145642
0.00189043
0.00239146
0.00290016
0.00334049
0.00371324
0.00402448
0.0042763
0.00446543
0.00458569
0.00463199
0.00460466
0.00451247
0.00437263
0.00420738
0.00403849
0.00388232
0.00374755
0.00363576
0.00354478
0.00347211
0.00341496
0.00088208
0.00114171
0.00147011
0.00190413
0.00241203
0.00292906
0.00337418
0.00374483
0.00405003
0.00429319
0.00447115
0.00457738
0.00460679
0.00456076
0.00445048
0.00429646
0.00412379
0.00395533
0.00380646
0.00368353
0.00358573
0.00350905
0.00344973
0.00340476
0.000886736
0.00115359
0.00147717
0.00192012
0.00242556
0.00294984
0.00340126
0.00377012
0.00406967
0.00430486
0.00447265
0.00456614
0.00458017
0.00451718
0.00439086
0.00422502
0.00404737
0.00388135
0.00374077
0.00362947
0.0035444
0.00348011
0.00343193
0.00339669
0.000891976
0.00116841
0.00148416
0.00192641
0.0024424
0.00296234
0.00342318
0.00379029
0.00408456
0.0043125
0.00447124
0.00455346
0.00455386
0.00447584
0.00433557
0.00416009
0.00397941
0.00381709
0.00368506
0.0035846
0.00351074
0.00345696
0.003418
0.00339052
0.000898037
0.00118722
0.00149276
0.00193249
0.00245464
0.00298103
0.00343877
0.00380661
0.00409576
0.00431716
0.00446806
0.00454065
0.00452935
0.00443838
0.00428622
0.00410296
0.00392064
0.00376261
0.00363875
0.00354797
0.00348367
0.0034386
0.00340724
0.00338592
0.000904183
0.00121122
0.00150534
0.00194107
0.00246566
0.00299851
0.00345919
0.00381911
0.00410437
0.00431979
0.00446406
0.00452878
0.0045079
0.00440619
0.00424414
0.00405462
0.00387144
0.00371761
0.00360107
0.0035186
0.00346226
0.00342426
0.00339896
0.00338246
0.000907571
0.00124237
0.00152547
0.00195903
0.00248114
0.0030142
0.00348412
0.00383311
0.00411119
0.00432122
0.00446004
0.00451874
0.00449057
0.00438045
0.00421045
0.00401584
0.00383205
0.00368179
0.00357131
0.0034956
0.00344569
0.00341334
0.00339274
0.00337996
0.000906239
0.00130045
0.00157213
0.00199342
0.00250457
0.00303097
0.00350165
0.0038511
0.00411826
0.00432276
0.00445661
0.00451121
0.0044782
0.00436214
0.00418611
0.00398732
0.00380273
0.00365495
0.00354894
0.00347833
0.00343329
0.00340523
0.00338819
0.00337828
1.15189e-06
9.86342e-06
3.75643e-05
7.99063e-05
0.000133283
0.000197254
3.29898e-05
5.45899e-05
0.000120167
0.000208812
0.000312361
0.000402403
5.00243e-05
0.00012571
0.000230099
0.000362282
0.000511876
0.000693197
5.58334e-05
0.000197016
0.000337315
0.000508337
0.000690295
0.000923998
6.03016e-05
0.000262794
0.00043771
0.000638789
0.000843189
0.00109769
6.38463e-05
0.000320738
0.000528832
0.000752069
0.000971685
0.00122629
6.66078e-05
0.000370219
0.000609342
0.000849196
0.00107793
0.00132202
6.87216e-05
0.000411209
0.000678503
0.000931624
0.00116431
0.00139487
7.02924e-05
0.000443807
0.000736006
0.00100052
0.0012348
0.00145366
7.1396e-05
0.000468135
0.000781768
0.00105693
0.00129195
0.001499
7.20851e-05
0.00048412
0.000815815
0.00110198
0.00133685
0.00153535
7.23982e-05
0.000491305
0.000838461
0.00113391
0.00137166
0.00156436
7.241e-05
0.000488799
0.000849735
0.00115345
0.001397
0.00158673
7.22464e-05
0.000475253
0.000848339
0.00116089
0.00141189
0.00160259
7.1847e-05
0.000452636
0.000834225
0.00115611
0.00141531
0.00161083
7.11502e-05
0.0004228
0.000807145
0.00113783
0.0014052
0.00161052
7.00831e-05
0.000387544
0.000767164
0.00110394
0.0013789
0.00159773
6.85486e-05
0.000348309
0.000714715
0.00105327
0.00133226
0.00156393
6.64052e-05
0.000305123
0.000650123
0.000978654
0.00125842
0.00150036
6.34543e-05
0.000260026
0.000571794
0.000876191
0.00115404
0.00139353
5.94128e-05
0.00021304
0.000474678
0.000737798
0.000998038
0.00121528
5.38784e-05
0.000159238
0.000350136
0.000553518
0.000768198
0.000925501
4.04444e-05
8.60764e-05
0.000190539
0.000316484
0.000457987
0.000489779
1.40819e-06
7.32198e-06
2.78793e-05
6.89528e-05
0.000145503
5.22312e-05
0.000944327
0.00138124
0.00164238
0.00204244
0.00253558
0.0030494
0.00351436
0.00386151
0.00412737
0.00432536
0.00445536
0.00450721
0.0044714
0.00435199
0.00417189
0.00396967
0.00378369
0.00363694
0.00353361
0.00346633
0.0034246
0.00339955
0.00338489
0.00337719
0.00114545
0.00148521
0.00172452
0.00210057
0.002571
0.00306802
0.00352265
0.00386462
0.00412936
0.00432759
0.00445728
0.00450781
0.00447128
0.00435045
0.00416837
0.00396338
0.00377514
0.00362772
0.00352508
0.00345928
0.00341933
0.0033956
0.00338297
0.00337656
0.00131495
0.0015937
0.00181114
0.00216049
0.00260622
0.00308521
0.00352847
0.00386427
0.00412571
0.00432381
0.00445603
0.00451053
0.00447751
0.0043585
0.00417539
0.00396811
0.00377725
0.00362737
0.00352329
0.00345702
0.00341686
0.00339395
0.00338207
0.0033763
0.00142591
0.001685
0.00189095
0.00221493
0.00263714
0.00309936
0.00353059
0.00386075
0.00412001
0.00431856
0.00445338
0.00451314
0.00448665
0.00437355
0.00419367
0.00398549
0.00379073
0.00363632
0.00352848
0.00345967
0.00341797
0.00339441
0.00338223
0.00337634
0.00150232
0.00175605
0.00195645
0.0022594
0.00266147
0.00310771
0.00352713
0.00385287
0.0041113
0.00431172
0.0044511
0.00451822
0.00450093
0.00439675
0.00422256
0.00401491
0.00381608
0.00365544
0.00354151
0.00346793
0.00342331
0.00339724
0.00338353
0.00337668
0.00155941
0.00180811
0.00200536
0.00229248
0.00267624
0.00310777
0.00351656
0.00383953
0.00409876
0.00430264
0.0044483
0.00452477
0.00451928
0.00442713
0.00426173
0.00405667
0.00385399
0.0036856
0.00356326
0.00348257
0.00343267
0.00340286
0.00338617
0.00337748
0.00160414
0.00184357
0.00203894
0.00231243
0.00267948
0.00309762
0.0034977
0.00381977
0.00408156
0.00429054
0.00444413
0.00453184
0.00454057
0.00446355
0.00431034
0.00411058
0.00390503
0.00372792
0.00359495
0.00350457
0.00344698
0.00341166
0.00339074
0.0033789
0.00164102
0.0018628
0.00205781
0.00231898
0.00267024
0.00307601
0.00346953
0.00379263
0.0040588
0.00427455
0.00443767
0.00453834
0.00456347
0.0045045
0.00436702
0.00417593
0.00396949
0.00378358
0.00363815
0.00353549
0.00346761
0.00342431
0.00339745
0.0033812
0.00167106
0.00187152
0.00206424
0.00231284
0.00264836
0.00304217
0.00343119
0.00375716
0.00402951
0.00425369
0.00442785
0.00454303
0.00458643
0.00454812
0.00442988
0.00425136
0.00404709
0.00385343
0.00369443
0.00357703
0.003496
0.00344204
0.00340702
0.00338469
0.00169539
0.00187327
0.00206046
0.00229519
0.00261417
0.00299578
0.00338185
0.00371236
0.00399263
0.00422685
0.00441349
0.00454452
0.00460772
0.00459226
0.00449653
0.00433478
0.00413674
0.00393773
0.00376516
0.00363105
0.00353396
0.00346631
0.00342035
0.0033897
0.00171538
0.0018708
0.00204821
0.00226731
0.00256841
0.00293687
0.00332077
0.00365719
0.00394695
0.00419275
0.00439323
0.00454129
0.00462551
0.00463459
0.00456418
0.00442337
0.00423635
0.00403581
0.00385116
0.0036993
0.00358347
0.00349875
0.00343847
0.00339658
0.0017322
0.00186689
0.00202799
0.0022305
0.00251215
0.00286585
0.00324722
0.00359054
0.00389121
0.00415001
0.00436559
0.00453171
0.00463786
0.00467273
0.00462985
0.00451375
0.00434286
0.00414583
0.00395226
0.00378302
0.00364639
0.00354113
0.00346258
0.00340578
0.00174654
0.00186337
0.00200179
0.00218656
0.00244694
0.00278373
0.00316041
0.00351138
0.0038241
0.00409715
0.00432897
0.00451405
0.00464285
0.0047043
0.00469053
0.00460227
0.0044524
0.00426465
0.00406689
0.00388241
0.0037241
0.00359517
0.00349409
0.00341785
0.00175841
0.00186076
0.00197367
0.00213807