/*--------------------------------*- C++ -*----------------------------------*\
  =========                 |
  \\      /  F ield         | OpenFOAM: The Open Source CFD Toolbox
   \\    /   O peration     | Website:  https://openfoam.org
    \\  /    A nd           | Version:  11
     \\/     M anipulation  |
\*---------------------------------------------------------------------------*/
FoamFile
{
    format      ascii;
    class       volScalarField;
    location    "0.22";
    object      p;
}
// * * * * * * * * * * * * * * * * * * * * * * * * * * * * * * * * * * * * * //

dimensions      [0 2 -2 0 0 0 0];

internalField   nonuniform List<scalar> 
2880
(
-0.782658
-0.790547
-0.828328
-0.868554
-0.907384
-0.961003
-0.789398
-0.799518
-0.84061
-0.88227
-0.911488
-0.949668
-0.795623
-0.809071
-0.853128
-0.895791
-0.916694
-0.938629
-0.801928
-0.818816
-0.865203
-0.909394
-0.928098
-0.942659
-0.809321
-0.82913
-0.876906
-0.922569
-0.945447
-0.959892
-0.817564
-0.839948
-0.888229
-0.934991
-0.963864
-0.982475
-0.826018
-0.850719
-0.898781
-0.946151
-0.980345
-1.00362
-0.834075
-0.860862
-0.908132
-0.955562
-0.993674
-1.02091
-0.841231
-0.869932
-0.915976
-0.962897
-1.00342
-1.03381
-0.847104
-0.877655
-0.922134
-0.968004
-1.00948
-1.04193
-0.851481
-0.883877
-0.926603
-0.970885
-1.01194
-1.04501
-0.854408
-0.888284
-0.929487
-0.971683
-1.01102
-1.04307
-0.8559
-0.891183
-0.930902
-0.970689
-1.00718
-1.03655
-0.856147
-0.892645
-0.93102
-0.968323
-1.00115
-1.0267
-0.855463
-0.892806
-0.93012
-0.964977
-0.993802
-1.01421
-0.854223
-0.891961
-0.92845
-0.961104
-0.986052
-1.00047
-0.852787
-0.890452
-0.926323
-0.957472
-0.978649
-0.986924
-0.85147
-0.888628
-0.924209
-0.954745
-0.972915
-0.974558
-0.850497
-0.886882
-0.922537
-0.953117
-0.970668
-0.964826
-0.849976
-0.885695
-0.921545
-0.952936
-0.972451
-0.962834
-0.849988
-0.885647
-0.921463
-0.954436
-0.978239
-0.973523
-0.850838
-0.887254
-0.922294
-0.957054
-0.98739
-0.995085
-0.852911
-0.890102
-0.923137
-0.958268
-0.996397
-1.02733
-0.855111
-0.891319
-0.920685
-0.955425
-1.01259
-1.17535
-0.504167
-0.291949
-0.168892
-0.0781701
-0.00789862
0.0443046
0.0814019
0.107761
0.126969
0.14157
0.153188
0.162771
0.170858
0.177762
0.183679
0.188741
0.193046
0.196674
0.199603
0.201508
0.202357
0.205725
0.219523
0.225164
-0.672225
-0.501069
-0.332752
-0.204947
-0.111481
-0.0421822
0.00835466
0.0451132
0.0723518
0.0932214
0.109822
0.123466
0.13494
0.144727
0.153139
0.160387
0.166624
0.171971
0.176471
0.179923
0.182101
0.185086
0.195749
0.208411
-0.76732
-0.658441
-0.475333
-0.325012
-0.21289
-0.128473
-0.0651608
-0.0181345
0.0172075
0.0444797
0.0662068
0.0840382
0.0990162
0.111804
0.122842
0.132439
0.140821
0.148169
0.154611
0.160088
0.16429
0.16809
0.176789
0.190381
-0.852484
-0.767553
-0.593508
-0.435213
-0.309785
-0.21246
-0.137592
-0.0808349
-0.0375934
-0.00398173
0.0228552
0.044867
0.0633378
0.0791106
0.0927534
0.104667
0.115146
0.124411
0.132568
0.139489
0.145126
0.15157
0.162967
0.15914
-0.926022
-0.845714
-0.693138
-0.53525
-0.40092
-0.29277
-0.207777
-0.142027
-0.0912626
-0.0515218
-0.0197194
0.00634574
0.0281768
0.0467821
0.0628417
0.0768206
0.0890383
0.0996991
0.108846
0.116278
0.122126
0.129163
0.141047
0.131681
-0.98239
-0.907687
-0.778757
-0.62514
-0.485317
-0.368389
-0.274644
-0.200798
-0.143046
-0.09751
-0.0609855
-0.0310793
-0.00609692
0.0151236
0.0333677
0.0491606
0.0628457
0.0746286
0.0845554
0.0924713
0.0986316
0.105883
0.117498
0.108067
-1.02325
-0.960517
-0.851735
-0.70459
-0.562111
-0.438508
-0.33731
-0.256362
-0.192254
-0.141332
-0.100392
-0.0669102
-0.039026
-0.0154342
0.00475682
0.0221419
0.0371065
0.0498886
0.0605841
0.0691363
0.0758901
0.0834746
0.094705
0.0868632
-1.05229
-1.00559
-0.911867
-0.772997
-0.630432
-0.502304
-0.394982
-0.307967
-0.238231
-0.182387
-0.137379
-0.100616
-0.0700985
-0.0443874
-0.0224829
-0.00370794
0.0123858
0.0260919
0.0375748
0.0468774
0.0543942
0.0624036
0.0733065
0.067865
-1.07159
-1.04146
-0.958908
-0.829672
-0.689393
-0.558797
-0.446799
-0.354763
-0.280319
-0.220062
-0.171373
-0.131649
-0.0987754
-0.0711956
-0.0478025
-0.0278266
-0.0107398
0.00382228
0.0160974
0.0262141
0.0345704
0.0430598
0.0537294
0.0510977
-1.08212
-1.06661
-0.992928
-0.874048
-0.738147
-0.606979
-0.491964
-0.396062
-0.317849
-0.253694
-0.201784
-0.159453
-0.124512
-0.0953136
-0.0706511
-0.0496586
-0.0317197
-0.0163901
-0.00335853
0.00757349
0.0167731
0.0257678
0.036312
0.0366128
-1.08453
-1.08018
-1.01436
-0.905616
-0.775769
-0.646058
-0.529426
-0.431263
-0.349811
-0.282731
-0.22809
-0.183494
-0.146782
-0.116221
-0.0905073
-0.068685
-0.0500502
-0.034077
-0.0203808
-0.00870352
0.00129194
0.0107953
0.021313
0.0244475
-1.07956
-1.08198
-1.02381
-0.924101
-0.801541
-0.675164
-0.558869
-0.459432
-0.375409
-0.306487
-0.24977
-0.203271
-0.165104
-0.133447
-0.106904
-0.0844438
-0.0652863
-0.0488283
-0.0346139
-0.0223245
-0.0116335
-0.00165464
0.00890846
0.0146002
-1.06809
-1.07261
-1.02165
-0.929816
-0.815044
-0.693622
-0.579395
-0.479837
-0.395123
-0.32406
-0.266211
-0.218313
-0.179075
-0.146603
-0.119455
-0.0965531
-0.0770565
-0.0602963
-0.04575
-0.0330343
-0.0218163
-0.0114423
-0.000801262
0.00701583
-1.05088
-1.05365
-1.00794
-0.923484
-0.81636
-0.701087
-0.590388
-0.492027
-0.407898
-0.33613
-0.276842
-0.228349
-0.188449
-0.155417
-0.127878
-0.104729
-0.0850785
-0.068208
-0.0535387
-0.0406255
-0.0291137
-0.0184732
-0.00777895
0.00159784
-1.02971
-1.02697
-0.983821
-0.906159
-0.806343
-0.697848
-0.591862
-0.495914
-0.412832
-0.341996
-0.282255
-0.233341
-0.19306
-0.159726
-0.132011
-0.108802
-0.0891811
-0.0723914
-0.0578126
-0.0449472
-0.0334013
-0.0227055
-0.0120657
-0.00175491
-1.0057
-0.995009
-0.951624
-0.879482
-0.786647
-0.685022
-0.584468
-0.491989
-0.410774
-0.341085
-0.282113
-0.233233
-0.192858
-0.159479
-0.131806
-0.10873
-0.08932
-0.0727999
-0.0585218
-0.0459489
-0.0346461
-0.0241704
-0.0138037
-0.00323647
-0.980397
-0.9599
-0.913957
-0.845688
-0.759332
-0.664372
-0.569495
-0.481116
-0.402453
-0.334329
-0.276428
-0.228037
-0.187923
-0.15477
-0.127356
-0.104603
-0.0855847
-0.0695223
-0.0557544
-0.0437192
-0.0329447
-0.0229802
-0.0132042
-0.00309584
-0.955518
-0.923706
-0.87327
-0.807287
-0.726553
-0.637829
-0.548573
-0.464505
-0.388802
-0.322614
-0.265982
-0.218356
-0.178746
-0.146005
-0.119005
-0.096719
-0.0782449
-0.0628094
-0.049749
-0.03849
-0.0285349
-0.0193987
-0.0105843
-0.00158705
-0.932438
-0.888124
-0.831753
-0.766666
-0.690416
-0.607331
-0.523422
-0.44367
-0.371123
-0.307114
-0.251931
-0.205229
-0.166234
-0.133974
-0.107439
-0.0856751
-0.067822
-0.0531254
-0.0409297
-0.0306591
-0.0218106
-0.01386
-0.00649652
0.000881746
-0.910976
-0.854129
-0.791065
-0.725846
-0.65299
-0.574681
-0.495778
-0.420271
-0.350967
-0.289292
-0.235702
-0.190026
-0.151686
-0.119889
-0.0937661
-0.0724657
-0.0551953
-0.0412427
-0.0299809
-0.0208486
-0.0133714
-0.00697814
-0.00153785
0.00388691
-0.891612
-0.821812
-0.752403
-0.686446
-0.616172
-0.541539
-0.467277
-0.395848
-0.329855
-0.270682
-0.218853
-0.174333
-0.136706
-0.105348
-0.0795446
-0.0585706
-0.0417311
-0.0283869
-0.0179687
-0.00995276
-0.00391451
0.000744992
0.0038253
0.00679659
-0.876128
-0.790596
-0.716101
-0.64953
-0.58098
-0.509987
-0.439451
-0.371825
-0.309133
-0.25262
-0.202815
-0.159714
-0.122999
-0.0921812
-0.0666938
-0.0459466
-0.0293613
-0.0164008
-0.00658826
0.000516478
0.00526179
0.00818832
0.00899782
0.0090814
-0.864035
-0.756264
-0.681447
-0.615788
-0.549016
-0.480814
-0.413502
-0.349315
-0.289891
-0.236217
-0.188718
-0.147407
-0.112005
-0.0820761
-0.0571381
-0.0367173
-0.0203627
-0.00764979
0.0017957
0.00829765
0.0121108
0.0135943
0.0126592
0.00975743
-0.834936
-0.712062
-0.647752
-0.585649
-0.520951
-0.455059
-0.390471
-0.329273
-0.272892
-0.222127
-0.177231
-0.138128
-0.104539
-0.0760446
-0.0521719
-0.0324782
-0.0165944
-0.00421133
0.00494062
0.0110775
0.0143531
0.0149626
0.0130098
0.00809122
-0.625861
-0.627221
-0.616144
-0.597428
-0.547636
-0.432274
-0.622246
-0.625312
-0.614949
-0.599617
-0.563895
-0.50125
-0.615357
-0.622411
-0.612853
-0.600517
-0.57596
-0.543915
-0.611353
-0.620619
-0.612489
-0.602919
-0.586701
-0.570114
-0.611782
-0.620852
-0.614118
-0.607316
-0.596956
-0.587744
-0.616907
-0.622903
-0.617325
-0.612955
-0.606781
-0.601177
-0.625085
-0.625906
-0.621614
-0.619272
-0.616262
-0.612613
-0.6304
-0.628639
-0.626427
-0.625972
-0.625591
-0.623505
-0.63291
-0.631058
-0.631427
-0.632878
-0.63494
-0.634633
-0.635042
-0.633297
-0.636426
-0.639849
-0.644341
-0.646179
-0.637307
-0.635323
-0.641257
-0.646747
-0.653718
-0.658054
-0.639381
-0.637046
-0.645778
-0.65343
-0.662926
-0.670006
-0.640958
-0.638385
-0.649893
-0.659767
-0.671774
-0.681652
-0.641873
-0.639373
-0.653504
-0.665667
-0.680024
-0.692519
-0.642104
-0.639687
-0.656643
-0.67107
-0.687424
-0.702167
-0.641922
-0.639107
-0.659331
-0.675947
-0.693819
-0.710049
-0.643582
-0.638145
-0.661712
-0.680311
-0.699232
-0.716007
-0.648262
-0.638818
-0.664007
-0.684226
-0.70385
-0.720415
-0.651471
-0.640482
-0.666014
-0.687767
-0.708034
-0.724042
-0.651386
-0.641751
-0.667332
-0.691016
-0.71225
-0.728531
-0.649982
-0.641834
-0.667411
-0.693779
-0.71712
-0.739693
-0.645385
-0.63998
-0.665705
-0.695241
-0.722905
-0.767178
-0.638317
-0.636754
-0.662977
-0.694908
-0.728063
-0.804712
-0.634852
-0.63468
-0.662012
-0.695161
-0.731853
-0.82564
-0.702481
-0.666689
-0.616969
-0.559536
-0.497206
-0.433352
-0.371007
-0.312366
-0.258681
-0.210654
-0.168403
-0.131751
-0.100338
-0.0737234
-0.0514354
-0.0330124
-0.018053
-0.00627003
0.00254857
0.00856448
0.0118731
0.012548
0.0106264
0.00567515
-0.647003
-0.631593
-0.591393
-0.538047
-0.477903
-0.41579
-0.355267
-0.298682
-0.247279
-0.201636
-0.1618
-0.127494
-0.098283
-0.0736669
-0.0531349
-0.0361897
-0.0224259
-0.0115147
-0.00317792
0.00280372
0.00658228
0.00826714
0.00796519
0.00509549
-0.628113
-0.609727
-0.57235
-0.521264
-0.462688
-0.401832
-0.342617
-0.287533
-0.23785
-0.194082
-0.156218
-0.123918
-0.0966884
-0.0739766
-0.0552453
-0.040018
-0.0278271
-0.0182206
-0.0108241
-0.00531319
-0.0013946
0.00146419
0.00443089
0.0065932
-0.617975
-0.596403
-0.559877
-0.509162
-0.451189
-0.390792
-0.332133
-0.277824
-0.229185
-0.186686
-0.150259
-0.119509
-0.0938884
-0.0727785
-0.0555602
-0.0416585
-0.0305343
-0.0216773
-0.0145901
-0.00885487
-0.00406097
0.000680469
0.00669898
0.0107723
-0.612845
-0.589536
-0.553012
-0.501823
-0.443319
-0.382352
-0.32332
-0.268944
-0.220615
-0.178779
-0.143281
-0.113654
-0.089302
-0.0695276
-0.053604
-0.0408897
-0.0307728
-0.0226542
-0.0160199
-0.0104323
-0.00544282
-0.00035244
0.0058217
0.00985005
-0.613321
-0.588684
-0.551056
-0.499077
-0.439003
-0.376357
-0.31592
-0.260607
-0.211863
-0.17012
-0.135112
-0.106259
-0.0828863
-0.0642429
-0.0495804
-0.0381482
-0.0292624
-0.0223256
-0.0167821
-0.0121055
-0.00780787
-0.00324758
0.00217531
0.00672522
-0.617219
-0.592892
-0.554355
-0.50087
-0.438214
-0.372792
-0.309906
-0.252765
-0.202926
-0.160765
-0.12591
-0.0976843
-0.0753038
-0.0578525
-0.044443
-0.0342696
-0.0265906
-0.0207131
-0.0160063
-0.0119098
-0.00794865
-0.00348684
0.0016932
0.00718057
-0.62445
-0.601521
-0.562726
-0.507067
-0.440899
-0.371642
-0.305406
-0.245851
-0.194674
-0.152005
-0.11728
-0.0896636
-0.0682008
-0.0518185
-0.039511
-0.03037
-0.0235692
-0.0183636
-0.0141248
-0.0102874
-0.00650181
-0.00204052
0.002769
0.0100545
-0.634548
-0.614213
-0.575587
-0.517427
-0.446931
-0.372887
-0.302691
-0.240604
-0.187879
-0.144533
-0.109858
-0.0828528
-0.0622781
-0.0468356
-0.0353785
-0.0269422
-0.0207513
-0.0161807
-0.0125039
-0.00890659
-0.00532992
-0.00152032
0.00105816
0.00960236
-0.647038
-0.630468
-0.592553
-0.531608
-0.455976
-0.37595
-0.30153
-0.236303
-0.18188
-0.138094
-0.103862
-0.0777136
-0.0580705
-0.0434508
-0.0327621
-0.0248274
-0.0188822
-0.0148744
-0.0121502
-0.00890835
-0.00440883
0.00200091
0.00763006
0.0143622
-0.661312
-0.649717
-0.613033
-0.548801
-0.4665
-0.380574
-0.301059
-0.232925
-0.177479
-0.133863
-0.100371
-0.0751056
-0.0563959
-0.0423815
-0.0323562
-0.0249621
-0.0182089
-0.0115014
-0.00517999
-0.000175021
0.00379687
0.00785683
0.0120815
0.0184967
-0.676627
-0.671207
-0.635955
-0.567374
-0.478276
-0.385868
-0.302041
-0.232012
-0.176216
-0.133088
-0.100347
-0.0757223
-0.0575463
-0.0433766
-0.0308256
-0.0207577
-0.013229
-0.00707895
-0.00138794
0.00376701
0.00810561
0.0108732
0.0135693
0.0216142
-0.69203
-0.693875
-0.659386
-0.585778
-0.490001
-0.391969
-0.305243
-0.234229
-0.178503
-0.135685
-0.102976
-0.0777008
-0.0574294
-0.0417957
-0.0296536
-0.0193775
-0.0107175
-0.00336956
0.00257422
0.00701621
0.0104353
0.0136549
0.0180873
0.0250435
-0.706442
-0.716102
-0.680428
-0.601547
-0.499404
-0.397335
-0.308847
-0.237487
-0.181764
-0.138759
-0.105248
-0.0789712
-0.0581751
-0.0413718
-0.0278036
-0.0167089
-0.00774542
-0.000507211
0.00552605
0.0109438
0.0156019
0.0201252
0.0255439
0.0286318
-0.719559
-0.734737
-0.695416
-0.610794
-0.502799
-0.397929
-0.308781
-0.237758
-0.182152
-0.139132
-0.10541
-0.078522
-0.0567148
-0.0389515
-0.0246736
-0.0130665
-0.0034781
0.00466824
0.0115789
0.0174513
0.0223496
0.0270856
0.0336298
0.0359645
-0.729866
-0.747255
-0.70123
-0.608954
-0.496147
-0.389807
-0.30167
-0.231841
-0.17688
-0.134211
-0.10051
-0.0734103
-0.0513708
-0.03329
-0.0184242
-0.00610996
0.00420047
0.0128466
0.0200962
0.0261393
0.0312579
0.0368033
0.0456372
0.0471639
-0.736763
-0.746967
-0.695523
-0.593605
-0.476826
-0.37126
-0.28592
-0.218129
-0.16525
-0.12344
-0.0902779
-0.0634672
-0.0415153
-0.0233949
-0.00835546
0.00419804
0.0147345
0.0236059
0.0310745
0.0373412
0.04275
0.0491904
0.0602193
0.060033
-0.739831
-0.730324
-0.67496
-0.56393
-0.444865
-0.342497
-0.26138
-0.197534
-0.147048
-0.107138
-0.0751785
-0.049213
-0.0278439
-0.0100997
0.00472789
0.0171786
0.0276672
0.0365094
0.0439604
0.0502007
0.0556247
0.0626023
0.0751438
0.0727867
-0.736503
-0.700421
-0.637075
-0.519648
-0.40185
-0.304922
-0.22904
-0.170065
-0.123107
-0.0857374
-0.0556302
-0.0310194
-0.0106579
0.00633947
0.0206185
0.0326614
0.0428344
0.0514247
0.0586785
0.0647505
0.0700744
0.0774856
0.0913354
0.086548
-0.720376
-0.665617
-0.583567
-0.461945
-0.34921
-0.259528
-0.190492
-0.136657
-0.0940111
-0.0598374
-0.0321
-0.00927454
0.00973016
0.0256936
0.0391836
0.0506208
0.060323
0.0685435
0.0754984
0.0812928
0.0863613
0.0939775
0.108802
0.101423
-0.680371
-0.625578
-0.516396
-0.392393
-0.287913
-0.207606
-0.146266
-0.0985823
-0.0607591
-0.0302695
-0.0053251
0.015362
0.032712
0.0473855
0.0598628
0.0704969
0.0795529
0.0872451
0.0937447
0.0991
0.103758
0.111368
0.126855
0.11705
-0.61709
-0.559051
-0.430919
-0.311444
-0.219141
-0.150084
-0.0976995
-0.0569062
-0.0243696
0.00208024
0.0239203
0.0421935
0.057646
0.070817
0.0820988
0.0917769
0.100065
0.107135
0.113099
0.117933
0.122094
0.129562
0.14553
0.133671
-0.543028
-0.442941
-0.321031
-0.220042
-0.144662
-0.0887403
-0.0461854
-0.0127507
0.0142224
0.0364157
0.0549579
0.070643
0.0840428
0.0955743
0.105542
0.114164
0.121605
0.127991
0.133368
0.137626
0.141225
0.148428
0.164704
0.151364
-0.422993
-0.281012
-0.192443
-0.121976
-0.0673566
-0.0256487
0.00674666
0.0327027
0.0540524
0.0719315
0.0871022
0.100112
0.111365
0.121163
0.129728
0.13722
0.143754
0.149417
0.154193
0.15787
0.160889
0.16772
0.184138
0.170195
0.822459
0.841989
0.874497
0.913646
0.892497
0.686463
0.823938
0.839074
0.859986
0.879053
0.816198
0.666881
0.824701
0.834983
0.845234
0.85199
0.785795
0.65282
0.824222
0.830558
0.834126
0.833044
0.770982
0.655682
0.823068
0.826709
0.826421
0.820825
0.766559
0.667722
0.821616
0.823664
0.821225
0.813581
0.766804
0.68064
0.81997
0.821269
0.817818
0.809694
0.76855
0.692399
0.818185
0.819302
0.81569
0.807762
0.770798
0.702772
0.816328
0.817604
0.814445
0.80696
0.773302
0.71207
0.814475
0.816076
0.813766
0.806915
0.776126
0.720637
0.812701
0.814672
0.813466
0.807469
0.779372
0.728653
0.811086
0.813378
0.813567
0.808426
0.782858
0.736201
0.809713
0.812203
0.813854
0.809879
0.786765
0.743425
0.808641
0.811187
0.814291
0.811783
0.791103
0.75031
0.807877
0.810411
0.814839
0.814065
0.795835
0.756828
0.807463
0.809947
0.815434
0.816638
0.80083
0.762991
0.807516
0.809847
0.81598
0.819343
0.805888
0.768779
0.808081
0.810172
0.816387
0.82184
0.810677
0.773746
0.808861
0.810871
0.816597
0.823468
0.814566
0.777016
0.807958
0.811602
0.816399
0.823386
0.816963
0.777955
0.804812
0.811782
0.815327
0.820954
0.818031
0.778327
0.805338
0.811489
0.812822
0.816138
0.818432
0.780741
0.81097
0.810848
0.809066
0.81002
0.815748
0.753455
0.814189
0.809824
0.80503
0.802517
0.790543
0.561155
-0.0902642
-0.116874
-0.0667334
-0.0247751
0.00913241
0.0368742
0.0595122
0.0783108
0.0942327
0.107896
0.11973
0.130057
0.139131
0.147148
0.154257
0.160565
0.166151
0.171067
0.17525
0.178401
0.180883
0.187235
0.203563
0.190372
0.143879
0.0307659
0.0467096
0.0653628
0.0817261
0.097083
0.110922
0.123171
0.134034
0.143701
0.152322
0.160031
0.166947
0.173173
0.178794
0.183875
0.188467
0.192601
0.196199
0.198936
0.201055
0.20681
0.222557
0.2126
0.292724
0.164845
0.147893
0.146547
0.149052
0.154141
0.160291
0.166652
0.172893
0.178856
0.184459
0.189671
0.194496
0.198952
0.203067
0.206865
0.210375
0.213626
0.216577
0.218973
0.220848
0.225333
0.239096
0.240544
0.399162
0.27379
0.234594
0.218515
0.210472
0.207246
0.206896
0.208164
0.210332
0.212972
0.215819
0.218713
0.22156
0.224305
0.226916
0.229371
0.231662
0.233801
0.235792
0.237443
0.23822
0.23858
0.245434
0.280975
0.474978
0.359079
0.308078
0.281682
0.265724
0.256044
0.250431
0.247423
0.246083
0.245805
0.246193
0.246988
0.248021
0.249172
0.250354
0.251493
0.252538
0.253469
0.254241
0.254481
0.253542
0.253675
0.265787
0.287178
0.530064
0.425221
0.369467
0.336733
0.315156
0.300568
0.290768
0.284249
0.279958
0.27718
0.275432
0.274386
0.273816
0.273555
0.273471
0.273459
0.273437
0.273366
0.273124
0.272188
0.270197
0.271314
0.286659
0.295286
0.570874
0.477236
0.420847
0.384591
0.359151
0.340937
0.327907
0.318586
0.311874
0.307005
0.303445
0.300825
0.29888
0.297411
0.296259
0.295291
0.294414
0.293573
0.292605
0.290932
0.288455
0.290264
0.307019
0.309441
0.601982
0.518841
0.463932
0.426194
0.398239
0.377432
0.361974
0.350465
0.341813
0.335232
0.330169
0.326235
0.323142
0.32067
0.31864
0.316903
0.315354
0.313928
0.312438
0.310284
0.307516
0.30963
0.326853
0.326183
0.626546
0.552723
0.500215
0.462531
0.432956
0.410368
0.393147
0.379979
0.369806
0.361854
0.355571
0.350562
0.34653
0.343243
0.340506
0.33816
0.336091
0.334228
0.332364
0.329893
0.326953
0.329197
0.346404
0.34407
0.64656
0.580856
0.531494
0.493862
0.463774
0.440094
0.421648
0.407259
0.395921
0.386892
0.379637
0.373767
0.368982
0.365044
0.36175
0.35893
0.356463
0.354272
0.35214
0.349461
0.346435
0.348723
0.365586
0.362358
0.663315
0.604606
0.558341
0.52147
0.49127
0.466976
0.447718
0.432457
0.420248
0.41039
0.402374
0.395825
0.390448
0.386002
0.382276
0.379094
0.376329
0.373899
0.371582
0.368781
0.365745
0.368019
0.384272
0.380622
0.677893
0.625009
0.581678
0.545937
0.515936
0.491361
0.4716
0.455737
0.442889
0.432403
0.423802
0.416726
0.410892
0.406055
0.402003
0.398551
0.39557
0.392972
0.390534
0.387681
0.384695
0.386911
0.402333
0.398571
0.690618
0.642811
0.60222
0.567789
0.538197
0.51357
0.493523
0.477258
0.463951
0.452995
0.443948
0.43647
0.430287
0.425158
0.420864
0.417218
0.414085
0.411375
0.408868
0.406018
0.403131
0.405248
0.419656
0.415994
0.701816
0.658565
0.620524
0.587484
0.558427
0.533892
0.513702
0.497177
0.483541
0.472234
0.462847
0.455063
0.448618
0.443273
0.438806
0.435024
0.431789
0.42901
0.426474
0.423671
0.420919
0.422896
0.436142
0.432722
0.711702
0.672696
0.637045
0.605423
0.576956
0.552589
0.532337
0.515637
0.50176
0.490185
0.480535
0.472516
0.465874
0.46037
0.455782
0.451909
0.44861
0.445794
0.443256
0.440532
0.437939
0.43974
0.451708
0.448617
0.720395
0.685565
0.652182
0.621958
0.594079
0.569895
0.549606
0.532773
0.518704
0.506911
0.497048
0.48884
0.482044
0.476424
0.47175
0.467818
0.464482
0.46165
0.459131
0.456506
0.454086
0.455676
0.466286
0.46357
0.727926
0.697466
0.666303
0.637413
0.610062
0.586021
0.565671
0.548704
0.534457
0.522467
0.512415
0.504044
0.497121
0.49141
0.486673
0.482702
0.479345
0.47651
0.474019
0.471507
0.469263
0.470616
0.479822
0.477495
0.734377
0.708687
0.679753
0.6521
0.625143
0.601154
0.580675
0.563533
0.549092
0.5369
0.526659
0.518133
0.511093
0.505301
0.500513
0.496512
0.493142
0.490308
0.48785
0.485454
0.483385
0.484481
0.492273
0.490326
0.739993
0.719568
0.692871
0.666299
0.63954
0.615454
0.594742
0.577349
0.562667
0.550244
0.539797
0.531103
0.523941
0.518068
0.51323
0.509199
0.505815
0.502981
0.500554
0.498272
0.496372
0.497209
0.50362
0.502016
0.745415
0.730503
0.706006
0.680266
0.653457
0.629064
0.607972
0.590222
0.575225
0.562519
0.551831
0.542945
0.535643
0.529677
0.52478
0.520713
0.517308
0.514467
0.512065
0.509891
0.508161
0.508777
0.513885
0.51246
0.751937
0.741941
0.719516
0.694288
0.667076
0.642109
0.620437
0.602199
0.586788
0.57373
0.56275
0.553636
0.546168
0.540087
0.535115
0.530997
0.527558
0.524696
0.522302
0.520216
0.518649
0.519093
0.522927
0.521302
0.759872
0.754942
0.734031
0.708708
0.680559
0.654664
0.632171
0.613283
0.597352
0.583859
0.572529
0.563143
0.555474
0.549253
0.544183
0.539996
0.536502
0.533596
0.531184
0.52915
0.527675
0.527863
0.530506
0.528989
0.766274
0.772964
0.750738
0.72382
0.693976
0.666722
0.643148
0.623432
0.606871
0.592865
0.581124
0.57142
0.563515
0.557125
0.551936
0.547659
0.544094
0.541129
0.538683
0.536673
0.535228
0.53509
0.536735
0.535695
0.782158
0.800886
0.770113
0.73946
0.707139
0.678133
0.653238
0.632544
0.615253
0.600673
0.588472
0.57841
0.570236
0.563651
0.558321
0.553941
0.550292
0.547259
0.544772
0.542775
0.541344
0.540926
0.541779
0.541137
1.07615
1.05523
1.03885
1.03512
1.09493
1.23397
1.07947
1.05859
1.0409
1.03307
1.06832
1.1207
1.08199
1.06421
1.04493
1.03392
1.05229
1.05963
1.08208
1.06791
1.04748
1.0339
1.03878
1.02593
1.08046
1.06861
1.04766
1.03163
1.0264
1.00526
1.07785
1.06727
1.04603
1.02797
1.01535
0.990357
1.07449
1.06497
1.04333
1.02367
1.00551
0.978111
1.07061
1.06239
1.04008
1.01904
0.99663
0.967434
1.06653
1.05998
1.03667
1.01428
0.988393
0.957611
1.0627
1.05803
1.03341
1.00952
0.980515
0.948016
1.05958
1.05678
1.03053
1.00485
0.97276
0.938162
1.05757
1.05642
1.0282
1.00036
0.964957
0.92767
1.05689
1.05708
1.02653
0.99614
0.956978
0.916189
1.05766
1.05877
1.02568
0.992249
0.948713
0.903395
1.0598
1.06156
1.02564
0.988824
0.940079
0.888967
1.06312
1.06527
1.02643
0.985949
0.931024
0.872288
1.06729
1.06959
1.02799
0.98369
0.921596
0.853175
1.07186
1.07409
1.03014
0.982113
0.911882
0.831225
1.07632
1.07829
1.03261
0.981353
0.90209
0.806256
1.08016
1.08173
1.03525
0.981952
0.892791
0.778409
1.08302
1.0844
1.03867
0.985406
0.885503
0.749044
1.08518
1.08743
1.0447
0.993848
0.883458
0.722808
1.08783
1.09186
1.05399
1.00546
0.889953
0.708121
1.09081
1.09518
1.05997
1.00686
0.907606
0.708699
0.876985
0.831259
0.789727
0.754689
0.719524
0.688557
0.662218
0.64046
0.622374
0.60718
0.59449
0.584042
0.575573
0.56877
0.563282
0.558784
0.555044
0.551937
0.549402
0.547402
0.545975
0.545343
0.545598
0.545246
0.918405
0.858241
0.807322
0.768067
0.730379
0.697562
0.669818
0.646992
0.628096
0.612269
0.599079
0.588234
0.579455
0.572417
0.566758
0.562133
0.558295
0.555109
0.55252
0.550502
0.549063
0.548278
0.548132
0.547984
0.928347
0.873975
0.820507
0.778619
0.739108
0.704766
0.675779
0.651958
0.632281
0.615835
0.602146
0.590899
0.581803
0.574524
0.568685
0.563928
0.559989
0.556725
0.554077
0.552025
0.550559
0.549681
0.54934
0.549305
0.930333
0.88129
0.828964
0.785934
0.745361
0.709896
0.679892
0.655199
0.634803
0.617772
0.603606
0.591967
0.582554
0.575028
0.569005
0.564114
0.560076
0.556735
0.554027
0.551925
0.550417
0.549509
0.549181
0.54917
0.92938
0.883565
0.833329
0.790051
0.749008
0.71279
0.681997
0.656573
0.635546
0.617987
0.603379
0.591369
0.581648
0.573876
0.567667
0.562642
0.558508
0.555093
0.552324
0.550161
0.548598
0.547725
0.547618
0.54754
0.926558
0.882683
0.834335
0.791201
0.75005
0.713364
0.681983
0.655967
0.634404
0.616387
0.601386
0.589038
0.579028
0.571018
0.564626
0.559469
0.555243
0.551762
0.548934
0.546699
0.54507
0.544294
0.544612
0.544378
0.922435
0.879418
0.832496
0.789609
0.748536
0.71158
0.679774
0.653289
0.631287
0.612887
0.597552
0.584908
0.574637
0.566406
0.55984
0.554558
0.550248
0.546709
0.543826
0.541513
0.539809
0.539194
0.540132
0.539654
0.916975
0.874078
0.828116
0.785428
0.744508
0.707416
0.67531
0.648463
0.626115
0.607411
0.591807
0.578919
0.568425
0.559999
0.553275
0.547879
0.543494
0.539908
0.536979
0.534586
0.532804
0.532415
0.53416
0.533346
0.910061
0.866774
0.821339
0.778731
0.737975
0.700834
0.668527
0.641414
0.618811
0.599886
0.584086
0.571015
0.560347
0.551759
0.544901
0.539407
0.534962
0.531342
0.528379
0.52591
0.524059
0.523971
0.526712
0.525401
0.901538
0.857457
0.812161
0.769493
0.728882
0.691762
0.659345
0.632059
0.609294
0.590238
0.574324
0.561142
0.550358
0.541655
0.534695
0.529126
0.524636
0.520995
0.518009
0.515465
0.513529
0.513743
0.517663
0.516026
0.891188
0.845917
0.800412
0.757566
0.717092
0.680074
0.647652
0.620295
0.597474
0.578389
0.562455
0.549245
0.538418
0.529658
0.522639
0.517024
0.512509
0.50886
0.505857
0.503234
0.501175
0.501643
0.506864
0.505148
0.878701
0.831794
0.78576
0.742687
0.702384
0.665587
0.633299
0.605999
0.583247
0.564253
0.548411
0.535274
0.52449
0.515744
0.508721
0.5031
0.498586
0.494947
0.491938
0.489233
0.487018
0.487692
0.494281
0.492672
0.86363
0.814561
0.767726
0.724474
0.684446
0.648053
0.616089
0.589021
0.566493
0.547738
0.532123
0.519179
0.508542
0.499898
0.492943
0.487368
0.482895
0.479292
0.476296
0.473519
0.471146
0.472023
0.479986
0.478401
0.845333
0.793498
0.745682
0.702418
0.662878
0.627155
0.595783
0.569185
0.547083
0.528748
0.513523
0.500916
0.490552
0.482116
0.475315
0.469858
0.465479
0.461954
0.459004
0.456184
0.453686
0.454813
0.464144
0.46233
0.822913
0.767671
0.718807
0.675847
0.637164
0.602501
0.572093
0.546286
0.524872
0.507184
0.492545
0.480446
0.470503
0.462403
0.455862
0.450608
0.446392
0.443002
0.440146
0.437329
0.434752
0.436156
0.446837
0.444736
0.795326
0.735902
0.686026
0.643887
0.606663
0.57362
0.544682
0.520094
0.499708
0.482944
0.469129
0.457742
0.448395
0.440779
0.434623
0.429674
0.425703
0.422514
0.419811
0.417055
0.414449
0.416134
0.428105
0.425752
0.760842
0.696547
0.645937
0.605457
0.570612
0.539972
0.513173
0.490355
0.471431
0.455934
0.443228
0.432794
0.424245
0.417284
0.411656
0.407129
0.4035
0.40059
0.398107
0.39548
0.392907
0.394875
0.408038
0.405505
0.717362
0.64736
0.596774
0.55929
0.528142
0.500972
0.477175
0.456815
0.439893
0.426078
0.414817
0.405614
0.398097
0.391986
0.387048
0.383078
0.379897
0.377353
0.375165
0.372742
0.370275
0.372527
0.386751
0.384148
0.661902
0.585206
0.536485
0.503986
0.47831
0.456019
0.436305
0.419243
0.404974
0.393335
0.383907
0.376251
0.370028
0.364985
0.360919
0.357654
0.355044
0.352962
0.351149
0.349012
0.346727
0.349259
0.364378
0.36186
0.590365
0.506088
0.462827
0.438084
0.420176
0.40454
0.390229
0.377461
0.366599
0.357706
0.350551
0.344794
0.340154
0.33642
0.333426
0.331033
0.329128
0.327615
0.326265
0.324496
0.322471
0.325259
0.341045
0.338892
0.49793
0.405086
0.37341
0.360203
0.352909
0.346063
0.338711
0.331375
0.324764
0.319254
0.314853
0.311377
0.308634
0.306471
0.30477
0.303434
0.302385
0.301566
0.300781
0.299478
0.297822
0.300895
0.317042
0.315218
0.376425
0.276537
0.266114
0.269252
0.275969
0.280346
0.281681
0.281021
0.279571
0.278121
0.276986
0.276194
0.275676
0.275361
0.27519
0.275111
0.275091
0.275106
0.275003
0.274276
0.273091
0.27644
0.292684
0.291414
0.199718
0.114601
0.138772
0.164544
0.189244
0.207513
0.219329
0.226613
0.231248
0.234544
0.237195
0.239493
0.241533
0.24335
0.244956
0.246354
0.247551
0.248563
0.249278
0.249245
0.248618
0.252168
0.268191
0.268013
-0.0854603
-0.074822
-0.00624706
0.0476075
0.0937423
0.128304
0.152216
0.168605
0.180189
0.188868
0.195798
0.201571
0.206491
0.210722
0.214359
0.217467
0.220096
0.222296
0.223999
0.224812
0.224835
0.228433
0.243785
0.24563
)
;

boundaryField
{
    rotor
    {
        type            zeroGradient;
    }
    freestream
    {
        type            freestreamPressure;
        freestreamValue uniform 0;
        supersonic      false;
        value           nonuniform List<scalar> 
96
(
0.127243
0.110824
0.0950908
0.0745338
0.0575672
0.0439215
0.0326952
0.0235659
0.0163054
0.0106937
0.00650902
0.0035283
0.00153189
0.000313643
-0.000307897
-0.000503969
-0.000423954
-0.000188746
8.94368e-05
0.000327503
0.000459541
0.000474457
0.000382338
0.000232448
0.000113462
5.82085e-05
2.25e-05
5.4579e-09
4.61367e-05
9.86373e-05
0.000183675
0.000356648
0.000433953
0.000803751
0.00126882
0.00180032
0.00248649
0.00335157
0.00490628
0.00740991
0.0107498
0.0147285
0.0196613
0.0257117
0.0329218
0.0414824
0.0515547
0.0632961
0.0769193
0.0928691
0.113074
0.141496
0.153931
0.168478
0.187189
0.208333
0.231089
0.254935
0.279487
0.304407
0.329388
0.354135
0.378366
0.401818
0.424241
0.445407
0.465111
0.483099
0.498883
0.51275
0.524761
0.534542
0.541945
0.546867
0.54922
0.548944
0.546002
0.540385
0.532115
0.521242
0.507816
0.492155
0.474324
0.454392
0.432356
0.408421
0.383048
0.356571
0.329318
0.301635
0.273881
0.246452
0.219521
0.193669
0.169366
0.147054
)
;
    }
    frontAndBack
    {
        type            empty;
    }
}


// ************************************************************************* //
