/*--------------------------------*- C++ -*----------------------------------*\
  =========                 |
  \\      /  F ield         | OpenFOAM: The Open Source CFD Toolbox
   \\    /   O peration     | Website:  https://openfoam.org
    \\  /    A nd           | Version:  11
     \\/     M anipulation  |
\*---------------------------------------------------------------------------*/
FoamFile
{
    format      ascii;
    class       surfaceScalarField;
    location    "0.22";
    object      phi;
}
// * * * * * * * * * * * * * * * * * * * * * * * * * * * * * * * * * * * * * //

dimensions      [0 3 -1 0 0 0 0];

internalField   nonuniform List<scalar> 
5640
(
8.01609e-07
-8.01609e-07
2.09921e-06
-1.2976e-06
3.56726e-06
-1.46806e-06
5.04113e-06
-1.47387e-06
5.96763e-06
-9.26498e-07
-7.66758e-07
6.73439e-06
1.09453e-06
-1.89613e-06
2.41581e-06
-2.61888e-06
3.83035e-06
-2.8826e-06
5.12036e-06
-2.76387e-06
5.98843e-06
-1.79457e-06
-1.02749e-06
6.24916e-06
1.15059e-06
-3.04672e-06
2.38633e-06
-3.85463e-06
3.67451e-06
-4.17077e-06
4.8084e-06
-3.89776e-06
5.58266e-06
-2.56883e-06
-1.05638e-06
5.61155e-06
1.11097e-06
-4.15769e-06
2.23237e-06
-4.97603e-06
3.38172e-06
-5.32012e-06
4.41171e-06
-4.92775e-06
5.17515e-06
-3.33227e-06
-1.15498e-06
5.27375e-06
1.01079e-06
-5.16848e-06
2.00315e-06
-5.96839e-06
3.01545e-06
-6.33242e-06
3.95303e-06
-5.86533e-06
4.75283e-06
-4.13208e-06
-1.55937e-06
5.15723e-06
8.73986e-07
-6.04247e-06
1.72646e-06
-6.82086e-06
2.60189e-06
-7.20785e-06
3.45507e-06
-6.7185e-06
4.2929e-06
-4.96991e-06
-2.229e-06
4.96252e-06
7.15255e-07
-6.75773e-06
1.42001e-06
-7.52562e-06
2.15575e-06
-7.94359e-06
2.92132e-06
-7.48407e-06
3.76691e-06
-5.81549e-06
-3.06411e-06
4.60202e-06
5.43317e-07
-7.30104e-06
1.09519e-06
-8.07749e-06
1.68635e-06
-8.53475e-06
2.3522e-06
-8.14993e-06
3.16824e-06
-6.63153e-06
-3.99168e-06
4.09581e-06
3.64266e-07
-7.66531e-06
7.60169e-07
-8.47339e-06
1.20083e-06
-8.97541e-06
1.75042e-06
-8.69952e-06
2.50167e-06
-7.38278e-06
-4.94734e-06
3.45732e-06
1.82989e-07
-7.8483e-06
4.21598e-07
-8.712e-06
7.05868e-07
-9.25968e-06
1.12136e-06
-9.11501e-06
1.77535e-06
-8.03676e-06
-5.87525e-06
2.70326e-06
-5.02701e-10
-7.84779e-06
8.52326e-08
-8.79774e-06
2.08229e-07
-9.38268e-06
4.73292e-07
-9.38007e-06
1.00083e-06
-8.5643e-06
-6.72876e-06
1.85434e-06
-1.68413e-07
-7.67938e-06
-2.42472e-07
-8.72368e-06
-2.84421e-07
-9.34073e-06
-1.83825e-07
-9.48067e-06
1.92442e-07
-8.94056e-06
-7.46816e-06
9.31839e-07
-3.29869e-07
-7.34951e-06
-5.55835e-07
-8.49771e-06
-7.63214e-07
-9.13335e-06
-8.37583e-07
-9.4063e-06
-6.33752e-07
-9.14439e-06
-8.05557e-06
-4.63452e-08
-4.76403e-07
-6.87311e-06
-8.48418e-07
-8.1257e-06
-1.21921e-06
-8.76256e-06
-1.4738e-06
-9.15171e-06
-1.45685e-06
-9.16135e-06
-8.47837e-06
-1.03405e-06
-6.04423e-07
-6.26869e-06
-1.1128e-06
-7.61732e-06
-1.6423e-06
-8.23306e-06
-2.0779e-06
-8.71612e-06
-2.25722e-06
-8.98203e-06
-8.71274e-06
-2.02284e-06
-7.10431e-07
-5.55826e-06
-1.34143e-06
-6.98632e-06
-2.0215e-06
-7.55299e-06
-2.6355e-06
-8.10212e-06
-3.01257e-06
-8.60496e-06
-8.74893e-06
-2.97639e-06
-7.90511e-07
-4.76774e-06
-1.5277e-06
-6.24913e-06
-2.34399e-06
-6.7367e-06
-3.13054e-06
-7.31557e-06
-3.70241e-06
-8.03308e-06
-8.58419e-06
-3.86714e-06
-8.41143e-07
-3.9266e-06
-1.66611e-06
-5.42416e-06
-2.59554e-06
-5.80727e-06
-3.54268e-06
-6.36843e-06
-4.30816e-06
-7.26761e-06
-8.2263e-06
-4.66604e-06
-8.58932e-07
-3.06767e-06
-1.752e-06
-4.53109e-06
-2.76272e-06
-4.79655e-06
-3.84629e-06
-5.28486e-06
-4.8082e-06
-6.3057e-06
-7.68853e-06
-5.34598e-06
-8.40265e-07
-2.2274e-06
-1.77963e-06
-3.59172e-06
-2.83629e-06
-3.7399e-06
-4.01286e-06
-4.10829e-06
-5.15541e-06
-5.16315e-06
-6.94594e-06
-5.898e-06
-7.8129e-07
-1.44611e-06
-1.7431e-06
-2.62991e-06
-2.80406e-06
-2.67895e-06
-4.01973e-06
-2.89262e-06
-5.31499e-06
-3.86789e-06
-5.94758e-06
-6.31335e-06
-6.7774e-07
-7.68374e-07
-1.63372e-06
-1.67393e-06
-2.64695e-06
-1.66571e-06
-3.82716e-06
-1.7124e-06
-5.23329e-06
-2.46176e-06
-4.63591e-06
-6.54496e-06
-5.18594e-07
-2.49779e-07
-1.42645e-06
-7.66078e-07
-2.33133e-06
-7.60831e-07
-3.35286e-06
-6.90876e-07
-4.78555e-06
-1.02907e-06
-2.89828e-06
-6.52317e-06
-2.49779e-07
-1.01586e-06
-1.77669e-06
-2.46756e-06
-3.49663e-06
-6.39492e-06
1.28159e-05
2.22513e-05
-2.83328e-05
1.20945e-05
3.62537e-05
-3.55323e-05
1.07735e-05
3.99737e-05
-3.86527e-05
9.38365e-06
4.09252e-05
-3.95353e-05
7.91327e-06
4.05867e-05
-3.91163e-05
6.43717e-06
3.94384e-05
-3.79623e-05
5.0367e-06
3.78932e-05
-3.64927e-05
3.75758e-06
3.62455e-05
-3.49664e-05
2.60782e-06
3.46495e-05
-3.34997e-05
1.57249e-06
3.31508e-05
-3.21155e-05
6.30653e-07
3.17405e-05
-3.07987e-05
-2.37585e-07
3.03933e-05
-2.9525e-05
-1.04791e-06
2.90856e-05
-2.82753e-05
-1.81198e-06
2.78e-05
-2.70359e-05
-2.5384e-06
2.65234e-05
-2.57969e-05
-3.2336e-06
2.52455e-05
-2.45503e-05
-3.90244e-06
2.39576e-05
-2.32888e-05
-4.54857e-06
2.2651e-05
-2.20048e-05
-5.17461e-06
2.13165e-05
-2.06904e-05
-5.78222e-06
1.99437e-05
-1.93361e-05
-6.37271e-06
1.85207e-05
-1.79302e-05
-6.94728e-06
1.70289e-05
-1.64543e-05
-7.49553e-06
1.54177e-05
-1.48694e-05
1.35751e-05
-1.31268e-05
1.10167e-05
1.74838e-05
1.21639e-05
3.51064e-05
1.16692e-05
4.04684e-05
1.07042e-05
4.18902e-05
9.5329e-06
4.1758e-05
8.2789e-06
4.06924e-05
7.0459e-06
3.91262e-05
5.90163e-06
3.73898e-05
4.87425e-06
3.56769e-05
3.96148e-06
3.40636e-05
3.1468e-06
3.25552e-05
2.41103e-06
3.1129e-05
1.73759e-06
2.97591e-05
1.11358e-06
2.8424e-05
5.29323e-07
2.71076e-05
-2.23162e-08
2.57972e-05
-5.46469e-07
2.44818e-05
-1.04659e-06
2.31511e-05
-1.52461e-06
2.17945e-05
-1.98063e-06
2.03997e-05
-2.41275e-06
1.89528e-05
-2.8202e-06
1.74364e-05
-3.21444e-06
1.58119e-05
1.39119e-05
9.68531e-06
1.341e-05
1.19802e-05
3.28115e-05
1.23133e-05
4.01353e-05
1.18306e-05
4.23728e-05
1.10105e-05
4.25781e-05
1.0023e-05
4.16799e-05
8.99191e-06
4.01572e-05
8.00557e-06
3.83762e-05
7.11294e-06
3.65695e-05
6.32733e-06
3.48492e-05
5.64031e-06
3.32422e-05
5.0353e-06
3.1734e-05
4.49556e-06
3.02988e-05
4.00701e-06
2.89126e-05
3.55861e-06
2.7556e-05
3.14194e-06
2.62138e-05
2.75096e-06
2.48727e-05
2.38183e-06
2.35202e-05
2.03307e-06
2.21432e-05
1.70602e-06
2.07268e-05
1.40834e-06
1.92505e-05
1.16316e-06
1.76815e-05
9.96953e-07
1.59781e-05
1.41991e-05
8.67013e-06
1.00137e-05
1.1711e-05
2.97707e-05
1.27741e-05
3.90722e-05
1.27898e-05
4.23571e-05
1.23505e-05
4.30175e-05
1.16626e-05
4.23678e-05
1.08628e-05
4.0957e-05
1.00571e-05
3.91818e-05
9.31314e-06
3.73135e-05
8.66082e-06
3.55015e-05
8.10253e-06
3.38005e-05
7.62649e-06
3.22101e-05
7.21696e-06
3.07083e-05
6.8591e-06
2.92704e-05
6.54047e-06
2.78747e-05
6.25125e-06
2.65031e-05
5.98406e-06
2.51399e-05
5.73422e-06
2.37701e-05
5.50034e-06
2.23771e-05
5.28558e-06
2.09415e-05
5.09769e-06
1.94383e-05
4.94271e-06
1.78365e-05
4.81539e-06
1.61054e-05
1.42159e-05
7.89775e-06
7.27313e-06
1.13649e-05
2.63035e-05
1.30706e-05
3.73666e-05
1.35958e-05
4.18318e-05
1.35485e-05
4.30648e-05
1.3183e-05
4.27333e-05
1.26421e-05
4.14978e-05
1.20415e-05
3.97824e-05
1.14631e-05
3.78919e-05
1.09531e-05
3.60115e-05
1.05268e-05
3.42269e-05
1.01796e-05
3.25573e-05
9.89878e-06
3.09892e-05
9.66994e-06
2.94993e-05
9.48051e-06
2.80641e-05
9.32062e-06
2.6663e-05
9.18353e-06
2.5277e-05
9.06584e-06
2.38878e-05
8.96773e-06
2.24752e-05
8.89278e-06
2.10165e-05
8.8464e-06
1.94847e-05
8.83351e-06
1.78494e-05
8.86141e-06
1.60775e-05
1.41303e-05
7.23626e-06
4.9994e-06
1.09165e-05
2.26233e-05
1.31906e-05
3.50924e-05
1.42357e-05
4.07868e-05
1.45942e-05
4.27063e-05
1.45717e-05
4.27557e-05
1.43149e-05
4.17547e-05
1.39433e-05
4.0154e-05
1.35498e-05
3.82855e-05
1.31946e-05
3.63666e-05
1.29067e-05
3.45148e-05
1.2691e-05
3.2773e-05
1.25396e-05
3.11405e-05
1.24407e-05
2.95982e-05
1.23825e-05
2.81223e-05
1.23562e-05
2.66892e-05
1.23562e-05
2.5277e-05
1.23802e-05
2.38638e-05
1.24284e-05
2.2427e-05
1.25024e-05
2.09425e-05
1.26036e-05
1.93835e-05
1.27328e-05
1.77202e-05
1.28926e-05
1.59177e-05
1.3932e-05
6.62772e-06
2.97369e-06
1.03443e-05
1.89067e-05
1.31197e-05
3.2317e-05
1.469e-05
3.92165e-05
1.5472e-05
4.19243e-05
1.58096e-05
4.24182e-05
1.5861e-05
4.17033e-05
1.57436e-05
4.02713e-05
1.55569e-05
3.84722e-05
1.53731e-05
3.65504e-05
1.5234e-05
3.46539e-05
1.51555e-05
3.28515e-05
1.51371e-05
3.11589e-05
1.51707e-05
2.95646e-05
1.52468e-05
2.80461e-05
1.53578e-05
2.65782e-05
1.5499e-05
2.51358e-05
1.5668e-05
2.36948e-05
1.58636e-05
2.22314e-05
1.60845e-05
2.07216e-05
1.63283e-05
1.91397e-05
1.65928e-05
1.74558e-05
1.68783e-05
1.56322e-05
1.36189e-05
5.99903e-06
1.07048e-06
9.63062e-06
1.52752e-05
1.28366e-05
2.91111e-05
1.49266e-05
3.71264e-05
1.61554e-05
4.06955e-05
1.68714e-05
4.17021e-05
1.72547e-05
4.13201e-05
1.74176e-05
4.01083e-05
1.7463e-05
3.84268e-05
1.74717e-05
3.65418e-05
1.74965e-05
3.46291e-05
1.75651e-05
3.27829e-05
1.76858e-05
3.10382e-05
1.78562e-05
2.93942e-05
1.80699e-05
2.78324e-05
1.83208e-05
2.63273e-05
1.86046e-05
2.48521e-05
1.8918e-05
2.33814e-05
1.92582e-05
2.18913e-05
1.96209e-05
2.03588e-05
2.00013e-05
1.87593e-05
2.03949e-05
1.70621e-05
2.08012e-05
1.5226e-05
1.31939e-05
5.29502e-06
-7.67219e-07
8.76908e-06
1.18011e-05
1.23229e-05
2.55573e-05
1.49138e-05
3.45355e-05
1.66112e-05
3.89982e-05
1.77294e-05
4.05839e-05
1.84704e-05
4.0579e-05
1.894e-05
3.96387e-05
1.92415e-05
3.81253e-05
1.94674e-05
3.63158e-05
1.96764e-05
3.44202e-05
1.99065e-05
3.25528e-05
2.01759e-05
3.07687e-05
2.04893e-05
2.90809e-05
2.08444e-05
2.74773e-05
2.1237e-05
2.59347e-05
2.16629e-05
2.44261e-05
2.21183e-05
2.2926e-05
2.25984e-05
2.14111e-05
2.30973e-05
1.98599e-05
2.36082e-05
1.82485e-05
2.41254e-05
1.65449e-05
2.4647e-05
1.47044e-05
1.26618e-05
4.49179e-06
-2.55576e-06
7.76641e-06
8.52648e-06
1.15577e-05
2.1766e-05
1.46183e-05
3.14749e-05
1.68019e-05
3.68145e-05
1.83398e-05
3.9046e-05
1.94636e-05
3.94553e-05
2.02953e-05
3.8807e-05
2.08728e-05
3.75479e-05
2.13372e-05
3.58514e-05
2.17517e-05
3.40057e-05
2.21613e-05
3.21432e-05
2.25927e-05
3.03374e-05
2.30578e-05
2.86157e-05
2.35594e-05
2.69757e-05
2.40957e-05
2.53984e-05
2.46631e-05
2.38587e-05
2.52573e-05
2.23318e-05
2.58726e-05
2.07958e-05
2.65021e-05
1.92304e-05
2.71377e-05
1.76128e-05
2.77726e-05
1.591e-05
2.84036e-05
1.40734e-05
1.20292e-05
3.57654e-06
-4.27795e-06
6.62455e-06
5.47847e-06
1.05299e-05
1.78607e-05
1.40117e-05
2.79931e-05
1.66898e-05
3.41363e-05
1.86808e-05
3.7055e-05
2.01904e-05
3.79457e-05
2.13967e-05
3.76007e-05
2.23328e-05
3.66118e-05
2.30543e-05
3.51299e-05
2.36964e-05
3.33636e-05
2.4306e-05
3.15336e-05
2.49157e-05
2.97277e-05
2.55444e-05
2.79871e-05
2.62001e-05
2.632e-05
2.6884e-05
2.47145e-05
2.75936e-05
2.31491e-05
2.83246e-05
2.16008e-05
2.90714e-05
2.00491e-05
2.98266e-05
1.84752e-05
3.05816e-05
1.68578e-05
3.13284e-05
1.51632e-05
3.20625e-05
1.33394e-05
1.13034e-05
2.54936e-06
-5.89547e-06
5.35936e-06
2.66847e-06
9.24507e-06
1.39749e-05
1.3072e-05
2.41661e-05
1.62334e-05
3.09749e-05
1.8702e-05
3.45864e-05
2.06391e-05
3.60086e-05
2.22021e-05
3.60377e-05
2.35294e-05
3.52845e-05
2.45781e-05
3.40812e-05
2.54742e-05
3.24675e-05
2.63083e-05
3.06994e-05
2.71168e-05
2.89192e-05
2.79249e-05
2.7179e-05
2.87461e-05
2.54987e-05
2.95851e-05
2.38755e-05
3.0441e-05
2.22932e-05
3.131e-05
2.07318e-05
3.21869e-05
1.91723e-05
3.30647e-05
1.75974e-05
3.39352e-05
1.59873e-05
3.47889e-05
1.43095e-05
3.56195e-05
1.25088e-05
1.04925e-05
1.42981e-06
-7.37163e-06
3.99513e-06
1.03153e-07
7.73074e-06
1.02393e-05
1.17885e-05
2.01083e-05
1.53959e-05
2.73676e-05
1.83547e-05
3.16276e-05
2.07542e-05
3.36091e-05
2.27157e-05
3.40762e-05
2.43896e-05
3.36106e-05
2.58224e-05
3.26484e-05
2.70281e-05
3.12618e-05
2.81214e-05
2.96061e-05
2.91556e-05
2.78851e-05
3.01646e-05
2.617e-05
3.11682e-05
2.44951e-05
3.21751e-05
2.28685e-05
3.31868e-05
2.12816e-05
3.42002e-05
1.97184e-05
3.52105e-05
1.81619e-05
3.62119e-05
1.65961e-05
3.71965e-05
1.50026e-05
3.81543e-05
1.33517e-05
3.90764e-05
1.15868e-05
9.60436e-06
2.46456e-07
-8.65213e-06
2.56126e-06
-2.21165e-06
6.05304e-06
6.74755e-06
1.01826e-05
1.59788e-05
1.41563e-05
2.33939e-05
1.75898e-05
2.81941e-05
2.04634e-05
3.07354e-05
2.28717e-05
3.16679e-05
2.49177e-05
3.15646e-05
2.67178e-05
3.08484e-05
2.82816e-05
2.9698e-05
2.96793e-05
2.82085e-05
3.09756e-05
2.65887e-05
3.22149e-05
2.49307e-05
3.34245e-05
2.32855e-05
3.46189e-05
2.16741e-05
3.58027e-05
2.00978e-05
3.69743e-05
1.85468e-05
3.81291e-05
1.7007e-05
3.92615e-05
1.54636e-05
4.03646e-05
1.38995e-05
4.14283e-05
1.22881e-05
4.24407e-05
1.05744e-05
8.64488e-06
-9.48156e-07
-9.72682e-06
1.1034e-06
-4.26321e-06
4.29615e-06
3.55481e-06
8.32276e-06
1.19522e-05
1.2518e-05
1.91986e-05
1.63694e-05
2.43428e-05
1.97126e-05
2.73922e-05
2.25779e-05
2.88026e-05
2.50498e-05
2.90927e-05
2.72254e-05
2.86728e-05
2.91695e-05
2.77539e-05
3.09072e-05
2.64707e-05
3.2504e-05
2.49919e-05
3.40086e-05
2.34262e-05
3.54551e-05
2.1839e-05
3.68641e-05
2.02651e-05
3.82445e-05
1.87174e-05
3.95969e-05
1.71944e-05
4.09172e-05
1.56868e-05
4.21989e-05
1.41818e-05
4.34347e-05
1.26637e-05
4.46145e-05
1.11083e-05
4.57237e-05
9.46516e-06
7.61338e-06
-2.12196e-06
-1.05813e-05
-3.28225e-07
-6.05695e-06
2.53773e-06
6.88852e-07
6.32058e-06
8.16934e-06
1.05425e-05
1.49767e-05
1.46803e-05
2.0205e-05
1.84454e-05
2.36272e-05
2.1766e-05
2.5482e-05
2.46823e-05
2.61763e-05
2.72752e-05
2.60799e-05
2.96077e-05
2.54213e-05
3.17147e-05
2.43637e-05
3.36483e-05
2.30584e-05
3.54563e-05
2.16182e-05
3.71763e-05
2.01189e-05
3.88342e-05
1.86073e-05
4.04437e-05
1.71078e-05
4.2009e-05
1.56291e-05
4.35268e-05
1.41691e-05
4.49897e-05
1.27189e-05
4.63883e-05
1.12652e-05
4.77101e-05
9.78644e-06
4.89369e-05
8.23841e-06
6.49691e-06
-3.23057e-06
-1.12178e-05
-1.68821e-06
-7.59931e-06
8.42675e-07
-1.84203e-06
4.29339e-06
4.71863e-06
8.35497e-06
1.09151e-05
1.25873e-05
1.59727e-05
1.66484e-05
1.9566e-05
2.03704e-05
2.176e-05
2.3723e-05
2.28237e-05
2.67474e-05
2.30554e-05
2.94907e-05
2.2678e-05
3.19915e-05
2.1863e-05
3.42942e-05
2.07556e-05
3.64431e-05
1.94693e-05
3.84759e-05
1.8086e-05
4.04218e-05
1.66615e-05
4.22992e-05
1.52304e-05
4.41166e-05
1.38116e-05
4.58738e-05
1.24119e-05
4.75634e-05
1.10293e-05
4.91733e-05
9.65528e-06
5.06867e-05
8.27301e-06
5.20774e-05
6.84776e-06
5.25856e-06
-4.23689e-06
-1.1647e-05
-2.93196e-06
-8.90424e-06
-7.35216e-07
-4.03878e-06
2.3367e-06
1.64671e-06
6.09698e-06
7.15484e-06
1.02231e-05
1.18466e-05
1.43933e-05
1.53959e-05
1.83877e-05
1.77655e-05
2.21066e-05
1.91049e-05
2.55348e-05
1.96272e-05
2.86894e-05
1.95235e-05
3.15971e-05
1.89552e-05
3.42932e-05
1.80595e-05
3.68155e-05
1.69471e-05
3.91993e-05
1.57023e-05
4.14742e-05
1.43866e-05
4.3662e-05
1.30426e-05
4.57759e-05
1.16978e-05
4.78199e-05
1.03678e-05
4.97899e-05
9.0593e-06
5.16737e-05
7.77153e-06
5.34517e-05
6.49504e-06
5.50879e-05
5.21152e-06
3.81913e-06
-5.10794e-06
-1.1885e-05
-4.02169e-06
-9.99049e-06
-2.1548e-06
-5.90566e-06
5.17985e-07
-1.02607e-06
3.89095e-06
3.78188e-06
7.74673e-06
7.9908e-06
1.18255e-05
1.13171e-05
1.59062e-05
1.36849e-05
1.9848e-05
1.5163e-05
2.35855e-05
1.58897e-05
2.70973e-05
1.60117e-05
3.03866e-05
1.56659e-05
3.34719e-05
1.49742e-05
3.63798e-05
1.40391e-05
3.91392e-05
1.29429e-05
4.17768e-05
1.1749e-05
4.43148e-05
1.05046e-05
4.67691e-05
9.24342e-06
4.91484e-05
7.98855e-06
5.14534e-05
6.75437e-06
5.36756e-05
5.54928e-06
5.57987e-05
4.37193e-06
5.77887e-05
3.22153e-06
2.04499e-06
-5.80884e-06
-1.19742e-05
-4.9202e-06
-1.08791e-05
-3.38173e-06
-7.44413e-06
-1.11806e-06
-3.28974e-06
1.82453e-06
8.3929e-07
5.30279e-06
4.51254e-06
9.12156e-06
7.49832e-06
1.30922e-05
9.71424e-06
1.70672e-05
1.1188e-05
2.09523e-05
1.20046e-05
2.46952e-05
1.22689e-05
2.8273e-05
1.20881e-05
3.1684e-05
1.15633e-05
3.49393e-05
1.07838e-05
3.8057e-05
9.82519e-06
4.10574e-05
8.74855e-06
4.39599e-05
7.60214e-06
4.67804e-05
6.4229e-06
4.95302e-05
5.23871e-06
5.22149e-05
4.06967e-06
5.48331e-05
2.93105e-06
5.7375e-05
1.83011e-06
5.98187e-05
7.77752e-07
-2.2159e-07
-6.27832e-06
-1.20092e-05
-5.59186e-06
-1.15656e-05
-4.38623e-06
-8.64977e-06
-2.53781e-06
-5.13816e-06
-4.5577e-08
-1.65294e-06
2.99496e-06
1.472e-06
6.44104e-06
4.05224e-06
1.01393e-05
6.01601e-06
1.39582e-05
7.36909e-06
1.7798e-05
8.16478e-06
2.15905e-05
8.47638e-06
2.52947e-05
8.38387e-06
2.88915e-05
7.96647e-06
3.23774e-05
7.29791e-06
3.57591e-05
6.44347e-06
3.90489e-05
5.45883e-06
4.22611e-05
4.38991e-06
4.54101e-05
3.27392e-06
4.8508e-05
2.14081e-06
5.15633e-05
1.01435e-06
5.45807e-05
-8.64002e-08
5.75576e-05
-1.14674e-06
6.04915e-05
-2.15614e-06
-3.08512e-06
-6.47788e-06
-1.20763e-05
-6.00807e-06
-1.20354e-05
-5.14531e-06
-9.51252e-06
-3.71665e-06
-6.56683e-06
-1.68756e-06
-3.68203e-06
8.87685e-07
-1.10324e-06
3.89813e-06
1.0418e-06
7.21799e-06
2.69614e-06
1.07322e-05
3.85483e-06
1.43491e-05
4.54792e-06
1.79987e-05
4.82675e-06
2.16321e-05
4.75046e-06
2.52196e-05
4.37904e-06
2.87471e-05
3.77041e-06
3.22123e-05
2.9783e-06
3.56205e-05
2.05055e-06
3.89821e-05
1.02836e-06
4.23094e-05
-5.33762e-08
4.56154e-05
-1.1652e-06
4.89117e-05
-2.28194e-06
5.22088e-05
-3.38348e-06
5.55108e-05
-4.44879e-06
5.88285e-05
-5.47389e-06
-6.44579e-06
-6.33841e-06
-1.2261e-05
-6.13995e-06
-1.22339e-05
-5.64962e-06
-1.00029e-05
-4.64105e-06
-7.57541e-06
-3.06525e-06
-5.25783e-06
-9.61727e-07
-3.20676e-06
1.58106e-06
-1.50099e-06
4.46106e-06
-1.83856e-07
7.57807e-06
7.37828e-07
1.08449e-05
1.28104e-06
1.4194e-05
1.47771e-06
1.75756e-05
1.36886e-06
2.0955e-05
9.99574e-07
2.43113e-05
4.14205e-07
2.76351e-05
-3.45565e-07
3.09271e-05
-1.24139e-06
3.41941e-05
-2.23864e-06
3.74473e-05
-3.30661e-06
4.07007e-05
-4.41859e-06
4.39698e-05
-5.55106e-06
4.72708e-05
-6.68443e-06
5.06194e-05
-7.79743e-06
5.40319e-05
-8.88642e-06
-9.9386e-06
-5.61373e-06
-1.30422e-05
-5.99012e-06
-1.18575e-05
-5.92238e-06
-1.00706e-05
-5.31482e-06
-8.18297e-06
-4.1612e-06
-6.41145e-06
-2.50474e-06
-4.86322e-06
-4.20344e-07
-3.58539e-06
2.00198e-06
-2.60618e-06
4.6759e-06
-1.93609e-06
7.52287e-06
-1.56594e-06
1.04773e-05
-1.47674e-06
1.34877e-05
-1.64152e-06
1.65164e-05
-2.02913e-06
1.9538e-05
-2.60742e-06
2.2538e-05
-3.34552e-06
2.55114e-05
-4.21475e-06
2.84614e-05
-5.18867e-06
3.13979e-05
-6.24307e-06
3.43354e-05
-7.35613e-06
3.72927e-05
-8.50842e-06
4.0291e-05
-9.68267e-06
4.33536e-05
-1.08601e-05
4.6491e-05
-1.20238e-05
-1.31204e-05
-3.65521e-07
3.65521e-07
-1.17298e-06
8.07457e-07
-2.09446e-06
9.21479e-07
-2.80966e-06
7.15204e-07
-3.08881e-06
2.79148e-07
-8.65192e-07
-2.22362e-06
-5.50337e-07
9.15858e-07
-1.36249e-06
1.61961e-06
-2.11979e-06
1.67878e-06
-2.68893e-06
1.28435e-06
-2.85866e-06
4.48877e-07
-1.33607e-06
-2.38778e-06
-5.81148e-07
1.49701e-06
-1.31725e-06
2.35571e-06
-1.97452e-06
2.33605e-06
-2.45878e-06
1.76861e-06
-2.65741e-06
6.47506e-07
-1.37942e-06
-2.61406e-06
-5.81562e-07
2.07857e-06
-1.23098e-06
3.00513e-06
-1.81475e-06
2.91982e-06
-2.25765e-06
2.21151e-06
-2.52427e-06
9.14124e-07
-1.13396e-06
-2.76974e-06
-5.71517e-07
2.65009e-06
-1.13379e-06
3.5674e-06
-1.65467e-06
3.44069e-06
-2.07918e-06
2.63602e-06
-2.42178e-06
1.25673e-06
-7.09595e-07
-2.84614e-06
-5.5753e-07
3.20761e-06
-1.03004e-06
4.03991e-06
-1.49289e-06
3.90354e-06
-1.90846e-06
3.05159e-06
-2.31322e-06
1.6615e-06
-1.81968e-07
-2.84085e-06
-5.32559e-07
3.74017e-06
-9.19536e-07
4.42689e-06
-1.32537e-06
4.30937e-06
-1.7318e-06
3.45801e-06
-2.17781e-06
2.10751e-06
3.96816e-07
-2.7566e-06
-4.67924e-07
4.2081e-06
-7.94191e-07
4.75316e-06
-1.14734e-06
4.66253e-06
-1.53895e-06
3.84961e-06
-2.00381e-06
2.57237e-06
9.89724e-07
-2.59672e-06
-3.88944e-07
4.59704e-06
-6.5389e-07
5.01811e-06
-9.55333e-07
4.96397e-06
-1.32268e-06
4.21696e-06
-1.78324e-06
3.03293e-06
1.56718e-06
-2.36069e-06
-3.00253e-07
4.89729e-06
-5.00328e-07
5.21818e-06
-7.47319e-07
5.21096e-06
-1.07865e-06
4.54829e-06
-1.51254e-06
3.46683e-06
2.1028e-06
-2.04817e-06
-2.0424e-07
5.10153e-06
-3.34677e-07
5.34862e-06
-5.22443e-07
5.39872e-06
-8.05047e-07
4.83089e-06
-1.19136e-06
3.85315e-06
2.57228e-06
-1.66083e-06
-1.02218e-07
5.20375e-06
-1.58484e-07
5.40488e-06
-2.8086e-07
5.5211e-06
-5.02342e-07
5.05237e-06
-8.22265e-07
4.17307e-06
2.95327e-06
-1.20326e-06
6.23112e-09
5.19752e-06
2.57179e-08
5.3854e-06
-2.3829e-08
5.57065e-06
-1.7312e-07
5.20166e-06
-4.1085e-07
4.4108e-06
3.22678e-06
-6.84357e-07
1.13225e-07
5.0843e-06
2.17712e-07
5.28091e-06
2.4587e-07
5.54249e-06
1.78068e-07
5.26947e-06
3.46708e-08
4.5542e-06
3.38055e-06
-1.19093e-07
2.24393e-07
4.8599e-06
4.13055e-07
5.09225e-06
5.24758e-07
5.43079e-06
5.44687e-07
5.24954e-06
5.01552e-07
4.59733e-06
3.40725e-06
4.74846e-07
3.43559e-07
4.51634e-06
6.08973e-07
4.82684e-06
8.08165e-07
5.23159e-06
9.19275e-07
5.13843e-06
9.76255e-07
4.54035e-06
3.31515e-06
1.06836e-06
4.88784e-07
4.02756e-06
7.98431e-07
4.51719e-06
1.08997e-06
4.94006e-06
1.29435e-06
4.93404e-06
1.44319e-06
4.39152e-06
3.12765e-06
1.63068e-06
5.72365e-07
3.45519e-06
9.66811e-07
4.12274e-06
1.36262e-06
4.54425e-06
1.66329e-06
4.63337e-06
1.88986e-06
4.16495e-06
2.88427e-06
2.13324e-06
6.16764e-07
2.83843e-06
1.11135e-06
3.62816e-06
1.6193e-06
4.0363e-06
2.02159e-06
4.23107e-06
2.30837e-06
3.87817e-06
2.64257e-06
2.55007e-06
6.42314e-07
2.19612e-06
1.22924e-06
3.04123e-06
1.85341e-06
3.41213e-06
2.368e-06
3.71648e-06
2.70361e-06
3.54257e-06
2.50814e-06
2.83804e-06
6.45781e-07
1.55034e-06
1.31685e-06
2.37017e-06
2.05767e-06
2.6713e-06
2.7054e-06
3.06876e-06
3.12215e-06
3.12581e-06
2.56652e-06
3.06377e-06
6.25755e-07
9.2458e-07
1.36964e-06
1.62628e-06
2.21823e-06
1.82271e-06
3.03269e-06
2.2543e-06
3.66357e-06
2.49493e-06
2.41361e-06
3.81649e-06
5.68374e-07
3.56206e-07
1.37491e-06
8.19748e-07
2.29563e-06
9.01987e-07
3.31318e-06
1.23675e-06
4.35134e-06
1.45677e-06
1.54648e-06
5.21847e-06
3.56206e-07
1.17595e-06
2.07794e-06
3.31469e-06
4.77146e-06
6.31794e-06
-4.7499e-06
-1.0516e-05
-5.71955e-06
-1.08878e-05
-6.02651e-06
-9.76363e-06
-5.76157e-06
-8.44791e-06
-4.96541e-06
-7.20761e-06
-3.69503e-06
-6.1336e-06
-2.02075e-06
-5.25967e-06
-2.15548e-08
-4.60537e-06
2.22416e-06
-4.18181e-06
4.64589e-06
-3.98767e-06
7.18217e-06
-4.01302e-06
9.78278e-06
-4.24213e-06
1.24093e-05
-4.65567e-06
1.50345e-05
-5.23258e-06
1.76408e-05
-5.95179e-06
2.02192e-05
-6.79317e-06
2.27689e-05
-7.73844e-06
2.52965e-05
-8.77066e-06
2.78141e-05
-9.87368e-06
3.03392e-05
-1.10336e-05
3.28931e-05
-1.22366e-05
3.54978e-05
-1.34647e-05
3.81569e-05
-1.46829e-05
-1.57887e-05
-4.24919e-06
-8.65454e-06
-5.49737e-06
-9.63963e-06
-6.04816e-06
-9.21284e-06
-6.02023e-06
-8.47585e-06
-5.48412e-06
-7.74372e-06
-4.50472e-06
-7.113e-06
-3.14978e-06
-6.61461e-06
-1.49107e-06
-6.26409e-06
4.01138e-07
-6.07401e-06
2.46257e-06
-6.0491e-06
4.63719e-06
-6.18764e-06
6.87828e-06
-6.48322e-06
9.14877e-06
-6.92616e-06
1.1421e-05
-7.50486e-06
1.36761e-05
-8.20685e-06
1.59023e-05
-9.01938e-06
1.80943e-05
-9.93045e-06
2.02538e-05
-1.09302e-05
2.23885e-05
-1.20084e-05
2.45094e-05
-1.31544e-05
2.66288e-05
-1.43561e-05
2.87586e-05
-1.55945e-05
3.0903e-05
-1.68273e-05
-1.79314e-05
-4.14296e-06
-7.12564e-06
-5.36721e-06
-8.41538e-06
-6.01649e-06
-8.56356e-06
-6.11927e-06
-8.37307e-06
-5.73749e-06
-8.1255e-06
-4.93704e-06
-7.91345e-06
-3.7842e-06
-7.76745e-06
-2.34597e-06
-7.70231e-06
-6.87042e-07
-7.73295e-06
1.13426e-06
-7.8704e-06
3.06765e-06
-8.12102e-06
5.07123e-06
-8.48681e-06
7.11158e-06
-8.96651e-06
9.1635e-06
-9.55678e-06
1.12097e-05
-1.02531e-05
1.32408e-05
-1.10504e-05
1.52534e-05
-1.19431e-05
1.72476e-05
-1.29243e-05
1.92258e-05
-1.39866e-05
2.11908e-05
-1.51194e-05
2.31422e-05
-1.63075e-05
2.50729e-05
-1.75252e-05
2.69646e-05
-1.8719e-05
-1.97683e-05
-4.12354e-06
-5.77183e-06
-5.26508e-06
-7.27384e-06
-5.92516e-06
-7.90349e-06
-6.07259e-06
-8.22563e-06
-5.74842e-06
-8.44967e-06
-5.01698e-06
-8.64488e-06
-3.94425e-06
-8.84018e-06
-2.59521e-06
-9.05135e-06
-1.03108e-06
-9.29708e-06
6.93985e-07
-9.59547e-06
2.53447e-06
-9.96151e-06
4.45309e-06
-1.04054e-05
6.42029e-06
-1.09337e-05
8.41417e-06
-1.15507e-05
1.04196e-05
-1.22585e-05
1.24266e-05
-1.30574e-05
1.44287e-05
-1.39452e-05
1.64223e-05
-1.4918e-05
1.8406e-05
-1.59702e-05
2.03787e-05
-1.70922e-05
2.23373e-05
-1.82661e-05
2.42718e-05
-1.94597e-05
2.61772e-05
-2.06244e-05
-2.16576e-05
-4.08902e-06
-4.52895e-06
-5.14136e-06
-6.22151e-06
-5.76151e-06
-7.28334e-06
-5.88002e-06
-8.10712e-06
-5.52558e-06
-8.80412e-06
-4.75885e-06
-9.41161e-06
-3.64847e-06
-9.95055e-06
-2.25948e-06
-1.04403e-05
-6.51934e-07
-1.09046e-05
1.12205e-06
-1.13695e-05
3.02002e-06
-1.18595e-05
5.00774e-06
-1.23931e-05
7.05773e-06
-1.29837e-05
9.1489e-06
-1.36418e-05
1.12659e-05
-1.43755e-05
1.33978e-05
-1.51893e-05
1.55378e-05
-1.60852e-05
1.76822e-05
-1.70623e-05
1.98294e-05
-1.81174e-05
2.19806e-05
-1.92434e-05
2.41412e-05
-2.04267e-05
2.63223e-05
-2.16408e-05
2.85334e-05
-2.28354e-05
-2.39237e-05
-4.00221e-06
-3.36759e-06
-4.96728e-06
-5.25643e-06
-5.50426e-06
-6.74637e-06
-5.53183e-06
-8.07954e-06
-5.06386e-06
-9.27209e-06
-4.16096e-06
-1.03145e-05
-2.89742e-06
-1.12141e-05
-1.34277e-06
-1.1995e-05
4.42096e-07
-1.26895e-05
2.40561e-06
-1.3333e-05
4.50696e-06
-1.39608e-05
6.71419e-06
-1.46004e-05
9.00246e-06
-1.5272e-05
1.13533e-05
-1.59927e-05
1.37537e-05
-1.67759e-05
1.61946e-05
-1.76302e-05
1.86701e-05
-1.85607e-05
2.1177e-05
-1.95693e-05
2.37144e-05
-2.06548e-05
2.62842e-05
-2.18132e-05
2.88921e-05
-2.30345e-05
3.15516e-05
-2.43003e-05
3.42793e-05
-2.55631e-05
-2.67329e-05
-3.84265e-06
-2.28154e-06
-4.71544e-06
-4.38364e-06
-5.13471e-06
-6.32709e-06
-5.00713e-06
-8.20713e-06
-4.33785e-06
-9.94137e-06
-3.19294e-06
-1.14594e-05
-1.65773e-06
-1.27493e-05
1.88923e-07
-1.38417e-05
2.28121e-06
-1.47818e-05
4.56772e-06
-1.56195e-05
7.00787e-06
-1.6401e-05
9.57126e-06
-1.71638e-05
1.22364e-05
-1.79371e-05
1.49883e-05
-1.87446e-05
1.78162e-05
-1.96038e-05
2.07122e-05
-2.05262e-05
2.36707e-05
-2.15192e-05
2.66872e-05
-2.25857e-05
2.97569e-05
-2.37245e-05
3.28754e-05
-2.49317e-05
3.60396e-05
-2.61987e-05
3.92558e-05
-2.75165e-05
4.25305e-05
-2.88378e-05
-3.01057e-05
-3.59927e-06
-1.27898e-06
-4.36317e-06
-3.61975e-06
-4.62859e-06
-6.06167e-06
-4.27454e-06
-8.56117e-06
-3.30458e-06
-1.09113e-05
-1.80039e-06
-1.29636e-05
1.34057e-07
-1.46837e-05
2.40237e-06
-1.611e-05
4.93198e-06
-1.73114e-05
7.66701e-06
-1.83545e-05
1.05639e-05
-1.92979e-05
1.3593e-05
-2.01929e-05
1.67346e-05
-2.10787e-05
1.99754e-05
-2.19854e-05
2.3306e-05
-2.29344e-05
2.67187e-05
-2.3939e-05
3.0206e-05
-2.50065e-05
3.37589e-05
-2.61387e-05
3.73668e-05
-2.73324e-05
4.10219e-05
-2.85868e-05
4.47143e-05
-2.98912e-05
4.84356e-05
-3.12378e-05
5.21607e-05
-3.25628e-05
-3.3953e-05
-3.26433e-06
-3.75346e-07
-3.89734e-06
-2.98674e-06
-3.95924e-06
-5.99976e-06
-3.29149e-06
-9.22893e-06
-1.90336e-06
-1.22995e-05
9.87864e-08
-1.49658e-05
2.56544e-06
-1.71504e-05
5.3818e-06
-1.89263e-05
8.45212e-06
-2.03817e-05
1.17068e-05
-2.16092e-05
1.51005e-05
-2.26915e-05
1.86079e-05
-2.37002e-05
2.2215e-05
-2.46859e-05
2.59139e-05
-2.56842e-05
2.96984e-05
-2.67189e-05
3.35629e-05
-2.78034e-05
3.75038e-05
-2.89474e-05
4.15118e-05
-3.01466e-05
4.55692e-05
-3.13899e-05
4.96681e-05
-3.26856e-05
5.37925e-05
-3.40156e-05
5.7919e-05
-3.53643e-05
6.20209e-05
-3.66648e-05
-3.80496e-05
-2.83249e-06
4.08981e-07
-3.30311e-06
-2.51612e-06
-3.09393e-06
-6.20895e-06
-1.99942e-06
-1.03234e-05
-4.1991e-08
-1.42569e-05
2.58013e-06
-1.75879e-05
5.68592e-06
-2.02562e-05
9.10015e-06
-2.23406e-05
1.27086e-05
-2.39901e-05
1.6447e-05
-2.53476e-05
2.0284e-05
-2.65286e-05
2.42028e-05
-2.7619e-05
2.81927e-05
-2.86758e-05
3.2251e-05
-2.97425e-05
3.63722e-05
-3.08402e-05
4.05481e-05
-3.19793e-05
4.47775e-05
-3.31768e-05
4.90527e-05
-3.44218e-05
5.33674e-05
-3.57046e-05
5.76585e-05
-3.69767e-05
6.18358e-05
-3.81928e-05
6.57946e-05
-3.93231e-05
6.95184e-05
-4.03886e-05
-4.15122e-05
-2.29939e-06
1.04754e-06
-2.56327e-06
-2.25225e-06
-1.98877e-06
-6.78345e-06
-3.19836e-07
-1.19924e-05
2.32462e-06
-1.69013e-05
5.67417e-06
-2.09374e-05
9.43402e-06
-2.4016e-05
1.34109e-05
-2.63175e-05
1.74959e-05
-2.80751e-05
2.16351e-05
-2.94868e-05
2.58017e-05
-3.06953e-05
2.9982e-05
-3.17993e-05
3.41684e-05
-3.28622e-05
3.83669e-05
-3.3941e-05
4.25829e-05
-3.50561e-05
4.68048e-05
-3.62013e-05
5.09609e-05
-3.73329e-05
5.49545e-05
-3.84155e-05
5.8696e-05
-3.9446e-05
6.21385e-05
-4.04192e-05
6.53024e-05
-4.13568e-05
6.82165e-05
-4.22371e-05
7.09496e-05
-4.31217e-05
-4.40163e-05
-1.66333e-06
1.50761e-06
-1.65831e-06
-2.25727e-06
-5.85141e-07
-7.85662e-06
1.81385e-06
-1.43914e-05
5.2762e-06
-2.03637e-05
9.35653e-06
-2.50178e-05
1.37089e-05
-2.83684e-05
1.81241e-05
-3.07327e-05
2.25009e-05
-3.24518e-05
2.67972e-05
-3.37831e-05
3.09988e-05
-3.48969e-05
3.51114e-05
-3.59119e-05
3.9159e-05
-3.69098e-05
4.31099e-05
-3.78919e-05
4.68823e-05
-3.88285e-05
5.03999e-05
-3.97188e-05
5.36413e-05
-4.05744e-05
5.66416e-05
-4.14157e-05
5.94366e-05
-4.2241e-05
6.20665e-05
-4.30492e-05
6.45449e-05
-4.38351e-05
6.69026e-05
-4.45949e-05
6.90915e-05
-4.53105e-05
-4.59482e-05
-9.29282e-07
1.75253e-06
-5.68735e-07
-2.61782e-06
1.18269e-06
-9.60804e-06
4.48464e-06
-1.76933e-05
8.78086e-06
-2.46599e-05
1.34736e-05
-2.97105e-05
1.81635e-05
-3.30584e-05
2.26646e-05
-3.52337e-05
2.6925e-05
-3.67122e-05
3.0945e-05
-3.7803e-05
3.47494e-05
-3.87014e-05
3.83565e-05
-3.95189e-05
4.17301e-05
-4.02834e-05
4.48396e-05
-4.10014e-05
4.77207e-05
-4.17096e-05
5.04159e-05
-4.2414e-05
5.29663e-05
-4.31247e-05
5.538e-05
-4.38294e-05
5.76776e-05
-4.45386e-05
5.98762e-05
-4.52478e-05
6.19907e-05
-4.59496e-05
6.4005e-05
-4.66092e-05
6.58234e-05
-4.71289e-05
-4.74442e-05
-1.26819e-07
1.76026e-06
7.2538e-07
-3.47002e-06
3.37216e-06
-1.22548e-05
7.6528e-06
-2.19739e-05
1.26041e-05
-2.96112e-05
1.75094e-05
-3.46159e-05
2.20229e-05
-3.75719e-05
2.60892e-05
-3.93001e-05
2.97658e-05
-4.03889e-05
3.31168e-05
-4.11539e-05
3.61942e-05
-4.17788e-05
3.90251e-05
-4.23498e-05
4.16459e-05
-4.29043e-05
4.41132e-05
-4.34688e-05
4.64515e-05
-4.40478e-05
4.86825e-05
-4.4645e-05
5.08283e-05
-4.52705e-05
5.2905e-05
-4.59062e-05
5.4908e-05
-4.65415e-05
5.68054e-05
-4.71452e-05
5.85583e-05
-4.77026e-05
6.01426e-05
-4.81935e-05
6.15783e-05
-4.85646e-05
-4.86253e-05
7.59666e-07
1.47544e-06
2.24706e-06
-4.95741e-06
5.98153e-06
-1.59893e-05
1.1062e-05
-2.70544e-05
1.61792e-05
-3.47283e-05
2.06905e-05
-3.91272e-05
2.45114e-05
-4.13928e-05
2.77939e-05
-4.25826e-05