/*--------------------------------*- C++ -*----------------------------------*\
  =========                 |
  \\      /  F ield         | OpenFOAM: The Open Source CFD Toolbox
   \\    /   O peration     | Website:  https://openfoam.org
    \\  /    A nd           | Version:  11
     \\/     M anipulation  |
\*---------------------------------------------------------------------------*/
FoamFile
{
    format      ascii;
    class       volVectorField;
    location    "0.22";
    object      U;
}
// * * * * * * * * * * * * * * * * * * * * * * * * * * * * * * * * * * * * * //

dimensions      [0 1 -1 0 0 0 0];

internalField   nonuniform List<vector> 
2880
(
(0.00528188 -0.109768 -7.50809e-19)
(-0.0107091 -0.236868 3.57674e-20)
(-0.0264609 -0.395448 1.3471e-21)
(-0.0281656 -0.477206 -7.41885e-20)
(-0.00957832 -0.570439 4.20306e-20)
(0.038738 -0.372235 9.36738e-20)
(-0.0283665 -0.159402 1.84778e-19)
(-0.0515998 -0.296115 0)
(-0.0569475 -0.430519 0)
(-0.0447733 -0.497881 -2.40287e-20)
(-0.00146391 -0.555039 1.03004e-19)
(0.0470877 -0.426989 2.55673e-19)
(-0.0624134 -0.173027 -1.52787e-19)
(-0.082716 -0.304072 -1.9838e-21)
(-0.0818334 -0.419098 0)
(-0.0594324 -0.47277 0)
(0.00329041 -0.512763 -8.95958e-20)
(0.0653353 -0.421705 -8.14931e-20)
(-0.0981351 -0.174733 -2.21349e-20)
(-0.110456 -0.296237 0)
(-0.10395 -0.394036 6.43106e-21)
(-0.0727806 -0.437725 -5.42338e-21)
(0.00296166 -0.470028 -1.36374e-22)
(0.091664 -0.407848 1.78378e-20)
(-0.131149 -0.170052 0)
(-0.136021 -0.280205 -1.5479e-20)
(-0.125435 -0.362564 -1.59935e-19)
(-0.0878633 -0.399649 -2.12413e-20)
(-0.00199836 -0.423209 1.58445e-19)
(0.107165 -0.391415 -3.53455e-20)
(-0.160861 -0.162967 0)
(-0.159822 -0.259959 0)
(-0.146965 -0.328313 1.90241e-19)
(-0.105511 -0.360043 -4.35432e-20)
(-0.0150117 -0.377278 -1.16236e-19)
(0.107724 -0.365601 7.20379e-20)
(-0.186897 -0.15548 0)
(-0.182224 -0.237823 2.95066e-20)
(-0.168914 -0.293304 -4.00893e-19)
(-0.126249 -0.319841 2.97254e-19)
(-0.0358317 -0.33282 3.5146e-19)
(0.0941798 -0.331094 -2.91463e-19)
(-0.208732 -0.148127 1.45215e-18)
(-0.203239 -0.215068 0)
(-0.191257 -0.258607 3.6856e-19)
(-0.150003 -0.279779 -3.33169e-19)
(-0.0630962 -0.289462 -3.86123e-19)
(0.0678902 -0.291297 -2.23935e-19)
(-0.226002 -0.140815 -1.44743e-18)
(-0.222718 -0.192391 0)
(-0.213739 -0.224775 0)
(-0.176308 -0.240382 0)
(-0.0955762 -0.247103 0)
(0.0315076 -0.248878 -5.86676e-21)
(-0.238491 -0.133231 0)
(-0.24047 -0.170179 0)
(-0.235956 -0.19208 7.25965e-19)
(-0.204488 -0.202022 0)
(-0.132194 -0.205857 0)
(-0.0129193 -0.205872 5.71436e-19)
(-0.246149 -0.125003 -4.65804e-20)
(-0.256308 -0.148643 8.89818e-19)
(-0.257554 -0.160621 -1.3453e-18)
(-0.233704 -0.164991 -7.94478e-20)
(-0.171795 -0.166 -4.51132e-19)
(-0.0634874 -0.163837 -2.84165e-19)
(-0.2492 -0.115848 -1.49034e-18)
(-0.2699 -0.127796 -1.65341e-18)
(-0.277982 -0.130502 -4.53206e-20)
(-0.263142 -0.129471 0)
(-0.213199 -0.127864 5.98949e-19)
(-0.118305 -0.123926 0)
(-0.2478 -0.10554 1.41974e-18)
(-0.280893 -0.107651 1.78172e-18)
(-0.296689 -0.101757 6.68617e-19)
(-0.291855 -0.095656 -6.41393e-19)
(-0.255182 -0.0918056 0)
(-0.175456 -0.0869534 0)
(-0.242184 -0.0939076 -1.42176e-18)
(-0.288853 -0.088348 -8.78648e-19)
(-0.313258 -0.074285 9.05441e-20)
(-0.318883 -0.0637621 5.59379e-19)
(-0.296356 -0.058185 1.48035e-19)
(-0.233209 -0.0535996 -1.34012e-19)
(-0.232825 -0.0808251 1.56393e-18)
(-0.293426 -0.0698752 -5.24918e-20)
(-0.326976 -0.0483066 0)
(-0.343352 -0.0336739 6.33106e-19)
(-0.335343 -0.0272638 4.3047e-19)
(-0.289744 -0.0243931 -2.22173e-21)
(-0.220004 -0.0663868 -1.46932e-18)
(-0.294436 -0.052097 0)
(-0.336744 -0.0240681 -7.1974e-19)
(-0.364601 -0.00517051 -6.32318e-19)
(-0.370713 0.000755917 1.39274e-19)
(-0.343195 0.000459329 -6.50355e-19)
(-0.203986 -0.0508806 1.47411e-18)
(-0.291561 -0.0350098 0)
(-0.341841 -0.00148172 1.55764e-18)
(-0.381469 0.0213952 -7.81303e-20)
(-0.401184 0.026263 -1.4652e-19)
(-0.391856 0.0209289 6.48984e-19)
(-0.184976 -0.0347252 0)
(-0.284521 -0.0185512 5.73889e-20)
(-0.341832 0.0196354 4.76823e-20)
(-0.391866 0.045683 -7.95207e-20)
(-0.425994 0.0493722 -4.25539e-19)
(-0.43374 0.0374392 5.03495e-19)
(-0.163048 -0.0184399 1.48427e-18)
(-0.273011 -0.00261533 0)
(-0.336543 0.0393707 -7.70431e-19)
(-0.393471 0.0674923 0)
(-0.443569 0.0706857 0)
(-0.467046 0.0501773 -3.84726e-19)
(-0.138111 -0.00256248 -1.49617e-18)
(-0.256612 0.0129085 0)
(-0.325431 0.0574488 0)
(-0.385703 0.0870001 6.02541e-19)
(-0.449235 0.090358 7.44102e-20)
(-0.491194 0.0583309 0)
(-0.11011 0.0123755 4.81607e-20)
(-0.234675 0.0279528 -9.68083e-20)
(-0.3079 0.0734712 5.13306e-20)
(-0.367305 0.103723 -7.19111e-19)
(-0.440715 0.107719 -7.91227e-19)
(-0.504752 0.0671173 2.62891e-19)
(-0.079671 0.0251783 7.70694e-19)
(-0.205898 0.0419049 0)
(-0.282899 0.0866531 5.66662e-20)
(-0.335348 0.116457 -4.66133e-20)
(-0.413747 0.123578 1.00434e-18)
(-0.503756 0.0823495 1.53918e-19)
(-0.0473404 0.0335676 -7.38045e-19)
(-0.165639 0.0534701 5.60553e-19)
(-0.246998 0.095649 0)
(-0.28381 0.124404 0)
(-0.35585 0.141004 4.49426e-21)
(-0.480081 0.125953 9.89585e-20)
(-0.00544899 0.0366238 3.97507e-20)
(-0.0925746 0.0649206 -6.51626e-19)
(-0.184675 0.105291 0)
(-0.198059 0.128095 -5.52873e-20)
(-0.231411 0.123834 -3.33582e-19)
(-0.449787 0.0992629 2.368e-20)
(0.773777 -1.01288 3.76182e-20)
(1.10282 -0.945662 -6.69301e-20)
(1.24711 -0.813474 -8.96818e-21)
(1.31508 -0.695846 2.61287e-20)
(1.34108 -0.590165 0)
(1.34163 -0.49698 -1.1517e-22)
(1.32914 -0.4185 -2.8008e-20)
(1.31211 -0.354436 7.12274e-21)
(1.29489 -0.303037 8.60304e-21)
(1.27887 -0.261791 0)
(1.264 -0.228286 2.34923e-20)
(1.24982 -0.200592 -2.40353e-20)
(1.2359 -0.177282 -4.61291e-20)
(1.22192 -0.15733 -2.20389e-20)
(1.20767 -0.139991 2.08057e-20)
(1.19295 -0.124708 2.21806e-20)
(1.17759 -0.111059 0)
(1.1614 -0.0987221 0)
(1.14415 -0.0874331 1.13037e-20)
(1.1256 -0.0768664 0)
(1.10545 -0.0665613 1.75709e-20)
(1.08306 -0.0568763 -1.68835e-20)
(1.05646 -0.0517603 0)
(1.02217 -0.0574444 0)
(0.707528 -0.729003 -3.72145e-20)
(1.16364 -0.860763 1.30364e-20)
(1.32513 -0.770435 1.54403e-20)
(1.38929 -0.66645 -2.35888e-20)
(1.41113 -0.569605 1.43061e-20)
(1.40622 -0.481295 1.15895e-22)
(1.38692 -0.404944 4.5427e-21)
(1.36251 -0.341477 -4.42834e-21)
(1.33828 -0.290044 -1.84392e-20)
(1.3162 -0.248709 1.7675e-20)
(1.29635 -0.215295 -7.62715e-21)
(1.27814 -0.18791 3.6358e-21)
(1.26094 -0.165098 0)
(1.24428 -0.145791 0)
(1.22777 -0.129206 0)
(1.21112 -0.114766 4.02342e-21)
(1.1941 -0.10204 0)
(1.17643 -0.0907087 0)
(1.15785 -0.0805293 9.04147e-21)
(1.13806 -0.071252 0)
(1.11672 -0.0625095 0)
(1.09323 -0.0543535 3.90146e-21)
(1.06576 -0.0493561 -4.05339e-21)
(1.02955 -0.0570886 0)
(0.589231 -0.525586 1.0656e-20)
(1.16975 -0.753915 5.23865e-20)
(1.37708 -0.705066 3.22377e-22)
(1.45151 -0.620128 -3.1358e-21)
(1.47452 -0.534755 -9.67701e-21)
(1.46718 -0.45427 2.50614e-21)
(1.44304 -0.382396 -1.23779e-21)
(1.41238 -0.321405 0)
(1.38159 -0.271284 0)
(1.35348 -0.23076 -2.81185e-21)
(1.32851 -0.198038 0)
(1.30613 -0.17138 -2.34102e-21)
(1.28557 -0.149363 -1.51463e-21)
(1.26616 -0.130908 0)
(1.2474 -0.115211 0)
(1.22887 -0.101681 -3.64216e-21)
(1.21024 -0.0898769 0)
(1.19117 -0.0794778 4.27576e-22)
(1.17133 -0.0702632 3.78756e-21)
(1.15034 -0.0620704 -3.65163e-21)
(1.12772 -0.0546844 0)
(1.10274 -0.0480302 -3.43457e-21)
(1.07409 -0.0435193 1.18762e-20)
(1.03979 -0.0521957 -1.16945e-20)
(0.496794 -0.408899 -1.05851e-20)
(1.13361 -0.639006 -7.90358e-21)
(1.39974 -0.626641 5.07582e-21)
(1.49784 -0.561093 3.18e-21)
(1.52756 -0.4879 0)
(1.52168 -0.416679 -1.17729e-21)
(1.49535 -0.351036 2.80404e-21)
(1.46019 -0.294134 -2.60631e-21)
(1.42379 -0.24663 4.64232e-22)
(1.39003 -0.207868 -4.32166e-22)
(1.36002 -0.176501 -1.29571e-21)
(1.33344 -0.15103 1.49724e-21)
(1.30947 -0.130132 2.38235e-21)
(1.28734 -0.112752 -2.2338e-21)
(1.26639 -0.0980924 0)
(1.24609 -0.0855563 -4.13364e-22)
(1.226 -0.0747043 0)
(1.20569 -0.0652261 -4.29035e-22)
(1.18471 -0.0569163 -2.90649e-21)
(1.16252 -0.0496184 -6.57869e-21)
(1.13842 -0.0431931 6.34104e-21)
(1.11148 -0.0381309 -4.30639e-22)
(1.08096 -0.0371688 0)
(1.04687 -0.0434936 -3.03827e-21)
(0.431128 -0.349451 -2.12855e-20)
(1.06707 -0.526466 -1.17018e-19)
(1.39569 -0.541516 0)
(1.52668 -0.492837 -7.8639e-20)
(1.56846 -0.431264 0)
(1.56748 -0.36936 1.39436e-20)
(1.54185 -0.311218 -1.29032e-20)
(1.50433 -0.259743 0)
(1.46372 -0.21608 -6.38145e-21)
(1.42505 -0.180055 5.94975e-21)
(1.39033 -0.150761 0)
(1.35966 -0.126995 0)
(1.33235 -0.10759 0)
(1.30755 -0.0915723 0)
(1.28449 -0.0781839 0)
(1.26253 -0.0668631 9.32701e-21)
(1.24111 -0.0572125 -1.88719e-20)
(1.21969 -0.0489771 9.53905e-21)
(1.19771 -0.0420117 2.90756e-21)
(1.1745 -0.0362019 1.09771e-20)
(1.14925 -0.0314697 -1.05264e-20)
(1.12109 -0.0285252 2.29504e-20)
(1.08935 -0.0301594 -2.21405e-20)
(1.0532 -0.0363096 9.21681e-21)
(0.378527 -0.311742 -9.72527e-20)
(0.981258 -0.423166 -1.3519e-19)
(1.36728 -0.45305 0)
(1.5363 -0.417486 -1.02592e-19)
(1.59555 -0.366519 0)
(1.60276 -0.31371 9.02042e-20)
(1.58071 -0.263686 0)
(1.54317 -0.218587 1.65547e-20)
(1.5001 -0.179794 -2.62384e-20)
(1.45765 -0.147437 2.33778e-20)
(1.41881 -0.120964 -1.78149e-20)
(1.38435 -0.0994719 -1.39122e-20)
(1.35384 -0.0819941 0)
(1.32646 -0.0676793 0)
(1.30136 -0.0558532 0)
(1.27779 -0.0460231 -8.6614e-21)
(1.25506 -0.0378603 1.20068e-20)
(1.23252 -0.0311782 1.61699e-20)
(1.2095 -0.0258891 -2.23593e-20)
(1.18525 -0.021913 0)
(1.15895 -0.0191904 0)
(1.12979 -0.0184009 0)
(1.09715 -0.0219849 1.8263e-20)
(1.05967 -0.0291389 -1.79026e-20)
(0.330795 -0.279853 -4.11001e-19)
(0.883942 -0.332603 3.33642e-19)
(1.31582 -0.36375 2.74204e-19)
(1.52523 -0.337293 6.71365e-20)
(1.60699 -0.295463 -1.40587e-19)
(1.62553 -0.2512 -3.43865e-20)
(1.60999 -0.209303 -7.6027e-20)
(1.57503 -0.171206 -5.44651e-20)
(1.53155 -0.138085 0)
(1.48678 -0.110224 -2.72515e-20)
(1.44474 -0.0873128 -1.92219e-20)
(1.40699 -0.0686987 7.23516e-21)
(1.37354 -0.0536267 0)
(1.34373 -0.0414009 -5.28653e-21)
(1.31668 -0.0314637 4.58404e-21)
(1.29153 -0.0234174 -3.76049e-22)
(1.2675 -0.0170145 3.00559e-21)
(1.24384 -0.0121324 -8.88924e-21)
(1.21981 -0.00872168 7.02933e-21)
(1.19463 -0.00671844 5.3336e-21)
(1.16751 -0.00607095 5.70373e-21)
(1.13765 -0.00738387 0)
(1.10446 -0.0127614 2.91982e-20)
(1.06629 -0.021426 -2.26174e-20)
(0.283772 -0.247321 -9.41882e-21)
(0.781132 -0.254997 -3.63195e-19)
(1.24213 -0.275884 -2.75064e-19)
(1.49205 -0.254285 3.02524e-19)
(1.601 -0.219648 7.6992e-20)
(1.63436 -0.183235 0)
(1.62789 -0.149084 -8.48529e-20)
(1.59815 -0.118271 1.22913e-19)
(1.55657 -0.0913774 8.49982e-20)
(1.51125 -0.0687045 -8.25313e-21)
(1.46724 -0.0500498 5.66585e-20)
(1.42696 -0.0349284 -2.29934e-20)
(1.39102 -0.0227723 -1.60118e-20)
(1.35901 -0.0130533 1.89606e-20)
(1.33014 -0.00535154 -1.08509e-21)
(1.3035 0.000619075 -4.88571e-21)
(1.27823 0.00501905 -4.28639e-21)
(1.25351 0.00791418 3.95919e-21)
(1.22859 0.00932818 0)
(1.20269 0.00931436 -5.35348e-21)
(1.17502 0.00790684 -1.81123e-21)
(1.14481 0.00456647 0)
(1.1114 -0.00256093 0)
(1.07292 -0.0129713 1.33902e-21)
(0.233262 -0.212131 4.07964e-19)
(0.67596 -0.188584 3.59848e-19)
(1.14759 -0.192117 -7.48833e-19)
(1.43589 -0.170711 1.2477e-19)
(1.57544 -0.14095 -1.65811e-19)
(1.62733 -0.11131 0)
(1.63274 -0.0843871 2.84819e-19)
(1.61086 -0.0608074 -6.18491e-20)
(1.57351 -0.0403153 -3.48329e-20)
(1.52964 -0.0232931 -3.79584e-20)
(1.48523 -0.00948548 5.95277e-20)
(1.44349 0.00156136 0)
(1.40571 0.0102882 5.54155e-20)
(1.37191 0.01707 -4.45998e-20)
(1.34146 0.0221852 1.91467e-20)
(1.3135 0.0258014 1.85088e-21)
(1.28712 0.0279902 1.64451e-21)
(1.26149 0.028763 -2.7746e-21)
(1.23585 0.028119 0)
(1.20946 0.0260932 0)
(1.18155 0.0226908 -3.92005e-21)
(1.15129 0.0174101 -5.77695e-21)
(1.11796 0.00859011 0)
(1.07951 -0.00365963 -6.98523e-21)
(0.176736 -0.174765 7.19979e-19)
(0.569769 -0.132061 9.33637e-20)
(1.03456 -0.114477 4.62062e-19)
(1.35626 -0.0888343 1.7792e-20)
(1.5285 -0.061406 2.72088e-19)
(1.60267 -0.0371995 -1.54563e-19)
(1.62186 -0.0158548 1.73117e-20)
(1.61163 -0.000434421 0)
(1.58107 0.0138324 0)
(1.54058 0.0252548 -1.06996e-20)
(1.49749 0.0338798 -5.98279e-20)
(1.45564 0.0404016 8.84511e-21)
(1.41695 0.0452428 8.65934e-21)
(1.38196 0.0486799 2.22659e-20)
(1.35034 0.0508722 1.54376e-20)
(1.32134 0.0518769 -2.86236e-20)
(1.29409 0.0516787 9.15658e-21)
(1.26776 0.0502328 1.32652e-21)
(1.24163 0.0475068 8.24367e-22)
(1.215 0.0435054 -8.84307e-22)
(1.18711 0.0381966 -1.60635e-21)
(1.1571 0.0310871 5.8198e-21)
(1.12415 0.0206696 4.65884e-21)
(1.08607 0.00659786 7.04318e-21)
(0.11354 -0.136883 -7.12911e-19)
(0.463008 -0.0832611 1.7971e-19)
(0.906458 -0.0445883 -1.6226e-19)
(1.25341 -0.0112291 2.35362e-19)
(1.45855 0.0166161 1.86446e-19)
(1.55842 0.0373328 1.69025e-19)
(1.59511 0.0531678 1.38686e-19)
(1.5957 0.0635062 0)
(1.57803 0.0699973 0)
(1.54282 0.0759532 9.19234e-20)
(1.50282 0.0793669 -6.63488e-20)
(1.46235 0.081106 6.91167e-20)
(1.42393 0.0817165 0)
(1.3886 0.0814658 0)
(1.3564 0.0804385 2.51353e-20)
(1.32679 0.0786043 -2.8578e-20)
(1.29902 0.0758714 4.98927e-20)
(1.27231 0.0721376 -9.15809e-21)
(1.24597 0.067329 5.88568e-21)
(1.21936 0.0614095 -5.44577e-21)
(1.19176 0.0543028 1.62659e-21)
(1.16229 0.0455127 0)
(1.12999 0.0336365 7.7673e-21)
(1.09261 0.0178554 -1.80257e-20)
(0.0442618 -0.100089 5.96138e-19)
(0.356071 -0.0407769 3.60991e-19)
(0.767266 0.0155407 -6.40489e-19)
(1.12841 0.0595757 1.05068e-19)
(1.36445 0.090474 -6.19743e-19)
(1.49251 0.109928 -4.4906e-19)
(1.55017 0.121618 -9.99908e-20)
(1.56487 0.127144 -3.42374e-19)
(1.55829 0.12826 2.71128e-19)
(1.53506 0.128018 -1.16418e-19)
(1.49988 0.126255 -1.01006e-20)
(1.46245 0.123116 -6.37845e-20)
(1.4257 0.119279 0)
(1.3911 0.115086 0)
(1.35912 0.110601 -2.53722e-20)
(1.32953 0.105738 0)
(1.30174 0.100348 3.10365e-21)
(1.27506 0.0942761 -2.71428e-20)
(1.24887 0.0873998 5.43692e-21)
(1.22259 0.0796351 1.63909e-20)
(1.19556 0.0708561 0)
(1.1669 0.0605686 0)
(1.13556 0.0474194 2.50153e-21)
(1.0992 0.0301282 5.53561e-21)
(-0.0296157 -0.0659567 -7.88327e-19)
(0.249071 -0.00470329 -1.74865e-19)
(0.622496 0.0651855 7.81277e-19)
(0.983767 0.120989 0)
(1.24609 0.157419 2.22306e-19)
(1.40321 0.177967 3.51061e-19)
(1.48485 0.187332 1.35941e-19)
(1.51814 0.188889 2.04471e-19)
(1.52228 0.185423 1.57977e-19)
(1.51242 0.181119 9.95445e-20)
(1.48684 0.173959 -9.04573e-20)
(1.4544 0.165812 -5.86268e-20)
(1.42098 0.157429 9.42429e-20)
(1.38847 0.149151 -1.30509e-19)
(1.35777 0.141042 -3.20526e-20)
(1.32903 0.133007 4.26763e-20)
(1.30189 0.124866 -1.07852e-19)
(1.27582 0.116422 3.02896e-20)
(1.25026 0.107505 1.03465e-20)
(1.22471 0.0979787 -1.27088e-20)
(1.19856 0.0876689 7.67279e-21)
(1.17103 0.0760906 -1.61243e-20)
(1.14096 0.0619087 4.86692e-21)
(1.10597 0.0433838 1.74375e-21)
(-0.105874 -0.0359559 -1.9123e-19)
(0.142602 0.0246093 3.45537e-21)
(0.477297 0.103487 9.74077e-21)
(0.824738 0.170171 3.73564e-19)
(1.1047 0.214494 -1.04379e-18)
(1.28973 0.238461 -4.7392e-19)
(1.39718 0.247778 1.38209e-19)
(1.45165 0.247158 -1.92525e-19)
(1.47245 0.240832 0)
(1.47302 0.23174 0)
(1.46016 0.221326 0)
(1.43603 0.20837 6.85684e-20)
(1.40813 0.195538 0)
(1.37937 0.183167 6.89396e-21)
(1.35129 0.17137 1.06287e-19)
(1.32446 0.160083 -4.70748e-20)
(1.29886 0.149133 8.42826e-20)
(1.27415 0.138303 1.5703e-20)
(1.24987 0.127382 2.12437e-20)
(1.22558 0.116188 -3.95493e-20)
(1.20075 0.104502 3.1384e-20)
(1.17471 0.0918497 0)
(1.1463 0.0769368 9.67394e-22)
(1.1131 0.0575328 -5.18754e-22)
(-0.18207 -0.0115258 2.77144e-19)
(0.0383006 0.0463351 -8.26964e-19)
(0.335648 0.129315 0)
(0.659208 0.20498 2.34293e-19)
(0.944053 0.258542 1.92739e-19)
(1.15242 0.288489 0)
(1.28618 0.300243 0)
(1.36372 0.299612 0)
(1.40346 0.291607 0)
(1.41912 0.28012 0)
(1.41802 0.265735 0)
(1.40485 0.249265 0)
(1.38495 0.232583 -1.59136e-19)
(1.362 0.216415 9.92397e-21)
(1.33818 0.201052 -3.46333e-20)
(1.3146 0.186542 -7.66301e-20)
(1.29165 0.172781 -1.20446e-20)
(1.26925 0.159573 2.06657e-20)
(1.24709 0.146698 -2.36516e-21)
(1.2248 0.133937 1.74772e-21)
(1.20194 0.121045 -5.88429e-20)
(1.1779 0.107549 3.35497e-20)
(1.15164 0.0922328 -1.39741e-20)
(1.12081 0.0724048 -2.18679e-22)
(-0.2558 0.0061681 7.10075e-19)
(-0.0615273 0.0592683 1.28427e-18)
(0.201063 0.1426 -2.79598e-19)
(0.495364 0.224496 -2.4801e-19)
(0.772123 0.287024 0)
(0.994204 0.325028 0)
(1.15145 0.341939 2.3037e-19)
(1.25293 0.343606 -2.14034e-19)
(1.31358 0.335875 0)
(1.34646 0.322942 0)
(1.35978 0.306298 8.43312e-20)
(1.35905 0.287224 5.20341e-20)
(1.34923 0.267452 -1.71328e-19)
(1.33417 0.247996 1.42101e-19)
(1.31647 0.229375 9.82966e-20)
(1.29773 0.211809 -3.31485e-20)
(1.27875 0.195314 -2.09437e-20)
(1.2598 0.179774 0)
(1.24081 0.165002 3.54571e-20)
(1.2215 0.150775 -1.22792e-20)
(1.20149 0.136836 6.73348e-21)
(1.18023 0.122744 1.43349e-20)
(1.15686 0.107364 -7.52245e-21)
(1.1292 0.0876221 -6.14055e-21)
(-0.324756 0.0164313 -5.33777e-19)
(-0.154332 0.0626375 -7.8175e-19)
(0.0764232 0.143883 1.19466e-18)
(0.339781 0.229073 -1.18056e-19)
(0.598819 0.298937 0)
(0.822762 0.345607 0)
(0.995948 0.369833 -2.38153e-19)
(1.11903 0.376409 3.62949e-19)
(1.20112 0.371134 -1.7283e-20)
(1.25295 0.358555 1.1422e-19)
(1.28265 0.341099 -8.87887e-20)
(1.29615 0.320561 0)
(1.29839 0.29869 1.00473e-19)
(1.29327 0.276707 -1.73963e-19)
(1.28367 0.255368 4.21403e-20)
(1.27152 0.235095 -2.5406e-20)
(1.25805 0.216068 1.33431e-21)
(1.2439 0.1983 1.52364e-20)
(1.22926 0.181693 1.16159e-20)
(1.21408 0.166077 0)
(1.19806 0.151222 2.2542e-20)
(1.18073 0.136746 -7.59482e-21)
(1.16134 0.121679 -1.33211e-20)
(1.13819 0.102572 5.67038e-22)
(-0.386847 0.0189243 -8.57049e-20)
(-0.237702 0.0561363 -4.33788e-19)
(-0.0358665 0.133956 -1.54066e-19)
(0.197081 0.220036 0)
(0.432812 0.294984 3.4815e-19)
(0.648053 0.349441 1.48372e-19)
(0.827116 0.381814 4.70096e-19)
(0.965393 0.395209 -2.87102e-19)
(1.06635 0.394612 1.2594e-19)
(1.13701 0.384543 -3.40208e-19)
(1.18412 0.368066 1.85237e-19)
(1.21334 0.347481 0)
(1.22939 0.324708 0)
(1.23614 0.301178 -3.49038e-20)
(1.23658 0.277877 1.33131e-19)
(1.23291 0.255436 4.85839e-20)
(1.22665 0.234225 3.75011e-20)
(1.21878 0.214418 -1.53261e-20)
(1.20984 0.196053 -1.64495e-21)
(1.20002 0.17907 7.35625e-21)
(1.18924 0.163336 -5.1363e-21)
(1.17719 0.14856 3.25336e-21)
(1.16325 0.134133 4.58409e-21)
(1.14672 0.116204 -4.37951e-21)
(-0.440092 0.0137744 7.71746e-20)
(-0.309137 0.039964 5.66366e-19)
(-0.133684 0.114042 -1.47664e-19)
(0.0702949 0.199459 -1.92701e-19)
(0.280351 0.277303 -1.67763e-19)
(0.479477 0.337558 -1.42828e-20)
(0.654673 0.377373 2.14596e-19)
(0.799438 0.398229 3.3035e-19)
(0.913353 0.40387 -2.90435e-19)
(0.999788 0.398297 1.03367e-19)
(1.06328 0.384744 7.97071e-20)
(1.10834 0.365806 -1.18597e-19)
(1.1391 0.343601 -8.02204e-20)
(1.15909 0.319767 9.36059e-21)
(1.17122 0.295505 -3.35306e-21)
(1.17779 0.271662 -2.31372e-20)
(1.18048 0.248802 -3.26517e-20)
(1.18053 0.22728 2.18891e-20)
(1.17875 0.207297 -3.91905e-20)
(1.17562 0.188942 2.42736e-21)
(1.17131 0.172246 1.62759e-20)
(1.16584 0.157005 -1.14266e-20)
(1.15868 0.14325 -9.15912e-21)
(1.15168 0.126793 2.01569e-21)
(-0.482447 0.00242102 0)
(-0.366052 0.0148114 0)
(-0.214911 0.0858636 -4.65734e-19)
(-0.0385991 0.169824 -1.89957e-19)
(0.145151 0.248633 -1.67375e-19)
(0.32415 0.312463 -2.65749e-19)
(0.488093 0.357935 -4.14925e-19)
(0.630831 0.385518 -1.69032e-19)
(0.750071 0.397778 -1.17627e-19)
(0.846569 0.397897 9.84541e-20)
(0.922695 0.388849 -2.3925e-19)
(0.981458 0.373216 6.09843e-20)
(1.02597 0.353176 4.6552e-20)
(1.05917 0.33049 3.53633e-20)
(1.0836 0.306524 -2.67239e-20)
(1.10143 0.282305 0)
(1.11435 0.25858 5.017e-20)
(1.12371 0.235878 -2.24884e-20)
(1.13049 0.214572 -2.56826e-21)
(1.13539 0.194894 5.54038e-21)
(1.13876 0.177089 3.64358e-21)
(1.14119 0.160964 1.45766e-21)
(1.14166 0.147319 -7.72956e-22)
(1.1467 0.131952 0)
(-0.509789 -0.0179707 -1.59406e-19)
(-0.405977 -0.0179642 1.92161e-19)
(-0.277665 0.0516993 -1.12736e-19)
(-0.12815 0.133925 3.70155e-19)
(0.0292288 0.212053 0)
(0.186156 0.277273 0)
(0.334552 0.326272 2.9951e-19)
(0.468745 0.358997 8.41179e-20)
(0.586061 0.377092 0)
(0.685887 0.383013 0)
(0.769009 0.379239 7.38293e-20)
(0.837075 0.36807 0)
(0.892138 0.351554 0)
(0.936352 0.331426 -2.57309e-20)
(0.971766 0.309108 4.39356e-20)
(1.00021 0.285729 1.32471e-20)
(1.02325 0.262165 5.2806e-21)
(1.04218 0.239086 -1.63536e-20)
(1.05802 0.217012 -1.85279e-21)
(1.07161 0.196306 -3.03036e-21)
(1.08333 0.177389 -2.88659e-21)
(1.09439 0.160092 1.51893e-21)
(1.10259 0.145799 0)
(1.1204 0.130088 -3.41791e-22)
(-0.518006 -0.049705 3.97927e-19)
(-0.426837 -0.0557783 -2.44475e-19)
(-0.320586 0.0145797 9.75846e-20)
(-0.197578 0.0949448 -2.54704e-19)
(-0.0661844 0.170881 0)
(0.0677684 0.235354 -1.05998e-19)
(0.198116 0.2857 -1.73848e-19)
(0.319877 0.321588 8.82533e-21)
(0.429964 0.344165 5.11617e-20)
(0.527118 0.355158 -4.81676e-20)
(0.61131 0.356533 -5.87232e-20)
(0.683227 0.350245 5.56242e-20)
(0.744039 0.338063 0)
(0.79518 0.321553 0)
(0.838157 0.302065 -4.41988e-21)
(0.874429 0.280733 -3.26923e-20)
(0.905319 0.258479 0)
(0.931988 0.236046 0)
(0.955408 0.214044 2.74245e-21)
(0.976467 0.192948 0)
(0.995563 0.173251 -1.88415e-21)
(1.01426 0.154981 -1.64426e-21)
(1.02971 0.139397 2.27637e-21)
(1.05685 0.121884 -8.76248e-22)
(-0.498533 -0.0977294 -6.73425e-19)
(-0.426402 -0.0938202 2.44725e-19)
(-0.343156 -0.0214061 -2.81817e-19)
(-0.246937 0.0563386 9.29503e-20)
(-0.140932 0.128439 6.18834e-20)
(-0.0297301 0.190063 4.67413e-20)
(0.0815506 0.239532 7.89857e-20)
(0.188503 0.276635 -4.10757e-21)
(0.288055 0.302017 -9.87673e-20)
(0.37842 0.316903 5.83352e-21)
(0.458913 0.32281 -2.71196e-20)
(0.529667 0.321228 4.74801e-20)
(0.591265 0.313608 -2.81734e-20)
(0.64456 0.301299 2.68187e-20)
(0.690577 0.285496 0)
(0.73041 0.267231 1.24011e-20)
(0.765142 0.247375 -6.89557e-21)
(0.795778 0.226671 0)
(0.823211 0.205752 -3.74405e-22)
(0.848284 0.185149 0)
(0.871537 0.165332 4.68845e-22)
(0.894233 0.146631 3.80705e-21)
(0.914983 0.129535 -5.24639e-21)
(0.944499 0.110746 8.74858e-22)
(-0.436992 -0.161836 3.10691e-19)
(-0.402289 -0.122532 -5.38e-20)
(-0.347044 -0.0510607 1.93204e-19)
(-0.277846 0.0215601 3.44828e-19)
(-0.195791 0.0875984 0)
(-0.105969 0.144279 -1.03645e-19)
(-0.013252 0.190879 7.8461e-20)
(0.0782493 0.227215 -5.80367e-20)
(0.165468 0.253722 6.05048e-20)
(0.24649 0.271226 8.1082e-20)
(0.320243 0.280688 0)
(0.386345 0.283236 -2.17007e-20)
(0.444936 0.280018 1.47825e-20)
(0.496472 0.272103 0)
(0.541597 0.260458 0)
(0.58107 0.245947 0)
(0.615718 0.229324 -2.50297e-21)
(0.646393 0.211249 2.4002e-21)
(0.673904 0.192293 -9.7799e-22)
(0.699028 0.172951 6.53341e-22)
(0.722427 0.153649 -5.68981e-21)
(0.744957 0.134804 5.65445e-21)
(0.766925 0.116535 1.22211e-21)
(0.792624 0.0987116 -6.37063e-22)
(-0.0275949 0.0461971 6.26355e-19)
(-0.113313 0.0908238 0)
(-0.215594 0.125789 0)
(-0.27583 0.14169 -3.20983e-20)
(-0.276606 0.141162 2.67135e-20)
(-0.153227 0.0929178 6.3528e-20)
(-0.0600024 0.0742972 1.39941e-19)
(-0.158343 0.121269 0)
(-0.235042 0.147882 0)
(-0.264311 0.153319 -1.54804e-20)
(-0.261894 0.14182 6.37394e-20)
(-0.176126 0.087484 1.30066e-19)
(-0.0746478 0.0908871 -1.04073e-19)
(-0.165882 0.14029 -1.56669e-21)
(-0.228927 0.157555 0)
(-0.24906 0.154431 0)
(-0.244125 0.129685 -5.39185e-20)
(-0.195326 0.0665718 -4.18896e-20)
(-0.0874467 0.106829 -1.38432e-20)
(-0.16837 0.156261 0)
(-0.220958 0.167308 4.4716e-21)
(-0.237753 0.156322 -3.63431e-21)
(-0.232976 0.12306 2.71335e-23)
(-0.206511 0.0579144 9.6193e-21)
(-0.101532 0.124869 0)
(-0.170506 0.169957 -1.11145e-20)
(-0.214703 0.176434 -1.11941e-19)
(-0.228957 0.159767 -1.39489e-20)
(-0.226465 0.121393 9.22812e-20)
(-0.213818 0.0576974 -1.9743e-20)
(-0.117142 0.137275 0)
(-0.173258 0.180731 0)
(-0.20967 0.184769 1.31925e-19)
(-0.222147 0.164461 -2.68682e-20)
(-0.222352 0.123706 -6.70757e-20)
(-0.218209 0.0631136 3.9472e-20)
(-0.131248 0.149363 0)
(-0.176359 0.188638 2.07684e-20)
(-0.205235 0.192403 -2.74691e-19)
(-0.216561 0.170385 1.87089e-19)
(-0.219154 0.129224 2.04823e-19)
(-0.2201 0.0722145 -1.60095e-19)
(-0.137306 0.168455 1.14178e-18)
(-0.17735 0.195123 0)
(-0.200775 0.199644 2.51924e-19)
(-0.211503 0.177559 -2.09597e-19)
(-0.215897 0.137388 -2.2576e-19)
(-0.219633 0.083837 -1.25295e-19)
(-0.140782 0.178473 -1.1401e-18)
(-0.176206 0.200927 0)
(-0.195947 0.206845 0)
(-0.206416 0.185967 0)
(-0.211932 0.147802 0)
(-0.216675 0.097622 -5.89433e-21)
(-0.143503 0.186859 0)
(-0.173483 0.206381 0)
(-0.190558 0.214249 4.99964e-19)
(-0.200896 0.195544 0)
(-0.206838 0.160127 0)
(-0.211124 0.11325 3.35435e-19)
(-0.145648 0.193797 -3.58516e-20)
(-0.169307 0.211563 6.59263e-19)
(-0.184463 0.222003 -9.34895e-19)
(-0.19466 0.206204 -5.31196e-20)
(-0.200376 0.174081 -2.87778e-19)
(-0.202948 0.130496 -1.73916e-19)
(-0.146637 0.198529 -1.17207e-18)
(-0.163778 0.216516 -1.24149e-18)
(-0.177533 0.230182 -3.45023e-20)
(-0.187538 0.217843 0)
(-0.19245 0.18941 3.85986e-19)
(-0.192207 0.149145 0)
(-0.14588 0.200797 1.11857e-18)
(-0.157 0.221261 1.35449e-18)
(-0.169692 0.238804 4.73913e-19)
(-0.179477 0.230343 -4.40623e-19)
(-0.183105 0.205863 0)
(-0.179104 0.168929 0)
(-0.142955 0.200912 -1.12283e-18)
(-0.149013 0.225744 -6.75398e-19)
(-0.160933 0.247829 6.47232e-20)
(-0.170527 0.243549 3.88641e-19)
(-0.172525 0.223172 1.02552e-19)
(-0.164043 0.189499 -9.40868e-20)
(-0.137446 0.199845 1.23291e-18)
(-0.13986 0.229878 -4.17264e-20)
(-0.151305 0.257223 0)
(-0.16086 0.257245 4.55271e-19)
(-0.161054 0.241062 3.12337e-19)
(-0.147612 0.210415 -2.05589e-21)
(-0.128333 0.201152 -1.15503e-18)
(-0.129946 0.233799 0)
(-0.14097 0.2668 -5.31968e-19)
(-0.150652 0.271282 -4.60266e-19)
(-0.149191 0.259154 1.10741e-19)
(-0.130787 0.231128 -5.00034e-19)
(-0.103122 0.20575 1.07298e-18)
(-0.120277 0.236926 0)
(-0.13017 0.276103 1.15236e-18)
(-0.140138 0.285436 -5.8076e-20)
(-0.137506 0.277209 -1.06174e-19)
(-0.114808 0.251011 5.07218e-19)
(-0.0903712 0.197731 0)
(-0.112056 0.237102 4.42323e-20)
(-0.119085 0.284213 3.8153e-20)
(-0.129506 0.299354 -5.93119e-20)
(-0.126551 0.295231 -3.27757e-19)
(-0.101274 0.269551 4.1957e-19)
(-0.0835084 0.182604 9.04008e-19)
(-0.103845 0.234041 0)
(-0.107428 0.29037 -5.68856e-19)
(-0.118791 0.312594 0)
(-0.11672 0.313543 0)
(-0.0925142 0.286057 -3.16357e-19)
(-0.0724095 0.164006 -9.15216e-19)
(-0.0942665 0.227163 0)
(-0.0946753 0.294075 0)
(-0.10773 0.324426 4.49686e-19)
(-0.108223 0.333349 5.71898e-20)
(-0.092205 0.299716 0)
(-0.0599273 0.143988 2.89159e-20)
(-0.0831877 0.216304 -7.16593e-20)
(-0.0804518 0.295026 3.76597e-20)
(-0.0957846 0.333903 -5.33844e-19)
(-0.0998777 0.356985 -6.04429e-19)
(-0.102386 0.310749 2.19016e-19)
(-0.0500797 0.124503 4.9545e-19)
(-0.0711446 0.201573 0)
(-0.064969 0.292977 4.15047e-20)
(-0.082679 0.339001 -3.44224e-20)
(-0.0877703 0.388133 7.516e-19)
(-0.112181 0.323248 1.33605e-19)
(-0.0411287 0.101745 -5.30725e-19)
(-0.0581468 0.180952 4.01255e-19)
(-0.0488447 0.285935 0)
(-0.0691303 0.333317 0)
(-0.0674215 0.428374 1.62632e-21)
(-0.104851 0.337945 6.36334e-20)
(-0.0297733 0.0514311 -6.144e-19)
(-0.0451007 0.128253 -4.81303e-19)
(-0.031195 0.251077 -2.46132e-20)
(-0.0499507 0.286333 -1.99002e-21)
(-0.0319275 0.456595 -2.44152e-19)
(-0.0918236 0.311993 3.38569e-21)
(-0.291105 -0.174358 0)
(-0.356159 -0.133643 -1.26858e-19)
(-0.338593 -0.0701196 -1.89123e-20)
(-0.293983 -0.00700038 -3.90269e-20)
(-0.232589 0.0503253 0)
(-0.161264 0.100115 4.67734e-20)
(-0.085109 0.142027 -4.08316e-20)
(-0.00802777 0.175965 -1.88502e-21)
(0.0669593 0.202067 -4.84087e-20)
(0.137868 0.220782 0)
(0.20348 0.232741 -2.39937e-20)
(0.263154 0.238682 5.15051e-21)
(0.316717 0.239384 -1.05331e-20)
(0.364335 0.23562 2.04557e-20)
(0.406394 0.228111 -8.1582e-21)
(0.443413 0.217516 -3.18175e-21)
(0.475993 0.204441 1.40497e-22)
(0.50479 0.189421 2.78286e-21)
(0.53049 0.172917 8.1915e-22)
(0.553767 0.155323 -1.31683e-22)
(0.575263 0.137005 1.32757e-21)
(0.595659 0.118387 -1.34219e-21)
(0.615655 0.100129 0)
(0.636497 0.084573 6.35053e-22)
(-0.24522 -0.132714 -2.69006e-20)
(-0.322737 -0.123416 4.13348e-20)
(-0.327248 -0.0786826 2.15193e-20)
(-0.299976 -0.0292667 -8.68737e-20)
(-0.253953 0.0172082 4.28518e-20)
(-0.196772 0.0586235 -4.64699e-20)
(-0.133692 0.0945213 -3.69749e-20)
(-0.0684503 0.124738 1.60679e-20)
(-0.00391581 0.149166 5.4826e-20)
(0.0579558 0.167929 -4.24687e-20)
(0.115918 0.181306 1.44289e-20)
(0.16924 0.189683 -4.71967e-21)
(0.217604 0.19352 0)
(0.260995 0.193307 0)
(0.299615 0.189533 0)
(0.333821 0.182664 -1.17607e-21)
(0.364017 0.173085 0)
(0.390651 0.16113 0)
(0.4143 0.147149 -1.70826e-23)
(0.43549 0.131449 0)
(0.454709 0.114356 0)
(0.472435 0.0963447 1.17626e-22)
(0.489309 0.0785488 -1.44502e-22)
(0.50653 0.0645151 0)
(-0.236187 -0.0940372 6.85847e-21)
(-0.303554 -0.106307 4.8136e-20)
(-0.316338 -0.081248 2.21808e-22)
(-0.298928 -0.0470001 -4.12143e-21)
(-0.262442 -0.012355 -2.76715e-20)
(-0.214407 0.019952 7.76224e-21)
(-0.160018 0.0491414 -4.71153e-21)
(-0.102889 0.0748629 0)
(-0.0457217 0.0967749 0)
(0.00961862 0.114691 8.25068e-21)
(0.0619582 0.128565 0)
(0.11059 0.138475 3.19476e-21)
(0.155172 0.144583 1.9536e-21)
(0.195638 0.147105 0)
(0.232111 0.146273 0)
(0.264843 0.142319 1.01154e-21)
(0.29422 0.135501 0)
(0.320671 0.126067 -7.00564e-23)
(0.344559 0.114275 -2.17942e-22)
(0.36624 0.100424 2.09363e-22)
(0.385946 0.0849007 0)
(0.403872 0.0683586 -1.13454e-22)
(0.420818 0.0523413 3.97738e-22)
(0.438602 0.040795 -2.52907e-22)
(-0.237346 -0.0660032 -6.78433e-21)
(-0.292155 -0.089657 -5.77643e-21)
(-0.305196 -0.0816239 4.92235e-21)
(-0.292049 -0.0620794 4.11601e-21)
(-0.259827 -0.0394767 0)
(-0.216108 -0.016502 -2.6863e-21)
(-0.165925 0.00574214 7.69152e-21)
(-0.112842 0.0266587 -7.18208e-21)
(-0.0594202 0.0456576 4.59107e-21)
(-0.00741864 0.0622288 -4.32039e-21)
(0.0420944 0.0760119 5.29185e-21)
(0.0884921 0.0867934 -5.57528e-21)
(0.13148 0.0944749 -2.93887e-21)
(0.171001 0.0990347 2.79659e-21)
(0.20717 0.100515 0)
(0.240211 0.0990095 1.55929e-22)
(0.270391 0.0946499 0)
(0.298002 0.0876034 6.99019e-23)
(0.323304 0.0780458 4.11893e-22)
(0.346533 0.0662955 3.35001e-22)
(0.367808 0.0528877 -3.22523e-22)