/*--------------------------------*- C++ -*----------------------------------*\
  =========                 |
  \\      /  F ield         | OpenFOAM: The Open Source CFD Toolbox
   \\    /   O peration     | Website:  https://openfoam.org
    \\  /    A nd           | Version:  11
     \\/     M anipulation  |
\*---------------------------------------------------------------------------*/
FoamFile
{
    format      ascii;
    class       surfaceVectorField;
    location    "0.22";
    object      Uf;
}
// * * * * * * * * * * * * * * * * * * * * * * * * * * * * * * * * * * * * * //

dimensions      [0 1 -1 0 0 0 0];

internalField   nonuniform List<vector> 
5640
(
(-0.00153626 -0.165092 -3.80211e-19)
(-0.00941625 -0.134848 -2.83015e-19)
(-0.0196406 -0.32164 2.38221e-20)
(-0.0298794 -0.266649 1.78837e-20)
(-0.0276251 -0.437115 -3.42567e-20)
(-0.0390597 -0.413311 6.73549e-22)
(-0.0182668 -0.517003 -1.39462e-20)
(-0.0327042 -0.488009 -4.91086e-20)
(0.00542001 -0.528352 6.72332e-20)
(-0.00407894 -0.562917 7.25174e-20)
(0.0384513 -0.39906 1.79433e-19)
(0.35503 -0.576623 1.3449e-19)
(-0.0390033 -0.220395 9.77193e-20)
(-0.0462174 -0.166167 1.55568e-20)
(-0.054638 -0.365737 0)
(-0.0671635 -0.300093 -9.919e-22)
(-0.0512907 -0.465543 -1.16084e-20)
(-0.0691872 -0.424821 0)
(-0.0233643 -0.521667 3.90579e-20)
(-0.0521846 -0.485321 -1.20143e-20)
(0.0191277 -0.526803 1.77508e-19)
(-0.000410714 -0.533825 6.00215e-21)
(0.0523826 -0.424126 8.50594e-20)
(0.326407 -0.509002 1.11277e-19)
(-0.0719281 -0.232721 -8.1822e-20)
(-0.0812358 -0.173888 -8.75247e-20)
(-0.082383 -0.362734 -1.03411e-21)
(-0.096853 -0.300157 -9.919e-22)
(-0.071075 -0.44759 0)
(-0.0929548 -0.406568 3.21553e-21)
(-0.028878 -0.4893 -4.35419e-20)
(-0.0659433 -0.455247 -2.71169e-21)
(0.0330681 -0.488471 -8.56416e-20)
(0.00320808 -0.491395 -4.48715e-20)
(0.0788146 -0.414774 -3.18485e-20)
(0.284475 -0.435977 -4.30753e-20)
(-0.103989 -0.230774 -1.17059e-20)
(-0.11472 -0.172398 -1.10674e-20)
(-0.107231 -0.345777 3.0787e-21)
(-0.123285 -0.288224 -7.73949e-21)
(-0.0888014 -0.417371 9.29577e-22)
(-0.114721 -0.378302 -7.67522e-20)
(-0.036058 -0.451287 -2.854e-21)
(-0.0802681 -0.418683 -1.33323e-20)
(0.0466843 -0.450389 7.08737e-21)
(0.00151876 -0.446542 7.91545e-20)
(0.101141 -0.399505 -8.75386e-21)
(0.259935 -0.392735 5.98798e-21)
(-0.133511 -0.221326 -7.29299e-21)
(-0.145845 -0.166487 0)
(-0.130727 -0.321755 -8.51734e-20)
(-0.147826 -0.270069 -7.73949e-21)
(-0.107109 -0.382128 -9.22608e-20)
(-0.136143 -0.345431 1.50917e-20)
(-0.0462598 -0.409922 6.60831e-20)
(-0.0966133 -0.379836 -3.23922e-20)
(0.0517196 -0.411873 6.38728e-20)
(-0.00791168 -0.40016 2.17391e-20)
(0.108805 -0.378318 1.83462e-20)
(0.241868 -0.370537 -2.7764e-20)
(-0.160399 -0.208507 0)
(-0.173756 -0.159198 0)
(-0.153384 -0.29432 9.10728e-20)
(-0.17094 -0.248874 1.47533e-20)
(-0.126743 -0.344773 7.72979e-20)
(-0.157883 -0.310797 -1.05326e-19)
(-0.0616194 -0.367904 -7.85177e-20)
(-0.115819 -0.339929 1.26856e-19)
(0.0450695 -0.372645 -2.43556e-20)
(-0.0252275 -0.355009 1.17612e-19)
(0.101379 -0.348259 -1.09712e-19)
(0.221207 -0.346512 4.91292e-21)
(-0.184639 -0.194509 1.39022e-20)
(-0.19775 -0.151786 7.26076e-19)
(-0.175552 -0.265626 -1.75889e-19)
(-0.192689 -0.226434 1.47533e-20)
(-0.148118 -0.306886 -6.36125e-20)
(-0.180053 -0.275946 -1.62377e-20)
(-0.0823316 -0.32605 3.23665e-19)
(-0.138093 -0.299801 -1.78857e-20)
(0.027558 -0.331739 3.77047e-20)
(-0.04942 -0.311129 -1.72352e-20)
(0.0810739 -0.311185 -2.57784e-19)
(0.194069 -0.314876 -3.413e-19)
(-0.205973 -0.180216 7.67965e-19)
(-0.217352 -0.144465 2.43059e-21)
(-0.197215 -0.236836 1.76438e-19)
(-0.212969 -0.203726 0)
(-0.171165 -0.269353 2.95493e-20)
(-0.202485 -0.241686 1.8428e-19)
(-0.107723 -0.284628 -3.58903e-19)
(-0.163147 -0.260078 -1.66584e-19)
(0.000598088 -0.289624 -3.06085e-19)
(-0.079343 -0.268285 -1.93061e-19)
(0.0497279 -0.270077 -1.15031e-19)
(0.159488 -0.278075 -1.34501e-19)
(-0.224145 -0.165919 -7.65466e-19)
(-0.232293 -0.137042 -7.23714e-19)
(-0.218161 -0.208565 0)
(-0.231601 -0.181288 0)
(-0.195517 -0.232674 0)
(-0.224856 -0.208431 3.62983e-19)
(-0.136978 -0.243898 0)
(-0.190405 -0.221205 0)
(-0.0338675 -0.247165 -2.86306e-21)
(-0.113911 -0.226491 0)
(0.00931027 -0.227368 2.8271e-19)
(0.117295 -0.237902 1.66663e-19)
(-0.238967 -0.151626 0)
(-0.242468 -0.129191 -2.32902e-20)
(-0.238094 -0.181128 3.47537e-19)
(-0.248364 -0.159398 4.44909e-19)
(-0.220633 -0.197144 3.75246e-19)
(-0.246773 -0.176359 -3.09753e-19)
(-0.169229 -0.204157 0)
(-0.219114 -0.183515 -3.97239e-20)
(-0.0743007 -0.205185 2.78869e-19)
(-0.15203 -0.185947 -2.25566e-19)
(-0.0382138 -0.18486 1.43636e-19)
(0.0677032 -0.196261 6.33365e-19)
(-0.250761 -0.136461 3.94361e-19)
(-0.24776 -0.120475 -7.68458e-19)
(-0.256746 -0.154669 -1.80187e-19)
(-0.263164 -0.138255 -3.82087e-19)
(-0.245924 -0.16293 -7.33392e-19)
(-0.267783 -0.14557 -6.95238e-19)
(-0.203481 -0.165732 -2.60079e-19)
(-0.248454 -0.147249 -3.97239e-20)
(-0.119211 -0.164446 -3.70961e-19)
(-0.19255 -0.146963 7.41668e-20)
(-0.0909518 -0.143914 -1.42082e-19)
(0.0116275 -0.155006 -4.68454e-19)
(-0.25815 -0.122746 -1.56717e-18)
(-0.24863 -0.110782 -3.46314e-20)
(-0.273635 -0.129303 -8.83324e-19)
(-0.275416 -0.117737 6.4257e-20)
(-0.270716 -0.130157 -2.34259e-20)
(-0.287352 -0.11614 3.11731e-19)
(-0.238734 -0.128905 2.91078e-19)
(-0.277539 -0.112591 -3.20696e-19)
(-0.167093 -0.125621 3.06654e-19)
(-0.234265 -0.109885 2.99475e-19)
(-0.14702 -0.105535 0)
(-0.0495159 -0.11559 2.48536e-19)
(-0.262345 -0.107971 1.58909e-18)
(-0.245146 -0.0998439 -1.00929e-21)
(-0.288345 -0.10498 1.24904e-18)
(-0.284895 -0.0980168 4.51416e-19)
(-0.294259 -0.0989394 3.57409e-20)
(-0.304998 -0.0880405 3.79581e-19)
(-0.273897 -0.0939712 -3.29688e-19)
(-0.305402 -0.0797344 -4.08324e-20)
(-0.216438 -0.0892137 0)
(-0.275846 -0.0750548 7.40176e-20)
(-0.204387 -0.0703188 -6.70062e-20)
(-0.114202 -0.0788199 -3.28661e-19)
(-0.262886 -0.0928308 -1.16452e-18)
(-0.237658 -0.0875032 7.19546e-20)
(-0.300444 -0.0817261 -4.14673e-19)
(-0.291174 -0.0791427 -4.6557e-19)
(-0.315869 -0.069329 3.17311e-19)
(-0.320139 -0.0613153 4.52721e-20)
(-0.30782 -0.0611907 3.59474e-19)
(-0.331148 -0.0487454 5.96242e-19)
(-0.265617 -0.0558541 1.01118e-20)
(-0.315928 -0.0427943 2.89252e-19)
(-0.261592 -0.0390996 -6.81171e-20)
(-0.179588 -0.0468838 -1.57867e-19)
(-0.259864 -0.0772574 8.05308e-19)
(-0.226545 -0.0737386 4.73044e-20)
(-0.309395 -0.059647 -2.73628e-20)
(-0.293968 -0.0610231 -2.62459e-20)
(-0.334758 -0.041373 3.05858e-19)
(-0.331886 -0.0362145 -3.5987e-19)
(-0.339349 -0.0306756 5.34628e-19)
(-0.354036 -0.0194825 3.54495e-23)
(-0.313111 -0.0258406 2.19381e-19)
(-0.35308 -0.0133064 2.8456e-19)
(-0.316581 -0.0120802 -3.26288e-19)
(-0.244556 -0.0193412 1.13376e-19)
(-0.25335 -0.061242 -7.77044e-19)
(-0.212095 -0.0587496 3.04279e-21)
(-0.314578 -0.0387821 -3.44557e-19)
(-0.293034 -0.0435941 0)
(-0.350046 -0.0150822 -6.77506e-19)
(-0.339333 -0.0128224 4.19214e-19)
(-0.36743 -0.00242033 -2.57339e-19)
(-0.373089 0.00804942 -3.55224e-19)
(-0.357265 0.000594288 -2.46018e-19)
(-0.386038 0.0134061 -4.20094e-21)
(-0.367587 0.0106228 -2.86409e-22)
(-0.306732 0.00281423 -8.31787e-20)
(-0.243338 -0.044945 7.79576e-19)
(-0.194542 -0.0428839 7.37054e-19)
(-0.315489 -0.0190741 7.45677e-19)
(-0.288081 -0.0268327 2.86945e-20)
(-0.36076 0.00938834 7.67853e-19)
(-0.341876 0.00902411 8.0238e-19)
(-0.390876 0.0236207 -1.11366e-19)
(-0.386683 0.0335189 -7.88255e-20)
(-0.396534 0.0235811 2.41407e-19)
(-0.413716 0.0376483 -2.86928e-19)
(-0.412879 0.0290767 5.7624e-19)
(-0.364209 0.0193181 1.5588e-19)
(-0.229805 -0.0285647 2.7039e-20)
(-0.174034 -0.0266158 7.42137e-19)
(-0.311771 -0.000401772 5.29727e-20)
(-0.278818 -0.0106618 2.86945e-20)
(-0.365662 0.0319781 -1.30934e-20)
(-0.339211 0.0294676 -3.61554e-19)
(-0.408208 0.0473047 -2.47679e-19)
(-0.392699 0.0565409 -3.97603e-20)
(-0.429627 0.0434449 2.82587e-20)
(-0.43482 0.05997 -2.1277e-19)
(-0.450712 0.043322 5.69203e-20)
(-0.41488 0.0302067 2.56144e-19)
(-0.212635 -0.0123421 7.84953e-19)
(-0.150599 -0.0105344 -6.10901e-21)
(-0.303167 0.0173267 -3.68824e-19)
(-0.264882 0.00502278 0)
(-0.363611 0.0526914 -3.9823e-19)
(-0.331012 0.0483643 -3.85216e-19)
(-0.417236 0.0686888 0)
(-0.389617 0.0771928 3.0127e-19)
(-0.454982 0.0606505 -1.87752e-19)
(-0.44641 0.0805074 3.72051e-20)
(-0.479433 0.0537018 -1.92363e-19)
(-0.456896 0.0356652 -1.94734e-19)
(-0.191514 0.00345263 -7.91243e-19)
(-0.124209 0.00470224 -7.24004e-19)
(-0.289227 0.0340577 0)
(-0.245719 0.0202745 -4.84041e-20)
(-0.354056 0.0714669 2.91092e-19)
(-0.316675 0.0654398 2.56653e-20)
(-0.415457 0.0880438 3.44172e-19)
(-0.376472 0.0954271 -5.79775e-20)
(-0.469273 0.0744985 3.8097e-20)
(-0.444942 0.0991074 -3.58408e-19)
(-0.497871 0.0629345 1.31446e-19)
(-0.489866 0.0362376 0)
(-0.165966 0.018458 -1.80528e-20)
(-0.0950236 0.018448 4.09428e-19)
(-0.269407 0.0496006 -2.62472e-20)
(-0.220246 0.0350274 -4.84041e-20)
(-0.336054 0.0878445 -3.20876e-19)
(-0.295317 0.0802656 5.39984e-20)
(-0.401438 0.104981 -7.54158e-19)
(-0.351122 0.110595 -3.82862e-19)
(-0.469279 0.086713 -2.83597e-19)
(-0.427011 0.116191 1.04075e-19)
(-0.504275 0.0746817 2.08404e-19)
(-0.51257 0.0341803 7.41787e-20)
(-0.135468 0.0317089 4.07579e-19)
(-0.0633211 0.029931 1.75696e-20)
(-0.242715 0.0633104 2.71275e-20)
(-0.185431 0.0487079 2.80276e-19)
(-0.307693 0.100852 7.24014e-21)
(-0.264726 0.0918232 2.83331e-20)
(-0.371578 0.119231 4.6413e-19)
(-0.309339 0.121155 -2.33066e-20)
(-0.449897 0.100601 5.89322e-19)
(-0.385158 0.131204 5.01992e-19)
(-0.495703 0.092709 1.00918e-19)
(-0.521196 0.0315196 2.80423e-19)
(-0.0979477 0.0414326 -1.226e-19)
(-0.0259074 0.0369731 -3.49147e-19)
(-0.205467 0.0739215 2.92203e-19)
(-0.129239 0.0586849 -4.66533e-20)
(-0.264841 0.109558 0)
(-0.216533 0.0977871 0)
(-0.317203 0.131994 2.18412e-21)
(-0.241667 0.12343 -2.76437e-20)
(-0.397884 0.128178 5.05941e-20)
(-0.291989 0.138743 -1.50707e-19)
(-0.462501 0.121982 8.18275e-20)
(-0.508213 0.0387231 -2.44604e-19)
(-0.0411979 0.0487638 -2.84163e-19)
(-0.140001 0.0849969 -3.39677e-19)
(-0.196216 0.117449 -2.67097e-20)
(-0.2286 0.129248 -1.80629e-19)
(-0.290227 0.101103 -1.59233e-19)
(-0.500167 0.00293842 1.43338e-19)
(0.931858 -0.995972 -1.34028e-20)
(0.702668 -0.866244 2.01853e-22)
(0.790111 -1.12072 1.69579e-20)
(1.1727 -0.885747 -3.85561e-20)
(1.14233 -0.904338 -4.15114e-20)
(1.06094 -0.965428 -3.34651e-20)
(1.28033 -0.756583 7.12199e-21)
(1.28973 -0.792401 3.23604e-21)
(1.20528 -0.820109 -1.30876e-20)
(1.32785 -0.643993 1.32828e-20)
(1.35334 -0.681291 3.11054e-21)
(1.27641 -0.700282 -1.00954e-21)
(1.34132 -0.544489 -5.67099e-23)
(1.37674 -0.579963 7.15306e-21)
(1.30544 -0.59283 0)
(1.33541 -0.458657 -1.38674e-20)
(1.37436 -0.48919 6.89895e-22)
(1.30938 -0.499176 1.80517e-20)
(1.32068 -0.387201 -1.06682e-20)
(1.35833 -0.411759 -1.12555e-20)
(1.30073 -0.421011 -3.13568e-21)
(1.30357 -0.329271 7.85406e-21)
(1.33751 -0.347982 1.01685e-21)
(1.28753 -0.357599 3.56137e-21)
(1.28695 -0.282786 4.34938e-21)
(1.31673 -0.296558 -5.14731e-21)
(1.27375 -0.306827 2.48656e-21)
(1.2715 -0.245289 1.16236e-20)
(1.29764 -0.255263 8.83748e-21)
(1.26058 -0.266012 -3.13678e-20)
(1.25698 -0.214615 -1.5427e-22)
(1.28025 -0.221799 7.93255e-21)
(1.24803 -0.232721 1.17461e-20)
(1.24292 -0.189067 -3.50394e-20)
(1.26403 -0.194257 -1.01998e-20)
(1.23573 -0.20506 1.54627e-20)
(1.22897 -0.167406 -3.41897e-20)
(1.24846 -0.171195 -2.30645e-20)
(1.22335 -0.181643 -1.10557e-20)
(1.21485 -0.14874 -7.7715e-22)
(1.23313 -0.151564 -1.10195e-20)
(1.21067 -0.161478 -1.10195e-20)
(1.20037 -0.132414 2.14877e-20)
(1.21774 -0.134601 1.04029e-20)
(1.19752 -0.143846 3.50868e-20)
(1.18533 -0.117938 1.11744e-20)
(1.20205 -0.119739 1.3102e-20)
(1.18375 -0.128206 -2.33118e-20)
(1.16955 -0.104931 0)
(1.18586 -0.106551 0)
(1.16922 -0.114145 0)
(1.15284 -0.0930929 5.61257e-21)
(1.16892 -0.0947169 0)
(1.15377 -0.101343 2.21764e-20)
(1.13494 -0.082179 5.68955e-21)
(1.15101 -0.083983 1.01958e-20)
(1.1372 -0.0895351 -3.5949e-20)
(1.11555 -0.0719836 8.72908e-21)
(1.13185 -0.0740616 0)
(1.11929 -0.0783835 2.0816e-20)
(1.09424 -0.0623099 -1.59256e-21)
(1.11111 -0.0645395 8.78543e-21)
(1.09977 -0.067423 7.61532e-21)
(1.07007 -0.0529034 -8.492e-21)
(1.08823 -0.0556247 -6.491e-21)
(1.07798 -0.0571203 -4.90013e-20)
(1.04115 -0.0435592 0)
(1.06125 -0.050575 -2.02669e-21)
(1.05193 -0.0517209 5.19806e-20)
(1.02583 -0.0572626 0)
(1.01912 -0.0564842 0)
(0.928735 -0.808575 -1.9337e-20)
(0.625653 -0.625984 -1.32793e-20)
(1.24306 -0.8125 1.72936e-20)
(1.16573 -0.807283 3.34771e-20)
(1.35659 -0.719708 -3.71139e-21)
(1.35185 -0.737794 7.88132e-21)
(1.39997 -0.619532 -5.38097e-21)
(1.421 -0.643323 -1.33623e-20)
(1.40868 -0.52651 7.31881e-21)
(1.44326 -0.552205 2.65562e-21)
(1.39667 -0.444074 2.29849e-21)
(1.43708 -0.467804 1.31102e-21)
(1.37483 -0.374007 1.148e-22)
(1.41527 -0.393687 1.65245e-21)
(1.35051 -0.316359 -1.16044e-20)
(1.38766 -0.331453 -2.21417e-21)
(1.32734 -0.269796 -2.75211e-22)
(1.36009 -0.280673 -9.21959e-21)
(1.30636 -0.232287 4.98748e-21)
(1.33495 -0.239741 7.34131e-21)
(1.28733 -0.201798 -2.05095e-21)
(1.31251 -0.206671 -3.81358e-21)
(1.26962 -0.176644 1.83475e-21)
(1.29219 -0.179648 6.01506e-22)
(1.25268 -0.155549 0)
(1.2733 -0.157233 -7.57313e-22)
(1.23609 -0.137579 0)
(1.25524 -0.138351 0)
(1.21951 -0.122051 1.99573e-21)
(1.2376 -0.122209 0)
(1.20267 -0.108456 2.02696e-21)
(1.22 -0.108224 1.86818e-22)
(1.18533 -0.0964146 0)
(1.20216 -0.0959582 0)
(1.16721 -0.0856367 4.48933e-21)
(1.18378 -0.0850921 2.13788e-22)
(1.14802 -0.0759008 4.55089e-21)
(1.16455 -0.075394 6.41452e-21)
(1.12744 -0.0670429 0)
(1.14412 -0.0666568 -1.82581e-21)
(1.105 -0.0589418 1.93868e-21)
(1.12209 -0.0585894 0)
(1.07962 -0.0514136 -5.22766e-23)
(1.09792 -0.0511882 2.83681e-22)
(1.0486 -0.0439448 -2.03835e-21)
(1.07036 -0.0464628 4.25759e-21)
(1.03377 -0.0545905 -5.84727e-21)
(0.872055 -0.656206 3.1021e-20)
(0.542123 -0.467249 -5.28567e-23)
(1.27153 -0.71838 2.91039e-20)
(1.14693 -0.696498 2.17699e-20)
(1.41362 -0.662583 -1.37456e-21)
(1.38736 -0.665862 2.80375e-21)
(1.46281 -0.57893 -6.35171e-21)
(1.47484 -0.590609 6.06082e-24)
(1.4709 -0.495617 -3.67798e-21)
(1.50132 -0.511325 -4.8385e-21)
(1.45527 -0.419237 7.62403e-22)
(1.49472 -0.435473 6.92905e-22)
(1.4279 -0.35272 -6.26848e-22)
(1.46944 -0.366714 7.83122e-22)
(1.39716 -0.29699 0)
(1.43649 -0.307768 -1.30315e-21)
(1.36769 -0.251484 -1.39028e-21)
(1.40285 -0.258956 2.32116e-22)
(1.34112 -0.214715 -1.42059e-21)
(1.37187 -0.219313 -1.62201e-21)
(1.31743 -0.184925 -1.15902e-21)
(1.34435 -0.187269 -6.47855e-22)
(1.29594 -0.160523 -1.94838e-21)
(1.31985 -0.161205 -4.15624e-22)
(1.27595 -0.140247 -7.63962e-22)
(1.29756 -0.139747 4.3386e-22)
(1.25686 -0.123144 0)
(1.27678 -0.12183 -1.1169e-21)
(1.23821 -0.108513 -1.80662e-21)
(1.25691 -0.106652 0)
(1.21963 -0.0958333 -1.83489e-21)
(1.23748 -0.0936187 -2.02789e-21)
(1.20077 -0.0847211 2.12238e-22)
(1.21811 -0.0822907 0)
(1.18132 -0.0748984 2.0959e-21)
(1.19839 -0.0723523 2.8751e-24)
(1.1609 -0.0661726 1.03232e-22)
(1.17796 -0.0635903 4.40537e-22)
(1.1391 -0.0584271 -1.83752e-21)
(1.15635 -0.0558451 -5.11516e-21)
(1.1153 -0.0516647 -1.70668e-21)
(1.13295 -0.0489397 3.17052e-21)
(1.08849 -0.0461279 4.17524e-21)
(1.10678 -0.0430832 -1.89952e-21)
(1.05718 -0.0420638 4.98797e-21)
(1.0766 -0.0403514 5.93811e-21)
(1.04423 -0.0478376 -7.3664e-21)
(0.80815 -0.535485 -9.2765e-21)
(0.465557 -0.379058 -1.59353e-20)
(1.26338 -0.620367 -1.54979e-21)
(1.09585 -0.583066 -6.24607e-20)
(1.44779 -0.592447 4.14554e-21)
(1.39672 -0.584151 2.53791e-21)
(1.51246 -0.525423 1.61659e-21)
(1.51233 -0.526959 -3.77295e-20)
(1.52468 -0.453254 -5.79703e-22)
(1.54825 -0.459565 0)
(1.50871 -0.384669 7.85661e-22)
(1.54482 -0.393002 6.38314e-21)
(1.47802 -0.323386 3.36918e-22)
(1.51884 -0.33111 -5.0496e-21)
(1.44223 -0.271049 -1.08934e-21)
(1.48246 -0.276924 -1.30315e-21)
(1.40711 -0.227743 1.33783e-22)
(1.44391 -0.231343 -2.95861e-21)
(1.37519 -0.192529 -8.59435e-22)
(1.40766 -0.193953 2.75879e-21)
(1.34686 -0.164001 1.65926e-22)
(1.37527 -0.163624 -6.47855e-22)
(1.32157 -0.140744 1.93569e-21)
(1.34662 -0.139007 7.48622e-22)
(1.29851 -0.121559 6.81212e-23)
(1.32097 -0.118857 1.19117e-21)
(1.27695 -0.105511 -1.12621e-21)
(1.29749 -0.102159 -1.1169e-21)
(1.25632 -0.0918936 -2.0504e-22)
(1.27547 -0.0881359 0)
(1.23612 -0.0801862 -2.08249e-22)
(1.25434 -0.0762078 4.45682e-21)
(1.21592 -0.070008 -2.12962e-22)
(1.23358 -0.0659566 -9.43593e-21)
(1.19527 -0.0610958 -1.65915e-21)
(1.21272 -0.0570992 4.55501e-21)
(1.17369 -0.0532947 -4.73034e-21)
(1.19126 -0.0494604 4.00742e-23)
(1.15055 -0.0465615 -3.40165e-23)
(1.1686 -0.0429041 2.19921e-21)
(1.12504 -0.0409498 2.97611e-21)
(1.14397 -0.0373215 -2.09269e-21)
(1.09626 -0.0364848 -2.16602e-22)
(1.11649 -0.0333126 1.12599e-20)
(1.06371 -0.0329991 -1.5104e-21)
(1.08544 -0.0336428 -1.10702e-20)
(1.05007 -0.039899 3.08927e-21)
(0.742047 -0.441191 -7.26717e-20)
(0.403953 -0.330718 -5.92691e-20)
(1.22693 -0.524375 -5.97342e-20)
(1.02172 -0.475157 -1.2219e-19)
(1.4596 -0.514215 -3.85884e-20)
(1.38108 -0.49734 0)
(1.54718 -0.462153 -3.9977e-20)
(1.53159 -0.455147 -9.0781e-20)
(1.568 -0.400971 6.86586e-21)
(1.58223 -0.398861 0)
(1.55488 -0.341004 1.02209e-21)
(1.58532 -0.341506 5.20739e-20)
(1.52338 -0.286216 -6.5345e-21)
(1.56149 -0.287423 -6.45162e-21)
(1.48431 -0.238571 -3.15268e-21)
(1.52394 -0.239139 8.27733e-21)
(1.44463 -0.198579 -7.90922e-22)
(1.48206 -0.197915 -1.63099e-20)
(1.40789 -0.165774 3.0059e-21)
(1.44147 -0.163728 1.46638e-20)
(1.37516 -0.13913 0)
(1.40467 -0.135849 -8.90747e-21)
(1.34614 -0.117466 0)
(1.37208 -0.113222 -6.95608e-21)
(1.32006 -0.0997033 0)
(1.34316 -0.0947834 0)
(1.29612 -0.0849668 0)
(1.31705 -0.0796187 0)
(1.2736 -0.0725899 4.62647e-21)
(1.29297 -0.0670127 0)
(1.2519 -0.0620878 -4.69517e-21)
(1.2702 -0.056438 3.32805e-22)
(1.23048 -0.0531275 -4.76327e-21)
(1.24812 -0.0475315 -3.43252e-21)
(1.20878 -0.0455062 6.24635e-21)
(1.22614 -0.0400724 1.28545e-20)
(1.18619 -0.0391351 6.91542e-21)
(1.20365 -0.0339446 -9.72586e-21)
(1.16198 -0.0340217 -2.61912e-23)
(1.17992 -0.0290511 5.48855e-21)
(1.13528 -0.0302307 6.10861e-21)
(1.15415 -0.0253232 -5.26321e-21)
(1.10515 -0.0278303 5.79397e-21)
(1.1255 -0.0234539 1.14752e-20)
(1.07071 -0.0269242 -6.55197e-21)
(1.09334 -0.0260592 -1.93871e-21)
(1.05644 -0.0327241 -4.34292e-21)
(0.672393 -0.364531 -1.1437e-19)
(0.353495 -0.296039 -2.54127e-19)
(1.16929 -0.432394 -6.90107e-20)
(0.931803 -0.37805 1.01811e-19)
(1.44941 -0.430907 -5.03419e-20)
(1.34149 -0.408412 1.37102e-19)
(1.56523 -0.39128 -5.21536e-20)
(1.5309 -0.377361 -1.81717e-20)
(1.59907 -0.34037 4.44168e-20)
(1.60149 -0.330946 -7.02933e-20)
(1.59193 -0.289296 4.573e-20)
(1.61434 -0.282414 2.85497e-20)
(1.56225 -0.241782 8.171e-21)
(1.59554 -0.236456 -3.80135e-20)
(1.52196 -0.199817 -3.89242e-21)
(1.55927 -0.194861 -1.89552e-20)
(1.47917 -0.164127 -2.25052e-21)
(1.51597 -0.158909 -1.31192e-20)
(1.43847 -0.13458 3.73739e-21)
(1.47234 -0.128804 -1.93683e-21)
(1.40178 -0.110484 -1.5419e-20)
(1.43188 -0.104117 -1.88594e-20)
(1.36925 -0.090915 -7.02055e-21)
(1.39576 -0.0840676 -3.61641e-21)
(1.34028 -0.0749617 0)
(1.36376 -0.0677959 0)
(1.31402 -0.0618534 0)
(1.33515 -0.0545281 -2.64326e-21)
(1.28967 -0.0509998 -4.2963e-21)
(1.30907 -0.0436484 2.29202e-21)
(1.26651 -0.0419848 1.64895e-21)
(1.2847 -0.0347114 -4.65652e-21)
(1.24387 -0.0345446 1.40732e-20)
(1.26132 -0.0274295 7.5062e-21)
(1.22109 -0.02854 -2.91163e-21)
(1.23821 -0.021648 3.64031e-21)
(1.19746 -0.023928 -1.12542e-20)
(1.21468 -0.0172987 -7.55959e-21)
(1.17221 -0.0207277 0)
(1.18997 -0.0143099 2.6668e-21)
(1.14449 -0.0189867 0)
(1.16325 -0.0126263 2.85187e-21)
(1.11332 -0.0187748 9.07714e-21)
(1.13373 -0.012889 0)
(1.0776 -0.0202297 1.833e-20)
(1.10083 -0.0173685 2.37306e-20)
(1.06302 -0.0252747 -2.026e-20)
(0.5998 -0.301712 -4.7605e-20)
(0.306692 -0.263751 -2.0826e-19)
(1.09478 -0.345476 3.04546e-19)
(0.832631 -0.293774 -1.47765e-20)
(1.41725 -0.34529 1.72596e-19)
(1.27895 -0.319823 -5.07303e-22)
(1.56499 -0.314926 -3.94856e-20)
(1.50877 -0.295752 1.84391e-19)
(1.616 -0.273155 -8.71305e-20)
(1.60421 -0.257497 -3.17973e-20)
(1.6179 -0.230682 -5.49169e-20)
(1.63016 -0.217158 -1.71933e-20)
(1.59281 -0.19081 -6.53846e-20)
(1.61913 -0.179141 -8.10736e-20)
(1.55364 -0.155214 -2.75573e-20)
(1.58677 -0.14469 3.36383e-20)
(1.5095 -0.124646 -1.34741e-20)
(1.54421 -0.11469 4.24991e-20)
(1.46604 -0.0991494 -2.32786e-20)
(1.49914 -0.0894291 -1.81744e-20)
(1.4261 -0.0782793 -6.65857e-21)
(1.4561 -0.0686516 1.83639e-20)
(1.39045 -0.0613506 3.65111e-21)
(1.41707 -0.0517888 -8.17445e-21)
(1.35879 -0.0476406 -2.62006e-21)
(1.38235 -0.0381788 -8.00591e-21)
(1.33033 -0.0365175 -6.10629e-22)
(1.35143 -0.0272097 6.62943e-21)
(1.30421 -0.0274975 2.00472e-21)
(1.32346 -0.0183928 1.74947e-21)
(1.27961 -0.0202533 1.2424e-21)
(1.29756 -0.0113864 -2.63088e-21)
(1.25576 -0.0145939 -2.91084e-21)
(1.27291 -0.0059866 -6.404e-22)
(1.2319 -0.0104315 -9.85262e-22)
(1.24871 -0.0020994 -2.46503e-21)
(1.20731 -0.00774466 6.18712e-21)
(1.22423 0.000311609 3.51466e-21)
(1.18119 -0.00654728 5.51748e-21)
(1.19869 0.00130493 -9.30151e-23)
(1.15271 -0.00687872 2.86948e-21)
(1.17128 0.000923226 1.88326e-21)
(1.12086 -0.00883718 1.45122e-20)
(1.14125 -0.00140477 0)
(1.08442 -0.0126421 3.39289e-20)
(1.10795 -0.00765636 1.45991e-20)
(1.06965 -0.0171864 -1.07851e-20)
(0.525428 -0.24766 -1.82067e-19)
(0.258198 -0.229837 2.00347e-19)
(1.00647 -0.264157 -3.20053e-19)
(0.728784 -0.221708 -2.47451e-21)
(1.36304 -0.25976 8.36006e-21)
(1.19478 -0.23403 -5.11949e-19)
(1.54488 -0.234914 1.8569e-19)
(1.46407 -0.212464 2.13647e-19)
(1.61715 -0.200848 3.90809e-20)
(1.5884 -0.180235 -4.3792e-20)
(1.63116 -0.16636 -4.18358e-20)
(1.63105 -0.147199 0)
(1.6133 -0.134151 1.66199e-20)
(1.63047 -0.116682 9.94622e-20)
(1.57771 -0.105313 1.04182e-19)
(1.60468 -0.0894794 3.05318e-20)
(1.53426 -0.0804889 3.99822e-20)
(1.56519 -0.0657937 2.55906e-20)
(1.48956 -0.0597483 2.38641e-20)
(1.52058 -0.0459529 -2.31057e-20)
(1.44736 -0.0427651 1.84304e-20)
(1.47634 -0.0297295 5.80931e-20)
(1.4092 -0.0290414 -1.95349e-20)
(1.43532 -0.0166516 -1.14967e-20)
(1.37518 -0.0180402 8.67337e-22)
(1.39844 -0.00621506 1.97019e-20)
(1.34471 -0.00928542 9.02136e-21)
(1.36552 0.00203123 -1.28196e-20)
(1.31693 -0.00241915 -2.82887e-21)
(1.33585 0.00843629 8.84274e-21)
(1.29097 0.00278642 -4.58832e-21)
(1.30855 0.0132268 -1.67776e-21)
(1.26596 0.00644999 -1.66436e-22)
(1.28272 0.0165187 -1.18509e-21)
(1.24114 0.00861842 1.99335e-21)
(1.25754 0.0183503 5.92292e-22)
(1.21573 0.00930114 -2.65889e-21)
(1.23225 0.0187332 0)
(1.18899 0.00848646 -3.59372e-21)
(1.2061 0.0177116 -2.67674e-21)
(1.16005 0.00611849 -9.11209e-22)
(1.1783 0.0153047 -2.9223e-21)
(1.12789 0.00203851 0)
(1.14807 0.0109927 -2.88847e-21)
(1.09113 -0.00409262 6.65663e-22)
(1.11469 0.00302012 0)
(1.07626 -0.00830001 -2.8231e-21)
(0.448586 -0.198773 3.84482e-19)
(0.204794 -0.193534 5.63971e-19)
(0.906424 -0.189238 -1.82884e-19)
(0.622924 -0.160298 2.26606e-19)
(1.28716 -0.17668 -3.05897e-19)
(1.0909 -0.153373 -1.42146e-19)
(1.50345 -0.153354 -1.80911e-20)
(1.39613 -0.129749 7.12809e-20)
(1.60052 -0.125146 -8.41652e-20)
(1.55214 -0.101105 5.31384e-20)
(1.6299 -0.0977819 1.40427e-19)
(1.61515 -0.0741907 -7.72813e-20)
(1.62203 -0.0729808 1.13712e-19)
(1.6275 -0.0500341 1.5248e-19)
(1.59252 -0.0509719 -4.95737e-20)
(1.61137 -0.0305679 -3.09246e-20)
(1.55193 -0.0321763 -3.73404e-20)
(1.57745 -0.0131749 -1.74164e-20)
(1.50778 -0.0167397 1.02763e-20)
(1.53522 0.00102889 -2.51121e-20)
(1.46465 -0.00423361 3.0056e-20)
(1.49146 0.0122402 5.51395e-22)
(1.42483 0.00573462 2.74509e-20)
(1.44965 0.0210194 4.42256e-21)
(1.38899 0.0135525 6.37725e-21)
(1.41141 0.0277979 3.25658e-20)
(1.35683 0.0195466 -1.29924e-20)
(1.377 0.0329026 -1.16175e-20)
(1.32761 0.0239436 1.05675e-20)
(1.34596 0.0365523 1.76769e-20)
(1.30042 0.026867 1.74848e-21)
(1.31747 0.0388591 -1.33864e-20)
(1.2744 0.0283636 -4.56837e-22)
(1.29064 0.0398511 5.40055e-21)
(1.24876 0.0284408 -1.39694e-21)
(1.26466 0.0395115 -9.45479e-22)
(1.22275 0.0270929 0)
(1.23877 0.0378237 4.12184e-22)
(1.19563 0.0242963 -1.94745e-21)
(1.21225 0.0348076 -4.42154e-22)
(1.16655 0.0199589 -4.84276e-21)
(1.18434 0.03045 -2.7632e-21)
(1.13441 0.01384 -2.90567e-21)
(1.15421 0.0242533 9.82634e-23)
(1.09771 0.00545603 -3.47254e-21)
(1.12107 0.0146358 2.32942e-21)
(1.08283 0.00148695 3.19505e-22)
(0.368435 -0.153695 4.14622e-19)
(0.144973 -0.155907 2.36222e-21)
(0.796571 -0.121886 2.73852e-19)
(0.516318 -0.107697 1.36537e-19)
(1.19058 -0.0979203 2.55864e-19)
(0.970252 -0.0796608 1.49901e-19)
(1.4396 -0.072453 1.50559e-19)
(1.30483 -0.0500355 1.26577e-19)
(1.56429 -0.0479181 5.43776e-20)
(1.49365 -0.0223335 2.29267e-19)
(1.61196 -0.0263066 -6.98218e-20)
(1.58072 0.00015415 7.23114e-21)
(1.61685 -0.00832496 8.76703e-21)
(1.60858 0.0187004 7.86196e-20)
(1.59666 0.00634382 0)
(1.60377 0.0315878 0)
(1.56114 0.0192853 -5.29028e-21)
(1.5797 0.0419903 0)
(1.51939 0.029241 -3.50075e-20)
(1.54181 0.0506608 3.98088e-20)
(1.47688 0.0368822 -2.58284e-20)
(1.50025 0.0566701 -6.30884e-20)
(1.43655 0.042638 7.7919e-21)
(1.45908 0.0607953 3.95683e-20)
(1.39966 0.0468376 1.54029e-20)
(1.42051 0.0635156 4.32967e-21)
(1.36632 0.0496975 1.88802e-20)
(1.38534 0.0651038 1.11329e-20)
(1.33598 0.0513276 -5.98071e-21)
(1.35342 0.0656819 2.02865e-20)
(1.30783 0.0517523 -9.87673e-21)
(1.32411 0.0652632 -2.86008e-20)
(1.28103 0.0509462 5.26994e-21)
(1.29659 0.0637939 2.97918e-20)
(1.25479 0.048873 1.07719e-21)
(1.27006 0.0612005 -3.91578e-21)
(1.22841 0.0455015 -1.77849e-22)
(1.24382 0.0574299 3.35503e-21)
(1.20118 0.0407814 -1.24301e-21)
(1.2172 0.0524667 -3.29544e-21)
(1.17224 0.0345716 2.0838e-21)
(1.18944 0.0462566 1.07978e-22)
(1.14043 0.0265366 5.24278e-21)
(1.15971 0.0383048 2.9099e-21)
(1.10413 0.0160273 5.84416e-21)
(1.12708 0.0271591 6.12721e-21)
(1.08938 0.0122458 -5.49125e-21)
(0.284624 -0.111705 -2.773e-19)
(0.0787508 -0.118574 -5.83867e-20)
(0.679056 -0.0624326 5.75255e-21)
(0.409377 -0.0621144 2.70351e-19)
(1.07508 -0.0252298 3.28544e-20)
(0.836662 -0.0146411 -4.01374e-19)
(1.35272 0.00529997 1.95619e-19)
(1.19079 0.0241017 1.70215e-19)
(1.50676 0.0285941 1.77868e-19)
(1.41154 0.0535695 -2.16343e-19)
(1.57616 0.045785 1.57037e-19)
(1.52558 0.0736969 -1.39186e-19)
(1.59545 0.0581839 7.02338e-20)
(1.57277 0.0874685 2.0295e-20)
(1.58706 0.0665467 0)
(1.5804 0.0953954 -1.71187e-19)
(1.5607 0.0727991 4.54503e-20)
(1.56811 0.0990973 1.35564e-19)
(1.52316 0.0773949 1.36127e-20)
(1.53908 0.102071 -1.22471e-20)
(1.48291 0.0800013 -7.54539e-22)
(1.50144 0.102866 -3.82247e-20)
(1.44342 0.0812357 3.48787e-20)
(1.46247 0.102152 3.18281e-21)
(1.40649 0.0814726 0)
(1.42488 0.100533 0)
(1.37268 0.0808772 1.24628e-20)
(1.38991 0.0983072 0)
(1.34174 0.0794772 -1.50803e-21)
(1.35781 0.0955468 2.23655e-22)
(1.31303 0.0772151 1.00273e-20)
(1.3282 0.0921946 -1.4289e-20)
(1.28577 0.073998 2.07737e-20)
(1.30041 0.0881298 2.67499e-20)
(1.25923 0.0697401 -1.68847e-21)
(1.27371 0.0832234 -1.79427e-20)
(1.23276 0.0643732 3.97683e-22)
(1.24744 0.0773776 5.6613e-21)
(1.20568 0.0578103 -1.93227e-21)
(1.22099 0.0705326 5.47257e-21)
(1.17716 0.0498546 8.18316e-22)
(1.19367 0.0625868 8.13293e-22)
(1.14599 0.0400703 3.86052e-21)
(1.1646 0.0530456 0)
(1.11041 0.0276225 2.2866e-20)
(1.13279 0.0405338 5.20799e-21)
(1.09594 0.0240111 -6.00309e-21)
(0.197397 -0.0726741 4.75104e-19)
(0.00722409 -0.08309 -9.68547e-20)
(0.556255 -0.0114577 -1.35545e-19)
(0.302294 -0.0229283 9.30631e-20)
(0.943031 0.0394389 -2.81951e-19)
(0.694767 0.0402853 7.12737e-20)
(1.24287 0.0772798 -2.65714e-19)
(1.05587 0.0901332 5.25339e-20)
(1.42633 0.101921 -5.35698e-19)
(1.30521 0.123905 -1.98718e-19)
(1.52039 0.116558 -2.7281e-19)
(1.44789 0.143971 -4.89995e-20)
(1.55749 0.124236 -2.19626e-19)
(1.51762 0.154547 1.79751e-20)
(1.56157 0.127768 -3.86822e-20)
(1.54159 0.158077 -6.96388e-20)
(1.54697 0.127881 8.14986e-20)
(1.54039 0.156913 2.14552e-19)
(1.51774 0.127013 -6.38136e-20)
(1.52368 0.154531 -8.43654e-21)
(1.48148 0.124495 -3.52858e-20)
(1.49344 0.150161 -5.08899e-20)
(1.44436 0.121031 -3.21878e-20)
(1.45848 0.144502 -6.07775e-20)
(1.40863 0.117071 0)
(1.42339 0.138385 4.71214e-20)
(1.3753 0.112774 -1.25803e-20)
(1.38983 0.132147 -6.52547e-20)
(1.34448 0.108129 -1.27869e-20)
(1.35849 0.125847 -2.87124e-20)
(1.31577 0.103023 1.54006e-21)
(1.32931 0.119395 2.13382e-20)
(1.28851 0.0973083 -1.19099e-20)
(1.30184 0.112627 -5.21528e-20)
(1.26207 0.0908479 -1.10996e-20)
(1.27546 0.105366 1.57343e-21)
(1.23583 0.0835284 1.07398e-20)
(1.24959 0.097466 7.89172e-21)
(1.20919 0.0752216 8.24802e-21)
(1.22366 0.0888177 1.96369e-21)
(1.18136 0.065673 0)
(1.19707 0.0792701 3.83639e-21)
(1.15112 0.0543489 1.24332e-21)
(1.16897 0.0683346 -8.06214e-21)
(1.11661 0.0402123 4.00985e-21)
(1.13827 0.0546694 3.68422e-21)
(1.10261 0.0367742 3.63968e-21)
(0.107475 -0.0375577 -4.88949e-19)
(-0.0679471 -0.051114 -4.89778e-19)
(0.430984 0.03073 2.97776e-19)
(0.195542 0.00972347 -8.57047e-20)
(0.798401 0.0944511 3.97903e-19)
(0.549675 0.0841636 3.95509e-19)
(1.11125 0.140935 1.09294e-19)
(0.903972 0.145361 1.86782e-19)
(1.32213 0.169349 2.95598e-19)
(1.17518 0.185787 -4.12487e-19)
(1.44277 0.183535 2.49758e-19)
(1.34638 0.208142 -6.21721e-20)
(1.50123 0.188169 1.69766e-19)
(1.44099 0.217538 1.37075e-19)
(1.52018 0.187184 1.81568e-19)
(1.48492 0.218048 6.22787e-21)
(1.51744 0.183245 1.29086e-19)
(1.49752 0.213248 7.89885e-20)
(1.49993 0.177342 7.291e-21)
(1.49276 0.206464 4.97723e-20)
(1.47088 0.169794 -7.56293e-20)
(1.47347 0.197617 -4.52286e-20)
(1.43798 0.161475 1.70996e-20)
(1.44523 0.187107 4.80081e-21)
(1.40497 0.153192 -1.54409e-20)
(1.41459 0.176505 4.71214e-20)
(1.37332 0.145036 -8.16916e-20)
(1.38395 0.16618 -6.20192e-20)
(1.34356 0.136989 5.01508e-21)
(1.35455 0.156225 3.69207e-20)
(1.3156 0.128919 -3.14956e-20)
(1.32677 0.146562 -2.19923e-21)
(1.28897 0.120642 -3.96196e-20)
(1.3004 0.137016 -1.19492e-20)
(1.26314 0.111975 2.03874e-20)
(1.275 0.127377 2.29963e-20)
(1.23758 0.102758 -1.10426e-21)
(1.25008 0.117456 1.5925e-20)
(1.21175 0.0928179 -2.58337e-21)