/*--------------------------------*- C++ -*----------------------------------*\
  =========                 |
  \\      /  F ield         | OpenFOAM: The Open Source CFD Toolbox
   \\    /   O peration     | Website:  https://openfoam.org
    \\  /    A nd           | Version:  11
     \\/     M anipulation  |
\*---------------------------------------------------------------------------*/
FoamFile
{
    format      ascii;
    class       volScalarField;
    location    "1.04";
    object      p;
}
// * * * * * * * * * * * * * * * * * * * * * * * * * * * * * * * * * * * * * //

dimensions      [0 2 -2 0 0 0 0];

internalField   nonuniform List<scalar> 
2880
(
0.759001
0.723681
0.698364
0.654694
0.554631
0.319263
0.762251
0.727051
0.704098
0.663895
0.595251
0.504155
0.770019
0.733202
0.713266
0.67536
0.624121
0.581315
0.773671
0.740246
0.723292
0.687718
0.647453
0.619936
0.770669
0.746517
0.732224
0.699732
0.668362
0.647761
0.770068
0.751864
0.739902
0.710935
0.685603
0.667431
0.772744
0.756901
0.746762
0.721023
0.698594
0.679632
0.775928
0.76202
0.753163
0.729783
0.707896
0.686594
0.779313
0.767368
0.759187
0.737188
0.714401
0.690106
0.782573
0.773043
0.764871
0.743394
0.718748
0.691103
0.785971
0.779162
0.770284
0.748549
0.721181
0.689909
0.789741
0.78581
0.775486
0.752733
0.721938
0.686774
0.793979
0.793009
0.780548
0.756128
0.721329
0.681864
0.798689
0.800712
0.785593
0.75896
0.719603
0.675265
0.80379
0.808791
0.790759
0.76144
0.716953
0.667013
0.809097
0.817072
0.796132
0.763756
0.71352
0.657137
0.814359
0.825247
0.801704
0.766099
0.709371
0.645624
0.819313
0.832909
0.807338
0.768653
0.704624
0.632398
0.823711
0.839626
0.812858
0.771598
0.699619
0.61729
0.826887
0.845095
0.818348
0.775304
0.695182
0.60038
0.825743
0.849605
0.824796
0.781227
0.69326
0.58276
0.823096
0.855139
0.834663
0.792663
0.698414
0.565948
0.829015
0.862502
0.849084
0.810289
0.714288
0.548659
0.833866
0.867987
0.860035
0.823012
0.721672
0.533919
0.729143
0.828224
0.819928
0.798701
0.775396
0.754398
0.736178
0.72039
0.706667
0.694863
0.684874
0.676554
0.669681
0.663979
0.659172
0.655054
0.651525
0.648554
0.646104
0.644087
0.642593
0.642456
0.644475
0.643668
0.673178
0.763146
0.775163
0.764284
0.747673
0.73118
0.716072
0.702462
0.690345
0.679757
0.670692
0.663068
0.656721
0.651421
0.646934
0.643079
0.63977
0.636979
0.634656
0.632679
0.631204
0.631488
0.634691
0.633317
0.671667
0.726739
0.740173
0.73437
0.722181
0.708944
0.696165
0.684259
0.673445
0.663866
0.655576
0.648543
0.642644
0.63769
0.63348
0.629855
0.626735
0.6241
0.621883
0.61992
0.618417
0.619096
0.623717
0.621997
0.671716
0.704731
0.713728
0.70899
0.699064
0.687821
0.676592
0.665914
0.656091
0.647306
0.639641
0.633089
0.627557
0.622889
0.618908
0.615472
0.612507
0.60999
0.607841
0.605841
0.604199
0.605116
0.611307
0.609943
0.671652
0.688545
0.692783
0.68715
0.677936
0.66765
0.657322
0.647454
0.638337
0.630145
0.622961
0.616786
0.611546
0.607107
0.603311
0.600026
0.597179
0.594748
0.592634
0.590555
0.588732
0.589886
0.597673
0.596477
0.671939
0.676006
0.675187
0.667732
0.658221
0.64815
0.638228
0.62883
0.620178
0.612408
0.60558
0.599693
0.594679
0.590419
0.586769
0.583604
0.58085
0.578485
0.576388
0.574217
0.572221
0.573686
0.583139
0.581732
0.671443
0.66623
0.65968
0.649813
0.639357
0.629003
0.619131
0.609946
0.601572
0.594085
0.587513
0.58184
0.576999
0.572878
0.569346
0.566277
0.563601
0.561288
0.559198
0.556929
0.554763
0.556561
0.567729
0.56601
0.670122
0.65721
0.645155
0.632607
0.620836
0.60989
0.59983
0.590677
0.582445
0.575139
0.568749
0.563237
0.55853
0.554522
0.551086
0.548102
0.545493
0.543227
0.541141
0.538777
0.536439
0.538559
0.551442
0.549407
0.667376
0.647619
0.630668
0.615446
0.602203
0.590502
0.580114
0.570881
0.562703
0.555514
0.549258
0.543874
0.53928
0.535371
0.532024
0.529119
0.526578
0.524362
0.522289
0.519841
0.517339
0.519755
0.53432
0.532003
0.662654
0.636832
0.615573
0.597808
0.583065
0.570548
0.559768
0.5504
0.542235
0.535133
0.528994
0.523729
0.519245
0.515436
0.51218
0.509361
0.506897
0.504743
0.5027
0.500194
0.497547
0.500231
0.516405
0.513884
0.655853
0.624543
0.599407
0.579255
0.563064
0.549742
0.53857
0.529067
0.520916
0.513908
0.507897
0.502766
0.49841
0.494717
0.49157
0.488854
0.486486
0.484415
0.482428
0.479902
0.477143
0.480066
0.497742
0.49515
0.646984
0.610466
0.581754
0.559377
0.541844
0.527792
0.516285
0.506695
0.498605
0.491736
0.485897
0.480942
0.476753
0.473214
0.470209
0.467625
0.465381
0.463424
0.461528
0.45903
0.456209
0.459339
0.478368
0.475911
0.635918
0.594258
0.562176
0.53775
0.519034
0.504385
0.49266
0.483084
0.475146
0.468501
0.462912
0.458207
0.454251
0.450925
0.448114
0.445708
0.443628
0.441822
0.440061
0.437651
0.434829
0.438128
0.458311
0.456288
0.622395
0.575475
0.540177
0.513907
0.494225
0.479182
0.467416
0.458015
0.45037
0.444076
0.438853
0.434504
0.430878
0.427852
0.42531
0.423148
0.42129
0.419686
0.418111
0.415856
0.413103
0.416519
0.437586
0.436429
0.606016
0.553517
0.515157
0.487314
0.466964
0.451806
0.440251
0.431245
0.424089
0.41832
0.413621
0.409771
0.406607
0.403998
0.401832
0.400007
0.398451
0.397119
0.395797
0.393775
0.391167
0.394611
0.416188
0.416551
0.586196
0.527589
0.486391
0.457351
0.436736
0.421841
0.410834
0.402514
0.396101
0.391081
0.387108
0.383941
0.381407
0.379372
0.377723
0.376364
0.375226
0.374266
0.373288
0.371601
0.369221
0.372533
0.39408
0.39705
0.562121
0.496651
0.452989
0.423295
0.402963
0.388831
0.378802
0.371539
0.366187
0.362194
0.359194
0.356935
0.355239
0.353973
0.353026
0.352307
0.351746
0.351307
0.350815
0.349622
0.347584
0.350461
0.371096
0.378734
0.532547
0.459399
0.413868
0.384314
0.365004
0.352277
0.343772
0.338021
0.334114
0.331479
0.329743
0.328657
0.328046
0.327783
0.327766
0.327909
0.328149
0.328448
0.328676
0.328271
0.326811
0.328646
0.346566
0.363302
0.495571
0.414178
0.367716
0.33946
0.322164
0.311658
0.305343
0.301649
0.299639
0.298743
0.298603
0.298986
0.299735
0.300737
0.301909
0.303181
0.304499
0.30584
0.307151
0.308061
0.307819
0.308116
0.320438
0.354061
0.448495
0.358752
0.313048
0.287745
0.273742
0.266457
0.263119
0.262112
0.262512
0.263781
0.265598
0.267766
0.270158
0.272691
0.275307
0.277968
0.280653
0.283375
0.286158
0.288801
0.290661
0.292963
0.305357
0.335419
0.387832
0.289967
0.248363
0.228267
0.219114
0.216214
0.216743
0.21912
0.222489
0.22638
0.230533
0.234803
0.239107
0.243397
0.247645
0.25184
0.255985
0.260107
0.264171
0.267854
0.270963
0.277023
0.294732
0.297321
0.308458
0.204025
0.172367
0.160368
0.157862
0.16062
0.165951
0.172434
0.17935
0.186336
0.193209
0.19989
0.206345
0.212563
0.218534
0.224253
0.229715
0.234917
0.239748
0.24379
0.247203
0.254941
0.27497
0.263889
0.198013
0.0986593
0.0846854
0.0839108
0.0899307
0.0996236
0.110641
0.121905
0.132926
0.143471
0.153448
0.162846
0.171688
0.18
0.187794
0.195065
0.201798
0.207974
0.213473
0.217924
0.221733
0.230294
0.250975
0.235115
0.0306443
-0.0227643
-0.0113688
0.000327541
0.0160917
0.0336208
0.0509627
0.0675298
0.0831247
0.0976535
0.111107
0.123536
0.135015
0.145613
0.15537
0.164291
0.172362
0.179567
0.185826
0.190891
0.195327
0.20448
0.225163
0.208232
-0.419822
-0.407753
-0.411789
-0.425831
-0.451667
-0.504178
-0.421985
-0.411272
-0.41862
-0.436357
-0.463686
-0.520389
-0.426718
-0.416069
-0.427045
-0.446125
-0.470876
-0.505502
-0.430157
-0.419736
-0.433207
-0.452675
-0.474954
-0.49822
-0.428897
-0.421927
-0.437491
-0.457104
-0.477895
-0.496512
-0.425302
-0.423663
-0.440724
-0.460611
-0.480789
-0.497694
-0.424477
-0.426088
-0.443596
-0.463696
-0.483706
-0.500271
-0.425856
-0.428942
-0.446281
-0.466466
-0.486498
-0.503425
-0.427328
-0.431805
-0.448714
-0.468867
-0.489105
-0.506603
-0.428642
-0.43449
-0.450792
-0.47088
-0.491459
-0.509484
-0.4298
-0.436883
-0.452446
-0.472505
-0.493432
-0.511967
-0.430779
-0.438897
-0.453618
-0.473696
-0.494937
-0.514042
-0.431554
-0.440482
-0.454239
-0.474409
-0.495927
-0.515715
-0.43212
-0.441657
-0.45425
-0.474584
-0.496424
-0.516984
-0.432515
-0.442399
-0.453659
-0.474223
-0.496435
-0.517965
-0.432842
-0.442692
-0.452538
-0.47335
-0.495927
-0.518734
-0.433203
-0.442578
-0.451001
-0.472002
-0.494824
-0.519132
-0.433405
-0.442143
-0.449192
-0.47022
-0.493001
-0.518949
-0.43333
-0.441492
-0.447296
-0.46807
-0.490289
-0.517882
-0.431113
-0.440917
-0.445608
-0.465725
-0.486518
-0.515211
-0.427872
-0.441002
-0.444528
-0.463624
-0.481561
-0.508823
-0.428794
-0.442199
-0.444746
-0.462308
-0.475095
-0.493507
-0.432828
-0.444263
-0.446741
-0.460937
-0.46569
-0.4594
-0.434718
-0.445127
-0.444953
-0.45445
-0.449732
-0.399085
-0.246565
-0.156672
-0.113028
-0.0864142
-0.0615552
-0.0364425
-0.0126574
0.00946786
0.0299492
0.0488046
0.0660777
0.081856
0.0962509
0.109367
0.121278
0.132011
0.141567
0.149945
0.157122
0.162994
0.168221
0.177881
0.198274
0.182357
-0.3576
-0.275268
-0.214686
-0.172727
-0.139317
-0.108771
-0.0794149
-0.0519323
-0.0264924
-0.00309868
0.0182829
0.0377273
0.0553467
0.0712642
0.0855819
0.0983588
0.109618
0.119386
0.127694
0.134568
0.140726
0.150852
0.1708
0.157354
-0.414945
-0.354051
-0.298464
-0.254597
-0.215553
-0.180778
-0.14793
-0.11604
-0.0859444
-0.0579981
-0.0323166
-0.00891525
0.012262
0.0313185
0.0483661
0.0634914
0.0767487
0.0881915
0.0978964
0.105992
0.113232
0.123822
0.143226
0.133277
-0.455267
-0.406812
-0.362824
-0.325067
-0.288431
-0.251535
-0.216223
-0.181753
-0.147907
-0.115701
-0.0856858
-0.0581052
-0.0330399
-0.010465
0.00970294
0.0275589
0.0431833
0.0566566
0.0680874
0.0776796
0.0861759
0.0972779
0.116082
0.110272
-0.480593
-0.444932
-0.412673
-0.382784
-0.352368
-0.319127
-0.283467
-0.247401
-0.211387
-0.175728
-0.141618
-0.109777
-0.0805503
-0.0540736
-0.0303514
-0.00931774
0.00911558
0.0250482
0.0386107
0.0500379
0.0600284
0.0717747
0.0899475
0.0885459
-0.495429
-0.473648
-0.450773
-0.42906
-0.405698
-0.378678
-0.347322
-0.312084
-0.274852
-0.237078
-0.199561
-0.163644
-0.130123
-0.0994202
-0.0717151
-0.0470278
-0.0252951
-0.00641346
0.00975807
0.0234385
0.0352692
0.0478824
0.0654502
0.0684425
-0.505371
-0.494964
-0.480271
-0.465498
-0.448923
-0.428732
-0.403494
-0.372663
-0.336946
-0.298198
-0.258389
-0.218996
-0.181313
-0.146216
-0.114182
-0.0854002
-0.0598824
-0.037547
-0.0182582
-0.00182248
0.0123045
0.0261591
0.0433578
0.0504768
-0.513087
-0.510799
-0.503284
-0.494088
-0.483185
-0.46913
-0.450301
-0.425353
-0.393888
-0.356921
-0.316438
-0.274542
-0.233182
-0.193793
-0.157269
-0.124074
-0.0943711
-0.0681402
-0.0452629
-0.0255576
-0.00862401
0.00702328
0.024334
0.0351077
-0.519436
-0.522674
-0.520835
-0.516253
-0.509736
-0.500563
-0.487209
-0.468125
-0.442247
-0.409372
-0.370559
-0.327918
-0.283956
-0.240817
-0.199978
-0.162304
-0.128209
-0.097801
-0.0710047
-0.0476476
-0.0274382
-0.0093622
0.00874477
0.0226746
-0.52474
-0.53173
-0.533912
-0.532833
-0.529578
-0.523931
-0.514638
-0.500251
-0.479502
-0.451598
-0.416474
-0.375384
-0.330704
-0.285045
-0.240576
-0.198754
-0.160378
-0.125782
-0.0950168
-0.0679075
-0.0441623
-0.0230903
-0.0034015
0.0133236
-0.52917
-0.538681
-0.543457
-0.544686
-0.543496
-0.539965
-0.533219
-0.521853
-0.504692
-0.480954
-0.450026
-0.412131
-0.368927
-0.322818
-0.276259
-0.231274
-0.189204
-0.15089
-0.116341
-0.0856509
-0.0586837
-0.0343974
-0.0125391
0.00680478
-0.532929
-0.544067
-0.550394
-0.552738
-0.552392
-0.549541
-0.543656
-0.533547
-0.518081
-0.496685
-0.468861
-0.434285
-0.393741
-0.349159
-0.302725
-0.256521
-0.212244
-0.170853
-0.13395
-0.101311
-0.0702072
-0.0426492
-0.0189968
0.00272753
-0.536253
-0.548437
-0.555568
-0.558142
-0.557451
-0.553984
-0.547266
-0.53656
-0.52089
-0.499753
-0.473007
-0.440475
-0.402393
-0.360082
-0.315415
-0.270196
-0.226007
-0.184091
-0.145583
-0.11027
-0.0778257
-0.0493313
-0.0233907
0.00110867
-0.539367
-0.552479
-0.559899
-0.56211
-0.560303
-0.555002
-0.546131
-0.533079
-0.515329
-0.492533
-0.464766
-0.432283
-0.395424
-0.354985
-0.312433
-0.269323
-0.226952
-0.186366
-0.148399
-0.113348
-0.0814439
-0.051613
-0.0244933
0.000449595
-0.542631
-0.556748
-0.564475
-0.565989
-0.562623
-0.554936
-0.542814
-0.526131
-0.504705
-0.478586
-0.448092
-0.413824
-0.376446
-0.336744
-0.295778
-0.254794
-0.214859
-0.176794
-0.141173
-0.108211
-0.0778588
-0.0495786
-0.0238692
0.000805182
-0.546716
-0.56179
-0.570412
-0.571077
-0.566209
-0.555997
-0.540285
-0.519191
-0.493013
-0.462346
-0.427748
-0.390329
-0.350983
-0.310624
-0.270195
-0.230695
-0.193004
-0.157708
-0.125128
-0.0953211
-0.0681543
-0.0431357
-0.0202853
0.0016745
-0.552143
-0.568579
-0.578429
-0.57884
-0.573017
-0.560489
-0.541327
-0.515776
-0.484396
-0.448218
-0.408722
-0.367082
-0.324572
-0.282369
-0.241441
-0.202577
-0.166423
-0.133408
-0.103696
-0.0772275
-0.0537977
-0.0329777
-0.0144433
0.00219797
-0.559316
-0.577833
-0.589553
-0.59072
-0.584555
-0.570395
-0.54841
-0.518843
-0.482402
-0.4407
-0.395594
-0.348911
-0.302321
-0.257163
-0.214561
-0.175313
-0.139891
-0.108508
-0.0811486
-0.0576287
-0.0376674
-0.0208505
-0.0067303
0.00419863
-0.568824
-0.590307
-0.604808
-0.607428
-0.601683
-0.587181
-0.56348
-0.53049
-0.489152
-0.441769
-0.390733
-0.338491
-0.287129
-0.238277
-0.193164
-0.152582
-0.116924
-0.0862714
-0.0604535
-0.0391341
-0.0218678
-0.00791127
0.00386956
0.0118648
-0.581428
-0.606615
-0.624711
-0.629606
-0.625632
-0.611921
-0.587614
-0.551529
-0.505629
-0.452358
-0.394781
-0.336134
-0.279142
-0.225777
-0.177422
-0.134873
-0.0983916
-0.0678677
-0.0429437
-0.0231213
-0.00775335
0.00458536
0.0166019
0.0242623
-0.597775
-0.627307
-0.649428
-0.657392
-0.65654
-0.644833
-0.620365
-0.582637
-0.53295
-0.473534
-0.408528
-0.34228
-0.278389
-0.219346
-0.166746
-0.121396
-0.0834349
-0.0525765
-0.0282898
-0.00994136
0.00328267
0.0131567
0.0226642
0.0269479
-0.61755
-0.653069
-0.678687
-0.689925
-0.69307
-0.685161
-0.663056
-0.625304
-0.572004
-0.506059
-0.432665
-0.357578
-0.28547
-0.21958
-0.16181
-0.112932
-0.0729101
-0.0412531
-0.0172451
-0.000117424
0.0109575
0.0172052
0.0198945
0.0155247
-0.643559
-0.685509
-0.71173
-0.72602
-0.734234
-0.732055
-0.714634
-0.678305
-0.622245
-0.549582
-0.466601
-0.380921
-0.298816
-0.224841
-0.161115
-0.108247
-0.0659175
-0.0333177
-0.0094481
0.00667388
0.0159142
0.0190394
0.0163016
0.00771285
-0.70186
-0.726828
-0.746574
-0.763425
-0.77776
-0.783204
-0.772582
-0.73978
-0.682359
-0.603153
-0.50963
-0.412395
-0.318905
-0.23611
-0.165651
-0.108157
-0.0630001
-0.0289568
-0.00465149
0.0112051
0.0196613
0.0217165
0.0177281
0.0096907
-0.828385
-0.847306
-0.862964
-0.889782
-0.935695
-1.07896
-0.824927
-0.844972
-0.859625
-0.884668
-0.91277
-0.951869
-0.817524
-0.840796
-0.853742
-0.876335
-0.89416
-0.899148
-0.812122
-0.836539
-0.847452
-0.866607
-0.877222
-0.871229
-0.813546
-0.833114
-0.841859
-0.857029
-0.861945
-0.852503
-0.819113
-0.830413
-0.837105
-0.848329
-0.849284
-0.839535
-0.82146
-0.827869
-0.832882
-0.840681
-0.83915
-0.829905
-0.820576
-0.825235
-0.829031
-0.83403
-0.831009
-0.822246
-0.819314
-0.822453
-0.825516
-0.828281
-0.824389
-0.815913
-0.818314
-0.81949
-0.82227
-0.823345
-0.818937
-0.810511
-0.817321
-0.81634
-0.819246
-0.819069
-0.814389
-0.805753
-0.816071
-0.813026
-0.816417
-0.815303
-0.810561
-0.801512
-0.814449
-0.809581
-0.813709
-0.812016
-0.80733
-0.797703
-0.812412
-0.806094
-0.811038
-0.809227
-0.80462
-0.794336
-0.809941
-0.802448
-0.808566
-0.806971
-0.802405
-0.791681
-0.807051
-0.798595
-0.806327
-0.805307
-0.80066
-0.7901
-0.804094
-0.794546
-0.804381
-0.804365
-0.799393
-0.789781
-0.803752
-0.790897
-0.80291
-0.804331
-0.798779
-0.79091
-0.807238
-0.789188
-0.802095
-0.805262
-0.799599
-0.79557
-0.809148
-0.788578
-0.801624
-0.80703
-0.803098
-0.809856
-0.807044
-0.787587
-0.800906
-0.809425
-0.809537
-0.8366
-0.801281
-0.785291
-0.79937
-0.811692
-0.81731
-0.871805
-0.793554
-0.781915
-0.797361
-0.812776
-0.824467
-0.90962
-0.789883
-0.779568
-0.796768
-0.813707
-0.8307
-0.941628
-0.821387
-0.770163
-0.779323
-0.799037
-0.820361
-0.834781
-0.832726
-0.805625
-0.748897
-0.665008
-0.561331
-0.453808
-0.351368
-0.260595
-0.184133
-0.122354
-0.0742211
-0.0380551
-0.0121349
0.00504598
0.014591
0.0176925
0.0143544
0.0101185
-0.84071
-0.801884
-0.805933
-0.829481
-0.857906
-0.881075
-0.88752
-0.866728
-0.811763
-0.724519
-0.615213
-0.499995
-0.391349
-0.29613
-0.216854
-0.153308
-0.103815
-0.066154
-0.0382122
-0.0181649
-0.0047633
0.00379848
0.00808943
0.00938718
-0.834455
-0.815518
-0.824131
-0.852229
-0.88644
-0.916023
-0.929237
-0.910924
-0.85641
-0.76706
-0.65435
-0.535849
-0.425456
-0.329708
-0.250969
-0.188162
-0.138867
-0.100499
-0.0707514
-0.0476621
-0.029484
-0.0152791
-0.00438269
0.00377477
-0.828007
-0.820033
-0.834476
-0.866193
-0.903678
-0.936111
-0.949734
-0.931186
-0.874745
-0.783411
-0.670175
-0.553118
-0.445364
-0.35225
-0.276198
-0.215124
-0.166273
-0.127268
-0.0960543
-0.0708719
-0.0501547
-0.0324435
-0.0164917
-0.00222541
-0.822964
-0.821123
-0.838689
-0.871613
-0.90917
-0.940009
-0.950175
-0.927568
-0.867025
-0.774284
-0.663405
-0.551747
-0.449835
-0.362497
-0.291007
-0.232519
-0.184833
-0.145849
-0.113749
-0.0869729
-0.0641747
-0.0441351
-0.0256939
-0.0077618
-0.818027
-0.819674
-0.837855
-0.869284
-0.903598
-0.929025
-0.932492
-0.902652
-0.837141
-0.74414
-0.637935
-0.533827
-0.440842
-0.361768
-0.295014
-0.240017
-0.194646
-0.156858
-0.125034
-0.0977897
-0.0738952
-0.0523034
-0.0318722
-0.0110215
-0.813277
-0.816029
-0.832673
-0.860103
-0.88823
-0.905435
-0.899639
-0.860786
-0.790718
-0.698952
-0.599398
-0.50464
-0.421463
-0.349967
-0.289034
-0.237888
-0.195078
-0.158914
-0.127971
-0.10105
-0.0771191
-0.0552252
-0.0340051
-0.0116929
-0.808681
-0.810457
-0.823674
-0.84491
-0.864418
-0.872016
-0.854631
-0.806881
-0.733465
-0.644878
-0.553595
-0.468557
-0.394121
-0.329691
-0.274503
-0.227518
-0.187526
-0.153213
-0.123394
-0.0970951
-0.0735518
-0.0519191
-0.0306582
-0.00891028
-0.804001
-0.803224
-0.811321
-0.824352
-0.834282
-0.830485
-0.800948
-0.745535
-0.670286
-0.586339
-0.503609
-0.427847
-0.361039
-0.303083
-0.253107
-0.210125
-0.173104
-0.140977
-0.112754
-0.0876304
-0.0649797
-0.0439754
-0.0229367
-0.00302453
-0.799123
-0.79462
-0.796007
-0.799454
-0.79944
-0.782426
-0.742037
-0.680167
-0.604959
-0.526487
-0.451659
-0.383784
-0.32385
-0.271577
-0.226204
-0.186868
-0.152708
-0.122864
-0.0965445
-0.073096
-0.0519648
-0.0320168
-0.0113404
0.00573436
-0.794113
-0.78498
-0.777854
-0.771865
-0.760168
-0.730211
-0.679884
-0.613282
-0.53967
-0.466742
-0.398812
-0.33766
-0.2836
-0.236248
-0.194933
-0.158918
-0.127479
-0.0999167
-0.075597
-0.0539955
-0.0345996
-0.0158891
0.00430735
0.0174949
-0.789137
-0.774565
-0.757238
-0.741916
-0.717022
-0.674939
-0.615613
-0.546363
-0.475318
-0.407582
-0.345577
-0.290082
-0.241024
-0.197937
-0.160211
-0.127222
-0.098364
-0.073055
-0.0507671
-0.0310718
-0.0133987
0.00415818
0.0239069
0.0322924
-0.784375
-0.763079
-0.735123
-0.708911
-0.670739
-0.616469
-0.55019
-0.480154
-0.412131
-0.349084
-0.292152
-0.241485
-0.196744
-0.157396
-0.122874
-0.0926432
-0.0662003
-0.0430577
-0.0227613
-0.00495731
0.0109823
0.0274068
0.0467849
0.0498654
-0.779996
-0.749274
-0.712186
-0.672576
-0.620343
-0.555022
-0.484289
-0.414749
-0.349892
-0.291102
-0.238637
-0.192199
-0.151262
-0.115247
-0.0836203
-0.0559165
-0.0317154
-0.0106029
0.0078133
0.0238281
0.0381011
0.0534717
0.0725871
0.0701228
-0.77662
-0.731459
-0.687017
-0.631928
-0.564818
-0.490897
-0.417889
-0.34982
-0.288249
-0.233447
-0.185055
-0.142454
-0.104976
-0.0720089
-0.0430441
-0.0176713
0.00446636
0.0237227
0.0404252
0.0547972
0.067519
0.081954
0.100963
0.093024
-0.774413
-0.708951
-0.655921
-0.584748
-0.504097
-0.424384
-0.350834
-0.284975
-0.226869
-0.175964
-0.131447
-0.0924625
-0.0582406
-0.0281458
-0.0016861
0.0215108
0.0417553
0.059349
0.074544
0.0874609
0.098788
0.112416
0.131482
0.118493
-0.770677
-0.683648
-0.61523
-0.529035
-0.438274
-0.35537
-0.282734
-0.219797
-0.165451
-0.11852
-0.0778486
-0.042415
-0.0113778
0.0159157
0.0399481
0.0610701
0.0795613
0.0956787
0.109592
0.121286
0.131432
0.144389
0.163664
0.146471
-0.758705
-0.660135
-0.564416
-0.463798
-0.367194
-0.283645
-0.21324
-0.153952
-0.103775
-0.0610339
-0.0243224
0.00749875
0.0353126
0.0597798
0.0813783
0.100451
0.117264
0.132042
0.144882
0.155625
0.164864
0.177312
0.196962
0.177008
-0.73364
-0.638759
-0.505222
-0.389367
-0.29051
-0.208786
-0.141979
-0.087168
-0.0416868
-0.00347206
0.0290575
0.057105
0.0815659
0.103094
0.122161
0.139113
0.154216
0.167687
0.179586
0.189662
0.198378
0.210538
0.230695
0.210593
-0.694265
-0.605207
-0.435694
-0.305944
-0.207748
-0.130266
-0.0686358
-0.0192911
0.0208624
0.0541327
0.0821908
0.106245
0.127165
0.145573
0.161924
0.176557
0.189752
0.201739
0.212618
0.222186
0.230745
0.242517
0.26281
0.249739
-0.644917
-0.536326
-0.348674
-0.212548
-0.118521
-0.0477806
0.00687893
0.0496484
0.0837924
0.111682
0.134972
0.15481
0.17199
0.187071
0.200454
0.212443
0.223287
0.23321
0.242381
0.250727
0.258117
0.266708
0.28321
0.298658
-0.592692
-0.420361
-0.235471
-0.107438
-0.022693
0.038533
0.0843652
0.119413
0.146877
0.168994
0.187277
0.202739
0.216054
0.227676
0.237915
0.246987
0.255044
0.262211
0.26857
0.273884
0.277356
0.280266
0.293775
0.328637
-0.532602
-0.250697
-0.0905903
0.0104243
0.0791797
0.127798
0.163077
0.18942
0.209679
0.225761
0.238925
0.249981
0.259451
0.267671
0.274856
0.28114
0.286608
0.29133
0.295268
0.297887
0.298534
0.301329
0.320457
0.341737
-0.363774
-0.0210616
0.0802985
0.138971
0.185208
0.218331
0.241751
0.258768
0.271561
0.281545
0.289631
0.296391
0.302172
0.307187
0.311565
0.315373
0.318659
0.321469
0.323704
0.324729
0.32429
0.328242
0.350493
0.361638
1.54428
1.5813
1.61129
1.64032
1.60799
1.43126
1.54366
1.57663
1.59401
1.60867
1.52821
1.34603
1.5418
1.56974
1.57431
1.5729
1.481
1.2984
1.54072
1.5633
1.55821
1.54309
1.45065
1.28277
1.54199
1.55845
1.5463
1.52064
1.42986
1.28073
1.54215
1.55442
1.53686
1.50328
1.41504
1.28332
1.54068
1.55
1.52859
1.48943
1.40452
1.28743
1.53869
1.54485
1.52102
1.47823
1.39715
1.29196
1.53632
1.53912
1.51411
1.46921
1.39209
1.29645
1.53361
1.53312
1.50801
1.46211
1.38876
1.30066
1.53067
1.52714
1.50289
1.45676
1.38684
1.30451
1.52763
1.52146
1.49885
1.45304
1.38615
1.30806
1.52462
1.51627
1.49592
1.45087
1.38652
1.31134
1.52175
1.51175
1.49408
1.4501
1.38789
1.31443
1.51907
1.50798
1.49323
1.45061
1.39018
1.31744
1.51661
1.50493
1.49327
1.45229
1.39347
1.32058
1.51428
1.50256
1.494
1.45494
1.39786
1.32418
1.51265
1.50086
1.49508
1.4583
1.40343
1.32869
1.51273
1.49969
1.49605
1.46201
1.4102
1.33459
1.51401
1.49862
1.4963
1.46552
1.418
1.34237
1.51322
1.49705
1.49513
1.46785
1.42643
1.35337
1.5107
1.49452
1.49217
1.46792
1.43534
1.37315
1.50892
1.49161
1.48828
1.46643
1.44587
1.41569
1.50829
1.48953
1.48787
1.46948
1.4624
1.49336
0.18819
0.220029
0.250762
0.270157
0.291432
0.3076
0.318692
0.326318
0.331738
0.335794
0.339012
0.341704
0.344047
0.346134
0.348004
0.349665
0.35112
0.352381
0.353292
0.353163
0.351964
0.356316
0.37962
0.385254
0.549914
0.42429
0.402593
0.393504
0.392427
0.392624
0.392092
0.390891
0.389403
0.387922
0.38662
0.385571
0.38479
0.384256
0.383928
0.383752
0.383682
0.383687
0.383558
0.382555
0.380755
0.385104
0.408514
0.410882
0.758882
0.597268
0.53642
0.503775
0.484648
0.471318
0.460608
0.451552
0.44386
0.437389
0.432016
0.427613
0.424054
0.421219
0.41899
0.41725
0.4159
0.414862
0.413873
0.412151
0.40983
0.413961
0.436874
0.437102
0.887631
0.729233
0.648167
0.599285
0.566707
0.5426
0.52341
0.507644
0.494577
0.483749
0.474811
0.467475
0.461502
0.456684
0.452834
0.449772
0.447348
0.445435
0.443722
0.4414
0.438655
0.442474
0.464483
0.463276
0.979851
0.830855
0.740143
0.680818
0.638504
0.606081
0.580073
0.558769
0.54119
0.526668
0.514694
0.50486
0.496837
0.490347
0.485139
0.480978
0.477662
0.475019
0.472699
0.469891
0.466827
0.470298
0.491097
0.488957
1.04762
0.909112
0.815047
0.749491
0.700391
0.661773
0.630468
0.604739
0.583491
0.565929
0.551441
0.539537
0.52982
0.521955
0.515638
0.510581
0.506537
0.503293
0.500475
0.497291
0.494015
0.497128
0.516486
0.513794
1.09732
0.96922
0.875523
0.806597
0.753029
0.709971
0.67469
0.645542
0.621402
0.601416
0.584911
0.571344
0.560272
0.551312
0.544116
0.53835
0.533727
0.530001
0.526786
0.52333
0.519944
0.522697
0.540439
0.537493
1.1339
1.01543
0.92393
0.853574
0.797238
0.751134
0.71298
0.681285
0.654948
0.633098
0.615033
0.600182
0.588067
0.578273
0.570409
0.564105
0.559037
0.554936
0.551418
0.547787
0.54438
0.546769
0.562765
0.559791
1.16099
1.05099
0.962367
0.891775
0.833879
0.785797
0.745665
0.712157
0.684225
0.661008
0.641796
0.626002
0.61313
0.602737
0.594397
0.587707
0.582314
0.577934
0.574198
0.570477
0.567118
0.569137
0.583297
0.580459
1.18107
1.07824
0.992546
0.922398
0.863769
0.814508
0.773106
0.738391
0.709378
0.685225
0.665228
0.648798
0.635424
0.624641
0.615996
0.609054
0.603439
0.598864
0.594983
0.591242
0.587985
0.589624
0.601902
0.599306
1.1959
1.09881
1.01581
0.946452
0.887638
0.837785
0.795665
0.760239
0.730574
0.705856
0.685391
0.668592
0.654941
0.643953
0.63515
0.628069
0.622321
0.617623
0.613658
0.609953
0.606835
0.608088
0.618478
0.616187
1.20659
1.11392
1.03319
0.964757
0.906111
0.856091
0.813683
0.777946
0.74799
0.723024
0.702365
0.68543
0.671696
0.660662
0.651825
0.6447
0.638893
0.63413
0.630133
0.626508
0.623551
0.624421
0.63296
0.631001
1.21393
1.12444
1.04546
0.977962
0.919704
0.869827
0.827466
0.791746
0.761803
0.736858
0.71624
0.699371
0.685722
0.674776
0.666007
0.658916
0.653109
0.64833
0.644343
0.640831
0.638049
0.638548
0.645319
0.64369
1.21836
1.13096
1.05318
0.986556
0.928826
0.879322
0.837275
0.801847
0.772177
0.747489
0.727117
0.710486
0.697064
0.686317
0.677698
0.670702
0.664944
0.660191
0.656249
0.652873
0.650274
0.650431
0.655562
0.654238
1.22012
1.13383
1.0567
0.990883
0.93378
0.884835
0.843331
0.808436
0.779269
0.755044
0.735097
0.718854
0.705778
0.695319
0.686916
0.680063
0.674394
0.669703
0.665836
0.662612
0.660206
0.660082
0.66375
0.66261
1.21924
1.13318
1.0562
0.991142
0.934764
0.886554
0.845805
0.811671
0.783223
0.759651
0.740288
0.724562
0.71193
0.70183
0.693694
0.687023
0.681476
0.676875
0.673102
0.670031
0.667812
0.667474
0.669833
0.668603
1.21557
1.12896
1.0517
0.987386
0.931855
0.884593
0.844831
0.811694
0.784177
0.761438
0.742805
0.727707
0.7156
0.705915
0.698084
0.691626
0.686229
0.68174
0.678074
0.675145
0.673059
0.672468
0.673736
0.672744
1.20873
1.12092
1.043
0.979539
0.925047
0.879006
0.840519
0.80864
0.782275
0.760543
0.742771
0.728397
0.71688
0.707655
0.700162
0.693946
0.688727
0.684378
0.68084
0.678056
0.676074
0.675231
0.675682
0.675147
1.19809
1.10852
1.02973
0.967425
0.914303
0.869844
0.83299
0.802661
0.777675
0.757116
0.740324
0.726754
0.71588
0.707148
0.70002
0.694074
0.689061
0.68488
0.681491
0.678859
0.676978
0.675958
0.675879
0.675671
1.18282
1.0909
1.01136
0.950791
0.899587
0.857209
0.822411
0.79395
0.770567
0.751333
0.735619
0.722916
0.71272
0.704504
0.697762
0.692107
0.687323
0.683327
0.680094
0.6776
0.675827
0.674778
0.674402
0.674332
1.16209
1.06673
0.987147
0.929332
0.880906
0.841281
0.809023
0.782757
0.761179
0.743393
0.728832
0.717034
0.707538
0.69985
0.693505
0.688157
0.68362
0.679826
0.676756
0.674392
0.672708
0.671692
0.6713
0.671292
1.13493
1.03347
0.956047
0.902786
0.858403
0.822369
0.793173
0.7694
0.749781
0.733526
0.720157
0.709279
0.700483
0.693323
0.687382
0.682351
0.67807
0.674485
0.671581
0.669331
0.66772
0.666812
0.666659
0.666606
1.0921
0.984759
0.916802
0.871212
0.832539
0.801008
0.775338
0.754264
0.736681
0.72198
0.7098
0.699827
0.691715
0.685071
0.679527
0.674813
0.67079
0.667417
0.664674
0.662522
0.660967
0.660243
0.66058
0.660381
0.981379
0.912138
0.869691
0.835628
0.804316
0.778007
0.756122
0.737783
0.722205
0.70901
0.697971
0.688861
0.681395
0.675242
0.670079
0.665672
0.661903
0.658736
0.656146
0.654071
0.652554
0.652086
0.65315
0.652703
)
;

boundaryField
{
    rotor
    {
        type            zeroGradient;
    }
    freestream
    {
        type            freestreamPressure;
        freestreamValue uniform 0;
        supersonic      false;
        value           nonuniform List<scalar> 
96
(
0.630765
0.614157
0.595569
0.575355
0.553014
0.528845
0.503297
0.47663
0.449085
0.420909
0.392355
0.363679
0.335137
0.30699
0.279535
0.253156
0.228441
0.206396
0.188729
0.167443
0.138643
0.114411
0.094341
0.0770049
0.0619122
0.0488766
0.0377603
0.0284289
0.0207378
0.0145508
0.00974405
0.00616228
0.00362781
0.00194963
0.00091411
0.000337473
0.000126775
4.74811e-05
7.81813e-05
0.000146844
0.000166187
0.000246527
0.000426063
0.000257471
4.26357e-06
0.000226245
0.000254898
0.000440367
0.000548571
0.000610839
0.000303056
-0.000216455
-0.000881307
-0.0014205
-0.00169205
-0.00143864
-0.00054184
0.00113618
0.00382455
0.00777004
0.0131711
0.0202748
0.0293535
0.040675
0.0545093
0.0711583
0.0910987
0.115755
0.147582
0.172234
0.190598
0.214195
0.241383
0.271236
0.302809
0.33553
0.368893
0.402415
0.435627
0.468064
0.499274
0.528832
0.556354
0.581503
0.603995
0.623606
0.640118
0.653168
0.663137
0.670043
0.673679
0.674017
0.671209
0.665325
0.656516
0.644934
)
;
    }
    frontAndBack
    {
        type            empty;
    }
}


// ************************************************************************* //
