/*--------------------------------*- C++ -*----------------------------------*\
  =========                 |
  \\      /  F ield         | OpenFOAM: The Open Source CFD Toolbox
   \\    /   O peration     | Website:  https://openfoam.org
    \\  /    A nd           | Version:  11
     \\/     M anipulation  |
\*---------------------------------------------------------------------------*/
FoamFile
{
    format      ascii;
    class       surfaceScalarField;
    location    "1.04";
    object      phi;
}
// * * * * * * * * * * * * * * * * * * * * * * * * * * * * * * * * * * * * * //

dimensions      [0 3 -1 0 0 0 0];

internalField   nonuniform List<scalar> 
5640
(
2.55924e-08
-2.55924e-08
-5.2379e-07
5.49383e-07
-1.6725e-06
1.14871e-06
-3.40299e-06
1.73049e-06
-5.6388e-06
2.23581e-06
4.3116e-06
-9.9504e-06
-2.58556e-07
2.32964e-07
-1.20149e-06
1.49232e-06
-2.64479e-06
2.59201e-06
-4.50323e-06
3.58893e-06
-6.8984e-06
4.63099e-06
7.01628e-06
-9.60308e-06
-4.28826e-07
6.6179e-07
-1.53378e-06
2.59727e-06
-3.0803e-06
4.13852e-06
-4.96447e-06
5.4731e-06
-7.20278e-06
6.8693e-06
9.04738e-06
-9.23388e-06
-5.42054e-07
1.20384e-06
-1.69371e-06
3.74893e-06
-3.23565e-06
5.68046e-06
-5.03706e-06
7.27452e-06
-7.02057e-06
8.8528e-06
1.07414e-05
-8.71463e-06
-6.28281e-07
1.83212e-06
-1.75143e-06
4.87208e-06
-3.21192e-06
7.14094e-06
-4.86824e-06
8.93084e-06
-6.60249e-06
1.0587e-05
1.2206e-05
-8.06708e-06
-6.82084e-07
2.51421e-06
-1.72756e-06
5.91756e-06
-3.0604e-06
8.47378e-06
-4.5425e-06
1.04129e-05
-6.0486e-06
1.20931e-05
1.3502e-05
-7.34457e-06
-6.88243e-07
3.20245e-06
-1.63029e-06
6.85961e-06
-2.81011e-06
9.6536e-06
-4.10557e-06
1.17084e-05
-5.40479e-06
1.33924e-05
1.46557e-05
-6.55845e-06
-6.53844e-07
3.8563e-06
-1.47168e-06
7.67745e-06
-2.4816e-06
1.06635e-05
-3.58622e-06
1.2813e-05
-4.69519e-06
1.45013e-05
1.56814e-05
-5.72087e-06
-5.86369e-07
4.44266e-06
-1.26274e-06
8.35381e-06
-2.09091e-06
1.14917e-05
-3.00301e-06
1.37251e-05
-3.93235e-06
1.54307e-05
1.6581e-05
-4.832e-06
-4.91498e-07
4.93416e-06
-1.01281e-06
8.87513e-06
-1.65072e-06
1.21296e-05
-2.36828e-06
1.44427e-05
-3.12181e-06
1.61842e-05
1.73494e-05
-3.89017e-06
-3.74124e-07
5.30829e-06
-7.30565e-07
9.23157e-06
-1.17172e-06
1.25708e-05
-1.69062e-06
1.49616e-05
-2.26589e-06
1.67595e-05
1.7977e-05
-2.89355e-06
-2.39124e-07
5.54741e-06
-4.24038e-07
9.41648e-06
-6.63044e-07
1.28098e-05
-9.76528e-07
1.52751e-05
-1.36603e-06
1.7149e-05
1.84524e-05
-1.84138e-06
-9.10697e-08
5.63848e-06
-1.00773e-07
9.42619e-06
-1.32597e-07
1.28416e-05
-2.32031e-07
1.53745e-05
-4.24547e-07
1.73415e-05
1.87613e-05
-7.33444e-07
6.52178e-08
5.57326e-06
2.31822e-07
9.25958e-06
4.11687e-07
1.26617e-05
5.36498e-07
1.52497e-05
5.55592e-07
1.73224e-05
1.88867e-05
4.30131e-07
2.23117e-07
5.35015e-06
5.66238e-07
8.91646e-06
9.61363e-07
1.22666e-05
1.3218e-06
1.48892e-05
1.57033e-06
1.70739e-05
1.88081e-05
1.649e-06
3.77909e-07
4.97224e-06
8.94232e-07
8.40014e-06
1.50667e-06
1.16542e-05
2.11493e-06
1.4281e-05
2.61396e-06
1.65748e-05
1.85002e-05
2.92186e-06
5.22251e-07
4.44999e-06
1.2059e-06
7.71649e-06
2.03556e-06
1.08245e-05
2.90395e-06
1.34126e-05
3.67829e-06
1.58005e-05
1.79313e-05
4.24717e-06
6.47153e-07
3.80283e-06
1.48898e-06
6.87467e-06
2.53261e-06
9.78087e-06
3.67259e-06
1.22726e-05
4.75116e-06
1.47219e-05
1.70606e-05
5.62184e-06
7.40889e-07
3.06195e-06
1.72759e-06
5.88796e-06
2.97762e-06
8.53084e-06
4.39848e-06
1.08517e-05
5.81389e-06
1.33065e-05
1.58346e-05
7.03984e-06
7.86944e-07
2.275e-06
1.90152e-06
4.77339e-06
3.34545e-06
7.08691e-06
5.05114e-06
9.14605e-06
6.83749e-06
1.15202e-05
1.41809e-05
8.4912e-06
7.67019e-07
1.50798e-06
1.98485e-06
3.55555e-06
3.60515e-06
5.46661e-06
5.59011e-06
7.16109e-06
7.78175e-06
9.32855e-06
1.19979e-05
9.96482e-06
6.89187e-07
8.18795e-07
1.95186e-06
2.29288e-06
3.72161e-06
3.69686e-06
5.96326e-06
4.91944e-06
8.59948e-06
6.69233e-06
9.13675e-06
1.14606e-05
5.5683e-07
2.61964e-07
1.79155e-06
1.05816e-06
3.6494e-06
1.83902e-06
6.08232e-06
2.48652e-06
9.21737e-06
3.55728e-06
5.33167e-06
1.30225e-05
2.61964e-07
1.32012e-06
3.15914e-06
5.64566e-06
9.20294e-06
1.45346e-05
-1.0075e-05
1.27489e-05
-1.26243e-05
-1.2173e-05
1.15156e-05
-9.41754e-06
-1.44106e-05
9.67173e-06
-7.43416e-06
-1.67006e-05
8.1871e-06
-5.89711e-06
-1.90268e-05
6.92433e-06
-4.59812e-06
-2.13808e-05
5.80931e-06
-3.4553e-06
-2.37564e-05
4.79528e-06
-2.41972e-06
-2.61466e-05
3.84843e-06
-1.45817e-06
-2.85449e-05
2.94518e-06
-5.46929e-07
-3.0945e-05
2.0691e-06
3.30997e-07
-3.33415e-05
1.20823e-06
1.18826e-06
-3.57296e-05
3.53697e-07
2.03442e-06
-3.81051e-05
-5.0095e-07
2.87651e-06
-4.04645e-05
-1.35986e-06
3.71919e-06
-4.28044e-05
-2.22476e-06
4.56471e-06
-4.51224e-05
-3.09518e-06
5.41312e-06
-4.74162e-05
-3.96929e-06
6.26316e-06
-4.96846e-05
-4.84521e-06
7.11357e-06
-5.19265e-05
-5.72191e-06
7.96383e-06
-5.41414e-05
-6.59949e-06
8.81439e-06
-5.63288e-05
-7.4791e-06
9.6665e-06
-5.84882e-05
-8.3617e-06
1.05211e-05
-6.06204e-05
-9.24354e-06
1.13757e-05
-1.01146e-05
1.22233e-05
-1.06025e-05
1.37484e-05
-1.22526e-05
1.31656e-05
-1.42619e-05
1.16811e-05
-1.64096e-05
1.03347e-05
-1.86314e-05
9.14618e-06
-2.0902e-05
8.07989e-06
-2.3206e-05
7.09925e-06
-2.55318e-05
6.17421e-06
-2.78702e-05
5.28355e-06
-3.02136e-05
4.41254e-06
-3.25559e-05
3.55055e-06
-3.4892e-05
2.68975e-06
-3.72174e-05
1.82449e-06
-3.95285e-05
9.51223e-07
-4.18219e-05
6.86686e-08
-4.40948e-05
-8.22297e-07
-4.63447e-05
-1.71941e-06
-4.85697e-05
-2.62024e-06
-5.07684e-05
-3.52321e-06
-5.29399e-05
-4.428e-06
-5.50834e-05
-5.33561e-06
-5.71979e-05
-6.24717e-06
-5.92826e-05
-7.15884e-06
-8.04791e-06
-1.05008e-05
1.50153e-05
-1.2057e-05
1.47218e-05
-1.39266e-05
1.35507e-05
-1.59578e-05
1.2366e-05
-1.80836e-05
1.1272e-05
-2.02716e-05
1.02678e-05
-2.2501e-05
9.32869e-06
-2.47574e-05
8.43067e-06
-2.703e-05
7.55616e-06
-2.93103e-05
6.69284e-06
-3.15916e-05
5.83186e-06
-3.38686e-05
4.96671e-06
-3.61368e-05
4.09269e-06
-3.83925e-05
3.2069e-06
-4.06323e-05
2.30844e-06
-4.2853e-05
1.39845e-06
-4.50519e-05
4.79476e-07
-4.72265e-05
-4.4564e-07
-4.93749e-05
-1.37478e-06
-5.14957e-05
-2.30717e-06
-5.35877e-05
-3.2436e-06
-5.56494e-05
-4.18554e-06
-5.76777e-05
-5.13055e-06
-6.02916e-06
-1.00915e-05
1.63922e-05
-1.16252e-05
1.62555e-05
-1.34092e-05
1.53347e-05
-1.53464e-05
1.43032e-05
-1.73843e-05
1.33099e-05
-1.94904e-05
1.2374e-05
-2.16427e-05
1.1481e-05
-2.38253e-05
1.06133e-05
-2.60265e-05
9.75739e-06
-2.82374e-05
8.90376e-06
-3.04511e-05
8.04556e-06
-3.26622e-05
7.17773e-06
-3.48661e-05
6.29664e-06
-3.70592e-05
5.40003e-06
-3.92381e-05
4.48733e-06
-4.13995e-05
3.5598e-06
-4.35401e-05
2.62007e-06
-4.5657e-05
1.6713e-06
-4.77479e-05
7.16096e-07
-4.98108e-05
-2.44227e-07
-5.18442e-05
-1.21019e-06
-5.38465e-05
-2.18329e-06
-5.58166e-05
-3.16045e-06
-4.06827e-06
-9.49314e-06
1.78182e-05
-1.10151e-05
1.77775e-05
-1.27304e-05
1.70499e-05
-1.45847e-05
1.61575e-05
-1.65386e-05
1.52638e-05
-1.85624e-05
1.43978e-05
-2.06343e-05
1.35529e-05
-2.27384e-05
1.27174e-05
-2.48627e-05
1.18817e-05
-2.69982e-05
1.10392e-05
-2.91379e-05
1.01852e-05
-3.12763e-05
9.31616e-06
-3.34091e-05
8.4295e-06
-3.55327e-05
7.52362e-06
-3.76436e-05
6.59824e-06
-3.97384e-05
5.6546e-06
-4.18137e-05
4.69531e-06
-4.38661e-05
3.72369e-06
-4.58928e-05
2.74279e-06
-4.78916e-05
1.75457e-06
-4.98608e-05
7.59055e-07
-5.17994e-05
-2.44721e-07
-5.37077e-05
-1.25219e-06
-2.17973e-06
-8.76865e-06
1.92423e-05
-1.02632e-05
1.9272e-05
-1.19098e-05
1.86966e-05
-1.36838e-05
1.79314e-05
-1.55537e-05
1.71337e-05
-1.74928e-05
1.63369e-05
-1.94804e-05
1.55405e-05
-2.1501e-05
1.4738e-05
-2.35428e-05
1.39235e-05
-2.55968e-05
1.30932e-05
-2.76561e-05
1.22446e-05
-2.97155e-05
1.13756e-05
-3.17707e-05
1.04847e-05
-3.38181e-05
9.57097e-06
-3.58542e-05
8.6344e-06
-3.78758e-05
7.67615e-06
-3.98792e-05
6.69868e-06
-4.18608e-05
5.70529e-06
-4.38173e-05
4.69936e-06
-4.57462e-05
3.68344e-06
-4.76454e-05
2.65827e-06
-4.95137e-05
1.62352e-06
-5.13503e-05
5.84467e-07
-3.69505e-07
-7.9405e-06
2.06243e-05
-9.38799e-06
2.07195e-05
-1.09625e-05
2.02711e-05
-1.2654e-05
1.96229e-05
-1.4437e-05
1.89167e-05
-1.62875e-05
1.81873e-05
-1.8186e-05
1.74391e-05
-2.01178e-05
1.66697e-05
-2.20714e-05
1.58771e-05
-2.40381e-05
1.50599e-05
-2.60111e-05
1.42176e-05
-2.79853e-05
1.33498e-05
-2.99565e-05
1.24559e-05
-3.19212e-05
1.15357e-05
-3.38762e-05
1.05894e-05
-3.58181e-05
9.61804e-06
-3.77433e-05
8.6239e-06
-3.9648e-05
7.61003e-06
-4.15286e-05
6.57992e-06
-4.33817e-05
5.53657e-06
-4.52048e-05
4.48131e-06
-4.69956e-05
3.41439e-06
-4.87527e-05
2.34151e-06
1.35764e-06
-7.02716e-06
2.19306e-05
-8.4052e-06
2.20976e-05
-9.89985e-06
2.17657e-05
-1.15041e-05
2.12271e-05
-1.31957e-05
2.06083e-05
-1.49526e-05
1.99443e-05
-1.67569e-05
1.92434e-05
-1.85944e-05
1.85072e-05
-2.04541e-05
1.77368e-05
-2.23276e-05
1.69334e-05
-2.42084e-05
1.60984e-05
-2.60914e-05
1.52328e-05
-2.79726e-05
1.43371e-05
-2.98486e-05
1.34117e-05
-3.17162e-05
1.2457e-05
-3.35722e-05
1.1474e-05
-3.54131e-05
1.04648e-05
-3.72349e-05
9.43184e-06
-3.90336e-05
8.37861e-06
-4.08052e-05
7.30821e-06
-4.25463e-05
6.22245e-06
-4.4254e-05
5.12202e-06
-4.59254e-05
4.01298e-06
2.99551e-06
-6.03546e-06
2.31341e-05
-7.32639e-06
2.33885e-05
-8.73148e-06
2.31708e-05
-1.02418e-05
2.27375e-05
-1.18362e-05
2.22027e-05
-1.34942e-05
2.16023e-05
-1.51987e-05
2.09479e-05
-1.69363e-05
2.02449e-05
-1.86966e-05
1.94971e-05
-2.04714e-05
1.87082e-05
-2.22543e-05
1.78814e-05
-2.40405e-05
1.70189e-05
-2.58259e-05
1.61225e-05
-2.76073e-05
1.5193e-05
-2.93816e-05
1.42312e-05
-3.11457e-05
1.32381e-05
-3.28961e-05
1.22152e-05
-3.4629e-05
1.11647e-05
-3.634e-05
1.00896e-05
-3.80246e-05
8.99281e-06
-3.96785e-05
7.87637e-06
-4.12977e-05
6.74125e-06
-4.28784e-05
5.59364e-06
4.5382e-06
-4.97042e-06
2.42143e-05
-6.15852e-06
2.45766e-05
-7.4641e-06
2.44764e-05
-8.8733e-06
2.41467e-05
-1.03645e-05
2.36939e-05
-1.19179e-05
2.31557e-05
-1.35173e-05
2.25473e-05
-1.51497e-05
2.18773e-05
-1.68052e-05
2.11526e-05
-1.84759e-05
2.03789e-05
-2.01556e-05
1.95611e-05
-2.18395e-05
1.87028e-05
-2.35237e-05
1.78067e-05
-2.52048e-05
1.68742e-05
-2.68801e-05
1.59065e-05
-2.85465e-05
1.49045e-05
-3.02006e-05
1.38694e-05
-3.18387e-05
1.28028e-05
-3.34563e-05
1.17072e-05
-3.50485e-05
1.0585e-05
-3.66101e-05
9.43804e-06
-3.81363e-05
8.26738e-06
-3.96215e-05
7.07888e-06
5.98039e-06
-3.83379e-06
2.51546e-05
-4.90574e-06
2.56485e-05
-6.10248e-06
2.56732e-05
-7.40357e-06
2.54477e-05
-8.78578e-06
2.50761e-05
-1.02293e-05
2.45992e-05
-1.17185e-05
2.40364e-05
-1.32408e-05
2.33996e-05
-1.47865e-05
2.26983e-05
-1.63481e-05
2.19404e-05
-1.79194e-05
2.11324e-05
-1.94959e-05
2.02793e-05
-2.10735e-05
1.93843e-05
-2.26492e-05
1.84499e-05
-2.42201e-05
1.74773e-05
-2.57832e-05
1.64676e-05
-2.73355e-05
1.54216e-05
-2.88732e-05
1.43405e-05
-3.03918e-05
1.32258e-05
-3.18863e-05
1.20795e-05
-3.3351e-05
1.09027e-05
-3.47797e-05
9.69611e-06
-3.61655e-05
8.46465e-06
7.31736e-06
-2.62612e-06
2.59393e-05
-3.57029e-06
2.65927e-05
-4.64988e-06
2.67528e-05
-5.83664e-06
2.66345e-05
-7.10473e-06
2.63442e-05
-8.43381e-06
2.59283e-05
-9.80822e-06
2.54108e-05
-1.12159e-05
2.48073e-05
-1.26473e-05
2.41298e-05
-1.40952e-05
2.33883e-05
-1.55535e-05
2.25908e-05
-1.70177e-05
2.17434e-05
-1.84839e-05
2.08506e-05
-1.99491e-05
1.9915e-05
-2.14104e-05
1.89386e-05
-2.2865e-05
1.79223e-05
-2.43101e-05
1.68667e-05
-2.57421e-05
1.57725e-05
-2.71566e-05
1.46403e-05
-2.85484e-05
1.34712e-05
-2.99114e-05
1.22657e-05
-3.12387e-05
1.10234e-05
-3.25214e-05
9.74738e-06
8.54491e-06
-1.34714e-06
2.6553e-05
-2.15307e-06
2.73986e-05
-3.10837e-06
2.77081e-05
-4.17569e-06
2.77018e-05
-5.32556e-06
2.7494e-05
-6.53645e-06
2.71392e-05
-7.7925e-06
2.66669e-05
-9.08177e-06
2.60965e-05
-1.03951e-05
2.5443e-05
-1.17251e-05
2.47183e-05
-1.30662e-05
2.39319e-05
-1.44137e-05
2.30909e-05
-1.57639e-05
2.22008e-05
-1.71138e-05
2.12649e-05
-1.84606e-05
2.02855e-05
-1.98018e-05
1.92635e-05
-2.11346e-05
1.81995e-05
-2.24557e-05
1.70936e-05
-2.3761e-05
1.59456e-05
-2.50454e-05
1.47556e-05
-2.63024e-05
1.35228e-05
-2.75246e-05
1.22456e-05
-2.8701e-05
1.09238e-05
9.65921e-06
3.89707e-09
2.69792e-05
-6.5408e-07
2.80566e-05
-1.47916e-06
2.85331e-05
-2.4232e-06
2.86459e-05
-3.45201e-06
2.85228e-05
-4.54215e-06
2.82293e-05
-5.67722e-06
2.78019e-05
-6.84529e-06
2.72646e-05
-8.0373e-06
2.6635e-05
-9.24618e-06
2.59272e-05
-1.04663e-05
2.5152e-05
-1.16932e-05
2.43179e-05
-1.29233e-05
2.34309e-05
-1.41535e-05
2.24952e-05
-1.53814e-05
2.15133e-05
-1.66044e-05
2.04865e-05
-1.78201e-05
1.94152e-05
-1.90254e-05
1.82989e-05
-2.02167e-05
1.71369e-05
-2.13889e-05
1.59278e-05
-2.25358e-05
1.46697e-05
-2.36493e-05
1.33591e-05
-2.47166e-05
1.19911e-05
1.06565e-05
1.42798e-06
2.72003e-05
9.27165e-07
2.85574e-05
2.37212e-07
2.92231e-05
-5.81055e-07
2.94641e-05
-1.48732e-06
2.94291e-05
-2.45547e-06
2.91975e-05
-3.46819e-06
2.88147e-05
-4.51334e-06
2.83098e-05
-5.58201e-06
2.77037e-05
-6.66727e-06
2.70125e-05
-7.76367e-06
2.62484e-05
-8.86684e-06
2.5421e-05
-9.97324e-06
2.45373e-05
-1.108e-05
2.36019e-05
-1.21847e-05
2.2618e-05
-1.32851e-05
2.15869e-05
-1.43789e-05
2.05091e-05
-1.54637e-05
1.93837e-05
-1.6536e-05
1.82092e-05
-1.75914e-05
1.69832e-05
-1.86241e-05
1.57024e-05
-1.96257e-05
1.43606e-05
-2.05812e-05
1.29466e-05
1.15325e-05
2.92581e-06
2.71963e-05
2.5911e-06
2.88922e-05
2.04024e-06
2.97739e-05
1.34922e-06
3.01552e-05
5.65723e-07
3.02126e-05
-2.80593e-07
3.00438e-05
-1.17094e-06
2.9705e-05
-2.0928e-06
2.92316e-05
-3.03726e-06
2.86482e-05
-3.99761e-06
2.79728e-05
-4.96855e-06
2.72193e-05
-5.94582e-06
2.63983e-05
-6.926e-06
2.55174e-05
-7.9063e-06
2.45822e-05
-8.8844e-06
2.35961e-05
-9.85828e-06
2.25608e-05
-1.0826e-05
2.14768e-05
-1.17854e-05
2.03431e-05
-1.27338e-05
1.91575e-05
-1.36674e-05
1.79168e-05
-1.45813e-05
1.66164e-05
-1.54679e-05
1.52472e-05
-1.63095e-05
1.37883e-05
1.22819e-05
4.49687e-06
2.69466e-05
4.33719e-06
2.90518e-05
3.92903e-06
3.01821e-05
3.36595e-06
3.07182e-05
2.70446e-06
3.08741e-05
1.97865e-06
3.07696e-05
1.20935e-06
3.04743e-05
4.0976e-07
3.00312e-05
-4.11115e-07
2.9469e-05
-1.24669e-06
2.88084e-05
-2.09185e-06
2.80645e-05
-2.94252e-06
2.7249e-05
-3.79537e-06
2.63703e-05
-4.64767e-06
2.54345e-05
-5.49716e-06
2.44456e-05
-6.34193e-06
2.34056e-05
-7.18019e-06
2.2315e-05
-8.01011e-06
2.1173e-05
-8.82945e-06
1.99769e-05
-9.63539e-06
1.87228e-05
-1.04247e-05
1.74056e-05
-1.11922e-05
1.60147e-05
-1.19191e-05
1.45151e-05
1.28976e-05
6.13818e-06
2.64303e-05
6.16225e-06
2.90278e-05
5.90035e-06
3.0444e-05
5.46615e-06
3.11524e-05
4.92582e-06
3.14144e-05
4.31859e-06
3.13768e-05
3.66791e-06
3.1125e-05
2.98818e-06
3.07109e-05
2.28875e-06
3.01685e-05
1.57614e-06
2.9521e-05
8.55268e-07
2.87854e-05
1.30015e-07
2.79742e-05
-5.96444e-07
2.70967e-05
-1.32147e-06
2.61595e-05
-2.04285e-06
2.51669e-05
-2.75861e-06
2.41213e-05
-3.46689e-06
2.30233e-05
-4.1658e-06
2.18719e-05
-4.85303e-06
2.06641e-05
-5.52558e-06
1.93953e-05
-6.1805e-06
1.80606e-05
-6.81839e-06
1.66526e-05
-7.43222e-06
1.5129e-05
1.3375e-05
7.84317e-06
2.5627e-05
8.05761e-06
2.88133e-05
7.94613e-06
3.05555e-05
7.64346e-06
3.14551e-05
7.22487e-06
3.1833e-05
6.73491e-06
3.18668e-05
6.20023e-06
3.16597e-05
5.63701e-06
3.12742e-05
5.05542e-06
3.07501e-05
4.46219e-06
3.01142e-05
3.86209e-06
2.93855e-05
3.25876e-06
2.85776e-05
2.65506e-06
2.77004e-05
2.05337e-06
2.67612e-05
1.45569e-06
2.57646e-05
8.63915e-07
2.47131e-05
2.8002e-07
2.36072e-05
-2.93649e-07
2.24456e-05
-8.54068e-07
2.12245e-05
-1.39666e-06
1.99379e-05
-1.91286e-06
1.85768e-05
-2.38861e-06
1.71284e-05
-2.83007e-06
1.55704e-05
1.37931e-05
9.60044e-06
2.45177e-05
1.0006e-05
2.84077e-05
1.00504e-05
3.05111e-05
9.88541e-06
3.16201e-05
9.59269e-06
3.21257e-05
9.22129e-06
3.22382e-05
8.80127e-06
3.20797e-05
8.35127e-06
3.17241e-05
7.88306e-06
3.12183e-05
7.40411e-06
3.05932e-05
6.91933e-06
2.98703e-05
6.43208e-06
2.90648e-05
5.94471e-06
2.81878e-05
5.45891e-06
2.7247e-05
4.97589e-06
2.62476e-05
4.49665e-06
2.51923e-05
4.02236e-06
2.40815e-05
3.55496e-06
2.2913e-05
3.0976e-06
2.16819e-05
2.65564e-06
2.03799e-05
2.24139e-06
1.8991e-05
1.88407e-06
1.74857e-05
1.61729e-06
1.58372e-05
1.41806e-05
1.13874e-05
2.30952e-05
1.1977e-05
2.78181e-05
1.21855e-05
3.03026e-05
1.21701e-05
3.16355e-05
1.20134e-05
3.22824e-05
1.17672e-05
3.24845e-05
1.14641e-05
3.23828e-05
1.11259e-05
3.20623e-05
1.0767e-05
3.15772e-05
1.03966e-05
3.09636e-05
1.00203e-05
3.02465e-05
9.64171e-06
2.94434e-05
9.26251e-06
2.8567e-05
8.88346e-06
2.76261e-05
8.50451e-06
2.66266e-05
8.12509e-06
2.55718e-05
7.74477e-06
2.44618e-05
7.36409e-06
2.32937e-05
6.98607e-06
2.20599e-05
6.61815e-06
2.07478e-05
6.27285e-06
1.93363e-05
5.9612e-06
1.77973e-05
5.6849e-06
1.61135e-05
1.42974e-05
1.31558e-05
2.14e-05
1.39167e-05
2.70572e-05
1.43051e-05
2.99143e-05
1.44605e-05
3.14801e-05
1.44602e-05
3.22827e-05
1.43544e-05
3.25903e-05
1.41774e-05
3.25597e-05
1.39542e-05
3.22855e-05
1.3703e-05
3.18284e-05
1.34363e-05
3.12303e-05
1.31618e-05
3.05209e-05
1.28841e-05
2.97212e-05
1.26051e-05
2.8846e-05
1.23253e-05
2.79059e-05
1.20439e-05
2.69079e-05
1.17601e-05
2.58556e-05
1.14732e-05
2.47487e-05
1.11846e-05
2.35823e-05
1.08985e-05
2.2346e-05
1.06236e-05
2.10227e-05
1.03718e-05
1.95881e-05
1.01571e-05
1.8012e-05
1.00025e-05
1.62681e-05
1.43333e-05
1.47823e-05
1.96401e-05
1.57264e-05
2.61131e-05
1.63252e-05
2.93154e-05
1.66932e-05
3.11121e-05
1.68876e-05
3.20884e-05
1.6952e-05
3.25258e-05
1.69213e-05
3.25904e-05
1.68246e-05
3.23822e-05
1.66852e-05
3.19678e-05
1.65207e-05
3.13949e-05
1.63429e-05
3.06987e-05
1.61592e-05
2.99049e-05
1.59731e-05
2.90321e-05
1.57858e-05
2.80932e-05
1.55971e-05
2.70966e-05
1.54068e-05
2.6046e-05
1.5215e-05
2.49404e-05
1.50241e-05
2.37732e-05
1.4839e-05
2.2531e-05
1.46677e-05
2.11941e-05
1.45206e-05
1.97352e-05
1.44108e-05
1.81219e-05
1.43593e-05
1.63195e-05
1.42869e-05
1.55698e-05
1.86049e-05
1.701e-05
2.46728e-05
1.80459e-05
2.82795e-05
1.87502e-05
3.04078e-05
1.92195e-05
3.16191e-05
1.95087e-05
3.22366e-05
1.96618e-05
3.24373e-05
1.97159e-05
3.23281e-05
1.9702e-05
3.19817e-05
1.96448e-05
3.14521e-05
1.95628e-05
3.07806e-05
1.94685e-05
2.99993e-05
1.93689e-05
2.91316e-05
1.92679e-05
2.81943e-05
1.91667e-05
2.71977e-05
1.90664e-05
2.61463e-05
1.89683e-05
2.50385e-05
1.88754e-05
2.38662e-05
1.87919e-05
2.26145e-05
1.87237e-05
2.12623e-05
1.86788e-05
1.978e-05
1.86681e-05
1.81326e-05
1.87094e-05
1.62781e-05
1.41574e-05
1.02407e-07
-1.02407e-07
6.17854e-07
-5.15447e-07
1.44576e-06
-8.2791e-07
2.72495e-06
-1.27919e-06
4.3776e-06
-1.65265e-06
-2.1887e-06
6.5663e-06
2.48869e-07
-3.51276e-07
8.43973e-07
-1.11055e-06
1.72803e-06
-1.71197e-06
2.84009e-06
-2.39125e-06
4.13414e-06
-2.94669e-06
-3.22389e-06
5.16932e-06
3.18833e-07
-6.70109e-07
9.2126e-07
-1.71298e-06
1.76031e-06
-2.55101e-06
2.70158e-06
-3.33252e-06
3.61605e-06
-3.86117e-06
-3.84394e-06
4.2361e-06
3.61378e-07
-1.03149e-06
9.4342e-07
-2.29502e-06
1.70433e-06
-3.31192e-06
2.49369e-06
-4.12188e-06
3.19908e-06
-4.56656e-06
-4.36868e-06
3.72382e-06
3.88446e-07
-1.41993e-06
9.26045e-07
-2.83262e-06
1.59391e-06
-3.97978e-06
2.25543e-06
-4.7834e-06
2.83838e-06
-5.14951e-06
-4.87684e-06
3.34654e-06
3.92682e-07
-1.81262e-06
8.72813e-07
-3.31275e-06
1.44282e-06
-4.54979e-06
1.99311e-06
-5.33369e-06
2.48571e-06
-5.64211e-06
-5.36107e-06
2.96994e-06
3.52728e-07
-2.16534e-06
7.81412e-07
-3.74143e-06
1.25868e-06
-5.02706e-06
1.70758e-06
-5.78258e-06
2.11753e-06
-6.05207e-06
-5.80009e-06
2.55655e-06
2.97514e-07
-2.46286e-06
6.61893e-07
-4.10581e-06
1.0486e-06
-5.41377e-06
1.39977e-06
-6.13375e-06
1.72359e-06
-6.37589e-06
-6.16988e-06
2.09338e-06
2.31549e-07
-2.69441e-06
5.23432e-07
-4.3977e-06
8.19299e-07
-5.70963e-06
1.07242e-06
-6.38687e-06
1.30074e-06
-6.60421e-06
-6.44634e-06
1.5772e-06
1.58218e-07
-2.85262e-06
3.72563e-07
-4.61204e-06
5.76546e-07
-5.91362e-06
7.29656e-07
-6.53998e-06
8.51872e-07
-6.72643e-06
-6.60664e-06
1.01216e-06
8.06354e-08
-2.93326e-06
2.14739e-07
-4.74614e-06
3.26456e-07
-6.02533e-06
3.76949e-07
-6.59048e-06
3.83369e-07
-6.73285e-06
-6.63159e-06
4.08323e-07
1.29313e-09
-2.93455e-06
5.45224e-08
-4.79937e-06
7.43962e-08
-6.04521e-06
2.08025e-08
-6.53688e-06
-9.4709e-08
-6.61734e-06
-6.50716e-06
-2.19143e-07
-7.53708e-08
-2.85918e-06
-1.04181e-07
-4.77056e-06
-1.7454e-07
-5.97485e-06
-3.30803e-07
-6.38062e-06
-5.69857e-07
-6.37828e-06
-6.22578e-06
-8.51237e-07
-1.48167e-07
-2.71102e-06
-2.57816e-07
-4.66091e-06
-4.15538e-07
-5.81713e-06
-6.70351e-07
-6.12581e-06
-1.02876e-06
-6.01987e-06
-5.78725e-06
-1.46729e-06
-2.14028e-07
-2.49699e-06
-4.0278e-07
-4.47216e-06
-6.44222e-07
-5.57568e-06
-9.90076e-07
-5.77995e-06
-1.4572e-06
-5.55274e-06
-5.20079e-06
-2.04367e-06
-2.70408e-07
-2.22658e-06
-5.35537e-07
-4.20703e-06
-8.5691e-07
-5.25431e-06
-1.28342e-06
-5.35344e-06
-1.84257e-06
-4.9936e-06
-4.48527e-06
-2.55808e-06
-3.1485e-07
-1.91173e-06
-6.52729e-07
-3.86916e-06
-1.05067e-06
-4.85637e-06
-1.54545e-06
-4.85866e-06
-2.17458e-06
-4.36446e-06
-3.66686e-06
-2.993e-06
-3.44586e-07
-1.56714e-06
-7.5107e-07
-3.46267e-06
-1.22329e-06
-4.38415e-06
-1.77337e-06
-4.30858e-06
-2.44584e-06
-3.692e-06
-2.78069e-06
-3.332e-06
-3.5563e-07
-1.21151e-06
-8.26842e-07
-2.99146e-06
-1.37332e-06
-3.83767e-06
-1.96715e-06
-3.71475e-06
-2.65309e-06
-3.00605e-06
-1.87146e-06
-3.56232e-06
-3.39893e-07
-8.7162e-07
-8.77554e-07
-2.4538e-06
-1.49987e-06
-3.21536e-06
-2.13023e-06
-3.08439e-06
-2.79993e-06
-2.33635e-06
-9.96291e-07
-3.6751e-06
-3.10331e-07
-5.6129e-07
-9.05137e-07
-1.85899e-06
-1.60171e-06
-2.51879e-06
-2.27034e-06
-2.41577e-06
-2.89952e-06
-1.70717e-06
-2.33686e-07
-3.66212e-06
-2.70422e-07
-2.90868e-07
-9.05152e-07
-1.22426e-06
-1.67397e-06
-1.74996e-06
-2.39839e-06
-1.69135e-06
-2.97824e-06
-1.12732e-06
2.94012e-07
-3.50594e-06
-2.08271e-07
-8.25969e-08
-8.57122e-07
-5.7541e-07
-1.70134e-06
-9.05749e-07
-2.50878e-06
-8.83903e-07
-3.05666e-06
-5.79433e-07
3.90855e-07
-3.15351e-06
-8.25969e-08
-6.58007e-07
-1.56376e-06
-2.44766e-06
-3.02709e-06
-2.63624e-06
1.4201e-05
1.09703e-05
1.73195e-05
2.15543e-05
1.91479e-05
2.64511e-05
2.04335e-05
2.91222e-05
2.13313e-05
3.07212e-05
2.19404e-05
3.16275e-05
2.23409e-05
3.20368e-05
2.25894e-05
3.20797e-05
2.27294e-05
3.18417e-05
2.2796e-05
3.13854e-05
2.28168e-05
3.07598e-05
2.28121e-05
3.0004e-05
2.27955e-05
2.91483e-05
2.27751e-05
2.82147e-05
2.27556e-05
2.72172e-05
2.274e-05
2.61619e-05
2.27309e-05
2.50476e-05
2.27315e-05
2.38656e-05
2.2745e-05
2.2601e-05
2.27748e-05
2.12326e-05
2.28254e-05
1.97294e-05
2.29055e-05
1.80525e-05
2.30313e-05
1.61523e-05
1.39509e-05
1.09119e-05
5.22774e-06
1.60871e-05
1.63791e-05
1.9407e-05
2.31312e-05
2.1546e-05
2.69832e-05
2.30537e-05
2.92136e-05
2.41237e-05
3.05575e-05
2.48683e-05
3.12922e-05
2.53796e-05
3.15685e-05
2.5722e-05
3.14993e-05
2.59452e-05
3.11622e-05
2.60887e-05
3.06163e-05
2.61834e-05
2.99093e-05
2.62518e-05
2.90798e-05
2.63094e-05
2.81571e-05
2.63661e-05
2.71605e-05
2.64284e-05
2.60997e-05
2.65009e-05
2.49751e-05
2.65872e-05
2.37792e-05
2.66898e-05
2.24985e-05
2.68094e-05
2.1113e-05
2.69473e-05
1.95914e-05
2.71092e-05
1.78907e-05
2.73098e-05
1.59517e-05
1.36771e-05
8.28992e-06
1.17392e-06
1.3803e-05
1.0866e-05
1.84905e-05
1.84438e-05
2.186e-05
2.36136e-05
2.41984e-05
2.68753e-05
2.58881e-05
2.88678e-05
2.71134e-05
3.00668e-05
2.79864e-05
3.06955e-05
2.86041e-05
3.08816e-05
2.90375e-05
3.07288e-05
2.93414e-05
3.03123e-05
2.95596e-05
2.96912e-05
2.9726e-05
2.89135e-05
2.98659e-05
2.80171e-05
2.9997e-05
2.70293e-05
3.01312e-05
2.59655e-05
3.02765e-05
2.48298e-05
3.04383e-05
2.36174e-05
3.06192e-05
2.23175e-05
3.08185e-05
2.09137e-05
3.1034e-05
1.9376e-05
3.12674e-05
1.76572e-05
3.15316e-05
1.56875e-05
1.33479e-05
6.48884e-06
-1.59109e-06
1.13354e-05
6.01941e-06
1.65187e-05
1.32605e-05
2.10313e-05
1.9101e-05
2.44989e-05
2.34077e-05
2.70288e-05
2.63378e-05
2.88895e-05
2.82062e-05
3.02624e-05
2.93226e-05
3.12592e-05
2.98848e-05
3.19816e-05
3.00064e-05
3.25057e-05
2.97882e-05
3.28909e-05
2.93059e-05
3.31847e-05
2.86197e-05
3.3424e-05
2.77778e-05
3.36367e-05
2.68167e-05
3.38422e-05
2.576e-05
3.4054e-05
2.46179e-05
3.42811e-05
2.33904e-05
3.45283e-05
2.20704e-05
3.47953e-05
2.06466e-05
3.50771e-05
1.90943e-05
3.53707e-05
1.73636e-05
3.56855e-05
1.53727e-05
1.2978e-05
5.28387e-06
-3.52842e-06
9.16071e-06
2.14257e-06
1.40836e-05
8.33761e-06
1.913e-05
1.40546e-05
2.36208e-05
1.89169e-05
2.72286e-05
2.273e-05
2.9959e-05
2.54758e-05
3.19948e-05
2.72868e-05
3.35161e-05
2.83634e-05
3.4639e-05
2.88835e-05
3.54694e-05
2.89578e-05
3.60885e-05
2.86868e-05
3.65602e-05
2.81481e-05
3.69348e-05
2.74031e-05
3.72518e-05
2.64998e-05
3.75401e-05
2.54716e-05
3.78207e-05
2.43374e-05
3.81079e-05
2.31031e-05
3.84112e-05
2.17671e-05
3.87337e-05
2.03241e-05
3.90698e-05
1.87582e-05
3.94117e-05
1.70217e-05
3.97629e-05
1.50214e-05
1.25849e-05
4.42471e-06
-4.98319e-06
7.40554e-06
-8.38268e-07
1.16668e-05
4.07637e-06
1.66097e-05
9.11162e-06
2.16174e-05
1.39093e-05
2.61658e-05
1.81816e-05
2.99456e-05
2.1696e-05
3.28938e-05
2.43386e-05
3.51244e-05
2.61329e-05
3.68049e-05
2.7203e-05
3.80643e-05
2.76985e-05
3.9013e-05
2.7738e-05
3.97381e-05
2.74229e-05
4.03072e-05
2.68341e-05
4.07726e-05
2.60343e-05
4.11746e-05
2.50696e-05
4.15425e-05
2.39695e-05
4.18974e-05
2.27482e-05
4.22547e-05
2.14097e-05
4.26243e-05
1.99546e-05
4.30047e-05
1.83777e-05
4.33845e-05
1.66419e-05
4.37593e-05
1.46466e-05
1.21867e-05
3.71033e-06
-6.13696e-06
6.00256e-06
-3.1305e-06
9.4965e-06
5.82428e-07
1.39256e-05
4.6825e-06
1.8885e-05
8.94982e-06
2.39129e-05
1.31537e-05
2.85696e-05
1.70393e-05
3.25458e-05
2.03624e-05
3.57294e-05
2.29494e-05
3.81801e-05
2.47523e-05
4.00425e-05
2.5836e-05
4.14582e-05
2.63223e-05
4.25451e-05
2.63361e-05
4.33951e-05
2.59841e-05
4.40788e-05
2.53506e-05
4.46494e-05
2.4499e-05
4.51463e-05
2.34727e-05
4.55976e-05
2.22969e-05
4.60249e-05
2.09824e-05
4.64451e-05
1.95344e-05
4.68664e-05
1.79564e-05
4.72787e-05
1.62296e-05
4.76682e-05
1.42571e-05
1.17993e-05
3.01661e-06
-7.06019e-06
4.80217e-06
-4.91607e-06
7.59736e-06
-2.21275e-06
1.13508e-05
9.29093e-07
1.58668e-05
4.43375e-06
2.08451e-05
8.17544e-06
2.59222e-05
1.19622e-05
3.07142e-05
1.55704e-05
3.49028e-05
1.87608e-05
3.83369e-05
2.13181e-05
4.1036e-05
2.31369e-05
4.31185e-05
2.42398e-05
4.47257e-05
2.47289e-05
4.5982e-05
2.47278e-05
4.69849e-05
2.43477e-05
4.78074e-05
2.36765e-05
4.85023e-05
2.27778e-05
4.91066e-05
2.16925e-05
4.9647e-05
2.04421e-05
5.01452e-05
1.90362e-05
5.06194e-05
1.74822e-05
5.107e-05
1.5779e-05
5.14754e-05
1.38516e-05
1.14315e-05
2.28376e-06
-7.76675e-06
3.66803e-06
-6.30033e-06
5.87752e-06
-4.42225e-06
8.95306e-06
-2.14645e-06
1.28438e-05
5.42991e-07
1.74005e-05
3.61873e-06
2.23879e-05
6.97483e-06
2.75157e-05
1.04426e-05
3.24428e-05
1.38337e-05
3.68528e-05
1.69082e-05
4.05627e-05
1.9427e-05
4.35483e-05
2.12542e-05
4.58986e-05
2.23786e-05
4.77458e-05
2.28806e-05
4.92163e-05
2.28772e-05
5.04114e-05
2.24814e-05
5.14057e-05
2.17836e-05
5.22506e-05
2.08476e-05
5.29802e-05
1.97124e-05
5.36186e-05
1.83978e-05
5.41887e-05
1.69121e-05
5.47054e-05
1.52624e-05
5.51482e-05
1.34089e-05
1.10759e-05
1.49041e-06
-8.24499e-06
2.51683e-06
-7.32676e-06
4.22401e-06
-6.12942e-06
6.68043e-06
-4.60287e-06
9.90286e-06
-2.67944e-06
1.3849e-05
-3.27394e-07
1.83991e-05
2.42468e-06
2.33671e-05
5.47463e-06
2.85222e-05
8.6786e-06
3.35645e-05
1.18659e-05
3.81916e-05
1.47999e-05
4.21989e-05
1.72469e-05
4.55182e-05
1.90593e-05
4.81998e-05
2.0199e-05
5.03548e-05
2.07222e-05
5.21034e-05
2.07328e-05
5.35473e-05
2.03396e-05
5.47617e-05
1.96332e-05
5.57943e-05
1.86799e-05
5.66727e-05
1.75193e-05
5.74238e-05
1.6161e-05
5.80726e-05
1.46136e-05
5.86073e-05
1.28742e-05
1.06942e-05
6.37713e-07
-8.47438e-06
1.31388e-06
-8.00292e-06
2.55929e-06
-7.37482e-06
4.44771e-06
-6.4913e-06
7.02125e-06
-5.25297e-06
1.02892e-05
-3.59535e-06
1.42164e-05
-1.50255e-06
1.87038e-05
9.87241e-07
2.3613e-05
3.76944e-06
2.87607e-05
6.71821e-06
3.38838e-05
9.67674e-06
3.87071e-05
1.24236e-05
4.30194e-05
1.4747e-05
4.67155e-05
1.65029e-05
4.97992e-05
1.76385e-05
5.23458e-05
1.81862e-05
5.44576e-05
1.82278e-05
5.62293e-05
1.78616e-05
5.77389e-05
1.71702e-05
5.90055e-05
1.62528e-05
6.00673e-05
1.50992e-05
6.09642e-05
1.37166e-05
6.1691e-05
1.21475e-05
1.02017e-05
-2.58569e-07
-8.43496e-06
6.05203e-08
-8.32201e-06
8.55198e-07
-8.1695e-06
2.20182e-06
-7.83792e-06
4.15097e-06
-7.20212e-06
6.7331e-06
-6.17749e-06
9.95712e-06
-4.72657e-06
1.37943e-05
-2.84996e-06
1.81683e-05
-6.04538e-07
2.2978e-05
1.90852e-06
2.80733e-05
4.58143e-06
3.32327e-05
7.2642e-06
3.82186e-05
9.76115e-06
4.28266e-05
1.18949e-05
4.69241e-05
1.3541e-05
5.0466e-05
1.46443e-05
5.34757e-05
1.52181e-05
5.60252e-05
1.53121e-05
5.82213e-05
1.49741e-05
6.013e-05
1.43441e-05
6.17494e-05
1.34797e-05
6.30632e-05
1.24028e-05
6.41249e-05
1.10858e-05
9.45225e-06
-1.17383e-06
-8.11236e-06
-1.21902e-06
-8.27682e-06
-8.73575e-07
-8.51495e-06
-5.88045e-08
-8.65269e-06
1.28267e-06
-8.54359e-06
3.18812e-06
-8.08294e-06
5.68992e-06
-7.22837e-06
8.79715e-06
-5.95719e-06
1.24884e-05
-4.29578e-06
1.67072e-05
-2.31034e-06
2.13804e-05
-9.17304e-08
2.63844e-05
2.26017e-06
3.15395e-05
4.60605e-06
3.6646e-05
6.78843e-06
4.15171e-05
8.66992e-06
4.60097e-05
1.01517e-05
5.00436e-05
1.11842e-05
5.3598e-05
1.17577e-05
5.66755e-05
1.18966e-05
5.9357e-05
1.16626e-05
6.17011e-05
1.11357e-05
6.37098e-05
1.03941e-05
6.53893e-05
9.40633e-06
8.20576e-06
-2.0769e-06
-7.50275e-06
-2.4871e-06
-7.86663e-06
-2.58519e-06
-8.41686e-06
-2.29082e-06
-8.94706e-06
-1.54251e-06
-9.2919e-06
-2.90912e-07
-9.33454e-06
1.49911e-06
-9.0184e-06
3.86192e-06
-8.32e-06
6.80912e-06
-7.24298e-06
1.03244e-05
-5.8256e-06
1.43687e-05
-4.13604e-06
1.88853e-05
-2.25647e-06
2.37708e-05
-2.7941e-07
2.88806e-05
1.67866e-06
3.40515e-05
3.49902e-06
3.91215e-05
5.08168e-06
4.39521e-05
6.35355e-06
4.84409e-05
7.26897e-06
5.25235e-05
7.81391e-06
5.6176e-05
8.01019e-06
5.94055e-05
7.90618e-06
6.22646e-05
7.53498e-06
6.47622e-05
6.90868e-06
6.16594e-06
-2.9366e-06
-6.60982e-06
-3.70195e-06
-7.10128e-06
-4.22353e-06
-7.89528e-06
-4.42505e-06
-8.74553e-06
-4.2368e-06
-9.48016e-06
-3.60703e-06
-9.96431e-06
-2.48725e-06
-1.01382e-05
-8.3761e-07
-9.96964e-06
1.37477e-06
-9.45536e-06
4.1611e-06
-8.61193e-06
7.50851e-06
-7.48345e-06
1.13846e-05
-6.13256e-06