/*--------------------------------*- C++ -*----------------------------------*\
  =========                 |
  \\      /  F ield         | OpenFOAM: The Open Source CFD Toolbox
   \\    /   O peration     | Website:  https://openfoam.org
    \\  /    A nd           | Version:  11
     \\/     M anipulation  |
\*---------------------------------------------------------------------------*/
FoamFile
{
    format      ascii;
    class       volVectorField;
    location    "1.04";
    object      U;
}
// * * * * * * * * * * * * * * * * * * * * * * * * * * * * * * * * * * * * * //

dimensions      [0 1 -1 0 0 0 0];

internalField   nonuniform List<vector> 
2880
(
(-0.0033984 -0.0336919 -1.44844e-18)
(0.0242657 -0.0576067 -6.64169e-20)
(0.167561 -0.0501751 -4.16947e-19)
(0.271237 -0.0578486 4.11036e-19)
(0.451319 -0.0583406 -5.81749e-20)
(0.776836 -0.117513 0)
(0.038745 -0.0332106 -6.90853e-19)
(0.120913 -0.0586039 4.44237e-19)
(0.30208 -0.0470027 1.25337e-18)
(0.420274 -0.0532619 2.63463e-19)
(0.599245 -0.0344258 5.06675e-20)
(0.788499 -0.0709937 2.79742e-19)
(0.0653219 -0.03572 -4.48475e-20)
(0.186275 -0.0688411 -9.49534e-19)
(0.379019 -0.059271 -7.40565e-19)
(0.507566 -0.070804 -1.21757e-18)
(0.671504 -0.0676181 5.76244e-20)
(0.81221 -0.117305 3.2659e-20)
(0.089207 -0.0383941 1.12778e-18)
(0.237432 -0.0821339 2.15312e-20)
(0.429266 -0.078629 7.25418e-19)
(0.561156 -0.094291 4.86734e-19)
(0.707997 -0.103744 5.63878e-20)
(0.821622 -0.152641 -3.29391e-19)
(0.115967 -0.0424637 -2.04072e-20)
(0.281682 -0.0956672 8.97365e-19)
(0.465524 -0.101047 -1.39623e-18)
(0.596008 -0.120144 -5.49341e-19)
(0.725672 -0.136126 0)
(0.820803 -0.177831 -8.6394e-20)
(0.145833 -0.0508328 0)
(0.318236 -0.108651 0)
(0.492254 -0.124054 6.7396e-19)
(0.618559 -0.146335 5.25136e-19)
(0.734137 -0.165986 1.03459e-19)
(0.816275 -0.200428 -3.42139e-19)
(0.172461 -0.0617292 4.29548e-20)
(0.346129 -0.121619 -2.66105e-20)
(0.511335 -0.146621 0)
(0.632481 -0.172123 0)
(0.737275 -0.194093 0)
(0.810771 -0.222733 -4.70912e-21)
(0.192509 -0.0696683 8.58929e-20)
(0.366632 -0.134434 7.20313e-19)
(0.524056 -0.168494 4.02189e-20)
(0.640191 -0.197383 5.02244e-19)
(0.737049 -0.220969 -9.84966e-20)
(0.805191 -0.245228 4.11264e-19)
(0.209495 -0.0785923 -1.32487e-18)
(0.380915 -0.146915 -9.47349e-20)
(0.531436 -0.189685 3.91752e-20)
(0.643258 -0.222185 -9.74931e-19)
(0.734575 -0.247239 0)
(0.799957 -0.268317 -7.99697e-20)
(0.223291 -0.0876595 1.42814e-18)
(0.389685 -0.159059 -8.60933e-19)
(0.53423 -0.210276 3.82952e-20)
(0.642683 -0.246731 4.75847e-19)
(0.730433 -0.273359 0)
(0.79488 -0.292364 -7.86857e-20)
(0.233314 -0.0960751 0)
(0.39347 -0.170885 0)
(0.533002 -0.230313 -5.99991e-19)
(0.639014 -0.271169 4.7161e-19)
(0.724888 -0.299798 0)
(0.789757 -0.317875 -3.16423e-19)
(0.23923 -0.103563 -1.42163e-18)
(0.392712 -0.182404 0)
(0.528132 -0.249831 5.87829e-19)
(0.63258 -0.295673 -5.20877e-19)
(0.71796 -0.327044 -2.36848e-19)
(0.784392 -0.345223 3.11401e-19)
(0.240864 -0.110123 1.46498e-18)
(0.387816 -0.193597 -8.08219e-19)
(0.519854 -0.268921 -7.20546e-20)
(0.623467 -0.320425 5.22071e-19)
(0.709537 -0.355396 9.18917e-20)
(0.778604 -0.37473 -8.04326e-20)
(0.238105 -0.115836 0)
(0.379139 -0.204413 7.84001e-19)
(0.508279 -0.287628 0)
(0.611633 -0.345503 -4.04824e-19)
(0.699427 -0.385093 7.00008e-19)
(0.772186 -0.406714 0)
(0.230981 -0.120739 -1.42605e-18)
(0.366942 -0.214764 -8.05771e-19)
(0.493459 -0.305907 -5.89971e-19)
(0.59693 -0.370917 4.6455e-19)
(0.687339 -0.416319 -3.74959e-19)
(0.764871 -0.441472 0)
(0.219666 -0.124726 1.40518e-18)
(0.351439 -0.224419 8.17195e-19)
(0.475404 -0.323561 5.93464e-19)
(0.579124 -0.396539 -6.4521e-19)
(0.672875 -0.449136 -3.50781e-21)
(0.756284 -0.479301 -1.13199e-19)
(0.204454 -0.127454 7.12955e-19)
(0.332849 -0.232871 -4.25069e-19)
(0.454091 -0.340143 0)
(0.557885 -0.422023 2.65819e-19)
(0.655502 -0.483367 -2.12745e-19)
(0.745875 -0.52057 -1.50817e-19)
(0.185918 -0.128133 -7.2618e-19)
(0.311327 -0.239214 4.08791e-19)
(0.429403 -0.354829 1.76161e-19)
(0.532754 -0.446683 0)
(0.63448 -0.518529 1.68609e-19)
(0.732831 -0.565584 2.47878e-19)
(0.165323 -0.125253 -5.74408e-21)
(0.286854 -0.24197 0)
(0.401102 -0.366212 -1.60478e-19)
(0.503045 -0.469384 6.25637e-20)
(0.608697 -0.553712 -2.27905e-20)
(0.715922 -0.614388 -5.60585e-20)
(0.14511 -0.115902 -4.63787e-20)
(0.259053 -0.238851 0)
(0.368614 -0.37234 -5.11201e-21)
(0.467679 -0.488489 -7.67693e-20)
(0.576538 -0.58738 0)
(0.69329 -0.666615 0)
(0.109621 -0.0970074 4.34834e-20)
(0.226684 -0.226078 0)
(0.331012 -0.370794 -9.18992e-20)
(0.425498 -0.501755 -5.36277e-20)
(0.53565 -0.617216 5.80071e-20)
(0.662226 -0.722072 -2.57368e-21)
(0.0915028 -0.076372 3.27747e-19)
(0.190954 -0.200265 -1.61929e-20)
(0.287998 -0.358605 9.57178e-20)
(0.37646 -0.506746 8.27753e-20)
(0.484347 -0.639634 -1.65727e-19)
(0.618601 -0.782091 -9.08171e-20)
(0.0767451 -0.05203 -3.27894e-19)
(0.152258 -0.16459 -5.2867e-20)
(0.240772 -0.330396 2.6869e-20)
(0.321501 -0.500076 0)
(0.424466 -0.646511 9.34659e-20)
(0.552327 -0.85096 7.46439e-20)
(0.041124 -0.00627719 -2.60015e-20)
(0.100089 -0.0932879 6.3205e-19)
(0.172141 -0.258951 -5.7665e-20)
(0.246079 -0.466064 9.02523e-20)
(0.308519 -0.607085 -9.56103e-20)
(0.451968 -0.938688 5.00477e-20)
(0.777692 -0.322951 1.74967e-19)
(0.790614 -0.263017 -4.24238e-19)
(0.811481 -0.217592 1.00699e-19)
(0.836678 -0.18418 -8.86646e-20)
(0.859515 -0.158967 7.52109e-20)
(0.880163 -0.13928 -1.39406e-19)
(0.89873 -0.123535 -6.2089e-20)
(0.915363 -0.110602 0)
(0.930143 -0.0997017 0)
(0.943182 -0.09027 0)
(0.954582 -0.0818851 9.20855e-20)
(0.964446 -0.0742259 0)
(0.972874 -0.0670506 -1.64045e-19)
(0.979964 -0.0601912 1.5854e-19)
(0.985822 -0.0535555 -7.64962e-20)
(0.990553 -0.04712 0)
(0.994267 -0.0409019 7.08779e-20)
(0.997067 -0.0349205 -1.81243e-22)
(0.999055 -0.0291693 -6.49517e-20)
(1.00035 -0.0236043 0)
(1.00103 -0.0181615 -2.42402e-19)
(1.00092 -0.0128632 -5.93924e-20)
(0.999469 -0.00796788 -2.17024e-22)
(0.997336 -0.00356137 2.04704e-19)
(0.839618 -0.271233 -6.4803e-19)
(0.833976 -0.260317 1.78459e-19)
(0.842374 -0.22485 0)
(0.859037 -0.195366 8.25034e-20)
(0.877005 -0.171697 -1.46606e-19)
(0.894586 -0.15259 1.96303e-19)
(0.911098 -0.136919 -1.20646e-19)
(0.926218 -0.123752 -3.25411e-19)
(0.939816 -0.112405 1.02623e-19)
(0.951874 -0.102379 0)
(0.962423 -0.0932958 1.76742e-19)
(0.971518 -0.0848662 0)
(0.979232 -0.0768688 1.60775e-19)
(0.985647 -0.0691499 -3.09383e-19)
(0.990856 -0.0616278 1.49147e-19)
(0.99496 -0.0542886 1.41611e-19)
(0.998062 -0.0471612 -2.75043e-19)
(1.00026 -0.0402792 3.33113e-19)
(1.00166 -0.033648 0)
(1.00237 -0.0272243 -1.24268e-19)
(1.00251 -0.020942 2.38226e-19)
(1.00174 -0.0148827 -2.30905e-19)
(0.999254 -0.00947724 1.10763e-19)
(0.996039 -0.00475397 6.32117e-21)
(0.861331 -0.240399 4.52443e-19)
(0.858838 -0.251926 0)
(0.8647 -0.228211 -2.67392e-19)
(0.877363 -0.203779 2.33044e-19)
(0.892415 -0.182447 0)
(0.907985 -0.164426 1.26125e-19)
(0.923034 -0.149144 -2.32506e-19)
(0.937009 -0.135944 1.13741e-19)
(0.949657 -0.124293 1.9624e-19)
(0.960883 -0.113782 0)
(0.970672 -0.104094 -1.76851e-19)
(0.979053 -0.0949795 1.64843e-19)
(0.986081 -0.0862435 -1.5726e-19)
(0.991828 -0.0777482 -1.51673e-19)
(0.99638 -0.0694207 2.89516e-19)
(0.999832 -0.0612524 -4.21561e-19)
(1.00229 -0.0532798 -2.68768e-19)
(1.00383 -0.0455492 2.60145e-19)
(1.00457 -0.0380785 -2.49868e-19)
(1.00465 -0.0308241 3.60823e-19)
(1.00415 -0.0237125 -3.48283e-19)
(1.00265 -0.0168845 0)
(0.998954 -0.0109795 -1.10208e-19)
(0.994724 -0.00637728 -2.7994e-19)
(0.867384 -0.231492 0)
(0.872385 -0.246733 -9.92416e-20)
(0.880209 -0.231257 7.83666e-19)
(0.891898 -0.21126 -3.10943e-19)
(0.905764 -0.192269 -2.68626e-19)
(0.920306 -0.17543 2.43551e-19)
(0.934476 -0.16063 -1.10841e-19)
(0.947675 -0.147472 1.0512e-19)
(0.959611 -0.135577 1.90382e-19)
(0.970158 -0.124638 -1.79057e-19)
(0.979286 -0.114403 -1.68482e-19)
(0.987015 -0.104664 -1.59512e-19)
(0.993392 -0.0952558 1.54315e-19)
(0.998485 -0.0860551 1.47787e-19)
(1.00237 -0.0769953 0)
(1.00515 -0.0680692 0)
(1.00692 -0.0593156 2.61856e-19)
(1.00776 -0.05079 -3.78484e-19)
(1.00778 -0.0425218 0)
(1.00712 -0.0344651 -3.51329e-19)
(1.00591 -0.0265294 4.57761e-19)
(1.00364 -0.0189167 -2.20191e-19)
(0.998663 -0.012568 0)
(0.993547 -0.00845606 -9.67862e-20)
(0.866496 -0.233001 5.11977e-20)
(0.879581 -0.246636 0)
(0.891084 -0.235781 -4.22393e-19)
(0.903511 -0.219035 7.39844e-20)
(0.917417 -0.201964 2.68633e-19)
(0.931707 -0.186142 -2.44122e-19)
(0.945497 -0.17175 2.23859e-19)
(0.958248 -0.158601 -2.06697e-19)
(0.969687 -0.146456 -3.78682e-19)
(0.9797 -0.135099 1.79406e-19)
(0.988262 -0.12434 3.34229e-19)
(0.995399 -0.114015 3.13222e-19)
(1.00116 -0.103981 -3.02037e-19)
(1.00562 -0.0941312 2.85377e-19)
(1.00885 -0.0844024 -2.75632e-19)
(1.01094 -0.0747838 0)
(1.01198 -0.0653118 0)
(1.01208 -0.056047 1.24517e-19)
(1.01132 -0.04703 1.17019e-19)
(1.00987 -0.0382133 1.15971e-19)
(1.00789 -0.029494 1.11984e-19)
(1.00479 -0.0211772 4.31957e-19)
(0.998556 -0.0146266 -4.09434e-19)
(0.992244 -0.0108563 -9.26241e-20)
(0.862958 -0.239854 -4.77773e-19)
(0.883697 -0.251168 -2.75404e-19)
(0.898929 -0.242432 -1.61117e-19)
(0.913107 -0.227793 -2.10182e-19)
(0.927847 -0.212077 0)
(0.942449 -0.196964 -3.47205e-19)
(0.95625 -0.182802 2.15203e-19)
(0.968819 -0.169557 -1.00115e-19)
(0.979944 -0.157103 1.87302e-19)
(0.989546 -0.145301 1.71472e-19)
(0.997628 -0.134014 -1.62886e-19)
(1.00423 -0.123115 -1.55198e-19)
(1.00942 -0.112485 -1.43218e-19)
(1.01326 -0.102029 1.36767e-19)
(1.01583 -0.0916826 0)
(1.01722 -0.0814304 0)
(1.01753 -0.0713006 1.24766e-19)
(1.01684 -0.0613545 -3.56054e-19)
(1.01525 -0.0516402 -1.16625e-19)
(1.01297 -0.0421084 0)
(1.01015 -0.0326472 0)
(1.00615 -0.0236926 1.02634e-19)
(0.998579 -0.0170955 -4.01668e-19)
(0.990863 -0.0136699 4.6073e-19)
(0.858778 -0.251726 5.32188e-19)
(0.885932 -0.259389 3.64044e-19)
(0.904917 -0.251428 -9.74937e-22)
(0.921442 -0.237906 2.12264e-19)
(0.937522 -0.222956 0)
(0.95283 -0.208179 1.18694e-19)
(0.966928 -0.194009 1.05758e-19)
(0.979519 -0.180517 1.74578e-21)
(0.990473 -0.167658 -5.36622e-19)
(0.999767 -0.155356 3.74362e-21)
(1.00744 -0.143515 1.54876e-19)
(1.01356 -0.132038 1.46125e-19)
(1.0182 -0.120825 1.43049e-19)
(1.02144 -0.10979 -4.20959e-21)
(1.02337 -0.0988687 -1.26643e-19)
(1.02406 -0.0880361 0)
(1.02362 -0.0773091 3.94941e-22)
(1.02212 -0.0667432 3.47399e-19)
(1.01967 -0.0563888 0)
(1.01649 -0.0461905 1.05575e-19)
(1.01276 -0.0360261 -1.01966e-19)
(1.00776 -0.0264741 3.05164e-19)
(0.99878 -0.0199273 -3.87631e-19)
(0.98957 -0.0169699 -8.84035e-20)
(0.855146 -0.266745 1.03781e-19)
(0.887262 -0.271009 -4.41406e-19)
(0.909984 -0.262806 -3.03827e-19)
(0.929147 -0.24957 0)
(0.946876 -0.23481 0)
(0.963147 -0.219976 -1.1069e-19)
(0.97774 -0.205533 1.03157e-19)
(0.9905 -0.191614 1.91707e-19)
(1.00139 -0.178233 3.49642e-19)
(1.01046 -0.165353 1.6565e-19)
(1.01778 -0.152913 -1.55212e-19)
(1.02345 -0.140838 -4.84846e-21)
(1.02758 -0.129042 4.05508e-19)
(1.03024 -0.117446 -1.33658e-19)
(1.03153 -0.105983 1.2475e-19)
(1.03152 -0.0946176 -2.39078e-19)
(1.03031 -0.0833526 -3.89613e-21)
(1.02799 -0.0722325 -2.2118e-19)
(1.02464 -0.0613027 1.09334e-19)
(1.0205 -0.0504959 -2.06771e-19)
(1.01577 -0.0396735 1.9982e-19)
(1.00969 -0.0295596 0)
(0.999269 -0.0231426 -3.7949e-19)
(0.988479 -0.0207985 4.39359e-19)
(0.851976 -0.284446 -3.58641e-19)
(0.888442 -0.285666 3.50808e-19)
(0.914843 -0.276504 1.55981e-19)
(0.936758 -0.262871 -1.27911e-19)
(0.956295 -0.247764 -1.18771e-19)
(0.973684 -0.232481 -1.04128e-19)
(0.988899 -0.217486 1.97731e-19)
(1.00193 -0.202945 -1.84981e-19)
(1.01283 -0.188905 -1.72824e-19)
(1.02172 -0.175357 -1.55159e-19)
(1.02873 -0.162261 0)
(1.034 -0.149556 -1.41575e-19)
(1.03762 -0.137166 -8.49394e-22)
(1.03972 -0.125015 1.21044e-19)
(1.04037 -0.113035 -2.39702e-19)
(1.03966 -0.101177 0)
(1.03769 -0.0894302 -2.24139e-19)
(1.03451 -0.0778227 3.17651e-19)
(1.03024 -0.0663886 2.05542e-19)
(1.02508 -0.0550411 1.01155e-19)
(1.01928 -0.0436174 3.81436e-19)
(1.01203 -0.0329809 6.10061e-21)
(1.00014 -0.0267563 -3.63172e-19)
(0.987692 -0.0251776 0)
(0.849339 -0.304679 3.6102e-19)
(0.889943 -0.30312 1.71845e-19)
(0.919991 -0.292477 -7.53613e-20)
(0.944693 -0.277852 1.36177e-19)
(0.966115 -0.261895 1.18692e-19)
(0.984705 -0.245776 2.16038e-19)
(1.00062 -0.229943 1.90205e-19)
(1.01397 -0.214573 0)
(1.02493 -0.199726 1.63597e-19)
(1.03368 -0.185408 3.03989e-19)
(1.04041 -0.171587 -3.68803e-21)
(1.04527 -0.15821 0)
(1.04842 -0.145207 1.29183e-19)
(1.04995 -0.132501 2.35083e-19)
(1.04997 -0.120019 -2.30191e-19)
(1.04856 -0.107704 0)
(1.0458 -0.0955261 -4.17836e-21)
(1.04177 -0.0834975 -1.0386e-19)
(1.03654 -0.071635 -3.90244e-21)
(1.03032 -0.059826 0)
(1.02337 -0.0478736 -3.71567e-21)
(1.01488 -0.0367651 0)
(1.00151 -0.0307784 -8.73037e-20)
(0.987318 -0.0301178 -2.70632e-19)
(0.847224 -0.327491 0)
(0.892058 -0.323265 0)
(0.925799 -0.310707 0)
(0.953305 -0.294551 0)
(0.976642 -0.277259 0)
(0.996466 -0.259917 -1.02258e-19)
(1.0131 -0.242952 -2.81125e-19)
(1.02681 -0.226534 0)
(1.03785 -0.210721 0)
(1.04648 -0.195519 -2.95394e-19)
(1.05292 -0.180897 -5.84755e-21)
(1.05739 -0.1668 0)
(1.06004 -0.153157 -1.19183e-19)
(1.06101 -0.139888 -1.17859e-19)
(1.06039 -0.126916 0)
(1.05828 -0.114172 2.09793e-19)
(1.05474 -0.101611 -1.04017e-19)
(1.04983 -0.0892249 -1.9501e-19)
(1.04362 -0.0770124 -4.00981e-21)
(1.03631 -0.0648304 -3.62203e-19)
(1.02814 -0.0524397 3.48513e-19)
(1.01833 -0.0409259 8.41758e-20)
(1.00349 -0.0352081 8.72318e-20)
(0.987476 -0.0356182 0)
(0.845624 -0.35301 -1.48333e-19)
(0.89503 -0.346152 8.5778e-20)
(0.932587 -0.331243 0)
(0.962915 -0.313022 0)
(0.988169 -0.293905 0)
(1.00922 -0.274941 0)
(1.02658 -0.256535 1.86093e-19)
(1.04064 -0.238837 1.65446e-19)
(1.05175 -0.221889 -3.07443e-19)
(1.06024 -0.205681 4.30301e-19)
(1.06639 -0.190172 -1.37022e-19)
(1.07045 -0.175299 -1.18105e-21)
(1.0726 -0.160986 2.13529e-21)
(1.07299 -0.147145 3.2828e-19)
(1.07172 -0.13369 -2.1085e-19)
(1.06889 -0.120541 9.80217e-20)
(1.06455 -0.107639 -1.92145e-19)
(1.05876 -0.0949581 2.76277e-19)
(1.05157 -0.0824749 -9.14937e-20)
(1.04314 -0.0700153 8.44254e-20)
(1.03369 -0.0572917 -8.55149e-20)
(1.0225 -0.0454575 -3.38587e-19)
(1.0062 -0.0400294 3.2231e-19)
(0.98829 -0.0416652 0)
(0.844567 -0.381484 0)
(0.899099 -0.371931 0)
(0.940667 -0.354188 0)
(0.973849 -0.333339 2.37807e-19)
(1.001 -0.311883 -2.10509e-19)
(1.02324 -0.290875 -9.31109e-20)
(1.04128 -0.270699 -8.88725e-20)
(1.05564 -0.251471 -1.56326e-19)
(1.06679 -0.233203 -2.90374e-19)
(1.07511 -0.215855 1.37561e-19)
(1.08095 -0.199367 -1.2642e-19)
(1.08457 -0.183658 1.19442e-19)
(1.08619 -0.168639 0)
(1.08597 -0.154212 -1.08147e-19)
(1.08403 -0.14028 -1.99876e-19)
(1.08046 -0.126751 -1.90134e-19)
(1.07532 -0.113551 2.72832e-19)
(1.06863 -0.100635 -9.02212e-20)
(1.06045 -0.0879604 8.28437e-20)
(1.05089 -0.075323 -8.40612e-20)
(1.04014 -0.0623839 8.19319e-20)
(1.02752 -0.0503308 -2.35195e-19)
(1.00978 -0.0452055 7.69425e-20)
(0.989887 -0.0482291 -2.91747e-19)
(0.844106 -0.413228 -3.82696e-19)
(0.90453 -0.400818 -3.13971e-19)
(0.950381 -0.379688 2.6495e-19)
(0.986457 -0.355596 -4.69962e-19)
(1.01545 -0.331245 2.13079e-19)
(1.03881 -0.307735 3.71881e-19)
(1.05745 -0.28543 0)
(1.07204 -0.264401 2.34132e-19)
(1.08316 -0.244609 -6.32103e-20)
(1.09125 -0.225977 -1.26743e-19)
(1.09671 -0.208407 0)
(1.09984 -0.191795 1.12885e-19)
(1.10089 -0.176032 -2.10356e-19)
(1.10003 -0.161004 -1.00173e-19)
(1.09739 -0.146601 2.91692e-21)
(1.09306 -0.132717 2.7437e-19)
(1.08709 -0.119261 -2.63316e-19)
(1.07951 -0.106172 1.66651e-19)
(1.07033 -0.0933882 -2.4388e-19)
(1.05964 -0.0806772 0)
(1.04758 -0.0676498 7.71066e-20)
(1.03351 -0.0554917 1.51533e-19)
(1.01435 -0.0506707 7.66163e-20)
(0.992386 -0.0552578 -2.13756e-19)
(0.844314 -0.448598 5.73329e-19)
(0.91164 -0.433069 2.42239e-19)
(0.962126 -0.407905 -3.27468e-19)
(1.00114 -0.379889 2.32078e-19)
(1.0319 -0.352036 9.78304e-20)
(1.05624 -0.325524 -2.73346e-19)
(1.07535 -0.300697 7.75648e-20)
(1.09006 -0.277567 0)
(1.10104 -0.256031 1.38472e-19)
(1.10882 -0.235951 1.27902e-19)
(1.11382 -0.217187 0)
(1.1164 -0.199598 0)
(1.11681 -0.183047 1.04059e-19)
(1.11526 -0.167401 4.61972e-20)
(1.11187 -0.152532 1.36746e-19)
(1.10675 -0.138317 0)
(1.09994 -0.124651 3.99042e-20)
(1.09145 -0.111456 0)
(1.08128 -0.0986489 -3.69525e-20)
(1.06947 -0.0859764 0)
(1.0561 -0.0729997 1.42574e-19)
(1.04058 -0.0608584 -1.39159e-19)
(1.02005 -0.0563139 -1.43123e-19)
(0.995889 -0.0626663 1.37612e-19)
(0.845295 -0.487968 -1.39372e-19)
(0.920817 -0.468942 0)
(0.976366 -0.438984 1.2878e-19)
(1.01835 -0.406297 -1.03333e-19)
(1.05075 -0.374284 9.05035e-20)
(1.0759 -0.344228 0)
(1.0953 -0.316452 -5.66702e-21)
(1.10996 -0.290893 0)
(1.12065 -0.267366 0)
(1.12798 -0.24566 0)
(1.13242 -0.225574 5.24734e-20)
(1.13434 -0.206921 0)
(1.13404 -0.18953 -9.5194e-20)
(1.13172 -0.173241 2.89363e-22)
(1.12753 -0.157905 -2.75454e-21)
(1.12157 -0.143384 -8.10251e-20)
(1.11389 -0.129555 3.76979e-20)
(1.10449 -0.116321 0)
(1.09333 -0.103585 -1.06186e-19)
(1.08041 -0.0910758 1.05178e-19)
(1.06577 -0.078309 3.24819e-20)
(1.04885 -0.0663128 0)
(1.027 -0.0619449 1.36239e-19)
(1.00046 -0.0703126 -1.31651e-19)
(0.847198 -0.531673 0)
(0.932526 -0.508625 3.41643e-20)
(0.993646 -0.472985 -1.1518e-19)
(1.03862 -0.434824 2.23556e-19)
(1.07247 -0.397965 -1.36712e-19)
(1.09819 -0.363799 -7.46478e-20)
(1.11761 -0.332619 -7.37093e-20)
(1.13199 -0.304277 0)
(1.1422 -0.27849 0)
(1.14891 -0.254957 -5.25164e-20)
(1.15264 -0.233403 -5.49345e-20)
(1.1538 -0.213585 9.36684e-20)
(1.15268 -0.195286 0)
(1.14951 -0.178316 1.68988e-19)
(1.14445 -0.162501 -8.31033e-20)
(1.13759 -0.147685 1.13073e-19)
(1.12899 -0.133727 -3.77526e-20)
(1.11864 -0.120517 0)
(1.10649 -0.107947 -1.00043e-19)
(1.0925 -0.0957429 9.88739e-20)
(1.07663 -0.0833837 -3.24878e-20)
(1.0584 -0.0716769 -1.27742e-19)
(1.03537 -0.0672138 1.24659e-19)
(1.00611 -0.077939 3.11129e-20)
(0.85021 -0.580023 0)
(0.947337 -0.552103 9.53177e-20)
(1.01457 -0.509775 8.53325e-20)
(1.06251 -0.465327 -9.70475e-20)
(1.09758 -0.422954 0)
(1.12353 -0.384123 6.22444e-21)
(1.14267 -0.349083 6.75595e-22)
(1.15647 -0.317593 2.995e-20)
(1.16594 -0.289259 2.59546e-20)
(1.17182 -0.263679 5.31209e-20)
(1.17466 -0.24049 -9.6733e-20)
(1.17489 -0.219382 -1.83477e-21)
(1.17283 -0.200085 0)
(1.1687 -0.182369 -4.10555e-20)
(1.16268 -0.166034 -7.63952e-20)
(1.15486 -0.1509 7.01133e-20)
(1.14528 -0.136815 -3.53465e-20)
(1.13394 -0.123655 -6.56448e-20)
(1.12078 -0.111312 3.27435e-20)
(1.1057 -0.0995511 6.11216e-20)
(1.08864 -0.0878563 -5.94362e-20)
(1.06923 -0.0766315 0)
(1.04524 -0.0714026 0)
(1.01277 -0.0849652 -1.62105e-20)
(0.854584 -0.633371 0)
(0.965878 -0.598978 -3.58736e-20)
(1.03974 -0.548867 0)
(1.09058 -0.497376 -1.90592e-20)
(1.12656 -0.448933 -1.06316e-21)
(1.15238 -0.404968 5.0588e-20)
(1.17084 -0.365662 1.35889e-20)
(1.1837 -0.330676 -1.25319e-20)
(1.19213 -0.299505 -1.46197e-20)
(1.19691 -0.271643 0)
(1.19865 -0.246633 0)
(1.19778 -0.224085 -3.01001e-20)
(1.19463 -0.203669 1.00888e-20)
(1.18942 -0.185107 -8.71262e-21)
(1.18234 -0.16816 -3.48656e-20)
(1.17347 -0.152626 6.64815e-20)
(1.16285 -0.138332 -3.18081e-20)
(1.15046 -0.125146 0)
(1.13622 -0.11297 0)
(1.12 -0.10166 0)
(1.10166 -0.0908184 0)
(1.08088 -0.0802642 0)
(1.05604 -0.0730118 0)
(1.02205 -0.0898791 -1.52635e-20)
(0.860642 -0.692088 0)
(0.988814 -0.648369 -2.88939e-20)
(1.06969 -0.58922 0)
(1.12326 -0.530119 1.92787e-20)
(1.15982 -0.475286 -2.4451e-20)
(1.1851 -0.425912 7.04428e-21)
(1.20249 -0.382063 -1.37458e-20)
(1.21403 -0.343303 1.13282e-20)
(1.22105 -0.309036 -6.27314e-21)
(1.22444 -0.278659 -5.16099e-21)
(1.22481 -0.251628 1.13975e-21)
(1.22263 -0.227469 9.78341e-21)
(1.21822 -0.205782 8.22888e-21)
(1.21182 -0.186229 7.81099e-21)
(1.20358 -0.168524 9.50109e-22)
(1.19361 -0.152424 0)
(1.18191 -0.137725 1.57299e-20)
(1.16845 -0.12427 -1.42049e-20)
(1.15312 -0.111958 0)
(1.13572 -0.100702 1.43336e-20)
(1.11591 -0.090203 -1.2308e-20)
(1.09309 -0.0802315 0)
(1.06642 -0.0730565 1.37437e-20)
(1.03536 -0.0892481 -1.42249e-20)
(0.869103 -0.755903 0)
(1.01673 -0.6988 0)
(1.10466 -0.629013 0)
(1.16067 -0.562135 0)
(1.1975 -0.50099 0)
(1.22191 -0.446255 0)
(1.23786 -0.39782 0)
(1.24772 -0.355159 1.36852e-21)
(1.25299 -0.317615 0)
(1.25465 -0.284526 0)
(1.25337 -0.25528 -1.15387e-21)
(1.24964 -0.229331 0)
(1.2438 -0.206208 1.04697e-21)
(1.23607 -0.185506 -2.80846e-21)
(1.22662 -0.16688 -1.02143e-21)
(1.21552 -0.150035 3.47672e-21)
(1.2028 -0.134726 -8.88474e-22)
(1.18835 -0.120768 0)
(1.17201 -0.108043 0)
(1.15343 -0.0964162 5.45758e-21)
(1.13205 -0.085641 -6.83106e-21)
(1.10708 -0.0763685 6.20356e-21)
(1.07826 -0.0732806 -6.01287e-21)
(1.04713 -0.0854256 -2.03203e-21)
(0.882059 -0.823169 1.02618e-20)
(1.04979 -0.747533 2.36776e-20)
(1.14414 -0.665265 0)
(1.20233 -0.591223 -5.01513e-21)
(1.23925 -0.524484 9.7043e-21)
(1.26264 -0.464927 2.23355e-20)
(1.27697 -0.412225 -8.35418e-21)
(1.28492 -0.365781 7.77839e-21)
(1.28814 -0.32493 0)
(1.28777 -0.289017 1.99551e-21)
(1.28456 -0.257406 -1.25477e-20)
(1.27902 -0.229511 -2.67415e-20)
(1.27153 -0.204805 0)
(1.26232 -0.182827 0)
(1.25156 -0.16318 0)
(1.23932 -0.14553 -2.55125e-20)
(1.22558 -0.129613 1.27091e-20)
(1.2102 -0.11525 0)
(1.19292 -0.102339 1.09849e-20)
(1.17326 -0.0907448 -3.34917e-20)
(1.15051 -0.0802966 -4.95649e-22)
(1.12388 -0.0721943 2.15454e-20)
(1.09322 -0.0718862 3.32188e-20)
(1.05874 -0.0820769 -1.2555e-20)
(0.902394 -0.890234 1.88754e-20)
(1.08697 -0.78827 -1.21921e-20)
(1.18593 -0.692943 0)
(1.24652 -0.613935 1.07774e-20)
(1.28385 -0.543477 -1.44685e-20)
(1.3065 -0.480388 -1.39975e-20)
(1.3194 -0.42425 1.15883e-20)
(1.32547 -0.374493 -1.07916e-20)
(1.32657 -0.330546 0)
(1.32397 -0.291842 3.29905e-20)
(1.31857 -0.257804 3.3381e-20)
(1.31097 -0.227858 5.74704e-20)
(1.30158 -0.201459 2.18388e-20)
(1.29068 -0.178111 1.02434e-21)
(1.27843 -0.157383 -4.50559e-20)
(1.26489 -0.138917 4.21458e-20)
(1.25 -0.122445 -1.04386e-20)
(1.23356 -0.107804 1.13357e-21)
(1.21518 -0.0949204 8.39485e-21)
(1.19429 -0.0836758 2.96613e-20)
(1.17007 -0.0739591 0)
(1.14177 -0.0671194 0)
(1.1093 -0.0686038 -1.07854e-20)
(1.07182 -0.0787039 0)
(0.931403 -0.905968 -4.33762e-22)
(1.1215 -0.784935 1.70375e-20)
(1.22679 -0.698296 -4.03598e-22)
(1.28956 -0.624229 -1.05979e-20)
(1.3286 -0.554561 0)
(1.35166 -0.490489 4.88958e-21)
(1.36399 -0.432472 -4.24415e-21)
(1.36874 -0.380343 7.21504e-21)
(1.36799 -0.333828 -1.58182e-20)
(1.36322 -0.292589 -4.96626e-21)
(1.35551 -0.256206 -2.03902e-20)
(1.34563 -0.224195 -2.02515e-21)
(1.3341 -0.196049 -5.77341e-20)
(1.32125 -0.171276 1.80596e-20)
(1.30727 -0.149433 -5.56615e-20)
(1.29219 -0.130154 1.60751e-20)
(1.27592 -0.113175 1.70655e-20)
(1.25818 -0.0983469 4.06206e-20)
(1.23852 -0.0856106 -7.5274e-20)
(1.21629 -0.0748701 1.60122e-20)
(1.19058 -0.0660341 0)
(1.16066 -0.0604692 -8.91844e-20)
(1.12653 -0.063434 1.58113e-19)
(1.08654 -0.0744174 -9.44241e-20)
(0.041286 0.00536811 4.13412e-19)
(0.053653 -0.0293976 1.94517e-20)
(0.089581 -0.126018 2.16054e-19)
(0.109186 -0.18684 -1.95684e-19)
(0.156319 -0.327742 -4.52119e-20)
(0.128737 -0.306298 3.83194e-20)
(0.0376022 -0.0181269 3.81295e-19)
(0.0472085 -0.0683324 -2.40346e-19)
(0.078553 -0.16232 -7.10955e-19)
(0.0929461 -0.227014 -1.69413e-19)
(0.123333 -0.320265 -4.38504e-20)
(0.123316 -0.307165 -2.7601e-19)
(0.0330688 -0.0302787 2.63398e-20)
(0.0369776 -0.0891825 5.04666e-19)
(0.0612836 -0.176752 4.08967e-19)
(0.072134 -0.236596 7.55142e-19)
(0.091336 -0.295987 -3.86144e-20)
(0.0984033 -0.285133 6.49758e-21)
(0.0271929 -0.0412089 -5.86676e-19)
(0.0261147 -0.105073 -1.22147e-20)
(0.0432338 -0.18495 -3.97568e-19)
(0.0518322 -0.236844 -2.96015e-19)
(0.0675652 -0.274882 -3.73582e-20)
(0.0848608 -0.264039 2.8459e-19)
(0.0218651 -0.0522837 9.91269e-21)
(0.0156266 -0.117613 -4.78797e-19)
(0.0260914 -0.188923 7.65744e-19)
(0.0329777 -0.232372 3.3378e-19)
(0.0475064 -0.256786 0)
(0.0708458 -0.245961 6.77432e-20)
(0.0143732 -0.0617125 0)
(0.00530254 -0.126538 0)
(0.00984849 -0.189252 -3.72605e-19)
(0.0152387 -0.224928 -3.2397e-19)
(0.0289259 -0.240145 -7.44732e-20)
(0.054332 -0.229067 2.69123e-19)
(-0.00181196 -0.0665765 -2.40104e-20)
(-0.00637583 -0.130458 1.44902e-20)
(-0.00601906 -0.186479 0)
(-0.00204406 -0.215463 0)
(0.0104613 -0.224046 0)
(0.0351572 -0.212358 1.52235e-21)
(-0.01183 -0.067159 -4.8091e-20)
(-0.0189533 -0.130973 -4.02249e-19)
(-0.0218093 -0.181465 -2.21974e-20)
(-0.0193065 -0.204579 -3.16518e-19)
(-0.00859712 -0.20791 7.24456e-20)
(0.0135749 -0.19519 -3.26865e-19)
(-0.0221505 -0.0678746 7.32378e-19)
(-0.0318446 -0.129534 5.41234e-20)
(-0.0375259 -0.174936 -2.19936e-20)
(-0.0366631 -0.192648 6.2295e-19)
(-0.0285065 -0.191384 0)
(-0.0101368 -0.177123 6.59172e-20)
(-0.0315808 -0.0677764 -7.91189e-19)
(-0.0445804 -0.12673 4.90336e-19)
(-0.0530415 -0.16738 -2.18599e-20)
(-0.0542293 -0.179911 -3.08839e-19)
(-0.049098 -0.174283 0)
(-0.0356453 -0.157901 6.56113e-20)
(-0.0397059 -0.0664366 0)
(-0.0568054 -0.122922 0)
(-0.0681871 -0.159112 3.55494e-19)
(-0.0717793 -0.166581 -3.08543e-19)
(-0.0702337 -0.156488 0)
(-0.0624397 -0.137403 2.58291e-19)
(-0.0463855 -0.0637622 7.83047e-19)
(-0.0682632 -0.11832 0)
(-0.0828051 -0.150328 -3.54163e-19)
(-0.0891178 -0.152788 3.46363e-19)
(-0.0915887 -0.137991 1.72961e-19)
(-0.0899003 -0.115674 -2.5814e-19)
(-0.0515617 -0.0597556 -8.07208e-19)
(-0.0787708 -0.11302 4.6014e-19)
(-0.0967434 -0.141123 4.53432e-20)
(-0.106064 -0.13861 -3.44803e-19)
(-0.112765 -0.118941 -6.9975e-20)
(-0.117325 -0.0928214 6.25966e-20)
(-0.0552092 -0.0544227 0)
(-0.0881279 -0.10701 -4.47338e-19)
(-0.109885 -0.131568 0)
(-0.122431 -0.12418 2.68271e-19)
(-0.133348 -0.0995047 -5.17518e-19)
(-0.143989 -0.0690126 0)
(-0.0573522 -0.0477588 7.74527e-19)
(-0.0960795 -0.100259 4.52284e-19)
(-0.122153 -0.121684 3.59129e-19)
(-0.138063 -0.109635 -3.08717e-19)
(-0.152956 -0.0799441 2.75765e-19)
(-0.16914 -0.0445762 0)
(-0.0580656 -0.0399493 -7.63831e-19)
(-0.102335 -0.0927026 -4.58488e-19)
(-0.133508 -0.111431 -3.64537e-19)
(-0.152872 -0.0951326 4.2745e-19)
(-0.171287 -0.0605879 -1.58527e-21)
(-0.192135 -0.019818 9.62164e-20)
(-0.0574623 -0.0315698 -3.83548e-19)
(-0.10659 -0.0842112 2.33774e-19)
(-0.143935 -0.100711 0)
(-0.166855 -0.0808454 -1.78086e-19)
(-0.188158 -0.0418296 1.55986e-19)
(-0.212449 0.00484281 1.27813e-19)
(-0.0554178 -0.0229299 3.91061e-19)
(-0.10849 -0.0745539 -2.24966e-19)
(-0.153431 -0.0893598 -1.0636e-19)
(-0.1801 -0.0669451 0)
(-0.203517 -0.0241341 -1.23015e-19)
(-0.229664 0.0289034 -2.088e-19)
(-0.0511513 -0.00981942 3.06709e-21)
(-0.107414 -0.0633457 0)
(-0.161996 -0.0771091 9.78557e-20)
(-0.192804 -0.0535633 -4.10201e-20)
(-0.217484 -0.00806446 1.83897e-20)
(-0.243509 0.0516291 4.93811e-20)
(-0.0434829 0.000742202 2.27408e-20)
(-0.103112 -0.0499629 0)
(-0.169639 -0.0635666 3.23487e-21)
(-0.205303 -0.0407552 5.05811e-20)
(-0.230455 0.00571249 0)
(-0.253912 0.0719415 0)
(-0.0354467 0.0102025 -2.0165e-20)
(-0.0971685 -0.0339158 0)
(-0.176321 -0.0483184 5.47062e-20)
(-0.218112 -0.0285546 3.45961e-20)
(-0.243262 0.0164056 -4.2444e-20)
(-0.260576 0.0881244 2.06174e-21)
(-0.028372 0.0187607 -1.64468e-19)
(-0.0897982 -0.0154121 9.00072e-21)
(-0.181419 -0.031021 -5.58802e-20)
(-0.231838 -0.0171398 -5.24596e-20)
(-0.257325 0.0231255 1.18376e-19)
(-0.261573 0.0974514 8.6239e-20)
(-0.0204606 0.0279815 1.73916e-19)
(-0.0787027 0.00555975 2.86832e-20)
(-0.181644 -0.0125785 -1.48607e-20)
(-0.246252 -0.00578838 0)
(-0.274077 0.0261173 -6.30195e-20)
(-0.248869 0.0985506 -4.87491e-20)
(-0.00697444 0.0406475 4.33797e-19)
(-0.0516467 0.0355148 1.00889e-20)
(-0.162177 0.0237545 -1.55322e-20)
(-0.255858 0.0234034 -2.53085e-20)
(-0.286298 0.0398544 2.11507e-20)
(-0.216061 0.117401 4.21655e-20)
(0.811363 -0.648541 -9.70446e-20)
(1.10542 -0.709989 2.478e-20)
(1.24153 -0.668109 0)
(1.32126 -0.612691 0)
(1.36744 -0.553037 -5.89576e-21)
(1.39441 -0.492427 2.37809e-21)
(1.40838 -0.435009 2.15707e-21)
(1.41324 -0.382018 -3.24574e-21)
(1.41154 -0.333866 -1.03963e-20)
(1.4051 -0.290638 6.50471e-21)
(1.39527 -0.252198 -1.15028e-20)
(1.38307 -0.21825 1.08294e-20)
(1.36921 -0.188396 0)
(1.35416 -0.162201 0)
(1.33815 -0.139245 4.82041e-20)
(1.32124 -0.119171 -2.946e-20)
(1.30329 -0.101724 1.47944e-20)
(1.28401 -0.0867671 4.75092e-21)
(1.26289 -0.0742431 -4.71397e-20)
(1.23925 -0.0640703 0)
(1.21209 -0.0561601 0)
(1.18067 -0.0518671 1.62459e-20)
(1.14504 -0.0562104 -1.72564e-20)
(1.10286 -0.0686481 1.9946e-20)
(0.55199 -0.388901 3.97093e-19)
(0.992514 -0.561264 -4.69936e-20)
(1.21278 -0.600261 0)
(1.32508 -0.577683 -2.06973e-20)
(1.39077 -0.533811 3.38656e-20)
(1.4285 -0.483129 -3.47555e-20)
(1.44847 -0.429678 1.93297e-20)
(1.45624 -0.377881 3.94988e-20)
(1.45544 -0.32943 -7.00653e-21)
(1.4485 -0.285085 0)
(1.43724 -0.245136 -2.20367e-21)
(1.42303 -0.209575 0)
(1.40687 -0.178193 1.76625e-20)
(1.38945 -0.150672 -3.73602e-20)
(1.37116 -0.126659 1.95428e-20)
(1.35211 -0.105835 1.90811e-20)
(1.3322 -0.0879628 -5.10338e-20)
(1.31109 -0.0729166 6.24269e-20)
(1.28832 -0.0606397 0)
(1.26317 -0.0510516 -2.92269e-20)
(1.23462 -0.0440756 4.93066e-20)
(1.20184 -0.0410251 -5.49019e-20)
(1.16485 -0.0467037 2.45746e-20)
(1.12078 -0.0609695 3.7326e-20)
(0.362115 -0.267955 -3.03904e-19)
(0.801405 -0.406529 0)
(1.10418 -0.489926 1.5981e-19)
(1.28595 -0.516328 -1.19701e-19)
(1.38613 -0.49723 0)
(1.445 -0.459064 -3.6805e-20)
(1.47797 -0.414219 6.14331e-20)
(1.49333 -0.36617 -4.55081e-22)
(1.49657 -0.319077 -4.19319e-20)
(1.4913 -0.27476 0)
(1.48004 -0.234099 2.22033e-21)
(1.46469 -0.197466 4.70143e-22)
(1.44667 -0.164915 8.60601e-21)
(1.427 -0.136301 -5.78921e-21)
(1.40632 -0.111382 2.82035e-20)
(1.38491 -0.0899058 -4.60288e-20)
(1.36274 -0.0716767 -3.72649e-20)
(1.33954 -0.0565861 3.52316e-20)
(1.31488 -0.0445773 -4.1159e-20)
(1.28811 -0.0355778 5.77955e-20)
(1.25818 -0.0295175 -5.77233e-20)
(1.22416 -0.0276502 0)
(1.18598 -0.0346092 -2.58491e-20)
(1.1403 -0.0509353 -4.77878e-21)
(0.255261 -0.22209 0)
(0.611899 -0.292023 6.58216e-20)
(0.935369 -0.372973 -4.97435e-19)
(1.17878 -0.425336 1.59525e-19)
(1.33819 -0.439128 1.59019e-19)
(1.43256 -0.420851 -1.28783e-19)