/*--------------------------------*- C++ -*----------------------------------*  =========                 |
  \      /  F ield         | OpenFOAM: The Open Source CFD Toolbox
   \    /   O peration     | Website:  https://openfoam.org
    \  /    A nd           | Version:  11
     \/     M anipulation  |
\*---------------------------------------------------------------------------*/
FoamFile
{
    format      ascii;
    class       volScalarField;
    object      U;
}
// * * * * * * * * * * * * * * * * * * * * * * * * * * * * * * * * * * * * * //

dimensions      [0 1 -1 0 0 0 0];

internalField   nonuniform List<scalar> 
2880
( 
0.16290587555941555
0.3014345595543811
0.4091683355400356
0.3869843703532101
0.5077745749385728
0.39234116693696014
0.2191409209899196
0.3423259290870644
0.4268298567539045
0.41576004134892564
0.4721243658990698
0.47611845474626885
0.23682825550074738
0.3450801664568246
0.4040388981883066
0.40010424747046935
0.46285080138156987
0.5909380347845223
0.25246516900789767
0.334476988489157
0.38497062321266384
0.37833559504245484
0.48416224412839337
0.696766284797818
0.27359177265852275
0.31713120626352154
0.35271165537604265
0.36591087292566876
0.5220591000639854
0.7617905005534424
0.28870053179303323
0.30722026376929557
0.3252199538647555
0.3600621614739152
0.539166936545672
0.8238286592174086
0.30295964636324035
0.30184143616689485
0.300561119027966
0.35577109228559967
0.5654043403076275
0.838257306892062
0.3224623666970167
0.2933415625573478
0.28560018507322854
0.3571715919611862
0.5738688480712761
0.8881043250575312
0.34150642989093993
0.2857909663579113
0.27508728504692165
0.35876455403579993
0.5841395556477497
0.8604365941422676
0.34108709642039864
0.2870276324558153
0.2586675789800597
0.35233261198019783
0.5977592946170593
0.8837652738068151
0.35849071119872744
0.2878742171661365
0.2565165609815833
0.3536988788422946
0.5783622280440402
0.8703113125926236
0.355060068571178
0.2914218057791587
0.2647349203287262
0.35485675196198324
0.5800248234433751
0.8323274589629397
0.3563896273298761
0.29096051303786624
0.2743228058333652
0.3650411124958182
0.5708510640976019
0.8476424583451663
0.3493375463422278
0.2947847313738809
0.2862444826127436
0.37746566895071265
0.5788848138589155
0.7845267452587044
0.3314147365793353
0.301849608443408
0.30220426778873377
0.38793847257429914
0.5647919813333455
0.7842594976890049
0.31852534220426265
0.30803033328318874
0.31513875942920927
0.39486092656202865
0.5658712235841039
0.753088223503653
0.30786965627901897
0.3182517697214082
0.33031310631373384
0.4020864954581048
0.5750274706726177
0.7344391408599917
0.28093731773968655
0.31607309650581955
0.34307109125655655
0.4129000116517234
0.5468288355398315
0.7204036761549313
0.2682357354271833
0.3214075406596016
0.355873940237004
0.41763178183032473
0.5386179354662562
0.7013199678138367
0.24377810872076106
0.3249254925207284
0.36598466179437666
0.423678701555669
0.5316941435396623
0.6677397556982257
0.2226171788116995
0.3319633839972975
0.3811077724066847
0.42662840570728144
0.5048498115780523
0.6338163923048499
0.20012774903336736
0.3268268757330843
0.39141479456250095
0.42287713206578253
0.48773436222894656
0.5975479737503534
0.17005113115087322
0.33223324402529014
0.3953707117997076
0.42247757269228275
0.4622968222475068
0.5484887049796507
0.11446127977432277
0.2977066738866923
0.3928964035495571
0.41387646255187094
0.4408752684928123
0.5058871880752602
1.1703493517404358
1.2097273140339764
1.166472304894609
1.150926182612415
1.1204479022178762
1.103894366187882
1.072511090955142
1.0801209648523622
1.071596458896378
1.071480152517531
1.0713638188847896
1.067481701624634
1.057507512106159
1.055802329525679
1.0518572302635127
1.049075649890357
1.045422223043276
1.0391366142397938
1.034912757729005
1.027109733982573
1.0193779032262609
1.011076165512939
0.9996992374113226
0.990853294670279
1.2136957213638584
1.2733809118993296
1.253994142182798
1.20448471691705
1.1680949074101785
1.1340595806192142
1.1238612134014407
1.101058772058167
1.0979433998498938
1.0871696766038872
1.0866643326364889
1.0736492012718697
1.073400691434518
1.0704190952878607
1.0633270368838226
1.0609394757784734
1.0465251823582957
1.0458967385018267
1.0405017845715692
1.028320098165615
1.02378072564329
1.0124196503169158
1.0035591801406922
0.9908352657160207
1.2468624523634007
1.3637836115360455
1.3041068514900305
1.2515293559750191
1.2068728426969693
1.1663387011504884
1.145161620631497
1.1297126862713889
1.113407104369595
1.1060935619186998
1.0980174930454873
1.0926222278188906
1.0852369673037006
1.0812701515454701
1.0706304707297865
1.0710442894349257
1.059307748094909
1.0527893406878819
1.0446936771769082
1.0344358178715791
1.0263784136009175
1.0164414955012526
1.0030847129066658
0.9898442263596301
1.2252282141341033
1.3988996634835171
1.345396701600037
1.29450956537627
1.2474490610031326
1.2054965337303938
1.1711616742862592
1.1595264393176155
1.1381157315471
1.1204668361280574
1.1186983154227768
1.1115831462179409
1.1065498865338228
1.093320070985384
1.0890422327358582
1.0768509615073327
1.0694511294374516
1.0563885326620694
1.053197062510533
1.0405296922635916
1.0254259646653214
1.0184743415714768
1.0065879922770136
0.9914727502552265
1.2904566227269916
1.4311473951358566
1.4117050683443997
1.313112564223447
1.2477672148838432
1.2328501966922267
1.1881874042633016
1.1690570785813366
1.1542436132900489
1.1391544414033945
1.1265459282066714
1.1190184979646784
1.1096948942147284
1.1065983552858127
1.093214983464486
1.0840241091014904
1.0755747466628316
1.0661926698605284
1.0568292825375247
1.0455842448797812
1.0364491833986422
1.0249677651683122
1.0081640765743611
0.9924155110061585
1.267377808030914
1.4499290148221908
1.4419092669629991
1.3679155849201305
1.2887826124757298
1.2593476110293091
1.2364012748238071
1.1912654038402888
1.1700911171306838
1.1516994842413204
1.1389145134766163
1.119689605043715
1.1276146976842962
1.1119721248244907
1.1100925320082353
1.0960318778933753
1.086224520948687
1.0755245030426321
1.0628649404261583
1.046743864599999
1.0384557916303874
1.027186480399995
1.0111706741541668
0.9933451600940949
1.2313983920249132
1.4463353394355605
1.4469308052808865
1.4297247667544015
1.3554913133273465
1.266212651175067
1.235592241177369
1.2074545840778186
1.1810207339385919
1.162122371875931
1.1480419451861714
1.1408397863622417
1.1326304195155967
1.1186713628847078
1.111429759391897
1.0985942364127173
1.0897409622589191
1.0804516326124733
1.0698069570921938
1.0581009559008774
1.0451552381092852
1.0260651454941474
1.0124210574152206
0.9968273283473502
1.2270357900869353
1.4306116580497772
1.462476721950695
1.4357735357254127
1.37122993518638
1.3077388240653771
1.2672846478809565
1.218155330592331
1.1956803546235237
1.180347829750184
1.1653051718469785
1.156879160720669
1.1388398919682545
1.1252773302251808
1.1199167011271751
1.1052571538881784
1.0976704926200453
1.0868814855060025
1.0745894168751842
1.0620712908612584
1.0494285161027985
1.0317857742381855
1.0165125300916618
0.9979516423580462
1.2079839441891553
1.441535851139324
1.4978520660697767
1.426237769622904
1.3830904956914505
1.3229632118274093
1.275726786542758
1.2250592079226152
1.2088351104729802
1.1875904710663374
1.168911651967828
1.1539266381774589
1.1485458621022333
1.1390922483676844
1.1350547135682312
1.115707786320917
1.1075222015999373
1.0962967646880946
1.0781462357904081
1.0673960450342581
1.0537926200923369
1.0393371710118786
1.0198619168875778
0.9987324707972202
1.232034331327866
1.4168617128394327
1.462857310878509
1.4493588014019196
1.3966285720494176
1.3538297354887354
1.3099556985065974
1.2568796398848103
1.2312483957909648
1.1971962422251825
1.1833415652059538
1.1705826240757682
1.1558774785383377
1.1441134403198718
1.1343451276590129
1.1221234467001409
1.1121442527147947
1.1006247560628135
1.0871533258224695
1.0760342411086141
1.0578481515906009
1.0427925141858434
1.023654219974236
1.0028670451791986
1.1721692174652847
1.4085523253805226
1.4728947068550213
1.4625722985191418
1.4255015757620715
1.374755041778577
1.3110548121654353
1.2796993077783367
1.246669975785227
1.211171665856934
1.195630494123505
1.1777051532277973
1.1652392449100482
1.1530509698980758
1.139955328544459
1.1361371198253831
1.1223805920306016
1.1044130887268706
1.0886132488482836
1.0794492674470835
1.0603096225140638
1.0455875353392032
1.027567645520279
1.006435666188152
1.1461743865789131
1.3754428238369685
1.4811750259096166
1.4657915731540534
1.4393548913814767
1.3948630393282562
1.3445148248074092
1.2956752970794814
1.259139315608486
1.2366946986680503
1.208234015896547
1.1940498705889462
1.173624920690369
1.1569727292633034
1.1469019916774177
1.1405911517231457
1.1281342706625732
1.1111530666634102
1.098443975493743
1.083250049032717
1.06983917734949
1.048957392247033
1.0314439629574708
1.010699022815372
1.1244577975649894
1.347189937986932
1.4340917002443985
1.4760268555990024
1.4626673576562612
1.4330830080049688
1.375120957258254
1.3298314517645233
1.2762945665150378
1.2562339042910833
1.2349147254124522
1.1927782415978723
1.1917736456146704
1.1737303486201585
1.1640549843556922
1.145947885963278
1.1346782989712714
1.1185998587013022
1.1107098969781264
1.0909596004026076
1.075095187187017
1.0584693046302167
1.036508779098189
1.0148681627833809
1.0570386936841627
1.2809454612505073
1.4384935349889543
1.4732050475568839
1.4677387467854266
1.4325108426963133
1.3835183645521056
1.3455794475325344
1.3094945790873938
1.273390488900373
1.2429610351172786
1.217175292701728
1.2112146561898611
1.1904534317926136
1.1747658255322417
1.1587528299229066
1.1467927082549918
1.1320178895933986
1.1165794153011686
1.1044291517586213
1.084790597663231
1.0639969693891547
1.0405884407258648
1.018693811932828
1.03498444186036
1.236908457859522
1.364254382254422
1.424316028296341
1.4457707020925175
1.424579319973987
1.396106940368008
1.3730249557297771
1.3319643076372987
1.3002384577159298
1.2779185470611694
1.242490439518147
1.2202181555604508
1.18985425396829
1.1887051547606111
1.175439933800123
1.1598207926678066
1.1455209574578673
1.1340896856631322
1.114271661210262
1.095913339853579
1.0729640675182297
1.0512996571778657
1.0277609019860743
0.9900404710038369
1.168527213330752
1.331778228710871
1.3999393121029466
1.4459615194280806
1.4517336196088346
1.424432376781227
1.3886789948142204
1.3518276004671825
1.3177903825432113
1.2878979567294768
1.2590551104236736
1.239722747170195
1.2204971200342611
1.2068056182090958
1.1935286565140568
1.1719720282035588
1.1550477750140837
1.1405543987989595
1.1245805385052183
1.1107494828593882
1.0870389365946445
1.0587233036103434
1.0349492983749806
0.970851363918839
1.1585485023438207
1.3061582730711527
1.362789002084675
1.411830863652162
1.4557011609164192
1.418595589272765
1.4064460621316637
1.3718484349295839
1.3354821897161964
1.317969811175695
1.2879262963425526
1.2629787169923488
1.240921271758058
1.2279812305301152
1.2055273568442681
1.1950519906800066
1.1727328867487916
1.1586086480116427
1.1434987048525411
1.1220083024226086
1.099568994864922
1.0727906132456122
1.0445925342349591
0.906517223405864
1.09892304648624
1.243558396909202
1.3208557440953563
1.3960771087708785
1.4196762040538071
1.4155440383710427
1.41708302574534
1.384770434606808
1.3699376410418118
1.3416152755499131
1.3130504107488028
1.2900248204823959
1.2737611193392002
1.2470275032887517
1.227427582720283
1.2132849908343535
1.2053556978872477
1.179302078452014
1.1596761798798183
1.1424042697718422
1.1187330324345957
1.0921868718508314
1.0636125687476718
0.8683497997785938
1.0417226482175668
1.1698438348309397
1.2506560688397248
1.3393705641035734
1.3856046484374303
1.3993668310546865
1.4043203825703183
1.3921917920843034
1.3853048144039843
1.3549222328409314
1.3337064093889703
1.3199041136556355
1.2979497340952622
1.2828868340494415
1.2535660347569126
1.2437770758519398
1.2286981714713132
1.2121170230528235
1.1851223885326436
1.1659966269150188
1.1425112199777674
1.1168006853950947
1.0862130284215168
0.8230337906332186
0.9956581077656965
1.1223410394186222
1.2258017113148694
1.2943740761804683
1.3484946887854417
1.3678900349452077
1.3939554372237781
1.3934738373533724
1.3959144872176448
1.368561420336471
1.3567533292892027
1.3511159460124018
1.3278727933429828
1.3151258132851618
1.2901818728185956
1.2771118119457112
1.250820937015115
1.2381664956663645
1.2164269230496918
1.195062682535982
1.169231065641922
1.146593174919398
1.1154001580962973
0.7910370471126855
0.9309344841609396
1.0597054868548632
1.1652786888042468
1.2412664413259793
1.308798331464088
1.346099676639407
1.3557826466980936
1.3816124281287276
1.3903252118419163
1.3990519350107458
1.3772856184039155
1.358359436028906
1.3488291462009894
1.332893075892746
1.318252962327321
1.3036408207501853
1.2775077635375136
1.27717566529483
1.2558590659262725
1.224018358261022
1.2125746497479581
1.1807521802338128
1.1488725397391018
0.7387626955936206
0.8691317031816671
0.9980519655287008
1.0913551757707818
1.1956825279690562
1.263325991367319
1.290349470739785
1.3219909608814724
1.368194887475682
1.3530480940451493
1.3787951886805438
1.3875833751133664
1.3777558790884852
1.3657399668382975
1.3465985695693405
1.3538109805483873
1.3297509648393382
1.3156110966242784
1.2936454122256567
1.27929326231469
1.2680940552410707
1.2424617423232016
1.2139492128867067
1.1884150419017045
0.6835738359251042
0.8276994821863634
0.9652628808874086
1.0493632998333409
1.1295489003364347
1.2046088176130938
1.2773131615688276
1.309046218260802
1.339637550320351
1.3564648850832532
1.3693070611925597
1.3780704276981646
1.3767535355599374
1.373456030886873
1.3597186466143303
1.3540054016275358
1.3394879351894942
1.333583557847561
1.321906821697843
1.3078431254481035
1.2903862993192456
1.2656539616229179
1.2568605778875468
1.2293402997839484
0.6319593955853605
0.768762153872181
0.8699915839430704
1.017475577841044
1.0880423870429123
1.178908205532978
1.221755443057804
1.260877459932661
1.3059827911219288
1.3129834721303952
1.3294335107991773
1.3428403344878654
1.3747541673982187
1.370539988778577
1.3837415546956826
1.3724700557120437
1.3533650546377838
1.3419961447796398
1.3322823169509197
1.3311434357860663
1.3051902488022515
1.2932184261781814
1.2674065885321466
1.2510976013497315
0.04338442725036655
0.06161610614431105
0.0905374688462038
0.11625703893021785
0.16846940228231236
0.1740622821059501
0.046786659694373324
0.06097339468970349
0.09177092182074884
0.11214878806536219
0.14222549645592814
0.1556780811873235
0.04733309781467858
0.05925063903720412
0.08663335622573176
0.10519343208034865
0.12315589238743571
0.11408825976161524
0.047306308735711844
0.06078072916316486
0.07848610873402614
0.08841738159150905
0.09131847448686733
0.10738350072073893
0.04438672682003619
0.057851048681536454
0.06673039149321183
0.07959897951306225
0.08387113112840142
0.08902704993879812
0.04617733290386558
0.052985535710856846
0.06419679169662615
0.06724328534716228
0.06812989926218604
0.0728087699532779
0.041170811840272784
0.04435150346938174
0.06279861055419597
0.0569103750065304
0.06116080796818685
0.059883481173998776
0.04271576605087156
0.055156290289333776
0.0494056911159777
0.05030928388729472
0.05765907114157204
0.03934914832374298
0.044787632616996115
0.044911255404924744
0.04904706611295501
0.055737777621750306
0.04444643863356773
0.03914498728280735
0.04593263125810573
0.042670262588697216
0.05203633372195432
0.04545613162122314
0.04082402493385873
0.03552979845099291
0.0469613628407054
0.047557621257377225
0.04509091290963921
0.055037125979550544
0.047589736481359834
0.07101867946487117
0.04969799687947504
0.04589383985132478
0.04935190133651879
0.06664012385683626
0.06632376177784172
0.06615976233677112
0.04891576873152981
0.0536807858926531
0.06015556359598517
0.06595366663561131
0.08554168090675551
0.0758201006496187
0.04617601657152057
0.06165148984981461
0.06399961811565566
0.07486359265178896
0.07615748034505354
0.10014524015452753
0.04959912779713463
0.05600709044344132
0.07337014950359191
0.08845625691521888
0.07233488008008526
0.08826365622805743
0.04400436271995481
0.059096092198026307
0.07876575118728385
0.08436481788765585
0.11027055717684031
0.1151688213133828
0.0567374111521919
0.06385162923822205
0.08263398637550887
0.10672542088618894
0.10632729948761119
0.10629021878348605
0.045375147624017065
0.06302520335244499
0.07654854808594547
0.09829034396582301
0.09903801409312352
0.09694596934032818
0.04412507829924309
0.06110547559308874
0.0839671210471592
0.10328452215141945
0.11546944032499076
0.1191617426697163
0.042051299791897645
0.06517543123456866
0.09244907831909513
0.106351266566173
0.11280053147617
0.11074545632554811
0.04227876129043992
0.06510596396572257
0.09041802536757026
0.11149148733793332
0.13785359775771544
0.12547483050497316
0.03923443453848184
0.06378050732304434
0.09117557298638962
0.11609049371802468
0.12782775339315844
0.11925520674987311
0.03578722842653411
0.06620722538070438
0.09554360110727034
0.11885179402701765
0.13713641762499282
0.1293336671641505
0.0382809283572883
0.058529385197856394
0.08328981306630659
0.1175453025932279
0.13725904392959465
0.13662410023047733
0.44495756769596223
0.7051872114385271
0.8374892804006747
0.9457341719193805
1.0236695439426182
1.107826043108786
1.175205604823486
1.2124560041370565
1.2342861764380664
1.2810751033043362
1.3016289134459527
1.3553688774255914
1.3469222670992191
1.3592616000037965
1.3653482679222182
1.3531193724760615
1.3536700303188427
1.3344231859379767
1.3218472085255424
1.3158288653778913
1.3005112117267643
1.30029818268709
1.2874616339158849
1.2637071289542665
0.2710514636311641
0.5695220720829545
0.7447496017233959
0.8695405806722192
0.956885607992547
1.0536640435376021
1.1276145959282113
1.1533158982774698
1.2098225437920522
1.2353414821369757
1.2911114308155294
1.2647587183729816
1.3136762335892118
1.3176816716505102
1.3242987580582597
1.318892423531853
1.3180135722383484
1.3186720043413949
1.3120055217331195
1.3106144851624864
1.300809862413253
1.2841139254086125
1.2610561931065674
1.26235157948308
0.17814100555528672
0.41057474895501955
0.6127448089489769
0.7630793030783606
0.85288806867393
0.9565871567084121
1.0194586698299952
1.062668676044299
1.1324093532373491
1.1708292240341511
1.2099786399930985
1.2269973602649038
1.2353361556022102
1.266097382030149
1.2658107071251274
1.260719629349462
1.2706354331012872
1.2574672832181322
1.2619866327683351
1.2647121681101634
1.2545532360752265
1.235111454154942
1.2481926968754293
1.2382909072862618
0.1447593089986393
0.29760327226382033
0.45758315620746814
0.6127163023891489
0.7175076549706778
0.8193032914879155
0.8909235041185276
0.9862651108316354
1.0201986978909348
1.0696710291337808
1.1093442794623043
1.1630451834461069
1.1591252160445071
1.165358429216135
1.1699517725676734
1.1702307743363016
1.1844366620326774
1.1737149468990031
1.2149322681279529
1.2019862683038895
1.1913861741253076
1.1822152515881597
1.1681159961186733
1.1738825168533795
0.10798353289094526
0.22905986494416236
0.34915816944644074
0.4754908329405268
0.5679955792984025
0.6852246009198475
0.7592142976957584
0.8506719256755374
0.909955191592371
0.9434357842312304
0.9606351102574494
1.0108933381774798
1.0161403684205939
1.0428515460479906
1.0632064796896938
1.0593796943837186
1.0733316500460135
1.089455364070971
1.1033922269799414
1.0996662138949058
1.08779128428201
1.102359364613469
1.0795259410289002
1.0998214008735954
0.08486047841296301
0.188469717066783
0.25643469933398627
0.3575186606573458
0.4776864882278872
0.5609127129450806
0.6371802092256711
0.7010064511818942
0.7450733135845746
0.7719152799661898
0.8111598355995127
0.8535619675540297
0.8893932797010426
0.9045673878019259
0.914933354182014
0.9375468346668495
0.9602424730410535
0.9546137499606131
0.9946173646066965
0.985065982212291
1.0034257068161438
0.9909701534286278
0.9993037184193778
1.0090357031600738
0.05584584648906871
0.1439932777480072
0.19377797556923276
0.2795409745298566
0.4029998590210669
0.42825891541370276
0.4950761915778032
0.5445455848937562
0.5771914670660762
0.6231225226450742
0.6450022816352632
0.6841996037695781
0.7178238170749259
0.7386174067269491
0.7595415670053741
0.8097917780392019
0.8087175981299847
0.8271090905694218
0.8511233764691034
0.8632023871705397
0.8816460151028416
0.9013846939212167
0.9119564135510726
0.931202034390013
0.05527652656299237
0.08143176230802857
0.1320650636918917
0.209742683989608
0.2608942624812255
0.3037630127892825
0.3292277864810085
0.3724120735999563
0.42649068684711133
0.45841716772491126
0.47150246814024677
0.5546751224231191
0.5570689820682314
0.5894826876594819
0.640316002790581
0.6548623651395635
0.6902260581862838
0.7137903728705974
0.736951203207674
0.7635363214179205
0.7929458464466471
0.8032531949573571
0.8266854746336355
0.8388910223614955
0.030533058720725093
0.07705205924993236
0.08347504394166372
0.14058824847433615
0.16397808348236986
0.1964526639128903
0.2515859526762748
0.240864386525787
0.24710494143848571
0.34062820361986146
0.3733069356814057
0.39591174762120507
0.4403053808988945
0.48332290256326516
0.5336479285729065
0.5581073847770179
0.5955646080296406
0.6129918671497967
0.6561672378275969
0.6778139588761489
0.7060081169301349
0.7349102276953627
0.7502732772443786
0.7832600025507763
0.05594555741142526
0.052272330246983634
0.06540788707406697
0.08921506731763718
0.09170536883158453
0.11262871979791422
0.08964041846351212
0.12724836675092277
0.15399829762616912
0.18618692482311716
0.2583680901880119
0.30915625992514584
0.38381921839799293
0.4221390105289182
0.41098097893056773
0.46331705251736455
0.5294253784992532
0.5525404230365283
0.5899598448306438
0.6247717939914416
0.6444626093135442
0.6925400980976983
0.710072887956166
0.7453976909335559
0.06634585057824344
0.05862220055568629
0.07113837505937037
0.08694429901919232
0.0755081581331225
0.059115555150091814
0.026354691134425345
0.0930534933990611
0.11190719345898081
0.1502580100612667
0.18195874418428692
0.25535600577341255
0.2973843978879779
0.34785506508172603
0.4131730590654976
0.4320466206105069
0.4897046703829151
0.5144678519009848
0.5533960635718074
0.5953872592378895
0.6305010334169339
0.6644130620383335
0.6977026846360619
0.7157433474673349
0.07093199023034014
0.05387873887258254
0.07926388015751906
0.019401163112507946
0.009955973192275258
0.039200326789966655
-0.0037778653560752717
0.041365286123959844
0.07820790400267408
0.10384845680199184
0.1987893506234636
0.2628562476213435
0.26264726754704404
0.33008876198381953
0.37070870518306387
0.42161761095026207
0.45446223704442423
0.5082029010779919
0.5656777304792663
0.5957890086741646
0.639763159859156
0.6512089873313482
0.7015265166281887
0.7248238379904696
0.07754417060167335
0.07199140937004739
0.08163974731948886
0.06043851223188923
0.04834233166029511
0.0038887355668209
-0.016476497915974497
0.05198270878799971
0.0971996478832361
0.11027666137466552
0.22354436548124346
0.21950194892012664
0.3170310189094112
0.36247939676792174
0.3874197981210369
0.47977976308948256
0.5023991382840747
0.565167613352026
0.5844647652727788
0.6218691827259863
0.6630779280085208
0.6998759426524979
0.7446427925021707
0.7569012293071207
0.10402152321855113
0.0816854298233205
0.05931824072053471
0.028547308680460626
-0.033308410796065724
-0.014225754194121976
0.0449974055560598
0.03390923154402059
0.11698926929191555
0.1415696466746087
0.17157924435225358
0.2538250857370332
0.3412704127775218
0.4018764208947213
0.4439606787476972
0.4916927801022471
0.5261051831125045
0.5909612670062994
0.6469709322209618
0.6921753955431672
0.70338432980077
0.742284830014041
0.7725131099789049
0.8134231607880611
0.07838456183831599
0.08403928295414331
0.07386258765614873
0.03956257732769808
0.02374779653277559
-0.001287927812941736
0.03191648253140533
0.0955974258917599
0.13978506532578094
0.1998496924810057
0.2530949465939284
0.28508361093770096
0.37693297512765855
0.44400529390811694
0.4972019091730187
0.5520673611644489
0.6060640740606509
0.6666321818976617
0.7057369852684225
0.7515290317624024
0.7545840277967264
0.7946781732538873
0.8220972103949181
0.8642263263160561
0.07481376441014653
0.11292812135283442
0.10108135471226376
0.01714286422038791
0.029870236327867672
0.04074639944753333
0.10506942975894074
0.14267431438654565
0.19546761711890603
0.3005567270916151
0.3588672659568317
0.41309994956733065
0.48302179496914033
0.5175763011605582
0.5844287450451722
0.6513942297209467
0.7083958434456239
0.7549522272341331
0.769093150870233
0.805706155233437
0.8338830115376491
0.8719406039285986
0.8935884793323262
0.9233100743397669
0.1013771407205496
0.11438283051211312
0.07867047598336097
0.013382468330186414
0.07476239452125955
0.14491696651061703
0.14298263564052882
0.19902612796444163
0.31862251647766904
0.3608914291765858
0.4282999251545041
0.48514270497815776
0.5546859035173624
0.6423110982652684
0.6718519060932382
0.7294707144852859
0.7930869595508803
0.8283827287463454
0.862843058307134
0.8740356635652299
0.9080807838935901
0.9338024980715272
0.9566980920676539
0.9669269818547492
0.09079904966637398
0.08590889274235836
0.06367618066689229
0.0870471711151779
0.10464050176024897
0.13067356326533264
0.22208372807218546
0.28861706578096735
0.37896535207846915
0.4379963792292719
0.5307068285895
0.5807990697339723
0.6789748027144037
0.7211266920716597
0.772585025787637
0.7962385880613961
0.8576728705324923
0.8947621475662291
0.9248730492580546
0.9540274826534425
0.9734341850613588
0.986919503358948
1.0084055876073326
1.023186260893362
0.13092269553921615
0.12813730744668894
0.10869589326250328
0.09044006737318899
0.1889752885264382
0.21621736975829986
0.3554932632564325
0.38665329938278625
0.4920088107150894
0.5638811546679179
0.631248540045527
0.7254438083754041
0.765109363668643
0.8169467463294706
0.8795969572878778
0.9051656315326704
0.9449276793385465
0.9887861542199424
0.9986304608795599
1.022529294844925
1.0373852347277561
1.0513509678220658
1.0527014774269947
1.0665889384347909
0.12728640397283408
0.13233429235498317
0.1437209116600835
0.15518303083547746
0.28329741420836885
0.3503176348415543
0.40207738240402346
0.5063088879750042
0.5924453901483453
0.6658895050406413
0.73630837207733
0.8199709736404543
0.8513811952756662
0.9146940344900927
0.9605030013227777
1.0081325270886672
1.032190388195639
1.0426187768947865
1.0556649144694588
1.078123977017487
1.0715206701498508
1.0981991511382068
1.0925404474716334
1.098886348679987
0.12112885126535694
0.13428061691683235
0.1611506026144217
0.23056270095659215
0.3621683882575414
0.4199150366490959
0.5048281175416864
0.594453335051274
0.6680434532012242
0.7781493014654657
0.8623853364718865
0.9222321068590523
0.9691933306829792
1.0066557884552998
1.056777743849493
1.0697489228883088
1.0970116680530495
1.1019783030782917
1.1053605883545718
1.1251042874733617
1.1279937102098185
1.1209428159102661
1.1284094431848268
1.122679891970334
0.13899072546443247
0.1704502213917939
0.21514413163352508
0.2804677313648193
0.398839962757382
0.5152055132407201
0.6147324685138107
0.7076980672779014
0.7942918330322246
0.881772843618075
0.9622916787527032
1.0137781170963516
1.0558038104447103
1.0743623898917862
1.1090291411635156
1.1331696237657873
1.141115424498898
1.1520216473190752
1.1451485231133878
1.1538592771727938
1.1553684741289043
1.1500484125032258
1.1423814994290171
1.1391876172121629
0.16508538684809781
0.18405544837973886
0.28816301323693305
0.3397403491538956
0.4754366505306155
0.6201635694254923
0.6843391455312893
0.8155268860268083
0.9101866405909776
1.0014122838403288
1.0460934083098061
1.0987181173172982
1.130993914313113
1.1486957130245168
1.175270141264047
1.1893938843227363
1.1792005719170369
1.187243844937833
1.1907829063547264
1.1790724136877242
1.1816787883905684
1.173832074729423
1.1529654998376526
1.1447926238417343
0.17222581896338995
0.24827966223762166
0.33177349377236953
0.44917286848762883
0.5509983306378491
0.6977351516938992
0.8048149271232542
0.9193694790044566
1.0258428841438976
1.0765537055868595
1.1333831675558717
1.1717274898358767
1.1887942010013688
1.2028478834506056
1.2180314018331215
1.2210144036070159
1.2251528698682457
1.218619722974639
1.2095623542234422
1.203092160271483
1.1931400110580592
1.1839853732421841
1.168395284356833
1.1428475568622065
0.10223378222022136
0.2911682651636905
0.39674033378705154
0.362890758512393
0.31602562371260473
0.22600572395573834
0.17431379641606662
0.3559240110970633
0.3939515703154116
0.34113164447151334
0.27873676225530253
0.23292706648767472
0.22067851768526503
0.36340332744280257
0.3761039993632558
0.30901312325784625
0.25314497132448266
0.240439806514648
0.2602658331436847
0.3679882574249661
0.3349893910598326
0.2796156387877341
0.252752075211229
0.2637423865638452
0.2935306968516115
0.3594535419038025
0.3171074998715803
0.2613274680681963
0.24096272310630695
0.27568345481167383
0.3254432226346167
0.34748242534819934
0.2973073173821336
0.24129791706554238
0.23058931053659507
0.2944951820390406
0.3502306905176593
0.343839433150724
0.27658017295982257
0.22748971928982292
0.22613670147949252
0.30468246391745196
0.3562189678081923
0.335669240717502
0.2621580930052266
0.21308119749370108
0.22522407931807328
0.29483968990105586
0.38483655685116713
0.3342872072159282
0.2521950738941111
0.20173039101636564
0.2137198818737738
0.314432995642953
0.40080129786448965
0.34387613245788584
0.24368061086862386
0.18983738063709577
0.21210319667768585
0.30624019523963364
0.4101192974282649
0.3299665959933469
0.23223734619900832
0.18493511574705707
0.2079203745711766
0.3386576842674291
0.4209775243380566
0.3215517293835082
0.23030862049731618
0.17982228807152245
0.21748883860246412
0.3456495716155259
0.4214884948737068
0.32452577855183107
0.22978181456086072
0.17853768255493874
0.21262408200659488
0.3774268835610495
0.4101501853147532
0.3190326721879296
0.23576739398559873
0.1781280383118798
0.22621926628508338
0.39488864448412114
0.40607346750030904
0.3379618188335177
0.2401758510715552
0.18310496325576744
0.22547582505984695
0.38387928307081215
0.3874265340993961
0.33224076707178146
0.25367695341602436
0.18628640690563888
0.23215042060381247