/*--------------------------------*- C++ -*----------------------------------*  =========                 |
  \      /  F ield         | OpenFOAM: The Open Source CFD Toolbox
   \    /   O peration     | Website:  https://openfoam.org
    \  /    A nd           | Version:  11
     \/     M anipulation  |
\*---------------------------------------------------------------------------*/
FoamFile
{
    format      ascii;
    class       volScalarField;
    object      U;
}
// * * * * * * * * * * * * * * * * * * * * * * * * * * * * * * * * * * * * * //

dimensions      [0 1 -1 0 0 0 0];

internalField   nonuniform List<scalar> 
2880
( 
0.07011642402939058
0.262795469221829
0.4831031137356868
0.4892391906288804
0.5119160498323237
0.056754118675646614
0.14402440071304512
0.37342690023232505
0.4807894936018935
0.5014650494675489
0.46912081350657725
0.20348151333324738
0.19770917003377209
0.41708035288379014
0.4933018862572239
0.4508915749471645
0.43114640291529127
0.2840983463854931
0.23410660481939582
0.4370940572094958
0.4678328890772961
0.4675005939516984
0.43244223386685565
0.3457080391440692
0.286952445165904
0.41834033162087936
0.4726985685954098
0.4526521179024461
0.4300637660641251
0.3911164588819537
0.3164335812746758
0.41900363834058496
0.4541958391194283
0.45275456614245013
0.45008578325698584
0.42362931385471914
0.33782423252824856
0.458552559361849
0.45015359592611276
0.4591898646326174
0.4463667825711145
0.4533405866595714
0.3857626226887153
0.4179763901225149
0.46411414682111946
0.47333400639876744
0.46818814555307986
0.4788170966962487
0.3875841646514943
0.457342325466099
0.47235561109961144
0.49299267737495994
0.4888262450590827
0.5281016451519704
0.4028899228741085
0.43180646633682707
0.47731271297648453
0.4891937223572186
0.5389374540496968
0.563098515208118
0.4339404830668695
0.45511630085804444
0.48239718681213056
0.5053101222212424
0.5417997593799679
0.5797911260532254
0.46247685359498103
0.4582182358954945
0.5060848984913167
0.5428205281967522
0.5535371912462232
0.6136469136171763
0.4374944253281432
0.4675094343879454
0.4976907830252739
0.560415040116059
0.6063392607442575
0.6532873005419777
0.4321702617514803
0.4322270206820614
0.5244116090889851
0.5727210326146592
0.6247148244010321
0.6936098029357581
0.4311435650898606
0.4530708056621915
0.5443638708472696
0.5679592734879402
0.6222406913022551
0.7078503255018169
0.39780192998757324
0.45871360177249626
0.5180972842483602
0.5971458003258517
0.6904356437465388
0.7621941838172082
0.39334538295858956
0.4734157347833844
0.5341832407700038
0.6140298717393069
0.723381590985275
0.8164669899200692
0.35425775282729904
0.44478637080274486
0.5353341999359922
0.6248367134754049
0.7152494855964215
0.8093424500290167
0.36332111780902
0.42138225378743116
0.5629461812352203
0.6117644465759833
0.7543406806036924
0.8392820171595178
0.2951037565006197
0.4348589535912414
0.5507145867179964
0.6333282386269408
0.7751995399887575
0.9073077761249447
0.24802056062302352
0.4076512108304681
0.5328907884150424
0.6312717504968597
0.7635502462207335
0.9027692703360403
0.2110886770856846
0.3809576310458135
0.4752843561575633
0.6047925945603279
0.7592973792347577
0.9345376080705449
0.15807048081138103
0.3282205445261529
0.45575680691157483
0.5836953914286775
0.7440863843152722
1.0037110040650343
0.08128484568818536
0.2303094566094343
0.3758254578514803
0.5093001063158072
0.6354940960195247
1.111544651920969
0.35034673561453433
0.5802271914602225
0.6398974785431749
0.6809583377229408
0.7237017242043371
0.7648657988737944
0.7984244825673061
0.8222081375385698
0.8538532251176751
0.8879367214607524
0.9051718606121704
0.9367207598541053
0.9441342704894984
0.9681521965048695
0.9669221895029931
0.9907608265817408
0.9922546516287073
1.0021965280373173
1.0129110777035573
1.0123001736331358
1.0151575315762784
1.0172429820586852
1.0204120150593206
1.0243411718713686
0.3634315104089836
0.5639194821531861
0.6501080500306707
0.6861386582809135
0.7505697310874391
0.7827876082755236
0.8073577246125432
0.8442863811055576
0.8696387767518087
0.9116000703366539
0.9240327520726128
0.9422928403104607
0.969820905271984
0.9737828162468629
0.9854567624757673
0.9912789809233569
0.9953401215984028
1.0048725040765722
1.012584136386059
1.012228027964121
1.0094615072315523
1.017244090053686
1.0199134324533656
1.0296536416276636
0.39634178186124336
0.5553874901350278
0.6567207089799125
0.7065727427265303
0.7566128632492225
0.7828794989372116
0.8402514297838706
0.8568415019091129
0.8928085183738107
0.9169406281635274
0.9543674336481195
0.9695864249601136
0.969322852595788
0.9882813987790413
0.9991005591096107
1.000149417635716
1.007406648726513
1.0089572597955219
1.013749402945466
1.0222321369623069
1.0153743886983837
1.0219783832993805
1.0228790467645328
1.0253505917025836
0.40389489089819025
0.5506829031097141
0.644613546045061
0.7208607820046932
0.7638188099310859
0.8121195794528189
0.8448319979819234
0.9008701709875636
0.9187141405716881
0.9291978867626689
0.9569258696386482
0.9767913949131345
0.993890904368049
1.002990672743169
1.004640908055181
1.005043754543938
1.0011072852730767
1.0102603618088062
1.0246415200944596
1.0240262411139949
1.017819038954801
1.022201687516123
1.020202929953046
1.0188859784098212
0.4352076323573996
0.5756919275222014
0.6605699773761613
0.7302526362151742
0.7661168530144162
0.8345584811806069
0.8553286603827137
0.8944404891158636
0.9291705100904295
0.9478840819461329
0.9883104042268616
0.9888820606573545
0.9904191056601918
1.0034376101468672
1.0277883041826792
1.012727542526669
1.015549821590586
1.0281061735613963
1.0185172670553941
1.0206459333646378
1.0169702329221797
1.020265770203207
1.0208445853558266
1.0187873685757232
0.47447772805521693
0.5772672329063165
0.6626820895381133
0.7399046618939339
0.781011042376276
0.8306037088206184
0.8841485803122688
0.9178582115245641
0.9399795586814148
0.9648418871011253
0.9888763873108909
0.9944824316888677
1.0128859948931677
1.0114649522050023
1.0146094271249844
1.0209344164549226
1.0241596840601062
1.0242059129494734
1.0291081567820453
1.0256677301446444
1.0269214771324724
1.0158317502705516
1.017747427596348
1.014594707873427
0.5100872856802859
0.5917185397412551
0.6678907521074345
0.7527378419303332
0.8121120785468026
0.8492339914090886
0.8965970940468299
0.9376804796181617
0.9632116167023326
0.9750393076748471
0.9944333165641182
0.9963570283082188
1.0097277428843894
1.0195000571669348
1.0264049029724922
1.0256033434106342
1.031115478118203
1.020677151392989
1.0203273832102295
1.0224138625390267
1.0219727961734126
1.016668431409119
1.0166073656203058
1.0130397758820107
0.5331015966640146
0.6274519227355644
0.6902544421750224
0.7421098901012121
0.8214568069248597
0.8723773015082515
0.9219002135243725
0.9343975918916693
0.9768781495431248
0.9900604917722529
0.9961538754661436
1.0008872170851397
1.021928405755647
1.0243779189177074
1.017460663550931
1.030716619228849
1.0346761712720662
1.0228076460103352
1.031904836374985
1.0286635068857222
1.019423813761957
1.013700083893571
1.0135479179073716
1.0079218805341694
0.5765182432444884
0.6495254036496447
0.7021527603665274
0.7863640109276085
0.8308161903634719
0.8884910341098682
0.9269797267527857
0.9746840980086134
0.9795992257515654
0.9811546785427645
1.0253607594345584
1.01655504317792
1.0444618250441353
1.0257590079441763
1.0260259479468345
1.0220636380275225
1.030969774647128
1.0286600126066603
1.0284934402776398
1.0271462924036303
1.0198572447638363
1.0158173475022416
1.013462722916878
1.0062086061338649
0.6150772014477676
0.6917525642592885
0.7417852379694051
0.8073206717910539
0.8782337961473473
0.9128105499333828
0.961567202825127
0.9779107674116831
1.0008751284350896
1.0141992186898603
1.0085823491886572
1.021843520980816
1.029114529837119
1.0311254583388663
1.0365951565044986
1.0366105039611158
1.0289166813574566
1.0309843779528862
1.028322709380729
1.025837945439216
1.0238464103025384
1.0166937795246374
1.0114111883122425
1.005469900279104
0.635351788579372
0.7014120793063925
0.7682142960886308
0.842405703000516
0.8758030200061577
0.9381844634080484
0.9689721185797979
0.9836591202234412
0.9940697959499464
1.0184746976002295
1.0418714553083106
1.0351934162632783
1.0317336625875868
1.0436567522392013
1.0356724853518153
1.0326936943474128
1.041077525867556
1.035145855433501
1.0353500533241786
1.0254120857232296
1.026676280078584
1.0219954111783134
1.0137436541180516
1.0061602833537409
0.6831877563925445
0.7452286964617775
0.8011228257645775
0.8726128982525729
0.9166726193123258
0.9564373632336252
1.0094396433853985
1.0130095962796068
1.0072250699836418
1.046911356894843
1.0415298781352644
1.0429634190239077
1.0470101804446004
1.0534022760563369
1.053101496662027
1.0491432711627107
1.0405079404575768
1.0450235453066734
1.036633714291755
1.0403870120532965
1.0308182771066758
1.02521776816893
1.0141700728167449
1.0071600056912924
0.7056865405578615
0.7526820745041091
0.8211568069456276
0.8829232620414832
0.9555431130610188
0.9775612592002739
1.0502925220419408
1.031120651262014
1.0291810449672507
1.0488947939481095
1.0458791405519874
1.0569393659945618
1.0554618707951318
1.0470691098279512
1.0517484707827771
1.0520376637123656
1.0517732709373733
1.0496902253434426
1.043922904873578
1.0375796124179693
1.0356168690488154
1.0279460673610645
1.0207664116768747
1.0088869048127131
0.750517126488486
0.8110161691899147
0.8745390656702299
0.9367418549907444
1.0014157237343442
1.011309371347003
1.0412776679585267
1.0458028691798134
1.075805581287787
1.0519438231070237
1.0670551531027948
1.075539115821401
1.0695782052598755
1.065593687459515
1.0816449925565361
1.0709110217109836
1.0620754840795843
1.0611269789856983
1.056825279058785
1.0477201277906616
1.0463212151240087
1.0385111197232548
1.0248584935898408
1.0141145206129958
0.7699291955978151
0.8596890510963513
0.8975178851247094
0.9770589285983942
1.004711886249451
1.0369761334189487
1.0556196098325241
1.0774665750676913
1.0767074242069952
1.0836866392874318
1.103517377374905
1.095294447065397
1.0898389839897875
1.0725049562265827
1.0865773821258855
1.0817065626461853
1.0741358037789404
1.0715484486824185
1.0691745703420015
1.063138954174073
1.0504126634228208
1.0446911677936237
1.0323789231564708
1.0169393021883242
0.8358020273307316
0.9050970033704919
0.9691712442176363
1.0194019755779506
1.0817076518526592
1.0753875397255122
1.0703366283436078
1.1016226573879557
1.086615352414271
1.108496535350746
1.1036516385381203
1.1089679902771354
1.104691180402116
1.08314897998116
1.091944792203833
1.0944544694462397
1.0803273327823195
1.0814199064983663
1.069656326997019
1.0647642337993775
1.0596537137911457
1.046794829494953
1.0386165172931183
1.0198813427469646
0.8586385460674418
0.957025366753824
1.0117271564824255
1.0651071287175533
1.115651101490376
1.1192202183567783
1.1225711618619159
1.1291605709850345
1.1241763108491234
1.1220362610286383
1.1237620714173533
1.1245941894759952
1.1183179492504727
1.1184099146755981
1.1212128262117849
1.1044697022697634
1.094496568446516
1.0993767670036974
1.0955445032511755
1.0755556251997014
1.064967686165628
1.057564335188758
1.0354359500308348
1.0192235834831391
0.9182974163387486
1.0297940723549233
1.076109417965636
1.1176467833162214
1.127436591725056
1.1456939471188876
1.1412022003554052
1.134313269851801
1.1385052989872744
1.152983206674595
1.1459315890614186
1.1413841425372322
1.1391951452135454
1.1284809056427614
1.1190537054611018
1.1223214459242237
1.1116381962894657
1.1219367887517109
1.1109713093754394
1.0869249400376906
1.0885611604591603
1.0699730775985916
1.0431686276343939
1.0206870834911492
0.9890446680094949
1.0662749801845437
1.1081137438508735
1.148620302269542
1.1534787335469654
1.1695593804045863
1.173934489608049
1.167098650100292
1.1710802769083057
1.165582504646481
1.1843771306549666
1.1616922268348686
1.1470911406922764
1.1540143208455604
1.1430020698882863
1.1436996156849824
1.1318471732994264
1.1307427511739894
1.1147046573897303
1.0968484912495173
1.092641949758349
1.0720886100517222
1.0470250666008776
1.0250071388834172
1.023130651022789
1.1535279937421696
1.1912685258992481
1.2240136892422466
1.2230585782191588
1.1901765905970436
1.1970678696223513
1.1925605633479188
1.1951745223643655
1.1812742470135427
1.1825458449045492
1.175913625386941
1.183719845934156
1.1732816067184688
1.1737221003841016
1.1598534200568227
1.1531805178602967
1.1439392531145058
1.1281046615261832
1.1237577715202374
1.0949872462033237
1.084764528552984
1.0546926024862548
1.0291016406106002
1.0866392794222501
1.1968228683004598
1.239357117494169
1.254438733293661
1.237941288207931
1.2389982900649383
1.2186314857489569
1.2367751622420928
1.2172602775035484
1.2118511794549245
1.206200258410028
1.2137132219759028
1.2028183429797337
1.1898634757362403
1.1905411632165044
1.1813741849168617
1.1646558570812
1.1552215251988696
1.137371966055651
1.1200196892063057
1.1064026399296885
1.0849242142737527
1.0635233794292835
1.0302387735602305
1.134653295291173
1.246477865927865
1.306546663202005
1.307159122079188
1.2964360873712486
1.302738953900702
1.25467634101824
1.2475678302056854
1.243026198467312
1.2354670033863464
1.2413970538490757
1.2175040359847453
1.2287208700593892
1.2142094213680075
1.1989692980380164
1.191969398500817
1.1787290674216613
1.1738932906708746
1.163569814330727
1.138436077205709
1.120150693360273
1.0902853243084702
1.0691504087414951
1.0379053852955733
1.2478704676484567
1.325802378171897
1.3271617568887952
1.3697082475172229
1.353860769913896
1.316947659772565
1.3167012033144632
1.2681448025648572
1.2589588651705972
1.2734557723486737
1.2434259569471118
1.2458169230935119
1.2466510600131666
1.2460821494980678
1.238899324737812
1.2168086027685896
1.1957353461514522
1.1834355204940512
1.1782442497492156
1.1400092684517624
1.123536028423903
1.1091776418110448
1.0724095319916767
1.0383534618999932
1.304928035962914
1.3407039542754136
1.3499612891822959
1.4128136542650627
1.3851405183327152
1.3661367874805026
1.362794773078683
1.3338794712970288
1.284164602468464
1.2871531913791303
1.2845125147501526
1.2673340818374423
1.2530354131634087
1.2603883951985777
1.2436206060589132
1.2271279179686687
1.2080617862127137
1.201788882525219
1.1848874883567753
1.156646440299089
1.1386018585587658
1.1073825285131538
1.075546198268916
1.0443550534005697
0.09995113151134485
0.1963575638123305
0.39507269400438727
0.45834233332227564
0.48807157747489915
0.21010859125743103
0.16876060921824654
0.28746606518342604
0.4304110900410819
0.4885782425820509
0.4875125204116872
0.19934447056425164
0.1920266462682651
0.31551240018391213
0.4188548045554351
0.4360552821497716
0.408526713438749
0.14170396418624426
0.2136890034687766
0.31082265736045417
0.3653965735868055
0.37414029315192576
0.30031090652749165
0.085028061299324
0.2238503740622638
0.3045167570458682
0.347679208565179
0.3141590542296085
0.20138196926283244
0.039021264549723655
0.24397272938906528
0.3096113653985455
0.3147863961247107
0.24430667390495303
0.12417634732640129
0.02787540339722966
0.28112300621130304
0.3032292622771217
0.2780013913490845
0.17728941942710713
0.03652020084554891
-0.02069856670069614
0.2847029505972294
0.2800961408737281
0.24828767848275923
0.1240108282562915
0.013009144990736687
-0.05787115069264537
0.28265970019308484
0.273094708434641
0.20080839484116053
0.09003150244350985
-0.07343723738309965
-0.07825905832656582
0.29007116766619234
0.25926998542445306
0.19052756619158878
0.05210931605488078
-0.06231378049475922
-0.12312804539533984
0.2935538788626347
0.2570553584264782
0.17488929221114663
0.07280704950499794
-0.08371103734089425
-0.11787971676765463
0.29998863264326836
0.25982588562304937
0.16378222383500468
0.05065559255143473
-0.12339525726717099
-0.08980610405809225
0.2898740040348704
0.2683166776017303
0.17886346663504665
-0.001523660400819804
-0.07669305334010973
-0.09472191094191057
0.2694816971887868
0.25776036336963126
0.18050619997557182
0.07512183372401599
-0.03745889303632849
-0.1027147944737753
0.2737773498788397
0.2672863124000766
0.19388498772119372
0.09131796640084422
-0.022080377998670575
-0.09300900159364267
0.2598654683720468
0.2580008333514133
0.20428538648074362
0.13034521217865416
-0.01789915182970314
0.04796562572845642
0.237641530532775
0.2560466972705593
0.2283030766257486
0.13409244663808356
0.07388503977133964
0.07797360529231795
0.2252994753030541
0.2590786046173793
0.23885404614183986
0.20631844690809922
0.1611140266119713
0.06922662358637022
0.2012050379212421
0.2547103392792853
0.24959377546973732
0.2232778596908443
0.18703393735043583
0.12884522217781963
0.18137050773867883
0.24548460451364318
0.26866510559009343
0.23469347049703898
0.19786886612356075
0.14768631378536484
0.1507006142689374
0.236728458012348
0.26838211019549185
0.2694898071072702
0.260753131092349
0.18119284615398934
0.12772383106319077
0.21766960760642276
0.2686028176383245
0.2778173270614976
0.2382597772755425
0.2492891907180861
0.09954313492619044
0.21010184123535072
0.2841433761811287
0.2673153436021772
0.2548734677324005
0.22904492904417523
0.06479506446495491
0.1698062223953076
0.2529817263950016
0.23998101214916617
0.22673580251914852
0.1964743427980008
1.1104276195038425
1.294928923365383
1.4158082868930268
1.4522463591401564
1.411916328951697
1.4287151840961543
1.3823955737381408
1.3419374524587182
1.3217034229335825
1.3434179699212088
1.3037953530139783
1.2877727889311146
1.2916181847805401
1.2787222338256223
1.2592487310771723
1.2506235127061855
1.228020377937405
1.2146352509804719
1.1955569796441354
1.1639706655824014
1.1324198120989801
1.119123971684473
1.0934421757676511
1.0501403728049268
0.7694743891449837
1.2411647819195313
1.4150606330432383
1.4369406299703897
1.4416420973061606
1.471052433423235
1.3801392970771513
1.3778061054966018
1.367711512037509
1.3294632271415963
1.3424716078793333
1.3306546112228432
1.3136528760878148
1.3031696013544585
1.2756424038624754
1.2635230496234433
1.246898937997924
1.2252403366526405
1.2004600781884198
1.1824530484082512
1.1474615946462543
1.118795833473638
1.0965192448325287
1.063066085001731
0.48660296231783756
1.1243279996848892
1.3560391629656177
1.452210764543372
1.5037119358214208
1.4445265877658053
1.4152278965819405
1.4111518466335249
1.4093418457155453
1.393419704479502
1.3658931938137793
1.3754868612843407
1.327052297368716
1.3044929223836523
1.2939798873355293
1.2717989358591995
1.2709470947833248
1.24918483100457
1.2139608684068748
1.1955345642613264
1.1683867633162892
1.135825701279511
1.101511831395733
1.0650199133493312
0.3063694298566728
1.0019390505236707
1.274860024314418
1.3919697912645925
1.5273219234825621
1.5005716334517705
1.443457522106354
1.4344254860123042
1.4364413331651986
1.4113383100192078
1.3603008667155405
1.3588256831290357
1.35212303012318
1.3172443359492183
1.3195600645596701
1.2803110548409484
1.2721703204933987
1.2494467752969067
1.2292797271456057
1.2037356260331713
1.1731362736808217
1.148020869913293
1.1115959684519465
1.0742629032900348
0.3096832533069653
0.8746303273812206
1.1914355252164877
1.372629153552887
1.486607699687701
1.506931803804732
1.4799405242488075
1.456925770801528
1.4717200040719391
1.4133218776158651
1.4106207234598598
1.386244129254699
1.3713741850162438
1.3377798988470226
1.312999159728495
1.2887312715651107
1.2724314635599634
1.2671247074834526
1.2468760856626286
1.2088192826189548
1.1820871139579747
1.1454763302455548
1.1183195692834647
1.0821916276703722
0.17968439448743534
0.7393709558031332
1.1254133788063954
1.3489914659343223
1.3864331203629061
1.4897504217550457
1.521053642707321
1.4946643861432172
1.4517750788702324
1.4775819182605923
1.4233415346072373
1.4106491075136072
1.360145031483122
1.3629090970531066
1.335416053302925
1.298202696525117
1.2921816123843055
1.2586062129075961
1.236089213194463
1.217034809975755
1.1872376775669617
1.1622822917849853
1.1285087070095716
1.0865730512633573
0.06205938112019693
0.55517367698637
1.0248040502001747
1.2246167227393845
1.4071740225903133
1.472990309979531
1.553374862950375
1.5392269645144996
1.4946745738854768
1.4607577930500557
1.432102825360714
1.4306470146186732
1.3783587153797483
1.3603939459349126
1.3442647052254306
1.307947159135178
1.315109732459002
1.2639014659624814
1.23849971642478
1.2263592903120615
1.2042948349500764
1.1644653386342012
1.1345615066013919
1.0990219434764028
0.1572982480794084
0.40718675422769024
0.9182811006841178
1.1997058677026589
1.3317847792135429
1.4418660088796655
1.504975656996807
1.5225166146638494
1.5123249766117466
1.466863258072068
1.4369308554636884
1.4269190018867008
1.401402091238438
1.3626150849507537
1.3270773451026368
1.3053179437652767
1.307428055326008
1.2716910240934438
1.2541119149345448
1.217014462259245
1.1945643538301847
1.1642179339577132
1.13727415503711
1.1029299804345403
0.023431489783353743
0.3124516977493713
0.8155459568795866
1.027544159573115
1.2858049813707881
1.4220265639970417
1.4787533672994897
1.4967864748990949
1.4968335372723656
1.4520983321725471
1.441734927629937
1.4570751118375647
1.3949353968082372
1.3637599285761006
1.3616847972536628
1.3269022473384988
1.30434983597941
1.293534399674154
1.2447993381457867
1.2268828204429205
1.1913952584909118
1.1792843477465216
1.140345870776309
1.1134838827430509
-0.003117659173865972
0.3357277220124322
0.6567101737444697
1.0102009207208917
1.1807325585332062
1.4302461911250033
1.4522797617246122
1.4658672225155183
1.5036134883563441
1.4786191919159817
1.4452456336818282
1.4316446635019715
1.3707674775170147
1.3803266371457077
1.3435274137332165
1.3299563874460214
1.2834486816109179
1.2835155279817627
1.2521793303413056
1.2299664647899726
1.2067834398012625
1.1715817371392567
1.1448069624165507
1.1167573441156082
-0.020757268864266987
0.2277578986146802
0.576781790310426
0.8553712522682013
1.1221493684254649
1.3021422720253988
1.363645039659323
1.4318254545913212
1.4224837341790528
1.4397179727450764
1.4636806437986714
1.4405757788212208
1.381087869354178
1.3722153684728773
1.3505913039647832
1.316140368325123
1.2990579386861643
1.282670119396625
1.2564328472214783
1.2407456947702682
1.2071565975469476
1.1852090860418636
1.1549380172807733
1.1266294405584985
-0.023741588120407386
0.1476926733552023
0.4671884472574125
0.729044075947936
1.0269423789096377
1.2039082979936309
1.322996375963036
1.3867142796200624
1.4301430334978118
1.4400037739269242
1.4109044312759225
1.4163234091991084
1.4159563543131792
1.3998360213785492
1.3507037102695778
1.3179749891731944
1.2954821939665677
1.290991948356581
1.2854433341872893
1.2494215125638712
1.2170219483170697
1.185763026214341
1.1715174444298648
1.1326573717832842
-0.09185143997775791
0.09797859388561092
0.3957840608591956
0.6138920781465854
0.8507366247694766
1.1140207972965797
1.223060073089336
1.3303682335643148
1.355964616401956
1.3958240166848097
1.4017425092735365
1.3908147009604628
1.359558471974383
1.3392689278447327
1.3619240898302802
1.3191068648089643
1.2913875838621525
1.2871603081845808
1.2852925140363354
1.2327456989132795
1.2174439237728154
1.198666626915913
1.1766581970524796
1.1462829885843204
-0.07269646283620101
-0.02867896495242772
0.2872054788146352
0.4675040377163116
0.7590620617465988
0.981573797469192
1.1279912813772968
1.228294023131913
1.2869883908729574
1.334213516762588
1.3705370448241243
1.3733436530917302
1.34257883885887
1.3536588191032195
1.3212307806626193
1.3296717747854403
1.2961352946546207
1.2768889805824097
1.2705938170196713
1.262262332349719
1.2284857094048365
1.208365187995203
1.1799159815373115
1.1508885167093081
-0.04643549087530152
-0.0676787640264741
0.22077502504271806
0.3552583566743721
0.702718370144019
0.906784269281228
1.034647038946638
1.1214482674734594
1.2072102438104735
1.250861264682059
1.2966537014374726
1.3479764621926396
1.2940792315962277
1.3111083183046217
1.3069269528012262
1.2945458589649088
1.281069068726443
1.2821438008553179
1.2673785798727366
1.2456660121151322
1.2348146539835119
1.2000673595361657
1.1874902297780074
1.1616744314337235
-0.07286744514775934
0.023042971579145477
0.07733982173161158
0.21219460156971504
0.5156948149783396
0.7038526191106882
0.9009758531410152
0.9995263571108507
1.1042666748889187
1.1780631447118248
1.2049795678534365
1.2540590248893486
1.286512681989607
1.2692518220621638
1.2799275532414236
1.2610023760677156
1.2732131475468753
1.2598525344303095
1.2449037823127673
1.240816840866333
1.228389112563623
1.2103585831751846
1.1917654344074304
1.1784615974831572
-0.0663413479230105
0.04447175974649964
0.12082508294238192
0.25596118773789933
0.4208059849178888
0.5323538407604697
0.7531868075301928
0.9035806689275855
0.9444071700083753
1.0419400543667192
1.1267083077399123
1.145039032766269
1.183314379725168
1.2108513045271554
1.2294660905368782
1.2539922140842774
1.2406678032253566
1.2286407431421815
1.2362908340293723
1.2347118696098658
1.2166910300258438
1.2046595464603305
1.202397638757947
1.1774254932571484
0.030501769284981273
0.11778830873085311
0.1437615773259493
0.21963288326462926
0.3569048268876067
0.44493776230843185
0.581199809554195
0.7564287449041264
0.863090452615954
0.9491652408953878
0.9942298974166751
1.0657206478386994
1.089595284559582
1.1444665823157372
1.1452114376503706
1.1724419980059093
1.2202956343663536
1.1955776710629242
1.2113127934829377
1.2022387241530588
1.1932238454008084
1.2031804400627868
1.2090661062678763
1.1834128533955428
0.07771310925714991
0.046601530491183873
0.14618478303228655
0.18082375711006105
0.29316012504237665
0.37433113290326503
0.4726922794643664
0.5898207760276243
0.6972215946917373
0.796569846646348
0.8946825294358012
0.9573272418774086
0.9889075522396793
1.0346635155368804
1.0658067546804602
1.1053914522714672
1.1148483923181371
1.1422583453696855
1.1575926548217523
1.1635345636565295
1.1600964616636504
1.166873551458417
1.1651964933987455
1.171863806238528
0.08980785496229193
0.09079255475697467
0.08692574700295397
0.2041290589557999
0.2154056643474287
0.29304839192506105
0.4422460268245255
0.49231017528825394
0.5890044235595917
0.6869087314145964
0.7414618972022332
0.7797630853481037
0.8563440621147909
0.9167151886453095
0.9845985121663641
1.0084559008883036
1.0365679237094196
1.0842410906397668
1.0909098831632675
1.104033298015532
1.1141388771960672
1.1401042816332176
1.1346707503748028
1.1506863885974157
0.13268611991844903
0.13966480780327073
0.1821411626753784
0.2147231956756529
0.1544129835219965
0.23267773017022464
0.34784806186112227
0.3619710187283891
0.5025550342469134
0.5342264395651484
0.5952287866972298
0.6910994221047704
0.7512964210297546
0.7867681526406318
0.8475097387700774
0.9007416721951577
0.9262075012506937
0.9822335120956461
0.9915528747733453
1.034150132105728
1.0477896224347467
1.0733105383388573
1.0847791397223014
1.109047468859362
0.19842264790456854
0.18611639470628505
0.09712763655073187
0.13319547760867767
0.15679130431969124
0.15038339586187022
0.3156960983733733
0.3129281117035907
0.3767234717983734
0.4744844626265642
0.489820035106883
0.512233177056479
0.6055066478503184
0.6478399391349022
0.7551926856181528
0.7876791932572642
0.8051470749037545
0.8820065951848804
0.8934485218502546
0.9323646073253741
0.9464703805919699
0.9863466854979689
1.0082723944733603
1.024535168111316
0.25316768828689684
0.1785960500544137
0.08164687036434659
0.13434962143527995
0.11566209392402316
0.10990747315783289
0.13680829169958664
0.26326308616767646
0.29002138880888306
0.3323521156965391
0.4254653172647904
0.4399239061133351
0.50876482148662
0.5629987373039551
0.5964646360693523
0.666799251516099
0.715192796578236
0.7635141932126193
0.7895575487054154
0.795540945084819
0.8531566719653578
0.8450957932142082
0.9060970139471851
0.9604450385123635
0.25883695361137427
0.11798739114143508
0.09298870104544854
0.12873261509806222
0.08938826041354886
0.11153402945489976
0.12847828883933
0.19660661660158008
0.18890259976534962
0.2921506316392456
0.29399483273328086
0.2571680485130641
0.3664339944236771
0.39214342911173183
0.4033382449005942
0.5454261067753879
0.5509766161438748
0.6151188395984636
0.6765609001720619
0.6870711509624982
0.7217943425063307
0.7570690907715187
0.7810145507902754
0.842834772483967
0.07415436846459504
0.1974300377771693
0.3245636533600657
0.36647594551745805
0.3747021332977931
0.3959776530275722
0.1447088602845774
0.2791354213254623
0.355989133795936
0.3768694577269574
0.3637196353309767
0.36503927647745116
0.16687658987216364
0.28690128492587874
0.33982051204489805
0.36090005578316026
0.37538967640194326
0.36726489286548486
0.19301513071129353
0.3074236514023874
0.3453951196488698
0.3649910365534884
0.3636198706183074
0.3948175445618573
0.22016806438717001
0.3227453793676128
0.35800728170277124
0.3476830937141918
0.3802613923566431
0.4064578957183493
0.25766558613840257
0.3142477984852631
0.34350876540719455
0.36380490272013843
0.39446191897874855
0.4060247575271455
0.26523243685598663
0.3195694530156168
0.3593866765493873
0.35177983369291
0.4026123539310472
0.44779067922912513
0.2865173672180626
0.34638449242411873
0.3676818119416926
0.3678553218354602
0.4202700271130242
0.4586726274227475
0.30967763375612234
0.31286942084541064
0.37038300216168174
0.3743047275993314
0.4149970621355804
0.5201193494718481
0.32259778025828045
0.3454906236757355
0.37783419799811624
0.42252568957484155
0.4060980772012249
0.439291135345687
0.3169961460816884
0.3486973336784227
0.37892122194807626
0.3520685819851208
0.4345251677524281
0.4606378641590508
0.32939003086936547
0.3282987534412764
0.38376934216915176
0.4148593147975312
0.44838971071228956
0.4184328749254391
0.34327827344373296
0.362271227378229
0.38510100640170364
0.398713475474553
0.40893363934150706
0.4363752198915132
0.3228357856714185
0.32967767733416575
0.38604645864045994
0.41221864488288973
0.43081465432041605
0.376834363084789
0.31478596565663697
0.3679650714736849
0.389907808768054
0.4399543461110767
0.4518325252571887
0.4443576179777443
0.3138152600526062
0.3532992041948185
0.3857839714278159
0.42207191663537424
0.4268333652043509
0.43571463839755614
0.30382510486047626
0.32671339576373
0.4009816770979007
0.40177715750519516
0.42604449683469964
0.4333733535929848
0.28480965588338225
0.3263105266222074