/*--------------------------------*- C++ -*----------------------------------*\
  =========                 |
  \\      /  F ield         | OpenFOAM: The Open Source CFD Toolbox
   \\    /   O peration     | Website:  https://openfoam.org
    \\  /    A nd           | Version:  11
     \\/     M anipulation  |
\*---------------------------------------------------------------------------*/
FoamFile
{
    format      ascii;
    class       volScalarField;
    location    "0.34";
    object      k;
}
// * * * * * * * * * * * * * * * * * * * * * * * * * * * * * * * * * * * * * //

dimensions      [0 2 -2 0 0 0 0];

internalField   nonuniform List<scalar> 
2880
(
0.00407335
0.0104185
0.0210278
0.0325538
0.0420111
0.0545515
0.0165946
0.0280698
0.0430331
0.0556532
0.0658878
0.0776948
0.0206292
0.036634
0.0541595
0.0679712
0.0795239
0.0911257
0.0226818
0.0425652
0.0619062
0.0768144
0.0894113
0.101468
0.0241223
0.0474881
0.0681843
0.0840987
0.0976439
0.110312
0.025034
0.0519696
0.0736134
0.0904575
0.104908
0.118232
0.0262118
0.0561091
0.0784073
0.0961242
0.111451
0.125446
0.0279961
0.0597713
0.0826269
0.10118
0.117353
0.132001
0.0295136
0.0629109
0.0862752
0.10564
0.122616
0.137865
0.0307414
0.0654894
0.0893399
0.109492
0.127219
0.142985
0.0316611
0.0674785
0.0918047
0.112716
0.13113
0.147307
0.0322793
0.0688523
0.0936506
0.115288
0.134323
0.1508
0.0326038
0.0695846
0.0948544
0.117185
0.136776
0.153449
0.0325542
0.0696624
0.0953857
0.118375
0.138473
0.155267
0.0321003
0.0690739
0.0952041
0.118817
0.139401
0.156282
0.0312328
0.0677775
0.0942548
0.118466
0.139537
0.15654
0.0299559
0.0657223
0.092462
0.117245
0.138855
0.156096
0.0282872
0.0628352
0.0897211
0.115046
0.137287
0.154995
0.0262515
0.0590042
0.0858805
0.111703
0.134704
0.153191
0.0249167
0.0540371
0.0807063
0.106953
0.130876
0.150599
0.0234841
0.0478591
0.0737981
0.100345
0.125369
0.146973
0.0213652
0.0399398
0.0643418
0.0910223
0.117305
0.1416
0.0171211
0.0285773
0.0502336
0.0770373
0.104749
0.132395
0.00419846
0.0102314
0.0272737
0.054397
0.084177
0.115593
0.125109
0.127073
0.117513
0.101004
0.0871005
0.0764866
0.0689259
0.0637699
0.060296
0.0578532
0.0559738
0.0543722
0.0528965
0.0514902
0.0501692
0.0490084
0.0481325
0.0477087
0.0478437
0.0485328
0.0500165
0.0522218
0.0551085
0.0584728
0.124056
0.135948
0.130155
0.114663
0.0989991
0.0868835
0.0782407
0.0722356
0.068102
0.0652201
0.0631222
0.0614403
0.0599369
0.0584916
0.0570738
0.0557279
0.054566
0.0537638
0.0535462
0.0539062
0.0550035
0.0570214
0.0598902
0.0635011
0.122153
0.149406
0.151194
0.142629
0.124296
0.10667
0.0935409
0.0841621
0.0777837
0.0736967
0.07096
0.0689899
0.0674352
0.0660383
0.0646589
0.0632686
0.0619291
0.0607893
0.0600788
0.0600813
0.0606514
0.0621489
0.0647893
0.0685632
0.124713
0.154419
0.17026
0.170405
0.162686
0.146002
0.127135
0.110317
0.0978433
0.0890258
0.0828698
0.0786936
0.0759918
0.0740954
0.0725918
0.0712231
0.0698738
0.0685798
0.0675053
0.0669485
0.0671018
0.0679375
0.0699558
0.0737222
0.130018
0.157615
0.180263
0.192702
0.194419
0.189184
0.176764
0.159826
0.141403
0.124077
0.109674
0.0992245
0.091698
0.086329
0.0826236
0.0801205
0.0782759
0.0767634
0.0754563
0.0744583
0.0740954
0.0744183
0.0756964
0.0789937
0.136409
0.16172
0.18631
0.205541
0.217204
0.221308
0.218881
0.211243
0.197786
0.181098
0.162807
0.144249
0.127409
0.113594
0.103171
0.0956647
0.090381
0.0867887
0.0843131
0.0825752
0.0814585
0.0812887
0.081901
0.0844513
0.143057
0.166654
0.191092
0.213101
0.230335
0.241875
0.247589
0.247434
0.243242
0.233818
0.220027
0.203116
0.184202
0.164711
0.145979
0.129394
0.116001
0.105859
0.0986396
0.0937314
0.0905285
0.0887073
0.0885842
0.0901198
0.149479
0.171777
0.195256
0.217704
0.237206
0.25263
0.263491
0.269629
0.271054
0.268652
0.262185
0.251128
0.236619
0.219267
0.199911
0.179673
0.15988
0.141853
0.126637
0.114733
0.106078
0.100191
0.0968217
0.0970234
0.15535
0.176529
0.198634
0.220204
0.239709
0.256229
0.269215
0.278467
0.283985
0.285845
0.284431
0.279812
0.271093
0.258886
0.243657
0.225943
0.206474
0.186263
0.166466
0.1483
0.132821
0.120588
0.111381
0.10769
0.160454
0.180504
0.200917
0.220767
0.239046
0.25495
0.268052
0.278162
0.285205
0.289238
0.29035
0.288929
0.284782
0.277644
0.267822
0.2553
0.240136
0.222686
0.203752
0.184337
0.165627
0.14868
0.134084
0.12515
0.164648
0.183439
0.201846
0.219467
0.235585
0.249672
0.261451
0.270831
0.277832
0.282543
0.285059
0.285444
0.283881
0.279954
0.273646
0.265251
0.254928
0.242613
0.228085
0.21154
0.193956
0.17639
0.159863
0.148548
0.167858
0.185203
0.201364
0.216329
0.229722
0.241271
0.250875
0.258566
0.264455
0.268682
0.271381
0.272638
0.272488
0.27093
0.267734
0.262896
0.256285
0.247935
0.238078
0.226445
0.212928
0.198314
0.18408
0.174966
0.170067
0.185749
0.199471
0.211545
0.221929
0.230611
0.237678
0.243301
0.247679
0.251013
0.253458
0.255099
0.255934
0.25597
0.255075
0.253144
0.250048
0.245663
0.239875
0.233013
0.224877
0.215729
0.207187
0.20264
0.171314
0.185189
0.196331
0.205445
0.212798
0.218627
0.223211
0.226853
0.229848
0.23244
0.234782
0.236908
0.238787
0.240338
0.24141
0.241897
0.241638
0.240501
0.2384
0.235332
0.231778
0.227941
0.224642
0.22221
0.171666
0.183635
0.192202
0.198474
0.203016
0.206299
0.208778
0.210888
0.212984
0.215293
0.217933
0.220904
0.224065
0.227205
0.230126
0.232634
0.234544
0.235689
0.235977
0.235322
0.233764
0.231732
0.229378
0.225841
0.171236
0.181276
0.187408
0.191145
0.193326
0.194631
0.195653
0.196893
0.198682
0.201204
0.204587
0.208747
0.213325
0.217897
0.222284
0.226258
0.229614
0.232179
0.233806
0.234384
0.233892
0.232348
0.229691
0.225227
0.170142
0.17833
0.182315
0.184003
0.184474
0.18456
0.184873
0.185936
0.188096
0.191494
0.19582
0.200746
0.206165
0.211325
0.216144
0.220457
0.224136
0.227079
0.229203
0.23044
0.23073
0.230017
0.22786
0.224483
0.168493
0.175016
0.177295
0.177647
0.177238
0.17699
0.177612
0.179658
0.183118
0.187544
0.192402
0.197143
0.201453
0.205463
0.208805
0.211468
0.213405
0.214655
0.215268
0.215238
0.214638
0.213419
0.211436
0.209409
0.166408
0.171613
0.172872
0.172697
0.172403
0.172897
0.174841
0.178345
0.183038
0.188219
0.193041
0.196776
0.198783
0.199362
0.198674
0.19694
0.194423
0.191477
0.188237
0.184701
0.180714
0.17629
0.171711
0.168003
0.164023
0.168493
0.169554
0.169851
0.17073
0.173012
0.177118
0.182747
0.18901
0.194672
0.198531
0.199716
0.197827
0.193272
0.186716
0.179161
0.171316
0.163663
0.156391
0.149419
0.142141
0.134606
0.127361
0.123122
0.161475
0.166094
0.16801
0.169918
0.173081
0.178235
0.18525
0.193219
0.200617
0.205762
0.207363
0.204937
0.197681
0.187059
0.175014
0.162809
0.151401
0.141279
0.132516
0.124883
0.118513
0.112832
0.108093
0.106296
0.158944
0.165081
0.169054
0.173663
0.180304
0.189067
0.199101
0.208746
0.215887
0.218696
0.216507
0.20775
0.194601
0.179098
0.163344
0.149015
0.136924
0.12715
0.119384
0.11317
0.108252
0.10436
0.101904
0.101948
0.156912
0.166465
0.173786
0.182371
0.193156
0.205501
0.217709
0.227343
0.23193
0.230375
0.221124
0.206087
0.187635
0.1686
0.151437
0.137447
0.126685
0.118554
0.112404
0.107631
0.103912
0.101547
0.100827
0.101614
0.157343
0.171942
0.183832
0.196916
0.211713
0.226661
0.239104
0.24608
0.245294
0.236196
0.219648
0.19849
0.176301
0.156284
0.140208
0.128229
0.119456
0.112892
0.107964
0.104333
0.101844
0.100726
0.101175
0.102991
0.00379095
0.00800538
0.0215644
0.0449044
0.0771422
0.114857
0.0159904
0.0243416
0.0434905
0.0681652
0.0983216
0.133874
0.020212
0.0347029
0.0569107
0.0829082
0.113152
0.147351
0.0224422
0.0420021
0.0659962
0.0928704
0.123329
0.157194
0.0239804
0.0476255
0.072546
0.0998393
0.130468
0.164723
0.0250006
0.0521124
0.077246
0.104613
0.135355
0.170332
0.0261015
0.0554551
0.0804706
0.107628
0.138389
0.174175
0.0272532
0.0578047
0.0824623
0.109155
0.139801
0.176369
0.0281524
0.0592887
0.0833912
0.109385
0.139764
0.177065
0.0287335
0.0600055
0.0833869
0.108466
0.138411
0.176447
0.0289755
0.0600314
0.0825533
0.10652
0.135879
0.174721
0.0289117
0.0594254
0.0809839
0.103665
0.132293
0.172096
0.0284986
0.0582294
0.0787617
0.100009
0.127778
0.168784
0.0277887
0.0564626
0.0759598
0.0956552
0.122458
0.164986
0.0269142
0.0541124
0.0726418
0.0907026
0.116431
0.160889
0.0258822
0.0512025
0.0688653
0.0852443
0.109793
0.156646
0.0250733
0.0478204
0.064692
0.0793671
0.102616
0.152246
0.0248654
0.0442327
0.0602055
0.0731548
0.0949693
0.14741
0.0242381
0.0407463
0.0555016
0.0666773
0.0867887
0.141642
0.0231499
0.0372781
0.050601
0.0599702
0.0779523
0.134091
0.0215996
0.0336058
0.0453509
0.0529709
0.0683257
0.124066
0.0195905
0.0292597
0.039244
0.0453543
0.0576336
0.111912
0.0157722
0.0228197
0.0307472
0.0359008
0.0444517
0.0958334
0.00401058
0.00816139
0.0133468
0.0178033
0.0232426
0.0653488
0.163844
0.183379
0.199857
0.217183
0.234958
0.250386
0.260072
0.260535
0.251761
0.234063
0.210275
0.184956
0.162132
0.143999
0.130667
0.121031
0.113788
0.108251
0.104117
0.101272
0.0998892
0.100062
0.101304
0.103822
0.175036
0.199351
0.220543
0.241464
0.260239
0.273002
0.27539
0.267101
0.248917
0.222528
0.194115
0.168561
0.148458
0.133798
0.123157
0.115061
0.108643
0.103626
0.100004
0.0979532
0.0976212
0.0984862
0.100766
0.103653
0.186611
0.217175
0.243333
0.266599
0.283505
0.288808
0.281794
0.26386
0.235135
0.203766
0.17559
0.15359
0.137596
0.125864
0.116725
0.109245
0.103131
0.0984555
0.0954409
0.0942578
0.0946282
0.0962265
0.0991304
0.102077
0.197596
0.234675
0.26536
0.288825
0.299233
0.294804
0.278714
0.248296
0.214212
0.183508
0.159629
0.142234
0.129284
0.11895
0.110246
0.10288
0.096959
0.0927379
0.0904098
0.090002
0.0908626
0.0931005
0.0962248
0.0991086
0.207361
0.250331
0.284079
0.304152
0.304647
0.292071
0.262572
0.225921
0.192697
0.166874
0.147954
0.133626
0.121941
0.111891
0.103182
0.0959091
0.090327
0.0866691
0.085017
0.0851574
0.086461
0.0890857
0.0922547
0.0950127
0.215443
0.263194
0.297666
0.309636
0.302389
0.277114
0.239109
0.203613
0.175749
0.155115
0.139209
0.12599
0.114448
0.104291
0.0955942
0.0885785
0.0834783
0.0804265
0.0793751
0.0798533
0.0815592
0.084307
0.0874229
0.0900285
0.221657
0.272798
0.30419
0.307555
0.290464
0.254096
0.216692
0.186646
0.164083
0.146394
0.131446
0.11823
0.106481
0.0962683
0.087772
0.081183
0.0766378
0.0741444
0.0735432
0.0742636
0.0761818
0.0789147
0.0818987
0.0843348
0.226074
0.279205
0.30455
0.298131
0.270532
0.232095
0.19986
0.175211
0.155576
0.138711
0.123611
0.110063
0.0981759
0.0881139
0.0800123
0.0739559
0.0699568
0.0679147
0.0676025
0.0684522
0.0704165
0.0730364
0.0758359
0.0780937
0.228931
0.282574
0.298702
0.284179
0.249617
0.215619
0.188848
0.167171
0.148235
0.131026
0.115421
0.101614
0.0898103
0.0801149
0.0725417
0.0670432
0.0635177
0.0617914
0.0616134
0.0624794
0.0643507
0.0667802
0.0693583
0.0714375
0.230538
0.283006
0.288591
0.267997
0.233748
0.205144
0.181518
0.160474
0.140973
0.123021
0.106973
0.0931389
0.0816544
0.0724864
0.0655005
0.0605229
0.0573647
0.0558143
0.0556299
0.0564023
0.0580633
0.0602363
0.0625634
0.0644673
0.23123
0.281103
0.277812
0.253473
0.223909
0.198774
0.175835
0.153989
0.133422
0.11475
0.0984914
0.0848876
0.0739124
0.0653626
0.0589608
0.0544307
0.0515256
0.0500231
0.0497095
0.0502828
0.05163
0.053482
0.0555265
0.0572567
0.231186
0.277231
0.268631
0.24371
0.218517
0.194474
0.170563
0.147246
0.125564
0.106396
0.0902081
0.0770573
0.0667154
0.0588114
0.0529499
0.0487817
0.046027
0.0444668
0.043921
0.0441932
0.0451307
0.0465876
0.0483045
0.0498543
0.230558
0.272689
0.261609
0.239636
0.21605
0.190983
0.165129
0.14015
0.117537
0.0981706
0.0823144
0.0697806
0.0601327
0.0528563
0.0474715
0.0435855
0.0409023
0.0392097
0.0383557
0.0382226
0.0386661
0.0396243
0.0409345
0.0422748
0.229298
0.269157
0.258221
0.238947
0.214866
0.1875
0.159301
0.132764
0.10952
0.0902568
0.074946
0.0631317
0.0541885
0.0474946
0.0425203
0.0388537
0.0361944
0.0343334
0.033133
0.0325024
0.0323739
0.0326799
0.033419
0.0344532
0.227637
0.267427
0.257655
0.240178
0.214139
0.183686
0.153063
0.125227
0.101685
0.082795
0.0681852
0.0571394
0.0488781
0.042711
0.0380892
0.0346014
0.0319503
0.0299269
0.0283896
0.0272444
0.0264258
0.025898
0.0257229
0.0261192
0.226025
0.267108
0.260087
0.243277
0.213407
0.179384
0.14648
0.117686
0.0941727
0.0758764
0.0620671
0.0517979
0.0441779
0.0384838
0.0341711
0.0308434
0.0282141
0.0260742
0.0242677
0.0226695
0.0211604
0.0196106
0.01793
0.0165541
0.225164
0.270119
0.26564
0.24713
0.212192
0.174533
0.139655
0.110275
0.0870843
0.0695462
0.0565879
0.0470755
0.0400496
0.0347832
0.030753
0.0275871
0.0250167
0.0228404
0.0208956
0.0190335
0.0170908
0.0148577
0.012022
0.00757747
0.226055
0.276678
0.273603
0.250383
0.210237
0.169169
0.132702
0.103101
0.0804778
0.0638084
0.0517123
0.0429185
0.036438
0.031563
0.0278019
0.0248131
0.0223527
0.0202384
0.0183244
0.0164803
0.0145729
0.0124548
0.00993595
0.00642686
0.230033
0.286772
0.283328
0.252839
0.20753
0.16336
0.125712
0.0962292
0.0743713
0.0586349
0.0473829
0.0392571
0.0332719
0.0287535
0.0252479
0.0224451
0.0201266
0.0181314
0.0163327
0.0146188
0.0128753
0.0109787
0.00880157
0.00599633
0.237596
0.300379
0.294084
0.25466
0.20406
0.15714
0.118741
0.0896926
0.0687534
0.0539779
0.0435314
0.0360159
0.0304738
0.0262744
0.0230024
0.0203773
0.0182029
0.016335
0.0146609
0.0130815
0.0114951
0.00979962
0.00791712
0.00565218
0.249877
0.31747
0.30495
0.255535
0.199681
0.150502
0.111821
0.0835
0.0635952
0.0497805
0.0400896
0.033125
0.0279749
0.0240567
0.0209924
0.0185283
0.0164872
0.014739
0.0131824
0.011729
0.01029
0.00878462
0.00717176
0.00534778
0.268314
0.337872
0.31392
0.254673
0.194184
0.143428
0.104968
0.0776441
0.0588575
0.0459862
0.0369966
0.0305261
0.0257216
0.0220504
0.0191697
0.0168501
0.0149307
0.0132938
0.0118482
0.0105154
0.00921903
0.00789694
0.00653204
0.00507012
0.295672
0.360785
0.319072
0.25143
0.187414
0.135913
0.0981941
0.0721116
0.0545034
0.042546
0.0342021
0.0281738
0.0236747
0.0202217
0.017505
0.0153167
0.0135106
0.0119797
0.0106417
0.0094269
0.00826986
0.00712256
0.00598206
0.0048211
0.337582
0.381372
0.321203
0.245681
0.179293
0.127973
0.0915236
0.066898
0.0505031
0.0394201
0.0316673
0.0260345
0.0218068
0.0185489
0.0159813
0.0139149
0.0122166
0.0107885
0.00955606
0.00845718
0.00743521
0.00645233
0.00551245
0.00460257
0.00579356
0.0362766
0.0783847
0.126563
0.154056
0.200263
0.0202889
0.0720796
0.119436
0.168806
0.225293
0.336691
0.0295743
0.0903063
0.141734
0.195151
0.260128
0.35313
0.037218
0.102369
0.15623
0.21152
0.275603
0.349587
0.0437983
0.11144
0.166412
0.221635
0.281476
0.340041
0.0492869
0.118591
0.173696
0.227548
0.282101
0.328603
0.0537071
0.12425
0.178797
0.23052
0.279673
0.316658
0.0571185
0.128601
0.182122
0.231374
0.275462
0.304922
0.0595973
0.131729
0.183942
0.230694
0.270321
0.293825
0.0612229
0.133685
0.184465
0.228898
0.264809
0.283633
0.0620731
0.13452
0.183863
0.226301
0.259229
0.274572
0.0622076
0.13428
0.182281
0.223127
0.253815
0.266749
0.0617394
0.133009
0.179828
0.219522
0.248733
0.260216
0.060699
0.130741
0.176574
0.215559
0.244074
0.254996
0.0589965
0.127517
0.172543
0.211244
0.239858
0.251094
0.0565931
0.123348
0.167702
0.206507
0.236023
0.248514
0.0534642
0.11821
0.161963
0.2012
0.232409
0.247252
0.049584
0.112034
0.155169
0.19509
0.228715
0.24728
0.044922
0.104692
0.147069
0.187833
0.224442
0.248587
0.0394531
0.0959493
0.137278
0.17887
0.21883
0.251211
0.0331694
0.085366
0.125158
0.167392
0.210723
0.25456
0.026117
0.0719836
0.109515
0.152133
0.198048
0.256047
0.0176468
0.053139
0.0875252
0.130836
0.176494
0.245256
0.00438241
0.0231656
0.0547605
0.101167
0.137409
0.143066
0.394472
0.390476
0.316323
0.23659
0.169756
0.119683
0.085013
0.0620136
0.0468359
0.0365771
0.0293621
0.0240836
0.0200993
0.0170186
0.014589
0.0126383
0.0110442
0.00971705
0.00858868
0.00760316
0.0067107
0.00588029
0.00511766
0.004416
0.425721
0.384946
0.303691
0.224424
0.159105
0.111249
0.0787605
0.0574801
0.0434873
0.0339928
0.027264
0.0223037
0.0185397
0.0156223
0.0133227
0.0114832
0.00999099
0.00876319
0.00773701
0.00686135
0.00609149
0.00540041
0.00479212
0.00426079
0.410731
0.366694
0.287392
0.210432
0.147938
0.102963
0.072878
0.0533196
0.0404454
0.0316479
0.0253556
0.020682
0.0171194
0.0143544
0.0121786
0.0104468
0.0090543
0.00792399
0.0069974
0.0062271
0.00557175
0.00500593
0.0045295
0.00413469
0.38887
0.345023
0.269197
0.195713
0.136839
0.0950873
0.0674547
0.0495436
0.037697
0.0295255
0.0236237
0.0192092
0.0158323
0.0132105
0.0111531
0.00952571
0.00823052
0.00719517
0.00636471
0.00569418
0.00514412
0.0046887
0.0043223
0.00403425
0.366444
0.322558
0.250589
0.181166
0.126265
0.0878092
0.0625396
0.0461486
0.0352261
0.0276107
0.0220573
0.017878
0.014673
0.0121863
0.0102424
0.00871579
0.00751476
0.006571
0.00583219
0.00525477
0.00479965
0.00443923
0.00416227
0.00395564
0.345168
0.300943
0.232639
0.167405
0.116506
0.0812265
0.0581442
0.0431192
0.0330143
0.0258895
0.0206472
0.0166819
0.0136364
0.0112772
0.00944148
0.00801155
0.00690083
0.00604442
0.00539177
0.00489958
0.00452806
0.00424725
0.00404118
0.00389522
0.325455
0.281047
0.215966
0.154784
0.107707
0.0753683
0.0542528
0.0404322
0.0310428
0.0243493
0.0193846
0.0156144
0.012717
0.0104777
0.00874447
0.00740644
0.00638145
0.0056073
0.00503427
0.00461833
0.00431838
0.0041025
0.00395141
0.0038498
0.307659
0.263105
0.200877
0.143475
0.0999132
0.0702168
0.0508332
0.0380605
0.0292928
0.0229779
0.0182613
0.0146688
0.0119085
0.0097814
0.00814454
0.006893
0.00594847
0.00525071
0.00474984
0.00440031
0.00415972
0.00399524
0.0038862
0.00381645
0.291894
0.247225
0.187503
0.13352
0.0930996
0.065726
0.0478449
0.0359759
0.0277464
0.0217638
0.0172693
0.0138386
0.0112047
0.00918159
0.00763436
0.00646325
0.00559322
0.00496518
0.00452829
0.00423504
0.0040422
0.00391718
0.00383946
0.00379231
0.278192
0.233412
0.175853
0.124881
0.0872011
0.0618355
0.0452445
0.0341512
0.026387
0.0206963
0.0164006
0.0131172
0.0105991
0.00867159
0.00720672
0.00610934
0.00530713
0.00474144
0.00435986
0.00411304
0.00395758
0.00386188
0.00380643
0.00377516
0.266545
0.221621
0.165872
0.117472
0.0821322
0.0584805
0.0429897
0.0325607
0.025199
0.0197652
0.0156481
0.0124982
0.0100856
0.00824515
0.00685498
0.00582412
0.00508238
0.00457098
0.00423573
0.00402595
0.00389886
0.00382439
0.00378421
0.00376368
0.256927
0.211781
0.157456
0.111185
0.0778044
0.0555987
0.0410411
0.031181
0.024168
0.0189612
0.0150045
0.0119756
0.00965845
0.00789637
0.00657302
0.00560104
0.00491186
0.00444621
0.00414827
0.0039668
0.00386034
0.0038006
0.00377073
0.00375672
0.249312
0.203808
0.150489
0.105906
0.0741299
0.0531312
0.0393625
0.0299898
0.0232804
0.0182753
0.0144629
0.0115431
0.00931175
0.00761948
0.00635491
0.00543385
0.00478898
0.00436034
0.00409101
0.00392993
0.00383739
0.00378761
0.00376366
0.00375313
0.24369
0.197624
0.144852
0.10152
0.0710235
0.0510228
0.0379201
0.0289663
0.0225233
0.0176983
0.014016
0.0111944
0.00903958
0.00740867
0.00619481
0.00531657
0.00470758
0.00430746
0.00405878
0.00391131
0.00382723
0.00378251
0.00376114
0.00375195
0.240085
0.19317
0.140429
0.0979187
0.0684035
0.0492211
0.0366821
0.028091
0.0218839
0.0172211
0.0136564
0.0109231
0.00883606
0.0072584
0.00608728
0.00524375
0.0046624
0.00428269
0.00404752
0.00390783
0.00382771
0.00378392
0.00376213
0.00375214
0.238592
0.190414
0.137115
0.0949927
0.0661905
0.0476757
0.0356177
0.0273446
0.0213491
0.0168339
0.0133764
0.0107227
0.00869561
0.00716356
0.00602754
0.0052109
0.00464929
0.00428214
0.00405392
0.00391701
0.00383681
0.00379112
0.0037662
0.00375328
0.239304
0.189351
0.134804
0.0926313
0.0643052
0.0463372
0.0346965
0.0267078
0.0209059
0.0165272
0.0131686
0.0105872
0.00861296
0.00711959
0.00601161
0.00521397
0.00466348
0.00430305
0.00407629
0.0039375
0.00385356
0.00380312
0.00377316
0.00375555
0.242448
0.190002
0.133391
0.0907174
0.0626669
0.045156
0.0338879
0.0261608
0.0205405
0.016291
0.0130253
0.0105103
0.00858322
0.00712213
0.00603423
0.00524862
0.00470493
0.00434419
0.00411348
0.00396868
0.00387775
0.00381994
0.00378283
0.00375888
0.248282
0.192389
0.132782
0.0891496
0.0611996
0.0440831
0.0331607
0.0256827
0.0202384
0.0161151
0.0129388
0.0104862
0.00860106
0.00716634
0.00609439
0.0053163
0.00477141
0.00440463
0.00416515
0.00401054
0.00390956
0.00384185
0.00379557
0.00376358
0.257033
0.196474
0.13273
0.0877988
0.0598303
0.0430758
0.0324883
0.0252562
0.0199873
0.0159893
0.0129015
0.0105091
0.00866273
0.00725164
0.00619118
0.00541374
0.00486228
0.00448432
0.00423165
0.00406359
0.00394958
0.0038695
0.00381202
0.0037702
0.268789
0.202025
0.132934
0.0864828
0.0584725
0.0420897
0.0318444
0.0248641
0.0197755
0.0159054
0.0129065
0.0105741
0.0087656
0.00737501
0.00632127
0.00554018
0.00497752
0.00458387
0.00431392
0.00412888
0.00399884
0.00390386
0.00383309
0.00377943
0.282434
0.208273
0.132842
0.0849563
0.0570285
0.041078
0.0312025
0.0244892
0.0195895
0.0158529
0.0129463
0.0106753
0.00890429
0.00753254
0.00648306
0.0056951
0.00511756
0.00470439
0.00441342
0.00420795
0.00405879
0.00394623
0.00385984
0.00379211
0.293173
0.213193
0.131668
0.082984
0.0554022
0.0399959
0.0305385
0.0241162
0.0194182
0.0158233
0.0130143
0.0108074
0.00907489
0.00772162
0.00667508
0.0058781
0.00528295
0.00484714
0.00453184
0.00430263
0.00413121
0.00399825
0.00389365
0.00380934
0.284884
0.212035
0.128546
0.0802682
0.0535012
0.0388037
0.0298325
0.0237332
0.0192535
0.0158104
0.0131052
0.0109664
0.00927428
0.00794013
0.00689615
0.00608897
0.0054744
0.00501358
0.00467119
0.00441527
0.00421856
0.00406193
0.00393472
0.00383141
0.00589189
0.0100884
0.0170331
0.0242174
0.043971
0.140134
0.0191453
0.0282719
0.0415068
0.0528593
0.0838478
0.159441
0.0229943
0.0383975
0.0569713
0.0765362
0.11912
0.174323
0.0248973
0.0467119
0.0696325
0.0949518
0.136598
0.172008
0.0271843
0.0547463
0.0801349
0.108179
0.143973
0.163634
0.0310169
0.0621959
0.0885834
0.117375
0.143935
0.154222
0.0339516
0.0688313
0.0953461
0.123032
0.141449
0.145359
0.0364272
0.0746466
0.100885
0.12563
0.137337
0.137152
0.0384629
0.0797186
0.105448
0.126166
0.133478
0.129599
0.0400133
0.0840955
0.109155
0.125996
0.130035
0.122982
0.0410749
0.0877684
0.112187
0.125733
0.127181
0.117486
0.0415824
0.0907253
0.114673
0.125927
0.125083
0.113242
0.0415231
0.0928633
0.116861
0.126668
0.124047
0.110409
0.0409061
0.0940956
0.118843
0.128276
0.124222
0.109349
0.0397918
0.094358
0.120531
0.130688
0.125627
0.109852
0.0382613
0.0936209
0.121746
0.133678
0.12893
0.112525
0.0363845
0.0918648
0.122247
0.136972
0.133803
0.118172
0.0342044
0.0890853
0.121825
0.14011
0.139904
0.126677
0.0316853
0.0852333
0.120036
0.142306
0.146832
0.13713
0.0287363
0.0801565
0.116522
0.14253
0.153321
0.147981
0.0251858
0.073446
0.110608
0.139946
0.156991
0.157319
0.023098
0.0641151
0.10101
0.131955
0.154634
0.162853
0.0188689
0.0503814
0.0847275
0.114778
0.141795
0.156301
0.00534636
0.0229208
0.0512657
0.07822
0.106789
0.117247
0.259311
0.201456
0.12291
0.0765841
0.0512441
0.0374691
0.0290729
0.0233343
0.0190915
0.0158104
0.013216
0.0111496
0.00950061
0.00818701
0.00714607
0.00632841
0.0056934
0.00520586
0.00483394
0.00454829
0.00432276
0.00413837
0.00398412
0.00385854
0.228739
0.18142
0.114177
0.0717462
0.0486222
0.0360147
0.0282651
0.0229235
0.0189342
0.015824
0.0133466
0.0113568
0.00975387
0.00846281
0.00742615
0.00659853
0.00594287
0.00542745
0.00502379
0.00470515
0.00444659
0.00422951
0.00404348
0.00389137
0.203289
0.160115
0.103662
0.0663885
0.0458743
0.0345276
0.0274511
0.0225165
0.01879
0.0158562
0.0134998
0.0115901
0.0100359
0.00876967
0.00773902
0.00690259
0.00622662
0.00568255
0.00524498
0.00488976
0.00459352
0.00433897
0.00411809
0.00393286
0.181898
0.141169
0.0933034
0.0611393
0.0432044
0.0330884
0.0266703
0.022134
0.0186707
0.0159144
0.0136809
0.0118532
0.0103501
0.00911078
0.00808805
0.00724428
0.00654875
0.0059757
0.00550251
0.00510757
0.00476932
0.0044723
0.00421102
0.00398484
0.163675
0.12488
0.0838563
0.0562884
0.0407151
0.0317444
0.0259507
0.0217953
0.0185888
0.0160078
0.0138967
0.0121518
0.010701
0.00949021
0.00847714
0.00762759
0.00691355
0.00631164
0.00580164
0.00536423
0.00497958
0.00463418
0.00432531
0.00404846
0.147684
0.111088
0.0755877
0.051964
0.0384657
0.0305293
0.0253143
0.0215174
0.0185552
0.0161462
0.0141554
0.0124924
0.0110942
0.00991298
0.00891098
0.00805717
0.00732588
0.00669568
0.00614823
0.00566598
0.00523047
0.00482984
0.00446462
0.00412535
0.133854
0.0995404
0.0685391
0.0482027
0.0364846
0.0294668
0.0247807
0.0213177
0.0185846
0.0163413
0.0144666
0.0128832
0.0115367
0.0103853
0.00939529
0.00853853
0.0077913
0.00713368
0.00654859
0.00601954
0.00552874
0.00506541
0.00463359
0.00421764
0.122066
0.0899724
0.0626311
0.0449985
0.0347857
0.0285752
0.0243684
0.0212208
0.0186967
0.0166068
0.0148415
0.0133339
0.0120371
0.0109149
0.00993708
0.00907822
0.00831619
0.00763208
0.00700941
0.00643199
0.00588169
0.00534777
0.0048377
0.00432788
0.112171
0.0821368
0.0577629
0.0423333
0.0333788
0.0278713
0.0240914
0.0212249
0.0189028
0.0169563
0.015293
0.0138562
0.0126061
0.0115112
0.010545
0.00968424
0.00890807
0.00819813
0.00753797
0.00691081
0.00629704
0.00568449
0.00508315
0.00445882
0.10402
0.0758221
0.0538445
0.0401893
0.0322754
0.0273732
0.0239706
0.0213595
0.0192207
0.0174057
0.015836
0.014464
0.0132564
0.0121862
0.0112301
0.0103667
0.00957632
0.00884067
0.00814276
0.00746441
0.00678337
0.00608406
0.00537702
0.00461311
0.0974855
0.0708603
0.0507993
0.0385543
0.0314895
0.0271002
0.0240271
0.0216441
0.0196696
0.0179731
0.0164877
0.0151738
0.0140037
0.0129549
0.0120066
0.0111393
0.0103338
0.0095719
0.00883535
0.00810391
0.00735159
0.00655721
0.00572822
0.00479289
0.0924802
0.0671337
0.0485752
0.0374276
0.0310383
0.0270701
0.0242815
0.0220994
0.0202705
0.0186792
0.0172682
0.0160052
0.0148675
0.0138364
0.0128938
0.0120213
0.0112002
0.0104113
0.00963503
0.00884808
0.00801991
0.0071217
0.0061518
0.00500032
0.0889726
0.064582
0.047151
0.0368208
0.0309435
0.027311
0.0247592
0.0227493
0.0210466
0.0195468
0.0182004
0.0169812
0.0158714
0.0148556
0.0139179
0.0130412
0.0122066
0.0113936
0.0105795
0.00973688
0.00882925
0.00781844
0.0066857
0.00524514
0.0870276
0.063213
0.0465713
0.0367431
0.0312204
0.0278492
0.0254869
0.0236196
0.0220235
0.0206015
0.0193102
0.0181285
0.0170433
0.0160427
0.0151134
0.0142395
0.0134022
0.0125793
0.0117447
0.0108649
0.00989337
0.00877477
0.00745747
0.00560352
0.0868259
0.063067
0.0467011
0.0372223
0.031921
0.0287186
0.0264952
0.0247395
0.0232297
0.0218717
0.0206261
0.0194765
0.0184144
0.0174322
0.0165203
0.0156656
0.0148516
0.0140581
0.0132603
0.0124255
0.011505
0.0104205
0.00897106
0.00660805
0.0882388
0.0641808
0.0478303
0.0383523
0.0330933
0.0299619
0.0278207
0.0261425
0.0246973
0.0233888
0.0221794
0.0210565
0.0200164
0.0190572
0.0181746
0.0173615
0.0166082
0.0159045
0.0152427
0.0146213
0.0140468
0.0135418
0.0131999
0.0134702
0.092247
0.0670096
0.0500723
0.0402449
0.0348164
0.0316363
0.0295094
0.027869
0.0264639
0.0251889
0.0240047
0.0229013
0.0218802
0.0209457
0.0201009
0.0193471
0.0186847
0.0181166
0.0176537
0.0173181
0.0171429
0.0171889
0.0176011
0.018606
0.0992372
0.0719619
0.0537134
0.0430777
0.0372059
0.0338221
0.0316225
0.0299701
0.0285754
0.0273147
0.0261421
0.025048
0.0240383
0.0231244
0.0223183
0.0216319
0.0210776
0.0206727
0.0204424
0.0204208
0.0206332
0.0211414
0.0220608
0.0234275
0.109676
0.0795841
0.0591722
0.0471249
0.0404376
0.0366364
0.0342451
0.0325139
0.0310907
0.0298198
0.0286413
0.0275417
0.02653
0.0256245
0.0248475
0.0242227
0.0237765
0.0235394
0.0235474
0.0238161
0.024405
0.0253227
0.0266353
0.0282867
0.123303
0.0902151
0.0669174
0.0527632
0.0447693
0.0402516
0.0374982
0.0355933
0.0340877
0.0327741
0.0315666
0.0304419
0.0294082
0.0284901
0.0277201
0.0271356
0.0267779
0.0266923
0.0268946
0.0274443
0.0283703
0.0296459
0.0313044
0.0332266
0.138189
0.103363
0.0771635
0.0603797
0.0505334
0.0449073
0.0415519
0.0393357
0.0376706
0.0362692
0.0350031
0.0338284
0.0327469
0.0317863
0.0309888
0.0304064
0.0300975
0.0301205
0.0304687
0.0312553
0.0324688
0.034062
0.0360409
0.0382398
0.149655
0.11725
0.0894226
0.0701231
0.0580462
0.0508903
0.0466248
0.0439068
0.0419723
0.040421
0.0390584
0.0378048
0.0366461
0.035607
0.0347369
0.0341024
0.0337816
0.0338436
0.0342779
0.0352286
0.0366706
0.0385375
0.0408148
0.0433019
0.149424
0.127572
0.101534
0.0812503
0.0672577
0.0583746
0.0529193
0.0494804
0.0471378
0.0453573
0.0438539
0.0424928
0.0412296
0.0400766
0.0390842
0.0383305
0.0379136
0.0379374
0.0383631
0.0393757
0.0409686
0.0430502
0.0455945
0.0483784
0.136049
0.128218
0.110023
0.0916722
0.0772462
0.0671
0.0604277
0.0561324
0.0532604
0.0511738
0.0494905
0.0480039
0.0466235
0.0453354
0.0441807
0.0432424
0.0426364
0.0425022
0.04283
0.0437623
0.045392
0.0475997
0.0503582
0.0534387
)
;

boundaryField
{
    rotor
    {
        type            kqRWallFunction;
        value           nonuniform List<scalar> 
144
(
0.00407335
0.0104185
0.0210278
0.0325538
0.0420111
0.0545515
0.00407335
0.0165946
0.0206292
0.0226818
0.0241223
0.025034
0.0262118
0.0279961
0.0295136
0.0307414
0.0316611
0.0322793
0.0326038
0.0325542
0.0321003
0.0312328
0.0299559
0.0282872
0.0262515
0.0249167
0.0234841
0.0213652
0.0171211
0.00419846
0.00419846
0.0102314
0.0272737
0.054397
0.084177
0.115593
0.00379095
0.00800538
0.0215644
0.0449044
0.0771422
0.114857
0.00379095
0.0159904
0.020212
0.0224422
0.0239804
0.0250006
0.0261015
0.0272532
0.0281524
0.0287335
0.0289755
0.0289117
0.0284986
0.0277887
0.0269142
0.0258822
0.0250733
0.0248654
0.0242381
0.0231499
0.0215996
0.0195905
0.0157722
0.00401058
0.00401058
0.00816139
0.0133468
0.0178033
0.0232426
0.0653488
0.00579356
0.0362766
0.0783847
0.126563
0.154056
0.200263
0.00579356
0.0202889
0.0295743
0.037218
0.0437983
0.0492869
0.0537071
0.0571185
0.0595973
0.0612229
0.0620731
0.0622076
0.0617394
0.060699
0.0589965
0.0565931
0.0534642
0.049584
0.044922
0.0394531
0.0331694
0.026117
0.0176468
0.00438241
0.00438241
0.0231656
0.0547605
0.101167
0.137409
0.143066
0.00589189
0.0100884
0.0170331
0.0242174
0.043971
0.140134
0.00589189
0.0191453
0.0229943
0.0248973
0.0271843
0.0310169
0.0339516
0.0364272
0.0384629
0.0400133
0.0410749
0.0415824
0.0415231
0.0409061
0.0397918
0.0382613
0.0363845
0.0342044
0.0316853
0.0287363
0.0251858
0.023098
0.0188689
0.00534636
0.00534636
0.0229208
0.0512657
0.07822