/*--------------------------------*- C++ -*----------------------------------*\
  =========                 |
  \\      /  F ield         | OpenFOAM: The Open Source CFD Toolbox
   \\    /   O peration     | Website:  https://openfoam.org
    \\  /    A nd           | Version:  11
     \\/     M anipulation  |
\*---------------------------------------------------------------------------*/
FoamFile
{
    format      ascii;
    class       surfaceScalarField;
    location    "0.34";
    object      meshPhi;
}
// * * * * * * * * * * * * * * * * * * * * * * * * * * * * * * * * * * * * * //

dimensions      [0 3 -1 0 0 0 0];

internalField   nonuniform List<scalar> 
5640
(
1.36946e-16
9.81747e-07
2.42057e-16
1.37445e-06
3.76978e-16
1.76715e-06
-1.33935e-15
2.15984e-06
-3.68172e-15
2.55254e-06
2.94524e-06
5.95134e-15
1.83573e-18
9.81747e-07
-3.88859e-16
1.37445e-06
-2.60425e-15
1.76715e-06
1.94361e-15
2.15984e-06
8.06611e-15
2.55254e-06
2.94524e-06
-9.03012e-15
-1.16462e-16
9.81747e-07
1.86349e-16
1.37445e-06
-1.56243e-15
1.76715e-06
-4.2126e-15
2.15984e-06
-7.49844e-15
2.55254e-06
2.94524e-06
7.72066e-16
8.69282e-17
9.81747e-07
-1.01976e-16
1.37445e-06
2.69309e-15
1.76715e-06
7.44268e-15
2.15984e-06
3.2597e-15
2.55254e-06
2.94524e-06
-2.79806e-15
-4.8401e-17
9.81747e-07
3.94755e-17
1.37445e-06
1.9428e-16
1.76715e-06
-1.80619e-15
2.15984e-06
-4.20864e-15
2.55254e-06
2.94524e-06
5.01323e-15
-1.80111e-16
9.81747e-07
4.31106e-18
1.37445e-06
-1.84778e-15
1.76715e-06
-3.88624e-15
2.15984e-06
3.15694e-15
2.55254e-06
2.94524e-06
4.97985e-16
2.53983e-16
9.81747e-07
2.55388e-16
1.37445e-06
2.06594e-15
1.76715e-06
4.50395e-15
2.15984e-06
-2.31011e-15
2.55254e-06
2.94524e-06
5.4061e-16
2.16425e-17
9.81747e-07
-3.21734e-16
1.37445e-06
-1.14894e-15
1.76715e-06
-5.28575e-15
2.15984e-06
-3.76894e-16
2.55254e-06
2.94524e-06
-5.63997e-15
-1.43413e-16
9.81747e-07
1.66395e-16
1.37445e-06
4.19114e-15
1.76715e-06
6.34938e-15
2.15984e-06
-8.05765e-16
2.55254e-06
2.94524e-06
8.39233e-16
-6.88139e-17
9.81747e-07
-9.20443e-17
1.37445e-06
-2.7694e-15
1.76715e-06
-3.68828e-16
2.15984e-06
-1.45102e-15
2.55254e-06
2.94524e-06
-1.76623e-16
1.66305e-16
9.81747e-07
-8.87514e-17
1.37445e-06
5.69621e-16
1.76715e-06
-2.10353e-15
2.15984e-06
9.65988e-15
2.55254e-06
2.94524e-06
5.29009e-15
-1.77822e-16
9.81747e-07
-2.05712e-17
1.37445e-06
-3.45474e-16
1.76715e-06
-4.1727e-15
2.15984e-06
-2.62233e-15
2.55254e-06
2.94524e-06
5.36956e-15
1.77756e-16
9.81747e-07
2.04986e-17
1.37445e-06
3.45417e-16
1.76715e-06
4.17256e-15
2.15984e-06
2.6224e-15
2.55254e-06
2.94524e-06
-5.36956e-15
-1.66373e-16
9.81747e-07
8.86514e-17
1.37445e-06
-5.69641e-16
1.76715e-06
2.10341e-15
2.15984e-06
-9.6601e-15
2.55254e-06
2.94524e-06
-5.29033e-15
6.8796e-17
9.81747e-07
9.20297e-17
1.37445e-06
2.76943e-15
1.76715e-06
3.687e-16
2.15984e-06
1.45078e-15
2.55254e-06
2.94524e-06
1.76722e-16
1.43393e-16
9.81747e-07
-1.66496e-16
1.37445e-06
-4.19121e-15
1.76715e-06
-6.34947e-15
2.15984e-06
8.05473e-16
2.55254e-06
2.94524e-06
-8.39336e-16
-2.1673e-17
9.81747e-07
3.21645e-16
1.37445e-06
1.1489e-15
1.76715e-06
5.2855e-15
2.15984e-06
3.76558e-16
2.55254e-06
2.94524e-06
5.6398e-15
-2.53993e-16
9.81747e-07
-2.55469e-16
1.37445e-06
-2.06602e-15
1.76715e-06
-4.50418e-15
2.15984e-06
2.30992e-15
2.55254e-06
2.94524e-06
-5.40911e-16
1.80082e-16
9.81747e-07
-4.3829e-18
1.37445e-06
1.84775e-15
1.76715e-06
3.88604e-15
2.15984e-06
-3.15717e-15
2.55254e-06
2.94524e-06
-4.98061e-16
4.83685e-17
9.81747e-07
-3.95571e-17
1.37445e-06
-1.94431e-16
1.76715e-06
1.806e-15
2.15984e-06
4.20855e-15
2.55254e-06
2.94524e-06
-5.0134e-15
-8.69732e-17
9.81747e-07
1.01889e-16
1.37445e-06
-2.69326e-15
1.76715e-06
-7.44286e-15
2.15984e-06
-3.26007e-15
2.55254e-06
2.94524e-06
2.79791e-15
1.16454e-16
9.81747e-07
-1.86419e-16
1.37445e-06
1.56235e-15
1.76715e-06
4.21246e-15
2.15984e-06
7.49837e-15
2.55254e-06
2.94524e-06
-7.72578e-16
-1.8477e-18
9.81747e-07
3.88799e-16
1.37445e-06
2.60411e-15
1.76715e-06
-1.9436e-15
2.15984e-06
-8.0663e-15
2.55254e-06
2.94524e-06
9.02959e-15
-1.36966e-16
-2.42093e-16
-3.77074e-16
1.33925e-15
3.68148e-15
-5.95152e-15
-1.13361e-14
4.53785e-06
-4.53785e-06
-4.81431e-16
5.23599e-06
-5.23599e-06
-5.35723e-15
5.93412e-06
-5.93412e-06
-1.13038e-14
6.63225e-06
-6.63225e-06
4.86844e-15
7.33038e-06
-7.33038e-06
-1.11042e-15
8.02851e-06
-8.02851e-06
-8.15838e-15
8.72664e-06
-8.72664e-06
1.30438e-14
9.42478e-06
-9.42478e-06
5.9485e-15
1.01229e-05
-1.01229e-05
-1.99631e-15
1.0821e-05
-1.0821e-05
2.43858e-14
1.15192e-05
-1.15192e-05
1.61882e-14
1.22173e-05
-1.22173e-05
-3.27864e-14
1.29154e-05
-1.29154e-05
-3.05401e-15
1.36136e-05
-1.36136e-05
-1.4443e-14
1.43117e-05
-1.43117e-05
-2.69036e-14
1.50098e-05
-1.50098e-05
7.73833e-15
1.5708e-05
-1.5708e-05
-4.44037e-15
1.64061e-05
-1.64061e-05
-1.80013e-14
1.71042e-05
-1.71042e-05
2.18207e-14
1.78024e-05
-1.78024e-05
8.21161e-15
1.85005e-05
-1.85005e-05
-6.08227e-15
1.91986e-05
-1.91986e-05
3.89171e-14
1.98967e-05
-1.98967e-05
2.05949e-05
-2.05949e-05
9.39897e-15
4.53785e-06
5.19846e-16
5.23599e-06
7.52854e-15
5.93412e-06
-4.41196e-15
6.63225e-06
3.78262e-15
7.33038e-06
1.33839e-14
8.02851e-06
-2.11023e-15
8.72664e-06
8.52859e-15
9.42478e-06
-1.0027e-14
1.01229e-05
1.86533e-15
1.0821e-05
-2.02043e-14
1.15192e-05
-7.01301e-15
1.22173e-05
7.50974e-15
1.29154e-05
2.36077e-14
1.36136e-05
-2.04243e-15
1.43117e-05
1.48314e-14
1.50098e-05
-1.38825e-14
1.5708e-05
2.38913e-15
1.64061e-05
2.0411e-14
1.71042e-05
-7.01651e-15
1.78024e-05
1.20631e-14
1.85005e-05
-2.59444e-14
1.91986e-05
1.84326e-15
1.98967e-05
2.05949e-05
-8.67615e-15
4.53785e-06
1.22921e-14
5.23599e-06
1.88322e-15
5.93412e-06
8.90182e-15
6.63225e-06
-5.10873e-15
7.33038e-06
-2.1991e-14
8.02851e-06
1.22639e-14
8.72664e-06
-5.37432e-15
9.42478e-06
4.45597e-15
1.01229e-05
-1.43062e-14
1.0821e-05
-7.32686e-15
1.15192e-05
7.04021e-15
1.22173e-05
2.39934e-14
1.29154e-05
-7.55588e-15
1.36136e-05
9.80071e-15
1.43117e-05
-1.62397e-14
1.50098e-05
4.02925e-14
1.5708e-05
1.44457e-14
1.64061e-05
-1.3705e-14
1.71042e-05
-7.90002e-15
1.78024e-05
-3.92545e-14
1.85005e-05
4.2751e-14
1.91986e-05
-8.85965e-15
1.98967e-05
2.05949e-05
5.98569e-15
4.53785e-06
2.1888e-16
5.23599e-06
-6.43611e-15
5.93412e-06
6.06375e-15
6.63225e-06
-2.09291e-15
7.33038e-06
1.61758e-14
8.02851e-06
-1.88316e-14
8.72664e-06
-2.35203e-15
9.42478e-06
9.17116e-15
1.01229e-05
-4.71075e-15
1.0821e-05
2.1627e-14
1.15192e-05
-2.96456e-14
1.22173e-05
-9.28976e-15
1.29154e-05
-1.89078e-14
1.36136e-05
4.4646e-15
1.43117e-05
3.0153e-14
1.50098e-05
-2.62186e-14
1.5708e-05
4.36193e-16
1.64061e-05
-2.11714e-14
1.71042e-05
1.8711e-14
1.78024e-05
-3.92408e-15
1.85005e-05
-2.91637e-14
1.91986e-05
1.52338e-14
1.98967e-05
2.05949e-05
6.71486e-15
4.53785e-06
-7.30687e-15
5.23599e-06
1.11004e-14
5.93412e-06
-4.24116e-15
6.63225e-06
1.51018e-14
7.33038e-06
-5.20938e-15
8.02851e-06
1.70129e-14
8.72664e-06
-3.94173e-15
9.42478e-06
-2.95257e-16
1.01229e-05
6.61077e-15
1.0821e-05
1.37051e-14
1.15192e-05
1.01835e-14
1.22173e-05
1.82172e-14
1.29154e-05
1.43666e-14
1.36136e-05
2.33388e-14
1.43117e-05
-2.5346e-14
1.50098e-05
2.90701e-14
1.5708e-05
-7.82763e-15
1.64061e-05
3.54135e-14
1.71042e-05
-4.51351e-15
1.78024e-05
4.23668e-14
1.85005e-05
-5.88972e-16
1.91986e-05
-8.73211e-15
1.98967e-05
2.05949e-05
-4.63061e-15
4.53785e-06
5.79745e-15
5.23599e-06
-1.61506e-14
5.93412e-06
-5.97479e-15
6.63225e-06
-8.55545e-15
7.33038e-06
4.2233e-15
8.02851e-06
-8.18791e-15
8.72664e-06
6.99935e-15
9.42478e-06
-2.42312e-14
1.01229e-05
-7.76863e-15
1.0821e-05
-2.27642e-14
1.15192e-05
8.34897e-15
1.22173e-05
-7.4029e-15
1.29154e-05
2.82651e-14
1.36136e-05
-4.57106e-14
1.43117e-05
-8.22336e-15
1.50098e-05
-2.82268e-14
1.5708e-05
-2.34209e-15
1.64061e-05
-6.94789e-15
1.71042e-05
2.2149e-14
1.78024e-05
-3.41098e-14
1.85005e-05
-3.74099e-15
1.91986e-05
-3.2347e-14
1.98967e-05
2.05949e-05
-8.92511e-15
4.53785e-06
-2.28875e-15
5.23599e-06
-2.22415e-15
5.93412e-06
6.61564e-15
6.63225e-06
-3.38811e-15
7.33038e-06
-3.90692e-15
8.02851e-06
-6.41925e-15
8.72664e-06
-7.15922e-15
9.42478e-06
6.80969e-15
1.01229e-05
6.98329e-15
1.0821e-05
-9.06478e-15
1.15192e-05
6.75828e-15
1.22173e-05
-2.8889e-14
1.29154e-05
-1.2236e-14
1.36136e-05
4.80249e-15
1.43117e-05
2.50257e-14
1.50098e-05
3.86086e-15
1.5708e-05
3.60869e-15
1.64061e-05
-2.04837e-14
1.71042e-05
-2.17597e-14
1.78024e-05
3.46629e-15
1.85005e-05
2.9038e-14
1.91986e-05
-1.66509e-15
1.98967e-05
2.05949e-05
6.2157e-15
4.53785e-06
-3.87948e-15
5.23599e-06
1.54221e-14
5.93412e-06
-7.06543e-15
6.63225e-06
-2.21107e-15
7.33038e-06
1.4293e-15
8.02851e-06
-5.49442e-15
8.72664e-06
1.32256e-14
9.42478e-06
6.04511e-15
1.01229e-05
-1.74511e-14
1.0821e-05
2.08863e-14
1.15192e-05
-2.14452e-14
1.22173e-05
1.91322e-14
1.29154e-05
-7.31615e-15
1.36136e-05
3.84841e-14
1.43117e-05
-1.29236e-14
1.50098e-05
-1.88199e-15
1.5708e-05
5.7172e-15
1.64061e-05
-7.58528e-15
1.71042e-05
2.76593e-14
1.78024e-05
1.40925e-14
1.85005e-05
-5.31433e-14
1.91986e-05
3.90911e-14
1.98967e-05
2.05949e-05
-1.49875e-15
4.53785e-06
1.08967e-14
5.23599e-06
-6.59949e-15
5.93412e-06
7.26574e-15
6.63225e-06
6.17475e-15
7.33038e-06
2.48837e-15
8.02851e-06
-9.65507e-16
8.72664e-06
-4.36576e-15
9.42478e-06
-8.90204e-15
1.01229e-05
1.38614e-14
1.0821e-05
1.06903e-14
1.15192e-05
6.25056e-15
1.22173e-05
-1.29662e-16
1.29154e-05
-3.43991e-15
1.36136e-05
-1.10448e-14
1.43117e-05
-1.77675e-14
1.50098e-05
1.76815e-14
1.5708e-05
9.95349e-15
1.64061e-05
3.3281e-15
1.71042e-05
-3.29692e-14
1.78024e-05
-1.04259e-14
1.85005e-05
3.00612e-14
1.91986e-05
-5.99935e-14
1.98967e-05
2.05949e-05
5.16993e-15
4.53785e-06
-7.45575e-15
5.23599e-06
-7.56858e-16
5.93412e-06
6.8393e-15
6.63225e-06
-9.97383e-15
7.33038e-06
-1.66565e-15
8.02851e-06
9.21796e-15
8.72664e-06
-1.34602e-14
9.42478e-06
2.322e-14
1.01229e-05
1.04714e-14
1.0821e-05
-1.72722e-14
1.15192e-05
-3.02743e-15
1.22173e-05
1.13966e-14
1.29154e-05
-1.98187e-14
1.36136e-05
-4.67858e-15
1.43117e-05
5.0303e-14
1.50098e-05
-2.4045e-14
1.5708e-05
-6.66261e-15
1.64061e-05
1.42593e-14
1.71042e-05
1.64883e-15
1.78024e-05
-6.81017e-15
1.85005e-05
1.44421e-14
1.91986e-05
5.07552e-14
1.98967e-05
2.05949e-05
-6.19736e-15
4.53785e-06
2.84511e-17
5.23599e-06
1.1511e-14
5.93412e-06
-2.06265e-14
6.63225e-06
5.36603e-15
7.33038e-06
1.22134e-15
8.02851e-06
-4.78245e-17
8.72664e-06
1.23931e-14
9.42478e-06
-1.32269e-14
1.01229e-05
-1.88959e-14
1.0821e-05
-4.96546e-15
1.15192e-05
-7.15575e-15
1.22173e-05
-1.48884e-14
1.29154e-05
3.53379e-14
1.36136e-05
-2.05029e-18
1.43117e-05
-4.31418e-14
1.50098e-05
1.35592e-14
1.5708e-05
-2.82558e-14
1.64061e-05
2.45206e-15
1.71042e-05
-1.02415e-14
1.78024e-05
2.38073e-14
1.85005e-05
1.38751e-14
1.91986e-05
-4.55664e-14
1.98967e-05
2.05949e-05
-1.90682e-15
4.53785e-06
1.13072e-15
5.23599e-06
-2.16623e-14
5.93412e-06
9.62372e-15
6.63225e-06
1.51366e-14
7.33038e-06
-1.40656e-14
8.02851e-06
8.0932e-15
8.72664e-06
-2.69599e-14
9.42478e-06
-1.96667e-15
1.01229e-05
2.97186e-14
1.0821e-05
-1.17455e-14
1.15192e-05
1.98663e-14
1.22173e-05
-2.74475e-14
1.29154e-05
-2.06177e-14
1.36136e-05
1.60419e-14
1.43117e-05
-4.61586e-15
1.50098e-05
4.68954e-15
1.5708e-05
4.79652e-14
1.64061e-05
-1.37382e-14
1.71042e-05
3.23728e-14
1.78024e-05
-3.51818e-14
1.85005e-05
-2.49045e-14
1.91986e-05
7.19095e-14
1.98967e-05
2.05949e-05
1.90655e-15
4.53785e-06
-1.13054e-15
5.23599e-06
2.16616e-14
5.93412e-06
-9.62367e-15
6.63225e-06
-1.51375e-14
7.33038e-06
1.40644e-14
8.02851e-06
-8.09349e-15
8.72664e-06
2.69587e-14
9.42478e-06
1.96473e-15
1.01229e-05
-2.97161e-14
1.0821e-05
1.17451e-14
1.15192e-05
-1.9867e-14
1.22173e-05
2.7444e-14
1.29154e-05
2.0613e-14
1.36136e-05
-1.60392e-14
1.43117e-05
4.61343e-15
1.50098e-05
-4.69431e-15
1.5708e-05
-4.79721e-14
1.64061e-05
1.37385e-14
1.71042e-05
-3.2374e-14
1.78024e-05
3.51884e-14
1.85005e-05
2.49042e-14
1.91986e-05
-7.19184e-14
1.98967e-05
2.05949e-05
6.19712e-15
4.53785e-06
-2.85442e-17
5.23599e-06
-1.15121e-14
5.93412e-06
2.06256e-14
6.63225e-06
-5.36706e-15
7.33038e-06
-1.2225e-15
8.02851e-06
4.60822e-17
8.72664e-06
-1.23947e-14
9.42478e-06
1.32236e-14
1.01229e-05
1.88944e-14
1.0821e-05
4.96262e-15
1.15192e-05
7.15425e-15
1.22173e-05
1.48862e-14
1.29154e-05
-3.53419e-14
1.36136e-05
8.69816e-19
1.43117e-05
4.31345e-14
1.50098e-05
-1.35633e-14
1.5708e-05
2.82545e-14
1.64061e-05
-2.45735e-15
1.71042e-05
1.02357e-14
1.78024e-05
-2.38056e-14
1.85005e-05
-1.38788e-14
1.91986e-05
4.55637e-14
1.98967e-05
2.05949e-05
-5.17054e-15
4.53785e-06
7.45526e-15
5.23599e-06
7.56628e-16
5.93412e-06
-6.84007e-15
6.63225e-06
9.97369e-15
7.33038e-06
1.66387e-15
8.02851e-06
-9.22033e-15
8.72664e-06
1.34589e-14
9.42478e-06
-2.32217e-14
1.01229e-05
-1.04733e-14
1.0821e-05
1.72725e-14
1.15192e-05
3.02651e-15
1.22173e-05
-1.14e-14
1.29154e-05
1.98136e-14
1.36136e-05
4.67805e-15
1.43117e-05
-5.03101e-14
1.50098e-05
2.40437e-14
1.5708e-05
6.65547e-15
1.64061e-05
-1.4263e-14
1.71042e-05
-1.65534e-15
1.78024e-05
6.80511e-15
1.85005e-05
-1.44416e-14
1.91986e-05
-5.07568e-14
1.98967e-05
2.05949e-05
1.49831e-15
4.53785e-06
-1.08974e-14
5.23599e-06
6.59911e-15
5.93412e-06
-7.26553e-15
6.63225e-06
-6.17549e-15
7.33038e-06
-2.48864e-15
8.02851e-06
9.63836e-16
8.72664e-06
4.36456e-15
9.42478e-06
8.90076e-15
1.01229e-05
-1.3863e-14
1.0821e-05
-1.06909e-14
1.15192e-05
-6.25051e-15
1.22173e-05
1.24773e-16
1.29154e-05
3.4363e-15
1.36136e-05
1.10436e-14
1.43117e-05
1.77637e-14
1.50098e-05
-1.76799e-14
1.5708e-05
-9.95456e-15
1.64061e-05
-3.33046e-15
1.71042e-05
3.29657e-14
1.78024e-05
1.04193e-14
1.85005e-05
-3.00714e-14
1.91986e-05
5.99889e-14
1.98967e-05
2.05949e-05
-6.21592e-15
4.53785e-06
3.87901e-15
5.23599e-06
-1.54225e-14
5.93412e-06
7.0652e-15
6.63225e-06
2.20987e-15
7.33038e-06
-1.4299e-15
8.02851e-06
5.49255e-15
8.72664e-06
-1.32267e-14
9.42478e-06
-6.04727e-15
1.01229e-05
1.74499e-14
1.0821e-05
-2.0888e-14
1.15192e-05
2.14445e-14
1.22173e-05
-1.91392e-14
1.29154e-05
7.31509e-15
1.36136e-05
-3.8485e-14
1.43117e-05
1.29259e-14
1.50098e-05
1.88289e-15
1.5708e-05
-5.71959e-15
1.64061e-05
7.58369e-15
1.71042e-05
-2.76594e-14
1.78024e-05
-1.4101e-14
1.85005e-05
5.31371e-14
1.91986e-05
-3.90909e-14
1.98967e-05
2.05949e-05
8.92502e-15
4.53785e-06
2.28864e-15
5.23599e-06
2.22379e-15
5.93412e-06
-6.61649e-15
6.63225e-06
3.38757e-15
7.33038e-06
3.90636e-15
8.02851e-06
6.41888e-15
8.72664e-06
7.1575e-15
9.42478e-06
-6.81009e-15
1.01229e-05
-6.98299e-15
1.0821e-05
9.06305e-15
1.15192e-05
-6.7613e-15
1.22173e-05
2.8886e-14
1.29154e-05
1.22324e-14
1.36136e-05
-4.80365e-15
1.43117e-05
-2.50256e-14
1.50098e-05
-3.86357e-15
1.5708e-05
-3.61184e-15
1.64061e-05
2.04798e-14
1.71042e-05
2.17587e-14
1.78024e-05
-3.46823e-15
1.85005e-05
-2.90422e-14
1.91986e-05
1.66363e-15
1.98967e-05
2.05949e-05
4.63027e-15
4.53785e-06
-5.79775e-15
5.23599e-06
1.61501e-14
5.93412e-06
5.97507e-15
6.63225e-06
8.55499e-15
7.33038e-06
-4.225e-15
8.02851e-06
8.18688e-15
8.72664e-06
-7.0008e-15
9.42478e-06
2.42285e-14
1.01229e-05
7.7682e-15
1.0821e-05
2.27624e-14
1.15192e-05
-8.35073e-15
1.22173e-05
7.40041e-15
1.29154e-05
-2.82676e-14
1.36136e-05
4.571e-14
1.43117e-05
8.22021e-15
1.50098e-05
2.82256e-14
1.5708e-05
2.33785e-15
1.64061e-05
6.94289e-15
1.71042e-05
-2.21486e-14
1.78024e-05
3.41108e-14
1.85005e-05
3.73594e-15
1.91986e-05
3.23427e-14
1.98967e-05
2.05949e-05
-6.71513e-15
4.53785e-06
7.30663e-15
5.23599e-06
-1.11011e-14
5.93412e-06
4.24104e-15
6.63225e-06
-1.5103e-14
7.33038e-06
5.2091e-15
8.02851e-06
-1.70146e-14
8.72664e-06
3.94014e-15
9.42478e-06
2.92864e-16
1.01229e-05
-6.61267e-15
1.0821e-05
-1.37067e-14
1.15192e-05
-1.01863e-14
1.22173e-05
-1.82198e-14
1.29154e-05
-1.43685e-14
1.36136e-05
-2.33421e-14
1.43117e-05
2.53408e-14
1.50098e-05
-2.90745e-14
1.5708e-05
7.8275e-15
1.64061e-05
-3.54193e-14
1.71042e-05
4.50991e-15
1.78024e-05
-4.23719e-14
1.85005e-05
5.82319e-16
1.91986e-05
8.7309e-15
1.98967e-05
2.05949e-05
-5.98609e-15
4.53785e-06
-2.19196e-16
5.23599e-06
6.43536e-15
5.93412e-06
-6.06501e-15
6.63225e-06
2.09203e-15
7.33038e-06
-1.61773e-14
8.02851e-06
1.88298e-14
8.72664e-06
2.35036e-15
9.42478e-06
-9.17247e-15
1.01229e-05
4.71002e-15
1.0821e-05
-2.16278e-14
1.15192e-05
2.96434e-14
1.22173e-05
9.28887e-15
1.29154e-05
1.89038e-14
1.36136e-05
-4.46756e-15
1.43117e-05
-3.0157e-14
1.50098e-05
2.62125e-14
1.5708e-05
-4.37063e-16
1.64061e-05
2.11705e-14
1.71042e-05
-1.87198e-14
1.78024e-05
3.92267e-15
1.85005e-05
2.91577e-14
1.91986e-05
-1.52395e-14
1.98967e-05
2.05949e-05
8.67585e-15
4.53785e-06
-1.22927e-14
5.23599e-06
-1.88345e-15
5.93412e-06
-8.90259e-15
6.63225e-06
5.10885e-15
7.33038e-06
2.19904e-14
8.02851e-06
-1.2265e-14
8.72664e-06
5.37328e-15
9.42478e-06
-4.45733e-15
1.01229e-05
1.43049e-14
1.0821e-05
7.32515e-15
1.15192e-05
-7.04171e-15
1.22173e-05
-2.39964e-14
1.29154e-05
7.5545e-15
1.36136e-05
-9.80074e-15
1.43117e-05
1.62367e-14
1.50098e-05
-4.02967e-14
1.5708e-05
-1.44479e-14
1.64061e-05
1.37045e-14
1.71042e-05
7.8937e-15
1.78024e-05
3.92488e-14
1.85005e-05
-4.2753e-14
1.91986e-05
8.84999e-15
1.98967e-05
2.05949e-05
-9.39926e-15
4.53785e-06
-5.20526e-16
5.23599e-06
-7.52872e-15
5.93412e-06
4.41152e-15
6.63225e-06
-3.78347e-15
7.33038e-06
-1.33846e-14
8.02851e-06
2.10905e-15
8.72664e-06
-8.53008e-15
9.42478e-06
1.00265e-14
1.01229e-05
-1.8668e-15
1.0821e-05
2.02002e-14
1.15192e-05
7.01012e-15
1.22173e-05
-7.51324e-15
1.29154e-05
-2.3608e-14
1.36136e-05
2.04173e-15
1.43117e-05
-1.48345e-14
1.50098e-05
1.38766e-14
1.5708e-05
-2.39524e-15
1.64061e-05
-2.04113e-14
1.71042e-05
7.01541e-15
1.78024e-05
-1.20674e-14
1.85005e-05
2.5939e-14
1.91986e-05
-1.8568e-15
1.98967e-05
2.05949e-05
1.13357e-14
4.53785e-06
4.81012e-16
5.23599e-06
5.35714e-15
5.93412e-06
1.13034e-14
6.63225e-06
-4.86998e-15
7.33038e-06
1.10905e-15
8.02851e-06
8.1577e-15
8.72664e-06
-1.30454e-14
9.42478e-06
-5.95029e-15
1.01229e-05
1.99574e-15
1.0821e-05
-2.43885e-14
1.15192e-05
-1.61901e-14
1.22173e-05
3.2785e-14
1.29154e-05
3.05327e-15
1.36136e-05
1.44388e-14
1.43117e-05
2.69017e-14
1.50098e-05
-7.74314e-15
1.5708e-05
4.43621e-15
1.64061e-05
1.79979e-14
1.71042e-05
-2.18252e-14
1.78024e-05
-8.2139e-15
1.85005e-05
6.07905e-15
1.91986e-05
-3.89262e-14
1.98967e-05
2.05949e-05
1.36946e-16
9.81747e-07
2.42062e-16
1.37445e-06
3.76932e-16
1.76715e-06
-1.33935e-15
2.15984e-06
-3.6816e-15
2.55254e-06
2.94524e-06
5.95119e-15
1.83573e-18
9.81747e-07
-3.88859e-16
1.37445e-06
-2.60425e-15
1.76715e-06
1.94361e-15
2.15984e-06
8.06611e-15
2.55254e-06
2.94524e-06
-9.03012e-15
-1.16462e-16
9.81747e-07
1.86349e-16
1.37445e-06
-1.56243e-15
1.76715e-06
-4.2126e-15
2.15984e-06
-7.49844e-15
2.55254e-06
2.94524e-06
7.72066e-16
8.69282e-17
9.81747e-07
-1.01976e-16
1.37445e-06
2.69309e-15
1.76715e-06
7.44268e-15
2.15984e-06
3.2597e-15
2.55254e-06
2.94524e-06
-2.79806e-15
-4.8401e-17
9.81747e-07
3.94755e-17
1.37445e-06
1.9428e-16
1.76715e-06
-1.80619e-15
2.15984e-06
-4.20864e-15
2.55254e-06
2.94524e-06
5.01323e-15
-1.80111e-16
9.81747e-07
4.31106e-18
1.37445e-06
-1.84778e-15
1.76715e-06
-3.88624e-15
2.15984e-06
3.15694e-15
2.55254e-06
2.94524e-06
4.97985e-16
2.53983e-16
9.81747e-07
2.55388e-16
1.37445e-06
2.06594e-15
1.76715e-06
4.50395e-15
2.15984e-06
-2.31011e-15
2.55254e-06
2.94524e-06
5.4061e-16
2.16425e-17
9.81747e-07
-3.21734e-16
1.37445e-06
-1.14894e-15
1.76715e-06
-5.28575e-15
2.15984e-06
-3.76894e-16
2.55254e-06
2.94524e-06
-5.63997e-15
-1.43413e-16
9.81747e-07
1.66395e-16
1.37445e-06
4.19114e-15
1.76715e-06
6.34938e-15
2.15984e-06
-8.05765e-16
2.55254e-06
2.94524e-06
8.39233e-16
-6.88139e-17
9.81747e-07
-9.20443e-17
1.37445e-06
-2.7694e-15
1.76715e-06
-3.68828e-16
2.15984e-06
-1.45102e-15
2.55254e-06
2.94524e-06
-1.76623e-16
1.66305e-16
9.81747e-07
-8.87514e-17
1.37445e-06
5.69621e-16
1.76715e-06
-2.10353e-15
2.15984e-06
9.65988e-15
2.55254e-06
2.94524e-06
5.29009e-15
-1.77822e-16
9.81747e-07
-2.05712e-17
1.37445e-06
-3.45474e-16
1.76715e-06
-4.1727e-15
2.15984e-06
-2.62233e-15
2.55254e-06
2.94524e-06
5.36956e-15
1.77756e-16
9.81747e-07
2.04986e-17
1.37445e-06
3.45417e-16
1.76715e-06
4.17256e-15
2.15984e-06
2.6224e-15
2.55254e-06
2.94524e-06
-5.36956e-15
-1.66373e-16
9.81747e-07
8.86514e-17
1.37445e-06
-5.69641e-16
1.76715e-06
2.10341e-15
2.15984e-06
-9.6601e-15
2.55254e-06
2.94524e-06
-5.29033e-15
6.8796e-17
9.81747e-07
9.20297e-17
1.37445e-06
2.76943e-15
1.76715e-06
3.687e-16
2.15984e-06
1.45078e-15
2.55254e-06
2.94524e-06
1.76722e-16
1.43393e-16
9.81747e-07
-1.66496e-16
1.37445e-06
-4.19121e-15
1.76715e-06
-6.34947e-15
2.15984e-06
8.05473e-16
2.55254e-06
2.94524e-06
-8.39336e-16
-2.1673e-17
9.81747e-07
3.21645e-16
1.37445e-06
1.1489e-15
1.76715e-06
5.2855e-15
2.15984e-06
3.76558e-16
2.55254e-06
2.94524e-06
5.6398e-15
-2.53993e-16
9.81747e-07
-2.55469e-16
1.37445e-06
-2.06602e-15
1.76715e-06
-4.50418e-15
2.15984e-06
2.30992e-15
2.55254e-06
2.94524e-06
-5.40911e-16
1.80082e-16
9.81747e-07
-4.3829e-18
1.37445e-06
1.84775e-15
1.76715e-06
3.88604e-15
2.15984e-06
-3.15717e-15
2.55254e-06
2.94524e-06
-4.98061e-16
4.83685e-17
9.81747e-07
-3.95571e-17
1.37445e-06
-1.94431e-16
1.76715e-06
1.806e-15
2.15984e-06
4.20855e-15
2.55254e-06
2.94524e-06
-5.0134e-15
-8.69732e-17
9.81747e-07
1.01889e-16
1.37445e-06
-2.69326e-15
1.76715e-06
-7.44286e-15
2.15984e-06
-3.26007e-15
2.55254e-06
2.94524e-06
2.79791e-15
1.16454e-16
9.81747e-07
-1.86419e-16
1.37445e-06
1.56235e-15
1.76715e-06
4.21246e-15
2.15984e-06
7.49837e-15
2.55254e-06
2.94524e-06
-7.72578e-16
-1.8477e-18
9.81747e-07
3.88799e-16
1.37445e-06
2.60411e-15
1.76715e-06
-1.9436e-15
2.15984e-06
-8.0663e-15
2.55254e-06
2.94524e-06
9.02959e-15
-1.3697e-16
-2.42108e-16
-3.77045e-16
1.33925e-15
3.68151e-15
-5.95152e-15
-1.13361e-14
4.53785e-06
-4.81546e-16
5.23599e-06
-5.35739e-15
5.93412e-06
-1.13034e-14
6.63225e-06
4.86862e-15
7.33038e-06
-1.11035e-15
8.02851e-06
-8.15839e-15
8.72664e-06
1.30436e-14
9.42478e-06
5.94881e-15
1.01229e-05
-1.99643e-15
1.0821e-05
2.43865e-14
1.15192e-05
1.61882e-14
1.22173e-05
-3.27864e-14
1.29154e-05
-3.05401e-15
1.36136e-05
-1.44425e-14
1.43117e-05
-2.69033e-14
1.50098e-05
7.73766e-15
1.5708e-05
-4.44139e-15
1.64061e-05
-1.80034e-14
1.71042e-05
2.18225e-14
1.78024e-05
8.21346e-15
1.85005e-05
-6.08192e-15
1.91986e-05
3.89154e-14
1.98967e-05
2.05949e-05
9.39897e-15
4.53785e-06
5.19846e-16
5.23599e-06
7.52854e-15
5.93412e-06
-4.41196e-15
6.63225e-06
3.78262e-15
7.33038e-06
1.33839e-14
8.02851e-06
-2.11023e-15
8.72664e-06
8.52859e-15
9.42478e-06
-1.0027e-14
1.01229e-05
1.86533e-15
1.0821e-05
-2.02043e-14
1.15192e-05
-7.01301e-15
1.22173e-05
7.50974e-15
1.29154e-05
2.36077e-14
1.36136e-05
-2.04243e-15
1.43117e-05
1.48314e-14
1.50098e-05
-1.38825e-14
1.5708e-05
2.38913e-15
1.64061e-05
2.0411e-14
1.71042e-05
-7.01651e-15
1.78024e-05
1.20631e-14
1.85005e-05
-2.59444e-14
1.91986e-05
1.84326e-15
1.98967e-05
2.05949e-05
-8.67615e-15
4.53785e-06
1.22921e-14
5.23599e-06
1.88322e-15
5.93412e-06
8.90182e-15
6.63225e-06
-5.10873e-15
7.33038e-06
-2.1991e-14
8.02851e-06
1.22639e-14
8.72664e-06
-5.37432e-15
9.42478e-06
4.45597e-15
1.01229e-05
-1.43062e-14
1.0821e-05
-7.32686e-15
1.15192e-05
7.04021e-15
1.22173e-05
2.39934e-14
1.29154e-05
-7.55588e-15
1.36136e-05
9.80071e-15
1.43117e-05
-1.62397e-14
1.50098e-05
4.02925e-14
1.5708e-05
1.44457e-14
1.64061e-05
-1.3705e-14
1.71042e-05
-7.90002e-15
1.78024e-05
-3.92545e-14
1.85005e-05
4.2751e-14
1.91986e-05
-8.85965e-15
1.98967e-05
2.05949e-05
5.98569e-15
4.53785e-06
2.1888e-16
5.23599e-06
-6.43611e-15
5.93412e-06
6.06375e-15
6.63225e-06
-2.09291e-15
7.33038e-06
1.61758e-14
8.02851e-06
-1.88316e-14
8.72664e-06
-2.35203e-15
9.42478e-06
9.17116e-15
1.01229e-05
-4.71075e-15
1.0821e-05
2.1627e-14
1.15192e-05
-2.96456e-14
1.22173e-05
-9.28976e-15
1.29154e-05
-1.89078e-14
1.36136e-05
4.4646e-15
1.43117e-05
3.0153e-14
1.50098e-05
-2.62186e-14
1.5708e-05
4.36193e-16
1.64061e-05
-2.11714e-14
1.71042e-05
1.8711e-14
1.78024e-05
-3.92408e-15
1.85005e-05
-2.91637e-14
1.91986e-05
1.52338e-14
1.98967e-05
2.05949e-05
6.71486e-15
4.53785e-06
-7.30687e-15
5.23599e-06
1.11004e-14
5.93412e-06
-4.24116e-15
6.63225e-06
1.51018e-14
7.33038e-06
-5.20938e-15
8.02851e-06
1.70129e-14
8.72664e-06
-3.94173e-15
9.42478e-06
-2.95257e-16
1.01229e-05
6.61077e-15
1.0821e-05
1.37051e-14
1.15192e-05
1.01835e-14
1.22173e-05
1.82172e-14
1.29154e-05
1.43666e-14
1.36136e-05
2.33388e-14
1.43117e-05
-2.5346e-14
1.50098e-05
2.90701e-14
1.5708e-05
-7.82763e-15
1.64061e-05
3.54135e-14
1.71042e-05
-4.51351e-15
1.78024e-05
4.23668e-14
1.85005e-05
-5.88972e-16
1.91986e-05
-8.73211e-15
1.98967e-05
2.05949e-05
-4.63061e-15
4.53785e-06
5.79745e-15
5.23599e-06
-1.61506e-14
5.93412e-06
-5.97479e-15
6.63225e-06
-8.55545e-15
7.33038e-06
4.2233e-15
8.02851e-06
-8.18791e-15
8.72664e-06
6.99935e-15
9.42478e-06
-2.42312e-14
1.01229e-05
-7.76863e-15
1.0821e-05
-2.27642e-14
1.15192e-05
8.34897e-15
1.22173e-05
-7.4029e-15
1.29154e-05
2.82651e-14
1.36136e-05
-4.57106e-14
1.43117e-05
-8.22336e-15
1.50098e-05
-2.82268e-14
1.5708e-05
-2.34209e-15
1.64061e-05
-6.94789e-15
1.71042e-05
2.2149e-14
1.78024e-05
-3.41098e-14
1.85005e-05
-3.74099e-15
1.91986e-05
-3.2347e-14
1.98967e-05
2.05949e-05
-8.92511e-15
4.53785e-06
-2.28875e-15
5.23599e-06
-2.22415e-15
5.93412e-06
6.61564e-15
6.63225e-06
-3.38811e-15
7.33038e-06
-3.90692e-15
8.02851e-06
-6.41925e-15
8.72664e-06
-7.15922e-15
9.42478e-06
6.80969e-15
1.01229e-05
6.98329e-15
1.0821e-05
-9.06478e-15
1.15192e-05
6.75828e-15
1.22173e-05
-2.8889e-14
1.29154e-05
-1.2236e-14
1.36136e-05
4.80249e-15
1.43117e-05
2.50257e-14
1.50098e-05
3.86086e-15
1.5708e-05
3.60869e-15
1.64061e-05
-2.04837e-14
1.71042e-05
-2.17597e-14
1.78024e-05
3.46629e-15
1.85005e-05
2.9038e-14
1.91986e-05
-1.66509e-15
1.98967e-05
2.05949e-05
6.2157e-15
4.53785e-06
-3.87948e-15
5.23599e-06
1.54221e-14
5.93412e-06
-7.06543e-15
6.63225e-06
-2.21107e-15
7.33038e-06
1.4293e-15
8.02851e-06
-5.49442e-15
8.72664e-06
1.32256e-14
9.42478e-06
6.04511e-15
1.01229e-05
-1.74511e-14
1.0821e-05
2.08863e-14
1.15192e-05
-2.14452e-14
1.22173e-05
1.91322e-14
1.29154e-05
-7.31615e-15
1.36136e-05
3.84841e-14
1.43117e-05
-1.29236e-14
1.50098e-05
-1.88199e-15
1.5708e-05
5.7172e-15
1.64061e-05
-7.58528e-15
1.71042e-05
2.76593e-14
1.78024e-05
1.40925e-14
1.85005e-05
-5.31433e-14
1.91986e-05
3.90911e-14
1.98967e-05
2.05949e-05
-1.49875e-15
4.53785e-06
1.08967e-14
5.23599e-06
-6.59949e-15
5.93412e-06
7.26574e-15
6.63225e-06
6.17475e-15
7.33038e-06
2.48837e-15
8.02851e-06
-9.65507e-16
8.72664e-06
-4.36576e-15
9.42478e-06
-8.90204e-15
1.01229e-05
1.38614e-14
1.0821e-05
1.06903e-14
1.15192e-05
6.25056e-15
1.22173e-05
-1.29662e-16
1.29154e-05
-3.43991e-15
1.36136e-05
-1.10448e-14
1.43117e-05
-1.77675e-14
1.50098e-05
1.76815e-14
1.5708e-05
9.95349e-15
1.64061e-05
3.3281e-15
1.71042e-05
-3.29692e-14
1.78024e-05
-1.04259e-14
1.85005e-05
3.00612e-14
1.91986e-05
-5.99935e-14
1.98967e-05
2.05949e-05
5.16993e-15
4.53785e-06
-7.45575e-15
5.23599e-06
-7.56858e-16
5.93412e-06
6.8393e-15
6.63225e-06
-9.97383e-15
7.33038e-06
-1.66565e-15
8.02851e-06
9.21796e-15
8.72664e-06
-1.34602e-14
9.42478e-06
2.322e-14
1.01229e-05
1.04714e-14
1.0821e-05
-1.72722e-14
1.15192e-05
-3.02743e-15
1.22173e-05
1.13966e-14
1.29154e-05
-1.98187e-14
1.36136e-05
-4.67858e-15
1.43117e-05
5.0303e-14
1.50098e-05
-2.4045e-14
1.5708e-05
-6.66261e-15
1.64061e-05
1.42593e-14
1.71042e-05
1.64883e-15
1.78024e-05
-6.81017e-15
1.85005e-05
1.44421e-14
1.91986e-05
5.07552e-14
1.98967e-05
2.05949e-05
-6.19736e-15
4.53785e-06
2.84511e-17
5.23599e-06
1.1511e-14
5.93412e-06
-2.06265e-14
6.63225e-06
5.36603e-15
7.33038e-06
1.22134e-15
8.02851e-06
-4.78245e-17
8.72664e-06
1.23931e-14
9.42478e-06
-1.32269e-14
1.01229e-05
-1.88959e-14
1.0821e-05
-4.96546e-15
1.15192e-05
-7.15575e-15
1.22173e-05
-1.48884e-14
1.29154e-05
3.53379e-14
1.36136e-05
-2.05029e-18
1.43117e-05
-4.31418e-14
1.50098e-05
1.35592e-14
1.5708e-05
-2.82558e-14
1.64061e-05
2.45206e-15
1.71042e-05
-1.02415e-14
1.78024e-05
2.38073e-14
1.85005e-05
1.38751e-14
1.91986e-05
-4.55664e-14
1.98967e-05
2.05949e-05
-1.90682e-15
4.53785e-06
1.13072e-15
5.23599e-06
-2.16623e-14
5.93412e-06
9.62372e-15
6.63225e-06
1.51366e-14
7.33038e-06
-1.40656e-14
8.02851e-06
8.0932e-15
8.72664e-06
-2.69599e-14
9.42478e-06
-1.96667e-15
1.01229e-05
2.97186e-14
1.0821e-05
-1.17455e-14
1.15192e-05
1.98663e-14
1.22173e-05
-2.74475e-14
1.29154e-05
-2.06177e-14
1.36136e-05
1.60419e-14
1.43117e-05
-4.61586e-15
1.50098e-05
4.68954e-15
1.5708e-05
4.79652e-14
1.64061e-05
-1.37382e-14
1.71042e-05
3.23728e-14
1.78024e-05
-3.51818e-14
1.85005e-05
-2.49045e-14
1.91986e-05
7.19095e-14
1.98967e-05
2.05949e-05
1.90655e-15
4.53785e-06
-1.13054e-15
5.23599e-06
2.16616e-14
5.93412e-06
-9.62367e-15
6.63225e-06
-1.51375e-14
7.33038e-06
1.40644e-14
8.02851e-06
-8.09349e-15
8.72664e-06
2.69587e-14
9.42478e-06
1.96473e-15
1.01229e-05
-2.97161e-14
1.0821e-05
1.17451e-14
1.15192e-05
-1.9867e-14
1.22173e-05
2.7444e-14
1.29154e-05
2.0613e-14
1.36136e-05
-1.60392e-14
1.43117e-05
4.61343e-15
1.50098e-05
-4.69431e-15
1.5708e-05
-4.79721e-14
1.64061e-05
1.37385e-14
1.71042e-05
-3.2374e-14
1.78024e-05
3.51884e-14
1.85005e-05
2.49042e-14
1.91986e-05
-7.19184e-14
1.98967e-05
2.05949e-05
6.19712e-15
4.53785e-06
-2.85442e-17
5.23599e-06
-1.15121e-14
5.93412e-06
2.06256e-14
6.63225e-06
-5.36706e-15
7.33038e-06
-1.2225e-15
8.02851e-06
4.60822e-17
8.72664e-06
-1.23947e-14
9.42478e-06
1.32236e-14
1.01229e-05
1.88944e-14
1.0821e-05
4.96262e-15
1.15192e-05
7.15425e-15
1.22173e-05
1.48862e-14
1.29154e-05
-3.53419e-14
1.36136e-05
8.69816e-19
1.43117e-05
4.31345e-14
1.50098e-05
-1.35633e-14
1.5708e-05
2.82545e-14
1.64061e-05
-2.45735e-15
1.71042e-05
1.02357e-14
1.78024e-05
-2.38056e-14
1.85005e-05
-1.38788e-14
1.91986e-05
4.55637e-14
1.98967e-05
2.05949e-05
-5.17054e-15
4.53785e-06
7.45526e-15
5.23599e-06
7.56628e-16
5.93412e-06
-6.84007e-15
6.63225e-06
9.97369e-15
7.33038e-06
1.66387e-15
8.02851e-06
-9.22033e-15
8.72664e-06
1.34589e-14
9.42478e-06
-2.32217e-14
1.01229e-05
-1.04733e-14
1.0821e-05
1.72725e-14
1.15192e-05
3.02651e-15
1.22173e-05
-1.14e-14
1.29154e-05
1.98136e-14
1.36136e-05
4.67805e-15
1.43117e-05
-5.03101e-14
1.50098e-05
2.40437e-14
1.5708e-05
6.65547e-15
1.64061e-05
-1.4263e-14