/*--------------------------------*- C++ -*----------------------------------*\
  =========                 |
  \\      /  F ield         | OpenFOAM: The Open Source CFD Toolbox
   \\    /   O peration     | Website:  https://openfoam.org
    \\  /    A nd           | Version:  11
     \\/     M anipulation  |
\*---------------------------------------------------------------------------*/
FoamFile
{
    format      ascii;
    class       volScalarField;
    location    "0.34";
    object      p;
}
// * * * * * * * * * * * * * * * * * * * * * * * * * * * * * * * * * * * * * //

dimensions      [0 2 -2 0 0 0 0];

internalField   nonuniform List<scalar> 
2880
(
-0.297244
-0.28781
-0.288944
-0.295097
-0.308366
-0.340834
-0.298719
-0.290205
-0.293744
-0.302504
-0.317222
-0.352796
-0.301856
-0.293596
-0.299611
-0.309995
-0.323421
-0.346863
-0.304273
-0.296414
-0.304267
-0.314979
-0.326633
-0.342302
-0.305312
-0.298196
-0.307457
-0.318129
-0.328704
-0.340188
-0.30397
-0.29939
-0.309765
-0.32037
-0.330318
-0.339381
-0.302133
-0.300827
-0.311687
-0.32219
-0.331788
-0.339289
-0.301758
-0.303041
-0.313523
-0.323825
-0.333116
-0.339662
-0.30289
-0.305411
-0.315242
-0.325353
-0.334304
-0.340369
-0.30397
-0.307654
-0.316772
-0.326734
-0.335427
-0.341343
-0.304892
-0.309666
-0.318062
-0.327923
-0.336512
-0.34254
-0.305661
-0.311376
-0.319088
-0.328869
-0.337549
-0.343927
-0.306276
-0.312714
-0.319771
-0.329584
-0.338515
-0.345459
-0.306738
-0.313657
-0.320088
-0.330035
-0.339371
-0.347068
-0.307068
-0.314199
-0.320031
-0.330185
-0.340058
-0.348654
-0.307321
-0.314354
-0.319611
-0.329996
-0.340493
-0.350066
-0.307585
-0.31417
-0.318865
-0.329429
-0.340557
-0.351072
-0.307769
-0.313709
-0.317845
-0.328435
-0.340085
-0.351352
-0.306526
-0.313055
-0.316637
-0.326969
-0.338875
-0.350417
-0.303801
-0.312455
-0.315427
-0.325041
-0.336686
-0.34728
-0.302737
-0.312446
-0.314601
-0.322808
-0.333258
-0.340271
-0.304448
-0.313329
-0.314482
-0.320477
-0.328058
-0.326745
-0.307097
-0.314675
-0.314802
-0.317716
-0.319957
-0.304056
-0.308377
-0.315372
-0.314118
-0.313312
-0.308683
-0.274168
-0.208321
-0.170118
-0.14184
-0.119171
-0.0992134
-0.0814666
-0.0663886
-0.0532232
-0.0413052
-0.0299607
-0.0190517
-0.00836543
0.00218245
0.012569
0.0227241
0.0325083
0.0417535
0.0503329
0.0582192
0.0653645
0.0721132
0.0815779
0.0987212
0.0953801
-0.260521
-0.215447
-0.180259
-0.151507
-0.128418
-0.109169
-0.0928618
-0.0789006
-0.0670377
-0.0558599
-0.0449703
-0.0341687
-0.0233901
-0.012657
-0.00195568
0.00854725
0.0186708
0.0282193
0.0370556
0.0451095
0.0526343
0.0620454
0.0777362
0.0780424
-0.291776
-0.249896
-0.21319
-0.182862
-0.158011
-0.137234
-0.120182
-0.105743
-0.0930138
-0.0821094
-0.0719902
-0.0615263
-0.0507639
-0.0398074
-0.0284187
-0.0170212
-0.00577816
0.00509121
0.0153293
0.0247704
0.0335334
0.0433303
0.0576617
0.0613755
-0.312014
-0.276432
-0.241758
-0.211051
-0.185813
-0.16591
-0.149208
-0.134454
-0.121803
-0.110483
-0.0994774
-0.0894034
-0.0795099
-0.0688235
-0.057337
-0.0451391
-0.0324499
-0.0197835
-0.00756493
0.00394907
0.0146694
0.0255975
0.0391569
0.0460897
-0.323705
-0.296807
-0.266336
-0.237174
-0.212056
-0.191811
-0.175953
-0.163797
-0.153322
-0.142619
-0.131987
-0.121634
-0.110565
-0.0989161
-0.0874659
-0.0754554
-0.0620484
-0.0475078
-0.0327902
-0.0183264
-0.0046294
0.00860747
0.0226477
0.0328912
-0.330375
-0.311379
-0.286363
-0.26043
-0.236673
-0.216698
-0.201135
-0.189333
-0.180158
-0.173017
-0.166553
-0.158399
-0.147959
-0.136037
-0.122658
-0.10783
-0.0927182
-0.0772862
-0.0607287
-0.0431893
-0.0256065
-0.00852787
0.00791095
0.0220321
-0.33463
-0.321357
-0.301689
-0.279672
-0.25832
-0.239542
-0.224414
-0.212869
-0.204423
-0.19836
-0.193328
-0.188345
-0.182717
-0.174857
-0.163239
-0.147979
-0.130155
-0.110696
-0.0902685
-0.0695791
-0.0485586
-0.0269652
-0.00615636
0.0131356
-0.337799
-0.328386
-0.313079
-0.29483
-0.276152
-0.258982
-0.244533
-0.233208
-0.224884
-0.219018
-0.214791
-0.211419
-0.207724
-0.202314
-0.194464
-0.183646
-0.168822
-0.149466
-0.126148
-0.100253
-0.0733268
-0.0460846
-0.0199714
0.00581603
-0.340502
-0.333784
-0.321802
-0.306709
-0.290492
-0.274873
-0.261061
-0.249715
-0.240998
-0.234662
-0.230156
-0.226832
-0.223778
-0.219919
-0.214273
-0.205774
-0.193449
-0.176869
-0.156004
-0.13066
-0.101133
-0.0681487
-0.0345421
-0.000176907
-0.343041
-0.338406
-0.329032
-0.316535
-0.302451
-0.288217
-0.274904
-0.263239
-0.253576
-0.245949
-0.240069
-0.235456
-0.231516
-0.22742
-0.222136
-0.214661
-0.204132
-0.189798
-0.170976
-0.147121
-0.118247
-0.0843897
-0.0472633
-0.00618867
-0.345593
-0.342752
-0.335687
-0.325441
-0.313326
-0.300436
-0.287621
-0.275538
-0.264616
-0.255058
-0.246824
-0.239655
-0.23318
-0.22691
-0.220095
-0.211818
-0.201213
-0.187501
-0.170039
-0.148252
-0.121638
-0.0896848
-0.0529031
-0.0113293
-0.348329
-0.347146
-0.342376
-0.33429
-0.324195
-0.312846
-0.300787
-0.288528
-0.276449
-0.264781
-0.253635
-0.243014
-0.232724
-0.222525
-0.212107
-0.200881
-0.188223
-0.173409
-0.1558
-0.134993
-0.110718
-0.0825919
-0.050621
-0.0156435
-0.351421
-0.351875
-0.349366
-0.343686
-0.335944
-0.326562
-0.315802
-0.303933
-0.291179
-0.277652
-0.263672
-0.249377
-0.234663
-0.21948
-0.203916
-0.187886
-0.171091
-0.153238
-0.133923
-0.112825
-0.0898679
-0.0653774
-0.0401737
-0.0145136
-0.354893
-0.357112
-0.356988
-0.35403
-0.3491
-0.342337
-0.333704
-0.323208
-0.310853
-0.296685
-0.28081
-0.263333
-0.244074
-0.223374
-0.201798
-0.179668
-0.15721
-0.134571
-0.111847
-0.0889868
-0.0660163
-0.0430791
-0.0201616
0.00138402
-0.358767
-0.362878
-0.365398
-0.365503
-0.363936
-0.360566
-0.355263
-0.347734
-0.337378
-0.32374
-0.306408
-0.284898
-0.260095
-0.233384
-0.205396
-0.176774
-0.14817
-0.120151
-0.0931476
-0.0675246
-0.0434901
-0.0198948
0.00680191
0.0299427
-0.363041
-0.369126
-0.374536
-0.378043
-0.380507
-0.38154
-0.380475
-0.376281
-0.368011
-0.35491
-0.335996
-0.311888
-0.283625
-0.251918
-0.217761
-0.182508
-0.147492
-0.113852
-0.0825604
-0.0544295
-0.0299521
-0.008227
0.0130361
0.0258292
-0.367684
-0.375715
-0.384151
-0.391224
-0.39796
-0.403751
-0.407546
-0.407763
-0.402848
-0.39147
-0.373451
-0.34851
-0.317135
-0.280312
-0.239832
-0.197668
-0.156017
-0.116566
-0.0810236
-0.050578
-0.026228
-0.00866588
0.000993417
0.0010137
-0.372638
-0.38241
-0.393831
-0.404464
-0.415637
-0.426573
-0.435813
-0.441447
-0.441314
-0.433451
-0.416921
-0.391054
-0.356484
-0.314701
-0.268002
-0.218522
-0.170485
-0.125567
-0.0856635
-0.0521972
-0.0262649
-0.0089199
-0.00133428
-0.0016431
-0.377811
-0.388879
-0.403018
-0.41695
-0.432439
-0.448512
-0.463395
-0.474625
-0.47948
-0.475545
-0.460665
-0.434428
-0.397293
-0.351153
-0.299083
-0.244725
-0.191608
-0.142292
-0.0987534
-0.0623589
-0.0339547
-0.0139709
-0.00243096
0.00285682
-0.383044
-0.394712
-0.411126
-0.427727
-0.447024
-0.467706
-0.487629
-0.503821
-0.512934
-0.512243
-0.499099
-0.472828
-0.434117
-0.385422
-0.330476
-0.273262
-0.217433
-0.165896
-0.120593
-0.0826038
-0.0522723
-0.0292977
-0.0127541
-0.000325502
-0.387894
-0.399438
-0.417364
-0.435857
-0.457991
-0.482223
-0.505934
-0.525767
-0.537994
-0.53898
-0.526636
-0.500119
-0.460515
-0.410691
-0.35456
-0.296364
-0.239987
-0.188204
-0.142632
-0.103936
-0.0719982
-0.0458453
-0.0239011
-0.00620335
-0.391455
-0.402721
-0.421107
-0.440372
-0.464115
-0.490525
-0.516428
-0.538
-0.551186
-0.552413
-0.539538
-0.512094
-0.471572
-0.421119
-0.36487
-0.307191
-0.251838
-0.201146
-0.156379
-0.117912
-0.0856047
-0.0582241
-0.0345717
-0.0130393
-0.394733
-0.405272
-0.42223
-0.440738
-0.464781
-0.49188
-0.518319
-0.539821
-0.552117
-0.551844
-0.53709
-0.507897
-0.466228
-0.415663
-0.360435
-0.304791
-0.252072
-0.20383
-0.160835
-0.123801
-0.092039
-0.064453
-0.0401889
-0.0169233
-0.411058
-0.409848
-0.421215
-0.437116
-0.460128
-0.486592
-0.512041
-0.531788
-0.54158
-0.538277
-0.520524
-0.48902
-0.446329
-0.396354
-0.343224
-0.291022
-0.242189
-0.19751
-0.157916
-0.123254
-0.0930645
-0.0665873
-0.0429703
-0.0189717
-0.55707
-0.563812
-0.560265
-0.559745
-0.561038
-0.593661
-0.555141
-0.562425
-0.558922
-0.559283
-0.558309
-0.559033
-0.551055
-0.56027
-0.556752
-0.557202
-0.552692
-0.540792
-0.548203
-0.558468
-0.554936
-0.554724
-0.547262
-0.530442
-0.549792
-0.557616
-0.553991
-0.552755
-0.543144
-0.52345
-0.554337
-0.557623
-0.553949
-0.551611
-0.540518
-0.518972
-0.556981
-0.558043
-0.554545
-0.551321
-0.539433
-0.517147
-0.557692
-0.55851
-0.555573
-0.5518
-0.539932
-0.517829
-0.558274
-0.558905
-0.55691
-0.55306
-0.541894
-0.520667
-0.558935
-0.559177
-0.558475
-0.555047
-0.545052
-0.525263
-0.559647
-0.559297
-0.560174
-0.557622
-0.549085
-0.531189
-0.560262
-0.559256
-0.561908
-0.560612
-0.553656
-0.538029
-0.560649
-0.559031
-0.563602
-0.563847
-0.558402
-0.545508
-0.560709
-0.558547
-0.565202
-0.567191
-0.563044
-0.553513
-0.560372
-0.557708
-0.566688
-0.570605
-0.567912
-0.561697
-0.55974
-0.556292
-0.56811
-0.574134
-0.572565
-0.570664
-0.560707
-0.554832
-0.569526
-0.577845
-0.576967
-0.58078
-0.564085
-0.554975
-0.571034
-0.581798
-0.581191
-0.592215
-0.566205
-0.556041
-0.572496
-0.585904
-0.585489
-0.605167
-0.565949
-0.556827
-0.57361
-0.589922
-0.590397
-0.619905
-0.564792
-0.556687
-0.573853
-0.59339
-0.59658
-0.636777
-0.561199
-0.554951
-0.572613
-0.595228
-0.604151
-0.656977
-0.555811
-0.551997
-0.5704
-0.594845
-0.612123
-0.685745
-0.553184
-0.549964
-0.569451
-0.594519
-0.621499
-0.735866
-0.459579
-0.41721
-0.418965
-0.430297
-0.451096
-0.475674
-0.498735
-0.515279
-0.521126
-0.513599
-0.492176
-0.458294
-0.415109
-0.366582
-0.316468
-0.268827
-0.224746
-0.183957
-0.148212
-0.116874
-0.0892841
-0.0649226
-0.0427678
-0.0190206
-0.46962
-0.423007
-0.413842
-0.421161
-0.438983
-0.460505
-0.479883
-0.491928
-0.49263
-0.480186
-0.454953
-0.419221
-0.37651
-0.330608
-0.284799
-0.241305
-0.201449
-0.165935
-0.134191
-0.106128
-0.0813447
-0.0593123
-0.0387704
-0.0163624
-0.468661
-0.424192
-0.408073
-0.411069
-0.425012
-0.442422
-0.456985
-0.463284
-0.458092
-0.440578
-0.412052
-0.375411
-0.334185
-0.291636
-0.25022
-0.211524
-0.176336
-0.144875
-0.116999
-0.0923337
-0.0704421
-0.0506722
-0.0315663
-0.0112539
-0.467726
-0.423442
-0.40251
-0.400912
-0.410175
-0.422628
-0.43111
-0.430827
-0.419554
-0.397406
-0.366514
-0.32999
-0.29098
-0.252026
-0.214873
-0.180548
-0.149554
-0.122005
-0.0976938
-0.0761974
-0.0570244
-0.0393185
-0.0214648
-0.00389932
-0.467831
-0.422782
-0.397757
-0.391196
-0.395334
-0.401626
-0.403085
-0.395987
-0.37894
-0.353003
-0.320735
-0.285075
-0.248574
-0.213085
-0.179795
-0.149371
-0.122114
-0.0980288
-0.0768523
-0.0581557
-0.0413876
-0.0254625
-0.00862395
0.00560223
-0.469119
-0.422935
-0.393954
-0.382358
-0.380528
-0.379571
-0.373783
-0.360001
-0.33783
-0.309007
-0.276153
-0.24176
-0.207742
-0.175383
-0.145465
-0.118412
-0.0943829
-0.0732972
-0.054823
-0.0385226
-0.0238249
-0.00938542
0.00673886
0.0171874
-0.471855
-0.424075
-0.391148
-0.374162
-0.365268
-0.35692
-0.34387
-0.32377
-0.297221
-0.266324
-0.233424
-0.200439
-0.168708
-0.139075
-0.112032
-0.0878257
-0.0665057
-0.0479252
-0.0317084
-0.0174144
-0.00448815
0.00871795
0.0243995
0.0307669
-0.476123
-0.426061
-0.389145
-0.365861
-0.349695
-0.333893
-0.313585
-0.287707
-0.25759
-0.225299
-0.192686
-0.161096
-0.1314
-0.104105
-0.07948
-0.0576352
-0.0385391
-0.021997
-0.00761681
0.0050162
0.0164336
0.0286291
0.0440566
0.0461767
-0.481564
-0.428583
-0.387095
-0.357131
-0.33379
-0.310161
-0.282819
-0.251912
-0.219039
-0.185892
-0.153766
-0.12351
-0.0956134
-0.0703157
-0.0477106
-0.0277998
-0.0104929
0.00443147
0.0173499
0.0286217
0.0387605
0.0501379
0.0654496
0.0633165
-0.487753
-0.43093
-0.384235
-0.347908
-0.316779
-0.285121
-0.251368
-0.216331
-0.181428
-0.147843
-0.116353
-0.0873802
-0.0610958
-0.0375212
-0.0166072
0.00172836
0.0176169
0.0312851
0.0430639
0.0532325
0.0622906
0.0730085
0.0883494
0.082181
-0.49395
-0.432643
-0.380403
-0.337435
-0.297735
-0.258344
-0.219043
-0.180753
-0.144455
-0.110799
-0.080092
-0.0523887
-0.0275938
-0.00554599
0.0139211
0.0309574
0.045722
0.0584304
0.0693436
0.0786389
0.0868
0.0969948
0.11251
0.102782
-0.49931
-0.433383
-0.37511
-0.324468
-0.275893
-0.229451
-0.185577
-0.144863
-0.10775
-0.0743747
-0.0446221
-0.0182289
0.0051261
0.0257565
0.0439264
0.0598435
0.0736894
0.085662
0.0959397
0.104575
0.112028
0.121823
0.137636
0.125134
-0.503094
-0.432979
-0.367211
-0.307732
-0.250652
-0.198123
-0.150651
-0.108296
-0.0709249
-0.0381895
-0.0095988
0.0153852
0.0372731
0.0565037
0.0734235
0.0882927
0.101319
0.112687
0.122503
0.130679
0.137633
0.147163
0.16338
0.149321
-0.50511
-0.431252
-0.355411
-0.286317
-0.221566
-0.164033
-0.113923
-0.0706796
-0.033599
-0.00188041
0.0253026
0.0487215
0.0690412
0.0868
0.102412
0.116188
0.128366
0.139141
0.14858
0.156496
0.163224
0.172644
0.189276
0.175652
-0.505527
-0.427403
-0.338732
-0.259678
-0.188273
-0.126844
-0.0750343
-0.0316478
0.00458585
0.0348906
0.0603866
0.0820375
0.100627
0.116764
0.130914
0.143427
0.154579
0.164589
0.17355
0.181304
0.188072
0.197251
0.21364
0.205029
-0.504324
-0.419981
-0.316534
-0.227363
-0.150358
-0.0861755
-0.0336346
0.00913641
0.0439538
0.0724308
0.0959384
0.115591
0.132253
0.146574
0.159038
0.170009
0.179772
0.188556
0.196509
0.203569
0.209638
0.216459
0.229171
0.238048
-0.500835
-0.407038
-0.287813
-0.18871
-0.107333
-0.0416419
0.0106023
0.0519647
0.0847788
0.111001
0.132212
0.149639
0.16419
0.176521
0.187105
0.196279
0.204288
0.211319
0.217495
0.222686
0.226293
0.229101
0.239243
0.265609
-0.493509
-0.385641
-0.250925
-0.142926
-0.0586851
0.00712007
0.057946
0.0970537
0.127256
0.150785
0.169395
0.184397
0.196707
0.20697
0.215632
0.223004
0.229305
0.234706
0.239264
0.242621
0.244317
0.247708
0.264019
0.280661
-0.479571
-0.351947
-0.203965
-0.0891702
-0.00389939
0.0604143
0.108577
0.144522
0.17145
0.191847
0.207561
0.219971
0.229962
0.238147
0.244945
0.250643
0.255451
0.25954
0.262927
0.265171
0.266174
0.270882
0.290373
0.298594
-0.45623
-0.30211
-0.14499
-0.0265823
0.0574488
0.118409
0.162526
0.194333
0.217262
0.234085
0.246663
0.256331
0.263948
0.270076
0.275089
0.279245
0.282737
0.285715
0.288155
0.289561
0.290025
0.295189
0.315871
0.319854
-0.424241
-0.23264
-0.0717547
0.0456864
0.125582
0.181035
0.219567
0.246179
0.264508
0.277305
0.286485
0.293297
0.29851
0.302609
0.305912
0.308637
0.310943
0.312952
0.31459
0.31531
0.315271
0.32044
0.341475
0.343157
-0.388157
-0.136944
0.0193879
0.12862
0.200436
0.247863
0.279227
0.29963
0.312715
0.321129
0.326709
0.33058
0.333375
0.335479
0.337138
0.338516
0.339727
0.340852
0.341765
0.341865
0.34134
0.34629
0.367075
0.36719
-0.334669
0.00164691
0.133358
0.222854
0.281293
0.318042
0.340655
0.353952
0.361281
0.365052
0.366914
0.367806
0.368196
0.368347
0.368423
0.368522
0.368704
0.368999
0.369227
0.368744
0.367756
0.372353
0.392472
0.391561
-0.161202
0.196598
0.269534
0.326442
0.366207
0.389884
0.402574
0.40817
0.409456
0.408474
0.4066
0.40454
0.402576
0.40084
0.399401
0.398289
0.397504
0.397019
0.396602
0.39558
0.394172
0.398341
0.417475
0.415878
1.39696
1.42494
1.45132
1.48489
1.48916
1.46588
1.39697
1.42072
1.44086
1.46167
1.42226
1.33858
1.39693
1.41523
1.42675
1.43506
1.38202
1.27169
1.39666
1.41077
1.41417
1.41105
1.3522
1.243
1.39602
1.40748
1.40392
1.39152
1.33129
1.2318
1.39487
1.40434
1.39524
1.37587
1.31668
1.22784
1.39314
1.40062
1.38736
1.36309
1.30614
1.2274
1.39089
1.39604
1.3799
1.35241
1.29823
1.22826
1.38824
1.39071
1.37277
1.34333
1.29197
1.22891
1.38534
1.38492
1.36609
1.33558
1.2868
1.22922
1.38234
1.37906
1.36001
1.32896
1.28229
1.22884
1.37938
1.37346
1.35471
1.32345
1.27818
1.22754
1.37658
1.36841
1.35029
1.319
1.27435
1.22532
1.37398
1.36409
1.34683
1.31562
1.27081
1.2223
1.37164
1.36063
1.34434
1.31334
1.26764
1.21881
1.36953
1.35807
1.34277
1.31223
1.26499
1.2153
1.36767
1.35638
1.34202
1.31236
1.263
1.21247
1.36606
1.35544
1.34193
1.31384
1.2619
1.21135
1.36472
1.35504
1.3423
1.31675
1.26197
1.21366
1.36368
1.35478
1.34281
1.32096
1.26357
1.22332
1.36295
1.35401
1.34325
1.32585
1.26689
1.2492
1.3624
1.35193
1.34246
1.33079
1.27204
1.30371
1.36184
1.34862
1.34108
1.33762
1.28121
1.38453
1.3614
1.34625
1.34096
1.35045
1.29884
1.45407
0.325016
0.398103
0.409761
0.432924
0.451554
0.461022
0.463388
0.461155
0.456401
0.450737
0.445228
0.440322
0.436101
0.432567
0.4297
0.427453
0.425766
0.424553
0.423536
0.422027
0.420258
0.423966
0.441873
0.439834
0.626054
0.562683
0.536495
0.533837
0.533086
0.529003
0.521497
0.511788
0.501288
0.491198
0.482271
0.474694
0.468362
0.463153
0.458961
0.455669
0.453153
0.451273
0.449707
0.447773
0.445714
0.448957
0.465452
0.463169
0.802765
0.700112
0.647651
0.624347
0.607747
0.591928
0.575601
0.559121
0.543394
0.529282
0.517246
0.507237
0.498978
0.492246
0.486855
0.482621
0.479361
0.47688
0.474826
0.472535
0.470263
0.473047
0.487995
0.485634
0.907971
0.805166
0.740228
0.702644
0.673965
0.648604
0.624798
0.602449
0.582155
0.564517
0.549747
0.537584
0.527617
0.519535
0.513086
0.508026
0.504115
0.50111
0.498635
0.496058
0.493648
0.495981
0.509286
0.506979
0.982684
0.886411
0.815695
0.768816
0.731285
0.698469
0.668562
0.641315
0.61717
0.596549
0.57945
0.565437
0.553998
0.544755
0.537401
0.53164
0.527178
0.523728
0.5209
0.518109
0.515624
0.517516
0.52912
0.526962
1.03734
0.949747
0.876373
0.823615
0.779827
0.741387
0.706671
0.675472
0.648192
0.625134
0.606117
0.590565
0.577896
0.567688
0.559589
0.553254
0.548343
0.544528
0.541414
0.538473
0.535965
0.537425
0.547311
0.545356
1.07938
0.995819
0.924114
0.868085
0.82005
0.777508
0.73912
0.704841
0.6751
0.650124
0.629584
0.612794
0.599139
0.588162
0.579476
0.572694
0.567431
0.563326
0.559986
0.55695
0.554466
0.555527
0.563725
0.56192
1.10911
1.03071
0.961051
0.90335
0.852577
0.807147
0.766049
0.729458
0.697865
0.671444
0.649746
0.632009
0.617598
0.606041
0.59692
0.589811
0.584286
0.579957
0.576443
0.573352
0.570932
0.571655
0.578193
0.576288
1.12988
1.05643
0.988834
0.930483
0.878073
0.830698
0.787681
0.749435
0.716523
0.689079
0.666553
0.648134
0.633187
0.621228
0.611814
0.604485
0.598774
0.594271
0.590618
0.587493
0.585138
0.585526
0.590477
0.588499
1.14359
1.07444
1.0088
0.950423
0.897167
0.848562
0.804267
0.764919
0.731151
0.703049
0.679992
0.661135
0.645852
0.633655
0.624077
0.616622
0.610789
0.606158
0.602395
0.599248
0.596933
0.59695
0.600447
0.598627
1.15167
1.08596
1.022
0.96396
0.910413
0.86112
0.816064
0.776077
0.741843
0.713406
0.690077
0.671004
0.655572
0.643287
0.63366
0.626162
0.620266
0.615549
0.611709
0.608555
0.606258
0.605877
0.608118
0.606717
1.15504
1.09191
1.02923
0.971738
0.918279
0.868713
0.823313
0.783072
0.748709
0.720214
0.696848
0.677761
0.662349
0.650112
0.640539
0.633073
0.627171
0.622413
0.618538
0.615404
0.613127
0.612389
0.613603
0.612689
1.15421
1.09286
1.03103
0.974237
0.921132
0.871617
0.826218
0.786056
0.751854
0.723549
0.700359
0.681443
0.666204
0.654137
0.644712
0.637347
0.631491
0.626741
0.622872
0.619786
0.617549
0.616541
0.616961
0.616415
1.14941
1.08914
1.02775
0.971757
0.91922
0.870037
0.824942
0.785153
0.751377
0.723489
0.700673
0.682099
0.667176
0.655391
0.646196
0.638993
0.633234
0.628537
0.624715
0.6217
0.619513
0.618299
0.618175
0.617941
1.14058
1.08084
1.01951
0.964439
0.912678
0.864095
0.819596
0.780461
0.747363
0.720111
0.697863
0.679795
0.66532
0.653918
0.645027
0.638043
0.632429
0.62783
0.624085
0.62115
0.61903
0.617762
0.617308
0.617204
1.12742
1.06783
1.00619
0.952264
0.901525
0.853842
0.810248
0.772058
0.739892
0.713498
0.692009
0.674606
0.660705
0.649781
0.641265
0.634556
0.629137
0.624681
0.621051
0.618212
0.616163
0.614902
0.61438
0.61435
1.10925
1.04973
0.987438
0.935038
0.885675
0.839267
0.796932
0.760005
0.729045
0.703738
0.683202
0.666623
0.653419
0.643066
0.634994
0.628615
0.62344
0.619172
0.61569
0.612962
0.610986
0.609813
0.609467
0.609417
1.08499
1.02587
0.962736
0.912424
0.864944
0.820307
0.779665
0.744369
0.714914
0.69094
0.671556
0.655958
0.643573
0.633881
0.62632
0.620325
0.615443
0.611406
0.608105
0.605498
0.603599
0.602597
0.602663
0.602504
1.05289
0.995169
0.931344
0.883992
0.839099
0.796874
0.758459
0.725224
0.697613
0.675235
0.657209
0.64275
0.631304
0.622359
0.615374
0.609818
0.605278
0.601514
0.598423
0.595946
0.594127
0.593372
0.594072
0.593713
1.00995
0.955968
0.892211
0.849204
0.807912
0.768916
0.733366
0.702684
0.677287
0.656785
0.640327
0.627166
0.616771
0.608657
0.602313
0.597251
0.593097
0.589643
0.586789
0.584452
0.582714
0.582276
0.58381
0.58317
0.951476
0.905484
0.843927
0.807435
0.771205
0.736484
0.704543
0.676944
0.654146
0.635801
0.621116
0.609399
0.600163
0.592959
0.587318
0.582798
0.579071
0.575962
0.573368
0.571179
0.569527
0.569467
0.572015
0.57102
0.870631
0.839285
0.784867
0.758174
0.728977
0.699806
0.672294
0.648318
0.628488
0.612558
0.599826
0.589682
0.581698
0.575473
0.570587
0.566652
0.563389
0.560652
0.558339
0.556308
0.554752
0.555133
0.558862
0.557431
0.75293
0.751321
0.713608
0.701394
0.681661
0.659397
0.637111
0.617241
0.600694
0.587392
0.576757
0.568286
0.561624
0.556429
0.552339
0.549022
0.54625
0.543908
0.541895
0.540037
0.538594
0.539491
0.544558
0.542511
0.562941
0.635536
0.630642
0.638287
0.630403
0.616136
0.599675
0.584267
0.571225
0.560694
0.552246
0.545508
0.54021
0.536075
0.532804
0.530125
0.527856
0.525916
0.524206
0.522515
0.521146
0.522496
0.529064
0.526761
-0.015547
-0.0675378
-0.11973
-0.20222
-0.213679
-0.557857
-0.0215341
-0.0697668
-0.11949
-0.197653
-0.205512
-0.29146
-0.0305543
-0.071307
-0.115458
-0.185896
-0.193112
-0.18772
-0.0308752
-0.0697521
-0.107639
-0.167573
-0.167549
-0.139086
-0.0253744
-0.06642
-0.0984133
-0.143355
-0.135148
-0.0981885
-0.0216811
-0.063161
-0.0868198
-0.116762
-0.102159
-0.0609964
-0.0191923
-0.0566721
-0.0728324
-0.0897309
-0.0711548
-0.0292373
-0.0153835
-0.0478443
-0.0568169
-0.06329
-0.0422767
-0.00242129
-0.0101917
-0.0372071
-0.0395043
-0.0379894
-0.0153107
0.0208221
-0.00384648
-0.0253641
-0.0217443
-0.0139843
0.00970088
0.0413269
0.00332622
-0.0127436
-0.00424416
0.00863028
0.0325294
0.0594684
0.0110089
0.000248458
0.012518
0.0297074
0.0532073
0.0753088
0.0189073
0.0132069
0.0282341
0.0490044
0.0717706
0.0888619
0.0267582
0.0257661
0.0427003
0.066316
0.0880732
0.100166
0.0343352
0.0376191
0.0558239
0.0814497
0.101975
0.109409
0.041446
0.0485215
0.0676183
0.0943694
0.11333
0.11637
0.0479208
0.0583119
0.0782178
0.105241
0.122201
0.120647
0.0536145
0.0669537
0.0878206
0.114555
0.128876
0.122205
0.0584128
0.0745288
0.0967768
0.123175
0.133858
0.121473
0.0624051
0.0813759
0.10564
0.132204
0.138308
0.1194
0.0664122
0.0881583
0.115473
0.143237
0.144708
0.117941
0.0698795
0.0953596
0.127809
0.158953
0.157208
0.121246
0.0695076
0.102313
0.142822
0.180548
0.179477
0.127402
0.0692224
0.107556
0.156129
0.199972
0.206924
0.137361
0.174009
0.491769
0.541491
0.572171
0.577151
0.571231
0.560824
0.550039
0.540603
0.532895
0.526662
0.52167
0.517743
0.514673
0.512225
0.510184
0.508416
0.506871
0.50545
0.503901
0.502533
0.504209
0.51234
0.510221
0.0420507
0.359054
0.457652
0.507966
0.524255
0.526083
0.521527
0.515287
0.5094
0.504458
0.500388
0.497104
0.494517
0.492491
0.490851
0.489438
0.488158
0.486989
0.485838
0.484402
0.482977
0.484879
0.494563
0.492956
0.0268268
0.278063
0.389347
0.449596
0.473944
0.482206
0.482861
0.480791
0.478205
0.475846
0.47381
0.472138
0.470826
0.469798
0.468937
0.468131
0.467325
0.466522
0.465629
0.464302
0.462846
0.465045
0.476187
0.474578
0.02818
0.230519
0.336672
0.398995
0.427954
0.440928
0.445785
0.447249
0.447546
0.447479
0.447274
0.447077
0.446942
0.446847
0.446721
0.446496
0.446148
0.445702
0.445067
0.44386
0.442409
0.44495
0.457527
0.455704
0.0328713
0.199042
0.295308
0.355774
0.386803
0.402867
0.410852
0.415128
0.417808
0.41968
0.421068
0.422176
0.423102
0.423859
0.424417
0.424739
0.424829
0.424728
0.424348
0.423272
0.421842
0.424713
0.438656
0.436636
0.0418722
0.177103
0.262182
0.318782
0.350168
0.368034
0.378228
0.384645
0.389213
0.392671
0.395404
0.397643
0.399503
0.401027
0.402209
0.403042
0.403548
0.403782
0.403656
0.402725
0.401334
0.404508
0.419723
0.417577
0.0532694
0.161841
0.235561
0.287045
0.317611
0.336268
0.347902
0.355865
0.361863
0.366587
0.370435
0.373632
0.376304
0.378506
0.380255
0.381561
0.382461
0.383021
0.383152
0.382385
0.381057
0.384504
0.400874
0.398725
0.0646992
0.151063
0.214152
0.259674
0.288659
0.307332
0.319768
0.328773
0.335805
0.341513
0.346259
0.350256
0.353622
0.356421
0.358682
0.360426
0.361702
0.362581
0.362976
0.362397
0.361165
0.364853
0.382237
0.380275
0.0751585
0.143158
0.196517
0.236024
0.262825
0.28092
0.293636
0.303274
0.311023
0.317467
0.322925
0.32758
0.331538
0.334862
0.337587
0.339742
0.34138
0.342577
0.343247
0.342888
0.341791
0.345683
0.363913
0.362422
0.0843759
0.137248
0.181428
0.215314
0.239574
0.256685
0.26928
0.279213
0.287427
0.294413
0.30043
0.305628
0.310096
0.31389
0.317046
0.319595
0.321591
0.32311
0.324073
0.323972
0.323052
0.327094
0.34596
0.34538
0.0923089
0.1325
0.168115
0.196813
0.218369
0.234248
0.246447
0.256418
0.264901
0.272274
0.278732
0.284387
0.289308
0.293537
0.297108
0.300049
0.302414
0.304274
0.305557
0.30576
0.305061
0.309159
0.328372
0.329429
0.0988491
0.128196
0.155993
0.179889
0.198704
0.213217
0.224846
0.234684
0.243293
0.250939
0.257755
0.26381
0.269149
0.273803
0.277797
0.281155
0.283921
0.286161
0.287811
0.288382
0.287945
0.291913
0.311028
0.315053
0.103862
0.123726
0.144531
0.163943
0.180099
0.193207
0.204163
0.213768
0.222412
0.230261
0.237383
0.243809
0.249561
0.254656
0.259109
0.262937
0.266171
0.268867
0.270974
0.27204
0.271932
0.275325
0.293422
0.303434
0.107227
0.118504
0.133007
0.148397
0.162073
0.17381
0.184077
0.193409
0.202045
0.210061
0.217467
0.22426
0.230441
0.236014
0.240989
0.245374
0.249189
0.252466
0.255188
0.257033
0.257558
0.259278
0.273052
0.297999
0.108674
0.112004
0.120878
0.132639
0.144141
0.154633
0.164263
0.173335
0.18196
0.190137
0.197827
0.204998
0.211633
0.21773
0.223295
0.228342
0.232889
0.236954
0.240538
0.243584
0.245762
0.246075
0.246595
0.302517
0.107676
0.103618
0.10766
0.116225
0.125892
0.135324
0.144414
0.153278
0.161921
0.170274
0.178261
0.185823
0.19293
0.199573
0.205764
0.211529
0.216917
0.221995
0.226785
0.231103
0.234922
0.241039
0.256711
0.266054
0.10342
0.0925856
0.0926204
0.0987272
0.106926
0.115539
0.124239
0.132988
0.141701
0.150261
0.158559
0.166516
0.174083
0.181238
0.187981
0.194327
0.200312
0.205985
0.211289
0.215871
0.219913
0.228037
0.247509
0.239575
0.0948838
0.0780442
0.0751184
0.0795993
0.0868371
0.0949619
0.103483
0.112243
0.121101
0.129909
0.138536
0.146885
0.154891
0.162513
0.169731
0.176539
0.182952
0.188997
0.194589
0.199343
0.203549
0.212346
0.232643
0.219101
0.0810112
0.058968
0.0544964
0.0583541
0.0652759
0.0733344
0.0819424
0.090872
0.0999632
0.109063
0.118037
0.126777
0.135203
0.143255
0.150893
0.158089
0.16484
0.171166
0.177012
0.182004
0.186487
0.195744
0.216338
0.20063
0.0608886
0.0342456
0.0301185
0.0346108
0.0419795
0.0504693
0.0594786
0.0687591
0.0781794
0.0876178
0.096954
0.106082
0.114912
0.123371
0.131396
0.13894
0.14598
0.152553
0.158636
0.16388
0.168685
0.178288
0.198928
0.182881
0.0339338
0.00305305
0.00163056
0.00815065
0.0167752
0.0262467
0.0360157
0.0458465
0.0556937
0.0655095
0.0752155
0.0847231
0.0939451
0.102798
0.111202
0.119087
0.126413
0.13323
0.139546
0.145056
0.150199
0.160019
0.180484
0.165404
5.14815e-05
-0.0345973
-0.030853
-0.0209734
-0.0103043
0.00068321
0.0115669
0.0221408
0.0325023
0.0427183
0.0527858
0.0626555
0.0722545
0.0814972
0.0902908
0.0985421
0.10619
0.11328
0.119842
0.125641
0.131131
0.14103
0.161081
0.147977
-0.0431759
-0.0768963
-0.0661818
-0.0526396
-0.0392381
-0.0261586
-0.0138518
-0.0023586
0.00860988
0.0192392
0.029642
0.0398399
0.0497932
0.0594245
0.0686336
0.0773074
0.0853508
0.0927806
0.0996406
0.105775
0.111615
0.121455
0.140827
0.13049
-0.10425
-0.122582
-0.103441
-0.0859299
-0.0692704
-0.0537953
-0.040033
-0.0276376
-0.0160094
-0.00496687
0.0057319
0.0162097
0.0264842
0.0365006
0.0461621
0.0553397
0.0639001
0.071801
0.0790693
0.0856248
0.091856
0.101519
0.119921
0.112933
)
;

boundaryField
{
    rotor
    {
        type            zeroGradient;
    }
    freestream
    {
        type            freestreamPressure;
        freestreamValue uniform 0;
        supersonic      false;
        value           nonuniform List<scalar> 
96
(
0.0196987
0.01438
0.0100707
0.00673113
0.00428211
0.00256918
0.00138516
0.000563787
-1.61462e-05
-0.000546288
-0.000976347
-0.00128121
-0.00100695
5.97061e-05
0.000256424
0.000184883
3.89945e-05
-0.000101008
0.000216777
-2.79587e-05
-0.000590619
-0.00137795
-0.00196508
-0.00239311
-0.00260781
-0.00244712
-0.00183831
-0.000697297
0.00109885
0.00370043
0.00726998
0.0119638
0.0179559
0.0254496
0.0346571
0.0457927
0.0590943
0.0748927
0.0938042
0.11636
0.138153
0.155378
0.175533
0.198891
0.224816
0.252476
0.281526
0.311564
0.342202
0.373054
0.403714
0.433757
0.462749
0.490257
0.515833
0.538906
0.55929
0.576861
0.591492
0.602962
0.61103
0.615654
0.616715
0.614337
0.608569
0.599553
0.587464
0.572526
0.555003
0.535199
0.513374
0.490162
0.465758
0.440383
0.413868
0.386932
0.359986
0.333331
0.30724
0.281954
0.257689
0.234642
0.213017
0.193101
0.175524
0.162019
0.154166
0.126837
0.106166
0.0897908
0.0756556
0.0631318
0.0520041
0.042163
0.0335362
0.0260665
)
;
    }
    frontAndBack
    {
        type            empty;
    }
}


// ************************************************************************* //
