/*--------------------------------*- C++ -*----------------------------------*\
  =========                 |
  \\      /  F ield         | OpenFOAM: The Open Source CFD Toolbox
   \\    /   O peration     | Website:  https://openfoam.org
    \\  /    A nd           | Version:  11
     \\/     M anipulation  |
\*---------------------------------------------------------------------------*/
FoamFile
{
    format      ascii;
    class       surfaceScalarField;
    location    "0.34";
    object      phi;
}
// * * * * * * * * * * * * * * * * * * * * * * * * * * * * * * * * * * * * * //

dimensions      [0 3 -1 0 0 0 0];

internalField   nonuniform List<scalar> 
5640
(
6.85996e-08
-6.85996e-08
4.26654e-07
-3.58054e-07
1.00399e-06
-5.77339e-07
1.89834e-06
-8.94351e-07
3.04162e-06
-1.14327e-06
-1.57757e-06
4.61918e-06
1.79618e-07
-2.48218e-07
5.80559e-07
-7.58995e-07
1.16065e-06
-1.15743e-06
1.88955e-06
-1.62324e-06
2.73413e-06
-1.98786e-06
-2.23882e-06
3.39539e-06
2.29916e-07
-4.78134e-07
6.20413e-07
-1.14949e-06
1.14154e-06
-1.67856e-06
1.71653e-06
-2.19823e-06
2.28801e-06
-2.55934e-06
-2.61844e-06
2.66763e-06
2.57831e-07
-7.35965e-07
6.18651e-07
-1.51031e-06
1.05977e-06
-2.11968e-06
1.49881e-06
-2.63727e-06
1.89548e-06
-2.95601e-06
-2.91465e-06
2.19168e-06
2.72637e-07
-1.0086e-06
5.88518e-07
-1.82619e-06
9.4287e-07
-2.47403e-06
1.26352e-06
-2.95792e-06
1.53406e-06
-3.22655e-06
-3.14744e-06
1.76686e-06
2.73825e-07
-1.28243e-06
5.351e-07
-2.08747e-06
8.02888e-07
-2.74182e-06
1.01851e-06
-3.17355e-06
1.18266e-06
-3.3907e-06
-3.30575e-06
1.34097e-06
2.51968e-07
-1.5344e-06
4.60828e-07
-2.29633e-06
6.47447e-07
-2.92844e-06
7.68704e-07
-3.2948e-06
8.35025e-07
-3.45702e-06
-3.37652e-06
9.05794e-07
2.06558e-07
-1.74095e-06
3.70236e-07
-2.46001e-06
4.8369e-07
-3.04189e-06
5.18856e-07
-3.32997e-06
4.91921e-07
-3.43008e-06
-3.3505e-06
4.659e-07
1.55466e-07
-1.89642e-06
2.70895e-07
-2.57543e-06
3.17917e-07
-3.08891e-06
2.74376e-07
-3.28643e-06
1.58751e-07
-3.31446e-06
-3.22263e-06
3.08805e-08
1.01134e-07
-1.99755e-06
1.68455e-07
-2.64276e-06
1.55632e-07
-3.07609e-06
4.12962e-08
-3.17209e-06
-1.5713e-07
-3.11603e-06
-2.9924e-06
-3.87365e-07
4.59304e-08
-2.04348e-06
6.7091e-08
-2.66392e-06
1.30596e-09
-3.0103e-06
-1.74422e-07
-2.99636e-06
-4.47636e-07
-2.84282e-06
-2.66472e-06
-7.75313e-07
-8.43343e-09
-2.03505e-06
-3.00264e-08
-2.64232e-06
-1.40568e-07
-2.89976e-06
-3.67459e-07
-2.76947e-06
-7.04513e-07
-2.50577e-06
-2.25003e-06
-1.11921e-06
-5.94293e-08
-1.97562e-06
-1.20497e-07
-2.58126e-06
-2.67767e-07
-2.75249e-06
-5.33567e-07
-2.50367e-06
-9.20256e-07
-2.11908e-06
-1.764e-06
-1.40628e-06
-1.06349e-07
-1.86927e-06
-2.02618e-07
-2.48499e-06
-3.78215e-07
-2.5769e-06
-6.69667e-07
-2.21222e-06
-1.08878e-06
-1.69997e-06
-1.22705e-06
-1.62573e-06
-1.47761e-07
-1.72151e-06
-2.75302e-07
-2.35745e-06
-4.71169e-07
-2.38103e-06
-7.74196e-07
-1.90919e-06
-1.20593e-06
-1.26823e-06
-6.63874e-07
-1.7691e-06
-1.82534e-07
-1.53898e-06
-3.38012e-07
-2.20197e-06
-5.47027e-07
-2.17201e-06
-8.47404e-07
-1.60882e-06
-1.27003e-06
-8.45612e-07
-1.02924e-07
-1.83098e-06
-2.09598e-07
-1.32938e-06
-3.90669e-07
-2.0209e-06
-6.07361e-07
-1.95532e-06
-8.91626e-07
-1.32455e-06
-1.28235e-06
-4.54883e-07
4.24304e-07
-1.80958e-06
-2.27706e-07
-1.10167e-06
-4.33468e-07
-1.81514e-06
-6.54887e-07
-1.7339e-06
-9.11539e-07
-1.0679e-06
-1.24767e-06
-1.18751e-07
8.83766e-07
-1.70713e-06
-2.34966e-07
-8.66706e-07
-4.66451e-07
-1.58365e-06
-6.93349e-07
-1.50701e-06
-9.1443e-07
-8.46819e-07
-1.17487e-06
1.41686e-07
1.23876e-06
-1.52986e-06
-2.27772e-07
-6.38934e-07
-4.89849e-07
-1.32157e-06
-7.27411e-07
-1.26944e-06
-9.10479e-07
-6.63752e-07
-1.07818e-06
3.09391e-07
1.44806e-06
-1.28748e-06
-2.12974e-07
-4.2596e-07
-5.06353e-07
-1.0282e-06
-7.62109e-07
-1.01369e-06
-9.12901e-07
-5.12959e-07
-9.77522e-07
3.74011e-07
1.46206e-06
-9.91519e-07
-1.93064e-07
-2.32896e-07
-5.16133e-07
-7.05127e-07
-8.01202e-07
-7.28618e-07
-9.37513e-07
-3.76648e-07
-8.9887e-07
3.35369e-07
1.22541e-06
-6.62222e-07
-1.59359e-07
-7.35368e-08
-5.11603e-07
-3.52883e-07
-8.4206e-07
-3.98161e-07
-9.96432e-07
-2.22276e-07
-8.59862e-07
1.98799e-07
7.09515e-07
-3.43967e-07
-7.35368e-08
-4.2642e-07
-8.24581e-07
-1.04686e-06
-8.48058e-07
-1.38543e-07
1.07393e-05
7.07346e-06
-1.31935e-05
1.4644e-05
1.42855e-05
-1.81903e-05
1.77919e-05
1.81613e-05
-2.13092e-05
2.05583e-05
2.03852e-05
-2.31516e-05
2.30314e-05
2.16759e-05
-2.4149e-05
2.52849e-05
2.23755e-05
-2.4629e-05
2.73668e-05
2.271e-05
-2.47919e-05
2.92888e-05
2.2829e-05
-2.4751e-05
3.10399e-05
2.28231e-05
-2.45741e-05
3.26506e-05
2.27045e-05
-2.43152e-05
3.4137e-05
2.25097e-05
-2.39961e-05
3.55085e-05
2.2252e-05
-2.36235e-05
3.67705e-05
2.19346e-05
-2.31966e-05
3.79279e-05
2.1554e-05
-2.27113e-05
3.8986e-05
2.11036e-05
-2.21617e-05
3.99509e-05
2.05759e-05
-2.15408e-05
4.08292e-05
1.99617e-05
-2.084e-05
4.1628e-05
1.92506e-05
-2.00494e-05
4.23533e-05
1.84304e-05
-1.91557e-05
4.30078e-05
1.74833e-05
-1.81379e-05
4.35934e-05
1.63815e-05
-1.69671e-05
4.41134e-05
1.50819e-05
-1.56019e-05
4.45811e-05
1.34987e-05
-1.39664e-05
1.14564e-05
-1.19162e-05
7.63296e-06
2.83589e-06
1.25708e-05
9.34765e-06
1.69313e-05
1.38008e-05
2.06033e-05
1.67132e-05
2.37382e-05
1.8541e-05
2.65034e-05
1.96103e-05
2.89889e-05
2.02245e-05
3.12758e-05
2.05421e-05
3.34068e-05
2.06921e-05
3.53628e-05
2.07485e-05
3.7136e-05
2.07365e-05
3.87572e-05
2.06308e-05
4.02392e-05
2.04525e-05
4.15916e-05
2.02016e-05
4.28236e-05
1.98715e-05
4.39426e-05
1.94569e-05
4.49568e-05
1.89476e-05
4.58745e-05
1.83328e-05
4.67041e-05
1.76008e-05
4.74499e-05
1.67375e-05
4.8112e-05
1.57194e-05
4.86886e-05
1.45053e-05
4.91846e-05
1.30028e-05
1.09992e-05
5.34184e-06
1.6168e-07
9.62086e-06
5.06863e-06
1.43069e-05
9.11474e-06
1.88814e-05
1.21387e-05
2.30545e-05
1.43679e-05
2.66963e-05
1.59685e-05
2.98752e-05
1.70456e-05
3.27039e-05
1.77135e-05
3.52645e-05
1.81315e-05
3.76185e-05
1.83944e-05
3.98074e-05
1.85476e-05
4.17997e-05
1.86386e-05
4.35817e-05
1.86705e-05
4.51846e-05
1.85988e-05
4.66319e-05
1.84242e-05
4.7934e-05
1.81547e-05
4.91042e-05
1.77774e-05
5.01536e-05
1.72835e-05
5.10929e-05
1.66615e-05
5.19317e-05
1.58987e-05
5.26719e-05
1.49793e-05
5.33072e-05
1.387e-05
5.38293e-05
1.24806e-05
1.05582e-05
3.8709e-06
-1.51754e-06
7.04384e-06
1.89569e-06
1.10889e-05
5.06967e-06
1.55519e-05
7.67572e-06
2.01766e-05
9.74326e-06
2.4734e-05
1.14111e-05
2.89835e-05
1.2796e-05
3.27716e-05
1.39254e-05
3.61133e-05
1.47898e-05
3.90876e-05
1.54201e-05
4.17644e-05
1.58709e-05
4.41934e-05
1.62096e-05
4.64275e-05
1.64363e-05
4.84462e-05
1.65801e-05
5.02221e-05
1.66483e-05
5.17798e-05
1.65971e-05
5.31601e-05
1.63971e-05
5.43805e-05
1.60631e-05
5.54561e-05
1.55859e-05
5.64024e-05
1.49523e-05
5.723e-05
1.41517e-05
5.79355e-05
1.31645e-05
5.84972e-05
1.19189e-05
1.01337e-05
2.86957e-06
-2.62025e-06
5.09195e-06
-3.26695e-07
8.22996e-06
1.93166e-06
1.20104e-05
3.89531e-06
1.62269e-05
5.52673e-06
2.07271e-05
6.91083e-06
2.53961e-05
8.12704e-06
3.00711e-05
9.25049e-06
3.45365e-05
1.03243e-05
3.86137e-05
1.13429e-05
4.22349e-05
1.22496e-05
4.54333e-05
1.30112e-05
4.82663e-05
1.36033e-05
5.07831e-05
1.40633e-05
5.30432e-05
1.43883e-05
5.50631e-05
1.45771e-05
5.68137e-05
1.46465e-05
5.83088e-05
1.4568e-05
5.9594e-05
1.43007e-05
6.07016e-05
1.38447e-05
6.16521e-05
1.32012e-05
6.2457e-05
1.23596e-05
6.30925e-05
1.12834e-05
9.70174e-06
2.07502e-06
-3.35429e-06
3.60726e-06
-1.85894e-06
5.91793e-06
-3.79009e-07
8.88728e-06
9.25952e-07
1.23872e-05
2.02681e-06
1.63231e-05
2.97494e-06
2.06118e-05
3.83838e-06
2.51711e-05
4.69114e-06
2.99198e-05
5.57557e-06
3.47464e-05
6.51634e-06
3.94718e-05
7.52422e-06
4.38984e-05
8.58459e-06
4.7874e-05
9.62776e-06
5.13655e-05
1.05718e-05
5.44023e-05
1.13515e-05
5.70344e-05
1.1945e-05
5.93239e-05
1.2357e-05
6.13195e-05
1.25725e-05
6.30183e-05
1.26019e-05
6.44322e-05
1.24308e-05
6.56048e-05
1.20286e-05
6.65814e-05
1.1383e-05
6.73596e-05
1.05052e-05
9.19992e-06
1.35911e-06
-3.80761e-06
2.38699e-06
-2.88682e-06
4.02957e-06
-2.02158e-06
6.25357e-06
-1.29805e-06
8.9988e-06
-7.1842e-07
1.22118e-05
-2.38067e-07
1.58457e-05
2.04516e-07
1.9862e-05
6.74805e-07
2.42139e-05
1.22371e-06
2.88408e-05
1.88939e-06
3.36698e-05
2.69521e-06
3.86178e-05
3.63656e-06
4.35437e-05
4.70186e-06
4.82611e-05
5.85447e-06
5.2581e-05
7.03153e-06
5.63839e-05
8.14214e-06
5.96553e-05
9.08556e-06
6.24286e-05
9.79919e-06
6.47695e-05
1.0261e-05
6.67441e-05
1.04562e-05
6.83808e-05
1.03918e-05
6.97088e-05
1.0055e-05
7.07706e-05
9.44347e-06
8.49989e-06
6.75594e-07
-4.01731e-06
1.30251e-06
-3.51374e-06
2.40414e-06
-3.12321e-06
3.98651e-06
-2.88042e-06
6.03225e-06
-2.76416e-06
8.5199e-06
-2.72572e-06
1.14302e-05
-2.70581e-06
1.4748e-05
-2.64294e-06
1.8454e-05
-2.48236e-06
2.25238e-05
-2.18033e-06
2.69254e-05
-1.70644e-06
3.16065e-05
-1.04455e-06
3.64965e-05
-1.88083e-07
4.15055e-05
8.45421e-07
4.6522e-05
2.01502e-06
5.13918e-05
3.27236e-06
5.5932e-05
4.54537e-06
5.99858e-05
5.74536e-06
6.34741e-05
6.7728e-06
6.63957e-05
7.53455e-06
6.88049e-05
7.98266e-06
7.07708e-05
8.08915e-06
7.23716e-05
7.84263e-06
7.36176e-06
1.53412e-08
-4.00177e-06
2.97482e-07
-3.79588e-06
9.38544e-07
-3.76427e-06
1.96197e-06
-3.90384e-06
3.37395e-06
-4.17614e-06
5.17486e-06
-4.52663e-06
7.36541e-06
-4.89636e-06
9.94772e-06
-5.22524e-06
1.29225e-05
-5.4571e-06
1.62855e-05
-5.5434e-06
2.00252e-05
-5.44615e-06
2.41199e-05
-5.13924e-06
2.85391e-05
-4.60728e-06
3.32344e-05
-3.84981e-06
3.81324e-05
-2.883e-06
4.31411e-05
-1.7364e-06
4.8146e-05
-4.59526e-07
5.30128e-05
8.7856e-07
5.75895e-05
2.19617e-06
6.1725e-05
3.39903e-06
6.53191e-05
4.38858e-06
6.83291e-05
5.07912e-06
7.07986e-05
5.37315e-06
5.45876e-06
-6.14539e-07
-3.77459e-06
-6.41762e-07
-3.76866e-06
-4.08714e-07
-3.99732e-06
1.15274e-07
-4.42783e-06
9.48976e-07
-5.00984e-06
2.10632e-06
-5.68397e-06
3.60127e-06
-6.39132e-06
5.44892e-06
-7.07288e-06
7.66395e-06
-7.67214e-06
1.02583e-05
-8.13772e-06
1.32376e-05
-8.42546e-06
1.65991e-05
-8.50079e-06
2.03324e-05
-8.34049e-06
2.44142e-05
-7.93164e-06
2.88067e-05
-7.27555e-06
3.34583e-05
-6.38792e-06
3.82974e-05
-5.29867e-06
4.3228e-05
-4.05207e-06
4.81319e-05
-2.70772e-06
5.28734e-05
-1.34248e-06
5.73113e-05
-4.92367e-08
6.13122e-05
1.07817e-06
6.47835e-05
1.9018e-06
2.48945e-06
-1.19873e-06
-3.35118e-06
-1.50563e-06
-3.46175e-06
-1.63918e-06
-3.86377e-06
-1.56559e-06
-4.50142e-06
-1.25959e-06
-5.31584e-06
-6.99399e-07
-6.24415e-06
1.37976e-07
-7.22869e-06
1.27719e-06
-8.2121e-06
2.74284e-06
-9.13779e-06
4.55802e-06
-9.95291e-06
6.74075e-06
-1.06082e-05
9.30255e-06
-1.10626e-05
1.22476e-05
-1.12855e-05
1.55732e-05
-1.12572e-05
1.92669e-05
-1.09693e-05
2.32978e-05
-1.04188e-05
2.76203e-05
-9.62114e-06
3.21761e-05
-8.60789e-06
3.68919e-05
-7.42346e-06
4.16713e-05
-6.12194e-06
4.63924e-05
-4.77034e-06
5.09198e-05
-3.44924e-06
5.51119e-05
-2.29022e-06
-1.491e-06
-1.71894e-06
-2.75145e-06
-2.27378e-06
-2.90692e-06
-2.73114e-06
-3.40641e-06
-3.05693e-06
-4.17563e-06
-3.2236e-06
-5.14917e-06
-3.20358e-06
-6.26418e-06
-2.96741e-06
-7.46486e-06
-2.48244e-06
-8.69708e-06
-1.71656e-06
-9.90366e-06
-6.36128e-07
-1.10333e-05
7.84615e-07
-1.20289e-05
2.56608e-06
-1.28441e-05
4.72264e-06
-1.34421e-05
7.25774e-06
-1.37923e-05
1.01814e-05
-1.3893e-05
1.3479e-05
-1.37164e-05
1.71295e-05
-1.32716e-05
2.10993e-05
-1.25777e-05
2.53403e-05
-1.16645e-05
2.97952e-05
-1.05769e-05
3.43943e-05
-9.36936e-06
3.90561e-05
-8.11107e-06
4.37004e-05
-6.93447e-06
-6.25613e-06
-2.15491e-06
-2.00282e-06
-2.92004e-06
-2.14179e-06
-3.65311e-06
-2.67334e-06
-4.31791e-06
-3.51084e-06
-4.88692e-06
-4.58015e-06
-5.33035e-06
-5.82075e-06
-5.61308e-06
-7.18212e-06
-5.69481e-06
-8.61535e-06
-5.53404e-06
-1.00644e-05
-5.08765e-06
-1.14797e-05
-4.32241e-06
-1.27942e-05
-3.21341e-06
-1.39531e-05
-1.74191e-06
-1.49136e-05
1.10475e-07
-1.56447e-05
2.33964e-06
-1.61221e-05
4.95034e-06
-1.63271e-05
7.93403e-06
-1.62553e-05
1.12826e-05
-1.59262e-05
1.49715e-05
-1.53534e-05
1.89732e-05
-1.45786e-05
2.3266e-05
-1.36622e-05
2.78458e-05
-1.26908e-05
3.27358e-05
-1.18245e-05
-1.14435e-05
-2.49053e-06
-1.13802e-06
-3.42023e-06
-1.21209e-06
-4.36759e-06
-1.72598e-06
-5.29731e-06
-2.58112e-06
-6.18125e-06
-3.69621e-06
-6.98745e-06
-5.01456e-06
-7.67716e-06
-6.49241e-06
-8.20285e-06
-8.08966e-06
-8.50824e-06
-9.75904e-06
-8.54617e-06
-1.14418e-05
-8.26788e-06
-1.30725e-05
-7.64431e-06
-1.45766e-05
-6.65686e-06
-1.5901e-05
-5.29148e-06
-1.70101e-05
-3.54787e-06
-1.78657e-05
-1.42669e-06
-1.84483e-05
1.071e-06
-1.8753e-05
3.93489e-06
-1.87901e-05
7.16103e-06
-1.85796e-05
1.07371e-05
-1.81546e-05
1.46723e-05
-1.75974e-05
1.89731e-05
-1.69917e-05
2.36692e-05
-1.65205e-05
-1.64288e-05
-2.71164e-06
-1.95484e-07
-3.75235e-06
-1.71374e-07
-4.84314e-06
-6.35185e-07
-5.94886e-06
-1.4754e-06
-7.04087e-06
-2.60419e-06
-8.08328e-06
-3.97215e-06
-9.02515e-06
-5.55054e-06
-9.80535e-06
-7.30946e-06
-1.03677e-05
-9.19671e-06
-1.0662e-05
-1.11474e-05
-1.06409e-05
-1.30936e-05
-1.02623e-05
-1.49552e-05
-9.50607e-06
-1.66573e-05
-8.37047e-06
-1.81457e-05
-6.85441e-06
-1.93818e-05
-4.96425e-06
-2.03384e-05
-2.71076e-06
-2.10065e-05
-1.07435e-07
-2.13935e-05
2.83369e-06
-2.15207e-05
6.10346e-06
-2.14244e-05
9.66638e-06
-2.11603e-05
1.3484e-05
-2.08093e-05
1.74614e-05
-2.0498e-05
-2.04803e-05
-2.80908e-06
7.82623e-07
-3.90163e-06
9.2117e-07
-5.05656e-06
5.19745e-07
-6.23628e-06
-2.95686e-07
-7.40647e-06
-1.434e-06
-8.52121e-06
-2.8574e-06
-9.52873e-06
-4.54302e-06
-1.03784e-05
-6.45979e-06
-1.10116e-05
-8.56348e-06
-1.13667e-05
-1.07923e-05
-1.13967e-05
-1.30637e-05
-1.10474e-05
-1.53045e-05
-1.0277e-05
-1.74277e-05
-9.08457e-06
-1.93381e-05
-7.48748e-06
-2.09789e-05
-5.50977e-06
-2.23161e-05
-3.17845e-06
-2.33378e-05
-5.18765e-07
-2.40531e-05
2.44557e-06
-2.44851e-05
5.68941e-06
-2.46682e-05
9.17484e-06
-2.46458e-05
1.28368e-05
-2.44713e-05
1.6578e-05
-2.42392e-05
-2.4205e-05
-2.77996e-06
1.753e-06
-3.86246e-06
2.00367e-06
-4.99754e-06
1.65482e-06
-6.14447e-06
8.51245e-07
-7.26841e-06
-3.10062e-07
-8.32707e-06
-1.79874e-06
-9.26903e-06
-3.60105e-06
-1.00297e-05
-5.69908e-06
-1.05319e-05
-8.0613e-06
-1.06882e-05
-1.06361e-05
-1.04497e-05
-1.33021e-05
-9.77452e-06
-1.59797e-05
-8.65714e-06
-1.85451e-05
-7.10027e-06
-2.0895e-05
-5.12753e-06
-2.29516e-05
-2.77212e-06
-2.46715e-05
-7.34825e-08
-2.60365e-05
2.93639e-06
-2.7063e-05
6.23719e-06
-2.77859e-05
9.81802e-06
-2.8249e-05
1.36725e-05
-2.85002e-05
1.77934e-05
-2.85922e-05
2.21575e-05
-2.86033e-05
-2.86796e-05
-2.62836e-06
2.67422e-06
-3.63961e-06
3.01492e-06
-4.66924e-06
2.68445e-06
-5.67162e-06
1.85362e-06
-6.60905e-06
6.2737e-07
-7.43601e-06
-9.71779e-07
-8.0916e-06
-2.94547e-06
-8.49947e-06
-5.29121e-06
-8.57874e-06
-7.98203e-06
-8.2628e-06
-1.0952e-05
-7.49217e-06
-1.40728e-05
-6.2444e-06
-1.72275e-05
-4.52e-06
-2.02695e-05
-2.33899e-06
-2.3076e-05
2.54013e-07
-2.55446e-05
3.19847e-06
-2.7616e-05
6.44839e-06
-2.92864e-05
9.96743e-06
-3.0582e-05
1.37335e-05
-3.1552e-05
1.7742e-05
-3.22575e-05
2.2005e-05
-3.27632e-05
2.65482e-05
-3.31353e-05
3.1378e-05
-3.34331e-05
-3.36354e-05
-2.36597e-06
3.51033e-06
-3.24911e-06
3.89806e-06
-4.09059e-06
3.52594e-06
-4.83748e-06
2.60051e-06
-5.44433e-06
1.23422e-06
-5.85697e-06
-5.5914e-07
-6.00664e-06
-2.7958e-06
-5.81717e-06
-5.48068e-06
-5.21475e-06
-8.58445e-06
-4.15342e-06
-1.20133e-05
-2.59387e-06
-1.56323e-05
-5.34653e-07
-1.92867e-05
2.00378e-06
-2.28079e-05
4.9669e-06
-2.60391e-05
8.29506e-06
-2.88728e-05
1.19272e-05
-3.12481e-05
1.57962e-05
-3.31554e-05
1.98441e-05
-3.463e-05
2.40309e-05
-3.57388e-05
2.83373e-05
-3.65639e-05
3.27655e-05
-3.71914e-05
3.73311e-05
-3.77009e-05
4.20471e-05
-3.81491e-05
-3.8496e-05
-2.0128e-06
4.23564e-06
-2.71904e-06
4.6043e-06
-3.29885e-06
4.10575e-06
-3.69067e-06
2.99233e-06
-3.83725e-06
1.38079e-06
-3.67603e-06
-7.20358e-07
-3.13505e-06
-3.33678e-06
-2.15277e-06
-6.46296e-06
-6.72236e-07
-1.0065e-05
1.31387e-06
-1.39994e-05
3.81052e-06
-1.8129e-05
6.78346e-06
-2.22596e-05
1.01786e-05
-2.62031e-05
1.39302e-05
-2.97907e-05
1.79615e-05
-3.2904e-05
2.21821e-05
-3.54687e-05
2.65023e-05
-3.74756e-05
3.08549e-05
-3.89825e-05
3.51966e-05
-4.00805e-05
3.94993e-05
-4.08666e-05
4.37496e-05
-4.14417e-05
4.79418e-05
-4.18932e-05
5.20805e-05
-4.22878e-05
-4.25245e-05
-1.59617e-06
4.84029e-06
-2.09436e-06
5.1025e-06
-2.35559e-06
4.36697e-06
-2.31123e-06
2.94797e-06
-1.90044e-06
9.70009e-07
-1.05856e-06
-1.56224e-06
2.73415e-07
-4.66875e-06
2.14575e-06
-8.3353e-06
4.55003e-06
-1.24693e-05
7.47458e-06
-1.6924e-05
1.08627e-05
-2.15171e-05
1.46436e-05
-2.60405e-05
1.87293e-05
-3.02888e-05
2.30225e-05
-3.40839e-05
2.74099e-05
-3.72915e-05
3.17785e-05
-3.98374e-05
3.60418e-05
-4.17389e-05
4.01551e-05
-4.30958e-05
4.41018e-05
-4.40272e-05
4.78671e-05
-4.46319e-05
5.14317e-05
-4.50064e-05
5.47668e-05
-4.52282e-05
5.7814e-05
-4.5335e-05
-4.52019e-05
-1.16326e-06
5.34133e-06
-1.43591e-06
5.37514e-06
-1.33328e-06
4.26435e-06
-8.0055e-07
2.41524e-06
2.17482e-07
-4.80232e-08
1.77917e-06
-3.12393e-06
3.91892e-06
-6.8085e-06
6.63118e-06
-1.10476e-05
9.87702e-06
-1.57151e-05
1.35868e-05
-2.06338e-05
1.76611e-05
-2.55914e-05
2.19863e-05
-3.03657e-05
2.64281e-05
-3.47306e-05
3.08394e-05
-3.84951e-05
3.5087e-05
-4.15392e-05
3.9076e-05
-4.38263e-05
4.27572e-05
-4.54201e-05
4.61451e-05
-4.64836e-05
4.92763e-05
-4.71584e-05
5.21636e-05
-4.75192e-05
5.48097e-05
-4.76525e-05
5.72068e-05
-4.76253e-05
5.93272e-05
-4.74555e-05
-4.69741e-05
-7.97225e-07
5.79459e-06
-8.20275e-07
5.39819e-06
-3.12921e-07
3.757e-06
7.35477e-07
1.36684e-06
2.37057e-06
-1.68312e-06
4.62517e-06
-5.37853e-06
7.49799e-06
-9.68132e-06
1.09407e-05
-1.44902e-05
1.48669e-05
-1.96414e-05
1.91579e-05
-2.49247e-05
2.36732e-05
-3.01067e-05
2.82428e-05
-3.49353e-05
3.26836e-05
-3.91714e-05
3.68334e-05
-4.26449e-05
4.05914e-05
-4.52972e-05
4.39251e-05
-4.716e-05
4.68525e-05
-4.83474e-05
4.94609e-05
-4.90921e-05
5.18264e-05
-4.95239e-05
5.39482e-05
-4.9641e-05
5.58517e-05
-4.95561e-05
5.75448e-05
-4.93184e-05
5.90127e-05
-4.89234e-05
-4.81658e-05
-6.82841e-07
6.33889e-06
-3.2899e-07
5.04434e-06
6.29814e-07
2.79819e-06
2.20569e-06
-2.09032e-07
4.43588e-06
-3.91331e-06
7.32647e-06
-8.26911e-06
1.08378e-05
-1.31926e-05
1.48783e-05
-1.85308e-05
1.93156e-05
-2.40787e-05
2.3982e-05
-2.95911e-05
2.86776e-05
-3.48023e-05
3.31815e-05
-3.94392e-05
3.73006e-05
-4.32904e-05
4.09163e-05
-4.62606e-05
4.40075e-05
-4.83885e-05
4.66274e-05
-4.97799e-05
4.88765e-05
-5.05966e-05
5.08743e-05
-5.10898e-05
5.26359e-05
-5.12855e-05
5.41965e-05
-5.12017e-05
5.55861e-05
-5.09456e-05
5.68144e-05
-5.05467e-05
5.78642e-05
-4.99732e-05
-4.90074e-05
-1.00234e-07
1.00234e-07
-4.37575e-07
3.37341e-07
-8.0136e-07
3.63785e-07
-1.09347e-06
2.92113e-07
-1.36768e-06
2.74203e-07
7.12457e-07
-2.08013e-06
-2.41486e-07
3.4172e-07
-6.67318e-07
7.63173e-07
-1.10325e-06
7.99714e-07
-1.47798e-06
6.66844e-07
-1.83673e-06
6.32958e-07
1.07509e-06
-2.19937e-06
-3.04299e-07
6.4602e-07
-7.6461e-07
1.22348e-06
-1.25204e-06
1.28715e-06
-1.68921e-06
1.10401e-06
-2.05742e-06
1.00116e-06
1.2278e-06
-2.21013e-06
-3.45098e-07
9.91118e-07
-8.17895e-07
1.69628e-06
-1.32467e-06
1.79393e-06
-1.77995e-06
1.55929e-06
-2.11415e-06
1.33536e-06
1.25572e-06
-2.14206e-06
-3.77519e-07
1.36864e-06
-8.42374e-07
2.16113e-06
-1.34259e-06
2.29414e-06
-1.78387e-06
2.00057e-06
-2.06745e-06
1.61894e-06
1.18907e-06
-2.0008e-06
-4.00975e-07
1.76961e-06
-8.42002e-07
2.60216e-06
-1.31284e-06
2.76498e-06
-1.72348e-06
2.41121e-06
-1.95374e-06
1.8492e-06
1.03947e-06
-1.80414e-06
-4.05691e-07
2.1753e-06
-8.12713e-07
3.00918e-06
-1.24251e-06
3.19478e-06
-1.61373e-06
2.78243e-06
-1.78939e-06
2.02487e-06
8.15603e-07
-1.56553e-06
-3.88345e-07
2.56365e-06
-7.54859e-07
3.3757e-06
-1.13795e-06
3.57787e-06
-1.46399e-06
3.10847e-06
-1.58522e-06
2.14609e-06
5.25713e-07
-1.29533e-06
-3.53468e-07
2.91712e-06
-6.71038e-07
3.69327e-06
-1.00326e-06
3.91009e-06
-1.28117e-06
3.38638e-06
-1.35099e-06
2.21591e-06
1.78633e-07
-1.00391e-06
-3.03925e-07
3.22104e-06
-5.64777e-07
3.95412e-06
-8.42479e-07
4.18779e-06
-1.07126e-06
3.61516e-06
-1.09592e-06
2.24057e-06
-2.15368e-07
-7.01915e-07
-2.41684e-07
3.46273e-06
-4.39192e-07
4.15163e-06
-6.59327e-07
4.40793e-06
-8.39524e-07
3.79536e-06
-8.28182e-07
2.22923e-06
-6.42165e-07
-4.01385e-07
-1.68596e-07
3.63132e-06
-2.97184e-07
4.28022e-06
-4.56921e-07
4.56766e-06
-5.90772e-07
3.92921e-06
-5.55597e-07
2.19405e-06
-1.08118e-06
-1.16581e-07
-8.64374e-08
3.71776e-06
-1.41695e-07
4.33547e-06
-2.37999e-07
4.66397e-06
-3.28655e-07
4.01987e-06
-2.84833e-07
2.15023e-06
-1.50457e-06
1.38553e-07
5.05041e-09
3.71271e-06
2.37632e-08
4.31676e-06
-5.28515e-09
4.69301e-06
-5.50649e-08
4.06965e-06
-2.80433e-08
2.12321e-06
-1.88661e-06
3.53996e-07
1.01884e-07
3.61082e-06
1.9877e-07
4.21988e-06
2.39795e-07
4.65199e-06
2.31147e-07
4.07829e-06
2.43783e-07
2.11057e-06
-2.17898e-06
5.36152e-07
2.1654e-07
3.39428e-06
3.78057e-07
4.05836e-06
4.9369e-07
4.53636e-06
5.29948e-07
4.04204e-06
5.19381e-07
2.12114e-06
-2.35999e-06
7.00395e-07
3.44818e-07
3.04947e-06
5.55028e-07
3.84815e-06
7.53138e-07
4.33825e-06
8.42284e-07
3.95289e-06
8.14805e-07
2.14862e-06
-2.4147e-06
8.69516e-07
4.18884e-07
2.63058e-06
7.1774e-07
3.54929e-06
1.01329e-06
4.0427e-06
1.16825e-06
3.79793e-06
1.14071e-06
2.17615e-06
-2.33666e-06
1.06268e-06
4.62674e-07
2.16791e-06
8.61828e-07
3.15014e-06
1.26838e-06
3.63614e-06
1.50757e-06
3.55874e-06
1.50413e-06
2.17959e-06
-2.1278e-06
1.29526e-06
4.90028e-07
1.67788e-06
9.83224e-07
2.65694e-06
1.51108e-06
3.10829e-06
1.85761e-06
3.21221e-06
1.90918e-06
2.12802e-06
-1.80335e-06
1.58474e-06
4.97662e-07
1.18022e-06
1.07668e-06
2.07792e-06
1.73041e-06
2.45457e-06
2.21341e-06
2.7292e-06
2.36347e-06
1.97797e-06
-1.40317e-06
1.96328e-06
4.83639e-07
6.9658e-07
1.13613e-06
1.42543e-06
1.90459e-06
1.68611e-06
2.5664e-06
2.0674e-06
2.89712e-06
1.64724e-06
-9.7694e-07
2.47089e-06
4.35788e-07
2.60792e-07
1.14848e-06
7.12738e-07
2.00183e-06
8.3276e-07
2.88912e-06
1.1801e-06
3.49456e-06
1.0418e-06
-5.44262e-07
3.06189e-06
2.60792e-07
9.7353e-07
1.80629e-06
2.98639e-06
4.02819e-06
3.48393e-06
-9.30373e-07
5.18913e-06
-1.24376e-08
4.1264e-06
1.45433e-06
1.33143e-06
3.55744e-06
-2.31214e-06
6.34895e-06
-6.70482e-06
9.81288e-06
-1.1733e-05
1.38681e-05
-1.72479e-05
1.83761e-05
-2.30388e-05
2.31469e-05
-2.88495e-05
2.79525e-05
-3.43967e-05
3.25349e-05
-3.93847e-05
3.66634e-05
-4.35677e-05
4.01955e-05
-4.68225e-05
4.31091e-05
-4.91742e-05
4.5479e-05
-5.07584e-05
4.74509e-05
-5.17518e-05
4.91756e-05
-5.23212e-05
5.067e-05
-5.25843e-05
5.19471e-05
-5.25626e-05
5.30939e-05
-5.23484e-05
5.41296e-05
-5.19814e-05
5.50604e-05
-5.14774e-05
5.58705e-05
-5.07832e-05
-4.96885e-05
-1.13489e-06
4.12465e-06
2.69529e-07
2.72198e-06
2.19092e-06
-5.89967e-07
4.79204e-06
-4.91326e-06
8.10536e-06
-1.00181e-05
1.20812e-05
-1.57089e-05
1.6585e-05
-2.17517e-05
2.14084e-05
-2.78622e-05
2.62954e-05
-3.37365e-05
3.09546e-05
-3.90559e-05
3.51164e-05
-4.35465e-05
3.86138e-05
-4.7065e-05
4.14245e-05
-4.96332e-05
4.36476e-05
-5.13973e-05
4.5432e-05
-5.25428e-05
4.69143e-05
-5.32341e-05
4.81815e-05
-5.35883e-05
4.92678e-05
-5.36706e-05
5.02406e-05
-5.35353e-05
5.11239e-05
-5.32317e-05
5.19402e-05
-5.27977e-05
5.26951e-05
-5.22323e-05
5.3382e-05
-5.14702e-05
-5.03167e-05
-1.14101e-06
3.05553e-06
5.5566e-07
1.02531e-06
2.88162e-06
-2.91593e-06
5.94586e-06
-7.9775e-06
9.7429e-06
-1.38152e-05
1.41619e-05
-2.01279e-05
1.89819e-05
-2.65717e-05
2.39182e-05
-3.27985e-05
2.86449e-05
-3.84632e-05
3.28535e-05
-4.32644e-05
3.635e-05
-4.70431e-05
3.91087e-05
-4.98237e-05
4.12398e-05
-5.17643e-05
4.29049e-05
-5.30624e-05
4.4249e-05
-5.3887e-05
4.53723e-05
-5.43574e-05
4.6334e-05
-5.45501e-05
4.71826e-05
-5.45192e-05
4.79539e-05
-5.43067e-05
4.86773e-05
-5.39551e-05
4.93695e-05
-5.34899e-05
5.00321e-05
-5.28949e-05
5.06629e-05
-5.21009e-05
-5.093e-05
-1.02975e-06
1.94322e-06
8.86924e-07
-8.91361e-07
3.57428e-06
-5.60328e-06
7.07298e-06
-1.14762e-05
1.13076e-05
-1.80498e-05
1.60555e-05
-2.48758e-05
2.10022e-05
-3.15184e-05
2.57855e-05
-3.75817e-05
3.00518e-05
-4.27295e-05
3.35765e-05
-4.67892e-05
3.63266e-05
-4.97932e-05
3.84178e-05
-5.19149e-05
4.00181e-05
-5.33646e-05
4.12769e-05
-5.43212e-05
4.23025e-05
-5.49126e-05
4.31678e-05
-5.52227e-05
4.39231e-05
-5.53053e-05
4.46047e-05
-5.52008e-05
4.52458e-05
-5.49478e-05
4.58724e-05
-5.45817e-05
4.64935e-05
-5.4111e-05
4.71088e-05
-5.35102e-05
4.77156e-05
-5.27077e-05
-5.15441e-05
-8.3591e-07
7.78331e-07
1.28105e-06
-3.00832e-06
4.31129e-06
-8.63353e-06
8.21826e-06
-1.53832e-05
1.27997e-05
-2.26312e-05
1.77052e-05
-2.97813e-05
2.25266e-05
-3.63398e-05
2.68595e-05
-4.19146e-05
3.04393e-05
-4.63093e-05
3.32181e-05
-4.9568e-05
3.53113e-05
-5.18864e-05
3.68894e-05
-5.34929e-05
3.81043e-05
-5.45795e-05
3.90688e-05
-5.52857e-05
3.98617e-05
-5.57055e-05
4.05386e-05
-5.58996e-05
4.11413e-05
-5.5908e-05
4.17049e-05
-5.57644e-05
4.22593e-05
-5.55022e-05
4.28219e-05
-5.51442e-05
4.33958e-05
-5.46849e-05
4.39789e-05
-5.40933e-05
4.45687e-05
-5.32975e-05
-5.21579e-05
-5.72186e-07
-4.53626e-07
1.74947e-06
-5.32997e-06
5.11953e-06
-1.20036e-05
9.38019e-06
-1.96438e-05
1.41613e-05
-2.74124e-05
1.89933e-05
-3.46133e-05
2.34001e-05
-4.07466e-05
2.70594e-05
-4.55739e-05
2.98986e-05
-4.91484e-05
3.20268e-05
-5.16962e-05
3.3614e-05
-5.34736e-05
3.48134e-05
-5.46924e-05
3.57412e-05
-5.55073e-05
3.64812e-05
-5.60257e-05
3.70945e-05
-5.63188e-05
3.76275e-05
-5.64326e-05
3.81183e-05
-5.63988e-05
3.85984e-05
-5.62445e-05
3.90906e-05
-5.59945e-05
3.96041e-05
-5.56577e-05
4.01383e-05
-5.52192e-05
4.06898e-05
-5.46448e-05
4.12576e-05
-5.38653e-05
-5.27607e-05
-2.48966e-07
-1.77018e-06
2.29625e-06
-7.87519e-06
5.9946e-06
-1.57019e-05
1.05038e-05
-2.4153e-05
1.52852e-05
-3.21938e-05
1.97655e-05
-3.90936e-05
2.35309e-05
-4.4512e-05
2.64613e-05
-4.85043e-05
2.86525e-05
-5.13396e-05
3.02732e-05
-5.33169e-05
3.14787e-05
-5.4679e-05
3.23881e-05
-5.56018e-05
3.30896e-05
-5.62088e-05
3.36491e-05
-5.65852e-05
3.41175e-05
-5.67872e-05
3.45359e-05
-5.6851e-05
3.49381e-05
-5.6801e-05
3.53501e-05
-5.66566e-05
3.57874e-05
-5.64317e-05
3.62531e-05
-5.61234e-05
3.67446e-05
-5.57107e-05
3.72579e-05
-5.51581e-05
3.77943e-05
-5.44017e-05
-5.33396e-05
1.25814e-07
-3.19133e-06
2.91222e-06
-1.06616e-05
6.8912e-06
-1.96809e-05
1.14975e-05
-2.87594e-05
1.60262e-05
-3.67225e-05
1.99202e-05
-4.29876e-05
2.29745e-05
-4.75663e-05
2.52566e-05
-5.07864e-05
2.69323e-05
-5.30154e-05
2.8161e-05
-5.45456e-05
2.90666e-05
-5.55847e-05
2.97418e-05
-5.6277e-05
3.02566e-05
-5.67236e-05
3.06655e-05
-5.69941e-05
3.10126e-05
-5.71342e-05
3.13336e-05
-5.71721e-05
3.16576e-05
-5.71249e-05
3.20043e-05
-5.70033e-05
3.2383e-05
-5.68104e-05
3.27939e-05
-5.65343e-05
3.32334e-05
-5.61502e-05
3.36981e-05
-5.56227e-05
3.41913e-05
-5.48949e-05
-5.38802e-05
5.32831e-07
-4.72807e-06
3.57512e-06
-1.37039e-05
7.74497e-06
-2.38508e-05
1.22351e-05
-3.32495e-05
1.62714e-05
-4.07588e-05
1.94861e-05
-4.62022e-05
2.18896e-05
-4.99698e-05
2.36419e-05
-5.25387e-05
2.49093e-05
-5.42828e-05
2.58232e-05
-5.54595e-05
2.64817e-05
-5.62432e-05
2.69596e-05
-5.67548e-05
2.73148e-05
-5.70788e-05
2.75936e-05
-5.7273e-05
2.78338e-05
-5.73744e-05
2.80658e-05
-5.74041e-05
2.83128e-05
-5.7372e-05
2.85894e-05
-5.72799e-05
2.89009e-05
-5.71219e-05
2.92463e-05
-5.68797e-05
2.96224e-05
-5.65264e-05
3.00268e-05
-5.60271e-05
3.0464e-05
-5.53322e-05
-5.43681e-05
9.62991e-07
-6.39297e-06
4.24017e-06
-1.69811e-05
8.4637e-06
-2.80743e-05
1.2611e-05
-3.73968e-05
1.60228e-05
-4.41706e-05
1.85855e-05
-4.8765e-05
2.04403e-05
-5.18246e-05
2.17629e-05
-5.38614e-05
2.26959e-05
-5.52158e-05
2.33458e-05
-5.61093e-05
2.37928e-05
-5.66903e-05
2.40993e-05
-5.70613e-05
2.43142e-05
-5.72937e-05
2.44765e-05
-5.74354e-05
2.46176e-05
-5.75155e-05
2.4762e-05
-5.75485e-05
2.49277e-05
-5.75376e-05
2.51254e-05
-5.74775e-05
2.53585e-05
-5.7355e-05
2.56265e-05
-5.71477e-05
2.59272e-05
-5.68271e-05
2.62595e-05
-5.63594e-05
2.66282e-05
-5.57009e-05
-5.479e-05
1.4012e-06
-8.19556e-06
4.85629e-06
-2.04361e-05
8.95073e-06
-3.21688e-05
1.25853e-05
-4.10313e-05
1.53595e-05
-4.69448e-05
1.73533e-05
-5.07588e-05
1.87525e-05
-5.32237e-05
1.97169e-05
-5.48258e-05
2.03652e-05
-5.58642e-05
2.07858e-05
-5.65299e-05
2.10465e-05
-5.6951e-05
2.12004e-05
-5.72151e-05
2.12886e-05
-5.73819e-05
2.13431e-05
-5.74898e-05
2.13883e-05
-5.75607e-05
2.14429e-05
-5.76031e-05
2.15204e-05
-5.76151e-05
2.16289e-05
-5.7586e-05
2.17719e-05
-5.7498e-05
2.19503e-05
-5.73261e-05
2.21638e-05
-5.70406e-05
2.24124e-05
-5.6608e-05
2.27013e-05
-5.59898e-05
-5.51344e-05
1.82713e-06
-1.01393e-05
5.37017e-06
-2.39792e-05
9.15329e-06
-3.59519e-05
1.22026e-05
-4.40806e-05
1.4391e-05
-4.91332e-05
1.58991e-05
-5.22669e-05
1.69122e-05
-5.42368e-05
1.75678e-05
-5.54813e-05
1.79657e-05
-5.62621e-05
1.81818e-05
-5.67459e-05
1.82745e-05
-5.70438e-05
1.82894e-05
-5.72299e-05
1.82602e-05
-5.73528e-05
1.82117e-05
-5.74413e-05
1.81616e-05
-5.75106e-05
1.81229e-05
-5.75644e-05
1.81052e-05
-5.75973e-05
1.81151e-05
-5.75959e-05
1.81571e-05
-5.754e-05
1.82343e-05
-5.74033e-05
1.8349e-05
-5.71552e-05
1.8503e-05
-5.6762e-05
1.87016e-05
-5.61884e-05
-5.53916e-05
2.21251e-06
-1.22132e-05
5.73261e-06
-2.74993e-05
9.07287e-06
-3.92921e-05
1.15406e-05
-4.65484e-05
1.3212e-05
-5.08046e-05
1.43016e-05
-5.33565e-05
1.49779e-05
-5.49131e-05
1.53588e-05
-5.58622e-05
1.55307e-05
-5.6434e-05
1.55599e-05
-5.67752e-05
1.54978e-05
-5.69817e-05
1.53827e-05
-5.71149e-05
1.52416e-05
-5.72117e-05
1.50924e-05
-5.72921e-05
1.49467e-05
-5.73648e-05
1.4812e-05
-5.74297e-05
1.46942e-05
-5.74795e-05
1.45986e-05
-5.75004e-05
1.45307e-05
-5.74721e-05
1.44963e-05
-5.73689e-05
1.45009e-05
-5.71598e-05
1.45494e-05
-5.68104e-05
1.4648e-05
-5.6287e-05
-5.55545e-05
2.53207e-06
-1.43913e-05
5.91486e-06
-3.08821e-05
8.75143e-06
-4.21287e-05
1.06777e-05
-4.84747e-05
1.18937e-05
-5.20205e-05
1.26146e-05
-5.40775e-05
1.29891e-05
-5.52876e-05
1.31198e-05
-5.59929e-05
1.3083e-05
-5.63972e-05
1.29379e-05
-5.66301e-05
1.27295e-05
-5.67732e-05
1.24896e-05
-5.68749e-05
1.22388e-05
-5.69609e-05
1.19892e-05
-5.70425e-05
1.17468e-05
-5.71225e-05
1.15149e-05
-5.71977e-05
1.12955e-05
-5.72602e-05
1.10919e-05
-5.72968e-05
1.09094e-05
-5.72896e-05
1.07557e-05