/*--------------------------------*- C++ -*----------------------------------*\
  =========                 |
  \\      /  F ield         | OpenFOAM: The Open Source CFD Toolbox
   \\    /   O peration     | Website:  https://openfoam.org
    \\  /    A nd           | Version:  11
     \\/     M anipulation  |
\*---------------------------------------------------------------------------*/
FoamFile
{
    format      ascii;
    class       volVectorField;
    location    "0.34";
    object      U;
}
// * * * * * * * * * * * * * * * * * * * * * * * * * * * * * * * * * * * * * //

dimensions      [0 1 -1 0 0 0 0];

internalField   nonuniform List<vector> 
2880
(
(0.0358914 0.0195886 0)
(0.0551796 0.00196037 3.8366e-19)
(0.102896 -0.0514404 3.83396e-19)
(0.134099 -0.0873997 2.34622e-19)
(0.198145 -0.166845 -2.96059e-19)
(0.17728 -0.162483 5.26988e-20)
(0.0393967 0.00178207 5.37257e-19)
(0.0595323 -0.0253081 0)
(0.101649 -0.0746182 -2.63325e-19)
(0.127079 -0.108978 -3.23597e-19)
(0.168826 -0.156899 -2.00437e-19)
(0.169307 -0.146486 2.15698e-19)
(0.0390758 -0.00733302 -4.61109e-19)
(0.0569214 -0.0394774 0)
(0.0916267 -0.0829391 0)
(0.111266 -0.111398 2.40158e-19)
(0.137307 -0.138981 4.85026e-19)
(0.141751 -0.127687 -5.20965e-20)
(0.0374054 -0.0155291 -4.40184e-19)
(0.0524578 -0.0494443 2.16339e-20)
(0.0796076 -0.0863657 -1.66887e-20)
(0.0938863 -0.10768 0)
(0.110765 -0.12131 -3.5848e-19)
(0.118995 -0.107119 -2.39937e-19)
(0.0350934 -0.0244151 4.25055e-19)
(0.0471576 -0.0564781 0)
(0.0670943 -0.086467 -3.2956e-20)
(0.0766327 -0.100534 -9.32846e-22)
(0.0872589 -0.104326 2.73031e-19)
(0.0961677 -0.0876667 -4.52036e-20)
(0.0326823 -0.0320471 6.96408e-21)
(0.0412549 -0.0605973 0)
(0.0544766 -0.0838065 0)
(0.059781 -0.0911265 0)
(0.0653613 -0.0877409 2.42286e-19)
(0.0725142 -0.0691288 -4.39547e-20)
(0.026241 -0.038167 -7.90879e-21)
(0.0340224 -0.0618495 -3.34561e-19)
(0.0416963 -0.0789873 1.50055e-20)
(0.0431998 -0.0802948 0)
(0.0444083 -0.0713692 -1.88398e-19)
(0.0482435 -0.0510651 4.32289e-20)
(0.0162359 -0.0407113 -8.49439e-21)
(0.0253083 -0.0608529 6.37384e-19)
(0.028749 -0.0727171 2.55938e-19)
(0.026919 -0.068717 -2.54141e-20)
(0.0240557 -0.0550725 0)
(0.023755 -0.0332288 0)
(0.00785901 -0.0414807 8.50033e-21)
(0.0157187 -0.0586844 -3.03921e-19)
(0.0158244 -0.0656773 -2.05801e-19)
(0.0110234 -0.0567586 1.79503e-19)
(0.0043034 -0.0389562 0)
(-0.00051418 -0.0155178 0)
(-9.55413e-05 -0.0420002 5.36925e-19)
(0.00582703 -0.0559115 0)
(0.00316072 -0.0583404 -2.34845e-19)
(-0.00434033 -0.0447477 -4.04714e-19)
(-0.0146508 -0.0231081 1.81841e-19)
(-0.0240753 0.00211971 0)
(-0.00731175 -0.0417441 -5.44434e-19)
(-0.0039648 -0.0528225 0)
(-0.00903723 -0.0510215 2.3263e-19)
(-0.0189622 -0.032965 1.7545e-19)
(-0.0325594 -0.00762001 -1.57811e-19)
(-0.0464357 0.0196638 -8.27137e-20)
(-0.0137191 -0.0405335 -2.73241e-19)
(-0.0133646 -0.0496099 0)
(-0.0206223 -0.0439368 1.47585e-20)
(-0.0326342 -0.0216381 8.81406e-20)
(-0.0491564 0.00738929 -6.73246e-20)
(-0.0671151 0.0370327 6.17494e-20)
(-0.0193445 -0.0383646 2.72962e-19)
(-0.0221813 -0.0463745 9.4644e-21)
(-0.0314544 -0.0372736 7.58286e-21)
(-0.0452045 -0.0109418 -6.24491e-20)
(-0.0641993 0.0217785 1.57394e-19)
(-0.0856742 0.0541026 2.08862e-20)
(-0.0242213 -0.0352501 -4.32004e-21)
(-0.0302719 -0.043163 2.32387e-21)
(-0.0414558 -0.0311537 5.1141e-20)
(-0.0565763 -0.00105414 6.25216e-21)
(-0.0774927 0.035371 -9.01066e-20)
(-0.101745 0.0707062 1.9005e-22)
(-0.0283635 -0.0312285 0)
(-0.0375387 -0.0399741 0)
(-0.050611 -0.0256656 -5.91431e-20)
(-0.0667153 0.0078449 -5.08179e-20)
(-0.0889095 0.0479457 3.39524e-20)
(-0.115028 0.0866238 -4.67188e-20)
(-0.0317503 -0.026408 -5.42207e-22)
(-0.0439211 -0.0367547 -3.81362e-20)
(-0.0589687 -0.0208702 -4.75969e-22)
(-0.0756614 0.0155608 -2.61159e-20)
(-0.098409 0.0592234 3.50364e-20)
(-0.125306 0.101568 0)
(-0.0342762 -0.0210768 0)
(-0.0493871 -0.0333987 1.17446e-19)
(-0.0666428 -0.0168018 0)
(-0.0835404 0.0218775 3.28104e-20)
(-0.106056 0.0688525 2.33577e-20)
(-0.132439 0.115166 -5.2206e-21)
(-0.0356882 -0.0155822 -8.72831e-21)
(-0.0539008 -0.0297229 -7.54083e-20)
(-0.0738137 -0.0134582 0)
(-0.0905729 0.0265594 0)
(-0.112044 0.0763896 -4.7267e-20)
(-0.136369 0.126912 0)
(-0.0362986 -0.00722248 -2.63612e-19)
(-0.0572921 -0.0253764 5.13043e-21)
(-0.0807288 -0.0107693 1.13121e-19)
(-0.0970888 0.0293629 1.35203e-20)
(-0.116736 0.08127 0)
(-0.13708 0.136123 -2.25682e-20)
(-0.0347949 0.000774572 -1.27593e-20)
(-0.0594638 -0.0199456 1.06571e-20)
(-0.0877049 -0.00859172 -2.71183e-19)
(-0.103553 0.0300459 0)
(-0.120755 0.0827752 0)
(-0.134535 0.141985 -1.11255e-19)
(-0.0327995 0.00783619 2.13572e-19)
(-0.0612476 -0.0132607 0)
(-0.0950609 -0.00679008 1.43344e-19)
(-0.110574 0.0283421 -2.68038e-19)
(-0.125064 0.0799197 2.53632e-20)
(-0.128284 0.143236 -1.33871e-19)
(-0.0310997 0.0143725 2.19479e-20)
(-0.0630064 -0.00542003 1.25281e-20)
(-0.102795 -0.00529486 -1.91032e-20)
(-0.118853 0.0239559 3.39322e-20)
(-0.131137 0.0714489 2.6726e-22)
(-0.117343 0.138843 1.63971e-19)
(-0.028526 0.0215593 8.74771e-21)
(-0.0635068 0.00434739 3.8727e-19)
(-0.110246 -0.00348892 3.50291e-19)
(-0.128928 0.0171934 2.69949e-19)
(-0.140924 0.0564411 0)
(-0.0992314 0.129299 1.72978e-19)
(-0.0213386 0.034035 -6.15108e-19)
(-0.0541911 0.0242266 4.9716e-22)
(-0.11392 0.00869721 -6.99e-19)
(-0.14127 0.0185159 -2.83315e-19)
(-0.156337 0.0433289 -2.33877e-19)
(-0.0796709 0.12712 -1.86854e-19)
(0.700111 -0.237606 -1.27441e-19)
(0.990256 -0.28852 1.10031e-19)
(1.13911 -0.291458 2.46547e-20)
(1.23201 -0.286181 0)
(1.29032 -0.276229 -4.23189e-20)
(1.3271 -0.263526 -1.66772e-20)
(1.35131 -0.248828 1.55318e-20)
(1.36772 -0.23368 -2.67288e-21)
(1.3774 -0.216516 5.01462e-20)
(1.38295 -0.1981 -2.04752e-20)
(1.38569 -0.179051 2.00376e-21)
(1.3862 -0.159745 -1.99467e-21)
(1.38472 -0.140498 -8.80665e-22)
(1.3813 -0.121605 -6.50003e-21)
(1.37591 -0.103363 0)
(1.36848 -0.0860627 0)
(1.35888 -0.0699969 6.82982e-21)
(1.34696 -0.0554779 -2.33025e-20)
(1.33249 -0.0428537 -3.06996e-21)
(1.31496 -0.0324201 2.39895e-20)
(1.29353 -0.024497 -4.16628e-20)
(1.26761 -0.0204874 -9.37421e-21)
(1.23753 -0.0252051 -4.70275e-21)
(1.20001 -0.0424084 4.77025e-20)
(0.441994 -0.111543 2.75408e-19)
(0.795503 -0.181021 -1.42581e-20)
(1.02599 -0.22746 1.25527e-19)
(1.16681 -0.249726 -9.53908e-20)
(1.25396 -0.255661 -7.35612e-20)
(1.30898 -0.252286 2.35004e-20)
(1.34465 -0.243435 -5.74252e-20)
(1.36825 -0.230415 3.32338e-20)
(1.38608 -0.215555 -7.13365e-20)
(1.39821 -0.199249 3.81121e-21)
(1.40549 -0.180582 4.54726e-20)
(1.40926 -0.160754 1.44811e-20)
(1.4102 -0.140453 2.66674e-22)
(1.40859 -0.120172 1.2836e-20)
(1.40455 -0.100356 5.40995e-21)
(1.39813 -0.0813863 -1.57575e-21)
(1.38925 -0.0636458 -5.46966e-21)
(1.3778 -0.0475092 0)
(1.36363 -0.0333824 5.45475e-21)
(1.34642 -0.0216044 3.8729e-20)
(1.3254 -0.0125212 -3.68908e-20)
(1.29996 -0.00742213 0)
(1.27033 -0.0110449 5.36485e-20)
(1.23342 -0.0288885 -6.2927e-20)
(0.293091 -0.0675919 -2.20097e-19)
(0.578797 -0.0942137 2.1675e-20)
(0.823957 -0.137968 -1.87876e-19)
(1.01425 -0.177827 3.96796e-20)
(1.15535 -0.207666 7.429e-20)
(1.2495 -0.222149 4.11966e-20)
(1.31164 -0.225207 2.78336e-20)
(1.35277 -0.220208 0)
(1.38081 -0.209917 6.85558e-20)
(1.40104 -0.194952 0)
(1.41685 -0.178044 -1.88725e-20)
(1.42751 -0.159862 -1.46983e-20)
(1.43335 -0.139388 -2.95697e-20)
(1.43527 -0.117988 -7.16983e-21)
(1.43376 -0.0965964 1.11037e-20)
(1.42916 -0.0758421 -1.32716e-20)
(1.42153 -0.0562334 3.84603e-21)
(1.41092 -0.0382314 6.17148e-21)
(1.39725 -0.0222806 -2.2053e-21)
(1.38041 -0.00882486 -5.19445e-21)
(1.35989 0.00179076 0)
(1.33515 0.0084256 0)
(1.30627 0.00669036 -4.18835e-20)
(1.27068 -0.0111138 4.12444e-20)
(0.212263 -0.0513458 0)
(0.409914 -0.0445848 -1.3747e-19)
(0.619155 -0.0660697 -4.04037e-20)
(0.807288 -0.0986861 1.11162e-19)
(0.967772 -0.132067 1.02573e-19)
(1.10274 -0.160884 -1.09032e-19)
(1.21113 -0.181548 3.44031e-20)
(1.28923 -0.190954 5.17072e-20)
(1.34407 -0.190527 -1.3948e-19)
(1.3829 -0.182876 4.38676e-20)
(1.41008 -0.169942 0)
(1.42998 -0.152113 0)
(1.44502 -0.132341 1.88919e-20)
(1.45482 -0.112069 0)
(1.45889 -0.0904839 -1.12586e-20)
(1.45826 -0.0681735 -2.66625e-20)
(1.45339 -0.0465776 2.96604e-20)
(1.44468 -0.0265299 -1.66275e-21)
(1.43227 -0.0085646 5.19672e-21)
(1.41618 0.00682456 3.20612e-21)
(1.39631 0.0192501 -7.30184e-21)
(1.37245 0.0277728 2.43177e-20)
(1.34466 0.0287048 7.38431e-21)
(1.31146 0.0118897 -3.69487e-20)
(0.157755 -0.0406386 2.43341e-19)
(0.291331 -0.0184141 -1.57265e-19)
(0.450205 -0.0204537 -2.1093e-19)
(0.609767 -0.0385031 6.21244e-20)
(0.758642 -0.0636427 -1.57551e-19)
(0.895553 -0.090725 0)
(1.01887 -0.114912 -8.16167e-20)
(1.13056 -0.134376 -7.11085e-20)
(1.22688 -0.146878 5.17198e-20)
(1.30362 -0.150927 -1.48434e-19)
(1.36064 -0.146344 4.53097e-20)
(1.40274 -0.135135 0)
(1.43239 -0.119219 0)
(1.45312 -0.0988945 -3.25081e-20)
(1.4675 -0.0763018 0)
(1.47596 -0.0540814 3.81271e-20)
(1.47782 -0.0324325 -1.91271e-20)
(1.47375 -0.0106843 2.51583e-20)
(1.4646 0.00944887 -4.42212e-21)
(1.45072 0.026971 -4.9386e-21)
(1.43234 0.0413522 1.56153e-21)
(1.40978 0.051884 -1.48592e-21)
(1.38344 0.0559743 2.80325e-21)
(1.35408 0.0413836 3.99271e-21)
(0.113929 -0.0292752 3.94491e-21)
(0.204782 -0.00222689 4.05473e-19)
(0.319482 0.00659052 1.63735e-19)
(0.443845 0.000464291 6.7148e-20)
(0.568068 -0.0150081 -1.17728e-19)
(0.689022 -0.035111 4.07071e-21)
(0.805255 -0.0559169 1.24418e-19)
(0.917149 -0.0750293 6.99893e-20)
(1.02331 -0.0899437 6.5666e-20)
(1.12381 -0.099505 5.28265e-20)
(1.21638 -0.102998 3.33749e-21)
(1.2967 -0.0999174 -5.40323e-20)
(1.36028 -0.0900302 8.38104e-20)
(1.40804 -0.0743633 -4.65674e-20)
(1.44221 -0.0552716 -6.11129e-20)
(1.46464 -0.0331772 8.57279e-20)
(1.4785 -0.00912521 -9.42974e-20)
(1.48495 0.01379 -2.17281e-20)
(1.48398 0.0346226 0)
(1.47586 0.0537217 -2.27336e-20)
(1.46153 0.0701781 2.04883e-20)
(1.44194 0.0826589 -7.75499e-24)
(1.41784 0.0900112 -2.68913e-21)
(1.39413 0.0789442 -1.85672e-21)
(0.0748981 -0.0161292 -2.63876e-19)
(0.135908 0.0111517 -4.08085e-19)
(0.216674 0.0243856 0)
(0.308795 0.0249186 0)
(0.405969 0.0163787 -1.29447e-19)
(0.50501 0.0023665 0)
(0.604489 -0.0138589 4.54906e-20)
(0.704294 -0.0297941 -1.23612e-19)
(0.803933 -0.0433091 7.61308e-20)
(0.903088 -0.0530652 0)
(1.0008 -0.0579302 -1.2488e-19)
(1.09542 -0.0569878 1.10756e-19)
(1.18605 -0.0503517 -1.59337e-19)
(1.26839 -0.0383392 9.9872e-20)
(1.3383 -0.0216365 1.30548e-19)
(1.3923 -0.000921948 -7.91533e-20)
(1.43104 0.0218235 -9.24079e-21)
(1.45613 0.045271 5.20633e-20)
(1.46973 0.068881 -1.15463e-20)
(1.47407 0.0902849 5.95742e-20)
(1.46971 0.108262 -6.03089e-20)
(1.45756 0.122094 2.98739e-20)
(1.43811 0.132369 2.30866e-21)
(1.42289 0.126063 0)
(0.0384219 -0.00138741 0)
(0.0770713 0.0246081 4.0832e-19)
(0.13165 0.0387699 0)
(0.197024 0.0420208 1.55389e-19)
(0.269204 0.036988 2.61499e-19)
(0.345889 0.0265744 -1.17239e-19)
(0.42592 0.0134759 0)
(0.508971 3.12476e-05 -9.21709e-20)
(0.59488 -0.0118268 -7.95593e-20)
(0.68344 -0.0205861 1.51653e-19)
(0.774235 -0.0250428 6.52467e-20)
(0.866501 -0.024447 6.65242e-20)
(0.959199 -0.0183709 6.23739e-20)
(1.05046 -0.00662544 -1.67799e-19)
(1.13798 0.010513 5.75633e-20)
(1.21971 0.0319805 0)
(1.29137 0.0563791 3.6257e-20)
(1.34935 0.082295 -3.02841e-20)
(1.3917 0.108129 -2.41998e-20)
(1.41887 0.132204 -2.48125e-20)
(1.43251 0.153827 1.26e-20)
(1.43548 0.170847 -1.13701e-20)
(1.42673 0.183662 -2.50114e-21)
(1.42472 0.183034 -4.14178e-22)
(0.0038389 0.0146361 0)
(0.0246256 0.0390923 -1.52353e-19)
(0.0582489 0.0526295 1.35236e-19)
(0.101475 0.0563258 -1.52807e-19)
(0.151803 0.0524082 -1.98549e-19)
(0.207697 0.0433367 1.76648e-19)
(0.268356 0.0314545 0)
(0.333552 0.0188936 9.08671e-20)
(0.403249 0.00751687 -8.40643e-20)
(0.477443 -0.00113031 1.05035e-21)
(0.55591 -0.00577838 -1.23665e-21)
(0.638181 -0.00548366 -6.48103e-20)
(0.723723 0.000367993 -6.3164e-20)
(0.811538 0.0120292 5.79794e-20)
(0.900116 0.0293382 -5.68832e-20)
(0.987644 0.0518181 5.25713e-20)
(1.07175 0.0786971 0)
(1.14975 0.108681 0)
(1.21888 0.139906 0)
(1.27605 0.170182 2.47848e-20)
(1.31836 0.197821 0)
(1.34687 0.220369 1.14013e-20)
(1.35763 0.23827 0)
(1.37565 0.245862 0)
(-0.0288666 0.0316533 2.85005e-20)
(-0.0229828 0.0548007 2.46506e-20)
(-0.0067025 0.0671799 -3.15247e-19)
(0.0178818 0.0702042 -8.05219e-20)
(0.0492436 0.0659766 0)
(0.0863993 0.0567371 -6.29586e-20)
(0.128858 0.0445931 5.35913e-20)
(0.176532 0.0315143 -1.98919e-21)
(0.229516 0.0192876 -8.89179e-20)
(0.287928 0.00947868 2.00703e-19)
(0.351806 0.0033959 3.63713e-20)
(0.420913 0.00212466 -1.39029e-19)
(0.494839 0.00645736 -5.19146e-22)
(0.573083 0.0168658 1.56801e-21)
(0.654656 0.033507 8.41282e-20)
(0.738304 0.0561464 -1.06085e-19)
(0.822493 0.0841187 9.37384e-20)
(0.905295 0.1164 -9.02642e-20)
(0.984378 0.151659 0)
(1.05715 0.188145 0)
(1.12048 0.223851 4.17947e-20)
(1.17333 0.256079 -1.41353e-20)
(1.2093 0.28301 -3.02065e-20)
(1.25061 0.301656 6.08164e-22)
(-0.0593909 0.0494585 0)
(-0.0662095 0.0716765 0)
(-0.0645503 0.0828006 1.34997e-19)
(-0.0557971 0.0847303 3.87099e-20)
(-0.0408341 0.0794708 -7.30537e-20)
(-0.0202611 0.0691623 6.2507e-20)
(0.00566127 0.0557406 0)
(0.0369892 0.041028 0)
(0.0739199 0.0267457 -4.51848e-20)
(0.11668 0.0144724 4.26134e-20)
(0.165421 0.00564241 -7.44454e-20)
(0.220152 0.00145764 2.01131e-21)
(0.280606 0.00287735 9.89874e-20)
(0.346437 0.0105191 -5.98554e-20)
(0.417163 0.0246265 3.02648e-20)
(0.491912 0.0453094 5.30812e-20)
(0.569513 0.0723224 4.59034e-20)
(0.648558 0.104957 -4.41835e-20)
(0.727441 0.142068 6.97862e-20)
(0.804374 0.182196 -6.73996e-20)
(0.876934 0.223639 1.18882e-20)
(0.94331 0.264191 0)
(0.998686 0.301173 1.71561e-20)
(1.05561 0.329123 -1.15023e-20)
(-0.0872712 0.0678161 0)
(-0.105002 0.0895642 -2.55195e-20)
(-0.115584 0.0995766 4.58537e-20)
(-0.12014 0.100273 -6.38425e-20)
(-0.119151 0.0936369 3.51607e-20)
(-0.112878 0.0817196 0)
(-0.10143 0.0663168 6.07877e-20)
(-0.084608 0.0491126 0)
(-0.0621026 0.0317753 -4.69352e-20)
(-0.0335849 0.0159068 -8.7716e-23)
(0.00117806 0.00302892 -3.87138e-20)
(0.0422288 -0.00552962 3.49326e-20)
(0.0894499 -0.00871214 -6.57953e-20)
(0.142498 -0.00571058 0)
(0.201093 0.0040915 0)
(0.26477 0.0209484 2.37638e-20)
(0.332692 0.0447917 -6.35724e-20)
(0.403884 0.0750977 2.24176e-20)
(0.477119 0.111094 -1.59042e-20)
(0.551016 0.151671 3.0575e-20)
(0.624172 0.195359 -1.18032e-20)
(0.695198 0.240327 0)
(0.761622 0.283403 0)
(0.825258 0.312921 -1.72265e-21)
(-0.112036 0.086581 1.43846e-20)
(-0.138839 0.108186 3.93556e-20)
(-0.159571 0.117417 0)
(-0.175023 0.116841 1.26692e-19)
(-0.185329 0.108657 -3.77456e-20)
(-0.190752 0.0947973 3.50328e-20)
(-0.191205 0.0768931 -3.02312e-20)
(-0.186357 0.0564769 -1.13635e-21)
(-0.175749 0.0351369 2.35359e-20)
(-0.15891 0.0145535 4.21121e-20)
(-0.135551 -0.00368901 -2.18756e-21)
(-0.105634 -0.0180779 -5.6464e-20)
(-0.0693313 -0.0273923 3.17016e-20)
(-0.0268697 -0.0306572 -5.84051e-20)
(0.0213225 -0.0270603 2.69307e-20)
(0.0747424 -0.0161457 -2.36769e-20)
(0.132865 0.00221251 -1.69273e-20)
(0.195054 0.0277811 4.674e-20)
(0.260585 0.0598764 -1.56817e-20)
(0.328492 0.0974489 2.11771e-20)
(0.397818 0.13903 -2.4381e-20)
(0.467903 0.182445 1.03053e-20)
(0.537593 0.223114 -9.97167e-21)
(0.605332 0.247124 3.03251e-22)
(-0.133266 0.105565 1.45294e-20)
(-0.167432 0.127411 -6.53378e-20)
(-0.195961 0.135998 -1.19359e-20)
(-0.21962 0.134208 -3.20763e-20)
(-0.238377 0.1244 0)
(-0.252444 0.108379 0)
(-0.261607 0.0875742 0)
(-0.265517 0.0633151 2.9334e-20)
(-0.26342 0.0369819 -5.39375e-20)
(-0.254743 0.0102505 1.22889e-21)
(-0.239134 -0.0150606 2.23348e-20)
(-0.216371 -0.0370548 3.74067e-20)
(-0.186836 -0.0541239 -5.03034e-20)
(-0.151023 -0.0651018 3.10772e-20)
(-0.109449 -0.0691011 0)
(-0.0627317 -0.0655121 0)
(-0.0114396 -0.0541493 8.89438e-21)
(0.043833 -0.0352165 8.05199e-21)
(0.102509 -0.00932653 5.30235e-21)
(0.164036 0.0224566 5.671e-21)
(0.227853 0.0583197 -1.43699e-20)
(0.293408 0.0951205 0)
(0.360476 0.127583 0)
(0.432101 0.146803 4.19618e-22)
(-0.150611 0.124586 3.60095e-21)
(-0.19036 0.146924 0)
(-0.224202 0.155005 -1.24313e-20)
(-0.25316 0.152038 0)
(-0.277104 0.140566 0)
(-0.296246 0.122239 0)
(-0.310224 0.098107 0)
(-0.318141 0.069055 1.58373e-20)
(-0.319252 0.036516 -1.48609e-20)
(-0.313346 0.00237131 0)
(-0.300248 -0.0312288 0)
(-0.279532 -0.0614315 0)
(-0.251886 -0.0866553 0)
(-0.218044 -0.106287 -1.06124e-20)
(-0.178613 -0.118862 1.39936e-20)
(-0.134396 -0.123544 0)
(-0.0861549 -0.120046 -6.75375e-21)
(-0.0345879 -0.108569 1.63737e-21)
(0.0196852 -0.0897288 5.51285e-21)
(0.0761097 -0.0646282 0)
(0.133857 -0.0350205 3.18941e-21)
(0.192237 -0.00389147 -4.68691e-22)
(0.25287 0.0241894 6.16235e-22)
(0.322583 0.0430923 -7.23749e-22)
(-0.163835 0.143451 0)
(-0.207351 0.166402 0)
(-0.243872 0.174027 1.4048e-20)
(-0.274948 0.169855 -2.93006e-21)
(-0.30037 0.156574 1.36294e-21)
(-0.320119 0.135499 -2.54445e-21)
(-0.333618 0.10735 2.37342e-21)
(-0.340472 0.0731311 0)
(-0.340484 0.0345797 -1.98191e-21)
(-0.333009 -0.00651387 -5.84479e-21)
(-0.317803 -0.0480281 0)
(-0.295324 -0.0884906 0)
(-0.265119 -0.125141 0)
(-0.227852 -0.15493 -8.57814e-21)
(-0.185045 -0.176732 -1.60884e-21)
(-0.137933 -0.189765 2.69494e-22)
(-0.0876292 -0.193772 -9.57303e-22)
(-0.0350545 -0.189001 -3.02582e-21)
(0.0190675 -0.176094 2.25107e-21)
(0.0740636 -0.156084 -8.89319e-22)
(0.129127 -0.130417 -8.09144e-22)
(0.183917 -0.101098 -1.69285e-22)
(0.240539 -0.0716688 -2.25518e-22)
(0.30256 -0.0500037 3.79242e-22)
(-0.172861 0.161957 0)
(-0.218353 0.185483 0)
(-0.254779 0.19259 0)
(-0.284613 0.187131 -4.96224e-20)
(-0.307691 0.171921 0)
(-0.324231 0.147931 0)
(-0.333989 0.115853 0)
(-0.336428 0.0765425 -1.922e-20)
(-0.330668 0.0309731 5.57768e-20)
(-0.31582 -0.018929 7.85858e-21)
(-0.29168 -0.0705149 2.71416e-21)
(-0.258847 -0.120795 -6.54686e-22)
(-0.218421 -0.166947 0)
(-0.171834 -0.206408 2.47823e-20)
(-0.120536 -0.237208 -1.64676e-20)
(-0.0660063 -0.258258 0)
(-0.00958759 -0.269112 8.07123e-21)
(0.0477108 -0.270206 -7.72732e-21)
(0.10528 -0.262416 -4.5266e-21)
(0.162776 -0.246879 0)
(0.220102 -0.224873 3.52473e-22)
(0.277547 -0.19793 3.73875e-22)
(0.335699 -0.168818 -3.52888e-22)
(0.392882 -0.14481 -1.51157e-22)
(-0.177794 0.179903 6.21502e-20)
(-0.223574 0.203746 -1.44413e-20)
(-0.256997 0.210149 6.73676e-20)
(-0.282 0.203284 4.991e-20)
(-0.298513 0.186214 2.45277e-20)
(-0.307035 0.159684 -9.39126e-20)
(-0.307213 0.123911 2.19569e-20)
(-0.298234 0.0792697 0)
(-0.279224 0.0267999 -7.9482e-20)
(-0.249885 -0.0314336 -3.61405e-20)
(-0.210572 -0.0925852 2.41776e-21)
(-0.162348 -0.152967 2.81601e-20)
(-0.106979 -0.208995 -2.1306e-20)
(-0.0463598 -0.257542 2.57236e-20)
(0.017372 -0.296119 6.71056e-20)
(0.0822625 -0.323432 -3.04332e-20)
(0.146859 -0.339485 1.08164e-20)
(0.210199 -0.345032 0)
(0.271927 -0.341334 -1.56418e-20)
(0.332067 -0.329932 1.75795e-20)
(0.391009 -0.312407 0)
(0.449365 -0.290373 -5.59371e-22)
(0.507054 -0.265621 8.07395e-23)
(0.56332 -0.239699 -1.86644e-23)
(-0.178954 0.1971 -4.76521e-20)
(-0.223518 0.220696 -1.17425e-19)
(-0.250908 0.226033 5.68556e-20)
(-0.267336 0.217507 -1.06602e-19)
(-0.272744 0.198495 0)
(-0.267825 0.169395 -2.00512e-21)
(-0.252118 0.129985 4.67779e-20)
(-0.224911 0.0803238 0)
(-0.18575 0.0213475 4.17815e-20)
(-0.135163 -0.0446196 8.45862e-20)
(-0.0744697 -0.114146 0)
(-0.00566282 -0.183095 6.96343e-20)
(0.0687251 -0.247154 -2.74742e-20)
(0.146106 -0.30255 -5.1085e-20)
(0.223599 -0.346698 -1.87433e-20)
(0.299208 -0.37827 3.2703e-20)
(0.37165 -0.397249 -1.09366e-20)
(0.439925 -0.404824 1.78399e-20)
(0.503706 -0.402869 -2.49891e-20)
(0.56323 -0.393548 3.86726e-21)
(0.61907 -0.379024 5.48574e-21)
(0.672172 -0.361302 2.70978e-21)
(0.722584 -0.341862 6.35921e-22)
(0.7745 -0.317407 1.97957e-22)
(-0.176943 0.213339 1.53364e-20)
(-0.219043 0.235711 -1.58843e-21)
(-0.237225 0.239372 -1.11708e-19)
(-0.241398 0.228814 2.16823e-19)
(-0.231138 0.207628 -5.39403e-20)
(-0.207494 0.17588 5.03743e-20)
(-0.170053 0.132967 -1.02306e-19)
(-0.118642 0.0788348 9.73203e-20)
(-0.0537019 0.0144533 -7.78815e-22)
(0.0230023 -0.0575891 -1.74262e-19)
(0.108777 -0.133283 1.65757e-19)
(0.200497 -0.208098 -6.99741e-20)
(0.294797 -0.277362 0)
(0.388029 -0.33697 5.1383e-20)
(0.477543 -0.384175 8.04209e-20)
(0.561268 -0.417401 -8.35622e-20)
(0.637365 -0.43684 -1.3078e-20)
(0.705185 -0.443998 -4.20916e-20)
(0.765009 -0.441193 1.22792e-20)
(0.817543 -0.431101 -3.90956e-20)
(0.863767 -0.416429 2.59954e-20)
(0.904811 -0.399535 -5.90599e-21)
(0.940701 -0.382477 -7.30484e-22)
(0.97964 -0.362217 1.85204e-22)
(-0.172725 0.228562 3.09899e-20)
(-0.211288 0.248085 1.51367e-19)
(-0.217685 0.249209 -8.70338e-20)
(-0.205618 0.236044 1.13012e-19)
(-0.17551 0.212359 -5.29585e-20)
(-0.128696 0.177856 2.16939e-19)
(-0.0651792 0.131693 -1.02318e-19)
(0.0141321 0.0737574 3.3219e-21)
(0.107114 0.00542379 0)
(0.210651 -0.0703407 9.0625e-20)
(0.320746 -0.149282 -2.51054e-19)
(0.432992 -0.226619 3.07282e-19)
(0.542976 -0.297706 -1.41172e-19)
(0.646805 -0.358357 -1.07149e-19)
(0.741405 -0.405525 1.52672e-20)
(0.823956 -0.43763 5.09638e-20)
(0.89332 -0.454994 9.55326e-20)
(0.950054 -0.459754 3.39619e-20)
(0.995703 -0.45467 -1.12746e-19)
(1.03183 -0.442387 6.30816e-20)
(1.0599 -0.425733 -1.72046e-21)
(1.0811 -0.40703 3.72973e-21)
(1.09676 -0.387598 5.77081e-21)
(1.10501 -0.363894 -6.95982e-21)
(-0.168696 0.242994 0)
(-0.20282 0.256986 6.32469e-20)
(-0.193842 0.254246 1.77536e-19)
(-0.161875 0.237964 -1.12318e-19)
(-0.10845 0.211603 2.2107e-19)
(-0.0354487 0.174379 3.75521e-21)
(0.0559827 0.125419 1.1028e-19)
(0.163531 0.064794 -1.03479e-19)
(0.283321 -0.00558951 0)
(0.410646 -0.0824372 0)
(0.540174 -0.161501 1.75617e-19)
(0.666623 -0.2381 1.57807e-19)
(0.784794 -0.307361 2.69331e-19)
(0.889958 -0.365208 -2.42412e-19)
(0.978359 -0.408729 9.69543e-20)
(1.04817 -0.436606 0)
(1.09994 -0.449826 -3.00023e-20)
(1.13628 -0.451426 -6.08026e-20)
(1.16057 -0.444413 6.32611e-20)
(1.17519 -0.430959 2.58845e-20)
(1.18205 -0.413211 8.09469e-21)
(1.18252 -0.392864 1.20941e-20)
(1.17702 -0.370642 9.03381e-21)
(1.16359 -0.342797 -6.84084e-21)
(-0.171822 0.256491 3.24167e-19)
(-0.196715 0.260192 -3.07989e-20)
(-0.16746 0.252745 -2.96711e-19)
(-0.112044 0.233382 5.553e-20)
(-0.0326783 0.204607 -3.28385e-19)
(0.0679225 0.165186 -2.18511e-19)
(0.187156 0.114417 -2.19848e-19)
(0.320974 0.0528485 -3.30066e-21)
(0.464003 -0.0172996 -1.00203e-19)
(0.610119 -0.0926649 1.88063e-19)
(0.752987 -0.168906 -1.75745e-19)
(0.886368 -0.241303 -7.04405e-21)
(1.00375 -0.305147 -2.81606e-19)
(1.10003 -0.356563 2.31204e-19)
(1.17289 -0.393382 -9.69525e-20)
(1.22259 -0.415172 -7.59839e-20)
(1.25242 -0.423447 0)
(1.26725 -0.422347 -3.82401e-20)
(1.27186 -0.414255 1.44272e-19)
(1.26802 -0.400464 -1.32189e-19)
(1.25765 -0.382497 2.5221e-20)
(1.24205 -0.361894 -1.19994e-20)
(1.22141 -0.338882 -7.79144e-21)
(1.1925 -0.3086 -3.25713e-21)
(-0.19366 0.2568 -2.92666e-19)
(-0.195674 0.252624 0)
(-0.139704 0.242179 0)
(-0.0573155 0.221182 0)
(0.0498604 0.191142 -1.09957e-19)
(0.17837 0.150823 1.05311e-19)
(0.324089 0.0999529 0)
(0.481358 0.0395819 4.12721e-19)
(0.643483 -0.0279444 3.74209e-21)
(0.802984 -0.0989856 -5.37654e-21)
(0.95241 -0.169442 -1.73089e-19)
(1.08386 -0.234524 -1.451e-19)
(1.1906 -0.289946 1.37883e-19)
(1.26924 -0.332677 -6.87998e-21)
(1.32058 -0.361707 -1.69397e-19)
(1.34766 -0.377823 2.37147e-19)
(1.35686 -0.381747 0)
(1.3544 -0.379408 -4.46221e-20)
(1.345 -0.372304 0)
(1.32681 -0.358413 -2.53593e-20)
(1.30399 -0.340979 -3.19984e-20)
(1.27723 -0.320789 3.08454e-20)
(1.246 -0.297504 7.67376e-21)
(1.2067 -0.265641 3.22131e-21)
(-0.0286671 0.0261474 1.71268e-20)
(-0.0660995 0.0297774 0)
(-0.119839 0.0130439 -7.48979e-22)
(-0.138742 0.0147003 -5.09075e-19)
(-0.145622 0.0303148 0)
(-0.235049 0.0383194 -8.6949e-20)
(-0.0554289 0.019221 9.92862e-19)
(-0.105759 0.0162221 0)
(-0.158762 -0.00404122 -5.19433e-19)
(-0.179524 -0.0060426 -6.00385e-19)
(-0.196776 0.000734481 -3.49031e-19)
(-0.240477 0.00662651 3.33392e-19)
(-0.0708127 0.0169781 -8.53582e-19)
(-0.129455 0.0120151 0)
(-0.182162 -0.0116786 0)
(-0.204849 -0.0192245 4.52879e-19)
(-0.224331 -0.0184123 8.4426e-19)
(-0.249838 -0.00328756 -8.71765e-20)
(-0.0854737 0.0160233 -7.96092e-19)
(-0.149634 0.00966422 4.23022e-20)
(-0.20058 -0.0152679 -3.29412e-20)
(-0.222659 -0.0270571 0)
(-0.238488 -0.0295325 -6.23139e-19)
(-0.25004 -0.0146664 -3.72966e-19)
(-0.100595 0.014058 8.173e-19)
(-0.16819 0.0074698 0)
(-0.21586 -0.0167362 -6.26929e-20)
(-0.23531 -0.0312447 4.89559e-22)
(-0.244446 -0.0361119 4.65979e-19)
(-0.242204 -0.0245769 -7.23841e-20)
(-0.11621 0.0120536 1.46281e-20)
(-0.184849 0.0046829 0)
(-0.22816 -0.0167819 0)
(-0.243452 -0.0325505 0)
(-0.24515 -0.0397623 4.08269e-19)
(-0.228343 -0.0322835 -7.09356e-20)
(-0.133973 0.0130196 -1.57584e-20)
(-0.198402 0.00289836 -6.46459e-19)
(-0.237542 -0.0154625 2.96114e-20)
(-0.248455 -0.0314695 0)
(-0.24193 -0.0408663 -3.24495e-19)
(-0.210041 -0.0371329 6.6322e-20)
(-0.147695 0.0136806 -1.57383e-20)
(-0.208817 0.00263179 1.22877e-18)
(-0.244358 -0.0126691 4.93371e-19)
(-0.251079 -0.0285587 -4.81589e-20)
(-0.235717 -0.0393745 0)
(-0.188455 -0.0388468 0)
(-0.159016 0.0144292 1.57246e-20)
(-0.216558 0.00390786 -5.87049e-19)
(-0.249097 -0.00831754 -4.01905e-19)
(-0.251899 -0.0238673 3.35137e-19)
(-0.227439 -0.0353637 0)
(-0.164623 -0.0373772 0)
(-0.168874 0.0155838 9.91222e-19)
(-0.22203 0.00666209 0)
(-0.252255 -0.00251604 -4.58122e-19)
(-0.251418 -0.0173538 -7.6602e-19)
(-0.218026 -0.029012 3.29022e-19)
(-0.139559 -0.0328636 0)
(-0.177011 0.0169661 -1.00638e-18)
(-0.225497 0.0108472 0)
(-0.254233 0.00466157 4.56462e-19)
(-0.250169 -0.0090562 3.36376e-19)
(-0.208321 -0.0204883 -2.89244e-19)
(-0.1143 -0.0256726 -1.4561e-19)
(-0.182948 0.0184849 -5.04293e-19)
(-0.227234 0.0163523 0)
(-0.255331 0.0132418 2.86475e-20)
(-0.248684 0.000889863 1.70603e-19)
(-0.199188 -0.00997818 -1.28102e-19)
(-0.0899679 -0.016389 1.09737e-19)
(-0.186394 0.0202836 5.04689e-19)
(-0.22747 0.0230335 1.83059e-20)
(-0.255809 0.0232253 1.45115e-20)
(-0.247476 0.0123569 -1.22167e-19)
(-0.191545 0.00236418 3.00809e-19)
(-0.0677388 -0.00571309 3.81863e-20)
(-0.187239 0.0228696 -7.88587e-21)
(-0.226413 0.0307462 4.60945e-21)
(-0.255892 0.0345692 1.0228e-19)
(-0.247011 0.0252349 1.30627e-20)
(-0.186419 0.0164724 -1.75984e-19)
(-0.0487507 0.00576966 1.14567e-21)
(-0.185809 0.0277751 0)
(-0.224322 0.0393728 0)
(-0.255719 0.0471612 -1.17931e-19)
(-0.247594 0.0394373 -1.01215e-19)
(-0.184637 0.0323249 6.69317e-20)
(-0.0344027 0.0178273 -8.95921e-20)
(-0.182433 0.0391393 -9.83058e-22)
(-0.221609 0.0486488 -7.4759e-20)
(-0.255455 0.0608446 -9.40176e-22)
(-0.249422 0.0547442 -5.26286e-20)
(-0.186601 0.0500449 7.03617e-20)
(-0.0259056 0.0306896 0)
(-0.172474 0.0577565 0)
(-0.218523 0.0574199 2.29071e-19)
(-0.255028 0.0751918 0)
(-0.252473 0.07091 6.56291e-20)
(-0.19272 0.0697559 4.73917e-20)
(-0.0241503 0.0445393 -1.06055e-20)
(-0.162366 0.0597008 -1.285e-20)
(-0.214389 0.0638122 -1.44406e-19)
(-0.253952 0.0895533 0)
(-0.256448 0.0876759 0)
(-0.203083 0.0914368 -9.51907e-20)
(-0.0297336 0.0591654 0)
(-0.150616 0.0549171 -4.06236e-19)
(-0.207921 0.0681305 9.88317e-21)
(-0.251433 0.103456 2.22799e-19)
(-0.260914 0.10492 2.73037e-20)
(-0.217273 0.114986 0)
(-0.0428915 0.0738572 -4.12699e-20)
(-0.134797 0.0502426 -2.42871e-20)
(-0.197893 0.0706622 2.02222e-20)
(-0.246608 0.116678 -5.23792e-19)
(-0.264871 0.122374 0)
(-0.234747 0.140366 0)
(-0.0635798 0.0876113 -2.31032e-19)
(-0.117205 0.0452997 4.0757e-19)
(-0.18408 0.0712964 0)
(-0.238765 0.12899 2.71451e-19)
(-0.266938 0.13926 -5.29703e-19)
(-0.254534 0.168328 5.10831e-20)
(-0.0914107 0.100013 -2.86259e-19)
(-0.101115 0.0390728 4.07396e-20)
(-0.166841 0.0696566 2.24034e-20)
(-0.227735 0.13981 -3.50032e-20)
(-0.264947 0.152629 6.15718e-20)
(-0.277147 0.20273 2.68943e-21)
(-0.125177 0.110838 3.49886e-19)
(-0.0835947 0.0304386 1.55263e-20)
(-0.145042 0.0642252 6.75311e-19)
(-0.212586 0.147088 6.39824e-19)
(-0.255491 0.160039 5.17248e-19)
(-0.302467 0.244767 0)
(-0.159195 0.112845 4.46232e-19)
(-0.050203 0.00726432 -1.70073e-20)
(-0.104161 0.0383497 -1.4496e-21)
(-0.178184 0.135461 -1.26939e-18)
(-0.21528 0.142422 0)
(-0.312363 0.300508 -4.74606e-19)
(-0.14374 0.0978427 -4.6239e-19)
(-0.252926 0.207924 4.93827e-20)
(-0.197255 0.226802 2.63867e-19)
(-0.108951 0.220239 0)
(0.00281278 0.200924 0)
(0.138797 0.171799 2.18575e-19)
(0.294848 0.132703 0)
(0.465274 0.0841045 0)
(0.642936 0.0273613 -4.06071e-19)
(0.819289 -0.0348487 5.65476e-19)
(0.985449 -0.0990317 -3.5307e-19)
(1.13224 -0.16102 1.65298e-19)
(1.2513 -0.216568 -1.19501e-20)
(1.33799 -0.262228 -1.28704e-19)
(1.39265 -0.296241 -1.06731e-19)
(1.42037 -0.318603 1.5575e-19)
(1.42626 -0.33137 -1.44122e-19)
(1.42063 -0.334304 4.55471e-20)
(1.4067 -0.332563 -9.30794e-20)
(1.38351 -0.324548 0)
(1.35575 -0.312242 -1.80119e-20)
(1.32457 -0.296351 5.91898e-20)
(1.29051 -0.277351 4.08772e-20)
(1.25253 -0.254317 -3.90099e-20)
(1.20697 -0.221807 1.84496e-21)
(-0.265148 0.147064 4.2535e-19)
(-0.185598 0.188393 -6.82757e-20)
(-0.070244 0.189049 2.3341e-19)
(0.0707951 0.174231 -2.16599e-19)
(0.235549 0.148533 -2.07755e-19)
(0.418183 0.113339 1.05001e-19)
(0.611211 0.0696456 -3.00552e-19)
(0.804838 0.0192482 1.89807e-19)
(0.988527 -0.0352054 -5.39765e-19)
(1.15174 -0.0904197 6.51076e-21)
(1.28456 -0.142568 4.50663e-19)
(1.38109 -0.188178 1.23278e-19)
(1.44147 -0.224943 -1.0351e-19)
(1.47138 -0.252164 1.1226e-19)
(1.47876 -0.270427 2.36296e-20)
(1.47122 -0.281028 1.32329e-19)
(1.45389 -0.285271 5.78837e-21)
(1.42888 -0.283538 0)
(1.3988 -0.277116 -2.72122e-20)
(1.36517 -0.266554 -7.73222e-20)
(1.32912 -0.252509 7.34697e-20)
(1.29085 -0.235138 0)
(1.24909 -0.213054 -1.95917e-20)
(1.20034 -0.181267 2.0955e-20)
(-0.256856 0.0985131 -3.39351e-19)
(-0.159874 0.146005 1.37322e-22)
(-0.0203903 0.15343 -3.50812e-19)
(0.1493 0.144514 1.12226e-19)
(0.342343 0.124757 2.08417e-19)
(0.550268 0.0961423 9.30929e-20)
(0.761829 0.0600765 9.40036e-20)
(0.964151 0.0184006 0)
(1.14512 -0.0267801 3.36878e-19)
(1.29319 -0.0723704 0)
(1.4012 -0.115155 -1.4206e-19)