/*--------------------------------*- C++ -*----------------------------------*\
  =========                 |
  \\      /  F ield         | OpenFOAM: The Open Source CFD Toolbox
   \\    /   O peration     | Website:  https://openfoam.org
    \\  /    A nd           | Version:  11
     \\/     M anipulation  |
\*---------------------------------------------------------------------------*/
FoamFile
{
    format      ascii;
    class       surfaceVectorField;
    location    "0.34";
    object      Uf;
}
// * * * * * * * * * * * * * * * * * * * * * * * * * * * * * * * * * * * * * //

dimensions      [0 1 -1 0 0 0 0];

internalField   nonuniform List<vector> 
5640
(
(0.0438361 0.0129601 1.80763e-19)
(0.0375035 0.0105827 2.68629e-19)
(0.0790109 -0.0250542 3.81759e-19)
(0.058348 -0.0109491 1.9183e-19)
(0.117656 -0.0683509 3.10618e-19)
(0.104041 -0.0617369 6.93141e-20)
(0.163097 -0.122888 -2.3279e-20)
(0.133087 -0.0963637 -4.44877e-20)
(0.201275 -0.18425 -1.80498e-19)
(0.186472 -0.15969 -2.48248e-19)
(0.178063 -0.151 1.34198e-19)
(0.378472 -0.169179 -2.2403e-20)
(0.0475499 -0.009276 2.84126e-19)
(0.0400194 -0.00212067 4.23975e-20)
(0.080369 -0.0497765 -1.2606e-19)
(0.0587844 -0.0319266 0)
(0.113844 -0.0911018 -2.92681e-19)
(0.0972392 -0.0782759 -1.31663e-19)
(0.145846 -0.130322 -2.60414e-19)
(0.119724 -0.109727 -4.47659e-20)
(0.178312 -0.163648 2.64264e-21)
(0.15311 -0.147904 1.42056e-19)
(0.153131 -0.139092 6.85629e-20)
(0.271407 -0.117102 2.40592e-19)
(0.0464506 -0.0213214 -2.43856e-19)
(0.0385048 -0.0111791 -4.50646e-19)
(0.0741097 -0.0609262 0)
(0.0547732 -0.0443811 1.0817e-20)
(0.101173 -0.0967529 1.16022e-19)
(0.085635 -0.0846353 -8.34433e-21)
(0.123418 -0.124239 3.59159e-19)
(0.10247 -0.109641 1.20079e-19)
(0.144366 -0.138944 2.39869e-19)
(0.123901 -0.130275 6.24799e-20)
(0.130211 -0.117558 -1.46967e-19)
(0.198729 -0.0957852 -1.22138e-19)
(0.0435756 -0.0306034 -2.22597e-19)
(0.0362469 -0.0199748 -7.54889e-21)
(0.0660332 -0.0676871 4.10735e-21)
(0.0496969 -0.0530817 1.0817e-20)
(0.0865848 -0.0967406 -8.62623e-21)
(0.0732562 -0.0865194 -2.48223e-20)
(0.101923 -0.114141 -1.74214e-19)
(0.0851417 -0.104236 -4.66423e-22)
(0.117264 -0.116822 -2.92588e-19)
(0.0989361 -0.112901 -4.22492e-20)
(0.107646 -0.0973227 -1.4257e-19)
(0.15506 -0.0810991 -1.39905e-19)
(0.0399157 -0.0387798 2.24789e-19)
(0.0336712 -0.0285001 2.1601e-19)
(0.0572695 -0.0713232 -1.57768e-20)
(0.0440738 -0.0587021 0)
(0.071764 -0.0933161 -1.7617e-20)
(0.0607218 -0.0852157 -1.6478e-20)
(0.0817514 -0.102338 1.32289e-19)
(0.0681591 -0.0958898 -4.66423e-22)
(0.0929513 -0.097354 1.2183e-19)
(0.0762861 -0.0960635 2.57659e-19)
(0.0843798 -0.0783496 -4.45791e-20)
(0.120524 -0.0669237 7.50935e-20)
(0.0359948 -0.0449517 3.68293e-21)
(0.0293208 -0.0353075 -4.72355e-22)
(0.0480851 -0.072085 0)
(0.0375964 -0.0612834 -1.6728e-19)
(0.0570816 -0.0873748 0)
(0.0480623 -0.0814313 7.50276e-21)
(0.0625075 -0.0894921 1.17747e-19)
(0.0514725 -0.0857362 0)
(0.0696174 -0.0792342 1.04811e-19)
(0.0548864 -0.0795528 2.69556e-20)
(0.0603959 -0.0600727 -3.62864e-22)
(0.089102 -0.0520025 -2.39849e-20)
(0.0293175 -0.0489388 -1.61812e-19)
(0.0215119 -0.0389902 -8.20159e-21)
(0.0381175 -0.0703298 -1.67725e-19)
(0.0297096 -0.0612785 1.51051e-19)
(0.0424554 -0.0796404 7.75623e-21)
(0.0352234 -0.075851 1.35472e-19)
(0.0438419 -0.075993 -9.15581e-20)
(0.0350541 -0.0745145 -1.2707e-20)
(0.0467208 -0.0617493 -7.5361e-20)
(0.0342331 -0.0632189 -9.41992e-20)
(0.0360062 -0.0421355 2.16145e-20)
(0.0589861 -0.0362576 -8.57006e-20)
(0.0201015 -0.04997 2.95814e-19)
(0.012265 -0.0406798 2.97e-24)
(0.0272814 -0.0667168 4.55156e-19)
(0.0205325 -0.0597323 1.66905e-19)
(0.027904 -0.0708067 1.20087e-19)
(0.0222902 -0.0691904 2.51007e-20)
(0.0256033 -0.0621289 -1.30633e-20)
(0.0189731 -0.0627341 7.70445e-20)
(0.0241605 -0.0445546 0)
(0.0141765 -0.0470203 0)
(0.011623 -0.0243683 0)
(0.0296753 -0.0198439 0)
(0.0113259 -0.0494725 -1.38698e-19)
(0.00388968 -0.0417225 2.72713e-19)
(0.0160085 -0.0621473 -2.56949e-19)
(0.0107768 -0.0572891 -1.51961e-19)
(0.0135614 -0.0613958 -1.95564e-20)
(0.00949448 -0.0620045 -2.20323e-19)
(0.0078324 -0.048143 9.22679e-20)
(0.00334344 -0.0507488 -1.12585e-19)
(0.00209614 -0.0275872 0)
(-0.00517468 -0.0310344 9.09206e-20)
(-0.0122936 -0.00669653 0)
(0.00121859 -0.00290681 0)
(0.00263752 -0.0485314 2.83951e-19)
(-0.00371655 -0.0419074 -3.91316e-21)
(0.00470395 -0.0571362 -1.12426e-19)
(0.000932274 -0.0543639 0)
(-0.000386997 -0.0518044 -3.1691e-19)
(-0.00293737 -0.0546785 -1.11826e-21)
(-0.00928668 -0.0342572 -1.19659e-19)
(-0.0116499 -0.0388527 -1.14648e-19)
(-0.0191663 -0.0108304 9.31002e-20)
(-0.0236048 -0.0153633 1.20183e-20)
(-0.035255 0.0108931 -4.13568e-20)
(-0.02609 0.0144395 1.18821e-20)
(-0.00562294 -0.0470006 -2.87922e-19)
(-0.010525 -0.0411716 -4.08837e-19)
(-0.00632243 -0.0519836 1.11365e-19)
(-0.00866318 -0.0512111 0)
(-0.0137664 -0.0423199 2.05006e-19)
(-0.0148277 -0.0474721 1.23694e-19)
(-0.025513 -0.0206667 1.34101e-20)
(-0.0257985 -0.0273025 1.31795e-19)
(-0.0392836 0.00567915 -1.21163e-19)
(-0.0408575 -0.000114095 -1.12568e-19)
(-0.056775 0.0283498 -1.04856e-20)
(-0.0518073 0.0320757 -4.82296e-20)
(-0.0133555 -0.0448606 -1.44502e-19)
(-0.0165376 -0.0394753 -8.26402e-23)
(-0.0168444 -0.0468926 7.06524e-21)
(-0.0177733 -0.0479938 4.7322e-21)
(-0.0263168 -0.0331921 5.03007e-20)
(-0.0260377 -0.0406026 1.11707e-20)
(-0.0406108 -0.00754497 1.25874e-20)
(-0.0389188 -0.0162875 1.28509e-20)
(-0.0578969 0.0218496 -4.30654e-21)
(-0.0566773 0.0145862 4.50297e-20)
(-0.0763939 0.045571 4.13178e-20)
(-0.0754512 0.0498493 3.60055e-20)
(-0.0203185 -0.0422071 1.48814e-19)
(-0.0217882 -0.0368415 1.34321e-19)
(-0.0266969 -0.0420032 8.52437e-21)
(-0.0262268 -0.0447704 5.89414e-21)
(-0.0379721 -0.0245762 -2.61472e-20)
(-0.0364549 -0.0342127 2.93619e-20)
(-0.0543872 0.0049505 4.43905e-20)
(-0.05089 -0.00599522 -2.80956e-20)
(-0.074676 0.0375525 9.07802e-20)
(-0.0708454 0.0285783 3.36475e-20)
(-0.0937087 0.0624095 1.05436e-20)
(-0.0965533 0.0676221 1.81756e-20)
(-0.0266063 -0.0390353 -1.26881e-21)
(-0.0262974 -0.0332951 -2.16002e-21)
(-0.0357693 -0.0373963 2.56938e-20)
(-0.0339056 -0.0415722 1.16193e-21)
(-0.0486171 -0.0166299 2.93964e-20)
(-0.0460335 -0.0284104 -4.00183e-21)
(-0.0666965 0.0166423 -4.05764e-20)
(-0.0616455 0.00339827 -2.22798e-20)
(-0.0893473 0.0526174 -4.60406e-20)
(-0.0832006 0.0416641 -2.80832e-20)
(-0.108386 0.0786742 -2.32546e-20)
(-0.114719 0.0852188 6.16828e-21)
(-0.0321483 -0.0353794 0)
(-0.0300586 -0.0288904 -2.71103e-22)
(-0.0440031 -0.0331127 -2.83132e-20)
(-0.04073 -0.0383711 -1.90681e-20)
(-0.0582276 -0.00948561 -5.51211e-20)
(-0.0547899 -0.023271 -2.98095e-20)
(-0.0774582 0.0273307 -9.62108e-21)
(-0.0711883 0.0117064 -3.84669e-20)
(-0.101708 0.0668241 -5.41625e-21)
(-0.093659 0.0535938 3.4492e-20)
(-0.120167 0.0941119 -2.33594e-20)
(-0.129616 0.102437 -2.58026e-20)
(-0.0369072 -0.0312776 -1.82669e-20)
(-0.0330153 -0.0236925 -2.71103e-22)
(-0.0513888 -0.0291528 -2.01074e-20)
(-0.0466537 -0.0350853 3.96597e-20)
(-0.0668485 -0.00326839 -1.28675e-20)
(-0.0628055 -0.0188413 -2.37985e-22)
(-0.086672 0.0367804 3.60107e-21)
(-0.0796011 0.0187241 3.34462e-21)
(-0.11164 0.0798874 1.79381e-20)
(-0.102233 0.0640524 2.92047e-20)
(-0.128873 0.108391 -2.6103e-21)
(-0.140998 0.119033 0)
(-0.0408195 -0.0268392 5.53353e-20)
(-0.0350434 -0.0177617 -4.36415e-21)
(-0.0579626 -0.0254769 6.12221e-20)
(-0.0516427 -0.0315723 2.10068e-20)
(-0.0746008 0.00189986 1.5851e-20)
(-0.0702274 -0.0151378 0)
(-0.0944321 0.0447103 2.82337e-20)
(-0.0870573 0.0242245 1.64052e-20)
(-0.119127 0.0914396 9.35431e-21)
(-0.109052 0.0726415 -1.19329e-20)
(-0.134408 0.121079 -2.6103e-21)
(-0.148723 0.134716 -3.04408e-21)
(-0.0437295 -0.0221686 -4.03285e-20)
(-0.0360359 -0.0111588 -1.3617e-19)
(-0.063796 -0.0219877 -3.93086e-20)
(-0.0555884 -0.0275958 -3.51389e-20)
(-0.0816862 0.0059062 0)
(-0.0772675 -0.0121356 5.65607e-20)
(-0.100944 0.050785 -2.29709e-20)
(-0.093831 0.0279619 6.76014e-21)
(-0.124267 0.100995 -2.42e-20)
(-0.114395 0.0788581 -2.36335e-20)
(-0.136741 0.13161 -1.12841e-20)
(-0.152754 0.149129 2.5911e-20)
(-0.0456399 -0.0156611 -1.37183e-19)
(-0.0353924 -0.00385963 -1.36801e-19)
(-0.0689618 -0.0184774 5.68282e-20)
(-0.0583487 -0.0227813 7.89379e-21)
(-0.088393 0.00866882 6.48054e-20)
(-0.0842023 -0.00974047 -7.91617e-20)
(-0.106546 0.0546078 6.94968e-21)
(-0.100316 0.0296858 6.76014e-21)
(-0.127293 0.107908 -1.10136e-20)
(-0.118755 0.0820619 0)
(-0.135852 0.139233 -6.69115e-20)
(-0.153142 0.161836 -3.44678e-20)
(-0.0457239 -0.00879506 -2.212e-21)
(-0.0336469 0.00382581 1.01471e-19)
(-0.073612 -0.0146848 -1.24267e-19)
(-0.0603286 -0.0166895 5.32857e-21)
(-0.0951134 0.0101433 -1.40173e-19)
(-0.0913589 -0.0077674 -6.37499e-20)
(-0.111748 0.0557173 0)
(-0.107054 0.0291647 -1.34019e-19)
(-0.128647 0.111346 -5.42939e-20)
(-0.122939 0.0814403 1.26816e-20)
(-0.131515 0.142945 -1.23306e-19)
(-0.149978 0.172355 -6.08257e-20)
(-0.0453411 -0.0018023 1.12947e-19)
(-0.0320749 0.0114283 1.1776e-19)
(-0.0783124 -0.01047 6.86222e-20)
(-0.0621793 -0.00920499 6.26406e-21)
(-0.102295 0.0102735 -5.53978e-20)
(-0.0989566 -0.00596831 6.21205e-20)
(-0.117249 0.0535362 -1.25975e-19)
(-0.114749 0.0262404 -1.17468e-19)
(-0.128906 0.110025 -5.2345e-20)
(-0.128193 0.075923 1.28152e-20)
(-0.122972 0.14145 1.31832e-20)
(-0.143228 0.180063 -7.28178e-20)
(-0.0450783 0.00549529 1.82821e-20)
(-0.0302785 0.018969 1.53478e-20)
(-0.0832134 -0.00585281 -3.88838e-21)
(-0.0635202 3.14573e-05 1.99899e-19)
(-0.11024 0.00896937 6.51862e-21)
(-0.106805 -0.00377898 1.65594e-19)
(-0.12393 0.047416 1.88794e-20)
(-0.124102 0.0210313 1.49808e-19)
(-0.12883 0.102458 7.46006e-20)
(-0.136132 0.0641643 1.3363e-22)
(-0.108129 0.133731 1.68475e-19)
(-0.133405 0.184537 9.561e-20)
(-0.043532 0.0141943 1.88204e-19)
(-0.024923 0.0277802 -3.0318e-19)
(-0.0874673 -0.000203883 3.71363e-19)
(-0.0589013 0.0143828 1.94346e-19)
(-0.118727 0.00677767 3.11477e-19)
(-0.111477 0.00149394 -1.79713e-19)
(-0.132564 0.0373742 1.38759e-19)
(-0.133689 0.0152745 -6.68284e-21)
(-0.128505 0.0879963 8.44158e-20)
(-0.14624 0.0455098 -1.16939e-19)
(-0.0850353 0.120127 -4.59438e-20)
(-0.123073 0.185567 2.3601e-19)
(-0.035274 0.0303237 -3.25063e-19)
(-0.0848361 0.0155828 -3.34369e-19)
(-0.125514 0.0143952 -4.98179e-19)
(-0.14358 0.0335297 -2.59289e-19)
(-0.131319 0.0769109 -2.10929e-19)
(-0.121204 0.184717 -2.30968e-19)
(0.848715 -0.272737 -1.15511e-20)
(0.563147 -0.180349 7.39839e-20)
(0.819194 -0.298094 1.27723e-19)
(1.06361 -0.290676 6.56004e-20)
(0.895429 -0.232907 6.79474e-20)
(1.03258 -0.315487 6.50073e-20)
(1.18493 -0.289207 1.25566e-20)
(1.08399 -0.258406 7.50911e-20)
(1.16116 -0.3044 3.48577e-21)
(1.26072 -0.281356 -2.08056e-20)
(1.19949 -0.267896 -4.76954e-20)
(1.24411 -0.29286 0)
(1.30839 -0.269915 -2.96929e-20)
(1.27202 -0.266034 -5.79401e-20)
(1.29595 -0.27961 5.95719e-21)
(1.3391 -0.256372 -1.24846e-21)
(1.31802 -0.257921 3.41158e-21)
(1.32858 -0.265073 3.8973e-21)
(1.35946 -0.241422 6.5464e-21)
(1.34784 -0.24623 -2.09467e-20)
(1.34924 -0.249411 2.79548e-21)
(1.37254 -0.225252 2.29885e-20)
(1.36789 -0.232117 1.52805e-20)
(1.36214 -0.232949 -1.41016e-20)
(1.38017 -0.20744 1.54612e-20)
(1.38182 -0.215978 -9.97643e-21)
(1.36944 -0.215271 2.96706e-20)
(1.38433 -0.188701 -9.54485e-21)
(1.39067 -0.198613 -8.332e-21)
(1.37336 -0.196847 -9.0462e-21)
(1.38595 -0.169504 1.01619e-22)
(1.39562 -0.179797 2.3532e-20)
(1.37491 -0.178069 1.00188e-21)
(1.38547 -0.150213 -1.42596e-21)
(1.39771 -0.160264 6.24322e-21)
(1.37451 -0.159224 1.42262e-21)
(1.38302 -0.131131 -3.66568e-21)
(1.39742 -0.140503 -3.06996e-22)
(1.37231 -0.140571 -3.37634e-21)
(1.37862 -0.112551 -3.27712e-21)
(1.39491 -0.120915 3.16797e-21)
(1.36832 -0.12236 6.28055e-21)
(1.37222 -0.09477 0)
(1.39021 -0.101879 2.70497e-21)
(1.36248 -0.104841 0)
(1.36371 -0.0780824 3.38902e-21)
(1.38329 -0.083739 -7.87875e-22)
(1.3547 -0.0882696 -7.75462e-21)
(1.35296 -0.0627901 -8.12709e-21)
(1.37405 -0.0668318 7.93075e-22)
(1.34486 -0.0729054 1.84662e-20)
(1.33977 -0.0492078 -1.32749e-20)
(1.36237 -0.0515003 -1.16512e-20)
(1.33278 -0.0590443 -1.72724e-20)
(1.3238 -0.0376976 1.06128e-20)
(1.34806 -0.0381197 1.1924e-21)
(1.31819 -0.0470027 -1.80206e-20)
(1.30446 -0.0286961 -8.62609e-21)
(1.33069 -0.0270085 3.13593e-20)
(1.30052 -0.0370625 4.45833e-20)
(1.28087 -0.0228189 -2.01487e-20)
(1.30948 -0.0185012 -3.92768e-20)
(1.27895 -0.0295289 -7.106e-20)
(1.25151 -0.021141 -3.54357e-20)
(1.2838 -0.0139431 -4.68711e-21)
(1.2529 -0.0258316 -2.62996e-20)
(1.21349 -0.0258549 -1.06704e-19)
(1.25396 -0.0181027 2.44729e-20)
(1.22273 -0.0307774 -1.51063e-20)
(1.2168 -0.0355902 -7.61224e-21)
(1.18524 -0.047399 5.1862e-20)
(0.61869 -0.150793 1.57568e-19)
(0.36501 -0.0916843 6.68864e-21)
(0.908543 -0.204021 5.41709e-20)
(0.686096 -0.138499 -5.01985e-21)
(1.09515 -0.238458 1.71223e-20)
(0.924699 -0.182944 -3.34563e-20)
(1.20989 -0.252945 -8.46585e-20)
(1.0912 -0.213214 -3.34255e-20)
(1.28113 -0.254092 -2.57678e-20)
(1.20509 -0.231296 -3.27336e-21)
(1.32661 -0.247973 -1.61373e-20)
(1.27919 -0.237257 3.23485e-20)
(1.35637 -0.237096 -1.35049e-20)
(1.32809 -0.234364 -1.47958e-20)
(1.37716 -0.223203 -1.84278e-20)
(1.36035 -0.225442 1.66169e-20)
(1.3921 -0.207524 -3.44374e-20)
(1.38312 -0.213008 1.30851e-21)
(1.40184 -0.190048 2.41525e-20)
(1.39945 -0.197247 1.90561e-21)
(1.40736 -0.170771 3.0129e-20)
(1.41124 -0.179257 1.38598e-20)
(1.40973 -0.150706 7.43977e-21)
(1.41849 -0.160219 7.71616e-22)
(1.4094 -0.130405 6.45068e-21)
(1.42182 -0.139884 -1.42927e-20)
(1.40658 -0.110338 9.26183e-21)
(1.42192 -0.11909 2.73572e-21)
(1.40136 -0.0909349 2.08001e-21)
(1.41911 -0.0985171 8.25685e-21)
(1.39371 -0.0725691 -3.50794e-21)
(1.41359 -0.0786586 -7.42366e-21)
(1.38356 -0.0556273 -2.75466e-21)
(1.40535 -0.0599722 -4.88707e-22)
(1.37076 -0.0404918 2.70842e-21)
(1.39433 -0.0428935 3.08574e-21)
(1.3551 -0.027555 2.19809e-20)
(1.38042 -0.0278463 1.77121e-21)
(1.33612 -0.0172741 -2.29301e-21)
(1.36341 -0.0152196 1.67673e-20)
(1.313 -0.0102903 -1.85593e-20)
(1.34265 -0.0053621 -1.84454e-20)
(1.28413 -0.00781073 2.66645e-20)
(1.31756 0.000510043 0)
(1.2462 -0.0125273 1.21283e-19)
(1.28833 -0.00215028 5.88249e-21)
(1.25214 -0.0199196 -1.08413e-20)
(0.43359 -0.0817818 -1.02109e-19)
(0.252102 -0.0600174 -1.10049e-19)
(0.698508 -0.115294 -8.09061e-20)
(0.493879 -0.0698544 -6.20866e-20)
(0.917441 -0.157648 -7.70948e-20)
(0.721403 -0.102165 -1.1414e-19)
(1.08371 -0.192604 5.66954e-20)
(0.910446 -0.138563 7.82409e-20)
(1.20175 -0.214848 5.79947e-20)
(1.06162 -0.169806 8.84316e-20)
(1.28032 -0.223861 3.34997e-20)
(1.17692 -0.190758 -2.69362e-20)
(1.332 -0.222813 1.40956e-20)
(1.262 -0.202791 3.11184e-20)
(1.36665 -0.215157 3.38691e-20)
(1.32115 -0.205433 2.58536e-20)
(1.39094 -0.202662 3.46593e-20)
(1.36245 -0.200214 -3.53889e-20)
(1.40896 -0.18669 -9.33785e-21)
(1.39174 -0.189139 2.19338e-20)
(1.42213 -0.169051 -1.68059e-20)
(1.413 -0.174435 -9.43627e-21)
(1.43041 -0.149728 -2.20651e-20)
(1.42842 -0.156297 -7.34914e-21)
(1.4343 -0.128779 -1.84681e-20)
(1.43919 -0.13586 -5.37669e-21)
(1.4345 -0.107358 1.89076e-21)
(1.44517 -0.114904 -3.58491e-21)
(1.43147 -0.0862961 -9.87111e-22)
(1.44642 -0.0934541 7.14264e-22)
(1.42536 -0.0660963 -4.59139e-21)
(1.44372 -0.0719946 -2.0088e-20)
(1.41624 -0.0472792 5.00032e-21)
(1.43742 -0.0514464 1.67532e-20)
(1.40412 -0.0303009 2.12689e-21)
(1.42775 -0.032432 1.7821e-21)
(1.3889 -0.0156123 -3.8432e-21)
(1.41472 -0.015466 1.09579e-21)
(1.37035 -0.00369831 -2.61388e-21)
(1.39826 -0.00102915 -7.27222e-22)
(1.34784 0.00481762 0)
(1.37809 0.0105057 -3.65092e-21)
(1.31981 0.00866323 -2.08171e-20)
(1.3538 0.0180978 1.21589e-20)
(1.28251 0.00462981 -1.22481e-19)
(1.32549 0.0177257 -1.72496e-20)
(1.29117 0.000487766 2.14786e-21)
(0.308409 -0.0477419 -6.7087e-20)
(0.184492 -0.0465544 1.21671e-19)
(0.511961 -0.0547269 -9.15787e-20)
(0.350493 -0.0316402 -1.47367e-19)
(0.711242 -0.0818492 3.39702e-20)
(0.534711 -0.0432275 -1.25667e-19)
(0.886181 -0.115091 1.0694e-19)
(0.708626 -0.0684868 8.66434e-20)
(1.03455 -0.146573 -1.62201e-21)
(0.863177 -0.0978875 -2.77688e-20)
(1.15624 -0.171132 -3.86569e-20)
(0.998804 -0.126178 -5.45162e-20)
(1.24964 -0.186156 4.2944e-20)
(1.11505 -0.148174 -2.36068e-20)
(1.3165 -0.190913 -4.10694e-20)
(1.21077 -0.161712 -9.70067e-21)
(1.36337 -0.186839 -4.88264e-20)
(1.28646 -0.167632 -5.31149e-20)
(1.39632 -0.176453 2.21626e-20)
(1.34385 -0.166261 -4.67506e-20)
(1.42008 -0.161257 0)
(1.38563 -0.157856 2.26549e-20)
(1.43756 -0.142444 9.35842e-21)
(1.41624 -0.14375 0)
(1.44987 -0.122291 9.5289e-21)
(1.43824 -0.126287 9.44597e-21)
(1.4568 -0.101331 -5.58237e-21)
(1.45349 -0.105996 -1.62541e-20)
(1.45856 -0.0794001 -1.88994e-20)
(1.46305 -0.0835539 -5.62932e-21)
(1.4558 -0.0574119 1.85876e-21)
(1.46721 -0.0610151 4.76299e-21)
(1.44904 -0.0365996 1.41124e-20)
(1.46574 -0.039361 6.51013e-21)
(1.4385 -0.0175907 1.74316e-21)
(1.45926 -0.0185608 1.17478e-20)
(1.42428 -0.000920621 4.20806e-21)
(1.44842 0.000416975 1.70154e-22)
(1.40641 0.012894 -4.22092e-21)
(1.43341 0.0168483 -4.39335e-22)
(1.38467 0.0232688 8.4103e-21)
(1.41428 0.0302559 -2.87016e-21)
(1.35785 0.0290031 3.10854e-20)
(1.39109 0.0398012 1.14159e-20)
(1.32195 0.0264441 1.01905e-19)
(1.36406 0.0423495 5.09378e-21)
(1.33286 0.0267317 -1.56579e-20)
(0.222594 -0.0294934 4.784e-20)
(0.135554 -0.0353146 1.20725e-19)
(0.368656 -0.0190265 -1.8533e-19)
(0.247878 -0.010543 1.25919e-19)
(0.52818 -0.0290332 -7.69413e-20)
(0.384822 -0.00695843 -2.33783e-20)
(0.682845 -0.0507637 -4.66133e-20)
(0.52692 -0.0188776 6.46362e-20)
(0.826088 -0.0770042 -7.99726e-20)
(0.663498 -0.0391479 -1.3764e-19)
(0.956441 -0.102725 -4.02402e-20)
(0.792407 -0.0627691 2.03536e-21)
(1.07432 -0.124802 -7.64301e-20)
(0.912068 -0.0854081 2.13497e-20)
(1.17826 -0.140656 -1.04268e-20)
(1.02357 -0.10505 2.27656e-21)
(1.26472 -0.148795 -4.72435e-20)
(1.12502 -0.118505 5.86929e-20)
(1.33189 -0.148711 -5.30568e-20)
(1.2144 -0.124365 -5.47487e-20)
(1.3816 -0.140896 2.28772e-20)
(1.2897 -0.123197 2.43236e-20)
(1.41738 -0.12721 0)
(1.3508 -0.116182 -2.70161e-20)
(1.44272 -0.109198 -1.61113e-20)
(1.39705 -0.103734 4.19052e-20)
(1.46041 -0.0878283 -1.63896e-20)
(1.43083 -0.0863224 -4.20378e-20)
(1.47174 -0.0653198 1.89122e-20)
(1.45462 -0.0660783 -3.05565e-20)
(1.47681 -0.0432756 9.71705e-21)
(1.46986 -0.0441813 5.74243e-20)
(1.47572 -0.0215632 3.81323e-21)
(1.4779 -0.0210982 -5.93172e-20)
(1.46915 -0.000638615 1.04709e-20)
(1.47938 0.0015845 1.71513e-21)
(1.45767 0.0181852 -4.67864e-21)
(1.47441 0.0221804 -2.21106e-21)
(1.44165 0.034064 -1.70938e-21)
(1.46335 0.0404167 -1.44102e-20)
(1.42129 0.0464448 -3.05698e-21)
(1.44692 0.0557515 1.10249e-20)
(1.39617 0.0543651 6.45894e-22)
(1.42582 0.0672222 -3.45322e-22)
(1.36264 0.0540641 3.39456e-21)
(1.40061 0.0729625 3.03734e-22)
(1.37416 0.0602333 1.06799e-21)
(0.158099 -0.0159492 1.99896e-19)
(0.0942943 -0.0228722 -1.31286e-19)
(0.260545 0.00237983 2.87135e-19)
(0.170179 0.00422614 -3.14047e-21)
(0.380204 0.00381235 1.1634e-19)
(0.267983 0.0153535 8.18677e-20)
(0.504728 -0.00699948 -2.48988e-20)
(0.376306 0.0126724 3.3574e-20)
(0.627524 -0.0248305 -5.71939e-20)
(0.487086 0.000780972 -1.23588e-19)
(0.746392 -0.0454164 6.30888e-20)
(0.597137 -0.0161994 2.03536e-21)
(0.860591 -0.0654309 9.7553e-20)
(0.704981 -0.0347334 8.49541e-20)
(0.96967 -0.0824533 6.78534e-20)
(0.81083 -0.0522572 -2.68111e-20)
(1.07323 -0.094843 6.11668e-20)
(0.913695 -0.0665219 7.08984e-20)
(1.16985 -0.101413 3.01484e-20)
(1.01333 -0.0764528 2.64133e-20)
(1.25606 -0.101408 -2.50658e-20)
(1.10841 -0.0807197 -6.27558e-20)
(1.32805 -0.094911 1.42502e-20)
(1.19635 -0.0780423 2.51761e-20)
(1.38398 -0.0822811 1.94588e-20)
(1.27411 -0.0688461 -3.77631e-20)
(1.42496 -0.06488 -5.37795e-20)
(1.33947 -0.0545658 2.66523e-20)
(1.45328 -0.0442696 1.23777e-20)
(1.39138 -0.0368555 3.47173e-20)
(1.47163 -0.0213294 -2.32515e-21)
(1.42917 -0.0160551 3.28727e-21)
(1.48178 0.00218888 -5.82758e-20)
(1.45491 0.00655593 -5.33749e-20)
(1.48439 0.0241944 -1.09395e-20)
(1.47033 0.029227 1.75242e-20)
(1.47981 0.0442144 -1.1291e-20)
(1.47665 0.0514582 -5.77316e-21)
(1.46871 0.0619214 -6.59557e-22)
(1.47495 0.0719792 1.84203e-20)
(1.45183 0.0763544 1.03036e-20)
(1.4657 0.0893314 -2.07749e-20)
(1.4297 0.0865122 -1.34046e-21)
(1.44979 0.102439 1.49331e-20)
(1.39998 0.089084 -2.27532e-21)
(1.42797 0.111187 -1.66378e-22)
(1.40856 0.102569 -9.28362e-22)
(0.104595 -0.00276557 -3.34252e-19)
(0.0566125 -0.00883622 -1.31938e-19)
(0.175181 0.0178027 -2.08316e-19)
(0.106387 0.0177113 1.3714e-21)
(0.261625 0.0248125 0)
(0.174057 0.0314054 0)
(0.356375 0.0208476 -6.36414e-20)
(0.252838 0.0333526 7.76946e-20)
(0.454602 0.00956754 -6.57071e-20)
(0.337554 0.0266293 6.6428e-20)
(0.554032 -0.00561693 2.24287e-20)
(0.425454 0.0144784 -5.86196e-20)
(0.653766 -0.0217344 -3.79046e-20)
(0.515234 -0.000144003 2.27453e-20)
(0.753591 -0.0365176 -2.55212e-20)
(0.606678 -0.0148072 -1.07891e-19)
(0.853091 -0.0482195 3.8489e-20)
(0.69944 -0.0275121 -1.71421e-21)
(0.951503 -0.0555176 -6.17886e-20)
(0.793293 -0.0367788 7.58266e-20)
(1.04775 -0.0575311 -8.21829e-21)
(0.887578 -0.0413861 -3.05634e-20)
(1.14052 -0.0538331 -2.17328e-20)
(0.980977 -0.0406927 8.864e-20)
(1.22689 -0.0444161 -3.12046e-20)
(1.07253 -0.0345201 -4.84813e-20)
(1.30285 -0.0299222 1.15082e-19)
(1.15944 -0.0224541 -3.39634e-20)
(1.36486 -0.0112162 2.40772e-20)
(1.2386 -0.00480496 9.96853e-20)
(1.41141 0.0104401 -4.44621e-20)
(1.30696 0.0170909 -3.95767e-20)
(1.44341 0.0335186 2.1189e-20)
(1.36236 0.0410031 -6.39101e-22)
(1.46289 0.0569933 2.04795e-20)
(1.40372 0.0653987 2.2908e-20)
(1.47192 0.079493 2.35133e-20)
(1.43125 0.0893784 -1.13767e-20)
(1.47186 0.0992431 -3.54749e-22)
(1.44658 0.111421 1.73808e-20)
(1.46347 0.115265 -1.20864e-20)
(1.45106 0.130956 -2.3195e-20)
(1.44777 0.127283 1.61733e-20)
(1.44649 0.146429 9.2519e-21)
(1.42461 0.133121 1.16097e-21)
(1.43243 0.158035 4.76014e-23)
(1.42386 0.154636 -2.07089e-22)
(0.0572282 0.0113299 1.99266e-19)
(0.0211102 0.00658565 0)
(0.10362 0.0316365 2.08436e-19)
(0.0507946 0.0317471 1.27245e-19)
(0.163544 0.0404698 7.62498e-20)
(0.0948747 0.0455563 6.76182e-20)
(0.232339 0.0396437 2.07557e-19)
(0.149171 0.0490233 2.16052e-22)
(0.306833 0.0319344 7.5007e-20)
(0.210434 0.0445647 3.05184e-20)
(0.385278 0.0201554 -5.94357e-20)
(0.276732 0.0348395 3.05359e-20)
(0.466891 0.00685194 -4.54934e-20)
(0.347087 0.0223665 0)
(0.551439 -0.00584197 -8.59403e-20)
(0.421215 0.00937458 -2.214e-23)
(0.638719 -0.0161869 3.43762e-20)
(0.499024 -0.00223336 -8.18118e-20)
(0.728422 -0.0228239 1.08901e-19)
(0.580408 -0.0109223 7.58925e-20)
(0.820038 -0.0248171 6.58791e-20)
(0.665032 -0.0154875 3.2005e-20)
(0.912527 -0.0214974 6.44683e-20)
(0.752289 -0.0150644 1.46553e-22)
(1.00444 -0.0125581 -5.1702e-20)
(0.841439 -0.00904401 -7.00217e-22)
(1.0939 0.00184807 -5.65355e-20)
(0.93102 0.00274395 -5.52114e-20)
(1.17856 0.0211403 2.90103e-20)
(1.01906 0.0199451 3.40071e-22)
(1.25511 0.0441727 1.79911e-20)
(1.10368 0.0419044 2.62856e-20)
(1.31985 0.069413 3.2277e-21)
(1.18171 0.0678353 1.81285e-20)
(1.37007 0.0952983 -2.72631e-20)
(1.25002 0.0963843 -1.51421e-20)
(1.40498 0.12021 -2.45041e-20)
(1.30606 0.125498 -1.20999e-20)
(1.42559 0.142975 -6.22623e-21)
(1.34831 0.15283 -1.17455e-20)
(1.43376 0.16241 6.88995e-22)
(1.3761 0.177104 6.30001e-21)
(1.43116 0.177197 -6.96201e-21)
(1.39153 0.19628 -4.80568e-21)
(1.41973 0.186742 -1.46366e-21)
(1.39229 0.21117 -1.25057e-21)
(1.40016 0.214407 -2.07089e-22)
(0.0139297 0.0265967 -7.43501e-20)
(-0.0125243 0.0231211 1.42503e-20)
(0.0409761 0.0457717 -1.19369e-20)
(0.000794444 0.0468856 -6.3851e-20)
(0.0793293 0.0545062 -6.10719e-21)
(0.0257267 0.0597994 -9.07365e-20)
(0.126083 0.0544648 -1.75295e-19)
(0.0596213 0.0631361 -1.16664e-19)
(0.179211 0.0479962 -1.3243e-20)
(0.10046 0.0590492 -9.92744e-20)
(0.237526 0.0375161 8.95534e-20)
(0.146981 0.0498856 5.68446e-20)
(0.300496 0.0252736 4.48499e-20)
(0.198537 0.0378647 2.67957e-20)
(0.367984 0.0132735 4.44442e-21)
(0.254965 0.0250301 4.44389e-20)
(0.439959 0.00322913 -4.21634e-20)
(0.316297 0.0132093 -8.64911e-20)
(0.516305 -0.0034482 1.71664e-22)
(0.382594 0.00396851 1.02305e-19)
(0.596713 -0.00566675 -3.22605e-20)
(0.453763 -0.00140564 1.75673e-20)
(0.680639 -0.00262496 -6.39948e-20)
(0.52945 -0.00190001 -1.03451e-19)
(0.76732 0.00611144 -2.70103e-21)
(0.609186 0.00319712 -3.03444e-20)
(0.855536 0.0205739 1.02709e-21)
(0.692217 0.0142348 2.82966e-20)
(0.943551 0.0404801 -2.59062e-21)
(0.777301 0.031231 1.49532e-20)
(1.02931 0.0651887 2.64849e-20)
(0.86293 0.0538839 -2.74399e-20)
(1.11036 0.0936303 0)
(0.947137 0.0814386 4.68692e-20)
(1.18393 0.124255 0)
(1.02758 0.112667 -4.51321e-20)
(1.24698 0.155085 1.23097e-20)
(1.10172 0.146004 0)
(1.29679 0.184049 1.24719e-20)
(1.16679 0.179594 1.23924e-20)
(1.33195 0.209305 5.66547e-21)
(1.21973 0.211545 2.08973e-20)
(1.35229 0.229234 5.73462e-21)
(1.26048 0.239081 -1.36699e-21)
(1.36041 0.245022 0)
(1.28377 0.261329 -1.51033e-20)
(1.31324 0.274008 3.04082e-22)
(-0.0260595 0.0429755 2.65015e-20)
(-0.0441365 0.0405346 1.42503e-20)
(-0.0150875 0.0608907 -1.41983e-19)
(-0.0446104 0.0631998 1.23253e-20)
(0.00527135 0.0687001 -2.00067e-19)
(-0.0356524 0.0749193 -8.98853e-20)
(0.0332044 0.0681645 -4.09342e-20)
(-0.0189925 0.0773719 -2.05837e-20)
(0.0674506 0.0614628 -3.1001e-20)
(0.00416237 0.072608 -3.65269e-20)
(0.107264 0.0507776 -5.49488e-21)
(0.0330197 0.0628146 2.31265e-22)
(0.152346 0.0381549 2.59861e-20)
(0.0672024 0.0500109 2.67957e-20)
(0.202693 0.02548 -4.4992e-20)
(0.106694 0.0360884 -9.94595e-22)
(0.25841 0.0144325 5.42364e-20)
(0.151638 0.0227996 -6.70514e-20)
(0.319564 0.0064569 1.19591e-19)
(0.202211 0.0117215 1.21658e-19)
(0.386063 0.00274951 -5.02084e-20)
(0.258508 0.0042304 -2.00137e-20)
(0.457603 0.00424291 -7.04159e-20)
(0.320415 0.00147091 -6.85088e-20)
(0.533705 0.0115807 3.50178e-23)
(0.387592 0.00431099 4.92341e-20)
(0.6136 0.0250887 4.25038e-20)
(0.459622 0.0133152 -2.91437e-20)
(0.69619 0.0447197 -1.00117e-20)
(0.535778 0.0287077 5.84109e-20)
(0.780099 0.0700186 -6.93064e-21)
(0.614981 0.0503813 -2.65018e-20)
(0.863581 0.100147 2.28397e-21)
(0.695877 0.077877 6.98209e-20)
(0.944481 0.133939 -4.54457e-20)
(0.776819 0.110382 -6.72239e-20)
(1.02033 0.169857 0)
(0.855852 0.146708 3.48931e-20)
(1.08844 0.20595 2.07633e-20)
(0.930774 0.185207 -3.36998e-20)
(1.14623 0.24007 1.00651e-20)
(0.998775 0.223938 2.68414e-20)
(1.19125 0.269447 -2.18e-20)
(1.05843 0.260427 -7.06766e-21)
(1.22336 0.29489 -1.48878e-20)
(1.10408 0.292334 -7.34409e-21)
(1.15313 0.315458 -5.21566e-21)
(-0.0627909 0.0603251 0)
(-0.0733374 0.0586155 0)
(-0.0654401 0.0771362 6.60847e-20)
(-0.0856156 0.080587 -1.27598e-20)
(-0.0603244 0.0837703 8.75516e-20)
(-0.0900773 0.0911537 9.04251e-20)
(-0.0485097 0.0821672 -1.62375e-20)
(-0.087989 0.0924321 -1.25663e-20)
(-0.0307659 0.0744153 -6.30317e-21)
(-0.0800203 0.0864586 -1.86311e-20)
(-0.00753153 0.0625617 3.16886e-20)
(-0.0666031 0.075326 3.12535e-20)
(0.021089 0.0484904 0)
(-0.0479244 0.0608919 3.03939e-20)
(0.0552196 0.0339769 -2.2323e-20)
(-0.0238558 0.044912 0)
(0.0950653 0.0206763 -1.78528e-21)
(0.00585603 0.0290812 -4.606e-20)
(0.140822 0.0100948 -1.53055e-20)
(0.0414836 0.0149715 2.12628e-20)
(0.192554 0.00355868 -3.68092e-20)
(0.0832205 0.00406702 -5.74689e-20)
(0.250149 0.0021444 4.97651e-20)
(0.131096 -0.00235799 1.84719e-20)
(0.313313 0.00663818 2.02633e-20)
(0.184918 -0.00329103 1.53592e-20)
(0.381586 0.0174874 -1.55841e-20)
(0.244345 0.00198587 -2.99277e-20)
(0.454307 0.0348641 4.12609e-20)
(0.30898 0.013854 1.51324e-20)
(0.530461 0.0586995 4.95195e-20)
(0.378182 0.0325877 3.84225e-20)
(0.608764 0.0885164 1.2517e-21)
(0.450941 0.0580086 -8.83452e-21)
(0.687716 0.123387 1.24054e-20)
(0.526059 0.0894764 -1.08829e-20)
(0.765596 0.162016 1.20215e-21)
(0.602115 0.126021 2.6941e-20)
(0.840358 0.202805 -2.80099e-20)
(0.677542 0.166411 -1.84123e-20)
(0.909628 0.243885 5.98082e-21)
(0.750439 0.209109 -1.24841e-21)
(0.970795 0.282584 8.52699e-21)
(0.819198 0.252067 0)
(1.02158 0.316847 -3.51828e-20)
(0.880143 0.29225 8.57807e-21)
(0.940529 0.321349 -5.52946e-21)
(-0.0960156 0.0784531 -1.24539e-20)
(-0.0996552 0.0771903 7.1923e-21)
(-0.110186 0.0944666 9.42588e-21)
(-0.121926 0.0988501 6.91803e-21)
(-0.117883 0.0999346 -8.06296e-21)
(-0.137587 0.108457 2.29268e-20)
(-0.119693 0.0970204 -1.52664e-20)
(-0.147593 0.108508 3.15841e-20)
(-0.116095 0.0877773 1.78475e-20)
(-0.152254 0.101084 -1.29245e-21)
(-0.107264 0.0741333 2.99707e-20)
(-0.151833 0.0881751 1.75164e-20)
(-0.0931482 0.0578307 3.07843e-20)
(-0.146341 0.0714988 1.49329e-20)
(-0.0734883 0.040547 -2.31877e-20)
(-0.135512 0.0526603 -5.68173e-22)
(-0.0480059 0.0239302 -2.37604e-20)
(-0.118954 0.0333291 -1.16996e-20)
(-0.0163644 0.00952976 -1.91993e-20)
(-0.0962991 0.0149991 2.17643e-20)
(0.0215384 -0.00121776 -2.25202e-21)
(-0.0672549 -0.000636946 -2.04507e-20)
(0.0656618 -0.00711679 -1.48496e-20)
(-0.0317828 -0.0121622 -1.07657e-20)
(0.115817 -0.00724428 -3.31865e-20)
(0.00997721 -0.0184194 -1.70469e-20)
(0.171596 -0.000862061 0)
(0.057764 -0.0184076 -2.92026e-20)
(0.232765 0.0124307 1.17875e-20)
(0.111101 -0.0119618 1.34654e-20)
(0.298548 0.0327605 -1.95733e-20)
(0.169631 0.00184409 -1.77029e-21)
(0.368071 0.0598242 -2.10683e-20)
(0.232642 0.0228917 -3.82632e-20)
(0.440251 0.0929697 3.38987e-21)
(0.299322 0.0507802 3.67245e-20)
(0.513806 0.131251 7.24092e-21)
(0.3687 0.0848032 -1.80127e-20)
(0.58735 0.173378 9.52178e-21)
(0.439596 0.123853 2.5876e-20)
(0.659354 0.217733 -5.93804e-21)
(0.510841 0.166507 -1.80921e-20)
(0.728017 0.261787 0)
(0.581435 0.210869 5.15266e-21)
(0.790613 0.29876 -8.56371e-22)
(0.649608 0.25326 -4.98583e-21)
(0.71548 0.280849 -7.09697e-22)
(-0.125239 0.0971479 2.64618e-20)
(-0.122652 0.0960647 1.4457e-20)
(-0.148965 0.1127 2.00899e-20)
(-0.153137 0.117788 -1.30074e-20)
(-0.167206 0.117144 6.21682e-20)
(-0.17777 0.126681 -5.96793e-21)
(-0.180104 0.11282 4.58482e-20)
(-0.197326 0.125495 4.72597e-20)
(-0.188006 0.101834 -1.89396e-21)
(-0.211859 0.116488 -1.88728e-20)
(-0.190978 0.0859703 2.85509e-21)
(-0.221606 0.101535 1.75164e-20)