/*--------------------------------*- C++ -*----------------------------------*\
  =========                 |
  \\      /  F ield         | OpenFOAM: The Open Source CFD Toolbox
   \\    /   O peration     | Website:  https://openfoam.org
    \\  /    A nd           | Version:  11
     \\/     M anipulation  |
\*---------------------------------------------------------------------------*/
FoamFile
{
    format      ascii;
    class       volScalarField;
    location    "1.2";
    object      k;
}
// * * * * * * * * * * * * * * * * * * * * * * * * * * * * * * * * * * * * * //

dimensions      [0 2 -2 0 0 0 0];

internalField   nonuniform List<scalar> 
2880
(
0.0104968
0.0167252
0.024067
0.0271708
0.0276714
0.0392022
0.0285203
0.0418684
0.0519205
0.0518906
0.0508113
0.0642597
0.0373608
0.0542401
0.0669009
0.066726
0.0652985
0.0756129
0.0436105
0.0645788
0.0788252
0.078607
0.0765119
0.084658
0.0482897
0.0739205
0.089106
0.0889988
0.0863516
0.0924567
0.0520304
0.0823082
0.0981739
0.0986092
0.0957785
0.0998792
0.0551629
0.0898354
0.10633
0.107868
0.105319
0.107729
0.0578388
0.0966075
0.113825
0.116946
0.115294
0.116673
0.0601351
0.102701
0.120823
0.125937
0.125877
0.127133
0.0621007
0.10815
0.127405
0.13486
0.137131
0.139342
0.063778
0.112935
0.133586
0.143728
0.149013
0.153265
0.0652136
0.116974
0.139311
0.152419
0.161277
0.168706
0.0661128
0.12029
0.14446
0.160702
0.173532
0.185013
0.0662477
0.122847
0.148853
0.168248
0.185229
0.201369
0.0657688
0.124509
0.152261
0.17465
0.195671
0.216669
0.0644375
0.124986
0.154418
0.179455
0.204068
0.229632
0.0622526
0.124261
0.154948
0.18207
0.209576
0.238953
0.0590906
0.12193
0.15376
0.182266
0.211306
0.242909
0.0548563
0.117645
0.150406
0.179635
0.209252
0.241703
0.0494632
0.110919
0.144499
0.173772
0.202605
0.234121
0.0429204
0.100986
0.135515
0.164223
0.19086
0.219873
0.0348529
0.0866647
0.122538
0.15023
0.173215
0.198102
0.0245027
0.065091
0.103377
0.1301
0.147738
0.164267
0.00841007
0.0346706
0.0751415
0.10122
0.113848
0.116753
0.239746
0.32601
0.305929
0.249275
0.18737
0.136369
0.0994484
0.0744851
0.0578492
0.046514
0.0384795
0.0325415
0.0279877
0.0243842
0.0214538
0.0190095
0.0169184
0.015081
0.0134176
0.0118572
0.0103271
0.00875748
0.00709979
0.00522592
0.186406
0.297653
0.299672
0.257684
0.198466
0.147006
0.108101
0.0810246
0.0627465
0.0502895
0.0415228
0.0351065
0.0302309
0.0264005
0.0233003
0.02072
0.0185117
0.0165649
0.0147914
0.0131116
0.0114425
0.00969656
0.00778749
0.00549586
0.14902
0.268954
0.287289
0.259124
0.206664
0.156634
0.116705
0.0878709
0.0680015
0.0543729
0.0448116
0.0378683
0.0326391
0.0285638
0.025286
0.022569
0.0202473
0.018198
0.016322
0.0145296
0.0127262
0.0108042
0.00862543
0.00581875
0.12619
0.242644
0.27212
0.25631
0.212536
0.165055
0.125044
0.0949215
0.073593
0.0587766
0.048367
0.0408479
0.0352317
0.0308935
0.0274331
0.0245853
0.0221657
0.0200377
0.0180907
0.0162232
0.0143265
0.0122691
0.00984747
0.00648737
0.118426
0.219127
0.256328
0.250475
0.216413
0.172223
0.13296
0.102072
0.0794886
0.063507
0.052207
0.0440627
0.0380226
0.0334011
0.0297536
0.0267861
0.0242968
0.0221393
0.0201993
0.0183768
0.0165735
0.0147043
0.0128235
0.0114935
0.119264
0.200471
0.240992
0.241037
0.21711
0.177806
0.140241
0.10919
0.0856337
0.068557
0.0563415
0.0475224
0.0410145
0.0360802
0.032233
0.0291516
0.0266209
0.0244955
0.0226778
0.0211048
0.0197406
0.0185919
0.0177916
0.0176622
0.122848
0.186449
0.226627
0.231094
0.215462
0.181716
0.146675
0.11611
0.0919422
0.073899
0.0607691
0.0512289
0.0442007
0.0389117
0.0348385
0.0316347
0.029075
0.0270175
0.0253807
0.0241265
0.0232447
0.022749
0.0226902
0.0230524
0.12917
0.177076
0.213994
0.221301
0.21217
0.184659
0.152257
0.122687
0.098302
0.0794819
0.065476
0.0551797
0.047575
0.0418791
0.037542
0.0341964
0.031607
0.0296319
0.0281928
0.0272494
0.0267746
0.0267397
0.0270854
0.0276753
0.138027
0.17298
0.203777
0.212005
0.206875
0.185918
0.156803
0.128769
0.10459
0.0852361
0.0704379
0.0593723
0.0511378
0.0449758
0.0403256
0.0368043
0.0341656
0.0322596
0.0309967
0.0303153
0.0301546
0.0304168
0.0310251
0.0317313
0.149351
0.174465
0.196819
0.20379
0.200797
0.185349
0.160102
0.134149
0.11066
0.091075
0.0756207
0.0638046
0.0548983
0.048208
0.0431839
0.0394353
0.0367036
0.0348239
0.0336848
0.0331953
0.0332533
0.0337185
0.0344993
0.0352844
0.163445
0.179426
0.194062
0.197245
0.195014
0.183899
0.162293
0.138682
0.116344
0.096886
0.0809725
0.0684699
0.0588725
0.0515952
0.0461267
0.0420805
0.039188
0.0372656
0.0361761
0.0357983
0.0359797
0.0365873
0.03748
0.0383245
0.18002
0.19002
0.195789
0.194226
0.190521
0.181686
0.163493
0.142369
0.121474
0.102529
0.086415
0.0733474
0.0630766
0.0551677
0.0491799
0.0447497
0.0416059
0.0395488
0.0384167
0.0380612
0.0382889
0.0389681
0.0399298
0.0408193
0.198608
0.20609
0.202366
0.195219
0.188452
0.179337
0.163939
0.145231
0.125965
0.107863
0.0918439
0.0783939
0.0675181
0.0589615
0.0523863
0.0474759
0.0439719
0.0416677
0.0403842
0.0399511
0.0401509
0.0408258
0.041814
0.0427346
0.21829
0.22574
0.216446
0.200454
0.189474
0.178919
0.164499
0.147602
0.129885
0.11278
0.0971514
0.0835465
0.0721905
0.0630134
0.0558046
0.0503206
0.0463364
0.043655
0.0420926
0.0414661
0.0415597
0.0421429
0.0431088
0.0440418
0.237974
0.247695
0.236572
0.213042
0.194547
0.180516
0.165839
0.149949
0.133476
0.117348
0.102268
0.0887337
0.0770685
0.0673514
0.0595037
0.0533735
0.0487918
0.0455921
0.0436053
0.0426496
0.0425313
0.0429347
0.0438086
0.0447269
0.256157
0.269449
0.25971
0.233352
0.206855
0.186389
0.169396
0.153151
0.137222
0.121812
0.107265
0.0939388
0.0821313
0.0719956
0.0635546
0.0567477
0.0514746
0.047619
0.0450487
0.0436062
0.043108
0.0432787
0.0439289
0.0447922
0.270784
0.288028
0.282327
0.257767
0.226552
0.199495
0.177563
0.158908
0.142192
0.126775
0.112457
0.0992907
0.0874252
0.076986
0.0680346
0.0605722
0.0545601
0.0499383
0.0466275
0.0445178
0.043459
0.0432659
0.0436153
0.0443621
0.279118
0.300516
0.300484
0.280955
0.249891
0.218789
0.191771
0.169176
0.150068
0.133445
0.118617
0.10524
0.0931955
0.0824677
0.0730684
0.0650016
0.0582564
0.0528115
0.0486368
0.0456826
0.0438621
0.0430438
0.0430288
0.0434499
0.279795
0.304642
0.310192
0.297237
0.271048
0.240455
0.210893
0.184749
0.162441
0.143463
0.127099
0.112772
0.100102
0.088869
0.0789516
0.0702839
0.0628264
0.056555
0.0514568
0.0475229
0.0447332
0.0430457
0.0423255
0.042396
0.271698
0.298859
0.308376
0.302431
0.284183
0.25841
0.230462
0.203469
0.179063
0.157707
0.139228
0.123224
0.109284
0.0970734
0.0863428
0.0769206
0.0686921
0.0615836
0.0555529
0.0505848
0.0466818
0.04385
0.0421289
0.0415376
0.254985
0.282026
0.294086
0.294954
0.284978
0.266896
0.24441
0.220276
0.196595
0.174576
0.154734
0.137154
0.121697
0.108134
0.0962268
0.0857651
0.0765767
0.0685305
0.0615328
0.0555244
0.0504796
0.0463739
0.0433122
0.0415988
0.231134
0.255007
0.268803
0.274736
0.272868
0.263343
0.247958
0.229598
0.209717
0.189745
0.17061
0.152838
0.136658
0.122108
0.109118
0.097566
0.0873157
0.078236
0.0702147
0.0631591
0.057011
0.051713
0.0472491
0.0437816
0.201996
0.221627
0.235687
0.245068
0.249385
0.247676
0.240457
0.228371
0.213982
0.198342
0.182202
0.166304
0.151115
0.136905
0.123801
0.111832
0.100974
0.0911672
0.0823427
0.0744205
0.0673519
0.0610377
0.0556084
0.0502255
0.169599
0.188135
0.200703
0.211643
0.2198
0.223377
0.222286
0.217327
0.208689
0.197887
0.186017
0.173634
0.161169
0.148998
0.137351
0.126368
0.11613
0.106663
0.0979651
0.0899989
0.0827665
0.0761094
0.0704534
0.0640874
0.00335952
0.00775322
0.018295
0.0339304
0.0572111
0.0938753
0.0144627
0.0222353
0.0364523
0.053707
0.0770598
0.107954
0.018813
0.0311998
0.0470098
0.0646649
0.0864021
0.111617
0.0212302
0.0370512
0.0537989
0.0715958
0.0916536
0.112181
0.0231038
0.0413796
0.058733
0.0764485
0.0949408
0.112028
0.0243399
0.0447879
0.0625045
0.0800012
0.0971738
0.111897
0.025041
0.0476043
0.065429
0.0826381
0.098777
0.111965
0.0256294
0.0498036
0.0676673
0.0845684
0.0999397
0.112233
0.0262274
0.0514477
0.0693145
0.0859108
0.100726
0.112578
0.0266732
0.0525795
0.0704303
0.0867336
0.101148
0.112863
0.0269285
0.0532289
0.0710527
0.087073
0.101191
0.112952
0.026974
0.0534144
0.0712057
0.086951
0.100818
0.11271
0.0268032
0.0531426
0.0709011
0.0863583
0.0999851
0.112012
0.0264688
0.0524011
0.0701402
0.0852917
0.0986431
0.110744
0.0259941
0.0511835
0.0689137
0.0837337
0.096748
0.108819
0.0253997
0.049481
0.0672024
0.0816621
0.0942639
0.106182
0.0250851
0.0472904
0.0649842
0.0790529
0.091166
0.102807
0.0249151
0.0447673
0.0622487
0.0758817
0.0874418
0.098692
0.0245428
0.0420481
0.058991
0.072112
0.0830884
0.0938759
0.0236419
0.0390857
0.0551463
0.0676563
0.0780736
0.0884097
0.0222168
0.0356573
0.050493
0.0622953
0.072192
0.0822128
0.0202689
0.0312876
0.0444497
0.0554715
0.0647376
0.0752008
0.0164414
0.0245001
0.0352759
0.0455339
0.0535133
0.0657143
0.00432977
0.00899082
0.0158906
0.024964
0.0315966
0.0421666
0.144467
0.160054
0.170441
0.181176
0.190549
0.196757
0.199332
0.198612
0.195167
0.189279
0.181863
0.173512
0.164729
0.155883
0.147174
0.138727
0.130743
0.123293
0.116414
0.110114
0.104402
0.0991817
0.0947375
0.090045
0.132688
0.141259
0.149228
0.158489
0.167091
0.173588
0.177495
0.178926
0.178308
0.175979
0.172218
0.167637
0.162602
0.157404
0.152415
0.147766
0.143429
0.139573
0.136262
0.13356
0.131438
0.129861
0.128806
0.128333
0.126576
0.130937
0.137151
0.144802
0.151905
0.157387
0.161031
0.162941
0.163404
0.16283
0.161389
0.159492
0.15742
0.155388
0.153572
0.152298
0.151711
0.151743
0.152278
0.153337
0.154731
0.15627
0.157784
0.159178
0.12305
0.12612
0.131662
0.138469
0.144642
0.149285
0.152272
0.153832
0.154307
0.15408
0.153442
0.152705
0.15211
0.151848
0.151984
0.152597
0.15374
0.15539
0.157431
0.15974
0.162098
0.164251
0.166003
0.167285
0.121219
0.124508
0.130094
0.136725
0.142622
0.146973
0.149691
0.151055
0.151443
0.151227
0.150727
0.150229
0.149946
0.150009
0.150487
0.151462
0.152863
0.154596
0.156592
0.158686
0.160698
0.162405
0.163554
0.164204
0.120527
0.124737
0.131051
0.138135
0.144335
0.148903
0.151785
0.153271
0.15376
0.153608
0.153127
0.15257
0.152129
0.15193
0.152031
0.152453
0.153188
0.154143
0.155184
0.156152
0.156878
0.157241
0.1573
0.157232
0.120651
0.126374
0.133987
0.142153
0.149301
0.154718
0.158373
0.160541
0.161601
0.161887
0.161695
0.161235
0.160673
0.16011
0.159604
0.15917
0.158791
0.158435
0.158068
0.157661
0.157214
0.156759
0.156349
0.156051
0.121364
0.128911
0.13827
0.148027
0.156626
0.163368
0.168233
0.171497
0.173512
0.174601
0.175035
0.17501
0.17467
0.174096
0.173347
0.172428
0.171331
0.170048
0.168584
0.166971
0.1653
0.163772
0.162696
0.162101
0.122425
0.131987
0.143416
0.155102
0.165433
0.173713
0.179958
0.184448
0.187537
0.189558
0.190832
0.191495
0.191647
0.191416
0.190859
0.189922
0.188614
0.186936
0.184897
0.182529
0.179895
0.177184
0.174752
0.172824
0.123602
0.135288
0.148959
0.162658
0.174665
0.184295
0.191688
0.197076
0.200879
0.203453
0.204967
0.205656
0.205713
0.205287
0.204399
0.202961
0.200986
0.198489
0.195449
0.191865
0.187837
0.18363
0.179736
0.176335
0.124672
0.138505
0.154382
0.169811
0.182972
0.193171
0.200303
0.205105
0.208159
0.209907
0.210751
0.210894
0.210484
0.209587
0.208115
0.206073
0.203487
0.200332
0.196584
0.19223
0.1873
0.181833
0.176369
0.170438
0.125421
0.14132
0.159077
0.175441
0.188011
0.196892
0.203002
0.206864
0.208942
0.209713
0.209341
0.20824
0.206436
0.203945
0.200874
0.197226
0.192987
0.188137
0.182649
0.176501
0.169752
0.162234
0.154863
0.14548
0.125645
0.143426
0.162328
0.17767
0.188856
0.196049
0.199822
0.201015
0.200225
0.198306
0.195233
0.191389
0.186964
0.182021
0.176592
0.170666
0.164237
0.157266
0.149744
0.14167
0.133188
0.124
0.115623
0.10417
0.125193
0.144588
0.163249
0.176707
0.184338
0.187417
0.186967
0.184454
0.179993
0.174455
0.168235
0.161544
0.154506
0.147177
0.139564
0.131653
0.123441
0.114945
0.106306
0.0976297
0.088878
0.0803418
0.0728749
0.0652535
0.123988
0.144768
0.161874
0.170583
0.172802
0.17076
0.166045
0.159068
0.151151
0.142743
0.134121
0.125467
0.116857
0.108295
0.0997998
0.0914826
0.0833784
0.0755805
0.0684079
0.0620653
0.0569583
0.0529336
0.0500387
0.0482327
0.122074
0.144152
0.157252
0.15953
0.156287
0.149578
0.140639
0.130915
0.121019
0.111292
0.10193
0.0930462
0.0846306
0.0767559
0.0695188
0.0629982
0.0573294
0.0526743
0.048858
0.045802
0.0435018
0.0419957
0.0413222
0.0416071
0.119627
0.143107
0.149662
0.146608
0.139214
0.129056
0.118176
0.107384
0.0971475
0.087677
0.0790677
0.0713012
0.0644008
0.0583877
0.0532415
0.0489068
0.0453525
0.0424698
0.0401953
0.0385223
0.0374928
0.0371655
0.037454
0.0386236
0.116851
0.141883
0.141335
0.136002
0.12596
0.114399
0.10268
0.0917055
0.0818391
0.0731577
0.0656074
0.0591098
0.0535936
0.0489386
0.0450339
0.0417876
0.0391189
0.036995
0.0354238
0.0344513
0.0341294
0.0343231
0.0350498
0.0368469
0.113735
0.140042
0.136965
0.130058
0.118283
0.10508
0.0925177
0.0813997
0.0718506
0.0637473
0.0569061
0.0511557
0.0463248
0.0422772
0.0389128
0.0361627
0.0339896
0.0323818
0.0313579
0.030962
0.0310989
0.0316689
0.0329079
0.0350886
0.110685
0.13887
0.135518
0.127629
0.112774
0.097614
0.0842981
0.0731354
0.0638882
0.0562373
0.0499007
0.044652
0.0403184
0.0367716
0.0339162
0.0316801
0.0300157
0.0289054
0.0283571
0.0283711
0.0287555
0.029691
0.0312356
0.0334494
0.109496
0.138629
0.136348
0.125957
0.107076
0.09033
0.0767205
0.0657963
0.056995
0.0498544
0.0440495
0.0393422
0.0355524
0.0325363
0.0301781
0.0283906
0.027121
0.0263509
0.0260878
0.0262471
0.026826
0.0279199
0.0295103
0.0316321
0.116983
0.144552
0.141346
0.12298
0.100466
0.0830589
0.0697006
0.0592922
0.0510545
0.044488
0.0392506
0.0350867
0.0317953
0.0292166
0.0272289
0.0257493
0.0247314
0.02416
0.0240418
0.0242822
0.0249474
0.026051
0.027597
0.0295727
0.135732
0.156399
0.143988
0.11581
0.0928142
0.0759261
0.0632637
0.0535264
0.0459264
0.0399624
0.0352804
0.0316111
0.0287441
0.0265188
0.0248179
0.0235633
0.0227117
0.0222486
0.0221785
0.0224303
0.0230742
0.0241034
0.0255354
0.027338
0.163296
0.169868
0.14195
0.108086
0.0852893
0.0692633
0.0574416
0.0484526
0.0415231
0.0361556
0.0319909
0.0287559
0.0262422
0.0242942
0.0228013
0.0216911
0.0209243
0.020488
0.0203881
0.020588
0.021129
0.0220231
0.0232977
0.0249186
0.00578678
0.0303919
0.0744332
0.121436
0.1539
0.160779
0.0182238
0.0597263
0.109354
0.159781
0.205981
0.244158
0.0263717
0.0766625
0.127784
0.179716
0.222992
0.2451
0.0321196
0.0871526
0.138271
0.187873
0.222963
0.22728
0.0365306
0.0941982
0.144163
0.189456
0.214151
0.20744
0.0398791
0.0989701
0.147079
0.187463
0.202543
0.189102
0.0423506
0.102046
0.147955
0.183507
0.191275
0.173671
0.0440798
0.103749
0.147475
0.178835
0.181664
0.161636
0.0451661
0.104261
0.146019
0.17412
0.174021
0.152804
0.0456799
0.103684
0.143839
0.169638
0.16809
0.146529
0.0456732
0.10207
0.141077
0.165449
0.16346
0.142286
0.0451769
0.0994492
0.137713
0.161558
0.15981
0.139668
0.0442348
0.0958443
0.133702
0.157878
0.157003
0.138267
0.0429614
0.0912721
0.128963
0.154263
0.154812
0.137898
0.0413604
0.0857991
0.123369
0.150514
0.152994
0.138356
0.0394192
0.0795061
0.116799
0.146301
0.151305
0.139575
0.0371201
0.0724784
0.109142
0.141164
0.149441
0.141362
0.0344138
0.0648065
0.100292
0.134459
0.147031
0.143467
0.0311329
0.0566018
0.0901976
0.125277
0.143612
0.145491
0.0267353
0.0480653
0.0789064
0.112544
0.138176
0.146826
0.0244597
0.0398092
0.0664362
0.0960529
0.128058
0.147348
0.0224213
0.0320918
0.053044
0.07609
0.108932
0.144954
0.0184582
0.0233937
0.0377837
0.0526486
0.0747864
0.130648
0.00535813
0.00806159
0.0150506
0.02426
0.0405978
0.119361
0.206783
0.176697
0.130028
0.0987805
0.0778474
0.0631064
0.0522412
0.0440314
0.0377621
0.0329505
0.0292414
0.0263679
0.0241314
0.0223872
0.0210339
0.0200053
0.0192648
0.0188005
0.0186188
0.0187163
0.0190987
0.0198117
0.0208964
0.0223323
0.22615
0.166771
0.119683
0.0902967
0.0710876
0.0575995
0.0476717
0.0402113
0.0345541
0.0302343
0.0269094
0.024327
0.0223036
0.0207074
0.0194458
0.0184574
0.0177063
0.0171792
0.0168816
0.0168306
0.0170209
0.0175073
0.0183723
0.0196198
0.212957
0.148861
0.107658
0.0821323
0.0650125
0.0527524
0.0436974
0.0369235
0.0318106
0.0279117
0.0249029
0.0225512
0.0206901
0.0192003
0.0179974
0.0170231
0.0162409
0.0156337
0.0152023
0.0149625
0.0149384
0.0151586
0.0157551
0.0167999
0.1889
0.132977
0.0978953
0.0753735
0.0597834
0.0485284
0.0402511
0.0340922
0.0294523
0.0259058
0.0231528
0.0209821
0.0192439
0.0178311
0.016666
0.0156928
0.0148731
0.0141838
0.0136174
0.0131815
0.0128984
0.012822
0.013085
0.013878
0.166055
0.119782
0.0897789
0.0695295
0.0552077
0.0448554
0.0372783
0.0316564
0.0274155
0.0241578
0.0216093
0.0195803
0.0179366
0.0165814
0.0154432
0.0144684
0.0136168
0.0128588
0.0121758
0.0115607
0.011021
0.010599
0.0104468
0.0108919
0.148505
0.109825
0.0832416
0.0645825
0.0512707
0.0416934
0.0347223
0.0295563
0.0256458
0.0226221
0.020237
0.0183201
0.016751
0.0154422
0.0143277
0.0133565
0.0124881
0.0116887
0.0109302
0.0101888
0.00944742
0.00871445
0.00807496
0.00787556
0.136241
0.102374
0.0778965
0.0603669
0.0478882
0.0389805
0.0325275
0.0277418
0.0241007
0.0212649
0.01901
0.017183
0.0156755
0.0144076
0.013319
0.0123621
0.0114981
0.0106941
0.00992
0.00914568
0.00833669
0.00746165
0.0065197
0.0052792
0.127741
0.0966918
0.0734963
0.0567949
0.0450059
0.0366657
0.0306457
0.0261709
0.0227462
0.0200597
0.0179085
0.0161545
0.0146991
0.0134698
0.0124108
0.0114785
0.0106376
0.00985863
0.00911598
0.00838446
0.00763484
0.00683971
0.00599129
0.00494345
0.121703
0.0922979
0.0698779
0.0537907
0.0425679
0.0346998
0.0290346
0.0248093
0.0215554
0.018986
0.0169166
0.0152215
0.0138107
0.012617
0.011589
0.0106862
0.00987612
0.00913212
0.0084316
0.00775249
0.00706892
0.00635926
0.00562733
0.00477475
0.117473
0.0889292
0.0669383
0.0512942
0.0405253
0.0330406
0.0276593
0.0236295
0.0205072
0.0180274
0.0160212
0.0143732
0.0129998
0.0118383
0.0108403
0.00996766
0.00918986
0.00848223
0.00782416
0.00719589
0.00657471
0.0059444
0.00531506
0.00461838
0.114642
0.0864233
0.0646046
0.0492543
0.0388356
0.0316523
0.0264911
0.0226096
0.019585
0.0171712
0.0152124
0.013601
0.0122586
0.0111255
0.0101556
0.00931234
0.00856668
0.00789526
0.00727899
0.0067
0.00613841
0.00558232
0.00504431
0.00447521
0.112964
0.0846842
0.062826
0.0476315
0.037464
0.0305059
0.0255072
0.021732
0.0187756
0.0164076
0.0144824
0.0128985
0.0115811
0.0104729
0.00952909
0.00871425
0.00800023
0.00736469
0.00678968
0.00625878
0.00575445
0.00526768
0.00481085
0.00434796
0.112298
0.0836638
0.0615707
0.0463943
0.0363814
0.0295771
0.0246886
0.0209827
0.0180687
0.0157288
0.0138251
0.0122608
0.0109633
0.00987674
0.00895712
0.00816969
0.00748685
0.00688692
0.00635267
0.00586869
0.00541908
0.00499641
0.00461122
0.00423691
0.112587
0.083344
0.0608204
0.0455174
0.0355636
0.0288464
0.0240207
0.0203509
0.0174563
0.0151287
0.0132359
0.011684
0.0104018
0.00933397
0.00843687
0.00767595
0.00702387
0.00645925
0.00596521
0.00552681
0.00512907
0.00476502
0.00444241
0.00414154
0.113821
0.0837337
0.0605643
0.0449845
0.0349929
0.0282991
0.0234918
0.0198277
0.016932
0.0146024
0.0127109
0.0111649
0.00989382
0.00884209
0.00796591
0.00723061
0.00660882
0.00607911
0.00562453
0.00523007
0.00488097
0.00456986
0.00430128
0.00406076
0.116033
0.0848656
0.0607724
0.0447805
0.0346566
0.0279239
0.0230931
0.0194067
0.0164906
0.014146
0.0122468
0.0107009
0.00943699
0.00839881
0.00754196
0.00683132
0.00623919
0.00574378
0.00532759
0.00497505
0.00467101
0.00440705
0.00418458
0.00399316
0.119292
0.0868065
0.0615615
0.0448694
0.0345447
0.0277129
0.0228179
0.0190824
0.016128
0.0137562
0.011841
0.0102896
0.00902909
0.00800198
0.0071628
0.0064757
0.00591238
0.00545032
0.00507108
0.00475802
0.00449513
0.00427261
0.00408909
0.0039373
0.123683
0.0896508
0.062876
0.0453485
0.034626
0.0276594
0.0226613
0.0188506
0.0158408
0.0134301
0.0114911
0.00992878
0.00866806
0.00764949
0.0068262
0.00616133
0.00562566
0.00519563
0.00485145
0.00457501
0.00434919
0.00416268
0.0040118
0.00389178
0.12932
0.0935157
0.0647706
0.0461592
0.0349491
0.0277359
0.0226187
0.0187078
0.0156261
0.0131653
0.0111949
0.00961655
0.00835198
0.00733932
0.00652996
0.00588573
0.00537622
0.00497648
0.00466501
0.004422
0.0042291
0.00407363
0.00395003
0.00385532
0.136323
0.0985578
0.0672824
0.047309
0.0355013
0.0279633
0.0226745
0.0186503
0.015481
0.0129598
0.0109508
0.0093512
0.00807907
0.00706955
0.00627193
0.00564647
0.00516126
0.00478963
0.00450807
0.00429501
0.00413097
0.00400215
0.00390142
0.00382677
0.144783
0.104956
0.0704268
0.0487985
0.0362511
0.028351
0.0228204
0.0186718
0.0154032
0.0128118
0.0107572
0.00913139
0.00784785
0.00683842
0.00605002
0.00544108
0.00497795
0.00463186
0.00437712
0.00419033
0.00405114
0.0039451
0.00386379
0.00380509
0.154721
0.112869
0.0741671
0.0506007
0.0371826
0.0288672
0.0230779
0.0187638
0.0153917
0.0127205
0.0106135
0.00895633
0.00765728
0.00664451
0.00586235
0.00526722
0.00482347
0.00450002
0.00426877
0.00410453
0.00398622
0.0038992
0.00383484
0.00378878
0.167069
0.122246
0.0783234
0.0526227
0.0382535
0.0294881
0.0234272
0.0189236
0.0154379
0.0126851
0.0105197
0.00882599
0.00750704
0.00648704
0.00570758
0.00512294
0.00469533
0.00439123
0.00418008
0.00403494
0.003934
0.00386247
0.00381185
0.00377615
0.183069
0.131866
0.082271
0.0546572
0.0394026
0.0301931
0.0238586
0.0191634
0.0155427
0.0127045
0.0104766
0.00874122
0.00739766
0.00636609
0.00558523
0.00500715
0.00459186
0.00430338
0.00410877
0.00397939
0.00389277
0.00383382
0.00379392
0.00376681
0.00657336
0.0305981
0.0747904
0.108385
0.123524
0.119062
0.0206382
0.0579005
0.0995047
0.132571
0.158284
0.188516
0.0299991
0.0784181
0.117766
0.14929
0.175856
0.197367
0.0372555
0.0923009
0.130245
0.160256
0.183841
0.197924
0.0432855
0.102384
0.139412
0.168109
0.188129
0.197097
0.0482862
0.109936
0.146432
0.174107
0.19108
0.196579
0.0523858
0.115656
0.151948
0.17891
0.193737
0.19688
0.0556778
0.119963
0.156348
0.182946
0.196559
0.198193
0.058228
0.123112
0.15985
0.186502
0.199774
0.200635
0.06008
0.125254
0.162589
0.189747
0.203487
0.204246
0.0612569
0.126471
0.164647
0.192746
0.207723
0.209051
0.0617753
0.126788
0.166058
0.195491
0.212436
0.215059
0.0617605
0.126165
0.166772
0.197932
0.217516
0.222253
0.06135
0.124538
0.166697
0.199952
0.222771
0.230572
0.0604565
0.121872
0.165662
0.20135
0.227943
0.239867
0.0589918
0.118094
0.163467
0.201784
0.232731
0.24986
0.0568596
0.113115
0.159868
0.200857
0.236628
0.260193
0.0539484
0.10684
0.154606
0.198046
0.238923
0.270277
0.0501314
0.0992008
0.147436
0.192811
0.238696
0.279319
0.0452641
0.0901639
0.138124
0.184504
0.234775
0.286175
0.0392042
0.079658
0.126338
0.172253
0.225094
0.289052
0.0318534
0.0673139
0.111276
0.154685
0.207082
0.285345
0.0226373
0.0512851
0.0903066
0.128907
0.176321
0.263593
0.00683396
0.0215614
0.0507942
0.0841535
0.130057
0.159288
0.19841
0.137959
0.0853472
0.0565088
0.0405785
0.030962
0.0243612
0.0194739
0.0157092
0.0127756
0.0104849
0.00870353
0.00733037
0.00628245
0.00549557
0.00491951
0.00451212
0.00423506
0.00405311
0.0039361
0.00386088
0.00381203
0.00378055
0.00376039
0.203178
0.140018
0.0874705
0.0581661
0.0417574
0.0317812
0.0249262
0.0198527
0.0159443
0.0129015
0.0105406
0.00871319
0.00730666
0.0062372
0.00543915
0.00485997
0.00445549
0.00418516
0.00401173
0.00390356
0.00383686
0.00379581
0.00377095
0.0037562
0.198391
0.139092
0.0889089
0.0596652
0.042941
0.0326476
0.0255522
0.0202954
0.0162458
0.0130938
0.0106502
0.00876713
0.00732519
0.00623148
0.00541674
0.00482865
0.00442158
0.00415292
0.00398364
0.00388076
0.00381972
0.00378422
0.00376427
0.00375353
0.191543
0.13705
0.0899277
0.0610835
0.0441452
0.033566
0.0262406
0.0208026
0.0166124
0.0133522
0.0108243
0.00887704
0.00738804
0.00626232
0.00542736
0.0048259
0.00441057
0.00413813
0.00396834
0.00386707
0.00380879
0.0037766
0.00376
0.00375196
0.185764
0.1353
0.0908883
0.0625324
0.0454035
0.0345503
0.0269988
0.0213799
0.0170469
0.013675
0.0110608
0.00904683
0.00750653
0.00634135
0.00547612
0.0048527
0.00442252
0.00414089
0.00396603
0.00386246
0.0038038
0.00377277
0.00375778
0.00375127
0.181878
0.134459
0.0921406
0.064115
0.0467609
0.0356224
0.0278397
0.0220369
0.0175574
0.0140691
0.0113625
0.00927528
0.00767719
0.00646644
0.0055652
0.00491342
0.00446135
0.00416364
0.00397793
0.00386779
0.0038055
0.00377296
0.00375754
0.00375113
0.179982
0.134755
0.093858
0.0659259
0.0482699
0.0368123
0.0287819
0.0227862
0.0181533
0.014542
0.011736
0.00956834
0.00790523
0.00664167
0.00569714
0.00500962
0.00452842
0.00420797
0.00400568
0.00388424
0.00381462
0.00377737
0.00375937
0.0037516
0.179998
0.136287
0.0961721
0.06807
0.04999
0.0381542
0.029846
0.0236415
0.0188451
0.0151021
0.0121883
0.00993214
0.00819603
0.00687185
0.00587635
0.00514547
0.00462758
0.00427717
0.00405187
0.0039138
0.00383265
0.00378709
0.00376394
0.00375299
0.18183
0.139115
0.0992236
0.0706477
0.0519815
0.0396835
0.0310537
0.0246174
0.0196433
0.0157578
0.0127269
0.0103732
0.00855552
0.00716248
0.006108
0.00532587
0.00476344
0.00437536
0.00411986
0.00395893
0.0038611
0.00380364
0.00377208
0.00375616
0.185427
0.143313
0.103142
0.0737584
0.0543072
0.0414379
0.0324279
0.0257288
0.0205588
0.016518
0.0133592
0.0108984
0.00899007
0.00751958
0.00639789
0.00555649
0.0049415
0.00450771
0.00421422
0.00402339
0.00390289
0.00382872
0.00378551
0.00376173
0.19077
0.148984
0.108065
0.0775082
0.0570352
0.0434579
0.0339929
0.0269912
0.0216027
0.0173913
0.0140927
0.0115146
0.00950631
0.00794959
0.00675236
0.00584364
0.00516807
0.00468037
0.00434063
0.004112
0.00396181
0.00386512
0.00380585
0.00377073
0.197883
0.156259
0.114148
0.0820172
0.0602431
0.0457896
0.0357756
0.0284213
0.022786
0.0183862
0.014935
0.0122287
0.0101109
0.00845913
0.00717803
0.006194
0.00544996
0.0049002
0.00450568
0.00423069
0.00404276
0.00391647
0.00383505
0.00378417
0.206808
0.165298
0.121575
0.0874264
0.0640222
0.0484867
0.0378066
0.0300367
0.0241203
0.0195112
0.0158929
0.0130474
0.0108104
0.00905476
0.00768159
0.00661447
0.0057943
0.00517458
0.00471681
0.00438644
0.00415163
0.00398698
0.00387558
0.00380312
0.217595
0.176268
0.130558
0.093908
0.0684842
0.0516142
0.0401219
0.0318575
0.0256172
0.0207743
0.0169729
0.0139765
0.0116108
0.00974282
0.00826973
0.00711207
0.00620851
0.00551132
0.00498204
0.00458701
0.00429517
0.00408176
0.00393072
0.00382902
0.230268
0.189338
0.141325
0.101659
0.0737615
0.0552499
0.0427647
0.0339065
0.0272894
0.0221831
0.0181808
0.0150213
0.0125175
0.0105292
0.00894893
0.00769384
0.00670012
0.00591845
0.00530976
0.00484077
0.00448105
0.00420698
0.00400463
0.00386359
0.244789
0.204656
0.154098
0.110891
0.0800059
0.0594858
0.0457862
0.0362105
0.0291507
0.0237454
0.0195218
0.0161862
0.0135352
0.0114192
0.00972516
0.00836647
0.00727649
0.00640384
0.00570834
0.00515634
0.00471756
0.00436973
0.00410274
0.00390922
0.26098
0.222324
0.169068
0.121814
0.0873824
0.0644266
0.0492466
0.038801
0.0312168
0.0254693
0.0210005
0.0174748
0.0146674
0.0124169
0.0106035
0.00913592
0.00794431
0.00697489
0.00618573
0.00554212
0.00501326
0.00457817
0.00423145
0.00396881
0.278422
0.242411
0.186331
0.134601
0.0960548
0.070187
0.0532131
0.041715
0.0335065
0.027364
0.0226216
0.0188898
0.0159164
0.0135252
0.0115876
0.0100068
0.00870916
0.00763795
0.00674904
0.00600597
0.00537668
0.00484073
0.00439729
0.00404518
0.29676
0.264394
0.205764
0.149337
0.106164
0.0768837
0.0577602
0.0449942
0.0360418
0.02944
0.0243896
0.0204331
0.0172834
0.0147453
0.0126794
0.0109821
0.00957502
0.00839802
0.00740422
0.00655481
0.00581551
0.00516525
0.00460671
0.00414111
0.315287
0.287376
0.226987
0.165933
0.117783
0.0846177
0.0629637
0.0486854
0.0388474
0.0317091
0.0263094
0.0221062
0.0187683
0.0160771
0.0138793
0.0120629
0.0105441
0.00925847
0.00815583
0.00719426
0.00633632
0.00555868
0.00486577
0.00425924
0.332788
0.309807
0.2493
0.184034
0.130852
0.0934421
0.0688891
0.0528368
0.0419515
0.0341855
0.0283871
0.0239108
0.0203709
0.0175193
0.0151859
0.0132487
0.0116168
0.010221
0.00900685
0.00792865
0.00694456
0.00602709
0.00517987
0.00440131
0.346943
0.32933
0.271226
0.202859
0.145084
0.103315
0.0755712
0.057489
0.0453838
0.0368864
0.0306314
0.0258502
0.0220913
0.0190705
0.0165975
0.0145377
0.0127921
0.0112855
0.00995859
0.00876068
0.00764426
0.00657567
0.00555516
0.00456923
0.349502
0.342322
0.290868
0.221172
0.159886
0.114041
0.082983
0.0626634
0.0491701
0.0398309
0.0330533
0.0279299
0.0239314
0.0207306
0.0181125
0.0159279
0.0140681
0.0124509
0.0110111
0.00969203
0.00843909
0.00720987
0.00599654
0.00476346
0.310656
0.340779
0.304423
0.237158
0.174318
0.125229
0.0910077
0.0683472
0.0533261
0.0430365
0.0356658
0.0301579
0.0258954
0.0225011
0.0197311
0.0174185
0.0154436
0.0137162
0.012164
0.0107238
0.00933229
0.0079351
0.00650906
0.00498279
)
;

boundaryField
{
    rotor
    {
        type            kqRWallFunction;
        value           nonuniform List<scalar> 
144
(
0.0104968
0.0167252
0.024067
0.0271708
0.0276714
0.0392022
0.0104968
0.0285203
0.0373608
0.0436105
0.0482897
0.0520304
0.0551629
0.0578388
0.0601351
0.0621007
0.063778
0.0652136
0.0661128
0.0662477
0.0657688
0.0644375
0.0622526
0.0590906
0.0548563
0.0494632
0.0429204
0.0348529
0.0245027
0.00841007
0.00841007
0.0346706
0.0751415
0.10122
0.113848
0.116753
0.00335952
0.00775322
0.018295
0.0339304
0.0572111
0.0938753
0.00335952
0.0144627
0.018813
0.0212302
0.0231038
0.0243399
0.025041
0.0256294
0.0262274
0.0266732
0.0269285
0.026974
0.0268032
0.0264688
0.0259941
0.0253997
0.0250851
0.0249151
0.0245428
0.0236419
0.0222168
0.0202689
0.0164414
0.00432977
0.00432977
0.00899082
0.0158906
0.024964
0.0315966
0.0421666
0.00578678
0.0303919
0.0744332
0.121436
0.1539
0.160779
0.00578678
0.0182238
0.0263717
0.0321196
0.0365306
0.0398791
0.0423506
0.0440798
0.0451661
0.0456799
0.0456732
0.0451769
0.0442348
0.0429614
0.0413604
0.0394192
0.0371201
0.0344138
0.0311329
0.0267353
0.0244597
0.0224213
0.0184582
0.00535813
0.00535813
0.00806159
0.0150506
0.02426
0.0405978
0.119361
0.00657336
0.0305981
0.0747904
0.108385
0.123524
0.119062
0.00657336
0.0206382
0.0299991
0.0372555
0.0432855
0.0482862
0.0523858
0.0556778
0.058228
0.06008
0.0612569
0.0617753
0.0617605
0.06135
0.0604565
0.0589918
0.0568596
0.0539484
0.0501314
0.0452641
0.0392042