/*--------------------------------*- C++ -*----------------------------------*\
  =========                 |
  \\      /  F ield         | OpenFOAM: The Open Source CFD Toolbox
   \\    /   O peration     | Website:  https://openfoam.org
    \\  /    A nd           | Version:  11
     \\/     M anipulation  |
\*---------------------------------------------------------------------------*/
FoamFile
{
    format      ascii;
    class       volScalarField;
    location    "1.2";
    object      nut;
}
// * * * * * * * * * * * * * * * * * * * * * * * * * * * * * * * * * * * * * //

dimensions      [0 2 -1 0 0 0 0];

internalField   nonuniform List<scalar> 
2880
(
2.02259e-06
6.24539e-06
1.4813e-05
2.49294e-05
3.54102e-05
6.65468e-05
4.93523e-05
6.90365e-05
0.00010929
0.000135197
0.00015154
0.000168606
5.77706e-05
0.000114979
0.000188358
0.000231313
0.000249765
0.000246321
6.2433e-05
0.000148578
0.000255299
0.00031114
0.000330366
0.00031462
6.57128e-05
0.000184115
0.000316326
0.000381258
0.000401774
0.000378385
6.82225e-05
0.000221949
0.000373917
0.00044549
0.000467034
0.000439601
7.02546e-05
0.000260579
0.000427242
0.000504712
0.000526575
0.000498402
7.19442e-05
0.000298508
0.000475208
0.000558081
0.000581032
0.000554904
7.33618e-05
0.000334373
0.000516949
0.000605037
0.000631218
0.00061001
7.45531e-05
0.00036624
0.000551942
0.000645418
0.000678043
0.000665119
7.55537e-05
0.000392094
0.000580005
0.000679938
0.0007223
0.000719858
7.63991e-05
0.000409903
0.000601093
0.000708899
0.000762892
0.000774478
7.69187e-05
0.000420562
0.000615209
0.000731871
0.00079899
0.000827404
7.69933e-05
0.000425041
0.000621945
0.000748103
0.000829613
0.000877213
7.6706e-05
0.000423178
0.000620395
0.0007563
0.000852707
0.000920532
7.59184e-05
0.00041353
0.000609524
0.000754646
0.000865448
0.000953258
7.46125e-05
0.00039649
0.00058736
0.000739811
0.000864016
0.000971396
7.26848e-05
0.000370056
0.000554055
0.000710838
0.000842883
0.000966482
7.0023e-05
0.000332976
0.000507016
0.000664392
0.000801381
0.000941691
6.64813e-05
0.00028395
0.000444464
0.000596584
0.0007301
0.000882096
6.19152e-05
0.000223507
0.000364758
0.000504095
0.000621142
0.000773206
5.57833e-05
0.00015115
0.000267002
0.000385089
0.000475387
0.000584989
4.23968e-05
7.15542e-05
0.000151164
0.000240236
0.000297411
0.000290144
1.61845e-06
1.29062e-05
4.60063e-05
9.2399e-05
0.000144989
4.63842e-05
0.000332034
0.000880765
0.00134174
0.00157809
0.00167709
0.00177199
0.00192484
0.00215986
0.00247056
0.00283525
0.00322117
0.00360322
0.00396235
0.00428314
0.00455211
0.00475728
0.00488845
0.00493779
0.00490005
0.0047724
0.00455399
0.0042464
0.00385733
0.00343318
0.000279954
0.000767005
0.00117372
0.00148406
0.00159767
0.00169238
0.00182796
0.00203692
0.00232242
0.00266768
0.00304542
0.00343004
0.00380042
0.00413899
0.00443031
0.00466054
0.00481757
0.00489131
0.0048739
0.00475942
0.00454323
0.00422169
0.00379534
0.00332088
0.000245585
0.000693324
0.00104254
0.00137224
0.00151622
0.00161673
0.00173939
0.00192352
0.00218133
0.00250327
0.00286726
0.00324888
0.00362601
0.00397932
0.00429158
0.00454712
0.00473179
0.00483317
0.00484057
0.0047445
0.00453561
0.00420301
0.0037345
0.0031835
0.000237658
0.000635955
0.000949309
0.00127301
0.00144483
0.001547
0.00165931
0.00182076
0.00205005
0.00234524
0.0026902
0.00306311
0.00344202
0.00380665
0.0041384
0.00442012
0.00463602
0.00477174
0.00481412
0.00475029
0.00456589
0.00424185
0.00374992
0.00309172
0.000268826
0.000582759
0.000872742
0.00117241
0.00138115
0.00148348
0.00158732
0.0017287
0.00193003
0.00219619
0.00251746
0.00287596
0.00325125
0.00362312
0.0039725
0.00428165
0.00453435
0.00471605
0.00481373
0.00481521
0.00470979
0.00449829
0.00423193
0.00405069
0.000326966
0.000544919
0.000821984
0.00107091
0.00130852
0.00142158
0.00152146
0.00164635
0.0018216
0.0020578
0.00235167
0.00269028
0.00305603
0.00343006
0.00379398
0.00413088
0.00442601
0.00466762
0.00484732
0.00496017
0.00500533
0.00499123
0.00494693
0.00491969
0.000390588
0.000522015
0.000782196
0.000991429
0.00123645
0.00136065
0.00145987
0.00157221
0.00172423
0.00193091
0.00219484
0.00250859
0.00285854
0.00322844
0.00360192
0.00396417
0.00430311
0.00461015
0.00488001
0.00510928
0.00529472
0.00543363
0.00552761
0.00558295
0.000459123
0.000515095
0.000750257
0.000924023
0.00116804
0.00130966
0.00140365
0.00150524
0.00163703
0.0018157
0.00204847
0.00233327
0.00266121
0.00301982
0.00339598
0.00377803
0.00415703
0.00452655
0.00488072
0.00521107
0.00550447
0.00574507
0.00591162
0.00601922
0.00052765
0.0005287
0.000726645
0.000870279
0.00109407
0.0012564
0.00135052
0.00144413
0.0015588
0.00171182
0.00191354
0.00216654
0.00246689
0.00280667
0.00317692
0.00356993
0.00398002
0.00440203
0.00482744
0.00524038
0.00561736
0.00592364
0.00614848
0.00628346
0.000598921
0.000564779
0.000715207
0.000834064
0.00102794
0.00119828
0.00129746
0.00138673
0.001488
0.00161844
0.00179048
0.00201036
0.00227871
0.0025924
0.00294709
0.00333942
0.00376717
0.00422635
0.00470583
0.00518322
0.0056242
0.00598428
0.00625376
0.00641175
0.00067229
0.000608829
0.000718948
0.000807494
0.000974709
0.0011452
0.00124584
0.00133217
0.00142321
0.00153454
0.00167932
0.0018663
0.00209986
0.00238124
0.00271067
0.00308917
0.00351824
0.00399586
0.00450994
0.00503391
0.0055212
0.00593108
0.00623686
0.00641726
0.000744526
0.000674588
0.00073258
0.000799796
0.000934993
0.00109342
0.00119574
0.00128007
0.00136315
0.00145892
0.00157966
0.00173545
0.0019333
0.00217793
0.00247349
0.00282506
0.003238
0.00371345
0.00424082
0.00479244
0.00531444
0.00576493
0.00610547
0.00630522
0.000818377
0.000763606
0.000767214
0.000807682
0.000914583
0.00104532
0.00114725
0.00122997
0.00130696
0.00139031
0.00149067
0.00161823
0.00178135
0.00198707
0.00224239
0.00255561
0.00293574
0.00338808
0.00390621
0.004465
0.00500995
0.00549052
0.00586383
0.00608188
0.000890037
0.000854593
0.000831147
0.000832661
0.00091079
0.00101704
0.00110662
0.00118392
0.00125483
0.00132783
0.0014114
0.00151442
0.00164549
0.00181265
0.00202442
0.00229104
0.00262433
0.00303402
0.00351989
0.00406307
0.00461694
0.00511462
0.00551774
0.00575313
0.000956325
0.000945474
0.000913149
0.000884345
0.000921075
0.000998699
0.0010748
0.00114386
0.00120769
0.00127138
0.00134095
0.00142335
0.00152625
0.00165749
0.00182577
0.0020418
0.00231872
0.00266978
0.00310169
0.00360495
0.00414669
0.00464814
0.00507254
0.00532818
0.0010143
0.00102929
0.00100275
0.000962347
0.000961655
0.000999854
0.00105686
0.0011134
0.00116786
0.00122199
0.00127918
0.00134431
0.00142333
0.00152292
0.00165085
0.00181691
0.00203377
0.00231618
0.00267654
0.00311606
0.00361465
0.00411182
0.00453771
0.00481416
0.00106019
0.00109915
0.00108836
0.00105282
0.00103075
0.00103635
0.00106357
0.00110013
0.0011404
0.00118265
0.00122749
0.00127741
0.00133631
0.00140911
0.0015019
0.00162256
0.00178173
0.00199315
0.0022718
0.00262774
0.00305568
0.00352339
0.003944
0.00423874
0.00108892
0.00115083
0.00115991
0.00113879
0.00111134
0.00109587
0.00109668
0.00111004
0.00113168
0.00115859
0.00118941
0.00122452
0.00126574
0.00131603
0.0013795
0.00146168
0.00157033
0.00171622
0.00191317
0.00217549
0.00251084
0.00290782
0.00331408
0.00360182
0.00109495
0.00118057
0.00120904
0.00120566
0.00118626
0.00116416
0.00114868
0.00114241
0.00114491
0.00115448
0.00116947
0.00118911
0.00121369
0.00124448
0.00128371
0.00133469
0.00140231
0.00149363
0.00161875
0.00179069
0.00202289
0.00232249
0.00266443
0.00295356
0.00107744
0.00118697
0.00123057
0.00124543
0.00124251
0.00122458
0.00120487
0.00118785
0.001176
0.00116997
0.00116934
0.00117348
0.00118209
0.00119541
0.00121431
0.00124041
0.00127628
0.00132584
0.00139498
0.00149224
0.00162906
0.0018177
0.00206535
0.00232464
0.00103059
0.00116893
0.0012262
0.00125535
0.00126753
0.00126419
0.0012499
0.00123212
0.00121413
0.00119818
0.00118534
0.001176
0.00117025
0.00116814
0.00116992
0.00117621
0.00118809
0.00120737
0.00123684
0.00128078
0.00134556
0.00143881
0.00157591
0.00177193
0.000944596
0.00113228
0.00120308
0.0012412
0.00126353
0.00127462
0.00127347
0.00126275
0.00124639
0.00122802
0.00120924
0.00119128
0.00117492
0.00116064
0.00114877
0.00113962
0.00113365
0.00113153
0.00113437
0.00114386
0.00116263
0.00119452
0.00124104
0.00134884
0.000831512
0.00108687
0.00116914
0.00121337
0.00124411
0.0012623
0.00127331
0.00127228
0.00126418
0.00124975
0.00123153
0.00121147
0.0011906
0.00116976
0.00114953
0.00113033
0.00111254
0.00109649
0.00108256
0.00107136
0.00106336
0.00106166
0.00105904
0.00109325
0.000707734
0.00105731
0.00114773
0.00118998
0.0012222
0.0012463
0.00125968
0.00126878
0.00126745
0.00126019
0.00124785
0.0012313
0.00121213
0.00119162
0.00117015
0.00114818
0.00112633
0.00110497
0.00108416
0.00106418
0.00104437
0.00102775
0.00100652
0.0010001
6.48487e-07
2.89665e-06
1.12618e-05
3.11731e-05
7.33394e-05
0.000159884
2.50515e-05
4.60445e-05
9.13747e-05
0.00016121
0.000263141
0.000418854
0.000150358
0.000118354
0.000205177
0.000317406
0.00045669
0.000645343
0.000169685
0.000188264
0.000311324
0.000454829
0.000617116
0.000813356
0.000184636
0.00024871
0.000402242
0.000566341
0.000738332
0.000927268
0.000194502
0.000296704
0.000476456
0.00065231
0.000823756
0.000996084
0.000200844
0.000330976
0.000534404
0.000715322
0.000880035
0.00102977
4.79751e-05
0.000354014
0.000577401
0.000758445
0.000912795
0.00103964
4.85057e-05
0.000370489
0.000607105
0.000784586
0.000925368
0.00103069
4.89161e-05
0.000380499
0.000625326
0.000796675
0.00092221
0.00100672
4.91497e-05
0.000384619
0.000633575
0.000797125
0.000906534
0.000971068
4.91889e-05
0.000383287
0.00063295
0.000787852
0.000881222
0.000926479
4.90287e-05
0.00037667
0.000624754
0.000770597
0.000848585
0.000875201
4.8719e-05
0.000364467
0.000609982
0.000747005
0.000810487
0.000819154
4.82744e-05
0.000347698
0.000589329
0.00071816
0.000768447
0.000760006
4.76556e-05
0.000328079
0.000563366
0.000684653
0.000723612
0.000699143
4.74939e-05
0.000309074
0.000532395
0.000646393
0.000676651
0.000637507
4.70774e-05
0.00029418
0.000495827
0.000602645
0.000627493
0.000575182
0.000196131
0.000280539
0.000451186
0.000551511
0.000574758
0.000510461
0.000188952
0.000252837
0.000394997
0.000488852
0.000514645
0.00044316
0.000177556
0.000208903
0.000323277
0.000408892
0.000440354
0.000372975
0.000161992
0.000146146
0.000229432
0.000303024
0.000342084
0.000299186
2.84852e-05
6.31523e-05
0.000111142
0.000162358
0.000202174
0.000208958
8.36227e-07
3.35902e-06
9.75404e-06
2.28165e-05
4.02398e-05
7.13989e-05
0.000802317
0.00107471
0.00115786
0.00119497
0.00122261
0.0012446
0.00126029
0.00126818
0.00127324
0.0012709
0.00126419
0.00125422
0.00124177
0.00122801
0.00121232
0.00119405
0.00117633
0.00116005
0.0011446
0.00112944
0.00111372
0.00109971
0.00108298
0.00107382
0.000907018
0.00112218
0.0012037
0.0012398
0.00126341
0.00128133
0.00129336
0.00130054
0.00130319
0.00130422
0.00130186
0.00129768
0.00129248
0.00128692
0.0012842
0.00128349
0.00127952
0.0012741
0.00126972
0.00126884
0.00127176
0.00127753
0.00128546
0.00129838
0.00100467
0.0011828
0.00126841
0.00131475
0.00134445
0.00136227
0.00137268
0.00137736
0.00137831
0.00137736
0.00137658
0.00137607
0.00137673
0.00137908
0.00138361
0.00139434
0.00141342
0.00143763
0.00146343
0.00149166
0.00152144
0.00155243
0.00158336
0.00161011
0.00108315
0.00123206
0.00132148
0.00138245
0.00142852
0.00146192
0.00148393
0.00149645
0.0015021
0.00150309
0.0015014
0.0014999
0.00150042
0.00150454
0.00151218
0.00152421
0.00154241
0.00156615
0.0015946
0.00162735
0.00166272
0.0016981
0.00173059
0.00175477
0.00113448
0.00125882
0.00134733
0.00141825
0.00147757
0.00152676
0.00156404
0.00159009
0.00160773
0.00161937
0.00162728
0.00163399
0.00164149
0.001651
0.00166334
0.00168059
0.00170096
0.00172386
0.00175073
0.00178081
0.00181336
0.0018469
0.00187621
0.00189719
0.00115786
0.00126782
0.0013558
0.00143494
0.00150629
0.00156862
0.00161794
0.00165572
0.00168462
0.00170624
0.00172258
0.0017357
0.00174751
0.00175968
0.00177345
0.00179004
0.00181065
0.00183496
0.00186176
0.00188805
0.00191072
0.00192785
0.00194048
0.00194848
0.00116169
0.00125519
0.00133734
0.00141923
0.00149812
0.00157138
0.00163421
0.00168711
0.00173176
0.00176898
0.00180014
0.00182621
0.00184845
0.00186771
0.00188477
0.00190002
0.00191352
0.00192507
0.00193434
0.00194137
0.00194648
0.00194984
0.00195129
0.0019518
0.0011452
0.00122211
0.00129689
0.00137803
0.00146013
0.00153895
0.00161032
0.00167326
0.00172868
0.00177718
0.00181952
0.00185621
0.00188787
0.00191463
0.00193693
0.00195443
0.00196675
0.00197353
0.00197462
0.00197014
0.00196081
0.00194844
0.00193671
0.00192908
0.00111219
0.00117262
0.00123917
0.00131762
0.0014006
0.00148178
0.00155773
0.00162646
0.00168796
0.00174256
0.00179178
0.00183506
0.00187203
0.00190355
0.00192973
0.00194879
0.00195932
0.00196147
0.00195572
0.00194278
0.00192327
0.00189862
0.00187181
0.00184956
0.0010659
0.00110995
0.00116776
0.00124244
0.00132467
0.00140626
0.00148425
0.00155447
0.00161774
0.00167142
0.00171611
0.00175339
0.00178418
0.00180938
0.00182844
0.00183947
0.0018446
0.00184416
0.00183755
0.00182485
0.00180766
0.00179002
0.00177435
0.00177196
0.00100902
0.00103645
0.00108477
0.00115443
0.00123412
0.00131269
0.00138137
0.0014394
0.00149212
0.00154008
0.001588
0.00163102
0.00166908
0.00170218
0.00172851
0.00174805
0.00176012
0.00176425
0.00176079
0.00175016
0.00173275
0.00170984
0.00168126
0.00165833
0.000943809
0.000953775
0.000991212
0.00105362
0.00112022
0.0011854
0.00125321
0.00132765
0.00139603
0.00145555
0.00150105
0.00153783
0.0015658
0.00158482
0.00159627
0.00160038
0.00159766
0.00158842
0.00157261
0.00155064
0.00152222
0.00149003
0.001449
0.00141824
0.000872083
0.00086328
0.000887711
0.000934207
0.00099573
0.00107282
0.00115349
0.00121971
0.00126825
0.00130734
0.00133539
0.00135507
0.00136759
0.00137333
0.00137267
0.00136598
0.0013536
0.00133563
0.00131272
0.00128617
0.00125476
0.00122331
0.0011824
0.00116716
0.000795666
0.000766666
0.000774869
0.000815742
0.000875965
0.000950034
0.00101007
0.00106223
0.00110024
0.00112769
0.00114594
0.00115603
0.0011589
0.00115562
0.00114721
0.0011352
0.00112012
0.00110245
0.00109061
0.00108281
0.00107206
0.00106753
0.00106623
0.00110011
0.000716299
0.000666985
0.000663873
0.000693461
0.000748321
0.000807442
0.000864751
0.000907833
0.000940823
0.000964021
0.000978627
0.000986146
0.000988432
0.000987656
0.000990078
0.000998486
0.00100951
0.00102222
0.0010268
0.00103143
0.00105547
0.00110327
0.00118055
0.0013203
0.000635614
0.000568643
0.000557096
0.000581606
0.000624406
0.000689177
0.000743295
0.000788377
0.00082441
0.000852598
0.000875044
0.000894007
0.000916277
0.000944409
0.00096905
0.000985684
0.00100475
0.00103858
0.00108822
0.00115663
0.00125025
0.00137858
0.00155298
0.00174451
0.000554435
0.000477505
0.00046395
0.000485137
0.00054924
0.000615505
0.000676378
0.000729697
0.000776017
0.000817394
0.000856764
0.000898058
0.000937375
0.000974008
0.00101489
0.0010643
0.001128
0.00120822
0.00130872
0.00143579
0.00159797
0.00180545
0.00204529
0.0022455
0.000471621
0.0004007
0.000391896
0.00043281
0.000516781
0.000596327
0.000667147
0.0007294
0.000784949
0.000836429
0.000886685
0.000938674
0.000993485
0.00105494
0.00112591
0.00120951
0.0013084
0.00142741
0.001574
0.00175803
0.00198769
0.0022457
0.00250399
0.00272828
0.000383622
0.00034314
0.000353771
0.000434427
0.000531973
0.000618491
0.000694248
0.000761166
0.000821989
0.000879996
0.000938483
0.000999875
0.00106768
0.00114614
0.00123929
0.00135133
0.00148798
0.00165694
0.00186801
0.00213068
0.00242783
0.00272605
0.00300557
0.00327451
0.00029429
0.000306519
0.000340311
0.000461751
0.000566518
0.000657917
0.000738652
0.000811885
0.000881837
0.000953312
0.0010309
0.00111942
0.00122349
0.00134665
0.0014926
0.00166555
0.00187036
0.00211267
0.00239689
0.00271789
0.00302401
0.00332041
0.00360194
0.0038249
0.000218634
0.000280276
0.000348483
0.000504489
0.000615709
0.000711983
0.000798272
0.000879902
0.000963056
0.00105351
0.00115642
0.00127595
0.00141523
0.00157666
0.00176147
0.0019708
0.00220737
0.00247573
0.00277943
0.00309336
0.00339857
0.00369173
0.0039765
0.0041563
0.000181017
0.000273252
0.00040063
0.000572422
0.00068046
0.000777142
0.000867494
0.000958626
0.00105729
0.00116888
0.0012971
0.00144402
0.00161019
0.00179561
0.00200141
0.00223073
0.00248848
0.00277963
0.00310491
0.00342681
0.00373961
0.00403793
0.00430356
0.00445016
0.000178565
0.000297196
0.000505282
0.000639426
0.00074681
0.000844849
0.000942064
0.00104717
0.00116653
0.00130418
0.00146235
0.0016419
0.00184298
0.00206538
0.00230876
0.00257343
0.00286049
0.00317032
0.00349876
0.00380742
0.00409642
0.00437357
0.00459537
0.00471033
0.000185406
0.000352489
0.000584925
0.000710324
0.000816831
0.000917095
0.00102516
0.00114935
0.00129401
0.00146123
0.00165139
0.00186337
0.00209491
0.0023433
0.00260636
0.00288306
0.00317337
0.00347657
0.00378783
0.00407659
0.00433652
0.00458425
0.00477145
0.00487289
1.11832e-06
1.13615e-05
4.57196e-05
0.00011111
0.000197807
5.5269e-05
3.15971e-05
8.28071e-05
0.000182916
0.000304282
0.000371977
0.000394437
4.86483e-05
0.000171357
0.000312313
0.000458913
0.000562285
0.000643119
5.36811e-05
0.000245328
0.000407801
0.000554963
0.000665361
0.000720716
5.72423e-05
0.000301592
0.000472109
0.000606584
0.00069863
0.000725606
5.98025e-05
0.000341331
0.000511247
0.000627499
0.000692941
0.000706822
6.16226e-05
0.000366925
0.000530907
0.000626717
0.000668784
0.000683507
6.28636e-05
0.000381136
0.000536681
0.000613203
0.000638174
0.000661796
6.36298e-05
0.000386597
0.000532678
0.000593077
0.000608698
0.000645718
6.39879e-05
0.000385328
0.000522137
0.000569807
0.000582513
0.000634317
6.39818e-05
0.000378752
0.000507218
0.000545689
0.000558804
0.000625941
6.36324e-05
0.000367799
0.000489155
0.000521938
0.000535745
0.000618289
6.29655e-05
0.000352998
0.000468727
0.00049837
0.000513933
0.000609602
6.20511e-05
0.000334524
0.000446292
0.000473986
0.000490667
0.000598748
6.08828e-05
0.000312889
0.000422024
0.000448558
0.00046569
0.000582526
5.94362e-05
0.000288527
0.000396334
0.000421056
0.000438604
0.000560213
5.76766e-05
0.000261679
0.000369663
0.000391112
0.000408535
0.000530037
5.55344e-05
0.000232818
0.000341529
0.000357527
0.000374883
0.000490519
5.28212e-05
0.000203212
0.000310986
0.000319539
0.000337258
0.000440388
4.89534e-05
0.000175359
0.000276273
0.00027615
0.000293659
0.00037884
0.000195544
0.000155469
0.000234083
0.000230449
0.000237721
0.000309104
0.000179258
0.000118514
0.000180573
0.000186584
0.000167045
0.000229601
3.19914e-05
5.47298e-05
9.98556e-05
0.000121546
9.14884e-05
0.000136446
1.03502e-06
3.01235e-06
9.24536e-06
2.2185e-05
5.17701e-05
0.00020631
0.000235863
0.000545979
0.000706581
0.000803863
0.000889814
0.000991274
0.00111505
0.00126297
0.0014359
0.00163345
0.00185373
0.00209343
0.00234837
0.0026142
0.00288721
0.00316507
0.00344678
0.00373127
0.00401432
0.00427779
0.00450249
0.0047131
0.00487154
0.00496069
0.000580672
0.000746475
0.000786172
0.000844749
0.00093954
0.00106351
0.00121322
0.00138924
0.00159179
0.00181899
0.00206701
0.00233069
0.00260418
0.00288155
0.00315753
0.00342832
0.0036919
0.00394717
0.00419177
0.00441926
0.00460597
0.00476845
0.00489949
0.0049766
0.00075245
0.00076414
0.000805328
0.000891867
0.00100877
0.00115203
0.00132434
0.00152713
0.00175827
0.00201298
0.00228502
0.00256738
0.00285272
0.00313372
0.00340388
0.00365834
0.00389446
0.00411161
0.00430955
0.00448615
0.00463621
0.00474524
0.00484163
0.00490814
0.000775857
0.00078608
0.000846086
0.000944959
0.00107575
0.00124013
0.00143952
0.00167164
0.00193096
0.0022103
0.00250182
0.00279736
0.00308855
0.00336713
0.00362564
0.00385821
0.00406145
0.00423458
0.00437889
0.00449626
0.00458771
0.00465347
0.00469795
0.0047474
0.000765468
0.000798391
0.000879106
0.000996198
0.0011476
0.00133651
0.00156324
0.00182285
0.00210712
0.0024069
0.00271314
0.00301681
0.0033089
0.0035805
0.00382347
0.0040312
0.00419936
0.00432632
0.0044132
0.00446389
0.00448521
0.00448687
0.0044799
0.00449519
0.000751983
0.000816077
0.0009181
0.00105165
0.00122236
0.00143574
0.00168978
0.00197561
0.00228207
0.00259848
0.00291511
0.00322261
0.00351165
0.0037731
0.00399855
0.00418106
0.00431565
0.00439956
0.00443235
0.00441624
0.00435816
0.00427369
0.00418572
0.00413481
0.000745461
0.00083902
0.000958016
0.00110713
0.00129848
0.0015374
0.0018182
0.00212791
0.00245302
0.00278205
0.00310509
0.00341278
0.00369581
0.00394512
0.00415251
0.0043113
0.00441672
0.00446585
0.00445717
0.0043897
0.0042622
0.00407341
0.00382083
0.00346667
0.000750979
0.000866592
0.000999058
0.00116304
0.00137514
0.00163936
0.00194563
0.00227663
0.002617
0.00295502
0.00328106
0.00358599
0.00386074
0.00409657
0.00428582
0.00442267
0.00450341
0.00452643
0.00449167
0.00439977
0.0042513
0.00404666
0.00378679
0.00347234
0.000762412
0.000895694
0.00103923
0.00121753
0.00145035
0.00173952
0.00206994
0.00241956
0.00277192
0.00311565
0.0034417
0.00374138
0.00400592
0.00422701
0.00439771
0.00451326
0.00457146
0.00457246
0.0045182
0.00441143
0.00425485
0.00405098
0.00380265
0.0035085
0.000777265
0.000924816
0.00107759
0.00126951
0.00152243
0.00183597
0.00218927
0.00255492
0.00291622
0.00326275
0.00358625
0.00387851
0.00413108
0.00433605
0.00448722
0.004581
0.00461677
0.00459661
0.00452449
0.00440514
0.00424289
0.00404148
0.00380504
0.00353137
0.000793606
0.000952744
0.00111307
0.00131712
0.00159003
0.00192733
0.00230227
0.00268142
0.00304894
0.00339574
0.00371449
0.00399744
0.00423639
0.0044238
0.00455417
0.00462512
0.00463766
0.00459578
0.00450548
0.00437339
0.00420545
0.00400687
0.00378343
0.00353435
0.000809771
0.000977989
0.00114471
0.00136071
0.0016531
0.00201288
0.00240798
0.00279828
0.00316962
0.00351453
0.00382668
0.00409871
0.00432258
0.00449106
0.00459939
0.00464647
0.00463514
0.00457151
0.00446376
0.00432044
0.00414905
0.00395597
0.00374809
0.00352597
0.000824585
0.00100118
0.00117328
0.00140001
0.0017109
0.00209182
0.00250563
0.00290505
0.00327821
0.00361948
0.00392351
0.00418328
0.00439085
0.00453923
0.00462446
0.00464691
0.00461149
0.00452671
0.00440303
0.00425089
0.00407905
0.00389462
0.0037048
0.00351098
0.00083775
0.00102214
0.00119855
0.00143457
0.00176295
0.00216363
0.00259475
0.00300169
0.00337506
0.00371126
0.00400597
0.00425246
0.00444276
0.00457013
0.00463151
0.00462899
0.00456985
0.00446523
0.00432793
0.00417008
0.00400122
0.00382851
0.00365861
0.00349295
0.000848932
0.00104116
0.0012204
0.00146425
0.00180896
0.00222814
0.00267505
0.00308842
0.00346079
0.00379082
0.00407533
0.00430778
0.00448014
0.00458592
0.00462309
0.00459575
0.0045139
0.00439147
0.00424357
0.00408356
0.00392111
0.00376263
0.00361343
0.00347435
0.000857065
0.00106061
0.00123805
0.00148863
0.00184896
0.00228558
0.00274629
0.00316579
0.00353624
0.00385927
0.00413296
0.00435094
0.00450501
0.00458895
0.00460199
0.00455051
0.00444754
0.00430996
0.00415487
0.00399628
0.0038432
0.00370056
0.00357173
0.00345666
0.000862053
0.00107551
0.00126049
0.00150566
0.00188294
0.00233632
0.00280907
0.00323462
0.00360239
0.00391781
0.00418034
0.00438368
0.00451943
0.00458169
0.00457109
0.00449665
0.00437468
0.00422496
0.00406616
0.00391221
0.00377069
0.0036445
0.00353482
0.00344069
0.000863703
0.00109046
0.00127503
0.00152627
0.00190867
0.00238067
0.0028645
0.00329584
0.00366027
0.00396767
0.00421892
0.00440775
0.0045255
0.0045666
0.00453327
0.00443746
0.00429893
0.00414019
0.00398093
0.00383417
0.00370548
0.00359545
0.00350313
0.0034268
0.000861075
0.00110576
0.00129
0.0015494
0.00193545
0.00241565
0.00291355
0.00335045
0.00371091
0.00401004
0.00425011
0.00442483
0.00452522
0.00454604
0.00449127
0.00437599
0.00422349
0.00405872
0.00390169
0.00376388
0.00364842
0.00355358
0.00347657
0.00341507
0.000852848
0.00112268
0.00130509
0.00156698
0.00196559
0.00244854
0.00295435
0.00339936
0.00375524
0.00404601
0.00427521
0.00443648
0.00452045
0.00452223
0.00444762
0.00431498
0.00415106
0.00398286
0.0038301
0.00370214
0.00359956
0.00351852
0.00345476
0.00340547
0.00083681
0.00114307
0.00132193
0.00158858
0.00199789
0.00248744
0.00298806
0.00344221
0.00379412
0.00407659
0.00429538
0.00444409
0.00451289
0.00449718
0.00440459
0.00425674
0.00408376
0.00391423
0.00376702
0.00364905
0.00355843
0.00348959
0.00343716
0.00339785
0.000810667
0.00116999
0.00134791
0.00162068
0.00203473
0.0025292
0.00302734
0.00347725
0.00382863
0.00410272
0.00431166
0.0044489
0.00450405
0.00447267
0.00436412
0.0042032
0.00402315
0.00385378
0.00371269
0.00360425
0.00352429
0.00346589
0.00342309
0.00339191
0.000785663
0.00121438
0.00139586
0.00166637
0.00207747
0.00257354
0.00306915
0.00351128
0.00385592
0.00412508
0.004325
0.00445201
0.00449526
0.00445029
0.00432794
0.00415593
0.00397038
0.00380199
0.00366694
0.00356714
0.00349641
0.00344675
0.00341183
0.0033872
0.000826721
0.00129655
0.00145419
0.00171834
0.00212639
0.00262173
0.00311414
0.00354965
0.00388206
0.00414321
0.00433623
0.00445444
0.00448774
0.00443148
0.00429758
0.00411632
0.00392634
0.00375912
0.00362944
0.00353705
0.00347406
0.0034316
0.00340297
0.00338358
1.26777e-06
1.14151e-05
4.58729e-05
9.89474e-05
0.000157204
4.74471e-05
3.57249e-05
6.46279e-05
0.000144867
0.000253286
0.000356656
0.000382031
5.17837e-05
0.000144651
0.00027099
0.000425377
0.000583042
0.000708765
5.77089e-05
0.00022384
0.000392019
0.000584404
0.000780248
0.00096628
6.22042e-05
0.000296965
0.000503
0.000726535
0.000943447
0.00115655
6.56994e-05
0.000361967
0.000602125
0.000850502
0.00107636
0.00129724
6.8432e-05
0.000416752
0.000688513
0.000955981
0.00118442
0.00140318
7.05501e-05
0.000461173
0.000761902
0.00104381
0.00127233
0.00148449
7.21489e-05
0.000495433
0.000822083
0.00111546
0.00134391
0.00154814
7.32889e-05
0.000519817
0.000869175
0.00117223
0.00140192
0.00159885
7.40054e-05
0.000534569
0.000903552
0.001215
0.00144955
0.00163947
7.43205e-05
0.000539715
0.000925501
0.00124489
0.00148546
0.00167079
7.4313e-05
0.000534559
0.000934838
0.00126201
0.00151015
0.00169433
7.40687e-05
0.000518905
0.000931641
0.00126634
0.00152285
0.00171014
7.35316e-05
0.000494625
0.000915292
0.00125808
0.00152245
0.00171711
7.26408e-05
0.000463528
0.000885903
0.00123555
0.0015078
0.00171298
7.13225e-05
0.000426832
0.000843705
0.00119668
0.00147593
0.00169414
6.94801e-05
0.000385376
0.000788402
0.00113789
0.00142204
0.00165316
6.69853e-05
0.000340878
0.000718881
0.0010548
0.00133984
0.00158032
6.36591e-05
0.000293339
0.000632171
0.00094104
0.00122112
0.00146047
5.92532e-05
0.000240913
0.000522009
0.000788174
0.00104959
0.00126527
5.34178e-05
0.000177986
0.000379524
0.000586706
0.000805989
0.00095408
3.92215e-05
9.33173e-05
0.000201437
0.000332104
0.000484861
0.000502966
1.31975e-06
8.04252e-06
3.11522e-05
7.68897e-05
0.00016569
5.49423e-05
0.000899276
0.00135621
0.00151314
0.00177736
0.00218291
0.00267443
0.0031623
0.00359054
0.00390964
0.0041603
0.00434551
0.00445706
0.00448253
0.00441752
0.00427446
0.00408561
0.00389186
0.00372541
0.00359995
0.00351342
0.00345657
0.00341983
0.00339618
0.00338095
0.00115329
0.00147424
0.0015961
0.00185015
0.00224715
0.0027309
0.00321305
0.00363408
0.00394257
0.00417874
0.0043551
0.00446044
0.0044804
0.00440946
0.00425973
0.00406487
0.00386763
0.00370108
0.00357828
0.00349582
0.00344342
0.00341096
0.00339112
0.00337911
0.0013314
0.00159189
0.00169802
0.00193226
0.00231602
0.0027885
0.00325901
0.00366844
0.00397066
0.00420163
0.00436944
0.00446713
0.00448249
0.00440815
0.0042543
0.0040549
0.00385423
0.00368634
0.00356428
0.00348394
0.00343427
0.00340465
0.00338752
0.00337787
0.00144598
0.00168581
0.0017935
0.00201419
0.00238348
0.00284024
0.003297
0.00369267
0.00398827
0.00421587
0.0043817
0.00447843
0.00449213
0.0044147
0.00425845
0.00405618
0.00385211
0.00368153
0.00355802
0.00347771
0.00342899
0.00340059
0.00338509
0.00337706
0.00153091
0.00176052
0.00187447
0.00208917
0.00244389
0.00288232
0.00332533
0.00370781
0.00399755
0.00422187
0.00438696
0.00448506
0.00450195
0.00442848
0.0042736
0.00406954
0.00386145
0.00368639
0.00355969
0.00347724
0.00342718
0.00339876
0.00338398
0.00337671
0.00159848
0.00181853
0.00194107
0.0021521
0.00248989
0.00291249
0.00334482
0.00371756
0.0040033
0.00422605
0.00439152
0.00449221
0.00451403
0.00444688
0.00429716
0.00409453
0.00388349
0.00370276
0.00356993
0.00348282
0.00342941
0.00339947
0.00338408
0.00337667
0.00165519
0.00185903
0.00199266
0.0021974
0.00252211
0.0029322
0.00335575
0.0037209
0.00400462
0.00422764
0.00439527
0.00450058
0.00452984
0.00447193
0.00433046
0.00413163
0.00391831
0.00373071
0.00358965
0.00349537
0.00343703
0.00340325
0.00338566
0.00337703
0.00170259
0.00188721
0.00202857
0.00222884
0.00254209
0.00294054
0.00335672
0.00371698
0.00400087
0.00422613
0.00439777
0.0045096
0.00454847
0.00450252
0.00437246
0.0041803
0.00396617
0.00377122
0.00361988
0.00351582
0.00345018
0.0034104
0.00338888
0.00337792
0.00174188
0.00190674
0.00205279
0.00224771
0.00254933
0.00293663
0.00334668
0.00370497
0.00399134
0.00422088
0.00439838
0.00451851
0.00456896
0.00453743
0.00442191
0.00423973
0.00402713
0.00382516
0.00366193
0.00354538
0.00346916
0.00342221
0.00339434
0.00337954
0.0017747
0.00191985
0.00206702
0.00225484
0.00254398
0.0029201
0.00332492
0.00368406
0.00397526
0.00421114
0.00439635
0.00452646
0.00459021
0.00457526
0.00447721
0.00430856
0.00410065
0.00389314
0.00371725
0.00358585
0.00349612
0.00343835
0.00340292
0.00338222
0.0018017
0.00192819
0.00207252
0.00225115
0.0025265
0.00289089
0.00329091
0.00365347
0.00395172
0.00419601
0.00439076
0.00453244
0.004611
0.00461441
0.00453637
0.00438481
0.00418547
0.00397512
0.00378696
0.00363892
0.00353271
0.00346099
0.00341483
0.00338628
0.00182404
0.00193347
0.00206987
0.00223748
0.00249759
0.00284923
0.00324432
0.00361235
0.00391972
0.00417441
0.0043805
0.0045353
0.00462996
0.00465311
0.00459716
0.00446596
0.00427942
0.00407009
0.00387152
0.00370609
0.00358076
0.00349165
0.00343133
0.00339211
0.00184239
0.00193801
0.00205797
0.00221466
0.00245823
0.00279566
0.003185
0.00355986
0.0038781
0.00414507
0.00436429
0.00453367
0.00464558
0.00468951
0.00465715
0.00454905
0.00437956
0.004176
0.00397041
0.00378833
0.00364202
0.00353208
0.00345365
0.00340014
0.00185673
0.00194148
0.00204119
0.00218485
0.00240993
0.00273109