/*--------------------------------*- C++ -*----------------------------------*\
  =========                 |
  \\      /  F ield         | OpenFOAM: The Open Source CFD Toolbox
   \\    /   O peration     | Website:  https://openfoam.org
    \\  /    A nd           | Version:  11
     \\/     M anipulation  |
\*---------------------------------------------------------------------------*/
FoamFile
{
    format      ascii;
    class       surfaceScalarField;
    location    "1.2";
    object      phi;
}
// * * * * * * * * * * * * * * * * * * * * * * * * * * * * * * * * * * * * * //

dimensions      [0 3 -1 0 0 0 0];

internalField   nonuniform List<scalar> 
5640
(
1.11417e-06
-1.11417e-06
2.62749e-06
-1.51332e-06
4.13943e-06
-1.51193e-06
5.3998e-06
-1.26038e-06
5.85895e-06
-4.59143e-07
-1.99726e-08
5.87892e-06
1.43571e-06
-2.54989e-06
2.97771e-06
-3.05531e-06
4.46054e-06
-2.99476e-06
5.60292e-06
-2.40276e-06
6.09647e-06
-9.52696e-07
2.57212e-07
5.81928e-06
1.47916e-06
-4.02905e-06
2.92249e-06
-4.49865e-06
4.2746e-06
-4.34687e-06
5.30285e-06
-3.431e-06
5.79271e-06
-1.44255e-06
6.17025e-07
5.4329e-06
1.41447e-06
-5.44352e-06
2.72209e-06
-5.80626e-06
3.92521e-06
-5.54999e-06
4.87242e-06
-4.37822e-06
5.39745e-06
-1.96759e-06
8.73585e-07
5.14089e-06
1.28464e-06
-6.72816e-06
2.43877e-06
-6.96039e-06
3.49729e-06
-6.60852e-06
4.36858e-06
-5.24951e-06
4.95608e-06
-2.55508e-06
8.58103e-07
4.97156e-06
1.1167e-06
-7.84486e-06
2.1059e-06
-7.9496e-06
3.02183e-06
-7.52444e-06
3.82216e-06
-6.04985e-06
4.47188e-06
-3.2048e-06
5.57226e-07
4.77276e-06
9.25057e-07
-8.76991e-06
1.74296e-06
-8.7675e-06
2.51402e-06
-8.2955e-06
3.23683e-06
-6.77266e-06
3.93368e-06
-3.90164e-06
3.97528e-08
4.45115e-06
7.18177e-07
-9.48809e-06
1.36145e-06
-9.41077e-06
1.98246e-06
-8.91651e-06
2.61587e-06
-7.40607e-06
3.32241e-06
-4.60819e-06
-6.38097e-07
4.00026e-06
5.02611e-07
-9.9907e-06
9.69402e-07
-9.87756e-06
1.43363e-06
-9.38074e-06
1.96027e-06
-7.93271e-06
2.63864e-06
-5.28656e-06
-1.42303e-06
3.42358e-06
2.83414e-07
-1.02741e-05
5.74795e-07
-1.01689e-05
8.73706e-07
-9.67965e-06
1.27394e-06
-8.33294e-06
1.88876e-06
-5.90138e-06
-2.26025e-06
2.72598e-06
6.57037e-08
-1.03398e-05
1.81499e-07
-1.02847e-05
3.09397e-07
-9.80755e-06
5.64068e-07
-8.58761e-06
1.08215e-06
-6.41947e-06
-3.09489e-06
1.9168e-06
-1.43915e-07
-1.01959e-05
-2.04054e-07
-1.02246e-05
-2.51177e-07
-9.76043e-06
-1.58948e-07
-8.67984e-06
2.32381e-07
-6.8108e-06
-3.87859e-06
1.01608e-06
-3.43717e-07
-9.85219e-06
-5.75446e-07
-9.99287e-06
-7.98527e-07
-9.53735e-06
-8.8128e-07
-8.59709e-06
-6.42165e-07
-7.04991e-06
-4.55976e-06
3.90024e-08
-5.29909e-07
-9.32228e-06
-9.25881e-07
-9.5969e-06
-1.32204e-06
-9.14118e-06
-1.5875e-06
-8.33163e-06
-1.51867e-06
-7.11875e-06
-5.12673e-06
-9.51701e-07
-6.97987e-07
-8.62429e-06
-1.24818e-06
-9.04671e-06
-1.81028e-06
-8.57908e-06
-2.25984e-06
-7.88207e-06
-2.3753e-06
-7.00329e-06
-5.54083e-06
-1.9612e-06
-8.43928e-07
-7.78036e-06
-1.53559e-06
-8.35505e-06
-2.25141e-06
-7.86326e-06
-2.87924e-06
-7.25424e-06
-3.18577e-06
-6.69675e-06
-5.78373e-06
-2.94287e-06
-9.6387e-07
-6.81649e-06
-1.78177e-06
-7.53714e-06
-2.63369e-06
-7.01134e-06
-3.42508e-06
-6.46286e-06
-3.92199e-06
-6.19984e-06
-5.84265e-06
-3.86307e-06
-1.0538e-06
-5.76269e-06
-1.9808e-06
-6.61015e-06
-2.94619e-06
-6.04594e-06
-3.87445e-06
-5.53461e-06
-4.55472e-06
-5.51957e-06
-5.70947e-06
-4.6879e-06
-1.10949e-06
-4.6532e-06
-2.12529e-06
-5.59436e-06
-3.17417e-06
-4.99706e-06
-4.20548e-06
-4.50329e-06
-5.05519e-06
-4.66986e-06
-5.38289e-06
-5.38177e-06
-1.12578e-06
-3.52742e-06
-2.20845e-06
-4.51169e-06
-3.30095e-06
-3.90456e-06
-4.39271e-06
-3.41152e-06
-5.38714e-06
-3.67543e-06
-4.87328e-06
-5.89674e-06
-1.09672e-06
-2.4307e-06
-2.2258e-06
-3.38261e-06
-3.31432e-06
-2.81604e-06
-4.40708e-06
-2.31876e-06
-5.4909e-06
-2.59161e-06
-4.16592e-06
-6.19826e-06
-1.01487e-06
-1.41583e-06
-2.17072e-06
-2.22676e-06
-3.20581e-06
-1.78095e-06
-4.22042e-06
-1.30416e-06
-5.31187e-06
-1.50016e-06
-3.20954e-06
-6.26825e-06
-8.66206e-07
-5.49622e-07
-2.01312e-06
-1.07985e-06
-2.95745e-06
-8.36615e-07
-3.75768e-06
-5.03929e-07
-4.74587e-06
-5.11973e-07
-1.95487e-06
-6.00053e-06
-5.49622e-07
-1.62948e-06
-2.46609e-06
-2.97002e-06
-3.48199e-06
-5.43686e-06
1.05969e-05
2.55333e-05
-3.02513e-05
9.08933e-06
3.81119e-05
-3.66044e-05
7.30107e-06
4.08094e-05
-3.90212e-05
5.53432e-06
4.10117e-05
-3.9245e-05
3.77793e-06
4.00157e-05
-3.82594e-05
2.09704e-06
3.8404e-05
-3.67231e-05
5.37266e-07
3.66082e-05
-3.50484e-05
-8.88187e-07
3.48637e-05
-3.34383e-05
-2.19543e-06
3.32527e-05
-3.19455e-05
-3.40643e-06
3.17702e-05
-3.05592e-05
-4.54248e-06
3.03823e-05
-2.92462e-05
-5.6211e-06
2.90555e-05
-2.79768e-05
-6.6551e-06
2.77645e-05
-2.67305e-05
-7.65366e-06
2.6492e-05
-2.54935e-05
-8.62339e-06
2.52259e-05
-2.42562e-05
-9.56916e-06
2.39567e-05
-2.30109e-05
-1.04945e-05
2.26761e-05
-2.17507e-05
-1.1402e-05
2.13763e-05
-2.04688e-05
-1.22929e-05
2.00494e-05
-1.91585e-05
-1.31672e-05
1.86862e-05
-1.7812e-05
-1.40225e-05
1.7276e-05
-1.64207e-05
-1.48529e-05
1.58032e-05
-1.49728e-05
-1.56423e-05
1.42402e-05
-1.34508e-05
1.25838e-05
-1.18865e-05
9.11845e-06
2.22342e-05
9.2038e-06
3.80266e-05
8.10561e-06
4.19076e-05
6.72929e-06
4.2388e-05
5.25034e-06
4.14947e-05
3.7787e-06
3.98756e-05
2.38904e-06
3.79978e-05
1.11242e-06
3.61403e-05
-5.10484e-08
3.44162e-05
-1.11722e-06
3.28363e-05
-2.10621e-06
3.13713e-05
-3.03518e-06
2.99844e-05
-3.91739e-06
2.86467e-05
-4.76272e-06
2.73374e-05
-5.57838e-06
2.60416e-05
-6.36975e-06
2.4748e-05
-7.14089e-06
2.34472e-05
-7.89486e-06
2.21303e-05
-8.63379e-06
2.07883e-05
-9.35878e-06
1.94112e-05
-1.00697e-05
1.79869e-05
-1.0763e-05
1.64965e-05
-1.14226e-05
1.48997e-05
1.31487e-05
8.23995e-06
1.94271e-05
9.17898e-06
3.70875e-05
8.74071e-06
4.23459e-05
7.79099e-06
4.33378e-05
6.62969e-06
4.2656e-05
5.40274e-06
4.11026e-05
4.2078e-06
3.91928e-05
3.09771e-06
3.72504e-05
2.0879e-06
3.5426e-05
1.17115e-06
3.37531e-05
3.32107e-07
3.22103e-05
-4.45301e-07
3.07618e-05
-1.17455e-06
2.93759e-05
-1.86583e-06
2.80286e-05
-2.52669e-06
2.67024e-05
-3.1627e-06
2.5384e-05
-3.77799e-06
2.40625e-05
-4.37558e-06
2.27279e-05
-4.95763e-06
2.13704e-05
-5.52547e-06
1.99791e-05
-6.08011e-06
1.85416e-05
-6.62276e-06
1.70392e-05
-7.1466e-06
1.54236e-05
1.35798e-05
7.58359e-06
1.69844e-05
9.13929e-06
3.55318e-05
9.27552e-06
4.22097e-05
8.75092e-06
4.38624e-05
7.92782e-06
4.34791e-05
6.96945e-06
4.2061e-05
5.99008e-06
4.01721e-05
5.06053e-06
3.818e-05
4.2126e-06
3.62739e-05
3.44995e-06
3.45157e-05
2.76252e-06
3.28977e-05
2.13637e-06
3.1388e-05
1.55864e-06
2.99537e-05
1.01897e-06
2.85683e-05
5.09489e-07
2.72119e-05
2.4462e-08
2.58691e-05
-4.401e-07
2.4527e-05
-8.86712e-07
2.31745e-05
-1.31659e-06
2.18002e-05
-1.72946e-06
2.03919e-05
-2.12291e-06
1.8935e-05
-2.49278e-06
1.74091e-05
-2.84292e-06
1.57737e-05
1.39102e-05
7.09207e-06
1.48639e-05
9.07793e-06
3.3546e-05
9.73078e-06
4.15568e-05
9.62508e-06
4.39681e-05
9.15146e-06
4.39527e-05
8.47909e-06
4.27333e-05
7.73196e-06
4.09193e-05
6.99576e-06
3.89162e-05
6.31744e-06
3.69523e-05
5.71223e-06
3.51209e-05
5.1768e-06
3.34332e-05
4.70031e-06
3.18645e-05
4.27075e-06
3.03832e-05
3.87758e-06
2.89615e-05
3.51233e-06
2.75772e-05
3.1686e-06
2.62128e-05
2.8419e-06
2.48537e-05
2.52967e-06
2.34867e-05
2.23141e-06
2.20985e-05
1.94916e-06
2.06742e-05
1.69057e-06
1.91936e-05
1.47492e-06
1.76247e-05
1.31818e-06
1.59304e-05
1.41592e-05
6.69e-06
1.29467e-05
8.97983e-06
3.12561e-05
1.01058e-05
4.04309e-05
1.04158e-05
4.3658e-05
1.0298e-05
4.40705e-05
9.92651e-06
4.31048e-05
9.4271e-06
4.14187e-05
8.8971e-06
3.94462e-05
8.39666e-06
3.74527e-05
7.9527e-06
3.55649e-05
7.56977e-06
3.38161e-05
7.24112e-06
3.21931e-05
6.95626e-06
3.06681e-05
6.70473e-06
2.9213e-05
6.47754e-06
2.78044e-05
6.26756e-06
2.64228e-05
6.06968e-06
2.50516e-05
5.88113e-06
2.36753e-05
5.70226e-06
2.22774e-05
5.53745e-06
2.0839e-05
5.39481e-06
1.93362e-05
5.27987e-06
1.77396e-05
5.18891e-06
1.60214e-05
1.41597e-05
6.29418e-06
1.11036e-05
8.82072e-06
2.87296e-05
1.03866e-05
3.8865e-05
1.11143e-05
4.29303e-05
1.13594e-05
4.38254e-05
1.13029e-05
4.31613e-05
1.1066e-05
4.16555e-05
1.07563e-05
3.97559e-05
1.04439e-05
3.77651e-05
1.01667e-05
3.58421e-05
9.9382e-06
3.40446e-05
9.75713e-06
3.23742e-05
9.61565e-06
3.08096e-05
9.50443e-06
2.93242e-05
9.41506e-06
2.78937e-05
9.34108e-06
2.64968e-05
9.27847e-06
2.51142e-05
9.226e-06
2.37277e-05
9.18553e-06
2.23178e-05
9.16177e-06
2.08628e-05
9.1606e-06
1.93374e-05
9.18647e-06
1.77138e-05
9.24477e-06
1.59631e-05
1.40535e-05
5.84242e-06
9.26147e-06
8.57181e-06
2.60002e-05
1.05543e-05
3.68826e-05
1.17049e-05
4.17797e-05
1.23237e-05
4.32067e-05
1.25994e-05
4.28856e-05
1.26372e-05
4.16177e-05
1.25633e-05
3.98298e-05
1.24514e-05
3.7877e-05
1.23491e-05
3.59444e-05
1.22793e-05
3.41143e-05
1.22477e-05
3.24058e-05
1.22506e-05
3.08067e-05
1.22808e-05
2.9294e-05
1.23317e-05
2.78429e-05
1.23982e-05
2.64303e-05
1.24778e-05
2.50347e-05
1.25704e-05
2.36352e-05
1.26778e-05
2.22104e-05
1.28028e-05
2.07377e-05
1.29477e-05
1.91926e-05
1.31133e-05
1.75481e-05
1.33023e-05
1.57741e-05
1.38337e-05
5.29808e-06
7.38697e-06
8.20546e-06
2.30928e-05
1.05855e-05
3.45025e-05
1.21659e-05
4.01993e-05
1.31669e-05
4.22056e-05
1.37947e-05
4.22578e-05
1.4141e-05
4.12714e-05
1.43099e-05
3.96608e-05
1.44111e-05
3.77758e-05
1.44938e-05
3.58618e-05
1.45895e-05
3.40186e-05
1.47116e-05
3.22837e-05
1.48616e-05
3.06567e-05
1.50358e-05
2.91197e-05
1.52298e-05
2.76489e-05
1.54401e-05
2.62199e-05
1.56653e-05
2.48095e-05
1.59054e-05
2.33951e-05
1.61608e-05
2.1955e-05
1.64316e-05
2.04669e-05
1.6717e-05
1.89072e-05
1.70157e-05
1.72494e-05
1.73289e-05
1.54609e-05
1.34992e-05
4.63625e-06
5.47671e-06
7.68884e-06
2.00402e-05
1.04501e-05
3.17413e-05
1.24702e-05
3.81792e-05
1.38678e-05
4.0808e-05
1.48537e-05
4.12719e-05
1.55548e-05
4.05703e-05
1.59893e-05
3.92264e-05
1.63146e-05
3.74505e-05
1.6593e-05
3.55834e-05
1.68631e-05
3.37484e-05
1.71452e-05
3.20016e-05
1.74468e-05
3.03552e-05
1.77683e-05
2.87982e-05
1.8108e-05
2.73092e-05
1.84639e-05
2.5864e-05
1.88351e-05
2.44383e-05
1.9221e-05
2.30093e-05
1.96204e-05
2.15556e-05
2.00311e-05
2.00561e-05
2.04502e-05
1.84881e-05
2.08753e-05
1.68243e-05
2.13072e-05
1.5029e-05
1.30535e-05
3.84098e-06
3.55252e-06
6.99862e-06
1.68826e-05
1.01198e-05
2.86201e-05
1.25906e-05
3.57084e-05
1.44171e-05
3.89814e-05
1.57662e-05
3.99229e-05
1.68117e-05
3.95248e-05
1.75793e-05
3.84588e-05
1.81441e-05
3.68857e-05
1.86338e-05
3.50937e-05
1.90905e-05
3.32918e-05
1.95414e-05
3.15506e-05
2.00008e-05
2.98959e-05
2.04738e-05
2.83252e-05
2.09615e-05
2.68215e-05
2.14636e-05
2.53619e-05
2.19793e-05
2.39226e-05
2.25074e-05
2.24812e-05
2.30454e-05
2.10175e-05
2.35896e-05
1.95119e-05
2.41358e-05
1.7942e-05
2.46809e-05
1.62792e-05
2.52251e-05
1.44847e-05
1.25025e-05
2.92118e-06
1.64742e-06
6.12586e-06
1.36779e-05
9.57014e-06
2.51758e-05
1.24913e-05
3.27873e-05
1.47682e-05
3.67045e-05
1.65219e-05
3.81692e-05
1.79002e-05
3.81465e-05
1.90285e-05
3.73306e-05
1.98773e-05
3.60369e-05
2.0598e-05
3.4373e-05
2.12566e-05
3.26331e-05
2.18885e-05
3.09187e-05
2.25141e-05
2.92702e-05
2.31441e-05
2.76952e-05
2.37827e-05
2.61829e-05
2.44312e-05
2.47134e-05
2.50894e-05
2.32643e-05
2.57557e-05
2.18149e-05
2.6427e-05
2.03463e-05
2.70987e-05
1.88403e-05
2.77656e-05
1.7275e-05
2.8424e-05
1.56208e-05
2.90738e-05
1.38349e-05
1.18537e-05
1.89413e-06
-2.07703e-07
5.0711e-06
1.0501e-05
8.77881e-06
2.14681e-05
1.21383e-05
2.94278e-05
1.48846e-05
3.39582e-05
1.70748e-05
3.5979e-05
1.88193e-05
3.6402e-05
2.02849e-05
3.5865e-05
2.14777e-05
3.48441e-05
2.24559e-05
3.33949e-05
2.33389e-05
3.17501e-05
2.41683e-05
3.00894e-05
2.49721e-05
2.84664e-05
2.5767e-05
2.69004e-05
2.65611e-05
2.53888e-05
2.73577e-05
2.39167e-05
2.81574e-05
2.24646e-05
2.89588e-05
2.10135e-05
2.97588e-05
1.95463e-05
3.05527e-05
1.80464e-05
3.13347e-05
1.6493e-05
3.21002e-05
1.48553e-05
3.28482e-05
1.30869e-05
1.11154e-05
7.89821e-07
-1.94923e-06
3.8696e-06
7.42118e-06
7.73987e-06
1.75978e-05
1.15008e-05
2.56669e-05
1.47212e-05
3.07377e-05
1.73696e-05
3.33306e-05
1.95393e-05
3.42322e-05
2.13371e-05
3.40672e-05
2.28802e-05
3.3301e-05
2.41692e-05
3.21058e-05
2.5307e-05
3.06123e-05
2.63556e-05
2.90408e-05
2.73537e-05
2.74683e-05
2.83249e-05
2.59292e-05
2.92822e-05
2.44316e-05
3.02314e-05
2.29675e-05
3.11743e-05
2.15217e-05
3.21102e-05
2.00776e-05
3.30365e-05
1.862e-05
3.3949e-05
1.71339e-05
3.48417e-05
1.56004e-05
3.57087e-05
1.39883e-05
3.6548e-05
1.22476e-05
1.02965e-05
-3.52269e-07
-3.55816e-06
2.57923e-06
4.48968e-06
6.48024e-06
1.36968e-05
1.05534e-05
2.15938e-05
1.4231e-05
2.70601e-05
1.73553e-05
3.02064e-05
1.99703e-05
3.16173e-05
2.21652e-05
3.18723e-05
2.40584e-05
3.14078e-05
2.56874e-05
3.04768e-05
2.71155e-05
2.91842e-05
2.84126e-05
2.77436e-05
2.96274e-05
2.62535e-05
3.07917e-05
2.47648e-05
3.19246e-05
2.32987e-05
3.30354e-05
2.18566e-05
3.41278e-05
2.04293e-05
3.52019e-05
1.90035e-05
3.6256e-05
1.75659e-05
3.72866e-05
1.61032e-05
3.82882e-05
1.45988e-05
3.92534e-05
1.30231e-05
4.01782e-05
1.13229e-05
9.40546e-06
-1.48674e-06
-5.01429e-06
1.26409e-06
1.73886e-06
5.07071e-06
9.89016e-06
9.30629e-06
1.73582e-05
1.33689e-05
2.29975e-05
1.69657e-05
2.66096e-05
2.00512e-05
2.85317e-05
2.26847e-05
2.92388e-05
2.49593e-05
2.91332e-05
2.69554e-05
2.84806e-05
2.87072e-05
2.74324e-05
3.02858e-05
2.6165e-05
3.17462e-05
2.47931e-05
3.31276e-05
2.33835e-05
3.44553e-05
2.1971e-05
3.57433e-05
2.05686e-05
3.69979e-05
1.91748e-05
3.82203e-05
1.77811e-05
3.94097e-05
1.63765e-05
4.05633e-05
1.49496e-05
4.16764e-05
1.34857e-05
4.27407e-05
1.19588e-05
4.37487e-05
1.03149e-05
8.44861e-06
-2.56551e-06
-6.31185e-06
-1.54362e-09
-8.25111e-07
3.60689e-06
6.28172e-06
7.83316e-06
1.31319e-05
1.21366e-05
1.8694e-05
1.61419e-05
2.26044e-05
1.9697e-05
2.49765e-05
2.27981e-05
2.61377e-05
2.55058e-05
2.64255e-05
2.78925e-05
2.60939e-05
3.00046e-05
2.53203e-05
3.19033e-05
2.42663e-05
3.36454e-05
2.30511e-05
3.52753e-05
2.17536e-05
3.68246e-05
2.04217e-05
3.8313e-05
1.90802e-05
3.97504e-05
1.77374e-05
4.11398e-05
1.63916e-05
4.2481e-05
1.50354e-05
4.37714e-05
1.36592e-05
4.50067e-05
1.22504e-05
4.61783e-05
1.07872e-05
4.72743e-05
9.21883e-06
7.42745e-06
-3.54641e-06
-7.45334e-06
-1.19123e-06
-3.18029e-06
2.17835e-06
2.91214e-06
6.24813e-06
9.06216e-06
1.06079e-05
1.43342e-05
1.4883e-05
1.83293e-05
1.88435e-05
2.1016e-05
2.24047e-05
2.25765e-05
2.5573e-05
2.32572e-05
2.83911e-05
2.32759e-05
3.0904e-05
2.28074e-05
3.31664e-05
2.20038e-05
3.52331e-05
2.09844e-05
3.71513e-05
1.98354e-05
3.8958e-05
1.86151e-05
4.06786e-05
1.73596e-05
4.23282e-05
1.60878e-05
4.39131e-05
1.48066e-05
4.54339e-05
1.35146e-05
4.68878e-05
1.22053e-05
4.82697e-05
1.08686e-05
4.95699e-05
9.48693e-06
5.07718e-05
8.01695e-06
6.33195e-06
-4.38083e-06
-8.45428e-06
-2.21806e-06
-5.34306e-06
8.66234e-07
-1.72157e-07
4.67138e-06
5.25702e-06
8.91021e-06
1.00954e-05
1.32679e-05
1.39716e-05
1.7493e-05
1.67909e-05
2.1438e-05
1.86315e-05
2.50457e-05
1.96495e-05
2.83129e-05
2.00086e-05
3.12623e-05
1.9858e-05
3.3934e-05
1.93322e-05
3.63747e-05
1.85436e-05
3.86304e-05
1.75797e-05
4.07405e-05
1.6505e-05
4.27357e-05
1.53643e-05
4.46371e-05
1.41865e-05
4.64559e-05
1.29878e-05
4.81956e-05
1.17749e-05
4.98539e-05
1.0547e-05
5.14238e-05
9.29857e-06
5.28936e-05
8.01715e-06
5.42395e-05
6.67111e-06
5.13218e-06
-5.01769e-06
-9.33334e-06
-3.04091e-06
-7.31984e-06
-2.69324e-07
-2.94374e-06
3.20308e-06
1.78462e-06
7.18202e-06
6.11642e-06
1.1435e-05
9.71865e-06
1.57363e-05
1.24896e-05
1.99146e-05
1.44531e-05
2.38661e-05
1.56981e-05
2.75402e-05
1.63345e-05
3.09235e-05
1.64747e-05
3.40291e-05
1.62267e-05
3.6886e-05
1.56867e-05
3.95302e-05
1.49355e-05
4.19977e-05
1.40374e-05
4.43207e-05
1.30414e-05
4.65242e-05
1.19829e-05
4.86256e-05
1.08864e-05
5.06335e-05
9.76691e-06
5.25491e-05
8.63141e-06
5.4366e-05
7.48173e-06
5.60705e-05
6.31265e-06
5.76313e-05
5.11025e-06
3.76297e-06
-5.39239e-06
-1.01392e-05
-3.60487e-06
-9.10736e-06
-1.1712e-06
-5.37741e-06
1.91262e-06
-1.29921e-06
5.53603e-06
2.49301e-06
9.53324e-06
5.72144e-06
1.37232e-05
8.29966e-06
1.79447e-05
1.02316e-05
2.20763e-05
1.15666e-05
2.60365e-05
1.23743e-05
2.97789e-05
1.27324e-05
3.32855e-05
1.272e-05
3.65598e-05
1.24124e-05
3.96189e-05
1.18764e-05
4.24869e-05
1.11695e-05
4.51896e-05
1.03387e-05
4.77511e-05
9.42137e-06
5.01912e-05
8.44635e-06
5.2523e-05
7.43515e-06
5.47526e-05
6.40177e-06
5.68803e-05
5.35405e-06
5.89003e-05
4.29271e-06
6.0782e-05
3.22855e-06
2.10752e-06
-5.39952e-06
-1.10079e-05
-3.85572e-06
-1.06512e-05
-1.81138e-06
-7.42174e-06
8.36136e-07
-3.94672e-06
4.03869e-06
-7.09548e-07
7.67582e-06
2.08432e-06
1.16037e-05
4.37179e-06
1.56861e-05
6.14916e-06
1.98067e-05
7.44598e-06
2.38747e-05
8.30629e-06
2.78254e-05
8.78167e-06
3.16184e-05
8.92702e-06
3.5234e-05
8.79678e-06
3.86681e-05
8.44228e-06
4.19276e-05
7.90998e-06
4.5026e-05
7.24034e-06
4.79796e-05
6.46773e-06
5.08052e-05
5.62081e-06
5.3517e-05
4.72333e-06
5.61248e-05
3.79397e-06
5.86305e-05
2.84829e-06
6.10316e-05
1.89162e-06
6.33285e-05
9.31688e-07
1.48585e-08
-4.92826e-06
-1.20802e-05
-3.75392e-06
-1.18255e-05
-2.18101e-06
-8.99465e-06
-2.21761e-08
-6.10556e-06
2.71079e-06
-3.44251e-06
5.91771e-06
-1.12261e-06
9.47886e-06
8.10643e-07
1.32782e-05
2.34981e-06
1.72132e-05
3.51102e-06
2.11974e-05
4.32206e-06
2.51629e-05
4.81613e-06
2.90601e-05
5.02991e-06
3.28559e-05
5.00095e-06
3.65318e-05
4.76631e-06
4.00804e-05
4.36142e-06
4.35023e-05
3.81844e-06
4.6804e-05
3.166e-06
4.99952e-05
2.4296e-06
5.30868e-05
1.6318e-06
5.6089e-05
7.9176e-07
5.90094e-05
-7.21324e-08
6.1845e-05
-9.43957e-07
6.46066e-05
-1.8299e-06
-2.62406e-06
-3.71469e-06
-1.38024e-05
-3.32804e-06
-1.22122e-05
-2.33348e-06
-9.98921e-06
-6.93928e-07
-7.74511e-06
1.53846e-06
-5.6749e-06
4.26932e-06
-3.85347e-06
7.39301e-06
-2.31304e-06
1.08055e-05
-1.06266e-06
1.44157e-05
-9.92058e-08
1.81458e-05
5.91925e-07
2.19314e-05
1.03057e-06
2.57223e-05
1.23898e-06
2.94819e-05
1.24141e-06
3.31853e-05
1.0629e-06
3.6818e-05
7.28722e-07
4.03732e-05
2.63255e-07
4.38502e-05
-3.11064e-07
4.72531e-05
-9.73261e-07
5.05885e-05
-1.70365e-06
5.38636e-05
-2.48327e-06
5.7088e-05
-3.29656e-06
6.02639e-05
-4.11983e-06
6.33999e-05
-4.96597e-06
-5.75724e-06
-3.06211e-07
3.06211e-07
-8.25109e-07
5.18898e-07
-1.33087e-06
5.05758e-07
-1.61453e-06
2.83659e-07
-1.26627e-06
-3.48259e-07
-1.01604e-06
-2.50224e-07
-4.20546e-07
7.26757e-07
-9.19226e-07
1.01758e-06
-1.30635e-06
8.9288e-07
-1.47204e-06
4.49347e-07
-1.23979e-06
-5.80503e-07
-1.83068e-06
-4.25157e-07
-4.32609e-07
1.15937e-06
-8.86457e-07
1.47143e-06
-1.22849e-06
1.23491e-06
-1.36455e-06
5.85406e-07
-1.23787e-06
-7.07184e-07
-2.33722e-06
-7.3133e-07
-4.29992e-07
1.58936e-06
-8.40335e-07
1.88177e-06
-1.15553e-06
1.55011e-06
-1.30098e-06
7.3086e-07
-1.28369e-06
-7.2448e-07
-2.53747e-06
-1.08343e-06
-4.21894e-07
2.01125e-06
-7.91143e-07
2.25102e-06
-1.09145e-06
1.85041e-06
-1.26939e-06
9.08793e-07
-1.36261e-06
-6.31258e-07
-2.49597e-06
-1.40411e-06
-4.11372e-07
2.42262e-06
-7.39613e-07
2.57926e-06
-1.0324e-06
2.1432e-06
-1.25262e-06
1.12901e-06
-1.44802e-06
-4.35851e-07
-2.28085e-06
-1.66314e-06
-3.94338e-07
2.81696e-06
-6.84316e-07
2.86924e-06
-9.72209e-07
2.43109e-06
-1.23584e-06
1.39264e-06
-1.51898e-06
-1.52715e-07
-1.9464e-06
-1.85344e-06
-3.56643e-07
3.1736e-06
-6.19518e-07
3.13211e-06
-9.04042e-07
2.71562e-06
-1.20687e-06
1.69547e-06
-1.56043e-06
2.00842e-07
-1.53282e-06
-1.97401e-06
-3.04406e-07
3.47801e-06
-5.42694e-07
3.3704e-06
-8.22613e-07
2.99554e-06
-1.15596e-06
2.02882e-06
-1.56125e-06
6.06137e-07
-1.07031e-06
-2.02376e-06
-2.44345e-07
3.72235e-06
-4.53139e-07
3.5792e-06
-7.2347e-07
3.26587e-06
-1.07555e-06
2.38089e-06
-1.51361e-06
1.0442e-06
-5.83467e-07
-2.00045e-06
-1.78122e-07
3.90048e-06
-3.50333e-07
3.75141e-06
-6.03092e-07
3.51863e-06
-9.60027e-07
2.73783e-06
-1.4122e-06
1.49637e-06
-9.34075e-08
-1.90226e-06
-1.06074e-07
4.00655e-06
-2.33825e-07
3.87916e-06
-4.58932e-07
3.74374e-06
-8.0547e-07
3.08437e-06
-1.25348e-06
1.94438e-06
3.81019e-07
-1.7279e-06
-2.80785e-08
4.03463e-06
-1.03742e-07
3.95482e-06
-2.89523e-07
3.92952e-06
-6.09504e-07
3.40435e-06
-1.03547e-06
2.37034e-06
8.22603e-07
-1.47705e-06
5.43915e-08
3.98024e-06
3.892e-08
3.97029e-06
-9.46125e-08
4.06305e-06
-3.7132e-07
3.68106e-06
-7.57715e-07
2.75673e-06
1.21551e-06
-1.15063e-06
1.42846e-07
3.83739e-06
1.93589e-07
3.91955e-06
1.24644e-07
4.13199e-06
-9.18626e-08
3.89756e-06
-4.21601e-07
3.08647e-06
1.54561e-06
-7.51693e-07
2.46697e-07
3.59069e-06
3.56675e-07
3.80957e-06
3.65249e-07
4.12342e-06
2.262e-07
4.03661e-06
-3.06548e-08
3.34333e-06
1.80475e-06
-2.89803e-07
3.52948e-07
3.23775e-06
5.21953e-07
3.64057e-06
6.22122e-07
4.02325e-06
5.77852e-07
4.08088e-06
4.09731e-07
3.51145e-06
1.99088e-06
2.23609e-07
4.25075e-07
2.81267e-06
6.80307e-07
3.38534e-06
8.88407e-07
3.81515e-06
9.56334e-07
4.01295e-06
8.91362e-07
3.57642e-06
2.08648e-06
7.95759e-07
4.73338e-07
2.33933e-06
8.2591e-07
3.03276e-06
1.15658e-06
3.48448e-06
1.35446e-06
3.81507e-06
1.40061e-06
3.53026e-06
2.11211e-06
1.37499e-06
5.04068e-07
1.83526e-06
9.5412e-07
2.58271e-06
1.41759e-06
3.02101e-06
1.76558e-06
3.46708e-06
1.93337e-06
3.36247e-06
2.12173e-06
1.92375e-06
5.17387e-07
1.31788e-06
1.05988e-06
2.04022e-06
1.66017e-06
2.42072e-06
2.1847e-06
2.94255e-06
2.51238e-06
3.0348e-06
2.11397e-06
2.52013e-06
5.12346e-07
8.05532e-07
1.13735e-06
1.41521e-06
1.8684e-06
1.68967e-06
2.60217e-06
2.20878e-06
3.18813e-06
2.44884e-06
1.86477e-06
3.43733e-06
4.79344e-07
3.26188e-07
1.1751e-06
7.19451e-07
2.00817e-06
8.56614e-07
2.9838e-06
1.23314e-06
3.97696e-06
1.45567e-06
1.17514e-06
4.66659e-06
3.26188e-07
1.04564e-06
1.90225e-06
3.1354e-06
4.59107e-06
5.76621e-06
-2.40411e-06
-1.16485e-05
-2.83728e-06
-1.1779e-05
-2.39309e-06
-1.04334e-05
-1.2507e-06
-8.8875e-06
4.89421e-07
-7.41502e-06
2.72722e-06
-6.09127e-06
5.36764e-06
-4.95346e-06
8.31917e-06
-4.01419e-06
1.14985e-05
-3.27858e-06
1.48349e-05
-2.74443e-06
1.82687e-05
-2.40321e-06
2.1751e-05
-2.24331e-06
2.5244e-05
-2.25157e-06
2.87206e-05
-2.41379e-06
3.21643e-05
-2.71494e-06
3.55657e-05
-3.13816e-06
3.8921e-05
-3.66634e-06
4.22311e-05
-4.28336e-06
4.55013e-05
-4.97379e-06
4.8739e-05
-5.72098e-06
5.19532e-05
-6.5108e-06
5.51528e-05
-7.31939e-06
5.83392e-05
-8.15241e-06
-8.99761e-06
-1.85828e-06
-1.02154e-05
-2.59787e-06
-1.10394e-05
-2.50503e-06
-1.05262e-05
-1.75429e-06
-9.63824e-06
-4.53319e-07
-8.71599e-06
1.31151e-06
-7.8561e-06
3.45682e-06
-7.09878e-06
5.90411e-06
-6.46148e-06
8.58061e-06
-5.95508e-06
1.14208e-05
-5.58462e-06
1.43687e-05
-5.35114e-06
1.73772e-05
-5.25182e-06
2.04076e-05
-5.28198e-06
2.34298e-05
-5.43595e-06
2.64223e-05
-5.70747e-06
2.93736e-05
-6.08943e-06
3.22803e-05
-6.57301e-06
3.51445e-05
-7.14763e-06
3.79734e-05
-7.80265e-06
4.07786e-05
-8.52619e-06
4.35726e-05
-9.30482e-06
4.63716e-05
-1.01183e-05
4.91756e-05
-1.09565e-05
-1.18432e-05
-1.86413e-06
-9.08257e-06
-2.59358e-06
-1.03099e-05
-2.6873e-06
-1.04325e-05
-2.21747e-06
-1.01081e-05
-1.26953e-06
-9.66393e-06
8.16878e-08
-9.20731e-06
1.7674e-06
-8.78448e-06
3.71856e-06
-8.41265e-06
5.87403e-06
-8.11055e-06
8.17585e-06
-7.88644e-06
1.05728e-05
-7.74806e-06
1.30199e-05
-7.69899e-06
1.54798e-05
-7.7418e-06
1.79223e-05
-7.87852e-06
2.03256e-05
-8.11076e-06
2.26757e-05
-8.43954e-06
2.49683e-05
-8.86555e-06
2.72092e-05
-9.38854e-06
2.94136e-05
-1.00071e-05
3.16036e-05
-1.07162e-05
3.38032e-05
-1.15044e-05
3.60357e-05
-1.23507e-05
3.83079e-05
-1.32287e-05
-1.41415e-05
-2.04322e-06
-8.12278e-06
-2.71886e-06
-9.6343e-06
-2.90758e-06
-1.02438e-05
-2.62199e-06
-1.03937e-05
-1.92828e-06
-1.03576e-05
-8.93234e-07
-1.02424e-05
4.1826e-07
-1.0096e-05
1.95003e-06
-9.94442e-06
3.64528e-06
-9.8058e-06
5.45428e-06
-9.69543e-06
7.33243e-06
-9.6262e-06
9.24035e-06
-9.60692e-06
1.11446e-05
-9.64607e-06
1.30185e-05
-9.75236e-06
1.48437e-05
-9.93602e-06
1.66116e-05
-1.02074e-05
1.83227e-05
-1.05766e-05
1.99879e-05
-1.10538e-05
2.16283e-05
-1.16475e-05
2.32735e-05
-1.23614e-05
2.49578e-05
-1.31887e-05
2.67125e-05
-1.41054e-05
2.85522e-05
-1.50684e-05
-1.60304e-05
-2.26206e-06
-7.26483e-06
-2.88884e-06
-9.00753e-06
-3.11927e-06
-1.00134e-05
-2.94048e-06
-1.05725e-05
-2.40691e-06
-1.08912e-05
-1.58069e-06
-1.10686e-05
-5.21364e-07
-1.11553e-05
7.17173e-07
-1.1183e-05
2.08586e-06
-1.11745e-05
3.5389e-06
-1.11485e-05
5.0344e-06
-1.11217e-05
6.54023e-06
-1.11127e-05
8.03292e-06
-1.11388e-05
9.49541e-06
-1.12149e-05
1.09176e-05
-1.13582e-05
1.22971e-05
-1.15869e-05
1.36397e-05
-1.19192e-05
1.49587e-05
-1.23727e-05
1.62733e-05
-1.29621e-05
1.76072e-05
-1.36954e-05
1.89866e-05
-1.4568e-05
2.04369e-05
-1.55557e-05
2.19716e-05
-1.66032e-05
-1.75979e-05
-2.46497e-06
-6.46299e-06
-3.04788e-06
-8.42463e-06
-3.27698e-06
-9.78426e-06
-3.1379e-06
-1.07115e-05
-2.67711e-06
-1.1352e-05
-1.9538e-06
-1.17919e-05
-1.02434e-06
-1.20848e-05
6.16449e-08
-1.22689e-05
1.26217e-06
-1.2375e-05
2.54267e-06
-1.2429e-05
3.87298e-06
-1.2452e-05
5.22446e-06
-1.24642e-05
6.58054e-06
-1.24948e-05
7.92542e-06
-1.25597e-05
9.25211e-06
-1.26849e-05
1.05585e-05
-1.28933e-05
1.18476e-05
-1.32083e-05
1.31263e-05
-1.36514e-05
1.44044e-05
-1.42402e-05
1.56932e-05
-1.49842e-05
1.70049e-05
-1.58797e-05
1.83495e-05
-1.69004e-05
1.97204e-05
-1.79741e-05
-1.89442e-05
-2.62033e-06
-5.6961e-06
-3.15517e-06
-7.88978e-06
-3.34469e-06
-9.59474e-06
-3.18065e-06
-1.08756e-05
-2.70744e-06
-1.18252e-05
-1.98434e-06
-1.2515e-05
-1.06662e-06
-1.30025e-05
-1.25523e-09
-1.33343e-05
1.17336e-06
-1.35496e-05
2.4264e-06
-1.3682e-05
3.73492e-06
-1.37605e-05
5.08321e-06
-1.38125e-05
6.45354e-06
-1.38652e-05
7.83709e-06
-1.39433e-05
9.22852e-06
-1.40764e-05
1.06215e-05
-1.42863e-05
1.20128e-05
-1.45996e-05
1.34008e-05
-1.50394e-05
1.47857e-05
-1.5625e-05
1.61689e-05
-1.63674e-05
1.75529e-05
-1.72637e-05
1.89404e-05
-1.82879e-05
2.0334e-05
-1.93676e-05
-2.03529e-05
-2.70971e-06
-4.9604e-06
-3.18319e-06
-7.4163e-06
-3.29159e-06
-9.48635e-06
-3.03549e-06
-1.11317e-05
-2.46555e-06
-1.23952e-05
-1.64449e-06
-1.3336e-05
-6.28459e-07
-1.40185e-05
5.37304e-07
-1.45001e-05
1.81822e-06
-1.48305e-05
3.18863e-06
-1.50524e-05
4.63082e-06
-1.52027e-05
6.13282e-06
-1.53145e-05
7.686e-06
-1.54183e-05
9.28585e-06
-1.55431e-05
1.09266e-05
-1.57171e-05
1.26064e-05
-1.59662e-05
1.43205e-05
-1.63137e-05
1.60638e-05
-1.67827e-05
1.78305e-05
-1.73917e-05
1.96166e-05
-1.81535e-05
2.14175e-05
-1.90646e-05
2.32362e-05
-2.01066e-05
2.50829e-05
-2.12143e-05
-2.2258e-05
-2.72101e-06
-4.26314e-06
-3.10978e-06
-7.02753e-06
-3.08772e-06
-9.50841e-06
-2.66774e-06
-1.15517e-05
-1.91434e-06
-1.31486e-05
-8.98823e-07
-1.43516e-05
3.19239e-07
-1.52366e-05
1.69523e-06
-1.58761e-05
3.19836e-06
-1.63337e-05
4.80847e-06
-1.66625e-05
6.51368e-06
-1.69079e-05
8.30796e-06
-1.71088e-05
1.01891e-05
-1.72995e-05
1.21569e-05
-1.75109e-05
1.42112e-05
-1.77714e-05
1.63514e-05
-1.81063e-05
1.85757e-05
-1.8538e-05
2.08795e-05
-1.90864e-05
2.3255e-05
-1.97672e-05
2.56921e-05
-2.05906e-05
2.81848e-05
-2.15573e-05
3.07324e-05
-2.26542e-05
3.3346e-05
-2.38279e-05
-2.49724e-05
-2.64681e-06
-3.61678e-06
-2.91825e-06
-6.75609e-06
-2.7065e-06
-9.72016e-06
-2.04328e-06
-1.22149e-05
-1.01602e-06
-1.41758e-05
2.89086e-07
-1.56567e-05
1.80509e-06
-1.67526e-05
3.4878e-06
-1.75588e-05
5.30956e-06
-1.81554e-05
7.25575e-06
-1.86087e-05
9.32024e-06
-1.89724e-05
1.15026e-05
-1.92912e-05
1.38057e-05
-1.96025e-05
1.62336e-05
-1.99388e-05
1.879e-05
-2.03279e-05
2.14772e-05
-2.07935e-05
2.42949e-05
-2.13557e-05
2.72387e-05
-2.20302e-05
3.02999e-05
-2.28284e-05
3.3466e-05
-2.37568e-05
3.67232e-05
-2.48145e-05
4.00633e-05
-2.59943e-05
4.34815e-05
-2.72461e-05
-2.85001e-05
-2.48085e-06
-3.03819e-06
-2.59427e-06
-6.64266e-06
-2.12295e-06
-1.01915e-05
-1.1293e-06
-1.32085e-05
2.66385e-07
-1.55715e-05
1.95338e-06
-1.73437e-05
3.85885e-06
-1.86581e-05
5.93584e-06
-1.96358e-05
8.15816e-06
-2.03778e-05
1.05146e-05
-2.09651e-05
1.30028e-05
-2.14607e-05
1.56261e-05
-2.19145e-05
1.83908e-05
-2.23672e-05
2.13038e-05
-2.28518e-05
2.43713e-05
-2.33953e-05
2.75964e-05
-2.40187e-05
3.09783e-05
-2.47376e-05
3.45109e-05
-2.55628e-05
3.81815e-05
-2.6499e-05
4.19744e-05
-2.75497e-05
4.58704e-05
-2.87104e-05
4.98498e-05
-2.99738e-05
5.38783e-05
-3.12746e-05
-3.2647e-05
-2.21824e-06
-2.54785e-06
-2.12411e-06
-6.7368e-06
-1.31129e-06
-1.10043e-05
1.13926e-07
-1.46337e-05
1.97006e-06
-1.74276e-05
4.13068e-06
-1.95043e-05
6.50049e-06
-2.10279e-05
9.02436e-06
-2.21596e-05
1.16782e-05
-2.30316e-05
1.44566e-05
-2.37435e-05
1.73637e-05
-2.43678e-05
2.04073e-05
-2.49581e-05
2.35964e-05
-2.55563e-05
2.69399e-05
-2.61954e-05
3.04445e-05
-2.68999e-05
3.41119e-05
-2.76861e-05
3.79421e-05
-2.85678e-05
4.19281e-05
-2.95487e-05
4.60479e-05
-3.06188e-05
5.0284e-05
-3.17858e-05
5.46165e-05
-3.30428e-05
5.90137e-05
-3.4371e-05
6.34458e-05
-3.57067e-05
-3.71338e-05
-1.85499e-06
-2.16991e-06
-1.49154e-06
-7.10025e-06
-2.36683e-07
-1.22592e-05
1.71224e-06
-1.65827e-05
4.1206e-06
-1.9836e-05
6.79675e-06
-2.21804e-05
9.63208e-06
-2.38632e-05
1.25806e-05
-2.51081e-05
1.56327e-05
-2.60838e-05
1.87923e-05
-2.69031e-05
2.20678e-05
-2.76433e-05
2.54685e-05
-2.83588e-05
2.90043e-05
-2.9092e-05
3.26847e-05
-2.98758e-05
3.65155e-05
-3.07308e-05
4.04909e-05
-3.16614e-05
4.46102e-05
-3.2687e-05
4.88634e-05
-3.3802e-05
5.3243e-05
-3.49984e-05
5.7703e-05
-3.62459e-05
6.21584e-05
-3.74983e-05
6.64909e-05
-3.87035e-05
7.06926e-05
-3.99083e-05
-4.11394e-05
-1.38621e-06
-1.93432e-06
-6.7154e-07
-7.81493e-06
1.13168e-06
-1.40624e-05
3.69623e-06
-1.91472e-05
6.67167e-06
-2.28114e-05
9.83478e-06
-2.53435e-05
1.30902e-05
-2.71186e-05
1.64108e-05
-2.84288e-05
1.97953e-05
-2.94682e-05
2.32531e-05
-3.03609e-05
2.67947e-05
-3.11849e-05
3.043e-05
-3.19942e-05
3.41679e-05
-3.28299e-05
3.80177e-05
-3.37256e-05
4.19866e-05
-3.46997e-05
4.60745e-05
-3.57493e-05
5.02221e-05
-3.68346e-05
5.43333e-05
-3.79132e-05
5.83124e-05
-3.89775e-05
6.20821e-05
-4.00156e-05
6.56285e-05
-4.10446e-05
6.8963e-05
-4.2038e-05
7.21487e-05
-4.30941e-05
-4.41108e-05
-8.03523e-07
-1.88249e-06
3.79292e-07
-8.99774e-06
2.83797e-06
-1.65211e-05
6.04429e-06
-2.23535e-05
9.54111e-06
-2.63082e-05
1.31063e-05
-2.89088e-05
1.66682e-05
-3.06805e-05
2.02187e-05
-3.19793e-05
2.37703e-05