/*--------------------------------*- C++ -*----------------------------------*\
  =========                 |
  \\      /  F ield         | OpenFOAM: The Open Source CFD Toolbox
   \\    /   O peration     | Website:  https://openfoam.org
    \\  /    A nd           | Version:  11
     \\/     M anipulation  |
\*---------------------------------------------------------------------------*/
FoamFile
{
    format      ascii;
    class       surfaceVectorField;
    location    "1.2";
    object      Uf;
}
// * * * * * * * * * * * * * * * * * * * * * * * * * * * * * * * * * * * * * //

dimensions      [0 1 -1 0 0 0 0];

internalField   nonuniform List<vector> 
5640
(
(-0.0466438 -0.22283 -4.12726e-19)
(-0.0517448 -0.182227 -5.11805e-20)
(-0.0859722 -0.393111 3.29809e-20)
(-0.0894736 -0.329736 -1.79906e-20)
(-0.09982 -0.497922 2.03821e-20)
(-0.113057 -0.486634 2.80379e-20)
(-0.084212 -0.5483 -1.92187e-19)
(-0.101535 -0.545958 -7.57372e-22)
(-0.0383574 -0.521487 -1.76281e-19)
(-0.0624983 -0.586266 -1.72154e-19)
(0.0243948 -0.379303 -1.46437e-19)
(0.342763 -0.566688 -1.32538e-20)
(-0.0967466 -0.278265 3.47474e-19)
(-0.102987 -0.211465 1.68389e-19)
(-0.126023 -0.438215 -3.68033e-20)
(-0.135195 -0.360502 -1.20044e-19)
(-0.121297 -0.531671 5.91502e-21)
(-0.141931 -0.496332 -2.77782e-20)
(-0.0799085 -0.566856 2.40807e-20)
(-0.110239 -0.541479 4.70091e-20)
(-0.0162803 -0.541456 -1.42927e-19)
(-0.0409993 -0.572373 -2.01841e-20)
(0.0521773 -0.421403 -3.12029e-20)
(0.337661 -0.529302 -1.70772e-19)
(-0.137351 -0.284 -2.82355e-19)
(-0.147881 -0.212389 -6.02954e-21)
(-0.153381 -0.428447 -1.16369e-19)
(-0.167757 -0.354149 1.951e-20)
(-0.132711 -0.50843 9.58994e-21)
(-0.159582 -0.470377 -1.27671e-20)
(-0.0702779 -0.53576 1.36192e-21)
(-0.110874 -0.504172 2.35851e-20)
(0.0169749 -0.5142 8.83663e-20)
(-0.0185252 -0.534267 -3.03137e-20)
(0.094004 -0.418065 1.20713e-19)
(0.331614 -0.470165 1.76785e-19)
(-0.175435 -0.274289 2.9273e-19)
(-0.189423 -0.204313 1.6654e-19)
(-0.175487 -0.402522 1.27394e-19)
(-0.195054 -0.334645 1.23114e-19)
(-0.140525 -0.469625 0)
(-0.174168 -0.432117 0)
(-0.0615809 -0.492939 -9.8456e-21)
(-0.112909 -0.458939 0)
(0.0495463 -0.477261 -5.63835e-21)
(-0.00202043 -0.48563 -2.28841e-20)
(0.131877 -0.402332 2.01602e-21)
(0.335114 -0.422814 1.04967e-20)
(-0.208901 -0.257699 -5.88265e-22)
(-0.227345 -0.193319 -1.35802e-21)
(-0.195342 -0.368918 9.58537e-22)
(-0.219417 -0.308634 4.75747e-21)
(-0.149246 -0.424705 0)
(-0.188583 -0.388676 -2.96631e-21)
(-0.0572326 -0.444022 -1.23969e-20)
(-0.11822 -0.410768 9.00168e-20)
(0.0732026 -0.434303 -2.0439e-20)
(0.00553691 -0.43072 -2.8065e-21)
(0.157088 -0.377477 1.9109e-21)
(0.337701 -0.386572 -5.90423e-21)
(-0.238795 -0.238719 3.61663e-21)
(-0.261026 -0.182305 0)
(-0.214252 -0.331977 1.55144e-21)
(-0.241802 -0.279758 1.1349e-20)
(-0.16023 -0.377161 8.39091e-20)
(-0.203976 -0.343421 3.6981e-21)
(-0.0594484 -0.392526 1.02252e-19)
(-0.127685 -0.360814 -9.72088e-20)
(0.0838398 -0.387066 1.91318e-20)
(0.00327097 -0.374094 9.99179e-21)
(0.167441 -0.341907 -6.64426e-20)
(0.33342 -0.349774 1.06345e-20)
(-0.265389 -0.219308 7.07758e-21)
(-0.289834 -0.172076 -3.46687e-19)
(-0.232947 -0.294036 1.48324e-20)
(-0.262576 -0.249933 6.06401e-22)
(-0.174049 -0.328704 -1.7375e-19)
(-0.220654 -0.298023 -1.73123e-19)
(-0.0690559 -0.339527 -1.9259e-19)
(-0.141526 -0.309778 -1.33342e-19)
(0.0822493 -0.33645 -7.37503e-20)
(-0.00853761 -0.317192 1.98545e-20)
(0.163705 -0.296959 -1.43377e-21)
(0.320465 -0.306416 -6.81875e-20)
(-0.288524 -0.200171 -3.72834e-19)
(-0.313296 -0.162589 1.44576e-20)
(-0.251563 -0.256266 -1.79335e-19)
(-0.281833 -0.220184 2.09204e-19)
(-0.190715 -0.280253 -1.33363e-19)
(-0.238521 -0.253308 -2.05564e-19)
(-0.0851292 -0.285916 7.51756e-20)
(-0.159608 -0.258421 2.26311e-19)
(0.0689571 -0.2824 9.29491e-20)
(-0.0287531 -0.260211 3.95754e-20)
(0.146527 -0.245487 1.11949e-19)
(0.29734 -0.257389 -8.66265e-20)
(-0.307983 -0.181563 5.86075e-19)
(-0.331168 -0.153345 -3.50148e-19)
(-0.269988 -0.219283 2.0069e-19)
(-0.299456 -0.191245 -9.41504e-22)
(-0.209921 -0.232386 1.39482e-19)
(-0.257277 -0.209719 1.59736e-19)
(-0.107083 -0.23216 1.96306e-19)
(-0.181448 -0.207335 -2.96538e-19)
(0.0450403 -0.226215 5.68405e-20)
(-0.0562413 -0.203474 -5.96348e-20)
(0.116922 -0.190257 7.43777e-20)
(0.263721 -0.204309 3.70653e-19)
(-0.323706 -0.163432 -9.5696e-19)
(-0.343222 -0.144274 -2.29878e-20)
(-0.287823 -0.183605 -4.88205e-20)
(-0.31536 -0.163294 -2.04032e-19)
(-0.231148 -0.185509 -2.61237e-19)
(-0.27644 -0.167512 1.85436e-19)
(-0.134089 -0.178778 -5.58884e-19)
(-0.206339 -0.157037 -8.85279e-20)
(0.0118947 -0.169277 -4.59254e-20)
(-0.0898661 -0.147516 -1.17906e-19)
(0.076364 -0.133563 3.68308e-20)
(0.219635 -0.148768 -8.71127e-20)
(-0.335465 -0.145675 7.39157e-19)
(-0.349289 -0.135277 6.88052e-19)
(-0.304874 -0.14911 1.36521e-20)
(-0.329424 -0.136138 -4.12884e-19)
(-0.253762 -0.139939 3.67281e-19)
(-0.295526 -0.12689 0)
(-0.165175 -0.126359 3.53641e-19)
(-0.233423 -0.108028 3.80123e-19)
(-0.0290235 -0.112837 -3.94748e-20)
(-0.128385 -0.0930168 -3.85507e-20)
(0.0267119 -0.0773382 0)
(0.165654 -0.0924412 -2.98381e-19)
(-0.343016 -0.128475 -4.01404e-19)
(-0.349677 -0.125558 7.11856e-19)
(-0.32073 -0.11597 -4.44106e-19)
(-0.341337 -0.109854 3.91353e-19)
(-0.277039 -0.0960058 0)
(-0.313985 -0.0880391 4.28033e-19)
(-0.199229 -0.0755464 0)
(-0.261716 -0.0608139 -8.17429e-20)
(-0.0760681 -0.0580863 0)
(-0.170402 -0.0407516 4.14959e-19)
(-0.03001 -0.0233376 -1.39719e-19)
(0.103124 -0.0373884 3.34706e-19)
(-0.346544 -0.111128 1.52293e-18)
(-0.344745 -0.114497 2.20283e-20)
(-0.334942 -0.0842848 1.26094e-18)
(-0.350797 -0.0846088 3.83567e-19)
(-0.300176 -0.054053 3.63787e-19)
(-0.331222 -0.0511522 6.90758e-20)
(-0.234988 -0.027057 3.18836e-19)
(-0.290148 -0.0159106 -8.17429e-20)
(-0.12737 -0.00620189 2.88335e-19)
(-0.214357 0.00845817 1.90364e-19)
(-0.0912704 0.0271031 -5.95526e-21)
(0.0335301 0.0150873 -1.2482e-19)
(-0.346142 -0.0933806 -1.13548e-18)
(-0.334896 -0.101737 -6.88929e-19)
(-0.34706 -0.0541714 -7.95364e-19)
(-0.357495 -0.0605169 -8.78972e-19)
(-0.322311 -0.0144224 -3.70912e-19)
(-0.34662 -0.0164247 6.37056e-20)
(-0.271122 0.0184728 -2.17727e-19)
(-0.317559 0.0261959 2.38782e-19)
(-0.181076 0.0415453 -9.89183e-20)
(-0.258626 0.0538354 1.72757e-19)
(-0.155525 0.0722317 -2.65128e-19)
(-0.0397746 0.0608793 1.92171e-19)
(-0.341879 -0.0751896 -4.19867e-19)
(-0.320588 -0.0871253 -2.2633e-20)
(-0.356618 -0.0257808 -6.07331e-20)
(-0.36113 -0.037618 -1.06402e-20)
(-0.342543 0.0225562 6.67772e-19)
(-0.359553 0.0159678 -2.90314e-19)
(-0.30617 0.0604198 6.30721e-19)
(-0.342748 0.0650577 -8.0281e-20)
(-0.235249 0.0843328 1.79265e-20)
(-0.301388 0.0947432 1.08938e-19)
(-0.219878 0.111212 -3.3485e-19)
(-0.115688 0.100901 -7.18879e-19)
(-0.333877 -0.0565173 3.83745e-19)
(-0.302297 -0.0706798 -7.21768e-19)
(-0.36317 0.000804563 -2.29104e-19)
(-0.361416 -0.0159003 4.07443e-19)
(-0.359965 0.0565744 -1.0446e-18)
(-0.369428 0.0458717 -7.33533e-19)
(-0.338574 0.098259 -6.06689e-19)
(-0.36449 0.100269 -3.59298e-19)
(-0.287597 0.121428 -2.32467e-19)
(-0.340644 0.130586 -2.17318e-19)
(-0.281832 0.143323 1.23959e-19)
(-0.191072 0.133031 3.93355e-19)
(-0.322267 -0.0374089 -7.65138e-19)
(-0.280455 -0.0526189 -4.1318e-20)
(-0.366292 0.0255409 -4.93017e-20)
(-0.358063 0.00467025 -2.87705e-20)
(-0.373689 0.0873643 -6.15417e-20)
(-0.375705 0.0731469 3.63903e-19)
(-0.366679 0.131507 2.53603e-20)
(-0.381596 0.131444 3.80592e-20)
(-0.335753 0.152286 1.30927e-19)
(-0.37417 0.160827 -6.75837e-20)
(-0.338806 0.168252 3.64358e-19)
(-0.263175 0.156435 -2.94122e-19)
(-0.307105 -0.0180358 6.89291e-19)
(-0.255388 -0.0333721 6.681e-19)
(-0.365549 0.0484407 3.65961e-19)
(-0.350721 0.0241276 -1.53082e-21)
(-0.382797 0.114825 4.73701e-19)
(-0.377687 0.0974955 4.31444e-19)
(-0.388672 0.159629 -5.15965e-20)
(-0.392767 0.15793 3.55037e-22)
(-0.377362 0.176501 1.5461e-19)
(-0.399779 0.185368 -3.49551e-20)
(-0.388019 0.185992 -1.82217e-21)
(-0.329212 0.170611 3.64236e-19)
(-0.288313 0.00131274 1.15606e-20)
(-0.22718 -0.013642 7.11232e-19)
(-0.36039 0.0692443 4.47637e-20)
(-0.338986 0.0424673 2.94787e-20)
(-0.386324 0.13815 -2.65655e-20)
(-0.374562 0.118456 7.18841e-20)
(-0.402692 0.182373 1.81007e-20)
(-0.396122 0.178809 2.05236e-19)
(-0.409683 0.194439 -1.90543e-19)
(-0.415391 0.204487 1.71252e-19)
(-0.426123 0.196509 -3.08155e-19)
(-0.386218 0.175384 -1.03019e-19)
(-0.265517 0.0202046 7.68482e-19)
(-0.195591 0.00560365 6.86617e-19)
(-0.350229 0.0877208 5.55927e-20)
(-0.322344 0.0597033 6.05745e-20)
(-0.38276 0.156584 3.00788e-19)
(-0.365791 0.135605 -3.95089e-19)
(-0.406704 0.199125 3.58397e-19)
(-0.389475 0.193229 -5.52393e-20)
(-0.429755 0.206111 6.93872e-20)
(-0.418422 0.218171 6.88242e-20)
(-0.449124 0.199708 -3.88646e-21)
(-0.430199 0.170732 -4.62732e-20)
(-0.238071 0.0380398 1.61479e-20)
(-0.160179 0.0232766 -7.66665e-19)
(-0.334696 0.103739 -3.69222e-19)
(-0.299844 0.0758554 -5.08755e-19)
(-0.370867 0.169678 -7.62098e-19)
(-0.350837 0.148391 2.74004e-20)
(-0.397834 0.209747 -3.48647e-19)
(-0.371183 0.200587 -3.39139e-19)
(-0.433087 0.210375 0)
(-0.405016 0.225029 -3.14335e-19)
(-0.454629 0.198642 0)
(-0.458496 0.156906 5.39315e-20)
(-0.205128 0.0535594 -1.30768e-18)
(-0.1202 0.0380952 -1.50238e-18)
(-0.313087 0.116774 -1.34962e-19)
(-0.268691 0.0903867 -5.83387e-19)
(-0.349836 0.176723 4.6226e-19)
(-0.327379 0.15554 4.74714e-19)
(-0.374138 0.212531 -3.05522e-19)
(-0.338946 0.199591 3.78762e-19)
(-0.415053 0.207208 -3.2187e-19)
(-0.368161 0.222242 2.75479e-19)
(-0.440574 0.19843 -2.39754e-19)
(-0.46935 0.135174 0)
(-0.16455 0.0642174 -8.27828e-19)
(-0.0687726 0.0460473 3.60625e-20)
(-0.281453 0.124198 -1.10544e-20)
(-0.212503 0.0974672 8.34784e-19)
(-0.317629 0.176042 3.94458e-19)
(-0.288141 0.155031 5.67664e-20)
(-0.327434 0.206689 9.58083e-19)
(-0.285229 0.185108 -3.90625e-20)
(-0.361948 0.206645 3.16258e-19)
(-0.290102 0.203618 6.67819e-20)
(-0.398657 0.201699 -5.46066e-20)
(-0.450964 0.113091 -2.79597e-19)
(-0.0940268 0.0693059 1.65778e-18)
(-0.216756 0.13285 9.32471e-19)
(-0.257745 0.173821 -3.55569e-19)
(-0.255086 0.184387 -9.31655e-19)
(-0.267568 0.154217 -2.96862e-19)
(-0.424076 0.0488376 5.25769e-19)
(0.895737 -0.981404 -3.44097e-20)
(0.704615 -0.890503 -1.58952e-20)
(0.734307 -1.11744 -1.61252e-20)
(1.12995 -0.868883 1.79541e-20)
(1.116 -0.888787 -1.01306e-21)
(1.01473 -0.938926 6.82975e-20)
(1.23204 -0.743329 8.37891e-21)
(1.24857 -0.780635 7.82273e-21)
(1.15672 -0.804319 1.42094e-20)
(1.27412 -0.632468 -2.15836e-20)
(1.30417 -0.671439 -1.00303e-20)
(1.22391 -0.687059 5.64173e-21)
(1.28384 -0.535071 5.19211e-21)
(1.32052 -0.570745 -3.57577e-21)
(1.24936 -0.580802 -1.91961e-20)
(1.27756 -0.45275 3.41641e-20)
(1.31463 -0.4826 2.60914e-20)
(1.2523 -0.490387 2.07821e-20)
(1.26538 -0.385555 2.54267e-21)
(1.29929 -0.409244 1.97378e-20)
(1.24551 -0.416477 -2.10702e-20)
(1.25227 -0.331767 3.05891e-21)
(1.28197 -0.349914 -1.76757e-20)
(1.23596 -0.357328 -3.99913e-20)
(1.23992 -0.288624 3.86951e-20)
(1.26577 -0.302426 3.30162e-20)
(1.22624 -0.310102 4.37091e-20)
(1.2284 -0.253539 1.83303e-20)
(1.25121 -0.26416 1.92894e-20)
(1.21693 -0.271938 -1.90767e-20)
(1.21729 -0.224412 -1.65819e-20)
(1.23783 -0.232774 0)
(1.20778 -0.240425 0)
(1.20617 -0.199685 1.16614e-20)
(1.22505 -0.206482 -1.78796e-20)
(1.19842 -0.213785 -1.67462e-20)
(1.19477 -0.178262 5.68432e-20)
(1.21241 -0.183995 2.79335e-20)
(1.1886 -0.190782 -4.47489e-21)
(1.1829 -0.15936 1.43854e-20)
(1.19961 -0.164401 1.6871e-20)
(1.17817 -0.170548 -5.40875e-21)
(1.17042 -0.142411 -1.26573e-20)
(1.18644 -0.147037 -2.67429e-20)
(1.16705 -0.152449 4.59323e-20)
(1.1572 -0.126981 1.56888e-22)
(1.17273 -0.131409 1.37711e-20)
(1.15513 -0.136014 -4.0668e-20)
(1.14311 -0.112732 -1.36764e-21)
(1.15833 -0.117141 -1.32386e-20)
(1.14231 -0.120877 1.16759e-20)
(1.12799 -0.0993906 1.22051e-20)
(1.14306 -0.103942 0)
(1.12849 -0.106758 5.32611e-20)
(1.11167 -0.086735 1.23725e-20)
(1.12674 -0.0915658 1.22905e-20)
(1.11351 -0.0934173 -5.13756e-20)
(1.09392 -0.0745806 6.63181e-20)
(1.10917 -0.0796773 9.79978e-21)
(1.09725 -0.080524 0)
(1.07441 -0.0627725 1.95295e-20)
(1.09014 -0.0678265 5.60935e-20)
(1.07957 -0.0676484 2.98855e-20)
(1.05263 -0.051176 -5.57893e-20)
(1.069 -0.0566546 -8.50111e-20)
(1.05985 -0.0555385 -9.31433e-20)
(1.02843 -0.0399202 -1.46099e-21)
(1.04371 -0.0508373 -1.34815e-20)
(1.03599 -0.048994 4.8225e-20)
(1.01322 -0.0540831 4.07034e-20)
(1.00812 -0.0506857 -1.4185e-20)
(0.939417 -0.817511 0)
(0.689707 -0.685937 2.19991e-20)
(1.21892 -0.807418 -2.07562e-20)
(1.17055 -0.806248 -5.30951e-20)
(1.31533 -0.711302 -1.69298e-20)
(1.32408 -0.731702 9.56811e-21)
(1.34861 -0.611735 1.09406e-20)
(1.37747 -0.63768 4.75293e-21)
(1.35026 -0.520281 1.65484e-20)
(1.38829 -0.547154 -7.16643e-21)
(1.33571 -0.44086 1.05447e-20)
(1.37548 -0.464636 1.06562e-20)
(1.31551 -0.374886 0)
(1.35255 -0.394186 -2.4552e-22)
(1.29528 -0.321487 1.19691e-20)
(1.3279 -0.336316 0)
(1.27696 -0.278577 1.38134e-20)
(1.30525 -0.289652 4.18311e-21)
(1.2606 -0.243812 1.16034e-21)
(1.28532 -0.252021 7.68858e-21)
(1.2456 -0.215142 -9.74667e-22)
(1.26761 -0.221291 4.24396e-22)
(1.23132 -0.191016 -1.86311e-21)
(1.25134 -0.195736 -9.84328e-22)
(1.21729 -0.170312 -1.19416e-20)
(1.23584 -0.174069 -1.24449e-20)
(1.20321 -0.152222 -2.38395e-20)
(1.22065 -0.155367 -1.04195e-20)
(1.18882 -0.136157 -6.26829e-22)
(1.20546 -0.138954 -2.62985e-21)
(1.17393 -0.121674 5.75764e-22)
(1.19001 -0.12433 1.22042e-20)
(1.15835 -0.108428 -1.18962e-20)
(1.17406 -0.111117 -2.1791e-20)
(1.14188 -0.0961422 0)
(1.15743 -0.0990272 2.90965e-20)
(1.1243 -0.0845877 9.73441e-21)
(1.13986 -0.0878198 4.77505e-21)
(1.10532 -0.0735689 -6.29669e-22)
(1.12112 -0.07718 -1.85986e-20)
(1.08453 -0.0629071 -5.17486e-20)
(1.10091 -0.0666594 -2.89396e-20)
(1.0612 -0.0524191 -5.63429e-20)
(1.07858 -0.0567167 -2.33766e-20)
(1.03443 -0.0420926 -5.01692e-20)
(1.05211 -0.0515893 3.0124e-21)
(1.01904 -0.0566943 3.02047e-20)
(0.931681 -0.687148 -2.92957e-20)
(0.66009 -0.539693 2.19991e-20)
(1.27454 -0.725352 -2.40831e-20)
(1.19433 -0.711709 -2.57599e-20)
(1.38392 -0.660248 3.13404e-20)
(1.37965 -0.666298 -2.09636e-20)
(1.41574 -0.576005 -1.45009e-20)
(1.43975 -0.589876 0)
(1.41274 -0.493754 -1.47192e-20)
(1.44952 -0.51145 -6.63914e-21)
(1.39186 -0.419887 -1.10731e-21)
(1.43251 -0.436941 2.56224e-22)
(1.36467 -0.357083 -2.48674e-22)
(1.40366 -0.371396 -5.91792e-22)
(1.33773 -0.305508 -7.42501e-21)
(1.37257 -0.316516 7.47056e-22)
(1.31355 -0.263785 -1.40835e-21)
(1.34384 -0.271761 -1.10876e-20)
(1.29233 -0.229964 6.89587e-21)
(1.31868 -0.235524 7.36309e-21)
(1.27338 -0.202208 4.28561e-22)
(1.29666 -0.205981 4.91442e-21)
(1.25591 -0.179027 -1.14062e-20)
(1.27689 -0.181542 0)
(1.23926 -0.159309 -1.09124e-20)
(1.25854 -0.160979 -9.68116e-21)
(1.22298 -0.142246 1.06629e-20)
(1.24102 -0.143382 7.07812e-22)
(1.20673 -0.127249 1.00834e-20)
(1.22385 -0.128085 1.0004e-20)
(1.19023 -0.113876 -9.90484e-21)
(1.20671 -0.114595 -1.99942e-21)
(1.17323 -0.101792 1.88279e-20)
(1.1893 -0.102543 -1.19905e-20)
(1.15549 -0.0907292 3.41302e-20)
(1.17137 -0.0916554 2.03954e-20)
(1.13675 -0.0804719 -2.32851e-20)
(1.15262 -0.0817161 1.06422e-20)
(1.11667 -0.0708363 -4.67471e-20)
(1.13278 -0.0724693 -2.8304e-20)
(1.09481 -0.0616447 1.42347e-21)
(1.1115 -0.0635275 -1.63991e-20)
(1.07021 -0.0526559 2.26078e-20)
(1.0882 -0.0551065 1.80022e-20)
(1.04099 -0.04363 4.55139e-21)
(1.06104 -0.0504264 1.06053e-20)
(1.02558 -0.0575733 -6.53081e-21)
(0.91407 -0.576434 2.18491e-20)
(0.623591 -0.438155 2.68815e-21)
(1.30135 -0.636631 -2.67208e-20)
(1.19263 -0.612226 5.70708e-20)
(1.43499 -0.59659 -5.15774e-20)
(1.41534 -0.590674 -3.01634e-20)
(1.47274 -0.528252 8.40457e-21)
(1.48906 -0.531595 -1.63844e-21)
(1.46886 -0.456888 8.67737e-21)
(1.50197 -0.465607 5.43449e-21)
(1.44408 -0.390394 8.81045e-24)
(1.48376 -0.400483 -6.34791e-22)
(1.41145 -0.332392 7.46509e-22)
(1.45109 -0.341332 4.39825e-22)
(1.37865 -0.283901 -2.86729e-21)
(1.41487 -0.290751 2.33379e-22)
(1.34899 -0.244274 -2.31472e-21)
(1.38077 -0.248914 -4.01134e-21)
(1.32306 -0.212055 5.45261e-21)
(1.35071 -0.214799 5.42451e-24)
(1.30023 -0.185667 4.42629e-21)
(1.32454 -0.186956 4.38327e-21)
(1.2796 -0.163748 1.81482e-21)
(1.30136 -0.163997 2.73792e-22)
(1.26039 -0.145244 1.84788e-21)
(1.28025 -0.144789 -3.74967e-22)
(1.24198 -0.129372 0)
(1.26046 -0.128469 -9.01679e-22)
(1.22394 -0.115554 -1.98354e-21)
(1.24142 -0.114393 8.49476e-22)
(1.2059 -0.103364 -4.00935e-21)
(1.2227 -0.102086 -9.38771e-22)
(1.18756 -0.0924834 -1.06626e-20)
(1.20393 -0.0911926 9.01722e-22)
(1.16862 -0.0826727 -2.95492e-21)
(1.18478 -0.0814573 -8.70116e-21)
(1.14877 -0.0737484 5.91762e-21)
(1.16493 -0.0726986 3.91237e-21)
(1.12767 -0.0655744 1.96771e-21)
(1.14401 -0.0647428 4.44765e-22)
(1.10483 -0.0580547 1.99264e-21)
(1.1216 -0.0573167 1.24693e-22)
(1.07917 -0.0510806 6.35456e-21)
(1.09709 -0.0504793 4.48315e-22)
(1.04823 -0.0442988 1.50407e-20)
(1.06915 -0.0464512 4.24941e-21)
(1.0337 -0.0547323 -8.10076e-21)
(0.889176 -0.482029 3.53248e-20)
(0.586899 -0.36643 2.68815e-21)
(1.30596 -0.545966 5.1107e-20)
(1.17027 -0.513038 7.87929e-20)
(1.4687 -0.52461 1.89823e-20)
(1.43151 -0.509122 3.30494e-20)
(1.51777 -0.47115 -4.7268e-21)
(1.52423 -0.465486 5.5016e-21)
(1.51671 -0.411264 -3.85577e-21)
(1.54401 -0.411512 -3.95555e-21)
(1.49078 -0.353273 -2.18736e-22)
(1.52765 -0.35637 7.29634e-22)
(1.45458 -0.301286 4.38929e-23)
(1.49349 -0.304657 4.30891e-22)
(1.41709 -0.256957 -1.14038e-21)
(1.45375 -0.259422 -5.13677e-22)
(1.3826 -0.220269 -1.51783e-21)
(1.41527 -0.221397 -1.99888e-21)
(1.35229 -0.19026 -1.03667e-21)
(1.38087 -0.190088 -1.02597e-21)
(1.32577 -0.165667 2.71105e-22)
(1.35084 -0.164437 0)
(1.30212 -0.145307 -1.88466e-21)
(1.32444 -0.1433 -1.20762e-23)
(1.28044 -0.128213 -3.09412e-21)
(1.30072 -0.12568 -1.83951e-21)
(1.26003 -0.113644 -6.01032e-23)
(1.27881 -0.110784 -9.01679e-22)
(1.24032 -0.101049 1.90908e-21)
(1.25806 -0.0980078 -3.72569e-22)
(1.22088 -0.0900168 3.97208e-21)
(1.23792 -0.0869008 1.06129e-21)
(1.20133 -0.0802482 2.94288e-21)
(1.21797 -0.0771303 2.92169e-21)
(1.1813 -0.071529 -1.99151e-21)
(1.19778 -0.0684641 3.33837e-21)
(1.16044 -0.0637154 -1.57702e-21)
(1.17698 -0.0607543 -5.19937e-21)
(1.1383 -0.0567287 -1.50855e-21)
(1.1551 -0.0538824 3.39907e-21)
(1.11423 -0.0505914 -1.5354e-21)
(1.13154 -0.0476892 -5.23157e-21)
(1.08723 -0.0455043 -1.5572e-21)
(1.10535 -0.042471 1.62259e-21)
(1.05621 -0.041584 -4.11515e-21)
(1.07544 -0.0406295 -3.79731e-22)
(1.04334 -0.0480667 -2.09536e-21)
(0.855954 -0.399362 4.48124e-20)
(0.550472 -0.308946 2.39034e-20)
(1.29192 -0.455908 5.60531e-20)
(1.13099 -0.417301 -1.32776e-20)
(1.48546 -0.447211 2.04068e-20)
(1.42866 -0.424491 -1.31015e-20)
(1.54986 -0.406955 6.43981e-21)
(1.54435 -0.393601 7.16202e-21)
(1.55487 -0.358356 5.54377e-22)
(1.57441 -0.35089 -2.73657e-20)
(1.53053 -0.309461 1.41755e-21)
(1.56281 -0.305743 1.39809e-21)
(1.49289 -0.264354 0)
(1.52964 -0.262125 0)
(1.45216 -0.225076 -1.43467e-21)
(1.48822 -0.22303 0)
(1.41373 -0.192083 -1.46815e-21)
(1.4466 -0.189584 -7.56025e-23)
(1.37957 -0.164859 0)
(1.40861 -0.161715 0)
(1.34966 -0.142475 -2.73799e-22)
(1.37518 -0.138731 -2.89855e-23)
(1.32318 -0.123956 5.30666e-23)
(1.34586 -0.119756 -2.49472e-22)
(1.29923 -0.108457 3.38193e-22)
(1.31973 -0.10396 1.03318e-21)
(1.27699 -0.0953041 -1.21185e-21)
(1.2959 -0.0906504 0)
(1.25581 -0.0839837 -1.23175e-21)
(1.27363 -0.079289 2.88975e-23)
(1.23518 -0.0741149 0)
(1.25229 -0.0694719 0)
(1.21462 -0.0654245 3.31417e-21)
(1.23136 -0.0609119 0)
(1.19369 -0.0577324 1.95342e-22)
(1.21036 -0.0534258 6.52981e-21)
(1.1719 -0.0509492 -2.93673e-22)
(1.18879 -0.0469144 -1.42558e-20)
(1.14865 -0.0450799 -4.16359e-22)
(1.16608 -0.0412953 8.41501e-21)
(1.12316 -0.0402042 -2.16431e-21)
(1.14148 -0.0364923 -3.26277e-21)
(1.09458 -0.0363559 2.76298e-21)
(1.11418 -0.0331558 -1.25085e-20)
(1.06246 -0.0334048 1.64992e-21)
(1.08356 -0.0341506 1.41731e-20)
(1.04906 -0.0406177 7.23887e-21)
(0.813217 -0.323929 -3.37603e-20)
(0.511257 -0.255916 -1.84047e-19)
(1.26108 -0.36773 -8.53592e-20)
(1.07695 -0.326419 -5.85488e-20)
(1.48503 -0.366454 -2.66174e-20)
(1.40713 -0.33868 -2.61315e-20)
(1.56808 -0.337507 -2.61115e-20)
(1.54849 -0.317703 -8.64377e-20)
(1.58225 -0.299592 -2.6959e-20)
(1.59209 -0.285342 -2.4951e-20)
(1.56215 -0.259969 0)
(1.58799 -0.249886 5.87266e-21)
(1.5253 -0.222257 0)
(1.55839 -0.214612 3.28633e-20)
(1.48298 -0.188733 1.44412e-21)
(1.51726 -0.182167 2.2555e-20)
(1.44175 -0.160103 1.47781e-21)
(1.47398 -0.153927 2.13526e-20)
(1.40444 -0.136206 -2.86832e-23)
(1.43339 -0.130071 0)
(1.37157 -0.116436 -1.77251e-22)
(1.39719 -0.110211 -7.41281e-21)
(1.34257 -0.100054 7.18756e-22)
(1.36533 -0.0937397 -3.60024e-22)
(1.31656 -0.0863642 7.04061e-22)
(1.33707 -0.0800216 1.45719e-21)
(1.29269 -0.074793 1.2225e-21)
(1.31154 -0.0684959 -1.06614e-21)
(1.27024 -0.064899 1.24257e-21)
(1.28792 -0.0587182 1.23278e-21)
(1.24859 -0.0563651 0)
(1.26552 -0.0503631 -7.5263e-21)
(1.22721 -0.0489826 3.16829e-21)
(1.24374 -0.0432169 7.1103e-21)
(1.20554 -0.0426411 -7.74608e-21)
(1.22199 -0.0371681 1.46749e-20)
(1.183 -0.0373198 -5.6793e-21)
(1.19969 -0.032179 -1.56291e-20)
(1.15889 -0.0330726 5.50893e-21)
(1.17617 -0.0282059 1.49983e-20)
(1.13241 -0.0299905 -1.34083e-20)
(1.15066 -0.025216 -9.10142e-21)
(1.10271 -0.0281452 -6.36313e-21)
(1.12242 -0.0239434 -3.45274e-21)
(1.06905 -0.0276154 1.99851e-20)
(1.09097 -0.0270553 9.87892e-21)
(1.05524 -0.0339039 -4.74337e-21)
(0.761483 -0.252704 -2.12935e-19)
(0.466412 -0.203162 1.80055e-19)
(1.2144 -0.282122 0)
(1.00925 -0.241014 -1.70263e-19)
(1.46706 -0.284142 -8.48304e-20)
(1.36702 -0.253216 0)
(1.57135 -0.264492 -8.61199e-20)
(1.53571 -0.239495 3.91073e-22)
(1.59771 -0.236424 7.59775e-21)
(1.59598 -0.21641 -3.58408e-20)
(1.58454 -0.205999 3.73532e-20)
(1.60188 -0.18976 -1.42808e-22)
(1.55072 -0.175782 5.48739e-20)
(1.57881 -0.163418 -2.67045e-20)
(1.50866 -0.148498 4.18124e-20)
(1.5399 -0.137629 -2.75335e-21)
(1.46597 -0.124785 2.01123e-20)
(1.49661 -0.114991 2.45052e-20)
(1.42642 -0.104709 -7.30681e-21)
(1.45463 -0.0956173 8.11956e-21)
(1.39117 -0.0879501 -8.23045e-21)
(1.41644 -0.0792969 -1.02924e-20)
(1.36002 -0.074009 1.9744e-22)
(1.38256 -0.0656651 6.14388e-21)
(1.33221 -0.0623665 -3.5909e-22)
(1.35251 -0.0542899 8.27773e-22)
(1.30691 -0.052576 -1.07503e-21)
(1.3255 -0.0447637 -1.06614e-21)
(1.28333 -0.0442976 -7.46653e-21)
(1.3007 -0.0367605 -5.6765e-22)
(1.26078 -0.0373014 -4.77648e-22)
(1.27736 -0.0300539 -7.5263e-21)
(1.23862 -0.0314587 1.8511e-20)
(1.2548 -0.0245157 4.94893e-21)
(1.21623 -0.0267263 7.02474e-21)
(1.23235 -0.0201044 4.56249e-21)
(1.19295 -0.0231276 4.86334e-21)
(1.20937 -0.0168295 -5.15112e-21)
(1.16808 -0.0207271 -1.10018e-22)
(1.18515 -0.0146709 1.90651e-21)
(1.14081 -0.019601 8.19246e-22)
(1.15895 -0.0136116 -1.75214e-20)
(1.1103 -0.0198282 1.25687e-20)
(1.13008 -0.0143453 2.15291e-20)
(1.07562 -0.0215353 3.78755e-21)
(1.09812 -0.0192231 -1.49302e-20)
(1.06172 -0.0272428 3.94007e-22)
(0.700016 -0.184501 2.31015e-19)
(0.413848 -0.149445 2.31674e-19)
(1.15206 -0.199782 -1.73829e-19)
(0.928476 -0.161185 1.66255e-19)
(1.43109 -0.201919 8.53467e-20)
(1.30821 -0.169447 -3.51449e-20)
(1.55871 -0.189486 5.14133e-20)
(1.50505 -0.160605 8.69637e-20)
(1.59986 -0.170067 -4.44057e-20)
(1.58511 -0.145575 2.82313e-20)
(1.59644 -0.148512 -6.43717e-20)
(1.60308 -0.126389 -5.57456e-20)
(1.56839 -0.126261 -8.6551e-20)
(1.58934 -0.109534 -2.41933e-20)
(1.52834 -0.105163 -2.29133e-20)
(1.55553 -0.0904869 -2.56095e-20)
(1.4857 -0.0867023 1.23934e-20)
(1.51374 -0.0734866 4.31618e-21)
(1.445 -0.0708388 6.22907e-21)
(1.47173 -0.0588965 -5.19649e-21)
(1.4081 -0.0574504 3.91513e-21)
(1.43252 -0.0464492 -1.67353e-20)
(1.37527 -0.0462498 6.76815e-21)
(1.39725 -0.0359619 1.56309e-20)
(1.34597 -0.0368993 0)
(1.36582 -0.0271886 0)
(1.31945 -0.029098 -5.62915e-22)
(1.33762 -0.0198793 0)
(1.29487 -0.022624 -5.72158e-22)
(1.31183 -0.0138388 1.2248e-22)
(1.2715 -0.0173447 -2.14499e-21)
(1.28767 -0.008949 0)
(1.24863 -0.0132081 -8.99681e-21)
(1.2644 -0.0051672 1.13539e-22)
(1.22558 -0.0102222 -7.44612e-21)
(1.24132 -0.00251085 -6.86958e-21)
(1.20168 -0.00843203 -8.07054e-21)
(1.21777 -0.00101968 2.58884e-21)
(1.17622 -0.00789963 -1.54286e-20)
(1.19306 -0.000687731 -7.61797e-21)
(1.14844 -0.00869947 4.09594e-21)
(1.16644 -0.00151625 -8.42002e-21)
(1.11747 -0.0109445 -5.79512e-22)
(1.13726 -0.00414473 1.22811e-20)
(1.08227 -0.0148441 -3.18685e-20)
(1.10512 -0.0106739 -2.91202e-20)
(1.06842 -0.0202221 3.16282e-20)
(0.628169 -0.119027 1.62366e-19)
(0.352364 -0.0950145 -5.13834e-19)
(1.0741 -0.121077 3.02264e-19)
(0.835193 -0.0868787 1.20972e-19)
(1.37653 -0.121213 -3.57984e-20)
(1.23048 -0.08879 2.3075e-19)
(1.52918 -0.114033 6.49467e-20)
(1.45545 -0.0827461 -2.00308e-19)
(1.58777 -0.102003 1.80802e-20)
(1.55834 -0.0742944 2.78285e-19)
(1.59615 -0.0883244 -1.51132e-20)
(1.59107 -0.0623065 -5.82845e-20)
(1.57692 -0.0745741 3.62677e-20)
(1.58762 -0.0528684 4.38162e-20)
(1.54143 -0.059666 0)
(1.56308 -0.0416038 1.12468e-19)
(1.50031 -0.0465369 -1.31679e-20)
(1.52472 -0.0301483 1.92208e-20)
(1.45967 -0.0351209 -2.73453e-20)
(1.48409 -0.0204686 -3.0902e-20)
(1.42199 -0.0253906 -6.4121e-21)
(1.44496 -0.0121376 -1.40367e-20)
(1.38806 -0.017201 8.83552e-21)
(1.40908 -0.00505545 8.75438e-21)
(1.35766 -0.0103768 0)
(1.3768 0.000879218 -1.0752e-20)
(1.33016 -0.00476387 5.69041e-22)
(1.34773 0.00576848 -6.92628e-21)
(1.30476 -0.000263356 5.78384e-22)
(1.32118 0.00967664 -1.17043e-21)
(1.28069 0.00316005 2.16458e-21)
(1.29636 0.012614 2.14231e-21)
(1.25721 0.00548975 2.19693e-21)
(1.27252 0.0145426 1.7092e-21)
(1.23363 0.00667915 2.99457e-21)
(1.24896 0.0153957 0)
(1.20928 0.00667 3.03564e-21)
(1.22502 0.0151108 1.03366e-20)
(1.18349 0.0053969 0)
(1.20002 0.0136773 -3.82179e-21)
(1.1555 0.00276206 7.52722e-22)
(1.17326 0.011065 0)
(1.1244 -0.00140983 -1.60036e-20)
(1.14408 0.00666981 7.63981e-21)
(1.08904 -0.0074413 -2.56488e-20)
(1.11203 -0.00142984 -1.12221e-20)
(1.07535 -0.0126494 1.02938e-20)
(0.545877 -0.056485 -5.81775e-19)
(0.281877 -0.0412292 4.50468e-20)
(0.980835 -0.0467962 4.09792e-20)
(0.730307 -0.0188514 -2.14848e-19)
(1.30289 -0.0436266 7.42561e-20)
(1.1338 -0.0129196 -1.0034e-21)
(1.48164 -0.0399433 5.02786e-21)
(1.38586 -0.00784008 -4.52113e-20)
(1.56086 -0.0343385 2.05387e-19)
(1.51401 -0.00431121 -4.48994e-20)
(1.58269 -0.0273712 -8.23626e-22)
(1.56531 0.000875321 1.03248e-19)
(1.57414 -0.0205548 1.18241e-19)
(1.5734 0.00484592 -6.91558e-20)
(1.54684 -0.0127546 1.33645e-19)
(1.55972 0.0087514 5.51957e-20)
(1.50906 -0.00486988 2.23895e-21)
(1.52877 0.0142766 -6.16132e-20)
(1.46984 0.00193197 -1.75706e-20)
(1.49099 0.0190854 5.04493e-20)
(1.43241 0.00778316 0)
(1.4532 0.0231604 4.08567e-21)
(1.3981 0.0127335 -1.06524e-20)
(1.41765 0.0266395 1.9955e-20)
(1.36708 0.0168234 -1.77119e-20)
(1.38517 0.0295377 -1.59868e-22)
(1.33893 0.0200724 -8.71376e-21)
(1.35569 0.031833 -1.65912e-22)
(1.31293 0.022462 2.47693e-22)
(1.32869 0.0334697 -1.74426e-21)
(1.28833 0.0239357 1.55725e-21)
(1.30344 0.0343575 -1.56933e-21)
(1.2644 0.0244146 -4.75342e-22)
(1.27923 0.0343846 -4.7192e-22)
(1.24047 0.0238181 7.2702e-21)
(1.25537 0.0334391 2.47368e-21)
(1.2159 0.0220727 3.39572e-21)
(1.23123 0.0314352 5.27841e-21)
(1.19003 0.019096 -3.8463e-21)
(1.2062 0.0283374 -7.03429e-21)
(1.1621 0.0147487 6.81286e-21)
(1.17956 0.0240785 6.56746e-21)
(1.13116 0.00877494 1.25063e-20)
(1.15065 0.0180638 -3.57299e-21)
(1.09595 0.000717321 2.119e-20)
(1.11896 0.00850212 1.05376e-20)
(1.08258 -0.00441184 -1.79858e-20)
(0.453724 0.00147251 4.11036e-19)
(0.203333 0.00966361 4.49794e-19)
(0.872586 0.0214792 -2.59731e-19)
(0.615522 0.0418143 7.74894e-20)
(1.20984 0.028941 -1.18669e-19)
(1.01876 0.056338 -5.94456e-19)
(1.41481 0.0309933 -9.15288e-20)
(1.29562 0.0620829 -4.65767e-20)
(1.51727 0.0317304 -1.50887e-19)
(1.45079 0.0625129 -1.04991e-19)
(1.556 0.0325462 3.67269e-20)
(1.52372 0.062308 -1.14608e-19)
(1.5592 0.0339886 -1.34545e-19)
(1.54712 0.061017 -3.92356e-20)
(1.54228 0.0350467 -1.38017e-19)
(1.54387 0.0596039 -9.16096e-20)
(1.51113 0.0376671 -1.62227e-20)
(1.52402 0.0592077 -1.71834e-19)
(1.47485 0.0397848 7.2905e-20)
(1.49154 0.0591454 1.0839e-19)
(1.43885 0.0416271 2.28474e-20)
(1.45656 0.0589532 -7.29816e-20)
(1.40503 0.0431691 3.08885e-20)
(1.42246 0.0587154 4.25687e-20)
(1.37402 0.0443583 1.78815e-20)
(1.39061 0.0584347 -1.76328e-20)
(1.34564 0.045103 7.05697e-21)
(1.3613 0.058004 3.73972e-20)
(1.31936 0.0452813 -3.68215e-21)
(1.33427 0.0572674 -4.91351e-21)
(1.29448 0.0447534 -3.73977e-21)
(1.30891 0.056047 -1.16946e-20)
(1.27032 0.0433822 2.45575e-21)
(1.28459 0.0541641 0)
(1.24626 0.0410524 4.40451e-22)
(1.26067 0.051463 2.28805e-21)
(1.22168 0.0376678 -5.1624e-21)
(1.23658 0.0478289 -2.04266e-21)
(1.19597 0.0331166 3.37831e-21)
(1.21174 0.0431937 -5.8992e-21)
(1.16837 0.0272086 -4.51832e-21)
(1.18547 0.0374494 5.04395e-21)
(1.13787 0.0195957 -5.64298e-21)
(1.15708 0.0299913 -6.4445e-21)
(1.10309 0.00966567 -4.13799e-21)
(1.126 0.0191171 4.82981e-21)
(1.0902 0.00457737 -9.04758e-21)
(0.353655 0.0533634 1.25172e-19)
(0.11816 0.0554619 9.51072e-20)
(0.750954 0.0822583 -2.52408e-19)
(0.493594 0.0937043 2.84658e-21)
(1.0975 0.0945573 -5.32552e-19)
(0.887121 0.1167 3.08224e-19)
(1.32779 0.096742 -5.5513e-20)
(1.18451 0.124838 3.981e-20)
(1.45563 0.094301 -6.92957e-20)
(1.36747 0.124085 1.37542e-19)
(1.51473 0.0903732 -1.91654e-19)
(1.46467 0.120246 -1.22367e-19)
(1.53175 0.0868077 4.06205e-21)
(1.50707 0.114751 -9.88932e-21)
(1.52622 0.0830871 -1.24469e-19)
(1.51632 0.108661 -3.50184e-20)
(1.50496 0.0803035 -5.30498e-20)
(1.50785 0.103963 -8.57511e-20)
(1.47369 0.0779015 -3.59181e-20)
(1.48449 0.0991492 1.20859e-19)
(1.4406 0.0756815 -5.67829e-20)
(1.4541 0.0946835 -7.57597e-20)
(1.40838 0.0737258 -5.39459e-21)
(1.42286 0.0907243 4.73202e-20)
(1.37816 0.0719079 9.62591e-22)
(1.39266 0.0872127 1.68413e-20)
(1.35014 0.0700532 2.63137e-20)
(1.36429 0.0839874 1.53556e-20)
(1.324 0.0679584 -1.23746e-20)
(1.33777 0.0808225 -1.1024e-20)
(1.29918 0.0654128 -7.86912e-21)