/*--------------------------------*- C++ -*----------------------------------*\
  =========                 |
  \\      /  F ield         | OpenFOAM: The Open Source CFD Toolbox
   \\    /   O peration     | Website:  https://openfoam.org
    \\  /    A nd           | Version:  11
     \\/     M anipulation  |
\*---------------------------------------------------------------------------*/
FoamFile
{
    format      ascii;
    class       volScalarField;
    location    "1.3";
    object      k;
}
// * * * * * * * * * * * * * * * * * * * * * * * * * * * * * * * * * * * * * //

dimensions      [0 2 -2 0 0 0 0];

internalField   nonuniform List<scalar> 
2880
(
0.00421695
0.0106954
0.0212754
0.0327307
0.0400586
0.0543223
0.0167784
0.0285741
0.0437539
0.0558294
0.0635731
0.0789897
0.0207585
0.0369782
0.0547101
0.0673255
0.0767077
0.0906351
0.0227481
0.042726
0.0621588
0.0754522
0.0859095
0.0990141
0.0241332
0.0474867
0.0681024
0.0821671
0.0935477
0.106325
0.0250231
0.0518804
0.0732419
0.0881353
0.100407
0.113151
0.026223
0.0560143
0.0778376
0.0936155
0.106803
0.11972
0.0279764
0.0596998
0.0819615
0.0987034
0.112867
0.126165
0.0293751
0.0628528
0.0856152
0.103418
0.11864
0.132511
0.030454
0.0654348
0.0887862
0.107745
0.124108
0.138705
0.0312317
0.0674278
0.0914585
0.111655
0.129221
0.144648
0.0317373
0.0688105
0.0936087
0.115105
0.133908
0.150216
0.0320141
0.0695467
0.0952016
0.118034
0.138084
0.155284
0.0319493
0.0696237
0.0961868
0.120367
0.141662
0.159737
0.031501
0.0690321
0.0964739
0.122013
0.144545
0.16348
0.0306609
0.0677128
0.0960147
0.122862
0.146635
0.16645
0.029438
0.0655918
0.0946613
0.122775
0.147821
0.168612
0.0278614
0.0625651
0.0922552
0.121575
0.147953
0.169973
0.0260349
0.0584872
0.0885806
0.119018
0.146827
0.170426
0.0248609
0.0531361
0.0833269
0.114753
0.144074
0.16976
0.023311
0.0464124
0.076008
0.108235
0.139066
0.167534
0.0211454
0.037792
0.0657543
0.0985518
0.130601
0.162552
0.0168256
0.02568
0.0505779
0.0838783
0.116269
0.150407
0.00409558
0.00899674
0.0290868
0.0626488
0.0942645
0.118942
0.146833
0.158823
0.158627
0.154266
0.145668
0.13521
0.123454
0.111084
0.0987728
0.0871136
0.0765507
0.0673479
0.0595967
0.0532595
0.04823
0.0443898
0.0416465
0.0399441
0.0392464
0.0394555
0.0404259
0.0421881
0.0445759
0.047253
0.148897
0.16693
0.163033
0.157638
0.150835
0.142907
0.133516
0.122825
0.111362
0.0997694
0.0886524
0.0784862
0.0695728
0.0620468
0.0559212
0.051149
0.0476772
0.0454698
0.0444944
0.0446398
0.0456494
0.0476072
0.0502588
0.0531906
0.140538
0.182962
0.178606
0.167291
0.15742
0.149222
0.141258
0.132475
0.122652
0.112053
0.101202
0.0906663
0.0809244
0.0723124
0.0650205
0.0591352
0.0546938
0.0517202
0.0502151
0.0501184
0.0509975
0.0530011
0.0558561
0.0590463
0.134704
0.184761
0.19687
0.188816
0.172389
0.159046
0.149053
0.140524
0.131987
0.122842
0.113051
0.102959
0.0930441
0.0837659
0.0754889
0.0684716
0.0628957
0.0588999
0.0565758
0.0559274
0.0565406
0.0583685
0.0613256
0.0647609
0.133798
0.179318
0.206438
0.207375
0.197538
0.178846
0.162609
0.150324
0.140673
0.131989
0.123292
0.114221
0.104886
0.0956328
0.0868742
0.0789962
0.072333
0.0671749
0.0637599
0.062217
0.0623728
0.063744
0.0666313
0.0702718
0.135589
0.173131
0.205808
0.220092
0.217772
0.205639
0.18583
0.16742
0.152808
0.141631
0.132407
0.123892
0.115413
0.106806
0.0982497
0.0900818
0.0826966
0.0765015
0.0718913
0.0691835
0.0685179
0.0693205
0.0717393
0.0755048
0.139166
0.170144
0.201734
0.22366
0.231359
0.227167
0.213708
0.193408
0.173324
0.15646
0.143424
0.133235
0.124573
0.11649
0.10854
0.100698
0.0931962
0.0864159
0.0808199
0.0768879
0.0750001
0.0751348
0.0767645
0.080436
0.143954
0.170168
0.198536
0.222678
0.237602
0.241022
0.235825
0.221902
0.201422
0.180098
0.161193
0.146109
0.13454
0.125335
0.117373
0.109944
0.102794
0.0960171
0.0899473
0.0850708
0.0819235
0.0810122
0.0819021
0.0849949
0.149522
0.17252
0.197651
0.220987
0.238929
0.248845
0.249591
0.243928
0.229827
0.209408
0.187371
0.166843
0.149755
0.1365
0.126327
0.118123
0.110985
0.104429
0.0983794
0.0930803
0.0889939
0.0867811
0.0869505
0.0892182
0.155501
0.176379
0.198745
0.220331
0.238631
0.251679
0.257988
0.25739
0.251088
0.236804
0.216964
0.194878
0.173329
0.154527
0.139475
0.127955
0.119074
0.111868
0.105677
0.100235
0.0956562
0.0923614
0.0914965
0.0930135
0.161565
0.181001
0.201093
0.220662
0.238117
0.252033
0.261339
0.265212
0.263685
0.256812
0.242778
0.223951
0.202417
0.180588
0.160665
0.14402
0.130955
0.120958
0.113202
0.106937
0.101782
0.0976772
0.0954547
0.0962799
0.167414
0.18574
0.20385
0.221378
0.237374
0.250962
0.261388
0.267959
0.270194
0.268109
0.26097
0.24777
0.230257
0.209948
0.188753
0.168588
0.150899
0.136364
0.124927
0.116084
0.109149
0.103632
0.0995432
0.0994831
0.172788
0.190082
0.206279
0.22169
0.23595
0.248536
0.259001
0.26687
0.271619
0.272816
0.270542
0.263735
0.251839
0.236192
0.21787
0.198243
0.178809
0.160874
0.145295
0.132366
0.121963
0.113713
0.106933
0.104485
0.177485
0.193643
0.207842
0.221041
0.233336
0.244531
0.254396
0.262617
0.268804
0.272516
0.273262
0.271059
0.265239
0.255416
0.242237
0.2265
0.209193
0.191396
0.174135
0.158207
0.14412
0.132025
0.121755
0.11573
0.181369
0.196166
0.208154
0.219042
0.22923
0.238814
0.247709
0.255703
0.26249
0.267697
0.27087
0.27163
0.269803
0.265229
0.257841
0.247686
0.235014
0.220499
0.204944
0.189104
0.173685
0.159199
0.146232
0.137172
0.184352
0.197502
0.207124
0.215565
0.223587
0.231485
0.239238
0.24667
0.253498
0.259376
0.263933
0.266727
0.267589
0.26626
0.262641
0.256829
0.249102
0.239494
0.228226
0.215667
0.202275
0.188628
0.175955
0.166723
0.186389
0.197621
0.20469
0.210648
0.216551
0.222808
0.229407
0.236139
0.242681
0.248672
0.253732
0.257526
0.25969
0.260262
0.259039
0.255929
0.250929
0.244279
0.236239
0.227139
0.217439
0.207637
0.198725
0.192098
0.187452
0.196497
0.200913
0.204445
0.208342
0.213074
0.218588
0.224623
0.230789
0.236646
0.241768
0.245792
0.248378
0.249467
0.249126
0.247193
0.243766
0.238984
0.233025
0.22612
0.218605
0.211117
0.204513
0.198963
0.18758
0.194137
0.19589
0.197144
0.199191
0.202513
0.207021
0.212394
0.2182
0.223899
0.228995
0.233062
0.235695
0.236838
0.236645
0.234939
0.231875
0.227634
0.222422
0.216475
0.210112
0.20381
0.198085
0.192442
0.186718
0.190715
0.189741
0.188982
0.18937
0.191398
0.194944
0.199649
0.205078
0.210679
0.215844
0.220058
0.222884
0.224181
0.224181
0.222677
0.21985
0.215898
0.211035
0.20548
0.199492
0.193411
0.187517
0.181552
0.184794
0.186303
0.182674
0.180153
0.179257
0.180049
0.182606
0.186556
0.191491
0.196853
0.20192
0.206093
0.209042
0.210616
0.211016
0.210131
0.208078
0.205024
0.201182
0.196758
0.191963
0.186961
0.181734
0.176473
0.181708
0.180756
0.174978
0.171087
0.169306
0.169058
0.170614
0.173585
0.177575
0.182066
0.186176
0.18914
0.191011
0.191902
0.191996
0.191327
0.189961
0.187929
0.185418
0.182572
0.179517
0.176273
0.172666
0.168904
0.176465
0.173989
0.167117
0.162653
0.160439
0.159802
0.160902
0.163554
0.166444
0.168544
0.169472
0.169131
0.167327
0.165202
0.163156
0.161192
0.1592
0.157079
0.154831
0.152519
0.150225
0.147962
0.145734
0.14333
0.167398
0.166455
0.160041
0.156078
0.154435
0.154516
0.1569
0.160558
0.163173
0.163552
0.158829
0.15162
0.144404
0.138123
0.133114
0.12896
0.125231
0.121526
0.117732
0.113876
0.11011
0.106375
0.10297
0.0991404
0.00398128
0.00763855
0.0234458
0.048475
0.0796797
0.116346
0.0165011
0.0234984
0.04381
0.067642
0.0948128
0.127853
0.0206958
0.0344804
0.0571984
0.0808799
0.106936
0.135686
0.0228786
0.0423691
0.0661587
0.0896084
0.114377
0.139046
0.0243404
0.0484161
0.0724001
0.0953529
0.118727
0.140626
0.0252008
0.0531885
0.0766558
0.0988728
0.120925
0.14127
0.0268035
0.0566009
0.0793798
0.100661
0.121464
0.140979
0.0281486
0.0589302
0.080879
0.101061
0.120744
0.139592
0.0291522
0.0603595
0.0813733
0.100399
0.1188
0.137172
0.029802
0.06102
0.0810796
0.0987286
0.115894
0.133842
0.0300963
0.0610072
0.080026
0.0962775
0.112186
0.129779
0.0300643
0.0603866
0.078361
0.0931815
0.107831
0.125182
0.0296946
0.0592057
0.076168
0.0895573
0.102967
0.120244
0.0290526
0.0574777
0.0735113
0.0855046
0.0977193
0.115141
0.0282352
0.0551856
0.0704362
0.0811071
0.0921888
0.110002
0.0271865
0.052327
0.0669704
0.0764333
0.0864581
0.104904
0.0258004
0.0488989
0.0631339
0.0715378
0.080607
0.0998162
0.0250064
0.0450424
0.0589622
0.0664629
0.0747596
0.0947838
0.0242698
0.0411367
0.0545141
0.0612242
0.0689507
0.0900519
0.0232267
0.0373531
0.0498134
0.0557869
0.0631006
0.0855581
0.0217388
0.0335067
0.0447189
0.0500116
0.0568892
0.0810846
0.019787
0.0291241
0.0387335
0.0434988
0.0495563
0.0759081
0.0160162
0.0227858
0.0303555
0.0350539
0.0393705
0.0683868
0.00416087
0.00818082
0.0130667
0.0175898
0.0209537
0.041525
0.158311
0.159967
0.155442
0.153092
0.152882
0.154928
0.159312
0.164157
0.16667
0.164646
0.155596
0.143045
0.13181
0.123441
0.117623
0.113086
0.10874
0.104107
0.0991279
0.0939077
0.0886347
0.0832669
0.0780952
0.0735406
0.154613
0.157103
0.154997
0.15471
0.156954
0.162093
0.169041
0.174832
0.175684
0.169737
0.154702
0.138244
0.125232
0.116238
0.110211
0.105617
0.101057
0.0961435
0.090898
0.0854736
0.0800734
0.0747958
0.0700296
0.0667909
0.154328
0.158086
0.15834
0.161077
0.166909
0.175359
0.184111
0.188628
0.185903
0.172173
0.151068
0.13247
0.119799
0.112042
0.10688
0.102409
0.0977681
0.092746
0.0874344
0.0820283
0.0767563
0.0720283
0.0682975
0.0660856
0.155456
0.161725
0.16551
0.172011
0.181511
0.19263
0.201096
0.201548
0.190988
0.168732
0.144709
0.127224
0.116922
0.110549
0.105671
0.101032
0.0960291
0.0907157
0.0853348
0.0801499
0.0754197
0.071496
0.0687469
0.0678196
0.157473
0.167052
0.174957
0.185605
0.198663
0.210937
0.215724
0.208195
0.188889
0.16062
0.137749
0.123907
0.11585
0.109971
0.104648
0.0991425
0.0933938
0.0877144
0.0824238
0.0778125
0.0741504
0.0717143
0.0706962
0.0709528
0.159296
0.17267
0.185258
0.200345
0.216285
0.226727
0.223302
0.208403
0.177892
0.149926
0.132166
0.122095
0.115154
0.10893
0.102647
0.0962097
0.0899743
0.0843042
0.079506
0.0758314
0.0734786
0.072585
0.072855
0.0738487
0.160293
0.177819
0.195542
0.21517
0.232221
0.235002
0.224663
0.196713
0.164107
0.142237
0.129675
0.121279
0.113954
0.106653
0.0993506
0.0924079
0.0861843
0.0809813
0.0770233
0.074445
0.0732762
0.0733886
0.0744296
0.0759442
0.160266
0.182233
0.205596
0.229328
0.242359
0.23722
0.215687
0.179916
0.153942
0.138582
0.128408
0.119733
0.111262
0.102914
0.0950307
0.0879833
0.0820861
0.0775637
0.0745283
0.0729686
0.0727537
0.0734584
0.0750114
0.0766628
0.159234
0.186146
0.215755
0.241783
0.245456
0.231647
0.198025
0.167808
0.149189
0.136911
0.12667
0.116838
0.107239
0.0981951
0.090086
0.0832287
0.0778461
0.0740544
0.0718499
0.0711164
0.0715131
0.0728183
0.0747608
0.0765183
0.157462
0.190205
0.226379
0.248374
0.24327
0.217426
0.18336
0.161377
0.146919
0.135007
0.123648
0.112591
0.102172
0.092793
0.0847686
0.0783068
0.073517
0.0704072
0.068877
0.0687317
0.0695233
0.0712236
0.0733306
0.0751185
0.155351
0.195278
0.237208
0.249236
0.234484
0.201007
0.175725
0.15889
0.145152
0.132082
0.119332
0.107286
0.0964049
0.0870122
0.0792886
0.0733139
0.0690913
0.0665436
0.0655097
0.0657098
0.0668019
0.068669
0.0708211
0.0725857
0.153349
0.202076
0.2449
0.243956
0.22079
0.192213
0.172923
0.157375
0.142534
0.127892
0.11394
0.101269
0.0902649
0.0810943
0.0737875
0.0683058
0.0645668
0.0624362
0.0617222
0.0621062
0.0633585
0.0652574
0.0673763
0.0690878
0.151899
0.210812
0.246621
0.236489
0.209966
0.189007
0.171885
0.155408
0.138764
0.122617
0.107802
0.0948587
0.0839928
0.0751921
0.0683446
0.0633123
0.0599503
0.058093
0.0575423
0.0579937
0.0592639
0.0611033
0.0631344
0.0647768
0.151319
0.220412
0.243271
0.227349
0.206343
0.188553
0.170941
0.152429
0.133874
0.116524
0.101219
0.0882998
0.0777566
0.0694036
0.0630085
0.0583574
0.0552638
0.0535505
0.0530307
0.0534438
0.0546158
0.0563214
0.0582228
0.059788
0.151525
0.228442
0.23646
0.222918
0.206263
0.188989
0.16929
0.148329
0.128073
0.109903
0.0944464
0.0817768
0.0716687
0.0637886
0.057811
0.0534668
0.0505438
0.0488648
0.0482642
0.0485404
0.0495138
0.0510165
0.0527492
0.0542313
0.151671
0.232975
0.232988
0.222337
0.209176
0.189504
0.166621
0.143206
0.121619
0.103014
0.0876812
0.0754151
0.0657989
0.0583836
0.0527769
0.0486719
0.0458399
0.044108
0.0433333
0.0433768
0.0440583
0.0452808
0.0467962
0.0481855
0.14976
0.23406
0.232568
0.22594
0.212875
0.189223
0.162714
0.1372
0.114741
0.0960568
0.0810638
0.0692991
0.0601936
0.0532165
0.0479328
0.044012
0.0412141
0.0393681
0.0383486
0.0380535
0.0383629
0.0391928
0.0404102
0.0416795
0.14485
0.234205
0.237052
0.232824
0.215495
0.187175
0.157577
0.130542
0.107668
0.0891977
0.0746972
0.0634884
0.0548892
0.0483168
0.0433136
0.0395375
0.0367404
0.0347476
0.0334379
0.0327254
0.0325418
0.0328273
0.0335775
0.0346421
0.141482
0.236693
0.246716
0.241233
0.216943
0.183758
0.15153
0.123492
0.100584
0.0825545
0.0686525
0.0580281
0.0499211
0.0437217
0.0389661
0.0353107
0.0325037
0.0303619
0.0287529
0.02758
0.0267701
0.0262904
0.026226
0.0267928
0.147818
0.245549
0.259593
0.249276
0.216613
0.178907
0.144726
0.116216
0.0936128
0.076205
0.0629778
0.0529536
0.0453258
0.0394769
0.0349497
0.0314076
0.0286006
0.0263381
0.0244683
0.0228603
0.021386
0.019923
0.0184394
0.0174534
0.168384
0.262104
0.274227
0.253983
0.213356
0.172668
0.137339
0.108855
0.0868434
0.0701997
0.0577023
0.0482891
0.041134
0.0356281
0.0313297
0.0279166
0.0251473
0.0228329
0.0208134
0.0189368
0.0170347
0.0148997
0.0122518
0.00811293
0.195436
0.284607
0.288878
0.256013
0.208814
0.165462
0.129558
0.101517
0.0803337
0.0645643
0.0528349
0.0440392
0.0373562
0.0321984
0.028148
0.0249037
0.0222417
0.0199887
0.0180024
0.0161543
0.0143123
0.0123313
0.0100302
0.00678332
0.228657
0.311165
0.299635
0.253697
0.201928
0.15717
0.121443
0.0942641
0.074117
0.0593043
0.0483639
0.0401836
0.0339685
0.029163
0.0253783
0.0223373
0.0198366
0.0177217
0.0158687
0.0141678
0.0125056
0.0107594
0.00880771
0.00625864
0.2757
0.337144
0.30416
0.246919
0.192912
0.147983
0.113124
0.0871711
0.06822
0.0544143
0.0442635
0.0366838
0.030922
0.0264611
0.0229428
0.020114
0.0177901
0.015832
0.0141289
0.0125827
0.0110904
0.00954745
0.00788031
0.005849
0.00511569
0.023942
0.0601367
0.0996971
0.152163
0.187193
0.0187758
0.0536608
0.099229
0.144567
0.201761
0.299114
0.0230579
0.0680669
0.117093
0.166082
0.224592
0.306443
0.0252453
0.0775038
0.127182
0.176616
0.231743
0.295898
0.0288349
0.0840902
0.133186
0.180908
0.231375
0.281291
0.031968
0.0889467
0.13664
0.181537
0.226536
0.265739
0.0345681
0.092559
0.13833
0.179983
0.219499
0.250444
0.0365987
0.0951121
0.138655
0.17702
0.211541
0.236047
0.0380513
0.0966713
0.137918
0.173184
0.203391
0.222869
0.0389399
0.097267
0.136283
0.168829
0.195469
0.211043
0.0393045
0.0969371
0.133915
0.164206
0.188018
0.200577
0.0392122
0.0957315
0.130958
0.159486
0.181121
0.191444
0.0387607
0.0937005
0.127526
0.15477
0.174794
0.183569
0.0379257
0.0909098
0.123689
0.150088
0.169025
0.176839
0.0366271
0.0874233
0.119469
0.145413
0.163758
0.171128
0.0348608
0.0832703
0.11484
0.140672
0.158902
0.166297
0.0326568
0.0784387
0.109716
0.135737
0.15433
0.162206
0.0300767
0.0728709
0.103931
0.130419
0.14987
0.158698
0.0272265
0.0664532
0.0972216
0.124451
0.145282
0.155587
0.0249834
0.0589782
0.0891706
0.117465
0.140206
0.152683
0.0233193
0.0502154
0.0791094
0.108889
0.13403
0.149829
0.0211585
0.0398042
0.0658989
0.0976658
0.125829
0.146351
0.0169183
0.026149
0.0472858
0.0816018
0.113467
0.139471
0.00414927
0.00806351
0.0240795
0.0596054
0.0941061
0.116036
0.342694
0.348868
0.299725
0.236893
0.182156
0.138124
0.104745
0.0803119
0.0626654
0.0498832
0.0405033
0.0334971
0.0281644
0.0240295
0.0207649
0.0181397
0.015986
0.0141778
0.0126154
0.0112104
0.00987157
0.00851454
0.00710269
0.00548924
0.374409
0.34562
0.284834
0.223167
0.169927
0.127857
0.0964745
0.073768
0.0574748
0.0456995
0.0370546
0.0305863
0.0256529
0.0218208
0.0187921
0.0163564
0.0143613
0.0126926
0.0112607
0.00998726
0.00879329
0.0076131
0.0064344
0.00516572
0.354348
0.325701
0.266627
0.207557
0.157013
0.117594
0.0885159
0.0676212
0.0526663
0.0418514
0.0338935
0.0279227
0.0233572
0.0198044
0.0169939
0.0147346
0.0128881
0.0113514
0.0100442
0.00889778
0.00784423
0.00683283
0.00586513
0.00488172
0.329826
0.302332
0.2468
0.191261
0.144119
0.107707
0.0810356
0.0619289
0.0482466
0.0383256
0.0309999
0.0254853
0.0212576
0.0179622
0.0153543
0.0132605
0.0115553
0.0101456
0.00895982
0.00793735
0.00701989
0.00616765
0.00538794
0.00463871
0.30525
0.27822
0.226744
0.175232
0.131783
0.0984534
0.0741345
0.0567163
0.0442106
0.0351068
0.0283571
0.0232588
0.0193409
0.0162837
0.0138653
0.0119284
0.010359
0.00907291
0.00800607
0.00710463
0.0063177
0.00561257
0.00499654
0.00443614
0.28209
0.255158
0.207588
0.160129
0.120341
0.0899736
0.0678536
0.0519831
0.0405443
0.032179
0.025951
0.0212317
0.0175984
0.0147623
0.0125221
0.0107348
0.00929664
0.00813121
0.0071806
0.0063962
0.00573229
0.00515991
0.00468261
0.00427099
0.260916
0.23399
0.189949
0.146304
0.109951
0.0823154
0.0621914
0.0477117
0.0372283
0.0295257
0.0237685
0.0193944
0.0160228
0.0133925
0.0113205
0.00967615
0.0083648
0.00731666
0.00647865
0.00580571
0.00525518
0.00479925
0.00443608
0.00413875
0.241964
0.21508
0.174104
0.133898
0.100652
0.0754681
0.0571208
0.0438751
0.0342407
0.0271304
0.0217976
0.0177377
0.0146072
0.0121688
0.0102554
0.00874748
0.00755816
0.00662312
0.00589272
0.00532378
0.00487499
0.00451809
0.00424602
0.0040344
0.22522
0.198556
0.160107
0.122912
0.0924097
0.0693856
0.0526006
0.0404412
0.0315583
0.0249765
0.0200262
0.0162527
0.0133443
0.0110846
0.00932053
0.00794224
0.00686949
0.00604225
0.00541289
0.00493865
0.00457841
0.0043031
0.0041018
0.00395321
0.210673
0.184244
0.147875
0.113266
0.0851468
0.064004
0.0485827
0.0373762
0.0291574
0.0230473
0.0184421
0.0149295
0.0122257
0.0101323
0.00850832
0.00725241
0.00628993
0.00556395
0.00502746
0.00463706
0.00435152
0.00414151
0.00399402
0.00389107
0.198195
0.171939
0.137256
0.104837
0.0787669
0.059252
0.0450174
0.0346462
0.027015
0.0213264
0.0170327
0.0137582
0.0112426
0.00930327
0.00781005
0.0066688
0.00580947
0.00517694
0.00472373
0.00440535
0.00418097
0.00402198
0.00391479
0.00384449
0.18761
0.161428
0.128076
0.0974896
0.073168
0.0550574
0.0418557
0.0322182
0.0251082
0.0197973
0.0157854
0.0127279
0.0103852
0.00858826
0.00721631
0.00618155
0.0054174
0.00486939
0.00448888
0.00423056
0.00405492
0.00393507
0.00385775
0.00381056
0.178739
0.152507
0.120159
0.0910849
0.0682498
0.051351
0.0390509
0.0300609
0.0234153
0.018444
0.0146874
0.011828
0.00964368
0.0079776
0.00671737
0.00578049
0.00510276
0.00462951
0.00431073
0.00410112
0.00396344
0.0038732
0.00381785
0.00378676
0.171413
0.144984
0.113336
0.0854917
0.0639172
0.0480669
0.0365587
0.0281441
0.0219152
0.0172509
0.0137264
0.0110475
0.00900798
0.00746163
0.00630348
0.00545544
0.00485481
0.0044461
0.00417836
0.00400725
0.00389852
0.00383033
0.00379101
0.00377089
0.165482
0.138688
0.107449
0.0805867
0.060081
0.0451431
0.0343372
0.0264398
0.0205883
0.0162032
0.0128904
0.0103763
0.00846862
0.00703109
0.00596525
0.00519663
0.00466332
0.00430896
0.00408235
0.003941
0.00385383
0.0038016
0.00377403
0.00376095
0.160822
0.133463
0.102349
0.0762531
0.0566555
0.0425212
0.0323478
0.0249217
0.0194159
0.0152871
0.0121682
0.00980454
0.00801674
0.00667742
0.00569405
0.00499513
0.00451918
0.00420935
0.00401505
0.00389618
0.00382474
0.00378393
0.00376393
0.00375507
0.157324
0.129165
0.097894
0.0723734
0.0535574
0.0401482
0.0305561
0.0235666
0.0183815
0.0144899
0.0115497
0.00932359
0.00764438
0.006393
0.00548227
0.00484322
0.0044148
0.00414032
0.00397057
0.00386813
0.00380774
0.00377457
0.00375879
0.00375211
0.154896
0.125655
0.0939346
0.0688286
0.0507087
0.0379765
0.028932
0.0223538
0.0174702
0.0138003
0.0110256
0.00892549
0.00734433
0.00617097
0.00532314
0.00473422
0.00434391
0.00409638
0.00394445
0.0038533
0.00380003
0.00377112
0.00375727
0.0037513
0.153435
0.122772
0.0902967
0.0654948
0.0480356
0.0359634
0.0274491
0.0212656
0.0166692
0.0132083
0.0105877
0.00860312
0.0071101
0.00600513
0.00521062
0.00466232
0.00430125
0.00407317
0.00393327
0.00384917
0.00379983
0.00377217
0.00375819
0.00375155
0.152799
0.120289
0.0867723
0.0622446
0.0454699
0.0340718
0.0260857
0.0202881
0.0159681
0.0127057
0.0102291
0.00835035
0.00693608
0.0058902
0.00513968
0.00462294
0.00428293
0.00406757
0.00393462
0.00385376
0.00380532
0.00377706
0.00376122
0.00375254
0.152745
0.117845
0.0830965
0.0589418
0.0429504
0.0322722
0.024826
0.0194108
0.0153591
0.012286
0.00994425
0.0081622
0.00681771
0.00582193
0.00510643
0.00461269
0.00428602
0.00407754
0.00394708
0.00386615
0.00381607
0.00378514
0.00376611
0.00375427
0.152749
0.114788
0.0789241
0.0554475
0.0404296
0.0305466
0.023661
0.0186277
0.0148372
0.0119449
0.00972904
0.00803497
0.00675161
0.00579735
0.00510807
0.00462915
0.00430942
0.00410227
0.00397023
0.00388619
0.0038321
0.00379659
0.00377289
0.00375681
0.150795
0.109982
0.0738478
0.0516533
0.0378902
0.0288946
0.0225912
0.0179382
0.0144009
0.0116801
0.00958119
0.00796632
0.00673559
0.00581405
0.00514366
0.00467244
0.00435289
0.00414196
0.00400443
0.00391431
0.00385388
0.00381189
0.00378208
0.00376061
0.142082
0.101708
0.0675134
0.0475567
0.0353672
0.0273388
0.0216281
0.0173473
0.0140522
0.0114922
0.0095002
0.00795534
0.00676852
0.00587264
0.00521306
0.00474253
0.0044173
0.00419774
0.00405087
0.00395165
0.00388242
0.00383199
0.00379454
0.00376637
0.00424844
0.00634792
0.0166225
0.0411126
0.0716886
0.103372
0.016945
0.023163
0.0377452
0.0625274
0.085228
0.0958622
0.0210553
0.0356249
0.0526721
0.0738957
0.0860431
0.0889667
0.0231481
0.0450181
0.0625933
0.0778992
0.0840112
0.0814739
0.0249966
0.0526486
0.0692072
0.0790505
0.0813093
0.0749739
0.0276752
0.0587254
0.0735622
0.0797174
0.0791713
0.0702861
0.0308813
0.0635339
0.0767482
0.0807468
0.077817
0.0674304
0.0336404
0.0674725
0.0795455
0.0822023
0.0774969
0.0662699
0.0358291
0.0708322
0.0823357
0.0841459
0.078041
0.0664979
0.0374436
0.0737902
0.0853137
0.0866728
0.0798012
0.0680662
0.0385013
0.0764314
0.0885573
0.0898318
0.0826765
0.0710114
0.0390233
0.0787633
0.0920562
0.0936421
0.0866244
0.0751956
0.0390501
0.0807247
0.0957139
0.0980626
0.0916283
0.0806318
0.0387285
0.0821991
0.0993725
0.103006
0.0976625
0.0873598
0.0383257
0.0829897
0.102836
0.108355
0.104606
0.0954298
0.0376986
0.0829545
0.105859
0.113916
0.112266
0.104856
0.0367056
0.0819013
0.108123
0.119346
0.120461
0.115494
0.0351925
0.0796656
0.10925
0.124135
0.128937
0.126939
0.0329747
0.0761191
0.108929
0.127645
0.136925
0.13907
0.0298186
0.0711769
0.106735
0.128969
0.1432
0.151486
0.0254224
0.0646775
0.101906
0.127273
0.145864
0.162553
0.0230047
0.0561029
0.0933875
0.120447
0.142677
0.168965
0.0189862
0.0439718
0.0782932
0.104391
0.128817
0.163281
0.0051571
0.0180822
0.0430909
0.0664909
0.0877377
0.117464
0.121455
0.0883403
0.0601317
0.043373
0.0329624
0.0259263
0.0207932
0.0168657
0.0137968
0.0113843
0.00948765
0.00800297
0.00685176
0.00597306
0.00531723
0.00484098
0.0045045
0.00427159
0.00411147
0.00399996
0.00391931
0.00385828
0.00381147
0.00377509
0.100129
0.0742545
0.0528972
0.0394882
0.030815
0.0247145
0.0201136
0.0165081
0.0136427
0.011361
0.00954614
0.00811089
0.00698616
0.006117
0.00545815
0.00497018
0.00461712
0.00436615
0.00418873
0.00406151
0.00396661
0.00389266
0.00383424
0.00378791
0.0835851
0.0627358
0.0467051
0.0362091
0.0290444
0.0237548
0.019616
0.0162908
0.0136017
0.0114282
0.00968002
0.0082824
0.00717472
0.00630739
0.00563898
0.00513357
0.00475876
0.00448502
0.00428609
0.00413952
0.00402715
0.00393711
0.00386339
0.00380524
0.0712984
0.0542038
0.0419619
0.0336918
0.0277204
0.0230835
0.0193226
0.0162275
0.01368
0.0115933
0.00989495
0.00852231
0.00742195
0.00654874
0.00586447
0.00533622
0.00493469
0.00463336
0.00440827
0.00423792
0.00410376
0.00399327
0.0039006
0.00382774
0.0627291
0.0483442
0.0386711
0.0319663
0.0268677
0.0227216
0.0192508
0.0163317
0.0138901
0.0118645
0.0101978
0.0088369
0.00773388
0.00684715
0.006141
0.00558479
0.00515171
0.00481783
0.00456132
0.00436175
0.00420041
0.0040648
0.00395045
0.00385835
0.0571901
0.0447094
0.0366775
0.0309949
0.0264867
0.0226806
0.0194136
0.016615
0.0142415
0.0122507
0.0105968
0.00923372
0.00811781
0.00720988
0.00647592
0.00588681
0.00541748
0.00504602
0.00475254
0.00451785
0.00432341
0.00415719
0.00401636
0.0038993
0.0541081
0.0428728
0.0357998
0.030723
0.0265535
0.0229657
0.0198218
0.0170887
0.014745
0.0127617
0.011101
0.00972147
0.00858206
0.00764502
0.00687722
0.00625028
0.00574012
0.00532616
0.00499011
0.00471399
0.00447966
0.00427589
0.00410194
0.00395231
0.0530115
0.0425027
0.0358566
0.0310322
0.0270764
0.0235874
0.0204871
0.0177648
0.0154125
0.0134088
0.011721
0.01031
0.00913596
0.0081615
0.00735356
0.00668378
0.0061283
0.00566717
0.0052831
0.00495906
0.0046772
0.0044273
0.00421154
0.00401953
0.0533567
0.0431434
0.0367141
0.0320017
0.0280586
0.0245559
0.0214233
0.018658
0.0162577
0.0142051
0.0124689
0.0110106
0.00978996
0.00876913
0.00791429
0.00719642
0.00659118
0.00607845
0.00564121
0.00526278
0.00492517
0.00461908
0.00435064
0.0041036
0.0550809
0.0449796
0.0384217
0.0335717
0.0295043
0.0258878
0.0226493
0.0197863
0.0172978
0.015166
0.0133588
0.011836
0.0105558
0.00947874
0.00856956
0.0077979
0.00713825
0.0065696
0.00607434
0.00563526
0.00523347
0.00486
0.00452573
0.00420758
0.0580984
0.0477945
0.0409045
0.0357555
0.0314378
0.02761
0.0241909
0.0211737
0.0185539
0.0163104
0.0144073
0.012801
0.0114468
0.0103024
0.00933046
0.00849856
0.00777939
0.00715031
0.00659228
0.00608658
0.00561225
0.00515947
0.00474412
0.00433483
0.0622994
0.0515962
0.0441954
0.0385953
0.0339022
0.0297626
0.0260839
0.0228512
0.0200529
0.0176613
0.0156344
0.0139231
0.0124782
0.0112538
0.0102093
0.0093096
0.00852498
0.00783047
0.00720474
0.00662654
0.0060715
0.00552713
0.00501351
0.00448867
0.0677234
0.0564541
0.0483717
0.0421647
0.0369634
0.0324029
0.0283771
0.0248597
0.021829
0.0192475
0.0170643
0.0152231
0.0136683
0.0123489
0.0112202
0.0102437
0.00938647
0.00862061
0.00792169
0.0072649
0.00662099
0.00597253
0.00534168
0.00467171
0.074472
0.0624936
0.0535543
0.0465716
0.0407145
0.0356095
0.0311357
0.027253
0.0239263
0.0211053
0.0187275
0.0167266
0.0150388
0.0136066
0.01238
0.0113158
0.0103774
0.00953301
0.00875442
0.00801231
0.00727114
0.00650577
0.00573663
0.00488499
0.0826855
0.0698855
0.0599052
0.0519603
0.0452799
0.039487
0.0344462
0.0301016
0.0264021
0.0232813
0.0206623
0.0184657
0.0166174
0.0150512
0.0137101
0.0125455
0.0115156
0.0105841
0.00971812
0.00888291
0.00803548
0.00713993
0.00620848
0.00512747
0.0925124
0.0788259
0.0676192
0.0585095
0.0508172
0.0441704
0.0384212
0.0334978
0.0293311
0.0258363
0.0229184
0.0204822
0.0184398
0.0167143
0.0152398
0.0139603
0.0128277
0.0117999
0.0108381
0.00990115
0.00893777
0.0078984
0.00677652
0.00539806
0.104063
0.0895012
0.0769011
0.0664216
0.0575152
0.0498278
0.0432048
0.0375614
0.0328114
0.0288499
0.025561
0.0228303
0.0205532
0.0186387
0.0170099
0.0156012
0.0143566
0.0132265
0.0121643
0.0111205
0.0100343
0.00883969
0.00749457
0.0057154
0.117375
0.102027
0.0879188
0.0758925
0.065578
0.0566553
0.0489739
0.0424449
0.0369701
0.0324264
0.0286758
0.0255817
0.0230195
0.0208814
0.0190765
0.0175283
0.0161713
0.0149473
0.0138006
0.0126718
0.0114882
0.0101606
0.00858276
0.00634038
0.132027
0.116334
0.100718
0.0870497
0.0751866
0.0648574
0.0559322
0.0483348
0.0419689
0.036701
0.0323742
0.028829
0.0259181
0.023514
0.02151
0.0198179
0.0183636
0.0170837
0.01592
0.0148146
0.0137033
0.0125318
0.0114054
0.0110419
0.14697
0.132136
0.115086
0.0998434
0.0864212
0.0745981
0.0642842
0.0554424
0.048004
0.0418447
0.0367994
0.0326897
0.0293454
0.0266176
0.0243819
0.022538
0.0210069
0.0197288
0.0186621
0.0177822
0.017077
0.0165704
0.0164793
0.0173445
0.16098
0.148245
0.130274
0.113867
0.0991327
0.0859104
0.0741774
0.0639724
0.0552943
0.0480628
0.0421296
0.0373106
0.033418
0.030281
0.0277559
0.0257293
0.024117
0.0228643
0.0219459
0.0213616
0.0211256
0.0212809
0.0220015
0.0235084
0.171772
0.161878
0.144639
0.128126
0.112764
0.0985547
0.0855972
0.0740537
0.0640425
0.0555796
0.0485767
0.042874
0.0382816
0.0346128
0.0317058
0.0294325
0.0277028
0.0264644
0.0256991
0.0254115
0.0255924
0.0262656
0.0275654
0.0294435
0.171325
0.166931
0.155468
0.140867
0.126177
0.111852
0.0982189
0.0856216
0.0743543
0.0645917
0.0563672
0.049596
0.0441202
0.0397564
0.0363318
0.0337064
0.0317831
0.0305079
0.0298605
0.0298333
0.0303469
0.0314648
0.0331894
0.0353522
0.152762
0.162663
0.159032
0.149786
0.137634
0.124573
0.111254
0.0982602
0.0861041
0.0751716
0.0656846
0.0577013
0.0511531
0.0458986
0.0417765
0.0386447
0.036402
0.034991
0.0343838
0.0345281
0.0353174
0.0367974
0.0388756
0.041296
)
;

boundaryField
{
    rotor
    {
        type            kqRWallFunction;
        value           nonuniform List<scalar> 
144
(
0.00421695
0.0106954
0.0212754
0.0327307
0.0400586
0.0543223
0.00421695
0.0167784
0.0207585
0.0227481
0.0241332
0.0250231
0.026223
0.0279764
0.0293751
0.030454
0.0312317
0.0317373
0.0320141
0.0319493
0.031501
0.0306609
0.029438
0.0278614
0.0260349
0.0248609
0.023311
0.0211454
0.0168256
0.00409558
0.00409558
0.00899674
0.0290868
0.0626488
0.0942645
0.118942
0.00398128
0.00763855
0.0234458
0.048475
0.0796797
0.116346
0.00398128
0.0165011
0.0206958
0.0228786
0.0243404
0.0252008
0.0268035
0.0281486
0.0291522
0.029802
0.0300963
0.0300643
0.0296946
0.0290526
0.0282352
0.0271865
0.0258004
0.0250064
0.0242698
0.0232267
0.0217388
0.019787
0.0160162
0.00416087
0.00416087
0.00818082
0.0130667
0.0175898
0.0209537
0.041525
0.00511569
0.023942
0.0601367
0.0996971
0.152163
0.187193
0.00511569
0.0187758
0.0230579
0.0252453
0.0288349
0.031968
0.0345681
0.0365987
0.0380513
0.0389399
0.0393045
0.0392122
0.0387607
0.0379257
0.0366271
0.0348608
0.0326568
0.0300767
0.0272265
0.0249834
0.0233193
0.0211585
0.0169183
0.00414927
0.00414927
0.00806351
0.0240795
0.0596054
0.0941061
0.116036
0.00424844
0.00634792
0.0166225
0.0411126
0.0716886
0.103372
0.00424844
0.016945
0.0210553
0.0231481
0.0249966
0.0276752
0.0308813
0.0336404
0.0358291
0.0374436
0.0385013
0.0390233
0.0390501
0.0387285
0.0383257
0.0376986
0.0367056
0.0351925
0.0329747