/*--------------------------------*- C++ -*----------------------------------*\
  =========                 |
  \\      /  F ield         | OpenFOAM: The Open Source CFD Toolbox
   \\    /   O peration     | Website:  https://openfoam.org
    \\  /    A nd           | Version:  11
     \\/     M anipulation  |
\*---------------------------------------------------------------------------*/
FoamFile
{
    format      ascii;
    class       surfaceScalarField;
    location    "1.3";
    object      meshPhi;
}
// * * * * * * * * * * * * * * * * * * * * * * * * * * * * * * * * * * * * * //

dimensions      [0 3 -1 0 0 0 0];

internalField   nonuniform List<scalar> 
5640
(
1.36929e-16
9.81747e-07
2.42085e-16
1.37445e-06
3.76993e-16
1.76715e-06
-1.33945e-15
2.15984e-06
-3.68165e-15
2.55254e-06
2.94524e-06
5.95127e-15
1.81609e-18
9.81747e-07
-3.88796e-16
1.37445e-06
-2.6042e-15
1.76715e-06
1.9435e-15
2.15984e-06
8.06595e-15
2.55254e-06
2.94524e-06
-9.02983e-15
-1.16473e-16
9.81747e-07
1.86403e-16
1.37445e-06
-1.56241e-15
1.76715e-06
-4.21256e-15
2.15984e-06
-7.49862e-15
2.55254e-06
2.94524e-06
7.72211e-16
8.69465e-17
9.81747e-07
-1.01961e-16
1.37445e-06
2.69316e-15
1.76715e-06
7.44283e-15
2.15984e-06
3.25965e-15
2.55254e-06
2.94524e-06
-2.79813e-15
-4.83552e-17
9.81747e-07
3.94886e-17
1.37445e-06
1.94237e-16
1.76715e-06
-1.80617e-15
2.15984e-06
-4.20866e-15
2.55254e-06
2.94524e-06
5.01333e-15
-1.80109e-16
9.81747e-07
4.29761e-18
1.37445e-06
-1.84786e-15
1.76715e-06
-3.88616e-15
2.15984e-06
3.15697e-15
2.55254e-06
2.94524e-06
4.9811e-16
2.5395e-16
9.81747e-07
2.554e-16
1.37445e-06
2.06593e-15
1.76715e-06
4.50406e-15
2.15984e-06
-2.30999e-15
2.55254e-06
2.94524e-06
5.40739e-16
2.1639e-17
9.81747e-07
-3.2171e-16
1.37445e-06
-1.14891e-15
1.76715e-06
-5.28571e-15
2.15984e-06
-3.76664e-16
2.55254e-06
2.94524e-06
-5.63999e-15
-1.43421e-16
9.81747e-07
1.66384e-16
1.37445e-06
4.1911e-15
1.76715e-06
6.34937e-15
2.15984e-06
-8.05661e-16
2.55254e-06
2.94524e-06
8.39266e-16
-6.88274e-17
9.81747e-07
-9.20638e-17
1.37445e-06
-2.76945e-15
1.76715e-06
-3.68798e-16
2.15984e-06
-1.45091e-15
2.55254e-06
2.94524e-06
-1.76696e-16
1.66333e-16
9.81747e-07
-8.87324e-17
1.37445e-06
5.69694e-16
1.76715e-06
-2.10353e-15
2.15984e-06
9.65988e-15
2.55254e-06
2.94524e-06
5.29006e-15
-1.77783e-16
9.81747e-07
-2.05339e-17
1.37445e-06
-3.45533e-16
1.76715e-06
-4.17268e-15
2.15984e-06
-2.6225e-15
2.55254e-06
2.94524e-06
5.36931e-15
1.77778e-16
9.81747e-07
2.05087e-17
1.37445e-06
3.45315e-16
1.76715e-06
4.1725e-15
2.15984e-06
2.62226e-15
2.55254e-06
2.94524e-06
-5.36956e-15
-1.6635e-16
9.81747e-07
8.86684e-17
1.37445e-06
-5.69696e-16
1.76715e-06
2.10342e-15
2.15984e-06
-9.66012e-15
2.55254e-06
2.94524e-06
-5.29032e-15
6.88043e-17
9.81747e-07
9.20183e-17
1.37445e-06
2.7693e-15
1.76715e-06
3.68789e-16
2.15984e-06
1.45069e-15
2.55254e-06
2.94524e-06
1.76375e-16
1.43399e-16
9.81747e-07
-1.66418e-16
1.37445e-06
-4.19115e-15
1.76715e-06
-6.34945e-15
2.15984e-06
8.05413e-16
2.55254e-06
2.94524e-06
-8.39416e-16
-2.16909e-17
9.81747e-07
3.21713e-16
1.37445e-06
1.14889e-15
1.76715e-06
5.28555e-15
2.15984e-06
3.76597e-16
2.55254e-06
2.94524e-06
5.63984e-15
-2.53994e-16
9.81747e-07
-2.55421e-16
1.37445e-06
-2.06606e-15
1.76715e-06
-4.50413e-15
2.15984e-06
2.30993e-15
2.55254e-06
2.94524e-06
-5.40883e-16
1.80098e-16
9.81747e-07
-4.27667e-18
1.37445e-06
1.84777e-15
1.76715e-06
3.88605e-15
2.15984e-06
-3.15704e-15
2.55254e-06
2.94524e-06
-4.98013e-16
4.83703e-17
9.81747e-07
-3.95152e-17
1.37445e-06
-1.94292e-16
1.76715e-06
1.80604e-15
2.15984e-06
4.20851e-15
2.55254e-06
2.94524e-06
-5.01331e-15
-8.69597e-17
9.81747e-07
1.01875e-16
1.37445e-06
-2.69319e-15
1.76715e-06
-7.44276e-15
2.15984e-06
-3.25993e-15
2.55254e-06
2.94524e-06
2.79789e-15
1.16453e-16
9.81747e-07
-1.86421e-16
1.37445e-06
1.56226e-15
1.76715e-06
4.21252e-15
2.15984e-06
7.49809e-15
2.55254e-06
2.94524e-06
-7.72609e-16
-1.8626e-18
9.81747e-07
3.88772e-16
1.37445e-06
2.6041e-15
1.76715e-06
-1.9437e-15
2.15984e-06
-8.06638e-15
2.55254e-06
2.94524e-06
9.02971e-15
-1.36961e-16
-2.42122e-16
-3.77012e-16
1.33924e-15
3.6815e-15
-5.95139e-15
-1.13362e-14
4.53785e-06
-4.53785e-06
-4.81186e-16
5.23599e-06
-5.23599e-06
-5.35755e-15
5.93412e-06
-5.93412e-06
-1.13038e-14
6.63225e-06
-6.63225e-06
4.86811e-15
7.33038e-06
-7.33038e-06
-1.10982e-15
8.02851e-06
-8.02851e-06
-8.15799e-15
8.72664e-06
-8.72664e-06
1.30439e-14
9.42478e-06
-9.42478e-06
5.94947e-15
1.01229e-05
-1.01229e-05
-1.99797e-15
1.0821e-05
-1.0821e-05
2.43873e-14
1.15192e-05
-1.15192e-05
1.61883e-14
1.22173e-05
-1.22173e-05
-3.27879e-14
1.29154e-05
-1.29154e-05
-3.05093e-15
1.36136e-05
-1.36136e-05
-1.44421e-14
1.43117e-05
-1.43117e-05
-2.69045e-14
1.50098e-05
-1.50098e-05
7.7374e-15
1.5708e-05
-1.5708e-05
-4.43928e-15
1.64061e-05
-1.64061e-05
-1.80047e-14
1.71042e-05
-1.71042e-05
2.18181e-14
1.78024e-05
-1.78024e-05
8.21113e-15
1.85005e-05
-1.85005e-05
-6.08818e-15
1.91986e-05
-1.91986e-05
3.89166e-14
1.98967e-05
-1.98967e-05
2.05949e-05
-2.05949e-05
9.39869e-15
4.53785e-06
5.20109e-16
5.23599e-06
7.52823e-15
5.93412e-06
-4.41194e-15
6.63225e-06
3.78308e-15
7.33038e-06
1.3384e-14
8.02851e-06
-2.11065e-15
8.72664e-06
8.52722e-15
9.42478e-06
-1.00282e-14
1.01229e-05
1.8663e-15
1.0821e-05
-2.02031e-14
1.15192e-05
-7.01367e-15
1.22173e-05
7.51046e-15
1.29154e-05
2.36073e-14
1.36136e-05
-2.04248e-15
1.43117e-05
1.48304e-14
1.50098e-05
-1.3882e-14
1.5708e-05
2.38974e-15
1.64061e-05
2.04099e-14
1.71042e-05
-7.02091e-15
1.78024e-05
1.20676e-14
1.85005e-05
-2.59436e-14
1.91986e-05
1.8471e-15
1.98967e-05
2.05949e-05
-8.67626e-15
4.53785e-06
1.22926e-14
5.23599e-06
1.88301e-15
5.93412e-06
8.90232e-15
6.63225e-06
-5.10861e-15
7.33038e-06
-2.19914e-14
8.02851e-06
1.22642e-14
8.72664e-06
-5.37524e-15
9.42478e-06
4.45715e-15
1.01229e-05
-1.43052e-14
1.0821e-05
-7.32667e-15
1.15192e-05
7.04056e-15
1.22173e-05
2.39948e-14
1.29154e-05
-7.55461e-15
1.36136e-05
9.80037e-15
1.43117e-05
-1.62373e-14
1.50098e-05
4.02935e-14
1.5708e-05
1.44451e-14
1.64061e-05
-1.37012e-14
1.71042e-05
-7.89847e-15
1.78024e-05
-3.92531e-14
1.85005e-05
4.27496e-14
1.91986e-05
-8.84803e-15
1.98967e-05
2.05949e-05
5.98575e-15
4.53785e-06
2.18805e-16
5.23599e-06
-6.43555e-15
5.93412e-06
6.06402e-15
6.63225e-06
-2.0937e-15
7.33038e-06
1.61764e-14
8.02851e-06
-1.8831e-14
8.72664e-06
-2.35129e-15
9.42478e-06
9.17109e-15
1.01229e-05
-4.71091e-15
1.0821e-05
2.16262e-14
1.15192e-05
-2.96454e-14
1.22173e-05
-9.28988e-15
1.29154e-05
-1.8908e-14
1.36136e-05
4.4625e-15
1.43117e-05
3.01545e-14
1.50098e-05
-2.62185e-14
1.5708e-05
4.3577e-16
1.64061e-05
-2.11724e-14
1.71042e-05
1.87113e-14
1.78024e-05
-3.92382e-15
1.85005e-05
-2.91586e-14
1.91986e-05
1.52305e-14
1.98967e-05
2.05949e-05
6.71489e-15
4.53785e-06
-7.30679e-15
5.23599e-06
1.11008e-14
5.93412e-06
-4.24161e-15
6.63225e-06
1.51021e-14
7.33038e-06
-5.20981e-15
8.02851e-06
1.70134e-14
8.72664e-06
-3.94146e-15
9.42478e-06
-2.94549e-16
1.01229e-05
6.61028e-15
1.0821e-05
1.37046e-14
1.15192e-05
1.01841e-14
1.22173e-05
1.82171e-14
1.29154e-05
1.43687e-14
1.36136e-05
2.33387e-14
1.43117e-05
-2.53459e-14
1.50098e-05
2.90721e-14
1.5708e-05
-7.82924e-15
1.64061e-05
3.54133e-14
1.71042e-05
-4.51247e-15
1.78024e-05
4.23709e-14
1.85005e-05
-5.88306e-16
1.91986e-05
-8.73556e-15
1.98967e-05
2.05949e-05
-4.63073e-15
4.53785e-06
5.79735e-15
5.23599e-06
-1.61508e-14
5.93412e-06
-5.97494e-15
6.63225e-06
-8.55578e-15
7.33038e-06
4.22378e-15
8.02851e-06
-8.1867e-15
8.72664e-06
6.9991e-15
9.42478e-06
-2.42302e-14
1.01229e-05
-7.76941e-15
1.0821e-05
-2.27672e-14
1.15192e-05
8.3497e-15
1.22173e-05
-7.40602e-15
1.29154e-05
2.82641e-14
1.36136e-05
-4.57101e-14
1.43117e-05
-8.22407e-15
1.50098e-05
-2.82276e-14
1.5708e-05
-2.34199e-15
1.64061e-05
-6.9448e-15
1.71042e-05
2.21482e-14
1.78024e-05
-3.41094e-14
1.85005e-05
-3.74154e-15
1.91986e-05
-3.23491e-14
1.98967e-05
2.05949e-05
-8.92523e-15
4.53785e-06
-2.28908e-15
5.23599e-06
-2.22451e-15
5.93412e-06
6.61578e-15
6.63225e-06
-3.38888e-15
7.33038e-06
-3.90712e-15
8.02851e-06
-6.41882e-15
8.72664e-06
-7.15876e-15
9.42478e-06
6.80883e-15
1.01229e-05
6.98266e-15
1.0821e-05
-9.06567e-15
1.15192e-05
6.75859e-15
1.22173e-05
-2.88887e-14
1.29154e-05
-1.22358e-14
1.36136e-05
4.80329e-15
1.43117e-05
2.50245e-14
1.50098e-05
3.86076e-15
1.5708e-05
3.60637e-15
1.64061e-05
-2.04839e-14
1.71042e-05
-2.17631e-14
1.78024e-05
3.467e-15
1.85005e-05
2.90395e-14
1.91986e-05
-1.66386e-15
1.98967e-05
2.05949e-05
6.21542e-15
4.53785e-06
-3.87938e-15
5.23599e-06
1.54213e-14
5.93412e-06
-7.06526e-15
6.63225e-06
-2.21097e-15
7.33038e-06
1.42863e-15
8.02851e-06
-5.49333e-15
8.72664e-06
1.3225e-14
9.42478e-06
6.04509e-15
1.01229e-05
-1.7451e-14
1.0821e-05
2.08861e-14
1.15192e-05
-2.14462e-14
1.22173e-05
1.91334e-14
1.29154e-05
-7.31814e-15
1.36136e-05
3.84844e-14
1.43117e-05
-1.29239e-14
1.50098e-05
-1.88324e-15
1.5708e-05
5.71454e-15
1.64061e-05
-7.58642e-15
1.71042e-05
2.76565e-14
1.78024e-05
1.4097e-14
1.85005e-05
-5.31407e-14
1.91986e-05
3.90767e-14
1.98967e-05
2.05949e-05
-1.49891e-15
4.53785e-06
1.08969e-14
5.23599e-06
-6.59965e-15
5.93412e-06
7.26525e-15
6.63225e-06
6.17416e-15
7.33038e-06
2.4885e-15
8.02851e-06
-9.65216e-16
8.72664e-06
-4.36541e-15
9.42478e-06
-8.90065e-15
1.01229e-05
1.38617e-14
1.0821e-05
1.06897e-14
1.15192e-05
6.25058e-15
1.22173e-05
-1.26997e-16
1.29154e-05
-3.43795e-15
1.36136e-05
-1.10437e-14
1.43117e-05
-1.7765e-14
1.50098e-05
1.76807e-14
1.5708e-05
9.95401e-15
1.64061e-05
3.32741e-15
1.71042e-05
-3.29706e-14
1.78024e-05
-1.04228e-14
1.85005e-05
3.00632e-14
1.91986e-05
-5.99958e-14
1.98967e-05
2.05949e-05
5.1698e-15
4.53785e-06
-7.45568e-15
5.23599e-06
-7.56659e-16
5.93412e-06
6.83957e-15
6.63225e-06
-9.97446e-15
7.33038e-06
-1.66433e-15
8.02851e-06
9.21915e-15
8.72664e-06
-1.34598e-14
9.42478e-06
2.32218e-14
1.01229e-05
1.04713e-14
1.0821e-05
-1.72711e-14
1.15192e-05
-3.02663e-15
1.22173e-05
1.13979e-14
1.29154e-05
-1.98162e-14
1.36136e-05
-4.67887e-15
1.43117e-05
5.03053e-14
1.50098e-05
-2.40479e-14
1.5708e-05
-6.65732e-15
1.64061e-05
1.42608e-14
1.71042e-05
1.64794e-15
1.78024e-05
-6.81346e-15
1.85005e-05
1.44411e-14
1.91986e-05
5.07563e-14
1.98967e-05
2.05949e-05
-6.1974e-15
4.53785e-06
2.84168e-17
5.23599e-06
1.15117e-14
5.93412e-06
-2.06262e-14
6.63225e-06
5.36693e-15
7.33038e-06
1.22123e-15
8.02851e-06
-4.71789e-17
8.72664e-06
1.23926e-14
9.42478e-06
-1.32266e-14
1.01229e-05
-1.8895e-14
1.0821e-05
-4.96354e-15
1.15192e-05
-7.15456e-15
1.22173e-05
-1.4887e-14
1.29154e-05
3.5339e-14
1.36136e-05
-1.26481e-18
1.43117e-05
-4.31371e-14
1.50098e-05
1.35631e-14
1.5708e-05
-2.82598e-14
1.64061e-05
2.45366e-15
1.71042e-05
-1.02416e-14
1.78024e-05
2.38018e-14
1.85005e-05
1.38732e-14
1.91986e-05
-4.55613e-14
1.98967e-05
2.05949e-05
-1.90679e-15
4.53785e-06
1.13054e-15
5.23599e-06
-2.16621e-14
5.93412e-06
9.62402e-15
6.63225e-06
1.51372e-14
7.33038e-06
-1.4065e-14
8.02851e-06
8.09242e-15
8.72664e-06
-2.69595e-14
9.42478e-06
-1.96616e-15
1.01229e-05
2.97173e-14
1.0821e-05
-1.17463e-14
1.15192e-05
1.98664e-14
1.22173e-05
-2.74457e-14
1.29154e-05
-2.06161e-14
1.36136e-05
1.60391e-14
1.43117e-05
-4.61314e-15
1.50098e-05
4.69261e-15
1.5708e-05
4.7966e-14
1.64061e-05
-1.37424e-14
1.71042e-05
3.23697e-14
1.78024e-05
-3.51849e-14
1.85005e-05
-2.49068e-14
1.91986e-05
7.1914e-14
1.98967e-05
2.05949e-05
1.90653e-15
4.53785e-06
-1.13093e-15
5.23599e-06
2.16615e-14
5.93412e-06
-9.62383e-15
6.63225e-06
-1.51375e-14
7.33038e-06
1.40651e-14
8.02851e-06
-8.09337e-15
8.72664e-06
2.6959e-14
9.42478e-06
1.96578e-15
1.01229e-05
-2.97175e-14
1.0821e-05
1.17461e-14
1.15192e-05
-1.9868e-14
1.22173e-05
2.74448e-14
1.29154e-05
2.06146e-14
1.36136e-05
-1.60416e-14
1.43117e-05
4.61266e-15
1.50098e-05
-4.6941e-15
1.5708e-05
-4.7967e-14
1.64061e-05
1.37372e-14
1.71042e-05
-3.23735e-14
1.78024e-05
3.51791e-14
1.85005e-05
2.4902e-14
1.91986e-05
-7.19152e-14
1.98967e-05
2.05949e-05
6.19683e-15
4.53785e-06
-2.86545e-17
5.23599e-06
-1.1512e-14
5.93412e-06
2.06258e-14
6.63225e-06
-5.36787e-15
7.33038e-06
-1.22187e-15
8.02851e-06
4.63411e-17
8.72664e-06
-1.23942e-14
9.42478e-06
1.32261e-14
1.01229e-05
1.88946e-14
1.0821e-05
4.96353e-15
1.15192e-05
7.15221e-15
1.22173e-05
1.48867e-14
1.29154e-05
-3.53411e-14
1.36136e-05
-7.39422e-19
1.43117e-05
4.31358e-14
1.50098e-05
-1.35633e-14
1.5708e-05
2.82558e-14
1.64061e-05
-2.45614e-15
1.71042e-05
1.02386e-14
1.78024e-05
-2.38075e-14
1.85005e-05
-1.38787e-14
1.91986e-05
4.55543e-14
1.98967e-05
2.05949e-05
-5.17043e-15
4.53785e-06
7.45523e-15
5.23599e-06
7.56586e-16
5.93412e-06
-6.83997e-15
6.63225e-06
9.97293e-15
7.33038e-06
1.66419e-15
8.02851e-06
-9.21996e-15
8.72664e-06
1.34586e-14
9.42478e-06
-2.3221e-14
1.01229e-05
-1.04717e-14
1.0821e-05
1.72711e-14
1.15192e-05
3.02634e-15
1.22173e-05
-1.13985e-14
1.29154e-05
1.98166e-14
1.36136e-05
4.67722e-15
1.43117e-05
-5.03083e-14
1.50098e-05
2.40445e-14
1.5708e-05
6.65678e-15
1.64061e-05
-1.42617e-14
1.71042e-05
-1.65087e-15
1.78024e-05
6.8094e-15
1.85005e-05
-1.44464e-14
1.91986e-05
-5.07626e-14
1.98967e-05
2.05949e-05
1.49867e-15
4.53785e-06
-1.0897e-14
5.23599e-06
6.59946e-15
5.93412e-06
-7.26582e-15
6.63225e-06
-6.17552e-15
7.33038e-06
-2.48902e-15
8.02851e-06
9.64408e-16
8.72664e-06
4.36397e-15
9.42478e-06
8.90089e-15
1.01229e-05
-1.38631e-14
1.0821e-05
-1.06903e-14
1.15192e-05
-6.25104e-15
1.22173e-05
1.26887e-16
1.29154e-05
3.43826e-15
1.36136e-05
1.10421e-14
1.43117e-05
1.776e-14
1.50098e-05
-1.76806e-14
1.5708e-05
-9.9561e-15
1.64061e-05
-3.32975e-15
1.71042e-05
3.29681e-14
1.78024e-05
1.04254e-14
1.85005e-05
-3.00717e-14
1.91986e-05
5.99901e-14
1.98967e-05
2.05949e-05
-6.21581e-15
4.53785e-06
3.87917e-15
5.23599e-06
-1.5422e-14
5.93412e-06
7.06486e-15
6.63225e-06
2.21015e-15
7.33038e-06
-1.42932e-15
8.02851e-06
5.49246e-15
8.72664e-06
-1.3228e-14
9.42478e-06
-6.04731e-15
1.01229e-05
1.7449e-14
1.0821e-05
-2.0888e-14
1.15192e-05
2.14442e-14
1.22173e-05
-1.91353e-14
1.29154e-05
7.31349e-15
1.36136e-05
-3.8487e-14
1.43117e-05
1.2919e-14
1.50098e-05
1.8804e-15
1.5708e-05
-5.71729e-15
1.64061e-05
7.58508e-15
1.71042e-05
-2.76604e-14
1.78024e-05
-1.4099e-14
1.85005e-05
5.31329e-14
1.91986e-05
-3.90828e-14
1.98967e-05
2.05949e-05
8.92489e-15
4.53785e-06
2.28862e-15
5.23599e-06
2.22396e-15
5.93412e-06
-6.61741e-15
6.63225e-06
3.38783e-15
7.33038e-06
3.90735e-15
8.02851e-06
6.41775e-15
8.72664e-06
7.15743e-15
9.42478e-06
-6.81032e-15
1.01229e-05
-6.98304e-15
1.0821e-05
9.06325e-15
1.15192e-05
-6.75973e-15
1.22173e-05
2.88878e-14
1.29154e-05
1.22328e-14
1.36136e-05
-4.80629e-15
1.43117e-05
-2.50305e-14
1.50098e-05
-3.86333e-15
1.5708e-05
-3.60761e-15
1.64061e-05
2.0484e-14
1.71042e-05
2.17597e-14
1.78024e-05
-3.47041e-15
1.85005e-05
-2.9046e-14
1.91986e-05
1.66472e-15
1.98967e-05
2.05949e-05
4.63058e-15
4.53785e-06
-5.79798e-15
5.23599e-06
1.61504e-14
5.93412e-06
5.97397e-15
6.63225e-06
8.555e-15
7.33038e-06
-4.22425e-15
8.02851e-06
8.18638e-15
8.72664e-06
-6.99896e-15
9.42478e-06
2.42301e-14
1.01229e-05
7.76869e-15
1.0821e-05
2.27629e-14
1.15192e-05
-8.34973e-15
1.22173e-05
7.39956e-15
1.29154e-05
-2.82679e-14
1.36136e-05
4.57104e-14
1.43117e-05
8.21903e-15
1.50098e-05
2.82271e-14
1.5708e-05
2.33873e-15
1.64061e-05
6.94239e-15
1.71042e-05
-2.21526e-14
1.78024e-05
3.41076e-14
1.85005e-05
3.73719e-15
1.91986e-05
3.23471e-14
1.98967e-05
2.05949e-05
-6.71512e-15
4.53785e-06
7.30644e-15
5.23599e-06
-1.1101e-14
5.93412e-06
4.24148e-15
6.63225e-06
-1.51023e-14
7.33038e-06
5.2092e-15
8.02851e-06
-1.70143e-14
8.72664e-06
3.94e-15
9.42478e-06
2.94372e-16
1.01229e-05
-6.61108e-15
1.0821e-05
-1.37074e-14
1.15192e-05
-1.01861e-14
1.22173e-05
-1.82213e-14
1.29154e-05
-1.43718e-14
1.36136e-05
-2.33423e-14
1.43117e-05
2.53434e-14
1.50098e-05
-2.90734e-14
1.5708e-05
7.82348e-15
1.64061e-05
-3.54208e-14
1.71042e-05
4.51118e-15
1.78024e-05
-4.23713e-14
1.85005e-05
5.83393e-16
1.91986e-05
8.73051e-15
1.98967e-05
2.05949e-05
-5.98584e-15
4.53785e-06
-2.19065e-16
5.23599e-06
6.43546e-15
5.93412e-06
-6.06386e-15
6.63225e-06
2.09231e-15
7.33038e-06
-1.61775e-14
8.02851e-06
1.88289e-14
8.72664e-06
2.35055e-15
9.42478e-06
-9.17262e-15
1.01229e-05
4.71113e-15
1.0821e-05
-2.16299e-14
1.15192e-05
2.96426e-14
1.22173e-05
9.28709e-15
1.29154e-05
1.8905e-14
1.36136e-05
-4.46707e-15
1.43117e-05
-3.01572e-14
1.50098e-05
2.62183e-14
1.5708e-05
-4.41312e-16
1.64061e-05
2.11691e-14
1.71042e-05
-1.87136e-14
1.78024e-05
3.9192e-15
1.85005e-05
2.91575e-14
1.91986e-05
-1.52285e-14
1.98967e-05
2.05949e-05
8.67605e-15
4.53785e-06
-1.22924e-14
5.23599e-06
-1.88368e-15
5.93412e-06
-8.90206e-15
6.63225e-06
5.10777e-15
7.33038e-06
2.19894e-14
8.02851e-06
-1.22658e-14
8.72664e-06
5.37423e-15
9.42478e-06
-4.45777e-15
1.01229e-05
1.43051e-14
1.0821e-05
7.326e-15
1.15192e-05
-7.04251e-15
1.22173e-05
-2.39947e-14
1.29154e-05
7.55736e-15
1.36136e-05
-9.8013e-15
1.43117e-05
1.62357e-14
1.50098e-05
-4.02974e-14
1.5708e-05
-1.44474e-14
1.64061e-05
1.37014e-14
1.71042e-05
7.8957e-15
1.78024e-05
3.92505e-14
1.85005e-05
-4.27539e-14
1.91986e-05
8.84879e-15
1.98967e-05
2.05949e-05
-9.39892e-15
4.53785e-06
-5.20158e-16
5.23599e-06
-7.52876e-15
5.93412e-06
4.41168e-15
6.63225e-06
-3.78319e-15
7.33038e-06
-1.33853e-14
8.02851e-06
2.10863e-15
8.72664e-06
-8.52879e-15
9.42478e-06
1.00267e-14
1.01229e-05
-1.86678e-15
1.0821e-05
2.02032e-14
1.15192e-05
7.01114e-15
1.22173e-05
-7.51139e-15
1.29154e-05
-2.36067e-14
1.36136e-05
2.04001e-15
1.43117e-05
-1.48353e-14
1.50098e-05
1.3877e-14
1.5708e-05
-2.38955e-15
1.64061e-05
-2.0412e-14
1.71042e-05
7.01074e-15
1.78024e-05
-1.20672e-14
1.85005e-05
2.59373e-14
1.91986e-05
-1.84862e-15
1.98967e-05
2.05949e-05
1.13362e-14
4.53785e-06
4.81036e-16
5.23599e-06
5.35684e-15
5.93412e-06
1.13034e-14
6.63225e-06
-4.86959e-15
7.33038e-06
1.10877e-15
8.02851e-06
8.15726e-15
8.72664e-06
-1.30443e-14
9.42478e-06
-5.94902e-15
1.01229e-05
1.99638e-15
1.0821e-05
-2.43869e-14
1.15192e-05
-1.61901e-14
1.22173e-05
3.27846e-14
1.29154e-05
3.0545e-15
1.36136e-05
1.44411e-14
1.43117e-05
2.68995e-14
1.50098e-05
-7.73943e-15
1.5708e-05
4.43507e-15
1.64061e-05
1.7998e-14
1.71042e-05
-2.18263e-14
1.78024e-05
-8.21622e-15
1.85005e-05
6.08282e-15
1.91986e-05
-3.8921e-14
1.98967e-05
2.05949e-05
1.36934e-16
9.81747e-07
2.42064e-16
1.37445e-06
3.76918e-16
1.76715e-06
-1.33942e-15
2.15984e-06
-3.68166e-15
2.55254e-06
2.94524e-06
5.95115e-15
1.81609e-18
9.81747e-07
-3.88796e-16
1.37445e-06
-2.6042e-15
1.76715e-06
1.9435e-15
2.15984e-06
8.06595e-15
2.55254e-06
2.94524e-06
-9.02983e-15
-1.16473e-16
9.81747e-07
1.86403e-16
1.37445e-06
-1.56241e-15
1.76715e-06
-4.21256e-15
2.15984e-06
-7.49862e-15
2.55254e-06
2.94524e-06
7.72211e-16
8.69465e-17
9.81747e-07
-1.01961e-16
1.37445e-06
2.69316e-15
1.76715e-06
7.44283e-15
2.15984e-06
3.25965e-15
2.55254e-06
2.94524e-06
-2.79813e-15
-4.83552e-17
9.81747e-07
3.94886e-17
1.37445e-06
1.94237e-16
1.76715e-06
-1.80617e-15
2.15984e-06
-4.20866e-15
2.55254e-06
2.94524e-06
5.01333e-15
-1.80109e-16
9.81747e-07
4.29761e-18
1.37445e-06
-1.84786e-15
1.76715e-06
-3.88616e-15
2.15984e-06
3.15697e-15
2.55254e-06
2.94524e-06
4.9811e-16
2.5395e-16
9.81747e-07
2.554e-16
1.37445e-06
2.06593e-15
1.76715e-06
4.50406e-15
2.15984e-06
-2.30999e-15
2.55254e-06
2.94524e-06
5.40739e-16
2.1639e-17
9.81747e-07
-3.2171e-16
1.37445e-06
-1.14891e-15
1.76715e-06
-5.28571e-15
2.15984e-06
-3.76664e-16
2.55254e-06
2.94524e-06
-5.63999e-15
-1.43421e-16
9.81747e-07
1.66384e-16
1.37445e-06
4.1911e-15
1.76715e-06
6.34937e-15
2.15984e-06
-8.05661e-16
2.55254e-06
2.94524e-06
8.39266e-16
-6.88274e-17
9.81747e-07
-9.20638e-17
1.37445e-06
-2.76945e-15
1.76715e-06
-3.68798e-16
2.15984e-06
-1.45091e-15
2.55254e-06
2.94524e-06
-1.76696e-16
1.66333e-16
9.81747e-07
-8.87324e-17
1.37445e-06
5.69694e-16
1.76715e-06
-2.10353e-15
2.15984e-06
9.65988e-15
2.55254e-06
2.94524e-06
5.29006e-15
-1.77783e-16
9.81747e-07
-2.05339e-17
1.37445e-06
-3.45533e-16
1.76715e-06
-4.17268e-15
2.15984e-06
-2.6225e-15
2.55254e-06
2.94524e-06
5.36931e-15
1.77778e-16
9.81747e-07
2.05087e-17
1.37445e-06
3.45315e-16
1.76715e-06
4.1725e-15
2.15984e-06
2.62226e-15
2.55254e-06
2.94524e-06
-5.36956e-15
-1.6635e-16
9.81747e-07
8.86684e-17
1.37445e-06
-5.69696e-16
1.76715e-06
2.10342e-15
2.15984e-06
-9.66012e-15
2.55254e-06
2.94524e-06
-5.29032e-15
6.88043e-17
9.81747e-07
9.20183e-17
1.37445e-06
2.7693e-15
1.76715e-06
3.68789e-16
2.15984e-06
1.45069e-15
2.55254e-06
2.94524e-06
1.76375e-16
1.43399e-16
9.81747e-07
-1.66418e-16
1.37445e-06
-4.19115e-15
1.76715e-06
-6.34945e-15
2.15984e-06
8.05413e-16
2.55254e-06
2.94524e-06
-8.39416e-16
-2.16909e-17
9.81747e-07
3.21713e-16
1.37445e-06
1.14889e-15
1.76715e-06
5.28555e-15
2.15984e-06
3.76597e-16
2.55254e-06
2.94524e-06
5.63984e-15
-2.53994e-16
9.81747e-07
-2.55421e-16
1.37445e-06
-2.06606e-15
1.76715e-06
-4.50413e-15
2.15984e-06
2.30993e-15
2.55254e-06
2.94524e-06
-5.40883e-16
1.80098e-16
9.81747e-07
-4.27667e-18
1.37445e-06
1.84777e-15
1.76715e-06
3.88605e-15
2.15984e-06
-3.15704e-15
2.55254e-06
2.94524e-06
-4.98013e-16
4.83703e-17
9.81747e-07
-3.95152e-17
1.37445e-06
-1.94292e-16
1.76715e-06
1.80604e-15
2.15984e-06
4.20851e-15
2.55254e-06
2.94524e-06
-5.01331e-15
-8.69597e-17
9.81747e-07
1.01875e-16
1.37445e-06
-2.69319e-15
1.76715e-06
-7.44276e-15
2.15984e-06
-3.25993e-15
2.55254e-06
2.94524e-06
2.79789e-15
1.16453e-16
9.81747e-07
-1.86421e-16
1.37445e-06
1.56226e-15
1.76715e-06
4.21252e-15
2.15984e-06
7.49809e-15
2.55254e-06
2.94524e-06
-7.72609e-16
-1.8626e-18
9.81747e-07
3.88772e-16
1.37445e-06
2.6041e-15
1.76715e-06
-1.9437e-15
2.15984e-06
-8.06638e-15
2.55254e-06
2.94524e-06
9.02971e-15
-1.36956e-16
-2.42123e-16
-3.77051e-16
1.33921e-15
3.68149e-15
-5.95147e-15
-1.13364e-14
4.53785e-06
-4.81171e-16
5.23599e-06
-5.35768e-15
5.93412e-06
-1.13035e-14
6.63225e-06
4.86892e-15
7.33038e-06
-1.10951e-15
8.02851e-06
-8.15869e-15
8.72664e-06
1.30427e-14
9.42478e-06
5.94982e-15
1.01229e-05
-1.99811e-15
1.0821e-05
2.43871e-14
1.15192e-05
1.61883e-14
1.22173e-05
-3.27869e-14
1.29154e-05
-3.05154e-15
1.36136e-05
-1.44412e-14
1.43117e-05
-2.69022e-14
1.50098e-05
7.73858e-15
1.5708e-05
-4.43805e-15
1.64061e-05
-1.80044e-14
1.71042e-05
2.1818e-14
1.78024e-05
8.21006e-15
1.85005e-05
-6.0864e-15
1.91986e-05
3.89152e-14
1.98967e-05
2.05949e-05
9.39869e-15
4.53785e-06
5.20109e-16
5.23599e-06
7.52823e-15
5.93412e-06
-4.41194e-15
6.63225e-06
3.78308e-15
7.33038e-06
1.3384e-14
8.02851e-06
-2.11065e-15
8.72664e-06
8.52722e-15
9.42478e-06
-1.00282e-14
1.01229e-05
1.8663e-15
1.0821e-05
-2.02031e-14
1.15192e-05
-7.01367e-15
1.22173e-05
7.51046e-15
1.29154e-05
2.36073e-14
1.36136e-05
-2.04248e-15
1.43117e-05
1.48304e-14
1.50098e-05
-1.3882e-14
1.5708e-05
2.38974e-15
1.64061e-05
2.04099e-14
1.71042e-05
-7.02091e-15
1.78024e-05
1.20676e-14
1.85005e-05
-2.59436e-14
1.91986e-05
1.8471e-15
1.98967e-05
2.05949e-05
-8.67626e-15
4.53785e-06
1.22926e-14
5.23599e-06
1.88301e-15
5.93412e-06
8.90232e-15
6.63225e-06
-5.10861e-15
7.33038e-06
-2.19914e-14
8.02851e-06
1.22642e-14
8.72664e-06
-5.37524e-15
9.42478e-06
4.45715e-15
1.01229e-05
-1.43052e-14
1.0821e-05
-7.32667e-15
1.15192e-05
7.04056e-15
1.22173e-05
2.39948e-14
1.29154e-05
-7.55461e-15
1.36136e-05
9.80037e-15
1.43117e-05
-1.62373e-14
1.50098e-05
4.02935e-14
1.5708e-05
1.44451e-14
1.64061e-05
-1.37012e-14
1.71042e-05
-7.89847e-15
1.78024e-05
-3.92531e-14
1.85005e-05
4.27496e-14
1.91986e-05
-8.84803e-15
1.98967e-05
2.05949e-05
5.98575e-15
4.53785e-06
2.18805e-16
5.23599e-06
-6.43555e-15
5.93412e-06
6.06402e-15
6.63225e-06
-2.0937e-15
7.33038e-06
1.61764e-14
8.02851e-06
-1.8831e-14
8.72664e-06
-2.35129e-15
9.42478e-06
9.17109e-15
1.01229e-05
-4.71091e-15
1.0821e-05
2.16262e-14
1.15192e-05
-2.96454e-14
1.22173e-05
-9.28988e-15
1.29154e-05
-1.8908e-14
1.36136e-05
4.4625e-15
1.43117e-05
3.01545e-14
1.50098e-05
-2.62185e-14
1.5708e-05
4.3577e-16
1.64061e-05
-2.11724e-14
1.71042e-05
1.87113e-14
1.78024e-05
-3.92382e-15
1.85005e-05
-2.91586e-14
1.91986e-05
1.52305e-14
1.98967e-05
2.05949e-05
6.71489e-15
4.53785e-06
-7.30679e-15
5.23599e-06
1.11008e-14
5.93412e-06
-4.24161e-15
6.63225e-06
1.51021e-14
7.33038e-06
-5.20981e-15
8.02851e-06
1.70134e-14
8.72664e-06
-3.94146e-15
9.42478e-06
-2.94549e-16
1.01229e-05
6.61028e-15
1.0821e-05
1.37046e-14
1.15192e-05
1.01841e-14
1.22173e-05
1.82171e-14
1.29154e-05
1.43687e-14
1.36136e-05
2.33387e-14
1.43117e-05
-2.53459e-14
1.50098e-05
2.90721e-14
1.5708e-05
-7.82924e-15
1.64061e-05
3.54133e-14
1.71042e-05
-4.51247e-15
1.78024e-05
4.23709e-14
1.85005e-05
-5.88306e-16
1.91986e-05
-8.73556e-15
1.98967e-05
2.05949e-05
-4.63073e-15
4.53785e-06
5.79735e-15
5.23599e-06
-1.61508e-14
5.93412e-06
-5.97494e-15
6.63225e-06
-8.55578e-15
7.33038e-06
4.22378e-15
8.02851e-06
-8.1867e-15
8.72664e-06
6.9991e-15
9.42478e-06
-2.42302e-14
1.01229e-05
-7.76941e-15
1.0821e-05
-2.27672e-14
1.15192e-05
8.3497e-15
1.22173e-05
-7.40602e-15
1.29154e-05
2.82641e-14
1.36136e-05
-4.57101e-14
1.43117e-05
-8.22407e-15
1.50098e-05
-2.82276e-14
1.5708e-05
-2.34199e-15
1.64061e-05
-6.9448e-15
1.71042e-05
2.21482e-14
1.78024e-05
-3.41094e-14
1.85005e-05
-3.74154e-15
1.91986e-05
-3.23491e-14
1.98967e-05
2.05949e-05
-8.92523e-15
4.53785e-06
-2.28908e-15
5.23599e-06
-2.22451e-15
5.93412e-06
6.61578e-15
6.63225e-06
-3.38888e-15
7.33038e-06
-3.90712e-15
8.02851e-06
-6.41882e-15
8.72664e-06
-7.15876e-15
9.42478e-06
6.80883e-15
1.01229e-05
6.98266e-15
1.0821e-05
-9.06567e-15
1.15192e-05
6.75859e-15
1.22173e-05
-2.88887e-14
1.29154e-05
-1.22358e-14
1.36136e-05
4.80329e-15
1.43117e-05
2.50245e-14
1.50098e-05
3.86076e-15
1.5708e-05
3.60637e-15
1.64061e-05
-2.04839e-14
1.71042e-05
-2.17631e-14
1.78024e-05
3.467e-15
1.85005e-05
2.90395e-14
1.91986e-05
-1.66386e-15
1.98967e-05
2.05949e-05
6.21542e-15
4.53785e-06
-3.87938e-15
5.23599e-06
1.54213e-14
5.93412e-06
-7.06526e-15
6.63225e-06
-2.21097e-15
7.33038e-06
1.42863e-15
8.02851e-06
-5.49333e-15
8.72664e-06
1.3225e-14
9.42478e-06
6.04509e-15
1.01229e-05
-1.7451e-14
1.0821e-05
2.08861e-14
1.15192e-05
-2.14462e-14
1.22173e-05
1.91334e-14
1.29154e-05
-7.31814e-15
1.36136e-05
3.84844e-14
1.43117e-05
-1.29239e-14
1.50098e-05
-1.88324e-15
1.5708e-05
5.71454e-15
1.64061e-05
-7.58642e-15
1.71042e-05
2.76565e-14
1.78024e-05
1.4097e-14
1.85005e-05
-5.31407e-14
1.91986e-05
3.90767e-14
1.98967e-05
2.05949e-05
-1.49891e-15
4.53785e-06
1.08969e-14
5.23599e-06
-6.59965e-15
5.93412e-06
7.26525e-15
6.63225e-06
6.17416e-15
7.33038e-06
2.4885e-15
8.02851e-06
-9.65216e-16
8.72664e-06
-4.36541e-15
9.42478e-06
-8.90065e-15
1.01229e-05
1.38617e-14
1.0821e-05
1.06897e-14
1.15192e-05
6.25058e-15
1.22173e-05
-1.26997e-16
1.29154e-05
-3.43795e-15
1.36136e-05
-1.10437e-14
1.43117e-05
-1.7765e-14
1.50098e-05
1.76807e-14
1.5708e-05
9.95401e-15
1.64061e-05
3.32741e-15
1.71042e-05
-3.29706e-14
1.78024e-05
-1.04228e-14
1.85005e-05
3.00632e-14
1.91986e-05
-5.99958e-14
1.98967e-05
2.05949e-05
5.1698e-15
4.53785e-06
-7.45568e-15
5.23599e-06
-7.56659e-16
5.93412e-06
6.83957e-15
6.63225e-06
-9.97446e-15
7.33038e-06
-1.66433e-15
8.02851e-06
9.21915e-15
8.72664e-06
-1.34598e-14
9.42478e-06
2.32218e-14
1.01229e-05
1.04713e-14
1.0821e-05
-1.72711e-14
1.15192e-05
-3.02663e-15
1.22173e-05
1.13979e-14
1.29154e-05
-1.98162e-14
1.36136e-05
-4.67887e-15
1.43117e-05
5.03053e-14
1.50098e-05
-2.40479e-14
1.5708e-05
-6.65732e-15
1.64061e-05
1.42608e-14
1.71042e-05
1.64794e-15
1.78024e-05
-6.81346e-15
1.85005e-05
1.44411e-14
1.91986e-05
5.07563e-14
1.98967e-05
2.05949e-05
-6.1974e-15
4.53785e-06
2.84168e-17
5.23599e-06
1.15117e-14
5.93412e-06
-2.06262e-14
6.63225e-06
5.36693e-15
7.33038e-06
1.22123e-15
8.02851e-06
-4.71789e-17
8.72664e-06
1.23926e-14
9.42478e-06
-1.32266e-14
1.01229e-05
-1.8895e-14
1.0821e-05
-4.96354e-15
1.15192e-05
-7.15456e-15
1.22173e-05
-1.4887e-14
1.29154e-05
3.5339e-14
1.36136e-05
-1.26481e-18
1.43117e-05
-4.31371e-14
1.50098e-05
1.35631e-14
1.5708e-05
-2.82598e-14
1.64061e-05
2.45366e-15
1.71042e-05
-1.02416e-14
1.78024e-05
2.38018e-14
1.85005e-05
1.38732e-14
1.91986e-05
-4.55613e-14
1.98967e-05
2.05949e-05
-1.90679e-15
4.53785e-06
1.13054e-15
5.23599e-06
-2.16621e-14
5.93412e-06
9.62402e-15
6.63225e-06
1.51372e-14
7.33038e-06
-1.4065e-14
8.02851e-06
8.09242e-15
8.72664e-06
-2.69595e-14
9.42478e-06
-1.96616e-15
1.01229e-05
2.97173e-14
1.0821e-05
-1.17463e-14
1.15192e-05
1.98664e-14
1.22173e-05
-2.74457e-14
1.29154e-05
-2.06161e-14
1.36136e-05
1.60391e-14
1.43117e-05
-4.61314e-15
1.50098e-05
4.69261e-15
1.5708e-05
4.7966e-14
1.64061e-05
-1.37424e-14
1.71042e-05
3.23697e-14
1.78024e-05
-3.51849e-14
1.85005e-05
-2.49068e-14
1.91986e-05
7.1914e-14
1.98967e-05
2.05949e-05
1.90653e-15
4.53785e-06
-1.13093e-15
5.23599e-06
2.16615e-14
5.93412e-06
-9.62383e-15
6.63225e-06
-1.51375e-14
7.33038e-06
1.40651e-14
8.02851e-06
-8.09337e-15
8.72664e-06
2.6959e-14
9.42478e-06
1.96578e-15
1.01229e-05
-2.97175e-14
1.0821e-05
1.17461e-14
1.15192e-05
-1.9868e-14
1.22173e-05
2.74448e-14
1.29154e-05
2.06146e-14
1.36136e-05
-1.60416e-14
1.43117e-05
4.61266e-15
1.50098e-05
-4.6941e-15
1.5708e-05
-4.7967e-14
1.64061e-05
1.37372e-14
1.71042e-05
-3.23735e-14
1.78024e-05
3.51791e-14
1.85005e-05
2.4902e-14
1.91986e-05
-7.19152e-14
1.98967e-05
2.05949e-05
6.19683e-15
4.53785e-06
-2.86545e-17
5.23599e-06
-1.1512e-14
5.93412e-06
2.06258e-14
6.63225e-06
-5.36787e-15
7.33038e-06
-1.22187e-15
8.02851e-06
4.63411e-17
8.72664e-06
-1.23942e-14
9.42478e-06
1.32261e-14
1.01229e-05
1.88946e-14
1.0821e-05
4.96353e-15
1.15192e-05
7.15221e-15
1.22173e-05
1.48867e-14
1.29154e-05
-3.53411e-14
1.36136e-05
-7.39422e-19
1.43117e-05
4.31358e-14
1.50098e-05
-1.35633e-14
1.5708e-05
2.82558e-14
1.64061e-05
-2.45614e-15
1.71042e-05
1.02386e-14
1.78024e-05
-2.38075e-14
1.85005e-05
-1.38787e-14
1.91986e-05
4.55543e-14
1.98967e-05
2.05949e-05
-5.17043e-15
4.53785e-06
7.45523e-15
5.23599e-06
7.56586e-16
5.93412e-06
-6.83997e-15
6.63225e-06
9.97293e-15
7.33038e-06
1.66419e-15
8.02851e-06
-9.21996e-15
8.72664e-06
1.34586e-14
9.42478e-06
-2.3221e-14
1.01229e-05
-1.04717e-14
1.0821e-05
1.72711e-14
1.15192e-05
3.02634e-15
1.22173e-05
-1.13985e-14
1.29154e-05
1.98166e-14
1.36136e-05
4.67722e-15
1.43117e-05
-5.03083e-14
1.50098e-05
2.40445e-14
1.5708e-05
6.65678e-15
1.64061e-05