/*--------------------------------*- C++ -*----------------------------------*\
  =========                 |
  \\      /  F ield         | OpenFOAM: The Open Source CFD Toolbox
   \\    /   O peration     | Website:  https://openfoam.org
    \\  /    A nd           | Version:  11
     \\/     M anipulation  |
\*---------------------------------------------------------------------------*/
FoamFile
{
    format      ascii;
    class       volScalarField;
    location    "1.3";
    object      nut;
}
// * * * * * * * * * * * * * * * * * * * * * * * * * * * * * * * * * * * * * //

dimensions      [0 2 -1 0 0 0 0];

internalField   nonuniform List<scalar> 
2880
(
8.1359e-07
3.9908e-06
1.3053e-05
2.99202e-05
5.10777e-05
9.20872e-05
2.90568e-05
6.46964e-05
0.00011916
0.000178138
0.000233258
0.00030149
0.00016585
0.000138745
0.000234062
0.000327714
0.000410271
0.000476061
0.000181804
0.000193
0.000324314
0.000446081
0.000550199
0.000623327
0.000193243
0.000229258
0.000394566
0.000539372
0.000662629
0.000749169
4.73747e-05
0.000251016
0.000450497
0.000615171
0.000755249
0.000857688
4.82592e-05
0.000273013
0.000495692
0.000677039
0.000831671
0.000949868
5.00301e-05
0.000296024
0.000533235
0.000728382
0.000895922
0.00102777
5.12754e-05
0.00031796
0.000564214
0.000770934
0.000950487
0.00109463
5.22149e-05
0.000337318
0.00058858
0.000805356
0.000996545
0.00115233
5.28834e-05
0.00035283
0.000605858
0.000831656
0.00103443
0.00120174
5.33153e-05
0.000363254
0.000615472
0.000849441
0.00106387
0.00124294
5.35521e-05
0.000367307
0.000616887
0.000858018
0.00108417
0.00127548
5.35023e-05
0.00036499
0.000609509
0.000856437
0.00109418
0.00129843
5.31294e-05
0.00035644
0.000592438
0.000843498
0.00109231
0.0013104
5.24195e-05
0.000341311
0.000565629
0.000817777
0.00107643
0.00130949
5.13654e-05
0.000319282
0.000528237
0.000777607
0.00104374
0.00129308
4.99832e-05
0.00029004
0.000479918
0.000721192
0.000990412
0.00125758
4.84915e-05
0.000253343
0.00042059
0.000646822
0.000913088
0.00119525
0.000198677
0.000209055
0.000350688
0.00055373
0.00080553
0.00109259
0.000185536
0.000158604
0.000271135
0.000441985
0.000662213
0.000932701
0.000168897
0.000102581
0.000182929
0.000314045
0.000483461
0.000697665
2.91471e-05
4.29169e-05
8.88554e-05
0.000175428
0.00028655
0.000391808
7.90633e-07
3.36499e-06
1.7887e-05
5.7342e-05
0.000120326
0.000204277
0.000355425
0.000532901
0.000803844
0.00106221
0.00126369
0.00142529
0.0015545
0.00166098
0.00175506
0.00184729
0.00194775
0.00206552
0.00220823
0.00238229
0.00259371
0.00284932
0.00315677
0.00352083
0.00393535
0.00436547
0.00475668
0.00511362
0.00539919
0.00554688
0.000398089
0.000522423
0.00066667
0.000894239
0.00109843
0.00127312
0.00141522
0.00152982
0.00162533
0.00171133
0.00179776
0.00189431
0.00201
0.00215309
0.00233186
0.00255595
0.00283697
0.00318546
0.00360189
0.00405796
0.00448573
0.00487821
0.00521635
0.00539032
0.000502835
0.000604971
0.000647103
0.000781839
0.000955537
0.00112421
0.00127371
0.00139805
0.00150006
0.00158647
0.0016658
0.0017472
0.00183993
0.00195315
0.00209638
0.00228086
0.00252083
0.002832
0.00322326
0.00368288
0.00412864
0.00455235
0.00492003
0.00513436
0.000654266
0.000673797
0.000736517
0.000773065
0.000871428
0.000999682
0.00113678
0.00126417
0.0013735
0.0014653
0.00154457
0.00161861
0.00169568
0.00178464
0.00189508
0.00203844
0.00222968
0.00248759
0.00282938
0.00325712
0.00370904
0.0041454
0.00452771
0.00478756
0.000800751
0.000793721
0.000833242
0.000854461
0.000887318
0.000949521
0.00103746
0.00114198
0.00124728
0.0013427
0.00142584
0.00149951
0.00156942
0.0016428
0.00172811
0.00183568
0.00197927
0.00217763
0.00245263
0.00281861
0.00325348
0.0036787
0.00406673
0.00436056
0.000927863
0.000926686
0.000937456
0.000964837
0.000972686
0.000985503
0.00101588
0.00106871
0.00114207
0.00122522
0.00130706
0.00138233
0.00145133
0.00151785
0.001588
0.00166988
0.00177464
0.00191827
0.0021225
0.0024098
0.00278887
0.00319351
0.00357147
0.00387356
0.00103737
0.00106156
0.00106585
0.00107162
0.00108488
0.00108076
0.00107211
0.00107558
0.00109731
0.00114089
0.00120116
0.00126853
0.00133561
0.00139998
0.00146337
0.00153056
0.00160924
0.00171119
0.00185407
0.00206122
0.002354
0.00272118
0.00307373
0.00336372
0.00113233
0.0011835
0.00119752
0.00120264
0.00120124
0.00119658
0.00118126
0.00115339
0.00113321
0.00112737
0.00114284
0.00117925
0.00123
0.00128712
0.00134586
0.00140569
0.00146988
0.00154544
0.0016443
0.00178487
0.00199103
0.00228468
0.00260883
0.00286847
0.00121604
0.00128813
0.00132101
0.0013321
0.00133182
0.00131999
0.00130093
0.00127647
0.00123098
0.00119041
0.00116166
0.0011519
0.00116415
0.0011956
0.00123973
0.00129058
0.00134557
0.00140621
0.00147841
0.00157351
0.00170995
0.00191464
0.00219509
0.00242131
0.00128794
0.00137665
0.00142667
0.00144979
0.00145553
0.00144746
0.00142613
0.00140064
0.00136458
0.00130306
0.00124896
0.00120297
0.00117169
0.00116058
0.00117077
0.00119859
0.0012385
0.00128654
0.00134241
0.00141035
0.00150045
0.00163169
0.00184522
0.00204249
0.00135017
0.00145354
0.00151463
0.00154887
0.00156348
0.00156212
0.0015472
0.00152061
0.00149047
0.00144392
0.00137328
0.00131117
0.00125271
0.00120472
0.00117376
0.00116342
0.00117303
0.00119882
0.00123677
0.00128518
0.00134661
0.001429
0.00157049
0.00173914
0.0014035
0.00151806
0.00158715
0.00162918
0.00165116
0.00165775
0.00165089
0.00163167
0.00160279
0.00157009
0.00151648
0.00144451
0.00137824
0.00131337
0.00125564
0.00121094
0.00118362
0.00117523
0.00118442
0.0012085
0.0012456
0.00129525
0.00137493
0.00151406
0.00144804
0.00157134
0.00164609
0.001692
0.00171964
0.00173322
0.00173479
0.00172522
0.00170491
0.00167515
0.00164194
0.0015881
0.00152043
0.00145619
0.00139179
0.00133142
0.00127969
0.00124061
0.00121677
0.0012087
0.00121575
0.00123583
0.00127105
0.00136872
0.00148345
0.00161399
0.00169188
0.00173987
0.00177092
0.00179026
0.00179983
0.00180016
0.00179128
0.00177315
0.00174531
0.00171281
0.00166622
0.00161097
0.00155361
0.00149462
0.0014375
0.00138462
0.00133921
0.00130385
0.00128019
0.00126843
0.00126769
0.00132124
0.00150894
0.00164589
0.00172445
0.00177305
0.00180604
0.00183012
0.00184735
0.00185787
0.00186118
0.00185665
0.00184329
0.00182113
0.00179246
0.00175571
0.00171746
0.00167486
0.0016245
0.00157172
0.00152015
0.00147245
0.00143036
0.00139528
0.00136918
0.00138803
0.00152333
0.00166633
0.0017444
0.00179111
0.00182415
0.0018516
0.00187584
0.00189668
0.00191296
0.0019232
0.00192622
0.00192001
0.00190686
0.00188523
0.00185614
0.00182496
0.00179446
0.00176037
0.0017213
0.00167713
0.00163031
0.00158458
0.00154796
0.00154731
0.00152494
0.00167423
0.00174985
0.00179222
0.00182242
0.00185042
0.00187928
0.00190883
0.00193759
0.00196299
0.00198295
0.00199582
0.0019995
0.00199559
0.00198299
0.00196254
0.00193509
0.00190302
0.00186887
0.0018354
0.00180453
0.00177764
0.00175849
0.00175735
0.00151153
0.00166832
0.00173915
0.00177408
0.00179693
0.00182003
0.00184763
0.00188009
0.0019169
0.00195385
0.00198896
0.00202074
0.00204535
0.00205967
0.00206754
0.00206563
0.00205424
0.00203433
0.00200748
0.00197592
0.00194235
0.00191224
0.00189094
0.00188454
0.00147956
0.00164815
0.00171051
0.00173473
0.00174437
0.00175437
0.00177085
0.00179435
0.00182133
0.00185183
0.00188643
0.00192538
0.00195861
0.00198881
0.00201915
0.00204307
0.00205964
0.00206822
0.00206856
0.00206136
0.00204869
0.0020332
0.00201894
0.00201224
0.00142533
0.00161299
0.00166644
0.00167372
0.00166436
0.00165197
0.00164582
0.00164461
0.00165191
0.00167174
0.00170062
0.00173739
0.00177132
0.00180549
0.00184302
0.00187613
0.00190415
0.00192682
0.00194405
0.00195552
0.00196157
0.00196417
0.00196574
0.00196684
0.00134338
0.00156276
0.00160637
0.00159356
0.00156162
0.00151931
0.0014816
0.0014549
0.00144284
0.00144464
0.00145861
0.00148366
0.0015121
0.00154971
0.0015943
0.00163959
0.00168272
0.00172167
0.00175565
0.00178461
0.00180888
0.0018289
0.00184513
0.00186023
0.00122646
0.00149436
0.00153307
0.00150036
0.00144365
0.00136925
0.0013018
0.00124557
0.00120499
0.00118511
0.00118426
0.00119774
0.00122754
0.00126178
0.0013022
0.00134735
0.00139511
0.00144261
0.00148937
0.00153458
0.00157761
0.00161737
0.00165249
0.00168543
0.00106481
0.00140807
0.00145123
0.00140469
0.00132288
0.00122487
0.0011337
0.00105936
0.000999474
0.000958193
0.00094026
0.000940675
0.000942767
0.000959233
0.000988498
0.00102672
0.00107023
0.00111565
0.00116081
0.00120461
0.00124654
0.00128631
0.00132221
0.00135969
0.000873255
0.00131424
0.00136876
0.00131604
0.0012179
0.00110844
0.0010149
0.000941206
0.000880955
0.000842376
0.000792368
0.000762069
0.000755637
0.000767606
0.000795105
0.000831859
0.000872639
0.000913328
0.000949228
0.000978347
0.0010007
0.00101739
0.00102307
0.00103267
7.67996e-07
2.84776e-06
1.43442e-05
4.42232e-05
0.000101549
4.5971e-05
2.85714e-05
3.89093e-05
7.56116e-05
0.000125932
0.000176518
0.00022619
0.000165294
8.58268e-05
0.000144186
0.000211605
0.000286426
0.000412226
0.000182715
0.000127901
0.000204431
0.000289515
0.000400823
0.000569738
0.000194379
0.000165556
0.000257732
0.000361701
0.000501149
0.000687567
4.74547e-05
0.000199564
0.000304666
0.000425948
0.000581428
0.000770955
4.89392e-05
0.000227934
0.000345156
0.000480197
0.000642322
0.000825186
5.01529e-05
0.000250793
0.000378887
0.000522749
0.000686834
0.000856893
5.10405e-05
0.000268173
0.000405649
0.000554821
0.000714678
0.000869767
5.16077e-05
0.000280259
0.000425893
0.000575569
0.000728476
0.000866309
5.18633e-05
0.000287211
0.000438628
0.000586475
0.00072979
0.000848283
5.18364e-05
0.000289117
0.000444437
0.000588297
0.00071997
0.000817007
5.15171e-05
0.000286041
0.000443514
0.000581741
0.000700151
0.000774066
5.09547e-05
0.000277798
0.000436116
0.000567407
0.000671481
0.00072181
5.02301e-05
0.000264316
0.000422535
0.000545883
0.000635236
0.000662465
4.92843e-05
0.000246939
0.000403319
0.000517962
0.000592622
0.000597657
4.79242e-05
0.000227935
0.000379554
0.000484479
0.000545018
0.000528211
0.000200511
0.000213819
0.000352368
0.000446377
0.000494655
0.000458467
0.000194273
0.000201747
0.00032172
0.000403927
0.000442762
0.000395713
0.00018562
0.000185509
0.000285642
0.000355739
0.000389084
0.000342801
0.000173691
0.000159798
0.000239622
0.000297782
0.00032977
0.000296859
0.000158081
0.000117717
0.00017677
0.000222911
0.000254725
0.000248736
2.77329e-05
5.52836e-05
9.16557e-05
0.000125162
0.000150274
0.000184951
8.02326e-07
3.05361e-06
8.02537e-06
1.61049e-05
2.67619e-05
7.06219e-05
0.000772701
0.00123997
0.00129937
0.00124737
0.001142
0.00103141
0.000942309
0.00087507
0.000827344
0.000789424
0.000744687
0.000714871
0.000715831
0.000747211
0.000803845
0.000874409
0.000947064
0.00101007
0.00106075
0.00110046
0.00113024
0.00114989
0.00115552
0.00118462
0.000823192
0.00119775
0.00125917
0.0012018
0.00109605
0.000997036
0.000919924
0.000864525
0.000824316
0.000786087
0.000733765
0.000719138
0.000736417
0.000785208
0.000858462
0.000945108
0.0010284
0.00110418
0.00117389
0.00123953
0.00130278
0.00136282
0.00142858
0.00153736
0.000895208
0.00118051
0.00122822
0.0011693
0.00107739
0.000992362
0.000924773
0.000874723
0.00083939
0.000782834
0.000738745
0.000732699
0.000769266
0.00084266
0.000935994
0.00103188
0.0011256
0.00121578
0.00130302
0.00139021
0.00148342
0.00159868
0.00175774
0.00194372
0.000952404
0.00116954
0.00120876
0.00115419
0.00107293
0.000995869
0.0009308
0.000884951
0.000836386
0.00076581
0.000743052
0.000769352
0.000845299
0.000952275
0.00107292
0.00119664
0.00131737
0.00143494
0.00155255
0.00167576
0.00181317
0.00198149
0.00219251
0.00242208
0.000994319
0.00116772
0.00119256
0.00114023
0.00106345
0.000987865
0.000922224
0.00087505
0.000808357
0.00077198
0.0007858
0.000859507
0.000974526
0.00110854
0.00124977
0.00139289
0.00153901
0.00169374
0.00186534
0.00206471
0.00230432
0.00259281
0.00291179
0.00317079
0.00102174
0.00116061
0.00117111
0.00111451
0.00103628
0.000959331
0.000902049
0.00085488
0.000793041
0.000796241
0.000865734
0.000986435
0.00113105
0.00128292
0.00143681
0.00159478
0.00176445
0.00195717
0.00218792
0.00247393
0.0028284
0.0032469
0.0036573
0.00394769
0.00103466
0.00114231
0.00113597
0.00106984
0.000989425
0.00091598
0.000882453
0.000815116
0.000808767
0.000873679
0.000996032
0.00114587
0.00130445
0.00146718
0.00163751
0.00182278
0.00203376
0.0022852
0.00259453
0.0029763
0.00343029
0.00392127
0.0043649
0.00466984
0.00103178
0.00110983
0.00108224
0.00100628
0.000922102
0.000893469
0.000837402
0.000814002
0.000875135
0.000996638
0.00114846
0.00131154
0.0014808
0.00165895
0.00185313
0.00207479
0.00233985
0.0026673
0.00307358
0.00356193
0.00410907
0.00463577
0.00509108
0.00537468
0.00101304
0.00106084
0.00101068
0.000933681
0.000878412
0.000848264
0.00081926
0.00087641
0.000993816
0.00114488
0.00130996
0.00148249
0.00166408
0.00186104
0.00208388
0.00234781
0.00267265
0.00307901
0.00357858
0.00416127
0.0047699
0.00534141
0.00581102
0.00608574
0.000978792
0.000995707
0.000928835
0.00085984
0.000846126
0.000814733
0.000862787
0.000975554
0.00112799
0.00129672
0.0014723
0.00165535
0.00185199
0.00207209
0.00232934
0.00264201
0.00303156
0.00351593
0.00409717
0.0047492
0.00538909
0.00598303
0.00644146
0.0067093
0.000929325
0.000918284
0.000851092
0.00082334
0.000807017
0.000831766
0.000944766
0.00110083
0.00127356
0.00145133
0.00163443
0.00182914
0.00204459
0.00229247
0.00258818
0.00295157
0.00340368
0.00395708
0.00460249
0.00529297
0.00595189
0.00654007
0.00697741
0.00723156
0.000865923
0.000834721
0.000784309
0.000783725
0.000792426
0.000903518
0.00106186
0.00123883
0.00142018
0.00160419
0.00179638
0.00200564
0.00224256
0.00251995
0.00285417
0.00326506
0.00377102
0.00437754
0.00506451
0.00576892
0.00642907
0.00699492
0.0074122
0.00764146
0.000793251
0.000754188
0.000748562
0.000754466
0.000837136
0.00100128
0.00118626
0.00137656
0.00156521
0.00175642
0.00195952
0.00218538
0.0024454
0.00275251
0.00312254
0.0035735
0.00411944
0.00475853
0.00546223
0.00616095
0.0068017
0.00733468
0.00772802
0.00793061
0.000718629
0.000687452
0.000719428
0.000749654
0.000918042
0.00111554
0.00131913
0.00151681
0.00170992
0.00190825
0.00212365
0.00236759
0.00265107
0.00298589
0.00338592
0.00386577
0.00443424
0.00508319
0.00577907
0.00645375
0.007057
0.00754803
0.00790985
0.00809185
0.000645651
0.000642724
0.000687564
0.000792453
0.00100733
0.00123458
0.0014517
0.00165465
0.0018531
0.00206049
0.00228976
0.00255213
0.00285747
0.00321556
0.00363705
0.0041319
0.00470338
0.00533871
0.00600289
0.00663582
0.00718514
0.00762603
0.00794978
0.00811078
0.000566697
0.000619729
0.000674811
0.000864586
0.00112851
0.0013691
0.00159051
0.00179492
0.00199791
0.00221466
0.00245798
0.00273787
0.00306213
0.00343751
0.00387034
0.00436511
0.00491968
0.00551834
0.00612757
0.00669986
0.00717917
0.00756055
0.00783557
0.00797349
0.000468348
0.000603896
0.000689867
0.00095222
0.00125631
0.00150619
0.00172714
0.00193376
0.00214312
0.00237058
0.00262802
0.00292366
0.0032627
0.00364829
0.00408183
0.00456192
0.00508125
0.0056223
0.00615506
0.0066412
0.00703896
0.00733794
0.00755255
0.00766048
0.00036686
0.000593435
0.000735701
0.00105513
0.00138557
0.00164194
0.00186503
0.002075
0.00229128
0.00252939
0.00279986
0.00310853
0.00345754
0.00384603
0.00427034
0.00472325
0.00519245
0.00565872
0.00609534
0.00647148
0.00676117
0.0069506
0.00707096
0.00713115
0.000294163
0.000594493
0.000804937
0.00118637
0.00152694
0.00178345
0.00200625
0.00221909
0.00244242
0.00269095
0.00297311
0.00329186
0.00364599
0.00403072
0.00443768
0.00485437
0.00526379
0.00564428
0.00597022
0.00621462
0.00635605
0.00639092
0.00634917
0.00630399
0.000264827
0.000613854
0.000896041
0.00133898
0.00167675
0.00192893
0.0021509
0.00236664
0.00259704
0.00285547
0.00314771
0.0034736
0.00382854
0.00420419
0.00458825
0.00496405
0.00531065
0.00560354
0.00581565
0.00591855
0.00588583
0.00570234
0.00538561
0.00502354
0.000276334
0.000650416
0.00101705
0.0014961
0.00182255
0.00207853
0.00229976
0.00251797
0.00275518
0.0030228
0.00332352
0.0036539
0.00400628
0.00436937
0.00472803
0.00506292
0.00535094
0.00556627
0.0056814
0.00566685
0.00548789
0.00509539
0.00439823
0.00326247
0.000301317
0.000703966
0.00119283
0.00167753
0.00199223
0.00223749
0.00245326
0.00267271
0.00291633
0.00319233
0.00349989
0.00383246
0.00417981
0.00452855
0.00486183
0.00515934
0.00539803
0.00555365
0.00560255
0.00552247
0.00529143
0.00488322
0.00425782
0.00335443
0.00033082
0.000806397
0.00139805
0.00186615
0.00216852
0.00240042
0.00260932
0.00282978
0.00307955
0.0033629
0.00367539
0.0040078
0.00434794
0.00468103
0.00498947
0.00525298
0.00544976
0.0055582
0.0055589
0.00543581
0.005176
0.0047669
0.0041897
0.0034161
0.000368014
0.000944214
0.0016288
0.00206878
0.00235303
0.00256558
0.00276602
0.00298758
0.00324322
0.00353253
0.00384766
0.00417716
0.00450748
0.00482301
0.0051059
0.00533654
0.0054949
0.00556265
0.00552514
0.0053725
0.00509903
0.00470082
0.00417229
0.00350514
9.89092e-07
8.9948e-06
3.70674e-05
9.14777e-05
0.000194612
5.98081e-05
3.25477e-05
0.000101703
0.000215586
0.000368867
0.000564245
0.00056407
0.000184346
0.000213221
0.000414004
0.000657161
0.000938108
0.00111713
4.76072e-05
0.000301996
0.000584194
0.000897994
0.00123986
0.00154538
5.11093e-05
0.000368896
0.000721683
0.00109081
0.00147995
0.00184329
5.38382e-05
0.000419281
0.000830705
0.00124284
0.00166419
0.00205365
5.59999e-05
0.000459502
0.000913511
0.0013603
0.00180309
0.00220285
5.76291e-05
0.000491867
0.000974106
0.00144686
0.00190426
0.00230677
5.87638e-05
0.000517366
0.00101623
0.00150643
0.00197349
0.00237531
5.94449e-05
0.000536125
0.0010413
0.00154182
0.00201509
0.00241571
5.97196e-05
0.000547656
0.00105031
0.00155484
0.00203216
0.00243163
5.9645e-05
0.000551074
0.00104345
0.0015467
0.00202607
0.00242534
5.9294e-05
0.000545233
0.00102066
0.00151804
0.00199744
0.00239859
5.86453e-05
0.000529825
0.000981937
0.00146841
0.00194684
0.00235207
5.76254e-05
0.00050525
0.000926315
0.0013959
0.00187297
0.00228548
5.62106e-05
0.000471884
0.000856804
0.00130511
0.00177639
0.00219517
5.43946e-05
0.000430075
0.000772885
0.00119313
0.00165761
0.00208392
5.21928e-05
0.000380402
0.000675421
0.00106018
0.00151188
0.00194415
4.97688e-05
0.000323827
0.000565944
0.000907253
0.00133538
0.00176804
4.71215e-05
0.000261612
0.000447086
0.000736519
0.00112381
0.00154371
0.000186078
0.000195196
0.000322909
0.000552418
0.000875264
0.00125694
0.000169255
0.000124671
0.000199067
0.000362512
0.000599851
0.000883385
2.93513e-05
5.10683e-05
8.51044e-05
0.000181445
0.000325134
0.000424778
8.02853e-07
3.03634e-06
1.49024e-05
5.47914e-05
0.00012031
4.56397e-05
0.000470949
0.00127719
0.00196019
0.00231211
0.00254216
0.00272805
0.0029204
0.0031441
0.00340529
0.00369875
0.0040137
0.00433706
0.00465433
0.00494944
0.00520466
0.00540132
0.00552158
0.00555064
0.00547873
0.0053018
0.0050204
0.00463725
0.00415517
0.00357321
0.00116804
0.00186736
0.0022797
0.00253384
0.00271435
0.00288046
0.00306954
0.00329728
0.00356343
0.00385878
0.00417039
0.00448408
0.00478473
0.00505604
0.00528059
0.00544094
0.00552165
0.0055117
0.00540619
0.00520658
0.00491887
0.0045511
0.00411235
0.00360682
0.00168113
0.00221366
0.00251453
0.0027112
0.00286377
0.0030213
0.00321232
0.0034454
0.00371529
0.00400992
0.00431494
0.00461544
0.00489595
0.00514007
0.00533089
0.00545238
0.00549179
0.00544205
0.0053033
0.00508246
0.00479062
0.00444019
0.00404455
0.00361099
0.00203538
0.00244889
0.00269476
0.00285788
0.0029961
0.00315239
0.00334839
0.00358685
0.0038587
0.0041499
0.00444522
0.00472933
0.00498652
0.00520044
0.00535481
0.00543525
0.00543195
0.00534216
0.00517131
0.00493179
0.00463929
0.00430948
0.00395811
0.00359396
0.00228034
0.00263093
0.00283918
0.00298213
0.0031147
0.00327444
0.00347691
0.00372003
0.00399187
0.00427707
0.00455993
0.00482489
0.0050561
0.00523735
0.0053531
0.00539086
0.00534412
0.00521491
0.00501431
0.00476016
0.00447206
0.00416744
0.00386232
0.00356477
0.00245583
0.00277127
0.00295531
0.00308792
0.00322113
0.00338741
0.00359692
0.0038436
0.00411347
0.00439042
0.00465855
0.00490216
0.00510531
0.00525198
0.00532753
0.00532165
0.00523165
0.00506497
0.00483876
0.004576
0.00429891
0.00402468
0.00376707
0.00353121
0.00258494
0.00287704
0.00304803
0.00317784
0.00331626
0.00349103
0.00370754
0.00395656
0.00422273
0.00448961
0.00474124
0.00496186
0.00513544
0.00524618
0.00528054
0.00523083
0.00509896
0.00489849
0.00465287
0.0043893
0.00413056
0.00389108
0.0036801
0.00349852
0.00268029
0.0029545
0.0031211
0.00325373
0.00340057
0.00358497
0.00380812
0.00405835
0.00431942
0.00457485
0.00480874
0.00500526
0.00514825
0.00522221
0.00521502
0.00512224
0.00495131
0.00472268
0.00446573
0.00421005
0.00397623
0.00377364
0.00360576
0.00346944
0.00274678
0.0030108
0.00317754
0.00331685
0.00347433
0.00366897
0.00389831
0.0041488
0.00440376
0.00464683
0.00486221
0.00503396
0.00514579
0.00518261
0.00513415
0.00500018
0.00479468
0.00454533
0.00428626
0.00404664
0.00384212
0.00367569
0.00354531
0.003445
0.00278805
0.00304862
0.00321919
0.00336804
0.00353767
0.00374289
0.00397802
0.0042281
0.00447632
0.00470655
0.00490308
0.00504979
0.00513026
0.00513005
0.00504142
0.00486938
0.00463542
0.00437408
0.00412193
0.00390461
0.00373085
0.00359735
0.00349795
0.00342529
0.00280733
0.00306962
0.00324721
0.00340778
0.00359063
0.00380666
0.00404737
0.00429672
0.00453795
0.00475525
0.00493293
0.00505465
0.00510392
0.00506732
0.00494048
0.00473484
0.00447982
0.00421553
0.00397789
0.00378628
0.00364199
0.00353672
0.0034619
0.00340991
0.00280733
0.00307514
0.00326238
0.00343635
0.0036332
0.00386029
0.00410664
0.0043553
0.00458968
0.00479427
0.00495341
0.00505047
0.00506906
0.00499729
0.00483519
0.00460157
0.00433357
0.00407454
0.00385658
0.00369125
0.00357323
0.00349103
0.00343514
0.00339833
0.00278974
0.0030662
0.0032652
0.00345385
0.00366516
0.00390367
0.00415613
0.00440457
0.00463258
0.00482499
0.00496612
0.00503912
0.00502791
0.00492286
0.00472939
0.00447427
0.00420122
0.00395389
0.00375808
0.00361735
0.00352144
0.00345742
0.00341574
0.00338994
0.0027556
0.00304351
0.00325601
0.00346021
0.00368589
0.00393628
0.00419606
0.00444529
0.00466778
0.00484878
0.00497264
0.0050224
0.00498271
0.00484695
0.00462681
0.00435697
0.00408578
0.00385433
0.00368073
0.00356155
0.00348351
0.00343346
0.00340183
0.00338415
0.0027055
0.00300759
0.00323499
0.00345528
0.00369386
0.00395648
0.00422648
0.0044782
0.00469638
0.00486694
0.00497443
0.00500204
0.00493563
0.00477239
0.00453083
0.00425274
0.00398873
0.00377501
0.00362191
0.00352069
0.00345656
0.00341632
0.00339273
0.00338041
0.00263949
0.00295876
0.00320216
0.00343773
0.00368683
0.00396314
0.00424754
0.00450409
0.00471943
0.00488069
0.00497288
0.00497969
0.00488881
0.0047019
0.00444434
0.00416363
0.00391018
0.00371408
0.00357875
0.00349185
0.00343818
0.00340497
0.00338718
0.00337821
0.00255582
0.00289723
0.00315757
0.00340238
0.00366466
0.00395756
0.00425984
0.00452387
0.004738
0.00489113
0.00496922
0.00495691
0.00484429
0.00463794
0.00436963
0.0040907
0.00384939
0.00366934
0.00354852
0.00347251
0.0034264
0.00339867
0.00338407
0.00337697
0.00245669
0.00282332
0.00309739
0.00334901
0.00362805
0.00394181
0.00426317
0.00453844
0.00475305
0.00489925
0.00496455
0.00493509
0.00480392
0.0045826
0.00430828
0.00403422
0.0038051
0.00363872
0.00352912
0.00346099
0.0034198
0.00339543
0.00338278
0.00337652
0.00233818
0.00273756
0.00301416
0.00327737
0.00357836
0.00391765
0.00426043
0.00454919
0.00476553
0.00490584
0.00495975
0.00491546
0.00476929
0.00453752
0.00426126
0.00399384
0.00377585
0.0036203
0.00351878
0.00345581
0.00341811
0.00339537
0.00338308
0.00337665
0.00219659
0.00263495
0.00290915
0.00318897
0.00351823
0.00388816
0.00425503
0.00455784
0.00477637
0.00491154
0.00495554
0.00489902
0.00474173
0.00450388
0.00422896
0.00396894
0.0037603
0.0036126
0.00351628
0.0034562
0.00341954
0.00339752
0.00338462
0.0033772
0.00202578
0.00250701
0.00278284
0.00308668
0.00345208
0.00385779
0.00425067
0.00456613
0.00478632
0.00491676
0.00495241
0.00488659
0.00472222
0.00448243
0.00421139
0.00395892
0.00375732
0.00361454
0.00352072
0.00346139
0.0034244
0.00340139
0.00338706
0.00337803
0.00181588
0.00234243
0.0026352
0.00297585
0.00338684
0.00383242
0.00425128
0.00457555
0.00479581
0.00492164
0.00495064
0.00487871
0.00471141
0.00447347
0.00420831
0.00396221
0.00376596
0.00362548
0.00353172
0.0034712
0.00343237
0.00340717
0.00339049
0.00337922
0.00152575
0.00214782
0.00247387
0.00286749
0.00333287
0.00381907
0.00426027
0.0045869
0.00480479
0.004926
0.00495024
0.00487569
0.00470967
0.00447724
0.00421943
0.00397973
0.00378618
0.00364534
0.00354931
0.00348573
0.0034436
0.00341504
0.00339513
0.00338091
0.00112658
0.00193764
0.00231918
0.00278107
0.00330351
0.00382459
0.00427868
0.0045997
0.00481254
0.00492929
0.00495096
0.00487749
0.00471699
0.00449321
0.00424435
0.00401035
0.00381783
0.00367436
0.00357391
0.00350543
0.0034585
0.00342538
0.00340126
0.00338329
8.21508e-07
2.37788e-06
1.02155e-05
3.77155e-05
9.18331e-05
0.000176164
2.93696e-05
3.96104e-05
5.99919e-05
0.000113466
0.00019172
0.000325933
0.00016823
8.69078e-05
0.000122686
0.000201294
0.000288859
0.000510067
0.000184709
0.000129246
0.000187913
0.000273485
0.000389208
0.000675445
0.000200251
0.000170605
0.000248539
0.000337959
0.00049303
0.000815925
4.99679e-05
0.000210553
0.000301282
0.000405397
0.000601364
0.000935586
5.26139e-05
0.000247059
0.000349472
0.00047847
0.000706735
0.00104327
5.49019e-05
0.000279585
0.000396619
0.00055344
0.000806145
0.00114119
5.66608e-05
0.000308242
0.000443564
0.000626416
0.000891087
0.0012226
5.79243e-05
0.000332937
0.000489407
0.000694433
0.000965799
0.00128769
5.87358e-05
0.000353255
0.000532303
0.00075418
0.00103106
0.00134313
5.91299e-05
0.000368563
0.000571872
0.000808932
0.00108248
0.00137553
5.91456e-05
0.00037791
0.000603976
0.000849023
0.00111736
0.00139163
5.88933e-05
0.000380213
0.00062576
0.000875532
0.00113746
0.00139374
5.85793e-05
0.000374354
0.000636218
0.000887984
0.00114173
0.00138312
5.80914e-05
0.000361275
0.000634764
0.000886095
0.00112911
0.00136012
5.73138e-05
0.000341891
0.000621473
0.000868717
0.00110067
0.00132219
5.61113e-05
0.000317303
0.000595828
0.000834897
0.00105809
0.00126338
5.43044e-05
0.000288265
0.000556301
0.000785388
0.000996379
0.00118753
5.1631e-05
0.000254589
0.000500485
0.000712823
0.000910107
0.00109721
4.76714e-05
0.000214745
0.000423978
0.000611956
0.000790333
0.000983102
0.000183729
0.000163072
0.000318466
0.000472081
0.000625641
0.000797512
3.28654e-05
8.48749e-05
0.00017607
0.00027618
0.000390723
0.000521785
9.93696e-07
6.76173e-06
2.64962e-05
6.08965e-05
0.000112051
0.000199803
0.00110214
0.00177067
0.00222106
0.00274215
0.00331045
0.0038538
0.00430037
0.00461165
0.00481757
0.00493018
0.00495208
0.0048836
0.00473264
0.00452082
0.00428245
0.00405398
0.00386116
0.00371316
0.00360625
0.00353102
0.0034777
0.00343869
0.00340929
0.00338664
0.00113833
0.00171219
0.00219442
0.00275713
0.00335332
0.00390094
0.00432345
0.00462039
0.00481783
0.00492789
0.0049528
0.00489317
0.00475573
0.00455902
0.00433292
0.00411042
0.00391658
0.00376254
0.00364733
0.00356347
0.00350206
0.0034557
0.00341968
0.00339125
0.00118465
0.00169826
0.00221756
0.00281553
0.0034226
0.00395059
0.00434264
0.00462273
0.00481161
0.00492061
0.00495171
0.00490482
0.00478473
0.00460628
0.00439468
0.0041793
0.00398452
0.00382355
0.00369843
0.00360408
0.00353273
0.00347727
0.00343285
0.00339723
0.00123563
0.00172377
0.00228008
0.0029019
0.00350224
0.00398935
0.0043514
0.00461344
0.00479565
0.00490633
0.00494705
0.00491664
0.0048175
0.00466056
0.00446619
0.00426
0.00406535
0.00389732
0.00376113
0.00365447
0.00357107
0.00350432
0.00344946
0.00340478
0.00129792
0.00178357
0.00237025
0.00299975
0.0035684
0.00401205
0.00434501
0.00459112
0.00476802
0.00488316
0.00493676
0.00492618
0.00485131
0.00471911
0.00454521
0.0043512
0.00415892
0.00398477
0.00383702
0.0037164
0.00361863
0.00353807
0.00347061
0.00341458
0.00137352
0.00186875
0.00247158
0.00308921
0.00361033
0.00401333
0.00431941
0.00455199
0.00472656
0.00484908
0.00491846
0.00493053
0.00488277
0.00477844
0.00462852
0.00445048
0.00426397
0.00408591
0.00392713
0.00379148
0.00367718
0.00358014
0.00349733
0.00342699
0.00146013
0.00196535
0.00256582
0.00315044
0.00362237
0.00398863
0.00427183
0.00449433
0.00466965
0.00480217
0.00488959
0.00492642
0.004908
0.00483424
0.00471188
0.0045541
0.00437778
0.00419937
0.00403144
0.00388073
0.00374824
0.003632
0.00353055
0.00344215
0.00154965
0.00205741
0.00263103
0.00317367
0.00360276
0.00393648
0.00420126
0.00441736
0.00459617
0.00474068
0.00484761
0.00491044
0.00492277
0.00488171
0.00479011
0.004657
0.00449597
0.00432202
0.00414837
0.003984
0.00383264
0.00369476
0.00357102
0.00346005
0.00161984
0.00211589
0.00267438
0.00316235
0.00354973
0.00385706
0.00410822
0.00432118
0.00450552
0.00466316
0.00479016
0.0048793
0.00492291
0.0049158
0.00485748
0.00475307
0.00461257
0.00444869
0.00427418
0.00409922
0.00392972
0.00376862
0.00361905
0.00348038
0.00168894
0.00216475
0.00267256
0.00311266
0.00346623
0.00375286
0.00399436
0.00420654
0.00439754
0.00456853
0.00471525
0.0048301
0.00490455
0.00493166
0.00490813
0.00483558
0.00472038
0.00457237
0.00440276
0.00422177
0.0040366
0.00385211
0.00367388
0.00350228
0.00172871
0.00217422
0.00263479
0.00303177
0.00335706
0.00362741
0.00386197
0.00407464
0.00427245
0.00445614
0.00462138
0.00476049
0.00486444
0.00492499
0.00493664
0.00489791
0.00481173
0.00468477
0.00452595
0.00434443
0.00414758
0.00394132
0.00373298
0.00352382
0.00174374
0.0021541
0.0025665
0.00292624
0.00322765
0.0034846
0.00371364
0.00392696
0.00413083
0.00432579
0.00450763
0.00466882
0.00480012
0.00489242
0.00493844
0.00493414
0.00487931
0.00477739
0.00463455
0.00445805
0.0042544
0.00402949
0.00379136
0.00354148
0.00173622
0.00210882
0.00247635
0.00280304
0.0030834
0.00332835
0.003552
0.00376519
0.00397359
0.00417774
0.0043737
0.00455422
0.00471009
0.00483163
0.00491025
0.00493973
0.00491708
0.00484266
0.00471968
0.00455294
0.00434726
0.00410758
0.00384137
0.00354955
0.0017101
0.00204445
0.00237178
0.00266851
0.00292924
0.00316233
0.00337975
0.00359119
0.00380196
0.0040127
0.00421985
0.00441657
0.00459379
0.00474155
0.00485022