/*--------------------------------*- C++ -*----------------------------------*\
  =========                 |
  \\      /  F ield         | OpenFOAM: The Open Source CFD Toolbox
   \\    /   O peration     | Website:  https://openfoam.org
    \\  /    A nd           | Version:  11
     \\/     M anipulation  |
\*---------------------------------------------------------------------------*/
FoamFile
{
    format      ascii;
    class       surfaceVectorField;
    location    "1.3";
    object      Uf;
}
// * * * * * * * * * * * * * * * * * * * * * * * * * * * * * * * * * * * * * //

dimensions      [0 1 -1 0 0 0 0];

internalField   nonuniform List<vector> 
5640
(
(0.0472698 -0.00703594 -2.59212e-19)
(0.0399812 -0.00625779 3.68926e-19)
(0.0768036 -0.0739892 -2.86787e-19)
(0.0558626 -0.0472315 -4.65729e-20)
(0.108707 -0.146737 -2.44298e-19)
(0.0961382 -0.1371 -1.35333e-20)
(0.145442 -0.235609 -3.63832e-19)
(0.117669 -0.19448 1.04575e-19)
(0.172429 -0.330495 -1.02829e-19)
(0.162964 -0.302448 -2.57938e-19)
(0.148351 -0.283867 0)
(0.412063 -0.367839 1.94109e-20)
(0.0443376 -0.0390997 6.10017e-19)
(0.0385336 -0.0243534 3.78144e-19)
(0.0709325 -0.111393 2.31039e-19)
(0.0491122 -0.0779955 4.81784e-19)
(0.098611 -0.184854 3.45854e-19)
(0.0825629 -0.163105 1.83225e-19)
(0.123981 -0.253713 2.29788e-19)
(0.0990415 -0.219733 1.87485e-19)
(0.151234 -0.314333 -1.61293e-19)
(0.12718 -0.288978 1.2226e-19)
(0.126876 -0.277664 3.37471e-20)
(0.296766 -0.281555 0)
(0.038424 -0.056543 2.35531e-19)
(0.0331367 -0.0367194 -2.82182e-19)
(0.0590252 -0.129126 4.4529e-19)
(0.0392897 -0.0968492 -2.20456e-19)
(0.0813573 -0.196779 2.23262e-20)
(0.0656658 -0.174548 -1.53066e-19)
(0.0996846 -0.24972 7.84838e-20)
(0.0788698 -0.224443 -2.07132e-19)
(0.119241 -0.281244 2.93798e-19)
(0.0990711 -0.267097 1.70311e-19)
(0.110994 -0.25539 -3.10376e-20)
(0.210057 -0.240662 3.93552e-20)
(0.0311569 -0.0703331 -7.44304e-19)
(0.0268691 -0.0487405 -2.96265e-19)
(0.0460437 -0.141123 -8.21576e-19)
(0.0293535 -0.111138 -2.32982e-19)
(0.0632471 -0.200626 -3.79928e-19)
(0.0490425 -0.180236 -1.68796e-19)
(0.0780493 -0.239932 -1.23813e-19)
(0.0598217 -0.221464 -1.97211e-20)
(0.0974069 -0.254864 -1.61713e-19)
(0.0764243 -0.247291 -1.42326e-19)
(0.0955146 -0.235025 -3.30253e-20)
(0.163369 -0.220344 -4.65551e-20)
(0.0233883 -0.082736 2.11412e-19)
(0.0201947 -0.0604073 2.88203e-19)
(0.0332274 -0.149063 4.15011e-19)
(0.0197078 -0.121566 4.55398e-19)
(0.0457871 -0.199705 1.85771e-19)
(0.033076 -0.181715 1.797e-19)
(0.0581974 -0.228093 -3.47961e-20)
(0.0416763 -0.214274 0)
(0.0774587 -0.233527 -1.05361e-20)
(0.0559217 -0.228817 -3.57998e-20)
(0.0776476 -0.215805 -1.27234e-19)
(0.129772 -0.205384 3.70371e-20)
(0.0157407 -0.0924809 5.23664e-19)
(0.0114994 -0.0690111 -4.49335e-20)
(0.0206569 -0.15311 2.31819e-19)
(0.00978345 -0.127734 -1.01124e-20)
(0.0289945 -0.195241 0)
(0.0175022 -0.179652 1.83761e-19)
(0.0392801 -0.214815 0)
(0.02396 -0.204362 1.50525e-19)
(0.0573244 -0.214049 -1.55182e-19)
(0.0359345 -0.210789 3.44061e-20)
(0.0571547 -0.196634 -6.539e-20)
(0.0998921 -0.189946 -3.47136e-19)
(0.0045757 -0.0985142 -5.77697e-19)
(-0.000582128 -0.0724438 -7.25749e-19)
(0.00756022 -0.15334 -6.6848e-20)
(-0.00138795 -0.129861 -2.04909e-19)
(0.0124325 -0.188049 3.35409e-19)
(0.00194299 -0.174792 3.82603e-21)
(0.0204931 -0.200395 1.88186e-19)
(0.00631218 -0.192576 -3.39889e-20)
(0.0362367 -0.195014 1.28268e-19)
(0.015705 -0.192683 2.00469e-19)
(0.0343533 -0.177002 1.25071e-19)
(0.0706899 -0.17298 2.16542e-19)
(-0.00846102 -0.0998505 -3.82019e-19)
(-0.01304 -0.0735129 -3.24366e-20)
(-0.00630831 -0.150498 -1.43356e-19)
(-0.0138247 -0.129293 2.72061e-20)
(-0.00418045 -0.17887 -3.64309e-19)
(-0.0137314 -0.168005 -1.79968e-19)
(0.00145784 -0.185063 -2.86229e-20)
(-0.0114641 -0.179482 -1.65876e-19)
(0.0139785 -0.175755 2.00421e-19)
(-0.00500513 -0.174253 5.19937e-20)
(0.0096482 -0.156649 1.07198e-21)
(0.0409179 -0.154414 -1.25775e-19)
(-0.0197632 -0.099523 3.77473e-19)
(-0.0234888 -0.0744146 3.56883e-19)
(-0.0205474 -0.145884 0)
(-0.0265959 -0.127007 0)
(-0.0209322 -0.168384 1.79885e-20)
(-0.0293618 -0.15998 -2.13099e-20)
(-0.0179068 -0.169014 -9.16011e-20)
(-0.0293572 -0.165537 3.6311e-20)
(-0.00929865 -0.155965 -1.45728e-19)
(-0.0261775 -0.155393 -1.14137e-19)
(-0.0164953 -0.135435 -3.00509e-20)
(0.0101994 -0.134321 -3.64324e-20)
(-0.0306605 -0.0984829 0)
(-0.0325064 -0.0742469 0)
(-0.0347394 -0.140163 -2.04031e-20)
(-0.0391679 -0.123571 1.33458e-20)
(-0.0376109 -0.157099 -5.1301e-21)
(-0.0447489 -0.151197 -1.97531e-19)
(-0.0374886 -0.152394 1.81896e-20)
(-0.0471677 -0.151089 3.60717e-20)
(-0.033363 -0.135545 0)
(-0.0476509 -0.136062 -1.5922e-20)
(-0.0435353 -0.113357 -3.05085e-20)
(-0.0213476 -0.112807 -1.11642e-21)
(-0.0407156 -0.0963678 1.25759e-20)
(-0.0401752 -0.0727561 1.15115e-20)
(-0.0485713 -0.1337 -1.54642e-19)
(-0.0512114 -0.119305 6.88743e-21)
(-0.0540162 -0.145349 -1.64418e-19)
(-0.0597009 -0.141983 -1.76617e-19)
(-0.0570683 -0.135354 3.62018e-21)
(-0.0647064 -0.136343 1.83782e-20)
(-0.05778 -0.114513 -4.60808e-20)
(-0.0691029 -0.116358 8.07522e-20)
(-0.0708452 -0.0904876 -1.09817e-21)
(-0.0533044 -0.0899959 8.7006e-20)
(-0.049819 -0.0930876 6.2085e-21)
(-0.0464825 -0.0698381 1.15115e-20)
(-0.0618083 -0.126741 -7.08502e-21)
(-0.0625019 -0.114402 -6.45839e-21)
(-0.0699733 -0.133331 -3.79852e-22)
(-0.0740553 -0.132537 1.43993e-19)
(-0.0763771 -0.118055 9.39637e-20)
(-0.081789 -0.121472 -1.25917e-19)
(-0.0820437 -0.0929945 1.27619e-19)
(-0.0901431 -0.0964575 -1.61286e-19)
(-0.0977646 -0.0669539 2.94104e-20)
(-0.08504 -0.0660505 2.11423e-19)
(-0.0577013 -0.0887993 0)
(-0.051447 -0.0654843 0)
(-0.0742892 -0.119416 1.38243e-19)
(-0.072839 -0.108921 -2.10002e-19)
(-0.0852856 -0.121224 2.72624e-20)
(-0.0877033 -0.122989 1.33766e-19)
(-0.0950977 -0.100689 -3.80162e-19)
(-0.0982194 -0.106658 -1.35477e-19)
(-0.10563 -0.0711371 -2.64131e-19)
(-0.110382 -0.076561 1.53014e-20)
(-0.123607 -0.0429195 0)
(-0.115879 -0.0411116 -1.40311e-19)
(-0.0644415 -0.0834242 -1.97886e-19)
(-0.0550929 -0.059697 0)
(-0.0858749 -0.111793 -2.29107e-19)
(-0.0820182 -0.102897 -1.04356e-19)
(-0.0998467 -0.109158 -2.04335e-20)
(-0.100577 -0.113416 -1.06208e-20)
(-0.112962 -0.0834585 2.5562e-19)
(-0.11385 -0.0920921 1.34697e-19)
(-0.128019 -0.0491483 2.79799e-19)
(-0.12947 -0.056919 1.44392e-19)
(-0.147702 -0.018623 -3.02812e-20)
(-0.145055 -0.0154246 -7.05364e-20)
(-0.0699136 -0.0769923 9.95588e-20)
(-0.0574284 -0.0525433 1.83544e-19)
(-0.096423 -0.103897 1.1015e-19)
(-0.0897982 -0.0962981 2.06225e-19)
(-0.113574 -0.0972557 1.39381e-19)
(-0.112668 -0.103838 -6.86249e-20)
(-0.129757 -0.0665992 2.30403e-20)
(-0.128606 -0.0779761 1.44667e-19)
(-0.148735 -0.0273125 -1.61516e-19)
(-0.147133 -0.0378487 -7.21654e-20)
(-0.169454 0.00560386 2.93186e-20)
(-0.171754 0.0107633 6.91688e-20)
(-0.074033 -0.0695918 2.88877e-19)
(-0.0584094 -0.0441462 2.88193e-21)
(-0.105805 -0.0956917 3.93436e-20)
(-0.0959781 -0.0890006 9.7166e-20)
(-0.12646 -0.0856157 -7.02219e-20)
(-0.123985 -0.094232 2.34371e-20)
(-0.145356 -0.0503894 5.55664e-20)
(-0.1425 -0.0645306 -4.08107e-21)
(-0.167412 -0.0059669 1.16237e-19)
(-0.163197 -0.0197347 1.56969e-20)
(-0.188353 0.029398 7.10831e-21)
(-0.195406 0.0372788 6.95042e-20)
(-0.0767443 -0.0614621 -1.94449e-19)
(-0.0579227 -0.0346625 -9.01049e-20)
(-0.113945 -0.0870764 8.45959e-20)
(-0.100391 -0.0807977 5.27112e-20)
(-0.138534 -0.0743179 9.0997e-20)
(-0.13456 -0.0845247 9.20343e-20)
(-0.159737 -0.0351544 -4.45113e-20)
(-0.15564 -0.0519848 -4.49372e-21)
(-0.183785 0.0144685 -9.31935e-20)
(-0.177619 -0.0030527 -4.11777e-20)
(-0.203976 0.0522757 -5.25282e-20)
(-0.215454 0.0638475 -6.12573e-20)
(-0.0777797 -0.052617 1.49073e-19)
(-0.0558575 -0.0242796 -1.50702e-21)
(-0.12079 -0.0778669 5.84763e-20)
(-0.102694 -0.0713992 5.21373e-21)
(-0.149894 -0.0634165 0)
(-0.144474 -0.0745747 0)
(-0.173005 -0.021266 -1.57252e-22)
(-0.168261 -0.0405608 0)
(-0.197727 0.0334459 -1.65666e-22)
(-0.190525 0.0116097 -3.37686e-20)
(-0.216017 0.0735731 0)
(-0.231428 0.0901642 9.26515e-21)
(-0.0764945 -0.0407325 -1.46037e-19)
(-0.0508892 -0.0132873 -9.28009e-20)
(-0.126211 -0.0677397 -5.29762e-20)
(-0.102477 -0.0603459 -5.83995e-20)
(-0.160733 -0.0528937 0)
(-0.153871 -0.064118 -7.55298e-22)
(-0.185445 -0.00914364 -3.26987e-20)
(-0.180747 -0.0304465 -1.91911e-20)
(-0.209306 0.0502091 -3.44484e-20)
(-0.202297 0.0235343 -1.76641e-20)
(-0.224297 0.0923559 1.63258e-20)
(-0.242978 0.115808 -7.10067e-21)
(-0.0718748 -0.0289232 -7.12383e-21)
(-0.0437911 -0.00202811 0)
(-0.130238 -0.0562323 -8.60484e-21)
(-0.100204 -0.0468368 5.60242e-20)
(-0.17135 -0.0426393 -1.93694e-20)
(-0.162941 -0.052772 -7.55298e-22)
(-0.197586 0.000747401 -4.1993e-21)
(-0.193668 -0.0217455 -3.63508e-21)
(-0.218941 0.0637368 3.24001e-20)
(-0.213723 0.0318823 3.77511e-20)
(-0.228515 0.107198 7.14317e-22)
(-0.24978 0.140178 4.33584e-20)
(-0.0662741 -0.0163735 5.99159e-20)
(-0.0369943 0.00921887 1.55373e-19)
(-0.133576 -0.0429847 6.62899e-20)
(-0.096723 -0.0305518 1.23283e-19)
(-0.182084 -0.0325578 1.49852e-20)
(-0.171676 -0.0401562 6.5528e-21)
(-0.210245 0.00783757 3.72723e-20)
(-0.207748 -0.0143755 1.55091e-20)
(-0.227537 0.0725021 6.66812e-21)
(-0.226173 0.0357277 5.79699e-20)
(-0.22734 0.115851 4.57306e-20)
(-0.251175 0.162495 -4.35906e-20)
(-0.0606952 -0.00307957 2.20462e-19)
(-0.0302341 0.020203 -2.55925e-20)
(-0.136131 -0.0280312 6.96791e-20)
(-0.090876 -0.0112619 -7.89698e-20)
(-0.192901 -0.0226959 6.77418e-21)
(-0.178857 -0.0255359 2.08101e-20)
(-0.224337 0.0113966 3.48742e-20)
(-0.223373 -0.00779596 -2.29887e-20)
(-0.236584 0.0741769 9.69575e-20)
(-0.241249 0.0343103 -3.05959e-20)
(-0.215455 0.115232 -2.5513e-21)
(-0.245693 0.182393 -3.36901e-21)
(-0.0524992 0.0121686 -3.27935e-19)
(-0.019212 0.031159 1.74707e-20)
(-0.135459 -0.0110925 -1.32462e-19)
(-0.0740852 0.0133626 -1.40149e-19)
(-0.202231 -0.0125091 -4.8026e-21)
(-0.175184 -0.00555457 2.90884e-20)
(-0.239044 0.0118039 -9.10541e-20)
(-0.235819 0.000172525 -1.31849e-19)
(-0.245637 0.0664917 -1.34891e-19)
(-0.254775 0.0285601 -1.47498e-19)
(-0.184311 0.102091 -6.6143e-20)
(-0.230176 0.201167 1.15321e-20)
(-0.033243 0.0353758 2.13575e-19)
(-0.117861 0.0207155 1.42001e-20)
(-0.198862 0.0157138 -8.4604e-20)
(-0.244949 0.0287342 -1.88514e-19)
(-0.24986 0.0706333 -8.07006e-20)
(-0.214539 0.229986 0)
(0.969389 -0.624178 6.76316e-21)
(0.66346 -0.466358 2.32795e-20)
(0.932389 -0.693542 -1.31618e-19)
(1.1793 -0.627958 4.90364e-20)
(1.05408 -0.568928 -1.74938e-20)
(1.13234 -0.677975 1.53943e-20)
(1.28239 -0.585902 1.09328e-19)
(1.22765 -0.573869 3.66888e-20)
(1.24274 -0.62161 5.4811e-20)
(1.34293 -0.53644 6.4667e-20)
(1.31817 -0.543559 4.01437e-21)
(1.30974 -0.566681 2.69208e-20)
(1.37918 -0.485752 4.71371e-20)
(1.37248 -0.501211 4.77479e-22)
(1.35094 -0.512373 2.55625e-20)
(1.40064 -0.434918 1.73801e-20)
(1.40621 -0.454739 2.17471e-21)
(1.37545 -0.45877 1.96858e-20)
(1.41194 -0.386324 -3.06539e-22)
(1.42516 -0.407037 -2.61613e-21)
(1.38935 -0.408262 -6.49043e-22)
(1.41594 -0.340933 1.32349e-21)
(1.4342 -0.360771 2.42925e-21)
(1.39574 -0.361446 9.54119e-21)
(1.41449 -0.29915 -7.25084e-23)
(1.4361 -0.317183 -7.87679e-21)
(1.39653 -0.318519 -3.75304e-21)
(1.40889 -0.261105 -6.22234e-21)
(1.43262 -0.276849 4.63455e-21)
(1.39302 -0.279512 1.34554e-20)
(1.40012 -0.226767 -9.64253e-21)
(1.42506 -0.240021 -4.80328e-21)
(1.38618 -0.244334 -5.34771e-22)
(1.38892 -0.19599 -5.49974e-22)
(1.4144 -0.206746 -5.52556e-21)
(1.37676 -0.212798 -3.17805e-20)
(1.37588 -0.168556 1.71119e-21)
(1.40143 -0.176931 1.6054e-20)
(1.36535 -0.184651 -8.52249e-21)
(1.36139 -0.144216 -1.25511e-20)
(1.38673 -0.150401 -1.23749e-20)
(1.35237 -0.159613 2.34516e-20)
(1.34568 -0.122734 -1.7448e-20)
(1.37069 -0.126944 -2.85034e-20)
(1.33808 -0.137406 -3.76606e-21)
(1.32876 -0.103924 7.65769e-21)
(1.35348 -0.106365 2.25706e-20)
(1.32259 -0.117794 -2.8909e-21)
(1.31049 -0.0876738 1.26038e-20)
(1.33505 -0.0885256 2.04993e-20)
(1.30581 -0.100617 4.79256e-21)
(1.29051 -0.0739488 -4.53656e-21)
(1.31519 -0.0733714 -2.16146e-20)
(1.28751 -0.0858038 1.57171e-20)
(1.2683 -0.0627854 -4.59878e-21)
(1.29348 -0.0609077 2.81309e-20)
(1.26725 -0.0733563 -1.17776e-20)
(1.24309 -0.0543089 7.09905e-21)
(1.26927 -0.0510992 3.17442e-20)
(1.24435 -0.0632339 0)
(1.21385 -0.0487751 2.33042e-20)
(1.24155 -0.0439178 -2.36457e-20)
(1.21785 -0.0553821 1.09708e-22)
(1.17929 -0.0466318 3.5385e-20)
(1.20955 -0.0407284 2.87023e-20)
(1.18706 -0.0512142 4.89875e-20)
(1.1375 -0.0487037 4.01551e-20)
(1.17336 -0.0464455 -1.07421e-20)
(1.15209 -0.0558056 -6.27722e-20)
(1.13 -0.0613515 -1.88435e-20)
(1.11048 -0.0688957 7.89514e-21)
(0.760633 -0.42267 0)
(0.441192 -0.287646 0)
(1.09165 -0.518873 -5.00485e-20)
(0.875479 -0.424729 0)
(1.259 -0.535178 -8.80955e-20)
(1.13955 -0.485403 -5.1119e-20)
(1.34652 -0.510066 -6.43076e-20)
(1.28865 -0.495251 -3.67085e-20)
(1.3986 -0.471148 -4.74559e-20)
(1.3709 -0.472838 -2.74442e-20)
(1.42983 -0.427702 -2.0174e-20)
(1.42092 -0.437615 -1.98971e-20)
(1.44692 -0.382223 0)
(1.45141 -0.396425 -3.88519e-20)
(1.45415 -0.337624 -6.64812e-21)
(1.46751 -0.353575 0)
(1.45417 -0.295386 -3.31564e-21)
(1.47334 -0.310978 -6.72836e-21)
(1.4488 -0.256193 6.10947e-21)
(1.47182 -0.270364 -2.53939e-20)
(1.4394 -0.220367 -6.11653e-22)
(1.46483 -0.232563 2.57292e-20)
(1.42699 -0.188002 1.08619e-20)
(1.45377 -0.197974 -5.91131e-23)
(1.41237 -0.159044 2.02119e-21)
(1.43971 -0.166746 1.74323e-20)
(1.39612 -0.133353 -2.81623e-20)
(1.42348 -0.138864 -1.85266e-20)
(1.37858 -0.110762 1.09829e-20)
(1.40568 -0.114224 -5.82453e-21)
(1.35986 -0.0911274 3.52755e-20)
(1.3866 -0.0926999 2.7144e-20)
(1.33985 -0.0743628 -1.34137e-20)
(1.36631 -0.0741947 1.36282e-20)
(1.31826 -0.0604435 1.06055e-20)
(1.34464 -0.0586759 -3.48075e-20)
(1.2946 -0.0494033 6.42848e-20)
(1.32127 -0.0461528 3.25354e-20)
(1.26811 -0.0413664 -9.8826e-22)
(1.29562 -0.0366086 2.19146e-20)
(1.2377 -0.0366197 -1.86909e-20)
(1.26669 -0.0300239 -2.08113e-20)
(1.20188 -0.0357273 1.2149e-21)
(1.23359 -0.0276992 1.23661e-20)
(1.15836 -0.0398018 9.49538e-22)
(1.19632 -0.0344291 3.12342e-22)
(1.15152 -0.0513082 1.23777e-20)
(0.560209 -0.291969 0)
(0.303311 -0.21527 2.19896e-20)
(0.920075 -0.387322 0)
(0.674248 -0.298207 3.16513e-20)
(1.16549 -0.44699 0)
(0.978725 -0.372928 1.10841e-19)
(1.31046 -0.459532 0)
(1.19334 -0.415919 1.12067e-19)
(1.39251 -0.440403 0)
(1.3286 -0.422568 -3.70808e-20)
(1.44197 -0.407087 -3.83111e-20)
(1.40936 -0.404572 6.32462e-20)
(1.47132 -0.36852 -3.9351e-20)
(1.45866 -0.373932 7.3273e-20)
(1.4862 -0.327548 0)
(1.48808 -0.336925 5.65766e-20)
(1.49081 -0.286478 -2.86298e-20)
(1.50309 -0.297853 2.61724e-21)
(1.48782 -0.247179 -6.30703e-21)
(1.50695 -0.258466 -3.22645e-20)
(1.47925 -0.210554 2.65349e-20)
(1.50291 -0.220683 2.99574e-20)
(1.46657 -0.17705 6.27437e-21)
(1.49308 -0.185457 8.76944e-21)
(1.45092 -0.14685 -3.0272e-21)
(1.47902 -0.153272 8.18308e-21)
(1.43314 -0.119975 3.62822e-21)
(1.46193 -0.124341 -4.73188e-21)
(1.41379 -0.096363 9.92793e-21)
(1.44269 -0.0987134 9.8497e-21)
(1.39315 -0.0759391 5.78449e-21)
(1.42186 -0.0763596 -3.46798e-21)
(1.37121 -0.058658 -7.28567e-21)
(1.39965 -0.0572453 9.12174e-21)
(1.34777 -0.0445173 -1.32846e-20)
(1.37604 -0.0413752 -1.31929e-20)
(1.32247 -0.033553 -9.58241e-21)
(1.35081 -0.0287746 0)
(1.29461 -0.0258863 4.20711e-23)
(1.32354 -0.0194509 -1.63957e-21)
(1.26307 -0.0218262 9.87424e-21)
(1.29335 -0.0133704 2.02755e-20)
(1.22616 -0.0220728 1.13482e-20)
(1.25923 -0.0117794 -2.61912e-20)
(1.18117 -0.0280885 1.14818e-20)
(1.22104 -0.0193348 1.14161e-20)
(1.17509 -0.0382175 0)
(0.412092 -0.219445 5.34092e-20)
(0.221945 -0.18929 2.19896e-20)
(0.729036 -0.2791 1.39446e-19)
(0.502586 -0.216046 -2.89628e-21)
(1.00381 -0.341312 2.2381e-19)
(0.791588 -0.27078 2.64934e-20)
(1.20796 -0.379597 7.79536e-20)
(1.03585 -0.32013 -3.10406e-20)
(1.34276 -0.387864 2.46411e-20)
(1.22261 -0.348881 7.01806e-21)
(1.42507 -0.372227 1.74594e-19)
(1.35167 -0.35192 6.06821e-21)
(1.47499 -0.342935 1.69654e-19)
(1.43517 -0.336657 1.01254e-19)
(1.50444 -0.307847 6.01232e-20)
(1.48622 -0.308952 4.01268e-20)
(1.51873 -0.270349 3.69401e-22)
(1.51658 -0.275209 -3.14657e-20)
(1.52183 -0.232422 4.27326e-21)
(1.53168 -0.239167 -2.30258e-21)
(1.5167 -0.195982 1.18589e-20)
(1.53463 -0.202787 3.61369e-20)
(1.50558 -0.162023 1.04998e-20)
(1.52889 -0.167837 -3.30827e-20)
(1.49012 -0.131061 6.54796e-21)
(1.51686 -0.135351 2.29251e-20)
(1.47159 -0.103335 1.65126e-21)
(1.50033 -0.105852 1.89765e-20)
(1.45087 -0.0789243 -3.44044e-21)
(1.48059 -0.0795836 -7.1168e-21)
(1.42847 -0.0578478 -1.98522e-22)
(1.45856 -0.0566458 -3.46798e-21)
(1.4046 -0.0401208 3.31694e-21)
(1.43473 -0.0370844 3.89375e-21)
(1.37921 -0.0257798 0)
(1.40928 -0.0209559 -5.71166e-22)
(1.35207 -0.0148753 7.95377e-21)
(1.38215 -0.00832219 -5.64799e-21)
(1.32271 -0.00751848 1.62979e-20)
(1.35312 0.000794976 1.81912e-20)
(1.29004 -0.00403224 -2.10697e-20)
(1.32156 0.0064286 1.59966e-20)
(1.25219 -0.00525619 -2.63472e-20)
(1.28649 0.00742833 -2.9138e-21)
(1.20598 -0.0130657 0)
(1.24753 -0.000687943 -2.21849e-20)
(1.2008 -0.0214744 0)
(0.305843 -0.181732 -3.37193e-20)
(0.167935 -0.174862 -1.95264e-19)
(0.559881 -0.205207 -1.14043e-19)
(0.371568 -0.169151 3.67267e-21)
(0.819923 -0.248611 -2.21607e-19)
(0.615702 -0.196273 -8.12673e-20)
(1.04748 -0.28913 -1.01073e-19)
(0.852804 -0.233742 -2.56517e-19)
(1.22827 -0.31338 -1.82822e-20)
(1.06175 -0.265449 -5.64153e-20)
(1.35897 -0.317378 -8.01324e-20)
(1.23157 -0.282296 -2.39993e-20)
(1.44498 -0.303356 -3.14337e-20)
(1.35913 -0.281881 -1.20767e-19)
(1.49795 -0.276904 -5.12382e-20)
(1.44722 -0.266789 -8.02439e-20)
(1.52901 -0.244494 -3.49295e-20)
(1.50295 -0.241451 -8.23001e-20)
(1.54394 -0.209976 2.95493e-20)
(1.53586 -0.210459 1.30944e-19)
(1.54655 -0.175055 -8.7997e-21)
(1.55213 -0.176952 -3.55954e-20)
(1.54011 -0.141522 -2.18283e-20)
(1.55532 -0.143579 -4.89446e-20)
(1.52709 -0.110454 3.53883e-20)
(1.54874 -0.111627 -3.82486e-20)
(1.5094 -0.0823713 1.03583e-20)
(1.53524 -0.082175 5.4449e-20)
(1.48838 -0.0575346 -7.17333e-21)
(1.51682 -0.0557459 -1.60465e-20)
(1.46493 -0.0360756 5.9613e-22)
(1.49487 -0.0325979 0)
(1.43954 -0.0180845 7.56334e-23)
(1.47031 -0.0128726 6.00683e-22)
(1.41237 -0.00365073 -6.18388e-21)
(1.44359 0.00331475 -5.71166e-22)
(1.3834 0.00714403 4.71659e-21)
(1.4149 0.0158522 -5.64799e-21)
(1.35242 0.0141993 1.53268e-20)
(1.38419 0.0246981 3.73917e-21)
(1.3186 0.0171968 2.84918e-20)
(1.35121 0.0298637 1.08084e-20)
(1.27996 0.0151839 2.56278e-20)
(1.31525 0.0303948 2.32774e-20)
(1.23285 0.00581304 -2.23124e-20)
(1.27571 0.0220234 -1.85986e-20)
(1.22867 -0.00042132 0)
(0.228026 -0.159361 -1.5873e-19)
(0.125008 -0.161069 -6.469e-20)
(0.422496 -0.15855 3.90206e-20)
(0.273046 -0.14134 7.68154e-20)
(0.644838 -0.180271 -1.12919e-19)
(0.465931 -0.147041 0)
(0.864042 -0.209396 -2.15816e-19)
(0.67387 -0.167745 7.51892e-22)
(1.06248 -0.234063 -6.26249e-20)
(0.877224 -0.191203 1.08317e-19)
(1.22906 -0.247147 -6.8386e-20)
(1.06329 -0.208927 1.35903e-19)
(1.35854 -0.246309 -1.75374e-19)
(1.22247 -0.215972 4.33875e-20)
(1.45022 -0.232242 -1.11281e-19)
(1.35034 -0.211392 -2.12059e-19)
(1.50902 -0.207953 8.17925e-20)
(1.44406 -0.195253 -4.7755e-20)
(1.54351 -0.177816 6.57734e-20)
(1.50655 -0.171002 3.91802e-20)
(1.56033 -0.145915 -7.55727e-20)
(1.54395 -0.142201 1.99735e-20)
(1.56357 -0.114077 -6.48263e-20)
(1.56272 -0.111298 -1.5993e-20)
(1.55674 -0.0836936 -2.02936e-20)
(1.56728 -0.080852 -9.00225e-20)
(1.54264 -0.0558495 2.80746e-20)
(1.56091 -0.0521191 6.34119e-20)
(1.52335 -0.0310641 -9.49841e-21)
(1.54682 -0.0260553 2.239e-20)
(1.50033 -0.00960761 0)
(1.52722 -0.0031373 -3.0305e-20)
(1.47448 0.00835051 0)
(1.50363 0.0163844 0)
(1.44627 0.0226655 0)
(1.47695 0.032339 0)
(1.4159 0.0332089 -6.191e-21)
(1.44765 0.0445688 3.40347e-22)
(1.38344 0.0398764 2.83017e-21)
(1.41589 0.0529842 -1.13457e-20)
(1.3485 0.042398 5.51701e-21)
(1.38174 0.0575847 5.48314e-21)
(1.30928 0.0397747 3.56495e-21)
(1.34501 0.057672 -8.45094e-21)
(1.26171 0.0291631 3.60693e-21)
(1.30518 0.0493552 1.85295e-20)
(1.25849 0.0256737 -1.25845e-20)
(0.165958 -0.141699 1.71119e-19)
(0.0859379 -0.145335 -6.59577e-20)
(0.312415 -0.128477 3.94034e-20)
(0.194737 -0.120936 3.52078e-22)
(0.491562 -0.133581 1.11488e-19)
(0.342438 -0.114373 1.02838e-19)
(0.684132 -0.148796 3.19251e-19)
(0.513297 -0.121278 -9.36569e-21)
(0.87548 -0.165584 3.04787e-19)
(0.694024 -0.13383 2.09266e-19)
(1.05447 -0.177749 2.49922e-19)
(0.873975 -0.145584 -5.04519e-20)
(1.21199 -0.181436 9.80158e-21)
(1.04385 -0.152093 1.54864e-19)
(1.34151 -0.175171 -1.50492e-19)
(1.19606 -0.150737 -1.5704e-19)
(1.43925 -0.159362 -9.52762e-20)
(1.32423 -0.140612 -6.75699e-20)
(1.50564 -0.136034 -9.31276e-21)
(1.42383 -0.122303 3.2026e-20)
(1.54566 -0.107983 8.06414e-20)
(1.49393 -0.0979689 8.69736e-20)
(1.56582 -0.0784549 -3.91381e-20)
(1.5379 -0.0706219 4.12009e-20)
(1.57096 -0.0496584 -6.94945e-21)
(1.56093 -0.0423451 -1.80386e-21)
(1.56485 -0.0226811 5.80694e-20)
(1.56812 -0.0148846 1.79452e-21)
(1.5506 0.00156623 1.58545e-21)
(1.56326 0.010341 -3.76647e-20)
(1.53053 0.0226003 -3.05347e-20)
(1.54968 0.0326246 3.1495e-20)
(1.50618 0.040167 0)
(1.52987 0.0515744 0)
(1.47845 0.0540778 3.37982e-22)
(1.50544 0.0669737 1.17966e-20)
(1.44785 0.0641608 -4.21762e-21)
(1.47732 0.0786434 1.34651e-20)
(1.41465 0.0702836 -4.93014e-21)
(1.44597 0.0864386 -4.89872e-21)
(1.37894 0.0722532 -8.39875e-21)
(1.41162 0.0903404 7.81681e-21)
(1.3395 0.0691383 -7.90087e-21)
(1.37463 0.0898807 -1.41405e-20)
(1.29206 0.0576649 1.02213e-19)
(1.33497 0.0818754 1.18253e-20)
(1.28959 0.0575542 -5.09982e-21)
(0.111768 -0.124167 -2.36244e-19)
(0.0477829 -0.127235 -1.95487e-19)
(0.221524 -0.106015 6.25953e-20)
(0.12743 -0.102135 -7.68453e-20)
(0.361169 -0.101375 -1.68871e-20)
(0.238813 -0.0901114 2.79356e-19)
(0.520483 -0.105712 -1.21293e-19)
(0.373735 -0.0885157 -1.85443e-19)
(0.690102 -0.113366 -1.39294e-19)
(0.524851 -0.0923462 -5.482e-20)
(0.861307 -0.119744 -1.47134e-19)
(0.685153 -0.0970092 -1.96118e-19)
(1.02597 -0.121455 -7.36613e-21)
(0.847562 -0.0990287 1.43445e-19)
(1.17671 -0.116509 -7.43151e-20)
(1.00508 -0.0959289 7.47358e-20)
(1.30639 -0.104205 6.00312e-20)
(1.15143 -0.0863981 6.85286e-21)
(1.40961 -0.0853232 1.29713e-19)
(1.27964 -0.0703087 -3.65641e-21)
(1.48419 -0.0615842 4.73782e-20)
(1.38415 -0.048847 5.73054e-20)
(1.53184 -0.0350878 8.08914e-20)
(1.46194 -0.0236083 -4.84981e-20)
(1.55734 -0.00799398 6.97848e-21)
(1.51363 0.00319134 3.29051e-20)
(1.56598 0.0177254 -9.55671e-20)
(1.54304 0.0292354 -9.3714e-20)
(1.562 0.0410164 -7.63267e-21)
(1.55471 0.0534701 4.04804e-20)
(1.54887 0.0612674 6.22684e-20)
(1.55296 0.0749302 -8.60045e-21)
(1.5291 0.0781119 1.1711e-20)
(1.5414 0.0930742 0)
(1.50437 0.0913312 2.54142e-20)
(1.5227 0.107664 -2.27785e-20)
(1.4756 0.100739 1.37213e-20)
(1.49859 0.11855 2.91157e-20)
(1.44335 0.106164 7.76668e-21)
(1.47005 0.125582 0)
(1.40799 0.107449 6.78339e-21)
(1.43752 0.128692 -1.15009e-20)
(1.36911 0.103879 -1.86878e-20)
(1.40162 0.127546 4.51789e-21)
(1.32277 0.0919698 -8.65835e-20)
(1.36303 0.119993 -3.56868e-21)
(1.32041 0.0958175 7.48471e-21)
(0.0612561 -0.105211 -3.93808e-20)
(0.00953416 -0.106897 -2.71592e-21)
(0.142283 -0.0858547 1.33968e-19)
(0.0658379 -0.0825143 -3.86022e-20)
(0.248873 -0.0767567 1.18485e-19)
(0.148016 -0.0688791 3.59198e-20)
(0.375718 -0.0747072 -1.20434e-19)
(0.251611 -0.0633726 -1.26064e-19)
(0.51772 -0.0756411 -1.09477e-19)
(0.372838 -0.0621361 1.16088e-19)
(0.669465 -0.0760935 8.95515e-20)
(0.507724 -0.0616333 5.66168e-20)
(0.824918 -0.073451 2.25923e-19)
(0.651928 -0.0591403 -5.1001e-20)
(0.978007 -0.0659674 1.56193e-19)
(0.800167 -0.0526311 -8.34501e-21)
(1.12268 -0.0529334 -5.82801e-20)
(0.947143 -0.0409724 7.44228e-20)
(1.25193 -0.0344827 -7.94694e-20)
(1.08762 -0.023906 -1.34771e-19)
(1.35943 -0.0117134 -4.57596e-20)
(1.21505 -0.00198628 5.73054e-20)
(1.44148 0.0135912 -1.03204e-19)
(1.32295 0.0234882 -1.02256e-19)
(1.49766 0.0394945 -6.66757e-20)
(1.40754 0.0504077 9.38908e-20)
(1.53064 0.0643375 4.67277e-20)
(1.46748 0.0768935 -1.56633e-19)
(1.54494 0.0868565 3.97926e-20)
(1.50476 0.101228 1.03083e-19)
(1.54505 0.106277 -7.30731e-20)
(1.52309 0.122419 -7.25233e-20)
(1.53476 0.122243 -3.55695e-20)
(1.5266 0.140027 4.02632e-20)
(1.51684 0.134579 -2.13701e-20)
(1.51904 0.153872 -7.43547e-20)
(1.49308 0.143156 1.46697e-20)
(1.50324 0.163938 5.05559e-20)
(1.46451 0.14782 -1.94921e-20)
(1.48109 0.170192 -2.11443e-20)
(1.43173 0.14839 -1.28555e-20)
(1.45355 0.172574 -1.5413e-20)
(1.39501 0.1444 1.02229e-20)
(1.42133 0.17073 6.49658e-21)
(1.35133 0.132525 0)
(1.38557 0.163707 0)
(1.3479 0.140668 -6.79904e-22)
(0.0124933 -0.0843653 -1.37103e-21)
(-0.0289145 -0.0845451 1.46256e-19)
(0.069795 -0.0654194 -1.36616e-19)
(0.00738917 -0.06119 3.85266e-20)
(0.148794 -0.0551286 -2.04538e-19)
(0.0651749 -0.0478738 -1.39538e-19)
(0.246766 -0.0504212 1.06297e-19)
(0.141946 -0.0414585 -6.35873e-20)
(0.360986 -0.0478421 2.81969e-19)
(0.235839 -0.0383561 1.7335e-19)
(0.488453 -0.044502 -8.16258e-20)
(0.344645 -0.035424 -5.36501e-20)
(0.625549 -0.0382246 -2.84794e-19)
(0.465924 -0.0302615 4.16583e-21)
(0.767772 -0.0276287 -9.11026e-20)
(0.596585 -0.0211815 -4.54473e-20)
(0.91053 -0.0121382 0)
(0.732434 -0.00726942 0)
(1.04881 0.008186 0)
(0.869532 0.011716 -7.3722e-20)
(1.17627 0.0325627 0)
(1.0036 0.0354301 1.38781e-19)
(1.28655 0.0594209 9.30206e-20)
(1.12847 0.0628147 1.20283e-19)
(1.375 0.0867694 7.96384e-22)
(1.23816 0.0920078 3.81057e-20)
(1.43965 0.112735 -9.47715e-20)
(1.32809 0.120873 -1.29163e-19)
(1.48148 0.135899 -4.73573e-21)
(1.39598 0.147442 6.95746e-20)
(1.50368 0.155453 3.99579e-20)
(1.44217 0.170352 0)
(1.51029 0.171075 1.10698e-21)
(1.46909 0.18895 4.02632e-20)
(1.50513 0.182764 -3.05957e-21)
(1.48028 0.203021 -5.98162e-20)
(1.49115 0.190667 1.49768e-20)
(1.47894 0.213046 4.03799e-20)
(1.47029 0.194647 -1.64118e-20)
(1.46835 0.218821 -2.11443e-20)
(1.44348 0.194592 1.28663e-21)
(1.4508 0.220644 2.83872e-20)
(1.41171 0.190318 -3.68766e-21)
(1.42615 0.218362 -1.02997e-20)
(1.3732 0.179153 -6.75994e-22)
(1.3963 0.21207 -9.55005e-21)
(1.36674 0.191379 8.7356e-22)
(-0.0351537 -0.0615992 1.89159e-19)
(-0.0672143 -0.0604066 3.59799e-19)
(0.00153158 -0.0436457 3.93334e-20)
(-0.0488266 -0.0379583 8.13978e-23)
(0.0568466 -0.033941 0)
(-0.0122875 -0.0258738 0)
(0.129481 -0.0290545 0)
(0.041125 -0.0202849 0)
(0.217996 -0.0256335 -1.57615e-19)
(0.110581 -0.0175278 0)
(0.320698 -0.0209715 3.12596e-20)
(0.194831 -0.0145082 -3.22928e-19)
(0.435559 -0.0130651 2.41876e-19)
(0.292458 -0.00890412 3.9569e-19)
(0.559884 -0.00070915 4.39264e-20)
(0.401761 0.000866988 8.86557e-20)
(0.690177 0.0166097 -7.29017e-20)
(0.520242 0.0156371 -8.34936e-20)
(0.822936 0.0388698 6.27406e-20)
(0.644598 0.0356414 -7.3722e-20)
(0.95403 0.0654371 2.59245e-19)
(0.771937 0.0606035 1.35775e-19)
(1.07792 0.0949166 6.41991e-20)
(0.898551 0.089668 -5.80116e-21)
(1.18887 0.125325 -9.57217e-20)
(1.01913 0.121245 -1.10633e-19)
(1.28208 0.154553 4.42158e-20)
(1.12837 0.153251 5.90534e-21)
(1.35462 0.180799 8.05008e-20)
(1.22187 0.183551 -4.75459e-20)
(1.40602 0.202845 0)
(1.29673 0.210329 1.37747e-19)
(1.43797 0.220138 -2.11365e-20)
(1.35209 0.232369 -9.67916e-21)
(1.45348 0.23268 -1.92617e-20)
(1.38918 0.249122 -5.37815e-20)
(1.45588 0.24053 2.20706e-21)
(1.40988 0.260773 -1.10746e-20)
(1.44863 0.244421 2.3337e-20)
(1.41739 0.267073 2.16237e-20)
(1.43356 0.24436 1.53225e-20)
(1.41471 0.269245 3.31111e-21)
(1.41105 0.240147 -1.36425e-20)
(1.40383 0.267829 -7.00907e-21)
(1.38103 0.230471 -8.70632e-21)
(1.38552 0.262987 -1.06364e-20)
(1.36835 0.245616 7.9585e-22)
(-0.0816129 -0.0370115 1.79277e-19)
(-0.104745 -0.0346711 4.39276e-20)
(-0.0634071 -0.0202236 -3.92503e-20)
(-0.102799 -0.0129198 1.16975e-19)
(-0.0290599 -0.0120041 0)
(-0.0852413 -0.0024709 -1.42772e-19)
(0.0210818 -0.00847735 0)
(-0.0526143 0.00128866 1.63069e-19)
(0.0862363 -0.00608364 -1.60407e-19)
(-0.00502878 0.0022963 -2.99031e-20)
(0.16549 -0.00214771 3.13716e-20)
(0.056717 0.00365871 -1.06989e-19)
(0.257573 0.00529386 2.46682e-19)
(0.131796 0.00780672 1.4872e-19)
(0.360995 0.0174571 -3.67114e-20)
(0.21915 0.0162629 -4.75808e-20)
(0.473579 0.0348922 -8.44227e-20)
(0.317451 0.0299382 -7.97338e-20)
(0.59258 0.0575905 -1.19525e-21)
(0.424607 0.0491327 2.10622e-21)
(0.715276 0.0850361 -1.25294e-19)
(0.538052 0.0736053 1.32258e-19)
(0.83821 0.11612 -1.80557e-19)
(0.655515 0.102656 -1.27816e-19)
(0.956787 0.149087 -1.16459e-20)
(0.77376 0.135041 3.47038e-21)
(1.06615 0.181852 -8.3171e-20)
(0.888414 0.168978 9.379e-20)
(1.16193 0.212357 1.59776e-20)
(0.995134 0.202401 -1.2422e-19)
(1.24092 0.238897 1.25127e-19)
(1.09003 0.233325 1.03781e-19)
(1.30168 0.260378 -4.10192e-20)
(1.17014 0.260115 -3.78159e-20)
(1.34451 0.276343 -4.4466e-20)
(1.23398 0.281706 1.37571e-20)
(1.37097 0.286745 5.13529e-21)
(1.28142 0.297655 -5.65298e-20)
(1.3832 0.291649 1.68603e-21)
(1.31355 0.30775 8.31297e-21)
(1.38479 0.292254 -2.03011e-20)
(1.33154 0.312253 -3.56507e-20)
(1.37836 0.290144 -2.01025e-21)
(1.33943 0.312218 9.0808e-21)
(1.36374 0.283619 -2.14129e-21)
(1.33743 0.309463 7.32489e-22)
(1.33907 0.298363 -1.07987e-22)
(-0.126306 -0.0108289 -2.0615e-20)
(-0.140731 -0.00756996 -2.52869e-19)
(-0.124973 0.00479354 1.88926e-20)
(-0.15407 0.0137788 1.17552e-19)
(-0.109438 0.011054 1.46103e-20)
(-0.153504 0.0223271 -6.72057e-22)
(-0.0795264 0.0123256 1.36216e-19)
(-0.139476 0.0236635 3.1987e-20)
(-0.0353975 0.0123408 2.33138e-20)
(-0.111506 0.0218536 -6.07642e-20)
(0.0221964 0.0139847 7.03741e-21)
(-0.0700308 0.0203467 -4.8927e-22)
(0.0925686 0.0191589 -1.39189e-19)
(-0.015679 0.0214634 -4.89314e-20)
(0.174771 0.0291566 -9.03381e-20)
(0.0509197 0.0268134 -1.3584e-19)
(0.267607 0.0446118 3.67727e-21)
(0.128918 0.03733 1.5581e-21)
(0.369243 0.0656282 1.34202e-19)
(0.217215 0.0535304 7.93006e-20)
(0.477487 0.0917939 1.31846e-19)
(0.313995 0.0753046 1.27419e-19)
(0.59009 0.122228 5.23634e-20)
(0.417231 0.102051 -1.27007e-19)
(0.704151 0.155565 1.06719e-19)
(0.524939 0.132808 2.38518e-20)
(0.815998 0.190018 5.01339e-20)