/*--------------------------------*- C++ -*----------------------------------*\
  =========                 |
  \\      /  F ield         | OpenFOAM: The Open Source CFD Toolbox
   \\    /   O peration     | Website:  https://openfoam.org
    \\  /    A nd           | Version:  11
     \\/     M anipulation  |
\*---------------------------------------------------------------------------*/
FoamFile
{
    format      ascii;
    class       volScalarField;
    location    "0.42";
    object      epsilon;
}
// * * * * * * * * * * * * * * * * * * * * * * * * * * * * * * * * * * * * * //

dimensions      [0 2 -3 0 0 0 0];

internalField   nonuniform List<scalar> 
2880
(
1.62946
1.81773
2.15369
2.23113
2.23382
2.90458
0.784009
0.78356
0.950169
1.04477
1.14473
1.47803
0.214199
0.581172
0.719018
0.806489
0.903967
1.11111
0.238435
0.521562
0.642381
0.726556
0.816992
0.959425
0.257685
0.506374
0.614518
0.696445
0.780477
0.886006
0.271533
0.512282
0.60777
0.687643
0.766986
0.851411
0.279494
0.532326
0.611952
0.689756
0.765857
0.839238
1.18986
0.565653
0.622207
0.698766
0.773864
0.841708
1.18719
0.593649
0.635287
0.712457
0.789426
0.857311
1.18551
0.615986
0.649495
0.729779
0.812057
0.885411
1.19483
0.632874
0.663985
0.750295
0.841912
0.926718
1.20847
0.644962
0.678376
0.773855
0.879464
0.982752
1.21676
0.652617
0.692489
0.800381
0.925255
1.05551
1.21461
0.655873
0.706186
0.829706
0.979689
1.14721
1.20258
0.654361
0.719292
0.861467
1.04284
1.26001
1.1882
0.647279
0.731614
0.895057
1.11425
1.39566
1.19206
0.633121
0.743094
0.929669
1.19282
1.55506
0.280139
0.612477
0.754263
0.964566
1.27685
1.73771
0.274979
0.593373
0.76693
0.999797
1.36456
1.94151
0.26288
0.587119
0.785357
1.03798
1.45545
2.16374
0.244688
0.599784
0.819225
1.08887
1.55382
2.39892
0.220962
0.654415
0.896171
1.18371
1.68275
2.64741
0.815142
0.855566
1.12639
1.44734
1.96274
3.03876
1.76168
1.93553
2.40281
2.80722
3.22437
4.23116
3.60377
4.04229
4.13028
3.9784
3.64133
3.19632
2.73696
2.3196
1.941
1.61067
1.3296
1.09417
0.898957
0.738159
0.60621
0.498315
0.411035
0.340797
0.283845
0.237916
0.201687
0.172221
0.151774
0.129946
2.04222
2.5969
2.94324
3.06857
3.01964
2.84986
2.59441
2.31112
2.04435
1.7958
1.57294
1.37815
1.21081
1.06867
0.948748
0.847967
0.763047
0.690974
0.630006
0.577114
0.532614
0.489294
0.460013
0.413413
1.39136
1.7519
2.08201
2.3036
2.40257
2.397
2.32504
2.1993
2.05656
1.91816
1.79083
1.67939
1.58592
1.50987
1.44962
1.40242
1.36496
1.33403
1.30692
1.28089
1.25514
1.2233
1.19474
1.14055
1.11491
1.3291
1.56778
1.77482
1.92018
2.00155
2.02971
2.02306
1.99831
1.96584
1.93886
1.92165
1.91543
1.91826
1.92864
1.94178
1.95365
1.96065
1.96089
1.95466
1.94081
1.91622
1.87916
1.83189
0.98814
1.12429
1.28997
1.45422
1.59387
1.70167
1.77994
1.83728
1.88172
1.92057
1.95857
1.99731
2.03657
2.07444
2.10824
2.1351
2.15265
2.1592
2.15593
2.14422
2.12081
2.08374
2.03875
1.9909
0.929212
1.02585
1.14493
1.26986
1.38745
1.49075
1.57995
1.65804
1.72831
1.79354
1.85488
1.91191
1.96304
2.00612
2.03902
2.06002
2.06838
2.06458
2.05129
2.02606
1.99064
1.94894
1.90264
1.8577
0.906491
0.983436
1.07424
1.16904
1.26103
1.34705
1.42613
1.49873
1.5653
1.62618
1.68064
1.7272
1.76408
1.78968
1.80304
1.80372
1.79457
1.77387
1.74424
1.70905
1.67141
1.63336
1.59584
1.56421
0.904603
0.973241
1.04947
1.12561
1.19675
1.26195
1.32128
1.37534
1.42436
1.46705
1.5021
1.52821
1.54431
1.55001
1.54624
1.53374
1.51539
1.49485
1.47596
1.46109
1.45117
1.44634
1.44506
1.44216
0.92165
0.988549
1.05701
1.12232
1.18133
1.23297
1.27742
1.31494
1.3455
1.36941
1.38646
1.39651
1.39991
1.39794
1.39202
1.38448
1.37761
1.37341
1.37351
1.37759
1.38626
1.40035
1.41857
1.43429
0.957548
1.03064
1.1001
1.16214
1.21462
1.25753
1.29188
1.3188
1.33921
1.35355
1.3624
1.36655
1.36711
1.36553
1.3635
1.36291
1.36509
1.37053
1.38017
1.39423
1.41143
1.432
1.45807
1.49281
1.01431
1.10277
1.18277
1.25101
1.30624
1.34941
1.38229
1.40671
1.4243
1.43652
1.44484
1.45078
1.4559
1.4615
1.46893
1.47925
1.49273
1.50785
1.52292
1.53376
1.53789
1.53273
1.51954
1.51823
1.09556
1.21074
1.31227
1.39714
1.4651
1.51824
1.55931
1.59099
1.6157
1.63558
1.65253
1.66825
1.68417
1.70101
1.71907
1.73798
1.75444
1.76716
1.77159
1.75756
1.7181
1.64545
1.5596
1.50456
1.20621
1.36226
1.49765
1.60995
1.70021
1.77211
1.82953
1.87598
1.91436
1.94714
1.976
2.00238
2.02688
2.04803
2.06697
2.08062
2.07645
2.04991
1.99186
1.9042
1.79913
1.68549
1.56699
1.43878
1.35237
1.5664
1.74818
1.89712
2.0164
2.11189
2.18867
2.25093
2.30179
2.34355
2.37649
2.40381
2.42255
2.42355
2.39853
2.34686
2.26623
2.16643
2.05543
1.92936
1.78981
1.63073
1.46953
1.27251
1.54126
1.83275
2.07063
2.25997
2.40778
2.52312
2.61262
2.68029
2.73104
2.76471
2.77629
2.75235
2.70239
2.6225
2.52601
2.416
2.28852
2.14213
1.97387
1.78723
1.58898
1.38188
1.19288
0.968649
1.78113
2.16987
2.46496
2.68693
2.84986
2.9674
3.0498
3.09603
3.09549
3.05314
2.97609
2.87915
2.76585
2.6325
2.47593
2.29446
2.09193
1.87225
1.642
1.40886
1.18328
0.97428
0.794417
0.6201
2.0813
2.58246
2.91849
3.14684
3.29408
3.37688
3.38454
3.33106
3.23754
3.12144
2.97982
2.80829
2.6082
2.38457
2.14245
1.88758
1.6268
1.36924
1.1248
0.904541
0.714661
0.559801
0.437494
0.35476
2.45227
3.06665
3.39963
3.58563
3.65262
3.60465
3.50425
3.36426
3.18598
2.96602
2.71502
2.44175
2.15491
1.86273
1.57304
1.29509
1.03932
0.815858
0.628603
0.482492
0.375575
0.302246
0.251251
0.226314
2.90659
3.60251
3.85527
3.90272
3.80051
3.64436
3.432
3.16298
2.85549
2.52498
2.18602
1.85117
1.53052
1.23301
0.968863
0.745373
0.566933
0.43344
0.339315
0.272228
0.224548
0.191828
0.17012
0.165088
3.46196
4.1452
4.20487
4.02361
3.7828
3.47048
3.10562
2.71078
2.30833
1.91832
1.55628
1.23174
0.952415
0.724309
0.547855
0.418626
0.327008
0.260624
0.213149
0.178922
0.154209
0.13651
0.124832
0.123961
4.15735
4.62486
4.35716
3.97777
3.54695
3.08102
2.60161
2.13599
1.70835
1.33483
1.02151
0.770802
0.580315
0.44123
0.341574
0.269988
0.217256
0.177754
0.147494
0.124152
0.106808
0.0949544
0.0890985
0.0904227
5.0717
5.00202
4.36421
3.73831
3.15294
2.58534
2.05731
1.59437
1.21086
0.907124
0.676902
0.508841
0.387854
0.299983
0.234836
0.185513
0.147635
0.118479
0.0965464
0.081064
0.0711307
0.0657924
0.0648757
0.067563
6.27515
5.22492
4.16006
3.38383
2.70439
2.09845
1.58604
1.17812
0.868097
0.640431
0.476447
0.357819
0.270645
0.205805
0.157388
0.121381
0.09499
0.076188
0.0633896
0.0552296
0.0505608
0.0487299
0.0493561
0.05244
7.93387
5.29604
3.88859
3.00438
2.27946
1.68551
1.22588
0.886316
0.641862
0.46737
0.341891
0.250946
0.185094
0.137707
0.103944
0.0801747
0.0636498
0.0523252
0.044788
0.0400969
0.0376553
0.0371442
0.0381473
0.0411056
2.57031
5.18233
9.06267
10.6103
9.85233
28.4982
0.973504
3.01245
4.84545
6.10545
7.10061
10.3031
0.262796
2.42083
3.74037
4.92718
6.09986
7.31203
1.24701
2.16928
3.27259
4.42956
5.58336
6.31605
1.54051
2.02767
3.02769
4.18235
5.32183
5.8661
1.78607
1.94088
2.88602
4.05912
5.20621
5.63756
1.98248
1.88645
2.79872
4.00493
5.16983
5.52206
2.13076
1.84999
2.74081
3.99078
5.19144
5.47333
2.23259
1.82034
2.69725
4.00443
5.25966
5.46561
2.28975
1.79016
2.6576
4.0355
5.35647
5.49686
2.30352
1.75451
2.61394
4.07416
5.46899
5.55934
2.27835
1.71065
2.55947
4.11079
5.58996
5.6489
2.22203
1.65815
2.48808
4.13329
5.71747
5.76437
2.1418
1.59658
2.39458
4.12973
5.85058
5.91776
2.03678
1.52298
2.27614
4.08697
5.9885
6.12522
1.9072
1.43509
2.13079
3.99036
6.12647
6.39815
1.75298
1.3302
1.95815
3.82381
6.25321
6.75222
1.56849
1.20308
1.75917
3.57302
6.34725
7.20891
1.32903
1.04253
1.53845
3.23038
6.36473
7.80028
0.280425
0.830469
1.31083
2.80477
6.24741
8.58025
0.261852
0.675245
1.09656
2.31506
5.9113
9.64858
0.240179
0.621189
0.941843
1.82339
5.23893
11.2247
0.908706
0.782541
0.955646
1.47945
4.05271
14.3819
2.30644
1.8347
1.84483
2.11584
2.93659
26.7958
9.4559
4.94699
3.55627
2.63362
1.90666
1.35617
0.958504
0.677773
0.480587
0.341505
0.243387
0.174621
0.126815
0.0938065
0.0710845
0.0554229
0.0446215
0.0372593
0.032452
0.029616
0.0283733
0.0284647
0.0296083
0.0322311
6.70587
4.42894
3.21468
2.28644
1.58995
1.09618
0.755212
0.520884
0.359613
0.248965
0.173635
0.122733
0.0884856
0.065425
0.0498106
0.0391702
0.0319167
0.0270493
0.0239459
0.0222087
0.0215926
0.0218635
0.0229984
0.0251978
5.80971
4.12307
2.89655
1.97308
1.32627
0.889712
0.596949
0.400452
0.26908
0.181995
0.124756
0.087309
0.0627726
0.0465688
0.0357413
0.028422
0.02345
0.020116
0.0179962
0.0168336
0.0164744
0.01676
0.0177322
0.0194764
5.40312
3.83033
2.58304
1.69728
1.109
0.724226
0.472337
0.307976
0.201746
0.133819
0.0906616
0.0632005
0.0455539
0.0340292
0.0263579
0.0211618
0.0176092
0.0152023
0.0136485
0.012777
0.012488
0.0126944
0.0134353
0.0147829
5.11514
3.53472
2.29455
1.46288
0.930486
0.590723
0.374125
0.237351
0.152117
0.0994907
0.0669981
0.0467278
0.0338447
0.0254626
0.0198736
0.0160643
0.0134297
0.0116092
0.0103923
0.00966037
0.00934756
0.00942403
0.0099156
0.0109166
4.87616
3.25041
2.03982
1.26549
0.78325
0.482868
0.29708
0.183874
0.115819
0.0750642
0.050448
0.0352878
0.0257023
0.0194618
0.0152794
0.012401
0.0103779
0.00894091
0.0079313
0.00726024
0.00688277
0.0067971
0.00704912
0.00773398
4.65951
2.98894
1.82032
1.09993
0.661794
0.396029
0.237057
0.143652
0.0893296
0.0576092
0.0387479
0.0272149
0.0199281
0.0151662
0.0119512
0.00971363
0.00811278
0.00694099
0.00607207
0.00543251
0.00498485
0.00473032
0.00474374
0.00513656
4.45927
2.75714
1.63361
0.961244
0.561774
0.32647
0.190588
0.113508
0.0699639
0.0450312
0.0303568
0.0214098
0.0157451
0.0120236
0.0094912
0.00770936
0.0064137
0.00543978
0.00468319
0.00407797
0.0035855
0.00319755
0.00295892
0.00301861
4.27938
2.55638
1.4758
0.84533
0.479738
0.271073
0.154775
0.0909209
0.0557216
0.0358593
0.0242396
0.0171557
0.0126551
0.00968173
0.00764403
0.00619732
0.00513253
0.00431755
0.00366537
0.00311609
0.00262765
0.00217671
0.00174274
0.00119834
4.12554
2.38714
1.34387
0.748989
0.412826
0.227181
0.127234
0.073943
0.0451541
0.0290794
0.0197045
0.0139809
0.0103308
0.00790765
0.0062381
0.00504582
0.00416264
0.00348184
0.00293261
0.00246494
0.00204058
0.00163251
0.00123482
0.000782329
4.00197
2.24862
1.23503
0.669514
0.358581
0.19255
0.106056
0.06111
0.0372285
0.0239941
0.0162854
0.0115694
0.00855192
0.00654179
0.00515242
0.00415763
0.00341949
0.00285054
0.00239313
0.00200693
0.00166129
0.00133466
0.00101919
0.000676705
3.91404
2.13951
1.14677
0.60456
0.314888
0.165322
0.0897489
0.0513399
0.0312148
0.0201238
0.0136655
0.00970675
0.00716767
0.005473
0.0043004
0.00346072
0.0028383
0.00235976
0.00197682
0.00165593
0.00137193
0.00110845
0.00086254
0.000611507
3.86824
2.05857
1.07699
0.552143
0.27998
0.14399
0.0771651
0.0438406
0.0265971
0.0171363
0.0116274
0.00824564
0.00607399
0.00462415
0.00362184
0.0029056
0.00237644
0.00197154
0.0016497
0.00138253
0.0011492
0.000937106
0.00074528
0.00055909
3.8651
2.00507
1.02409
0.510745
0.252382
0.127274
0.0673922
0.0380351
0.0230108
0.0148001
0.01002
0.00708376
0.00519847
0.00394161
0.00307518
0.00245867
0.00200577
0.00166176
0.00139086
0.00116868
0.000977618
0.000807569
0.000657949
0.000518422
3.90447
1.97835
0.987289
0.478966
0.230703
0.114156
0.0597538
0.03351
0.0201965
0.0129516
0.00873673
0.00614887
0.00448989
0.00338739
0.00263099
0.00209616
0.00170637
0.00141312
0.00118487
0.00100026
0.000844153
0.000708118
0.000591443
0.000486557
3.99071
1.97876
0.965982
0.455374
0.213831
0.103873
0.0537645
0.0299519
0.0179667
0.0114739
0.00770159
0.00538916
0.00391131
0.00293394
0.0022678
0.00180069
0.00146363
0.00121301
0.00102059
0.000867371
0.000740114
0.00063151
0.000540545
0.000461558
4.13356
2.00648
0.959227
0.438843
0.200882
0.0958283
0.0490546
0.0271376
0.0161864
0.0102824
0.00685929
0.00476679
0.00343555
0.0025608
0.00196953
0.00155906
0.00126637
0.0010517
0.000889418
0.000762415
0.00065889
0.000572343
0.000501437
0.00044191
4.3441
2.06855
0.964055
0.428237
0.1911
0.0895551
0.0453446
0.0249015
0.0147559
0.00931469
0.00616907
0.0042537
0.00304227
0.00225247
0.0017238
0.00136103
0.00110582
0.000921521
0.000784594
0.000679437
0.000595392
0.00052655
0.000471297
0.000426429
4.63534
2.16203
0.979034
0.422648
0.183843
0.0846807
0.0424195
0.0231187
0.0136008
0.00852458
0.00560048
0.00382875
0.00271598
0.00199701
0.00152098
0.00119852
0.000975047
0.000816407
0.000700789
0.000613809
0.000545725
0.000491075
0.000448029
0.00041421
5.02796
2.29437
1.00511
0.421223
0.178566
0.0808981
0.0401088
0.0216931
0.0126649
0.007877
0.00513043
0.00347578
0.00244469
0.00178506
0.00135346
0.00106513
0.000868517
0.000731541
0.000633799
0.000561913
0.000506881
0.000463587
0.000430057
0.000404568
5.5509
2.4704
1.03994
0.422144
0.174658
0.0779266
0.0382722
0.020549
0.0119048
0.00734521
0.00474121
0.00318229
0.00221905
0.00160925
0.00121517
0.000955716
0.000781809
0.000663075
0.000580288
0.000520896
0.000476513
0.000442303
0.0004162
0.000396992
6.2509
2.69304
1.07806
0.423673
0.171467
0.0755065
0.0367912
0.0196258
0.0112871
0.00690866
0.0044192
0.00293857
0.00203168
0.00146367
0.00110122
0.000866139
0.000711367
0.000607939
0.000537604
0.000488505
0.000452784
0.000425852
0.000405578
0.0003911
7.20283
2.90752
1.11026
0.423826
0.168319
0.0734091
0.0355678
0.0188756
0.0107859
0.00655164
0.00415395
0.00273708
0.00187676
0.00134361
0.00100768
0.000793056
0.000654326
0.000563674
0.000503642
0.000462957
0.000434237
0.000413148
0.000397511
0.000386605
8.36007
3.06739
1.1225
0.418498
0.164494
0.0714364
0.034525
0.0182621
0.0103821
0.00626248
0.00393759
0.00257204
0.00174973
0.00124532
0.000931365
0.000733748
0.000608357
0.00052829
0.000476715
0.000442836
0.000419701
0.000403262
0.000391414
0.000383213
3.21785
8.00835
11.3266
12.4102
10.7442
38.7486
1.14026
4.5074
6.24238
7.28158
8.86528
13.7226
1.68806
3.58348
4.72821
5.55602
6.61885
8.09634
2.3337
3.19752
4.03994
4.70392
5.36226
5.85945
2.92501
2.99501
3.64603
4.19615
4.61285
4.74389
3.44883
2.88538
3.39355
3.85858
4.13642
4.10338
3.89839
2.82514
3.22204
3.62168
3.82285
3.70606
4.2702
2.79261
3.10182
3.45427
3.61266
3.45361
4.56241
2.77568
3.01638
3.33798
3.47517
3.29814
4.7739
2.76711
2.956
3.26093
3.39319
3.2147
4.9044
2.76315
2.91435
3.21504
3.35667
3.18999
4.95692
2.76129
2.88693
3.19446
3.35942
3.2155
4.95137
2.76204
2.87018
3.19462
3.39561
3.29115
4.88444
2.76173
2.86069
3.21081
3.46756
3.41682
4.74938
2.75474
2.85542
3.24178
3.57203
3.59567
4.53992
2.73601
2.85145
3.28676
3.70849
3.83439
4.25166
2.69996
2.84686
3.34344
3.87853
4.14359
3.88187
2.64212
2.84268
3.41317
4.08543
4.54216
3.42979
2.56632
2.84624
3.50231
4.33645
5.0701
2.8989
2.48344
2.8768
3.62742
4.64739
5.81136
2.30041
2.42022
2.98425
3.83258
5.05763
6.98138
1.65798
2.46057
3.29033
4.24273
5.69401
9.27808
1.13739
2.9211
4.22863
5.32211
6.98206
15.4353
2.94826
6.27595
8.75719
9.81521
10.8312
50.5731
9.11945
3.07088
1.09188
0.405279
0.159599
0.0694771
0.0336156
0.0177613
0.0100623
0.00603295
0.00376447
0.00243917
0.00164714
0.00116589
0.000869781
0.000686051
0.000571587
0.000500185
0.000455483
0.000427063
0.000408337
0.000395532
0.0003867
0.000380601
6.70089
2.68961
1.01251
0.385163
0.153828
0.0675406
0.0328262
0.0173616
0.00981864
0.00585778
0.00363077
0.00233547
0.00156649
0.00110317
0.000821064
0.000648335
0.000542598
0.000478139
0.000438933
0.000414846
0.000399576
0.000389566
0.000383023
0.000378605
5.26907
2.32791
0.926159
0.363102
0.147879
0.0657405
0.0321743
0.0170628
0.00964768
0.00573416
0.00353421
0.002259
0.00150608
0.00105567
0.000783888
0.000619441
0.000520369
0.000461262
0.000426303
0.000405566
0.000392975
0.000385117
0.000380251
0.000377172
4.31339
2.03991
0.84914
0.342656
0.142485
0.0642316
0.0316948
0.0168725
0.0095498
0.00566125
0.00347374
0.00220862
0.00146478
0.00102233
0.00075731
0.000598522
0.00050415
0.000448891
0.000417017
0.00039873
0.000388119
0.000381879
0.000378284
0.000376219
3.65903
1.82619
0.786666
0.32568
0.138155
0.0631493
0.0314263
0.016804
0.00952909
0.00564014
0.00344938
0.00218389
0.00144202
0.00100251
0.000740671
0.000584949
0.000493356
0.000440501
0.000410623
0.000393965
0.000384718
0.000379634
0.000376957
0.00037561
3.21452
1.67108
0.739506
0.313027
0.135205
0.0625971
0.0314041
0.0168621
0.00958226
0.00566872
0.00346048
0.00218495
0.00143773
0.000995964
0.000733622
0.000578317
0.000487597
0.000435735
0.000406808
0.000391006
0.000382539
0.00037823
0.000376176
0.000375255
2.91511
1.56366
0.707133
0.305057
0.133838
0.0626489
0.0316333
0.01705
0.00971208
0.00574633
0.00350423
0.00220852
0.00144981
0.00100158
0.000735669
0.000578425
0.000486684
0.000434426
0.000405425
0.000389718
0.000381537
0.000377536
0.000375763
0.000375104
2.71947
1.49593
0.688766
0.301927
0.134162
0.0633289
0.0321531
0.0173897
0.0099295
0.00587928
0.00358477
0.00225735
0.00147946
0.0010196
0.000746624
0.000585039
0.000490608
0.000436602
0.000406518
0.000390171
0.000381662
0.000377518
0.000375706
0.000375071
2.6021
1.4626
0.683835
0.303664
0.136255
0.0647508
0.0330255
0.0179228
0.0102643
0.00608858
0.00371677
0.00234145
0.00153354
0.00105459
0.000769234
0.000599612
0.000499928
0.000442503
0.000410191
0.000392402
0.000382883
0.000378129
0.000375961
0.000375127
2.54777
1.4607
0.692227
0.310793
0.140577
0.0671438
0.0343549
0.0186888
0.0107286
0.00637747
0.00390004
0.00245933
0.00161027
0.00110511
0.000802853
0.000622096
0.000514941
0.000452456
0.000416719
0.000396617
0.000385478
0.000379535
0.000376614
0.000375298
2.54808
1.48944
0.715058
0.324036
0.147398
0.0705907
0.0361663
0.0196982
0.0113268
0.0067475
0.00413573
0.00261263
0.00171162
0.00117304
0.000848919
0.000653539
0.000536404
0.000467019
0.000426501
0.000403084
0.000389607
0.000381927
0.000377761
0.000375672
2.59933
1.54971
0.753687
0.344092
0.157024
0.0752232
0.0385185
0.0209794
0.0120748
0.00720889
0.00443078
0.00280608
0.00184089
0.0012608
0.000909234
0.00069531
0.000565364
0.000486989
0.000440134
0.000412233
0.000395529
0.000385481
0.000379617
0.000376358
2.70199
1.64384
0.810995
0.372254
0.170021
0.0812811
0.0415154
0.0225805
0.012996
0.00777475
0.00479341
0.00304527
0.00200211
0.00137135
0.000986062
0.000749162
0.000603195
0.000513452
0.000458463
0.000424715
0.000403739
0.000390523
0.000382368
0.000377451
2.85957
1.77646
0.890441
0.410274
0.18715
0.0890784
0.0452894
0.0245608
0.014119
0.00846077
0.00523329
0.00333677
0.00220002
0.00150827
0.00108217
0.000817277
0.000651638
0.000547795
0.000482584
0.000441367
0.000414851
0.000397478
0.000386284
0.0003791
3.07918
1.95473
0.99628
0.460471
0.209421
0.0990261
0.0500094
0.0269943
0.0154787
0.00928556
0.00576171
0.00368818
0.00244013
0.00167576
0.00120086
0.000902291
0.000712822
0.000591745
0.00051388
0.000463267
0.000429664
0.000406904
0.000391718
0.000381481
3.37197
2.18822
1.13444
0.525914
0.238165
0.111659
0.0558918
0.0299739
0.0171174
0.0102712
0.00639179
0.0041082
0.00272873
0.00187863
0.00134595
0.0010073
0.000789285
0.000647386
0.000554046
0.000491757
0.000449193
0.000419517
0.000399123
0.000384821
3.75471
2.48976
1.31261
0.610557
0.275095
0.127662
0.0632106
0.0336152
0.0190869
0.011444
0.00713863
0.00460663
0.00307282
0.00212225
0.00152172
0.00113582
0.000883946
0.000717158
0.000605115
0.000528504
0.000474758
0.000436263
0.000408968
0.000389313
4.25227
2.87669
1.54037
0.719316
0.322357
0.147899
0.0723079
0.0380608
0.0214507
0.0128351
0.0080196
0.00519444
0.00348014
0.00241251
0.00173292
0.00129178
0.00100013
0.000803898
0.000669501
0.000575519
0.000507933
0.000458227
0.000421912
0.000395186
4.89843
3.37371
1.82919
0.857983
0.382524
0.173414
0.083599
0.0434836
0.024288
0.0144819
0.00905466
0.00588385
0.00395909
0.00275577
0.00198469
0.00147953
0.00114159
0.000910851
0.000750003
0.000635157
0.000550603
0.000486799
0.000438855
0.000402783
5.752
4.01645
2.19199
1.03282
0.458473
0.205416
0.0975651
0.0500772
0.0277086
0.0164296
0.0102669
0.00668852
0.00451886
0.00315891
0.00228258
0.00170377
0.00131243
0.00104165
0.00084981
0.000710162
0.000605036
0.000523721
0.000460956
0.000412532
6.94787
4.84079
2.64067
1.24952
0.553032
0.245188
0.114755
0.0580808
0.0318052
0.0187276
0.0116825
0.00762379
0.00516952
0.00362928
0.00263248
0.00196952
0.00151706
0.00120024
0.000972447
0.000803644
0.000673891
0.000571116
0.000489676
0.000424989
8.80709
5.88161
3.18193
1.51105
0.668241
0.293877
0.135717
0.0677417
0.0366889
0.0214319
0.0133314
0.00870698
0.00592219
0.0041748
0.00304057
0.00228197
0.00176006
0.00139077
0.00112171
0.000919054
0.000760215
0.000631506
0.000526808
0.00044085
12.4309
7.26444
3.82354
1.81566
0.804249
0.352129
0.160903
0.0792988
0.042479
0.024605
0.0152476
0.00995782
0.0067893
0.00480409
0.00351338
0.00264646
0.00204612
0.00161752
0.00130159
0.00106012
0.000867418
0.000707816
0.000574508
0.000460978
21.758
9.55824
4.59456
2.15646
0.958161
0.419625
0.190533
0.0929501
0.0492944
0.0283155
0.0174698
0.0113991
0.00778515
0.00552676
0.00405794
0.00306859
0.00237999
0.00188479
0.00151617
0.00123075
0.000999214
0.000803371
0.000635311
0.000486414
4.95375
3.71172
2.60997
1.87188
1.47019
2.77018
1.47593
2.05238
1.78039
1.38062
1.42954
3.26512
2.12376
2.09177
1.73042
1.41996
1.59267
3.5461
2.6166
2.3008
1.78658
1.54378
1.79149
3.78978
2.98588
2.40916
1.86259
1.67747
1.9852
3.98976
3.28589
2.46299
1.93562
1.81049
2.16697
4.14996
3.54358
2.49163
2.01159
1.94309
2.34017
4.24522
3.76942
2.51312
2.09631
2.07702
2.51166
4.29256
3.96749
2.53647
2.1924
2.21573
2.68411
4.31142
4.14016
2.56991
2.29949
2.36409
2.85718
4.32127
4.28923
2.6205
2.4176
2.52296
3.0309
4.33032
4.41685
2.69459
2.54741
2.69178
3.2056
4.34739
4.52598
2.79877
2.6902
2.86969
3.38288
4.38252
4.57311
2.92319
2.84611
3.05677
3.56703
4.44915
4.55952
3.06448
3.01602
3.25578
3.76905
4.57577
4.46803
3.22388
3.20356
3.47186
4.00087
4.77772
4.29468
3.4054
3.41497
3.71135
4.27334
5.06323
4.03237
3.61632
3.66
3.98182
4.59572
5.4418
3.6729
3.87007
3.95463
4.29428
4.97676
5.90994
3.21768
4.18403
4.33027
4.66989
5.4327
6.45803
2.67115
4.61411
4.85652
5.15843
6.01299
7.10513
2.00667
5.31092
5.71781
5.89633
6.87937
8.06613
1.3136
6.77574
7.64194
7.35713
8.18438
11.0847
4.94031
10.8268
13.6416
11.9909
9.59676
31.7531
18.2854
10.9218
5.26689
2.49279
1.12065
0.494526
0.224472
0.108824
0.0572491
0.032639
0.020043
0.013058
0.00892673
0.00635409
0.0046822
0.00355439
0.00276664
0.00219697
0.00176953
0.00143497
0.00115955
0.000921879
0.000712174
0.000518384
14.2032
10.6986
5.65241
2.7772
1.27977
0.574008
0.262298
0.126993
0.0664546
0.0376632
0.0230214
0.0149676
0.010235
0.00729988
0.00539575
0.00411089
0.00321156
0.00255869
0.00206592
0.00167687
0.00135258
0.00106741
0.000808511
0.000558315
11.6267
10.1642
5.83048
2.99467
1.42808
0.655623
0.303561
0.147525
0.0770421
0.0434872
0.0264706
0.0171695
0.0117366
0.00838188
0.0062109
0.00474705
0.0037216
0.00297549
0.00241011
0.00196091
0.00158273
0.00124448
0.000928314
0.000607865
9.96318
9.30773
5.81374
3.14252
1.55993
0.737855
0.347958
0.170535
0.0891772
0.0502312
0.0304719
0.019716
0.0134658
0.00962331
0.00714419
0.00547519
0.00430637
0.00345514
0.00280861
0.00229281
0.0018554
0.00145848
0.00107656
0.000669058
8.84902
8.51649
5.71091
3.2337
1.6744
0.819708
0.395578
0.196239
0.103072
0.0580498
0.035127
0.0226729
0.015466
0.0110543
0.00821783
0.00631278
0.00498036
0.00401015
0.00327246
0.00268238
0.00217943
0.0017178
0.00126091
0.000744988
8.04396
7.82869
5.57184
3.28483
1.77317
0.900305
0.446416
0.225059
0.119028
0.0671428
0.0405622
0.0261211
0.0177908
0.0127124
0.00946016
0.00728329
0.00576475
0.00466089
0.00382189
0.00314972
0.00257451
0.00204155
0.00149933
0.000844928
7.43143
7.24368
5.39193
3.29978
1.85711
0.979383
0.500369
0.257261
0.137416
0.0777554
0.0469331
0.0301584
0.0205029
0.01464
0.0109028
0.00841333
0.00668526
0.00543527
0.00448947
0.00373398
0.00308743
0.00248424
0.00185481
0.00104754
6.9443
6.74797
5.1691
3.28842
1.92764
1.0565
0.557378
0.293127
0.158576
0.0901677
0.054426
0.0349
0.0236723
0.0168802
0.0125732
0.00972265
0.00775964
0.00635468
0.00530723
0.00448807
0.00380769
0.00320433
0.00266862
0.0023242
6.54351
6.32947
4.94571
3.26262
1.98698
1.13129
0.617354
0.33294
0.182901
0.10471
0.0632644
0.0404831
0.0273781
0.0194749
0.0144903
0.0112157
0.0089847
0.00741488
0.00627922
0.00543947
0.0048105
0.00434715
0.00405865
0.00401457
6.20863
5.97858
4.73719
3.22868
2.03729
1.20378
0.680166
0.376973
0.210832
0.121778
0.0737282
0.0470834
0.0317219
0.0224777
0.0166771
0.0128965
0.010352
0.00859739
0.00737281
0.00652522
0.00596476
0.00564298
0.00554518
0.00564285
5.93045
5.68904
4.55167
3.19246
2.08086
1.27426
0.745622
0.425463
0.242854
0.141849
0.0861777
0.0549391
0.0368499
0.0259736
0.0191808
0.01479
0.0118732
0.00990454
0.00857934
0.00771814
0.00721203
0.00699251
0.00701084
0.00718033
5.70724
5.45871
4.39635
3.15987
2.1204
1.34325
0.813619
0.478634
0.279494
0.165499
0.101083
0.0643798
0.0429756
0.0300954
0.0220818
0.0169426
0.0135718
0.0113413
0.00988617
0.00898833
0.00851015
0.00835731
0.00844544
0.00867193
5.54373
5.28992
4.27897
3.13696
2.15967
1.41181
0.88418
0.536711
0.321329
0.193422
0.119051
0.0758589
0.0504085
0.0350442
0.0255063
0.0194299
0.0154876
0.0129205
0.0112845
0.0103107
0.00982607
0.0097095
0.00984374
0.0101199
5.45343
5.19134
4.20831
3.12767
2.20238
1.48161
0.957834
0.600005
0.368991
0.226436
0.140862
0.0899949
0.0595915
0.0411187
0.0296482
0.0223729
0.0176909
0.0146763
0.0127823
0.0116761
0.0111423
0.011031
0.011194
0.0115144
5.46111
5.19306
4.20303
3.14327
2.25425
1.55537
1.03575
0.669083
0.423216
0.265503
0.167492
0.107617
0.0711508
0.0487591
0.0348031
0.0259632
0.0203009
0.0166779
0.0144156
0.0130982
0.0124588
0.0123141
0.0124859
0.0128469
5.55177
5.27683
4.27212
3.20254
2.32473
1.63761
1.11984
0.744975
0.484937
0.311748
0.200148
0.129819
0.0859623
0.058611
0.0414222
0.0305051
0.0235173
0.0190532
0.0162634
0.0146236
0.0137996
0.013568
0.0137224
0.0141113
5.78076
5.50364
4.45343
3.32919
2.42899
1.73644
1.21408
0.829651
0.555517
0.366562
0.240316
0.158024
0.105238
0.0716179
0.0501959
0.0364841
0.027673
0.0220272
0.018476
0.0163521
0.0152292
0.0148307
0.0149288
0.015318
6.17298
5.90117
4.77762
3.5555
2.59079
1.86609
1.32613
0.927121
0.637347
0.431875
0.289891
0.194082
0.13064
0.0891498
0.0621801
0.0446768
0.0333227
0.0259897
0.0213262
0.0184747
0.0168812
0.0161922
0.016172
0.0165124
6.69043
6.44386
5.24561
3.90573
2.8388
2.04843
1.46974
1.04531
0.735063
0.510842
0.351527
0.240472
0.164451
0.113185
0.0789853
0.0563283
0.0413949
0.031618
0.0253035
0.0213455
0.0190159
0.0178485
0.0175622
0.0178193
7.27005
7.03969
5.78854
4.36136
3.18684
2.30634
1.66471
1.19805
0.857556
0.609315
0.429542
0.300825
0.209921
0.146612
0.103071
0.0734384
0.0534536
0.040101
0.0312968
0.0256254
0.0221281
0.0201681
0.0193753
0.0194605
7.79495
7.50399
6.2531
4.82784
3.5986
2.64008
1.92599
1.40221
1.01879
0.737672
0.531621
0.381176
0.272133
0.193862
0.13829
0.0992705
0.072173
0.0535655
0.04096
0.0325835
0.0271896
0.0239076
0.0222057
0.0218842
8.09829
7.57965
6.42564
5.13853
3.9668
2.99725
2.23858
1.66247
1.2309
0.909166
0.669653
0.491593
0.359619
0.262309
0.191079
0.139407
0.1023
0.075957
0.0575042
0.0447903
0.0362376
0.0306948
0.0273815
0.026103
7.94661
7.05682
6.17144
5.11595
4.13531
3.26864
2.53758
1.94843
1.48609
1.12856
0.854234
0.644649
0.485045
0.363936
0.272471
0.203825
0.152694
0.114978
0.0875171
0.0678236
0.0540067
0.0445251
0.03828
0.0348238
6.86821
5.81025
5.37258
4.74797
4.02688
3.33789
2.72605
2.19105
1.74258
1.37624
1.08166
0.847045
0.661348
0.515046
0.400268
0.310644
0.241018
0.187464
0.146986
0.116547
0.0938598
0.0771389
0.0653801
0.0566182
)
;

boundaryField
{
    rotor
    {
        type            epsilonWallFunction;
        value           nonuniform List<scalar> 
144
(
1.62946
1.81773
2.15369
2.23113
2.23382
2.90458
1.62946
0.784009
0.214199
0.238435
0.257685
0.271533
0.279494
1.18986
1.18719
1.18551
1.19483
1.20847
1.21676
1.21461
1.20258
1.1882
1.19206
0.280139
0.274979
0.26288
0.244688
0.220962
0.815142
1.76168
1.76168
1.93553
2.40281
2.80722
3.22437
4.23116
2.57031
5.18233
9.06267
10.6103
9.85233
28.4982
2.57031
0.973504
0.262796
1.24701
1.54051
1.78607
1.98248
2.13076
2.23259
2.28975
2.30352
2.27835
2.22203
2.1418
2.03678
1.9072
1.75298
1.56849
1.32903
0.280425
0.261852
0.240179
0.908706
2.30644
2.30644
1.8347
1.84483
2.11584
2.93659
26.7958
3.21785
8.00835
11.3266
12.4102
10.7442
38.7486
3.21785
1.14026
1.68806
2.3337
2.92501
3.44883
3.89839
4.2702
4.56241
4.7739
4.9044
4.95692
4.95137
4.88444
4.74938
4.53992
4.25166
3.88187
3.42979
2.8989
2.30041
1.65798
1.13739
2.94826
2.94826
6.27595
8.75719
9.81521
10.8312
50.5731
4.95375
3.71172
2.60997
1.87188
1.47019
2.77018
4.95375
1.47593
2.12376
2.6166
2.98588
3.28589
3.54358
3.76942
3.96749
4.14016
4.28923
4.41685
4.52598
4.57311
4.55952
4.46803
4.29468
4.03237
3.6729
3.21768
2.67115
2.00667
1.3136
4.94031
4.94031
10.8268
13.6416
11.9909
9.59676
31.7531
)
;
    }
    freestream
    {
        type            inletOutlet;
        inletValue      uniform 0.000375;
        value           nonuniform List<scalar> 
96
(
0.129946
0.413413
1.14055
1.83189
1.9909
1.8577
1.56421
1.44216
1.43429
1.49281
1.51823
1.50456
1.43878
1.27251
0.968649
0.6201
0.35476
0.226314
0.165088
0.123961
0.0904227
0.067563
0.05244
0.0411056
0.0322311
0.0251978
0.0194764
0.0147829
0.0109166
0.00773398
0.00513656
0.00301861
0.000375
0.000375
0.000375
0.000375
0.000375
0.000375
0.000375
0.000375
0.000375
0.000375
0.000375
0.000375
0.000375
0.000375
0.000375
0.000375
0.000375
0.000375
0.000375
0.000375
0.000375
0.000375
0.000375
0.000375
0.000375
0.000375
0.000375
0.000375
0.000375
0.000375
0.000375
0.000375
0.000375
0.000375
0.000375
0.000375
0.000375
0.000375
0.000375
0.000375
0.000375
0.000375
0.000375
0.000375
0.000375
0.000375
0.000375
0.0023242
0.00401457
0.00564285
0.00718033
0.00867193
0.0101199
0.0115144
0.0128469
0.0141113
0.015318
0.0165124
0.0178193
0.0194605
0.0218842
0.026103
0.0348238
0.0566182
)
;
    }
    frontAndBack
    {
        type            empty;
    }
}


// ************************************************************************* //
