/*--------------------------------*- C++ -*----------------------------------*\
  =========                 |
  \\      /  F ield         | OpenFOAM: The Open Source CFD Toolbox
   \\    /   O peration     | Website:  https://openfoam.org
    \\  /    A nd           | Version:  11
     \\/     M anipulation  |
\*---------------------------------------------------------------------------*/
FoamFile
{
    format      ascii;
    class       volScalarField;
    location    "0.42";
    object      k;
}
// * * * * * * * * * * * * * * * * * * * * * * * * * * * * * * * * * * * * * //

dimensions      [0 2 -2 0 0 0 0];

internalField   nonuniform List<scalar> 
2880
(
0.00349204
0.00753684
0.01469
0.0226807
0.0316951
0.0548354
0.0150808
0.0220677
0.0323307
0.0416506
0.0517813
0.0693481
0.019011
0.029307
0.0413022
0.0518517
0.0627221
0.077635
0.0211638
0.0341417
0.0473936
0.0588768
0.0701182
0.0830791
0.0228744
0.0379198
0.0521513
0.0643244
0.0757133
0.0872652
0.0241088
0.0410796
0.056091
0.0687784
0.0802306
0.0908642
0.0248227
0.0438113
0.0594285
0.0725137
0.0840311
0.0941497
0.0249667
0.0462144
0.0622606
0.075679
0.087317
0.0972435
0.0249331
0.0482656
0.0646251
0.0783613
0.0902113
0.100216
0.0249362
0.0498934
0.0665384
0.0806133
0.0927925
0.103123
0.0250768
0.0510884
0.0680088
0.0824656
0.0951087
0.106011
0.0252672
0.0518509
0.0690386
0.0839306
0.097182
0.108909
0.0253811
0.0521761
0.0696221
0.0850015
0.0990077
0.111825
0.0253506
0.0520525
0.0697426
0.0856506
0.10055
0.114734
0.0251842
0.051461
0.0693715
0.0858242
0.101737
0.117565
0.0249909
0.0503686
0.0684631
0.0854456
0.102455
0.120189
0.0250443
0.0487207
0.0669559
0.084404
0.102538
0.122394
0.024916
0.0465767
0.064774
0.0825574
0.101771
0.123864
0.0243884
0.0438685
0.0618189
0.079727
0.0998746
0.124144
0.0233371
0.0406028
0.0579462
0.0756842
0.0964894
0.122672
0.0217256
0.0365648
0.0528975
0.0700951
0.0910936
0.1187
0.0196198
0.0313174
0.0461234
0.062315
0.0827607
0.111295
0.0156897
0.0234967
0.0360022
0.0505992
0.0695412
0.0991819
0.0037798
0.00803251
0.0163832
0.0284928
0.0455529
0.0793502
0.145788
0.189186
0.205512
0.208472
0.203866
0.193107
0.178804
0.164097
0.149327
0.135077
0.121728
0.109452
0.0982984
0.0882559
0.0792826
0.0713221
0.0643077
0.0582038
0.0529849
0.0485574
0.0449253
0.0419664
0.0399487
0.0381422
0.113561
0.147913
0.168541
0.178784
0.1814
0.17889
0.172335
0.163043
0.153122
0.143067
0.133315
0.124137
0.115677
0.107995
0.101088
0.0949153
0.089427
0.0845206
0.0801199
0.0761369
0.0726037
0.0692539
0.0667403
0.0634393
0.101639
0.124165
0.141884
0.154216
0.161134
0.163639
0.162903
0.159979
0.155566
0.150867
0.146301
0.142162
0.138626
0.135764
0.133562
0.131934
0.130739
0.1298
0.128943
0.128064
0.127044
0.125743
0.124476
0.122301
0.0986372
0.113789
0.127401
0.13864
0.146948
0.152478
0.155816
0.157571
0.158462
0.159174
0.160105
0.161503
0.163478
0.16602
0.169017
0.17228
0.175576
0.178666
0.181313
0.183286
0.18448
0.184946
0.184857
0.18438
0.0990639
0.110614
0.121478
0.131185
0.139425
0.146225
0.151879
0.15675
0.161296
0.165877
0.170693
0.175799
0.181119
0.186481
0.191659
0.196415
0.20054
0.20388
0.206338
0.207888
0.208559
0.208483
0.207851
0.206742
0.101029
0.110709
0.120086
0.12877
0.136581
0.143588
0.15005
0.156211
0.162297
0.16842
0.174601
0.18076
0.186745
0.192366
0.197428
0.201762
0.20525
0.207833
0.209514
0.210353
0.210428
0.209919
0.208784
0.207228
0.103655
0.112603
0.121119
0.12904
0.136315
0.143033
0.149387
0.155534
0.161584
0.167607
0.173486
0.179069
0.184189
0.188671
0.192374
0.195216
0.19718
0.198324
0.198747
0.198598
0.198018
0.196967
0.195502
0.193848
0.106618
0.11546
0.123671
0.131178
0.137966
0.144143
0.149881
0.155317
0.160493
0.165328
0.169797
0.173806
0.177227
0.179931
0.181857
0.183018
0.183494
0.183423
0.182984
0.182363
0.181751
0.181255
0.180759
0.18012
0.109822
0.118983
0.12732
0.134771
0.141316
0.147058
0.15215
0.156715
0.160817
0.164465
0.167588
0.170096
0.171923
0.173105
0.173696
0.173791
0.173534
0.173072
0.172573
0.172191
0.172096
0.172475
0.173339
0.174184
0.113275
0.123124
0.131985
0.139768
0.146437
0.152079
0.156834
0.160828
0.164147
0.16684
0.168928
0.170433
0.171396
0.17186
0.171913
0.171662
0.17123
0.170726
0.17023
0.169797
0.169486
0.169289
0.169919
0.171536
0.117028
0.127945
0.13773
0.146252
0.15346
0.159443
0.164344
0.168302
0.171433
0.173827
0.175561
0.176706
0.177339
0.177543
0.177426
0.177039
0.176442
0.1756
0.174434
0.172881
0.170909
0.168467
0.166406
0.166307
0.121144
0.133541
0.144655
0.154303
0.162439
0.16918
0.174686
0.179121
0.182623
0.185314
0.187295
0.188655
0.189487
0.189853
0.189786
0.18936
0.188472
0.186848
0.184254
0.180294
0.175085
0.169152
0.162972
0.15893
0.125671
0.139996
0.152813
0.163894
0.173225
0.180973
0.18734
0.192512
0.196639
0.199861
0.20225
0.203895
0.204894
0.205211
0.204722
0.203133
0.200102
0.195689
0.190069
0.183711
0.17651
0.168274
0.159033
0.150661
0.130633
0.147343
0.162146
0.174799
0.185351
0.194062
0.20118
0.206913
0.211421
0.214851
0.217137
0.218266
0.217861
0.216286
0.21324
0.209023
0.20382
0.197473
0.189936
0.181045
0.170909
0.159685
0.148033
0.136173
0.136002
0.155527
0.172412
0.186495
0.19795
0.207166
0.214477
0.220047
0.223835
0.225651
0.225853
0.224756
0.222467
0.218742
0.213647
0.207026
0.198806
0.189072
0.177986
0.165753
0.152789
0.139484
0.126765
0.114091
0.141676
0.16435
0.1831
0.198088
0.209703
0.218487
0.224447
0.227759
0.229014
0.228758
0.227118
0.223681
0.218156
0.210861
0.201867
0.191293
0.179333
0.166219
0.152325
0.138106
0.124212
0.111365
0.100075
0.0912802
0.147441
0.173409
0.193366
0.208279
0.218646
0.224785
0.228
0.228983
0.227657
0.224195
0.218231
0.210209
0.200364
0.188919
0.17612
0.162252
0.147681
0.132917
0.118595
0.105434
0.0940398
0.0849049
0.0782168
0.0755157
0.152925
0.182025
0.202002
0.214916
0.222064
0.225585
0.225495
0.222531
0.216482
0.207782
0.197062
0.184677
0.171008
0.156441
0.141375
0.126327
0.111967
0.0990005
0.0879477
0.0790948
0.0725685
0.0684873
0.0668941
0.0677083
0.157564
0.189191
0.207069
0.216698
0.220643
0.219594
0.215009
0.206395
0.195064
0.181787
0.1672
0.151877
0.136327
0.121067
0.106765
0.0940853
0.0834565
0.0749939
0.068604
0.0641418
0.0615446
0.0607934
0.0612759
0.0633659
0.16064
0.193331
0.207961
0.213663
0.212571
0.206996
0.196364
0.182788
0.167427
0.151235
0.135014
0.119357
0.104868
0.092159
0.0815985
0.0731856
0.0666793
0.0617947
0.0583319
0.0562105
0.0554384
0.0556696
0.0567386
0.0594956
0.16173
0.193854
0.204663
0.205173
0.199914
0.188403
0.173188
0.156328
0.13913
0.122611
0.107402
0.0940527
0.0829144
0.0739464
0.0668402
0.0612382
0.0568715
0.0536074
0.0513955
0.0502849
0.0503033
0.0509608
0.0526725
0.0558153
0.161667
0.191253
0.197627
0.194286
0.183816
0.167693
0.149798
0.131899
0.115239
0.100461
0.0879185
0.0776542
0.0693603
0.062641
0.05719
0.0528253
0.0494398
0.0470096
0.0456018
0.0452882
0.0457077
0.0469415
0.0491306
0.0521988
0.163334
0.189035
0.190332
0.182998
0.167073
0.148297
0.129573
0.11245
0.097599
0.0851706
0.0749802
0.066622
0.0597355
0.0540907
0.0495365
0.0459667
0.0433335
0.0416426
0.0409215
0.0410501
0.041801
0.0433706
0.0456243
0.0485126
0.171193
0.189161
0.185594
0.171756
0.151862
0.131834
0.113619
0.0979867
0.084951
0.0741985
0.0653073
0.0579608
0.0519564
0.0471206
0.0433143
0.0404399
0.0384392
0.0372864
0.0369753
0.037291
0.0382586
0.0398872
0.0420647
0.0447101
0.00552471
0.0215661
0.0619558
0.108043
0.139987
0.124327
0.0187658
0.0433805
0.0889509
0.136191
0.18024
0.213356
0.0233666
0.0586091
0.105046
0.15341
0.199224
0.230804
0.0258431
0.0688226
0.114955
0.163375
0.207155
0.233463
0.029753
0.0757537
0.121445
0.16912
0.209983
0.230856
0.0328363
0.0805574
0.125678
0.172261
0.21031
0.226259
0.0352016
0.0837934
0.128258
0.173771
0.209567
0.221544
0.0369358
0.0857667
0.129534
0.174231
0.20848
0.217415
0.0381031
0.0866467
0.129709
0.173996
0.20735
0.214077
0.0387503
0.0865359
0.128898
0.17316
0.206243
0.211499
0.0389049
0.0854639
0.127158
0.171816
0.205138
0.20959
0.0386201
0.0834648
0.124501
0.169911
0.203974
0.208244
0.0379799
0.0805452
0.120912
0.167289
0.202682
0.207344
0.0370589
0.0767385
0.116356
0.163747
0.201128
0.206926
0.0358359
0.0721154
0.110792
0.159041
0.199126
0.206973
0.0342979
0.0667511
0.104173
0.152881
0.196393
0.207423
0.0324215
0.0607293
0.0964662
0.144944
0.19248
0.208103
0.0301036
0.054153
0.0876694
0.1349
0.186709
0.208724
0.0269081
0.047203
0.0778493
0.122474
0.178072
0.208849
0.024963
0.0404446
0.067197
0.107455
0.16521
0.207886
0.0233009
0.0343407
0.0560861
0.0898138
0.146521
0.20392
0.0213288
0.0285502
0.0446913
0.0700609
0.121133
0.190849
0.0174964
0.0216617
0.0318782
0.0485401
0.087639
0.155755
0.00495174
0.00761652
0.0126049
0.0215384
0.0416435
0.11883
0.192381
0.195029
0.182269
0.160693
0.138573
0.118433
0.101251
0.086963
0.0751557
0.0653888
0.05735
0.0508114
0.0455663
0.0414358
0.0382689
0.0359481
0.0343964
0.0335741
0.0334619
0.0338589
0.0348638
0.0363997
0.0384091
0.0407913
0.217364
0.199125
0.17538
0.150114
0.127009
0.107447
0.0912824
0.0779552
0.0669634
0.0579592
0.0506746
0.0448647
0.0403032
0.0367839
0.0341326
0.0322186
0.0309581
0.0303064
0.030241
0.030618
0.0315229
0.0328804
0.0346639
0.0367788
0.223014
0.197051
0.167171
0.139877
0.116972
0.0982352
0.0828669
0.070234
0.0599258
0.051632
0.0450632
0.0399358
0.0359809
0.0329641
0.0307001
0.0290572
0.0279533
0.0273465
0.0272196
0.0274932
0.0282021
0.02932
0.0308415
0.032693
0.222435
0.190495
0.157954
0.130547
0.108365
0.0903195
0.0755346
0.0634985
0.0538554
0.0462677
0.0403854
0.0358676
0.0324133
0.0297797
0.0277853
0.0263048
0.025261
0.0246151
0.0243546
0.0244575
0.0249066
0.025737
0.0269686
0.0285617
0.217335
0.182273
0.149245
0.122468
0.100925
0.083355
0.0690549
0.0576134
0.0486515
0.0417517
0.0364895
0.0324838
0.0294236
0.0270724
0.0252593
0.0238671
0.0228223
0.0220868
0.0216503
0.0215189
0.0216796
0.0221697
0.0230798
0.0244134
0.210816
0.174148
0.141606
0.115503
0.0943682
0.0771448
0.0633225
0.0525038
0.0442201
0.0379561
0.0332289
0.0296393
0.0268825
0.0247361
0.0230423
0.0216919
0.0206132
0.0197655
0.0191347
0.0187281
0.018566
0.0186847
0.019211
0.0202658
0.204121
0.166959
0.13511
0.109446
0.0885214
0.0715987
0.058282
0.0481012
0.0404629
0.0347622
0.0304811
0.0272216
0.0246949
0.0226966
0.021082
0.0197493
0.0186271
0.017669
0.0168512
0.0161724
0.0156528
0.0153527
0.0154328
0.0161202
0.197946
0.160931
0.129642
0.104135
0.0832921
0.0666706
0.0538859
0.0443316
0.0372815
0.0320627
0.0281446
0.0251434
0.0227914
0.0209023
0.0193443
0.0180222
0.0168654
0.0158215
0.014854
0.0139435
0.0130923
0.0123436
0.0118249
0.0118567
0.192683
0.156036
0.125056
0.0994658
0.0786319
0.0623268
0.0500817
0.0411167
0.0345839
0.0297667
0.0261391
0.0233393
0.0211214
0.0193166
0.0178049
0.0164982
0.0153285
0.014241
0.0131895
0.0121347
0.0110453
0.00990212
0.00860224
0.0065754
0.188492
0.152222
0.121246
0.0953776
0.0745116
0.0585327
0.0468114
0.0383802
0.0322892
0.0277999
0.0244024
0.0217593
0.0196462
0.01791
0.0164417
0.0151609
0.0140048
0.0129218
0.0118667
0.0107951
0.0096596
0.00841735
0.00706005
0.00534373
0.185441
0.14943
0.118144
0.0918382
0.070908
0.0552493
0.0440155
0.0360521
0.0303294
0.0261031
0.0228854
0.0203639
0.0183336
0.0166549
0.015229
0.0139825
0.0128586
0.0118117
0.0108031
0.00979621
0.00875199
0.00763542
0.00643746
0.00503543
0.183567
0.147607
0.115712
0.0888299
0.0677977
0.0524342
0.0416363
0.0340714
0.0286489
0.0246294
0.0215502
0.0191217
0.0171562
0.0155258
0.0141395
0.0129296
0.0118443
0.0108422
0.00988888
0.00895296
0.0080013
0.00700849
0.0059804
0.00484339
0.182908
0.146696
0.113935
0.0863414
0.0651545
0.0500443
0.0396219
0.032387
0.0272031
0.0233424
0.020367
0.0180082
0.0160927
0.014502
0.0131513
0.0119775
0.010932
0.00997642
0.00907967
0.00821397
0.00735127
0.00647366
0.00559429
0.00466738
0.183406
0.146697
0.11282
0.0843633
0.0629499
0.0480385
0.0379277
0.0309573
0.0259569
0.0222138
0.0193131
0.0170047
0.015127
0.0135689
0.0122503
0.0111113
0.0101055
0.00919702
0.00835693
0.00756032
0.0067832
0.00601282
0.00526457
0.00450875
0.185026
0.147677
0.112363
0.0828851
0.0611566
0.0463809
0.0365161
0.0297483
0.0248823
0.0212214
0.0183714
0.0160975
0.0142477
0.0127165
0.0114272
0.0103218
0.00935581
0.00849462
0.00771104
0.00698216
0.00628692
0.00561566
0.00498306
0.00436961
0.187798
0.149659
0.112511
0.0819027
0.05975
0.0450392
0.0353543
0.028732
0.0239572
0.0203483
0.0175287
0.0152763
0.0134465
0.0119379
0.0106757
0.00960325
0.00867702
0.00786319
0.0071356
0.00647261
0.00585504
0.00527472
0.00474392
0.00424965
0.191757
0.152737
0.113488
0.0814289
0.058705
0.0439837
0.0344144
0.0278851
0.0231635
0.0195807
0.0167746
0.0145332
0.0127172
0.0112278
0.00999123
0.00895131
0.00806473
0.00729808
0.00662558
0.00602624
0.00548182
0.00498438
0.00454277
0.00414798
0.196958
0.157004
0.115226
0.0814335
0.0579906
0.0431863
0.0336715
0.027188
0.0224866
0.0189079
0.0161012
0.0138622
0.0120553
0.0105825
0.0093703
0.00836238
0.00751516
0.00679513
0.00617645
0.00563814
0.00516212
0.00473963
0.00437557
0.00406309
0.203448
0.162597
0.117652
0.0817371
0.0575732
0.0426203
0.0331036
0.0266237
0.0219139
0.0183208
0.015502
0.0132587
0.0114568
0.00999863
0.00880982
0.00783326
0.00702481
0.00635048
0.00578396
0.00530373
0.00489111
0.00453572
0.0042383
0.00399309
0.211273
0.169684
0.120796
0.0823848
0.0574318
0.042259
0.0326894
0.026177
0.0214347
0.017812
0.0149718
0.0127186
0.0109189
0.00947356
0.00830705
0.00736101
0.00659038
0.00596041
0.00544397
0.00501846
0.00466397
0.0043679
0.00412701
0.00393606
0.2207
0.178439
0.124578
0.0833279
0.0575
0.0420717
0.0324075
0.0258333
0.0210394
0.0173749
0.0145061
0.0122388
0.0104387
0.00900481
0.00785943
0.00694275
0.0062086
0.00562124
0.00515231
0.00477771
0.00447579
0.00423147
0.00403792
0.00389017
0.232593
0.188977
0.128474
0.0844521
0.0577008
0.0420229
0.0322356
0.0255789
0.020719
0.0170038
0.014101
0.0118166
0.0100141
0.00859009
0.00746447
0.00657569
0.00587628
0.00532927
0.00490477
0.00457675
0.00432163
0.00412187
0.00396759
0.00385385
0.248199
0.20099
0.131959
0.0855967
0.0579893
0.0420653
0.0321512
0.0254003
0.0204656
0.0166939
0.0137535
0.0114496
0.00964307
0.00822728
0.00711973
0.00625698
0.00559014
0.00508077
0.00469709
0.00441086
0.00419654
0.00403466
0.00391289
0.00382574
0.268977
0.210998
0.134691
0.0865513
0.0582904
0.0421565
0.032133
0.025286
0.020273
0.0164416
0.0134615
0.0111363
0.00932396
0.00791449
0.00682286
0.00598378
0.00534685
0.00487194
0.00452499
0.00427537
0.00409574
0.00396538
0.00387075
0.00380427
0.00690101
0.0332204
0.0773188
0.126122
0.152623
0.151922
0.0219421
0.0645344
0.107717
0.153837
0.197542
0.259082
0.0315782
0.0853125
0.128896
0.173803
0.21965
0.269305
0.0391886
0.0993011
0.143487
0.187319
0.229997
0.265925
0.0455559
0.109627
0.154244
0.196774
0.235099
0.260583
0.0508437
0.117548
0.162441
0.203605
0.237756
0.255927
0.0551711
0.123692
0.168772
0.208727
0.239259
0.252438
0.0586255
0.128403
0.173652
0.212617
0.240392
0.250225
0.0612704
0.13188
0.177351
0.215628
0.241579
0.249311
0.0631498
0.134244
0.180042
0.218002
0.243051
0.249695
0.0642957
0.135562
0.181832
0.219888
0.244925
0.251371
0.0647539
0.135857
0.182768
0.221353
0.247236
0.254373
0.0647055
0.135109
0.182845
0.222394
0.249934
0.258671
0.0641219
0.133311
0.182009
0.222931
0.252892
0.264238
0.0629357
0.130449
0.180161
0.222825
0.255904
0.271008
0.0610733
0.126488
0.177158
0.221831
0.25871
0.278833
0.0584621
0.12138
0.172827
0.219612
0.260959
0.287439
0.0550234
0.115073
0.166973
0.215747
0.262039
0.296474
0.0506662
0.107514
0.159377
0.20971
0.261179
0.305366
0.045295
0.098612
0.149757
0.200804
0.256959
0.313202
0.0388257
0.0881463
0.137631
0.18805
0.247545
0.318439
0.0312123
0.075463
0.12194
0.169873
0.22995
0.317504
0.0218968
0.0581922
0.0997084
0.143191
0.199421
0.298281
0.00632649
0.0260137
0.0597025
0.0996813
0.153486
0.181698
0.289453
0.216218
0.136245
0.0871059
0.0585261
0.042268
0.0321594
0.025227
0.0201366
0.0162449
0.013224
0.0108761
0.00905592
0.00765033
0.00657185
0.00575342
0.00514313
0.00469895
0.00438433
0.00416612
0.00401535
0.00391052
0.00383785
0.00378763
0.295844
0.21403
0.135995
0.0871495
0.0586465
0.0423787
0.0322188
0.0252192
0.020055
0.0161037
0.0130415
0.0106694
0.00883891
0.00743418
0.00636541
0.0055639
0.00497627
0.00455851
0.00427148
0.00407958
0.00395237
0.00386778
0.00381213
0.00377484
0.283922
0.20691
0.133936
0.0866176
0.0586474
0.0424871
0.0323106
0.025257
0.0200291
0.0160195
0.0129155
0.0105172
0.00867366
0.0072662
0.00620302
0.00541401
0.00484434
0.00444802
0.00418342
0.0040127
0.00390427
0.00383555
0.00379262
0.00376555
0.269544
0.199012
0.131281
0.0858681
0.0586009
0.0426146
0.0324421
0.0253426
0.020058
0.015995
0.0128483
0.0104216
0.00856137
0.00714692
0.0060846
0.00530296
0.00474584
0.00436537
0.00411763
0.00396286
0.00386857
0.00381187
0.00377861
0.00375927
0.256751
0.191874
0.12872
0.0851702
0.0586109
0.0427929
0.0326261
0.0254826
0.0201419
0.0160289
0.0128425
0.0103846
0.00850341
0.00707708
0.00601018
0.00523007
0.00467943
0.0043087
0.00407199
0.003928
0.00384348
0.0037953
0.00376902
0.00375521
0.246644
0.186153
0.12666
0.0847103
0.0587398
0.0430531
0.0328778
0.0256852
0.0202871
0.0161223
0.0128943
0.0104056
0.00850125
0.00705779
0.00598012
0.00519495
0.00464413
0.00427662
0.00404496
0.00390659
0.00382766
0.00378472
0.00376315
0.0037528
0.239293
0.182052
0.125329
0.0846165
0.0590482
0.0434246
0.0332145
0.0259648
0.0205034
0.0162813
0.0130071
0.0104819
0.0085496
0.00708555
0.0059929
0.00519729
0.00463957
0.00426852
0.00403577
0.00389784
0.00382024
0.00377968
0.00376022
0.00375174
0.234479
0.1796
0.124852
0.0849472
0.0595889
0.0439582
0.0336838
0.0263572
0.0208214
0.0165332
0.0132033
0.0106323
0.00866276
0.0071687
0.00605217
0.00523794
0.00466618
0.00428467
0.00404463
0.003902
0.00382166
0.00377983
0.00375993
0.00375153
0.231974
0.178781
0.125291
0.0857954
0.0604542
0.0446995
0.0342978
0.0268654
0.0212406
0.0168773
0.0134838
0.010859
0.00884376
0.0073112
0.00616229
0.00532085
0.00472644
0.00432663
0.00407248
0.00391958
0.0038321
0.00378515
0.00376218
0.00375203
0.231606
0.179595
0.126768
0.087272
0.0616731
0.0456536
0.035057
0.0274864
0.0217563
0.0173076
0.0138425
0.0111563
0.00908841
0.00751038
0.00632202
0.00544606
0.00482145
0.00439588
0.00412079
0.00395185
0.00385256
0.00379666
0.0037675
0.00375339
0.233261
0.182063
0.129324
0.0893872
0.0632588
0.0468317
0.0359698
0.0282258
0.0223726
0.0178279
0.0142829
0.011528
0.00940012
0.00776941
0.00653431
0.0056164
0.004954
0.00449503
0.00419183
0.00400051
0.0038841
0.00381539
0.00377665
0.00375621
0.236916
0.186241
0.133046
0.0922131
0.0652596
0.0482623
0.0370523
0.0290932
0.0230955
0.0184424
0.0148085
0.0119772
0.00978212
0.0080916
0.00680258
0.00583539
0.00512764
0.00462763
0.00428883
0.00406829
0.00392887
0.0038425
0.00379077
0.00376107
0.242563
0.192217
0.13804
0.0958312
0.0677278
0.0499753
0.0383206
0.0300974
0.0239303
0.0191548
0.0154224
0.012507
0.0102376
0.00848035
0.00713049
0.00610694
0.00534657
0.00479796
0.00441595
0.00415889
0.00398989
0.0038803
0.00381117
0.00376863
0.25024
0.200101
0.144433
0.100341
0.0707257
0.0520047
0.0397921
0.031247
0.0248815
0.0199678
0.016127
0.0131197
0.0107693
0.00893891
0.00752173
0.00643523
0.00561538
0.00501094
0.00457807
0.00427676
0.00407083
0.00393154
0.00383968
0.00377982
0.259999
0.210021
0.15237
0.105858
0.0743253
0.0543889
0.0414856
0.0325508
0.025953
0.0208834
0.0169237
0.0138171
0.0113795
0.00947015
0.00797986
0.00682446
0.00593887
0.00527182
0.00478066
0.0044271
0.00417617
0.00399964
0.00387856
0.00379575
0.27189
0.222111
0.162
0.112506
0.0786069
0.0571711
0.0434218
0.0340175
0.0271479
0.0219025
0.0178127
0.0145998
0.0120695
0.0100762
0.00850786
0.00727843
0.00632163
0.0055859
0.00502944
0.00461564
0.00431105
0.00408869
0.00393057
0.00381777
0.285933
0.236492
0.173461
0.120409
0.0836543
0.0603976
0.0456226
0.0356559
0.0284685
0.0230245
0.018793
0.0154669
0.0128393
0.010758
0.00910774
0.00780017
0.00676764
0.00595803
0.00533003
0.00484842
0.00448139
0.00420362
0.0039984
0.00384701
0.302077
0.253243
0.186847
0.129667
0.0895459
0.0641146
0.0481102
0.0374746
0.0299162
0.0242478
0.0198618
0.0164161
0.0136872
0.0115152
0.00978027
0.00839164
0.00728002
0.00639245
0.00568767
0.00513139
0.00469312
0.00434934
0.00408552
0.00388472
0.320088
0.272378
0.202153
0.140326
0.0963389
0.0683619
0.0509048
0.0394813
0.0314911
0.0255691
0.0210151
0.0174434
0.0146104
0.0123459
0.0105249
0.00905369
0.00786095
0.00689258
0.00610691
0.00546994
0.00495198
0.0045312
0.00419609
0.00393268
0.339505
0.29367
0.219191
0.152326
0.104044
0.0731629
0.0540209
0.0416822
0.0331925
0.0269838
0.0222472
0.0185436
0.0156042
0.0132467
0.0113397
0.0097858
0.00851133
0.00746066
0.00659121
0.00586861
0.00526328
0.00475466
0.00433469
0.00399277
0.359708
0.316168
0.237446
0.165435
0.112592
0.0785094
0.0574617
0.0440776
0.035018
0.0284872
0.0235519
0.0197101
0.0166628
0.0142129
0.0122213
0.0105859
0.0092305
0.00809741
0.00714261
0.00633072
0.00563148
0.00502485
0.00450601
0.00406711
0.378603
0.338009
0.255909
0.179152
0.121783
0.0843394
0.0612106
0.0466606
0.036962
0.0300732
0.0249225
0.020936
0.0177795
0.0152385
0.0131645
0.0114502
0.010016
0.00880176
0.00776148
0.00685811
0.00605985
0.00534616
0.0047145
0.00415776
0.389171
0.356287
0.273213
0.192644
0.131237
0.0905111
0.0652201
0.0494138
0.0390153
0.0317344
0.0263515
0.0222136
0.0189469
0.0163165
0.0141632
0.0123735
0.0108637
0.00957087
0.00844642
0.00745097
0.00655028
0.00572189
0.00496392
0.00426655
0.356706
0.361987
0.287381
0.204726
0.14038
0.0967895
0.0694058
0.0523068
0.0411651
0.0334627
0.0278316
0.0235357
0.0201575
0.0174396
0.0152103
0.0133492
0.011768
0.0104002
0.0091943
0.00810785
0.00710313
0.00615413
0.00525719
0.00439481
0.0106354
0.015414
0.0178371
0.0190534
0.0208424
0.0520229
0.0284275
0.0379302
0.0400451
0.0399654
0.0439351
0.0825757
0.0368309
0.0476538
0.0523584
0.0531372
0.0605436
0.10333
0.0423282
0.0556331
0.0625711
0.06438
0.0746822
0.120774
0.0462222
0.0631241
0.071807
0.0747002
0.0872347
0.134848
0.049269
0.0701854
0.0803446
0.0844295
0.0985143
0.145376
0.0518128
0.0768263
0.0883185
0.0937029
0.108784
0.153188
0.0539922
0.0830952
0.0958247
0.102606
0.118256
0.159134
0.0558685
0.0889749
0.102919
0.111198
0.127043
0.163931
0.0574793
0.0944154
0.10962
0.119444
0.135317
0.168069
0.0588526
0.0993738
0.115926
0.127317
0.143245
0.172005
0.0600163
0.103787
0.12183
0.134849
0.15093
0.176226
0.0610034
0.107553
0.127314
0.14209
0.158575
0.181172
0.061427
0.110755
0.132343
0.149079
0.166406
0.187339
0.0613059
0.113359
0.13684
0.155805
0.174606
0.195285
0.0604831
0.115233
0.14067
0.162162
0.183187
0.205164
0.0589078
0.116108
0.143629
0.167909
0.191904
0.21676
0.0564827
0.115811
0.14538
0.172622
0.200161
0.229268
0.0530717
0.113827
0.145576
0.17561
0.206944
0.241104
0.0485869
0.109514
0.143682
0.176059
0.210692
0.249709
0.0429147
0.101864
0.138896
0.172811
0.209516
0.252048
0.0354629
0.0895142
0.130055
0.164183
0.200414
0.244418
0.0252985
0.0697721
0.11504
0.147728
0.178447
0.218708
0.0105985
0.0449316
0.0930886
0.121881
0.136013
0.133193
0.300292
0.353757
0.293425
0.213862
0.148527
0.102882
0.0736557
0.0552992
0.0433958
0.03525
0.0293566
0.0248959
0.0214047
0.0186007
0.0162988
0.0143705
0.0127224
0.0112841
0.0100006
0.00882576
0.00771735
0.00664378
0.00559627
0.00454317
0.258987
0.334495
0.291728
0.219441
0.155219
0.108537
0.07786
0.0583499
0.045693
0.0370902
0.0309221
0.0262898
0.0226835
0.0197944
0.0174226
0.015431
0.0137205
0.0122165
0.01086
0.00960076
0.00839081
0.00719082
0.0059824
0.00471153
0.233854
0.31224
0.286782
0.222095
0.160391
0.113619
0.081939
0.0614261
0.0480458
0.03898
0.0325265
0.0277157
0.0239913
0.0210173
0.018578
0.0165267
0.0147581
0.013193
0.0117685
0.0104293
0.00912135
0.0077951
0.00641687
0.00489933
0.219063
0.292227
0.278197
0.22202
0.164119
0.118095
0.0858491
0.0645066
0.0504482
0.0409197
0.0341713
0.0291743
0.0253283
0.0222694
0.0197649
0.0176575
0.0158353
0.0142141
0.0127263
0.0113118
0.00990981
0.00845878
0.00690293
0.0051063
0.210457
0.274984
0.267403
0.220409
0.166682
0.12201
0.0895794
0.0675814
0.0528982
0.0429112
0.0358594
0.0306684
0.0266972
0.0235537
0.0209873
0.0188294
0.0169601
0.0152895
0.0137448
0.0122604
0.0107685
0.00919439
0.00745276
0.00533575
0.205743
0.260295
0.256404
0.217958
0.168346
0.125432
0.0931415
0.0706497
0.0553969
0.0449573
0.0375934
0.0322002
0.0281002
0.0248738
0.0222519
0.0200534
0.0181499
0.0164442
0.0148571
0.0133158
0.0117439
0.0100521
0.00811647
0.00561612
0.203216
0.247841
0.245769
0.21474
0.169284
0.128426
0.0965505
0.0737186
0.0579487
0.0470608
0.0393745
0.0337692
0.029536
0.0262293
0.0235614
0.021339
0.0194248
0.0177149
0.0161231
0.0145686
0.0129649
0.0112064
0.00912638
0.00625214
0.201879
0.237322
0.235843
0.210693
0.169449
0.130994
0.0998103
0.0767903
0.0605568
0.0492239
0.0412017
0.0353697
0.0309952
0.0276083
0.0249039
0.0226775
0.0207857
0.0191221
0.0176012
0.0161474
0.0146911
0.0131895
0.0117351
0.0107646
0.201192
0.228505
0.226812
0.205942
0.16907
0.133156
0.10292
0.0798638
0.0632246
0.051449
0.0430717
0.0369917
0.0324602
0.0289861
0.026248
0.0240325
0.0221944
0.0206333
0.0192799
0.0180887
0.0170363
0.0161396
0.0155138
0.0153833
0.201007
0.22125
0.21884
0.201118
0.168311
0.134958
0.105873
0.0829356
0.0659559
0.0537407
0.044984
0.0386267
0.0339136
0.0303361
0.0275584
0.0253589
0.0235924
0.0221654
0.0210227
0.0201371
0.019502
0.0191307
0.0190642
0.019291
0.201383
0.21553
0.212079
0.196435
0.167288
0.136453
0.108663
0.085999
0.0687551
0.0561084
0.0469457
0.0402747
0.0353472
0.0316425
0.0288118
0.0266263
0.024939
0.0236589
0.0227337
0.0221349
0.0218436
0.021841
0.0220886
0.0224943
0.202349
0.211422
0.206708
0.192122
0.166147
0.137701
0.111289
0.0890486
0.0716285
0.0585689
0.0489748
0.0419489
0.0367664
0.0329017
0.0299956
0.0278107
0.0261949
0.0250531
0.0243258
0.0239709
0.0239477
0.0241898
0.0246539
0.0251655
0.20427
0.209295
0.203005
0.188432
0.165071
0.138781
0.113767
0.0920828
0.0745867
0.0611465
0.0511021
0.0436776
0.0381916
0.0341239
0.0311072
0.0288948
0.0273252
0.0262932
0.0257261
0.0255652
0.0257315
0.0261706
0.0267856
0.0273822
0.207907
0.209817
0.20146
0.185806
0.164295
0.139824
0.116151
0.0951127
0.0776454
0.063874
0.0533709
0.0455051
0.0396605
0.0353351
0.0321586
0.029874
0.0283079
0.0273409
0.0268848
0.0268642
0.0271631
0.0277529
0.0284876
0.0291618
0.214132
0.212827
0.20206
0.185054
0.164038
0.140999
0.118537
0.098175
0.0808314
0.0667917
0.0558367
0.0474925
0.04123
0.036581
0.0331801
0.0307622
0.0291408
0.0281811
0.027779
0.0278336
0.0282287
0.0289221
0.0297531
0.0305013
0.223595
0.220187
0.205359
0.185917
0.164695
0.142559
0.121064
0.101345
0.0841895
0.0699495
0.0585657
0.0497171
0.0429779
0.037931
0.034227
0.0315985
0.0298475
0.0288246
0.0284104
0.0284829
0.0289183
0.0296748
0.0305777
0.0313959
0.236546
0.232666
0.213493
0.189918
0.167149
0.144988
0.124003
0.104766
0.0878014
0.0734151
0.0616369
0.0522732
0.0450054
0.0394828
0.0353863
0.0324547
0.0304844
0.0293141
0.0288101
0.0288426
0.0292507
0.0300231
0.0309677
0.0318478
0.252115
0.249637
0.227123
0.198615
0.172556
0.149085
0.127848
0.108726
0.0918312
0.0772991
0.0651531
0.0552753
0.0474392
0.0413673
0.0367834
0.0334448
0.0311504
0.0297332
0.0290489
0.0289694
0.0292805
0.0300019
0.0309478
0.0318726
0.268357
0.269229
0.245114
0.212112
0.18192
0.155872
0.133373
0.113738
0.0965997
0.0818076
0.0692714
0.0588727
0.050438
0.0437527
0.0385892
0.0347339
0.0319986
0.0302198
0.0292508
0.0289588
0.0291349
0.0297135
0.0306066
0.0315548
0.282284
0.287482
0.263813
0.228713
0.195135
0.16605
0.141447
0.120546
0.102655
0.0873208
0.0742658
0.0632905
0.0542158
0.0468581
0.0410297
0.036549
0.0332494
0.0309793
0.0295984
0.0289722
0.0289355
0.0292658
0.0300151
0.0309324
0.289452
0.298571
0.277788
0.244179
0.209861
0.178896
0.152294
0.129755
0.110649
0.0944032
0.080588
0.0688955
0.0590934
0.0509891
0.0444104
0.0391996
0.0352111
0.0323106
0.0303716
0.0292675
0.0288671
0.0289421
0.0293852
0.0301922
0.284679
0.296501
0.280981
0.252799
0.221606
0.191554
0.164523
0.140992
0.120785
0.103508
0.0887569
0.0761921
0.0655425
0.0565936
0.04917
0.043123
0.0383209
0.0346476
0.0319927
0.0302377
0.0292841
0.0289853
0.0291003
0.0295936
0.262556
0.277124
0.270525
0.250398
0.22534
0.199762
0.174999
0.152291
0.132061
0.114321
0.0988939
0.0855495
0.0740634
0.0642398
0.0559145
0.0489495
0.0432258
0.0386417
0.0351096
0.0325329
0.0308214
0.029867
0.0295501
0.0296425
0.213318
0.238862
0.243623
0.235928
0.219722
0.200043
0.1802
0.160683
0.142262
0.125407
0.110255
0.0967825
0.0848971
0.0744844
0.0654327
0.0576369
0.0510052
0.045464
0.0409477
0.0374127
0.034758
0.0329029
0.0318184
0.0312579
)
;

boundaryField
{
    rotor
    {
        type            kqRWallFunction;
        value           nonuniform List<scalar> 
144
(
0.00349204
0.00753684
0.01469
0.0226807
0.0316951
0.0548354
0.00349204
0.0150808
0.019011
0.0211638
0.0228744
0.0241088
0.0248227
0.0249667
0.0249331
0.0249362
0.0250768
0.0252672
0.0253811
0.0253506
0.0251842
0.0249909
0.0250443
0.024916
0.0243884
0.0233371
0.0217256
0.0196198
0.0156897
0.0037798
0.0037798
0.00803251
0.0163832
0.0284928
0.0455529
0.0793502
0.00552471
0.0215661
0.0619558
0.108043
0.139987
0.124327
0.00552471
0.0187658
0.0233666
0.0258431
0.029753
0.0328363
0.0352016
0.0369358
0.0381031
0.0387503
0.0389049
0.0386201
0.0379799
0.0370589
0.0358359
0.0342979
0.0324215
0.0301036
0.0269081
0.024963
0.0233009
0.0213288
0.0174964
0.00495174
0.00495174
0.00761652
0.0126049
0.0215384
0.0416435
0.11883
0.00690101
0.0332204
0.0773188
0.126122
0.152623
0.151922
0.00690101
0.0219421
0.0315782
0.0391886
0.0455559
0.0508437
0.0551711
0.0586255
0.0612704
0.0631498
0.0642957
0.0647539
0.0647055
0.0641219
0.0629357
0.0610733
0.0584621
0.0550234
0.0506662
0.045295
0.0388257
0.0312123
0.0218968
0.00632649
0.00632649
0.0260137
0.0597025
0.0996813
0.153486
0.181698
0.0106354
0.015414
0.0178371
0.0190534
0.0208424
0.0520229
0.0106354
0.0284275
0.0368309
0.0423282
0.0462222
0.049269
0.0518128
0.0539922
0.0558685
0.0574793
0.0588526
0.0600163
0.0610034
0.061427
0.0613059
0.0604831
0.0589078
0.0564827
0.0530717
0.0485869
0.0429147
0.0354629
0.0252985
0.0105985
0.0105985
0.0449316
0.0930886