/*--------------------------------*- C++ -*----------------------------------*\
  =========                 |
  \\      /  F ield         | OpenFOAM: The Open Source CFD Toolbox
   \\    /   O peration     | Website:  https://openfoam.org
    \\  /    A nd           | Version:  11
     \\/     M anipulation  |
\*---------------------------------------------------------------------------*/
FoamFile
{
    format      ascii;
    class       volScalarField;
    location    "0.42";
    object      p;
}
// * * * * * * * * * * * * * * * * * * * * * * * * * * * * * * * * * * * * * //

dimensions      [0 2 -2 0 0 0 0];

internalField   nonuniform List<scalar> 
2880
(
-0.212681
-0.203309
-0.195479
-0.185514
-0.183063
-0.164586
-0.212933
-0.204141
-0.197613
-0.189429
-0.188421
-0.176741
-0.2135
-0.20555
-0.200623
-0.194226
-0.195683
-0.190182
-0.214234
-0.20711
-0.203524
-0.198537
-0.200772
-0.198858
-0.215018
-0.208647
-0.206083
-0.202079
-0.203881
-0.203033
-0.21591
-0.210224
-0.20847
-0.205107
-0.205993
-0.204906
-0.216959
-0.211945
-0.210873
-0.2079
-0.207714
-0.205705
-0.218271
-0.213895
-0.213401
-0.210672
-0.209341
-0.206211
-0.219844
-0.216297
-0.216138
-0.213553
-0.211135
-0.206758
-0.221468
-0.219139
-0.219074
-0.216641
-0.213279
-0.207645
-0.223074
-0.222068
-0.22216
-0.220013
-0.215913
-0.209118
-0.224681
-0.224918
-0.225348
-0.223725
-0.219145
-0.211345
-0.226243
-0.227579
-0.228602
-0.227826
-0.223086
-0.214559
-0.227736
-0.229987
-0.231891
-0.232362
-0.227845
-0.219061
-0.229116
-0.232082
-0.235188
-0.237365
-0.233516
-0.22516
-0.230093
-0.233841
-0.238468
-0.242853
-0.240163
-0.233217
-0.230857
-0.235592
-0.241718
-0.248811
-0.247793
-0.243649
-0.231895
-0.237248
-0.244901
-0.255193
-0.256304
-0.256982
-0.232996
-0.238814
-0.247907
-0.261894
-0.265323
-0.27405
-0.233986
-0.240308
-0.250617
-0.268589
-0.274069
-0.296084
-0.234722
-0.241397
-0.252758
-0.274323
-0.28243
-0.32312
-0.234751
-0.241848
-0.253845
-0.277985
-0.292536
-0.34939
-0.234109
-0.241735
-0.253855
-0.278616
-0.300418
-0.375832
-0.23374
-0.241656
-0.253807
-0.278456
-0.30533
-0.398265
-0.319938
-0.280923
-0.259408
-0.229892
-0.20066
-0.172364
-0.145448
-0.120322
-0.0972541
-0.076425
-0.0579531
-0.0418587
-0.0280834
-0.0165139
-0.00699926
0.000632808
0.00655946
0.0109744
0.0140614
0.01601
0.016777
0.0167654
0.0151635
0.0141376
-0.276155
-0.254888
-0.239121
-0.215054
-0.189442
-0.163851
-0.138832
-0.114914
-0.0924931
-0.0718299
-0.0531597
-0.0366351
-0.0223197
-0.0102137
-0.000269353
0.00760747
0.0135326
0.0176432
0.0201
0.0211387
0.0207291
0.0194398
0.0160997
0.013096
-0.256175
-0.241349
-0.226451
-0.205161
-0.181987
-0.158485
-0.135204
-0.112582
-0.0909866
-0.0707564
-0.0521628
-0.0354183
-0.020675
-0.00803312
0.00246199
0.0108129
0.0170559
0.0212741
0.0235795
0.0241458
0.0230967
0.0208618
0.0169522
0.0121087
-0.240753
-0.23015
-0.216974
-0.197695
-0.176532
-0.154927
-0.133426
-0.112393
-0.0921251
-0.0729324
-0.0550714
-0.0387812
-0.0242574
-0.0116461
-0.00103951
0.00752273
0.0140492
0.0185839
0.021188
0.0219444
0.0209164
0.0183225
0.0143132
0.00831854
-0.228993
-0.220322
-0.208262
-0.1906
-0.171155
-0.151325
-0.131657
-0.112449
-0.0939717
-0.0764424
-0.0600507
-0.044996
-0.0314408
-0.0194938
-0.00921644
-0.000627657
0.00626705
0.0114549
0.014936
0.0166452
0.0164427
0.0142509
0.0100033
0.00365397
-0.22016
-0.211426
-0.199494
-0.182829
-0.164631
-0.146217
-0.128152
-0.11072
-0.0941117
-0.0784652
-0.0639052
-0.0505398
-0.0384382
-0.0276296
-0.0181024
-0.00978271
-0.00272699
0.00295606
0.00721682
0.0099768
0.0110632
0.0102558
0.00722145
0.00209829
-0.213319
-0.203351
-0.190683
-0.174232
-0.156638
-0.139095
-0.122192
-0.106204
-0.0912803
-0.0775054
-0.0649357
-0.0536107
-0.0435105
-0.0346041
-0.0268846
-0.020375
-0.0149583
-0.0105133
-0.00701007
-0.0042324
-0.0021921
-0.000599366
0.00165951
0.00419509
-0.207722
-0.196213
-0.182063
-0.165093
-0.147457
-0.13027
-0.114116
-0.0992985
-0.0859542
-0.0741136
-0.0638059
-0.0549855
-0.0475332
-0.0413381
-0.0362553
-0.0320663
-0.0284451
-0.0248774
-0.0209034
-0.0166129
-0.0117155
-0.00536578
0.00396005
0.0120426
-0.203344
-0.189862
-0.173785
-0.155726
-0.137518
-0.120213
-0.104363
-0.0902759
-0.0780829
-0.0677946
-0.0593214
-0.0525435
-0.0473557
-0.0435484
-0.0407928
-0.038684
-0.036738
-0.0344647
-0.0314447
-0.0273074
-0.0214735
-0.0137126
-0.00318236
0.00616594
-0.200075
-0.184292
-0.165914
-0.146272
-0.126986
-0.109051
-0.09304
-0.079253
-0.0678266
-0.0587697
-0.052001
-0.0473878
-0.0447253
-0.0436989
-0.0438928
-0.0448104
-0.0458871
-0.0465434
-0.0461431
-0.0438109
-0.038915
-0.0306038
-0.0193485
-0.00602877
-0.197849
-0.179492
-0.158441
-0.136799
-0.116075
-0.0972789
-0.0809659
-0.0674045
-0.0567311
-0.0489374
-0.0439238
-0.0415096
-0.0414179
-0.0432485
-0.0464915
-0.050521
-0.0545767
-0.0578206
-0.0593441
-0.0581082
-0.0531949
-0.0439202
-0.030187
-0.0113903
-0.196684
-0.175442
-0.151338
-0.127332
-0.104871
-0.0850134
-0.0682857
-0.0548625
-0.0449004
-0.0383276
-0.0349818
-0.0346074
-0.0368457
-0.0411749
-0.0469545
-0.0534301
-0.059716
-0.0648289
-0.067673
-0.067048
-0.0618058
-0.0509186
-0.0340945
-0.0101494
-0.196586
-0.172128
-0.144591
-0.11791
-0.0935233
-0.072457
-0.0551683
-0.0419213
-0.0326351
-0.0271923
-0.0253261
-0.0266478
-0.0307094
-0.0369023
-0.0444776
-0.0525738
-0.0601519
-0.0660524
-0.0690499
-0.067934
-0.061795
-0.0495436
-0.0313643
-0.00477903
-0.197545
-0.169551
-0.138225
-0.108659
-0.082253
-0.0599712
-0.0422052
-0.0290394
-0.0203218
-0.0158137
-0.0151585
-0.0178563
-0.0232774
-0.0306583
-0.0390984
-0.047594
-0.0550318
-0.0603466
-0.0625375
-0.0607115
-0.0543101
-0.0416756
-0.0241496
0.00172171
-0.199581
-0.167717
-0.132252
-0.0997567
-0.0713601
-0.0479406
-0.0297367
-0.016704
-0.00861429
-0.00504275
-0.00537564
-0.00890955
-0.0148687
-0.0224021
-0.0305666
-0.0384181
-0.0449367
-0.0493227
-0.0505008
-0.0479012
-0.041946
-0.0305927
-0.0153483
0.00680299
-0.202708
-0.166589
-0.126689
-0.0913311
-0.0611289
-0.0368087
-0.0184904
-0.00585218
0.00162466
0.00462751
0.0039177
0.000237534
-0.00557689
-0.0125931
-0.0197928
-0.0264702
-0.0314158
-0.034558
-0.0347456
-0.0301051
-0.0205986
-0.00836317
0.00289314
0.0149838
-0.206834
-0.165932
-0.121524
-0.0834468
-0.0518848
-0.0271735
-0.0089604
0.0033529
0.010497
0.0132207
0.0123971
0.00899587
0.00402172
-0.00175852
-0.00714974
-0.0121343
-0.0152455
-0.0140075
-0.0100758
-0.00504394
0.000288347
0.00564949
0.0104693
0.0210039
-0.21163
-0.165487
-0.116475
-0.0761719
-0.0437798
-0.018928
-0.000937115
0.0109836
0.0177705
0.0204399
0.0200408
0.0176035
0.0141557
0.00997202
0.00653767
0.00636487
0.00744065
0.0088628
0.0112897
0.013235
0.0145663
0.0171155
0.0209471
0.0285713
-0.216349
-0.164739
-0.111201
-0.0692627
-0.0365055
-0.0119033
0.0055798
0.0171092
0.0238404
0.026895
0.027272
0.0260593
0.0244623
0.0243807
0.0247058
0.025057
0.0261784
0.0266193
0.026367
0.0271089
0.0291177
0.0313589
0.0345085
0.0353726
-0.219708
-0.162761
-0.105336
-0.0623112
-0.0298254
-0.00585042
0.0110844
0.022379
0.0293563
0.033165
0.0349091
0.0362018
0.0377631
0.0389559
0.0403441
0.0406484
0.0403851
0.0408862
0.0419404
0.042905
0.0434782
0.0441402
0.04659
0.0450846
-0.220003
-0.158372
-0.098461
-0.0550467
-0.0233396
-0.000203996
0.0162445
0.0276352
0.0352382
0.0403045
0.0443865
0.0479362
0.0507578
0.0526744
0.0533748
0.0542699
0.0554451
0.0564259
0.0571006
0.0572248
0.0567975
0.0570853
0.0610807
0.0580466
-0.217668
-0.148969
-0.0895253
-0.0471193
-0.0165418
0.00575621
0.0220494
0.0339009
0.0426098
0.049525
0.0552006
0.0598583
0.0627614
0.0647257
0.0666728
0.0685299
0.0699945
0.0709221
0.071216
0.0709214
0.0703575
0.0714643
0.0780919
0.0733553
-0.210684
-0.129256
-0.0765419
-0.0377313
-0.00869064
0.0129642
0.0293542
0.0418611
0.0518719
0.0601377
0.066591
0.0709559
0.0744489
0.0776202
0.0803045
0.082392
0.0838827
0.0847813
0.0851205
0.0849803
0.0846946
0.0867259
0.0955687
0.0886615
-0.182647
-0.0978699
-0.0587347
-0.0259013
0.00102365
0.0221066
0.0386246
0.0518266
0.0625217
0.0710105
0.0776051
0.0828799
0.0872048
0.0907792
0.093675
0.0959386
0.0975921
0.0986391
0.099137
0.0991565
0.0990961
0.101953
0.112689
0.103679
0.104374
0.103289
0.127818
0.183752
0.241362
0.258584
0.109436
0.104106
0.122848
0.160781
0.182211
0.196762
0.115317
0.105445
0.118502
0.143435
0.153244
0.143227
0.11052
0.10522
0.113064
0.129737
0.134029
0.11545
0.104459
0.103328
0.10718
0.118755
0.121147
0.104424
0.101115
0.100647
0.101746
0.110544
0.113023
0.101153
0.0981066
0.0977575
0.0971161
0.104633
0.10821
0.101542
0.0946338
0.0948871
0.0932998
0.100429
0.105625
0.103889
0.0909398
0.0921461
0.0901945
0.0974708
0.104577
0.107393
0.0874128
0.0896133
0.0876763
0.0954073
0.104587
0.111637
0.0843225
0.0873454
0.0856141
0.0939251
0.105306
0.116428
0.0818486
0.085388
0.0838722
0.0927323
0.106476
0.121676
0.0800859
0.0837942
0.0823363
0.0915634
0.107882
0.12708
0.0790388
0.0826217
0.0809544
0.0901808
0.109267
0.132204
0.0786988
0.0819819
0.0795904
0.0883513
0.110398
0.13665
0.0790879
0.0818858
0.0781789
0.0858411
0.111018
0.140026
0.080228
0.0823631
0.0765988
0.082489
0.110805
0.141791
0.0818724
0.0834215
0.0748356
0.0779668
0.109376
0.141117
0.0805147
0.0845906
0.072679
0.0720165
0.106321
0.136658
0.0751213
0.0846253
0.0699668
0.0645622
0.101268
0.126268
0.0725676
0.0841462
0.0669045
0.0560428
0.0943253
0.106544
0.0778803
0.0844485
0.0638654
0.0469055
0.0875762
0.0704696
0.0871042
0.0855453
0.0613983
0.0381927
0.084525
-0.00570354
0.0917653
0.0859734
0.0588952
0.0293144
0.0596418
-0.188621
-0.0966373
-0.0701895
-0.0394822
-0.0116215
0.0130311
0.0334155
0.0499088
0.063325
0.0741327
0.0827611
0.0898039
0.0955349
0.100197
0.104013
0.107096
0.109513
0.1113
0.112499
0.113212
0.113493
0.11375
0.117417
0.129758
0.118786
-0.0457338
-0.0452749
-0.0201669
0.00457125
0.0273128
0.046821
0.0629608
0.0762056
0.0870058
0.095762
0.102899
0.108743
0.113536
0.117466
0.120663
0.123214
0.125182
0.126628
0.12764
0.128201
0.128697
0.132931
0.146443
0.133839
-0.0142941
-0.019168
0.00076617
0.0226292
0.0435717
0.062046
0.0775945
0.0904497
0.100987
0.109598
0.11665
0.122447
0.12723
0.131188
0.134463
0.137147
0.139304
0.140994
0.142262
0.143027
0.143668
0.148269
0.162598
0.148904
0.0137606
0.00708162
0.022512
0.0419001
0.0612468
0.0786442
0.0934482
0.105743
0.115856
0.124148
0.130958
0.136582
0.141259
0.145179
0.148477
0.151247
0.153554
0.155454
0.156944
0.15786
0.158574
0.163362
0.17822
0.164188
0.0387249
0.0317083
0.0441965
0.0617797
0.0798232
0.0962016
0.110198
0.121838
0.131411
0.139266
0.145732
0.151096
0.155591
0.1594
0.162659
0.165461
0.167873
0.169939
0.171612
0.172638
0.173359
0.178154
0.193251
0.179898
0.0598181
0.054051
0.0652678
0.0818122
0.0988998
0.114388
0.12759
0.138533
0.147506
0.154857
0.160911
0.165947
0.170192
0.173822
0.17697
0.179731
0.182173
0.184335
0.186144
0.18728
0.187999
0.192612
0.207569
0.196361
0.0771743
0.0741248
0.0855134
0.101728
0.118214
0.132978
0.145445
0.155694
0.164045
0.170855
0.176452
0.181107
0.185038
0.188413
0.191362
0.193985
0.196357
0.198525
0.20042
0.201726
0.202584
0.206823
0.220898
0.214482
0.09154
0.0922604
0.104929
0.121413
0.137631
0.151849
0.16366
0.173243
0.180971
0.187226
0.192336
0.196568
0.200125
0.203167
0.205819
0.208181
0.210333
0.21234
0.214198
0.215702
0.216787
0.219664
0.229503
0.23805
0.10376
0.108883
0.123629
0.14087
0.157115
0.170954
0.182193
0.191146
0.198265
0.203962
0.208571
0.212349
0.215488
0.218134
0.220398
0.222366
0.224108
0.22569
0.22717
0.228524
0.229705
0.230388
0.218932
0.27044
0.114544
0.124394
0.141793
0.160191
0.176712
0.190314
0.201051
0.209407
0.215931
0.221076
0.225181
0.228496
0.231199
0.233424
0.235266
0.236793
0.238054
0.239101
0.239932
0.240199
0.239256
0.239031
0.249278
0.267838
0.124402
0.139112
0.15963
0.179525
0.196523
0.209995
0.220278
0.228054
0.233991
0.238591
0.242199
0.245053
0.247326
0.249143
0.25059
0.251723
0.252587
0.253224
0.253572
0.253155
0.251722
0.253444
0.268606
0.274713
0.133697
0.153287
0.177391
0.199081
0.216698
0.230094
0.239938
0.247136
0.252485
0.256539
0.259649
0.262049
0.263907
0.265342
0.266438
0.267247
0.267813
0.268178
0.268248
0.267529
0.266037
0.268682
0.285033
0.286149
0.142729
0.167197
0.195405
0.219119
0.237416
0.25074
0.26012
0.266712
0.271451
0.274945
0.277548
0.279492
0.28094
0.282013
0.282791
0.283322
0.283649
0.283808
0.283689
0.282789
0.281245
0.284225
0.30085
0.299724
0.151618
0.18127
0.214072
0.239924
0.258888
0.272081
0.280932
0.286856
0.290934
0.293829
0.295898
0.297367
0.298401
0.299116
0.29959
0.299868
0.299985
0.299973
0.299705
0.298671
0.297069
0.300146
0.316612
0.314347
0.160396
0.195957
0.23379
0.261782
0.281337
0.294286
0.302487
0.307639
0.310969
0.3132
0.314686
0.315646
0.31624
0.316585
0.316754
0.316782
0.316697
0.31652
0.316112
0.314962
0.31331
0.316365
0.332382
0.329557
0.169189
0.211764
0.254877
0.285009
0.305014
0.317531
0.324899
0.329123
0.331585
0.333056
0.333886
0.33428
0.334395
0.334343
0.334189
0.333958
0.333666
0.333322
0.332777
0.331525
0.329841
0.3328
0.348133
0.345083
0.178184
0.2293
0.277751
0.310008
0.330194
0.341994
0.34827
0.35136
0.352788
0.353374
0.353452
0.353207
0.352788
0.352299
0.351793
0.351283
0.350771
0.350251
0.349565
0.348226
0.34653
0.349341
0.363806
0.360743
0.187751
0.249252
0.303078
0.33728
0.357167
0.367839
0.372684
0.374372
0.374565
0.374111
0.373319
0.372346
0.371325
0.370349
0.369456
0.368643
0.367892
0.367184
0.366354
0.364939
0.363253
0.365877
0.379324
0.376388
0.198567
0.27271
0.331682
0.367292
0.386215
0.395199
0.398184
0.398149
0.396866
0.395194
0.393399
0.391596
0.389897
0.388378
0.387059
0.385914
0.384905
0.383996
0.383019
0.38154
0.37988
0.382284
0.394595
0.391879
0.211318
0.301045
0.364339
0.400522
0.417594
0.42416
0.424761
0.422629
0.419601
0.416515
0.413573
0.410833
0.408377
0.406258
0.404471
0.402966
0.401681
0.40056
0.399433
0.397899
0.396278
0.398431
0.409516
0.407075
0.225421
0.335894
0.402068
0.437499
0.451483
0.454723
0.452322
0.447681
0.442625
0.437924
0.433689
0.429906
0.426617
0.423843
0.421551
0.419661
0.418083
0.416739
0.415457
0.413876
0.412302
0.414179
0.423975
0.421836
0.240052
0.381728
0.44676
0.478773
0.487911
0.486743
0.480657
0.473086
0.465727
0.459223
0.453562
0.44864
0.444449
0.440972
0.438142
0.435846
0.433962
0.432386
0.430948
0.429322
0.427799
0.429386
0.437865
0.436021
0.269433
0.450474
0.501149
0.524522
0.526555
0.519819
0.509396
0.498517
0.488624
0.480161
0.472966
0.46683
0.461683
0.457468
0.454077
0.45136
0.449159
0.447346
0.445746
0.444079
0.442617
0.443936
0.451111
0.449429
0.378558
0.551563
0.565388
0.573619
0.566444
0.553207
0.537976
0.52353
0.510958
0.500442
0.491645
0.484248
0.478115
0.47314
0.469176
0.466028
0.463503
0.461444
0.459675
0.457959
0.456571
0.457669
0.463514
0.461626
1.10482
1.09851
1.11236
1.14821
1.17328
1.377
1.10684
1.10132
1.11189
1.13623
1.14771
1.26768
1.10839
1.10536
1.1124
1.12899
1.1256
1.17633
1.1086
1.10739
1.11154
1.12166
1.10838
1.11506
1.10793
1.10727
1.10894
1.11316
1.09472
1.08023
1.10672
1.10597
1.10534
1.10445
1.0834
1.06021
1.10506
1.10418
1.1013
1.09631
1.07377
1.04706
1.10302
1.10225
1.09715
1.0889
1.06534
1.03721
1.10078
1.10038
1.09312
1.08218
1.05774
1.02904
1.09857
1.0987
1.08936
1.07605
1.05065
1.02148
1.09656
1.09738
1.08601
1.07044
1.0438
1.01383
1.09492
1.09651
1.08315
1.06534
1.037
1.00558
1.09375
1.09612
1.08084
1.06075
1.03011
0.996341
1.09309
1.09624
1.07911
1.0567
1.023
0.985811
1.09293
1.0968
1.07795
1.0532
1.01565
0.973808
1.0932
1.09768
1.0773
1.0503
1.00815
0.960284
1.09377
1.09866
1.07709
1.04812
1.00072
0.945272
1.09447
1.0995
1.07719
1.04683
0.993665
0.928181
1.09514
1.1
1.07759
1.04682
0.987626
0.910126
1.09562
1.10014
1.07855
1.04882
0.9835
0.892039
1.09586
1.10041
1.08094
1.05423
0.982709
0.876156
1.09612
1.10189
1.08602
1.06437
0.98808
0.869739
1.09698
1.10497
1.09319
1.07659
1.00449
0.890357
1.09817
1.10738
1.09719
1.08094
1.03812
0.950352
0.632657
0.653377
0.631874
0.62317
0.605912
0.585831
0.565668
0.547596
0.532318
0.519733
0.509321
0.500654
0.49353
0.487792
0.483251
0.479669
0.476813
0.474496
0.472541
0.470755
0.4694
0.470229
0.474754
0.472753
0.755429
0.736156
0.692601
0.669305
0.64294
0.61649
0.59168
0.570154
0.552279
0.537694
0.52571
0.515804
0.50771
0.501226
0.496119
0.492109
0.488921
0.486338
0.484185
0.482303
0.480918
0.481378
0.484666
0.482911
0.836501
0.79838
0.743101
0.709423
0.675951
0.644168
0.615312
0.590689
0.570438
0.553998
0.540539
0.529462
0.520448
0.513254
0.507607
0.503185
0.499674
0.496832
0.494483
0.492499
0.491047
0.491094
0.493324
0.492106
0.888161
0.842002
0.782875
0.742718
0.704182
0.668233
0.636048
0.608778
0.586448
0.568352
0.553557
0.541411
0.531551
0.5237
0.517549
0.512742
0.508929
0.505845
0.503315
0.501236
0.499724
0.499427
0.500768
0.499934
0.921543
0.872362
0.813367
0.769389
0.727431
0.688378
0.653562
0.624115
0.600032
0.58051
0.564545
0.551454
0.540841
0.532399
0.525793
0.520635
0.516546
0.513239
0.510543
0.508375
0.506804
0.506221
0.50684
0.506318
0.943008
0.893493
0.836105
0.789978
0.745794
0.704512
0.667691
0.636517
0.611004
0.590293
0.573337
0.559433
0.548167
0.539208
0.5322
0.52673
0.522394
0.51889
0.516046
0.513793
0.512165
0.511355
0.511427
0.511146
0.956603
0.907833
0.852347
0.805074
0.759511
0.716709
0.678428
0.645936
0.619294
0.597619
0.579841
0.565257
0.553434
0.544028
0.536666
0.530919
0.526366
0.52269
0.519717
0.517386
0.515702
0.514724
0.514436
0.514324
0.964509
0.916754
0.863033
0.815222
0.768894
0.725128
0.685831
0.652362
0.624853
0.602417
0.583977
0.568835
0.556549
0.546764
0.539097
0.53311
0.528371
0.52455
0.52147
0.519067
0.517332
0.516247
0.515783
0.515782
0.967892
0.921089
0.868854
0.820867
0.774192
0.729856
0.689878
0.655709
0.627554
0.604543
0.585601
0.570032
0.557388
0.547304
0.539391
0.533208
0.528318
0.524384
0.521217
0.518744
0.516949
0.515854
0.51546
0.515435
0.967445
0.921334
0.870252
0.82227
0.775497
0.730874
0.690491
0.655868
0.627278
0.603879
0.584603
0.56875
0.555864
0.545571
0.53748
0.531153
0.526154
0.522142
0.518915
0.516383
0.514535
0.51349
0.513351
0.51325
0.963539
0.917714
0.867422
0.819511
0.772817
0.728165
0.687641
0.652805
0.623991
0.600392
0.580948
0.564953
0.551941
0.54153
0.533331
0.526912
0.521845
0.517789
0.51453
0.511949
0.510053
0.509126
0.509434
0.509179
0.956273
0.910239
0.860365
0.812572
0.766135
0.721711
0.681308
0.646499
0.617666
0.59405
0.574603
0.558609
0.545588
0.535153
0.526919
0.520465
0.515377
0.511315
0.50805
0.505434
0.503496
0.502751
0.503689
0.503203
0.945488
0.898704
0.848897
0.801307
0.75533
0.711411
0.67141
0.636879
0.608243
0.584802
0.565526
0.549682
0.536779
0.526425
0.518239
0.511816
0.506756
0.502729
0.499489
0.496852
0.49488
0.494375
0.496109
0.495323
0.930771
0.882663
0.832642
0.785417
0.740165
0.697082
0.657805
0.62384
0.595646
0.572594
0.553678
0.538149
0.525504
0.515346
0.507302
0.500983
0.496009
0.492062
0.48888
0.486242
0.484247
0.484034
0.48671
0.485562
0.911415
0.861394
0.81102
0.764446
0.720299
0.67847
0.640313
0.607259
0.579794
0.557375
0.539034
0.524002
0.511767
0.501934
0.494136
0.488005
0.483183
0.479366
0.476281
0.473666
0.471665
0.471794
0.475536
0.473968
0.886295
0.833858
0.783199
0.737771
0.695287
0.655261
0.618719
0.586996
0.560605
0.539104
0.521578
0.507247
0.495594
0.486226
0.478791
0.472941
0.468345
0.464715
0.461771
0.459214
0.457231
0.457752
0.462674
0.460597
0.853786
0.798639
0.748055
0.704583
0.664577
0.627084
0.592781
0.562905
0.538005
0.517755
0.501317
0.487913
0.477028
0.46828
0.461335
0.455869
0.451578
0.448196
0.44544
0.442972
0.441012
0.441904
0.448091
0.445691
0.812049
0.753872
0.70414
0.663896
0.627532
0.593532
0.562251
0.534847
0.511937
0.493325
0.478284
0.466057
0.456144
0.448184
0.441865
0.436891
0.43299
0.429919
0.427399
0.425051
0.423116
0.424347
0.431817
0.429234
0.757514
0.696847
0.649642
0.614567
0.583467
0.554205
0.526906
0.502717
0.482376
0.465851
0.452546
0.441768
0.43305
0.426056
0.420508
0.416143
0.412721
0.410032
0.4078
0.405613
0.403724
0.405279
0.414018
0.411315
0.68667
0.62365
0.582388
0.555369
0.531717
0.508759
0.486592
0.466482
0.449364
0.435418
0.424219
0.415185
0.407894
0.402055
0.397429
0.393793
0.390947
0.388712
0.386827
0.384853
0.383047
0.384919
0.394875
0.392094
0.593782
0.530321
0.500044
0.485119
0.471749
0.456998
0.441288
0.426219
0.413033
0.402188
0.393488
0.3865
0.380877
0.376384
0.372833
0.370049
0.367874
0.36617
0.364694
0.362989
0.361317
0.363511
0.374595
0.371759
0.467022
0.410995
0.4002
0.402903
0.403322
0.398976
0.391171
0.382154
0.373632
0.366422
0.360613
0.355972
0.352251
0.349291
0.346965
0.345153
0.343747
0.342649
0.341645
0.340271
0.338792
0.341315
0.353411
0.350544
0.266545
0.257148
0.28097
0.30835
0.326688
0.335128
0.336692
0.334712
0.331553
0.328483
0.325941
0.323927
0.322326
0.321072
0.320111
0.319386
0.31884
0.318422
0.317952
0.316971
0.315751
0.318608
0.331574
0.328719
-0.0554172
0.0733814
0.144431
0.202559
0.243027
0.266445
0.27866
0.284557
0.28735
0.288853
0.289899
0.290753
0.291461
0.292066
0.292596
0.29306
0.29346
0.293791
0.293912
0.293385
0.292486
0.295679
0.30935
0.306581
-0.866203
-0.922761
-1.01806
-1.0516
-1.06477
-1.13024
-0.878483
-0.935213
-1.02562
-1.06345
-1.06372
-1.0925
-0.890364
-0.948184
-1.0364
-1.07864
-1.07042
-1.08205
-0.903121
-0.962053
-1.05088
-1.09602
-1.08601
-1.09034
-0.918328
-0.977166
-1.06733
-1.11431
-1.10801
-1.10765
-0.934788
-0.992851
-1.08371
-1.13248
-1.13243
-1.12991
-0.950477
-1.00856
-1.09882
-1.14916
-1.15521
-1.1523
-0.964326
-1.02347
-1.11156
-1.16316
-1.17423
-1.17037
-0.975939
-1.03585
-1.1213
-1.17354
-1.18815
-1.18231
-0.984509
-1.04487
-1.12766
-1.17964
-1.19602
-1.18711
-0.989421
-1.05007
-1.13035
-1.18101
-1.19724
-1.18402
-0.99025
-1.05124
-1.12925
-1.17743
-1.19152
-1.17273
-0.986818
-1.04841
-1.12429
-1.16894
-1.17898
-1.15345
-0.979173
-1.04216
-1.11567
-1.15587
-1.1604
-1.12663
-0.967855
-1.03286
-1.10373
-1.13873
-1.13635
-1.0933
-0.953709
-1.02099
-1.08892
-1.11827
-1.10807
-1.0552
-0.937786
-1.00722
-1.07185
-1.09538
-1.07702
-1.01422
-0.92123
-0.992389
-1.05322
-1.07107
-1.04487
-0.972548
-0.905169
-0.977504
-1.03383
-1.04632
-1.01342
-0.932843
-0.890738
-0.963734
-1.01475
-1.02215
-0.984479
-0.89804
-0.879136
-0.952769
-0.997586
-0.999613
-0.959069
-0.869989
-0.871994
-0.945988
-0.984444
-0.97942
-0.93582
-0.847163
-0.871274
-0.941616
-0.974484
-0.956616
-0.91148
-0.830689
-0.875474
-0.932418
-0.94992
-0.924047
-0.893343
-0.850304
-0.538673
-0.143895
-0.00716628
0.0900126
0.155026
0.194645
0.218296
0.232609
0.241748
0.248127
0.252996
0.256897
0.26006
0.262647
0.264773
0.266517
0.267937
0.269079
0.269845
0.269827
0.269308
0.272825
0.287022
0.28445
-0.735638
-0.355421
-0.15646
-0.0210817
0.0667775
0.12211
0.157186
0.180006
0.195609
0.206986
0.215795
0.222846
0.228557
0.233211
0.237014
0.240111
0.242617
0.244626
0.246086
0.246627
0.246538
0.250352
0.264878
0.26267
-0.823634
-0.512783
-0.284776
-0.123847
-0.0177697
0.051297
0.0970013
0.127956
0.14985
0.166148
0.17888
0.189097
0.19739
0.20416
0.209694
0.214204
0.217854
0.220784
0.222984
0.224131
0.224511
0.228572
0.243209
0.241615
-0.893677
-0.627749
-0.390328
-0.215325
-0.0963145
-0.0157397
0.0392172
0.0775702
0.105352
0.126294
0.142811
0.156129
0.166981
0.175875
0.183173
0.189143
0.193995
0.197902
0.200897
0.202702
0.203583
0.207803
0.222293
0.221711
-0.956997
-0.716457
-0.477636
-0.295384
-0.167585
-0.0778565
-0.0149932
0.0297592
0.0629238
0.0879777
0.108084
0.124372
0.137706
0.148694
0.157766
0.165238
0.171356
0.176319
0.180191
0.182737
0.184161
0.18839
0.202353
0.203481
-1.00851
-0.785876
-0.55009
-0.364516
-0.230978
-0.134195
-0.0650058
-0.0146315
0.0234389
0.051447
0.0751106
0.0941924
0.109869
0.122875
0.133704
0.142714
0.150177
0.15631
0.161209
0.16468
0.166794
0.170796
0.183458
0.187712
-1.04729
-0.839107
-0.609133
-0.423264
-0.285997
-0.184059
-0.110107
-0.0554087
-0.0138421
0.0183667
0.0444921
0.0659086
0.0836867
0.0985713
0.11109
0.121645
0.130533
0.137996
0.144182
0.148994
0.152348
0.156246
0.166425
0.176404
-1.07518
-0.878386
-0.655719
-0.471802
-0.332032
-0.227312
-0.149906
-0.0918884
-0.0473334
-0.0122411
0.0161842
0.0396345
0.0592422
0.0757951
0.0898643
0.101881
0.112183
0.121048
0.128677
0.135059
0.140119
0.145406
0.155339
0.161485
-1.09296
-0.905096
-0.690491
-0.509963
-0.369319
-0.263912
-0.18412
-0.123773
-0.0770116
-0.0398496
-0.00959975
0.0154828
0.0365737
0.0544923
0.0698317
0.0830374
0.0944545
0.10435
0.112861
0.119876
0.125453
0.131934
0.143021
0.136688
-1.1005
-0.919885
-0.713808
-0.537883
-0.398547
-0.29342
-0.212574
-0.150908
-0.102745
-0.064205
-0.0326804
-0.00642643
0.0157435
0.0346554
0.0508996
0.064908
0.0770015
0.0874085
0.09621
0.103259
0.108768
0.1155
0.12663
0.11663
-1.09756
-0.923091
-0.725909
-0.555947
-0.419981
-0.315473
-0.235289
-0.173232
-0.124416
-0.0851544
-0.0529066
-0.025953
-0.00311817
0.0164139
0.0332193
0.0477095
0.060182
0.0708459
0.0797802
0.0868814
0.0924781
0.0993969
0.110486
0.100442
-1.08416
-0.915034
-0.727144
-0.564479
-0.433564
-0.330498
-0.252235
-0.190687
-0.141952
-0.10259
-0.0701477
-0.0429492
-0.0198468
-4.32369e-05
0.01702
0.0317373
0.0443925
0.055192
0.0642376
0.0714918
0.0773646
0.0845661
0.0956577
0.0866365
-1.06066
-0.896218
-0.71797
-0.563604
-0.439023
-0.339595
-0.263325
-0.203263
-0.15534
-0.116454
-0.0843025
-0.0572798
-0.0342758
-0.0145175
0.00253694
0.0172697
0.0299586
0.0408141
0.0499638
0.0574313
0.0636646
0.0711825
0.0823478
0.0748206
-1.02782
-0.867382
-0.699096
-0.553995
-0.436625
-0.342783
-0.269011
-0.211135
-0.164644
-0.126742
-0.095312
-0.0688382
-0.0462578
-0.0268252
-0.0100139
0.00455045
0.017143
0.0279784
0.0372047
0.0448946
0.0514895
0.0593149
0.0706204
0.0648188
-0.987162
-0.829712
-0.671426
-0.536456
-0.427227
-0.339689
-0.269753
-0.214536
-0.169991
-0.13351
-0.103169
-0.0775615
-0.0556821
-0.0368165
-0.0204539
-0.00622548
0.00614259
0.0168664
0.0261072
0.0339678
0.0408677
0.0489548
0.0604333
0.0564514
-0.940074
-0.785111
-0.636348
-0.512016
-0.411626
-0.330824
-0.265821
-0.213807
-0.1716
-0.136886
-0.107929
-0.083441
-0.0624863
-0.0443875
-0.0286508
-0.0149133
-0.00290227
0.00759783
0.0167539
0.0246797
0.0317779
0.0400424
0.0516759
0.0495115
-0.888055
-0.735651
-0.595826
-0.482106
-0.390928
-0.317251
-0.257578
-0.209249
-0.169731
-0.137057
-0.109706
-0.0865264
-0.0666639
-0.0494859
-0.0345205
-0.0214129
-0.00989269
0.000253738
0.00919276
0.0170436
0.024187
0.0324813
0.0441658
0.0437398
-0.832466
-0.682901
-0.551919
-0.448528
-0.366493
-0.30003
-0.245787
-0.201384
-0.164768
-0.134302
-0.108691
-0.0869357
-0.0682712
-0.0521175
-0.0380301
-0.0256662
-0.0147596
-0.00510127
0.00347091
0.0110848
0.018087
0.0261958
0.0376999
0.0388421
-0.77496
-0.6278
-0.50628
-0.413043
-0.339792
-0.280313
-0.231376
-0.190899
-0.157215
-0.128991
-0.105155
-0.0848581
-0.0674307
-0.0523499
-0.0392031
-0.0276625
-0.0174689
-0.00842156
-0.000369711
0.0068219
0.0134635
0.0210997
0.0320535
0.0345186
-0.717061
-0.571114
-0.46007
-0.377075
-0.312242
-0.259332
-0.215368
-0.178591
-0.147684
-0.121592
-0.0994509
-0.0805557
-0.0643317
-0.0503134
-0.0381215
-0.0274439
-0.018022
-0.00966398
-0.00227202
0.00430802
0.0103575
0.017184
0.0270583
0.0304703
-0.660129
-0.513487
-0.414264
-0.341739
-0.285059
-0.238254
-0.198798
-0.165331
-0.136884
-0.112669
-0.09202
-0.0743698
-0.059234
-0.0462034
-0.0349322
-0.0251246
-0.0165453
-0.00907256
-0.00242373
0.00352204
0.00883017
0.0145518
0.022738
0.0264994
-0.605873
-0.455587
-0.370047
-0.308179
-0.259317
-0.218124
-0.182649
-0.152006
-0.125588
-0.102877
-0.0834019
-0.066733
-0.0524774
-0.0402849
-0.0298486
-0.0209028
-0.0132156
-0.00655754
-0.000774488
0.00430351
0.00882861
0.0133002
0.0192629
0.0225252
-0.555799
-0.397424
-0.328531
-0.277617
-0.236123
-0.199926
-0.167847
-0.1395
-0.114625
-0.092966
-0.0742539
-0.0582013
-0.0445141
-0.0329044
-0.0231006
-0.014857
-0.0079418
-0.00209563
0.00279675
0.00678711
0.0101218
0.0132185
0.0166651
0.0191431
-0.505289
-0.337631
-0.290738
-0.251103
-0.216356
-0.184491
-0.155247
-0.12869
-0.104881
-0.0838126
-0.065411
-0.0495416
-0.0360214
-0.0246383
-0.0151674
-0.00739002
-0.00109288
0.00397571
0.00795386
0.0109218
0.0129371
0.0143876
0.0151911
0.0161631
)
;

boundaryField
{
    rotor
    {
        type            zeroGradient;
    }
    freestream
    {
        type            freestreamPressure;
        freestreamValue uniform 0;
        supersonic      false;
        value           nonuniform List<scalar> 
96
(
0.000779846
0.000526487
0.000368597
0.000206624
7.47719e-05
3.11305e-05
2.43414e-05
9.4736e-08
6.41081e-05
-0.000175644
-0.00050391
-0.000534774
-0.000275806
0.000109211
0.000481722
0.00120777
0.00192206
0.00299242
0.00424117
0.00619263
0.0091102
0.0130918
0.0178912
0.0235308
0.030159
0.0377997
0.0465157
0.0564091
0.067595
0.0802528
0.0948568
0.113395
0.138018
0.145683
0.15892
0.17533
0.193693
0.213391
0.234109
0.255612
0.277694
0.300153
0.322772
0.345319
0.367547
0.389199
0.409953
0.429259
0.447092
0.463408
0.478092
0.490634
0.500853
0.508548
0.513558
0.515764
0.515064
0.511431
0.504854
0.495378
0.483094
0.468144
0.450716
0.431025
0.409474
0.386239
0.361601
0.335913
0.309545
0.282898
0.256378
0.230389
0.205314
0.181508
0.159294
0.138967
0.120813
0.105184
0.0929959
0.080018
0.0634037
0.0504137
0.0402656
0.0320559
0.0254236
0.0201187
0.0159126
0.0125948
0.00997069
0.00787138
0.00616116
0.00473645
0.00353688
0.00253329
0.00176869
0.00118207
)
;
    }
    frontAndBack
    {
        type            empty;
    }
}


// ************************************************************************* //
