/*--------------------------------*- C++ -*----------------------------------*\
  =========                 |
  \\      /  F ield         | OpenFOAM: The Open Source CFD Toolbox
   \\    /   O peration     | Website:  https://openfoam.org
    \\  /    A nd           | Version:  11
     \\/     M anipulation  |
\*---------------------------------------------------------------------------*/
FoamFile
{
    format      ascii;
    class       surfaceScalarField;
    location    "0.42";
    object      phi;
}
// * * * * * * * * * * * * * * * * * * * * * * * * * * * * * * * * * * * * * //

dimensions      [0 3 -1 0 0 0 0];

internalField   nonuniform List<scalar> 
5640
(
-2.20603e-08
2.20603e-08
5.93032e-08
-8.13636e-08
2.86498e-07
-2.27195e-07
6.77994e-07
-3.91496e-07
1.35854e-06
-6.80545e-07
-8.48796e-07
2.20733e-06
7.73059e-09
1.43298e-08
1.08615e-07
-1.82247e-07
3.37964e-07
-4.56545e-07
7.19078e-07
-7.7261e-07
1.28968e-06
-1.25114e-06
-1.69501e-06
2.13589e-06
2.02059e-08
-5.87615e-09
1.16823e-07
-2.78864e-07
3.20321e-07
-6.60043e-07
6.52383e-07
-1.10467e-06
1.12223e-06
-1.72099e-06
-2.35931e-06
1.78654e-06
2.56979e-08
-3.15741e-08
1.06725e-07
-3.59892e-07
2.71677e-07
-8.24995e-07
5.37527e-07
-1.37052e-06
8.96231e-07
-2.0797e-06
-2.81572e-06
1.35264e-06
2.58635e-08
-5.74376e-08
8.38324e-08
-4.17861e-07
2.01967e-07
-9.43129e-07
3.91882e-07
-1.56044e-06
6.37377e-07
-2.32519e-06
-3.10099e-06
9.22642e-07
2.14523e-08
-7.88899e-08
5.14091e-08
-4.47817e-07
1.18359e-07
-1.01008e-06
2.29612e-07
-1.67169e-06
3.69127e-07
-2.46471e-06
-3.25196e-06
5.20097e-07
1.32023e-08
-9.20921e-08
1.2268e-08
-4.46883e-07
2.72828e-08
-1.02509e-06
6.20711e-08
-1.70648e-06
1.07133e-07
-2.50977e-06
-3.29664e-06
1.5182e-07
1.51996e-09
-9.36121e-08
-3.05144e-08
-4.14849e-07
-6.57894e-08
-9.89819e-07
-1.01755e-07
-1.67051e-06
-1.39061e-07
-2.47246e-06
-3.26104e-06
-1.74663e-07
-1.60855e-08
-7.75266e-08
-7.40747e-08
-3.5686e-07
-1.554e-07
-9.08494e-07
-2.5505e-07
-1.57086e-06
-3.6211e-07
-2.3654e-06
-3.16389e-06
-4.59262e-07
-3.63591e-08
-4.11674e-08
-1.14988e-07
-2.78231e-07
-2.3677e-07
-7.86712e-07
-3.92305e-07
-1.41533e-06
-5.57544e-07
-2.20016e-06
-3.01983e-06
-7.01604e-07
-5.52161e-08
1.40487e-08
-1.49742e-07
-1.83705e-07
-3.05697e-07
-6.30757e-07
-5.09104e-07
-1.21192e-06
-7.22459e-07
-1.98681e-06
-2.84168e-06
-9.00611e-07
-6.9016e-08
8.30647e-08
-1.75437e-07
-7.72843e-08
-3.58545e-07
-4.47648e-07
-6.01865e-07
-9.68601e-07
-8.54903e-07
-1.73377e-06
-2.63993e-06
-1.05665e-06
-7.61593e-08
1.59224e-07
-1.89862e-07
3.64179e-08
-3.92243e-07
-2.45267e-07
-6.67443e-07
-6.934e-07
-9.53113e-07
-1.4481e-06
-2.4225e-06
-1.17054e-06
-7.59595e-08
2.35184e-07
-1.91449e-07
1.51907e-07
-4.04226e-07
-3.24895e-08
-7.02804e-07
-3.94822e-07
-1.01488e-06
-1.13603e-06
-2.19434e-06
-1.24304e-06
-6.78374e-08
3.03021e-07
-1.79233e-07
2.63302e-07
-3.9242e-07
1.80698e-07
-7.04802e-07
-8.24414e-08
-1.03726e-06
-8.03567e-07
-1.95749e-06
-1.27411e-06
-5.03275e-08
3.53348e-07
-1.52929e-07
3.65904e-07
-3.55307e-07
3.83077e-07
-6.69995e-07
2.32246e-07
-1.01589e-06
-4.5767e-07
-1.71092e-06
-1.26246e-06
-2.80628e-08
3.81411e-07
-1.13335e-07
4.51176e-07
-2.92093e-07
5.61835e-07
-5.94613e-07
5.34767e-07
-9.44817e-07
-1.07466e-07
-1.45006e-06
-1.20567e-06
-5.09585e-09
3.86507e-07
-6.26576e-08
5.08738e-07
-2.02992e-07
7.0217e-07
-4.7466e-07
8.06434e-07
-8.15438e-07
2.33312e-07
-1.16697e-06
-1.09853e-06
1.75296e-08
3.68978e-07
-3.38643e-09
5.29654e-07
-8.98226e-08
7.88606e-07
-3.06516e-07
1.02313e-06
-6.16914e-07
5.4371e-07
-8.52531e-07
-9.31353e-07
3.88565e-08
3.30121e-07
6.11262e-08
5.07384e-07
4.23472e-08
8.07385e-07
-8.42379e-08
1.14971e-06
-3.42283e-07
8.01755e-07
-5.13281e-07
-6.81532e-07
5.92567e-08
2.70864e-07
1.27373e-07
4.39268e-07
1.9464e-07
7.40117e-07
1.89274e-07
1.15508e-06
-2.3837e-08
1.01487e-06
-2.52757e-07
-2.84362e-07
7.72436e-08
1.93621e-07
1.90922e-07
3.25589e-07
3.51395e-07
5.79645e-07
5.10837e-07
9.95637e-07
5.15951e-07
1.00975e-06
-2.93549e-08
2.92549e-07
9.42424e-08
9.93784e-08
2.47453e-07
1.72378e-07
5.01167e-07
3.25931e-07
8.74216e-07
6.22588e-07
1.17099e-06
7.12979e-07
1.01972e-07
1.03966e-06
9.93784e-08
2.71757e-07
5.97688e-07
1.22028e-06
1.93325e-06
2.03523e-06
6.64734e-07
-6.87147e-06
8.41407e-06
1.57548e-06
-4.56999e-06
3.65924e-06
3.64537e-06
-1.49407e-06
-5.75829e-07
6.34414e-06
1.32586e-06
-4.02463e-06
9.4182e-06
3.55055e-06
-6.6246e-06
1.27125e-05
5.16861e-06
-8.46292e-06
1.61222e-05
6.23439e-06
-9.64411e-06
1.95705e-05
6.82396e-06
-1.02723e-05
2.30072e-05
7.01261e-06
-1.04493e-05
2.6406e-05
6.87306e-06
-1.02718e-05
2.97568e-05
6.47591e-06
-9.82673e-06
3.30605e-05
5.88471e-06
-9.18839e-06
3.63244e-05
5.15434e-06
-8.41824e-06
3.95587e-05
4.33135e-06
-7.5657e-06
4.27737e-05
3.45473e-06
-6.66974e-06
4.59782e-05
2.55637e-06
-5.76086e-06
4.91798e-05
1.66237e-06
-4.86397e-06
5.23844e-05
7.93302e-07
-3.99785e-06
5.55909e-05
-3.69118e-08
-3.16962e-06
5.87938e-05
-8.25607e-07
-2.37732e-06
6.19862e-05
-1.56649e-06
-1.6259e-06
6.51613e-05
-2.27009e-06
-9.05014e-07
6.83275e-05
-2.92647e-06
-2.39727e-07
-3.47935e-06
4.14962e-07
1.42026e-06
-6.15583e-06
1.91265e-06
-5.06238e-06
3.42766e-06
-3.00908e-06
5.62074e-06
-8.67215e-07
8.2527e-06
9.18586e-07
1.11606e-05
2.26074e-06
1.42338e-05
3.16114e-06
1.73982e-05
3.65957e-06
2.06036e-05
3.80725e-06
2.38179e-05
3.65871e-06
2.70246e-05
3.26918e-06
3.02192e-05
2.69019e-06
3.3405e-05
1.96854e-06
3.65905e-05
1.14577e-06
3.97871e-05
2.58163e-07
4.30068e-05
-6.63358e-07
4.62617e-05
-1.59249e-06
4.95617e-05
-2.50666e-06
5.29145e-05
-3.38978e-06
5.63222e-05
-4.23322e-06
5.97915e-05
-5.03581e-06
6.33105e-05
-5.78916e-06
6.69007e-05
-6.51665e-06
-7.15326e-06
1.50167e-06
-5.87096e-06
1.86529e-06
-5.42601e-06
2.98115e-06
-4.12494e-06
4.70257e-06
-2.58863e-06
6.85338e-06
-1.23223e-06
9.29236e-06
-1.78238e-07
1.19125e-05
5.40973e-07
1.46366e-05
9.3551e-07
1.74125e-05
1.03138e-06
2.02052e-05
8.65977e-07
2.29939e-05
4.80484e-07
2.57698e-05
-8.57123e-08
2.85339e-05
-7.95525e-07
3.12945e-05
-1.61487e-06
3.40658e-05
-2.51316e-06
3.68657e-05
-3.46319e-06
3.97137e-05
-4.44053e-06
4.26305e-05
-5.42349e-06
4.56361e-05
-6.39537e-06
4.87461e-05
-7.34321e-06
5.19716e-05
-8.26136e-06
5.53143e-05
-9.13185e-06
5.87752e-05
-9.97752e-06
-1.07732e-05
1.25744e-06
-5.77576e-06
1.54078e-06
-5.70935e-06
2.34637e-06
-4.93053e-06
3.63994e-06
-3.88221e-06
5.30417e-06
-2.89646e-06
7.22739e-06
-2.10146e-06
9.31496e-06
-1.54659e-06
1.1494e-05
-1.24357e-06
1.37107e-05
-1.18524e-06
1.59271e-05
-1.35047e-06
1.81215e-05
-1.71386e-06
2.0285e-05
-2.24923e-06
2.242e-05
-2.93052e-06
2.45378e-05
-3.7327e-06
2.66568e-05
-4.63216e-06
2.88001e-05
-5.60653e-06
3.0994e-05
-6.63439e-06
3.32658e-05
-7.69526e-06
3.56418e-05
-8.77135e-06
3.8146e-05
-9.84744e-06
4.07937e-05
-1.0909e-05
4.35958e-05
-1.1934e-05
4.65285e-05
-1.29102e-05
-1.38105e-05
8.81626e-07
-5.73474e-06
1.07898e-06
-5.90671e-06
1.6385e-06
-5.49004e-06
2.56457e-06
-4.80828e-06
3.78396e-06
-4.11586e-06
5.21324e-06
-3.53074e-06
6.77515e-06
-3.1085e-06
8.40646e-06
-2.87488e-06
1.0058e-05
-2.83678e-06
1.16959e-05
-2.98835e-06
1.33005e-05
-3.31852e-06
1.48649e-05
-3.81359e-06
1.63925e-05
-4.45816e-06
1.78958e-05
-5.23593e-06
1.93936e-05
-6.13003e-06
2.09103e-05
-7.12322e-06
2.24739e-05
-8.19794e-06
2.41144e-05
-9.33583e-06
2.58628e-05
-1.05197e-05
2.77481e-05
-1.17328e-05
2.97937e-05
-1.29546e-05
3.20161e-05
-1.41563e-05
3.44025e-05
-1.52966e-05
-1.62964e-05
4.70137e-07
-5.68478e-06
5.85783e-07
-6.02235e-06
9.58022e-07
-5.86228e-06
1.59729e-06
-5.44755e-06
2.45646e-06
-4.97502e-06
3.475e-06
-4.54927e-06
4.59388e-06
-4.22738e-06
5.76155e-06
-4.04256e-06
6.93694e-06
-4.01218e-06
8.09141e-06
-4.14282e-06
9.20792e-06
-4.43502e-06
1.02798e-05
-4.88545e-06
1.13095e-05
-5.48784e-06
1.23075e-05
-6.23401e-06
1.32911e-05
-7.1136e-06
1.42818e-05
-8.11391e-06
1.5306e-05
-9.22215e-06
1.63961e-05
-1.04259e-05
1.75861e-05
-1.17096e-05
1.89083e-05
-1.30551e-05
2.03904e-05
-1.44367e-05
2.20534e-05
-1.58194e-05
2.3902e-05
-1.71453e-05
-1.82811e-05
7.39092e-08
-5.60687e-06
1.22557e-07
-6.071e-06
3.65148e-07
-6.10487e-06
8.0609e-07
-5.8885e-06
1.41106e-06
-5.57999e-06
2.13519e-06
-5.2734e-06
2.93389e-06
-5.02608e-06
3.76686e-06
-4.87553e-06
4.60064e-06
-4.84596e-06
5.411e-06
-4.95318e-06
6.18344e-06
-5.20746e-06
6.9122e-06
-5.61421e-06
7.59996e-06
-6.1756e-06
8.25798e-06
-6.89204e-06
8.90562e-06
-7.76124e-06
9.57078e-06
-8.77907e-06
1.02879e-05
-9.9393e-06
1.10932e-05
-1.12312e-05
1.20142e-05
-1.26307e-05
1.30796e-05
-1.41204e-05
1.43072e-05
-1.56643e-05
1.57004e-05
-1.72126e-05
1.7234e-05
-1.86788e-05
-1.98922e-05
-2.8601e-07
-5.49552e-06
-2.76745e-07
-6.08027e-06
-1.07211e-07
-6.27441e-06
2.20563e-07
-6.21627e-06
6.79741e-07
-6.03917e-06
1.23445e-06
-5.82811e-06
1.85068e-06
-5.6423e-06
2.4987e-06
-5.52355e-06
3.155e-06
-5.50226e-06
3.80281e-06
-5.60099e-06
4.43317e-06
-5.83781e-06
5.04568e-06
-6.22672e-06
5.64643e-06
-6.77635e-06
6.2465e-06
-7.49211e-06
6.86309e-06
-8.37783e-06
7.51785e-06
-9.43384e-06
8.23494e-06
-1.06564e-05
9.03968e-06
-1.20359e-05
9.96489e-06
-1.35559e-05
1.10356e-05
-1.51911e-05
1.22745e-05
-1.69032e-05
1.36817e-05
-1.86198e-05
1.52355e-05
-2.02326e-05
-2.15641e-05
-5.90946e-07
-5.36384e-06
-5.93843e-07
-6.07737e-06
-4.45002e-07
-6.42325e-06
-1.50697e-07
-6.51057e-06
2.65723e-07
-6.45559e-06
7.77189e-07
-6.33958e-06
1.3572e-06
-6.22232e-06
1.98307e-06
-6.14942e-06
2.63704e-06
-6.15622e-06
3.30656e-06
-6.27052e-06
3.9832e-06
-6.51445e-06
4.66268e-06
-6.90621e-06
5.34757e-06
-7.46124e-06
6.04659e-06
-8.19113e-06
6.77304e-06
-9.10429e-06
7.54481e-06
-1.02056e-05
8.38431e-06
-1.14959e-05
9.32054e-06
-1.29722e-05
1.03993e-05
-1.46346e-05
1.16681e-05
-1.64599e-05
1.31902e-05
-1.84253e-05
1.49871e-05
-2.04166e-05
1.70911e-05
-2.23366e-05
-2.39362e-05
-8.36574e-07
-5.22887e-06
-8.20912e-07
-6.09303e-06
-6.42351e-07
-6.60181e-06
-3.12948e-07
-6.83998e-06
1.45681e-07
-6.91422e-06
7.10829e-07
-6.90473e-06
1.36215e-06
-6.87364e-06
2.08257e-06
-6.86984e-06
2.85891e-06
-6.93256e-06
3.68244e-06
-7.09405e-06
4.54907e-06
-7.38108e-06
5.45913e-06
-7.81627e-06
6.41697e-06
-8.41908e-06
7.4319e-06
-9.20605e-06
8.51862e-06
-1.0191e-05
9.69775e-06
-1.13847e-05
1.09963e-05
-1.27945e-05
1.24477e-05
-1.44235e-05
1.40823e-05
-1.62693e-05
1.59399e-05
-1.83174e-05
1.80483e-05
-2.05338e-05
2.04889e-05
-2.28572e-05
2.33065e-05
-2.51542e-05
-2.70823e-05
-1.02112e-06
-5.10836e-06
-9.55592e-07
-6.15856e-06
-7.00822e-07
-6.85658e-06
-2.74482e-07
-7.26632e-06
3.02705e-07
-7.4914e-06
1.01214e-06
-7.61416e-06
1.83907e-06
-7.70058e-06
2.77264e-06
-7.80341e-06
3.80559e-06
-7.9655e-06
4.93448e-06
-8.22294e-06
6.15978e-06
-8.60638e-06
7.48573e-06
-9.14222e-06
8.91985e-06
-9.85321e-06
1.04729e-05
-1.07591e-05
1.21582e-05
-1.18764e-05
1.3991e-05
-1.32175e-05
1.59863e-05
-1.47898e-05
1.81597e-05
-1.6597e-05
2.05166e-05
-1.86261e-05
2.30661e-05
-2.08669e-05
2.58187e-05
-2.32863e-05
2.87973e-05
-2.58358e-05
3.20444e-05
-2.84014e-05
-3.06309e-05
-1.14404e-06
-5.02097e-06
-9.96813e-07
-6.30579e-06
-6.21549e-07
-7.23184e-06
-4.23417e-08
-7.84552e-06
7.19665e-07
-8.25341e-06
1.64997e-06
-8.54446e-06
2.73878e-06
-8.78939e-06
3.9812e-06
-9.04583e-06
5.37569e-06
-9.35999e-06
6.9241e-06
-9.77135e-06
8.63119e-06
-1.03135e-05
1.05042e-05
-1.10153e-05
1.25515e-05
-1.19005e-05
1.47816e-05
-1.29891e-05
1.72019e-05
-1.42967e-05
1.98168e-05
-1.58325e-05
2.26254e-05
-1.75983e-05
2.56174e-05
-1.9589e-05
2.87787e-05
-2.17874e-05
3.20787e-05
-2.4167e-05
3.5478e-05
-2.66856e-05
3.89348e-05
-2.92927e-05
4.24244e-05
-3.1891e-05
-3.42898e-05
-1.20457e-06
-4.98694e-06
-9.42103e-07
-6.56825e-06
-4.02732e-07
-7.77122e-06
3.80403e-07
-8.62866e-06
1.38542e-06
-9.25843e-06
2.59993e-06
-9.75897e-06
4.01872e-06
-1.02082e-05
5.64095e-06
-1.0668e-05
7.46957e-06
-1.11886e-05
9.5094e-06
-1.18112e-05
1.17666e-05
-1.25707e-05
1.42479e-05
-1.34965e-05
1.69589e-05
-1.46115e-05
1.99014e-05
-1.59316e-05
2.30729e-05
-1.74682e-05
2.64644e-05
-1.92239e-05
3.00588e-05
-2.11928e-05
3.38269e-05
-2.33571e-05
3.77239e-05
-2.56843e-05
4.16884e-05
-2.81315e-05
4.56488e-05
-3.06461e-05
4.95376e-05
-3.31814e-05
5.32681e-05
-3.56215e-05
-3.8016e-05
-1.20048e-06
-5.0295e-06
-7.85507e-07
-6.98323e-06
-3.7011e-08
-8.51971e-06
9.98501e-07
-9.66417e-06
2.29663e-06
-1.05566e-05
3.84603e-06
-1.13084e-05
5.64365e-06
-1.20058e-05
7.69083e-06
-1.27152e-05
9.99117e-06
-1.3489e-05
1.255e-05
-1.437e-05
1.53714e-05
-1.53922e-05
1.84578e-05
-1.65829e-05
2.18072e-05
-1.79609e-05
2.54114e-05
-1.95358e-05
2.9253e-05
-2.13098e-05
3.33033e-05
-2.32742e-05
3.75203e-05
-2.54098e-05
4.18513e-05
-2.76882e-05
4.62391e-05
-3.0072e-05
5.06218e-05
-3.25142e-05
5.49201e-05
-3.49444e-05
5.90572e-05
-3.73185e-05
6.29125e-05
-3.94768e-05
-4.16772e-05
-1.12694e-06
-5.17667e-06
-5.16259e-07
-7.59391e-06
4.87852e-07
-9.52382e-06
1.82197e-06
-1.09983e-05
3.45605e-06
-1.21906e-05
5.37819e-06
-1.32305e-05
7.58529e-06
-1.42129e-05
1.0079e-05
-1.5209e-05
1.28619e-05
-1.62718e-05
1.5936e-05
-1.74441e-05
1.9299e-05
-1.87552e-05
2.29396e-05
-2.02234e-05
2.68376e-05
-2.18589e-05
3.09658e-05
-2.3664e-05
3.52891e-05
-2.56331e-05
3.97651e-05
-2.77502e-05
4.43483e-05
-2.9993e-05
4.89785e-05
-3.23184e-05
5.35908e-05
-3.46843e-05
5.81171e-05
-3.70405e-05
6.24847e-05
-3.9312e-05
6.65664e-05
-4.14002e-05
7.02517e-05
-4.31621e-05
-4.48738e-05
-9.75796e-07
-5.46333e-06
-1.16962e-07
-8.45275e-06
1.19018e-06
-1.0831e-05
2.8643e-06
-1.26724e-05
4.86816e-06
-1.41945e-05
7.18921e-06
-1.55516e-05
9.82388e-06
-1.68476e-05
1.27708e-05
-1.81559e-05
1.6024e-05
-1.9525e-05
1.95676e-05
-2.09878e-05
2.33798e-05
-2.25674e-05
2.7435e-05
-2.42786e-05
3.17051e-05
-2.61291e-05
3.61559e-05
-2.81149e-05
4.07475e-05
-3.02247e-05
4.54208e-05
-3.24234e-05
5.0123e-05
-3.46952e-05
5.47886e-05
-3.69841e-05
5.93116e-05
-3.92072e-05
6.35211e-05
-4.125e-05
6.72542e-05
-4.30451e-05
7.04233e-05
-4.45693e-05
7.31137e-05
-4.58525e-05
-4.70259e-05
-7.35058e-07
-5.93395e-06
4.28971e-07
-9.61678e-06
2.08735e-06
-1.24893e-05
4.13553e-06
-1.47206e-05
6.53424e-06
-1.65932e-05
9.26856e-06
-1.82859e-05
1.23253e-05
-1.99043e-05
1.56837e-05
-2.15143e-05
1.93208e-05
-2.31621e-05
2.32113e-05
-2.48782e-05
2.73287e-05
-2.66848e-05
3.16421e-05
-2.85919e-05
3.61111e-05
-3.05981e-05
4.06821e-05
-3.26858e-05
4.53044e-05
-3.48471e-05
4.99171e-05
-3.70361e-05
5.43788e-05
-3.91568e-05
5.84962e-05
-4.11015e-05
6.21195e-05
-4.28306e-05
6.52319e-05
-4.43624e-05
6.79043e-05
-4.57176e-05
7.02291e-05
-4.68941e-05
7.22261e-05
-4.78495e-05
-4.85348e-05
-3.87634e-07
-6.64485e-06
1.14519e-06
-1.11496e-05
3.19218e-06
-1.45363e-05
5.63545e-06
-1.71638e-05
8.42982e-06
-1.93876e-05
1.15442e-05
-2.14003e-05
1.49503e-05
-2.33104e-05
1.86213e-05
-2.51854e-05
2.25286e-05
-2.70694e-05
2.66378e-05
-2.89874e-05
3.09059e-05
-3.09529e-05
3.52833e-05
-3.29694e-05
3.97154e-05
-3.50302e-05
4.41464e-05
-3.71168e-05
4.84334e-05
-3.9134e-05
5.23774e-05
-4.09802e-05
5.58471e-05
-4.26265e-05
5.88608e-05
-4.41152e-05
6.14979e-05
-4.54677e-05
6.38347e-05
-4.66991e-05
6.59168e-05
-4.77997e-05
6.7718e-05
-4.86954e-05
6.91767e-05
-4.93082e-05
-4.95623e-05
8.32745e-08
-7.65947e-06
2.05041e-06
-1.31167e-05
4.50285e-06
-1.69888e-05
7.32083e-06
-1.99818e-05
1.04526e-05
-2.25194e-05
1.38637e-05
-2.48113e-05
1.75211e-05
-2.69678e-05
2.13885e-05
-2.90527e-05
2.54192e-05
-3.11001e-05
2.95577e-05
-3.31259e-05
3.37438e-05
-3.5139e-05
3.79248e-05
-3.71503e-05
4.19897e-05
-3.90952e-05
4.57512e-05
-4.08783e-05
4.90794e-05
-4.24622e-05
5.19884e-05
-4.38891e-05
5.45701e-05
-4.52082e-05
5.68984e-05
-4.64435e-05
5.90214e-05
-4.75907e-05
6.09014e-05
-4.85791e-05
6.24714e-05
-4.93697e-05
6.3746e-05
-4.997e-05
6.4803e-05
-5.03651e-05
-5.03274e-05
7.31582e-07
-9.07259e-06
3.15215e-06
-1.55373e-05
5.97201e-06
-1.98086e-05
9.0872e-06
-2.3097e-05
1.24618e-05
-2.5894e-05
1.60567e-05
-2.84062e-05
1.98266e-05
-3.07377e-05
2.37136e-05
-3.29397e-05
2.76483e-05
-3.50348e-05
3.156e-05
-3.70376e-05
3.53884e-05
-3.89674e-05
3.8987e-05
-4.07489e-05
4.22101e-05
-4.23183e-05
4.50331e-05
-4.37013e-05
4.75488e-05
-4.49779e-05
4.98435e-05
-4.61838e-05
5.19558e-05
-4.73205e-05
5.38615e-05
-4.83492e-05
5.54985e-05
-4.92277e-05
5.6874e-05
-4.99546e-05
5.80402e-05
-5.05359e-05
5.9037e-05
-5.09668e-05
5.98609e-05
-5.11891e-05
-5.09602e-05
1.58928e-06
-1.09462e-05
4.42092e-06
-1.83689e-05
7.50499e-06
-2.28927e-05
1.07995e-05
-2.63915e-05
1.42806e-05
-2.93751e-05
1.79015e-05
-3.20271e-05
2.15952e-05
-3.44315e-05
2.52794e-05
-3.66239e-05
2.88738e-05
-3.86292e-05
3.23129e-05
-4.04767e-05
3.54634e-05
-4.21179e-05
3.82378e-05
-4.35234e-05
4.06945e-05
-4.4775e-05
4.29295e-05
-4.59363e-05
4.49897e-05
-4.7038e-05
4.68773e-05
-4.80715e-05
4.854e-05
-4.89832e-05
4.99669e-05
-4.97761e-05
5.11975e-05
-5.04582e-05
5.22749e-05
-5.1032e-05
5.32297e-05
-5.14907e-05
5.40691e-05
-5.18063e-05
5.47787e-05
-5.18987e-05
-5.15466e-05
2.70685e-06
-1.33605e-05
5.78563e-06
-2.14477e-05
8.96942e-06
-2.60765e-05
1.22826e-05
-2.97047e-05
1.57077e-05
-3.28002e-05
1.91779e-05
-3.54973e-05
2.25972e-05
-3.78507e-05
2.58753e-05
-3.9902e-05
2.89478e-05
-4.17017e-05
3.17221e-05
-4.32511e-05
3.4154e-05
-4.45498e-05
3.6328e-05
-4.56974e-05
3.8321e-05
-4.6768e-05
4.01679e-05
-4.77831e-05
4.18254e-05
-4.86955e-05
4.32655e-05
-4.95116e-05
4.45274e-05
-5.0245e-05
4.5652e-05
-5.09007e-05
4.66694e-05
-5.14756e-05
4.75976e-05
-5.19601e-05
4.844e-05
-5.23331e-05
4.91885e-05
-5.25548e-05
4.98326e-05
-5.25428e-05
-5.21165e-05
4.12191e-06
-1.64428e-05
7.12952e-06
-2.44553e-05
1.01903e-05
-2.91373e-05
1.3366e-05
-3.28805e-05
1.65922e-05
-3.60263e-05
1.97554e-05
-3.86605e-05
2.27503e-05
-4.08457e-05
2.55098e-05
-4.26615e-05
2.79781e-05
-4.41701e-05
3.01405e-05
-4.54134e-05
3.2082e-05
-4.64913e-05
3.3867e-05
-4.74824e-05
3.5495e-05
-4.83961e-05
3.69292e-05
-4.92173e-05
3.81995e-05
-4.99658e-05
3.93427e-05
-5.06548e-05
4.03856e-05
-5.1288e-05
4.13458e-05
-5.18609e-05
4.22328e-05
-5.23626e-05
4.30487e-05
-5.27761e-05
4.37895e-05
-5.30739e-05
4.44513e-05
-5.32167e-05
4.50382e-05
-5.31296e-05
-5.26687e-05
5.84499e-06
-2.02525e-05
8.24319e-06
-2.68535e-05
1.10121e-05
-3.19062e-05
1.3958e-05
-3.58263e-05
1.68816e-05
-3.89499e-05
1.96367e-05
-4.14155e-05
2.21425e-05
-4.33516e-05
2.43676e-05
-4.48866e-05
2.6313e-05
-4.61155e-05
2.80485e-05
-4.71488e-05
2.9631e-05
-4.80738e-05
3.10511e-05
-4.89025e-05
3.2308e-05
-4.96529e-05
3.34388e-05
-5.03481e-05
3.44726e-05
-5.09996e-05
3.54273e-05
-5.16095e-05
3.63127e-05
-5.21734e-05
3.71336e-05
-5.26819e-05
3.78925e-05
-5.31215e-05
3.85896e-05
-5.34731e-05
3.9225e-05
-5.37093e-05
3.9801e-05
-5.37927e-05
4.03302e-05
-5.36588e-05
-5.31916e-05
-6.80045e-07
6.80045e-07
-1.5616e-06
8.81551e-07
-1.95625e-06
3.94651e-07
-1.49348e-06
-4.62763e-07
7.81427e-07
-2.27491e-06
-4.43445e-06
5.21588e-06
-8.10161e-07
1.49021e-06
-1.46574e-06
1.53713e-06
-1.54707e-06
4.75985e-07
-7.41975e-07
-1.26786e-06
1.08131e-06
-4.09819e-06
-7.88761e-06
4.53446e-06
-7.80633e-07
2.27084e-06
-1.24981e-06
2.0063e-06
-1.14882e-06
3.74992e-07
-2.44063e-07
-2.17261e-06
1.49051e-06
-5.83276e-06
-1.06081e-05
4.21097e-06
-7.42775e-07
3.01361e-06
-1.05557e-06
2.3191e-06
-8.38671e-07
1.58092e-07
8.5291e-08
-3.09657e-06
1.71061e-06
-7.45808e-06
-1.28588e-05
3.96135e-06
-6.75923e-07
3.68954e-06
-8.82425e-07
2.5256e-06
-6.04426e-07
-1.19908e-07
2.76603e-07
-3.9776e-06
1.75353e-06
-8.935e-06
-1.4792e-05
3.68667e-06
-5.94187e-07
4.28372e-06
-7.26871e-07
2.65829e-06
-4.33379e-07
-4.134e-07
3.65932e-07
-4.77691e-06
1.67322e-06
-1.02423e-05
-1.64749e-05
3.35621e-06
-5.05493e-07
4.78922e-06
-5.89133e-07
2.74193e-06
-3.14412e-07
-6.88121e-07
3.75544e-07
-5.46687e-06
1.50407e-06
-1.13708e-05
-1.79363e-05
2.96542e-06
-4.14494e-07
5.20371e-06
-4.67521e-07
2.79495e-06
-2.37329e-07
-9.18313e-07
3.23471e-07
-6.02767e-06
1.26696e-06
-1.23143e-05
-1.91862e-05
2.51683e-06
-3.22862e-07
5.52657e-06
-3.59236e-07
2.83133e-06
-1.92594e-07
-1.08496e-06
2.23664e-07
-6.44393e-06
9.75097e-07
-1.30657e-05
-2.02259e-05
2.01485e-06
-2.31097e-07
5.75767e-06
-2.60705e-07
2.86094e-06
-1.71043e-07
-1.17462e-06
8.80868e-08
-6.70306e-06
6.38361e-07
-1.3616e-05
-2.10531e-05
1.46547e-06
-1.39072e-07
5.89674e-06
-1.67822e-07
2.88969e-06
-1.63449e-07
-1.17899e-06
-7.16966e-08
-6.79481e-06
2.66765e-07
-1.39545e-05
-2.16634e-05
8.77077e-07
-4.61114e-08
5.94285e-06
-7.62575e-08
2.91983e-06
-1.60253e-07
-1.09499e-06
-2.43298e-07
-6.71177e-06
-1.27767e-07
-1.407e-05
-2.20513e-05
2.60194e-07
4.78411e-08
5.89501e-06
1.81527e-08
2.94952e-06
-1.51537e-07
-9.25305e-07
-4.13169e-07
-6.45013e-06
-5.3246e-07
-1.39507e-05
-2.22112e-05
-3.72625e-07
1.43169e-07
5.75184e-06
1.2182e-07
2.97087e-06
-1.27067e-07
-6.76417e-07
-5.66751e-07
-6.01045e-06
-9.30963e-07
-1.35865e-05
-2.21325e-05
-1.0096e-06
2.40439e-07
5.5114e-06
2.36218e-07
2.97509e-06
-7.69278e-08
-3.63271e-07
-6.88336e-07
-5.39904e-06
-1.3067e-06
-1.29681e-05
-2.18005e-05
-1.63875e-06
3.39573e-07
5.17183e-06
3.64886e-07
2.94978e-06
7.75347e-09
-6.13841e-09
-7.607e-07
-4.63059e-06
-1.64013e-06
-1.20887e-05
-2.11952e-05
-2.24537e-06
4.40898e-07
4.73093e-06
5.0938e-07
2.88129e-06
1.37859e-07
3.65382e-07
-7.6456e-07
-3.72817e-06
-1.90737e-06
-1.09459e-05
-2.0289e-05
-2.81362e-06
5.46119e-07
4.18481e-06
6.68893e-07
2.75852e-06
3.17848e-07
7.16427e-07
-6.78796e-07
-2.73153e-06
-2.07851e-06
-9.54618e-06
-1.90414e-05
-3.32605e-06
6.61556e-07
3.52326e-06
8.3681e-07
2.58327e-06
5.50309e-07
1.00293e-06
-4.79315e-07
-1.7019e-06
-2.11485e-06
-7.91064e-06
-1.73958e-05
-3.76053e-06
7.28212e-07
2.79505e-06
9.97545e-07
2.31393e-06
8.3021e-07
1.17026e-06
-1.32651e-07
-7.3904e-07
-1.96603e-06
-6.07727e-06
-1.52751e-05
-4.08669e-06
7.5978e-07
2.03527e-06
1.1482e-06
1.92552e-06
1.14224e-06
1.17623e-06
3.4629e-07
5.69052e-08
-1.57407e-06
-4.15691e-06
-1.259e-05
-4.25916e-06
7.70937e-07
1.26433e-06
1.28575e-06
1.4107e-06
1.4674e-06
9.94582e-07
9.71855e-07
5.52448e-07
-8.91376e-07
-2.29367e-06
-9.25923e-06
-4.22214e-06
7.47119e-07
5.17209e-07
1.3929e-06
7.64923e-07
1.7752e-06
6.12273e-07
1.72813e-06
5.99527e-07
5.127e-09
-5.70676e-07
-5.24561e-06
-4.00849e-06
5.17209e-07
1.28213e-06
1.8944e-06
2.49393e-06
1.92326e-06
-3.32236e-06
6.5044e-06
-2.15411e-05
8.79032e-06
-2.91394e-05
1.13717e-05
-3.44876e-05
1.4058e-05
-3.85127e-05
1.66174e-05
-4.15093e-05
1.89269e-05
-4.37251e-05
2.09552e-05
-4.53799e-05
2.27166e-05
-4.6648e-05
2.4268e-05
-4.76669e-05
2.56568e-05
-4.85376e-05
2.68876e-05
-4.93047e-05
2.79881e-05
-5.00029e-05
2.89899e-05
-5.06547e-05
2.99123e-05
-5.12706e-05
3.07664e-05
-5.18537e-05
3.1559e-05
-5.24021e-05
3.22949e-05
-5.29093e-05
3.29777e-05
-5.33646e-05
3.36096e-05
-5.37534e-05
3.41919e-05
-5.40554e-05
3.47268e-05
-5.42443e-05
3.52198e-05
-5.42857e-05
3.5687e-05
-5.41259e-05
-5.36727e-05
6.505e-06
-2.35116e-05
8.83227e-06
-3.14667e-05
1.13261e-05
-3.69813e-05
1.37324e-05
-4.0919e-05
1.58943e-05
-4.36713e-05
1.77658e-05
-4.55965e-05
1.93673e-05
-4.69814e-05
2.07489e-05
-4.80296e-05
2.19587e-05
-4.88766e-05
2.30256e-05
-4.96046e-05
2.39826e-05
-5.02617e-05
2.48549e-05
-5.08752e-05
2.56579e-05
-5.14577e-05
2.64011e-05
-5.20138e-05
2.70908e-05
-5.25433e-05
2.77311e-05
-5.30424e-05
2.83254e-05
-5.35036e-05
2.88761e-05
-5.39153e-05
2.9385e-05
-5.42624e-05
2.98545e-05
-5.45248e-05
3.02887e-05
-5.46785e-05
3.06959e-05
-5.46929e-05
3.10935e-05
-5.45235e-05
-5.40994e-05
6.39392e-06
-2.56945e-05
8.70021e-06
-3.3773e-05
1.09946e-05
-3.92757e-05
1.30562e-05
-4.29807e-05
1.48118e-05
-4.54268e-05
1.62797e-05
-4.70644e-05
1.75125e-05
-4.82142e-05
1.8565e-05
-4.90821e-05
1.94816e-05
-4.97932e-05
2.0297e-05
-5.04199e-05
2.10357e-05
-5.10005e-05
2.17131e-05
-5.15526e-05
2.23385e-05
-5.20831e-05
2.29176e-05
-5.25929e-05
2.34539e-05
-5.30796e-05
2.39496e-05
-5.35381e-05
2.44064e-05
-5.39604e-05
2.48263e-05
-5.43352e-05
2.52118e-05
-5.46479e-05
2.55668e-05
-5.48798e-05
2.58973e-05
-5.5009e-05
2.62132e-05
-5.50088e-05
2.65328e-05
-5.48431e-05
-5.44597e-05
6.17382e-06
-2.7907e-05
8.37331e-06
-3.59725e-05
1.03882e-05
-4.12905e-05
1.20812e-05
-4.46737e-05
1.34555e-05
-4.68011e-05
1.45691e-05
-4.8178e-05
1.54859e-05
-4.91311e-05
1.62604e-05
-4.98566e-05
1.69337e-05
-5.04665e-05
1.75343e-05
-5.10204e-05
1.80797e-05
-5.15459e-05
1.85804e-05
-5.20533e-05
1.90418e-05
-5.25445e-05
1.94665e-05
-5.30176e-05
1.98556e-05
-5.34688e-05
2.021e-05
-5.38925e-05
2.05309e-05
-5.42812e-05
2.08204e-05
-5.46247e-05
2.1082e-05
-5.49095e-05
2.1321e-05
-5.51188e-05
2.15449e-05
-5.52329e-05
2.17644e-05
-5.52283e-05
2.19981e-05
-5.50768e-05
-5.47431e-05
5.83415e-06
-3.00545e-05
7.84191e-06
-3.79803e-05
9.5376e-06
-4.29862e-05
1.08736e-05
-4.60098e-05
1.19065e-05
-4.78339e-05
1.27124e-05
-4.89839e-05
1.33575e-05
-4.97762e-05
1.38924e-05
-5.03915e-05
1.43528e-05
-5.09269e-05
1.47611e-05
-5.14287e-05
1.51302e-05
-5.1915e-05
1.54663e-05
-5.23894e-05
1.5772e-05
-5.28502e-05
1.60477e-05
-5.32933e-05
1.62933e-05
-5.37144e-05
1.65089e-05
-5.41081e-05
1.66954e-05
-5.44678e-05
1.68552e-05
-5.47845e-05
1.69927e-05
-5.50469e-05
1.71141e-05
-5.52403e-05
1.72279e-05
-5.53467e-05
1.73454e-05
-5.53457e-05
1.74855e-05
-5.52169e-05
-5.49409e-05
5.36838e-06
-3.20667e-05
7.12463e-06
-3.97365e-05
8.49287e-06
-4.43545e-05
9.49911e-06
-4.7016e-05
1.02297e-05
-4.85645e-05
1.07664e-05
-4.95206e-05
1.11729e-05
-5.01827e-05
1.14951e-05
-5.07137e-05
1.17633e-05
-5.1195e-05
1.19947e-05
-5.16602e-05
1.21981e-05
-5.21183e-05
1.23766e-05
-5.2568e-05
1.25311e-05
-5.30047e-05
1.26611e-05
-5.34233e-05
1.27658e-05
-5.38191e-05
1.28449e-05
-5.41872e-05
1.28991e-05
-5.45219e-05
1.29306e-05
-5.48161e-05
1.2944e-05
-5.50604e-05
1.29463e-05
-5.52426e-05
1.29464e-05
-5.53468e-05
1.29558e-05
-5.53551e-05
1.29945e-05
-5.52556e-05
-5.50463e-05
4.78397e-06
-3.38852e-05
6.25445e-06
-4.1207e-05
7.30541e-06
-4.54054e-05
8.01244e-06
-4.7723e-05
8.47419e-06
-4.90263e-05
8.77153e-06
-4.98179e-05
8.96416e-06
-5.03753e-05
9.09296e-06
-5.08425e-05
9.18281e-06
-5.12849e-05
9.24671e-06
-5.17241e-05
9.2902e-06
-5.21618e-05
9.31492e-06
-5.25927e-05
9.32076e-06
-5.30105e-05
9.30697e-06
-5.34095e-05
9.2727e-06
-5.37848e-05
9.21747e-06
-5.4132e-05
9.14167e-06
-5.44461e-05
9.04721e-06
-5.47216e-05
8.9382e-06
-5.49514e-05
8.82128e-06
-5.51257e-05
8.70479e-06
-5.52303e-05
8.59795e-06
-5.52482e-05
8.52262e-06
-5.51803e-05
-5.50567e-05
4.09639e-06
-3.54648e-05
5.26784e-06
-4.23784e-05
6.02029e-06
-4.61579e-05
6.45655e-06
-4.81593e-05
6.67664e-06
-4.92464e-05
6.75757e-06
-4.98988e-05
6.75437e-06
-5.03721e-05
6.70285e-06
-5.0791e-05
6.62324e-06
-5.12053e-05
6.52508e-06
-5.16259e-05
6.41192e-06
-5.20487e-05
6.28454e-06
-5.24654e-05
6.1427e-06
-5.28687e-05
5.98587e-06
-5.32527e-05
5.81359e-06
-5.36125e-05
5.62567e-06
-5.3944e-05
5.42252e-06
-5.4243e-05
5.20563e-06
-5.45047e-05
4.97823e-06
-5.4724e-05
4.74624e-06
-5.48937e-05
4.51864e-06
-5.50027e-05
4.29971e-06
-5.50293e-05
4.05138e-06
-5.49319e-05
-5.49871e-05
3.3249e-06
-3.67748e-05
4.19891e-06
-4.32525e-05
4.67464e-06
-4.66336e-05
4.86482e-06
-4.83495e-05
4.8648e-06
-4.92463e-05
4.74661e-06
-4.97807e-05
4.56053e-06
-5.0186e-05
4.3376e-06
-5.05681e-05
4.0941e-06
-5.09618e-05
3.83705e-06
-5.13689e-05
3.56877e-06
-5.17804e-05
3.28973e-06
-5.21863e-05
2.99989e-06
-5.25788e-05
2.69928e-06
-5.29521e-05
2.38811e-06
-5.33014e-05
2.06693e-06
-5.36229e-05
1.73682e-06
-5.39128e-05
1.39972e-06
-5.41676e-05
1.05866e-06
-5.43829e-05
7.18087e-07
-5.45531e-05
3.87577e-07
-5.46722e-05
1.01643e-07
-5.47434e-05
-2.91418e-08
-5.48012e-05
-5.45472e-05
2.49006e-06
-3.77994e-05
3.07764e-06
-4.384e-05
3.29846e-06
-4.68544e-05
3.26329e-06
-4.83143e-05
3.06005e-06
-4.90431e-05
2.75572e-06
-4.94763e-05
2.39603e-06
-4.98263e-05
2.00781e-06
-5.01799e-05
1.60401e-06
-5.0558e-05
1.19002e-06
-5.09549e-05
7.67369e-07
-5.13577e-05
3.36459e-07
-5.17554e-05
-1.02459e-07
-5.21399e-05
-5.48937e-07
-5.25056e-05
-1.00224e-06
-5.28481e-05
-1.46131e-06
-5.31638e-05
-1.92465e-06
-5.34495e-05
-2.39024e-06
-5.3702e-05
-2.85523e-06
-5.39179e-05
-3.31456e-06
-5.40938e-05
-3.75873e-06
-5.4228e-05
-4.18298e-06
-5.43191e-05
-4.65042e-06
-5.43337e-05
-5.42401e-05
1.61216e-06
-3.85345e-05
1.92957e-06
-4.41574e-05
1.91593e-06
-4.68408e-05
1.6726e-06
-4.8071e-05
1.27938e-06
-4.86499e-05
7.98655e-07
-4.89956e-05
2.72004e-07
-4.92997e-05
-2.77475e-07
-4.96304e-05
-8.38591e-07
-4.99968e-05
-1.4079e-06
-5.03856e-05
-1.98415e-06
-5.07815e-05
-2.56687e-06
-5.11727e-05
-3.1556e-06
-5.15512e-05
-3.74966e-06
-5.19115e-05
-4.34811e-06
-5.22496e-05
-4.94978e-06
-5.25621e-05
-5.55319e-06
-5.28461e-05
-6.15652e-06
-5.30987e-05
-6.7573e-06
-5.33171e-05
-7.35221e-06
-5.34989e-05
-7.9385e-06
-5.36418e-05
-8.5173e-06
-5.37403e-05
-9.07501e-06
-5.3776e-05
-5.37825e-05
7.10545e-07
-3.89848e-05
7.76654e-07
-4.42235e-05
5.4715e-07
-4.66113e-05
1.0962e-07
-4.76334e-05
-4.63353e-07
-4.80769e-05
-1.11305e-06
-4.83459e-05
-1.80142e-06
-4.86113e-05
-2.5082e-06
-4.89236e-05
-3.22479e-06
-4.92803e-05
-3.94784e-06
-4.96625e-05
-4.67643e-06
-5.00529e-05
-5.41004e-06
-5.04391e-05
-6.14801e-06
-5.08132e-05
-6.88951e-06
-5.117e-05
-7.6335e-06
-5.15056e-05
-8.37878e-06
-5.18169e-05
-9.12391e-06
-5.2101e-05
-9.86709e-06
-5.23555e-05
-1.0606e-05
-5.25783e-05
-1.13375e-05
-5.27674e-05
-1.20582e-05
-5.29211e-05
-1.27628e-05
-5.30356e-05
-1.3436e-05
-5.31028e-05
-5.31802e-05
-1.96567e-07
-3.91609e-05
-3.61092e-07
-4.4059e-05
-7.90792e-07
-4.61816e-05
-1.41157e-06
-4.70127e-05
-2.15624e-06
-4.73322e-05
-2.96919e-06
-4.7533e-05
-3.81529e-06
-4.77652e-05
-4.67668e-06
-4.80622e-05
-5.54602e-06
-4.84109e-05
-6.42066e-06
-4.87879e-05
-7.29962e-06
-4.91739e-05
-8.18217e-06
-4.95565e-05
-9.06748e-06
-4.99279e-05
-9.95448e-06
-5.0283e-05
-1.0842e-05
-5.06181e-05
-1.17287e-05
-5.09301e-05
-1.2613e-05
-5.12166e-05
-1.34931e-05
-5.14755e-05
-1.43662e-05
-5.17051e-05
-1.52292e-05
-5.19044e-05
-1.60777e-05
-5.20725e-05
-1.69058e-05
-5.22076e-05
-1.77019e-05
-5.23067e-05
-5.24425e-05
-1.0935e-06
-3.9077e-05
-1.47113e-06
-4.36814e-05
-2.08345e-06
-4.55693e-05
-2.8789e-06
-4.62172e-05
-3.78917e-06
-4.6422e-05
-4.76068e-06
-4.65614e-05
-5.7609e-06
-4.6765e-05
-6.77395e-06
-4.70492e-05
-7.79349e-06
-4.73914e-05
-8.81715e-06
-4.77642e-05
-9.84384e-06
-4.81472e-05
-1.08726e-05
-4.85277e-05
-1.19024e-05
-4.88982e-05
-1.29318e-05
-4.92536e-05