/*--------------------------------*- C++ -*----------------------------------*\
  =========                 |
  \\      /  F ield         | OpenFOAM: The Open Source CFD Toolbox
   \\    /   O peration     | Website:  https://openfoam.org
    \\  /    A nd           | Version:  11
     \\/     M anipulation  |
\*---------------------------------------------------------------------------*/
FoamFile
{
    format      ascii;
    class       surfaceVectorField;
    location    "0.42";
    object      Uf;
}
// * * * * * * * * * * * * * * * * * * * * * * * * * * * * * * * * * * * * * //

dimensions      [0 1 -1 0 0 0 0];

internalField   nonuniform List<vector> 
5640
(
(0.0169894 0.0433781 2.2493e-19)
(0.0148397 0.0373856 2.21558e-19)
(0.0346322 0.0481769 1.04341e-19)
(0.0228862 0.0463973 -1.34714e-19)
(0.0628902 0.046481 1.02488e-19)
(0.0481291 0.0454995 -2.58011e-21)
(0.097975 0.040374 6.79142e-21)
(0.0814521 0.0400098 -1.05281e-20)
(0.147282 0.0280117 -4.76599e-20)
(0.103586 0.0342416 7.58315e-20)
(0.201789 -0.0017455 -2.60698e-20)
(0.156269 -0.0647686 -9.34678e-20)
(0.0189129 0.0401779 -1.17908e-19)
(0.0152458 0.0368202 6.2881e-21)
(0.035929 0.0417536 -2.46614e-19)
(0.0232669 0.0421129 4.90769e-20)
(0.0611595 0.0378798 -1.15328e-19)
(0.0452185 0.0386377 -3.87629e-21)
(0.0914034 0.027367 5.76166e-20)
(0.072279 0.0313773 -4.96707e-21)
(0.127848 0.0124838 8.01157e-20)
(0.0942104 0.0191415 6.75279e-20)
(0.156914 -0.00750258 -2.92791e-23)
(0.154633 -0.0534726 8.2997e-21)
(0.0179482 0.0385163 1.71478e-19)
(0.0143167 0.0364127 -2.60873e-21)
(0.0323596 0.0380828 2.973e-19)
(0.0209589 0.0393342 1.85461e-19)
(0.0529224 0.0323231 1.07773e-19)
(0.0383198 0.034327 1.09633e-19)
(0.0776682 0.0203989 2.91169e-21)
(0.0592738 0.0255216 -4.96707e-21)
(0.105154 0.00352212 -5.52876e-21)
(0.0778225 0.0102737 8.24932e-21)
(0.117686 -0.0126379 5.4704e-22)
(0.129613 -0.042909 -8.33385e-21)
(0.0159088 0.0373125 4.26082e-22)
(0.0128856 0.0359716 1.19003e-21)
(0.0268912 0.0354642 4.7141e-22)
(0.0172226 0.0375582 -5.35684e-20)
(0.0424163 0.0282236 0)
(0.0297944 0.031488 -2.81746e-21)
(0.061125 0.0151378 0)
(0.0447846 0.0215112 3.68446e-20)
(0.0806243 -0.00235422 7.50889e-21)
(0.0586287 0.00507543 2.40219e-20)
(0.0829937 -0.0150504 1.47038e-20)
(0.0973759 -0.0355241 4.76557e-20)
(0.0130754 0.03641 -4.95767e-20)
(0.0110805 0.0355848 1.19003e-21)
(0.0202262 0.0337741 -5.87931e-20)
(0.012435 0.0366559 -5.74329e-20)
(0.0306205 0.0254979 3.26872e-20)
(0.020243 0.0298867 2.18007e-20)
(0.0432993 0.0118132 6.1226e-20)
(0.0294972 0.0191222 -3.30349e-21)
(0.0557354 -0.00544664 3.3448e-20)
(0.0382672 0.00245378 -3.28099e-21)
(0.0520523 -0.0155519 7.01047e-21)
(0.0656976 -0.0300896 -2.36265e-20)
(0.00958279 0.035967 -3.28411e-21)
(0.00886853 0.0353546 0)
(0.0126834 0.0330417 1.98028e-20)
(0.00676794 0.0365432 -3.48517e-21)
(0.0180816 0.0241085 -1.32342e-20)
(0.0100008 0.0293625 -8.7012e-21)
(0.0251 0.0102156 -6.77334e-20)
(0.0139118 0.0181089 -3.89247e-20)
(0.0316332 -0.00648203 -2.77536e-20)
(0.0178395 0.0015653 -2.71038e-20)
(0.024336 -0.0150299 -6.78598e-21)
(0.0364392 -0.0258142 0)
(0.00548512 0.0360157 0)
(0.00609941 0.0353498 1.00129e-20)
(0.00444808 0.0331813 -3.18744e-20)
(0.000338595 0.0371242 6.86542e-21)
(0.005192 0.023863 -3.32993e-20)
(-0.000657737 0.0297408 -2.24607e-20)
(0.00711088 0.00992868 1.1431e-21)
(-0.00157634 0.0182228 8.3618e-22)
(0.00889693 -0.00628403 -6.6233e-21)
(-0.00194494 0.00179928 0)
(-0.000474242 -0.0140489 -8.47162e-23)
(0.00988681 -0.0225904 -7.91368e-21)
(0.000739299 0.036462 1.70599e-20)
(0.00216107 0.0355785 -1.48224e-21)
(-0.00426245 0.0340329 1.75191e-20)
(-0.0067006 0.038252 6.76933e-23)
(-0.00775436 0.0245423 1.09135e-20)
(-0.0114552 0.0308599 1.21286e-20)
(-0.0102426 0.0105815 -2.83472e-22)
(-0.0166378 0.019229 1.6256e-20)
(-0.0122087 -0.00547869 6.52308e-21)
(-0.0206362 0.00277166 0)
(-0.0225491 -0.0131071 6.6833e-21)
(-0.0135872 -0.0204219 7.79393e-21)
(-0.00528039 0.0371956 -1.85654e-20)
(-0.00334423 0.0360146 -1.14956e-20)
(-0.013238 0.0354028 -5.83723e-21)
(-0.0140413 0.0396397 -3.61634e-20)
(-0.0204197 0.0259534 1.73031e-20)
(-0.0220824 0.0325621 5.24171e-21)
(-0.0266614 0.0119168 1.69953e-20)
(-0.030982 0.0209641 -5.32845e-21)
(-0.0314278 -0.00443934 0)
(-0.0379484 0.00422697 1.91073e-21)
(-0.0419658 -0.0124133 0)
(-0.0341063 -0.0192765 -1.47109e-20)
(-0.0120261 0.0381408 -2.76705e-20)
(-0.00980817 0.0365603 3.14957e-21)
(-0.0221384 0.037105 -2.68921e-20)
(-0.0212683 0.0411045 5.54779e-20)
(-0.032499 0.0279618 -1.70639e-20)
(-0.0322124 0.0347446 4.40021e-20)
(-0.0419016 0.013781 -2.06282e-20)
(-0.0443562 0.0233399 -2.18492e-20)
(-0.0486352 -0.00333297 1.95654e-21)
(-0.0536899 0.00604353 -1.8534e-21)
(-0.0587858 -0.0120137 -3.11997e-21)
(-0.0517006 -0.0191352 1.46278e-20)
(-0.0187623 0.0391948 8.32605e-20)
(-0.0161435 0.0372269 3.14957e-21)
(-0.0305658 0.0390347 1.26906e-19)
(-0.0280057 0.0425936 -2.67633e-20)
(-0.0437139 0.0305089 4.14205e-20)
(-0.0415381 0.0373794 -2.53001e-21)
(-0.0557724 0.016123 -3.65859e-21)
(-0.0565483 0.0263454 0)
(-0.0637693 -0.00218744 -6.91064e-21)
(-0.067735 0.00821984 -3.76413e-21)
(-0.0730753 -0.0118912 -9.66023e-21)
(-0.0662827 -0.019927 1.94135e-23)
(-0.0248163 0.0403457 -1.05207e-19)
(-0.0216052 0.0380767 1.99015e-19)
(-0.0381902 0.041198 -1.57181e-19)
(-0.0339677 0.0441634 -5.19677e-20)
(-0.0538224 0.0336098 -4.40335e-20)
(-0.0497992 0.0404942 4.51767e-20)
(-0.068132 0.0189846 0)
(-0.0673855 0.0300427 -6.52623e-20)
(-0.076807 -0.000946279 -6.38347e-21)
(-0.0799964 0.010864 -7.21359e-20)
(-0.0849078 -0.0119504 -6.54026e-21)
(-0.0778249 -0.0215487 -3.77857e-21)
(-0.0299167 0.0416505 2.66641e-19)
(-0.0259532 0.0391319 2.00164e-19)
(-0.0447689 0.0436589 1.46252e-19)
(-0.0389592 0.0458959 5.96759e-20)
(-0.0626273 0.0373359 2.7679e-20)
(-0.0567908 0.0441474 -8.99939e-20)
(-0.0788675 0.0224911 -1.37192e-19)
(-0.0767256 0.0345524 9.63157e-21)
(-0.0877217 0.000527393 -7.38652e-20)
(-0.0903934 0.0141868 -7.48854e-21)
(-0.0943481 -0.0120021 -4.38022e-20)
(-0.0862917 -0.0238677 -2.87556e-20)
(-0.0339486 0.0431398 1.37509e-21)
(-0.0290645 0.0404022 -2.05387e-19)
(-0.0501362 0.0464967 -1.70183e-19)
(-0.0428622 0.0478623 7.31733e-21)
(-0.0699711 0.0417943 -1.11429e-19)
(-0.0623588 0.0484035 -9.30104e-20)
(-0.0878771 0.0268404 1.39728e-19)
(-0.0844464 0.0400342 7.48507e-20)
(-0.0964681 0.00250387 2.33861e-20)
(-0.0988294 0.0184963 1.33165e-19)
(-0.101458 -0.0117344 7.41422e-20)
(-0.0916198 -0.0266976 2.75486e-20)
(-0.0367821 0.0448375 -2.11873e-19)
(-0.0305843 0.0420234 -2.03818e-19)
(-0.0541922 0.0497876 8.8771e-20)
(-0.0456305 0.0501181 7.31733e-21)
(-0.0757287 0.0471039 8.75728e-20)
(-0.0663967 0.0533084 1.789e-19)
(-0.0950568 0.0322913 6.66522e-20)
(-0.0904342 0.0466618 8.19116e-20)
(-0.102993 0.00538394 1.85169e-19)
(-0.105168 0.0242042 -1.83751e-20)
(-0.106304 -0.0106979 8.71657e-20)
(-0.0936709 -0.0297879 7.15104e-20)
(-0.0382105 0.0470831 3.1915e-21)
(-0.030902 0.0437191 3.01742e-21)
(-0.0569072 0.053587 9.01809e-20)
(-0.0473306 0.0527208 7.63507e-21)
(-0.0798009 0.0533677 1.76515e-19)
(-0.0688478 0.0588567 -1.04983e-19)
(-0.10028 0.0391468 -2.6212e-22)
(-0.0945723 0.054588 -7.64361e-20)
(-0.107196 0.00969448 -1.20763e-19)
(-0.109201 0.0318293 -7.78293e-20)
(-0.109005 -0.00829425 -6.2271e-20)
(-0.0921998 -0.0328266 -4.64444e-20)
(-0.0388516 0.0491777 7.19459e-21)
(-0.0311396 0.0447601 -2.83629e-21)
(-0.058318 0.0578092 -1.82675e-19)
(-0.0481069 0.0554702 -2.317e-22)
(-0.0821038 0.0606342 -3.58837e-19)
(-0.0696907 0.0649496 -8.06367e-20)
(-0.10338 0.0477349 -1.54246e-19)
(-0.0967278 0.0638964 -1.714e-19)
(-0.108975 0.0161461 -1.82889e-20)
(-0.110603 0.0420212 -8.99117e-20)
(-0.109745 -0.00373539 2.00551e-21)
(-0.0868923 -0.0353855 -2.41567e-20)
(-0.0392364 0.0506684 -1.04128e-20)
(-0.0316393 0.0447804 -8.88038e-23)
(-0.0585513 0.0622208 1.05286e-19)
(-0.0480887 0.057994 -3.67602e-21)
(-0.0825528 0.0688463 1.10834e-19)
(-0.0688927 0.0713682 9.86799e-20)
(-0.104115 0.0583671 -1.09675e-19)
(-0.0967463 0.0745246 -1.59994e-20)
(-0.108159 0.0256451 -7.40774e-20)
(-0.108866 0.0555671 -1.12878e-19)
(-0.10879 0.00398624 3.52577e-20)
(-0.0772521 -0.0368697 2.35416e-20)
(-0.039355 0.051448 6.91826e-21)
(-0.0322032 0.0437661 1.72522e-22)
(-0.0576101 0.0664786 -1.4717e-20)
(-0.0473235 0.0599338 4.19076e-21)
(-0.081056 0.0777708 -2.44418e-20)
(-0.0664141 0.0777974 -1.30146e-19)
(-0.102158 0.0712862 -1.4749e-20)
(-0.0944368 0.0861661 9.4126e-20)
(-0.10457 0.0392892 -2.15984e-20)
(-0.103251 0.0734023 5.00943e-20)
(-0.106474 0.0160521 2.17632e-20)
(-0.0625332 -0.0363835 2.1734e-20)
(-0.0391025 0.0513657 -2.72352e-21)
(-0.0324672 0.0419584 -1.71514e-19)
(-0.0555109 0.0702031 -1.05617e-19)
(-0.0457795 0.0610154 0)
(-0.0775773 0.0868364 -1.97713e-20)
(-0.0622877 0.0838329 4.99697e-21)
(-0.0968954 0.0869235 1.6213e-19)
(-0.0893542 0.0980866 -8.22935e-21)
(-0.0983005 0.0578675 7.27026e-20)
(-0.0930988 0.0967675 3.85849e-20)
(-0.102791 0.0333571 6.32163e-20)
(-0.0411068 -0.0324407 1.099e-19)
(-0.0381524 0.0504901 -1.78685e-19)
(-0.032278 0.0394684 2.19797e-20)
(-0.0522087 0.0730467 1.10872e-19)
(-0.0434151 0.0610999 -4.65283e-21)
(-0.0713287 0.0960378 1.74939e-20)
(-0.0563811 0.0887888 1.158e-19)
(-0.0883232 0.105234 -1.33087e-19)
(-0.0811071 0.109582 -9.78702e-21)
(-0.0913242 0.0792148 9.77495e-21)
(-0.0791518 0.127603 -1.27516e-20)
(-0.0947348 0.0546759 -6.69398e-20)
(-0.00872876 -0.0213641 -6.43746e-20)
(-0.0368074 0.0489592 1.97637e-19)
(-0.0315912 0.0364088 1.97624e-19)
(-0.047827 0.074716 -4.85082e-21)
(-0.0401667 0.0601844 -2.01436e-20)
(-0.0629227 0.104117 9.3772e-20)
(-0.0487619 0.0921821 2.56151e-20)
(-0.0755621 0.12561 1.17418e-19)
(-0.0691177 0.119111 -5.24819e-20)
(-0.0729898 0.114698 -9.4558e-20)
(-0.0567307 0.163461 2.53718e-20)
(-0.0834902 0.0833569 -7.02437e-22)
(0.0366681 -0.000394654 -1.28003e-19)
(-0.0347619 0.0471036 -7.25819e-21)
(-0.0304016 0.0327466 6.68478e-21)
(-0.0425935 0.0750352 9.71907e-21)
(-0.0370099 0.0570158 -4.4609e-21)
(-0.0528135 0.110474 -1.1426e-19)
(-0.040435 0.0922607 1.58349e-19)
(-0.057467 0.147358 -1.32163e-19)
(-0.0538253 0.122532 -1.91045e-20)
(-0.048359 0.157108 1.242e-19)
(-0.0245939 0.204243 1.30926e-20)
(-0.0695669 0.117556 1.13515e-19)
(0.096742 0.030002 1.32379e-19)
(-0.0317818 0.042395 1.03936e-20)
(-0.0366619 0.0700317 1.36553e-19)
(-0.0390834 0.10814 2.59794e-19)
(-0.0306447 0.162721 1.30419e-19)
(-0.0129946 0.203991 0)
(0.174269 0.0774367 -1.17855e-20)
(0.0197951 -0.0571653 2.43109e-20)
(0.0521424 -0.101647 -3.46734e-21)
(-0.0976017 -0.0790436 3.72476e-20)
(0.121604 0.0400549 7.57412e-20)
(0.0646659 -0.00816857 1.26277e-20)
(0.0303493 0.0372945 7.36241e-20)
(0.263537 0.108827 1.47758e-19)
(0.18043 0.0627038 2.90623e-20)
(0.20921 0.107851 1.13936e-20)
(0.405243 0.15562 3.56843e-20)
(0.307884 0.119636 6.81553e-20)
(0.373008 0.159771 1.87568e-20)
(0.534045 0.18469 -4.92114e-20)
(0.432076 0.15838 1.22481e-20)
(0.520347 0.19168 -4.84749e-20)
(0.646362 0.200139 -3.15441e-20)
(0.54462 0.182481 0)
(0.647393 0.20867 4.39314e-20)
(0.741887 0.205184 -3.24004e-20)
(0.642863 0.194977 -3.19895e-20)
(0.754076 0.214358 -7.21519e-22)
(0.821555 0.202367 0)
(0.726739 0.198418 0)
(0.841695 0.211594 0)
(0.887053 0.193724 -2.67086e-20)
(0.797177 0.194863 -8.53678e-21)
(0.912392 0.20269 2.84319e-21)
(0.940489 0.18093 -2.72909e-20)
(0.855682 0.186016 -1.90637e-20)
(0.968785 0.189511 -2.64348e-20)
(0.984023 0.16538 -1.65301e-21)
(0.904075 0.173366 4.34838e-21)
(1.01353 0.173575 1.43721e-20)
(1.01967 0.148205 -7.00928e-21)
(0.944195 0.158156 -9.10333e-21)
(1.04907 0.156081 1.25639e-20)
(1.0492 0.130306 -8.53759e-21)
(0.977741 0.14141 5.16924e-21)
(1.07754 0.137968 -5.63055e-21)
(1.07411 0.112406 -3.18757e-21)
(1.00622 0.123966 -2.41536e-21)
(1.10069 0.119954 -3.16121e-21)
(1.09561 0.0950967 0)
(1.03091 0.106517 -7.11329e-22)
(1.11995 0.102592 0)
(1.11466 0.0788623 0)
(1.05285 0.0896299 0)
(1.13642 0.0863224 0)
(1.132 0.0640715 -3.7433e-21)
(1.07288 0.0737811 -3.83769e-21)
(1.15097 0.0715211 -5.55842e-22)
(1.1482 0.0509834 -5.26283e-21)
(1.09173 0.0593117 -2.43189e-21)
(1.16427 0.058459 -6.106e-21)
(1.16352 0.0396886 2.86067e-21)
(1.10977 0.0465095 -7.7469e-21)
(1.17656 0.0472477 3.3589e-21)
(1.17809 0.0302439 6.79726e-22)
(1.12743 0.035254 3.3214e-21)
(1.18803 0.0377171 6.33491e-21)
(1.19188 0.0224798 1.31601e-21)
(1.14404 0.0260772 2.11396e-21)
(1.19846 0.0301623 -5.92338e-21)
(1.20505 0.0166251 -1.94379e-21)
(1.16198 0.0175117 5.83853e-21)
(1.20873 0.0237351 7.98766e-21)
(1.21817 0.0131555 -1.72765e-21)
(1.1751 0.0127603 -2.29803e-21)
(1.21677 0.0204409 -8.74504e-21)
(1.208 0.00219408 1.40496e-21)
(1.23681 0.0109065 -1.45023e-21)
(0.0750374 -0.0610705 0)
(0.093056 -0.0883791 0)
(0.123049 0.00892814 -3.43954e-20)
(0.0813592 -0.0261307 0)
(0.220876 0.0722972 -4.93499e-20)
(0.153741 0.0342437 1.45566e-20)
(0.332331 0.121543 4.66046e-20)
(0.248579 0.0887144 -1.23034e-20)
(0.440798 0.155716 6.22372e-20)
(0.348355 0.129795 8.51465e-20)
(0.53964 0.177151 0)
(0.443473 0.158406 -7.10514e-21)
(0.626609 0.188257 0)
(0.529441 0.176361 1.56609e-20)
(0.701559 0.191139 -8.43498e-21)
(0.604874 0.185479 1.11625e-20)
(0.765268 0.187541 -1.9721e-21)
(0.66984 0.187384 -2.2138e-22)
(0.818981 0.178991 1.11079e-20)
(0.725078 0.183545 1.74613e-20)
(0.864174 0.166827 -2.9699e-21)
(0.771723 0.175295 -1.04158e-20)
(0.902364 0.152176 2.97287e-22)
(0.811082 0.163786 -4.01489e-21)
(0.934987 0.135989 8.93313e-21)
(0.844482 0.150007 8.59125e-21)
(0.963333 0.119063 3.84411e-22)
(0.873185 0.134803 -1.96592e-21)
(0.988518 0.10206 -7.16979e-22)
(0.898345 0.118892 -7.11329e-22)
(1.01148 0.085527 -3.8086e-21)
(0.920982 0.102873 1.77565e-21)
(1.03299 0.0699358 9.92029e-22)
(0.94195 0.0872602 -5.53645e-21)
(1.05365 0.0556537 -1.62929e-21)
(0.962039 0.0724712 4.64095e-21)
(1.07386 0.0428473 -5.3328e-21)
(0.981709 0.0588461 -6.47613e-21)
(1.0938 0.0315902 7.65967e-21)
(1.00161 0.0464087 3.90204e-22)
(1.11371 0.0218634 6.61349e-21)
(1.02106 0.0354626 5.8263e-21)
(1.13335 0.0134709 1.83331e-21)
(1.04281 0.0252038 1.31134e-21)
(1.15359 0.00737397 8.13282e-22)
(1.05996 0.0175728 -1.46709e-21)
(1.09623 0.00541142 2.7064e-21)
(0.085402 -0.0535439 0)
(0.0890377 -0.0701044 3.90932e-20)
(0.11173 -0.00457776 5.11605e-20)
(0.0777343 -0.030563 0)
(0.178244 0.0488389 5.58911e-20)
(0.12313 0.0179839 2.05462e-20)
(0.262337 0.095667 2.54199e-20)
(0.191234 0.066751 -2.4873e-20)
(0.349271 0.131581 1.73555e-20)
(0.267859 0.107163 2.69917e-21)
(0.431804 0.157017 8.49071e-21)
(0.344144 0.138167 -1.63799e-20)
(0.506531 0.173194 2.68812e-20)
(0.415193 0.160293 2.10607e-20)
(0.572242 0.181539 1.97138e-20)
(0.478795 0.174559 -1.10379e-20)
(0.628976 0.183396 1.91899e-20)
(0.534252 0.182003 8.51978e-21)
(0.677371 0.180033 -3.54269e-21)
(0.581741 0.183746 9.46541e-21)
(0.71839 0.172621 -1.1827e-20)
(0.621904 0.180881 -1.44605e-20)
(0.753145 0.162173 3.29334e-21)
(0.655664 0.174356 1.16014e-21)
(0.782788 0.149563 -1.9362e-21)
(0.684064 0.165006 8.72358e-21)
(0.808441 0.135541 -2.73439e-21)
(0.708184 0.153564 -5.07775e-21)
(0.831153 0.120743 1.76154e-21)
(0.729076 0.140659 -4.23916e-22)
(0.851877 0.105719 -3.22627e-22)
(0.747724 0.126836 1.96267e-21)
(0.871443 0.090941 5.77223e-22)
(0.765017 0.112581 -1.69876e-21)
(0.890551 0.076768 3.53957e-21)
(0.781748 0.0983281 2.95505e-21)
(0.90976 0.0634524 2.45042e-21)
(0.79852 0.0844104 -1.96902e-21)
(0.929416 0.0510874 9.82979e-23)
(0.815939 0.0710446 1.22333e-21)
(0.949783 0.0398811 -2.15211e-21)
(0.833954 0.0584246 1.91736e-21)
(0.970792 0.0296553 -4.61466e-21)
(0.853892 0.0466959 -8.0941e-21)
(0.992418 0.020375 -3.3279e-20)
(0.872923 0.0360348 -3.24713e-21)
(0.902191 0.0237086 4.52466e-21)
(0.0727374 -0.0456006 4.00303e-20)
(0.0683974 -0.0550409 1.54544e-21)
(0.0889242 -0.00991476 -3.24938e-20)
(0.0604892 -0.0294805 -4.60616e-21)
(0.133798 0.0344268 -5.97073e-20)
(0.0893671 0.00905196 -3.03139e-21)
(0.194915 0.0769602 -4.87552e-20)
(0.136715 0.051373 -8.47206e-22)
(0.261213 0.112651 -3.17673e-20)
(0.193038 0.0895568 -2.22947e-20)
(0.326215 0.140526 -4.21603e-21)
(0.2511 0.121421 -9.6242e-21)
(0.386325 0.160867 -1.77429e-20)
(0.306446 0.146534 -8.28826e-21)
(0.439845 0.174327 -2.35503e-20)
(0.356679 0.165123 -3.42191e-20)
(0.486229 0.181744 -2.43862e-22)
(0.400738 0.177669 7.82271e-21)
(0.525642 0.184076 -2.49178e-22)
(0.438398 0.184881 -2.65754e-21)
(0.558693 0.182188 -1.6267e-21)
(0.469964 0.187469 0)
(0.586227 0.176843 7.12136e-21)
(0.496087 0.18608 -6.76058e-21)
(0.609211 0.168726 7.29982e-21)
(0.517598 0.181317 1.14229e-20)
(0.628653 0.158442 -2.25286e-21)
(0.535412 0.173727 -1.81732e-21)
(0.645538 0.14653 6.93317e-24)
(0.550461 0.163811 -4.23916e-22)
(0.660791 0.133476 1.88442e-22)
(0.563648 0.152039 2.0087e-21)
(0.675252 0.119737 1.13451e-21)
(0.575817 0.138864 0)
(0.689654 0.105716 -2.24359e-21)
(0.587732 0.124732 1.1428e-21)
(0.704587 0.0917446 -3.2174e-21)
(0.600049 0.110031 5.06575e-22)
(0.720501 0.0780639 3.03795e-21)
(0.613309 0.0950977 -1.65625e-21)
(0.737663 0.0650325 -4.18806e-21)
(0.627852 0.0802972 4.67809e-21)
(0.756189 0.0527987 -7.27211e-21)
(0.644158 0.0661971 -7.08298e-21)
(0.775637 0.0416111 -1.38926e-20)
(0.662156 0.0531862 2.02034e-21)
(0.683544 0.0416874 3.74288e-21)
(0.0509059 -0.0383906 -4.53174e-20)
(0.0431447 -0.0441125 -3.81401e-20)
(0.0607425 -0.0116183 2.48233e-20)
(0.0372486 -0.0270366 -4.60616e-21)
(0.0905991 0.0250726 5.63683e-20)
(0.0557399 0.00365121 7.3505e-21)
(0.133474 0.0630185 2.6573e-20)
(0.0879468 0.0399852 2.55562e-20)
(0.181756 0.0974147 4.87699e-22)
(0.127907 0.07527 -5.30498e-21)
(0.230286 0.126552 -1.29954e-20)
(0.170207 0.106871 1.69901e-20)
(0.275861 0.149932 -2.46696e-20)
(0.211256 0.133731 -5.07071e-22)
(0.316746 0.167591 -3.3474e-21)
(0.24887 0.155452 -6.32953e-22)
(0.352176 0.179887 6.81509e-21)
(0.28195 0.172021 7.82271e-21)
(0.382072 0.187309 -9.2296e-22)
(0.310102 0.183684 -9.13433e-22)
(0.406795 0.190356 -6.78628e-21)
(0.333433 0.19076 0)
(0.426975 0.189524 -4.4124e-21)
(0.352378 0.193589 -4.09613e-21)
(0.443387 0.185286 2.55031e-21)
(0.367561 0.19253 3.19885e-21)
(0.456873 0.178092 0)
(0.379708 0.187951 -3.81261e-21)
(0.468278 0.168378 2.12933e-22)
(0.389589 0.180229 5.78545e-22)
(0.478419 0.156575 2.16265e-22)
(0.397979 0.169753 1.07796e-21)
(0.488068 0.143125 0)
(0.405599 0.156929 0)
(0.497922 0.128453 2.69113e-21)
(0.413149 0.142192 0)
(0.50858 0.112932 1.11931e-21)
(0.421297 0.12595 3.64022e-21)
(0.52054 0.0969579 -7.29791e-22)
(0.430597 0.10861 -2.54984e-21)
(0.534173 0.0811158 9.48956e-22)
(0.4415 0.0907227 2.01048e-21)
(0.549736 0.0661521 5.67484e-22)
(0.454397 0.073095 -1.02832e-21)
(0.567089 0.05322 8.62405e-22)
(0.469477 0.0569495 1.35954e-22)
(0.48651 0.0447412 7.20001e-22)
(0.0263996 -0.0327658 0)
(0.0177071 -0.0365717 0)
(0.0321227 -0.0124655 -2.23063e-20)
(0.0130385 -0.0251738 0)
(0.0518853 0.0179869 -2.41347e-20)
(0.0251408 -0.00060744 -2.60761e-20)
(0.0813972 0.0516358 -5.97997e-21)
(0.0471534 0.0305511 -2.99951e-22)
(0.115518 0.0841507 1.11115e-20)
(0.0752224 0.0627855 -2.80706e-21)
(0.150427 0.113503 3.03592e-20)
(0.10544 0.0933706 1.67516e-20)
(0.183594 0.138712 2.44482e-20)
(0.135111 0.120882 1.35631e-20)
(0.213496 0.159333 1.09796e-20)
(0.162496 0.144508 1.32305e-20)
(0.239369 0.175262 0)
(0.186616 0.163833 -2.22624e-21)
(0.261027 0.186578 0)
(0.207037 0.178707 0)
(0.278654 0.19345 3.58508e-21)
(0.223768 0.189112 2.36127e-21)
(0.292678 0.196098 3.52208e-21)
(0.237085 0.195117 5.84935e-22)
(0.303668 0.194785 -3.95426e-21)
(0.247453 0.196863 1.59579e-21)
(0.312282 0.189812 -3.2679e-21)
(0.255438 0.194531 -3.81261e-21)
(0.319212 0.181523 1.4244e-21)
(0.26169 0.188364 7.16071e-23)
(0.325131 0.170294 8.69866e-22)
(0.266897 0.178669 -7.9574e-23)
(0.330701 0.156496 0)
(0.271764 0.165753 5.17132e-22)
(0.336596 0.140489 9.238e-22)
(0.276967 0.149917 0)
(0.343425 0.122665 -2.19274e-23)
(0.2831 0.131567 9.30264e-22)
(0.351703 0.103558 1.61186e-22)
(0.290649 0.111196 -8.93591e-22)
(0.361829 0.0839171 9.74176e-23)
(0.299956 0.0895399 1.08407e-21)
(0.374109 0.0648647 -1.46678e-21)
(0.311238 0.0676328 -9.36629e-22)
(0.388742 0.0487729 8.14712e-22)
(0.324829 0.0471843 -4.26695e-22)
(0.341078 0.0321794 5.2283e-22)
(0.00259961 -0.0291449 0)
(-0.00603024 -0.0318336 0)
(0.0059756 -0.0138098 -3.22372e-21)
(-0.00935592 -0.0246586 -1.90608e-21)
(0.0195467 0.0115125 -2.94482e-21)
(-0.000618276 -0.00510022 -3.68017e-21)
(0.0402608 0.0412901 2.81207e-21)
(0.0153767 0.0216499 -6.71464e-22)
(0.0645305 0.0716663 2.53587e-21)
(0.0359131 0.0509644 2.49792e-21)
(0.0895933 0.100493 0)
(0.0581278 0.0801464 0)
(0.113563 0.1265 2.3497e-21)
(0.0800644 0.107561 -3.57026e-22)
(0.135243 0.148907 1.71739e-22)
(0.100442 0.132139 2.06211e-21)
(0.153974 0.167256 -2.25101e-21)
(0.118519 0.153187 -2.22624e-21)
(0.169534 0.181296 2.33664e-21)
(0.133965 0.170244 1.01484e-23)
(0.182025 0.190915 -6.53257e-22)
(0.14676 0.183003 2.70096e-21)
(0.19175 0.196094 -1.33779e-21)
(0.157132 0.191291 -4.15911e-21)
(0.199163 0.196888 1.7443e-21)
(0.165493 0.195025 1.72912e-21)
(0.204826 0.193408 -5.0271e-22)
(0.172283 0.194173 0)
(0.209378 0.18582 -1.44637e-21)
(0.178049 0.188779 -2.51711e-22)
(0.213527 0.174317 -4.60304e-22)
(0.183371 0.178941 -8.80998e-22)
(0.217991 0.159122 5.20881e-22)
(0.188866 0.16482 5.17132e-22)
(0.223415 0.140586 0)
(0.195105 0.146712 0)
(0.230206 0.119287 0)
(0.202606 0.125317 -2.13671e-22)
(0.238747 0.0960157 1.66089e-23)
(0.211683 0.10114 2.9615e-23)
(0.249217 0.0718563 -7.69281e-23)
(0.22257 0.0752587 9.0909e-24)
(0.261594 0.048593 2.78432e-22)
(0.235425 0.049156 1.20263e-22)
(0.275569 0.0298601 1.00484e-22)
(0.251199 0.0253861 7.00551e-22)
(0.271401 0.00901569 8.90663e-22)
(-0.019057 -0.0275165 -1.86038e-21)
(-0.0271164 -0.0293043 -1.76428e-20)
(-0.0160531 -0.0163685 -2.32538e-21)
(-0.0283896 -0.0259286 -1.64547e-20)
(-0.00540709 0.00462184 -1.31775e-21)
(-0.0204532 -0.0106394 -1.07976e-20)
(0.0104772 0.0309626 -9.67235e-22)
(-0.00697014 0.0123361 -9.39483e-21)
(0.0290286 0.0591589 0)
(0.00992163 0.0389527 -7.83235e-21)
(0.0481894 0.0870078 -3.52056e-22)
(0.0281348 0.0666158 0)
(0.066601 0.113057 -6.80458e-22)
(0.0462325 0.0935189 5.34809e-21)
(0.0834347 0.136304 -3.21963e-22)
(0.0633036 0.118388 3.69206e-21)
(0.0982719 0.156042 1.00355e-23)
(0.0788474 0.140302 0)
(0.110993 0.171751 3.51514e-22)
(0.0926771 0.158577 -3.59641e-22)
(0.121717 0.183058 -9.03953e-22)
(0.104799 0.172673 3.39692e-22)
(0.130754 0.189737 -1.27101e-21)
(0.115393 0.182174 -9.98075e-22)
(0.138509 0.191644 0)
(0.124755 0.186826 0)
(0.145418 0.188692 6.50228e-22)
(0.133268 0.186476 0)
(0.151969 0.180883 1.18889e-21)
(0.141365 0.181016 -8.98395e-22)
(0.158655 0.168321 5.36245e-22)
(0.149498 0.170448 3.26938e-22)
(0.165937 0.151283 0)
(0.158115 0.154893 0)
(0.174225 0.13049 -2.12186e-22)
(0.167672 0.134645 0)
(0.184004 0.106598 -1.84762e-22)
(0.178676 0.110217 -1.03707e-21)
(0.195545 0.0803036 1.05305e-23)
(0.191621 0.0823689 2.9615e-23)
(0.209055 0.0530951 3.00968e-23)
(0.206903 0.0522642 -4.41355e-22)
(0.22435 0.0273341 4.11927e-23)
(0.224934 0.0220796 3.38549e-22)
(0.240948 0.00684764 7.97221e-22)
(0.246953 -0.00490513 -1.14039e-23)
(0.274558 -0.0233309 -1.42316e-22)
(-0.0372624 -0.0278481 -3.22635e-20)
(-0.0450682 -0.0287756 -1.348e-22)
(-0.0329771 -0.0205271 -2.50296e-20)
(-0.0431729 -0.0290752 -1.07467e-20)
(-0.0225212 -0.00333646 -1.88932e-20)
(-0.0337045 -0.017648 -1.55651e-21)
(-0.00798877 0.0199205 -1.62893e-20)
(-0.0197453 0.00195381 1.24286e-21)
(0.00861743 0.0460368 -7.95135e-21)
(-0.00316954 0.0260675 -7.16319e-21)
(0.0258242 0.0727905 5.6223e-21)
(0.0144892 0.0521125 -5.60801e-21)
(0.0426366 0.0985576 9.73364e-21)
(0.032179 0.078198 -3.82836e-21)
(0.0584704 0.122141 4.05805e-21)
(0.0492771 0.102896 3.26516e-21)
(0.0730496 0.142644 -3.64775e-22)
(0.0654664 0.125116 -3.20202e-21)
(0.086318 0.159374 -3.72727e-22)
(0.0806542 0.144012 -5.30013e-21)
(0.0983441 0.171774 2.46511e-22)
(0.0949088 0.158924 2.23505e-22)
(0.109289 0.179404 2.51262e-22)
(0.108388 0.169317 2.09354e-21)
(0.119441 0.181968 0)
(0.12131 0.174745 -1.51743e-21)
(0.12917 0.179292 -1.48983e-21)
(0.134036 0.174891 0)
(0.138873 0.171283 -1.64783e-21)
(0.146937 0.169533 8.5837e-23)
(0.148963 0.157969 -1.3563e-22)
(0.160425 0.158561 -1.34609e-22)
(0.159868 0.139481 0)
(0.174942 0.141987 0)
(0.172075 0.115843 -9.54935e-22)
(0.190971 0.119943 0)
(0.186272 0.0875828 -9.68031e-22)
(0.208973 0.0924637 -5.68385e-22)
(0.203033 0.0559053 -4.40205e-22)
(0.229529 0.0603037 2.16569e-21)
(0.223075 0.0225623 -2.2217e-22)
(0.253086 0.0241845 -6.04712e-21)
(0.246247 -0.00944958 4.0234e-22)
(0.280024 -0.012425 3.79396e-21)
(0.272479 -0.0354484 -1.81662e-24)
(0.311019 -0.0465323 1.14071e-24)
(0.346436 -0.0706114 1.33464e-23)
(-0.051581 -0.0300742 2.16911e-20)
(-0.0596107 -0.0300934 2.19816e-20)
(-0.0442111 -0.0264681 1.25214e-20)
(-0.0531283 -0.0341404 1.79436e-20)
(-0.0314284 -0.0127469 1.85344e-20)
(-0.0399174 -0.0263722 8.86832e-21)
(-0.0153725 0.00771199 1.04635e-20)
(-0.0228544 -0.00980157 5.63409e-21)
(0.00230657 0.0318194 -4.88225e-21)
(-0.00374151 0.0120577 1.14874e-20)
(0.0204918 0.0573044 -1.49308e-20)
(0.016232 0.0365898 -4.82068e-21)
(0.0385117 0.0824481 -1.00145e-20)
(0.0363563 0.0618003 -4.19456e-21)
(0.0560062 0.105919 -3.72775e-21)
(0.0562739 0.0861515 1.38171e-22)
(0.0728407 0.126669 -8.12655e-21)
(0.0758569 0.108432 -3.12481e-21)
(0.0890473 0.143866 -4.76525e-21)
(0.0951379 0.127669 2.53059e-21)
(0.10478 0.156848 2.034e-21)
(0.11427 0.143074 -6.49632e-21)
(0.120276 0.16507 3.58323e-22)
(0.13349 0.153995 1.84459e-21)
(0.135822 0.16808 -1.53075e-21)
(0.153082 0.159885 -4.52547e-23)
(0.151762 0.165521 1.34448e-21)
(0.173371 0.160294 0)
(0.168489 0.157135 1.36656e-21)
(0.194711 0.154854 7.45979e-21)
(0.186442 0.142771 0)
(0.21747 0.143297 2.13943e-22)
(0.206099 0.122404 0)
(0.242026 0.125457 -3.25278e-21)
(0.227964 0.0961647 1.04604e-21)
(0.268736 0.101291 1.6468e-20)
(0.252377 0.0643901 3.21163e-21)
(0.297847 0.0709168 -1.87158e-21)
(0.279732 0.0278639 -3.15191e-21)
(0.329518 0.0347914 4.72943e-21)
(0.310058 -0.0118439 -1.85824e-21)
(0.363799 -0.00603923 -6.32317e-21)
(0.344024 -0.0514776 3.41535e-21)
(0.400806 -0.0497044 -1.37393e-21)
(0.3812 -0.0846203 1.62336e-23)
(0.440004 -0.0922286 -1.52546e-21)
(0.480911 -0.123299 -5.77613e-22)
(-0.0616585 -0.0341364 1.83522e-20)
(-0.0705293 -0.0330986 8.90511e-21)
(-0.04931 -0.0342666 1.44427e-20)
(-0.0577602 -0.0410961 -1.29227e-20)
(-0.0318753 -0.0237848 -3.97182e-21)
(-0.0386069 -0.0368639 0)
(-0.0117104 -0.00584155 6.64869e-21)
(-0.0160232 -0.0230177 3.3901e-21)
(0.00975962 0.0164666 1.175e-20)
(0.00815541 -0.00314649 4.0208e-21)
(0.0317235 0.0407738 5.90853e-21)
(0.033042 0.0200249 7.54557e-22)
(0.0537934 0.0652539 5.90425e-21)
(0.0582249 0.044378 5.12978e-21)
(0.0758442 0.0884783 6.50378e-22)
(0.083607 0.0682711 1.11952e-20)
(0.0979147 0.109301 7.38537e-21)
(0.109264 0.0904038 -9.76801e-22)
(0.120161 0.126784 9.1208e-22)
(0.135378 0.109709 3.74672e-21)
(0.142819 0.14015 -6.78578e-21)
(0.162206 0.1253 -5.91592e-21)
(0.166181 0.148743 1.50261e-21)
(0.190046 0.136432 2.64921e-21)
(0.190565 0.152008 1.52999e-21)
(0.219214 0.142477 -1.00191e-21)
(0.216305 0.149476 6.05309e-21)
(0.250015 0.142896 -3.29679e-21)
(0.24373 0.140766 6.57218e-21)
(0.282729 0.13724 1.19615e-20)
(0.273139 0.125612 -3.01256e-21)
(0.317577 0.125179 -2.63439e-21)
(0.30476 0.103873 1.26265e-20)
(0.354695 0.106519 -1.35488e-20)
(0.338772 0.07557 1.42466e-20)
(0.394106 0.0811453 2.40948e-20)
(0.375091 0.0409272 -3.97803e-22)
(0.435616 0.0494186 5.41356e-21)
(0.413641 0.000547505 2.07398e-21)
(0.478984 0.0115982 1.38359e-21)
(0.454238 -0.0443176 -5.71814e-21)
(0.523699 -0.0314108 2.43248e-21)
(0.496601 -0.0908041 -6.31383e-21)
(0.569276 -0.0782273 -1.31609e-20)
(0.539816 -0.131162 -2.12475e-21)
(0.614017 -0.12572 6.44247e-21)
(0.659209 -0.162792 9.48731e-22)
(-0.0671332 -0.0399321 -2.18465e-20)
(-0.0775936 -0.0376358 -3.00199e-20)
(-0.0477519 -0.0438771 -2.7636e-20)
(-0.0564892 -0.0498327 7.51127e-23)
(-0.0233771 -0.0364183 7.29889e-21)
(-0.02909 -0.048993 0)
(0.00327871 -0.020685 6.65311e-22)
(0.00133977 -0.037514 1.42333e-20)
(0.0309398 6.36137e-05 -6.92504e-21)
(0.0328743 -0.019285 -2.71192e-21)
(0.0591039 0.0233173 0)
(0.0649354 0.00274694 7.19105e-21)
(0.0876467 0.0471343 1.0293e-20)
(0.0974044 0.0263383 0)
(0.11668 0.0699928 9.54151e-21)
(0.130438 0.0497343 1.04269e-20)
(0.146419 0.0906609 -4.56837e-21)
(0.164304 0.0715684 -4.55487e-21)
(0.177153 0.108121 -2.93196e-21)
(0.199329 0.0907032 -3.61436e-21)
(0.209201 0.121516 3.35804e-21)
(0.235854 0.106188 7.2549e-21)
(0.242893 0.130121 3.08718e-22)
(0.274215 0.117219 -2.87101e-21)
(0.278527 0.133323 -5.80854e-21)
(0.3147 0.123135 -6.09435e-22)
(0.316349 0.130612 1.79999e-21)
(0.357537 0.123383 -3.69421e-21)
(0.35653 0.121602 2.4655e-21)
(0.40285 0.117509 2.65624e-21)
(0.399128 0.106036 -1.38696e-20)
(0.450628 0.10522 -1.05469e-22)
(0.444053 0.0837992 -4.17677e-21)
(0.500718 0.0864175 -7.31371e-21)
(0.491011 0.0549627 1.49396e-20)
(0.552766 0.0611567 4.03492e-21)
(0.539595 0.0198986 8.03017e-21)
(0.606181 0.0298083 1.94767e-20)
(0.589062 -0.020676 2.88399e-21)
(0.660169 -0.00703592 -1.79296e-20)
(0.638502 -0.0656767 -5.16898e-21)
(0.713479 -0.0484227 7.86231e-23)
(0.686826 -0.113107 -1.91009e-21)
(0.765393 -0.0929766 -3.82249e-22)
(0.732306 -0.157094 8.63346e-21)
(0.812765 -0.138575 3.68925e-21)
(0.863442 -0.176981 4.48703e-22)
(-0.0675493 -0.0472976 -8.7769e-21)
(-0.0805084 -0.0435558 6.10104e-20)
(-0.038804 -0.0551117 2.77576e-20)
(-0.0485198 -0.0601314 3.9335e-20)
(-0.00514072 -0.0503691 6.66974e-21)
(-0.0103753 -0.0623974 2.74413e-20)
(0.0302397 -0.0364462 1.07283e-20)
(0.0301932 -0.0527562 1.29684e-20)
(0.0662595 -0.0169193 1.12537e-20)
(0.0711811 -0.0356965 -1.20333e-20)
(0.102693 0.0054876 7.29115e-21)
(0.112358 -0.0144441 1.16009e-20)
(0.139708 0.0287108 0)
(0.153924 0.00858787 1.09055e-20)
(0.177619 0.0511395 -3.3795e-21)
(0.196271 0.0315637 -1.03747e-21)
(0.216815 0.0714846 -3.45834e-21)
(0.239839 0.0530451 -4.00876e-21)
(0.257674 0.0886834 6.37604e-21)
(0.285054 0.0718692 1.07516e-21)
(0.300549 0.101848 1.29223e-21)