/*--------------------------------*- C++ -*----------------------------------*  =========                 |
  \      /  F ield         | OpenFOAM: The Open Source CFD Toolbox
   \    /   O peration     | Website:  https://openfoam.org
    \  /    A nd           | Version:  11
     \/     M anipulation  |
\*---------------------------------------------------------------------------*/
FoamFile
{
    format      ascii;
    class       volScalarField;
    object      U;
}
// * * * * * * * * * * * * * * * * * * * * * * * * * * * * * * * * * * * * * //

dimensions      [0 1 -1 0 0 0 0];

internalField   nonuniform List<scalar> 
2880
( 
0.06389580156038911
0.16297208609392505
0.22673533199300605
0.1807589567025475
0.14635119285746206
0.14388414570438157
0.11101968843063882
0.2014273292311104
0.2171945351050799
0.17276878297327047
0.14465380372159578
0.16113848654263696
0.13458393795149876
0.20910449560239563
0.205917922395277
0.16400477937574354
0.15036480614271633
0.20109945292175604
0.15347552087079436
0.2099291699269167
0.19346649356263437
0.15524911464554741
0.16762364931324633
0.2469052468110806
0.1732224707415987
0.2094698409360093
0.18182324299087924
0.15624760735356624
0.1844747013334955
0.2596309725746565
0.19456342223993445
0.21013291302308987
0.17465723771365238
0.16505238340530565
0.21047893831932893
0.27742069573058425
0.21237906028821918
0.20748020700060993
0.17075006533508125
0.1671335792718696
0.2103737433339149
0.2981260936666476
0.22194156153142813
0.2098570776905447
0.17103639064758763
0.1709024955032135
0.23034646714590676
0.34128406517321375
0.23961780245038683
0.20440525020003136
0.16734888075988413
0.17573764098501155
0.2419850594842905
0.34076543834351963
0.24613788689534
0.20617295400600985
0.1678411066976597
0.17408389785596018
0.23589486252097347
0.35018208146792634
0.2541230898771799
0.2055527738945302
0.16575355774520767
0.17595475381536413
0.2511700906345044
0.36749035835008703
0.2607527346463425
0.2091925015767247
0.1678579785426859
0.1748942357694466
0.2502142423179745
0.39234110275764517
0.26446287554330217
0.2078739850275856
0.1653298758792052
0.17126169354252274
0.2555418636464531
0.40544852982508583
0.26153783783691215
0.20827449914635432
0.16427111712901885
0.17288404018825398
0.24681009750607477
0.3948580202906257
0.2575812404884754
0.21282377872433791
0.1651779931919323
0.1770809481022787
0.2491605911676279
0.4193698996444021
0.24974988991301228
0.21637735414430154
0.1788194492929609
0.17129134971071922
0.24485805225539053
0.3941927719819985
0.24423924184138013
0.22194745836385188
0.18827261268621753
0.16957363365169523
0.23560994820793757
0.3866067410807713
0.2306396476253687
0.22908413641253306
0.20023099508021308
0.17317964274762954
0.24065895226631823
0.3966587931423613
0.2175520318263103
0.23177451625021078
0.21248597946319456
0.18073495815568677
0.22504718038768665
0.3613928296225822
0.1990976478674003
0.23634541715141058
0.23494030470096075
0.1885502731039132
0.22649960931022167
0.34104919136162715
0.17591829255141378
0.23292599254334706
0.25608696732959324
0.20944993036314652
0.21479239250718962
0.3009123753543747
0.1528782829598872
0.22506744640275678
0.2685177067500477
0.23909424268614593
0.2344494917789931
0.248091264885205
0.12713543554471685
0.20662153292070212
0.2823313771188509
0.26947221793602383
0.2952413705895116
0.20459832215813778
0.07156717485368806
0.14789775406606978
0.2618577449187293
0.2544267412879069
0.40402627874018404
0.16739893553483853
0.29358162527336795
0.418067547642028
0.45016797873342124
0.5752728800462068
0.6359157009664956
0.7039862617280563
0.8171902018194653
0.8934123192442278
1.0105809543149775
1.1238480492800529
1.2072029149526307
1.2753942362295705
1.3156089721852027
1.3465041772217619
1.3843410061308838
1.3862308468753288
1.3662392340454788
1.361814189427637
1.337069711626654
1.3266369390081987
1.286783675872415
1.2663775046500445
1.2404651508075886
1.1917822956931243
0.3457671462383526
0.4428118632539675
0.5293606779119857
0.6190789080279209
0.6868712561947246
0.8019340941978349
0.8981891518389522
1.0043060767128837
1.1254102243649826
1.2073779825192892
1.2754864633363419
1.3355445428288037
1.3616762655866825
1.3840129490417923
1.38549595325533
1.3891895827005434
1.3727046648347097
1.3520464869460933
1.329245967043474
1.3062031213451797
1.278444123111082
1.2576474681006105
1.2267531318846459
1.179548877042143
0.3636322181930501
0.4644547721556439
0.5829714708474762
0.6749636367802774
0.7848805451842686
0.8986738587417722
1.0080819380280128
1.1162032295249926
1.202239302387468
1.2716329044057983
1.3278745217216685
1.375463473628377
1.3982836570007335
1.3987100217269255
1.380826411815447
1.3663014196136076
1.3652805872548393
1.3451230347715197
1.3105113570341178
1.2841468154042008
1.2706530675578778
1.2383457879293363
1.198502940104452
1.1671667461674518
0.3509445630924948
0.5050163038854196
0.6048247485160863
0.7195605183477349
0.8564559862506553
0.9775582438092202
1.0857420220073446
1.1879330839253555
1.262551300100459
1.335460659288209
1.365748450467101
1.3886865937944182
1.3874926774955196
1.3974736980036662
1.389221499233956
1.3799563651104831
1.357949694794665
1.3303154847736824
1.299773373874669
1.2835635447279876
1.250545841883966
1.2200983771017113
1.1811321840022275
1.1455983919859325
0.3943968637090016
0.5321719919781349
0.6781070583253154
0.8075104242430801
0.9303092038463607
1.045330694723322
1.1530576036362727
1.2433757188232366
1.3240660070838228
1.367772181900325
1.3766879939616765
1.3829583239533247
1.387143393968126
1.3795547885850363
1.3623679752141953
1.3747738899045299
1.3406080807980008
1.3115150534457807
1.2925795201005188
1.2631402096129842
1.2400543444835483
1.2012826829939456
1.1680097940828826
1.1388621149669342
0.42645105229161473
0.5639184342704523
0.7186204985167294
0.8693708999498648
1.0077474124339931
1.1242828235724576
1.232040956722197
1.308074900609249
1.3649200818647993
1.377027995867869
1.4017550367730942
1.416616512073882
1.3792861473040263
1.381237119189205
1.3527437318921522
1.3293178930238303
1.3159856513470234
1.305333808201917
1.284617187495853
1.2401087186808402
1.2185663246631506
1.1790394916812232
1.1517983056139431
1.1146999977690555
0.45335940907940564
0.6249576786692387
0.777981760479032
0.9448866641942256
1.077153941659006
1.1925982869270357
1.2721270382336418
1.3513372940821895
1.36684598452747
1.3872222630097912
1.383999627996446
1.3814844271879463
1.3633600407450195
1.3700507480237407
1.3507183336187203
1.3282707361651311
1.2931966122413268
1.2735061810621429
1.2584346573086456
1.2253206188444359
1.2066421139013424
1.1719003722564878
1.1317985938787958
1.1028222619950914
0.5053702799405655
0.6359712728912926
0.8277800910867283
1.0005564355865024
1.1430860238703338
1.2388008941940152
1.3251687769215956
1.3564027444607063
1.3949655772057477
1.3765658458166738
1.3844074889229943
1.374039681778111
1.348067150559705
1.3414513330792015
1.3260380223170556
1.3006630174937885
1.2813387581866047
1.2561235971112712
1.2406896751560232
1.2145943510936468
1.182435455543796
1.159115533802297
1.1201974227196296
1.0894655080111806
0.5110801101894817
0.7149310436782119
0.8977764365374953
1.0628097557428973
1.1983961099468032
1.2725698970702628
1.3418882011292865
1.379855482649229
1.3869999625782683
1.3868500848950729
1.374262152369086
1.3513571073189823
1.3470423409295331
1.3383234584255195
1.3043726144737675
1.287621750745398
1.252435434493751
1.2430691399330214
1.2255671733373625
1.202818373908591
1.1750281503366875
1.1434039446968085
1.1117560929469399
1.075976281551077
0.5247217780202361
0.7553504655746047
0.9599403271483599
1.1238173346846125
1.2387504535198666
1.3158810599317856
1.3439416922898524
1.3709819385036033
1.3854563856854674
1.3802234717904414
1.3575687502827463
1.3455113265881478
1.3312665628906388
1.3149536735960814
1.298160315284621
1.268318293543389
1.2475013037716625
1.2305365005083562
1.2108162807722171
1.1881371307217679
1.1530002874905143
1.1317519205642783
1.1031617771939204
1.0678134143535023
0.5652831213397793
0.8162622085506842
1.0154752720616467
1.1709374488233721
1.2941009610571992
1.3416395101353422
1.3533345127827194
1.3530154462623105
1.3658565100602809
1.355055931501007
1.3406268736777927
1.326280136805276
1.31060303678167
1.2966529863600402
1.276268317917778
1.253778426873474
1.234621217730624
1.2146461039800875
1.1914070895607607
1.1720408302073266
1.151321930567593
1.1245235018469564
1.0913910244328255
1.0607690726457306
0.6107455074973087
0.8595948442064847
1.0801877569407003
1.232246293323507
1.3143865993840875
1.3402912733345271
1.3521487946550372
1.3583621278487463
1.3514083838498248
1.3312344175610764
1.3208904305644535
1.3105076197822647
1.3002175332296706
1.2743852846634842
1.2604603776703613
1.237290280619565
1.2265889224985234
1.2016696313506725
1.19077700815621
1.1628752542532068
1.1355356564384376
1.1182476442816311
1.081010412490952
1.052897292699613
0.6204700310174048
0.9090626189247302
1.1120150341175101
1.23542235062483
1.3079927576636656
1.3414984164031454
1.3549868376242404
1.3433935108603956
1.3340000049990897
1.326050799153671
1.3120296109045375
1.2862824461034665
1.2754379370610487
1.245751818000513
1.2409290265310113
1.224405391349806
1.2014116435721294
1.1915403083469656
1.1728605252320874
1.1600743674469358
1.1275882618633064
1.103174927252105
1.0727432050269616
1.0411479570414732
0.6777360343599808
0.9686135017917767
1.1801384937005563
1.265729001917571
1.3316241342983486
1.3322038287136795
1.3324426466096106
1.3431435443750823
1.3197835567428424
1.2822932561167053
1.2797434186571834
1.2655418550261337
1.2483057149682022
1.241951888197784
1.2190812697837432
1.2087332745946624
1.1950846422449568
1.1762166091250306
1.1573004802088729
1.138260861696996
1.1158019613832098
1.092600299149487
1.067511109005084
1.035697418695029
0.6996150011314617
1.012548642600141
1.226953402244332
1.2871008803704669
1.3241753525174764
1.3339915623912075
1.3131733537164667
1.3135604304053952
1.296156168344732
1.2892104813137761
1.2738320073686376
1.2447312045547465
1.2351013588520372
1.219161819904035
1.2072818401387717
1.1962236711516794
1.1766115254490552
1.1614862400743486
1.1417769068228536
1.1311638045012098
1.1073710706743365
1.0871042980263652
1.058561788406937
1.0298882709885822
0.7202647600220495
1.0398235178446495
1.2335966863026173
1.2924853196831652
1.3171684402373196
1.317435398705024
1.3046786030041888
1.2796152420640352
1.269849277119945
1.258679912441427
1.2436981691587154
1.239603985938922
1.2130206141663975
1.2054758780164834
1.2007701545723704
1.178626787867129
1.1601499428202244
1.1511284387003744
1.1397778368703853
1.1172736624445767
1.0997108099844795
1.0762647497911504
1.0541644576510107
1.0246064284158554
0.769122718708014
1.1066163635651332
1.239138087141465
1.2727938012176019
1.2871283828523297
1.2991892369840534
1.2902118854777065
1.2639949261863295
1.2502034016346246
1.237508708727657
1.2378449712645048
1.2140275981762256
1.1992605843324031
1.195363959168718
1.175552764521658
1.165237676375158
1.1569468851279434
1.143911592074772
1.1211631229635233
1.1059733734409665
1.0904608091441133
1.0716052597411
1.0459638007688863
1.0196310543356175
0.7883089728054968
1.1251828256993563
1.2598248427716534
1.2863466795003156
1.3152518874000965
1.2802276666675418
1.2622437947868452
1.2421729023077464
1.2331951956488194
1.218638267380966
1.2178460128275415
1.1957402354662603
1.1859862166077537
1.1726636136479713
1.165660338718163
1.152285582715712
1.1424985214399246
1.1262171475663936
1.111945657278055
1.101173223351548
1.0811728519811155
1.0635288328315995
1.0425688556234383
1.0149020610755213
0.8126228575384982
1.138409210469118
1.2423391418016834
1.2779323473423467
1.2733817858015972
1.2341957531512089
1.225228786967412
1.225210580300577
1.1977506295601223
1.19647232681907
1.1915002558997638
1.1763385930768582
1.1654260429676662
1.1538633268696956
1.142818947798075
1.1373621096147568
1.1298159390095155
1.1185407195175643
1.1024323824247209
1.0918619575353095
1.0748894462495946
1.0566189168562174
1.0351332313404116
1.0103876761554345
0.8402589199035156
1.14381512601898
1.2324080771069827
1.2412134238083912
1.2357009953865994
1.2102467218335724
1.2000849775505302
1.1954291503617784
1.1893261536902375
1.1648687731680494
1.164654023420675
1.1571379153677779
1.1496744588300245
1.1423677205308358
1.1381834281745868
1.1305210192784794
1.1151158020814869
1.1061255060525053
1.0968370491445594
1.0804771473615877
1.0666232833762053
1.0498965882752025
1.0306854550208435
1.0081396175141484
0.8604500638226914
1.1403377729480466
1.2002781554453112
1.203312038721753
1.195697314041725
1.1964647411556115
1.179845984941168
1.1574128662983918
1.1567295438150094
1.1408085171330742
1.1417657587279475
1.1411972093400884
1.1332490924599452
1.1249140522045984
1.1209720073364027
1.1105664175771657
1.106854984737046
1.0980894709623008
1.0849241176804159
1.074456343063745
1.0585601038978187
1.043338408414036
1.0265193663306205
1.0042853283871893
0.8905427055631541
1.149795707502566
1.168953749118363
1.1716556045107474
1.1588220819714297
1.1563826947863411
1.143038783354998
1.1295337124476665
1.1331896010499132
1.1228312230068824
1.11419480640482
1.112100090198622
1.1169110508885947
1.1102846448581924
1.1040282648612973
1.09928855323669
1.0925905167198815
1.0846125360351695
1.0725015347857494
1.064472214794211
1.0509203146030919
1.0397792633634606
1.0228985343457053
1.0010686150334063
0.9330456923153586
1.1059078153064767
1.11043057884419
1.1263629443967476
1.1100032811612428
1.1081420794495354
1.098684027237635
1.089144284254845
1.097942504601341
1.1050872078454839
1.1043990689721683
1.0985886212703428
1.0970074115734487
1.094407771160434
1.092974538994865
1.083546435962685
1.082858513057318
1.074113757225058
1.0664192578249048
1.057688297882835
1.0441564672301242
1.0334841694034351
1.0177400931232947
1.0012505562737457
0.9318437457726854
1.0266699958100134
1.0568394643709091
1.04715042886633
1.062511912634486
1.060473682735637
1.059847248977471
1.0640600794955661
1.0670662440908685
1.0692950023798833
1.069832370632914
1.0720927715739368
1.0773428614743719
1.0716831164610388
1.0740425160859002
1.07206819505713
1.066972025934417
1.064510374763477
1.0557523782572167
1.0488279839158416
1.0407968679716582
1.0296632025759325
1.013825589755729
0.9981511343838422
0.06523433654764457
0.10616942405888602
0.1383174567707145
0.17050618693584713
0.17516197742802622
0.4381842893814657
0.07758945561848726
0.10655238629455241
0.12495758934797369
0.15186327178553674
0.1690917668660071
0.2775604717127401
0.0790494282782426
0.10338786152944976
0.12909450903502626
0.14215058107408615
0.16972233388153624
0.2605250520144814
0.09034272141651256
0.11096663375314397
0.12384547590545168
0.12870910084531945
0.16158489290115932
0.2552628053557208
0.09070081751397702
0.11044008253595373
0.12044942422888125
0.12864275787947096
0.16085552363404484
0.24170586654646076
0.08628125334436677
0.10970873029972257
0.11214329816475158
0.1298875626772154
0.15564392203555938
0.23184493065474784
0.09223299094763075
0.10914599604263846
0.11865134543595157
0.12006047594058339
0.14988849540297589
0.22852918623344975
0.09090474609911606
0.10789083647482535
0.11467677203698953
0.10806282428584515
0.14629773948368988
0.21175893399970663
0.09666040701329354
0.11035667365483708
0.11525473587608193
0.1245865244718479
0.15691495893610047
0.21610836798541852
0.08883475093028524
0.1053011981330025
0.11219523122281308
0.12374286871508966
0.15995746099966765
0.21532718972891235
0.0911643775112461
0.10550126332531744
0.10845714353227695
0.1255058977584061
0.1581742877240086
0.21202437321815923
0.09991460121425377
0.10627702336642358
0.11975374235171271
0.1336465640398667
0.17022043181620114
0.22322520813264707
0.09404676731320123
0.0994136020762207
0.11921507598593764
0.1460594059923449
0.19443946404037193
0.2414152890146234
0.09907545749852324
0.10812185154687233
0.11546808052539331
0.14962369030104114
0.1890210873756627
0.26545398819239785
0.09034941718613747
0.10591878664348274
0.12210916915858042
0.1590708843564411
0.21603652711989665
0.2750316440614014
0.08215466450073654
0.11216650753807432
0.13886288811004016
0.17992116087716534
0.22123971268415996
0.29875728570148297
0.0907196266955985
0.10544784748267476
0.13914600764305146
0.1721623861663409
0.24084912332726388
0.3400013857535001
0.08071768614998186
0.10016625196225883
0.14375958196399524
0.1785335619253834
0.24921432562737816
0.3441986839727165
0.07727460266306711
0.09877512540405377
0.14038986684746696
0.18619200906956956
0.2658252560096015
0.3604528998802755
0.07131383472572989
0.10077325093938101
0.1441584789856797
0.18854990959252055
0.281409006067629
0.3922161714148877
0.068933083127043
0.09180307941583897
0.13948482922536368
0.183983490414523
0.2674408779099158
0.4108089108019408
0.058815807647761745
0.08612348796729227
0.11906876789370344
0.1774781657396841
0.2736501915516188
0.39604682560094856
0.051066376133407886
0.08334244810446433
0.11930214747756536
0.16729923061391916
0.2630460117572168
0.42733115079799017
0.04778132061694737
0.06928035884792777
0.11462208439194195
0.15191781076758587
0.2433759053269164
0.5199916131440901
0.8499575471658237
0.9346409976111988
0.9675612158833851
0.9978219760563204
1.0144547756408673
1.018651047405762
1.0260270052290186
1.0290478214402206
1.0377648329243925
1.050610355029467
1.0536218213036144
1.0573221727532653
1.0581726789232173
1.0632647095090868
1.0673495942831084
1.0625017516114499
1.0559824772766162
1.0519789914787074
1.0463260773462977
1.042204344583504
1.0343006726997797
1.025253210023055
1.0107163932978072
0.9978917520039903
0.6810957617501943
0.8241849743600399
0.8858684606645861
0.9408902125499667
0.9608479344031756
0.9724621757348563
0.9929037865308473
1.0025767890151214
1.0149493520585444
1.0201685704047143
1.0339535330988787
1.0415082205659507
1.0398979670368997
1.049925715070307
1.0489598371951518
1.051143921281007
1.0466680508634028
1.0409958096779086
1.0430997490636615
1.0354918112031593
1.0283240935552511
1.0205367244343018
1.0085099926142786
0.9966499135836168
0.580642974057091
0.733515803586261
0.8198870970344277
0.8672751114274357
0.9093057475646501
0.9350358563798336
0.9492643083621394
0.9703789010414905
0.9900003817365195
0.9994005516325422
1.0113494441751831
1.0207310214843113
1.0271258578203843
1.0331305846803591
1.0315367896188035
1.0363377921282853
1.036580588338449
1.035602598093509
1.0326801302280582
1.0274233817365475
1.0237772140508192
1.0164999107091623
1.0084497675917599
0.997976958200476
0.5074736103731046
0.6648951235376357
0.7525693932843676
0.8125924840497015
0.8579997542390438
0.8937186926116703
0.9213859666775593
0.9432982254208261
0.96473709989496
0.9796326165045958
0.9922104862490475
1.00069218794212
1.0141907054501653
1.017010882634235
1.0237019680788144
1.026311489968062
1.0247216409752484
1.0242080270463552
1.0252520256794226
1.0221197968556344
1.0191569937439326
1.0142026436297304
1.0059823745487322
0.9982200293000362
0.4489219717655491
0.5963700693626967
0.6880321804217041
0.7604757378929788
0.8148145161218366
0.853931686066979
0.888971055690253
0.9166723029115997
0.939476203715488
0.9571972948533554
0.9730588445215906
0.9866814295875712
0.9974266875364286
1.001727510147818
1.0117372244233735
1.0143978931591524
1.0189226227428578
1.0155944963095387
1.0195908458874032
1.0155147980337187
1.0160010518439795
1.0107957127525062
1.004122028267309
0.9977148019405916
0.40208517755860645
0.5397106215866271
0.6421687600564965
0.721107075168157
0.775088402263801
0.8247975049312786
0.8598988489110937
0.8934529714146061
0.9167103657771494
0.9341115404636133
0.958587119000617
0.975003191854847
0.9839060458112517
0.9949653566996526
1.0008232899887897
1.006239945585038
1.0076108538682371
1.0113203518644098
1.009917912694042
1.0127117905567045
1.009064566525339
1.008598663202064
1.0029848102168886
0.9980080409563306
0.35979224264093956
0.5002388316510709
0.6013651939202684
0.6803542365170039
0.7427043986437104
0.8012001873381001
0.838560775407265
0.8730402231096065
0.9069400087018062
0.9287966652773251
0.9429525244237416
0.959809573420642
0.9713635310176582
0.9820891776502065
0.9896536358471132
0.9943173227674607
1.0022126567550595
1.0048412637710167
1.0065043839348617
1.0067274556293568
1.0062115504803213
1.0051540328925272
1.0027736829522962
0.9980842422258468
0.3346863544795702
0.4660087859911525
0.567738876170739
0.6500996680262885
0.7196112850443924
0.772652330707605
0.8140868002717474
0.8568815749915873
0.8865201570494133
0.9122141659051333
0.936216133296736
0.950383240524054
0.9620959764769639
0.9716132261303607
0.9825007605142022
0.9913481793448591
0.9929425529102296
0.996253916644982
1.0028398487205743
1.0025570413162432
1.0039215277630078
1.0034836788538282
1.0014315747051656
0.9983432098180816
0.32014597480170426
0.437186136342792
0.5455839259669817
0.6301234971991115
0.7027098163775133
0.758190989050104
0.8094894463828151
0.842593175289181
0.8721414982649243
0.8995745072663421
0.9225317373166293
0.9367080813505886
0.953988337198147
0.964506071474413
0.9735778338836235
0.9836560448876258
0.9878897230454458
0.9942328384360165
0.9976194074841634
0.9997889502386218
1.0030253864886
1.0019579808656363
1.0010660480313809
0.9990823648342143
0.3008470831768224
0.4312008123886638
0.5295955119093407
0.6167521128437943
0.6916027472802102
0.7501547017379467
0.7954895747864288
0.8363926911931066
0.8704226156929116
0.8914865063759151
0.9112073949070556
0.9273862911456544
0.9476430015467876
0.959805310270714
0.9698863590357633
0.9784891835322567
0.9866799900513854
0.9900056464563641
0.9944370193712841
0.9968332617417746
0.9998756121407297
1.001222923362102
1.0006354163581095
0.9995712616782908
0.304448256462836
0.42278658712537115
0.5198575752816721
0.6145491441883059
0.6890056837898759
0.7470233774733305
0.7929462511466554
0.8307613754398246
0.8586498743019326
0.8913030894211518
0.9085996353578512
0.9286609559193091
0.943614016149071
0.9506357431967687
0.9676691548482143
0.974543631197154
0.9829010907080018
0.9862726215389267
0.9932343451004263
0.9957576959579362
0.9977515388924062
0.9994146094175247
1.000358330699607
1.000378858942621
0.31527011948488093
0.4299955017122955
0.5321630968808259
0.615574401579328
0.6905903270025705
0.7428340351100252
0.7942586669452987
0.8289981398677719
0.8637114459968319
0.8826740892540097
0.9052192630967176
0.9242558320092761
0.9388140909077252
0.9535138194345792
0.964416246523084
0.9718738149468866
0.9797957457093868
0.9862478330433743
0.9921307789226208
0.9954713494587847
0.9981736240933812
0.9997631902268804
1.0011032576187284
1.0014113821211557
0.33380026422539344
0.44683470383309487
0.5460217776117928
0.6316753791365569
0.699639899428404
0.7514380375225403
0.7954671633627047
0.8337087501116568
0.8643514749857175
0.8883534326115639
0.9109929182811464
0.9285124553298352
0.9405837098017018
0.9559159495149708
0.9636026173181393
0.9724634437290679
0.9825527621657723
0.9842046664127165
0.9891335195584495
0.9949699493584898
0.9983851935165166
0.999524117988394
1.001328608325659
1.001410949029062
0.3607982462130308
0.4673417084291282
0.5610804310281905
0.6493975809420147
0.7080124132701225
0.7624742355626877
0.797929279788681
0.8385650713773228
0.8728500356700287
0.893949946599798
0.912438306303932
0.9302312707393973
0.943605345136212
0.9535382280298265
0.9646117998317998
0.9725018672502177
0.9845610899232321
0.9858252933116762
0.9922987838372161
0.9949585011217836
0.9992819526974044
1.0013295161730698
1.0013023284208775
1.0018479233660897
0.3734320924128668
0.48744209536525684
0.5936601271530687
0.6663673504241303
0.7287325393903886
0.7778473383358899
0.822189549744065
0.8491771140973129
0.8729263760348204
0.8962648396833093
0.9210700038238714
0.9358579579860755
0.9525945448524685
0.9594545687466036
0.971380748494032
0.9779220661222482
0.9832996326836265
0.9888343086053286
0.9926298700600709
0.9974317362397952
0.9995160139201765
1.0007790395832452
1.0021284428302721
1.0021963169464008
0.4211254809895444
0.5326635271197563
0.6266033784966402
0.697178711433163
0.7598534747412986
0.8001036511260124
0.8327582734026837
0.86672664486535
0.8933438996765918
0.9096612240171971
0.9299329086710819
0.9423025881223669
0.95364308532793
0.967335183186269
0.9737203711054092
0.9819362212816181
0.9862460474159505
0.9928600788528625
0.9954594304671025
0.9979690921758279
1.001619627597768
1.0028224611473695
1.0004495643427167
1.0024108175072268
0.45222382247595394
0.5744252003354308
0.665683463147136
0.7250970476332266
0.7851773860570547
0.825381221374061
0.85695622822441
0.883306509119546
0.8959247012213841
0.9215818836921139
0.9368993013272966
0.9544328697702976
0.965452464545163
0.9722201856581426
0.977498370852547
0.9888700077379611
0.9921280939959901
0.9967381956428749
1.0014061305888613
1.0006514150757087
1.002412698118354
1.003463591231176
1.0020699972659028
1.0019178463081482
0.49155549258841275
0.6116456866655339
0.6994253856129545
0.7727483074409998
0.8138842923104858
0.8498520645659653
0.8687362405747694
0.9026021680931855
0.9183561582981377
0.9392492533243102
0.9504036644304197
0.9627727070610743
0.9754479503325751
0.9820590592593507
0.988911741377338
0.9963354646375232
1.0014910360424691
0.9990168556405192
1.005514239901936
1.003264437723459
1.0045889851187944
1.003798947270666
1.0019936784006638
1.0014502107350391
0.5443619562048596
0.6782063188200664
0.7591088749999197
0.8214506358422583
0.8454582647731154
0.8753681616555057
0.9034053190123522
0.9195219564563326
0.9391024981562117
0.9485710785213541
0.9665559891598948
0.9754044917224557
0.9840995463706773
0.9900209105438866
0.9930463417825854
1.0005813505664831
1.0020930143546392
1.0039788858095187
1.0054232244702102
1.0057442244276853
1.0065550410474153
1.005206028922237
1.0017393228464315
0.9993034652582337
0.5999032372938441
0.7450630738541887
0.8030601028770233
0.8552384136190252
0.8905343185366406
0.90904608476439
0.9222641390783589
0.9499906082988564
0.9570471448207098
0.9664556537966474
0.9818915030713204
0.9893136261923521
0.9979816828445044
1.0012539812491315
1.0040988261482677
1.0049207121458712
1.0138668345987214
1.0104561967602494
1.01084573496679
1.0112837641916161
1.007417966860522
1.0047856377325002
1.0025989547794447
0.9995882448683585
0.6785792852001039
0.8133883071019891
0.8653977717007126
0.9228373018685265
0.9281853327785321
0.942031120272159
0.9586509463296398
0.9706665876721434
0.9898382916742925
0.9893188353315153
0.9982253978318375
1.0026935202406284
1.0090277585091423
1.0127500577851554
1.0171151260645859
1.011161595675402
1.016362593303599
1.0154902801752919
1.0146263997975917
1.0137897108201785
1.0121689004376246
1.0069145913933437
1.0022687915072503
0.9970010076076561
0.7483718255255077
0.889521777352385
0.9458660679043761
0.9708154348056914
0.9861065587518522
0.9807733305042006
0.9946053313312424
0.9907481900311206
1.0025590350181328
1.0101874226899095
1.0161198260598285
1.0216092781980073
1.0205977250386844
1.0277684356563823
1.022864462113184
1.0263098513187165
1.026755647065746
1.025738042745383
1.0216263346753072
1.0160038262803268
1.0123720415985649
1.0085210660842174
1.0004704432379827
0.994206491036095
0.8728727807197993
0.9929020757440946
1.0137961931684978
1.0269731369814314
1.0243051086011903
1.0333115836001614
1.018568060149285
1.018037743555311
1.0242245037911373
1.0291343434644178
1.0285154700518806
1.0302473159139924
1.0324527946738686
1.0360745749506746
1.0391588489842005
1.0354079741682813
1.0375847417503992
1.030988977855115
1.026802937772769
1.015826746630858
1.013990213297176
1.0083125640712607
0.9999445270130363
0.9925237576908339
1.0145211390036324
1.0853434464883729
1.0943032626176108
1.0805376084137066
1.084170437688154
1.0614265678593744
1.050856836294824
1.0525257821948157
1.0484780039884176
1.044895699088791
1.0533663312108368
1.0530663739762067
1.051916322987907
1.0460004897475241
1.0481298061893036
1.0447072417841379
1.039810315793357
1.033931467794344
1.0362874002075062
1.022073474894655
1.0165403153469408
1.0089364237070841
1.0017489472223255
0.9903880185150836
0.15823443614009106
0.30604464167722123
0.41478265820895965
0.40957400322221105
0.5132039507714725
0.38986480150091213
0.2222292455939137
0.35681679351723905
0.436775228496337
0.42438964680658925
0.472709866880896
0.471501454714027
0.24259761492899018
0.34542034852390296
0.41589245995703766
0.4070530645174244
0.4656898049530993
0.5677160813178649
0.25798031987515235
0.33336163439390076
0.38763828153167124
0.3810126613458602
0.47938123887150347
0.6545412951927609
0.27801998013615903
0.3238925249514357
0.36390088555638583
0.368981371000363
0.4991058708711277
0.7243553219019692
0.2896741843565755
0.31301521770002205
0.3298989036168981
0.35912961260462417
0.5145462139921664
0.7578739392195529
0.31160307796266046
0.3044511300492204
0.3079217033547006
0.35689796410252383
0.5342652469278057
0.7980902010905587
0.32983690219831874
0.2988902644198269
0.2910929575942842
0.35336801358429015
0.552889195080758
0.804299537377648
0.33977157121234924
0.2923116260844626
0.2760226798241594
0.34016229207189475
0.5432890411776707
0.8163547053969681
0.3566161377229448
0.29138151651384947
0.26351537053082197
0.3398330910341195
0.5385919446581187
0.7898191548119868
0.3624545796860603
0.2918232895296764
0.2673225086911146
0.3324046790120215
0.5355307246824721
0.7759421736936587
0.35945763035493933
0.2945040647413262
0.275057404451008
0.34284595333499607
0.5316875901852678
0.7844083839896061
0.35677258084415997
0.2976535735257162
0.27838736354703864
0.3377877633375264
0.5208831654666304
0.7581972060225619
0.35396937226781455
0.3020929187837822
0.29496681335009467
0.3617814476801501
0.5379267107955596
0.7282302335859194
0.336046615339078
0.306944588972617
0.3014468266007726
0.36899357965444424
0.5294114867087293
0.7365460652253265
0.3224506687518533
0.31183410559239516
0.31684016804682497
0.3933595826222962
0.536326187101751
0.7309922651147542
0.3074908100300516
0.316930037435593
0.33303870659607415
0.40543445347784
0.5372728902374476
0.683862439710388
0.28985302502234034
0.32089668084174694
0.3444752729882403
0.4136049854740556