/*--------------------------------*- C++ -*----------------------------------*\
  =========                 |
  \\      /  F ield         | OpenFOAM: The Open Source CFD Toolbox
   \\    /   O peration     | Website:  https://openfoam.org
    \\  /    A nd           | Version:  11
     \\/     M anipulation  |
\*---------------------------------------------------------------------------*/
FoamFile
{
    format      ascii;
    class       volScalarField;
    location    "0.78";
    object      k;
}
// * * * * * * * * * * * * * * * * * * * * * * * * * * * * * * * * * * * * * //

dimensions      [0 2 -2 0 0 0 0];

internalField   nonuniform List<scalar> 
2880
(
0.00447468
0.0158052
0.0415239
0.0712106
0.110264
0.150077
0.0174522
0.0387065
0.0744413
0.111744
0.158262
0.245867
0.0217776
0.0497789
0.0889726
0.129459
0.176466
0.247639
0.0237315
0.0568372
0.0967342
0.136496
0.179951
0.233046
0.02487
0.0619305
0.100862
0.137932
0.176519
0.216007
0.0253495
0.0657439
0.102809
0.136525
0.169582
0.199313
0.0263251
0.0684966
0.103351
0.133535
0.161503
0.184043
0.0272378
0.0703919
0.102951
0.12982
0.153434
0.170633
0.0279571
0.0714937
0.101816
0.125825
0.145884
0.159118
0.0284285
0.0718275
0.100115
0.121798
0.139052
0.149336
0.0286491
0.0714458
0.0979805
0.117881
0.132986
0.141059
0.0286522
0.0703818
0.095517
0.114141
0.127633
0.134079
0.0285113
0.0686771
0.0927933
0.110589
0.122896
0.128212
0.0281105
0.0664075
0.089836
0.107187
0.118687
0.123277
0.027444
0.0636177
0.0866271
0.103862
0.114914
0.119109
0.0265714
0.0603211
0.0831023
0.100515
0.111464
0.115555
0.0256226
0.0565084
0.0791495
0.0970098
0.108217
0.112465
0.0249777
0.052131
0.0745899
0.0931516
0.105022
0.109687
0.0242841
0.0471362
0.0691585
0.0886623
0.101676
0.107037
0.0230856
0.0415689
0.0624849
0.0831279
0.0978982
0.104291
0.0213256
0.0351436
0.0540511
0.0759015
0.0932403
0.101186
0.019138
0.0275619
0.0430992
0.0658994
0.0868203
0.0974457
0.0152571
0.017874
0.0282509
0.0512536
0.0766571
0.091821
0.00369246
0.00489543
0.0115726
0.0330021
0.0604264
0.0789543
0.28001
0.284737
0.246077
0.194703
0.151535
0.117523
0.0917976
0.0726651
0.0584408
0.0477724
0.0396685
0.0334271
0.0285541
0.0246982
0.0216046
0.0190842
0.0169932
0.0152187
0.0136679
0.0122563
0.0108935
0.00948207
0.00793775
0.00594793
0.305569
0.280808
0.230083
0.180967
0.140023
0.108202
0.0843548
0.0667001
0.0535914
0.0437549
0.0362735
0.0305035
0.0259924
0.0224187
0.0195493
0.0172119
0.0152758
0.0136396
0.0122205
0.0109427
0.00972415
0.00848223
0.00716982
0.00558816
0.282768
0.25962
0.211729
0.166072
0.128265
0.0990755
0.0772618
0.0611074
0.0490896
0.0400498
0.0331588
0.0278341
0.0236652
0.0203594
0.0177041
0.0155423
0.0137551
0.0122507
0.0109547
0.0097993
0.00871157
0.00762521
0.00652062
0.00526871
0.257577
0.236088
0.192654
0.151182
0.116906
0.090456
0.0706517
0.0559341
0.044943
0.0366469
0.030305
0.025394
0.0215432
0.0184867
0.0160311
0.0140334
0.0123854
0.0110041
0.0098231
0.00878235
0.00781861
0.00688028
0.00596484
0.00498518
0.232992
0.21278
0.174225
0.137124
0.106352
0.0825189
0.0645886
0.0511954
0.0411465
0.0335321
0.027694
0.0231632
0.0196051
0.0167789
0.0145086
0.0126638
0.0111468
0.00988253
0.00881186
0.00788201
0.00703838
0.00624072
0.005495
0.00473916
0.210701
0.191523
0.157419
0.124361
0.0967956
0.0753299
0.0590862
0.0468852
0.0376868
0.0306902
0.0253102
0.0211265
0.017837
0.0152232
0.0131251
0.0114242
0.0100318
0.00888044
0.0079173
0.00709564
0.00636784
0.00570152
0.00510479
0.00453039
0.191318
0.172938
0.14259
0.113039
0.0882763
0.0688858
0.0541284
0.042985
0.0345466
0.0281057
0.0231404
0.0192727
0.0162293
0.0138118
0.0118746
0.0103101
0.0090375
0.00799602
0.00713803
0.00642136
0.00580343
0.00525655
0.00478697
0.00435664
0.174842
0.157064
0.12975
0.103131
0.0807515
0.0631471
0.0496831
0.0394701
0.0317068
0.0257637
0.0211726
0.0175922
0.0147746
0.0125391
0.010753
0.00931827
0.00816134
0.00722674
0.00647082
0.00585445
0.00533825
0.00489684
0.00453266
0.00421429
0.160979
0.143701
0.118747
0.0945231
0.0741386
0.0580562
0.0457109
0.0363129
0.0291474
0.0236493
0.0193957
0.0160767
0.0134665
0.0114
0.00975618
0.00844507
0.00739945
0.00656806
0.00590982
0.00538717
0.00496254
0.00461143
0.00433224
0.00409916
0.149373
0.132532
0.109359
0.0870654
0.0683395
0.0535492
0.0421695
0.0334847
0.0268484
0.0217481
0.0177989
0.0147178
0.0122983
0.010389
0.00887887
0.0076853
0.00674612
0.00601314
0.00544656
0.00500924
0.0046646
0.00438857
0.00417633
0.00400725
0.139725
0.123176
0.101347
0.0806029
0.0632544
0.0495621
0.0390171
0.0309572
0.0247897
0.0200454
0.0163711
0.0135069
0.0112628
0.00949953
0.00811481
0.00703231
0.00619386
0.00555318
0.00507063
0.00470881
0.00443207
0.00421691
0.00405655
0.00393493
0.131731
0.115323
0.0944917
0.0749902
0.058789
0.0460339
0.0362132
0.0287029
0.0229522
0.0185271
0.0151014
0.012435
0.010352
0.00872416
0.00745656
0.00647816
0.00573377
0.00517795
0.00477049
0.00447366
0.00425307
0.00408635
0.00396576
0.00387907
0.125125
0.108714
0.088602
0.0700965
0.0548574
0.0429079
0.0337203
0.0266959
0.0213171
0.0171793
0.0139788
0.0114926
0.00955768
0.0080548
0.00689582
0.00601396
0.00535601
0.00487651
0.00453443
0.00429209
0.00411698
0.00398831
0.00389808
0.00383695
0.119681
0.103131
0.0835114
0.0658063
0.0513818
0.0401326
0.0315035
0.0249119
0.019867
0.0159884
0.0129922
0.0106703
0.00887089
0.00748283
0.00642377
0.0056303
0.00505035
0.00463793
0.00435135
0.00415367
0.00401479
0.0039158
0.00384872
0.00380613
0.115214
0.0983922
0.0790753
0.0620168
0.0482925
0.0376609
0.0295307
0.0233286
0.0185853
0.0149417
0.0121311
0.00995878
0.00828281
0.00699947
0.00603132
0.00531759
0.00480664
0.00445186
0.00421131
0.00404951
0.00393911
0.00386314
0.00381373
0.00378448
0.111571
0.094341
0.0751649
0.0586351
0.0455258
0.0354503
0.0277731
0.0219256
0.0174572
0.0140274
0.0113856
0.00934902
0.00778489
0.00659612
0.00570956
0.00506645
0.00461527
0.00430888
0.00410576
0.0039723
0.00388395
0.00382565
0.00378973
0.00377
0.108622
0.0908364
0.0716615
0.0555758
0.0430238
0.0334622
0.0262047
0.0206848
0.0164691
0.013235
0.0107467
0.00883278
0.00736915
0.00626471
0.0054501
0.00486818
0.00446749
0.00420082
0.00402755
0.00391618
0.00384464
0.0037996
0.00377381
0.00376069
0.106251
0.0877432
0.0684497
0.0527576
0.0407332
0.0316623
0.0248029
0.0195906
0.0156094
0.012555
0.0102062
0.00840273
0.0070285
0.00599811
0.00524562
0.00471532
0.00435608
0.00412109
0.00397111
0.0038767
0.00381787
0.00378245
0.00376377
0.00375495
0.104341
0.0849197
0.0654096
0.0501014
0.0386068
0.0300221
0.0235496
0.0186302
0.0148686
0.0119797
0.00975738
0.00805248
0.00675677
0.00579016
0.00508992
0.00460181
0.00427538
0.00406474
0.00393223
0.00385032
0.00380069
0.0037722
0.00375817
0.00375199
0.102761
0.0821962
0.0624093
0.047535
0.0366071
0.0285207
0.0224316
0.0177944
0.0142392
0.0115026
0.00939438
0.00777652
0.00654856
0.00563551
0.0049777
0.0045226
0.00422086
0.00402792
0.00390773
0.00383441
0.00379091
0.00376696
0.00375557
0.00375091
0.101311
0.0793391
0.0593056
0.0449969
0.0347111
0.0271483
0.0214428
0.0170781
0.0137166
0.0111192
0.00911259
0.00757029
0.00639934
0.00552962
0.00490457
0.00447363
0.00418902
0.00400778
0.00389543
0.00382734
0.0037874
0.00376569
0.00375522
0.00375081
0.0995586
0.075984
0.0559525
0.0424483
0.0329145
0.0259065
0.0205835
0.0164801
0.0132983
0.0108263
0.0089087
0.00743031
0.00630557
0.00546905
0.00486729
0.0044521
0.0041775
0.00400249
0.00389389
0.00382802
0.00378919
0.00376745
0.00375644
0.00375122
0.0963513
0.0715343
0.0522344
0.0398951
0.0312397
0.0248102
0.0198615
0.0160033
0.0129847
0.010623
0.00878076
0.00735429
0.00626502
0.00545163
0.00486388
0.00445614
0.00418508
0.00401109
0.00390234
0.0038357
0.00379566
0.00377228
0.00375922
0.00375224
0.0891781
0.0652837
0.0481778
0.0374242
0.0297414
0.0238876
0.0192907
0.0156543
0.0127782
0.0105094
0.00872828
0.00734107
0.00627591
0.00547609
0.00489389
0.00448611
0.00421187
0.00403377
0.00392096
0.0038506
0.00380702
0.00378015
0.00376386
0.00375411
0.00397039
0.00634659
0.0183044
0.0330501
0.0480988
0.0647696
0.0163781
0.019886
0.0333052
0.04555
0.0552077
0.0601239
0.0207086
0.0331306
0.0460558
0.0548283
0.0585712
0.0583076
0.0229471
0.04314
0.0548083
0.0602631
0.0614229
0.0576184
0.0250974
0.0508843
0.0612009
0.0647115
0.0639075
0.058007
0.0289655
0.0568285
0.0663234
0.0687981
0.0664585
0.0594986
0.0322306
0.0616138
0.0707856
0.0727067
0.0693659
0.0619362
0.03488
0.0656011
0.0749094
0.0766286
0.0727751
0.0651918
0.036952
0.0690179
0.0788837
0.0807116
0.0767637
0.0692374
0.0384898
0.0720034
0.0828158
0.0850587
0.0813711
0.0740977
0.0395293
0.0746287
0.0867483
0.0897334
0.0866435
0.0798117
0.040095
0.0769038
0.0906688
0.094765
0.092603
0.0864339
0.0402156
0.0787783
0.0945197
0.100128
0.0992496
0.0940256
0.0401297
0.0801277
0.0982035
0.105721
0.106541
0.102639
0.0399082
0.0808097
0.101562
0.11139
0.114397
0.112261
0.0394534
0.080717
0.104356
0.116891
0.12265
0.122819
0.0386564
0.0796098
0.106257
0.121851
0.130934
0.134311
0.037387
0.0772998
0.106854
0.125751
0.138701
0.146423
0.0354475
0.0735944
0.105975
0.12792
0.145112
0.158479
0.0324471
0.0683466
0.102847
0.12758
0.148942
0.169455
0.0275793
0.0613679
0.0970108
0.123968
0.148508
0.177698
0.0247663
0.0525375
0.0876339
0.114934
0.142026
0.179834
0.0204849
0.0407612
0.0723923
0.0974982
0.124701
0.170087
0.00582336
0.0159218
0.0372731
0.0592994
0.0799543
0.116995
0.0744896
0.0572751
0.0441538
0.0352279
0.0285028
0.0231763
0.0188891
0.0154418
0.0126831
0.0104876
0.00875151
0.0073914
0.00633993
0.00554379
0.0049582
0.00454273
0.00425901
0.00407165
0.00395078
0.00387362
0.00382409
0.00379183
0.00377089
0.00375727
0.0620405
0.0504136
0.0408875
0.0335367
0.0276087
0.0227136
0.0186754
0.0153756
0.0127048
0.0105609
0.00885365
0.0075068
0.0064578
0.00565593
0.00505875
0.00462829
0.00432878
0.00412686
0.00399368
0.00390635
0.00384819
0.00380842
0.00378125
0.00376249
0.0547653
0.0460749
0.0387285
0.0324747
0.0271125
0.0225272
0.0186641
0.0154642
0.0128487
0.0107331
0.00903707
0.00768991
0.00663227
0.00581541
0.00519862
0.00474607
0.00442441
0.00420241
0.00405225
0.00395099
0.00388117
0.00383154
0.00379631
0.00377091
0.0513523
0.0439475
0.0376845
0.0320601
0.0270325
0.0226288
0.0188653
0.0157152
0.0131209
0.0110092
0.00930625
0.00794477
0.00686732
0.00602626
0.00538201
0.00490036
0.00455014
0.00430221
0.00413002
0.00401065
0.00392578
0.00386333
0.00381689
0.00378317
0.0505172
0.0434787
0.0376132
0.0322385
0.0273611
0.0230257
0.0192856
0.0161355
0.0135279
0.0113954
0.00966699
0.00827692
0.00716835
0.00629393
0.00561449
0.00509687
0.00471166
0.00443169
0.00423184
0.00408939
0.00398502
0.00390559
0.00384439
0.00379989
0.0512405
0.0441459
0.0383288
0.0329963
0.0280948
0.0237185
0.0199313
0.0167329
0.0140778
0.0118994
0.0101267
0.00869348
0.00754238
0.00662544
0.00590323
0.00534295
0.00491633
0.0045979
0.00436398
0.00419227
0.00406268
0.00396145
0.00388257
0.00382358
0.0532933
0.0458957
0.0398208
0.0342891
0.0292239
0.0247114
0.0208107
0.017517
0.0147803
0.0125307
0.0106944
0.00920319
0.00799789
0.00702918
0.00625662
0.00564704
0.00517263
0.00480909
0.00453414
0.00432619
0.00416475
0.00403594
0.00393473
0.00385642
0.0563341
0.048495
0.0419882
0.0361012
0.0307514
0.0260141
0.0219359
0.0185002
0.0156475
0.0133007
0.011381
0.00981627
0.00854468
0.0075146
0.00668389
0.00601831
0.00548972
0.00507439
0.00475115
0.00449927
0.00429823
0.0041345
0.00400453
0.00390027
0.060252
0.0518941
0.0448188
0.0384399
0.0326929
0.0276445
0.0233243
0.0196986
0.016694
0.0142228
0.0121987
0.0105444
0.00919371
0.00809214
0.0071951
0.00646659
0.00587746
0.00540378
0.00502497
0.00472102
0.00447151
0.00426366
0.00409638
0.00395736
0.0650415
0.0561067
0.0483403
0.0413378
0.0350799
0.0296305
0.0249999
0.0211328
0.0179376
0.0153128
0.013162
0.0114005
0.0099571
0.00877316
0.00780107
0.0070024
0.00634628
0.00580786
0.00536639
0.00500205
0.00469433
0.00443139
0.00421583
0.00403039
0.0707587
0.0611989
0.0526194
0.0448549
0.0379627
0.0320126
0.026995
0.0228289
0.0194
0.0165892
0.0142868
0.0123991
0.0108481
0.00956998
0.00851339
0.00763684
0.00690709
0.00629757
0.00578656
0.00535364
0.00497748
0.00464698
0.00436958
0.00412251
0.0775009
0.0672822
0.0577622
0.0490824
0.0414139
0.0348468
0.0293523
0.02482
0.0211075
0.0180734
0.0155916
0.0135563
0.011881
0.0104958
0.00934438
0.00838157
0.00757111
0.00688403
0.00629673
0.00578719
0.00533225
0.00492064
0.00456533
0.00423731
0.0853926
0.0745092
0.0639162
0.054146
0.0455332
0.0382086
0.0321282
0.0271484
0.0230926
0.0197912
0.0170974
0.01489
0.0130718
0.0115648
0.0103071
0.00924877
0.00834992
0.00757842
0.00690798
0.00631392
0.00576991
0.00526298
0.00481141
0.00437851
0.0945748
0.0830676
0.0712704
0.0602117
0.0504535
0.0421987
0.0353972
0.0298687
0.0253959
0.0217739
0.018829
0.0164206
0.0144377
0.0127924
0.0114153
0.0102512
0.00925545
0.00839212
0.00763135
0.00694475
0.00630137
0.00568445
0.0051162
0.00454945
0.105186
0.0931708
0.0800518
0.0674866
0.056346
0.0469491
0.0392568
0.0330524
0.0280699
0.0240606
0.0208165
0.0181722
0.0159987
0.0141956
0.0126843
0.0114026
0.0103004
0.00933701
0.00847816
0.00769068
0.00693746
0.00619541
0.00548789
0.0047522
0.117313
0.105038
0.0905099
0.0762148
0.0634232
0.0526297
0.0438353
0.0367931
0.0311826
0.0267014
0.0230978
0.0201743
0.0177787
0.0157945
0.0141314
0.0127185
0.011499
0.0104264
0.00946096
0.00856374
0.00768994
0.00680707
0.00593494
0.00498666
0.130824
0.118874
0.102878
0.086654
0.0719319
0.0594505
0.0492972
0.0412138
0.0348241
0.0297622
0.025722
0.0224645
0.0198078
0.0176142
0.0157785
0.0142187
0.0128695
0.0116773
0.010596
0.00957953
0.00857411
0.00753436
0.00646873
0.00525044
0.145588
0.13469
0.117283
0.0990233
0.0821279
0.0676554
0.0558477
0.0464739
0.0391131
0.0333304
0.0287542
0.0250927
0.0221258
0.0196881
0.0176552
0.0159308
0.0144387
0.0131164
0.0119097
0.0107643
0.00961633
0.00840399
0.00711173
0.00554194
0.16149
0.15204
0.133628
0.113414
0.0942198
0.0774961
0.0637258
0.0527728
0.0442046
0.0375227
0.0322817
0.0281262
0.0247866
0.0220626
0.0198041
0.0178968
0.0162507
0.0147916
0.0134548
0.0121758
0.0108791
0.00948334
0.00792838
0.00588708
0.177858
0.169973
0.151518
0.129667
0.108272
0.0891728
0.0731785
0.0603448
0.0502935
0.0424912
0.0364211
0.0316547
0.0278629
0.0248004
0.0222851
0.0201798
0.0183774
0.0167905
0.0153421
0.013956
0.012545
0.0110038
0.00919817
0.00663403
0.192876
0.186933
0.169863
0.147162
0.124051
0.102726
0.0843979
0.0694314
0.0576094
0.0484279
0.0413234
0.0357962
0.0314486
0.0279813
0.0251727
0.0228583
0.0209128
0.0192378
0.0177512
0.0163802
0.0150562
0.013743
0.0126053
0.0123975
0.202597
0.199828
0.186457
0.16457
0.140831
0.117881
0.0974098
0.0802179
0.0663882
0.0555567
0.0471765
0.0406987
0.0356587
0.0316956
0.028541
0.0259986
0.0239257
0.0222206
0.0208149
0.0196682
0.0187632
0.0181341
0.0180242
0.0189405
0.199077
0.203257
0.196819
0.179785
0.157227
0.133864
0.111915
0.0927182
0.0768061
0.0641052
0.054196
0.0465409
0.0406296
0.0360412
0.0324542
0.0296349
0.0274202
0.0257056
0.0244357
0.0235929
0.0231818
0.0232438
0.0239308
0.0254369
0.174074
0.197426
0.197185
0.18911
0.171141
0.149272
0.127119
0.106616
0.0888625
0.0742357
0.0625955
0.0535245
0.0465244
0.0411355
0.0369864
0.0338019
0.0313949
0.0296527
0.0285216
0.0279835
0.0280249
0.0286149
0.0298894
0.0317413
0.00444665
0.0120916
0.0243167
0.0366951
0.0440762
0.0610402
0.0174482
0.0314438
0.048247
0.0608011
0.0679795
0.0859841
0.0214987
0.0406573
0.0598978
0.0725443
0.0810061
0.0967804
0.0234775
0.047026
0.0676273
0.0805003
0.0897732
0.103946
0.0249237
0.0523033
0.0735608
0.0867653
0.0967338
0.109864
0.0262616
0.0570119
0.0784482
0.0920734
0.102726
0.115311
0.0286276
0.0611057
0.0825847
0.0967231
0.108086
0.120415
0.0304682
0.064558
0.0860861
0.10085
0.112981
0.125305
0.0318583
0.0673577
0.0890008
0.104519
0.117506
0.130066
0.0328609
0.0695085
0.0913578
0.107764
0.121713
0.134734
0.0335246
0.071015
0.0931759
0.110603
0.125625
0.139301
0.0338949
0.071873
0.0944632
0.113036
0.129236
0.143724
0.0339748
0.0720519
0.0952112
0.115039
0.132514
0.14793
0.0337108
0.0716162
0.0953704
0.116568
0.135398
0.151824
0.033036
0.0705272
0.0949323
0.117547
0.137803
0.1553
0.0319408
0.0687489
0.0937858
0.117833
0.139618
0.158251
0.0304252
0.0662204
0.0918136
0.117338
0.140707
0.160578
0.0285084
0.0628504
0.0888441
0.115815
0.140876
0.162188
0.0262577
0.0585013
0.0846436
0.112982
0.139908
0.163017
0.0249438
0.0529389
0.0788837
0.10843
0.137387
0.162848
0.0233619
0.0461028
0.0710726
0.101551
0.132644
0.161233
0.0212137
0.0374984
0.0603909
0.0914018
0.124461
0.157162
0.0170164
0.0256115
0.0450853
0.0764251
0.110548
0.146997
0.00416167
0.00877511
0.0248766
0.0571139
0.0914537
0.117713
0.167667
0.188091
0.19386
0.190959
0.180357
0.162228
0.141682
0.121122
0.102228
0.0859292
0.0725185
0.0618453
0.0535282
0.0471251
0.042237
0.038553
0.0358594
0.0340289
0.0329962
0.0327233
0.0331135
0.0341587
0.0358632
0.0379699
0.169073
0.192199
0.19255
0.190487
0.184197
0.17127
0.154069
0.135028
0.116147
0.0988477
0.0839239
0.0716242
0.0618181
0.0541801
0.0483392
0.0439727
0.040847
0.0388164
0.0377939
0.037708
0.0383571
0.0397753
0.0418273
0.044159
0.158226
0.20263
0.19811
0.191896
0.185372
0.176189
0.163067
0.146938
0.129461
0.112234
0.096448
0.0827884
0.0714882
0.0624593
0.0554512
0.0501842
0.0464298
0.0440322
0.0428813
0.0428674
0.043677
0.0453808
0.0477281
0.0502755
0.147342
0.204513
0.209368
0.199465
0.188568
0.179101
0.168713
0.155878
0.140918
0.124983
0.109326
0.0949388
0.0824266
0.0720261
0.0637127
0.0573342
0.0527214
0.049738
0.0482669
0.0481679
0.0490227
0.0509043
0.0534969
0.0562579
0.14244
0.196843
0.218081
0.212643
0.197313
0.183485
0.172589
0.161835
0.149625
0.135913
0.121475
0.107291
0.0941916
0.0827247
0.0731541
0.0655427
0.0598575
0.056039
0.0540041
0.0536109
0.0543732
0.0562864
0.0590605
0.0620295
0.140978
0.185302
0.217402
0.222158
0.212431
0.193393
0.178026
0.166303
0.155602
0.144205
0.131769
0.118772
0.105968
0.094061
0.0835678
0.0748026
0.0679369
0.0630597
0.0601881
0.0592337
0.0597417
0.0614849
0.0643469
0.0675066
0.141602
0.176743
0.210589
0.226561
0.223821
0.209676
0.189092
0.172681
0.160465
0.150015
0.1395
0.128318
0.11669
0.105183
0.0943999
0.0848487
0.0769135
0.0708791
0.0669309
0.0651051
0.0651778
0.0664947
0.0692895
0.0725964
0.143734
0.172307
0.202559
0.22469
0.23067
0.224239
0.206474
0.184906
0.167739
0.155189
0.145041
0.135383
0.125386
0.115045
0.104763
0.0950636
0.0864611
0.079413
0.0742999
0.0713638
0.0706362
0.071446
0.0738255
0.0772118
0.146914
0.171019
0.197133
0.220013
0.233121
0.233077
0.224153
0.203508
0.181298
0.163552
0.150665
0.140711
0.13177
0.122825
0.113666
0.104542
0.0959065
0.0882794
0.082176
0.0780424
0.0761553
0.076335
0.0779871
0.0813138
0.150817
0.171958
0.194821
0.216175
0.232264
0.238711
0.235715
0.223399
0.201364
0.17892
0.160598
0.147191
0.137162
0.128671
0.120562
0.112432
0.104383
0.0967848
0.0901427
0.0850031
0.0818505
0.0810392
0.0819647
0.0847899
0.155178
0.174444
0.194732
0.214315
0.230757
0.241286
0.243094
0.23786
0.223008
0.200533
0.177925
0.159113
0.145063
0.134656
0.126255
0.118664
0.11133
0.104206
0.0975668
0.0918616
0.0876368
0.0854839
0.0856791
0.0877084
0.159761
0.177814
0.196125
0.213937
0.229803
0.241909
0.248059
0.247226
0.239891
0.222942
0.200745
0.178519
0.159472
0.144705
0.133584
0.124844
0.11733
0.110429
0.104012
0.0981783
0.0932765
0.0898573
0.0889003
0.0901461
0.164335
0.181502
0.198166
0.214314
0.229221
0.241711
0.250322
0.253432
0.250842
0.241399
0.223821
0.202589
0.181121
0.162051
0.146542
0.134446
0.124926
0.117031
0.110098
0.103967
0.098646
0.0942943
0.091772
0.092236
0.168686
0.185046
0.200157
0.214701
0.228467
0.240766
0.250581
0.256664
0.257764
0.253841
0.243071
0.226218
0.206419
0.186113
0.167334
0.151235
0.138029
0.127303
0.118493
0.111065
0.104708
0.0993543
0.0951546
0.0944486
0.172624
0.188098
0.201583
0.21448
0.227006
0.238791
0.249125
0.257
0.261331
0.261316
0.256562
0.245694
0.230466
0.21263
0.193904
0.175822
0.159422
0.145164
0.133066
0.122894
0.114377
0.107226
0.101127
0.0984074
0.175995
0.190395
0.202054
0.213266
0.224457
0.235502
0.245887
0.254799
0.261285
0.26443
0.263824
0.259076
0.24945
0.23628
0.220718
0.203931
0.187008
0.170829
0.155983
0.14276
0.13124
0.121308
0.112693
0.107176
0.178691
0.191778
0.201501
0.210905
0.220689
0.23082
0.240873
0.250149
0.257851
0.263136
0.265412
0.264416
0.260124
0.252315
0.241524
0.228403
0.213778
0.198519
0.183351
0.168816
0.155289
0.142934
0.131928
0.123753
0.180602
0.192114
0.199766
0.207374
0.215751
0.224881
0.234309
0.243374
0.251365
0.25763
0.261527
0.262899
0.261492
0.25728
0.250479
0.241574
0.230948
0.218978
0.206171
0.193023
0.179963
0.167296
0.155676
0.146628
0.181616
0.19139
0.196858
0.202737
0.209801
0.217949
0.22662
0.235117
0.242745
0.248918
0.253166
0.255191
0.255216
0.252938
0.248501
0.242108
0.234084
0.224825
0.214712
0.20412
0.193437
0.183052
0.173643
0.166377
0.181698
0.18948
0.192795
0.197078
0.202987
0.210268
0.218235
0.226112
0.233166
0.238805
0.242541
0.244232
0.244207
0.2422
0.238444
0.233189
0.226702
0.219245
0.21108
0.202479
0.193738
0.185303
0.177888
0.171984
0.180781
0.186327
0.187579
0.190456
0.195375
0.201928
0.209349
0.216779
0.223425
0.228647
0.231812
0.233062
0.232569
0.230188
0.226226
0.220988
0.214761
0.207784
0.200295
0.19259
0.184972
0.177868
0.171791
0.166601
0.178596
0.181828
0.181227
0.182906
0.187002
0.192945
0.199958
0.207203
0.213803
0.21904
0.222212
0.223456
0.222941
0.220534
0.216574
0.2114
0.205354
0.198772
0.191905
0.184901
0.177967
0.171402
0.165546
0.160382
0.174352
0.1757
0.173781
0.174518
0.177887
0.183196
0.189776
0.196847
0.203498
0.208939
0.212603
0.214316
0.214491
0.21292
0.209884
0.205676
0.200609
0.194973
0.189014
0.182933
0.17691
0.171097
0.165555
0.160488
0.166614
0.167629
0.16535
0.165508
0.168107
0.17254
0.178303
0.18468
0.190717
0.195569
0.198935
0.200896
0.201611
0.201141
0.199567
0.197002
0.193662
0.189768
0.185515
0.181057
0.1765
0.171902
0.167274
0.162817
0.00406884
0.0101077
0.034079
0.061646
0.0889907
0.118912
0.0164793
0.025298
0.0525515
0.0770878
0.100584
0.127225
0.0209965
0.0378503
0.065892
0.0887489
0.111257
0.132376
0.0233391
0.0467863
0.0744355
0.0961425
0.117042
0.133515
0.0249645
0.0534173
0.0799722
0.100552
0.119572
0.133344
0.0264598
0.0583046
0.0833846
0.102789
0.12002
0.132354
0.02844
0.0615946
0.0852304
0.103419
0.11924
0.13061
0.0299396
0.063658
0.0858795
0.102916
0.117286
0.128092
0.0310105
0.0647318
0.0856405
0.101337
0.114441
0.124766
0.0316718
0.0649791
0.0845871
0.0989574
0.110826
0.120648
0.0319335
0.0645666
0.0829017
0.0959247
0.106563
0.115851
0.0318789
0.0635304
0.080685
0.0923602
0.101783
0.110564
0.0314485
0.0619551
0.0780118
0.0883683
0.0966247
0.105019
0.0308553
0.0598386
0.0749355
0.0840389
0.0912196
0.0994564
0.0300821
0.0572157
0.0714921
0.0794471
0.085686
0.0940992
0.0290946
0.0540909
0.0676978
0.0746498
0.0801217
0.0891816
0.0278219
0.0504249
0.0635534
0.0696843
0.074602
0.084791
0.0259358
0.0461969
0.0590664
0.0645663
0.0692135
0.0808623
0.0249509
0.0417617
0.0542993
0.0592831
0.0639051
0.0772906
0.0238777
0.0376137
0.0493327
0.0537928
0.0585571
0.0737353
0.0224134
0.0336518
0.0440908
0.0479888
0.0528572
0.0693739
0.0204977
0.0293587
0.0381034
0.0415494
0.046089
0.065046
0.0167336
0.023271
0.0298855
0.0334463
0.0365155
0.0591151
0.00459443
0.00848274
0.0127144
0.0165652
0.0193139
0.0333555
0.155971
0.15822
0.156648
0.156496
0.158192
0.161393
0.165661
0.170286
0.174343
0.176614
0.177438
0.177475
0.177253
0.17686
0.176226
0.175201
0.17373
0.171941
0.169939
0.167804
0.165595
0.163305
0.160733
0.157749
0.148527
0.150325
0.149031
0.148596
0.149427
0.151479
0.154432
0.156534
0.156578
0.153716
0.148973
0.14421
0.140782
0.138696
0.137335
0.136283
0.135403
0.134663
0.134053
0.133511
0.132985
0.132469
0.131941
0.13104
0.144079
0.145084
0.143715
0.143159
0.143955
0.146844
0.150194
0.151605
0.146856
0.13611
0.125729
0.118174
0.11337
0.109861
0.106438
0.102788
0.0990515
0.0954813
0.0923195
0.0896908
0.0877276
0.0860477
0.0848828
0.0831049
0.14155
0.1423
0.141274
0.141167
0.143018
0.147545
0.151913
0.152188
0.14431
0.128609
0.115457
0.107105
0.102247
0.098308
0.0940156
0.0892232
0.0841246
0.0789772
0.0739915
0.0692754
0.064996
0.0609544
0.0573958
0.0538845
0.140233
0.141446
0.141488
0.142757
0.146835
0.153908
0.158993
0.156783
0.143164
0.123536
0.109574
0.102114
0.0975462
0.0933077
0.0885119
0.0831476
0.0774786
0.0717698
0.066239
0.0610431
0.0563065
0.0519877
0.0483512
0.0457012
0.139347
0.141797
0.143543
0.147401
0.15487
0.164502
0.16769
0.159559
0.138026
0.11716
0.106219
0.10045
0.0960234
0.0915033
0.0863492
0.080618
0.0746094
0.0686248
0.0628955
0.0575843
0.0527925
0.0487344
0.0458666
0.0442892
0.138314
0.142522
0.146932
0.154354
0.166043
0.176312
0.173571
0.158583
0.130476
0.113312
0.105535
0.100315
0.0956865
0.0905988
0.0846728
0.0783071
0.0719164
0.0658117
0.0602036
0.0552339
0.0509656
0.0477677
0.0457189
0.0449992
0.136633
0.14302
0.150806
0.162959
0.178817
0.184271
0.17531
0.14836
0.123449
0.11233
0.105915
0.100557
0.095105
0.0886792
0.0816918
0.0747155
0.0681444
0.0622242
0.0571137
0.0529338
0.0497948
0.0478127
0.0470138
0.0472332
0.134076
0.142963
0.155084
0.173107
0.189801
0.187044
0.168802
0.136778
0.120905
0.112724
0.10643
0.100419
0.0933903
0.0857286
0.078096
0.0709506
0.0645738
0.0591406
0.0547747
0.0515812
0.049647
0.0488344
0.0490413
0.0498441
0.130652
0.1425
0.16038
0.184711
0.194071
0.184237
0.153639
0.1316
0.120787
0.113326
0.106515
0.098737
0.0903248
0.0819855
0.07421
0.0673018
0.0614385
0.0567271
0.0532356
0.0509957
0.049997
0.050075
0.0508576
0.0521321
0.126578
0.142309
0.167792
0.19501
0.194143
0.172914
0.144305
0.130426
0.121383
0.113551
0.104954
0.0956364
0.0863928
0.0777855
0.0701547
0.0636845
0.0584663
0.0545395
0.0519005
0.0504906
0.0501861
0.050732
0.0520278
0.0534335
0.122259
0.143505
0.178185
0.19858
0.188283
0.159242
0.141655
0.130886
0.121798
0.112287
0.101898
0.0915496
0.0819178
0.0733864
0.0661308
0.0602152
0.0556542
0.0524312
0.0504894
0.0497211
0.0499127
0.0508167
0.0523091
0.0537631
0.118271
0.14749
0.19029
0.197534
0.176756
0.15456
0.141882
0.131541
0.121071
0.109436
0.0977405
0.0868354
0.0771846
0.0689638
0.0621982
0.056857
0.052894
0.0502491
0.0488308
0.0485075
0.0489968
0.0502133
0.0518546
0.0533399
0.1153
0.155324
0.197122
0.190964
0.168918
0.154145
0.143304
0.131691
0.118682
0.105365
0.0928695
0.0818091
0.0723899
0.0645994
0.0583455
0.0535281
0.0500587
0.047848
0.0467852
0.0467286
0.0473882
0.0487345
0.0504038
0.0518706
0.113811
0.166649
0.198035
0.183911
0.167252
0.156942
0.144252
0.130104
0.114935
0.100462
0.0876074
0.0766766
0.0676356
0.0603206
0.0545519
0.0501803
0.0470892
0.045174
0.0443202
0.0443818
0.0451183
0.0464662
0.0480983
0.0495244
0.113759
0.178986
0.1935
0.181403
0.170253
0.159425
0.144275
0.127054
0.110168
0.0950372
0.0821713
0.0715588
0.0629696
0.0561285
0.0507951
0.0467864
0.0439674
0.0422281
0.0414599
0.0415306
0.042238
0.0435069
0.0450524
0.0464248
0.11449
0.188454
0.191302
0.182148
0.1754
0.160914
0.142241
0.122659
0.104702
0.0893524
0.0767195
0.0665331
0.0584179
0.0520228
0.0470668
0.0433437
0.0407066
0.0390447
0.0382601
0.0382495
0.038834
0.0399552
0.0413715
0.0426815
0.114126
0.19242
0.191614
0.188366
0.18057
0.16142
0.138798
0.117367
0.098841
0.0835902
0.0713479
0.0616405
0.0539927
0.0480052
0.0433717
0.0398702
0.0373447
0.0356843
0.0348028
0.0346192
0.0350094
0.0359054
0.0371461
0.0383827
0.110446
0.193138
0.198108
0.196714
0.18362
0.159092
0.133855
0.111405
0.0927851
0.0778721
0.0661177
0.0569083
0.0497067
0.0440868
0.0397287
0.0364002
0.0339371
0.0322255
0.0311856
0.0307544
0.0308626
0.0314406
0.0324338
0.033573
0.1085
0.19657
0.209196
0.205924
0.184735
0.155323
0.12805
0.105099
0.0867012
0.0722814
0.0610708
0.0523612
0.0455803
0.0402917
0.0361712
0.0329814
0.0305513
0.0287595
0.0275227
0.0267835
0.0264997
0.0266451
0.0272425
0.0282147
0.124452
0.208754
0.222948
0.212169
0.182407
0.149786
0.121472
0.098573
0.0806739
0.0668688
0.0562407
0.0480279
0.0416453
0.0366586
0.0327472
0.0296744
0.0272643
0.0253857
0.0239416
0.0228598
0.0220878
0.0216135
0.0215462
0.0221181
0.155392
0.22776
0.236919
0.214899
0.17766
0.143032
0.114412
0.0919778
0.0747839
0.0616814
0.0516624
0.0439431
0.037943
0.0332387
0.0295197
0.0265546
0.0241669
0.0222178
0.0205926
0.0191894
0.0179088
0.0166646
0.015475
0.0148306
0.184142
0.25136
0.247168
0.21305
0.171005
0.135294
0.107025
0.0854088
0.069087
0.0567548
0.0473651
0.0401393
0.0345151
0.0300876
0.0265609
0.0237137
0.0213749
0.0194058
0.0176855
0.0160963
0.0145063
0.0127569
0.0106533
0.00747547
0.222719
0.274438
0.251548
0.205185
0.16198
0.126664
0.0994244
0.0789398
0.0636244
0.0521125
0.0433656
0.0366345
0.0313869
0.0272425
0.0239247
0.0212272
0.0189915
0.0170908
0.0154185
0.013876
0.0123596
0.0107557
0.00893261
0.00640433
)
;

boundaryField
{
    rotor
    {
        type            kqRWallFunction;
        value           nonuniform List<scalar> 
144
(
0.00447468
0.0158052
0.0415239
0.0712106
0.110264
0.150077
0.00447468
0.0174522
0.0217776
0.0237315
0.02487
0.0253495
0.0263251
0.0272378
0.0279571
0.0284285
0.0286491
0.0286522
0.0285113
0.0281105
0.027444
0.0265714
0.0256226
0.0249777
0.0242841
0.0230856
0.0213256
0.019138
0.0152571
0.00369246
0.00369246
0.00489543
0.0115726
0.0330021
0.0604264
0.0789543
0.00397039
0.00634659
0.0183044
0.0330501
0.0480988
0.0647696
0.00397039
0.0163781
0.0207086
0.0229471
0.0250974
0.0289655
0.0322306
0.03488
0.036952
0.0384898
0.0395293
0.040095
0.0402156
0.0401297
0.0399082
0.0394534
0.0386564
0.037387
0.0354475
0.0324471
0.0275793
0.0247663
0.0204849
0.00582336
0.00582336
0.0159218
0.0372731
0.0592994
0.0799543
0.116995
0.00444665
0.0120916
0.0243167
0.0366951
0.0440762
0.0610402
0.00444665
0.0174482
0.0214987
0.0234775
0.0249237
0.0262616
0.0286276
0.0304682
0.0318583
0.0328609
0.0335246
0.0338949
0.0339748
0.0337108
0.033036
0.0319408
0.0304252
0.0285084
0.0262577
0.0249438
0.0233619
0.0212137
0.0170164
0.00416167
0.00416167
0.00877511
0.0248766
0.0571139
0.0914537
0.117713
0.00406884
0.0101077
0.034079
0.061646
0.0889907
0.118912
0.00406884
0.0164793
0.0209965
0.0233391
0.0249645
0.0264598
0.02844
0.0299396
0.0310105