/*--------------------------------*- C++ -*----------------------------------*\
  =========                 |
  \\      /  F ield         | OpenFOAM: The Open Source CFD Toolbox
   \\    /   O peration     | Website:  https://openfoam.org
    \\  /    A nd           | Version:  11
     \\/     M anipulation  |
\*---------------------------------------------------------------------------*/
FoamFile
{
    format      ascii;
    class       surfaceScalarField;
    location    "0.78";
    object      meshPhi;
}
// * * * * * * * * * * * * * * * * * * * * * * * * * * * * * * * * * * * * * //

dimensions      [0 3 -1 0 0 0 0];

internalField   nonuniform List<scalar> 
5640
(
1.36932e-16
9.81747e-07
2.42106e-16
1.37445e-06
3.76923e-16
1.76715e-06
-1.33934e-15
2.15984e-06
-3.68166e-15
2.55254e-06
2.94524e-06
5.95124e-15
1.8316e-18
9.81747e-07
-3.88803e-16
1.37445e-06
-2.60422e-15
1.76715e-06
1.94358e-15
2.15984e-06
8.06612e-15
2.55254e-06
2.94524e-06
-9.02985e-15
-1.16471e-16
9.81747e-07
1.86352e-16
1.37445e-06
-1.56234e-15
1.76715e-06
-4.21259e-15
2.15984e-06
-7.49861e-15
2.55254e-06
2.94524e-06
7.72334e-16
8.69222e-17
9.81747e-07
-1.01968e-16
1.37445e-06
2.69316e-15
1.76715e-06
7.44277e-15
2.15984e-06
3.2597e-15
2.55254e-06
2.94524e-06
-2.79806e-15
-4.83921e-17
9.81747e-07
3.94989e-17
1.37445e-06
1.94279e-16
1.76715e-06
-1.80622e-15
2.15984e-06
-4.20857e-15
2.55254e-06
2.94524e-06
5.01331e-15
-1.8012e-16
9.81747e-07
4.28453e-18
1.37445e-06
-1.84784e-15
1.76715e-06
-3.88618e-15
2.15984e-06
3.15704e-15
2.55254e-06
2.94524e-06
4.98092e-16
2.53941e-16
9.81747e-07
2.55418e-16
1.37445e-06
2.06594e-15
1.76715e-06
4.5041e-15
2.15984e-06
-2.30993e-15
2.55254e-06
2.94524e-06
5.40777e-16
2.16435e-17
9.81747e-07
-3.21683e-16
1.37445e-06
-1.14892e-15
1.76715e-06
-5.28568e-15
2.15984e-06
-3.76738e-16
2.55254e-06
2.94524e-06
-5.64004e-15
-1.43419e-16
9.81747e-07
1.6639e-16
1.37445e-06
4.19107e-15
1.76715e-06
6.34939e-15
2.15984e-06
-8.05703e-16
2.55254e-06
2.94524e-06
8.39274e-16
-6.88181e-17
9.81747e-07
-9.20475e-17
1.37445e-06
-2.76942e-15
1.76715e-06
-3.68828e-16
2.15984e-06
-1.45083e-15
2.55254e-06
2.94524e-06
-1.7669e-16
1.66319e-16
9.81747e-07
-8.86776e-17
1.37445e-06
5.69623e-16
1.76715e-06
-2.10357e-15
2.15984e-06
9.65988e-15
2.55254e-06
2.94524e-06
5.29008e-15
-1.7779e-16
9.81747e-07
-2.05076e-17
1.37445e-06
-3.4552e-16
1.76715e-06
-4.17265e-15
2.15984e-06
-2.62243e-15
2.55254e-06
2.94524e-06
5.36942e-15
1.77779e-16
9.81747e-07
2.04815e-17
1.37445e-06
3.45292e-16
1.76715e-06
4.17266e-15
2.15984e-06
2.62233e-15
2.55254e-06
2.94524e-06
-5.36961e-15
-1.66343e-16
9.81747e-07
8.86868e-17
1.37445e-06
-5.69771e-16
1.76715e-06
2.10347e-15
2.15984e-06
-9.65995e-15
2.55254e-06
2.94524e-06
-5.29031e-15
6.88008e-17
9.81747e-07
9.20645e-17
1.37445e-06
2.76938e-15
1.76715e-06
3.68772e-16
2.15984e-06
1.45075e-15
2.55254e-06
2.94524e-06
1.76551e-16
1.43397e-16
9.81747e-07
-1.66402e-16
1.37445e-06
-4.19115e-15
1.76715e-06
-6.34947e-15
2.15984e-06
8.0571e-16
2.55254e-06
2.94524e-06
-8.3931e-16
-2.16915e-17
9.81747e-07
3.2165e-16
1.37445e-06
1.1488e-15
1.76715e-06
5.28565e-15
2.15984e-06
3.76709e-16
2.55254e-06
2.94524e-06
5.63986e-15
-2.53994e-16
9.81747e-07
-2.55425e-16
1.37445e-06
-2.06596e-15
1.76715e-06
-4.50405e-15
2.15984e-06
2.31004e-15
2.55254e-06
2.94524e-06
-5.41034e-16
1.80116e-16
9.81747e-07
-4.30785e-18
1.37445e-06
1.84774e-15
1.76715e-06
3.88625e-15
2.15984e-06
-3.15717e-15
2.55254e-06
2.94524e-06
-4.98146e-16
4.83844e-17
9.81747e-07
-3.94618e-17
1.37445e-06
-1.94355e-16
1.76715e-06
1.80605e-15
2.15984e-06
4.20842e-15
2.55254e-06
2.94524e-06
-5.01343e-15
-8.69549e-17
9.81747e-07
1.01915e-16
1.37445e-06
-2.69321e-15
1.76715e-06
-7.44283e-15
2.15984e-06
-3.25992e-15
2.55254e-06
2.94524e-06
2.79801e-15
1.16475e-16
9.81747e-07
-1.86411e-16
1.37445e-06
1.56231e-15
1.76715e-06
4.21243e-15
2.15984e-06
7.49837e-15
2.55254e-06
2.94524e-06
-7.72218e-16
-1.85484e-18
9.81747e-07
3.88797e-16
1.37445e-06
2.60409e-15
1.76715e-06
-1.94365e-15
2.15984e-06
-8.06627e-15
2.55254e-06
2.94524e-06
9.02961e-15
-1.36985e-16
-2.42102e-16
-3.77065e-16
1.33932e-15
3.68146e-15
-5.9512e-15
-1.13361e-14
4.53785e-06
-4.53785e-06
-4.80825e-16
5.23599e-06
-5.23599e-06
-5.35735e-15
5.93412e-06
-5.93412e-06
-1.13039e-14
6.63225e-06
-6.63225e-06
4.86877e-15
7.33038e-06
-7.33038e-06
-1.11005e-15
8.02851e-06
-8.02851e-06
-8.15918e-15
8.72664e-06
-8.72664e-06
1.30432e-14
9.42478e-06
-9.42478e-06
5.94811e-15
1.01229e-05
-1.01229e-05
-1.99725e-15
1.0821e-05
-1.0821e-05
2.43865e-14
1.15192e-05
-1.15192e-05
1.6188e-14
1.22173e-05
-1.22173e-05
-3.27853e-14
1.29154e-05
-1.29154e-05
-3.05271e-15
1.36136e-05
-1.36136e-05
-1.44418e-14
1.43117e-05
-1.43117e-05
-2.69045e-14
1.50098e-05
-1.50098e-05
7.73799e-15
1.5708e-05
-1.5708e-05
-4.44025e-15
1.64061e-05
-1.64061e-05
-1.80034e-14
1.71042e-05
-1.71042e-05
2.18185e-14
1.78024e-05
-1.78024e-05
8.21253e-15
1.85005e-05
-1.85005e-05
-6.08427e-15
1.91986e-05
-1.91986e-05
3.89214e-14
1.98967e-05
-1.98967e-05
2.05949e-05
-2.05949e-05
9.39881e-15
4.53785e-06
5.20267e-16
5.23599e-06
7.52807e-15
5.93412e-06
-4.41215e-15
6.63225e-06
3.78242e-15
7.33038e-06
1.33837e-14
8.02851e-06
-2.10896e-15
8.72664e-06
8.52941e-15
9.42478e-06
-1.00277e-14
1.01229e-05
1.86434e-15
1.0821e-05
-2.02023e-14
1.15192e-05
-7.01511e-15
1.22173e-05
7.51113e-15
1.29154e-05
2.36067e-14
1.36136e-05
-2.04309e-15
1.43117e-05
1.48306e-14
1.50098e-05
-1.38809e-14
1.5708e-05
2.39258e-15
1.64061e-05
2.04087e-14
1.71042e-05
-7.01946e-15
1.78024e-05
1.20625e-14
1.85005e-05
-2.59448e-14
1.91986e-05
1.85106e-15
1.98967e-05
2.05949e-05
-8.67617e-15
4.53785e-06
1.22922e-14
5.23599e-06
1.88296e-15
5.93412e-06
8.90285e-15
6.63225e-06
-5.10868e-15
7.33038e-06
-2.19911e-14
8.02851e-06
1.22651e-14
8.72664e-06
-5.37461e-15
9.42478e-06
4.45575e-15
1.01229e-05
-1.43053e-14
1.0821e-05
-7.32711e-15
1.15192e-05
7.03981e-15
1.22173e-05
2.39951e-14
1.29154e-05
-7.55526e-15
1.36136e-05
9.79957e-15
1.43117e-05
-1.62366e-14
1.50098e-05
4.02937e-14
1.5708e-05
1.44442e-14
1.64061e-05
-1.37027e-14
1.71042e-05
-7.89781e-15
1.78024e-05
-3.92484e-14
1.85005e-05
4.27481e-14
1.91986e-05
-8.8504e-15
1.98967e-05
2.05949e-05
5.986e-15
4.53785e-06
2.18505e-16
5.23599e-06
-6.43575e-15
5.93412e-06
6.06411e-15
6.63225e-06
-2.09245e-15
7.33038e-06
1.61769e-14
8.02851e-06
-1.88307e-14
8.72664e-06
-2.35061e-15
9.42478e-06
9.17172e-15
1.01229e-05
-4.71073e-15
1.0821e-05
2.16279e-14
1.15192e-05
-2.96452e-14
1.22173e-05
-9.29051e-15
1.29154e-05
-1.89054e-14
1.36136e-05
4.46482e-15
1.43117e-05
3.0155e-14
1.50098e-05
-2.62168e-14
1.5708e-05
4.34213e-16
1.64061e-05
-2.11704e-14
1.71042e-05
1.87124e-14
1.78024e-05
-3.92145e-15
1.85005e-05
-2.91563e-14
1.91986e-05
1.52283e-14
1.98967e-05
2.05949e-05
6.71483e-15
4.53785e-06
-7.30698e-15
5.23599e-06
1.11011e-14
5.93412e-06
-4.2414e-15
6.63225e-06
1.51021e-14
7.33038e-06
-5.20923e-15
8.02851e-06
1.70127e-14
8.72664e-06
-3.94092e-15
9.42478e-06
-2.94218e-16
1.01229e-05
6.61092e-15
1.0821e-05
1.37056e-14
1.15192e-05
1.01844e-14
1.22173e-05
1.82187e-14
1.29154e-05
1.43668e-14
1.36136e-05
2.334e-14
1.43117e-05
-2.53434e-14
1.50098e-05
2.90722e-14
1.5708e-05
-7.82791e-15
1.64061e-05
3.54157e-14
1.71042e-05
-4.5139e-15
1.78024e-05
4.23724e-14
1.85005e-05
-5.83272e-16
1.91986e-05
-8.73361e-15
1.98967e-05
2.05949e-05
-4.63083e-15
4.53785e-06
5.79745e-15
5.23599e-06
-1.61505e-14
5.93412e-06
-5.97451e-15
6.63225e-06
-8.55546e-15
7.33038e-06
4.22282e-15
8.02851e-06
-8.18752e-15
8.72664e-06
6.99959e-15
9.42478e-06
-2.42308e-14
1.01229e-05
-7.76907e-15
1.0821e-05
-2.27662e-14
1.15192e-05
8.34828e-15
1.22173e-05
-7.40437e-15
1.29154e-05
2.82654e-14
1.36136e-05
-4.57115e-14
1.43117e-05
-8.22252e-15
1.50098e-05
-2.82283e-14
1.5708e-05
-2.33892e-15
1.64061e-05
-6.94321e-15
1.71042e-05
2.2148e-14
1.78024e-05
-3.41074e-14
1.85005e-05
-3.74024e-15
1.91986e-05
-3.23486e-14
1.98967e-05
2.05949e-05
-8.92515e-15
4.53785e-06
-2.28906e-15
5.23599e-06
-2.22422e-15
5.93412e-06
6.61674e-15
6.63225e-06
-3.38838e-15
7.33038e-06
-3.90673e-15
8.02851e-06
-6.41901e-15
8.72664e-06
-7.15833e-15
9.42478e-06
6.80974e-15
1.01229e-05
6.9836e-15
1.0821e-05
-9.06672e-15
1.15192e-05
6.75814e-15
1.22173e-05
-2.88889e-14
1.29154e-05
-1.2234e-14
1.36136e-05
4.80543e-15
1.43117e-05
2.50264e-14
1.50098e-05
3.86062e-15
1.5708e-05
3.6089e-15
1.64061e-05
-2.04842e-14
1.71042e-05
-2.17608e-14
1.78024e-05
3.46488e-15
1.85005e-05
2.90423e-14
1.91986e-05
-1.65904e-15
1.98967e-05
2.05949e-05
6.2157e-15
4.53785e-06
-3.87919e-15
5.23599e-06
1.54219e-14
5.93412e-06
-7.06479e-15
6.63225e-06
-2.21055e-15
7.33038e-06
1.42848e-15
8.02851e-06
-5.49346e-15
8.72664e-06
1.32267e-14
9.42478e-06
6.04673e-15
1.01229e-05
-1.745e-14
1.0821e-05
2.08872e-14
1.15192e-05
-2.14461e-14
1.22173e-05
1.91342e-14
1.29154e-05
-7.31444e-15
1.36136e-05
3.84866e-14
1.43117e-05
-1.29235e-14
1.50098e-05
-1.88444e-15
1.5708e-05
5.71392e-15
1.64061e-05
-7.58783e-15
1.71042e-05
2.76552e-14
1.78024e-05
1.40978e-14
1.85005e-05
-5.31382e-14
1.91986e-05
3.90883e-14
1.98967e-05
2.05949e-05
-1.49863e-15
4.53785e-06
1.0897e-14
5.23599e-06
-6.59929e-15
5.93412e-06
7.26597e-15
6.63225e-06
6.17462e-15
7.33038e-06
2.48844e-15
8.02851e-06
-9.65651e-16
8.72664e-06
-4.36499e-15
9.42478e-06
-8.90076e-15
1.01229e-05
1.38633e-14
1.0821e-05
1.06893e-14
1.15192e-05
6.24985e-15
1.22173e-05
-1.28397e-16
1.29154e-05
-3.4389e-15
1.36136e-05
-1.1043e-14
1.43117e-05
-1.77654e-14
1.50098e-05
1.76806e-14
1.5708e-05
9.95377e-15
1.64061e-05
3.32916e-15
1.71042e-05
-3.29713e-14
1.78024e-05
-1.04194e-14
1.85005e-05
3.00683e-14
1.91986e-05
-5.99941e-14
1.98967e-05
2.05949e-05
5.17031e-15
4.53785e-06
-7.4556e-15
5.23599e-06
-7.56468e-16
5.93412e-06
6.83993e-15
6.63225e-06
-9.97395e-15
7.33038e-06
-1.66424e-15
8.02851e-06
9.21803e-15
8.72664e-06
-1.34594e-14
9.42478e-06
2.32213e-14
1.01229e-05
1.04724e-14
1.0821e-05
-1.72725e-14
1.15192e-05
-3.02587e-15
1.22173e-05
1.13973e-14
1.29154e-05
-1.98167e-14
1.36136e-05
-4.67844e-15
1.43117e-05
5.03053e-14
1.50098e-05
-2.40452e-14
1.5708e-05
-6.65698e-15
1.64061e-05
1.42607e-14
1.71042e-05
1.64952e-15
1.78024e-05
-6.81026e-15
1.85005e-05
1.44449e-14
1.91986e-05
5.07579e-14
1.98967e-05
2.05949e-05
-6.19727e-15
4.53785e-06
2.86243e-17
5.23599e-06
1.15115e-14
5.93412e-06
-2.06263e-14
6.63225e-06
5.36749e-15
7.33038e-06
1.22213e-15
8.02851e-06
-4.75238e-17
8.72664e-06
1.23934e-14
9.42478e-06
-1.32267e-14
1.01229e-05
-1.88947e-14
1.0821e-05
-4.96458e-15
1.15192e-05
-7.15314e-15
1.22173e-05
-1.48866e-14
1.29154e-05
3.53394e-14
1.36136e-05
-1.50944e-18
1.43117e-05
-4.31364e-14
1.50098e-05
1.35615e-14
1.5708e-05
-2.82549e-14
1.64061e-05
2.4535e-15
1.71042e-05
-1.02413e-14
1.78024e-05
2.38006e-14
1.85005e-05
1.38732e-14
1.91986e-05
-4.55628e-14
1.98967e-05
2.05949e-05
-1.90665e-15
4.53785e-06
1.13051e-15
5.23599e-06
-2.16617e-14
5.93412e-06
9.62375e-15
6.63225e-06
1.51374e-14
7.33038e-06
-1.40651e-14
8.02851e-06
8.09351e-15
8.72664e-06
-2.69605e-14
9.42478e-06
-1.96585e-15
1.01229e-05
2.97169e-14
1.0821e-05
-1.17466e-14
1.15192e-05
1.98668e-14
1.22173e-05
-2.74466e-14
1.29154e-05
-2.06156e-14
1.36136e-05
1.60395e-14
1.43117e-05
-4.61318e-15
1.50098e-05
4.69041e-15
1.5708e-05
4.79672e-14
1.64061e-05
-1.37382e-14
1.71042e-05
3.2374e-14
1.78024e-05
-3.51859e-14
1.85005e-05
-2.49118e-14
1.91986e-05
7.19122e-14
1.98967e-05
2.05949e-05
1.9066e-15
4.53785e-06
-1.13123e-15
5.23599e-06
2.16622e-14
5.93412e-06
-9.6241e-15
6.63225e-06
-1.51375e-14
7.33038e-06
1.4065e-14
8.02851e-06
-8.09323e-15
8.72664e-06
2.69588e-14
9.42478e-06
1.96491e-15
1.01229e-05
-2.97184e-14
1.0821e-05
1.17453e-14
1.15192e-05
-1.98668e-14
1.22173e-05
2.74455e-14
1.29154e-05
2.06159e-14
1.36136e-05
-1.6043e-14
1.43117e-05
4.61299e-15
1.50098e-05
-4.69129e-15
1.5708e-05
-4.79678e-14
1.64061e-05
1.37372e-14
1.71042e-05
-3.23729e-14
1.78024e-05
3.51841e-14
1.85005e-05
2.49036e-14
1.91986e-05
-7.19182e-14
1.98967e-05
2.05949e-05
6.1976e-15
4.53785e-06
-2.86759e-17
5.23599e-06
-1.15118e-14
5.93412e-06
2.0626e-14
6.63225e-06
-5.36724e-15
7.33038e-06
-1.22134e-15
8.02851e-06
4.63194e-17
8.72664e-06
-1.23938e-14
9.42478e-06
1.32261e-14
1.01229e-05
1.88932e-14
1.0821e-05
4.96327e-15
1.15192e-05
7.15387e-15
1.22173e-05
1.48862e-14
1.29154e-05
-3.53395e-14
1.36136e-05
-6.77141e-19
1.43117e-05
4.3136e-14
1.50098e-05
-1.35613e-14
1.5708e-05
2.82569e-14
1.64061e-05
-2.45981e-15
1.71042e-05
1.02372e-14
1.78024e-05
-2.3809e-14
1.85005e-05
-1.38776e-14
1.91986e-05
4.55588e-14
1.98967e-05
2.05949e-05
-5.17028e-15
4.53785e-06
7.45558e-15
5.23599e-06
7.56599e-16
5.93412e-06
-6.83992e-15
6.63225e-06
9.97404e-15
7.33038e-06
1.66441e-15
8.02851e-06
-9.21962e-15
8.72664e-06
1.34581e-14
9.42478e-06
-2.3221e-14
1.01229e-05
-1.04715e-14
1.0821e-05
1.72727e-14
1.15192e-05
3.0264e-15
1.22173e-05
-1.13984e-14
1.29154e-05
1.98145e-14
1.36136e-05
4.67809e-15
1.43117e-05
-5.03098e-14
1.50098e-05
2.40452e-14
1.5708e-05
6.65762e-15
1.64061e-05
-1.42612e-14
1.71042e-05
-1.65281e-15
1.78024e-05
6.80394e-15
1.85005e-05
-1.44433e-14
1.91986e-05
-5.07584e-14
1.98967e-05
2.05949e-05
1.49878e-15
4.53785e-06
-1.08969e-14
5.23599e-06
6.59956e-15
5.93412e-06
-7.26559e-15
6.63225e-06
-6.17564e-15
7.33038e-06
-2.48904e-15
8.02851e-06
9.63876e-16
8.72664e-06
4.3651e-15
9.42478e-06
8.9013e-15
1.01229e-05
-1.38617e-14
1.0821e-05
-1.06907e-14
1.15192e-05
-6.25116e-15
1.22173e-05
1.26023e-16
1.29154e-05
3.43665e-15
1.36136e-05
1.1046e-14
1.43117e-05
1.77644e-14
1.50098e-05
-1.76811e-14
1.5708e-05
-9.95615e-15
1.64061e-05
-3.3308e-15
1.71042e-05
3.29653e-14
1.78024e-05
1.04201e-14
1.85005e-05
-3.00714e-14
1.91986e-05
5.99906e-14
1.98967e-05
2.05949e-05
-6.21572e-15
4.53785e-06
3.87953e-15
5.23599e-06
-1.54221e-14
5.93412e-06
7.06475e-15
6.63225e-06
2.21003e-15
7.33038e-06
-1.42999e-15
8.02851e-06
5.49267e-15
8.72664e-06
-1.32261e-14
9.42478e-06
-6.04614e-15
1.01229e-05
1.7451e-14
1.0821e-05
-2.08863e-14
1.15192e-05
2.14454e-14
1.22173e-05
-1.91361e-14
1.29154e-05
7.31496e-15
1.36136e-05
-3.84866e-14
1.43117e-05
1.29221e-14
1.50098e-05
1.88239e-15
1.5708e-05
-5.71997e-15
1.64061e-05
7.58499e-15
1.71042e-05
-2.7663e-14
1.78024e-05
-1.40966e-14
1.85005e-05
5.31375e-14
1.91986e-05
-3.90883e-14
1.98967e-05
2.05949e-05
8.92517e-15
4.53785e-06
2.28887e-15
5.23599e-06
2.2234e-15
5.93412e-06
-6.61688e-15
6.63225e-06
3.3881e-15
7.33038e-06
3.9067e-15
8.02851e-06
6.41854e-15
8.72664e-06
7.15851e-15
9.42478e-06
-6.81011e-15
1.01229e-05
-6.98293e-15
1.0821e-05
9.06469e-15
1.15192e-05
-6.7595e-15
1.22173e-05
2.88888e-14
1.29154e-05
1.22341e-14
1.36136e-05
-4.80687e-15
1.43117e-05
-2.50285e-14
1.50098e-05
-3.86017e-15
1.5708e-05
-3.61062e-15
1.64061e-05
2.04835e-14
1.71042e-05
2.17588e-14
1.78024e-05
-3.46869e-15
1.85005e-05
-2.90382e-14
1.91986e-05
1.66003e-15
1.98967e-05
2.05949e-05
4.63061e-15
4.53785e-06
-5.79763e-15
5.23599e-06
1.61504e-14
5.93412e-06
5.97411e-15
6.63225e-06
8.55452e-15
7.33038e-06
-4.22422e-15
8.02851e-06
8.1861e-15
8.72664e-06
-6.99896e-15
9.42478e-06
2.42302e-14
1.01229e-05
7.76833e-15
1.0821e-05
2.27643e-14
1.15192e-05
-8.34955e-15
1.22173e-05
7.40243e-15
1.29154e-05
-2.82664e-14
1.36136e-05
4.57079e-14
1.43117e-05
8.2187e-15
1.50098e-05
2.82253e-14
1.5708e-05
2.33733e-15
1.64061e-05
6.94273e-15
1.71042e-05
-2.21506e-14
1.78024e-05
3.41112e-14
1.85005e-05
3.73869e-15
1.91986e-05
3.23428e-14
1.98967e-05
2.05949e-05
-6.71516e-15
4.53785e-06
7.30664e-15
5.23599e-06
-1.11006e-14
5.93412e-06
4.24049e-15
6.63225e-06
-1.51027e-14
7.33038e-06
5.20912e-15
8.02851e-06
-1.70135e-14
8.72664e-06
3.94136e-15
9.42478e-06
2.9423e-16
1.01229e-05
-6.61083e-15
1.0821e-05
-1.37055e-14
1.15192e-05
-1.01861e-14
1.22173e-05
-1.82171e-14
1.29154e-05
-1.43692e-14
1.36136e-05
-2.33427e-14
1.43117e-05
2.53444e-14
1.50098e-05
-2.90726e-14
1.5708e-05
7.82399e-15
1.64061e-05
-3.54186e-14
1.71042e-05
4.51059e-15
1.78024e-05
-4.23686e-14
1.85005e-05
5.84203e-16
1.91986e-05
8.72802e-15
1.98967e-05
2.05949e-05
-5.986e-15
4.53785e-06
-2.18961e-16
5.23599e-06
6.43577e-15
5.93412e-06
-6.06453e-15
6.63225e-06
2.09219e-15
7.33038e-06
-1.61765e-14
8.02851e-06
1.88307e-14
8.72664e-06
2.3506e-15
9.42478e-06
-9.17363e-15
1.01229e-05
4.70952e-15
1.0821e-05
-2.16282e-14
1.15192e-05
2.96439e-14
1.22173e-05
9.28837e-15
1.29154e-05
1.89077e-14
1.36136e-05
-4.46763e-15
1.43117e-05
-3.01535e-14
1.50098e-05
2.62194e-14
1.5708e-05
-4.38021e-16
1.64061e-05
2.11709e-14
1.71042e-05
-1.87188e-14
1.78024e-05
3.92267e-15
1.85005e-05
2.91543e-14
1.91986e-05
-1.52326e-14
1.98967e-05
2.05949e-05
8.67629e-15
4.53785e-06
-1.22925e-14
5.23599e-06
-1.88339e-15
5.93412e-06
-8.90202e-15
6.63225e-06
5.10832e-15
7.33038e-06
2.19911e-14
8.02851e-06
-1.22654e-14
8.72664e-06
5.37414e-15
9.42478e-06
-4.45715e-15
1.01229e-05
1.43048e-14
1.0821e-05
7.3263e-15
1.15192e-05
-7.042e-15
1.22173e-05
-2.39964e-14
1.29154e-05
7.55631e-15
1.36136e-05
-9.80108e-15
1.43117e-05
1.62388e-14
1.50098e-05
-4.02952e-14
1.5708e-05
-1.44442e-14
1.64061e-05
1.37047e-14
1.71042e-05
7.89733e-15
1.78024e-05
3.92505e-14
1.85005e-05
-4.27568e-14
1.91986e-05
8.84705e-15
1.98967e-05
2.05949e-05
-9.39888e-15
4.53785e-06
-5.20632e-16
5.23599e-06
-7.52865e-15
5.93412e-06
4.41116e-15
6.63225e-06
-3.78365e-15
7.33038e-06
-1.33855e-14
8.02851e-06
2.10891e-15
8.72664e-06
-8.52897e-15
9.42478e-06
1.0027e-14
1.01229e-05
-1.86706e-15
1.0821e-05
2.02008e-14
1.15192e-05
7.01149e-15
1.22173e-05
-7.51119e-15
1.29154e-05
-2.36112e-14
1.36136e-05
2.04219e-15
1.43117e-05
-1.48355e-14
1.50098e-05
1.3882e-14
1.5708e-05
-2.39093e-15
1.64061e-05
-2.04106e-14
1.71042e-05
7.01655e-15
1.78024e-05
-1.20686e-14
1.85005e-05
2.59332e-14
1.91986e-05
-1.84524e-15
1.98967e-05
2.05949e-05
1.13361e-14
4.53785e-06
4.81119e-16
5.23599e-06
5.35726e-15
5.93412e-06
1.13025e-14
6.63225e-06
-4.8697e-15
7.33038e-06
1.10892e-15
8.02851e-06
8.15747e-15
8.72664e-06
-1.30456e-14
9.42478e-06
-5.95114e-15
1.01229e-05
1.99436e-15
1.0821e-05
-2.43882e-14
1.15192e-05
-1.61904e-14
1.22173e-05
3.27858e-14
1.29154e-05
3.0513e-15
1.36136e-05
1.44432e-14
1.43117e-05
2.69024e-14
1.50098e-05
-7.73862e-15
1.5708e-05
4.43567e-15
1.64061e-05
1.79997e-14
1.71042e-05
-2.18261e-14
1.78024e-05
-8.21477e-15
1.85005e-05
6.07957e-15
1.91986e-05
-3.89229e-14
1.98967e-05
2.05949e-05
1.36932e-16
9.81747e-07
2.42067e-16
1.37445e-06
3.76898e-16
1.76715e-06
-1.33934e-15
2.15984e-06
-3.68173e-15
2.55254e-06
2.94524e-06
5.95132e-15
1.8316e-18
9.81747e-07
-3.88803e-16
1.37445e-06
-2.60422e-15
1.76715e-06
1.94358e-15
2.15984e-06
8.06612e-15
2.55254e-06
2.94524e-06
-9.02985e-15
-1.16471e-16
9.81747e-07
1.86352e-16
1.37445e-06
-1.56234e-15
1.76715e-06
-4.21259e-15
2.15984e-06
-7.49861e-15
2.55254e-06
2.94524e-06
7.72334e-16
8.69222e-17
9.81747e-07
-1.01968e-16
1.37445e-06
2.69316e-15
1.76715e-06
7.44277e-15
2.15984e-06
3.2597e-15
2.55254e-06
2.94524e-06
-2.79806e-15
-4.83921e-17
9.81747e-07
3.94989e-17
1.37445e-06
1.94279e-16
1.76715e-06
-1.80622e-15
2.15984e-06
-4.20857e-15
2.55254e-06
2.94524e-06
5.01331e-15
-1.8012e-16
9.81747e-07
4.28453e-18
1.37445e-06
-1.84784e-15
1.76715e-06
-3.88618e-15
2.15984e-06
3.15704e-15
2.55254e-06
2.94524e-06
4.98092e-16
2.53941e-16
9.81747e-07
2.55418e-16
1.37445e-06
2.06594e-15
1.76715e-06
4.5041e-15
2.15984e-06
-2.30993e-15
2.55254e-06
2.94524e-06
5.40777e-16
2.16435e-17
9.81747e-07
-3.21683e-16
1.37445e-06
-1.14892e-15
1.76715e-06
-5.28568e-15
2.15984e-06
-3.76738e-16
2.55254e-06
2.94524e-06
-5.64004e-15
-1.43419e-16
9.81747e-07
1.6639e-16
1.37445e-06
4.19107e-15
1.76715e-06
6.34939e-15
2.15984e-06
-8.05703e-16
2.55254e-06
2.94524e-06
8.39274e-16
-6.88181e-17
9.81747e-07
-9.20475e-17
1.37445e-06
-2.76942e-15
1.76715e-06
-3.68828e-16
2.15984e-06
-1.45083e-15
2.55254e-06
2.94524e-06
-1.7669e-16
1.66319e-16
9.81747e-07
-8.86776e-17
1.37445e-06
5.69623e-16
1.76715e-06
-2.10357e-15
2.15984e-06
9.65988e-15
2.55254e-06
2.94524e-06
5.29008e-15
-1.7779e-16
9.81747e-07
-2.05076e-17
1.37445e-06
-3.4552e-16
1.76715e-06
-4.17265e-15
2.15984e-06
-2.62243e-15
2.55254e-06
2.94524e-06
5.36942e-15
1.77779e-16
9.81747e-07
2.04815e-17
1.37445e-06
3.45292e-16
1.76715e-06
4.17266e-15
2.15984e-06
2.62233e-15
2.55254e-06
2.94524e-06
-5.36961e-15
-1.66343e-16
9.81747e-07
8.86868e-17
1.37445e-06
-5.69771e-16
1.76715e-06
2.10347e-15
2.15984e-06
-9.65995e-15
2.55254e-06
2.94524e-06
-5.29031e-15
6.88008e-17
9.81747e-07
9.20645e-17
1.37445e-06
2.76938e-15
1.76715e-06
3.68772e-16
2.15984e-06
1.45075e-15
2.55254e-06
2.94524e-06
1.76551e-16
1.43397e-16
9.81747e-07
-1.66402e-16
1.37445e-06
-4.19115e-15
1.76715e-06
-6.34947e-15
2.15984e-06
8.0571e-16
2.55254e-06
2.94524e-06
-8.3931e-16
-2.16915e-17
9.81747e-07
3.2165e-16
1.37445e-06
1.1488e-15
1.76715e-06
5.28565e-15
2.15984e-06
3.76709e-16
2.55254e-06
2.94524e-06
5.63986e-15
-2.53994e-16
9.81747e-07
-2.55425e-16
1.37445e-06
-2.06596e-15
1.76715e-06
-4.50405e-15
2.15984e-06
2.31004e-15
2.55254e-06
2.94524e-06
-5.41034e-16
1.80116e-16
9.81747e-07
-4.30785e-18
1.37445e-06
1.84774e-15
1.76715e-06
3.88625e-15
2.15984e-06
-3.15717e-15
2.55254e-06
2.94524e-06
-4.98146e-16
4.83844e-17
9.81747e-07
-3.94618e-17
1.37445e-06
-1.94355e-16
1.76715e-06
1.80605e-15
2.15984e-06
4.20842e-15
2.55254e-06
2.94524e-06
-5.01343e-15
-8.69549e-17
9.81747e-07
1.01915e-16
1.37445e-06
-2.69321e-15
1.76715e-06
-7.44283e-15
2.15984e-06
-3.25992e-15
2.55254e-06
2.94524e-06
2.79801e-15
1.16475e-16
9.81747e-07
-1.86411e-16
1.37445e-06
1.56231e-15
1.76715e-06
4.21243e-15
2.15984e-06
7.49837e-15
2.55254e-06
2.94524e-06
-7.72218e-16
-1.85484e-18
9.81747e-07
3.88797e-16
1.37445e-06
2.60409e-15
1.76715e-06
-1.94365e-15
2.15984e-06
-8.06627e-15
2.55254e-06
2.94524e-06
9.02961e-15
-1.36957e-16
-2.42083e-16
-3.77064e-16
1.33937e-15
3.68146e-15
-5.95135e-15
-1.13361e-14
4.53785e-06
-4.81045e-16
5.23599e-06
-5.35735e-15
5.93412e-06
-1.13042e-14
6.63225e-06
4.86852e-15
7.33038e-06
-1.10979e-15
8.02851e-06
-8.15918e-15
8.72664e-06
1.30435e-14
9.42478e-06
5.94776e-15
1.01229e-05
-1.99728e-15
1.0821e-05
2.43873e-14
1.15192e-05
1.61884e-14
1.22173e-05
-3.27871e-14
1.29154e-05
-3.05375e-15
1.36136e-05
-1.44408e-14
1.43117e-05
-2.69021e-14
1.50098e-05
7.73899e-15
1.5708e-05
-4.43914e-15
1.64061e-05
-1.80021e-14
1.71042e-05
2.18158e-14
1.78024e-05
8.2097e-15
1.85005e-05
-6.08704e-15
1.91986e-05
3.89169e-14
1.98967e-05
2.05949e-05
9.39881e-15
4.53785e-06
5.20267e-16
5.23599e-06
7.52807e-15
5.93412e-06
-4.41215e-15
6.63225e-06
3.78242e-15
7.33038e-06
1.33837e-14
8.02851e-06
-2.10896e-15
8.72664e-06
8.52941e-15
9.42478e-06
-1.00277e-14
1.01229e-05
1.86434e-15
1.0821e-05
-2.02023e-14
1.15192e-05
-7.01511e-15
1.22173e-05
7.51113e-15
1.29154e-05
2.36067e-14
1.36136e-05
-2.04309e-15
1.43117e-05
1.48306e-14
1.50098e-05
-1.38809e-14
1.5708e-05
2.39258e-15
1.64061e-05
2.04087e-14
1.71042e-05
-7.01946e-15
1.78024e-05
1.20625e-14
1.85005e-05
-2.59448e-14
1.91986e-05
1.85106e-15
1.98967e-05
2.05949e-05
-8.67617e-15
4.53785e-06
1.22922e-14
5.23599e-06
1.88296e-15
5.93412e-06
8.90285e-15
6.63225e-06
-5.10868e-15
7.33038e-06
-2.19911e-14
8.02851e-06
1.22651e-14
8.72664e-06
-5.37461e-15
9.42478e-06
4.45575e-15
1.01229e-05
-1.43053e-14
1.0821e-05
-7.32711e-15
1.15192e-05
7.03981e-15
1.22173e-05
2.39951e-14
1.29154e-05
-7.55526e-15
1.36136e-05
9.79957e-15
1.43117e-05
-1.62366e-14
1.50098e-05
4.02937e-14
1.5708e-05
1.44442e-14
1.64061e-05
-1.37027e-14
1.71042e-05
-7.89781e-15
1.78024e-05
-3.92484e-14
1.85005e-05
4.27481e-14
1.91986e-05
-8.8504e-15
1.98967e-05
2.05949e-05
5.986e-15
4.53785e-06
2.18505e-16
5.23599e-06
-6.43575e-15
5.93412e-06
6.06411e-15
6.63225e-06
-2.09245e-15
7.33038e-06
1.61769e-14
8.02851e-06
-1.88307e-14
8.72664e-06
-2.35061e-15
9.42478e-06
9.17172e-15
1.01229e-05
-4.71073e-15
1.0821e-05
2.16279e-14
1.15192e-05
-2.96452e-14
1.22173e-05
-9.29051e-15
1.29154e-05
-1.89054e-14
1.36136e-05
4.46482e-15
1.43117e-05
3.0155e-14
1.50098e-05
-2.62168e-14
1.5708e-05
4.34213e-16
1.64061e-05
-2.11704e-14
1.71042e-05
1.87124e-14
1.78024e-05
-3.92145e-15
1.85005e-05
-2.91563e-14
1.91986e-05
1.52283e-14
1.98967e-05
2.05949e-05
6.71483e-15
4.53785e-06
-7.30698e-15
5.23599e-06
1.11011e-14
5.93412e-06
-4.2414e-15
6.63225e-06
1.51021e-14
7.33038e-06
-5.20923e-15
8.02851e-06
1.70127e-14
8.72664e-06
-3.94092e-15
9.42478e-06
-2.94218e-16
1.01229e-05
6.61092e-15
1.0821e-05
1.37056e-14
1.15192e-05
1.01844e-14
1.22173e-05
1.82187e-14
1.29154e-05
1.43668e-14
1.36136e-05
2.334e-14
1.43117e-05
-2.53434e-14
1.50098e-05
2.90722e-14
1.5708e-05
-7.82791e-15
1.64061e-05
3.54157e-14
1.71042e-05
-4.5139e-15
1.78024e-05
4.23724e-14
1.85005e-05
-5.83272e-16
1.91986e-05
-8.73361e-15
1.98967e-05
2.05949e-05
-4.63083e-15
4.53785e-06
5.79745e-15
5.23599e-06
-1.61505e-14
5.93412e-06
-5.97451e-15
6.63225e-06
-8.55546e-15
7.33038e-06
4.22282e-15
8.02851e-06
-8.18752e-15
8.72664e-06
6.99959e-15
9.42478e-06
-2.42308e-14
1.01229e-05
-7.76907e-15
1.0821e-05
-2.27662e-14
1.15192e-05
8.34828e-15
1.22173e-05
-7.40437e-15
1.29154e-05
2.82654e-14
1.36136e-05
-4.57115e-14
1.43117e-05
-8.22252e-15
1.50098e-05
-2.82283e-14
1.5708e-05
-2.33892e-15
1.64061e-05
-6.94321e-15
1.71042e-05
2.2148e-14
1.78024e-05
-3.41074e-14
1.85005e-05
-3.74024e-15
1.91986e-05
-3.23486e-14
1.98967e-05
2.05949e-05
-8.92515e-15
4.53785e-06
-2.28906e-15
5.23599e-06
-2.22422e-15
5.93412e-06
6.61674e-15
6.63225e-06
-3.38838e-15
7.33038e-06
-3.90673e-15
8.02851e-06
-6.41901e-15
8.72664e-06
-7.15833e-15
9.42478e-06
6.80974e-15
1.01229e-05
6.9836e-15
1.0821e-05
-9.06672e-15
1.15192e-05
6.75814e-15
1.22173e-05
-2.88889e-14
1.29154e-05
-1.2234e-14
1.36136e-05
4.80543e-15
1.43117e-05
2.50264e-14
1.50098e-05
3.86062e-15
1.5708e-05
3.6089e-15
1.64061e-05
-2.04842e-14
1.71042e-05
-2.17608e-14
1.78024e-05
3.46488e-15
1.85005e-05
2.90423e-14
1.91986e-05
-1.65904e-15
1.98967e-05
2.05949e-05
6.2157e-15
4.53785e-06
-3.87919e-15
5.23599e-06
1.54219e-14
5.93412e-06
-7.06479e-15
6.63225e-06
-2.21055e-15
7.33038e-06
1.42848e-15
8.02851e-06
-5.49346e-15
8.72664e-06
1.32267e-14
9.42478e-06
6.04673e-15
1.01229e-05
-1.745e-14
1.0821e-05
2.08872e-14
1.15192e-05
-2.14461e-14
1.22173e-05
1.91342e-14
1.29154e-05
-7.31444e-15
1.36136e-05
3.84866e-14
1.43117e-05
-1.29235e-14
1.50098e-05
-1.88444e-15
1.5708e-05
5.71392e-15
1.64061e-05
-7.58783e-15
1.71042e-05
2.76552e-14
1.78024e-05
1.40978e-14
1.85005e-05
-5.31382e-14
1.91986e-05
3.90883e-14
1.98967e-05
2.05949e-05
-1.49863e-15
4.53785e-06
1.0897e-14
5.23599e-06
-6.59929e-15
5.93412e-06
7.26597e-15
6.63225e-06
6.17462e-15
7.33038e-06
2.48844e-15
8.02851e-06
-9.65651e-16
8.72664e-06
-4.36499e-15
9.42478e-06
-8.90076e-15
1.01229e-05
1.38633e-14
1.0821e-05
1.06893e-14
1.15192e-05
6.24985e-15
1.22173e-05
-1.28397e-16
1.29154e-05
-3.4389e-15
1.36136e-05
-1.1043e-14
1.43117e-05
-1.77654e-14
1.50098e-05
1.76806e-14
1.5708e-05
9.95377e-15
1.64061e-05
3.32916e-15
1.71042e-05
-3.29713e-14
1.78024e-05
-1.04194e-14
1.85005e-05
3.00683e-14
1.91986e-05
-5.99941e-14
1.98967e-05
2.05949e-05
5.17031e-15
4.53785e-06
-7.4556e-15
5.23599e-06
-7.56468e-16
5.93412e-06
6.83993e-15
6.63225e-06
-9.97395e-15
7.33038e-06
-1.66424e-15
8.02851e-06
9.21803e-15
8.72664e-06
-1.34594e-14
9.42478e-06
2.32213e-14
1.01229e-05
1.04724e-14
1.0821e-05
-1.72725e-14
1.15192e-05
-3.02587e-15
1.22173e-05
1.13973e-14
1.29154e-05
-1.98167e-14
1.36136e-05
-4.67844e-15
1.43117e-05
5.03053e-14
1.50098e-05
-2.40452e-14
1.5708e-05
-6.65698e-15
1.64061e-05
1.42607e-14
1.71042e-05
1.64952e-15
1.78024e-05
-6.81026e-15
1.85005e-05
1.44449e-14
1.91986e-05
5.07579e-14
1.98967e-05
2.05949e-05
-6.19727e-15
4.53785e-06
2.86243e-17
5.23599e-06
1.15115e-14
5.93412e-06
-2.06263e-14
6.63225e-06
5.36749e-15
7.33038e-06
1.22213e-15
8.02851e-06
-4.75238e-17
8.72664e-06
1.23934e-14
9.42478e-06
-1.32267e-14
1.01229e-05
-1.88947e-14
1.0821e-05
-4.96458e-15
1.15192e-05
-7.15314e-15
1.22173e-05
-1.48866e-14
1.29154e-05
3.53394e-14
1.36136e-05
-1.50944e-18
1.43117e-05
-4.31364e-14
1.50098e-05
1.35615e-14
1.5708e-05
-2.82549e-14
1.64061e-05
2.4535e-15
1.71042e-05
-1.02413e-14
1.78024e-05
2.38006e-14
1.85005e-05
1.38732e-14
1.91986e-05
-4.55628e-14
1.98967e-05
2.05949e-05
-1.90665e-15
4.53785e-06
1.13051e-15
5.23599e-06
-2.16617e-14
5.93412e-06
9.62375e-15
6.63225e-06
1.51374e-14
7.33038e-06
-1.40651e-14
8.02851e-06
8.09351e-15
8.72664e-06
-2.69605e-14
9.42478e-06
-1.96585e-15
1.01229e-05
2.97169e-14
1.0821e-05
-1.17466e-14
1.15192e-05
1.98668e-14
1.22173e-05
-2.74466e-14
1.29154e-05
-2.06156e-14
1.36136e-05
1.60395e-14
1.43117e-05
-4.61318e-15
1.50098e-05
4.69041e-15
1.5708e-05
4.79672e-14
1.64061e-05
-1.37382e-14
1.71042e-05
3.2374e-14
1.78024e-05
-3.51859e-14
1.85005e-05
-2.49118e-14
1.91986e-05
7.19122e-14
1.98967e-05
2.05949e-05
1.9066e-15
4.53785e-06
-1.13123e-15
5.23599e-06
2.16622e-14
5.93412e-06
-9.6241e-15
6.63225e-06
-1.51375e-14
7.33038e-06
1.4065e-14
8.02851e-06
-8.09323e-15
8.72664e-06
2.69588e-14
9.42478e-06
1.96491e-15
1.01229e-05
-2.97184e-14
1.0821e-05
1.17453e-14
1.15192e-05
-1.98668e-14
1.22173e-05
2.74455e-14
1.29154e-05
2.06159e-14
1.36136e-05
-1.6043e-14
1.43117e-05
4.61299e-15
1.50098e-05
-4.69129e-15
1.5708e-05
-4.79678e-14
1.64061e-05
1.37372e-14
1.71042e-05
-3.23729e-14
1.78024e-05
3.51841e-14
1.85005e-05
2.49036e-14
1.91986e-05
-7.19182e-14
1.98967e-05
2.05949e-05
6.1976e-15
4.53785e-06
-2.86759e-17
5.23599e-06
-1.15118e-14
5.93412e-06
2.0626e-14
6.63225e-06
-5.36724e-15
7.33038e-06
-1.22134e-15
8.02851e-06
4.63194e-17
8.72664e-06
-1.23938e-14
9.42478e-06
1.32261e-14
1.01229e-05
1.88932e-14
1.0821e-05
4.96327e-15
1.15192e-05
7.15387e-15
1.22173e-05
1.48862e-14
1.29154e-05
-3.53395e-14
1.36136e-05
-6.77141e-19
1.43117e-05
4.3136e-14
1.50098e-05
-1.35613e-14
1.5708e-05
2.82569e-14
1.64061e-05
-2.45981e-15
1.71042e-05
1.02372e-14
1.78024e-05
-2.3809e-14
1.85005e-05
-1.38776e-14
1.91986e-05
4.55588e-14
1.98967e-05
2.05949e-05
-5.17028e-15
4.53785e-06
7.45558e-15
5.23599e-06
7.56599e-16
5.93412e-06
-6.83992e-15
6.63225e-06
9.97404e-15
7.33038e-06
1.66441e-15
8.02851e-06
-9.21962e-15
8.72664e-06
1.34581e-14
9.42478e-06
-2.3221e-14
1.01229e-05
-1.04715e-14
1.0821e-05
1.72727e-14
1.15192e-05
3.0264e-15
1.22173e-05
-1.13984e-14
1.29154e-05
1.98145e-14
1.36136e-05
4.67809e-15
1.43117e-05
-5.03098e-14
1.50098e-05
2.40452e-14