/*--------------------------------*- C++ -*----------------------------------*\
  =========                 |
  \\      /  F ield         | OpenFOAM: The Open Source CFD Toolbox
   \\    /   O peration     | Website:  https://openfoam.org
    \\  /    A nd           | Version:  11
     \\/     M anipulation  |
\*---------------------------------------------------------------------------*/
FoamFile
{
    format      ascii;
    class       volScalarField;
    location    "0.78";
    object      nut;
}
// * * * * * * * * * * * * * * * * * * * * * * * * * * * * * * * * * * * * * //

dimensions      [0 2 -1 0 0 0 0];

internalField   nonuniform List<scalar> 
2880
(
8.63739e-07
5.90528e-06
2.55367e-05
6.52839e-05
0.00014109
5.36133e-05
3.02343e-05
7.45093e-05
0.000159977
0.000278087
0.000446589
0.00050978
0.00017397
0.000151575
0.000289175
0.000469988
0.000717991
0.000965986
0.000189076
0.000207957
0.000386432
0.000614671
0.000925413
0.00128202
0.00019876
0.000245862
0.000457772
0.000727119
0.00108704
0.00149236
4.77411e-05
0.000270254
0.000510617
0.000816845
0.0012117
0.00164326
4.85949e-05
0.000290053
0.000550304
0.000886195
0.00130909
0.00175481
4.94358e-05
0.000306002
0.000580183
0.000938442
0.00138563
0.0018435
5.00898e-05
0.000318568
0.000601001
0.000976595
0.00144406
0.00191322
5.05139e-05
0.000327548
0.000612799
0.0010025
0.00148548
0.00196403
5.07106e-05
0.000332665
0.000615617
0.00101605
0.00151065
0.00199621
5.07126e-05
0.000333013
0.000609928
0.00101638
0.00151905
0.00201039
5.05861e-05
0.000327956
0.000595896
0.00100248
0.00150965
0.00200712
5.02286e-05
0.000317628
0.000573238
0.000973844
0.00148189
0.00198596
4.96289e-05
0.000302182
0.000541836
0.000928496
0.00143484
0.0019458
4.88333e-05
0.000281855
0.000501674
0.000869219
0.00136448
0.00188464
4.79847e-05
0.000257116
0.000454536
0.000794237
0.00127502
0.00179801
0.000200282
0.000228733
0.00039983
0.000704045
0.00116053
0.0016864
0.000194
0.000196723
0.000338254
0.000599994
0.00101874
0.00154125
0.000184478
0.000161188
0.00027047
0.00048449
0.000848468
0.00135454
0.000170426
0.000123754
0.000197221
0.000361151
0.000651888
0.00111627
0.000152935
8.30182e-05
0.000122296
0.000233328
0.000437894
0.000819353
2.64255e-05
3.61633e-05
5.16167e-05
0.000110225
0.000228204
0.00046321
7.12432e-07
1.82783e-06
7.13348e-06
3.03517e-05
7.74577e-05
0.000134596
0.000409304
0.00110818
0.00176593
0.00214651
0.00244906
0.00272632
0.00300777
0.00330401
0.00361517
0.0039368
0.00426256
0.00458467
0.00489339
0.00517651
0.00541931
0.00560547
0.00571863
0.00574421
0.00567079
0.0054904
0.00519713
0.00478405
0.00423751
0.00352581
0.00103478
0.00168853
0.00209013
0.00239434
0.00266238
0.00292744
0.0032058
0.00350103
0.00380981
0.00412601
0.00444221
0.0047496
0.00503746
0.00529279
0.00550079
0.0056461
0.00571475
0.00569608
0.00558397
0.00537665
0.00507482
0.00467847
0.00418386
0.0035739
0.0014549
0.00198782
0.00232145
0.00259723
0.00285405
0.00311638
0.00339444
0.00368833
0.00399308
0.00430165
0.00460584
0.00489598
0.00516049
0.00538587
0.00555756
0.00566166
0.00568702
0.00562722
0.00548134
0.00525311
0.00494829
0.00457164
0.00412583
0.00360206
0.00172934
0.00220225
0.00251321
0.00277801
0.00303179
0.00329431
0.00357216
0.00386349
0.00416238
0.00446118
0.00475096
0.00502125
0.00525972
0.0054526
0.00558593
0.00564762
0.00562979
0.00553043
0.00535373
0.00510839
0.00480427
0.00444963
0.00405157
0.00360695
0.00192623
0.00237942
0.00268005
0.00294172
0.00319615
0.00345978
0.00373685
0.00402432
0.00431567
0.00460269
0.00487579
0.00512372
0.00533357
0.00549152
0.00558455
0.00560282
0.00554206
0.00540495
0.00520069
0.00494252
0.00464362
0.00431449
0.00396462
0.00359385
0.00208329
0.00252618
0.00282528
0.0030889
0.00334614
0.00361119
0.00388683
0.00416929
0.00445161
0.00472508
0.00497944
0.00520278
0.00538175
0.00550278
0.00555414
0.00552867
0.00542612
0.00525413
0.00502685
0.00476147
0.00447335
0.00417368
0.00387224
0.00356963
0.00221722
0.0026463
0.00295097
0.00321975
0.00348095
0.00374743
0.00402103
0.00429751
0.00456955
0.00482795
0.00506186
0.00525877
0.00540513
0.00548785
0.00549692
0.00542831
0.00528629
0.00508365
0.00483927
0.00457337
0.00430202
0.00403542
0.00378164
0.0035403
0.00232547
0.00274534
0.00305891
0.00333444
0.00360016
0.00386796
0.00413903
0.00440877
0.00466951
0.00491163
0.00512373
0.00529287
0.00540543
0.00544917
0.00541616
0.00530609
0.0051282
0.00490062
0.00464636
0.00438732
0.00413847
0.00390726
0.00369864
0.00351032
0.00240943
0.00282716
0.00315028
0.0034332
0.00370371
0.00397276
0.00424096
0.00450336
0.00475205
0.004977
0.00516637
0.00530687
0.00538506
0.00538982
0.00531583
0.0051671
0.00495834
0.00471287
0.00445678
0.00421178
0.00398982
0.00379436
0.00362659
0.00348236
0.00247171
0.00289403
0.00322579
0.00351636
0.0037919
0.00406223
0.00432734
0.00458205
0.00481819
0.00502542
0.00519151
0.00530301
0.00534681
0.0053133
0.00520036
0.00501694
0.00478358
0.00452819
0.00427831
0.00405329
0.00386054
0.00369907
0.00356658
0.00345775
0.00251534
0.00294506
0.00328576
0.00358442
0.00386534
0.00413709
0.00439907
0.00464589
0.00486923
0.00505851
0.00520121
0.00528379
0.00529376
0.00522339
0.00507444
0.00486144
0.00461068
0.00435357
0.00411693
0.00391579
0.00375227
0.00362132
0.00351813
0.00343695
0.00254171
0.00298034
0.0033306
0.00363798
0.00392478
0.00419825
0.0044572
0.00469614
0.00490669
0.00507809
0.00519766
0.00525186
0.00522907
0.005124
0.0049429
0.0047063
0.00444581
0.0041945
0.00397628
0.00380055
0.00366432
0.00355956
0.00347997
0.00341997
0.00255147
0.00300014
0.00336075
0.00367769
0.00397109
0.00424674
0.00450295
0.0047342
0.00493218
0.00508607
0.00518308
0.00520988
0.00515598
0.00501905
0.00481046
0.00455684
0.00429397
0.00405453
0.00385765
0.00370673
0.00359461
0.00351153
0.00345056
0.00340657
0.00254481
0.00300469
0.00337659
0.00370413
0.00400509
0.00428363
0.00453754
0.00476146
0.00494729
0.0050843
0.00515968
0.00516046
0.00507764
0.00491238
0.00468155
0.00441753
0.00415869
0.00393523
0.00376042
0.00363218
0.00354048
0.00347486
0.00342837
0.00339637
0.00252156
0.00299407
0.00337826
0.0037177
0.00402754
0.00430992
0.00456217
0.00477929
0.00495359
0.00507457
0.00512954
0.00510611
0.00499712
0.00480761
0.00456008
0.00429179
0.00404189
0.00383646
0.00368272
0.00357418
0.00349919
0.00344737
0.00341204
0.00338893
0.00248121
0.0029681
0.00336553
0.00371844
0.00403898
0.00432655
0.00457798
0.00478894
0.00495248
0.00505851
0.00509463
0.00504924
0.00491731
0.00470803
0.00444926
0.00418187
0.00394404
0.00375686
0.00362205
0.00352997
0.00346831
0.00342716
0.00340028
0.00338374
0.00242292
0.00292631
0.00333753
0.00370574
0.00403966
0.00433431
0.00458597
0.00479155
0.00494523
0.0050376
0.00505677
0.00499209
0.00484089
0.00461652
0.00435148
0.00408884
0.0038645
0.0036944
0.0035758
0.00349703
0.00344578
0.00341279
0.00339188
0.00338026
0.00234565
0.00286794
0.00329244
0.0036779
0.0040293
0.00433387
0.00458705
0.00478807
0.0049329
0.00501314
0.00501758
0.00493673
0.00477031
0.00453547
0.00426838
0.00401294
0.00380202
0.0036469
0.00354155
0.00347324
0.00342995
0.00340256
0.00338647
0.00337808
0.00224738
0.00279187
0.00322667
0.00363109
0.00400674
0.00432585
0.004582
0.00477926
0.00491633
0.0049862
0.00497853
0.00488502
0.00470764
0.00446672
0.00420091
0.00395382
0.00375513
0.00361235
0.0035173
0.0034568
0.00341929
0.00339588
0.00338326
0.00337686
0.00212504
0.00269168
0.00313821
0.00357018
0.00397261
0.00431147
0.00457161
0.00476567
0.00489612
0.00495764
0.00494083
0.00483853
0.00465458
0.00441157
0.00414946
0.00391079
0.00372236
0.00358905
0.00350145
0.00344637
0.00341276
0.00339225
0.00338148
0.00337624
0.001972
0.00255785
0.00302912
0.00349988
0.00393419
0.00429316
0.00455671
0.00474764
0.00487262
0.00492806
0.00490545
0.00479851
0.00461234
0.00437081
0.00411399
0.00388299
0.00370245
0.0035757
0.00349293
0.00344108
0.0034096
0.00339092
0.00338107
0.00337616
0.00176801
0.00239162
0.00290629
0.00342876
0.00389878
0.00427329
0.00453777
0.00472518
0.00484593
0.00489785
0.00487308
0.0047658
0.00458167
0.00434476
0.00409421
0.00386967
0.00369443
0.00357135
0.00349086
0.0034406
0.00341007
0.00339163
0.00338162
0.00337636
0.00149283
0.00219965
0.00278561
0.00337003
0.00387381
0.00425333
0.00451466
0.00469794
0.00481593
0.00486718
0.00484413
0.00474088
0.00456276
0.00433344
0.00408976
0.00387028
0.00369778
0.0035757
0.00349521
0.0034444
0.00341313
0.00339426
0.00338318
0.00337691
0.00116377
0.0020088
0.00269794
0.00334038
0.00386397
0.00423289
0.00448639
0.00466525
0.00478232
0.00483596
0.00481865
0.00472389
0.00455617
0.0043361
0.00410016
0.00388456
0.00371247
0.00358871
0.00350586
0.00345272
0.00341934
0.00339856
0.0033857
0.00337777
7.65071e-07
2.36135e-06
1.121e-05
3.02522e-05
6.15446e-05
0.000110363
2.83446e-05
2.59127e-05
5.1992e-05
9.10335e-05
0.000155079
0.000270118
0.000165315
7.20776e-05
0.000120006
0.000189926
0.000300208
0.000537324
0.000183177
0.000122882
0.00019178
0.000301781
0.00048347
0.000822329
4.73289e-05
0.000170545
0.000264116
0.000425691
0.00067778
0.00106916
5.08522e-05
0.000214364
0.000336834
0.000552079
0.000856693
0.00126751
5.3649e-05
0.000255718
0.00040853
0.000669657
0.00100661
0.00141657
5.58166e-05
0.000292809
0.00047692
0.000771814
0.00112391
0.001528
5.7455e-05
0.000324814
0.000539529
0.000856188
0.00121836
0.0015915
5.86413e-05
0.000351222
0.000594235
0.000923868
0.00127895
0.00162577
5.94292e-05
0.000371517
0.000640028
0.00097213
0.00131665
0.00163893
5.98527e-05
0.000385023
0.000673363
0.00100403
0.00133532
0.00163566
5.99412e-05
0.000390872
0.000693987
0.00102069
0.00133794
0.00161954
5.98732e-05
0.000387537
0.000701408
0.00102249
0.00132643
0.00159302
5.97048e-05
0.000375043
0.000695607
0.00101002
0.00130241
0.00155631
5.93609e-05
0.000355166
0.000676861
0.00098362
0.00126667
0.00150895
5.87547e-05
0.000328975
0.000645624
0.00094317
0.00121804
0.00145394
5.7776e-05
0.000298181
0.000602349
0.000888
0.00115492
0.00138951
5.62443e-05
0.000264287
0.00055036
0.000816552
0.00107386
0.00131179
5.37901e-05
0.000228341
0.000485307
0.000726898
0.00096868
0.00120899
4.96088e-05
0.000188652
0.000405193
0.000616181
0.000830249
0.00106346
0.000197828
0.000146788
0.000302783
0.00046761
0.000648905
0.000859356
3.55049e-05
7.86283e-05
0.000168005
0.000269346
0.000394761
0.000588504
1.12934e-06
5.95775e-06
2.2914e-05
5.42899e-05
0.000102042
0.000198514
0.00102252
0.00192203
0.00268778
0.00335146
0.00386454
0.00420869
0.00445118
0.00462621
0.00474471
0.00480426
0.00479614
0.00471378
0.00455976
0.00435257
0.00412506
0.00391246
0.00373874
0.00361087
0.00352336
0.00346596
0.00342892
0.00340497
0.00338937
0.00337913
0.00111499
0.00197535
0.0027502
0.00339155
0.00385692
0.0041755
0.00440705
0.00457999
0.00470247
0.00477086
0.00477594
0.00470982
0.00457318
0.00438139
0.00416377
0.003954
0.00377717
0.00364302
0.00354855
0.00348484
0.00344245
0.00341396
0.00339457
0.00338122
0.00128969
0.0020991
0.00284109
0.00342597
0.00383585
0.00413029
0.00435277
0.00452605
0.00465525
0.00473548
0.00475686
0.00471039
0.00459452
0.00442102
0.00421533
0.0040091
0.00382845
0.00368625
0.00358262
0.00351044
0.0034608
0.00342624
0.00340183
0.00338435
0.00148838
0.00224086
0.00292251
0.00343145
0.0037982
0.00407093
0.00428797
0.00446428
0.00460263
0.00469712
0.00473738
0.0047134
0.00462139
0.00446932
0.00427832
0.00407739
0.00389321
0.00374186
0.00362707
0.00354419
0.00348522
0.00344274
0.00341159
0.00338871
0.00167652
0.00236368
0.00296526
0.00341094
0.00373959
0.00399844
0.00421311
0.0043948
0.00454417
0.00465466
0.00471566
0.00471639
0.00465097
0.00452357
0.00435072
0.004158
0.00397187
0.0038112
0.00368372
0.00358788
0.00351718
0.00346449
0.00342454
0.00339453
0.00181847
0.00243738
0.00297134
0.00336131
0.00366431
0.00391377
0.00412901
0.00431779
0.00447935
0.00460685
0.0046897
0.00471666
0.00468006
0.0045805
0.00442973
0.00424927
0.00406419
0.00389538
0.00375446
0.00364359
0.00355846
0.00349281
0.00344177
0.00340246
0.00193202
0.0024847
0.00293961
0.00329043
0.00357497
0.00381888
0.00403658
0.00423334
0.00440754
0.00455235
0.00465746
0.00471145
0.00470524
0.00463628
0.00451167
0.00434832
0.00416874
0.00399455
0.00384071
0.00371334
0.00361114
0.00352949
0.00346443
0.00341297
0.00199885
0.00248488
0.00288307
0.00320385
0.00347482
0.00371544
0.00393647
0.00414138
0.00432805
0.00448987
0.00461696
0.00469802
0.00472301
0.00468673
0.00459204
0.00445097
0.00428247
0.00410735
0.00394277
0.00379865
0.00367723
0.00357635
0.00349373
0.0034264
0.00202762
0.00245413
0.00280901
0.00310609
0.00336634
0.00360463
0.00382898
0.00404163
0.0042401
0.0044181
0.00456635
0.00467383
0.00472997
0.00472757
0.00466577
0.0045519
0.00440058
0.00423043
0.00405926
0.00389987
0.00375813
0.00363506
0.00353082
0.003443
0.00202676
0.0024034
0.00272349
0.0030006
0.00325127
0.00348712
0.00371415
0.00393362
0.00414284
0.00433585
0.00450394
0.0046366
0.00472306
0.00475468
0.00472766
0.004645
0.00451681
0.00435834
0.0041864
0.00401529
0.0038539
0.00370654
0.00357658
0.00346284
0.00200409
0.00234032
0.00263096
0.00288984
0.00313082
0.00336329
0.0035918
0.0038168
0.00403541
0.00424195
0.00442827
0.00458439
0.00469963
0.00476446
0.0047728
0.00472404
0.00462392
0.00448372
0.00431786
0.00414048
0.0039622
0.00379017
0.00363107
0.00348554
0.00196784
0.00227028
0.00253468
0.0027757
0.00300592
0.00323341
0.00346171
0.00369061
0.00391701
0.00413539
0.00433807
0.0045156
0.00465755
0.00475392
0.004797
0.00478327
0.0047146
0.00459819
0.00444519
0.00426807
0.00407766
0.00388273
0.00369264
0.00350989
0.00192329
0.00219696
0.00243711
0.00265982
0.00287754
0.0030979
0.00332383
0.00355463
0.00378693
0.00401525
0.00423225
0.00442894
0.0045952
0.00472083
0.00479699
0.00481794
0.0047823
0.00469345
0.00455891
0.00438849
0.00419182
0.00397779
0.00375707
0.00353317
0.00187352
0.00212287
0.00234027
0.00254383
0.00274694
0.00295752
0.00317845
0.00340874
0.00364472
0.00388085
0.00410998
0.00432345
0.00451144
0.00466366
0.00477055
0.00482465
0.00482192
0.00476241
0.00465006
0.00449152
0.00429423
0.00406597
0.00381702
0.0035505
0.00182008
0.00204958
0.0022458
0.00242951
0.00261575
0.00281358
0.00302642
0.00325328
0.00349032
0.00373184
0.0039707
0.00419846
0.00440551
0.00458154
0.00471642
0.00480139
0.00483024
0.0048001
0.00471161
0.00456815
0.00437448
0.00413641
0.00386252
0.00355433
0.00176243
0.00197795
0.00215495
0.00231862
0.00248604
0.00266805
0.00286928
0.0030893
0.00332427
0.00356833
0.00381428
0.00405372
0.00427713
0.00447417
0.00463424
0.0047475
0.0048059
0.00480402
0.00473945
0.00461234
0.00442451
0.00417931
0.00388281
0.00353495
0.00169498
0.00190872
0.00206819
0.00221262
0.00236009
0.0025235
0.00270945
0.0029187
0.00314789
0.00339116
0.00364116
0.00388944
0.0041265
0.00434184
0.00452448
0.00466358
0.00474945
0.00477435
0.00473295
0.00462222
0.00444076
0.00418886
0.00386932
0.00348199
0.00161566
0.00183837
0.00198418
0.00211205
0.00223994
0.0023829
0.00255012
0.00274442
0.00296357
0.00320207
0.00345258
0.00370657
0.00395443
0.00418554
0.00438846
0.00455147
0.00466335
0.00471412
0.00469559
0.00460133
0.00442626
0.00416648
0.0038197
0.00338728
0.00152551
0.00175636
0.00189896
0.00201579
0.00212674
0.00224909
0.00239505
0.00257035
0.0027748
0.00300396
0.00325083
0.00350691
0.00376255
0.00400699
0.00422845
0.00441444
0.00455233
0.00463002
0.00463639
0.00456133
0.00439512
0.00412753
0.00374639
0.0032505
0.00142666
0.00164952
0.00180815
0.00192104
0.00202013
0.00212404
0.00224793
0.00240104
0.00258621
0.00280098
0.00303937
0.00329331
0.0035533
0.00380866
0.00404751
0.00425692
0.00442334
0.00453303
0.0045724
0.00452782
0.0043847
0.00412495
0.00371801
0.00310741
0.00130766
0.00151433
0.00170446
0.00182293
0.00191777
0.00200813
0.00211162
0.0022411
0.00240318
0.00259847
0.00282298
0.00306975
0.00332995
0.00359337
0.00384856
0.00408296
0.00428322
0.00443564
0.00452653
0.00454252
0.00447299
0.0043218
0.00413607
0.0040287
0.00113468
0.00134732
0.00157893
0.00171551
0.00181562
0.00189975
0.00198731
0.00209425
0.00223116
0.00240257
0.00260758
0.00284134
0.00309643
0.00336376
0.00363305
0.00389316
0.00413268
0.00434051
0.00450627
0.00462034
0.00467564
0.00467583
0.00464967
0.00465191
0.000877952
0.00114718
0.00141244
0.00159665
0.00170981
0.00179577
0.00187404
0.00196237
0.00207463
0.00221945
0.00239989
0.00261431
0.00285763
0.00312268
0.00340107
0.00368396
0.00396278
0.00422946
0.00447568
0.00469112
0.00486366
0.0049839
0.00506401
0.00513274
0.000567135
0.000948825
0.00121098
0.00145149
0.00159744
0.00169258
0.00176915
0.00184505
0.00193608
0.00205423
0.00220673
0.00239587
0.00261995
0.00287455
0.00315396
0.00345237
0.00376453
0.00408506
0.00440549
0.00471078
0.00497869
0.00517722
0.00534807
0.00544638
8.57758e-07
4.50841e-06
1.49082e-05
3.35263e-05
5.61716e-05
0.000103491
3.0215e-05
6.7442e-05
0.00012308
0.000182168
0.000234084
0.000311622
0.00017176
0.000140114
0.000235918
0.000324998
0.000397776
0.000469786
0.000187957
0.000192357
0.000322103
0.000434192
0.000523578
0.000596411
0.00019961
0.00022661
0.000387041
0.000516718
0.000621134
0.000702091
4.8315e-05
0.000250155
0.000437175
0.000582179
0.000700612
0.000791932
5.0523e-05
0.000273459
0.000476175
0.000633903
0.000765222
0.00086876
5.21209e-05
0.000295037
0.000507228
0.000675452
0.000818734
0.00093392
5.32985e-05
0.000314138
0.000531525
0.000708719
0.000863371
0.000989589
5.41326e-05
0.00033017
0.000549291
0.000734541
0.00090054
0.00103806
5.46782e-05
0.000342186
0.000560313
0.000753114
0.000930946
0.00108053
5.49805e-05
0.000349176
0.000564244
0.000764216
0.000954541
0.00111727
5.50474e-05
0.000350102
0.000560742
0.000767315
0.000970724
0.00114788
5.4836e-05
0.000345664
0.000549161
0.000761615
0.000978399
0.00117138
5.42872e-05
0.000335686
0.000529586
0.000746093
0.000975978
0.00118618
5.33833e-05
0.000320046
0.000501317
0.000719107
0.000961326
0.00119002
5.21086e-05
0.000298536
0.00046412
0.000680022
0.000931771
0.00117979
5.0451e-05
0.000270961
0.000418089
0.000626598
0.000883707
0.00115116
4.83491e-05
0.000237163
0.000363659
0.000557806
0.000813481
0.00109727
0.000199778
0.000196874
0.000301564
0.000473263
0.000714997
0.00100637
0.000187058
0.000151072
0.0002326
0.000373407
0.000584534
0.000861872
0.000169487
9.98321e-05
0.000157393
0.00026204
0.000422596
0.0006426
2.94656e-05
4.32664e-05
7.66507e-05
0.000146447
0.000246742
0.000347565
8.0282e-07
3.27243e-06
1.52899e-05
5.2302e-05
0.00011669
0.000202146
0.00048377
0.000753928
0.00104126
0.00128152
0.00147215
0.00158468
0.00166787
0.00173923
0.00181515
0.00190976
0.00203373
0.00219345
0.00239121
0.0026262
0.00289608
0.00319869
0.00353265
0.00389545
0.00427813
0.00466003
0.00499603
0.00527287
0.0055018
0.00562328
0.000495782
0.000689172
0.000898842
0.00113021
0.00132913
0.00146716
0.00156444
0.00163948
0.00170821
0.0017854
0.00188378
0.00201312
0.00217965
0.00238657
0.00263545
0.00292817
0.00326775
0.00365547
0.00408325
0.00452631
0.00491931
0.00526072
0.00554055
0.00568418
0.000539275
0.000704576
0.000791923
0.000993456
0.00118172
0.00133623
0.00145176
0.00153805
0.00160834
0.00167647
0.00175569
0.00185772
0.0019919
0.00216516
0.00238298
0.00265137
0.00297797
0.00336904
0.00382011
0.00430592
0.00474682
0.00514013
0.00546793
0.00563532
0.00064308
0.000732003
0.000793282
0.000884406
0.00104662
0.00119899
0.00132763
0.00142821
0.00150714
0.00157502
0.0016438
0.00172538
0.00183072
0.00196936
0.00215003
0.0023823
0.00267812
0.00304943
0.00349839
0.00400419
0.00448128
0.00491889
0.00528228
0.00548246
0.000759572
0.000779153
0.000834243
0.000863284
0.000947708
0.00107165
0.00119796
0.0013085
0.00139869
0.00147297
0.00153996
0.00160999
0.0016938
0.00180195
0.00194501
0.00213486
0.00238651
0.00271713
0.0031374
0.0036362
0.00413454
0.00460251
0.00499193
0.00523103
0.000860888
0.000861693
0.000872097
0.000899421
0.000915176
0.000981617
0.00107785
0.00118316
0.00128039
0.00136367
0.00143551
0.00150275
0.0015743
0.00166003
0.00177068
0.00191872
0.0021203
0.00239571
0.00276361
0.00322601
0.00372602
0.00420572
0.00460941
0.00489052
0.000949768
0.000959157
0.000947752
0.000951634
0.000950393
0.00095394
0.000997457
0.00107103
0.00115932
0.00124633
0.00132483
0.00139546
0.00146343
0.00153639
0.00162369
0.00173677
0.00189075
0.00210605
0.00240596
0.00280462
0.00328219
0.00374755
0.00417062
0.00446814
0.00102709
0.00105844
0.00104299
0.00102296
0.00101263
0.000998641
0.000982596
0.00100442
0.00105787
0.00113126
0.00120962
0.00128434
0.00135417
0.00142275
0.00149671
0.00158518
0.00170067
0.00186101
0.00208967
0.00240958
0.00282708
0.00327146
0.00368701
0.00399182
0.00109433
0.0011481
0.00114487
0.00112203
0.00109037
0.00107018
0.00104328
0.00100474
0.00100875
0.00104514
0.00110493
0.00117469
0.00124512
0.00131345
0.00138189
0.00145614
0.00154522
0.00166272
0.00182842
0.00206696
0.0023982
0.00280302
0.00318996
0.00349345
0.00115604
0.00122527
0.00124199
0.00122598
0.00119551
0.00115661
0.00113051
0.00107919
0.00103223
0.00102206
0.00104102
0.00108563
0.001145
0.0012096
0.00127515
0.00134235
0.00141593
0.00150469
0.00162281
0.00179083
0.00203285
0.00236484
0.00271784
0.00300016
0.00121145
0.00129244
0.0013251
0.00132334
0.00129991
0.00126406
0.00122108
0.00118552
0.00112004
0.00107029
0.00104392
0.00104688
0.0010768
0.00112473
0.00118159
0.00124225
0.0013062
0.00137733
0.00146397
0.00158002
0.00174585
0.00198616
0.00229488
0.00254423
0.00126142
0.00135349
0.00139688
0.00140696
0.00139437
0.00136651
0.00132724
0.00128883
0.00124195
0.00116527
0.00111122
0.00107714
0.00106815
0.00108391
0.00111853
0.00116473
0.00121733
0.00127517
0.00134135
0.00142312
0.00153325
0.00169233
0.00193053
0.00215015
0.00130635
0.0014094
0.00146005
0.0014778
0.00147495
0.00145722
0.00142821
0.00139013
0.00135429
0.00129354
0.00121915
0.00116629
0.00112707
0.00110763
0.00110941
0.00112928
0.00116204
0.00120341
0.00125189
0.00130989
0.00138318
0.00148303
0.00163993
0.00182878
0.00134579
0.00145909
0.00151542
0.00153878
0.00154343
0.00153534
0.00151698
0.00148992
0.00145501
0.00141634
0.00135093
0.00128919
0.0012372
0.0011951
0.00116761
0.00115665
0.00116114
0.00117818
0.00120524
0.00124114
0.00128707
0.001347
0.00143626
0.0015848
0.00137872
0.00150253
0.00156399
0.00159179
0.00160292
0.00160356
0.0015957
0.00157964
0.0015557
0.00152552
0.00148585
0.0014265
0.00137583
0.00132771
0.00128528
0.00125192
0.00122973
0.00121917
0.0012196
0.00122998
0.00125
0.00127958
0.0013229
0.00142412
0.00140363
0.0015388
0.00160443
0.00163725
0.00165482
0.00166418
0.00166686
0.00166258
0.0016506
0.00163038
0.00160521
0.00157076
0.00152552
0.00148263
0.00143927
0.00139766
0.00136034
0.00132935
0.00130598
0.00129085
0.00128427
0.00128603
0.00129515
0.00135289
0.00141844
0.0015663
0.00163705
0.00167396
0.00169823
0.00171703
0.00173108
0.00173924
0.00174038
0.00173283
0.00171747
0.00169611
0.0016689
0.00163828
0.0016039
0.00156472
0.00152396
0.00148456
0.00144818
0.00141604
0.00138882
0.00136738
0.00135144
0.00137579
0.00142033
0.00158203
0.00165787
0.00169859
0.00172932
0.00175805
0.00178455
0.00180645
0.00182158
0.0018284
0.00182505
0.00181534
0.00179683
0.00177137
0.00174374
0.00171463
0.00168315
0.00164844
0.00161117
0.0015731
0.00153606
0.0015009
0.00147089
0.00147393
0.0014056
0.00158373
0.00166325
0.00170624
0.00174123
0.0017784
0.00181693
0.00185346
0.00188465
0.00190699
0.00191874
0.00192023
0.00191353
0.00189759
0.00187436
0.00184493
0.00181094
0.00177488
0.0017388
0.00170377
0.00167103
0.00164275
0.00162152
0.00162123
0.00137005
0.00156923
0.00164853
0.0016913
0.00172512
0.00176515
0.00181094
0.00185795
0.00190276
0.00194298
0.00197434
0.00199209
0.00200211
0.00200045
0.0019881
0.00196655
0.00193759
0.00190308
0.001865
0.00182548
0.00178679
0.00175248
0.00172772
0.00172174
0.00130565
0.00153606
0.00161182
0.00164927
0.00167307
0.00170423
0.00174097
0.00178268
0.0018271
0.00187491
0.00191215
0.00194359
0.00197349
0.00199436
0.00200615
0.00200896
0.00200302
0.00198834
0.00196569
0.00193767
0.00190713
0.00187837
0.00185581
0.00184448
0.00120167
0.00148114
0.00155417
0.00157887
0.00158356
0.00159412
0.00161503
0.00164691
0.00168568
0.00173187
0.00176897
0.001804
0.00184044
0.00187008
0.0018926
0.00190797
0.00191681
0.00192068
0.0019207
0.00191682
0.00191027
0.0019034
0.00189863
0.00189874
0.00104587
0.00140384
0.00147847
0.00148297
0.0014618
0.00144819
0.00144748
0.00145841
0.00148044
0.00151427
0.0015484
0.00158358
0.00162746
0.00167069
0.00171095
0.00174636
0.00177634
0.00180105
0.0018211
0.00183747
0.00185143
0.00186378
0.00187424
0.00188621
0.000846361
0.00130915
0.0013888
0.00136836
0.00131804
0.00127538
0.0012446
0.00122925
0.00123041
0.00124732
0.00127721
0.00132072
0.00137253
0.00142739
0.00148192
0.00153349
0.00158083
0.00162315
0.00165994
0.00169056
0.00171457
0.00173217
0.00174661
0.00176238
7.85189e-07
3.76294e-06
2.08587e-05
5.62896e-05
0.000113425
0.000204202
2.85503e-05
3.12317e-05
7.70522e-05
0.000132872
0.000180313
0.000223983
0.000167883
7.34717e-05
0.000147023
0.000222568
0.000304305
0.000408625
0.000186908
0.000115017
0.000212156
0.000310328
0.000429863
0.000582997
4.71736e-05
0.000153553
0.000270465
0.000391341
0.000534834
0.000708925
4.85033e-05
0.000188463
0.000321408
0.000459932
0.000615501
0.000790999
5.04279e-05
0.000218665
0.000364308
0.000514364
0.000675371
0.000838828
5.17538e-05
0.000243531
0.00039877
0.0005559
0.000714485
0.000862141
5.26734e-05
0.000262499
0.000425247
0.000583656
0.00073669
0.000869133
5.3234e-05
0.000275554
0.000442813
0.000599728
0.000744915
0.00086267
5.3456e-05
0.000283183
0.000452279
0.000605393
0.000741138
0.000844507
5.34112e-05
0.00028498
0.000454153
0.000601767
0.000726805
0.000815838
5.30517e-05
0.000281082
0.00044893
0.000589874
0.000703183
0.000777366
5.25467e-05
0.000270801
0.000436982
0.00057063
0.000671412
0.000729765
5.18821e-05
0.00025503
0.000418763
0.000544862
0.000632642
0.000674237
5.10211e-05
0.000235054
0.000394924
0.000513353
0.0005882
0.000613661
4.98886e-05
0.000212536
0.000366512
0.000476825
0.000539562
0.000549913
4.81363e-05
0.000190617
0.00033523
0.000435823
0.000488595
0.000483343
0.000199535
0.000179416
0.000303439
0.000390055
0.000435339
0.000415322
0.00019097
0.000166889
0.00026908
0.000339823
0.000379414
0.000351959
0.00017915
0.000147899
0.000227017
0.00028227
0.000317673
0.000292951
0.000163793
0.000112468
0.000168741
0.000210215
0.000241527
0.000239589
2.89817e-05
5.50324e-05
8.86498e-05
0.000118552
0.000140075
0.000174211
8.86289e-07
3.16728e-06
7.80896e-06
1.5158e-05
2.46481e-05
5.67143e-05
0.000772586
0.00122363
0.00129416
0.0012456
0.00116714
0.00109427
0.00103371
0.000992536
0.000978508
0.000980543
0.000995937
0.0010206
0.00105839
0.00110748
0.00116463
0.00122505
0.00128492
0.00134326
0.00139925
0.00145222
0.00150147
0.00154593
0.00158387
0.00161887
0.000812637
0.00116385
0.00120396
0.00112819
0.00102736
0.000931971
0.000853278
0.000793994
0.000759868
0.000734944
0.000720709
0.000723104
0.000744478
0.000782666
0.000831632
0.000885542
0.000941453
0.000997875
0.00105382
0.00110788
0.00115855
0.0012063
0.00124825
0.00129523
0.000886011
0.00111918
0.00112586
0.00103127
0.000920383
0.000825926
0.000748168
0.000697466
0.000640049
0.00058656
0.000569904
0.000583351
0.000620744
0.000669921
0.000721041
0.000765285
0.000801084
0.000829755
0.000853898
0.000876703
0.000899715
0.00092241
0.000936029
0.000951858
0.000937595
0.00108512
0.00106826
0.000963374
0.000851983
0.000761473
0.000692216
0.000646575
0.00059987
0.000548425
0.000546679
0.000582327
0.000648202
0.000724264
0.000790332
0.000847038
0.000894931
0.000934802
0.000966818
0.000991484
0.00101034
0.00102044
0.00101571
0.00102519
0.000967946
0.00106356
0.00102744
0.000922443
0.000817682
0.00073314
0.000673127
0.000636851
0.000581492
0.00054721
0.000558958
0.000616462
0.000696207
0.000776614
0.00085149
0.000920127
0.000984536
0.00104662
0.00110706
0.00116443
0.00121739
0.00126727
0.0013166
0.00140922
0.000982728
0.00104749
0.000998425
0.000902219
0.000803847
0.000722161
0.000666489
0.000624805
0.000557517
0.000546401
0.000597184
0.0006839
0.00077954
0.000874377
0.000964492
0.00104788
0.00112525
0.00119969
0.00127636
0.00136135
0.00146016
0.00158579
0.00176189
0.00195447
0.000988135
0.00103119
0.000980199
0.00088882
0.000789256
0.000706683
0.00065268
0.000604502
0.000551178
0.000582924
0.000675767
0.000788371
0.000912524
0.00103845
0.0011583
0.00127108
0.00137811
0.0014819
0.00158703
0.00170187
0.00183722
0.00203035
0.00228624
0.00254506
0.000984675
0.00101137
0.000959158
0.000863419
0.000757175
0.000672985
0.000640353
0.000566851
0.000572771
0.000665718
0.000789846
0.000928813
0.001076
0.00121909
0.00135881
0.0014995
0.00164647
0.00180605
0.00198598
0.00219587
0.00244748
0.00274818
0.00307445
0.00333031
0.000970335
0.000983408
0.000923536
0.000813192
0.000701271
0.000649233
0.0005973
0.0005646
0.000651672
0.000783763
0.000932974
0.00109721
0.00125834
0.00141555
0.00157259
0.00173536
0.00191259
0.00211705
0.00236587
0.00267825
0.00306606
0.00349562
0.00390346
0.00417037
0.000944801
0.000941251
0.000865743
0.000740693
0.000646366
0.000618154
0.000567286
0.000637739
0.0007701
0.000925895
0.00110154
0.00127963
0.00145746
0.00163802
0.00182605
0.00202856
0.00225613
0.00252403
0.00285095
0.00325197
0.003726
0.0042268
0.00464823
0.00493665
0.000906975
0.000880858
0.000784122
0.000660948
0.000622003
0.000575931
0.000615687
0.000746371
0.000906914
0.00109136
0.00128387
0.00147659
0.00167294
0.0018786
0.00210134
0.00235205
0.0026455
0.00299886
0.00342547
0.0039231
0.00446169
0.00496843
0.00539687
0.00566102
0.000855398
0.000803727
0.000688454
0.000607677
0.000584158
0.000582845
0.000711183
0.000876966
0.00106542
0.00126845
0.00147228
0.00168093
0.00189974
0.00213497
0.00239557
0.00269505
0.00305137
0.0034822
0.00399415
0.00456987
0.00515203
0.00566334
0.00606823
0.00631667
0.000790656
0.00071958
0.000604939
0.000582386
0.000556764
0.000668723
0.000833349
0.00102385
0.00123616
0.00144967
0.00166814
0.00189702
0.0021421
0.00241047
0.00271244
0.00306296
0.00347999
0.00397736
0.00455225
0.00517472
0.00576521
0.00628631
0.00668273
0.00691536
0.000715369
0.000634267
0.000555119
0.000548053
0.000598364
0.000763439
0.000968793
0.0011893
0.00141246
0.00163844
0.00187381
0.00212476
0.00239719
0.00269864