/*--------------------------------*- C++ -*----------------------------------*\
  =========                 |
  \\      /  F ield         | OpenFOAM: The Open Source CFD Toolbox
   \\    /   O peration     | Website:  https://openfoam.org
    \\  /    A nd           | Version:  11
     \\/     M anipulation  |
\*---------------------------------------------------------------------------*/
FoamFile
{
    format      ascii;
    class       surfaceScalarField;
    location    "1.4";
    object      phi;
}
// * * * * * * * * * * * * * * * * * * * * * * * * * * * * * * * * * * * * * //

dimensions      [0 3 -1 0 0 0 0];

internalField   nonuniform List<scalar> 
5640
(
6.90474e-08
-6.90473e-08
3.17142e-07
-2.48095e-07
7.10397e-07
-3.93255e-07
1.25877e-06
-5.4837e-07
1.9668e-06
-7.08035e-07
-6.71047e-07
2.63785e-06
1.44492e-07
-2.13539e-07
4.12257e-07
-5.1586e-07
8.00605e-07
-7.81603e-07
1.29749e-06
-1.04525e-06
1.90392e-06
-1.31447e-06
-1.36912e-06
2.60199e-06
1.70485e-07
-3.84024e-07
4.22613e-07
-7.67988e-07
7.72843e-07
-1.13183e-06
1.20315e-06
-1.47556e-06
1.70812e-06
-1.81944e-06
-1.9899e-06
2.3289e-06
1.80552e-07
-5.64576e-07
4.05296e-07
-9.92732e-07
7.04194e-07
-1.43073e-06
1.06048e-06
-1.83184e-06
1.46867e-06
-2.22763e-06
-2.48284e-06
1.96162e-06
1.80924e-07
-7.455e-07
3.69399e-07
-1.18121e-06
6.09931e-07
-1.67126e-06
8.88485e-07
-2.1104e-06
1.2012e-06
-2.54034e-06
-2.8516e-06
1.56996e-06
1.7282e-07
-9.18321e-07
3.18856e-07
-1.32724e-06
4.97815e-07
-1.85022e-06
6.98182e-07
-2.31076e-06
9.18398e-07
-2.76056e-06
-3.10773e-06
1.17452e-06
1.56206e-07
-1.07453e-06
2.56502e-07
-1.42754e-06
3.73927e-07
-1.96765e-06
4.9851e-07
-2.43535e-06
6.31303e-07
-2.89335e-06
-3.263e-06
7.86574e-07
1.2428e-07
-1.19881e-06
1.84534e-07
-1.48779e-06
2.43807e-07
-2.02692e-06
2.96974e-07
-2.48851e-06
3.49435e-07
-2.94581e-06
-3.32961e-06
4.1605e-07
7.28453e-08
-1.27165e-06
1.06464e-07
-1.52141e-06
1.12745e-07
-2.0332e-06
1.00163e-07
-2.47593e-06
8.06671e-08
-2.92632e-06
-3.32069e-06
7.17461e-08
2.66896e-08
-1.29834e-06
2.80674e-08
-1.52279e-06
-1.42644e-08
-1.99087e-06
-8.61868e-08
-2.40401e-06
-1.68518e-07
-2.84399e-06
-3.24999e-06
-2.39223e-07
-1.5101e-08
-1.28324e-06
-4.66103e-08
-1.49128e-06
-1.32852e-07
-1.90462e-06
-2.57385e-07
-2.27948e-06
-3.93212e-07
-2.70816e-06
-3.13122e-06
-5.11977e-07
-5.2398e-08
-1.23084e-06
-1.14846e-07
-1.42883e-06
-2.3945e-07
-1.78002e-06
-4.09698e-07
-2.10923e-06
-5.90014e-07
-2.52784e-06
-2.97751e-06
-7.43728e-07
-8.46545e-08
-1.14619e-06
-1.74359e-07
-1.33913e-06
-3.31211e-07
-1.62317e-06
-5.40156e-07
-1.90028e-06
-7.56566e-07
-2.31143e-06
-2.80018e-06
-9.33899e-07
-1.11092e-07
-1.0351e-06
-2.2336e-07
-1.22686e-06
-4.05874e-07
-1.44065e-06
-6.4644e-07
-1.65972e-06
-8.91706e-07
-2.06617e-06
-2.60808e-06
-1.08381e-06
-1.30957e-07
-9.04139e-07
-2.60506e-07
-1.09731e-06
-4.61669e-07
-1.23949e-06
-7.26698e-07
-1.39469e-06
-9.94974e-07
-1.79789e-06
-2.40759e-06
-1.19546e-06
-1.43607e-07
-7.60532e-07
-2.84868e-07
-9.5605e-07
-4.9725e-07
-1.02711e-06
-7.79317e-07
-1.11262e-06
-1.06543e-06
-1.51178e-06
-2.20201e-06
-1.27101e-06
-1.48323e-07
-6.12208e-07
-2.95941e-07
-8.08433e-07
-5.1163e-07
-8.1142e-07
-8.02495e-07
-8.21757e-07
-1.1012e-06
-1.21307e-06
-1.9905e-06
-1.31271e-06
-1.44002e-07
-4.68206e-07
-2.93519e-07
-6.58916e-07
-5.04179e-07
-6.0076e-07
-7.93731e-07
-5.32205e-07
-1.09874e-06
-9.08064e-07
-1.76755e-06
-1.32169e-06
-1.31961e-07
-3.36246e-07
-2.78409e-07
-5.12468e-07
-4.74767e-07
-4.04401e-07
-7.49923e-07
-2.57049e-07
-1.05147e-06
-6.06517e-07
-1.52256e-06
-1.29646e-06
-1.16118e-07
-2.20128e-07
-2.53768e-07
-3.74818e-07
-4.23987e-07
-2.34182e-07
-6.67568e-07
-1.34682e-08
-9.48697e-07
-3.25388e-07
-1.24045e-06
-1.23081e-06
-9.73519e-08
-1.22776e-07
-2.21518e-07
-2.50652e-07
-3.53254e-07
-1.02445e-07
-5.42834e-07
1.76112e-07
-7.75256e-07
-9.29659e-08
-9.06934e-07
-1.10877e-06
-7.5953e-08
-4.68231e-08
-1.8318e-07
-1.43426e-07
-2.65229e-07
-2.03953e-08
-3.69336e-07
2.80218e-07
-5.1811e-07
5.58084e-08
-5.29415e-07
-8.95629e-07
-4.75057e-08
6.82616e-10
-1.35982e-07
-5.49495e-08
-1.63369e-07
6.99191e-09
-1.19996e-07
2.36845e-07
-1.86641e-07
1.22453e-07
-1.88619e-07
-5.27436e-07
6.82616e-10
-5.42669e-08
-4.7275e-08
1.8957e-07
3.12023e-07
1.23403e-07
2.56918e-06
-1.95496e-06
2.02363e-06
4.67494e-06
9.12463e-07
-3.01823e-06
7.67894e-06
4.17371e-06
-7.17771e-06
1.10814e-05
6.77946e-06
-1.01819e-05
1.46772e-05
8.71348e-06
-1.23093e-05
1.8334e-05
1.00581e-05
-1.3715e-05
2.19554e-05
1.0918e-05
-1.45394e-05
2.54803e-05
1.13851e-05
-1.491e-05
2.88734e-05
1.15417e-05
-1.49348e-05
3.21181e-05
1.14559e-05
-1.47007e-05
3.52119e-05
1.11819e-05
-1.42757e-05
3.81623e-05
1.07634e-05
-1.37137e-05
4.09835e-05
1.02356e-05
-1.30568e-05
4.36928e-05
9.62834e-06
-1.23376e-05
4.63037e-05
8.96818e-06
-1.15791e-05
4.88322e-05
8.27118e-06
-1.07997e-05
5.12972e-05
7.5523e-06
-1.00174e-05
5.37159e-05
6.82543e-06
-9.24408e-06
5.60896e-05
6.10545e-06
-8.47914e-06
5.84085e-05
5.39675e-06
-7.71569e-06
6.0658e-05
4.69649e-06
-6.94601e-06
6.28153e-05
3.9997e-06
-6.15698e-06
6.48176e-05
3.28401e-06
-5.28627e-06
2.47152e-06
-4.20086e-06
3.07876e-06
-2.43173e-06
4.70141e-06
-7.1019e-07
7.24714e-06
1.62798e-06
1.03204e-05
3.70618e-06
1.36932e-05
5.34073e-06
1.7227e-05
6.5243e-06
2.08279e-05
7.31717e-06
2.44292e-05
7.78375e-06
2.79832e-05
7.98763e-06
3.14599e-05
7.9793e-06
3.48415e-05
7.80027e-06
3.81175e-05
7.48736e-06
4.12819e-05
7.07118e-06
4.43386e-05
6.57169e-06
4.73e-05
6.0068e-06
5.01777e-05
5.39343e-06
5.29833e-05
4.74673e-06
5.57278e-05
4.08095e-06
5.84248e-05
3.40837e-06
6.10863e-05
2.73528e-06
6.3705e-05
2.07777e-06
6.62752e-05
1.42954e-06
6.87295e-05
8.29747e-07
2.55549e-07
2.97171e-06
-3.07454e-06
4.31717e-06
-2.05565e-06
6.4246e-06
-4.79448e-07
9.07719e-06
1.05358e-06
1.2093e-05
2.32487e-06
1.53358e-05
3.28154e-06
1.87146e-05
3.93834e-06
2.21702e-05
4.32823e-06
2.56587e-05
4.49909e-06
2.9151e-05
4.48697e-06
3.26289e-05
4.32238e-06
3.60789e-05
4.03735e-06
3.949e-05
3.66008e-06
4.285e-05
3.2117e-06
4.6153e-05
2.70383e-06
4.94023e-05
2.14412e-06
5.26032e-05
1.54584e-06
5.5761e-05
9.23201e-07
5.88789e-05
2.90386e-07
6.19563e-05
-3.42104e-07
6.4994e-05
-9.59951e-07
6.79958e-05
-1.57227e-06
7.09832e-05
-2.1576e-06
-2.63401e-06
2.5763e-06
-3.68922e-06
3.65238e-06
-3.13173e-06
5.30714e-06
-2.13421e-06
7.44264e-06
-1.08192e-06
9.93598e-06
-1.6847e-07
1.26752e-05
5.42362e-07
1.55785e-05
1.035e-06
1.85857e-05
1.32099e-06
2.16594e-05
1.42545e-06
2.47773e-05
1.36901e-06
2.79271e-05
1.17261e-06
3.11044e-05
8.60002e-07
3.43118e-05
4.52761e-07
3.75547e-05
-3.12763e-08
4.0834e-05
-5.75464e-07
4.41441e-05
-1.16591e-06
4.74807e-05
-1.79076e-06
5.08428e-05
-2.4389e-06
5.42317e-05
-3.09852e-06
5.76444e-05
-3.75488e-06
6.10792e-05
-4.39473e-06
6.45107e-05
-5.00375e-06
6.79695e-05
-5.61637e-06
-6.15724e-06
2.07278e-06
-4.19205e-06
2.88589e-06
-3.94484e-06
4.10908e-06
-3.3574e-06
5.70747e-06
-2.6803e-06
7.60247e-06
-2.06347e-06
9.71331e-06
-1.56848e-06
1.1972e-05
-1.22366e-06
1.43251e-05
-1.03213e-06
1.67391e-05
-9.8859e-07
1.91957e-05
-1.08755e-06
2.16864e-05
-1.31807e-06
2.42111e-05
-1.66468e-06
2.67776e-05
-2.11376e-06
2.93993e-05
-2.65299e-06
3.20921e-05
-3.2683e-06
3.4871e-05
-3.94475e-06
3.77478e-05
-4.66755e-06
4.07317e-05
-5.42282e-06
4.38291e-05
-6.19594e-06
4.70399e-05
-6.96572e-06
5.03566e-05
-7.71137e-06
5.37645e-05
-8.41166e-06
5.72447e-05
-9.09662e-06
-9.76885e-06
1.542e-06
-4.55952e-06
2.11895e-06
-4.52179e-06
2.97414e-06
-4.2126e-06
4.09613e-06
-3.8023e-06
5.43562e-06
-3.40296e-06
6.93742e-06
-3.07028e-06
8.54976e-06
-2.83599e-06
1.02325e-05
-2.71483e-06
1.19592e-05
-2.71534e-06
1.3715e-05
-2.84331e-06
1.54946e-05
-3.09769e-06
1.73026e-05
-3.47268e-06
1.9151e-05
-3.96217e-06
2.10566e-05
-4.55856e-06
2.30391e-05
-5.25083e-06
2.51194e-05
-6.02505e-06
2.73171e-05
-6.86526e-06
2.96498e-05
-7.75552e-06
3.21319e-05
-8.67795e-06
3.47737e-05
-9.60752e-06
3.75803e-05
-1.0518e-05
4.05579e-05
-1.13892e-05
4.36823e-05
-1.2221e-05
-1.30226e-05
1.02119e-06
-4.79413e-06
1.39695e-06
-4.89755e-06
1.95674e-06
-4.77238e-06
2.69429e-06
-4.53985e-06
3.5773e-06
-4.28597e-06
4.56772e-06
-4.0607e-06
5.62905e-06
-3.89733e-06
6.73305e-06
-3.81882e-06
7.8607e-06
-3.843e-06
9.00093e-06
-3.98354e-06
1.01513e-05
-4.24802e-06
1.13182e-05
-4.63959e-06
1.25148e-05
-5.15878e-06
1.37588e-05
-5.80264e-06
1.50718e-05
-6.56381e-06
1.64787e-05
-7.43194e-06
1.80054e-05
-8.392e-06
1.96783e-05
-9.42841e-06
2.15227e-05
-1.05223e-05
2.35639e-05
-1.16487e-05
2.58272e-05
-1.27814e-05
2.8335e-05
-1.3897e-05
3.10769e-05
-1.4963e-05
-1.59087e-05
5.32118e-07
-4.9102e-06
7.44922e-07
-5.11036e-06
1.07825e-06
-5.10571e-06
1.52482e-06
-4.98642e-06
2.06138e-06
-4.82253e-06
2.66097e-06
-4.66029e-06
3.29809e-06
-4.53445e-06
3.95278e-06
-4.47351e-06
4.61124e-06
-4.50145e-06
5.26572e-06
-4.63802e-06
5.91586e-06
-4.89816e-06
6.56873e-06
-5.29246e-06
7.23755e-06
-5.8276e-06
7.94055e-06
-6.50564e-06
8.6988e-06
-7.32206e-06
9.54127e-06
-8.27441e-06
1.05e-05
-9.35074e-06
1.16098e-05
-1.05382e-05
1.29047e-05
-1.18173e-05
1.44177e-05
-1.31616e-05
1.61765e-05
-1.45402e-05
1.81979e-05
-1.59183e-05
2.04719e-05
-1.7237e-05
-1.83553e-05
9.02111e-08
-4.92867e-06
1.80495e-07
-5.20064e-06
3.52955e-07
-5.27817e-06
5.97732e-07
-5.2312e-06
8.96332e-07
-5.12113e-06
1.2291e-06
-4.99306e-06
1.57789e-06
-4.88324e-06
1.92797e-06
-4.82359e-06
2.26953e-06
-4.84302e-06
2.5989e-06
-4.96739e-06
2.91829e-06
-5.21755e-06
3.23632e-06
-5.61049e-06
3.56856e-06
-6.15984e-06
3.93798e-06
-6.87506e-06
4.37651e-06
-7.7606e-06
4.92058e-06
-8.81847e-06
5.60414e-06
-1.00343e-05
6.46509e-06
-1.13991e-05
7.53692e-06
-1.28891e-05
8.84655e-06
-1.44712e-05
1.0407e-05
-1.61007e-05
1.22026e-05
-1.77139e-05
1.41707e-05
-1.9205e-05
-2.04122e-05
-2.93424e-07
-4.87446e-06
-2.83585e-07
-5.21048e-06
-2.08259e-07
-5.35349e-06
-7.97125e-08
-5.35974e-06
8.6159e-08
-5.287e-06
2.75428e-07
-5.18233e-06
4.77098e-07
-5.08491e-06
6.83857e-07
-5.03035e-06
8.92755e-07
-5.05191e-06
1.10577e-06
-5.1804e-06
1.32887e-06
-5.44065e-06
1.57369e-06
-5.85532e-06
1.85744e-06
-6.44359e-06
2.20219e-06
-7.21981e-06
2.63485e-06
-8.19325e-06
3.18265e-06
-9.36627e-06
3.8802e-06
-1.07319e-05
4.75821e-06
-1.22771e-05
5.85004e-06
-1.3981e-05
7.18799e-06
-1.58092e-05
8.79306e-06
-1.77058e-05
1.06677e-05
-1.95886e-05
1.27804e-05
-2.13177e-05
-2.27217e-05
-6.11551e-07
-4.77489e-06
-6.3936e-07
-5.18267e-06
-5.99274e-07
-5.39358e-06
-5.03079e-07
-5.45594e-06
-3.61338e-07
-5.42874e-06
-1.83519e-07
-5.36015e-06
2.35614e-08
-5.29199e-06
2.55006e-07
-5.2618e-06
5.0859e-07
-5.3055e-06
7.85513e-07
-5.45733e-06
1.09336e-06
-5.7485e-06
1.44396e-06
-6.20592e-06
1.85295e-06
-6.85258e-06
2.34022e-06
-7.70708e-06
2.93042e-06
-8.78345e-06
3.65642e-06
-1.00923e-05
4.56634e-06
-1.16418e-05
5.71168e-06
-1.34225e-05
7.14936e-06
-1.54187e-05
8.9478e-06
-1.76076e-05
1.11462e-05
-1.99042e-05
1.37989e-05
-2.22412e-05
1.69286e-05
-2.44474e-05
-2.62001e-05
-8.60891e-07
-4.65773e-06
-8.84336e-07
-5.15922e-06
-8.19282e-07
-5.45863e-06
-6.77828e-07
-5.59739e-06
-4.70824e-07
-5.63575e-06
-2.06036e-07
-5.62494e-06
1.13382e-07
-5.6114e-06
4.89295e-07
-5.63771e-06
9.27295e-07
-5.7435e-06
1.43386e-06
-5.9639e-06
2.01865e-06
-6.33329e-06
2.69553e-06
-6.8828e-06
3.48313e-06
-7.64018e-06
4.40553e-06
-8.62948e-06
5.49273e-06
-9.87065e-06
6.77881e-06
-1.13783e-05
8.29785e-06
-1.31608e-05
1.00888e-05
-1.52134e-05
1.2192e-05
-1.75219e-05
1.46328e-05
-2.00484e-05
1.74753e-05
-2.27467e-05
2.07675e-05
-2.55335e-05
2.45716e-05
-2.82515e-05
-3.04198e-05
-1.04169e-06
-4.54994e-06
-1.0217e-06
-5.17921e-06
-8.82741e-07
-5.59759e-06
-6.36607e-07
-5.84352e-06
-2.89049e-07
-5.98331e-06
1.58935e-07
-6.07293e-06
7.09949e-07
-6.16242e-06
1.37e-06
-6.29776e-06
2.14764e-06
-6.52114e-06
3.05514e-06
-6.8714e-06
4.10723e-06
-7.38538e-06
5.32148e-06
-8.09704e-06
6.71819e-06
-9.03688e-06
8.31958e-06
-1.02309e-05
1.01485e-05
-1.16996e-05
1.22244e-05
-1.34542e-05
1.45629e-05
-1.54993e-05
1.71685e-05
-1.7819e-05
2.00384e-05
-2.03918e-05
2.31673e-05
-2.31773e-05
2.65412e-05
-2.61206e-05
3.01547e-05
-2.9147e-05
3.40307e-05
-3.21274e-05
-3.46376e-05
-1.15585e-06
-4.47789e-06
-1.05559e-06
-5.27947e-06
-7.94618e-07
-5.85856e-06
-3.84299e-07
-6.25384e-06
1.7421e-07
-6.54182e-06
8.85186e-07
-6.7839e-06
1.75737e-06
-7.03461e-06
2.80196e-06
-7.34234e-06
4.03247e-06
-7.75165e-06
5.4648e-06
-8.30373e-06
7.11625e-06
-9.03684e-06
9.00455e-06
-9.98534e-06
1.11467e-05
-1.1179e-05
1.35555e-05
-1.26397e-05
1.62405e-05
-1.43846e-05
1.91983e-05
-1.6412e-05
2.24163e-05
-1.87173e-05
2.58726e-05
-2.12753e-05
2.95274e-05
-2.40467e-05
3.33246e-05
-2.69744e-05
3.71886e-05
-2.99846e-05
4.10418e-05
-3.30003e-05
4.48131e-05
-3.58987e-05
-3.8494e-05
-1.20615e-06
-4.46721e-06
-9.90383e-07
-5.49524e-06
-5.64488e-07
-6.28446e-06
6.00192e-08
-6.87835e-06
8.85278e-07
-7.36707e-06
1.92106e-06
-7.81969e-06
3.18013e-06
-8.29367e-06
4.67737e-06
-8.83958e-06
6.42858e-06
-9.50286e-06
8.44972e-06
-1.03249e-05
1.07554e-05
-1.13425e-05
1.33564e-05
-1.25864e-05
1.626e-05
-1.40825e-05
1.94638e-05
-1.58435e-05
2.29549e-05
-1.78757e-05
2.67126e-05
-2.01697e-05
3.06986e-05
-2.27034e-05
3.48591e-05
-2.54358e-05
3.91187e-05
-2.83063e-05
4.33901e-05
-3.12459e-05
4.75812e-05
-3.41757e-05
5.15946e-05
-3.70137e-05
5.53023e-05
-3.96064e-05
-4.20077e-05
-1.19493e-06
-4.54329e-06
-8.29027e-07
-5.86114e-06
-1.99498e-07
-6.91399e-06
6.8057e-07
-7.75842e-06
1.81645e-06
-8.50295e-06
3.2203e-06
-9.22354e-06
4.90667e-06
-9.98005e-06
6.89033e-06
-1.08232e-05
9.18434e-06
-1.17969e-05
1.17989e-05
-1.29394e-05
1.47409e-05
-1.42845e-05
1.801e-05
-1.58555e-05
2.15977e-05
-1.76702e-05
2.54854e-05
-1.97313e-05
2.96372e-05
-2.20275e-05
3.40025e-05
-2.45349e-05
3.85122e-05
-2.72131e-05
4.30889e-05
-3.00125e-05
4.76517e-05
-3.28691e-05
5.21135e-05
-3.57076e-05
5.63693e-05
-3.84315e-05
6.0311e-05
-4.09554e-05
6.38161e-05
-4.31114e-05
-4.5062e-05
-1.12231e-06
-4.73368e-06
-5.71123e-07
-6.41233e-06
2.97503e-07
-7.78261e-06
1.46788e-06
-8.9288e-06
2.94638e-06
-9.98144e-06
4.74533e-06
-1.10225e-05
6.87695e-06
-1.21117e-05
9.35088e-06
-1.32972e-05
1.21741e-05
-1.46201e-05
1.53484e-05
-1.61136e-05
1.88692e-05
-1.78053e-05
2.27197e-05
-1.97061e-05
2.68643e-05
-2.18148e-05
3.12563e-05
-2.41233e-05
3.58367e-05
-2.66079e-05
4.05395e-05
-2.92378e-05
4.52932e-05
-3.19668e-05
5.00122e-05
-3.47315e-05
5.46024e-05
-3.74593e-05
5.89637e-05
-4.0069e-05
6.29924e-05
-4.24602e-05
6.65431e-05
-4.4506e-05
6.95275e-05
-4.60959e-05
-4.73932e-05
-9.85338e-07
-5.07003e-06
-2.11686e-07
-7.18598e-06
9.27892e-07
-8.92219e-06
2.41658e-06
-1.04175e-05
4.26009e-06
-1.1825e-05
6.4675e-06
-1.32299e-05
9.04557e-06
-1.46897e-05
1.19975e-05
-1.62491e-05
1.5321e-05
-1.79436e-05
1.90005e-05
-1.97931e-05
2.3e-05
-2.18048e-05
2.72746e-05
-2.39807e-05
3.17742e-05
-2.63144e-05
3.64435e-05
-2.87926e-05
4.12178e-05
-3.13822e-05
4.60151e-05
-3.40351e-05
5.07491e-05
-3.67008e-05
5.53264e-05
-3.93087e-05
5.96113e-05
-4.17442e-05
6.3432e-05
-4.38896e-05
6.66613e-05
-4.56896e-05
6.92681e-05
-4.71128e-05
7.13302e-05
-4.81581e-05
-4.88944e-05
-7.76692e-07
-5.5898e-06
2.57358e-07
-8.22004e-06
1.69509e-06
-1.03599e-05
3.52284e-06
-1.22452e-05
5.74435e-06
-1.40465e-05
8.36473e-06
-1.58503e-05
1.1383e-05
-1.7708e-05
1.47858e-05
-1.96519e-05
1.85384e-05
-2.16962e-05
2.25956e-05
-2.38502e-05
2.69093e-05
-2.61185e-05
3.14285e-05
-2.85e-05
3.60911e-05
-3.09769e-05
4.08229e-05
-3.35244e-05
4.55405e-05
-3.60998e-05
5.01551e-05
-3.86497e-05
5.45115e-05
-4.10572e-05
5.8416e-05
-4.32133e-05
6.17359e-05
-4.5064e-05
6.4479e-05
-4.66327e-05
6.67303e-05
-4.79408e-05
6.85767e-05
-4.89592e-05
7.00412e-05
-4.96225e-05
-4.98347e-05
-4.84257e-07
-6.33635e-06
8.43844e-07
-9.54814e-06
2.59961e-06
-1.21157e-05
4.77721e-06
-1.44229e-05
7.38217e-06
-1.66514e-05
1.04082e-05
-1.88764e-05
1.38265e-05
-2.11263e-05
1.75886e-05
-2.3414e-05
2.16422e-05
-2.57498e-05
2.59335e-05
-2.81416e-05
3.04014e-05
-3.05864e-05
3.4972e-05
-3.30706e-05
3.95586e-05
-3.55635e-05
4.40795e-05
-3.80454e-05
4.83995e-05
-4.04197e-05
5.23143e-05
-4.25645e-05
5.56747e-05
-4.44176e-05
5.84989e-05
-4.60374e-05
6.08909e-05
-4.74561e-05
6.29239e-05
-4.86658e-05
6.45863e-05
-4.96031e-05
6.58703e-05
-5.02432e-05
6.68534e-05
-5.06056e-05
-5.0483e-05
-9.9855e-08
-7.34527e-06
1.55509e-06
-1.12031e-05
3.63201e-06
-1.41926e-05
6.15773e-06
-1.69486e-05
9.12986e-06
-1.96235e-05
1.25082e-05
-2.22547e-05
1.62323e-05
-2.48504e-05
2.02368e-05
-2.74185e-05
2.44539e-05
-2.9967e-05
2.88049e-05
-3.24925e-05
3.32014e-05
-3.4983e-05
3.75523e-05
-3.74215e-05
4.17653e-05
-3.97765e-05
4.56471e-05
-4.19272e-05
4.90307e-05
-4.38033e-05
5.19018e-05
-4.54356e-05
5.43734e-05
-4.68892e-05
5.65206e-05
-4.81846e-05
5.83628e-05
-4.92983e-05
5.9857e-05
-5.016e-05
6.10371e-05
-5.07832e-05
6.19824e-05
-5.11885e-05
6.27192e-05
-5.13424e-05
-5.10105e-05
4.35371e-07
-8.67627e-06
2.3883e-06
-1.3156e-05
4.7655e-06
-1.65698e-05
7.61019e-06
-1.97933e-05
1.089e-05
-2.29034e-05
1.453e-05
-2.58947e-05
1.84431e-05
-2.87635e-05
2.25398e-05
-3.15151e-05
2.67213e-05
-3.41485e-05
3.08841e-05
-3.66553e-05
3.49346e-05
-3.90334e-05
3.87561e-05
-4.12431e-05
4.21714e-05
-4.31918e-05
4.50879e-05
-4.48437e-05
4.75944e-05
-4.63099e-05
4.97962e-05
-4.76373e-05
5.17492e-05
-4.88422e-05
5.34109e-05
-4.98464e-05
5.47565e-05
-5.06439e-05
5.58508e-05
-5.12543e-05
5.676e-05
-5.16924e-05
5.75217e-05
-5.19503e-05
5.8142e-05
-5.19626e-05
-5.14992e-05
1.15468e-06
-1.03584e-05
3.31951e-06
-1.53208e-05
5.94057e-06
-1.91909e-05
9.04169e-06
-2.28944e-05
1.2542e-05
-2.64036e-05
1.63215e-05
-2.96742e-05
2.02609e-05
-3.27029e-05
2.42389e-05
-3.54932e-05
2.81352e-05
-3.80448e-05
3.18502e-05
-4.03703e-05
3.52699e-05
-4.24531e-05
3.82651e-05
-4.42382e-05
4.08237e-05
-4.57504e-05
4.30707e-05
-4.70907e-05
4.50737e-05
-4.83129e-05
4.68342e-05
-4.93977e-05
4.83e-05
-5.03081e-05
4.95145e-05
-5.10609e-05
5.05387e-05
-5.1668e-05
5.14208e-05
-5.21364e-05
5.21927e-05
-5.24643e-05
5.28662e-05
-5.26237e-05
5.34382e-05
-5.25346e-05
-5.19908e-05
2.11796e-06
-1.23529e-05
4.27921e-06
-1.74821e-05
7.06541e-06
-2.19771e-05
1.03454e-05
-2.61743e-05
1.39462e-05
-3.00045e-05
1.77035e-05
-3.34315e-05
2.14662e-05
-3.64656e-05
2.50977e-05
-3.91247e-05
2.84928e-05
-4.14398e-05
3.15646e-05
-4.34421e-05
3.42275e-05
-4.5116e-05
3.65087e-05
-4.65194e-05
3.85237e-05
-4.77654e-05
4.03319e-05
-4.88989e-05
4.18967e-05
-4.98778e-05
4.32101e-05
-5.07111e-05
4.43255e-05
-5.14234e-05
4.52909e-05
-5.20263e-05
4.61445e-05
-5.25216e-05
4.69128e-05
-5.29047e-05
4.76056e-05
-5.31571e-05
4.82231e-05
-5.32412e-05
4.8765e-05
-5.30766e-05
-5.24907e-05
-5.61936e-07
5.61936e-07
-1.54916e-06
9.87223e-07
-2.34477e-06
7.95613e-07
-2.42306e-06
7.82926e-08
-1.35218e-06
-1.07089e-06
-2.83833e-06
1.48615e-06
-7.64848e-07
1.32678e-06
-1.60567e-06
1.82805e-06
-2.07781e-06
1.26775e-06
-1.93296e-06
-6.65609e-08
-8.57161e-07
-2.14669e-06
-5.09176e-06
1.39626e-06
-7.58847e-07
2.08563e-06
-1.43864e-06
2.50784e-06
-1.73876e-06
1.56788e-06
-1.44755e-06
-3.57772e-07
-4.15679e-07
-3.17856e-06
-6.92424e-06
1.41681e-06
-7.31749e-07
2.81738e-06
-1.26232e-06
3.03841e-06
-1.43648e-06
1.74203e-06
-1.06601e-06
-7.28239e-07
-7.70547e-08
-4.16751e-06
-8.50533e-06
1.50404e-06
-7.00056e-07
3.51744e-06
-1.09807e-06
3.43642e-06
-1.17177e-06
1.81573e-06
-7.7075e-07
-1.12926e-06
1.58153e-07
-5.09641e-06
-9.9439e-06
1.59672e-06
-6.35478e-07
4.15291e-06
-9.37224e-07
3.73817e-06
-9.42579e-07
1.82109e-06
-5.43203e-07
-1.52863e-06
3.20625e-07
-5.96024e-06
-1.12808e-05
1.65756e-06
-5.53452e-07
4.70637e-06
-7.80069e-07
3.96479e-06
-7.44933e-07
1.78595e-06
-3.71288e-07
-1.90228e-06
4.19213e-07
-6.75074e-06
-1.2525e-05
1.66339e-06
-4.61436e-07
5.1678e-06
-6.27482e-07
4.13083e-06
-5.74551e-07
1.73302e-06
-2.46783e-07
-2.23004e-06
4.56581e-07
-7.45411e-06
-1.36678e-05
1.59935e-06
-3.64221e-07
5.53202e-06
-4.79249e-07
4.24586e-06
-4.26838e-07
1.68061e-06
-1.62789e-07
-2.49409e-06
4.36415e-07
-8.05331e-06
-1.4691e-05
1.45964e-06
-2.63404e-07
5.79543e-06
-3.34744e-07
4.3172e-06
-2.96827e-07
1.64269e-06
-1.12428e-07
-2.67849e-06
3.63697e-07
-8.52944e-06
-1.55725e-05
1.24519e-06
-1.59917e-07
5.95534e-06
-1.92699e-07
4.34998e-06
-1.79154e-07
1.62915e-06
-8.82506e-08
-2.76939e-06
2.45402e-07
-8.86309e-06
-1.62898e-05
9.6266e-07
-5.42453e-08
6.00959e-06
-5.17594e-08
4.3475e-06
-6.80403e-08
1.64543e-06
-8.18569e-08
-2.75558e-06
8.98901e-08
-9.03484e-06
-1.68227e-05
6.22838e-07
5.24384e-08
5.95715e-06
9.09673e-08
4.30897e-06
4.28445e-08
1.69355e-06
-8.34179e-08
-2.62932e-06
-9.02698e-08
-9.02799e-06
-1.71535e-05
2.40553e-07
1.5918e-07
5.79797e-06
2.36771e-07
4.23138e-06
1.60255e-07
1.77007e-06
-8.15916e-08
-2.38747e-06
-2.80483e-07
-8.82909e-06
-1.72621e-05
-1.7193e-07
2.65992e-07
5.53198e-06
3.86854e-07
4.11051e-06
2.90624e-07
1.8663e-06
-6.3242e-08
-2.0336e-06
-4.66948e-07
-8.42539e-06
-1.71223e-05
-6.06752e-07
3.72065e-07
5.15991e-06
5.42066e-07
3.94051e-06
4.40175e-07
1.96819e-06
-1.06834e-08
-1.58274e-06
-6.28325e-07
-7.80775e-06
-1.67131e-05
-1.03752e-06
4.77846e-07
4.68207e-06
7.01995e-07
3.71637e-06
6.13302e-07
2.05688e-06
8.19146e-08
-1.05136e-06
-7.41536e-07
-6.9843e-06
-1.60058e-05
-1.44884e-06
5.88599e-07
4.09347e-06
8.64002e-07
3.44096e-06
8.12659e-07
2.10822e-06
2.40517e-07
-4.79215e-07
-7.78223e-07
-5.96556e-06
-1.49642e-05
-1.8198e-06
6.90836e-07
3.40263e-06
1.01935e-06
3.11245e-06
1.03672e-06
2.09084e-06
4.77478e-07
8.00312e-08
-7.04669e-07
-4.78341e-06
-1.35452e-05
-2.12364e-06
7.37213e-07
2.66542e-06
1.15536e-06
2.6943e-06
1.2797e-06
1.96651e-06
8.02717e-07
5.57013e-07
-4.87927e-07
-3.49277e-06
-1.17075e-05
-2.32565e-06
7.52316e-07
1.9131e-06
1.27569e-06
2.17093e-06
1.53498e-06
1.70721e-06
1.21617e-06
8.75823e-07
-1.30235e-07
-2.14636e-06
-9.46425e-06
-2.37349e-06
7.47049e-07
1.16605e-06
1.37605e-06
1.54193e-06
1.78971e-06
1.29355e-06
1.71159e-06
9.53952e-07
5.34271e-07
-9.69043e-07
-6.74256e-06
-2.18742e-06
7.03135e-07
4.62918e-07
1.43734e-06
8.07728e-07
2.01383e-06
7.17057e-07
2.25582e-06
7.11958e-07
1.39325e-06
-1.06473e-07
-3.58702e-06
-1.76228e-06
4.62918e-07
1.27065e-06
1.9877e-06
2.69966e-06
2.59319e-06
-9.93834e-07
2.88702e-06
-1.37538e-05
5.11617e-06
-1.97112e-05
8.03718e-06
-2.48981e-05
1.14024e-05
-2.95395e-05
1.49622e-05
-3.35643e-05
1.85183e-05
-3.69877e-05
2.19107e-05
-3.98579e-05
2.50289e-05
-4.2243e-05
2.78143e-05
-4.42252e-05
3.02186e-05
-4.58464e-05
3.22823e-05
-4.71797e-05
3.4111e-05
-4.83481e-05
3.57307e-05
-4.93851e-05
3.7109e-05
-5.02772e-05
3.82847e-05
-5.10535e-05
3.9309e-05
-5.17354e-05
4.02176e-05
-5.2332e-05
4.10353e-05
-5.28441e-05
4.17797e-05
-5.3266e-05
4.24604e-05
-5.35854e-05
4.30801e-05
-5.37768e-05
4.36403e-05
-5.38014e-05
4.41491e-05
-5.35853e-05
-5.29877e-05
3.25116e-06
-1.56087e-05
5.70727e-06
-2.21674e-05
8.77214e-06
-2.79629e-05
1.21225e-05
-3.28899e-05
1.54938e-05
-3.69356e-05
1.86898e-05
-4.01837e-05
2.15895e-05
-4.27576e-05
2.41441e-05
-4.47976e-05
2.63388e-05
-4.64199e-05
2.82144e-05
-4.7722e-05
2.98659e-05
-4.88312e-05
3.13082e-05
-4.97904e-05
3.25376e-05
-5.06146e-05
3.36015e-05
-5.13411e-05
3.45394e-05
-5.19914e-05
3.53789e-05
-5.25748e-05
3.61396e-05
-5.30926e-05
3.68354e-05
-5.35399e-05
3.74759e-05
-5.39066e-05
3.80658e-05
-5.41754e-05
3.86083e-05
-5.43193e-05
3.91075e-05
-5.43006e-05
3.95768e-05
-5.40547e-05
-5.34672e-05
3.47e-06
-1.76619e-05
6.14725e-06
-2.48446e-05
9.26043e-06
-3.10761e-05
1.24661e-05
-3.60955e-05
1.55111e-05
-3.99807e-05
1.82479e-05
-4.29204e-05
2.06254e-05
-4.51351e-05
2.2651e-05
-4.68232e-05
2.43692e-05
-4.81382e-05
2.58571e-05
-4.92099e-05
2.71378e-05
-5.01119e-05
2.82327e-05
-5.08853e-05
2.91877e-05
-5.15696e-05
3.0034e-05
-5.21873e-05
3.07929e-05
-5.27503e-05
3.14807e-05
-5.32626e-05
3.21098e-05
-5.37217e-05
3.26897e-05
-5.41198e-05
3.32267e-05
-5.44435e-05
3.37242e-05
-5.46729e-05
3.41863e-05
-5.47813e-05
3.46189e-05
-5.47332e-05
3.50385e-05
-5.44743e-05
-5.39129e-05
3.67443e-06
-1.98323e-05
6.45567e-06
-2.76259e-05
9.48479e-06
-3.41052e-05
1.24164e-05
-3.90271e-05
1.50442e-05
-4.26085e-05
1.72983e-05
-4.51745e-05
1.9193e-05
-4.70298e-05
2.0778e-05
-4.84082e-05
2.21163e-05
-4.94764e-05
2.32514e-05
-5.0345e-05
2.42204e-05
-5.10809e-05
2.50639e-05
-5.17288e-05
2.58093e-05
-5.2315e-05
2.64761e-05
-5.28541e-05
2.70788e-05
-5.3353e-05
2.76283e-05
-5.38121e-05
2.81331e-05
-5.42265e-05
2.85992e-05
-5.45859e-05
2.9031e-05
-5.48754e-05
2.94322e-05
-5.50741e-05
2.98079e-05
-5.51569e-05
3.01663e-05
-5.50917e-05
3.05252e-05
-5.48332e-05
-5.43097e-05
3.83481e-06
-2.20704e-05
6.60023e-06
-3.03913e-05
9.42457e-06
-3.69296e-05
1.19899e-05
-4.15925e-05
1.41709e-05
-4.47895e-05
1.59703e-05
-4.69739e-05
1.74428e-05
-4.85023e-05
1.8654e-05
-4.96194e-05
1.9661e-05
-5.04834e-05
2.05096e-05
-5.11937e-05
2.12388e-05
-5.181e-05
2.18763e-05
-5.23663e-05
2.2442e-05
-5.28807e-05
2.29499e-05
-5.3362e-05
2.34096e-05
-5.38127e-05
2.38279e-05
-5.42305e-05
2.42101e-05
-5.46087e-05
2.45604e-05
-5.49362e-05
2.48829e-05
-5.51979e-05
2.51823e-05
-5.53735e-05
2.5465e-05
-5.54397e-05
2.57409e-05
-5.53675e-05
2.60278e-05
-5.512e-05
-5.46439e-05
3.90603e-06
-2.43188e-05
6.54994e-06
-3.30352e-05
9.07808e-06
-3.94577e-05
1.12375e-05
-4.37519e-05
1.29874e-05
-4.65393e-05
1.43802e-05
-4.83667e-05
1.54889e-05
-4.9611e-05
1.63805e-05
-5.05111e-05
1.71104e-05
-5.12133e-05
1.7721e-05
-5.18043e-05
1.82435e-05
-5.23325e-05
1.86996e-05
-5.28224e-05
1.91036e-05
-5.32847e-05
1.94644e-05
-5.37228e-05
1.97876e-05
-5.41358e-05
2.00768e-05
-5.45197e-05
2.03355e-05
-5.48674e-05
2.05674e-05
-5.5168e-05
2.07767e-05
-5.54072e-05
2.09695e-05
-5.55663e-05
2.11533e-05
-5.56235e-05
2.13387e-05
-5.55529e-05
2.15438e-05
-5.53252e-05
-5.49038e-05
3.85936e-06
-2.65148e-05
6.29635e-06
-3.54722e-05
8.47451e-06
-4.16359e-05
1.02279e-05
-4.55053e-05
1.15825e-05
-4.78939e-05
1.26175e-05
-4.94016e-05
1.34109e-05
-5.04044e-05
1.40276e-05
-5.11278e-05
1.45181e-05
-5.17038e-05
1.49197e-05
-5.22059e-05
1.52578e-05
-5.26706e-05
1.55485e-05
-5.31132e-05
1.58013e-05
-5.35374e-05
1.60209e-05
-5.39425e-05
1.62103e-05
-5.43252e-05
1.63712e-05
-5.46806e-05
1.65057e-05
-5.50019e-05
1.66171e-05
-5.52795e-05
1.67103e-05
-5.55004e-05
1.67922e-05
-5.56482e-05
1.68712e-05
-5.57025e-05
1.69586e-05
-5.56403e-05
1.70728e-05
-5.54394e-05
-5.508e-05
3.68186e-06
-2.85973e-05
5.85126e-06
-3.76416e-05
7.65947e-06
-4.34441e-05
9.02839e-06
-4.68742e-05
1.00276e-05
-4.88931e-05
1.07469e-05
-5.0121e-05
1.12633e-05
-5.09208e-05
1.16375e-05
-5.1502e-05
1.19153e-05
-5.19815e-05
1.21282e-05
-5.24188e-05
1.22963e-05
-5.28387e-05
1.24308e-05
-5.32476e-05
1.25374e-05
-5.3644e-05
1.26185e-05
-5.40237e-05
1.26753e-05
-5.43819e-05
1.27081e-05
-5.47135e-05
1.27184e-05
-5.50121e-05
1.27087e-05
-5.52698e-05
1.2684e-05
-5.54757e-05
1.26515e-05
-5.56157e-05
1.26203e-05
-5.56713e-05
1.26019e-05
-5.56218e-05
1.26162e-05
-5.54537e-05
-5.51654e-05
3.37512e-06
-3.05128e-05
5.23995e-06
-3.95064e-05
6.68191e-06
-4.48861e-05
7.69652e-06
-4.78889e-05
8.37711e-06
-4.95737e-05
8.81522e-06
-5.05591e-05
9.0842e-06
-5.11898e-05
9.24031e-06
-5.16581e-05
9.32392e-06
-5.20651e-05
9.36127e-06
-5.24562e-05
9.36741e-06
-5.28449e-05
9.34998e-06
-5.32302e-05
9.31234e-06
-5.36064e-05
9.25562e-06
-5.39669e-05
9.1799e-06
-5.43062e-05
9.08513e-06
-5.46187e-05
8.97179e-06
-5.48988e-05
8.8418e-06
-5.51398e-05
8.69929e-06
-5.53332e-05
8.55106e-06
-5.54675e-05
8.40565e-06
-5.55259e-05
8.27205e-06
-5.54882e-05
8.17294e-06
-5.53546e-05
-5.5157e-05
2.95079e-06
-3.22184e-05
4.49457e-06
-4.10502e-05
5.58746e-06
-4.59789e-05
6.27903e-06
-4.85804e-05
6.67252e-06
-4.99672e-05
6.85686e-06
-5.07434e-05
6.90108e-06
-5.1234e-05
6.85662e-06
-5.16137e-05
6.75857e-06
-5.19671e-05
6.6281e-06
-5.23257e-05
6.47635e-06
-5.26931e-05
6.30842e-06
-5.30623e-05
6.12638e-06
-5.34243e-05
5.93081e-06
-5.37714e-05
5.72174e-06
-5.40971e-05
5.49906e-06
-5.4396e-05
5.26306e-06
-5.46628e-05
5.01502e-06
-5.48918e-05
4.75791e-06
-5.50761e-05
4.49772e-06
-5.52073e-05
4.24468e-06
-5.52729e-05
4.00626e-06
-5.52498e-05
3.73892e-06
-5.50872e-05
-5.50622e-05
2.42693e-06
-3.36827e-05
3.64887e-06
-4.22721e-05
4.41559e-06
-4.67457e-05
4.81284e-06
-4.89777e-05
4.94531e-06
-5.00996e-05
4.89756e-06
-5.06956e-05
4.73415e-06
-5.10706e-05
4.50166e-06
-5.13812e-05
4.23005e-06
-5.16955e-05
3.93616e-06
-5.20318e-05
3.62806e-06
-5.2385e-05
3.3092e-06
-5.27434e-05
2.98095e-06
-5.30961e-05
2.64392e-06
-5.34343e-05
2.2985e-06
-5.37517e-05
1.94518e-06
-5.40427e-05
1.58487e-06
-5.43025e-05
1.21929e-06
-5.45262e-05
8.51457e-07
-5.47083e-05
4.85889e-07
-5.48417e-05
1.31664e-07
-5.49186e-05
-1.76622e-07
-5.49415e-05
-3.1594e-07
-5.49479e-05
-5.45891e-05
1.82572e-06
-3.48856e-05
2.73459e-06
-4.3181e-05
3.19929e-06
-4.72104e-05
3.32741e-06
-4.91058e-05
3.2201e-06
-4.99923e-05
2.95721e-06
-5.04328e-05
2.59898e-06
-5.07124e-05
2.18731e-06
-5.09695e-05
1.74736e-06
-5.12555e-05
1.29245e-06
-5.15769e-05
8.28339e-07
-5.19209e-05
3.57276e-07
-5.22724e-05
-1.19766e-07
-5.2619e-05
-6.02123e-07
-5.2952e-05
-1.08913e-06
-5.32647e-05
-1.57992e-06
-5.35519e-05
-2.07332e-06
-5.38091e-05
-2.56776e-06
-5.40318e-05
-3.06089e-06
-5.42152e-05
-3.54819e-06
-5.43544e-05
-4.02024e-06
-5.44466e-05
-4.47334e-06
-5.44884e-05
-4.98211e-06
-5.44391e-05
-5.42716e-05
1.1708e-06
-3.58158e-05
1.78028e-06
-4.37905e-05
1.96622e-06
-4.73963e-05
1.84666e-06
-4.89862e-05
1.51665e-06
-4.96623e-05
1.05168e-06
-4.99678e-05
5.08027e-07
-5.01687e-05
-7.68943e-08
-5.03846e-05
-6.81345e-07
-5.06511e-05
-1.29556e-06
-5.09627e-05
-1.91549e-06
-5.1301e-05
-2.53967e-06
-5.16482e-05
-3.1674e-06
-5.19913e-05
-3.7981e-06
-5.23213e-05
-4.43103e-06
-5.26318e-05
-5.06531e-06
-5.29176e-05
-5.69984e-06
-5.31746e-05
-6.33321e-06
-5.33984e-05
-6.96339e-06
-5.3585e-05
-7.58745e-06
-5.37304e-05
-8.20301e-06
-5.3831e-05
-8.81184e-06
-5.38796e-05
-9.39594e-06
-5.3855e-05
-5.37975e-05
4.84401e-07
-3.64721e-05
8.11651e-07
-4.41177e-05
7.40683e-07
-4.73253e-05
3.90553e-07
-4.86361e-05
-1.49352e-07
-4.91224e-05
-8.06159e-07
-4.9311e-05
-1.52787e-06
-4.9447e-05
-2.28088e-06
-4.96316e-05
-3.04749e-06
-4.98845e-05
-3.8197e-06
-5.01905e-05
-4.59481e-06
-5.05259e-05
-5.37197e-06
-5.0871e-05
-6.1507e-06
-5.12126e-05
-6.93042e-06
-5.15416e-05
-7.71042e-06
-5.18518e-05
-8.4898e-06
-5.21383e-05