/*--------------------------------*- C++ -*----------------------------------*\
  =========                 |
  \\      /  F ield         | OpenFOAM: The Open Source CFD Toolbox
   \\    /   O peration     | Website:  https://openfoam.org
    \\  /    A nd           | Version:  11
     \\/     M anipulation  |
\*---------------------------------------------------------------------------*/
FoamFile
{
    format      ascii;
    class       volScalarField;
    location    "1.7";
    object      k;
}
// * * * * * * * * * * * * * * * * * * * * * * * * * * * * * * * * * * * * * //

dimensions      [0 2 -2 0 0 0 0];

internalField   nonuniform List<scalar> 
2880
(
0.00578533
0.0303699
0.0744017
0.121398
0.153863
0.160748
0.0182206
0.0596964
0.10932
0.159742
0.205944
0.244128
0.0263663
0.0766294
0.127748
0.179679
0.222961
0.245081
0.0321121
0.0871186
0.138236
0.187841
0.22294
0.227276
0.036521
0.0941646
0.144131
0.189429
0.214142
0.207447
0.0398675
0.0989376
0.14705
0.187444
0.202545
0.189119
0.0423373
0.102015
0.14793
0.183495
0.191285
0.173694
0.0440651
0.10372
0.147453
0.17883
0.181678
0.161661
0.0451503
0.104233
0.146
0.174119
0.174037
0.152828
0.0456634
0.103657
0.143824
0.16964
0.168107
0.14655
0.0456563
0.102045
0.141064
0.165453
0.163476
0.142304
0.04516
0.0994261
0.137702
0.161563
0.159824
0.139683
0.0442182
0.0958228
0.133693
0.157883
0.157015
0.138279
0.0429451
0.0912522
0.128955
0.154267
0.154821
0.137907
0.0413447
0.0857808
0.123362
0.150517
0.153
0.138363
0.0394041
0.0794895
0.116794
0.146303
0.151309
0.139579
0.0371056
0.0724634
0.109137
0.141164
0.149443
0.141364
0.0344
0.0647931
0.100288
0.134459
0.14703
0.143466
0.0311201
0.0565901
0.090194
0.125276
0.14361
0.145488
0.0267244
0.0480553
0.0789036
0.112544
0.138175
0.146834
0.0244496
0.0398007
0.066434
0.0960538
0.128065
0.147366
0.0224117
0.0320843
0.0530423
0.076094
0.10896
0.145021
0.0184495
0.0233874
0.0377823
0.0526545
0.0748703
0.130839
0.00535435
0.00805849
0.01505
0.0242635
0.0408346
0.119057
0.206765
0.17669
0.130041
0.098799
0.077867
0.063126
0.0522604
0.04405
0.0377802
0.032968
0.0292584
0.0263845
0.0241476
0.0224032
0.0210497
0.020021
0.0192805
0.0188163
0.018635
0.018733
0.019116
0.0198301
0.0209162
0.0223543
0.226133
0.166779
0.119698
0.0903131
0.071104
0.0576158
0.0476879
0.0402273
0.0345697
0.0302496
0.0269242
0.0243415
0.0223178
0.0207213
0.0194595
0.0184708
0.0177196
0.0171925
0.016895
0.0168443
0.0170349
0.0175221
0.0183882
0.0196376
0.212959
0.148877
0.107677
0.0821504
0.0650298
0.052769
0.0437134
0.0369388
0.0318253
0.0279259
0.0249165
0.0225644
0.0207028
0.0192126
0.0180093
0.0170347
0.0162522
0.0156447
0.0152132
0.0149733
0.0149493
0.0151698
0.0157672
0.0168136
0.188916
0.132998
0.0979153
0.0753914
0.0598
0.0485441
0.0402661
0.0341065
0.0294659
0.0259188
0.0231652
0.0209939
0.0192552
0.0178419
0.0166763
0.0157027
0.0148826
0.0141928
0.013626
0.0131898
0.0129065
0.0128301
0.0130936
0.0138877
0.166081
0.119806
0.0897988
0.0695471
0.0552239
0.0448705
0.0372924
0.0316698
0.0274281
0.0241697
0.0216206
0.019591
0.0179467
0.0165909
0.0154521
0.0144768
0.0136246
0.0128661
0.0121825
0.0115669
0.0110267
0.0106043
0.0104522
0.0108981
0.148532
0.109848
0.0832608
0.0645995
0.0512863
0.0417078
0.0347356
0.0295687
0.0256575
0.022633
0.0202472
0.0183296
0.01676
0.0154505
0.0143354
0.0133637
0.0124946
0.0116946
0.0109355
0.0101934
0.00945141
0.00871781
0.00807784
0.0078786
0.136267
0.102396
0.0779149
0.0603833
0.0479031
0.0389941
0.03254
0.0277533
0.0241114
0.0212748
0.0190192
0.0171916
0.0156834
0.0144149
0.0133257
0.0123682
0.0115036
0.0106989
0.00992418
0.00914923
0.00833961
0.00746393
0.00652135
0.0052802
0.127764
0.0967117
0.0735138
0.0568106
0.04502
0.0366785
0.0306574
0.0261816
0.0227561
0.0200688
0.0179169
0.0161622
0.0147062
0.0134761
0.0124165
0.0114836
0.0106421
0.00986257
0.00911934
0.00838725
0.00763708
0.00684143
0.00599255
0.00494424
0.121724
0.0923162
0.0698944
0.0538056
0.0425813
0.0347119
0.0290456
0.0248193
0.0215645
0.0189942
0.0169241
0.0152283
0.0138169
0.0126226
0.0115939
0.0106906
0.00987989
0.00913534
0.0084343
0.00775469
0.00707066
0.00636057
0.00562832
0.0047754
0.117491
0.0889458
0.0669537
0.0513084
0.040538
0.033052
0.0276695
0.0236387
0.0205155
0.0180349
0.016028
0.0143793
0.0130052
0.0118431
0.0108445
0.00997131
0.00919298
0.00848484
0.0078263
0.00719761
0.00657604
0.00594539
0.00531581
0.00461892
0.114658
0.0864382
0.0646189
0.0492676
0.0388476
0.0316629
0.0265006
0.0226181
0.0195926
0.017178
0.0152185
0.0136064
0.0122633
0.0111296
0.0101591
0.00931539
0.00856923
0.00789736
0.00728068
0.00670132
0.00613942
0.00558306
0.00504488
0.00447564
0.112978
0.0846974
0.0628391
0.0476439
0.0374753
0.0305158
0.025516
0.0217398
0.0187825
0.0164137
0.0144878
0.0129033
0.0115853
0.0104765
0.00953209
0.00871676
0.0080023
0.00736636
0.00679098
0.00625977
0.00575519
0.00526821
0.00481127
0.00434829
0.112309
0.0836751
0.0615827
0.0464058
0.0363918
0.0295863
0.0246968
0.0209899
0.018075
0.0157343
0.0138299
0.012265
0.0109669
0.00987975
0.00895964
0.00817175
0.00748851
0.00688822
0.00635366
0.00586942
0.0054196
0.00499678
0.00461151
0.00423716
0.112595
0.0833534
0.0608311
0.045528
0.0355733
0.028855
0.0240282
0.0203574
0.017462
0.0151336
0.0132401
0.0116876
0.0104048
0.00933651
0.00843895
0.00767762
0.00702519
0.00646026
0.00596595
0.00552734
0.00512942
0.00476526
0.0044426
0.00414172
0.113826
0.083741
0.0605736
0.0449941
0.0350018
0.0283069
0.0234987
0.0198337
0.0169371
0.0146068
0.0127146
0.011168
0.00989642
0.00884422
0.00796762
0.00723195
0.00660984
0.00607987
0.00562506
0.00523042
0.00488119
0.00457
0.0043014
0.00406088
0.116036
0.0848706
0.0607799
0.0447891
0.0346648
0.0279311
0.0230994
0.019412
0.0164951
0.0141499
0.0122501
0.0107036
0.00943919
0.00840059
0.00754336
0.00683239
0.00623998
0.00574433
0.00532795
0.00497527
0.00467112
0.00440711
0.00418464
0.00399324
0.119291
0.0868091
0.0615677
0.0448772
0.0345521
0.0277195
0.0228236
0.0190872
0.0161321
0.0137596
0.0118438
0.0102919
0.00903095
0.00800344
0.00716392
0.00647654
0.00591297
0.00545071
0.00507132
0.00475813
0.00449517
0.00427262
0.00408911
0.00393735
0.12368
0.0896508
0.0628805
0.0453549
0.0346328
0.0276654
0.0226664
0.018855
0.0158444
0.0134331
0.0114935
0.00993075
0.00866962
0.00765069
0.0068271
0.00616197
0.00562609
0.00519589
0.00485158
0.00457505
0.00434918
0.00416265
0.0040118
0.00389181
0.129313
0.0935129
0.0647735
0.0461647
0.0349549
0.0277414
0.0226232
0.0187117
0.0156292
0.0131679
0.011197
0.00961821
0.00835327
0.0073403
0.00653067
0.00588622
0.00537653
0.00497664
0.00466506
0.00442198
0.00422905
0.00407357
0.00395
0.00385533
0.136314
0.0985526
0.0672837
0.0473135
0.0355063
0.0279679
0.0226786
0.0186537
0.0154838
0.012962
0.0109526
0.0093526
0.00808014
0.00707034
0.00627248
0.00564682
0.00516147
0.00478971
0.00450807
0.00429495
0.00413089
0.00400208
0.00390138
0.00382677
0.144773
0.104949
0.0704268
0.0488021
0.0362554
0.0283549
0.022824
0.0186748
0.0154057
0.0128138
0.0107587
0.00913256
0.00784873
0.00683905
0.00605044
0.00544134
0.00497807
0.00463189
0.00437708
0.00419025
0.00405106
0.00394502
0.00386374
0.00380508
0.154714
0.112861
0.0741661
0.0506033
0.037186
0.0288705
0.0230809
0.0187664
0.0153937
0.0127221
0.0106148
0.00895729
0.00765799
0.00664501
0.00586267
0.0052674
0.00482354
0.00450001
0.00426871
0.00410444
0.00398613
0.00389913
0.00383479
0.00378877
0.167059
0.122237
0.078321
0.0526244
0.0382561
0.0294907
0.0234296
0.0189257
0.0154397
0.0126864
0.0105207
0.00882676
0.0075076
0.00648743
0.00570782
0.00512306
0.00469536
0.0043912
0.00418001
0.00403485
0.00393392
0.00386241
0.00381181
0.00377614
0.182973
0.13186
0.0822671
0.0546577
0.0394045
0.0301951
0.0238604
0.0191651
0.0155441
0.0127056
0.0104774
0.00874183
0.00739809
0.00636638
0.00558541
0.00500723
0.00459186
0.00430334
0.00410869
0.0039793
0.00389269
0.00383376
0.00379388
0.0037668
0.00657346
0.0305982
0.0747898
0.10838
0.123516
0.119056
0.0206384
0.0579004
0.0995033
0.132566
0.158274
0.188498
0.0299993
0.0784182
0.117765
0.149285
0.175846
0.19735
0.0372558
0.0923011
0.130243
0.160251
0.183831
0.19791
0.0432858
0.102385
0.13941
0.168105
0.188121
0.197084
0.0482866
0.109936
0.146431
0.174103
0.191073
0.196569
0.0523863
0.115656
0.151947
0.178906
0.19373
0.19687
0.0556783
0.119964
0.156347
0.182943
0.196553
0.198185
0.0582286
0.123113
0.15985
0.1865
0.199769
0.200628
0.0600805
0.125255
0.162589
0.189745
0.203483
0.20424
0.0612576
0.126472
0.164648
0.192745
0.207719
0.209047
0.061776
0.126789
0.166059
0.195491
0.212434
0.215056
0.0617612
0.126167
0.166773
0.197932
0.217515
0.222251
0.0613507
0.12454
0.166698
0.199953
0.222771
0.23057
0.0604573
0.121873
0.165664
0.201352
0.227944
0.239867
0.0589927
0.118096
0.16347
0.201787
0.232734
0.249862
0.0568605
0.113117
0.159871
0.200861
0.236632
0.260197
0.0539493
0.106842
0.154609
0.19805
0.238928
0.270284
0.0501324
0.0992028
0.147439
0.192816
0.238703
0.279328
0.045265
0.0901658
0.138127
0.18451
0.234783
0.286187
0.039205
0.0796597
0.126342
0.172259
0.225103
0.289066
0.031854
0.0673154
0.111279
0.15469
0.207091
0.285362
0.0226377
0.0512863
0.0903093
0.128912
0.176327
0.263611
0.00683415
0.0215619
0.0507957
0.0841564
0.13006
0.159299
0.198385
0.137944
0.0853418
0.0565084
0.0405796
0.0309633
0.0243625
0.0194751
0.0157103
0.0127764
0.0104855
0.00870399
0.00733069
0.00628266
0.00549569
0.00491955
0.00451211
0.00423501
0.00405304
0.00393602
0.00386081
0.00381198
0.00378051
0.00376038
0.203153
0.140001
0.0874646
0.0581648
0.0417576
0.031782
0.024927
0.0198535
0.015945
0.0129021
0.010541
0.00871353
0.00730689
0.00623734
0.00543922
0.00485998
0.00445546
0.00418511
0.00401166
0.00390349
0.0038368
0.00379576
0.00377093
0.00375619
0.19837
0.139078
0.0889029
0.0596633
0.0429406
0.0326478
0.0255525
0.0202959
0.0162462
0.0130942
0.0106505
0.00876736
0.00732535
0.00623157
0.00541678
0.00482865
0.00442156
0.00415288
0.00398359
0.00388071
0.00381967
0.00378418
0.00376425
0.00375352
0.191525
0.137038
0.0899218
0.061081
0.0441441
0.0335656
0.0262405
0.0208027
0.0166126
0.0133523
0.0108244
0.00887715
0.00738812
0.00626237
0.00542738
0.00482589
0.00441055
0.0041381
0.0039683
0.00386703
0.00380876
0.00377657
0.00375999
0.00375195
0.185749
0.135289
0.0908824
0.0625294
0.0454018
0.0345494
0.0269983
0.0213797
0.0170467
0.013675
0.0110608
0.00904686
0.00750655
0.00634136
0.00547611
0.00485269
0.0044225
0.00414087
0.00396601
0.00386244
0.00380379
0.00377276
0.00375778
0.00375127
0.181865
0.134449
0.0921346
0.0641115
0.0467587
0.035621
0.0278387
0.0220363
0.017557
0.0140689
0.0113624
0.00927521
0.00767716
0.00646641
0.00556519
0.00491341
0.00446134
0.00416363
0.00397793
0.00386778
0.0038055
0.00377296
0.00375754
0.00375113
0.179971
0.134746
0.093852
0.0659218
0.048267
0.0368103
0.0287805
0.0227852
0.0181527
0.0145416
0.0117357
0.00956818
0.00790513
0.00664161
0.0056971
0.00500961
0.00452842
0.00420798
0.0040057
0.00388425
0.00381464
0.00377738
0.00375938
0.0037516
0.179988
0.136279
0.0961658
0.0680653
0.0499865
0.0381516
0.0298441
0.0236402
0.0188442
0.0151015
0.0121879
0.00993188
0.00819587
0.00687176
0.00587629
0.00514545
0.00462759
0.0042772
0.0040519
0.00391383
0.00383268
0.00378711
0.00376395
0.003753
0.181822
0.139107
0.0992171
0.0706425
0.0519773
0.0396803
0.0310513
0.0246156
0.019642
0.015757
0.0127263
0.0103728
0.00855528
0.00716234
0.00610792
0.00532584
0.00476345
0.0043754
0.00411991
0.00395899
0.00386115
0.00380368
0.0037721
0.00375616
0.185419
0.143306
0.103135
0.0737526
0.0543024
0.041434
0.0324249
0.0257266
0.0205572
0.0165169
0.0133584
0.0108978
0.00898973
0.00751938
0.00639778
0.00555645
0.00494151
0.00450776
0.00421429
0.00402346
0.00390295
0.00382876
0.00378554
0.00376174
0.190764
0.148976
0.108058
0.0775019
0.0570298
0.0434534
0.0339893
0.0269886
0.0216007
0.0173898
0.0140917
0.0115139
0.00950586
0.00794931
0.00675221
0.00584358
0.00516807
0.00468042
0.0043407
0.00411208
0.00396189
0.00386518
0.00380589
0.00377074
0.197877
0.156252
0.114141
0.0820103
0.0602369
0.0457844
0.0357714
0.028418
0.0227836
0.0183845
0.0149337
0.0122279
0.0101103
0.00845876
0.00717782
0.00619391
0.00544994
0.00490024
0.00450576
0.00423078
0.00404285
0.00391654
0.0038351
0.00378419
0.206804
0.165292
0.121567
0.0874189
0.0640153
0.0484808
0.0378017
0.0300329
0.0241174
0.0195091
0.0158913
0.0130463
0.0108097
0.00905427
0.0076813
0.00661433
0.00579426
0.00517461
0.00471689
0.00438654
0.00415173
0.00398707
0.00387564
0.00380314
0.217592
0.176263
0.130551
0.0939
0.0684765
0.0516075
0.0401164
0.031853
0.0256138
0.0207716
0.016971
0.0139751
0.0116098
0.00974217
0.00826933
0.00711185
0.00620842
0.00551134
0.00498212
0.00458712
0.00429528
0.00408187
0.0039308
0.00382906
0.230266
0.189334
0.141318
0.10165
0.0737531
0.0552424
0.0427583
0.0339014
0.0272854
0.0221799
0.0181784
0.0150195
0.0125163
0.0105284
0.00894838
0.00769352
0.00669997
0.00591842
0.00530982
0.00484087
0.00448117
0.00420709
0.00400472
0.00386363
0.244789
0.204653
0.154092
0.110882
0.0799969
0.0594774
0.045779
0.0362046
0.0291459
0.0237416
0.0195189
0.0161841
0.0135336
0.0114181
0.00972442
0.00836601
0.00727624
0.00640375
0.00570836
0.00515643
0.00471768
0.00436985
0.00410284
0.00390927
0.260983
0.222322
0.169062
0.121805
0.0873727
0.0644173
0.0492385
0.0387943
0.0312112
0.0254649
0.0209971
0.0174722
0.0146654
0.0124155
0.0106025
0.00913526
0.00794393
0.0069747
0.00618569
0.00554218
0.00501337
0.00457829
0.00423155
0.00396886
0.278427
0.242411
0.186326
0.134593
0.0960446
0.0701769
0.0532041
0.0417073
0.0335002
0.0273589
0.0226175
0.0188866
0.0159139
0.0135234
0.0115862
0.0100059
0.00870858
0.00763762
0.00674891
0.00600598
0.00537676
0.00484085
0.00439739
0.00404523
0.296769
0.264398
0.205761
0.149329
0.106154
0.0768728
0.0577501
0.0449855
0.0360344
0.0294339
0.0243847
0.0204292
0.0172803
0.014743
0.0126777
0.0109809
0.00957417
0.0083975
0.00740395
0.00655472
0.00581554
0.00516535
0.00460681
0.00414116
0.315299
0.287384
0.226986
0.165926
0.117773
0.084606
0.0629526
0.0486755
0.038839
0.0317021
0.0263036
0.0221014
0.0187645
0.0160741
0.013877
0.0120612
0.0105429
0.00925766
0.00815534
0.00719403
0.00633626
0.00555873
0.00486585
0.00425929
0.332805
0.30982
0.249304
0.184029
0.130842
0.0934297
0.0688769
0.0528257
0.0419419
0.0341773
0.0283803
0.0239051
0.0203663
0.0175155
0.0151829
0.0132464
0.0116151
0.0102198
0.00900605
0.00792819
0.00694436
0.00602706
0.00517992
0.00440136
0.346965
0.329348
0.271233
0.202856
0.145074
0.103302
0.0755578
0.0574765
0.0453728
0.0368769
0.0306232
0.0258433
0.0220855
0.0190658
0.0165936
0.0145346
0.0127897
0.0112837
0.00995732
0.00875985
0.00764379
0.00657549
0.00555515
0.00456928
0.349528
0.342348
0.290881
0.221172
0.159876
0.114027
0.0829681
0.0626491
0.0491571
0.0398194
0.0330433
0.0279213
0.0239241
0.0207244
0.0181073
0.0159236
0.0140647
0.0124482
0.0110091
0.00969059
0.00843817
0.00720939
0.00599638
0.00476348
0.310683
0.340807
0.304441
0.237161
0.17431
0.125215
0.0909915
0.0683311
0.0533112
0.0430232
0.0356541
0.0301477
0.0258866
0.0224935
0.0197245
0.017413
0.015439
0.0137124
0.0121611
0.0107216
0.00933074
0.00793419
0.00650868
0.00498276
0.0104959
0.0167221
0.0240568
0.0271575
0.0276563
0.0391883
0.0285181
0.0418618
0.0519037
0.0518719
0.0507925
0.0642441
0.0373577
0.0542297
0.0668805
0.0667038
0.0652762
0.075594
0.043606
0.0645654
0.0788025
0.0785821
0.0764868
0.0846369
0.0482841
0.0739049
0.0890814
0.0889714
0.0863238
0.0924334
0.0520239
0.0822906
0.0981481
0.0985791
0.0957483
0.0998534
0.0551557
0.0898165
0.106303
0.107836
0.105287
0.1077
0.0578311
0.0965877
0.113798
0.116912
0.115259
0.116641
0.060127
0.102681
0.120795
0.125903
0.12584
0.127098
0.0620926
0.10813
0.127377
0.134826
0.137093
0.139305
0.0637697
0.112915
0.133559
0.143694
0.148975
0.153226
0.0652054
0.116955
0.139285
0.152387
0.161239
0.168666
0.066105
0.120272
0.144436
0.160673
0.173497
0.184975
0.0662401
0.122831
0.148832
0.168222
0.185199
0.201336
0.0657619
0.124495
0.152242
0.174629
0.195647
0.216644
0.0644311
0.124974
0.154403
0.179438
0.204051
0.229617
0.0622468
0.124251
0.154936
0.182059
0.209567
0.238949
0.0590853
0.121923
0.153751
0.182259
0.211304
0.242914
0.0548516
0.117639
0.1504
0.179634
0.209256
0.241716
0.0494592
0.110915
0.144497
0.173775
0.202614
0.234138
0.0429172
0.100983
0.135516
0.16423
0.190872
0.219891
0.0348504
0.0866625
0.122542
0.150241
0.173227
0.198111
0.0245005
0.0650893
0.103384
0.130115
0.147741
0.164238
0.00840946
0.0346713
0.0751553
0.101243
0.113821
0.116622
0.239771
0.326036
0.305951
0.249287
0.187373
0.136364
0.0994394
0.0744747
0.057839
0.0465047
0.0384714
0.0325345
0.0279819
0.0243794
0.02145
0.0190064
0.0169161
0.0150793
0.0134164
0.0118565
0.0103268
0.00875739
0.00709986
0.00522603
0.186426
0.297679
0.299696
0.257699
0.19847
0.147001
0.108092
0.0810135
0.0627352
0.050279
0.0415134
0.0350983
0.0302238
0.0263945
0.0232952
0.0207158
0.0185082
0.0165621
0.0147892
0.0131099
0.0114414
0.00969589
0.00778725
0.00549592
0.149035
0.268979
0.287313
0.25914
0.206669
0.156631
0.116696
0.087859
0.067989
0.054361
0.0448007
0.0378586
0.0326306
0.0285563
0.0252795
0.0225634
0.0202425
0.0181939
0.0163187
0.0145269
0.0127242
0.0108029
0.00862474
0.00581874
0.126193
0.24267
0.272144
0.256327
0.212542
0.165052
0.125035
0.0949088
0.0735794
0.0587633
0.0483546
0.0408366
0.0352216
0.0308845
0.0274251
0.0245782
0.0221594
0.0200322
0.018086
0.0162193
0.0143233
0.0122668
0.00984613
0.0064872
0.11842
0.219151
0.256352
0.250493
0.216419
0.17222
0.13295
0.102059
0.0794738
0.0634922
0.052193
0.0440497
0.0380108
0.0333903
0.0297438
0.0267773
0.0242888
0.0221321
0.0201929
0.0183713
0.0165688
0.0147006
0.0128208
0.0114918
0.119252
0.200493
0.241015
0.241056
0.217118
0.177804
0.140231
0.109176
0.0856177
0.0685406
0.0563257
0.0475076
0.0410007
0.0360675
0.0322212
0.0291407
0.0266108
0.0244861
0.0226692
0.0210969
0.0197335
0.0185853
0.0177856
0.0176565
0.122832
0.186469
0.226649
0.231113
0.215471
0.181714
0.146666
0.116096
0.0919252
0.0738812
0.0607515
0.051212
0.0441848
0.0388968
0.0348244
0.0316215
0.0290625
0.0270056
0.0253694
0.0241157
0.0232343
0.0227388
0.0226802
0.0230423
0.129147
0.177092
0.214016
0.221319
0.21218
0.184658
0.152248
0.122672
0.0982843
0.0794627
0.0654566
0.0551608
0.0475569
0.0418618
0.0375255
0.0341806
0.0315918
0.0296171
0.0281783
0.0272351
0.0267604
0.0267254
0.0270709
0.0276605
0.138001
0.172991
0.203797
0.212023
0.206888
0.18592
0.156795
0.128755
0.104572
0.0852157
0.0704168
0.0593513
0.0511173
0.044956
0.0403064
0.0367856
0.0341473
0.0322415
0.0309786
0.030297
0.030136
0.0303979
0.0310057
0.0317115
0.149321
0.174472
0.196837
0.203808
0.200811
0.185352
0.160095
0.134135
0.110642
0.0910537
0.075598
0.0637815
0.0548754
0.0481856
0.0431619
0.0394136
0.0366821
0.0348023
0.0336628
0.0331728
0.0332302
0.0336947
0.0344748
0.0352594
0.163411
0.179425
0.194073
0.197261
0.195028
0.183904
0.162289
0.138669
0.116326
0.0968641
0.0809485
0.0684449
0.0588473
0.0515702
0.0461019
0.0420558
0.0391631
0.0372402
0.03615
0.0357714
0.0359519
0.0365583
0.0374502
0.038294
0.179984
0.190007
0.195794
0.194235
0.190533
0.181693
0.16349
0.142358
0.121457
0.102507
0.08639
0.0733209
0.0630493
0.0551402
0.0491523
0.0447219
0.0415776
0.0395197
0.0383866
0.0380297
0.0382563
0.038934
0.0398945
0.0407833
0.198572
0.206065
0.202357
0.195223
0.188459
0.179343
0.163937
0.145222
0.125948
0.107841
0.0918183
0.078366
0.0674891
0.0589318
0.0523562
0.0474452
0.0439404
0.041635
0.04035
0.0399152
0.0401134
0.0407865
0.0417733
0.042693
0.218254
0.225704
0.216413
0.200443
0.189475
0.178922
0.164497
0.147593
0.12987
0.112759
0.0971257
0.0835178
0.0721601
0.0629819
0.0557724
0.0502874
0.046302
0.043619
0.0420547
0.0414259
0.0415177
0.0420985
0.0430626
0.0439946
0.237943
0.247653
0.236519
0.213003
0.194531
0.18051
0.165834
0.149939
0.133461
0.117327
0.102242
0.0887049
0.0770374
0.0673188
0.0594699
0.0533385
0.0487551
0.0455534
0.0435642
0.0426058
0.0424847
0.0428858
0.0437573
0.0446742
0.256133
0.269409
0.259645
0.233281
0.206807
0.186362
0.169379
0.153136
0.137205
0.121791
0.10724
0.0939103
0.0821002
0.0719626
0.0635201
0.0567116
0.0514366
0.0475786
0.0450054
0.0435595
0.0430577
0.0432258
0.0438728
0.0447344
0.270772
0.287997
0.282258
0.257672
0.226465
0.199431
0.17752
0.158877
0.142166
0.12675
0.112431
0.0992624
0.0873947
0.0769535
0.0680004
0.0605362
0.054522
0.0498976
0.0465834
0.0444698
0.0434068
0.0432099
0.0435563
0.0443005
0.279122
0.300498
0.30042
0.280848
0.249771
0.218682
0.191688
0.169116
0.150024
0.13341
0.118586
0.10521
0.0931652
0.0824362
0.0730355
0.064967
0.0582197
0.0527722
0.0485939
0.0456354
0.0438099
0.0429863
0.0429679
0.0433853
0.279815
0.304636
0.310142
0.297136
0.27091
0.240313
0.210765
0.184647
0.162364
0.143405
0.127055
0.112735
0.100069
0.0888376
0.0789203
0.0702517
0.0627927
0.0565192
0.0514178
0.0474797
0.0446847
0.0429912
0.0422649
0.0423318
0.271727
0.298867
0.308345
0.302343
0.284044
0.258248
0.2303
0.203324
0.178943
0.157614
0.139157
0.12317
0.109242
0.0970381
0.0863114
0.0768911
0.0686629
0.0615534
0.0555208
0.0505493
0.0466416
0.0438034
0.0420756
0.0414778
0.255013
0.282043
0.294067
0.294885
0.284855
0.266735
0.244232
0.220101
0.196437
0.174443
0.154627
0.137072
0.121634
0.108087
0.0961908
0.0857363
0.0765523
0.0685082
0.0615109
0.0555012
0.0504535
0.046343
0.043274
0.0415516
0.231151
0.255022
0.268791
0.274683
0.272768
0.263196
0.247783
0.229412
0.209536
0.18958
0.170468
0.152722
0.136567
0.122041
0.10907
0.0975337
0.0872949
0.0782235
0.0702076
0.0631549
0.0570076
0.0517082
0.0472415
0.0437631
0.201986
0.221619
0.235669
0.245022
0.249303
0.247559
0.240303
0.228195
0.213798
0.198164
0.182038
0.166162
0.150999
0.136816
0.123738
0.111793
0.100957
0.0911679
0.082358
0.0744473
0.0673875
0.0610784
0.0556545
0.050267
0.169543
0.188095
0.200661
0.211588
0.219725
0.223276
0.222161
0.217176
0.208522
0.197715
0.185852
0.173485
0.161042
0.148899
0.137282
0.126331
0.116125
0.106689
0.0980207
0.0900817
0.0828742
0.0762385
0.0706025
0.0642534
0.00335416
0.00773496
0.0182418
0.0338267
0.0570559
0.0936948
0.0144468
0.0221988
0.0363822
0.0535968
0.0769173
0.107809
0.018794
0.0311467
0.0469248
0.0645481
0.0862604
0.111479
0.02121
0.0369874
0.0537057
0.0714766
0.0915145
0.112045
0.0230852
0.0413088
0.0586353
0.0763294
0.0948059
0.111894
0.0243196
0.0447113
0.0624049
0.0798837
0.0970436
0.111765
0.0249247
0.0475189
0.065329
0.0825231
0.0986519
0.111837
0.0255922
0.0497215
0.0675681
0.0844568
0.0998202
0.112111
0.0261975
0.0513668
0.069217
0.0858032
0.100612
0.112463
0.0266405
0.0524995
0.0703351
0.0866306
0.101042
0.112757
0.0268933
0.0531502
0.0709603
0.086975
0.101092
0.112856
0.0269373
0.0533376
0.0711164
0.0868582
0.100728
0.112625
0.0267659
0.053068
0.0708153
0.0862713
0.0999027
0.111939
0.0264315
0.0523291
0.0700582
0.0852104
0.0985691
0.110682
0.0259586
0.0511132
0.0688353
0.0836581
0.0966821
0.108769
0.0253847
0.0494157
0.0671276
0.0815919
0.0942055
0.106142
0.0249908
0.0472579
0.0649139
0.0789877
0.0911144
0.102775
0.0249625
0.0447322
0.0621835
0.0758215
0.0873958
0.0986651
0.0245368
0.0420089
0.0589309
0.0720565
0.0830471
0.0938517
0.0236405
0.0390532
0.055092
0.0676053
0.0780365
0.0883858
0.022216
0.0356307
0.0504443
0.0622489
0.0721586
0.0821876
0.0202672
0.0312654
0.0444067
0.0554299
0.0647082
0.075175
0.0164389
0.0244819
0.0352395
0.045498
0.0534891
0.0656897
0.00432772
0.00898201
0.0158683
0.0249373
0.0315741
0.0421467
0.144372
0.159978
0.170364
0.181098
0.190466
0.196662
0.199221
0.198487
0.195027
0.189134
0.181719
0.173379
0.164616
0.155798
0.147121
0.138714
0.130774
0.123372
0.116544
0.110294
0.104632
0.0994616
0.0950634
0.0904231
0.132575
0.141154
0.149121
0.158384
0.166988
0.173483
0.177387
0.178813
0.178192
0.175862
0.172106
0.167538
0.162524
0.157357
0.152408
0.147805
0.143523
0.139729
0.136487
0.133854
0.131803
0.130294
0.129301
0.128877
0.126453
0.130813
0.137023
0.144674
0.15178
0.157265
0.160913
0.162829
0.1633
0.162734
0.161309
0.159431
0.157385
0.155384
0.153609
0.152383
0.151849
0.15192
0.152514
0.153614
0.155041
0.156601
0.158123
0.159508
0.122921
0.125986
0.131524
0.138329
0.144503
0.149149
0.152142
0.15371
0.154199
0.153987
0.153371
0.15266
0.152095
0.151867
0.152035
0.15269
0.153867
0.155545
0.157609
0.159932
0.162296
0.164446
0.166185
0.167447
0.121086
0.12437
0.129952
0.13658
0.142477
0.146829
0.149553
0.150926
0.151327
0.151128
0.150649
0.150177
0.149923
0.150013
0.150523
0.151523
0.152941
0.154686
0.156689
0.158781
0.160785
0.162473
0.163596
0.164223
0.120394
0.124598
0.130908
0.137988
0.144186
0.148754
0.151639
0.153131
0.153629
0.153489
0.153025
0.152487
0.152068
0.151891
0.152012
0.152454
0.153202
0.154162
0.1552
0.156155
0.156862
0.157207
0.157251
0.157172
0.120519
0.126238
0.133848
0.142009
0.149153
0.154567
0.15822
0.160388
0.16145
0.161742
0.161557
0.161106
0.160556
0.160005
0.159511
0.159086
0.158715
0.158364
0.157998
0.157591
0.157141
0.156682
0.156267
0.155968
0.121239
0.128783
0.138138
0.14789
0.156483
0.163219
0.168078
0.171338
0.173349
0.174435
0.174868
0.174843
0.174505
0.173933
0.173188
0.172273
0.17118
0.169902
0.168442
0.166833
0.165166
0.163642
0.162572
0.161984
0.122308
0.13187
0.143297
0.154978
0.165303
0.173576
0.179814
0.184297
0.187378
0.18939
0.190655
0.191311
0.191459
0.191224
0.190665
0.189727
0.18842
0.186744
0.184708
0.182343
0.179713
0.177002
0.17457
0.172643
0.123497
0.135186
0.148859
0.162555
0.174558
0.184182
0.191569
0.196952
0.200749
0.203318
0.204831
0.205514
0.205565
0.205133
0.204236
0.20279
0.200809
0.198307
0.195262
0.191672
0.187638
0.183425
0.179524
0.176121
0.124581
0.138423
0.154306
0.169737
0.1829
0.193104
0.200242
0.205044
0.208095
0.209838
0.210668
0.210798
0.21038
0.20947
0.207984
0.205931
0.203334
0.200168
0.19641
0.192046
0.187106
0.181627
0.176149
0.170202
0.125346
0.14126
0.159029
0.175406
0.187991
0.196876
0.202985
0.206846
0.208922
0.20969
0.209316
0.208211
0.206398
0.203897
0.200813
0.197151
0.192898
0.188032
0.182527
0.176362
0.169595
0.162058
0.15467
0.145261
0.125587
0.14339
0.162314
0.177673
0.18887
0.196078
0.199866
0.201069
0.200285
0.198367
0.195292
0.191442
0.187007
0.182052
0.176608
0.170665
0.164218
0.157226
0.149684
0.141588
0.133087
0.12388
0.115489
0.104017
0.125152
0.144575
0.163259
0.176744
0.184403
0.187504
0.187072
0.184567
0.180114
0.174576
0.168351
0.161652
0.154603
0.14726
0.13963
0.1317
0.123469
0.114953
0.106294
0.0976018
0.0888365
0.0802919
0.0728186
0.0652052
0.123962
0.144773
0.161908
0.170652
0.172902
0.170878
0.166181
0.15921
0.151293
0.142881
0.134252
0.125587
0.116962
0.108384
0.0998722
0.0915375
0.0834176
0.0756055
0.0684216
0.0620704
0.0569585
0.052933
0.0500395
0.0482398
0.122061
0.144168
0.157298
0.15961
0.156387
0.149698
0.140763
0.131037
0.121136
0.1114
0.102028
0.0931322
0.0847032
0.0768148
0.0695651
0.0630339
0.0573561
0.0526951
0.0488755
0.045818
0.0435181
0.0420139
0.0413433
0.0416327
0.119621
0.143124
0.149705
0.146668
0.139291
0.129134
0.118252
0.107455
0.0972124
0.0877345
0.0791173
0.0713425
0.0644347
0.0584154
0.0532647
0.0489274
0.0453718
0.0424888
0.0402147
0.0385429
0.0375155
0.037191
0.0374815
0.038656
0.116848
0.141893
0.141355
0.136035
0.125993
0.11443
0.10271
0.0917332
0.0818646
0.0731809
0.0656281
0.0591287
0.0536115
0.048956
0.0450514
0.0418054
0.0391371
0.037014
0.0354439
0.0344729
0.0341531
0.0343482
0.0350774
0.0368792
0.11373
0.140037
0.136964
0.130062
0.118287
0.105086
0.0925255
0.0814094
0.071862
0.06376
0.0569201
0.0511709
0.0463409
0.0422941
0.0389302
0.0361806
0.034008
0.0324008
0.0313777
0.0309831
0.031121
0.031693
0.0329349
0.0351193
0.110679
0.138857
0.135509
0.12762
0.112767
0.0976117
0.0843
0.0731409
0.0638966
0.0562481
0.0499134
0.0446661
0.0403333
0.0367872
0.0339322
0.0316965
0.0300326
0.0289229
0.0283756
0.0283906
0.0287762
0.0297136
0.0312607
0.0334778
0.109491
0.13861
0.136328
0.125939
0.107064
0.0903249
0.0767205
0.0658003
0.057002
0.0498639
0.0440607
0.0393546
0.0355656
0.0325502
0.0301925
0.0284055
0.0271363
0.0263666
0.0261042
0.0262641
0.0268443
0.0279398
0.0295323
0.0316571
0.116976
0.144527
0.141324
0.122962
0.100454
0.0830539
0.0697005
0.059296
0.0510612
0.0444968
0.0392609
0.035098
0.0318074
0.0292291
0.0272418
0.0257625
0.0247448
0.0241737
0.024056
0.0242968
0.024963
0.026068
0.0276159
0.0295944
0.135717
0.156375
0.143965
0.115793
0.0928043
0.0759218
0.0632639
0.0535301
0.0459329
0.0399707
0.0352899
0.0316213
0.0287549
0.0265299
0.0248292
0.0235747
0.0227232
0.0222602
0.0221902
0.0224423
0.0230868
0.0241171
0.025551
0.0273564
0.163282
0.169853
0.141944
0.10809
0.0852982
0.0692747
0.0574544
0.0484661
0.0415369
0.0361694
0.0320044
0.0287692
0.0262551
0.0243069
0.0228137
0.0217033
0.0209362
0.0204997
0.0203993
0.0205994
0.0211407
0.0220357
0.0233119
0.024937
)
;

boundaryField
{
    rotor
    {
        type            kqRWallFunction;
        value           nonuniform List<scalar> 
144
(
0.00578533
0.0303699
0.0744017
0.121398
0.153863
0.160748
0.00578533
0.0182206
0.0263663
0.0321121
0.036521
0.0398675
0.0423373
0.0440651
0.0451503
0.0456634
0.0456563
0.04516
0.0442182
0.0429451
0.0413447
0.0394041
0.0371056
0.0344
0.0311201
0.0267244
0.0244496
0.0224117
0.0184495
0.00535435
0.00535435
0.00805849
0.01505
0.0242635
0.0408346
0.119057
0.00657346
0.0305982
0.0747898
0.10838
0.123516
0.119056
0.00657346
0.0206384
0.0299993
0.0372558
0.0432858
0.0482866
0.0523863
0.0556783
0.0582286
0.0600805
0.0612576
0.061776
0.0617612
0.0613507
0.0604573
0.0589927
0.0568605
0.0539493
0.0501324
0.045265
0.039205
0.031854
0.0226377
0.00683415
0.00683415
0.0215619
0.0507957
0.0841564
0.13006
0.159299
0.0104959
0.0167221
0.0240568
0.0271575
0.0276563
0.0391883
0.0104959
0.0285181
0.0373577
0.043606
0.0482841
0.0520239
0.0551557
0.0578311
0.060127
0.0620926
0.0637697
0.0652054
0.066105
0.0662401
0.0657619
0.0644311
0.0622468
0.0590853
0.0548516
0.0494592
0.0429172
0.0348504
0.0245005
0.00840946
0.00840946
0.0346713
0.0751553
0.101243
0.113821
0.116622
0.00335416
0.00773496
0.0182418
0.0338267
0.0570559
0.0936948
0.00335416
0.0144468
0.018794
0.02121
0.0230852
0.0243196
0.0249247
0.0255922
0.0261975
0.0266405
0.0268933
0.0269373
0.0267659
0.0264315
0.0259586
0.0253847
0.0249908
0.0249625
0.0245368