/*--------------------------------*- C++ -*----------------------------------*\
  =========                 |
  \\      /  F ield         | OpenFOAM: The Open Source CFD Toolbox
   \\    /   O peration     | Website:  https://openfoam.org
    \\  /    A nd           | Version:  11
     \\/     M anipulation  |
\*---------------------------------------------------------------------------*/
FoamFile
{
    format      ascii;
    class       volScalarField;
    location    "1.7";
    object      nut;
}
// * * * * * * * * * * * * * * * * * * * * * * * * * * * * * * * * * * * * * //

dimensions      [0 2 -1 0 0 0 0];

internalField   nonuniform List<scalar> 
2880
(
1.11801e-06
1.13534e-05
4.57003e-05
0.000111076
0.00019776
5.52637e-05
3.15912e-05
8.27874e-05
0.000182887
0.000304249
0.000371967
0.000394439
4.86427e-05
0.000171334
0.000312285
0.000458894
0.000562286
0.000643125
5.36743e-05
0.000245303
0.000407777
0.00055496
0.000665357
0.000720757
5.72345e-05
0.000301565
0.000472092
0.000606586
0.000698645
0.000725634
5.97938e-05
0.000341303
0.000511235
0.000627512
0.00069297
0.000706842
6.16131e-05
0.000366898
0.000530902
0.000626739
0.000668827
0.000683519
6.28534e-05
0.000381112
0.000536682
0.000613231
0.00063823
0.000661799
6.36191e-05
0.000386578
0.000532684
0.00059311
0.000608749
0.000645727
6.39766e-05
0.000385313
0.000522147
0.000569845
0.00058256
0.000634325
6.39704e-05
0.00037874
0.000507233
0.000545732
0.000558851
0.000625949
6.36209e-05
0.000367791
0.000489175
0.000521983
0.000535787
0.000618296
6.29539e-05
0.000352992
0.000468749
0.000498414
0.000513977
0.000609618
6.20396e-05
0.000334521
0.000446315
0.000474029
0.000490709
0.000598755
6.08714e-05
0.000312888
0.000422048
0.000448599
0.000465729
0.000582539
5.9425e-05
0.000288528
0.000396359
0.000421094
0.000438639
0.000560226
5.76655e-05
0.000261683
0.000369687
0.000391145
0.000408566
0.00053005
5.55234e-05
0.000232822
0.000341551
0.000357557
0.000374907
0.000490532
5.28104e-05
0.000203217
0.000311005
0.000319567
0.000337278
0.000440416
4.89435e-05
0.000175363
0.000276288
0.000276173
0.000293691
0.000378935
0.000195463
0.000155465
0.000234092
0.000230468
0.000237779
0.000309453
0.000179182
0.000118502
0.000180576
0.000186605
0.000167221
0.000230947
3.19763e-05
5.47196e-05
9.9855e-05
0.000121553
9.17774e-05
0.000132724
1.03429e-06
3.01117e-06
9.24491e-06
2.21868e-05
5.23335e-05
4.72414e-05
0.000235895
0.000545983
0.000706555
0.000803796
0.000889738
0.00099121
0.001115
0.00126294
0.00143588
0.00163345
0.00185375
0.00209347
0.00234844
0.0026143
0.00288737
0.00316528
0.00344705
0.00373161
0.00401473
0.00427822
0.00450303
0.00471369
0.00487211
0.00496114
0.000580664
0.000746468
0.000786146
0.000844712
0.000939504
0.00106349
0.00121321
0.00138922
0.00159177
0.00181898
0.00206699
0.00233068
0.00260419
0.00288159
0.0031576
0.00342844
0.00369206
0.00394737
0.00419202
0.00441955
0.00460626
0.00476879
0.00489985
0.004977
0.000752446
0.000764116
0.000805258
0.00089176
0.00100866
0.00115193
0.00132427
0.00152707
0.00175823
0.00201295
0.00228499
0.00256737
0.00285271
0.00313372
0.00340389
0.00365836
0.00389449
0.00411165
0.00430961
0.00448622
0.00463627
0.00474531
0.0048417
0.00490822
0.00077584
0.000786024
0.000845992
0.000944862
0.00107568
0.00124009
0.00143951
0.00167164
0.00193096
0.0022103
0.00250181
0.00279733
0.00308851
0.00336708
0.00362557
0.00385813
0.00406135
0.00423448
0.00437879
0.00449615
0.00458759
0.00465333
0.0046978
0.00474725
0.000765449
0.000798319
0.000879002
0.000996095
0.00114752
0.00133645
0.0015632
0.00182282
0.0021071
0.00240688
0.0027131
0.00301676
0.00330881
0.00358038
0.00382333
0.00403103
0.00419917
0.0043261
0.00441298
0.00446365
0.00448496
0.00448661
0.00447962
0.00449491
0.000751951
0.000815994
0.000918
0.00105156
0.00122231
0.00143571
0.00168977
0.00197561
0.00228206
0.00259846
0.00291506
0.00322253
0.00351153
0.00377293
0.00399835
0.00418082
0.00431538
0.00439928
0.00443205
0.00441593
0.00435784
0.00427337
0.00418542
0.00413454
0.000745424
0.00083894
0.000957931
0.00110706
0.00129844
0.00153738
0.00181819
0.0021279
0.002453
0.00278201
0.00310501
0.00341266
0.00369565
0.00394491
0.00415226
0.00431102
0.00441641
0.00446554
0.00445686
0.00438938
0.00426188
0.00407308
0.00382049
0.00346631
0.000750934
0.00086652
0.000998995
0.00116301
0.00137514
0.00163937
0.00194564
0.00227663
0.00261698
0.00295497
0.00328096
0.00358585
0.00386055
0.00409633
0.00428555
0.00442237
0.00450311
0.00452614
0.00449139
0.00439951
0.00425106
0.00404642
0.00378656
0.00347213
0.000762372
0.000895639
0.0010392
0.00121753
0.00145037
0.00173955
0.00206996
0.00241957
0.00277189
0.00311558
0.00344159
0.00374121
0.0040057
0.00422675
0.00439742
0.00451297
0.00457118
0.00457222
0.00451799
0.00441124
0.0042547
0.00405084
0.00380253
0.00350839
0.00077723
0.000924781
0.00107759
0.00126954
0.00152248
0.00183602
0.00218931
0.00255492
0.00291619
0.00326267
0.00358612
0.00387832
0.00413084
0.00433578
0.00448694
0.00458074
0.00461655
0.00459643
0.00452435
0.00440505
0.00424283
0.00404145
0.00380501
0.00353133
0.000793579
0.000952728
0.0011131
0.00131718
0.00159011
0.0019274
0.00230232
0.00268143
0.0030489
0.00339565
0.00371434
0.00399724
0.00423615
0.00442354
0.00455392
0.0046249
0.00463749
0.00459567
0.00450543
0.00437338
0.00420547
0.0040069
0.00378346
0.00353435
0.000809752
0.000977991
0.00114476
0.00136081
0.00165321
0.00201298
0.00240804
0.00279829
0.00316957
0.00351443
0.00382652
0.0040985
0.00432234
0.00449082
0.00459918
0.0046463
0.00463503
0.00457148
0.00446378
0.0043205
0.00414912
0.00395604
0.00374814
0.00352599
0.000824572
0.0010012
0.00117336
0.00140013
0.00171104
0.00209194
0.00250569
0.00290506
0.00327816
0.00361937
0.00392334
0.00418307
0.00439062
0.00453901
0.00462428
0.0046468
0.00461145
0.00452674
0.0044031
0.00425099
0.00407916
0.00389471
0.00370486
0.00351101
0.000837742
0.00102217
0.00119865
0.00143472
0.00176311
0.00216377
0.00259482
0.00300169
0.00337501
0.00371114
0.0040058
0.00425226
0.00444254
0.00456994
0.00463137
0.00462892
0.00456986
0.0044653
0.00432804
0.0041702
0.00400134
0.0038286
0.00365867
0.00349298
0.000848937
0.00104119
0.00122052
0.00146443
0.00180914
0.0022283
0.00267514
0.00308843
0.00346073
0.0037907
0.00407516
0.00430758
0.00447994
0.00458576
0.00462299
0.00459573
0.00451395
0.00439158
0.0042437
0.00408368
0.00392121
0.0037627
0.00361347
0.00347437
0.000857063
0.00106066
0.00123816
0.00148882
0.00184917
0.00228576
0.00274639
0.0031658
0.00353618
0.00385915
0.00413279
0.00435075
0.00450483
0.00458882
0.00460192
0.00455053
0.00444762
0.00431008
0.004155
0.00399639
0.00384329
0.00370062
0.00357176
0.00345668
0.00086205
0.00107554
0.0012606
0.00150588
0.00188316
0.00233651
0.00280918
0.00323463
0.00360233
0.00391769
0.00418017
0.0043835
0.00451927
0.00458159
0.00457106
0.00449669
0.00437477
0.00422508
0.00406628
0.0039123
0.00377075
0.00364453
0.00353483
0.0034407
0.000863707
0.0010905
0.00127516
0.00152645
0.00190893
0.00238087
0.00286462
0.00329586
0.00366021
0.00396756
0.00421876
0.00440758
0.00452536
0.00456651
0.00453326
0.00443752
0.00429902
0.0041403
0.00398102
0.00383424
0.00370552
0.00359546
0.00350313
0.0034268
0.000861108
0.0011058
0.00129013
0.00154959
0.00193566
0.0024159
0.00291368
0.00335047
0.00371085
0.00400993
0.00424996
0.00442468
0.00452509
0.00454597
0.00449127
0.00437606
0.00422358
0.00405881
0.00390177
0.00376393
0.00364844
0.00355357
0.00347657
0.00341507
0.00085296
0.00112275
0.00130522
0.00156719
0.00196581
0.00244874
0.00295452
0.00339939
0.00375519
0.0040459
0.00427507
0.00443634
0.00452034
0.00452218
0.00444764
0.00431504
0.00415114
0.00398294
0.00383015
0.00370216
0.00359956
0.0035185
0.00345475
0.00340547
0.00083709
0.0011432
0.00132207
0.00158879
0.00199809
0.00248761
0.00298824
0.00344226
0.00379408
0.00407649
0.00429525
0.00444397
0.0045128
0.00449714
0.0044046
0.0042568
0.00408383
0.00391429
0.00376705
0.00364906
0.00355842
0.00348957
0.00343714
0.00339785
0.000811547
0.00117021
0.00134806
0.00162087
0.00203491
0.00252935
0.00302746
0.00347733
0.0038286
0.00410263
0.00431155
0.00444879
0.00450397
0.00447264
0.00436414
0.00420325
0.00402321
0.00385382
0.0037127
0.00360424
0.00352426
0.00346587
0.00342307
0.00339191
0.000786155
0.00121478
0.00139598
0.00166654
0.00207762
0.00257365
0.00306923
0.00351132
0.00385591
0.00412501
0.0043249
0.00445191
0.00449519
0.00445026
0.00432795
0.00415597
0.00397042
0.00380202
0.00366694
0.00356713
0.00349638
0.00344673
0.00341181
0.00338719
0.000814376
0.00129693
0.00145428
0.00171847
0.00212651
0.00262182
0.00311417
0.00354964
0.00388204
0.00414315
0.00433614
0.00445435
0.00448767
0.00443146
0.0042976
0.00411635
0.00392637
0.00375913
0.00362944
0.00353703
0.00347404
0.00343157
0.00340295
0.00338358
1.26779e-06
1.14151e-05
4.58724e-05
9.89428e-05
0.000157194
4.74464e-05
3.57252e-05
6.46264e-05
0.000144864
0.000253276
0.000356638
0.000382011
5.17839e-05
0.000144648
0.000270983
0.000425363
0.000583021
0.000708738
5.77091e-05
0.000223835
0.000392011
0.000584386
0.00078022
0.000966251
6.22044e-05
0.000296959
0.00050299
0.000726515
0.000943415
0.00115652
6.56996e-05
0.00036196
0.000602114
0.000850479
0.00107632
0.00129721
6.84323e-05
0.000416745
0.000688501
0.000955956
0.00118438
0.00140314
7.05504e-05
0.000461166
0.000761891
0.00104379
0.00127229
0.00148445
7.21492e-05
0.000495427
0.000822071
0.00111544
0.00134387
0.0015481
7.32892e-05
0.000519812
0.000869163
0.00117221
0.00140188
0.00159881
7.40058e-05
0.000534565
0.000903541
0.00121498
0.00144952
0.00163943
7.43209e-05
0.000539713
0.000925491
0.00124487
0.00148543
0.00167075
7.43135e-05
0.000534557
0.00093483
0.00126199
0.00151012
0.0016943
7.40692e-05
0.000518904
0.000931635
0.00126633
0.00152283
0.00171012
7.35321e-05
0.000494624
0.000915288
0.00125808
0.00152244
0.0017171
7.26413e-05
0.000463528
0.000885902
0.00123555
0.0015078
0.00171298
7.1323e-05
0.000426832
0.000843705
0.00119669
0.00147593
0.00169414
6.94807e-05
0.000385376
0.000788405
0.0011379
0.00142205
0.00165317
6.69859e-05
0.000340878
0.000718885
0.00105481
0.00133985
0.00158034
6.36598e-05
0.000293339
0.000632176
0.000941054
0.00122114
0.0014605
5.92538e-05
0.000240914
0.000522016
0.000788189
0.00104962
0.0012653
5.34184e-05
0.000177987
0.00037953
0.00058672
0.000806012
0.00095411
3.92222e-05
9.33188e-05
0.000201443
0.000332114
0.000484875
0.000502988
1.31979e-06
8.04273e-06
3.11531e-05
7.68923e-05
0.000165695
5.49441e-05
0.000899211
0.00135627
0.0015132
0.00177745
0.002183
0.00267448
0.00316231
0.00359048
0.00390957
0.00416024
0.00434544
0.00445699
0.00448248
0.0044175
0.00427447
0.00408563
0.00389188
0.00372542
0.00359994
0.0035134
0.00345654
0.00341981
0.00339616
0.00338094
0.00115329
0.00147423
0.00159614
0.00185021
0.0022472
0.00273092
0.00321303
0.00363401
0.00394247
0.00417864
0.00435503
0.00446038
0.00448036
0.00440944
0.00425974
0.00406488
0.00386764
0.00370108
0.00357826
0.0034958
0.0034434
0.00341095
0.00339111
0.00337911
0.00133138
0.00159187
0.00169803
0.00193229
0.00231604
0.00278851
0.00325901
0.00366841
0.00397061
0.00420156
0.00436936
0.00446707
0.00448245
0.00440813
0.0042543
0.00405491
0.00385423
0.00368634
0.00356427
0.00348393
0.00343425
0.00340464
0.00338751
0.00337787
0.00144596
0.00168577
0.00179349
0.0020142
0.00238348
0.00284024
0.003297
0.00369267
0.00398826
0.00421585
0.00438167
0.0044784
0.0044921
0.00441468
0.00425845
0.00405618
0.00385211
0.00368153
0.00355801
0.0034777
0.00342898
0.00340058
0.00338508
0.00337706
0.00153088
0.00176048
0.00187444
0.00208916
0.00244388
0.00288231
0.00332533
0.00370781
0.00399756
0.00422188
0.00438697
0.00448507
0.00450196
0.00442849
0.0042736
0.00406954
0.00386145
0.00368638
0.00355968
0.00347723
0.00342717
0.00339875
0.00338398
0.00337671
0.00159844
0.00181848
0.00194103
0.00215206
0.00248986
0.00291246
0.00334481
0.00371756
0.00400332
0.00422608
0.00439156
0.00449224
0.00451406
0.0044469
0.00429717
0.00409453
0.00388349
0.00370275
0.00356993
0.00348282
0.0034294
0.00339947
0.00338408
0.00337667
0.00165514
0.00185897
0.0019926
0.00219734
0.00252205
0.00293216
0.00335573
0.00372091
0.00400466
0.00422769
0.00439533
0.00450064
0.00452989
0.00447197
0.00433047
0.00413163
0.0039183
0.00373071
0.00358965
0.00349537
0.00343704
0.00340326
0.00338566
0.00337704
0.00170254
0.00188715
0.00202851
0.00222877
0.00254202
0.00294048
0.00335669
0.00371699
0.00400092
0.0042262
0.00439786
0.00450968
0.00454855
0.00450258
0.00437249
0.00418031
0.00396617
0.00377122
0.00361988
0.00351582
0.00345019
0.00341041
0.00338889
0.00337792
0.00174183
0.00190668
0.00205272
0.00224762
0.00254925
0.00293656
0.00334665
0.00370498
0.0039914
0.00422096
0.00439849
0.00451862
0.00456906
0.00453751
0.00442196
0.00423975
0.00402713
0.00382516
0.00366193
0.00354539
0.00346918
0.00342223
0.00339435
0.00337954
0.00177465
0.00191979
0.00206694
0.00225474
0.00254388
0.00292001
0.00332487
0.00368407
0.00397532
0.00421124
0.00439648
0.0045266
0.00459034
0.00457537
0.00447727
0.00430859
0.00410066
0.00389315
0.00371726
0.00358587
0.00349614
0.00343837
0.00340293
0.00338223
0.00180165
0.00192812
0.00207244
0.00225104
0.00252639
0.00289078
0.00329085
0.00365347
0.00395179
0.00419612
0.00439091
0.00453262
0.00461117
0.00461455
0.00453647
0.00438487
0.00418549
0.00397512
0.00378697
0.00363894
0.00353273
0.00346101
0.00341484
0.00338629
0.00182399
0.00193341
0.00206979
0.00223736
0.00249746
0.00284911
0.00324424
0.00361235
0.00391979
0.00417453
0.00438068
0.0045355
0.00463016
0.00465329
0.00459729
0.00446604
0.00427946
0.00407011
0.00387153
0.00370611
0.00358078
0.00349167
0.00343135
0.00339212
0.00184234
0.00193795
0.00205788
0.00221454
0.00245809
0.00279552
0.0031849
0.00355985
0.00387817
0.0041452
0.00436447
0.00453389
0.00464581
0.00468972
0.00465733
0.00454917
0.00437963
0.00417603
0.00397043
0.00378835
0.00364204
0.00353211
0.00345367
0.00340015
0.00185669
0.00194142
0.0020411
0.00218473
0.00240978
0.00273095
0.00311299
0.00349516
0.00382568
0.00410672
0.00434082
0.00452628
0.00465651
0.00472197
0.00471417
0.00463117
0.00448243
0.00428968
0.0040818
0.00388554
0.00371771
0.00358396
0.00348311
0.0034109
0.00186619
0.00194364
0.00202212
0.00215009
0.00235441
0.00265674
0.00302905
0.00341749
0.00376101
0.00405754
0.00430808
0.00451099
0.00466055
0.00474817
0.00476551
0.00470898
0.00458402
0.00440694
0.00420229
0.00399601
0.00380788
0.00364837
0.00352094
0.0034249
0.00186889
0.00194398
0.00200257
0.00211236
0.00229389
0.00257467
0.00293422
0.00332588
0.00368287
0.00399611
0.00426455
0.00448627
0.00465614
0.00476644
0.00480918
0.00477976
0.00468054
0.0045231
0.00432719
0.00411621
0.00391088
0.00372539
0.00356813
0.00344274
0.00186204
0.00194093
0.00198315
0.00207261
0.00223002
0.00248679
0.00283054
0.00321948
0.00359035
0.00392108
0.00420857
0.0044503
0.00464144
0.00477491
0.00484314
0.00484091
0.00476842
0.00463337
0.00445089
0.00424083
0.00402296
0.00381344
0.00362465
0.0034647
0.00184266
0.00193144
0.00196356
0.00203047
0.00216418
0.00239504
0.0027194
0.00310125
0.00348368
0.00383153
0.00413863
0.00440129
0.00461455
0.00477168
0.00486539
0.00489013
0.00484453
0.00473329
0.00456759
0.00436344
0.00413836
0.00390858
0.00368871
0.00349032
0.00180654
0.00190704
0.00194045
0.00198756
0.00209795
0.0023016
0.00260313
0.00297344
0.00336348
0.0037269
0.00405346
0.00433756
0.0045736
0.00475483
0.00487404
0.00492536
0.00490625
0.00481917
0.00467206
0.00447741
0.00424993
0.00400456
0.00375624
0.003518
0.00174051
0.00186003
0.00191005
0.00194392
0.00203234
0.00220858
0.00248442
0.00283862
0.00323075
0.00360706
0.00395213
0.00425764
0.00451683
0.0047225
0.00486724
0.00494474
0.0049515
0.00488819
0.00476018
0.00457692
0.00435039
0.00409368
0.00382083
0.00354448
0.001621
0.00178089
0.00186893
0.00189809
0.00196737
0.00211751
0.00236599
0.00270022
0.00308622
0.00347233
0.00383419
0.00416045
0.00444273
0.00467299
0.00484328
0.00494668
0.0049787
0.00493846
0.00482917
0.00465775
0.0044337
0.00416826
0.00387445
0.00356447
0.00141035
0.00165489
0.00180779
0.00184613
0.00190178
0.00202902
0.00224996
0.00256078
0.00293414
0.00332471
0.00370022
0.00404561
0.00435028
0.00460491
0.00480067
0.00492978
0.00498663
0.00496882
0.00487759
0.00471755
0.00449593
0.00422234
0.00390927
0.00357092
0.0010143
0.0014575
0.00171366
0.00178048
0.00183385
0.00194245
0.0021377
0.00242294
0.00277859
0.00316706
0.00355173
0.0039135
0.00423905
0.00451733
0.00473828
0.00489296
0.00497447
0.00497877
0.00490509
0.00475578
0.00453577
0.00425282
0.0039192
0.00355578
0.000447148
0.0010842
0.00153836
0.00168431
0.00175807
0.00185585
0.00202929
0.00228887
0.00262306
0.0030027
0.00339104
0.00376538
0.00410942
0.00441002
0.00465554
0.00483564
0.00494187
0.00496839
0.0049123
0.00477349
0.00455427
0.00425988
0.00390146
0.00351155
2.02243e-06
6.24424e-06
1.48068e-05
2.49172e-05
3.53909e-05
6.6523e-05
4.93487e-05
6.90275e-05
0.00010925
0.000135153
0.000151485
0.000168557
5.77683e-05
0.000114955
0.000188289
0.000231245
0.000249678
0.000246246
6.243e-05
0.00014854
0.000255215
0.000311054
0.000330257
0.000314524
6.57092e-05
0.000184069
0.000316234
0.000381157
0.000401648
0.000378271
6.82184e-05
0.000221897
0.000373821
0.000445374
0.000466898
0.00043947
7.02502e-05
0.000260522
0.000427143
0.000504587
0.000526429
0.000498255
7.19396e-05
0.000298448
0.000475106
0.000557949
0.000580879
0.000554742
7.33572e-05
0.000334312
0.000516845
0.000604902
0.000631059
0.000609836
7.45484e-05
0.000366179
0.000551839
0.000645282
0.000677879
0.000664936
7.55491e-05
0.000392033
0.000579904
0.000679804
0.000722136
0.000719672
7.63946e-05
0.000409844
0.000600995
0.000708769
0.000762733
0.000774294
7.69145e-05
0.000420506
0.000615117
0.000731748
0.000798838
0.000827228
7.69892e-05
0.000424989
0.000621862
0.000747992
0.000829473
0.00087705
7.67023e-05
0.000423131
0.000620321
0.000756202
0.000852584
0.000920389
7.5915e-05
0.000413488
0.000609465
0.000754567
0.000865345
0.000953139
7.46093e-05
0.000396455
0.000587311
0.000739757
0.000863942
0.000971303
7.26819e-05
0.000370027
0.000554022
0.000710801
0.000842829
0.000966407
7.00203e-05
0.000332954
0.000506997
0.000664378
0.00080135
0.00094161
6.64789e-05
0.000283933
0.000444458
0.000596591
0.000730083
0.000881999
6.19132e-05
0.000223494
0.000364761
0.000504114
0.000621106
0.000773051
5.57816e-05
0.00015114
0.000267009
0.000385107
0.000475302
0.00058477
4.2393e-05
7.15477e-05
0.000151172
0.000240252
0.000297309
0.000290056
1.61834e-06
1.29065e-05
4.60156e-05
9.24195e-05
0.000144951
4.63643e-05
0.000332059
0.000880798
0.0013418
0.00157813
0.00167707
0.00177191
0.00192471
0.0021597
0.0024704
0.00283513
0.00322115
0.00360332
0.00396259
0.00428353
0.00455265
0.00475795
0.00488924
0.00493865
0.00490093
0.00477326
0.00455479
0.00424709
0.00385785
0.00343343
0.000279973
0.000767043
0.00117378
0.0014841
0.00159767
0.00169232
0.00182785
0.00203677
0.00232226
0.00266756
0.00304537
0.0034301
0.00380061
0.00413931
0.00443077
0.00466114
0.00481827
0.00489208
0.00487471
0.00476024
0.00454401
0.00422241
0.00379594
0.00332123
0.000245596
0.00069336
0.0010426
0.0013723
0.00151623
0.00161669
0.00173929
0.00192338
0.00218117
0.00250313
0.00286717
0.00324888
0.00362612
0.00397956
0.00429195
0.00454761
0.00473238
0.00483385
0.0048413
0.00474526
0.00453637
0.00420374
0.00373517
0.00318396
0.000237634
0.000636007
0.000949374
0.00127307
0.00144485
0.00154697
0.00165922
0.00182063
0.00204988
0.00234509
0.00269008
0.00306306
0.00344207
0.0038068
0.00413867
0.0044205
0.0046365
0.00477232
0.00481477
0.00475099
0.00456661
0.00424259
0.00375065
0.00309236
0.000268763
0.000582814
0.000872807
0.00117249
0.00138118
0.00148346
0.00158725
0.00172858
0.00192987
0.00219603
0.00251731
0.00287586
0.00325122
0.00362319
0.00397266
0.00428191
0.00453471
0.00471651
0.00481427
0.00481582
0.00471046
0.00449902
0.00423275
0.00405158
0.000326867
0.000544968
0.000822047
0.001071
0.00130857
0.00142159
0.0015214
0.00164624
0.00182144
0.00205762
0.00235149
0.00269013
0.00305594
0.00343003
0.00379404
0.00413102
0.00442625
0.00466794
0.00484772
0.00496065
0.00500587
0.00499183
0.00494758
0.00492037
0.000390455
0.000522059
0.000782264
0.000991523
0.00123652
0.00136067
0.00145983
0.00157211
0.00172409
0.00193073
0.00219464
0.00250841
0.00285838
0.00322832
0.00360187
0.00396418
0.00430318
0.0046103
0.00488023
0.00510956
0.00529506
0.00543402
0.00552804
0.0055834
0.000458948
0.000515129
0.000750329
0.000924118
0.00116814
0.0013097
0.00140363
0.00150517
0.0016369
0.00181552
0.00204826
0.00233305
0.00266099
0.00301963
0.00339581
0.0037779
0.00415694
0.0045265
0.00488072
0.00521112
0.00550456
0.00574519
0.00591177
0.00601939
0.000527454
0.000528712
0.000726719
0.000870374
0.0010942
0.00125647
0.00135053
0.00144407
0.00155869
0.00171166
0.00191333
0.0021663
0.00246663
0.00280641
0.00317665
0.00356966
0.00397976
0.00440177
0.0048272
0.00524016
0.00561715
0.00592346
0.0061483
0.0062833
0.000598708
0.000564783
0.00071528
0.000834163
0.00102808
0.00119837
0.00129749
0.0013867
0.00148791
0.0016183
0.00179028
0.00201011
0.00227842
0.00259207
0.00294673
0.00333903
0.00376674
0.00422588
0.00470533
0.0051827
0.00562369
0.00598376
0.00625324
0.00641124
0.000672078
0.000608815
0.000719001
0.000807596
0.000974853
0.00114531
0.0012459
0.00133217
0.00142315
0.00153441
0.00167913
0.00186605
0.00209956
0.00238088
0.00271024
0.00308867
0.00351766
0.00399518
0.00450918
0.00503309
0.00552037
0.00593021
0.00623599
0.00641638
0.000744322
0.000674513
0.000732636
0.000799892
0.00093513
0.00109356
0.00119583
0.0012801
0.00136312
0.00145882
0.00157949
0.00173522
0.00193299
0.00217754
0.00247301
0.00282447
0.00323728
0.00371259
0.00423982
0.00479132
0.00531329
0.00576371
0.00610423
0.00630398
0.000818183
0.000763492
0.000767212
0.000807749
0.0009147
0.00104547
0.00114737
0.00123003
0.00130696
0.00139024
0.00149053
0.00161801
0.00178106
0.00198668
0.00224189
0.00255497
0.00293492
0.00338707
0.003905
0.00446361
0.0050085
0.00548895
0.00586224
0.00608028
0.000889855
0.000854449
0.000831045
0.0008327
0.000910909
0.00101719
0.00110676
0.00118401
0.00125486
0.00132779
0.0014113
0.00151423
0.00164522
0.00181228
0.00202392
0.00229038
0.00262346
0.00303291
0.00351851
0.00406144
0.0046152
0.00511273
0.00551581
0.00575118
0.000956153
0.000945299
0.000912973
0.000884305
0.000921154
0.000998826
0.00107493
0.00114396
0.00120775
0.00127138
0.00134088
0.0014232
0.00152602
0.00165715
0.0018253
0.00204116
0.00231785
0.00266863
0.00310021
0.00360315
0.00414463
0.004646
0.00507026
0.0053259
0.00101413
0.00102911
0.00100253
0.000962198
0.000961615
0.000999911
0.00105695
0.00111349
0.00116792
0.00122201
0.00127914
0.0013442
0.00142314
0.00152263
0.00165043
0.00181632
0.00203295
0.00231506
0.00267504
0.00311417
0.00361239
0.00410941
0.00453509
0.00481154
0.00106004
0.00109896
0.00108812
0.00105258
0.00103058
0.00103627
0.00106356
0.00110016
0.00114044
0.00118268
0.00122747
0.00127734
0.00133617
0.00140888
0.00150155
0.00162205
0.00178101
0.00199213
0.00227039
0.00262588
0.00305337
0.00352076
0.00394129
0.00423594
0.00108877
0.00115063
0.00115966
0.00113851
0.00111106
0.00109564
0.00109653
0.00110996
0.00113165
0.00115858
0.00118939
0.00122447
0.00126564
0.00131587
0.00137923
0.00146128
0.00156974
0.00171536
0.00191195
0.0021738
0.00250861
0.00290506
0.00331117
0.00359874
0.00109481
0.00118037
0.00120879
0.00120536
0.0011859
0.00116382
0.00114839
0.00114219
0.00114477
0.0011544
0.00116942
0.00118907
0.00121363
0.00124438
0.00128353
0.00133441
0.00140187
0.00149298
0.00161779
0.00178929
0.00202096
0.00231995
0.00266137
0.00295043
0.00107728
0.00118677
0.00123031
0.00124512
0.00124212
0.00122417
0.00120448
0.00118752
0.00117575
0.0011698
0.00116923
0.00117341
0.00118204
0.00119535
0.00121421
0.00124024
0.001276
0.00132539
0.0013943
0.00149123
0.00162757
0.00181559
0.00206263
0.00232158
0.00103039
0.00116869
0.0012259
0.00125502
0.00126716
0.00126375
0.00124945
0.0012317
0.00121378
0.0011979
0.00118515
0.00117589
0.00117019
0.00116811
0.00116989
0.00117615
0.00118797
0.00120714
0.00123644
0.00128015
0.00134459
0.00143736
0.00157378
0.00176926
0.000944257
0.00113194
0.00120271
0.00124081
0.00126311
0.00127417
0.00127299
0.00126228
0.00124596
0.00122766
0.00120897
0.00119111
0.00117484
0.00116063
0.0011488
0.00113967
0.00113368
0.00113152
0.00113427
0.00114362
0.00116217
0.00119377
0.00123983
0.00134697
0.000831007
0.00108635
0.00116862
0.00121286
0.0012436
0.0012618
0.0012728
0.00127177
0.0012637
0.00124934
0.0012312
0.00121124
0.00119048
0.00116975
0.00114961
0.0011305
0.00111276
0.00109674
0.0010828
0.00107156
0.00106347
0.00106161
0.00105876
0.00109247
0.00070722
0.00105659
0.00114698
0.00118924
0.0012215
0.00124563
0.00125905
0.00126819
0.0012669
0.00125971
0.00124747
0.00123103
0.00121199
0.00119163
0.00117031
0.0011485
0.00112681
0.00110558
0.00108489
0.001065
0.00104525
0.00102864
0.0010074
0.00100076
6.47445e-07
2.88983e-06
1.1229e-05
3.1078e-05
7.31411e-05
0.000159578
2.50238e-05
4.60342e-05
9.13358e-05
0.000161095
0.000262933
0.000418448
0.000150204
0.000118332
0.00020513
0.00031728
0.000456446
0.000644865
0.000169525
0.000188213
0.000311252
0.000454665
0.000616813
0.000812845
0.000184497
0.000248619
0.000402131
0.000566126
0.000737972
0.000926735
0.000194239
0.00029644
0.000476295
0.000652042
0.00082335
0.000995537
4.7138e-05
0.000329461
0.00053419
0.000715009
0.000879598
0.00102922
4.79192e-05
0.000353615
0.000577153
0.000758097
0.000912341
0.00103911
4.84746e-05
0.000370225
0.000606829
0.000784212
0.000924905
0.00103018
4.88858e-05
0.000380253
0.000625037
0.000796289
0.000921743
0.00100622
4.91176e-05
0.000384386
0.000633273
0.000796726
0.000906064
0.00097059
4.91555e-05
0.000383078
0.000632644
0.00078744
0.000880754
0.000926016
4.89947e-05
0.000376498
0.000624461
0.000770188
0.00084812
0.000874753
4.86848e-05
0.000364353
0.000609713
0.000746604
0.000810027
0.00081872
4.8243e-05
0.000347647
0.000589095
0.000717769
0.000767994
0.000759582
4.7705e-05
0.000327968
0.000563185
0.000684277
0.000723169
0.000698729
4.72418e-05
0.000308443
0.000532286
0.000646044
0.000676224
0.000637103
0.00019975
0.000297005
0.000495647
0.000602334
0.000627094
0.000574802
0.000196202
0.000280958
0.00045111
0.000551249
0.000574405
0.000510119
0.000188928
0.000253082
0.000394932
0.000488643
0.000514364
0.000442872
0.000177545
0.000209054
0.000323215
0.000408737
0.000440162
0.000372755
0.000161978
0.000146192
0.000229366
0.000302924
0.000341981
0.000299039
2.8481e-05
6.31428e-05
0.000111082
0.000162302
0.000202145
0.000208877
8.35833e-07
3.3558e-06
9.74047e-06
2.27923e-05
4.02112e-05
7.13653e-05
0.000801575
0.0010738
0.00115682
0.00119391
0.0012216
0.00124364
0.0012594
0.00126737
0.00127253
0.0012703
0.00126372
0.00125392
0.00124166
0.00122812
0.00121263
0.00119462
0.0011772
0.00116122
0.00114604
0.00113117
0.00111573
0.00110197
0.00108551
0.00107653
0.000906231
0.00112116
0.00120245
0.00123843
0.00126203
0.00127999
0.00129209
0.0012994
0.00130219
0.00130341
0.00130126
0.00129732
0.00129239
0.00128715
0.00128482
0.00128448
0.00128092
0.00127597
0.00127214
0.00127173
0.00127513
0.00128139
0.00128979
0.00130299
0.00100388
0.00118177
0.00126714
0.0013133
0.00134283
0.0013606
0.00137104
0.00137581
0.00137695
0.00137623
0.00137576
0.00137558
0.0013766
0.00137933
0.0013843
0.00139556
0.00141515
0.00143959
0.00146603
0.00149467
0.00152482
0.00155612
0.00158719
0.00161394
0.00108238
0.00123111
0.00132034
0.00138116
0.00142707
0.00146034
0.00148229
0.00149481
0.00150055
0.00150166
0.00150022
0.00149905
0.00149997
0.00150455
0.00151255
0.00152523
0.00154384
0.00156794
0.00159668
0.00162965
0.00166515
0.00170061
0.00173311
0.00175727
0.00113376
0.00125798
0.00134635
0.00141717
0.0014764
0.00152554
0.00156278
0.00158882
0.00160651
0.00161826
0.00162638
0.00163337
0.00164121
0.00165103
0.00166382
0.00168146
0.00170204
0.00172521
0.00175238
0.00178272
0.00181549
0.00184916
0.00187831
0.00189931
0.00115718
0.00126708
0.00135504
0.00143415
0.00150545
0.00156768
0.00161695
0.00165471
0.00168362
0.00170528
0.00172174
0.00173504
0.00174708
0.00175952
0.00177358
0.00179053
0.00181145
0.00183601
0.00186289
0.00188905
0.00191147
0.00192832
0.00194074
0.00194858
0.00116108
0.00125458
0.00133677
0.0014187
0.00149761
0.00157086
0.00163368
0.00168656
0.0017312
0.00176842
0.00179959
0.0018257
0.00184799
0.00186734
0.00188448
0.0018998
0.00191336
0.00192492
0.00193416
0.00194116
0.00194615
0.00194938
0.00195062
0.00195098
0.00114465
0.00122161
0.00129648
0.00137771
0.00145986
0.00153872
0.00161009
0.00167302
0.00172841
0.00177688
0.00181917
0.00185581
0.00188742
0.00191413
0.00193636
0.00195378
0.00196602
0.00197269
0.00197363
0.00196897
0.00195944
0.00194685
0.00193492
0.00192716
0.00111169
0.00117221
0.0012389
0.00131745
0.0014005
0.00148172
0.00155766
0.00162637
0.00168784
0.00174236
0.00179146
0.00183464
0.0018715
0.00190291
0.00192893
0.00194786
0.00195826
0.00196022
0.00195426
0.00194108
0.00192133
0.00189643
0.00186938
0.00184695
0.00106544
0.00110963
0.0011676
0.0012424
0.0013247
0.00140631
0.00148428
0.00155449
0.00161771
0.00167144
0.00171614
0.00175332
0.00178398
0.00180902
0.00182786
0.00183863
0.00184345
0.00184276
0.00183592
0.001823
0.00180562
0.00178782
0.00177204
0.00176961
0.00100861
0.00103621
0.00108473
0.00115453
0.00123429
0.00131296
0.00138174
0.00143971
0.00149232
0.00154002
0.00158764
0.00163045
0.00166836
0.00170126
0.00172737
0.00174675
0.00175871
0.00176273
0.00175913
0.00174835
0.00173078
0.00170772
0.00167894
0.00165584
0.000943441
0.000953627
0.000991292
0.00105389
0.00112064
0.00118578
0.00125339
0.00132764
0.00139587
0.00145532
0.00150086
0.0015376
0.00156549
0.0015844
0.00159572
0.00159969
0.00159678
0.00158733
0.00157132
0.00154918
0.00152059
0.00148824
0.00144703
0.00141611
0.000871763
0.000863218
0.000887935
0.000934588
0.000996132
0.00107316
0.00115383
0.00122013
0.00126866
0.0013077
0.00133563
0.0013552
0.00136759
0.0013732
0.00137239
0.00136554
0.001353
0.00133486
0.00131178
0.00128508
0.00125353
0.00122198
0.00118098
0.00116569
0.000795382
0.000766675
0.000775139
0.000816195
0.000876506
0.000950698
0.00101077
0.00106283
0.00110079
0.00112814
0.00114629
0.00115625
0.001159
0.00115559
0.00114704
0.00113488