/*--------------------------------*- C++ -*----------------------------------*\
  =========                 |
  \\      /  F ield         | OpenFOAM: The Open Source CFD Toolbox
   \\    /   O peration     | Website:  https://openfoam.org
    \\  /    A nd           | Version:  11
     \\/     M anipulation  |
\*---------------------------------------------------------------------------*/
FoamFile
{
    format      ascii;
    class       volVectorField;
    location    "1.7";
    object      U;
}
// * * * * * * * * * * * * * * * * * * * * * * * * * * * * * * * * * * * * * //

dimensions      [0 1 -1 0 0 0 0];

internalField   nonuniform List<vector> 
2880
(
(-0.0787094 -0.0744386 8.09656e-21)
(-0.111591 -0.151014 -5.22309e-22)
(-0.0966061 -0.126239 0)
(-0.0418493 0.0179298 2.84029e-19)
(0.0769057 0.173758 2.45269e-19)
(0.246905 0.669399 0)
(-0.1058 -0.103898 1.58288e-20)
(-0.110797 -0.14224 -1.22309e-20)
(-0.0604681 -0.0831914 2.82008e-19)
(0.0211592 0.0618151 0)
(0.162032 0.236087 -1.93719e-19)
(0.398687 0.520246 1.41288e-19)
(-0.123024 -0.107154 7.5924e-21)
(-0.0985877 -0.123164 -3.06479e-19)
(-0.0196438 -0.0502212 -2.75579e-19)
(0.0935572 0.0892009 0)
(0.272631 0.257604 1.62273e-19)
(0.509168 0.473019 -2.00636e-19)
(-0.138915 -0.105066 0)
(-0.0854544 -0.104951 0)
(0.0182393 -0.0254943 -5.88171e-20)
(0.157917 0.107428 0)
(0.357755 0.266314 4.03411e-20)
(0.596938 0.442163 9.20573e-20)
(-0.152797 -0.101177 1.84677e-21)
(-0.0725484 -0.0891065 -1.10443e-21)
(0.0521668 -0.00664007 4.2641e-20)
(0.214178 0.119054 -8.97229e-21)
(0.428657 0.267947 -5.2201e-20)
(0.666748 0.41657 -3.36386e-20)
(-0.164249 -0.0973648 -2.32174e-19)
(-0.060722 -0.075667 4.25524e-21)
(0.0814901 0.007695 1.18082e-19)
(0.262038 0.126335 1.17662e-20)
(0.487036 0.266635 9.8278e-21)
(0.719947 0.39684 0)
(-0.173702 -0.0945641 4.64585e-19)
(-0.0506826 -0.0645995 0)
(0.105855 0.0182901 -9.32906e-20)
(0.30174 0.130668 -1.14897e-20)
(0.534677 0.264195 6.00858e-20)
(0.760279 0.382339 8.15156e-20)
(-0.181443 -0.0931697 -2.29139e-19)
(-0.0428834 -0.0558251 0)
(0.125089 0.0256853 2.09164e-19)
(0.333667 0.132758 -2.25948e-20)
(0.573015 0.261385 -2.18533e-19)
(0.790558 0.37153 -3.44766e-20)
(-0.187585 -0.0931921 7.07789e-21)
(-0.0375891 -0.0491795 0)
(0.139114 0.0303158 -2.0956e-19)
(0.358131 0.132965 0)
(0.603062 0.258446 1.60753e-19)
(0.812564 0.363075 -3.15648e-20)
(-0.192208 -0.094389 -8.82298e-19)
(-0.0349586 -0.0444055 5.39704e-19)
(0.147893 0.0325718 -2.6115e-20)
(0.375377 0.131429 0)
(0.62544 0.255302 3.94132e-20)
(0.827585 0.35603 -3.52192e-20)
(-0.195399 -0.096348 8.96419e-19)
(-0.0350989 -0.0411768 -5.10617e-19)
(0.151324 0.0328045 0)
(0.385581 0.128193 0)
(0.640586 0.251662 -3.69771e-19)
(0.836648 0.349626 3.56085e-20)
(-0.19729 -0.0985498 -8.86913e-19)
(-0.0380932 -0.0391138 3.19911e-20)
(0.149278 0.0313066 -2.6329e-20)
(0.388701 0.123238 0)
(0.64887 0.247125 3.32237e-19)
(0.840684 0.343309 0)
(-0.198068 -0.100441 9.02104e-19)
(-0.0439923 -0.0378332 5.13182e-19)
(0.141646 0.0283777 0)
(0.384514 0.116472 3.78313e-19)
(0.650527 0.241286 8.26184e-20)
(0.840111 0.336612 -7.26655e-20)
(-0.197687 -0.101379 -2.7685e-20)
(-0.0528401 -0.037014 4.63744e-20)
(0.128262 0.0243037 -8.07111e-20)
(0.372694 0.107707 -2.87062e-19)
(0.645363 0.233648 -2.99975e-19)
(0.83532 0.3292 -1.44094e-19)
(-0.19643 -0.100846 2.76477e-20)
(-0.0645055 -0.0363429 -5.45255e-19)
(0.108934 0.0193686 0)
(0.352796 0.0967266 -3.84671e-19)
(0.632899 0.223714 3.44171e-19)
(0.826559 0.320647 -2.94663e-19)
(-0.194522 -0.098232 -2.76558e-20)
(-0.0787836 -0.0355386 1.67841e-20)
(0.0834916 0.0138868 -5.52054e-20)
(0.324247 0.0833085 9.88257e-20)
(0.612234 0.211077 2.19755e-19)
(0.813831 0.310374 2.97784e-19)
(-0.19232 -0.0929332 0)
(-0.0953265 -0.0343672 -5.49212e-19)
(0.0518723 0.00822814 -4.98854e-19)
(0.286391 0.0672644 4.41923e-19)
(0.581893 0.195299 5.64139e-22)
(0.796819 0.297577 0)
(-0.190705 -0.0846174 -8.37036e-19)
(-0.113607 -0.0326972 5.28764e-19)
(0.0142688 0.00277385 3.94301e-19)
(0.23862 0.048527 1.49753e-19)
(0.539723 0.175988 -4.45791e-19)
(0.774902 0.281058 -3.0686e-19)
(-0.191652 -0.0741223 8.96535e-19)
(-0.132839 -0.0306186 0)
(-0.0286007 -0.0021638 -5.72785e-20)
(0.180569 0.0272979 -1.17393e-21)
(0.482792 0.153125 -4.61178e-20)
(0.747147 0.259237 7.89713e-20)
(-0.189845 -0.051008 2.61319e-20)
(-0.150929 -0.0284758 -1.86174e-20)
(-0.0749843 -0.00637442 -4.63878e-19)
(0.112356 0.00419415 0)
(0.407274 0.127389 -9.12371e-20)
(0.711826 0.229638 8.18889e-20)
(-0.180044 -0.0374221 0)
(-0.164592 -0.0267425 6.0977e-19)
(-0.121521 -0.00951964 4.76705e-19)
(0.0351116 -0.0195913 0)
(0.306899 0.0996336 -9.19476e-20)
(0.663869 0.185964 3.93026e-19)
(-0.168249 -0.0307314 -2.34416e-20)
(-0.174394 -0.0232312 -1.2527e-18)
(-0.163968 -0.0107068 6.01196e-20)
(-0.0450184 -0.0410257 -4.49547e-19)
(0.167062 0.0704827 0)
(0.5892 0.106931 0)
(-0.150797 -0.0213475 -2.77673e-20)
(-0.178949 -0.0183428 6.9925e-19)
(-0.200769 -0.00883431 6.25222e-20)
(-0.112367 -0.0562681 3.58741e-19)
(-0.054304 0.0441589 -3.76862e-19)
(0.504535 -0.00265754 -7.84583e-20)
(-0.0945629 -0.0130947 -3.09055e-20)
(-0.149484 -0.0162913 2.24221e-20)
(-0.217553 -0.00230409 -3.23856e-20)
(-0.146857 -0.047476 -2.72429e-20)
(-0.321375 0.0666984 5.85758e-19)
(0.437249 0.00698419 2.9737e-20)
(0.972361 0.644713 -1.50023e-19)
(1.22914 0.466517 9.51368e-20)
(1.33429 0.372567 0)
(1.37173 0.311398 1.23164e-20)
(1.37489 0.266602 -2.19073e-21)
(1.36272 0.231624 2.00201e-21)
(1.34506 0.203749 -7.58927e-21)
(1.32656 0.181191 -1.16043e-20)
(1.30912 0.162644 2.57163e-20)
(1.29332 0.147134 0)
(1.27908 0.133919 0)
(1.26609 0.122435 4.67175e-20)
(1.25398 0.112261 -3.05684e-20)
(1.2424 0.10309 1.71796e-20)
(1.23102 0.0947093 -1.69353e-20)
(1.21954 0.0869836 1.4558e-20)
(1.20763 0.0798508 0)
(1.19492 0.0733208 1.57878e-20)
(1.18101 0.0674559 1.36573e-20)
(1.16537 0.0622668 0)
(1.14735 0.0577113 -6.98998e-20)
(1.12656 0.0550631 5.32572e-20)
(1.10333 0.0592417 -6.90667e-20)
(1.07629 0.0708522 1.04933e-20)
(0.962726 0.581033 2.38533e-20)
(1.21083 0.483108 1.90601e-21)
(1.31277 0.396892 0)
(1.34805 0.335075 -1.22391e-20)
(1.3508 0.287249 0)
(1.33953 0.249146 0)
(1.32347 0.218604 9.70041e-21)
(1.30678 0.193878 -1.72787e-20)
(1.29106 0.173575 -1.72232e-20)
(1.27671 0.156629 3.7391e-20)
(1.26359 0.142222 -3.95423e-20)
(1.2514 0.129739 1.79369e-20)
(1.2398 0.118718 0)
(1.22848 0.108826 -1.69535e-20)
(1.21719 0.0998227 5.29902e-20)
(1.20564 0.0915503 -1.58253e-20)
(1.19356 0.0839215 -1.64104e-20)
(1.18066 0.0769213 -3.90178e-22)
(1.16655 0.0705816 -1.69234e-20)
(1.15078 0.0648777 1.63683e-20)
(1.13279 0.0597397 -1.51698e-21)
(1.11216 0.0563835 0)
(1.08914 0.0597303 6.08909e-20)
(1.0628 0.070363 -6.13082e-20)
(0.954007 0.55371 -1.81123e-20)
(1.19056 0.485982 0)
(1.28662 0.410064 1.05193e-20)
(1.31947 0.349765 -6.7343e-21)
(1.32304 0.301264 -1.51425e-20)
(1.31381 0.26189 1.05661e-20)
(1.30011 0.229988 -9.68536e-21)
(1.28573 0.204021 0)
(1.27206 0.182636 0)
(1.25938 0.164746 -4.36482e-20)
(1.24754 0.149509 3.07516e-20)
(1.23628 0.136293 3.3548e-20)
(1.22532 0.124626 -9.3814e-21)
(1.2144 0.114161 -2.0791e-20)
(1.20332 0.104648 5.03499e-20)
(1.19184 0.0959089 -3.74217e-20)
(1.17975 0.0878362 -3.67883e-20)
(1.16679 0.0803898 7.21705e-20)
(1.15267 0.0735741 -2.75557e-20)
(1.13699 0.0673263 -1.63216e-20)
(1.11925 0.061548 2.44923e-20)
(1.09904 0.0573865 0)
(1.07649 0.0596938 0)
(1.05121 0.0696537 2.34924e-20)
(0.960278 0.522932 9.51833e-21)
(1.16939 0.477391 0)
(1.25786 0.414093 -1.0471e-20)
(1.28932 0.357552 1.07237e-20)
(1.29408 0.309979 1.13898e-20)
(1.28714 0.270596 -8.22406e-21)
(1.27604 0.238321 7.27778e-21)
(1.26416 0.211853 -7.23874e-21)
(1.25264 0.189929 7.98699e-22)
(1.24171 0.171491 1.20217e-20)
(1.23122 0.155717 -6.78679e-21)
(1.22096 0.141987 -1.14316e-20)
(1.21072 0.129839 -2.30466e-20)
(1.2003 0.11893 1.12549e-20)
(1.18953 0.109008 -1.04318e-20)
(1.17824 0.0998851 -2.14526e-20)
(1.16625 0.0914372 2.04213e-20)
(1.15337 0.0835988 0)
(1.13936 0.076345 1.4297e-20)
(1.12391 0.0695895 0)
(1.10659 0.0631856 -2.70762e-20)
(1.08695 0.0581294 -8.67789e-22)
(1.06508 0.0589917 4.10232e-20)
(1.04144 0.0687886 -2.61904e-20)
(0.967783 0.493198 2.55149e-20)
(1.14916 0.46528 0)
(1.22962 0.412472 1.51904e-21)
(1.25935 0.360272 3.06217e-21)
(1.26513 0.314565 -1.22351e-21)
(1.26048 0.276035 8.15557e-21)
(1.25201 0.24409 0)
(1.2426 0.217656 9.81771e-21)
(1.2332 0.19559 -5.15383e-21)
(1.22397 0.1769 1.79294e-21)
(1.21482 0.16081 3.16979e-21)
(1.2056 0.146734 -1.80665e-21)
(1.19614 0.134234 1.72141e-21)
(1.18631 0.122983 3.15598e-21)
(1.17596 0.112735 4.24156e-23)
(1.16498 0.103305 -2.87848e-21)
(1.15322 0.0945585 0)
(1.14053 0.0864103 0)
(1.12673 0.0788126 -5.04023e-21)
(1.11159 0.0716766 0)
(1.09471 0.0648176 0)
(1.07563 0.0587756 0)
(1.05442 0.0569548 -4.82846e-21)
(1.03314 0.0675077 0)
(0.974459 0.468286 -3.23644e-20)
(1.13055 0.451628 2.27016e-20)
(1.20251 0.407186 0)
(1.23037 0.359435 -3.05723e-21)
(1.23706 0.316071 0)
(1.23451 0.278882 -5.62657e-21)
(1.22849 0.247708 5.13819e-21)
(1.22138 0.22167 2.60772e-21)
(1.21396 0.199743 -6.55579e-21)
(1.20636 0.181018 1.04741e-20)
(1.19852 0.164779 4.86142e-22)
(1.19034 0.150483 -5.79181e-21)
(1.18171 0.137725 2.01193e-20)
(1.17255 0.126202 -6.79242e-21)
(1.16274 0.115683 0)
(1.1522 0.105993 0)
(1.14082 0.097002 1.21072e-20)
(1.12848 0.0886222 -1.16073e-20)
(1.11506 0.0808078 0)
(1.10037 0.0735105 0)
(1.08418 0.0665673 -5.45624e-21)
(1.0662 0.0598395 -1.03054e-20)
(1.0462 0.0533713 4.71982e-21)
(1.0233 0.065714 1.18598e-20)
(0.979027 0.448048 3.24093e-20)
(1.11336 0.437982 -2.2623e-20)
(1.17717 0.399923 4.16427e-20)
(1.20292 0.356218 0)
(1.21025 0.315305 -3.10224e-20)
(1.20954 0.279699 0)
(1.20571 0.24955 -2.50767e-20)
(1.20069 0.224134 -4.46069e-20)
(1.19509 0.202531 1.89502e-20)
(1.189 0.183919 -1.86106e-20)
(1.18241 0.167646 -4.41415e-20)
(1.17527 0.153217 1.64003e-20)
(1.16751 0.140263 -2.36591e-20)
(1.15908 0.128503 0)
(1.14992 0.117723 -1.463e-20)
(1.13995 0.107761 0)
(1.12911 0.098492 1.33989e-20)
(1.1173 0.0898365 0)
(1.10444 0.0817502 0)
(1.09042 0.0741289 1.20123e-20)
(1.07521 0.0666218 -6.1151e-21)
(1.05871 0.059304 4.49491e-20)
(1.03973 0.0559191 -2.68557e-20)
(1.01431 0.0697888 -1.19189e-20)
(0.981051 0.43153 -3.46312e-21)
(1.09717 0.425004 -4.1148e-20)
(1.15351 0.391702 3.42816e-21)
(1.1771 0.351474 -3.78391e-20)
(1.18484 0.31291 4.74864e-20)
(1.18571 0.278947 -3.26168e-20)
(1.1838 0.249935 -2.78417e-20)
(1.18064 0.22526 9.69832e-20)
(1.17667 0.204092 -1.0668e-21)
(1.17198 0.185689 -2.03409e-20)
(1.16657 0.169461 1.81268e-20)
(1.16044 0.154961 -3.46394e-23)
(1.15357 0.141851 -1.87897e-20)
(1.14592 0.129872 3.17153e-20)
(1.13747 0.118822 -1.67436e-20)
(1.12816 0.108543 5.76737e-20)
(1.11795 0.0989139 -9.71532e-20)
(1.10677 0.0898518 5.31374e-20)
(1.09455 0.0812949 -2.48137e-20)
(1.08124 0.0730619 3.73058e-20)
(1.06682 0.0647249 -8.41614e-20)
(1.05103 0.0568138 9.47462e-20)
(1.03216 0.0545324 -5.8492e-20)
(1.00855 0.065402 1.49276e-20)
(0.980422 0.417759 -1.36652e-19)
(1.08163 0.413006 0)
(1.13139 0.383201 7.82302e-20)
(1.15285 0.345823 -6.5984e-20)
(1.16082 0.309373 0)
(1.16303 0.276989 6.11401e-20)
(1.16278 0.249125 0)
(1.16125 0.225235 2.15499e-21)
(1.15875 0.204558 -4.78887e-20)
(1.15534 0.186421 -4.38884e-20)
(1.15105 0.170294 4.09305e-20)
(1.14591 0.155772 3.81496e-20)
(1.13991 0.142546 -1.34496e-21)
(1.13307 0.130374 3.51177e-20)
(1.12536 0.119066 3.11293e-20)
(1.11675 0.108468 3.1752e-20)
(1.10722 0.098459 2.84889e-20)
(1.09672 0.0889575 0)
(1.0852 0.07989 -2.64264e-20)
(1.07263 0.0710427 0)
(1.05903 0.0620005 1.01718e-19)
(1.04403 0.0535802 -2.01485e-19)
(1.02572 0.0514434 9.94884e-20)
(1.00395 0.0600081 2.43733e-20)
(0.977321 0.405963 3.20777e-19)
(1.06646 0.402107 3.08571e-20)
(1.11055 0.374837 -1.29012e-19)
(1.12995 0.339684 1.31569e-19)
(1.13807 0.30505 -4.0203e-20)
(1.14141 0.274104 -7.25245e-20)
(1.1426 0.247334 0)
(1.14251 0.224221 5.58401e-20)
(1.14133 0.204051 -1.04588e-19)
(1.1391 0.186213 0)
(1.13587 0.170225 0)
(1.13168 0.155721 -4.21268e-20)
(1.12656 0.142419 -3.95208e-20)
(1.12053 0.130094 2.3449e-21)
(1.11359 0.118564 -3.53582e-20)
(1.10572 0.107682 -6.53445e-20)
(1.0969 0.0973314 -6.24609e-20)
(1.08712 0.0874338 2.9216e-20)
(1.07633 0.0779163 -8.56222e-20)
(1.06455 0.0685604 1.11866e-19)
(1.05183 0.0589832 0)
(1.03772 0.0501401 -2.71886e-20)
(1.02013 0.0477166 -1.35805e-19)
(0.999915 0.0543362 1.04007e-19)
(0.971994 0.395669 -1.23084e-19)
(1.05141 0.392344 -1.00407e-19)
(1.09067 0.36686 2.6178e-21)
(1.10822 0.333358 9.75702e-20)
(1.11643 0.300179 4.8658e-20)
(1.12074 0.2705 1.47673e-19)
(1.12319 0.24473 1.37623e-19)
(1.12438 0.222349 -5.95243e-20)
(1.12439 0.202676 1.07571e-19)
(1.12327 0.185148 -9.97736e-20)
(1.12104 0.169327 7.31351e-22)
(1.11779 0.154879 3.94971e-20)
(1.11354 0.141544 3.93212e-20)
(1.10833 0.129112 4.17491e-20)
(1.10217 0.117411 1.07781e-19)
(1.09506 0.106298 -3.57774e-20)
(1.087 0.0956654 0)
(1.07797 0.0854392 -3.45636e-20)
(1.06796 0.0755522 3.32745e-20)
(1.05703 0.0657924 0)
(1.04527 0.055811 -5.58787e-20)
(1.03216 0.0466262 3.11337e-19)
(1.01539 0.0437594 -2.55661e-19)
(0.996615 0.0486944 1.08911e-19)
(0.964527 0.386491 0)
(1.03627 0.38374 -6.87255e-20)
(1.07145 0.359364 6.10031e-20)
(1.08741 0.327007 -1.6165e-19)
(1.09568 0.294951 -2.20255e-19)
(1.10086 0.266329 0)
(1.10444 0.241435 -1.36563e-19)
(1.10678 0.219719 0)
(1.10791 0.200515 -1.18928e-19)
(1.10782 0.183297 2.14589e-19)
(1.10657 0.167663 -9.85748e-20)
(1.10423 0.153304 1.82751e-19)
(1.10085 0.13998 0)
(1.09647 0.127491 -7.61907e-20)
(1.09112 0.115674 -1.90701e-21)
(1.0848 0.104393 0)
(1.07752 0.0935457 0)
(1.06929 0.0830664 1.34759e-19)
(1.06011 0.0728957 3.46962e-21)
(1.05008 0.0628349 0)
(1.03931 0.0525709 -1.80053e-19)
(1.02726 0.043141 1.2126e-19)
(1.01141 0.0397784 5.85206e-20)
(0.994058 0.0432153 -1.02062e-19)
(0.955118 0.378241 3.52524e-19)
(1.02086 0.376224 0)
(1.05262 0.352425 0)
(1.06723 0.320723 4.35026e-19)
(1.07562 0.289462 0)
(1.0816 0.261682 -8.28104e-20)
(1.08623 0.237525 7.51774e-20)
(1.08965 0.216396 -1.37434e-19)
(1.09182 0.197624 -2.67192e-21)
(1.09273 0.180711 3.84595e-21)
(1.09243 0.16528 0)
(1.091 0.151043 -9.07146e-20)
(1.0885 0.137772 -1.99182e-21)
(1.08497 0.125278 -8.29867e-20)
(1.08044 0.113404 -8.26076e-20)
(1.07494 0.102019 7.98978e-20)
(1.06848 0.0910268 1.48268e-19)
(1.06108 0.0803717 3.59624e-21)
(1.05277 0.0700042 -1.37113e-19)
(1.04368 0.0597432 0)
(1.03395 0.0493142 0)
(1.02299 0.0397408 -6.10015e-20)
(1.00814 0.035877 2.50642e-19)
(0.992209 0.0379758 -2.95235e-19)
(0.943955 0.370802 -3.05681e-19)
(1.00498 0.369739 0)
(1.0339 0.346043 -2.66906e-19)
(1.04741 0.314539 -2.22494e-19)
(1.05602 0.283751 -1.05944e-19)
(1.0628 0.256596 -1.8207e-19)
(1.06843 0.23304 -1.56131e-19)
(1.07289 0.212414 3.46513e-19)
(1.07608 0.194036 -2.59261e-19)
(1.07797 0.177421 0)
(1.07862 0.162209 -1.10957e-19)
(1.07811 0.148125 1.05511e-19)
(1.0765 0.134951 1.8607e-19)
(1.07383 0.122506 -3.5807e-19)
(1.07015 0.110634 1.7056e-19)
(1.06549 0.0992111 -7.92105e-20)
(1.05987 0.0881475 0)
(1.05334 0.0773967 -7.3093e-20)
(1.04593 0.0669212 1.44424e-19)
(1.03781 0.0565616 -1.38916e-19)
(1.02914 0.0460833 2.03921e-19)
(1.01928 0.0364689 -2.68905e-19)
(1.0055 0.0321241 1.91058e-19)
(0.991004 0.0330327 -1.25636e-19)
(0.931086 0.364049 0)
(0.988405 0.364244 -7.70267e-20)
(1.01498 0.340185 1.24733e-19)
(1.02769 0.308434 1.83441e-19)
(1.03666 0.277802 5.20621e-19)
(1.0443 0.251068 -4.54167e-21)
(1.05094 0.227977 8.23914e-20)
(1.05643 0.207776 -1.49992e-19)
(1.06064 0.189757 1.30052e-19)
(1.06352 0.173436 0)
(1.06512 0.15846 -2.07695e-21)
(1.06554 0.144564 1.08125e-19)
(1.06483 0.131535 -9.95893e-20)
(1.06306 0.119193 0)
(1.06025 0.107387 -9.10589e-20)
(1.05645 0.0959955 0)
(1.05171 0.0849363 1.63011e-19)
(1.04606 0.0741729 -3.14596e-19)
(1.03958 0.0636813 3.77057e-22)
(1.03245 0.0533261 0)
(1.02484 0.0429119 -6.9117e-20)
(1.01609 0.0333555 0)
(1.00344 0.0285672 6.7296e-20)
(0.990367 0.0284288 -6.25045e-20)
(0.916458 0.357879 4.69094e-20)
(0.9709 0.359724 0)
(0.995528 0.334776 2.06491e-19)
(1.00778 0.302341 -5.74658e-20)
(1.01732 0.271555 -4.3038e-19)
(1.02592 0.245049 2.05048e-21)
(1.03363 0.222302 8.58526e-20)
(1.04019 0.202457 1.49244e-19)
(1.04544 0.184771 1.37852e-19)
(1.04933 0.168745 1.28485e-19)
(1.05192 0.154029 -1.18789e-19)
(1.05329 0.140359 2.81498e-21)
(1.05351 0.127525 2.09561e-19)
(1.05264 0.115347 -1.95073e-19)
(1.05073 0.103674 4.63702e-19)
(1.04782 0.0923872 -1.78624e-19)
(1.04397 0.0814125 0)
(1.03924 0.0707241 -1.64395e-19)
(1.0337 0.0603116 2.37198e-19)
(1.02756 0.0500645 3.06162e-19)
(1.021 0.0398233 -5.94719e-19)
(1.01334 0.0304181 2.88967e-19)
(1.00188 0.0252383 0)
(0.990215 0.024195 1.49606e-19)
(0.899902 0.35224 2.81816e-19)
(0.952164 0.356158 8.15164e-20)
(0.975235 0.329715 -1.45381e-19)
(0.987379 0.296138 2.57752e-19)
(0.997776 0.2649 1.17106e-19)
(1.00752 0.238444 0)
(1.0164 0.215939 0)
(1.0241 0.196399 0)
(1.03045 0.179033 1.43248e-19)
(1.0354 0.163316 -1.28159e-19)
(1.039 0.148891 0)
(1.04135 0.135495 -1.12243e-19)
(1.04252 0.122914 -3.20059e-19)
(1.04259 0.110965 3.08599e-19)
(1.04159 0.0994966 9.4656e-20)
(1.03959 0.0883935 -1.8638e-19)
(1.03665 0.0775887 -2.69141e-19)
(1.03285 0.0670673 2.60158e-19)
(1.02827 0.0568319 -2.50354e-19)
(1.02311 0.0467958 1.60798e-19)
(1.01758 0.0368307 0)
(1.01098 0.0276628 0)
(1.00074 0.0221574 0)
(0.990465 0.0203517 -1.63854e-19)
(0.881104 0.347187 -3.74419e-19)
(0.931765 0.353541 0)
(0.953685 0.324831 0)
(0.966227 0.28961 -1.33109e-19)
(0.977799 0.25768 1.19211e-20)
(0.988962 0.231112 -1.06573e-19)
(0.999173 0.208778 0)
(1.00812 0.189517 4.65155e-21)
(1.01564 0.172478 1.5103e-19)
(1.0217 0.157098 -1.34814e-19)
(1.02636 0.14301 -2.56259e-19)
(1.02972 0.129944 -1.43723e-21)
(1.03188 0.117682 -2.22703e-19)
(1.0329 0.106034 -1.02312e-19)
(1.03284 0.0948497 1.98974e-19)
(1.03177 0.084015 9.44909e-20)
(1.02976 0.0734709 -5.60005e-22)
(1.02688 0.0632129 3.20395e-21)
(1.02326 0.0532548 -3.10013e-21)
(1.01908 0.0435309 -3.33375e-19)
(1.01453 0.0339375 4.05611e-19)
(1.00895 0.0250863 -3.9815e-19)
(0.999959 0.0193352 3.80846e-19)
(0.991035 0.0169095 7.14751e-20)
(0.859426 0.342997 4.81105e-19)
(0.909176 0.351809 -8.45588e-20)
(0.930338 0.319871 0)
(0.9441 0.282497 0)
(0.957204 0.249652 -2.3991e-19)
(0.970116 0.222866 1.04339e-19)
(0.981889 0.200668 9.61229e-20)
(0.992218 0.181699 -3.36157e-19)
(1.00101 0.165019 1.56408e-19)
(1.00825 0.150024 1.41277e-19)
(1.01401 0.136334 1.27696e-19)
(1.01843 0.123668 -2.92495e-21)
(1.02159 0.111799 0)
(1.02359 0.100536 -1.11562e-19)
(1.02448 0.0897213 1.02908e-19)
(1.02434 0.0792465 -3.31776e-21)
(1.02326 0.0690595 -9.48929e-20)
(1.02133 0.0591648 -9.14995e-20)
(1.01865 0.0495851 8.83284e-20)
(1.01542 0.0402719 3.46242e-19)
(1.01181 0.0311394 -4.18101e-19)
(1.00721 0.0226798 8.01387e-20)
(0.999461 0.0167753 2.37558e-19)
(0.991846 0.013869 -3.60955e-19)
(0.833446 0.340258 -8.71643e-19)
(0.883664 0.350823 1.76137e-19)
(0.904645 0.314487 -8.04445e-20)
(0.920694 0.274397 0)
(0.935902 0.240485 1.2569e-19)
(0.950893 0.213459 -1.12679e-19)
(0.964517 0.191428 0)
(0.976408 0.172804 0)
(0.98658 0.156552 1.58736e-19)
(0.995071 0.142016 -2.94154e-19)
(1.00199 0.128803 1.37185e-19)
(1.00749 0.116622 0)
(1.01169 0.105235 0)
(1.01467 0.0944458 1.11685e-19)
(1.01652 0.0840958 -2.15905e-19)
(1.01733 0.0740786 5.1775e-19)
(1.01718 0.0643494 -3.99831e-19)
(1.01617 0.0549201 1.93181e-19)
(1.01441 0.0458195 0)
(1.0121 0.0370123 -1.79231e-19)
(1.00938 0.0284252 1.73721e-19)
(1.0057 0.020432 0)
(0.999177 0.014477 3.24496e-19)
(0.992813 0.0112161 -2.9696e-19)
(0.800375 0.33992 3.89322e-19)
(0.854284 0.350246 4.69548e-19)
(0.875958 0.308086 1.78626e-19)
(0.89569 0.264757 7.54785e-20)
(0.913814 0.229772 -1.30361e-19)
(0.931318 0.202588 -4.39789e-21)
(0.947065 0.180834 -1.03136e-19)
(0.960737 0.162671 1.80117e-19)
(0.972405 0.14696 -1.71038e-19)
(0.982228 0.132988 1.51203e-19)
(0.990357 0.120355 -1.41458e-19)
(0.99697 0.108758 0)
(1.00221 0.0979537 0)
(1.00618 0.0877394 0)
(1.00899 0.077956 2.22712e-19)
(1.01072 0.0684996 -4.28849e-19)
(1.01149 0.0593317 1.04674e-21)
(1.01138 0.0504699 9.8629e-20)
(1.01053 0.0419459 2.88874e-19)
(1.0091 0.0337346 -3.70609e-19)
(1.00722 0.0257733 1.79191e-19)
(1.00439 0.0183281 2.61629e-19)
(0.999022 0.0124416 -3.31386e-19)
(0.99383 0.00891446 7.66345e-20)
(0.755879 0.344117 4.08242e-19)
(0.819534 0.34888 -2.78111e-19)
(0.843485 0.299629 -5.20791e-19)
(0.868872 0.25279 7.87006e-20)
(0.89095 0.216991 -2.79634e-19)
(0.911526 0.189901 3.52153e-19)
(0.929658 0.168644 3.34828e-21)
(0.945296 0.151136 1.92909e-19)
(0.958588 0.136122 4.25999e-19)
(0.969807 0.122855 -3.08196e-19)
(0.979179 0.110927 1.45555e-19)
(0.986921 0.100032 1.36458e-19)
(0.993203 0.089923 0)
(0.99816 0.0803939 -2.39707e-19)
(1.00191 0.0712863 2.3081e-19)
(1.00455 0.0624992 1.1161e-19)
(1.0062 0.0539987 -3.19265e-19)
(1.00696 0.0458056 4.0982e-19)
(1.00696 0.0379525 -1.9471e-19)
(1.00637 0.0304237 1.90908e-19)
(1.00528 0.0231718 0)
(1.00326 0.0163916 -2.1806e-21)
(0.999069 0.0108074 8.70345e-20)
(0.994723 0.00687707 -7.70504e-20)
(0.696116 0.357351 -3.07643e-19)
(0.776026 0.342729 -4.76103e-20)
(0.806507 0.287095 0)
(0.840328 0.237414 8.07988e-20)
(0.86758 0.201516 2.06459e-19)
(0.891773 0.175036 0)
(0.912535 0.154633 -2.13148e-19)
(0.930255 0.138037 -1.90177e-19)
(0.945265 0.123931 -1.72266e-19)
(0.957932 0.111542 0)
(0.968565 0.100468 0)
(0.977437 0.090408 -1.36439e-19)
(0.984752 0.0811166 0)
(0.990671 0.0723909 0)
(0.995326 0.0640744 1.19152e-19)
(0.998839 0.0560694 -3.37501e-19)
(1.00133 0.0483445 3.26163e-19)
(1.0029 0.0409205 -1.0379e-19)
(1.00369 0.0338284 -1.00098e-19)
(1.00386 0.0270581 0)
(1.0035 0.020572 1.88647e-19)
(1.00224 0.0145049 -9.22945e-20)
(0.999209 0.00935384 -2.65211e-19)
(0.99572 0.00517495 7.9578e-20)
(0.609828 0.374458 0)
(0.717883 0.324643 -2.31642e-19)
(0.765666 0.267182 1.04356e-19)
(0.810907 0.217335 -8.82131e-20)
(0.844349 0.182766 -7.22513e-20)
(0.872495 0.157702 6.48506e-20)
(0.896027 0.138628 1.13056e-19)
(0.915869 0.123266 -9.78457e-20)
(0.932615 0.110311 9.08359e-20)
(0.946747 0.0989962 0)
(0.958639 0.0889413 0)
(0.968623 0.0798594 7.14051e-20)
(0.976943 0.0715163 0)
(0.983788 0.0637165 0)
(0.989311 0.056309 -1.19315e-19)
(0.993644 0.0491995 -5.69929e-20)
(0.996913 0.0423567 1.11741e-19)
(0.999239 0.0357976 0)
(1.00075 0.0295482 5.21965e-20)
(1.0016 0.0235999 0)
(1.00187 0.0179173 0)
(1.00132 0.0125756 0)
(0.999339 0.00790001 -4.56908e-20)
(0.996817 0.00384958 8.08272e-20)
(0.0297706 -0.0622775 -1.14716e-18)
(0.163232 -0.128207 1.47407e-21)
(0.290701 -0.181594 3.72623e-20)
(0.348663 -0.199316 4.86801e-19)
(0.342348 -0.195948 5.43584e-19)
(0.115029 -0.0838673 -1.90759e-19)
(0.066958 -0.0943204 3.23593e-20)
(0.204144 -0.17553 -2.02707e-20)
(0.297423 -0.210124 5.45258e-19)
(0.33715 -0.210654 0)
(0.339525 -0.183451 -3.87367e-19)
(0.227384 -0.0839016 3.55224e-19)
(0.0890036 -0.121516 1.56666e-20)
(0.211479 -0.200605 -6.31282e-19)
(0.284375 -0.223382 -5.40356e-19)
(0.320018 -0.212681 0)
(0.323299 -0.17162 3.14439e-19)
(0.280271 -0.0673967 -5.15487e-19)
(0.105745 -0.149533 0)
(0.211344 -0.220911 0)
(0.271332 -0.235424 -1.1864e-19)
(0.304449 -0.21628 0)
(0.313209 -0.16738 8.14827e-20)
(0.308347 -0.069429 2.15582e-19)
(0.118495 -0.175881 3.78655e-21)
(0.209089 -0.238251 -2.29231e-21)
(0.260082 -0.247291 8.35268e-20)
(0.29192 -0.223167 -1.69176e-20)
(0.308404 -0.171449 -1.01408e-19)
(0.32584 -0.083867 -7.51782e-20)
(0.128119 -0.199459 -4.80781e-19)
(0.206105 -0.252904 8.57836e-21)
(0.250158 -0.259033 2.29689e-19)
(0.282117 -0.233087 2.15074e-20)
(0.306503 -0.182529 1.83794e-20)
(0.338312 -0.106219 0)
(0.1354 -0.220324 9.61979e-19)
(0.202498 -0.26539 0)
(0.241159 -0.270848 -1.75766e-19)
(0.274131 -0.245813 -2.06493e-20)
(0.305708 -0.199191 1.05035e-19)
(0.347546 -0.133968 1.52159e-19)
(0.14095 -0.238456 -4.7458e-19)
(0.198107 -0.276248 0)
(0.232636 -0.282929 3.84235e-19)
(0.267107 -0.261058 -3.91899e-20)
(0.304927 -0.220228 -3.72309e-19)
(0.354167 -0.165443 -6.13134e-20)
(0.145117 -0.253648 1.4722e-20)
(0.192736 -0.285867 0)
(0.224131 -0.295383 -3.73125e-19)
(0.260334 -0.278479 0)
(0.303515 -0.244726 2.65087e-19)
(0.358566 -0.199677 -5.6599e-20)
(0.148097 -0.26575 -1.8426e-18)
(0.186188 -0.294488 1.02331e-18)
(0.21523 -0.308233 -4.57603e-20)
(0.253223 -0.297729 0)
(0.301048 -0.272031 6.35745e-20)
(0.361003 -0.23621 -5.76339e-20)
(0.149581 -0.274554 1.86868e-18)
(0.178371 -0.302283 -9.52634e-19)
(0.205582 -0.32144 0)
(0.245287 -0.318481 0)
(0.297205 -0.301648 -5.66642e-19)
(0.361636 -0.274836 5.66749e-20)
(0.149195 -0.280035 -1.86115e-18)
(0.169224 -0.309332 5.87068e-20)
(0.194904 -0.334902 -4.4437e-20)
(0.236111 -0.340421 0)
(0.291716 -0.333201 4.99693e-19)
(0.360551 -0.315498 0)
(0.146545 -0.282262 1.89019e-18)
(0.158715 -0.315661 9.52323e-19)
(0.182981 -0.348453 0)
(0.22535 -0.363224 5.73282e-19)
(0.284334 -0.366385 1.2061e-19)
(0.357747 -0.358218 -1.10099e-19)
(0.141305 -0.281384 -5.82468e-20)
(0.146829 -0.321217 9.11028e-20)
(0.169679 -0.361856 -1.30696e-19)
(0.212724 -0.386522 -4.29854e-19)
(0.274802 -0.40089 -4.26989e-19)
(0.353138 -0.403033 -2.12409e-19)
(0.133281 -0.27757 5.84149e-20)
(0.133614 -0.325861 -1.0127e-18)
(0.154948 -0.374784 0)
(0.198021 -0.409845 -5.70486e-19)
(0.262841 -0.43635 4.84165e-19)
(0.346549 -0.449963 -4.15502e-19)
(0.12242 -0.270979 -5.86724e-20)
(0.11924 -0.329341 3.14794e-20)
(0.138832 -0.386771 -8.79951e-20)
(0.181102 -0.432568 1.44375e-19)
(0.248153 -0.472252 2.99721e-19)
(0.337712 -0.498945 4.22238e-19)
(0.108903 -0.261678 0)
(0.104002 -0.331225 -1.04351e-18)
(0.121502 -0.397162 -8.20029e-19)
(0.161888 -0.45386 6.54887e-19)
(0.230401 -0.507825 -4.11488e-21)
(0.32622 -0.549706 0)
(0.0932681 -0.249504 -1.78186e-18)
(0.0882925 -0.330826 1.01208e-18)
(0.103249 -0.405041 6.57886e-19)
(0.14034 -0.472617 2.18942e-19)
(0.209206 -0.541939 -6.09449e-19)
(0.311487 -0.601684 -3.96084e-19)
(0.0765148 -0.233821 1.91165e-18)
(0.072592 -0.327079 0)
(0.0844542 -0.409154 -9.5466e-20)
(0.11641 -0.487426 4.07489e-21)
(0.184124 -0.572969 -5.34582e-20)
(0.292598 -0.653943 1.14884e-19)
(0.0600781 -0.213281 6.0504e-20)
(0.0573969 -0.31841 -3.6736e-20)
(0.0655107 -0.407875 -8.17066e-19)
(0.0900073 -0.496629 0)
(0.154696 -0.598564 -1.18817e-19)
(0.267999 -0.704949 1.1664e-19)
(0.045419 -0.186007 0)
(0.0431599 -0.302782 1.24241e-18)
(0.0468505 -0.399354 8.68624e-19)
(0.0611342 -0.498595 0)
(0.120525 -0.615391 -1.22931e-19)
(0.234724 -0.752886 5.17154e-19)
(0.0340661 -0.151381 -6.23226e-20)
(0.030734 -0.278153 -2.617e-18)
(0.0293545 -0.381769 1.16916e-19)
(0.0305324 -0.492178 -8.38006e-19)
(0.0819532 -0.618424 0)
(0.186173 -0.798038 0)
(0.0284937 -0.111414 -6.5001e-20)
(0.0220471 -0.2413 1.49682e-18)
(0.0152883 -0.35204 1.31608e-19)
(0.000148861 -0.475769 7.2252e-19)
(0.0401568 -0.59647 -6.41008e-19)
(0.107137 -0.854922 -8.42999e-20)
(0.0313492 -0.0573385 -1.15142e-18)
(0.0188235 -0.16891 -7.37532e-19)
(0.0020213 -0.286699 0)
(-0.0434953 -0.432175 -1.12773e-19)
(0.0214264 -0.52611 8.10639e-19)
(-0.0423242 -0.990618 7.44191e-20)
(0.44378 0.356205 3.49055e-19)
(0.649213 0.28981 2.2842e-19)
(0.725579 0.236906 -1.9933e-19)
(0.782485 0.191761 -7.32013e-21)
(0.822197 0.160478 7.44108e-20)
(0.854262 0.137778 -6.68527e-20)
(0.880525 0.120565 -1.16031e-19)
(0.902438 0.106783 -2.03347e-19)
(0.920865 0.0952253 9.50793e-20)
(0.936426 0.085193 8.48304e-20)
(0.949542 0.0763314 0)
(0.960597 0.0683774 7.1813e-20)
(0.969876 0.0611155 -1.36679e-19)
(0.977595 0.0543642 6.48695e-20)
(0.98393 0.0479817 -6.19479e-20)
(0.989025 0.0418773 -5.84725e-20)
(0.993014 0.0360177 0)
(0.996021 0.0304126 5.51034e-20)
(0.998178 0.0250804 -5.22618e-20)
(0.999626 0.0200123 0)
(1.00046 0.015174 -4.93827e-20)
(1.00053 0.0105941 1.89968e-19)
(0.999439 0.00647025 -1.38194e-19)
(0.997845 0.00283317 -4.16231e-20)
(0.401644 0.254809 -2.18832e-19)
(0.603379 0.235791 -6.46458e-20)
(0.692059 0.197928 0)
(0.757114 0.161271 1.79423e-19)
(0.802119 0.134857 0)
(0.83767 0.115355 0)
(0.866446 0.100504 1.1538e-19)
(0.890283 0.0886322 -1.02076e-19)
(0.91027 0.0787076 -8.98214e-20)
(0.92716 0.0701477 1.72592e-19)
(0.941428 0.0626482 -1.57442e-19)
(0.953486 0.0559717 7.40738e-20)
(0.963656 0.0499226 0)
(0.97218 0.044339 -6.48945e-20)
(0.979254 0.0390924 1.86431e-19)
(0.985037 0.0340971 -6.00752e-20)
(0.98967 0.0293159 -5.7026e-20)
(0.993281 0.0247494 3.88659e-22)
(0.996002 0.0204077 -5.38434e-20)
(0.997968 0.0162819 5.18903e-20)
(0.999276 0.012342 -6.42321e-22)
(0.999862 0.00858853 0)
(0.999519 0.00513063 1.8641e-19)
(0.998699 0.00203362 -1.67913e-19)
(0.40158 0.173711 -1.12899e-19)
(0.576414 0.178034 0)
(0.667045 0.154584 1.10802e-19)
(0.736055 0.127294 -4.91547e-20)
(0.784864 0.106484 -1.21628e-19)
(0.82321 0.0907283 6.69579e-20)
(0.85414 0.0786178 -6.09122e-20)
(0.879696 0.0689281 0)
(0.901095 0.0608462 0)
(0.919171 0.0539314 -1.72503e-19)
(0.934464 0.0479439 1.19786e-19)
(0.947423 0.0426778 1.11264e-19)
(0.958389 0.0379642 -3.53524e-20)
(0.967628 0.0336611 -6.59376e-20)
(0.975352 0.0296541 1.58416e-19)
(0.981734 0.0258641 -1.21324e-19)
(0.986919 0.0222501 -1.16315e-19)
(0.991042 0.0188018 2.24582e-19)
(0.994235 0.0155198 -8.19638e-20)
(0.996629 0.0123955 -5.19162e-20)
(0.998325 0.00940513 7.53556e-20)
(0.999327 0.00653779 0)
(0.99957 0.00384884 0)
(0.999351 0.00140729 6.31957e-20)
(0.410483 0.107287 7.563e-20)
(0.560502 0.122485 0)
(0.649568 0.110048 -1.0957e-19)
(0.71964 0.0912475 9.40047e-20)
(0.770807 0.0760769 8.01841e-20)
(0.811208 0.0642901 -3.50417e-20)
(0.843882 0.0551355 2.96545e-20)
(0.870899 0.0478238 -2.79238e-20)
(0.89353 0.0417664 -2.82258e-22)
(0.912645 0.0366545 4.36158e-20)
(0.928824 0.0323091 -2.03178e-20)
(0.942549 0.0285696 -3.74091e-20)
(0.954189 0.025296 -7.02276e-20)
(0.96403 0.0223692 3.36973e-20)
(0.972297 0.0196927 -3.17849e-20)
(0.979171 0.0171946 -6.10536e-20)
(0.984805 0.0148285 5.91571e-20)
(0.989336 0.0125718 0)
(0.9929 0.0104154 4.09177e-20)
(0.995624 0.00834996 0)
(0.997613 0.00635959 -7.60411e-20)
(0.998923 0.00443373 4.68518e-23)
(0.999581 0.00259791 1.06794e-19)
(0.999777 0.000899862 -6.36982e-20)
(0.420145 0.0498931 8.25409e-20)