/*--------------------------------*- C++ -*----------------------------------*\
  =========                 |
  \\      /  F ield         | OpenFOAM: The Open Source CFD Toolbox
   \\    /   O peration     | Website:  https://openfoam.org
    \\  /    A nd           | Version:  11
     \\/     M anipulation  |
\*---------------------------------------------------------------------------*/
FoamFile
{
    format      ascii;
    class       volScalarField;
    location    "0.7";
    object      nut;
}
// * * * * * * * * * * * * * * * * * * * * * * * * * * * * * * * * * * * * * //

dimensions      [0 2 -1 0 0 0 0];

internalField   nonuniform List<scalar> 
2880
(
1.11191e-06
1.13078e-05
4.55202e-05
0.000110763
4.45305e-05
5.53817e-05
3.14938e-05
8.2852e-05
0.000182749
0.000304073
0.000351046
0.0003948
4.85739e-05
0.000171424
0.000312169
0.000458573
0.000562639
0.000642786
5.36006e-05
0.000245337
0.000407608
0.000554529
0.000664971
0.000720197
5.71579e-05
0.000301501
0.000471836
0.000606067
0.000698041
0.00072499
5.97157e-05
0.000341132
0.000510877
0.000626904
0.000692263
0.000706176
6.15343e-05
0.000366635
0.000530449
0.000626052
0.000668021
0.000682863
6.27746e-05
0.000380783
0.000536149
0.00061248
0.000637316
0.000661173
6.3541e-05
0.000386208
0.000532091
0.000592314
0.000607837
0.000645037
6.39e-05
0.00038493
0.000521509
0.000568998
0.000581621
0.000633613
6.38951e-05
0.000378366
0.000506571
0.000544826
0.000557865
0.00062523
6.35479e-05
0.000367445
0.000488497
0.000520998
0.000534698
0.000617575
6.28835e-05
0.000352695
0.000468066
0.000497385
0.000512871
0.000608967
6.19702e-05
0.000334296
0.000445636
0.000472947
0.000489552
0.000598022
6.08031e-05
0.000312746
0.00042138
0.000447489
0.000464515
0.000581845
5.93579e-05
0.000288479
0.000395656
0.000420009
0.000437375
0.000559522
5.75998e-05
0.000261748
0.000368976
0.000390092
0.000407286
0.00052935
5.5459e-05
0.000232985
0.000340869
0.00035651
0.000373636
0.000489856
5.27483e-05
0.000203454
0.000310392
0.000318565
0.000336054
0.000439785
4.88903e-05
0.000175624
0.000275748
0.000275209
0.000292642
0.000378286
0.000195076
0.000155609
0.000233665
0.000229514
0.000236965
0.000308774
0.000178827
0.000118539
0.000180297
0.000185892
0.000166712
0.00023076
3.19078e-05
5.47127e-05
9.97858e-05
0.00012117
9.12757e-05
0.000130372
1.03073e-06
3.00874e-06
9.25347e-06
2.21827e-05
5.19965e-05
4.70345e-05
0.000236033
0.000545457
0.000706337
0.000803914
0.000890239
0.000992033
0.00111594
0.00126369
0.00143603
0.00163256
0.00185137
0.00208917
0.00234184
0.00260508
0.00287531
0.0031503
0.00342924
0.0037112
0.00399214
0.00425429
0.00447795
0.00468774
0.00484636
0.00493535
0.000580027
0.00074617
0.000786085
0.00084504
0.00094025
0.00106451
0.00121422
0.00138983
0.0015915
0.00181732
0.00206346
0.00232485
0.00259573
0.00287028
0.00314338
0.00341136
0.00367232
0.00392534
0.0041682
0.00439453
0.00458079
0.00474258
0.0048739
0.00495111
0.000752052
0.000763799
0.000805245
0.000892188
0.00100952
0.00115305
0.00132529
0.0015275
0.00175749
0.00201049
0.00228032
0.0025601
0.00284258
0.00312062
0.00338788
0.00363964
0.00387342
0.0040887
0.00428533
0.0044612
0.00461104
0.00471994
0.00481644
0.00488336
0.000775335
0.000785731
0.000846095
0.000945482
0.00107677
0.00124139
0.00144055
0.00167181
0.00192966
0.00220694
0.00249594
0.00278863
0.0030768
0.00335238
0.00360806
0.00383816
0.00403939
0.00421111
0.00435461
0.00447175
0.00456343
0.00462967
0.00467453
0.00472433
0.000764934
0.000798075
0.000879208
0.000996867
0.00114877
0.00133784
0.00156415
0.00182265
0.00210514
0.00240259
0.00270607
0.00300675
0.00329577
0.00356445
0.00380481
0.00401041
0.00417704
0.00430311
0.00438979
0.0044409
0.00446317
0.00446613
0.00446048
0.00447664
0.00075144
0.00081578
0.000918295
0.00105249
0.00122374
0.00143719
0.00169061
0.00197506
0.00227945
0.00259327
0.00290697
0.0032114
0.00349743
0.00375614
0.0039793
0.00416011
0.00429368
0.00437732
0.00441057
0.00439564
0.00433943
0.00425752
0.0041727
0.00412474
0.000744904
0.00083874
0.000958309
0.00110814
0.00130002
0.00153891
0.00181887
0.00212694
0.00244974
0.00277598
0.003096
0.00340064
0.0036808
0.00392764
0.00413312
0.00429068
0.00439562
0.00444503
0.00443741
0.00437172
0.00424673
0.00406122
0.00381285
0.00346427
0.000750415
0.000866323
0.000999441
0.00116422
0.00137685
0.00164092
0.00194615
0.00227525
0.0026131
0.00294821
0.00327119
0.00357316
0.00384525
0.00407893
0.00426668
0.00440275
0.00448349
0.00450724
0.0044739
0.00438406
0.00423828
0.00403695
0.00378108
0.0034712
0.000761818
0.000895419
0.00103969
0.00121886
0.00145219
0.00174112
0.00207028
0.00241779
0.00276745
0.00310821
0.00343124
0.0037281
0.00399024
0.00420952
0.00437911
0.0044943
0.00455287
0.00455492
0.00450228
0.00439761
0.00424358
0.00404269
0.00379778
0.00350742
0.000776636
0.000924516
0.0010781
0.00127096
0.0015244
0.00183762
0.00218944
0.00255278
0.00291129
0.00325482
0.00357539
0.00386502
0.00411546
0.00431896
0.00446938
0.00456315
0.00459958
0.00458064
0.00451021
0.00439291
0.00423302
0.00403427
0.00380077
0.00353028
0.000792936
0.000952391
0.0011136
0.00131868
0.00159212
0.00192903
0.0023023
0.00267899
0.00304363
0.00338746
0.00370341
0.00398395
0.00422106
0.00440731
0.00453725
0.00460844
0.0046218
0.00458123
0.00449259
0.00436241
0.0041966
0.00400036
0.00377951
0.00353322
0.000809046
0.000977545
0.00114524
0.00136236
0.00165531
0.00201463
0.00240789
0.00279561
0.00316404
0.00350606
0.00381557
0.00408541
0.00430771
0.00447531
0.00458344
0.00463094
0.00462052
0.00455818
0.00445197
0.00431039
0.00414091
0.00394993
0.00374438
0.0035248
0.000823793
0.00100062
0.00117378
0.00140174
0.00171323
0.00209362
0.00250547
0.00290222
0.00327248
0.00361094
0.00391251
0.00417033
0.00437657
0.00452429
0.0046095
0.00463246
0.00459796
0.00451439
0.00439212
0.00424156
0.00407148
0.00388898
0.00370132
0.00350983
0.000836874
0.00102144
0.00119901
0.00143637
0.00176538
0.0021655
0.00259459
0.00299878
0.00336928
0.00370279
0.00399522
0.00423997
0.00442915
0.00455604
0.0046175
0.00461551
0.00455725
0.00445373
0.00431773
0.00416134
0.00399413
0.00382325
0.00365539
0.00349188
0.00084804
0.0010403
0.00122078
0.00146609
0.00181148
0.00223007
0.00267496
0.00308551
0.00345505
0.00378253
0.00406493
0.00429584
0.00446725
0.00457266
0.00460996
0.00458314
0.00450208
0.00438067
0.00423398
0.00407537
0.00391451
0.00375779
0.0036105
0.00347338
0.000856034
0.00105966
0.00123823
0.00149049
0.00185157
0.00228754
0.00274639
0.00316294
0.00353064
0.00385125
0.00412301
0.0043396
0.00449285
0.0045765
0.00458967
0.00453866
0.00443641
0.00429978
0.00414585
0.00398864
0.00383712
0.00369618
0.00356913
0.00345581
0.000860937
0.00107431
0.00126044
0.00150771
0.00188562
0.00233834
0.00280927
0.00323188
0.003597
0.00391016
0.0041709
0.00437299
0.00450802
0.00457002
0.00455952
0.00448548
0.00436417
0.00421536
0.00405773
0.00390515
0.00376516
0.00364059
0.00353255
0.00343996
0.000862523
0.00108912
0.00127497
0.00152806
0.00191153
0.00238275
0.00286482
0.00329328
0.00365518
0.00396046
0.00421006
0.00439775
0.00451483
0.00455566
0.00452239
0.00442692
0.00428901
0.00413119
0.0039731
0.00382773
0.00370053
0.00359202
0.00350118
0.00342618
0.000859854
0.00110427
0.00128976
0.00155113
0.00193815
0.00241787
0.00291401
0.00334812
0.00370618
0.00400333
0.00424188
0.00441555
0.00451529
0.00453583
0.00448106
0.00436608
0.00421418
0.00405034
0.00389452
0.00375809
0.00364406
0.00355061
0.00347491
0.00341456
0.000851611
0.00112105
0.00130469
0.0015686
0.00196824
0.00245077
0.00295497
0.00339732
0.00375094
0.00403987
0.00426766
0.00442794
0.00451128
0.00451274
0.00443808
0.00430569
0.00414239
0.00397515
0.00382361
0.00369699
0.00359575
0.00351597
0.00345336
0.00340504
0.000835648
0.0011413
0.00132138
0.00159004
0.00200052
0.0024898
0.00298873
0.00344041
0.0037903
0.00407107
0.00428856
0.00443633
0.0045045
0.00448842
0.00439573
0.00424812
0.00407576
0.00390722
0.00376122
0.00364454
0.00355515
0.00348743
0.00343598
0.00339749
0.000810033
0.0011681
0.001347
0.00162192
0.00203736
0.00253165
0.00302831
0.00347561
0.00382534
0.00409789
0.00430562
0.00444195
0.00449646
0.00446468
0.00435599
0.00419529
0.00401588
0.0038475
0.00370759
0.00360035
0.0035215
0.00346408
0.0034221
0.00339161
0.000783548
0.00121252
0.00139474
0.0016674
0.00208014
0.00257617
0.00307055
0.00351023
0.00385301
0.004121
0.00431979
0.00444592
0.00448851
0.0044431
0.00432058
0.00414879
0.00396388
0.00379646
0.00366252
0.00356382
0.00349407
0.00344525
0.00341102
0.00338696
0.000810042
0.00129477
0.00145361
0.00171972
0.00212915
0.0026246
0.00311608
0.0035493
0.00387965
0.00413959
0.00433191
0.00444923
0.00448187
0.00442515
0.00429106
0.00410999
0.00392064
0.00375434
0.0036257
0.00353428
0.00347213
0.00343037
0.00340232
0.0033834
1.26709e-06
1.14018e-05
4.57987e-05
9.86436e-05
0.000156639
4.73749e-05
3.57068e-05
6.45101e-05
0.000144623
0.000252708
0.000355805
0.000381209
5.17725e-05
0.000144417
0.000270605
0.000424643
0.000582089
0.000707591
5.76971e-05
0.0002235
0.000391558
0.000583507
0.000779052
0.000965131
6.21922e-05
0.000296543
0.000502452
0.000725529
0.000942085
0.00115539
6.56876e-05
0.000361504
0.000601502
0.000849402
0.00107491
0.00129604
6.84208e-05
0.000416272
0.000687832
0.000954827
0.00118292
0.00140191
7.05398e-05
0.000460692
0.000761217
0.00104261
0.00127082
0.0014832
7.21399e-05
0.000494958
0.000821407
0.00111425
0.00134241
0.00154681
7.32816e-05
0.00051937
0.00086849
0.00117106
0.00140047
0.00159759
7.40003e-05
0.000534158
0.000902863
0.00121391
0.00144826
0.00163818
7.43181e-05
0.000539344
0.000924832
0.00124394
0.00148422
0.00166957
7.43122e-05
0.000534239
0.000934205
0.00126112
0.00150905
0.00169321
7.40707e-05
0.000518617
0.000931065
0.00126556
0.00152192
0.00170916
7.35369e-05
0.000494357
0.000914748
0.00125742
0.0015217
0.0017163
7.26498e-05
0.000463271
0.000885413
0.001235
0.00150724
0.00171239
7.13357e-05
0.000426596
0.000843274
0.00119631
0.00147557
0.00169379
6.94976e-05
0.000385135
0.000788033
0.00113765
0.0014219
0.00165306
6.70069e-05
0.000340625
0.000718555
0.00105468
0.00133982
0.00158048
6.36844e-05
0.000293105
0.000631934
0.000941056
0.00122137
0.00146091
5.92811e-05
0.000240731
0.000521888
0.000788312
0.00105
0.00126595
5.34464e-05
0.000177887
0.000379527
0.000586924
0.000806421
0.000954775
3.9272e-05
9.33098e-05
0.000201521
0.000332326
0.000485161
0.000503486
1.32251e-06
8.04627e-06
3.117e-05
7.69518e-05
0.000165793
5.4985e-05
0.000897424
0.00135467
0.00151286
0.00177883
0.00218576
0.00267752
0.0031647
0.00359116
0.00390842
0.00415743
0.00434174
0.00445273
0.00447757
0.00441208
0.00426881
0.00408014
0.00388697
0.00372138
0.00359684
0.00351115
0.00345501
0.00341885
0.00339566
0.0033808
0.00115215
0.00147264
0.00159563
0.00185161
0.00225011
0.00273421
0.00321589
0.00363532
0.00394257
0.0041775
0.0043523
0.0044571
0.00447641
0.00440496
0.004255
0.00406028
0.00386357
0.00369778
0.00357577
0.00349402
0.0034422
0.0034102
0.00339072
0.003379
0.00133065
0.00159056
0.00169752
0.00193369
0.00231899
0.00279196
0.00326189
0.00366986
0.00397111
0.00420121
0.00436841
0.00446501
0.00447961
0.00440468
0.00425054
0.00405121
0.00385099
0.00368377
0.00356236
0.00348258
0.00343335
0.00340408
0.00338722
0.00337779
0.00144521
0.00168462
0.00179302
0.00201559
0.0023864
0.00284358
0.00330002
0.0036944
0.00398913
0.00421604
0.00438132
0.00447738
0.00449048
0.0044124
0.00425568
0.00405341
0.00384969
0.00367965
0.00355667
0.00347678
0.00342838
0.00340016
0.00338489
0.00337701
0.00153006
0.00175943
0.00187401
0.00209051
0.00244659
0.00288567
0.0033286
0.00371014
0.00399922
0.00422296
0.00438741
0.00448478
0.00450099
0.004427
0.00427187
0.00406782
0.00385996
0.00368523
0.00355887
0.00347671
0.0034268
0.00339854
0.00338389
0.00337668
0.00159751
0.00181756
0.00194078
0.00215331
0.00249246
0.00291592
0.00334851
0.00372056
0.00400584
0.00422815
0.0043931
0.00449318
0.00451436
0.00444663
0.00429652
0.00409378
0.00388285
0.00370233
0.0035697
0.00348273
0.00342938
0.00339946
0.00338408
0.00337667
0.00165409
0.00185831
0.00199242
0.00219844
0.00252463
0.00293579
0.00335983
0.00372457
0.00400804
0.00423077
0.00439799
0.00450273
0.00453134
0.00447281
0.00433089
0.00413186
0.00391854
0.00373102
0.00359
0.00349569
0.00343735
0.00340344
0.00338575
0.00337706
0.0017014
0.00188653
0.0020283
0.00222978
0.00254455
0.00294423
0.00336113
0.00372128
0.00400514
0.00423027
0.00440161
0.00451293
0.00455116
0.00450456
0.00437398
0.00418154
0.0039673
0.00377228
0.00362083
0.0035166
0.00345075
0.00341083
0.00338908
0.00337797
0.00174067
0.00190603
0.00205246
0.00224852
0.00255169
0.00294038
0.0033514
0.00370985
0.00399642
0.00422601
0.00440334
0.00452303
0.00457285
0.00454065
0.00442455
0.004242
0.00402916
0.003827
0.00366351
0.00354665
0.0034701
0.00342282
0.00339467
0.00337962
0.00177341
0.00191908
0.0020666
0.00225551
0.0025462
0.00292384
0.00332986
0.00368947
0.0039811
0.00421723
0.00440241
0.00453216
0.00459532
0.00457967
0.00448097
0.00431185
0.00410361
0.00389578
0.0037195
0.00358764
0.00349743
0.0034392
0.00340337
0.00338234
0.00180043
0.00192736
0.00207203
0.00225166
0.00252855
0.00289457
0.003296
0.00365931
0.00395825
0.00420299
0.00439787
0.00453933
0.00461734
0.00462003
0.00454128
0.00438914
0.00418935
0.00397857
0.00378991
0.00364127
0.00353443
0.00346211
0.00341542
0.00338644
0.0018228
0.00193256
0.00206936
0.00223783
0.00249943
0.00285277
0.00324945
0.00361854
0.00392685
0.00418221
0.00438863
0.00454333
0.00463752
0.00465996
0.00460324
0.00447135
0.00428425
0.00407439
0.0038752
0.00370905
0.00358295
0.00349309
0.0034321
0.00339231
0.00184121
0.00193703
0.00205746
0.00221487
0.00245982
0.00279899
0.00319008
0.00356629
0.00388572
0.00415361
0.00437335
0.0045428
0.00465436
0.00469761
0.00466443
0.00455554
0.00438535
0.00418114
0.00397485
0.00379194
0.00364472
0.00353389
0.00345463
0.0034004
0.00185566
0.00194049
0.00204064
0.0021849
0.00241124
0.00273414
0.00311803
0.00350172
0.00383361
0.00411573
0.00435052
0.00453621
0.00466621
0.00473107
0.00472246
0.00463862
0.00448911
0.00429564
0.00408698
0.00388982
0.00372097
0.00358616
0.00348433
0.00341122
0.0018653
0.00194276
0.00202161
0.00215008
0.00235557
0.0026596
0.00303384
0.00342405
0.00376918
0.00406703
0.0043185
0.00452186
0.00467136
0.00475847
0.00477501
0.00471756
0.0045917
0.00441377
0.00420824
0.00400098
0.00381173
0.00365104
0.00352245
0.00342531
0.00186818
0.00194321
0.00200204
0.00211221
0.00229475
0.00257714
0.00293865
0.00333234
0.00369113
0.00400594
0.00427556
0.00449797
0.00466798
0.00477791
0.00481991
0.00478951
0.00468927
0.00453083
0.00433393
0.00412188
0.00391536
0.00372857
0.00356992
0.00344322
0.00186156
0.00194033
0.00198263
0.00207236
0.0022306
0.00248885
0.00283455
0.00322564
0.00359853
0.00393108
0.00422001
0.00446268
0.0046542
0.00478749
0.00485507
0.00485187
0.00477826
0.00464206
0.00445844
0.0042472
0.00402804
0.00381709
0.00362673
0.00346524
0.00184245
0.00193108
0.0019631
0.00203021
0.00216453
0.00239668
0.00272292
0.00310698
0.00349163
0.00384152
0.00415032
0.0044142
0.0046281
0.00478528
0.0048785
0.00490232
0.00485555
0.00474304
0.00457604
0.00437054
0.00414402
0.00391266
0.00369108
0.00349095
0.00180668
0.00190695
0.00194015
0.00198731
0.00209811
0.00230286
0.00260614
0.00297864
0.00337104
0.00373671
0.00406522
0.00435081
0.00458779
0.00476933
0.00488826
0.00493879
0.00491853
0.00483009
0.00468151
0.00448531
0.00425619
0.00400907
0.00375887
0.00351871
0.00174102
0.00186027
0.00191
0.00194374
0.00203239
0.0022095
0.00248691
0.00284323
0.00323779
0.00361652
0.00396376
0.00427105
0.00453147
0.00473777
0.00488249
0.0049594
0.0049651
0.0049004
0.00477078
0.00458577
0.00435736
0.00409864
0.00382368
0.00354525
0.00162189
0.00178145
0.00186921
0.00189806
0.0019674
0.00211817
0.002368
0.00270422
0.00309263
0.00348128
0.00384553
0.00417383
0.00445765
0.00468885
0.00485943
0.0049625
0.00499363
0.00495205
0.00484109
0.00466774
0.00444155
0.0041738
0.00387757
0.00356527
0.00141162
0.00165573
0.00180844
0.00184635
0.00190185
0.00202951
0.00225156
0.00256418
0.00293987
0.00333305
0.00371111
0.00405877
0.00436527
0.00462117
0.00481757
0.00494666
0.00500287
0.00498387
0.00489098
0.00472889
0.00450491
0.00422867
0.00391279
0.00357173
0.00101555
0.00145876
0.00171473
0.00178101
0.00183406
0.00194286
0.00213897
0.0024258
0.00278363
0.00317472
0.00356203
0.00392627
0.00425392
0.00453381
0.00475574
0.00491075
0.00499193
0.00499526
0.00492004
0.00476868
0.00454614
0.00426023
0.00392326
0.00355659
0.000447698
0.00108504
0.00153954
0.00168509
0.00175846
0.00185623
0.00203033
0.00229126
0.00262746
0.00300964
0.00340067
0.00377761
0.00412399
0.00442649
0.00467335
0.00485415
0.00496039
0.00498624
0.00492882
0.00478805
0.00456625
0.00426864
0.00390631
0.00351239
2.04372e-06
6.2909e-06
1.48665e-05
2.49889e-05
3.54448e-05
6.65714e-05
4.96986e-05
6.92603e-05
0.000109258
0.000135139
0.000151455
0.000168441
5.79567e-05
0.000115142
0.00018819
0.000231201
0.000249408
0.000246027
6.26287e-05
0.000148713
0.00025517
0.000310992
0.000329905
0.00031426
6.59143e-05
0.000184307
0.000316318
0.000381122
0.000401306
0.000377988
6.84296e-05
0.000222224
0.00037409
0.000445301
0.000466681
0.00043919
7.04678e-05
0.000260954
0.000427569
0.000504593
0.000526305
0.000497978
7.2164e-05
0.000298995
0.000475675
0.000558084
0.000580819
0.000554437
7.35889e-05
0.000334994
0.000517548
0.000605188
0.000631042
0.000609464
7.47877e-05
0.000366988
0.00055267
0.000645731
0.000677905
0.000664496
7.57964e-05
0.000392956
0.000580863
0.000680391
0.00072221
0.000719271
7.66504e-05
0.000410856
0.000602087
0.00070949
0.000762946
0.000774009
7.71768e-05
0.00042161
0.000616356
0.000732627
0.000799239
0.000827206
7.72552e-05
0.00042619
0.000623261
0.000749051
0.0008301
0.000877398
7.69739e-05
0.000424436
0.000621885
0.000757461
0.000853452
0.000921106
7.6189e-05
0.000414862
0.000611193
0.000756039
0.000866448
0.000954142
7.4884e-05
0.000397898
0.000589144
0.000741491
0.00086532
0.000972498
7.29549e-05
0.000371503
0.000555991
0.000712698
0.000844355
0.000967598
7.0289e-05
0.000334415
0.000509056
0.000666511
0.000803144
0.000942747
6.67399e-05
0.000285318
0.000446532
0.000598938
0.00073223
0.000883027
6.21612e-05
0.000224729
0.000366733
0.000506594
0.000623771
0.000774137
5.60133e-05
0.000152112
0.000268709
0.000387481
0.000478012
0.000586953
4.27926e-05
7.2141e-05
0.000152371
0.000242135
0.00030016
0.000295933
1.64193e-06
1.3075e-05
4.64795e-05
9.31392e-05
0.00014591
4.69336e-05
0.000332354
0.000881692
0.00134304
0.00157921
0.00167769
0.00177237
0.00192559
0.00216172
0.00247421
0.00284135
0.00323004
0.00361491
0.0039767
0.00429981
0.0045706
0.00477696
0.00490864
0.00495772
0.00491896
0.00478951
0.00456851
0.00425744
0.0038638
0.00343446
0.000280041
0.000767927
0.00117468
0.0014853
0.0015985
0.0016929
0.00182865
0.00203849
0.00232559
0.0026731
0.00305351
0.00344096
0.00381413
0.00415521
0.00444863
0.00468041
0.0048383
0.00491216
0.00489408
0.00477809
0.00455948
0.00423449
0.00380334
0.00332277
0.000245482
0.000694132
0.00104369
0.00137369
0.00151728
0.00161744
0.00174011
0.00192489
0.00218407
0.00250805
0.00287457
0.00325898
0.00363894
0.00399493
0.00430952
0.0045669
0.00475278
0.00485466
0.00486174
0.00476448
0.00455345
0.0042176
0.00374434
0.00318652
0.00023752
0.000636527
0.000950534
0.0012744
0.0014461
0.00154792
0.00166014
0.00182204
0.00205246
0.00234946
0.00269677
0.00307238
0.00345412
0.00382151
0.00415576
0.00443955
0.00465696
0.00479349
0.00483588
0.0047712
0.00458503
0.00425828
0.00376237
0.00309779
0.000268632
0.00058313
0.000874006
0.00117382
0.0013826
0.00148462
0.00158831
0.00172998
0.00193222
0.00219995
0.00252336
0.00288442
0.00326247
0.00363712
0.00398909
0.00430048
0.00455489
0.00473764
0.0048356
0.0048366
0.00473008
0.00451722
0.00424972
0.00406757
0.000326716
0.000545111
0.000823283
0.00107238
0.00131026
0.00142298
0.00152265
0.00164769
0.00182365
0.00206119
0.00235698
0.00269796
0.00306636
0.00344311
0.00380965
0.00414886
0.00444584
0.00468868
0.00486895
0.00498177
0.00502655
0.00501211
0.00496774
0.00494042
0.000390252
0.000522028
0.00078346
0.000993028
0.00123822
0.00136226
0.00146127
0.00157367
0.00172623
0.00193402
0.00219963
0.00251555
0.00286797
0.00324048
0.00361653
0.00398111
0.00432201
0.00463051
0.00490131
0.0051311
0.00531688
0.00545617
0.00555056
0.0056059
0.000458597
0.000514883
0.000751423
0.000925654
0.00116997
0.00131148
0.00140527
0.00150687
0.00163905
0.00181862
0.00205284
0.00233956
0.00266976
0.00303082
0.00340943
0.0037938
0.00417484
0.00454607
0.00490162
0.00523314
0.0055276
0.00576918
0.00593678
0.00604422
0.000526878
0.000528028
0.000727575
0.000871974
0.00109608
0.00125849
0.00135238
0.00144594
0.00156089
0.00171463
0.00191756
0.00217223
0.0024746
0.00281661
0.00318916
0.00358438
0.00399654
0.00442044
0.0048476
0.00526223
0.00564087
0.00594906
0.00617439
0.00631012
0.000597926
0.000563888
0.000715916
0.000835725
0.00102996
0.00120051
0.00129953
0.00138874
0.00149019
0.0016212
0.00179423
0.00201553
0.00228565
0.00260132
0.0029581
0.0033525
0.00378223
0.00424332
0.00472468
0.00520399
0.00564747
0.00600923
0.00627956
0.00643855
0.000671091
0.000607583
0.000719138
0.000809051
0.000976631
0.00114757
0.00124811
0.00133438
0.00142555
0.0015373
0.00168287
0.00187103
0.00210611
0.00238923
0.0027205
0.00310086
0.00353172
0.00401109
0.00452694
0.00505279
0.00554287
0.00595437
0.00626181
0.0064423
0.000743396
0.000672956
0.000732605
0.000800541
0.00093659
0.00109602
0.00119821
0.00128248
0.00136565
0.00146172
0.00158308
0.00173984
0.00193895
0.00218507
0.00248223
0.00283542
0.00324989
0.00372679
0.00425561
0.00480882
0.00533368
0.00578564
0.00612798
0.0063277
0.000817527
0.000762166
0.000766568
0.000808257
0.000915568
0.00104757
0.00114975
0.00123251
0.00130959
0.00139319
0.00149403
0.00162236
0.00178652
0.00199349
0.00225018
0.00256476
0.00294612
0.00339953
0.00391864
0.00447849
0.00502614
0.00550786
0.00588296
0.00610085
0.000889584
0.000853532
0.000829631
0.000832779
0.000911838
0.00101906
0.00110901
0.00118648
0.00125754
0.00133078
0.00141474
0.00151836
0.00165028
0.00181848
0.0020314
0.00229914
0.00263339
0.00304375
0.00353003
0.00407353
0.00462967
0.00512804
0.00553277
0.00576788
0.00095633
0.000944965
0.000911589
0.000883763
0.000921626
0.0010002
0.00107683
0.00114624
0.00121035
0.00127433
0.00134427
0.00142718
0.00153077
0.00166286
0.00183209
0.00204906
0.00232671
0.00267811
0.00310994
0.00361293
0.0041546
0.0046581
0.00508238
0.00533865
0.00101475
0.00102942
0.00100185
0.000961244
0.000960823
0.00100013
0.00105806
0.00111523
0.00117018
0.00122475
0.00128239
0.00134801
0.00142763
0.00152793
0.00165666
0.00182351
0.00204095
0.00232349
0.00268336
0.00312185
0.00361905
0.00411752
0.00454265
0.00481971
0.00106093
0.00109974
0.00108809
0.00105179
0.00102923
0.00103519
0.00106332
0.0011008
0.00114188
0.00118484
0.0012303
0.00128081
0.00134032
0.00141378
0.00150728
0.00162863
0.00178832
0.00199982
0.00227783
0.00263237
0.0030586
0.00352525
0.00394714
0.00424087
0.00108961
0.00115153
0.00116011
0.00113813
0.00110956
0.00109364
0.00109486
0.00110905
0.00113168
0.00115956
0.00119128
0.00122719
0.00126916
0.00132019
0.00138437
0.00146724
0.00157643
0.00172249
0.00191892
0.00217975
0.0025127
0.00290687
0.0033125
0.00360012
0.00109541
0.00118109
0.00120939
0.00120525
0.0011844
0.00116127
0.00114548
0.00113957
0.00114289
0.00115351
0.0011696
0.00119032
0.0012159
0.00124762
0.00128772
0.00133951
0.0014078
0.00149951
0.00162446
0.00179528
0.00202518
0.0023214
0.00265944
0.00294914
0.00107715
0.00118691
0.0012305
0.00124478
0.00124041
0.0012212
0.00120059
0.00118328
0.00117177
0.00116656
0.00116703
0.0011724
0.00118227
0.0011968
0.00121683
0.00124398
0.00128077
0.00133104
0.00140048
0.00149734
0.0016326
0.00181829
0.00206202
0.00231856
0.00102937
0.00116769
0.00122481
0.00125378
0.00126536
0.0012603
0.0012447
0.00122605
0.00120777
0.00119213
0.0011801
0.00117194
0.00116757
0.00116692
0.00117015
0.00117782
0.00119097
0.00121135
0.00124164
0.00128596
0.00135032
0.00144194
0.0015759
0.00176808
0.000942484
0.00112903
0.00119981
0.00123798
0.00125968
0.00126989
0.0012672
0.00125518
0.00123803
0.00121937
0.00120085
0.00118368
0.00116852
0.00115573
0.00114551
0.00113808
0.00113379
0.00113326
0.00113751
0.00114813
0.00116759
0.00119946
0.00124494
0.00134954
0.000828622
0.00108157
0.00116335
0.00120743
0.00123788
0.00125543
0.00126548
0.00126314
0.00125364
0.00123831
0.00121978
0.00119987
0.00117965
0.00115991
0.00114115
0.00112371
0.00110785
0.00109381
0.00108188
0.0010726
0.00106634
0.00106591
0.00106435
0.00109773
0.000706724
0.00105029
0.00113926
0.00118087
0.00121251
0.00123596
0.00124845
0.0012565
0.00125395
0.00124547
0.00123206
0.00121494
0.00119568
0.00117551
0.00115489
0.00113433
0.00111435
0.00109514
0.00107671
0.00105931
0.00104227
0.00102815
0.00100972
0.00100481
6.52636e-07
2.93389e-06
1.13252e-05
3.10776e-05
7.27356e-05
0.000158265
2.5168e-05
4.68286e-05
9.29274e-05
0.000163253
0.000265598
0.000419658
0.000150935
0.000120101
0.000208258
0.000321442
0.000461346
0.000647443
0.000170244
0.000190706
0.000315396
0.000459858
0.000622399
0.000815902
0.000185124
0.000251485
0.000406746
0.000571525
0.000743244
0.000929394
0.000194879
0.000299508
0.000480974
0.000657148
0.000827831
0.000997481
0.000201054
0.000333739
0.000538691
0.000719593
0.00088311
0.00103062
4.80342e-05
0.000356669
0.000581356
0.000762135
0.000915219
0.00104043
4.85934e-05
0.000373102
0.000610742
0.000787781
0.000927383
0.00103135
4.90239e-05
0.000383097
0.000628752
0.000799529
0.000923903
0.0010074
4.92758e-05
0.000387221
0.000636688
0.000799601
0.000908014
0.000971851
4.93315e-05
0.00038592
0.00063586
0.000790017
0.000882598
0.000927385
4.91855e-05
0.000379385
0.000627596
0.000772642
0.000849894
0.000876195
4.88834e-05
0.000367282
0.000612778
0.000748963
0.000811751
0.000820172
4.84417e-05
0.000350467
0.000592127
0.000720053
0.000769677
0.000760984
4.78724e-05
0.000330476
0.000566126
0.000686523
0.00072483
0.000700049
4.73125e-05
0.000310167
0.000535042
0.000648302
0.000677898
0.000638357
0.000199902
0.000298369
0.000498186
0.000604596
0.000628846
0.000576132
0.00019653
0.000281745
0.000453496
0.000553535
0.000576341
0.00051172
0.000189331
0.000253893
0.000397164
0.000490958
0.000516664
0.000444852
0.000178017
0.000209844
0.000325206
0.00041099
0.000442738
0.000375003
0.000162481
0.000146906
0.000231044
0.000305019
0.000344564
0.000301256
2.85819e-05
6.35578e-05
0.000112181
0.000163892
0.000204295
0.000210628
8.40008e-07
3.39352e-06
9.91523e-06
2.32239e-05
4.11089e-05
7.2581e-05
0.000797733
0.00106681
0.0011476
0.00118285
0.00120898
0.00122968
0.00124409
0.00125068
0.00125433
0.00125047
0.00124251
0.00123152
0.00121832
0.00120405
0.00118813
0.00117126
0.00115596
0.00114227
0.00112928
0.0011171
0.00110537
0.0010955
0.00108404
0.00107883
0.000903614
0.00111472
0.00119305
0.00122604
0.00124651
0.0012618
0.00127154
0.00127644
0.0012772
0.00127619
0.00127214
0.00126667
0.0012607
0.00125499
0.00125223
0.00124961
0.00124548
0.00124271
0.00124396
0.00124973
0.00125896
0.00127173
0.00128926
0.00130619
0.00100201
0.00117587
0.00125797
0.00130095
0.00132719
0.00134087
0.00134695
0.00134783
0.00134548
0.00134198
0.00133903
0.00133721
0.00133757
0.00134082
0.00134749
0.00136248
0.00138532
0.00141118
0.00144055
0.00147393
0.00151083
0.00154989
0.00158858
0.00162052
0.00108108
0.00122533
0.00131143
0.0013693
0.00141187
0.00144123
0.0014586
0.00146656
0.00146775
0.00146516
0.00146047
0.00145734
0.00145763
0.00146287
0.00147283
0.00148875
0.00151386
0.00154426
0.00157996
0.00161961
0.00166087
0.00170152
0.00173843
0.00176591
0.00113224
0.00125156
0.00133801
0.00140627
0.00146245
0.00150789
0.00154104
0.00156289
0.00157616
0.00158397
0.00158849
0.00159286
0.00159929
0.00160882
0.00162291
0.00164331
0.0016676
0.00169627
0.00172927
0.00176625
0.00180627
0.00184644
0.00187992
0.00190502
0.0011553
0.00126238
0.00134846
0.00142606
0.00149576
0.00155593
0.00160221
0.00163679
0.00166227
0.00168067
0.00169417
0.00170523
0.00171603
0.00172842
0.00174358
0.00176331
0.00178804
0.00181762
0.00184954
0.00187969
0.00190437
0.00192379
0.00193834
0.00194732
0.00115991
0.00125114
0.00133242
0.00141392
0.00149248
0.00156507
0.00162661
0.00167795
0.00172076
0.00175598
0.00178527
0.00180967
0.00183066
0.00184941
0.00186664
0.00188272
0.00189761
0.00191088
0.00192217
0.00193141
0.00193848
0.00194241
0.00194348
0.00194349
0.0011439
0.00121966
0.00129467
0.00137658
0.00145945
0.00153897
0.00161051
0.0016734
0.00172845
0.00177638
0.0018179
0.00185395
0.00188467
0.00191105
0.00193292
0.0019501
0.00196222
0.00196886
0.0019696
0.00196433
0.0019536
0.00193898
0.0019237
0.00191366
0.00111153
0.00117185
0.00123962
0.00131977
0.0014044
0.00148712
0.00156428
0.00163395
0.00169598
0.001751
0.00179995
0.00184294
0.00187956
0.00191126
0.00193649
0.00195469
0.00196515
0.00196653
0.00195914
0.00194368
0.00192157
0.00189422
0.00186503
0.00183998
0.00106592
0.00111075
0.00117055
0.00124757
0.00133203
0.0014156
0.00149532
0.00156707
0.00163135
0.00168672
0.0017332
0.0017714
0.00180274
0.00182844
0.00184706
0.00185683
0.00185869
0.00185474
0.00184462
0.00182831
0.00180651
0.00178312
0.00176217
0.00175615
0.00100969
0.00103852
0.00108933
0.00116168
0.00124392
0.00132478
0.00139566
0.00145553
0.00150953
0.00155769
0.00160468
0.00164679
0.00168423
0.00171618
0.00174071
0.00175841
0.00176941
0.0017723
0.00176719
0.00175457
0.00173501
0.00171045
0.00168
0.00165545
0.000944976
0.000956704
0.00099686
0.001062
0.00113108
0.00119864
0.00126822
0.00134359
0.00141248
0.00147257
0.00151947
0.00155707
0.00158602
0.00160558
0.00161721
0.00162119
0.00161766
0.00160715
0.00158979
0.00156599
0.00153556
0.00150123
0.00145787
0.00142448
0.000873508
0.000866557
0.000893316
0.000942668
0.00100707
0.00108692
0.00116944
0.00123714
0.00128696
0.0013271
0.00135638
0.00137671
0.0013897
0.00139565
0.00139488
0.00138775
0.00137461
0.00135557
0.00133112
0.00130274
0.0012694
0.00123583
0.0011923
0.0011739
0.000797122
0.000769757
0.000780267
0.000823636
0.000887332
0.000963569
0.00102551
0.00107838
0.00111805
0.00114628
0.00116512
0.00117554
0.0011785
0.00117505
0.00116615
0.00115325
0.00113697
0.00111728