/*--------------------------------*- C++ -*----------------------------------*\
  =========                 |
  \\      /  F ield         | OpenFOAM: The Open Source CFD Toolbox
   \\    /   O peration     | Website:  https://openfoam.org
    \\  /    A nd           | Version:  11
     \\/     M anipulation  |
\*---------------------------------------------------------------------------*/
FoamFile
{
    format      ascii;
    class       volScalarField;
    location    "0.7";
    object      p;
}
// * * * * * * * * * * * * * * * * * * * * * * * * * * * * * * * * * * * * * //

dimensions      [0 2 -2 0 0 0 0];

internalField   nonuniform List<scalar> 
2880
(
0.531951
0.547722
0.585629
0.6441
0.659178
0.517892
0.53371
0.546224
0.572912
0.608982
0.581644
0.480651
0.534519
0.543848
0.560006
0.581399
0.545318
0.446993
0.533588
0.540191
0.549058
0.561188
0.523889
0.43622
0.531526
0.536076
0.540436
0.547225
0.513629
0.440197
0.528881
0.532128
0.533858
0.537812
0.509929
0.448317
0.525846
0.528494
0.528873
0.53156
0.509162
0.456853
0.522534
0.5251
0.525024
0.527405
0.509581
0.46485
0.519081
0.521851
0.521913
0.524568
0.510532
0.472193
0.515642
0.51869
0.519267
0.522521
0.511866
0.479104
0.512369
0.515606
0.517024
0.520833
0.513606
0.485748
0.509413
0.512614
0.514902
0.51951
0.515625
0.491959
0.506911
0.509763
0.512813
0.51837
0.517889
0.497929
0.504928
0.507165
0.510719
0.517249
0.520191
0.503804
0.503478
0.504969
0.508606
0.515977
0.522351
0.509555
0.502609
0.503262
0.506487
0.51433
0.524221
0.515062
0.502399
0.502107
0.504392
0.512011
0.525631
0.520026
0.502919
0.501576
0.502319
0.50859
0.52628
0.523645
0.503839
0.50167
0.500186
0.50349
0.525499
0.524303
0.502356
0.501946
0.497695
0.496283
0.522313
0.520451
0.497747
0.501679
0.494342
0.487168
0.516744
0.513913
0.498653
0.501383
0.49021
0.476353
0.511711
0.509543
0.506528
0.501426
0.485996
0.464533
0.510696
0.470517
0.510866
0.501027
0.48212
0.453869
0.500157
0.242208
-0.156218
-0.180027
-0.128212
-0.0769753
-0.0338107
0.00118088
0.0291665
0.0516661
0.0699576
0.084984
0.097437
0.107839
0.116587
0.123982
0.130254
0.135574
0.140076
0.14387
0.146997
0.149327
0.15126
0.157099
0.172881
0.160188
0.0185829
-0.0684625
-0.0435318
-0.0113456
0.0181894
0.0438641
0.0653302
0.0830679
0.0977849
0.110088
0.120447
0.129228
0.136719
0.143146
0.148681
0.153454
0.157567
0.161098
0.16403
0.166145
0.167829
0.173521
0.189474
0.176784
0.131283
0.0344573
0.034454
0.0504584
0.0686902
0.0861693
0.101639
0.114899
0.126201
0.13586
0.14415
0.1513
0.1575
0.162905
0.167639
0.171799
0.175457
0.178665
0.181367
0.183269
0.184689
0.190065
0.205859
0.194486
0.215594
0.121705
0.103719
0.107281
0.116539
0.127113
0.137301
0.146514
0.15467
0.161847
0.168155
0.173707
0.17861
0.182961
0.186842
0.190322
0.193457
0.196285
0.198738
0.200513
0.20182
0.206731
0.221782
0.214162
0.27836
0.191915
0.164053
0.158746
0.161075
0.166063
0.171788
0.177462
0.182797
0.187701
0.192157
0.196182
0.199814
0.203099
0.206082
0.208807
0.211314
0.213641
0.215766
0.217468
0.21875
0.222397
0.234958
0.240321
0.324964
0.247835
0.215878
0.204891
0.202126
0.202721
0.204765
0.207422
0.210292
0.213167
0.215934
0.218535
0.220952
0.223184
0.225238
0.227122
0.228849
0.230444
0.231924
0.233134
0.23351
0.23271
0.235066
0.282316
0.360027
0.292756
0.260322
0.246099
0.239741
0.23697
0.236057
0.236206
0.236973
0.238077
0.239339
0.240649
0.241943
0.24318
0.244332
0.245372
0.246282
0.247067
0.247698
0.247811
0.246779
0.246901
0.259031
0.2796
0.387153
0.329446
0.298554
0.282876
0.274132
0.26886
0.26562
0.263727
0.262737
0.262328
0.262283
0.262454
0.262748
0.263096
0.263442
0.263735
0.263939
0.264044
0.26395
0.263157
0.261366
0.262761
0.278015
0.285289
0.408821
0.35998
0.331654
0.315869
0.305612
0.29853
0.293499
0.289976
0.287545
0.285869
0.284708
0.283899
0.283329
0.28291
0.282571
0.282244
0.281885
0.281472
0.280869
0.279534
0.277419
0.279497
0.295856
0.297459
0.426654
0.385881
0.360493
0.3458
0.334529
0.32617
0.319796
0.314998
0.311404
0.30868
0.306584
0.304945
0.303641
0.302578
0.301671
0.300841
0.300038
0.299232
0.298266
0.296583
0.294271
0.296635
0.31332
0.312231
0.441727
0.408363
0.386682
0.372404
0.361148
0.352015
0.34466
0.338876
0.334352
0.33077
0.327893
0.325557
0.323639
0.322039
0.320665
0.319432
0.318281
0.317178
0.315951
0.31404
0.311614
0.314098
0.330695
0.328203
0.455051
0.428246
0.410215
0.397004
0.385936
0.37634
0.368271
0.361721
0.356451
0.352161
0.348632
0.345709
0.343276
0.34123
0.339474
0.337915
0.33649
0.335158
0.333741
0.331681
0.329205
0.331722
0.347937
0.344732
0.466982
0.446211
0.431796
0.419989
0.409274
0.399414
0.390814
0.383654
0.37777
0.372887
0.368804
0.365383
0.362513
0.360093
0.358021
0.356199
0.354556
0.353049
0.351494
0.349346
0.346875
0.349366
0.36496
0.361454
0.477769
0.462773
0.451992
0.441758
0.431508
0.421496
0.412473
0.404799
0.398388
0.392988
0.38842
0.384561
0.381312
0.378572
0.376235
0.374196
0.372379
0.370736
0.369082
0.366895
0.364473
0.366891
0.381666
0.378126
0.487586
0.478362
0.471281
0.4627
0.45296
0.442837
0.433428
0.425279
0.418381
0.412504
0.40749
0.403232
0.399641
0.396617
0.394051
0.391828
0.389867
0.388117
0.386395
0.384206
0.381868
0.38417
0.397962
0.394563
0.49655
0.493355
0.490113
0.483194
0.473941
0.463672
0.453848
0.445207
0.437819
0.431472
0.426022
0.421381
0.417466
0.41418
0.411405
0.409021
0.406938
0.405099
0.403328
0.401165
0.398937
0.401085
0.413759
0.410616
0.504739
0.508149
0.508919
0.503627
0.494754
0.484231
0.473893
0.46469
0.456765
0.44992
0.44402
0.438988
0.43475
0.431208
0.428235
0.425701
0.423507
0.421592
0.419785
0.417668
0.415565
0.417521
0.428973
0.426154
0.512189
0.523264
0.52816
0.524412
0.515682
0.504726
0.493706
0.483813
0.475266
0.467866
0.461475
0.456027
0.451452
0.447648
0.444476
0.441795
0.439494
0.437506
0.43567
0.433609
0.431639
0.43337
0.443526
0.441063
0.519015
0.539384
0.548368
0.545943
0.536995
0.525333
0.51341
0.502643
0.493347
0.485307
0.478365
0.47246
0.46752
0.463437
0.460057
0.457223
0.454812
0.45275
0.450884
0.448884
0.447046
0.448528
0.457346
0.455244
0.525804
0.557306
0.570088
0.568633
0.558963
0.546196
0.533083
0.521217
0.511007
0.502217
0.494649
0.488232
0.482891
0.478503
0.474899
0.4719
0.469371
0.467226
0.465326
0.463386
0.461679
0.462902
0.470381
0.468612
0.533781
0.578023
0.594035
0.593028
0.581866
0.567419
0.552737
0.539526
0.528211
0.518544
0.510264
0.503274
0.497487
0.492763
0.488912
0.485733
0.483073
0.480835
0.478891
0.477007
0.475438
0.476438
0.482621
0.481
0.543663
0.604203
0.621695
0.61972
0.605863
0.588983
0.572294
0.557476
0.544879
0.5342
0.525118
0.517493
0.511215
0.506121
0.501997
0.498618
0.495807
0.493459
0.491454
0.489607
0.488175
0.489002
0.493864
0.491961
0.558275
0.643603
0.655283
0.648884
0.63078
0.610685
0.591559
0.574893
0.560868
0.549067
0.539099
0.530781
0.523967
0.51847
0.514047
0.510443
0.50746
0.504976
0.50288
0.501034
0.49967
0.500222
0.503808
0.501963
0.615417
0.704257
0.694961
0.679666
0.655989
0.632098
0.610226
0.591539
0.575984
0.562988
0.552072
0.543012
0.535628
0.5297
0.524954
0.521106
0.517931
0.515293
0.513089
0.511213
0.509849
0.510037
0.512504
0.51111
1.10135
1.08637
1.08336
1.09413
1.15006
1.33708
1.10421
1.08938
1.08416
1.09029
1.13132
1.215
1.10637
1.09438
1.08697
1.08822
1.10971
1.13267
1.10653
1.09752
1.08848
1.08512
1.09093
1.08324
1.10533
1.09799
1.08773
1.08029
1.07555
1.05493
1.10334
1.09675
1.08534
1.07469
1.06283
1.03734
1.10072
1.0947
1.08207
1.06894
1.05204
1.02447
1.09765
1.09242
1.07844
1.06331
1.04267
1.01396
1.09437
1.09028
1.07479
1.05786
1.03431
1.00473
1.09125
1.08851
1.07138
1.05267
1.02662
0.99604
1.08865
1.08732
1.06841
1.04777
1.0193
0.987285
1.08685
1.08687
1.066
1.04323
1.01208
0.977972
1.08601
1.08728
1.06425
1.03909
1.00477
0.967712
1.08623
1.08853
1.06323
1.03541
0.997249
0.956175
1.08747
1.09063
1.06294
1.03223
0.989451
0.943056
1.08956
1.0934
1.06337
1.02962
0.981356
0.928033
1.09227
1.09657
1.0644
1.02763
0.973019
0.910722
1.09526
1.09975
1.06586
1.02635
0.964615
0.891015
1.09815
1.10252
1.06752
1.02598
0.956506
0.868915
1.10055
1.10456
1.0694
1.02717
0.949412
0.844879
1.10226
1.10613
1.07233
1.03149
0.944859
0.820661
1.10357
1.10846
1.0781
1.04089
0.945925
0.80178
1.10545
1.11244
1.08686
1.05301
0.956267
0.800356
1.10768
1.11551
1.0922
1.05512
0.979599
0.822829
0.794292
0.767636
0.735471
0.71021
0.680517
0.652623
0.627911
0.607135
0.59
0.575775
0.563881
0.554051
0.546071
0.539692
0.534609
0.530505
0.527129
0.524329
0.522011
0.520097
0.518712
0.518555
0.520088
0.519157
0.872827
0.820812
0.772094
0.738208
0.703195
0.671584
0.644162
0.62135
0.602656
0.587216
0.574354
0.563751
0.555167
0.548328
0.542898
0.538532
0.534951
0.53199
0.529556
0.527595
0.526185
0.525746
0.526522
0.525938
0.91088
0.857592
0.80177
0.76206
0.723045
0.688325
0.658505
0.633829
0.613676
0.597078
0.583295
0.571953
0.562782
0.555484
0.549706
0.545078
0.541295
0.538174
0.535625
0.533607
0.532162
0.531498
0.531698
0.531381
0.931778
0.880921
0.824107
0.781091
0.739439
0.702343
0.670538
0.644251
0.6228
0.605153
0.59052
0.578491
0.568768
0.561035
0.554922
0.550038
0.54606
0.542787
0.540125
0.538043
0.536553
0.535722
0.535536
0.535405
0.943986
0.895214
0.839956
0.795352
0.752132
0.713354
0.680011
0.652399
0.629841
0.611273
0.595886
0.583237
0.573005
0.564865
0.558435
0.553312
0.549153
0.545739
0.542971
0.540818
0.539273
0.538336
0.537965
0.537939
0.950636
0.903615
0.850465
0.80519
0.761145
0.721272
0.686802
0.65815
0.63468
0.615329
0.599288
0.586091
0.575403
0.566888
0.560163
0.554816
0.55049
0.546951
0.544087
0.54186
0.540252
0.539264
0.53892
0.538925
0.953644
0.907784
0.856537
0.811022
0.76665
0.726124
0.690863
0.661418
0.637218
0.617224
0.600634
0.586969
0.575879
0.567028
0.560032
0.554479
0.550003
0.546354
0.543403
0.541093
0.539416
0.538473
0.538357
0.538273
0.953772
0.908561
0.858798
0.813249
0.768845
0.727965
0.692166
0.66213
0.637365
0.616863
0.599833
0.585784
0.574358
0.565216
0.55798
0.552243
0.547636
0.543895
0.540871
0.538479
0.536729
0.535886
0.536205
0.53596
0.951325
0.906393
0.857675
0.812158
0.767862
0.726823
0.690681
0.660222
0.63504
0.614161
0.596803
0.582463
0.570773
0.561392
0.553954
0.548061
0.543344
0.539532
0.536449
0.533978
0.532153
0.531475
0.532425
0.531936
0.94646
0.901448
0.853374
0.807863
0.763736
0.722685
0.686362
0.655632
0.630172
0.609047
0.591474
0.57694
0.565065
0.555509
0.547915
0.541898
0.537098
0.533236
0.530112
0.527567
0.525671
0.525225
0.526993
0.526171
0.939174
0.893675
0.845889
0.800329
0.756414
0.715485
0.679139
0.648284
0.622686
0.601447
0.58378
0.569157
0.557186
0.547527
0.539832
0.533733
0.52888
0.524993
0.521848
0.519241
0.517288
0.517152
0.519925
0.518617
0.9293
0.882853
0.835009
0.789381
0.745743
0.705095
0.668899
0.638083
0.612498
0.591289
0.573658
0.559061
0.547094
0.537415
0.529684
0.52355
0.51868
0.514795
0.511649
0.508991
0.506971
0.507152
0.511107
0.509473
0.916497
0.868577
0.820352
0.774713
0.731477
0.691316
0.655489
0.624909
0.599512
0.578495
0.561048
0.546606
0.534755
0.525149
0.517459
0.511348
0.506501
0.502647
0.49952
0.496814
0.494702
0.495168
0.500427
0.498665
0.900216
0.85022
0.801382
0.755898
0.713279
0.673885
0.638709
0.608616
0.583621
0.562986
0.54589
0.531751
0.520144
0.51072
0.503158
0.497139
0.492365
0.488576
0.485489
0.482745
0.480523
0.481246
0.487892
0.486123
0.87963
0.826911
0.777369
0.73235
0.690706
0.652466
0.618312
0.589033
0.564706
0.544679
0.528132
0.514467
0.50325
0.494132
0.486801
0.480954
0.476314
0.472634
0.469621
0.466857
0.46452
0.465477
0.473533
0.471842
0.853559
0.797514
0.747324
0.703297
0.663195
0.626651
0.59401
0.565962
0.54264
0.523495
0.50773
0.494738
0.48408
0.475409
0.468426
0.462847
0.458414
0.454898
0.452002
0.449254
0.446832
0.448044
0.457479
0.455697
0.820435
0.760514
0.709954
0.667752
0.63006
0.595961
0.56548
0.539194
0.5173
0.499367
0.48466
0.472571
0.462663
0.454599
0.448097
0.442893
0.438754
0.435472
0.432748
0.430068
0.427613
0.429118
0.439902
0.437892
0.778396
0.713453
0.66359
0.624531
0.590515
0.559878
0.532388
0.508528
0.488578
0.472255
0.458925
0.448
0.439057
0.431779
0.425904
0.421195
0.417448
0.414477
0.411992
0.409445
0.407019
0.408839
0.420914
0.418687
0.724143
0.653702
0.606252
0.572319
0.543724
0.517888
0.49442
0.473789
0.456402
0.442155
0.430565
0.421095
0.413355
0.407059
0.401972
0.39789
0.394639
0.392064
0.389889
0.387544
0.385214
0.387357
0.400627
0.398256
0.653758
0.577437
0.535707
0.509764
0.488878
0.469534
0.451327
0.434862
0.420746
0.409111
0.399665
0.39197
0.385693
0.380589
0.376463
0.373149
0.370507
0.368417
0.366625
0.364555
0.362389
0.364854
0.379181
0.376786
0.56251
0.479976
0.449726
0.435552
0.425287
0.41449
0.402981
0.39173
0.381669
0.373232
0.366367
0.360791
0.356252
0.352564
0.349583
0.347185
0.345272
0.343762
0.342428
0.340705
0.338773
0.341546
0.356738
0.3545
0.44136
0.355659
0.346102
0.348765
0.352537
0.352649
0.34944
0.344531
0.339347
0.334718
0.330889
0.327785
0.325266
0.323225
0.321579
0.320255
0.319199
0.318369
0.317578
0.316282
0.314673
0.317772
0.33357
0.331454
0.259788
0.19778
0.222975
0.248823
0.27066
0.284253
0.291014
0.293589
0.294098
0.293875
0.293532
0.293245
0.293025
0.292862
0.292743
0.292654
0.292589
0.292549
0.292388
0.291604
0.2904
0.293814
0.309971
0.308108
-0.0329434
0.0124674
0.0827314
0.137082
0.180712
0.210127
0.228363
0.239455
0.246399
0.251123
0.254677
0.257527
0.259866
0.261801
0.2634
0.264711
0.265777
0.266642
0.267207
0.267021
0.266291
0.269964
0.286202
0.284912
-0.747874
-0.777074
-0.840041
-0.88494
-0.915737
-0.959369
-0.758245
-0.788115
-0.852804
-0.89803
-0.918233
-0.941484
-0.767176
-0.799553
-0.866156
-0.913051
-0.92474
-0.935341
-0.77643
-0.811583
-0.880224
-0.929585
-0.939139
-0.945165
-0.787419
-0.824678
-0.894494
-0.946347
-0.960057
-0.966967
-0.799493
-0.838369
-0.908334
-0.962332
-0.985179
-0.994777
-0.811637
-0.851719
-0.921002
-0.976374
-1.00575
-1.02161
-0.822901
-0.863932
-0.931866
-0.987788
-1.02246
-1.04297
-0.832445
-0.874476
-0.940478
-0.996051
-1.03426
-1.05749
-0.839739
-0.882921
-0.946523
-1.00086
-1.04059
-1.06473
-0.844547
-0.888852
-0.94996
-1.00217
-1.04141
-1.06451
-0.84676
-0.892174
-0.950882
-1.00017
-1.03703
-1.05706
-0.84645
-0.893094
-0.949498
-0.99527
-1.02816
-1.04312
-0.84393
-0.89186
-0.946113
-0.988061
-1.01584
-1.02495
-0.839693
-0.888776
-0.941116
-0.979302
-1.00127
-1.0031
-0.834342
-0.88424
-0.934991
-0.969881
-0.985844
-0.97956
-0.828529
-0.878733
-0.928204
-0.960642
-0.971136
-0.956601
-0.822878
-0.872828
-0.921083
-0.952004
-0.959102
-0.936588
-0.817916
-0.867201
-0.914223
-0.944517
-0.950999
-0.92193
-0.814009
-0.86258
-0.908426
-0.939055
-0.947756
-0.914862
-0.811445
-0.859819
-0.90402
-0.935785
-0.94976
-0.920321
-0.810759
-0.859605
-0.900957
-0.93406
-0.956381
-0.943396
-0.812724
-0.860965
-0.899596
-0.930229
-0.963659
-0.979953
-0.816147
-0.859818
-0.890521
-0.921351
-0.972092
-1.11167
-0.466724
-0.201824
-0.0735864
0.0176533
0.0854485
0.131956
0.162638
0.182959
0.196895
0.20699
0.214781
0.221038
0.226163
0.230397
0.233897
0.236774
0.239122
0.241022
0.242423
0.24293
0.242735
0.246567
0.262551
0.262366
-0.644809
-0.409769
-0.230511
-0.101565
-0.0108939
0.0522177
0.0953851
0.1252
0.14641
0.162087
0.174354
0.184215
0.192305
0.19901
0.20458
0.209193
0.212987
0.216079
0.218459
0.219787
0.2202
0.224013
0.23926
0.241124
-0.741215
-0.56877
-0.367564
-0.213581
-0.104462
-0.0266397
0.0283173
0.0673585
0.0957617
0.117167
0.133951
0.147502
0.158666
0.167967
0.175755
0.182271
0.187698
0.192181
0.195754
0.198141
0.199337
0.202834
0.216383
0.22211
-0.822914
-0.685853
-0.48171
-0.315425
-0.192656
-0.102536
-0.0370051
0.0106218
0.0459018
0.0728343
0.0940794
0.111309
0.125568
0.137524
0.147627
0.156191
0.163442
0.169571
0.17467
0.178586
0.181132
0.184305
0.194618
0.207252
-0.894481
-0.774073
-0.577598
-0.406785
-0.274123
-0.17399
-0.0993523
-0.0440144
-0.00238392
0.0297336
0.0552276
0.075994
0.0932579
0.107825
0.120246
0.130911
0.140114
0.148092
0.155008
0.160817
0.165282
0.16964
0.179107
0.189275
-0.952971
-0.84249
-0.658805
-0.487707
-0.348214
-0.240092
-0.157857
-0.0957715
-0.0484279
-0.0115799
0.0178258
0.0418668
0.0619243
0.0789235
0.0935013
0.106113
0.117094
0.126695
0.135035
0.141971
0.147466
0.153825
0.165322
0.159864
-0.998669
-0.896358
-0.726796
-0.557851
-0.414244
-0.300107
-0.211846
-0.144014
-0.0916593
-0.0506206
-0.0177339
0.00922269
0.0317558
0.0508852
0.0673104
0.0815166
0.0938411
0.104502
0.113551
0.120783
0.126349
0.133161
0.144927
0.134235
-1.03328
-0.938097
-0.781928
-0.616935
-0.471598
-0.353332
-0.260707
-0.188164
-0.13156
-0.0869408
-0.051069
-0.0216156
0.00301988
0.0239326
0.0418713
0.0573428
0.070683
0.0820976
0.0916335
0.0991332
0.104882
0.111878
0.123414
0.112442
-1.0571
-0.968508
-0.824206
-0.664725
-0.519802
-0.399538
-0.303765
-0.227657
-0.167638
-0.120114
-0.0817974
-0.0502966
-0.0239523
-0.0016105
0.0175217
0.033977
0.0481043
0.0601227
0.0701161
0.0780138
0.0841912
0.0914655
0.1027
0.0930463
-1.06982
-0.987558
-0.85368
-0.701013
-0.55852
-0.438202
-0.340445
-0.262129
-0.19945
-0.149744
-0.109546
-0.0764588
-0.0488008
-0.0253753
-0.0053485
0.0118451
0.0265819
0.0391109
0.0495649
0.057957
0.0647089
0.0723304
0.083313
0.0757586
-1.07141
-0.995013
-0.870251
-0.72555
-0.587538
-0.46824
-0.370406
-0.290869
-0.226875
-0.175587
-0.133997
-0.0997643
-0.071172
-0.0469873
-0.0263395
-0.00862542
0.00656878
0.0195304
0.0304393
0.0393755
0.04676
0.0547622
0.0655775
0.0605401
-1.06246
-0.991267
-0.873972
-0.738132
-0.606249
-0.490006
-0.39356
-0.313324
-0.24957
-0.197329
-0.154846
-0.119899
-0.0907355
-0.0660945
-0.0450765
-0.027042
-0.0115359
0.00176957
0.0130965
0.0225726
0.0305819
0.0389682
0.0497029
0.0473558
-1.044
-0.977045
-0.86575
-0.738992
-0.614618
-0.503185
-0.409256
-0.330525
-0.266522
-0.21472
-0.171906
-0.136629
-0.107223
-0.0824002
-0.061239
-0.0430703
-0.0274005
-0.0138622
-0.00219508
0.00776243
0.0163453
0.0250975
0.03582
0.0361504
-1.01688
-0.952844
-0.847065
-0.72891
-0.612962
-0.507751
-0.417759
-0.341969
-0.278244
-0.227363
-0.184921
-0.149751
-0.120422
-0.0956691
-0.0745711
-0.0564424
-0.0407593
-0.0271193
-0.0152277
-0.00489513
0.00417416
0.0132498
0.0239984
0.026844
-0.983927
-0.919919
-0.819493
-0.709416
-0.602098
-0.504033
-0.418991
-0.346996
-0.285702
-0.235082
-0.193735
-0.159178
-0.130221
-0.105757
-0.0849036
-0.0669704
-0.051417
-0.0378154
-0.0258403
-0.015273
-0.00583675
0.00348431
0.0142378
0.0193058
-0.947356
-0.880491
-0.784742
-0.68256
-0.583557
-0.492986
-0.413602
-0.345706
-0.287876
-0.23892
-0.198565
-0.164938
-0.136612
-0.112628
-0.0921676
-0.0745587
-0.0592584
-0.0458256
-0.0339101
-0.0232597
-0.0136083
-0.00414657
0.00653552
0.013399
-0.909461
-0.837183
-0.744703
-0.650375
-0.55931
-0.476088
-0.402651
-0.339179
-0.284828
-0.238551
-0.199702
-0.167153
-0.139661
-0.116324
-0.0963844
-0.0792046
-0.0642579
-0.0511042
-0.0393798
-0.0288045
-0.019119
-0.00966509
0.000801426
0.00894996
-0.872551
-0.791739
-0.702197
-0.614654
-0.531161
-0.454926
-0.38732
-0.328416
-0.277611
-0.234111
-0.197211
-0.166001
-0.139525
-0.116977
-0.0976635
-0.0809984
-0.0664851
-0.0536993
-0.0422781
-0.0319245
-0.022379
-0.0131196
-0.00306291
0.00582956
-0.838797
-0.747179
-0.658462
-0.576984
-0.500657
-0.430952
-0.368854
-0.314404
-0.267128
-0.226387
-0.191546
-0.161846
-0.136511
-0.114843
-0.0962282
-0.080136
-0.066111
-0.0537558
-0.0427202
-0.0327
-0.0234302
-0.0144955
-0.00506303
0.00392846
-0.809564
-0.705079
-0.615528
-0.539094
-0.469263
-0.405564
-0.34853
-0.298227
-0.254305
-0.216229
-0.183429
-0.15527
-0.131105
-0.110339
-0.092438
-0.076935
-0.0634198
-0.0515297
-0.0409381
-0.0313464
-0.022485
-0.0140032
-0.00540926
0.00310028
-0.784415
-0.666342
-0.575166
-0.502686
-0.438414
-0.380062
-0.327572
-0.281024
-0.240165
-0.204554
-0.173681
-0.146994
-0.123947
-0.104034
-0.086803
-0.0718518
-0.0588233
-0.0473957
-0.0372746
-0.0281726
-0.019857
-0.0120125
-0.00446227
0.00318859
-0.763975
-0.630069
-0.538353
-0.469267
-0.409573
-0.355679
-0.307131
-0.263887
-0.225757
-0.192358
-0.163226
-0.137874
-0.11583
-0.0966651
-0.0800021
-0.0655082
-0.052889
-0.0418782
-0.0322331
-0.0237073
-0.0160759
-0.00893169
-0.00257013
0.00395878
-0.747158
-0.592107
-0.505065
-0.43995
-0.384055
-0.333623
-0.288267
-0.247823
-0.212069
-0.180629
-0.153056
-0.128891
-0.107715
-0.0891637
-0.0729289
-0.0587474
-0.0463941
-0.0356708
-0.0264006
-0.0183756
-0.0114816
-0.00523719
-0.000305082
0.00491604
-0.710701
-0.546005
-0.475026
-0.41548
-0.362705
-0.314871
-0.271899
-0.233691
-0.199939
-0.170231
-0.144076
-0.121011
-0.100632
-0.0826115
-0.0666969
-0.0526899
-0.0404389
-0.0298291
-0.0207682
-0.0131169
-0.00684565
-0.00151599
0.00206665
0.0055482
-0.495402
-0.489895
-0.470024
-0.43947
-0.402737
-0.294383
-0.492886
-0.488577
-0.469837
-0.442579
-0.414552
-0.339189
-0.488246
-0.486926
-0.470229
-0.44658
-0.427413
-0.378372
-0.485753
-0.48646
-0.472101
-0.452223
-0.438238
-0.406996
-0.48648
-0.487707
-0.475413
-0.459111
-0.447917
-0.426835
-0.49074
-0.49043
-0.479881
-0.46672
-0.457269
-0.441654
-0.497403
-0.494013
-0.485253
-0.474778
-0.466685
-0.453956
-0.502183
-0.497639
-0.491195
-0.483177
-0.476405
-0.465368
-0.505146
-0.501218
-0.497467
-0.491887
-0.486637
-0.477014
-0.507995
-0.504829
-0.503918
-0.50088
-0.497498
-0.489489
-0.510917
-0.508443
-0.510428
-0.510111
-0.509006
-0.503022
-0.513759
-0.511934
-0.516879
-0.519506
-0.521109
-0.517661
-0.516317
-0.515164
-0.523166
-0.52897
-0.533688
-0.533321
-0.518429
-0.51803
-0.529188
-0.538383
-0.546564
-0.549799
-0.519989
-0.52035
-0.534821
-0.547615
-0.559492
-0.566748
-0.521121
-0.521841
-0.540015
-0.556541
-0.572157
-0.583698
-0.523629
-0.522756
-0.544776
-0.565042
-0.584237
-0.600362
-0.528055
-0.524752
-0.549191
-0.572988
-0.595499
-0.616611
-0.531232
-0.527378
-0.553077
-0.58022
-0.605854
-0.631737
-0.532085
-0.529477
-0.55604
-0.586591
-0.61543
-0.646266
-0.531774
-0.530279
-0.557443
-0.59165
-0.624383
-0.66389
-0.528405
-0.529073
-0.556635
-0.594228
-0.632417
-0.689339
-0.522666
-0.526449
-0.554276
-0.593714
-0.638133
-0.718367
-0.519806
-0.524801
-0.553294
-0.593299
-0.64168
-0.737381
-0.565994
-0.501297
-0.449769
-0.396056
-0.34591
-0.299928
-0.258623
-0.222061
-0.189916
-0.161702
-0.136878
-0.114916
-0.0953796
-0.0779307
-0.0623544
-0.048524
-0.0363423
-0.0257492
-0.0167453
-0.00932467
-0.00351843
0.000896064
0.00351234
0.00492565
-0.508473
-0.469986
-0.430287
-0.381323
-0.33335
-0.288617
-0.248386
-0.212949
-0.181988
-0.154994
-0.131374
-0.110544
-0.0920015
-0.0753494
-0.0603194
-0.0468137
-0.0348515
-0.024456
-0.0156716
-0.00859146
-0.00332656
0.000114967
0.00167888
0.00116139
-0.484622
-0.450255
-0.415076
-0.369777
-0.323692
-0.280043
-0.240399
-0.205688
-0.175452
-0.149296
-0.126611
-0.106787
-0.0892764
-0.0736394
-0.059555
-0.0468558
-0.0355444
-0.0257283
-0.0175296
-0.0110921
-0.00658071
-0.00422912
-0.00442057
-0.00616893
-0.46875
-0.43719
-0.403476
-0.360343
-0.315603
-0.272726
-0.233717
-0.199008
-0.168961
-0.143112
-0.120882
-0.101691
-0.0849776
-0.070246
-0.0572034
-0.0456697
-0.0355035
-0.0267135
-0.0194243
-0.0137905
-0.00999695
-0.00854808
-0.0105594
-0.0134034
-0.459126
-0.428922
-0.395246
-0.35274
-0.308371
-0.26555
-0.226307
-0.191437
-0.161158
-0.13517
-0.11303
-0.0941905
-0.0781021
-0.064345
-0.0525376
-0.0423612
-0.0336657
-0.0263927
-0.0205427
-0.0161138
-0.0131621
-0.0122881
-0.0147891
-0.0160336
-0.455286
-0.425012
-0.390119
-0.347158
-0.302109
-0.258463
-0.21832
-0.182628
-0.151632
-0.125162
-0.102806
-0.0839874
-0.0681397
-0.0548787
-0.0438232
-0.0346776
-0.0272198
-0.0212812
-0.0167011
-0.0133019
-0.0109401
-0.00971445
-0.00966589
-0.00759747
-0.456129
-0.425156
-0.388252
-0.343746
-0.297
-0.251652
-0.209899
-0.172761
-0.140503
-0.112941
-0.0896364
-0.0701127
-0.053965
-0.0407343
-0.0300324
-0.0215627
-0.0150383
-0.0101791
-0.00667918
-0.00420065
-0.0023765
-0.000675115
0.00180565
0.00432506
-0.460714
-0.429032
-0.389691
-0.34255
-0.293119
-0.245215
-0.201152
-0.162025
-0.128124
-0.0992795
-0.0750892
-0.0550868
-0.0388161
-0.0258313
-0.0157656
-0.00826106
-0.00298524
0.000413151
0.0023465
0.00327945
0.00376606
0.00479067
0.00773907
0.0101696
-0.468596
-0.43624
-0.394016
-0.343496
-0.290524
-0.239307
-0.192331
-0.150781
-0.114975
-0.0847343
-0.0596487
-0.0392393
-0.0230144
-0.0104955
-0.00125606
0.00509248
0.00894352
0.0107489
0.0110087
0.0102931
0.00929003
0.00905409
0.0108515
0.012562
-0.479535
-0.446474
-0.401023
-0.346402
-0.28907
-0.233886
-0.183546
-0.139342
-0.101585
-0.0700611
-0.044303
-0.0237401
-0.00779881
0.00406559
0.0123314
0.0174613
0.0199543
0.0203499
0.0192152
0.0171688
0.0148973
0.0134817
0.0137646
0.014915
-0.493285
-0.459598
-0.41045
-0.350936
-0.28828
-0.228717
-0.175031
-0.12842
-0.0890797
-0.0566704
-0.0306122
-0.0102467
0.00511518
0.0161061
0.0233086
0.0273101
0.0287048
0.028083
0.0260498
0.0233003
0.0204271
0.0184878
0.0173746
0.0188204
-0.509622
-0.475372
-0.42185
-0.356648
-0.287607
-0.223896
-0.167012
-0.118306
-0.077873
-0.0451627
-0.019352
0.000376611
0.0148653
0.0248814
0.0311446
0.0343198
0.0350482
0.0338381
0.0311897
0.0281484
0.025106
0.0228176
0.018958
0.0202866
-0.528276
-0.493409
-0.43452
-0.361982
-0.287456
-0.21884
-0.158941
-0.108842
-0.0681488
-0.0358745
-0.0109028
0.00781629
0.0212731
0.0303784
0.0358698
0.0384051
0.0389062
0.0376119
0.0340768
0.0298069
0.0265308
0.0250311
0.0228022
0.0237509
-0.548906
-0.513136
-0.447483
-0.366964
-0.286
-0.213007
-0.151159
-0.100768
-0.060709
-0.0294982
-0.00578122
0.0116665
0.0239554
0.0322835
0.0371852
0.038946
0.0390324
0.0389099
0.0388129
0.0375081
0.0343401
0.0307028
0.0267959
0.028851
-0.571056
-0.533534
-0.459735
-0.370646
-0.28332
-0.207063
-0.144481
-0.0948015
-0.0561248
-0.0264893
-0.00431379
0.0117944
0.0229134
0.0306872
0.0367599
0.0412756
0.0433073
0.0429132
0.0414562
0.0395936
0.0371674
0.0339874
0.031073
0.0348194
-0.593992
-0.552772
-0.470411
-0.372695
-0.280067
-0.201852
-0.139646
-0.0913424
-0.0542236
-0.0260184
-0.00501747
0.0105285
0.0226566
0.0316986
0.0378322
0.0418919
0.0442508
0.0450224
0.0445735
0.0434357
0.0418388
0.0401373
0.0405954
0.0440226
-0.616099
-0.568834
-0.477929
-0.372599
-0.276183
-0.197333
-0.136138
-0.0891982
-0.0532686
-0.0258004
-0.00474799
0.0113015
0.02345
0.0327144
0.0395683
0.0443811
0.0471524
0.0488778
0.0503386
0.0509939
0.0503176
0.0490223
0.0500527
0.051341
-0.634828
-0.579031
-0.479827
-0.368525
-0.269997
-0.191711
-0.131836
-0.086083
-0.0509955
-0.0239085
-0.00274588
0.0138622
0.0266929
0.0364524
0.0434342
0.0484382
0.0525224
0.055663
0.0574986
0.0579728
0.0575938
0.057618
0.0610525
0.0584762
-0.64626
-0.581862
-0.472912
-0.357179
-0.258755
-0.182315
-0.12418
-0.079661
-0.0454472
-0.0188645
0.00207332
0.0187451
0.0318126
0.0417058
0.0493079
0.0552518
0.0598101
0.0630741
0.0651593
0.066278
0.0667566
0.0683623
0.0747022
0.0706838
-0.642396
-0.576557
-0.455087
-0.336061
-0.240043
-0.166921
-0.111269
-0.0685704
-0.0355886
-0.00991701
0.0103931
0.0265892
0.0394848
0.049653
0.0576799
0.0640062
0.0689155
0.0726262
0.0752929
0.077059
0.0783032
0.0814113
0.090871
0.0857989
-0.616401
-0.557842
-0.424653
-0.304403
-0.212843
-0.144408
-0.0925985
-0.0526337
-0.0213985
0.00296558
0.0223234
0.0378631
0.050363
0.0603939
0.0684426
0.0748939
0.0800229
0.0840226
0.0870681
0.0892811
0.091054
0.0952859
0.106957
0.100144
-0.571772
-0.511111
-0.37678
-0.261553
-0.177382
-0.11503
-0.0679884
-0.0317475
-0.00316645
0.0194167
0.0374626
0.0520391
0.0638762
0.0735093
0.08135
0.0877139
0.0928423
0.0969291
0.100148
0.102576
0.104617
0.109639
0.122962
0.114337
-0.513574
-0.424785
-0.306137
-0.207158
-0.134241
-0.0800255
-0.0387536
-0.00666231
0.018721
0.0390146
0.0554022
0.0687642
0.0797315
0.0887663
0.0962181
0.102355
0.107384
0.111481
0.114792
0.117333
0.119506
0.12508
0.139666
0.129266
-0.410955
-0.302867
-0.217724
-0.143787
-0.0854579
-0.0406451
-0.00590816
0.0214589
0.0433587
0.0610897
0.0755838
0.0875369
0.0974634
0.105747
0.112675
0.118467
0.12329
0.127289
0.130559
0.133048
0.135157
0.140964
0.156301
0.144454
)
;

boundaryField
{
    rotor
    {
        type            zeroGradient;
    }
    freestream
    {
        type            freestreamPressure;
        freestreamValue uniform 0;
        supersonic      false;
        value           nonuniform List<scalar> 
96
(
0.054384
0.0657324
0.078738
0.0938894
0.113522
0.143018
0.150791
0.163732
0.180923
0.200416
0.221426
0.243518
0.266377
0.289733
0.313331
0.336923
0.360265
0.383113
0.405231
0.426393
0.446297
0.464371
0.480906
0.495879
0.508941
0.519827
0.528376
0.534437
0.537887
0.538642
0.536609
0.531786
0.524174
0.513816
0.500766
0.48534
0.467606
0.447663
0.425692
0.401784
0.376347
0.349829
0.322598
0.295027
0.267498
0.240257
0.21382
0.18864
0.165136
0.143738
0.12494
0.109669
0.0940797
0.0744612
0.0583325
0.0453914
0.0347479
0.0260619
0.0191015
0.0136424
0.00946401
0.00635476
0.00411077
0.00255142
0.00151418
0.000869579
0.000511792
0.00034842
0.000303936
0.000312543
0.00031182
0.000275227
0.000192443
3.84803e-05
-0.000191317
-0.000395075
-0.000372823
-9.69354e-05
1.23765e-05
1.97561e-06
6.56993e-05
0.000215387
0.000475941
0.00075801
0.00121077
0.00189911
0.00288382
0.00448447
0.00631042
0.00850098
0.011969
0.0166918
0.0221171
0.0284225
0.0359024
0.0445047
)
;
    }
    frontAndBack
    {
        type            empty;
    }
}


// ************************************************************************* //
