/*--------------------------------*- C++ -*----------------------------------*\
  =========                 |
  \\      /  F ield         | OpenFOAM: The Open Source CFD Toolbox
   \\    /   O peration     | Website:  https://openfoam.org
    \\  /    A nd           | Version:  11
     \\/     M anipulation  |
\*---------------------------------------------------------------------------*/
FoamFile
{
    format      ascii;
    class       surfaceScalarField;
    location    "0.7";
    object      phi;
}
// * * * * * * * * * * * * * * * * * * * * * * * * * * * * * * * * * * * * * //

dimensions      [0 3 -1 0 0 0 0];

internalField   nonuniform List<scalar> 
5640
(
-6.32723e-07
6.32723e-07
-1.05234e-06
4.19621e-07
-6.47902e-07
-4.04442e-07
8.51572e-07
-1.49947e-06
4.69135e-06
-3.83977e-06
-6.83722e-06
1.15286e-05
-6.89819e-07
1.32254e-06
-8.43821e-07
5.73623e-07
-1.58699e-07
-1.08956e-06
1.59094e-06
-3.24912e-06
4.63297e-06
-6.8818e-06
-1.17171e-05
9.51282e-06
-6.33812e-07
1.95635e-06
-6.21447e-07
5.61257e-07
1.70185e-07
-1.8812e-06
1.93458e-06
-5.01351e-06
4.68173e-06
-9.62895e-06
-1.53649e-05
8.32956e-06
-5.57283e-07
2.51364e-06
-4.46681e-07
4.50656e-07
3.63977e-07
-2.69185e-06
2.02954e-06
-6.67907e-06
4.44585e-06
-1.20453e-05
-1.81974e-05
7.27836e-06
-4.76353e-07
2.98999e-06
-3.17327e-07
2.91629e-07
4.55504e-07
-3.46468e-06
1.9501e-06
-8.17367e-06
4.00807e-06
-1.41032e-05
-2.04189e-05
6.22961e-06
-3.98337e-07
3.38833e-06
-2.27751e-07
1.21043e-07
4.62814e-07
-4.15525e-06
1.74744e-06
-9.4583e-06
3.46012e-06
-1.58159e-05
-2.21491e-05
5.19031e-06
-3.26908e-07
3.71523e-06
-1.72423e-07
-3.34418e-08
4.04061e-07
-4.73173e-06
1.45903e-06
-1.05133e-05
2.84757e-06
-1.72044e-05
-2.34695e-05
4.16792e-06
-2.63235e-07
3.97847e-06
-1.45259e-07
-1.51418e-07
2.95154e-07
-5.17215e-06
1.11106e-06
-1.13292e-05
2.19356e-06
-1.82869e-05
-2.4438e-05
3.16211e-06
-2.06761e-07
4.18523e-06
-1.39456e-07
-2.18723e-07
1.50769e-07
-5.46237e-06
7.23435e-07
-1.19018e-05
1.51407e-06
-1.90776e-05
-2.5097e-05
2.17299e-06
-1.55771e-07
4.341e-06
-1.47625e-07
-2.26868e-07
-1.42605e-08
-5.59574e-06
3.12508e-07
-1.22286e-05
8.22506e-07
-1.95876e-05
-2.54779e-05
1.2034e-06
-1.0778e-07
4.44878e-06
-1.62069e-07
-1.72579e-07
-1.92346e-07
-5.56546e-06
-1.07616e-07
-1.23133e-05
1.29143e-07
-1.98243e-05
-2.56028e-05
2.54046e-07
-5.98983e-08
4.50868e-06
-1.74716e-07
-5.77613e-08
-3.64842e-07
-5.37533e-06
-5.2544e-07
-1.21527e-05
-5.51276e-07
-1.97985e-05
-2.5496e-05
-6.58047e-07
-9.01843e-09
4.5177e-06
-1.77771e-07
1.10991e-07
-5.20917e-07
-5.03219e-06
-9.25158e-07
-1.17485e-05
-1.21231e-06
-1.95113e-05
-2.51704e-05
-1.53792e-06
4.68092e-08
4.47089e-06
-1.63821e-07
3.21622e-07
-6.48078e-07
-4.54793e-06
-1.2932e-06
-1.11034e-05
-1.84303e-06
-1.89615e-05
-2.46368e-05
-2.37664e-06
1.10191e-07
4.3607e-06
-1.26139e-07
5.57952e-07
-7.33545e-07
-3.94053e-06
-1.61419e-06
-1.02227e-05
-2.43175e-06
-1.8144e-05
-2.39021e-05
-3.16643e-06
1.82556e-07
4.17814e-06
-5.90029e-08
7.99511e-07
-7.64112e-07
-3.23542e-06
-1.87025e-06
-9.11658e-06
-2.96382e-06
-1.70504e-05
-2.29654e-05
-3.90055e-06
2.64968e-07
3.91317e-06
4.19071e-08
1.02257e-06
-7.26474e-07
-2.46703e-06
-2.04078e-06
-7.80227e-06
-3.42027e-06
-1.56709e-05
-2.1814e-05
-4.57162e-06
3.57989e-07
3.55519e-06
1.78588e-07
1.20197e-06
-6.08393e-07
-1.68005e-06
-2.10183e-06
-6.30884e-06
-3.77527e-06
-1.39975e-05
-2.04172e-05
-5.17206e-06
4.61287e-07
3.0939e-06
3.48978e-07
1.31428e-06
-4.01312e-07
-9.29764e-07
-2.02476e-06
-4.68539e-06
-3.99216e-06
-1.20301e-05
-1.87162e-05
-5.69311e-06
5.71129e-07
2.52277e-06
5.43594e-07
1.34182e-06
-1.08691e-07
-2.77479e-07
-1.77398e-06
-3.0201e-06
-4.02325e-06
-9.78081e-06
-1.66194e-05
-6.12005e-06
6.33337e-07
1.88943e-06
7.42383e-07
1.23277e-06
2.73562e-07
1.91343e-07
-1.30204e-06
-1.44449e-06
-3.80687e-06
-7.27598e-06
-1.40151e-05
-6.41121e-06
6.72686e-07
1.21675e-06
9.32568e-07
9.72889e-07
7.12396e-07
4.11514e-07
-5.37266e-07
-1.94832e-07
-3.22488e-06
-4.58837e-06
-1.07682e-05
-6.47179e-06
6.89643e-07
5.27103e-07
1.09694e-06
5.65588e-07
1.15073e-06
3.57732e-07
5.92392e-07
3.63502e-07
-1.97303e-06
-2.02295e-06
-6.28555e-06
-6.45568e-06
5.27103e-07
1.09269e-06
1.45042e-06
1.81393e-06
-2.09021e-07
-6.49457e-06
1.21647e-05
-3.06543e-05
3.00181e-05
1.31111e-05
-4.0767e-05
3.98206e-05
1.37878e-05
-4.5548e-05
4.48713e-05
1.43442e-05
-4.79032e-05
4.73468e-05
1.48333e-05
-4.90515e-05
4.85624e-05
1.52887e-05
-4.96545e-05
4.91992e-05
1.57389e-05
-5.00394e-05
4.95892e-05
1.62002e-05
-5.03594e-05
4.98981e-05
1.66778e-05
-5.06807e-05
5.02031e-05
1.71695e-05
-5.1026e-05
5.05342e-05
1.76693e-05
-5.13976e-05
5.08979e-05
1.81698e-05
-5.17902e-05
5.12897e-05
1.86636e-05
-5.21956e-05
5.17018e-05
1.91442e-05
-5.2606e-05
5.21253e-05
1.96061e-05
-5.30131e-05
5.25512e-05
2.0045e-05
-5.34089e-05
5.297e-05
2.04579e-05
-5.37841e-05
5.33712e-05
2.08437e-05
-5.41282e-05
5.37424e-05
2.12023e-05
-5.4428e-05
5.40693e-05
2.15362e-05
-5.46679e-05
5.43341e-05
2.18497e-05
-5.48287e-05
5.45152e-05
2.21508e-05
-5.48873e-05
5.45862e-05
2.24547e-05
-5.4813e-05
5.4509e-05
-5.45639e-05
5.42263e-05
1.11217e-05
-3.22631e-05
1.20478e-05
-4.16931e-05
1.25777e-05
-4.60779e-05
1.29107e-05
-4.82362e-05
1.3175e-05
-4.93158e-05
1.34243e-05
-4.99038e-05
1.36837e-05
-5.02988e-05
1.3964e-05
-5.06397e-05
1.42664e-05
-5.09831e-05
1.45861e-05
-5.13456e-05
1.49157e-05
-5.17272e-05
1.52475e-05
-5.21219e-05
1.55741e-05
-5.25223e-05
1.58896e-05
-5.29214e-05
1.6189e-05
-5.33125e-05
1.64686e-05
-5.36885e-05
1.67263e-05
-5.40419e-05
1.69619e-05
-5.43637e-05
1.71768e-05
-5.46429e-05
1.73747e-05
-5.48659e-05
1.75617e-05
-5.50157e-05
1.77465e-05
-5.50721e-05
1.7945e-05
-5.50115e-05
-5.48064e-05
1.01269e-05
-3.40605e-05
1.08413e-05
-4.24074e-05
1.11698e-05
-4.64063e-05
1.13163e-05
-4.83828e-05
1.13994e-05
-4.93988e-05
1.14738e-05
-4.99782e-05
1.15642e-05
-5.03892e-05
1.16794e-05
-5.07549e-05
1.18184e-05
-5.11221e-05
1.19752e-05
-5.15025e-05
1.21423e-05
-5.18943e-05
1.23123e-05
-5.22918e-05
1.24785e-05
-5.26886e-05
1.26356e-05
-5.30786e-05
1.27793e-05
-5.34561e-05
1.29065e-05
-5.38156e-05
1.30154e-05
-5.41509e-05
1.31065e-05
-5.44547e-05
1.31819e-05
-5.47183e-05
1.32464e-05
-5.49303e-05
1.33068e-05
-5.50761e-05
1.33726e-05
-5.51379e-05
1.34612e-05
-5.51002e-05
-5.49494e-05
8.91141e-06
-3.56936e-05
9.46447e-06
-4.29605e-05
9.6309e-06
-4.65728e-05
9.62371e-06
-4.83756e-05
9.55051e-06
-4.93256e-05
9.46895e-06
-4.98967e-05
9.40484e-06
-5.03251e-05
9.36565e-06
-5.07157e-05
9.3493e-06
-5.11058e-05
9.34967e-06
-5.15029e-05
9.35978e-06
-5.19044e-05
9.37316e-06
-5.23052e-05
9.38431e-06
-5.26997e-05
9.38869e-06
-5.30829e-05
9.3827e-06
-5.34502e-05
9.36375e-06
-5.37967e-05
9.33045e-06
-5.41176e-05
9.28307e-06
-5.44073e-05
9.22396e-06
-5.46592e-05
9.15789e-06
-5.48643e-05
9.09152e-06
-5.50097e-05
9.03364e-06
-5.508e-05
9.00383e-06
-5.50704e-05
-5.49911e-05
7.5987e-06
-3.70627e-05
8.00912e-06
-4.33709e-05
8.02758e-06
-4.65912e-05
7.87661e-06
-4.82247e-05
7.66086e-06
-4.91099e-05
7.43587e-06
-4.96717e-05
7.22649e-06
-5.01157e-05
7.03951e-06
-5.05287e-05
6.87275e-06
-5.0939e-05
6.72077e-06
-5.13509e-05
6.57767e-06
-5.17613e-05
6.43826e-06
-5.21658e-05
6.29822e-06
-5.25597e-05
6.15412e-06
-5.29389e-05
6.00331e-06
-5.32993e-05
5.84386e-06
-5.36372e-05
5.67477e-06
-5.39485e-05
5.49619e-06
-5.42288e-05
5.30996e-06
-5.4473e-05
5.12016e-06
-5.46745e-05
4.93247e-06
-5.4822e-05
4.74746e-06
-5.4895e-05
4.55773e-06
-5.48806e-05
-5.49499e-05
6.2668e-06
-3.81392e-05
6.5167e-06
-4.36208e-05
6.39424e-06
-4.64688e-05
6.1075e-06
-4.79379e-05
5.7568e-06
-4.87592e-05
5.39494e-06
-4.93098e-05
5.04539e-06
-4.97661e-05
4.7145e-06
-5.01979e-05
4.40052e-06
-5.0625e-05
4.09899e-06
-5.10494e-05
3.80533e-06
-5.14677e-05
3.51564e-06
-5.18761e-05
3.22688e-06
-5.22709e-05
2.93683e-06
-5.26488e-05
2.64393e-06
-5.30064e-05
2.34732e-06
-5.33406e-05
2.04693e-06
-5.36481e-05
1.74359e-06
-5.39254e-05
1.43924e-06
-5.41686e-05
1.1374e-06
-5.43726e-05
8.4736e-07
-5.4532e-05
5.98565e-07
-5.46462e-05
4.30227e-07
-5.47123e-05
-5.45712e-05
4.9457e-06
-3.89169e-05
5.02207e-06
-4.36972e-05
4.75933e-06
-4.6206e-05
4.33991e-06
-4.75185e-05
3.85784e-06
-4.82771e-05
3.36256e-06
-4.88146e-05
2.87568e-06
-4.92793e-05
2.40321e-06
-4.97254e-05
1.94407e-06
-5.01659e-05
1.49496e-06
-5.06003e-05
1.05256e-06
-5.10253e-05
6.14149e-07
-5.14377e-05
1.77797e-07
-5.18346e-05
-2.57755e-07
-5.22132e-05
-6.93133e-07
-5.25711e-05
-1.12834e-06
-5.29054e-05
-1.56274e-06
-5.32137e-05
-1.99497e-06
-5.34932e-05
-2.42283e-06
-5.37408e-05
-2.84235e-06
-5.39531e-05
-3.2463e-06
-5.4128e-05
-3.62995e-06
-5.42625e-05
-4.01467e-06
-5.43276e-05
-5.42744e-05
3.6484e-06
-3.94032e-05
3.54587e-06
-4.35947e-05
3.14195e-06
-4.58021e-05
2.59133e-06
-4.69679e-05
1.97964e-06
-4.76654e-05
1.35253e-06
-4.81874e-05
7.29794e-07
-4.86565e-05
1.17262e-07
-4.91129e-05
-4.85411e-07
-4.95632e-05
-1.08041e-06
-5.00053e-05
-1.66996e-06
-5.04357e-05
-2.25578e-06
-5.08519e-05
-2.83903e-06
-5.12513e-05
-3.42034e-06
-5.16319e-05
-3.9999e-06
-5.19915e-05
-4.57746e-06
-5.23279e-05
-5.15236e-06
-5.26388e-05
-5.72347e-06
-5.29221e-05
-6.28905e-06
-5.31752e-05
-6.84659e-06
-5.33956e-05
-7.39405e-06
-5.35806e-05
-7.93298e-06
-5.37236e-05
-8.45717e-06
-5.38034e-05
-5.38374e-05
2.38267e-06
-3.96129e-05
2.10217e-06
-4.33142e-05
1.55655e-06
-4.52565e-05
8.75661e-07
-4.6287e-05
1.34944e-07
-4.69247e-05
-6.23301e-07
-4.74292e-05
-1.38091e-06
-4.78989e-05
-2.13219e-06
-4.83616e-05
-2.87677e-06
-4.88186e-05
-3.61583e-06
-4.92662e-05
-4.35063e-06
-4.97009e-05
-5.0821e-06
-5.01204e-05
-5.8108e-06
-5.05226e-05
-6.53694e-06
-5.09058e-05
-7.26049e-06
-5.1268e-05
-7.9811e-06
-5.16073e-05
-8.69814e-06
-5.19218e-05
-9.4106e-06
-5.22096e-05
-1.01169e-05
-5.24688e-05
-1.08151e-05
-5.26974e-05
-1.1503e-05
-5.28927e-05
-1.21774e-05
-5.30491e-05
-1.28266e-05
-5.31543e-05
-5.32533e-05
1.15403e-06
-3.95635e-05
7.0129e-07
-4.28614e-05
1.91678e-08
-4.45744e-05
-7.95909e-07
-4.54719e-05
-1.66569e-06
-4.60549e-05
-2.55438e-06
-4.65405e-05
-3.44582e-06
-4.70075e-05
-4.33439e-06
-4.7473e-05
-5.21899e-06
-4.7934e-05
-6.09991e-06
-4.83853e-05
-6.97756e-06
-4.88233e-05
-7.85222e-06
-4.92457e-05
-8.72393e-06
-4.96509e-05
-9.59258e-06
-5.00371e-05
-1.04579e-05
-5.04026e-05
-1.13194e-05
-5.07457e-05
-1.21764e-05
-5.10648e-05
-1.30276e-05
-5.13584e-05
-1.38714e-05
-5.1625e-05
-1.47055e-05
-5.18634e-05
-1.55267e-05
-5.20715e-05
-1.63305e-05
-5.22453e-05
-1.71068e-05
-5.23779e-05
-5.25316e-05
-2.9786e-08
-3.92797e-05
-6.50042e-07
-4.22412e-05
-1.47472e-06
-4.37497e-05
-2.41551e-06
-4.45311e-05
-3.41271e-06
-4.50577e-05
-4.43094e-06
-4.55223e-05
-5.45492e-06
-4.59835e-05
-6.47897e-06
-4.6449e-05
-7.50133e-06
-4.69117e-05
-8.52144e-06
-4.73652e-05
-9.53901e-06
-4.78057e-05
-1.05537e-05
-4.8231e-05
-1.15652e-05
-4.86394e-05
-1.2573e-05
-4.90293e-05
-1.35767e-05
-4.9399e-05
-1.45755e-05
-4.97469e-05
-1.55687e-05
-5.00717e-05
-1.65547e-05
-5.03723e-05
-1.75318e-05
-5.0648e-05
-1.84971e-05
-5.08981e-05
-1.94472e-05
-5.11214e-05
-2.03771e-05
-5.13154e-05
-2.12783e-05
-5.14767e-05
-5.16796e-05
-1.16746e-06
-3.87703e-05
-1.94447e-06
-4.14642e-05
-2.90398e-06
-4.27902e-05
-3.97347e-06
-4.34616e-05
-5.09737e-06
-4.39338e-05
-6.24391e-06
-4.43757e-05
-7.39874e-06
-4.48287e-05
-8.55605e-06
-4.52916e-05
-9.71342e-06
-4.57543e-05
-1.08696e-05
-4.6209e-05
-1.20236e-05
-4.66517e-05
-1.31747e-05
-4.70799e-05
-1.43221e-05
-4.7492e-05
-1.54651e-05
-4.78863e-05
-1.6603e-05
-4.82611e-05
-1.77349e-05
-4.8615e-05
-1.88598e-05
-4.89468e-05
-1.99762e-05
-4.9256e-05
-2.10818e-05
-4.95423e-05
-2.21738e-05
-4.9806e-05
-2.32485e-05
-5.00468e-05
-2.43009e-05
-5.02629e-05
-2.53237e-05
-5.0454e-05
-5.07021e-05
-2.24893e-06
-3.80593e-05
-3.17549e-06
-4.05376e-05
-4.26678e-06
-4.16989e-05
-5.4626e-06
-4.22658e-05
-6.71172e-06
-4.26847e-05
-7.98484e-06
-4.31026e-05
-9.26834e-06
-4.35452e-05
-1.05562e-05
-4.40038e-05
-1.18454e-05
-4.44651e-05
-1.3134e-05
-4.49203e-05
-1.44207e-05
-4.5365e-05
-1.57041e-05
-4.57965e-05
-1.69831e-05
-4.6213e-05
-1.82569e-05
-4.66126e-05
-1.95244e-05
-4.69936e-05
-2.07848e-05
-4.73546e-05
-2.20367e-05
-4.76948e-05
-2.32785e-05
-4.80141e-05
-2.4508e-05
-4.83129e-05
-2.5722e-05
-4.8592e-05
-2.69169e-05
-4.88519e-05
-2.80879e-05
-4.90919e-05
-2.92285e-05
-4.93134e-05
-4.96032e-05
-3.27112e-06
-3.71648e-05
-4.33756e-06
-3.94712e-05
-5.55659e-06
-4.04799e-05
-6.87608e-06
-4.09463e-05
-8.24836e-06
-4.13124e-05
-9.64581e-06
-4.17052e-05
-1.10553e-05
-4.21357e-05
-1.24705e-05
-4.25886e-05
-1.38879e-05
-4.30477e-05
-1.5305e-05
-4.35032e-05
-1.672e-05
-4.39501e-05
-1.81312e-05
-4.43854e-05
-1.95372e-05
-4.4807e-05
-2.09369e-05
-4.52128e-05
-2.23293e-05
-4.56012e-05
-2.37131e-05
-4.59708e-05
-2.50871e-05
-4.63209e-05
-2.64494e-05
-4.66518e-05
-2.77977e-05
-4.69646e-05
-2.91288e-05
-4.72609e-05
-3.04392e-05
-4.75416e-05
-3.17244e-05
-4.78067e-05
-3.29789e-05
-4.80589e-05
-4.8387e-05
-4.22885e-06
-3.61024e-05
-5.42479e-06
-3.82752e-05
-6.767e-06
-3.91377e-05
-8.20722e-06
-3.95061e-05
-9.70021e-06
-3.98194e-05
-1.12193e-05
-4.01861e-05
-1.27515e-05
-4.06034e-05
-1.42905e-05
-4.10496e-05
-1.5832e-05
-4.15062e-05
-1.73733e-05
-4.1962e-05
-1.89119e-05
-4.24114e-05
-2.04461e-05
-4.28512e-05
-2.19742e-05
-4.32789e-05
-2.34948e-05
-4.36922e-05
-2.50068e-05
-4.40893e-05
-2.65089e-05
-4.44687e-05
-2.79996e-05
-4.48301e-05
-2.94771e-05
-4.51743e-05
-3.09389e-05
-4.55028e-05
-3.23819e-05
-4.58179e-05
-3.38027e-05
-4.61208e-05
-3.51976e-05
-4.64118e-05
-3.65617e-05
-4.66947e-05
-4.70581e-05
-5.11639e-06
-3.48865e-05
-6.43088e-06
-3.69607e-05
-7.8913e-06
-3.76772e-05
-9.44943e-06
-3.7948e-05
-1.10604e-05
-3.82084e-05
-1.2698e-05
-3.85485e-05
-1.43496e-05
-3.89519e-05
-1.60083e-05
-3.93909e-05
-1.76696e-05
-3.98449e-05
-1.93302e-05
-4.03014e-05
-2.09875e-05
-4.0754e-05
-2.26396e-05
-4.11992e-05
-2.42844e-05
-4.1634e-05
-2.59206e-05
-4.20561e-05
-2.75467e-05
-4.24631e-05
-2.91615e-05
-4.28539e-05
-3.07634e-05
-4.32282e-05
-3.23504e-05
-4.35873e-05
-3.39201e-05
-4.39332e-05
-3.54695e-05
-4.42685e-05
-3.69955e-05
-4.45947e-05
-3.8495e-05
-4.49124e-05
-3.99641e-05
-4.52255e-05
-4.56212e-05
-5.92706e-06
-3.35311e-05
-7.34901e-06
-3.55388e-05
-8.92278e-06
-3.61035e-05
-1.05958e-05
-3.62749e-05
-1.23224e-05
-3.64818e-05
-1.40754e-05
-3.67956e-05
-1.58424e-05
-3.71848e-05
-1.76165e-05
-3.76168e-05
-1.93927e-05
-3.80687e-05
-2.11676e-05
-3.85265e-05
-2.29385e-05
-3.89832e-05
-2.47029e-05
-3.94348e-05
-2.64589e-05
-3.9878e-05
-2.82049e-05
-4.031e-05
-2.99395e-05
-4.07285e-05
-3.16612e-05
-4.11322e-05
-3.33684e-05
-4.15211e-05
-3.50589e-05
-4.18967e-05
-3.67305e-05
-4.22616e-05
-3.83805e-05
-4.26185e-05
-4.00062e-05
-4.2969e-05
-4.16049e-05
-4.33136e-05
-4.31739e-05
-4.36565e-05
-4.40817e-05
-6.65206e-06
-3.20511e-05
-8.17046e-06
-3.40204e-05
-9.85478e-06
-3.44191e-05
-1.16397e-05
-3.449e-05
-1.34796e-05
-3.46419e-05
-1.5345e-05
-3.49302e-05
-1.72235e-05
-3.53062e-05
-1.91084e-05
-3.5732e-05
-2.09945e-05
-3.61826e-05
-2.28783e-05
-3.66426e-05
-2.4757e-05
-3.71045e-05
-2.6628e-05
-3.75638e-05
-2.84893e-05
-3.80167e-05
-3.03393e-05
-3.84601e-05
-3.21762e-05
-3.88916e-05
-3.39987e-05
-3.93097e-05
-3.58049e-05
-3.97149e-05
-3.75928e-05
-4.01088e-05
-3.93601e-05
-4.04942e-05
-4.11046e-05
-4.08741e-05
-4.28239e-05
-4.12497e-05
-4.45162e-05
-4.16213e-05
-4.61796e-05
-4.19932e-05
-4.24455e-05
-7.27866e-06
-3.04656e-05
-8.885e-06
-3.2414e-05
-1.06796e-05
-3.26246e-05
-1.25754e-05
-3.25942e-05
-1.45259e-05
-3.26914e-05
-1.6501e-05
-3.29551e-05
-1.84871e-05
-3.33201e-05
-2.04778e-05
-3.37413e-05
-2.24685e-05
-3.41919e-05
-2.44555e-05
-3.46556e-05
-2.6436e-05
-3.5124e-05
-2.84075e-05
-3.55922e-05
-3.03679e-05
-3.60563e-05
-3.23154e-05
-3.65126e-05
-3.42484e-05
-3.69586e-05
-3.61651e-05
-3.7393e-05
-3.80639e-05
-3.78161e-05
-3.99428e-05
-3.823e-05
-4.17995e-05
-3.86375e-05
-4.3632e-05
-3.90415e-05
-4.54388e-05
-3.94429e-05
-4.72185e-05
-3.98416e-05
-4.897e-05
-4.02416e-05
-4.07189e-05
-7.78611e-06
-2.87995e-05
-9.48112e-06
-3.0719e-05
-1.1389e-05
-3.07167e-05
-1.33973e-05
-3.05858e-05
-1.54565e-05
-3.06323e-05
-1.75381e-05
-3.08734e-05
-1.96279e-05
-3.12303e-05
-2.17195e-05
-3.16497e-05
-2.3809e-05
-3.21024e-05
-2.58932e-05
-3.25714e-05
-2.79693e-05
-3.3048e-05
-3.00347e-05
-3.35268e-05
-3.20876e-05
-3.40034e-05
-3.4126e-05
-3.44742e-05
-3.61482e-05
-3.49364e-05
-3.81525e-05
-3.53886e-05
-4.01372e-05
-3.58314e-05
-4.21003e-05
-3.62669e-05
-4.40397e-05
-3.66981e-05
-4.59539e-05
-3.71274e-05
-4.78414e-05
-3.75554e-05
-4.97016e-05
-3.79814e-05
-5.15346e-05
-3.84087e-05
-3.8908e-05
-8.14452e-06
-2.70662e-05
-9.94645e-06
-2.89171e-05
-1.19742e-05
-2.86889e-05
-1.40998e-05
-2.84603e-05
-1.62675e-05
-2.84646e-05
-1.84523e-05
-2.86886e-05
-2.06417e-05
-2.9041e-05
-2.2829e-05
-2.94624e-05
-2.50113e-05
-2.99201e-05
-2.71862e-05
-3.03965e-05
-2.93511e-05
-3.08831e-05
-3.15036e-05
-3.13742e-05
-3.36419e-05
-3.18651e-05
-3.57641e-05
-3.23521e-05
-3.78684e-05
-3.28321e-05
-3.99533e-05
-3.33038e-05
-4.20168e-05
-3.37678e-05
-4.40573e-05
-3.42265e-05
-4.60728e-05
-3.46825e-05
-4.8062e-05
-3.51382e-05
-5.00235e-05
-3.55938e-05
-5.19564e-05
-3.60486e-05
-5.38609e-05
-3.65042e-05
-3.70165e-05
-8.31653e-06
-2.52214e-05
-1.02624e-05
-2.69712e-05
-1.2426e-05
-2.65253e-05
-1.46788e-05
-2.62075e-05
-1.69571e-05
-2.61863e-05
-1.9242e-05
-2.64037e-05
-2.15255e-05
-2.67575e-05
-2.38028e-05
-2.71851e-05
-2.60716e-05
-2.76513e-05
-2.83302e-05
-2.81379e-05
-3.05766e-05
-2.86366e-05
-3.2809e-05
-2.91419e-05
-3.50252e-05
-2.96489e-05
-3.72237e-05
-3.01536e-05
-3.94026e-05
-3.06531e-05
-4.15604e-05
-3.1146e-05
-4.36953e-05
-3.16329e-05
-4.58057e-05
-3.2116e-05
-4.78903e-05
-3.2598e-05
-4.99478e-05
-3.30807e-05
-5.19772e-05
-3.35645e-05
-5.39773e-05
-3.40484e-05
-5.59465e-05
-3.45351e-05
-3.50563e-05
-8.2212e-06
-2.34559e-05
-1.03924e-05
-2.48e-05
-1.27419e-05
-2.41758e-05
-1.51369e-05
-2.38126e-05
-1.75266e-05
-2.37966e-05
-1.99072e-05
-2.4023e-05
-2.22782e-05
-2.43865e-05
-2.46385e-05
-2.48248e-05
-2.69866e-05
-2.53032e-05
-2.93216e-05
-2.58029e-05
-3.1642e-05
-2.63162e-05
-3.39464e-05
-2.68376e-05
-3.62328e-05
-2.73624e-05
-3.84997e-05
-2.78868e-05
-4.07453e-05
-2.84075e-05
-4.29679e-05
-2.89233e-05
-4.51662e-05
-2.94346e-05
-4.73387e-05
-2.99435e-05
-4.94845e-05
-3.04522e-05
-5.16028e-05
-3.09624e-05
-5.3693e-05
-3.14742e-05
-5.57546e-05
-3.19868e-05
-5.77859e-05
-3.25038e-05
-3.3039e-05
-7.52417e-06
-2.24263e-05
-1.03224e-05
-2.20018e-05
-1.29422e-05
-2.1556e-05
-1.54853e-05
-2.12694e-05
-1.79811e-05
-2.13008e-05
-2.045e-05
-2.15542e-05
-2.29002e-05
-2.19362e-05
-2.53349e-05
-2.23902e-05
-2.77542e-05
-2.28838e-05
-3.01576e-05
-2.33995e-05
-3.2544e-05
-2.39297e-05
-3.49123e-05
-2.44693e-05
-3.72608e-05
-2.50139e-05
-3.9588e-05
-2.55596e-05
-4.18922e-05
-2.61034e-05
-4.41718e-05
-2.66438e-05
-4.64254e-05
-2.71811e-05
-4.8652e-05
-2.77169e-05
-5.0851e-05
-2.82532e-05
-5.30222e-05
-2.87912e-05
-5.51656e-05
-2.93308e-05
-5.7281e-05
-2.98715e-05
-5.93685e-05
-3.04163e-05
-3.09725e-05
-5.3903e-07
5.3903e-07
-1.68843e-06
1.1494e-06
-2.88085e-06
1.19243e-06
-3.6443e-06
7.63453e-07
-3.71132e-06
6.7015e-08
-1.54234e-06
-2.16898e-06
-7.53375e-07
1.29241e-06
-1.86304e-06
2.25906e-06
-2.88428e-06
2.21367e-06
-3.65482e-06
1.53399e-06
-3.92974e-06
3.41932e-07
-2.26077e-06
-3.21131e-06
-8.21388e-07
2.11379e-06
-1.80391e-06
3.24158e-06
-2.70736e-06
3.11712e-06
-3.42957e-06
2.25621e-06
-3.82397e-06
7.36327e-07
-2.13067e-06
-3.95407e-06
-8.34599e-07
2.94839e-06
-1.69432e-06
4.1013e-06
-2.50535e-06
3.92815e-06
-3.2041e-06
2.95497e-06
-3.75502e-06
1.28724e-06
-1.4516e-06
-4.43408e-06
-8.10748e-07
3.75914e-06
-1.56165e-06
4.8522e-06
-2.29837e-06
4.66487e-06
-3.00131e-06
3.6579e-06
-3.70756e-06
1.99349e-06
-4.47953e-07
-4.71121e-06
-7.58826e-07
4.51797e-06
-1.41137e-06
5.50474e-06
-2.08567e-06
5.33917e-06
-2.8039e-06
4.37613e-06
-3.63972e-06
2.82932e-06
7.45282e-07
-4.83296e-06
-6.84606e-07
5.20257e-06
-1.24512e-06
6.06525e-06
-1.86227e-06
5.95632e-06
-2.59215e-06
5.10601e-06
-3.5213e-06
3.75847e-06
2.047e-06
-4.82302e-06
-5.92204e-07
5.79478e-06
-1.0631e-06
6.53615e-06
-1.62245e-06
6.51567e-06
-2.35102e-06
5.83458e-06
-3.33549e-06
4.74294e-06
3.40304e-06
-4.69154e-06
-4.84793e-07
6.27957e-06
-8.65167e-07
6.91652e-06
-1.36128e-06
7.01178e-06
-2.07015e-06
6.54345e-06
-3.07383e-06
5.74662e-06
4.77327e-06
-4.44406e-06
-3.6515e-07
6.64472e-06
-6.51323e-07
7.2027e-06
-1.07514e-06
7.4356e-06
-1.74278e-06
7.2111e-06
-2.73181e-06
6.73565e-06
6.12572e-06
-4.08426e-06
-2.35276e-07
6.87999e-06
-4.2232e-07
7.38974e-06
-7.61976e-07
7.77526e-06
-1.36493e-06
7.81405e-06
-2.30717e-06
7.67789e-06
7.43308e-06
-3.61453e-06
-9.71003e-08
6.97709e-06
-1.79594e-07
7.47224e-06
-4.21334e-07
8.017e-06
-9.34871e-07
8.32759e-06
-1.79932e-06
8.54234e-06
8.67019e-06
-3.03643e-06
4.7147e-08
6.92995e-06
7.4589e-08
7.44479e-06
-5.44461e-08
8.14603e-06
-4.53101e-07
8.72624e-06
-1.20893e-06
9.29817e-06
9.81205e-06
-2.35078e-06
1.93453e-07
6.73649e-06
3.37468e-07
7.30078e-06
3.3539e-07
8.14811e-06
7.76024e-08
8.98403e-06
-5.37936e-07
9.91371e-06
1.08322e-05
-1.55806e-06
3.40079e-07
6.39642e-06
6.04332e-07
7.03653e-06
7.4299e-07
8.00945e-06
6.52131e-07
9.07489e-06
2.10101e-07
1.03557e-05
1.17013e-05
-6.5901e-07
4.82613e-07
5.9138e-06
8.69428e-07
6.64971e-06
1.16048e-06
7.7184e-06
1.26185e-06
8.97352e-06
1.02918e-06
1.05884e-05
1.23858e-05
3.44644e-07
6.15901e-07
5.2979e-06
1.12505e-06
6.14056e-06
1.57709e-06
7.26635e-06
1.89447e-06
8.65614e-06
1.90982e-06
1.05731e-05
1.28436e-05
1.45201e-06
7.33267e-07
4.56463e-06
1.3614e-06
5.51243e-06
1.9787e-06
6.64905e-06
2.53298e-06
8.10186e-06
2.83727e-06
1.02688e-05
1.30256e-05
2.65529e-06
8.25776e-07
3.73886e-06
1.56619e-06
4.77201e-06
2.34757e-06
5.86768e-06
3.1549e-06
7.29453e-06
3.78993e-06
9.63375e-06
1.28689e-05
3.94664e-06
8.81644e-07
2.85721e-06
1.72445e-06
3.9292e-06
2.66238e-06
4.92975e-06
3.73119e-06
6.22572e-06
4.73612e-06
8.62881e-06
1.22917e-05
5.31328e-06
8.87146e-07
1.97007e-06
1.81912e-06
2.99723e-06
2.89902e-06
3.84984e-06
4.22584e-06
4.8989e-06
5.63191e-06
7.22274e-06
1.11768e-05
6.74681e-06
8.30716e-07
1.13935e-06
1.83253e-06
1.99542e-06
3.03149e-06
2.65088e-06
4.59226e-06
3.33814e-06
6.41819e-06
5.39681e-06
9.3036e-06
8.29142e-06
7.03185e-07
4.36165e-07
1.73936e-06
9.59244e-07
3.02493e-06
1.36531e-06
4.74622e-06
1.61685e-06
7.01288e-06
3.13015e-06
6.05477e-06
1.02617e-05
4.36165e-07
1.39541e-06
2.76072e-06
4.37757e-06
7.50772e-06
1.35625e-05
-7.05168e-06
-1.75436e-05
-1.02317e-05
-1.88218e-05
-1.30665e-05
-1.87212e-05
-1.57391e-05
-1.85968e-05
-1.83277e-05
-1.87122e-05
-2.08734e-05
-1.90084e-05
-2.33926e-05
-1.9417e-05
-2.58917e-05
-1.98911e-05
-2.8373e-05
-2.04026e-05
-3.0836e-05
-2.09365e-05
-3.328e-05
-2.14858e-05
-3.57038e-05
-2.20455e-05
-3.81062e-05
-2.26115e-05
-4.04855e-05
-2.31802e-05
-4.28402e-05
-2.37487e-05
-4.51687e-05
-2.43153e-05
-4.74697e-05
-2.488e-05
-4.97426e-05
-2.5444e-05
-5.19871e-05
-2.60087e-05
-5.42034e-05
-2.65749e-05
-5.63917e-05
-2.71425e-05
-5.85521e-05
-2.7711e-05
-6.06857e-05
-2.82827e-05
-2.88632e-05
-6.91671e-06
-1.38382e-05
-1.02135e-05
-1.55249e-05
-1.31568e-05
-1.5778e-05
-1.59133e-05
-1.58403e-05
-1.85726e-05
-1.60529e-05
-2.11805e-05
-1.64005e-05
-2.37568e-05
-1.68408e-05
-2.63096e-05
-1.73382e-05
-2.88425e-05
-1.78697e-05
-3.13556e-05
-1.84234e-05
-3.38481e-05
-1.89933e-05
-3.63187e-05
-1.95749e-05
-3.87663e-05
-2.0164e-05
-4.11893e-05
-2.07572e-05
-4.35863e-05
-2.13517e-05
-4.59556e-05
-2.1946e-05
-4.82962e-05
-2.25394e-05
-5.06075e-05
-2.31327e-05
-5.28895e-05
-2.37266e-05
-5.51427e-05
-2.43217e-05
-5.73674e-05
-2.49178e-05
-5.9564e-05
-2.55145e-05
-6.17333e-05
-2.61134e-05
-2.67188e-05
-7.10485e-06
-1.06874e-05
-1.02698e-05
-1.236e-05
-1.32175e-05
-1.28302e-05
-1.60133e-05
-1.30445e-05
-1.8719e-05
-1.33472e-05
-2.13728e-05
-1.37468e-05
-2.39934e-05
-1.42202e-05
-2.65891e-05
-1.47425e-05
-2.91632e-05
-1.52956e-05
-3.1716e-05
-1.58705e-05
-3.42471e-05
-1.64623e-05
-3.67552e-05
-1.70667e-05
-3.92391e-05
-1.76801e-05
-4.16971e-05
-1.82991e-05
-4.41278e-05
-1.89211e-05
-4.65296e-05
-1.95442e-05
-4.89015e-05
-2.01676e-05
-5.1243e-05
-2.07912e-05
-5.35544e-05
-2.14152e-05
-5.58361e-05
-2.204e-05
-5.80887e-05
-2.26652e-05
-6.03124e-05
-2.32907e-05
-6.25083e-05
-2.39175e-05
-2.45483e-05
-7.31037e-06
-7.81115e-06
-1.03259e-05
-9.34447e-06
-1.32344e-05
-9.92172e-06
-1.60369e-05
-1.02419e-05
-1.87667e-05
-1.06175e-05
-2.14502e-05
-1.10633e-05
-2.41023e-05
-1.15681e-05
-2.67296e-05
-1.21152e-05
-2.93345e-05
-1.26907e-05
-3.19171e-05
-1.32879e-05
-3.44768e-05
-1.39026e-05
-3.70126e-05
-1.4531e-05
-3.95232e-05
-1.51694e-05
-4.20073e-05
-1.58151e-05
-4.44629e-05
-1.64654e-05
-4.68887e-05
-1.71185e-05
-4.92834e-05
-1.77729e-05
-5.16467e-05
-1.84278e-05
-5.39789e-05
-1.9083e-05
-5.62806e-05
-1.97384e-05
-5.85523e-05
-2.03936e-05
-6.07944e-05
-2.10486e-05
-6.30079e-05
-2.1704e-05
-2.2361e-05
-7.44054e-06
-5.08182e-06
-1.03304e-05
-6.45459e-06
-1.31869e-05
-7.06528e-06
-1.59765e-05
-7.45233e-06
-1.87129e-05
-7.88102e-06
-2.14118e-05
-8.36444e-06
-2.40829e-05
-8.897e-06
-2.67304e-05
-9.46767e-06
-2.93555e-05
-1.00656e-05
-3.19577e-05
-1.06857e-05
-3.45362e-05
-1.13241e-05
-3.70901e-05
-1.19771e-05
-3.96181e-05
-1.26414e-05
-4.21187e-05
-1.33144e-05
-4.45903e-05
-1.39938e-05
-4.70312e-05
-1.46775e-05
-4.94402e-05
-1.53639e-05
-5.18169e-05
-1.60512e-05
-5.41614e-05
-1.67386e-05
-5.64743e-05
-1.74254e-05
-5.87564e-05
-1.81115e-05
-6.1008e-05
-1.8797e-05
-6.32301e-05
-1.94819e-05
-2.01658e-05
-7.46302e-06
-2.45176e-06
-1.02547e-05
-3.66288e-06
-1.30575e-05
-4.26251e-06
-1.58234e-05
-4.68639e-06
-1.85541e-05
-5.15041e-06
-2.1256e-05
-5.6625e-06
-2.39342e-05
-6.21882e-06
-2.65906e-05
-6.8112e-06
-2.92251e-05
-7.4311e-06
-3.18368e-05
-8.07408e-06
-3.44244e-05
-8.73648e-06
-3.69868e-05
-9.41465e-06
-3.95228e-05
-1.01054e-05
-4.20309e-05
-1.08063e-05
-4.45094e-05
-1.15153e-05
-4.69566e-05
-1.22303e-05
-4.93712e-05
-1.29492e-05
-5.17526e-05
-1.36698e-05
-5.41009e-05
-1.43903e-05
-5.64166e-05
-1.51097e-05
-5.87003e-05
-1.58278e-05
-6.09524e-05
-1.65449e-05
-6.31739e-05
-1.72603e-05
-1.7972e-05
-7.36994e-06
9.51648e-08
-1.00835e-05
-9.4931e-07
-1.28345e-05
-1.51156e-06
-1.55709e-05
-1.94998e-06
-1.82862e-05
-2.43509e-06
-2.09804e-05
-2.96829e-06
-2.36548e-05
-3.54442e-06
-2.63096e-05
-4.15645e-06
-2.89433e-05
-4.79738e-06
-3.15543e-05
-5.46302e-06
-3.41413e-05
-6.14957e-06
-3.67027e-05
-6.85322e-06
-3.92373e-05
-7.57082e-06
-4.17436e-05
-8.30002e-06
-4.422e-05
-9.03893e-06
-4.66647e-05
-9.78562e-06
-4.90762e-05
-1.05377e-05
-5.14538e-05
-1.12923e-05
-5.37972e-05
-1.20469e-05
-5.61069e-05
-1.28e-05
-5.83835e-05
-1.35513e-05
-6.06274e-05
-1.4301e-05
-6.28397e-05
-1.5048e-05
-1.57888e-05
-7.16183e-06
2.56546e-06
-9.80853e-06
1.69739e-06
-1.25099e-05
1.18983e-06
-1.5213e-05
7.53081e-07
-1.79054e-05
2.57362e-07
-2.05828e-05
-2.90944e-07
-2.32437e-05
-8.83516e-07
-2.58868e-05
-1.51329e-06
-2.85099e-05
-2.17428e-06
-3.11107e-05
-2.86224e-06
-3.36873e-05
-3.57293e-06
-3.62383e-05
-4.30224e-06
-3.87622e-05
-5.04692e-06
-4.12576e-05
-5.80464e-06
-4.37228e-05
-6.57369e-06
-4.61562e-05
-7.35223e-06
-4.85561e-05
-8.13775e-06
-5.09214e-05
-8.92697e-06
-5.32516e-05
-9.71667e-06
-5.55469e-05
-1.05047e-05
-5.78077e-05
-1.12905e-05
-6.00345e-05
-1.20742e-05
-6.22284e-05
-1.28541e-05
-1.36253e-05
-6.83972e-06
4.96112e-06
-9.42505e-06
4.28272e-06
-1.20783e-05
3.8431e-06
-1.47451e-05
3.4199e-06
-1.74088e-05
2.921e-06
-2.00615e-05
2.36181e-06
-2.27002e-05
1.7552e-06
-2.53226e-05
1.1091e-06
-2.79257e-05
4.28805e-07
-3.05068e-05
-2.81124e-07
-3.30639e-05
-1.01588e-06
-3.55952e-05
-1.77096e-06
-3.80992e-05
-2.54287e-06
-4.05746e-05
-3.32927e-06
-4.30197e-05
-4.12853e-06
-4.5433e-05
-4.93897e-06
-4.78127e-05
-5.75811e-06
-5.01572e-05
-6.58242e-06
-5.24658e-05
-7.40809e-06
-5.47382e-05
-8.23227e-06
-5.69747e-05
-9.05395e-06
-5.91758e-05
-9.87313e-06
-6.13425e-05
-1.06874e-05
-1.14903e-05
-6.40376e-06
7.28062e-06
-8.92999e-06
6.80895e-06
-1.15358e-05
6.44895e-06
-1.41643e-05
6.04835e-06
-1.67945e-05
5.55116e-06
-1.94161e-05
4.98343e-06
-2.20248e-05
4.36394e-06
-2.46179e-05
3.70219e-06
-2.71921e-05
3.003e-06
-2.97445e-05
2.27129e-06
-3.22729e-05
1.51249e-06
-3.47754e-05
7.31576e-07
-3.72506e-05
-6.76889e-08
-3.9697e-05
-8.82842e-07
-4.21133e-05
-1.7123e-06
-4.44977e-05
-2.55456e-06
-4.68485e-05
-3.4073e-06
-4.91639e-05
-4.26697e-06
-5.14427e-05
-5.12934e-06
-5.36841e-05
-5.99089e-06
-5.58879e-05
-6.85007e-06
-5.80545e-05
-7.70653e-06
-6.0185e-05
-8.55694e-06
-9.39278e-06
-5.85334e-06
9.51943e-06
-8.32086e-06
9.27647e-06
-1.08799e-05
9.00798e-06
-1.34687e-05
8.63716e-06
-1.60618e-05
8.14428e-06
-1.86468e-05
7.5684e-06
-2.12186e-05
6.93575e-06
-2.37745e-05
6.25808e-06
-2.63113e-05
5.53985e-06
-2.88263e-05
4.78629e-06
-3.13172e-05
4.00336e-06
-3.37821e-05
3.1965e-06
-3.62196e-05
2.36978e-06
-3.86283e-05
1.52583e-06
-4.10068e-05
6.66235e-07
-4.33537e-05
-2.07673e-07
-4.56672e-05
-1.09384e-06
-4.79452e-05
-1.9889e-06
-5.01861e-05
-2.88849e-06
-5.23884e-05
-3.78856e-06
-5.45516e-05
-4.68692e-06
-5.66752e-05
-5.58292e-06
-5.87592e-05
-6.47292e-06
-7.34014e-06
-5.18731e-06
1.16703e-05
-7.59529e-06
1.16845e-05
-1.01087e-05
1.15214e-05
-1.26576e-05
1.1186e-05
-1.52112e-05
1.06979e-05
-1.7755e-05
1.01122e-05
-2.02837e-05
9.46448e-06
-2.27951e-05
8.76944e-06
-2.52866e-05
8.03135e-06
-2.77558e-05
7.25547e-06
-3.02005e-05
6.44812e-06
-3.26191e-05
5.61512e-06
-3.50102e-05
4.76083e-06
-3.73724e-05
3.88806e-06
-3.97046e-05
2.99841e-06
-4.20053e-05
2.09307e-06
-4.42729e-05
1.17376e-06
-4.65053e-05
2.43444e-07
-4.87001e-05
-6.93661e-07
-5.08554e-05
-1.63325e-06
-5.29697e-05
-2.57262e-06
-5.50418e-05
-3.51079e-06
-5.70706e-05
-4.44412e-06
-5.33895e-06
-4.4042e-06
1.37237e-05
-6.75103e-06
1.40313e-05
-9.22115e-06
1.39915e-05
-1.17311e-05
1.3696e-05
-1.42438e-05
1.32106e-05
-1.6743e-05
1.26114e-05
-1.92233e-05
1.19448e-05
-2.16834e-05
1.12295e-05
-2.4122e-05
1.04699e-05
-2.65372e-05
9.67071e-06
-2.89275e-05
8.83837e-06
-3.12912e-05
7.97888e-06
-3.36273e-05
7.09684e-06
-3.59344e-05
6.19519e-06
-3.82115e-05
5.27556e-06
-4.04575e-05
4.33901e-06
-4.26706e-05
3.38686e-06
-4.48487e-05
2.42156e-06
-4.69892e-05
1.44688e-06
-4.90896e-05
4.67078e-07