/*--------------------------------*- C++ -*----------------------------------*\
  =========                 |
  \\      /  F ield         | OpenFOAM: The Open Source CFD Toolbox
   \\    /   O peration     | Website:  https://openfoam.org
    \\  /    A nd           | Version:  11
     \\/     M anipulation  |
\*---------------------------------------------------------------------------*/
FoamFile
{
    format      ascii;
    class       surfaceVectorField;
    location    "0.7";
    object      Uf;
}
// * * * * * * * * * * * * * * * * * * * * * * * * * * * * * * * * * * * * * //

dimensions      [0 1 -1 0 0 0 0];

internalField   nonuniform List<vector> 
5640
(
(-0.0931358 -0.107274 -1.8548e-19)
(-0.0893121 -0.0893153 -1.64729e-20)
(-0.103735 -0.13741 -1.67794e-19)
(-0.11091 -0.145172 -7.59277e-22)
(-0.0717863 -0.0616976 1.15961e-20)
(-0.0820952 -0.101811 3.93136e-20)
(0.01443 0.086137 -1.36653e-19)
(-0.0160478 0.044122 1.02964e-19)
(0.151775 0.382562 -1.25622e-19)
(0.106611 0.210607 -1.35404e-19)
(0.312754 0.599025 7.06842e-20)
(0.576722 0.750214 3.46316e-20)
(-0.107423 -0.120328 1.68247e-19)
(-0.113193 -0.104951 1.21784e-19)
(-0.0859929 -0.113149 2.03779e-19)
(-0.103605 -0.131407 1.78547e-19)
(-0.0209398 -0.0152686 1.38263e-19)
(-0.0396079 -0.0649785 1.84171e-20)
(0.0891963 0.146366 1.12422e-19)
(0.0586479 0.0773449 9.02399e-21)
(0.272249 0.354457 5.59625e-20)
(0.222036 0.247744 2.0392e-20)
(0.449358 0.499137 2.78517e-21)
(0.646452 0.602309 9.36625e-20)
(-0.110813 -0.113811 1.2881e-19)
(-0.130804 -0.105275 1.55156e-21)
(-0.0598861 -0.0869696 0)
(-0.0913114 -0.112733 -3.77006e-20)
(0.0354476 0.0156668 -1.07992e-19)
(0.000288877 -0.0363728 -2.95021e-20)
(0.180965 0.171895 -8.27158e-20)
(0.126754 0.0997889 -1.11768e-19)
(0.386929 0.35481 -2.78352e-20)
(0.316214 0.263453 -7.8539e-21)
(0.554566 0.45888 -7.28228e-20)
(0.699527 0.537619 -6.70838e-20)
(-0.112907 -0.104331 -1.62143e-19)
(-0.145368 -0.102298 -1.18784e-19)
(-0.0348455 -0.0655359 -6.75515e-20)
(-0.078124 -0.0957827 6.44301e-21)
(0.0862983 0.0372983 -3.04987e-20)
(0.0362675 -0.0147238 6.70891e-21)
(0.255515 0.185721 -4.05689e-20)
(0.18702 0.114545 6.67084e-21)
(0.474349 0.349179 -5.76714e-20)
(0.394296 0.268398 -4.30183e-20)
(0.633481 0.430421 -4.77808e-21)
(0.749947 0.49418 -1.78407e-20)
(-0.114033 -0.0948385 4.25311e-20)
(-0.157594 -0.0984521 -1.1375e-19)
(-0.0118487 -0.0482692 8.0679e-20)
(-0.0655856 -0.0812155 3.44563e-20)
(0.131188 0.0531212 4.40507e-20)
(0.0678845 0.00174586 2.9443e-20)
(0.31882 0.192449 5.63042e-21)
(0.238952 0.123868 -4.57521e-20)
(0.544853 0.339366 9.79702e-21)
(0.458553 0.268394 -1.27912e-21)
(0.693673 0.407552 -1.64273e-20)
(0.792233 0.460526 1.38521e-20)
(-0.114402 -0.0864934 -1.30332e-19)
(-0.167856 -0.0951378 -4.94144e-22)
(0.00836772 -0.0344569 -1.65791e-20)
(-0.0545712 -0.0690373 -9.62235e-21)
(0.169573 0.0644141 -5.77507e-20)
(0.0947108 0.0140881 -1.35097e-20)
(0.371772 0.195256 -5.39241e-20)
(0.282646 0.129535 -3.3117e-22)
(0.600676 0.330006 -2.70734e-20)
(0.511214 0.266332 0)
(0.739824 0.390174 3.9883e-21)
(0.825226 0.434832 -4.58723e-20)
(-0.11457 -0.0798238 1.20799e-19)
(-0.176354 -0.0930411 3.42714e-19)
(0.0252715 -0.0236895 -6.38756e-21)
(-0.0456174 -0.0592005 0)
(0.201414 0.0722081 4.30805e-20)
(0.116495 0.0229591 -7.41444e-23)
(0.41534 0.195971 5.37636e-20)
(0.318404 0.132603 5.78875e-20)
(0.644628 0.322229 3.10504e-20)
(0.553996 0.263517 6.97816e-20)
(0.774853 0.377274 -3.44417e-20)
(0.850202 0.415434 5.06428e-20)
(-0.114897 -0.075002 2.41687e-19)
(-0.183209 -0.0923627 -2.19082e-19)
(0.0385488 -0.0156652 6.31657e-21)
(-0.0390498 -0.0515829 -4.00583e-21)
(0.226828 0.0771605 1.2675e-20)
(0.133112 0.0288452 1.97425e-20)
(0.45041 0.195415 7.39621e-20)
(0.346567 0.133612 -5.94235e-21)
(0.678872 0.31581 6.78809e-21)
(0.588074 0.260462 6.99706e-20)
(0.800822 0.367418 5.12521e-22)
(0.868454 0.400519 -7.7265e-20)
(-0.115569 -0.0719418 -4.77086e-19)
(-0.188517 -0.0929856 -2.21179e-19)
(0.0480297 -0.0100878 8.40956e-21)
(-0.0350672 -0.0459707 2.50991e-19)
(0.245933 0.0797344 3.19057e-21)
(0.144505 0.0321592 1.31452e-20)
(0.477629 0.193897 -1.16802e-20)
(0.367422 0.132818 -1.15325e-20)
(0.704836 0.31029 6.5158e-20)
(0.614232 0.25726 6.24102e-20)
(0.819253 0.35947 2.21823e-19)
(0.880892 0.388615 6.24399e-20)
(-0.116705 -0.0703792 4.79785e-19)
(-0.192371 -0.0945849 2.26436e-19)
(0.0536196 -0.00663576 2.65847e-19)
(-0.0337988 -0.0420693 -1.35292e-21)
(0.258782 0.0803854 0)
(0.150672 0.033295 1.32202e-20)
(0.497421 0.191436 6.05415e-20)
(0.381118 0.130293 -3.49193e-20)
(0.723492 0.305214 2.16123e-19)
(0.633011 0.253737 -8.18884e-20)
(0.831293 0.352578 1.57062e-19)
(0.888294 0.378688 1.12688e-19)
(-0.118407 -0.0699266 -2.41592e-19)
(-0.194877 -0.0966943 4.45225e-19)
(0.0552217 -0.00498283 -2.54636e-19)
(-0.0353426 -0.039525 -4.96102e-19)
(0.265613 0.0787073 -1.94981e-20)
(0.151381 0.0325402 -2.38255e-19)
(0.510099 0.187875 -1.76934e-19)
(0.387861 0.126098 1.77109e-19)
(0.735613 0.300024 -1.45824e-19)
(0.644734 0.249518 -1.44162e-19)
(0.837744 0.346019 -1.38558e-19)
(0.891431 0.369744 -7.04969e-20)
(-0.120794 -0.0701281 2.45022e-19)
(-0.196161 -0.09876 -2.13877e-20)
(0.0527225 -0.00476449 -4.90847e-19)
(-0.0397702 -0.0379565 2.85102e-19)
(0.26612 0.0755373 -5.60983e-20)
(0.146587 0.0302163 -6.42376e-20)
(0.515914 0.182822 2.17973e-19)
(0.387398 0.120138 4.52831e-20)
(0.74169 0.294657 -1.36755e-19)
(0.649782 0.24423 0)
(0.839466 0.339348 3.73343e-21)
(0.89052 0.362089 -4.02976e-20)
(-0.124006 -0.0704828 6.85776e-22)
(-0.196348 -0.100208 -4.66786e-19)
(0.0460431 -0.00563227 7.26413e-19)
(-0.0471214 -0.0370063 2.62926e-19)
(0.260206 0.0707681 3.15788e-20)
(0.136135 0.0266118 1.87273e-19)
(0.51479 0.176252 -1.71518e-19)
(0.379488 0.112286 -3.58521e-19)
(0.742158 0.288378 1.40399e-19)
(0.648095 0.237389 0)
(0.836827 0.332159 -1.8179e-19)
(0.886187 0.354504 1.67752e-19)
(-0.127991 -0.070608 -2.4667e-19)
(-0.195589 -0.100485 -6.94944e-21)
(0.0350739 -0.00727225 -2.72911e-19)
(-0.0573412 -0.0363456 -2.7012e-19)
(0.247628 0.0644446 -1.85205e-19)
(0.119842 0.0220095 2.03501e-19)
(0.506483 0.167791 -1.97055e-19)
(0.363747 0.102343 -1.91621e-19)
(0.737124 0.280774 -3.17739e-19)
(0.639377 0.228514 2.15241e-20)
(0.830111 0.324051 -2.15326e-19)
(0.878684 0.346868 -3.57261e-19)
(-0.132882 -0.0699944 -1.52081e-20)
(-0.194075 -0.0989958 -2.08321e-20)
(0.0197776 -0.00937298 1.86246e-19)
(-0.0702895 -0.0356915 7.6348e-23)
(0.22807 0.0566139 2.1014e-19)
(0.0975281 0.0167095 2.02583e-19)
(0.490542 0.157083 1.8993e-20)
(0.339661 0.0900892 1.95703e-19)
(0.726482 0.271382 1.29619e-19)
(0.622952 0.21716 -1.10684e-19)
(0.819469 0.314541 1.09322e-19)
(0.868116 0.338955 -1.40204e-21)
(-0.138678 -0.0682349 -6.67282e-21)
(-0.192085 -0.0951218 4.31624e-19)
(0.000174054 -0.0116452 7.90572e-21)
(-0.085691 -0.0347876 2.8404e-19)
(0.201137 0.0473551 1.88168e-19)
(0.0690748 0.0110565 -1.80347e-21)
(0.466262 0.143792 7.27145e-20)
(0.306621 0.0753298 2.45668e-19)
(0.709772 0.25974 -1.38854e-19)
(0.597644 0.202917 1.24089e-21)
(0.804784 0.30298 1.51506e-19)
(0.854442 0.330376 -2.72198e-20)
(-0.145397 -0.0649013 7.30924e-19)
(-0.190053 -0.0882025 -4.27945e-19)
(-0.0235888 -0.0137962 2.86462e-19)
(-0.103088 -0.0334315 -3.08023e-19)
(0.166427 0.0368101 4.73005e-20)
(0.0345438 0.0054324 -4.52771e-19)
(0.43265 0.127564 1.87748e-19)
(0.263979 0.0579299 1.00516e-19)
(0.686043 0.24529 2.85609e-19)
(0.561672 0.185404 -9.04958e-20)
(0.78559 0.288388 -3.80221e-20)
(0.837424 0.320591 3.3239e-19)
(-0.153255 -0.0597567 -1.4752e-18)
(-0.188655 -0.077532 -4.32874e-19)
(-0.0511522 -0.0155755 -1.04124e-18)
(-0.121767 -0.0315293 -3.11516e-19)
(0.123656 0.0251834 -4.18381e-19)
(-0.0056055 0.00020623 -1.79237e-19)
(0.38847 0.108094 -1.57274e-19)
(0.211179 0.0378878 1.15829e-23)
(0.65372 0.227404 -4.16829e-19)
(0.512446 0.164373 -6.61038e-20)
(0.760926 0.269194 -3.08387e-19)
(0.816679 0.308813 -3.57737e-19)
(-0.162888 -0.0532927 7.32866e-19)
(-0.189359 -0.0620623 4.56488e-19)
(-0.0817577 -0.0168909 5.46148e-19)
(-0.140392 -0.0293902 2.91307e-19)
(0.0729635 0.0127216 2.31349e-19)
(-0.0501549 -0.00435116 2.5845e-19)
(0.332279 0.0854104 9.67377e-20)
(0.148045 0.0155289 1.49209e-19)
(0.61046 0.205555 5.46844e-20)
(0.446351 0.139829 -6.9982e-20)
(0.729118 0.242858 1.21946e-19)
(0.791715 0.294009 2.26921e-20)
(-0.170077 -0.0405072 2.44588e-20)
(-0.185509 -0.0466751 -3.61519e-19)
(-0.113612 -0.0177294 4.76804e-21)
(-0.156575 -0.0278702 -2.87211e-19)
(0.015797 -0.000573366 1.77863e-19)
(-0.0967417 -0.00822415 -2.52125e-19)
(0.262287 0.0602528 -1.7346e-20)
(0.0754178 -0.00794753 1.9558e-19)
(0.553017 0.179038 6.52717e-21)
(0.35817 0.11215 -3.73972e-20)
(0.687453 0.205748 2.36511e-19)
(0.761475 0.274743 2.1232e-19)
(-0.170677 -0.0330068 -6.77476e-19)
(-0.173413 -0.0345146 -2.5565e-21)
(-0.143493 -0.0181611 -5.46171e-19)
(-0.168337 -0.025256 2.38893e-20)
(-0.0469445 -0.0130445 -2.49478e-19)
(-0.141392 -0.0106043 9.0677e-21)
(0.175514 0.034047 1.77597e-19)
(-0.00341815 -0.0308813 -4.09741e-19)
(0.47583 0.144904 1.9158e-19)
(0.238223 0.0831372 1.87094e-19)
(0.631734 0.153715 0)
(0.721958 0.247934 1.65608e-19)
(-0.168817 -0.0279437 6.93473e-19)
(-0.156974 -0.022558 8.27126e-19)
(-0.169232 -0.0168966 5.78284e-19)
(-0.175266 -0.0204294 6.58247e-19)
(-0.11003 -0.0230874 -1.36726e-19)
(-0.181035 -0.0102028 4.69416e-19)
(0.0664932 0.00937729 -4.15701e-19)
(-0.0776585 -0.0500425 -1.67746e-19)
(0.364972 0.0924141 0)
(0.0607829 0.0612301 -1.89904e-19)
(0.560945 0.079134 0)
(0.661816 0.202706 -1.88581e-19)
(-0.162308 -0.0204291 8.01276e-19)
(-0.121694 -0.0164289 -2.80794e-19)
(-0.188971 -0.0137297 5.57415e-19)
(-0.163567 -0.0182927 -3.06162e-20)
(-0.165861 -0.0281492 4.71572e-19)
(-0.20884 -0.00819116 -5.42983e-20)
(-0.0714313 -0.012709 5.38654e-20)
(-0.130144 -0.0567478 2.58851e-19)
(0.20094 0.029463 -1.94456e-19)
(-0.187215 0.0518837 -1.17557e-19)
(0.456464 -0.0382574 -2.44437e-20)
(0.59966 0.140076 0)
(-0.119574 -0.0148598 -1.12758e-18)
(-0.181123 -0.00986558 -6.27779e-19)
(-0.195665 -0.0196841 -2.50779e-19)
(-0.197916 -0.00391111 1.29868e-19)
(0.0348323 0.042666 5.40341e-20)
(0.576321 0.134588 -3.47038e-21)
(1.08651 0.515208 -1.80377e-20)
(0.964585 0.615113 4.09435e-20)
(0.986171 0.561445 1.35436e-19)
(1.27872 0.412431 -3.7165e-20)
(1.2203 0.474614 -3.92154e-20)
(1.23428 0.441196 -3.75815e-20)
(1.35149 0.340368 4.22875e-20)
(1.32355 0.383537 2.39038e-20)
(1.34225 0.350917 1.13057e-20)
(1.37157 0.288006 1.46143e-20)
(1.35917 0.321818 1.26274e-20)
(1.37933 0.292484 1.65059e-20)
(1.36678 0.248381 -9.98983e-22)
(1.36138 0.275659 1.59112e-21)
(1.38215 0.250917 -3.28821e-20)
(1.3517 0.217222 0)
(1.34922 0.239382 4.32185e-21)
(1.36982 0.21894 3.67381e-21)
(1.33356 0.192222 -6.49372e-21)
(1.33218 0.210456 1.16186e-20)
(1.35186 0.193563 4.75964e-21)
(1.31561 0.171867 2.62553e-22)
(1.31454 0.187088 8.14491e-21)
(1.3329 0.173005 -8.29978e-21)
(1.29907 0.155029 6.48163e-21)
(1.298 0.167913 -3.5911e-22)
(1.31499 0.156057 4.27973e-21)
(1.28417 0.140841 -1.68025e-20)
(1.28302 0.151903 1.78574e-20)
(1.29879 0.141833 -1.85514e-20)
(1.27069 0.128644 7.1115e-21)
(1.26945 0.138278 -1.73188e-20)
(1.28428 0.129658 -5.75917e-21)
(1.25829 0.117942 3.25186e-20)
(1.25699 0.126447 2.34841e-20)
(1.27117 0.119019 2.40152e-20)
(1.2466 0.108372 -6.98132e-21)
(1.24527 0.115973 9.45498e-21)
(1.25906 0.109531 1.32312e-20)
(1.23528 0.0996739 -1.57288e-20)
(1.23396 0.106538 -1.55987e-20)
(1.2476 0.100919 -2.83871e-20)
(1.22401 0.0916766 1.58204e-20)
(1.22277 0.0979184 9.55492e-21)
(1.23644 0.092991 -1.29544e-20)
(1.21246 0.0842827 1.04227e-21)
(1.21139 0.0899695 6.64851e-21)
(1.22524 0.0856336 1.5947e-20)
(1.20029 0.0774634 -3.30614e-22)
(1.19953 0.0826193 2.17428e-21)
(1.21365 0.0788016 -2.79164e-20)
(1.18713 0.0712532 -7.2307e-21)
(1.18686 0.0758676 -1.80191e-20)
(1.2013 0.0725202 7.82605e-21)
(1.17251 0.0657476 -2.2829e-20)
(1.17298 0.0697637 -2.24925e-20)
(1.18775 0.0668699 -2.94601e-20)
(1.15591 0.0611083 3.53226e-20)
(1.15741 0.0643017 1.53002e-20)
(1.17246 0.0618785 -3.7909e-20)
(1.13669 0.0575664 4.03136e-20)
(1.13954 0.0594247 3.40096e-20)
(1.15473 0.057524 5.15783e-20)
(1.11403 0.0554574 -2.04568e-20)
(1.11897 0.0563821 -8.31043e-21)
(1.13417 0.0551037 -3.7555e-20)
(1.08677 0.0553202 -6.3922e-20)
(1.09601 0.0601304 -6.52008e-20)
(1.11116 0.0595705 -7.72182e-21)
(1.06953 0.0713215 6.64609e-20)
(1.08419 0.07179 3.64101e-20)
(1.07898 0.508977 3.67592e-20)
(0.951499 0.569635 1.34704e-20)
(1.25836 0.430739 6.2902e-21)
(1.20206 0.484102 2.42607e-20)
(1.32874 0.364395 -5.54658e-21)
(1.29942 0.402505 -9.36538e-22)
(1.34767 0.31028 -1.78135e-21)
(1.33263 0.341282 -1.22145e-21)
(1.34321 0.267446 5.24934e-21)
(1.33535 0.293182 9.78293e-22)
(1.32945 0.23337 1.59382e-20)
(1.32485 0.254623 -2.26246e-21)
(1.31305 0.205943 2.68294e-20)
(1.30985 0.22362 9.14232e-21)
(1.29689 0.183601 7.93823e-21)
(1.29429 0.198493 1.63363e-20)
(1.28193 0.165135 1.07293e-20)
(1.27964 0.177852 -1.69636e-20)
(1.2683 0.149604 1.78308e-20)
(1.26621 0.160613 2.43409e-20)
(1.25576 0.136286 -1.01695e-21)
(1.25383 0.145944 -4.86247e-22)
(1.24399 0.12464 3.72881e-22)
(1.24222 0.133221 9.36596e-21)
(1.23266 0.11427 9.72385e-22)
(1.23105 0.12198 1.95773e-21)
(1.22149 0.104889 9.47523e-21)
(1.22006 0.111883 3.20803e-22)
(1.2102 0.0963006 4.06146e-22)
(1.20898 0.102687 -1.98129e-20)
(1.19851 0.0883828 7.78776e-21)
(1.19759 0.0942268 -3.89104e-22)
(1.18615 0.0810803 -1.54153e-20)
(1.18562 0.086406 2.6625e-20)
(1.17276 0.0744011 -3.33096e-20)
(1.1728 0.0791995 -2.44314e-20)
(1.15796 0.0684135 1.5599e-20)
(1.1588 0.072627 0)
(1.14128 0.063245 1.4993e-20)
(1.14319 0.0666457 1.57037e-20)
(1.12213 0.0590788 -1.58784e-20)
(1.12545 0.0611705 4.68116e-21)
(1.09983 0.0561655 -5.27464e-20)
(1.10517 0.0573854 -1.90756e-20)
(1.07353 0.0548935 -8.19882e-20)
(1.08254 0.0602078 -2.13773e-20)
(1.05691 0.070591 1.36575e-20)
(1.06773 0.508871 7.13289e-22)
(0.955681 0.53921 0)
(1.23588 0.440917 6.45674e-21)
(1.17991 0.481417 7.30808e-22)
(1.30126 0.378103 2.66985e-21)
(1.27132 0.411279 7.10459e-21)
(1.31947 0.324589 2.72868e-21)
(1.303 0.352674 8.85235e-22)
(1.31654 0.280832 -7.26641e-21)
(1.30692 0.304664 -3.76162e-21)
(1.30503 0.245409 -1.04964e-20)
(1.29869 0.265419 1.74383e-22)
(1.291 0.216658 -2.08851e-21)
(1.28624 0.233502 -7.04017e-21)
(1.27702 0.193131 -8.70819e-21)
(1.27311 0.207461 -8.80361e-21)
(1.26392 0.173626 -3.97904e-21)
(1.26057 0.185971 -1.36115e-20)
(1.25175 0.157182 6.18121e-21)
(1.24884 0.167953 -3.38511e-21)
(1.24031 0.143061 9.94242e-21)
(1.23777 0.152573 0)
(1.2293 0.130708 1.10036e-20)
(1.2271 0.139205 1.0041e-20)
(1.21848 0.119715 1.18191e-21)
(1.2166 0.127383 1.00154e-20)
(1.20759 0.109783 -2.88956e-20)
(1.20603 0.116766 -5.33005e-21)
(1.19641 0.1007 -2.07635e-20)
(1.19521 0.107102 -2.94502e-20)
(1.18474 0.0923242 1.83226e-20)
(1.18392 0.0982118 8.98173e-21)
(1.17233 0.0845773 1.80482e-20)
(1.17199 0.0899808 9.33712e-21)
(1.1589 0.0774399 8.76696e-21)
(1.15917 0.0823581 6.09382e-21)
(1.14412 0.0709515 0)
(1.14522 0.0753346 -2.52962e-21)
(1.12757 0.065207 4.32198e-21)
(1.12976 0.0688364 -2.44865e-21)
(1.10875 0.0603489 1.05341e-22)
(1.11235 0.0627393 -1.15555e-20)
(1.08709 0.0565629 1.23072e-20)
(1.09258 0.058115 8.83046e-21)
(1.06205 0.0541425 3.76861e-20)
(1.07054 0.0597004 1.67303e-20)
(1.04608 0.0696961 -1.63933e-20)
(1.06151 0.495213 0)
(0.962608 0.508594 6.97331e-22)
(1.21138 0.441021 6.92124e-21)
(1.15798 0.471069 -1.5628e-21)
(1.27177 0.383897 6.52769e-21)
(1.24245 0.412533 3.61494e-21)
(1.28992 0.332781 -5.52736e-21)
(1.27278 0.358 -1.80517e-21)
(1.28879 0.289561 3.42155e-21)
(1.27791 0.311378 -5.76762e-21)
(1.27977 0.253913 3.731e-21)
(1.27205 0.272526 3.53722e-21)
(1.2683 0.224693 -1.3939e-20)
(1.26227 0.240553 -1.04964e-22)
(1.25666 0.200623 -1.38034e-20)
(1.25166 0.214246 -6.2904e-21)
(1.2455 0.180552 -1.32207e-20)
(1.24126 0.192385 9.17165e-22)
(1.23487 0.163546 -9.69287e-21)
(1.23125 0.173941 -7.04884e-21)
(1.22459 0.14888 0)
(1.22151 0.158113 -9.53132e-22)
(1.21443 0.136015 9.05294e-21)
(1.21185 0.144297 9.05844e-22)
(1.2042 0.124547 3.6093e-21)
(1.20209 0.132045 6.04936e-21)
(1.1937 0.114181 -5.69799e-21)
(1.19205 0.121024 -4.06826e-21)
(1.18277 0.104697 0)
(1.18158 0.110986 -3.01704e-21)
(1.17123 0.0959404 0)
(1.17053 0.101747 1.44332e-21)
(1.15889 0.0878119 -2.5937e-21)
(1.15875 0.0931795 0)
(1.14555 0.0802643 -5.14284e-21)
(1.14607 0.0852086 -2.36821e-23)
(1.13093 0.0733044 -4.97881e-21)
(1.13227 0.0777995 -2.32626e-23)
(1.11468 0.0669917 -1.83008e-20)
(1.1171 0.0708649 -2.94143e-23)
(1.09634 0.0614226 -2.11354e-21)
(1.10015 0.0642371 -1.6116e-20)
(1.07551 0.0567154 1.32734e-20)
(1.08099 0.0586825 1.56074e-20)
(1.05215 0.0531155 0)
(1.05971 0.058204 0)
(1.03689 0.068507 -1.16867e-21)
(1.05557 0.477026 -5.3377e-22)
(0.969532 0.480963 -1.55224e-20)
(1.18735 0.435743 -5.56719e-21)
(1.13815 0.458053 8.79471e-22)
(1.24268 0.38459 -3.27309e-21)
(1.21446 0.409064 -5.62463e-21)
(1.26048 0.336419 -1.90361e-21)
(1.24318 0.35896 -6.60188e-24)
(1.26105 0.29458 -6.066e-21)
(1.24938 0.314443 -6.30395e-22)
(1.25451 0.259499 -2.59262e-22)
(1.24578 0.276673 -4.09168e-21)
(1.24561 0.230432 7.7443e-21)
(1.23857 0.245228 -1.6261e-21)
(1.23626 0.206285 8.44155e-21)
(1.23036 0.219112 1.37589e-21)
(1.22701 0.185998 7.25397e-21)
(1.22201 0.197226 2.10261e-21)
(1.21791 0.168691 1.66135e-21)
(1.21366 0.178618 2.57765e-21)
(1.2088 0.15368 -6.55345e-23)
(1.20524 0.162539 -1.54543e-23)
(1.19955 0.140454 -2.16182e-21)
(1.19661 0.148427 1.34944e-23)
(1.18999 0.12863 -1.5634e-21)
(1.18765 0.135859 -3.10484e-21)
(1.17998 0.117923 -1.397e-21)
(1.17823 0.124523 -1.99237e-21)
(1.16941 0.108118 -1.60829e-21)
(1.16823 0.114182 -3.01704e-21)
(1.15812 0.0990585 1.45426e-21)
(1.15755 0.104657 1.44332e-21)
(1.14599 0.09063 2.58381e-21)
(1.14606 0.0958172 -9.20191e-21)
(1.13284 0.0827623 5.12925e-21)
(1.13363 0.0875777 1.14396e-20)
(1.11848 0.0754284 4.97815e-21)
(1.12011 0.0798927 8.18969e-21)
(1.10258 0.0686473 2.35178e-21)
(1.10531 0.0726941 -8.49816e-21)
(1.08473 0.062466 2.49343e-21)
(1.08888 0.0658066 1.32234e-20)
(1.06468 0.0568382 2.42696e-21)
(1.07021 0.0594259 -2.72833e-21)
(1.04339 0.0515755 -1.16195e-21)
(1.04888 0.0552851 -2.6442e-21)
(1.02986 0.0668553 -4.08249e-21)
(1.04974 0.458987 -1.42249e-20)
(0.975101 0.458118 6.55179e-22)
(1.16455 0.427229 1.13355e-21)
(1.12014 0.444254 -3.36218e-21)
(1.21466 0.381745 -2.21825e-21)
(1.1881 0.402732 7.71646e-21)
(1.23197 0.336774 1.35952e-21)
(1.21491 0.356915 1.34713e-20)
(1.23408 0.296757 1.40365e-21)
(1.22193 0.314802 1.38264e-21)
(1.22984 0.262709 -5.49285e-21)
(1.22035 0.278486 0)
(1.22332 0.2342 -8.03307e-21)
(1.21548 0.247925 -7.73587e-23)
(1.21612 0.2103 -4.97621e-21)
(1.20948 0.222299 -1.32831e-20)
(1.20868 0.190049 -2.5794e-21)
(1.20303 0.200628 1.21786e-20)
(1.20103 0.172635 9.32662e-22)
(1.19625 0.182043 0)
(1.19309 0.157428 6.43997e-23)
(1.18911 0.16586 9.42493e-22)
(1.18477 0.143953 -9.04446e-22)
(1.18151 0.15156 1.59759e-20)
(1.17595 0.131857 -3.54358e-21)
(1.1734 0.138757 -1.58934e-20)
(1.16655 0.120873 -3.60479e-21)
(1.16467 0.127161 -3.45292e-23)
(1.15646 0.1108 0)
(1.15526 0.11655 -1.41307e-20)
(1.14558 0.101487 -9.13215e-21)
(1.14508 0.106757 1.34624e-20)
(1.1338 0.0928247 -4.9473e-22)
(1.13404 0.0976562 -1.90442e-20)
(1.12101 0.0847361 1.45226e-20)
(1.12204 0.0891641 1.82647e-20)
(1.10706 0.0771756 -5.14183e-21)
(1.10898 0.0812366 -5.61199e-22)
(1.09172 0.0701285 2.2551e-21)
(1.09469 0.0737968 -1.69615e-20)
(1.07473 0.0636762 7.959e-21)
(1.07905 0.0665866 1.05121e-20)
(1.05582 0.0582168 -7.79999e-21)
(1.06203 0.0595868 -1.08051e-20)
(1.03483 0.0542522 -5.55647e-21)
(1.04339 0.0547401 -5.42552e-22)
(1.01711 0.0677199 1.99633e-20)
(1.04348 0.442506 1.09664e-20)
(0.97843 0.439516 1.62423e-20)
(1.14329 0.417321 2.7441e-21)
(1.10344 0.430803 -5.80446e-21)
(1.18828 0.376704 2.39063e-20)
(1.16353 0.394911 9.89421e-21)
(1.20487 0.334816 1.36965e-20)
(1.18825 0.352888 -4.26202e-21)
(1.20823 0.296775 0)
(1.19584 0.313189 0)
(1.20602 0.264007 5.43912e-21)
(1.196 0.278483 1.4537e-20)
(1.20166 0.236299 -5.13459e-21)
(1.1932 0.248993 -7.73225e-21)
(1.19642 0.212857 3.55843e-21)
(1.18918 0.224036 -1.08609e-20)
(1.19064 0.192812 1.49138e-20)
(1.18446 0.202732 1.47497e-20)
(1.18437 0.175427 0)
(1.17913 0.184296 0)
(1.17757 0.160127 1.67064e-20)
(1.1732 0.168109 1.98113e-20)
(1.17019 0.14648 1.28443e-21)
(1.16663 0.1537 8.35526e-21)
(1.16217 0.134162 -1.25179e-20)
(1.15938 0.140716 -2.46437e-20)
(1.15345 0.122926 -1.04372e-20)
(1.15141 0.128889 2.93713e-21)
(1.14396 0.112585 -8.90836e-22)
(1.14267 0.118012 -1.41307e-20)
(1.13364 0.102997 3.78962e-21)
(1.13311 0.107925 2.8399e-20)
(1.12239 0.0940575 -5.53183e-22)
(1.12266 0.0985068 -9.84955e-21)
(1.11015 0.0856877 3.3264e-21)
(1.11124 0.0896774 3.60374e-20)
(1.09681 0.0778358 -1.2238e-20)
(1.09879 0.0813836 -2.56647e-20)
(1.08227 0.0704879 -8.77422e-21)
(1.08521 0.0734824 1.25177e-23)
(1.06645 0.0636869 -8.38766e-21)
(1.07049 0.0655856 -2.74151e-21)
(1.04894 0.0573906 -3.03607e-21)
(1.05451 0.0580033 1.20044e-20)
(1.02818 0.0510133 2.42299e-20)
(1.03572 0.0552042 2.70908e-20)
(1.01115 0.0675838 -8.19342e-21)
(1.03644 0.427807 0)
(0.979166 0.424182 -1.82189e-20)
(1.12336 0.40702 0)
(1.08758 0.418185 -3.16186e-20)
(1.16354 0.370361 -1.72755e-20)
(1.14062 0.386458 -2.47439e-20)
(1.17928 0.331272 -1.78972e-20)
(1.16321 0.347628 -5.06602e-20)
(1.18365 0.295184 1.43161e-20)
(1.17115 0.310175 0)
(1.18321 0.263784 1.7582e-21)
(1.17279 0.27708 1.4537e-20)
(1.18074 0.236997 -1.34183e-20)
(1.17179 0.248726 -1.32482e-20)
(1.17725 0.21413 0)
(1.16952 0.224523 0)
(1.17298 0.194398 0)
(1.16635 0.203673 0)
(1.168 0.177132 1.96047e-20)
(1.16237 0.185468 -2.19648e-20)
(1.1623 0.161813 1.15543e-20)
(1.15758 0.169348 2.75875e-22)
(1.15587 0.148049 -1.72683e-20)
(1.15201 0.154888 2.96998e-20)
(1.14867 0.135541 -9.42229e-21)
(1.14564 0.141766 -6.26383e-20)
(1.14069 0.124059 -6.14075e-22)
(1.13846 0.129732 4.97472e-20)
(1.13188 0.113426 1.48179e-20)
(1.13044 0.118591 0)
(1.1222 0.103503 1.50498e-20)
(1.12156 0.108189 -3.06596e-20)
(1.11159 0.0941801 2.64022e-20)
(1.11176 0.098406 2.94722e-20)
(1.09998 0.0853722 7.61229e-21)
(1.101 0.0891595 2.6595e-20)
(1.0873 0.0770151 -1.36026e-20)
(1.08922 0.0803829 -4.66438e-20)
(1.07348 0.069066 6.04781e-21)
(1.07637 0.0718791 3.23581e-20)
(1.05839 0.0614709 1.76295e-20)
(1.06247 0.0632264 0)
(1.04159 0.0540626 4.21122e-20)
(1.04718 0.0550965 1.8569e-20)
(1.02256 0.0467949 3.96451e-20)
(1.02867 0.0529258 7.57211e-20)
(1.00623 0.0627064 -9.20389e-20)
(1.02842 0.41477 -4.95658e-20)
(0.977321 0.411226 -1.00211e-19)
(1.10452 0.396917 -5.55852e-20)
(1.07223 0.406608 3.0904e-20)
(1.14036 0.363355 -5.8321e-20)
(1.11911 0.377914 -2.47439e-20)
(1.15517 0.326692 -3.36102e-20)
(1.13969 0.341663 1.06264e-20)
(1.16034 0.292411 0)
(1.14781 0.306188 0)
(1.1614 0.262352 0)
(1.15069 0.2746 0)
(1.16059 0.236519 0)
(1.15125 0.247365 3.09018e-20)
(1.15865 0.21428 0)
(1.15051 0.223938 -2.95334e-20)
(1.15576 0.194921 -2.17204e-20)
(1.14874 0.203582 -2.57656e-20)
(1.15198 0.177834 -4.15806e-20)
(1.14599 0.185654 -2.19648e-20)
(1.14733 0.162551 1.8085e-20)
(1.14229 0.169651 -4.21738e-20)
(1.14182 0.148715 -1.48043e-20)
(1.13768 0.155187 3.82351e-20)
(1.13547 0.136052 -4.45415e-21)
(1.13219 0.141968 -9.2122e-20)
(1.12826 0.124347 5.0803e-20)
(1.12581 0.129763 6.79386e-20)
(1.12017 0.113429 -4.52585e-20)
(1.11855 0.118386 5.19402e-20)
(1.11118 0.10316 -1.67251e-20)
(1.11038 0.107686 -9.52096e-20)
(1.10124 0.0934325 2.96859e-20)
(1.10128 0.097548 -1.77387e-21)
(1.09032 0.084157 -2.70128e-20)
(1.09122 0.0878904 3.0093e-20)
(1.07835 0.0752658 -1.23711e-21)
(1.08015 0.078641 -7.00275e-20)
(1.06528 0.0667064 2.65178e-20)
(1.06806 0.0695837 1.37864e-19)
(1.05098 0.0584193 7.49038e-22)
(1.055 0.0603182 2.05866e-24)
(1.03514 0.0503173 5.17608e-20)
(1.04054 0.05173 -6.46573e-20)
(1.01794 0.0425796 7.97179e-20)
(1.02269 0.0494994 6.52047e-20)
(1.00186 0.0571443 -3.65265e-20)
(1.0194 0.403164 -2.37025e-20)
(0.973062 0.399997 -1.68328e-19)
(1.08652 0.387354 6.30278e-20)
(1.05716 0.396151 6.17349e-20)
(1.11844 0.356352 4.27116e-20)
(1.09884 0.369663 1.16601e-19)
(1.13236 0.321465 4.42486e-20)
(1.11734 0.335326 4.35209e-20)
(1.13819 0.288762 0)
(1.12565 0.301517 0)
(1.14055 0.259958 3.04716e-20)
(1.12959 0.27129 0)
(1.14119 0.235051 2.20245e-21)
(1.13151 0.245102 -2.09731e-21)
(1.14063 0.21345 -5.52916e-20)
(1.13214 0.222427 2.96085e-20)
(1.13899 0.19449 -2.60523e-20)
(1.13162 0.202571 -2.57656e-20)
(1.13632 0.17762 -2.23691e-20)
(1.13001 0.184945 -1.8364e-21)
(1.13268 0.162415 -2.28267e-20)
(1.12734 0.169094 -9.46672e-20)
(1.12809 0.148551 -3.78643e-20)
(1.12368 0.154668 0)
(1.12257 0.135775 -2.11719e-20)
(1.11905 0.141396 -1.2055e-19)
(1.11615 0.123885 6.92092e-20)
(1.11349 0.129064 1.12752e-19)
(1.10881 0.112718 3.17087e-21)
(1.107 0.117494 3.53182e-20)
(1.10054 0.102143 -8.09738e-20)
(1.09958 0.106543 7.20124e-20)
(1.09132 0.0920515 -1.64129e-21)
(1.09122 0.0960987 -9.76834e-20)
(1.08112 0.0823613 -1.22261e-20)
(1.08189 0.0860856 3.0093e-20)
(1.06991 0.0730086 6.76876e-20)
(1.07157 0.0764337 -1.50424e-19)
(1.05765 0.0639461 1.09411e-19)
(1.06031 0.0669274 1.70834e-19)
(1.04422 0.0551281 -7.03506e-20)
(1.04816 0.0571996 -5.72588e-20)
(1.02945 0.0465036 -5.20032e-20)
(1.03464 0.048238 -9.6549e-21)
(1.01392 0.038366 3.98008e-20)
(1.01756 0.0456494 3.54889e-23)
(0.998174 0.0514668 -1.50348e-20)
(1.00931 0.392942 -8.92063e-20)
(0.966762 0.390134 6.11918e-20)
(1.0691 0.378436 1.14159e-19)
(1.04208 0.386826 5.25735e-20)
(1.09773 0.348973 1.18769e-19)
(1.07929 0.36181 9.18813e-20)
(1.11071 0.315803 0)
(1.09615 0.328913 -2.54967e-20)
(1.11707 0.284475 0)
(1.10452 0.296389 -7.00625e-20)
(1.12056 0.256793 -3.25397e-20)
(1.10938 0.267333 0)
(1.12247 0.232746 2.49172e-20)
(1.11249 0.242084 -3.29991e-20)
(1.12315 0.211757 5.98464e-20)
(1.11433 0.220108 1.56065e-19)
(1.12266 0.1932 -1.81597e-21)
(1.11497 0.200734 -2.9087e-20)
(1.12104 0.176568 -7.31058e-20)
(1.11442 0.18342 4.9534e-20)
(1.11837 0.161475 -7.27481e-20)
(1.11274 0.167746 -2.44839e-20)
(1.11468 0.147624 -8.15683e-20)
(1.11 0.153394 0)
(1.11001 0.134782 1.1311e-20)
(1.10625 0.140115 -4.07167e-20)
(1.10439 0.122757 7.95252e-20)
(1.10151 0.127704 5.36321e-20)
(1.09782 0.111395 1.03882e-19)
(1.09582 0.115996 -5.39365e-20)
(1.09031 0.100569 5.66313e-20)
(1.08917 0.104852 8.60677e-20)
(1.08184 0.0901792 -6.69191e-20)
(1.08157 0.0941648 3.5374e-21)
(1.07241 0.0801478 -1.06887e-19)
(1.07302 0.0838672 -6.75128e-20)
(1.06202 0.0704204 -4.93518e-20)
(1.06351 0.0738951 -1.40822e-19)
(1.05062 0.060959 2.80605e-21)
(1.05311 0.0640423 1.22102e-19)
(1.03816 0.0517304 2.96271e-21)
(1.04194 0.0539772 -5.72609e-20)
(1.02451 0.0427042 4.23045e-20)
(1.02945 0.0447287 5.57726e-20)
(1.01055 0.0342965 -5.47464e-20)
(1.01323 0.0416741 1.05528e-19)
(0.99525 0.0458932 -9.80901e-20)
(0.998205 0.383674 2.01773e-19)
(0.958335 0.381264 1.47635e-19)
(1.05199 0.370272 3.10943e-20)
(1.02687 0.378637 5.25735e-20)
(1.07773 0.342038 -4.94534e-20)
(1.06032 0.354482 -1.46849e-19)
(1.08997 0.30996 -9.49306e-20)
(1.07571 0.322506 -2.54967e-20)
(1.0968 0.279719 -7.1127e-20)
(1.08418 0.290952 -1.22138e-19)
(1.10129 0.252996 0)
(1.08987 0.262852 9.68607e-22)
(1.10435 0.229716 9.5679e-20)
(1.09407 0.238413 -3.88219e-20)
(1.10616 0.209293 6.93826e-20)
(1.09703 0.217065 3.19535e-20)
(1.10674 0.191127 2.14144e-20)
(1.09874 0.198142 3.13191e-20)
(1.10613 0.174746 9.90288e-20)
(1.09921 0.181138 5.25314e-20)
(1.1044 0.159793 4.80593e-20)
(1.09849 0.165661 4.75922e-20)
(1.1016 0.145995 4.1272e-20)
(1.09667 0.151418 -4.9375e-20)
(1.09779 0.133134 7.99889e-22)
(1.09378 0.138175 4.29779e-20)
(1.09298 0.121028 -7.89612e-20)
(1.08989 0.125738 -4.23598e-20)
(1.08721 0.10953 -7.29616e-20)
(1.08501 0.113949 4.38025e-20)
(1.08048 0.0985186 3.3563e-20)
(1.07916 0.102674 -3.56113e-20)
(1.07281 0.0879009 3.55055e-21)
(1.07236 0.0918137 6.99747e-20)
(1.06419 0.0776086 -1.00879e-19)
(1.06462 0.0813077 -1.38458e-19)
(1.05465 0.0675975 2.9129e-20)
(1.05596 0.0711011 3.55641e-20)
(1.04417 0.0578406 6.31853e-20)
(1.04647 0.061003 6.27826e-20)
(1.03273 0.0483149 0)
(1.03631 0.0507193 -3.13172e-20)
(1.02027 0.0390076 1.187e-19)
(1.0249 0.0412812 -3.34896e-20)
(1.0078 0.0304588 2.25192e-19)
(1.00963 0.0377296 3.67766e-19)
(0.993056 0.0405257 -2.04769e-19)
(0.985976 0.375527 0)
(0.948086 0.373272 2.30053e-20)
(1.03496 0.362926 -1.19689e-19)
(1.01128 0.371501 0)
(1.05827 0.33539 -1.24522e-19)
(1.04161 0.347707 -8.99063e-20)
(1.0699 0.304018 -5.14364e-20)
(1.05578 0.316178 -1.45709e-19)
(1.07719 0.274589 -5.19707e-20)
(1.06442 0.285272 -5.71455e-20)
(1.08261 0.248652 -3.72078e-20)
(1.07092 0.257913 -8.90575e-20)
(1.08673 0.226034 -1.03438e-19)
(1.07614 0.234148 3.71594e-20)
(1.0896 0.20612 -6.04084e-21)
(1.08015 0.213348 6.92534e-21)
(1.09121 0.188326 6.22482e-20)
(1.08289 0.194841 6.04061e-20)
(1.09158 0.172202 1.14629e-21)
(1.08435 0.178141 -5.58534e-20)
(1.09077 0.157415 -4.88904e-20)
(1.08458 0.162879 0)
(1.08887 0.143709 -4.85251e-20)
(1.08366 0.148777 -2.03338e-22)
(1.08591 0.130876 5.89611e-22)
(1.08166 0.135614 3.662e-21)
(1.08195 0.118744 7.96886e-20)
(1.07862 0.123205 -7.28508e-22)
(1.077 0.107171 8.17835e-20)
(1.07458 0.111393 8.11391e-20)
(1.07108 0.0960418 0)
(1.06956 0.100053 0)
(1.06423 0.0852701 -7.04305e-20)
(1.06359 0.0890903 0)
(1.05646 0.0747985 -3.51566e-21)
(1.05669 0.0784539 -7.09449e-20)
(1.04782 0.064595 6.91492e-20)
(1.04891 0.0680998 3.17529e-20)
(1.0383 0.0546442 -3.11164e-20)
(1.04038 0.0578569 3.5642e-20)
(1.02792 0.0449326 -6.00754e-20)
(1.03126 0.0474702 -1.98988e-19)
(1.01665 0.0354634 1.77996e-19)
(1.02094 0.0379436 6.57113e-20)
(1.00561 0.0268917 2.55219e-19)
(1.0067 0.0339016 1.17345e-19)
(0.991539 0.0354295 7.00869e-20)
(0.972674 0.36828 2.35568e-20)
(0.936124 0.366034 -1.36925e-19)
(1.01775 0.356371 3.16652e-20)
(0.995121 0.365374 0)
(1.03904 0.329059 -1.09998e-19)
(1.02286 0.341469 1.71091e-19)
(1.05024 0.298011 -1.53115e-19)
(1.03609 0.309939 1.51852e-19)
(1.05804 0.269128 -9.37889e-20)
(1.04502 0.279362 -7.31518e-21)
(1.06437 0.243801 -1.64121e-20)
(1.05234 0.252535 9.45809e-20)