/*--------------------------------*- C++ -*----------------------------------*\
  =========                 |
  \\      /  F ield         | OpenFOAM: The Open Source CFD Toolbox
   \\    /   O peration     | Website:  https://openfoam.org
    \\  /    A nd           | Version:  11
     \\/     M anipulation  |
\*---------------------------------------------------------------------------*/
FoamFile
{
    format      ascii;
    class       volScalarField;
    location    "0.72";
    object      epsilon;
}
// * * * * * * * * * * * * * * * * * * * * * * * * * * * * * * * * * * * * * //

dimensions      [0 2 -3 0 0 0 0];

internalField   nonuniform List<scalar> 
2880
(
2.64979
7.1746
10.1984
11.0576
10.7858
41.6073
0.946644
3.68749
5.56869
7.13235
8.53147
12.625
1.26021
2.98112
4.49634
5.99272
7.03784
7.30255
1.66881
2.73011
4.03979
5.33704
5.75641
5.24087
1.99747
2.62333
3.77963
4.82593
4.81261
3.9549
2.25077
2.57756
3.60452
4.40361
4.13964
3.04007
2.43667
2.55761
3.47803
4.07667
3.64047
2.45387
2.56376
2.54433
3.38299
3.83589
3.26832
2.07111
2.63971
2.52649
3.30789
3.66421
2.99057
1.81767
2.67088
2.49679
3.24378
3.54441
2.7967
1.64023
2.66324
2.45155
3.18426
3.46192
2.67346
1.51543
2.61549
2.3871
3.12697
3.40577
2.61195
1.43083
2.53232
2.30173
3.06913
3.38191
2.6036
1.38173
2.41786
2.19556
3.00753
3.37991
2.63445
1.36576
2.27911
2.06984
2.9381
3.40194
2.71587
1.38146
2.11772
1.92619
2.85356
3.44231
2.84587
1.42993
1.93442
1.76457
2.74475
3.49277
3.02656
1.51586
1.72806
1.58497
2.59865
3.54147
3.2576
1.64891
1.4927
1.3875
2.39904
3.56282
3.53252
1.84756
1.2126
1.17387
2.13057
3.55217
3.84486
2.1338
0.264159
0.946036
1.81903
3.40658
4.2026
2.54678
0.243376
0.822515
1.51943
3.02835
4.57687
3.12619
0.926518
0.91577
1.33189
2.43686
4.78112
3.97464
2.36468
1.84698
2.0121
2.29892
4.69682
5.86583
17.2099
4.93683
1.76805
0.776432
0.389242
0.211213
0.121868
0.0742965
0.0476314
0.0319755
0.0223951
0.0163127
0.0123227
0.00962859
0.00776421
0.00644903
0.00551171
0.00484837
0.00439916
0.00413347
0.00403939
0.00411819
0.0044142
0.00496487
7.29107
2.80649
1.2202
0.577881
0.293038
0.15979
0.0931215
0.0574637
0.0372786
0.0252953
0.0178837
0.0131314
0.00998519
0.00784224
0.00634577
0.00527847
0.00450533
0.00394233
0.003539
0.00326776
0.00311712
0.0030961
0.00324661
0.00364239
4.42413
1.9519
0.872519
0.416643
0.21668
0.121257
0.0720505
0.045111
0.0296098
0.0202899
0.0144626
0.0106896
0.00816953
0.00643858
0.00521925
0.00434035
0.00369358
0.00320938
0.00284326
0.00256763
0.00236682
0.00224154
0.00223816
0.00246187
3.03757
1.36584
0.631246
0.31343
0.166821
0.0946222
0.056867
0.035994
0.0238608
0.0164894
0.0118344
0.00879314
0.00674519
0.00532781
0.00432157
0.00358954
0.0030437
0.00262595
0.00229682
0.00202848
0.00180026
0.00160078
0.00144596
0.00143585
2.14022
0.996147
0.476197
0.240955
0.130093
0.074807
0.0455316
0.029138
0.0194928
0.0135692
0.00979328
0.00730648
0.00562029
0.00444608
0.00360749
0.00299343
0.00253181
0.00217437
0.0018876
0.00164662
0.00143089
0.00122441
0.0010225
0.000756638
1.61507
0.763701
0.370649
0.189983
0.10377
0.060322
0.03709
0.0239497
0.0161413
0.0113017
0.00819237
0.00613124
0.00472635
0.00374389
0.00303982
0.0025228
0.0021333
0.00183146
0.00158975
0.00138777
0.00120841
0.00103813
0.000870766
0.000659287
1.28039
0.607738
0.296811
0.153235
0.0843955
0.0494984
0.0306985
0.0199711
0.0135398
0.00952244
0.00692469
0.00519417
0.00401041
0.00318062
0.00258519
0.00214779
0.00181852
0.00156396
0.001361
0.0011924
0.00104334
0.000902693
0.000768109
0.000608433
1.06011
0.5001
0.244033
0.126411
0.0700188
0.0413448
0.0258154
0.0168907
0.0115012
0.00811325
0.00591192
0.00444056
0.00343207
0.00272459
0.00221701
0.00184454
0.00156464
0.00134879
0.00117728
0.0010354
0.00091055
0.000794063
0.000685854
0.000564604
0.908047
0.423317
0.205644
0.106604
0.0592375
0.0351393
0.0220484
0.0144837
0.00988931
0.00698775
0.00509629
0.00382977
0.00296123
0.00235229
0.00191608
0.00159671
0.00135741
0.00117351
0.00102805
0.000908368
0.000803818
0.000707673
0.000620837
0.00052797
0.800131
0.367847
0.177534
0.0918955
0.0510856
0.0303781
0.0191194
0.0125882
0.00860539
0.00608238
0.00443495
0.00333147
0.00257544
0.0020464
0.0016685
0.0013928
0.00118707
0.00102975
0.000906024
0.000804969
0.000717533
0.000638449
0.000568884
0.000497538
0.723511
0.327993
0.156947
0.0808617
0.0448852
0.0267047
0.0168288
0.0110867
0.00757662
0.00534991
0.00389577
0.00292285
0.00225778
0.00179391
0.00146394
0.00122437
0.00104662
0.000911548
0.000806124
0.000720787
0.000647795
0.000582929
0.000527243
0.00047237
0.67133
0.299527
0.141772
0.0725957
0.0401698
0.0238648
0.0150316
0.00989278
0.00674897
0.00475491
0.00345443
0.0025865
0.00199531
0.00158486
0.00129448
0.001085
0.000930681
0.000814374
0.000724432
0.000652404
0.000591587
0.000538498
0.000493905
0.000451662
0.637169
0.279661
0.130818
0.0664796
0.0366082
0.0216751
0.0136224
0.00894262
0.00608199
0.00427051
0.00309231
0.00230896
0.00177795
0.00141142
0.00115388
0.000969561
0.000834979
0.000734553
0.000657749
0.000596995
0.000546408
0.000503015
0.00046725
0.0004347
0.618438
0.266906
0.12328
0.0620834
0.0339657
0.0200039
0.0125238
0.00818882
0.00554518
0.00387619
0.00279499
0.00207971
0.00159773
0.00126739
0.00103717
0.000873937
0.000756022
0.000669071
0.000603428
0.000552212
0.000510192
0.00047474
0.000445987
0.000420884
0.613561
0.260334
0.118637
0.0591144
0.0320778
0.0187566
0.0116792
0.00759597
0.00511542
0.00355615
0.00255124
0.00189046
0.00144835
0.00114778
0.000940285
0.000794765
0.000690944
0.000615438
0.000559271
0.000516109
0.000481235
0.000452268
0.000429089
0.000409718
0.622123
0.259493
0.11655
0.0573811
0.0308305
0.0178661
0.011047
0.00713761
0.00477511
0.0032982
0.00235226
0.00173465
0.00132472
0.00104857
0.000859948
0.000729287
0.000637381
0.000571585
0.000523449
0.000487069
0.000458146
0.00043447
0.000415741
0.000400789
0.644549
0.264315
0.116776
0.0567614
0.0301478
0.017286
0.010597
0.006794
0.00451086
0.00309288
0.00219115
0.00160704
0.00122276
0.000966486
0.000793465
0.000675239
0.000593381
0.000535799
0.000494445
0.00046376
0.000439785
0.000420443
0.000405293
0.000393754
0.682214
0.275226
0.119594
0.0570881
0.0299771
0.0169863
0.0103073
0.00655051
0.00431255
0.00293291
0.00206247
0.00150347
0.0011392
0.00089887
0.000738637
0.000630755
0.000557331
0.000506665
0.000471008
0.000445086
0.00042523
0.000409463
0.000397226
0.00038832
0.737485
0.292755
0.124996
0.0585409
0.0302233
0.016946
0.0101621
0.00639645
0.00417259
0.00281272
0.00196203
0.00142067
0.00107141
0.000843572
0.00069366
0.000594297
0.000527902
0.000483018
0.000452114
0.00043015
0.000413719
0.000400938
0.000391118
0.000384242
0.813912
0.317878
0.133189
0.061098
0.0309489
0.0171092
0.0101503
0.00632376
0.00408535
0.00272816
0.00188662
0.00135611
0.00101732
0.000798866
0.000657062
0.000564593
0.000503986
0.000463895
0.000436922
0.000418218
0.000404609
0.000394325
0.00038658
0.000381279
0.916359
0.351814
0.144356
0.0647424
0.0321801
0.0174934
0.0102415
0.00632589
0.00404666
0.00267618
0.0018339
0.0013079
0.000975392
0.000763421
0.000627678
0.00054061
0.000484665
0.000448489
0.00042474
0.000408695
0.000397367
0.000389121
0.0003832
0.000379128
1.05125
0.39587
0.158566
0.0694208
0.0338428
0.0181123
0.010439
0.00638733
0.00405229
0.00265466
0.0018023
0.00127477
0.000944533
0.0007363
0.000604669
0.000521583
0.000469245
0.000436188
0.000415052
0.000401187
0.000391722
0.000385089
0.000380568
0.000377526
1.2287
0.450549
0.175397
0.0749513
0.0358782
0.0189384
0.0107698
0.00651293
0.00409528
0.00266111
0.00179089
0.00125597
0.000924104
0.000716932
0.000587513
0.000507029
0.000457278
0.000426576
0.00040748
0.00039536
0.000387416
0.000382092
0.000378625
0.000376443
1.44829
0.505737
0.191499
0.0806415
0.0381571
0.0199419
0.0112227
0.00671879
0.00418056
0.00269249
0.00179812
0.0012512
0.00091381
0.000705023
0.000575908
0.000496644
0.000448464
0.000419364
0.000401743
0.000390937
0.000384175
0.000379898
0.000377286
0.000375774
2.66875
6.1578
8.79874
8.5393
7.36494
6.19637
0.964509
4.1049
5.10973
4.87307
4.36816
3.87868
1.36424
3.42134
3.85322
3.58179
3.15195
2.58274
1.89835
3.08732
3.27143
2.96903
2.551
2.01745
2.38854
2.87614
2.92969
2.62228
2.22315
1.74624
2.83584
2.73076
2.70633
2.41309
2.04082
1.61168
3.22209
2.6289
2.55407
2.28706
1.94579
1.55253
3.5412
2.55723
2.45105
2.21676
1.90852
1.54279
3.79213
2.50779
2.38463
2.1867
1.91248
1.56794
3.97586
2.47531
2.3468
2.18755
1.9484
1.62766
4.09414
2.45679
2.33212
2.21115
2.01463
1.71818
4.14972
2.45105
2.33598
2.25804
2.10733
1.84005
4.15326
2.45969
2.35483
2.32302
2.22517
1.99517
4.12564
2.48495
2.38823
2.40295
2.36704
2.18629
4.05712
2.51911
2.43144
2.49393
2.53099
2.41635
3.93892
2.55267
2.47954
2.591
2.71544
2.68605
3.76232
2.57375
2.52592
2.68852
2.91604
2.99984
3.51791
2.56979
2.56231
2.78153
3.12675
3.36599
3.19508
2.53703
2.58091
2.86867
3.34159
3.7962
2.78469
2.45693
2.58499
2.95616
3.55794
4.32112
2.28308
2.3272
2.60379
3.07064
3.79132
5.053
1.70089
2.20373
2.72765
3.29791
4.14203
6.42238
1.18521
2.35209
3.28326
3.98215
4.93563
10.2209
3.28624
4.61218
6.51312
7.25573
7.89891
34.4005
1.58876
0.543727
0.204341
0.086074
0.0405887
0.0210974
0.0117878
0.00700173
0.00431867
0.00275482
0.00182302
0.00125921
0.000913648
0.00070051
0.000569703
0.000490237
0.000442583
0.000414326
0.000397626
0.00038772
0.000381816
0.000378331
0.000376379
0.000375372
1.43372
0.545601
0.21288
0.0910257
0.0431283
0.0223903
0.0124584
0.00735749
0.00450848
0.00285414
0.00187261
0.00128179
0.000922545
0.000703007
0.000568899
0.000487773
0.000439524
0.000411326
0.000394983
0.000385561
0.000380194
0.000377259
0.000375808
0.00037515
1.25297
0.528796
0.218024
0.0956594
0.0458144
0.0238355
0.0132431
0.00779168
0.00475042
0.00298933
0.00194798
0.00132324
0.000944516
0.000713752
0.000573462
0.000489132
0.000439316
0.000410356
0.000393771
0.000384392
0.000379227
0.00037664
0.000375476
0.000375053
1.13652
0.512932
0.222409
0.100435
0.04874
0.0254727
0.0141648
0.00831641
0.00505203
0.00316407
0.00204986
0.00138284
0.000979367
0.00073393
0.000584848
0.000495216
0.000442258
0.00041158
0.00039411
0.00038433
0.000379065
0.000376483
0.000375374
0.000375022
1.06916
0.505243
0.228351
0.10587
0.0520669
0.0273682
0.0152556
0.00894907
0.00542382
0.00338513
0.00218272
0.00146349
0.00102869
0.000764174
0.00060328
0.000506263
0.000448717
0.000415252
0.00039614
0.000385411
0.000379595
0.000376722
0.000375474
0.000375054
1.03639
0.508088
0.237337
0.112475
0.0560028
0.0296112
0.0165572
0.00971278
0.00587965
0.00366128
0.00235232
0.00156901
0.0010951
0.000806309
0.000630076
0.000523216
0.000459331
0.000421832
0.000400201
0.00038791
0.000381057
0.000377518
0.000375875
0.000375199
1.03107
0.522905
0.250461
0.120832
0.0607957
0.0323143
0.0181234
0.0106374
0.00643735
0.00400376
0.002566
0.00170432
0.00118198
0.000862718
0.000666937
0.000547305
0.000474996
0.000431962
0.000406737
0.000392109
0.000383692
0.000378998
0.000376666
0.000375593
1.0503
0.550578
0.268898
0.131571
0.0667424
0.0356183
0.0200239
0.0117612
0.00711965
0.00442686
0.00283312
0.00187576
0.00129369
0.000936478
0.000716086
0.000580171
0.000496934
0.000446551
0.000416412
0.000398492
0.000387802
0.000381484
0.000378055
0.00037634
1.09394
0.592083
0.293978
0.145447
0.0742139
0.0397032
0.0223482
0.0131332
0.00795538
0.00494857
0.00316545
0.00209129
0.00143579
0.00103153
0.000780385
0.000623935
0.000526746
0.000466808
0.000430133
0.000407727
0.000393885
0.000385311
0.000380322
0.000377595
1.16301
0.649555
0.327495
0.163441
0.0836941
0.0448041
0.0252136
0.0148164
0.00898116
0.00559164
0.00357784
0.00236097
0.00161529
0.00115289
0.00086349
0.00068132
0.000566499
0.000494321
0.00044912
0.000420748
0.000402637
0.000390935
0.000383686
0.0003795
1.25977
0.726125
0.372053
0.186896
0.0958344
0.0512353
0.0287746
0.0168928
0.0102439
0.00638478
0.00408894
0.00269746
0.00184105
0.00130693
0.000970085
0.000755844
0.000618887
0.000531182
0.000474993
0.00043878
0.000414931
0.000398913
0.000388471
0.000382217
1.38792
0.826005
0.431348
0.217672
0.111531
0.0594251
0.0332397
0.0194703
0.0118041
0.00736455
0.00472224
0.00311666
0.00212428
0.00150177
0.0011062
0.000852082
0.00068745
0.000580164
0.000509916
0.000463452
0.000431912
0.00041
0.00039526
0.000386076
1.55263
0.955346
0.509705
0.258299
0.132032
0.0699666
0.0388933
0.0226932
0.0137408
0.00857772
0.00550746
0.00363858
0.00247906
0.00174768
0.00127953
0.000975925
0.000776768
0.000644862
0.000556702
0.000496927
0.000455201
0.000425386
0.000404826
0.000391473
1.76059
1.12189
0.613059
0.312307
0.15909
0.083689
0.0461314
0.026757
0.0161581
0.0100847
0.00648234
0.00428835
0.00292304
0.00205756
0.00149979
0.00113484
0.000892672
0.000729877
0.000618998
0.000542081
0.000487009
0.000446653
0.000418133
0.000398817
2.02003
1.33527
0.74917
0.384683
0.195178
0.101754
0.0555171
0.03193
0.0191955
0.0119642
0.00769505
0.00509757
0.00347819
0.00244742
0.00177905
0.00133815
0.0010425
0.000841056
0.000701491
0.000602657
0.000530239
0.000475881
0.000436457
0.00040863
2.34102
1.60733
0.927869
0.482276
0.243795
0.125804
0.0678324
0.0385824
0.0230412
0.0143201
0.00920761
0.00610613
0.00417187
0.00293704
0.00213221
0.00159744
0.00123544
0.000985775
0.000810158
0.000683474
0.000588671
0.000515827
0.00046153
0.000421612
2.73155
1.95265
1.16146
0.613674
0.309756
0.158173
0.0841539
0.0472296
0.0279534
0.0172912
0.0111007
0.00736474
0.00503823
0.00355079
0.00257753
0.0019269
0.0014828
0.00117324
0.000952539
0.000790683
0.000667194
0.000570128
0.000495691
0.000438699
3.19689
2.38912
1.46394
0.789471
0.399523
0.202103
0.106008
0.0585997
0.0342894
0.021065
0.0134809
0.00893865
0.0061202
0.00431882
0.00313734
0.00234381
0.00179845
0.00141479
0.00113803
0.000932054
0.000772082
0.000643544
0.000542064
0.000461138
3.74891
2.93348
1.84959
1.02158
0.521409
0.262003
0.135508
0.0737369
0.0425496
0.0258986
0.0164906
0.010913
0.00747257
0.00527878
0.00383909
0.00286922
0.00219916
0.00172425
0.0013782
0.0011173
0.000911328
0.000742265
0.000604792
0.000490564
4.42013
3.59889
2.33007
1.32168
0.685082
0.343646
0.17557
0.0940438
0.0534255
0.0321459
0.0203228
0.013401
0.00916641
0.0064784
0.00471688
0.00352884
0.00270527
0.00211828
0.0016871
0.00135839
0.00109501
0.00087431
0.00068936
0.000529075
5.28945
4.39945
2.91184
1.69843
0.89987
0.454047
0.230046
0.121429
0.0678737
0.0402964
0.0252418
0.0165548
0.0112957
0.00797955
0.00581396
0.00435465
0.00334164
0.00261709
0.00208173
0.00166995
0.00133573
0.00105004
0.000803088
0.000579325
6.57228
5.38081
3.59647
2.15373
1.1724
0.600436
0.303739
0.158432
0.0872055
0.0510265
0.0316116
0.0205825
0.013987
0.00986426
0.00718672
0.00538759
0.00413952
0.00324565
0.00258286
0.00206988
0.00164918
0.00128286
0.000955823
0.000644553
9.2585
6.60253
4.38858
2.68318
1.50422
0.788273
0.401891
0.208309
0.113163
0.0652585
0.0399329
0.0257696
0.0174132
0.0122437
0.00891086
0.006682
0.00513982
0.00403614
0.00321684
0.00258055
0.00205502
0.0015903
0.00116182
0.000729469
16.8714
8.92006
5.41244
3.29402
1.89318
1.02019
0.529057
0.27477
0.147976
0.0842275
0.0508895
0.032509
0.0218124
0.0152708
0.0110906
0.00831285
0.00639917
0.00503315
0.00402007
0.00323266
0.00258018
0.00199691
0.0014419
0.000841089
3.72188
3.9401
4.30943
3.58823
2.71852
2.4422
1.25346
2.12876
2.33911
2.17046
1.81003
2.19745
1.76739
2.07855
2.14215
1.99941
1.72597
2.02676
2.30193
2.24404
2.18857
2.01046
1.77804
1.99083
2.75752
2.40228
2.27738
2.09124
1.88928
2.02323
3.14623
2.51582
2.36329
2.19901
2.03756
2.11974
3.47961
2.59006
2.44278
2.32085
2.21274
2.27323
3.76498
2.63806
2.51904
2.45219
2.4063
2.47385
4.00696
2.67199
2.59506
2.58952
2.60975
2.71242
4.20961
2.70145
2.67209
2.72812
2.81697
2.97691
4.37795
2.73375
2.7491
2.86458
3.02091
3.24924
4.50645
2.77147
2.82532
2.99293
3.20993
3.50695
4.56195
2.80843
2.89892
3.10841
3.37283
3.7273
4.54674
2.84198
2.96859
3.20759
3.50061
3.89191
4.45175
2.87102
3.03434
3.28901
3.58805
3.98253
4.27536
2.89558
3.09768
3.35404
3.63623
4.00051
4.01602
2.91696
3.1612
3.4082
3.65205
3.95586
3.67295
2.93814
3.22951
3.46172
3.65024
3.85755
3.24783
2.96495
3.31108
3.5296
3.65496
3.73595
2.74751
3.00923
3.42169
3.63529
3.70723
3.65612
2.18909
3.08689
3.5864
3.8188
3.87848
3.67924
1.58422
3.236
3.8871
4.18035
4.29309
4.06652
1.09851
3.68245
4.64016
4.99937
5.20972
5.26223
2.84386
5.88173
7.70753
7.78305
6.98912
6.21053
13.2295
9.87625
6.26747
3.90516
2.31753
1.29222
0.687851
0.361427
0.194296
0.109535
0.0654032
0.0413389
0.0275129
0.0191577
0.0138715
0.0103863
0.00799972
0.00630358
0.0050493
0.00407578
0.00326915
0.00254407
0.00183297
0.000994655
9.17834
9.25013
6.97667
4.47142
2.74972
1.594
0.877707
0.471139
0.254994
0.143161
0.0846863
0.0529871
0.0349637
0.0241955
0.0174548
0.0130519
0.0100611
0.00795071
0.0064001
0.00520359
0.00421754
0.00333113
0.00243663
0.00129883
6.09747
8.12799
6.96848
4.84736
3.14175
1.90823
1.0944
0.605378
0.33287
0.18742
0.110281
0.0684165
0.0447664
0.0307737
0.0221066
0.0165044
0.0127385
0.0101118
0.00821015
0.00677404
0.00562847
0.00464901
0.00379345
0.00327704
4.18531
7.12852
6.7242
5.136
3.48218
2.21837
1.33061
0.763679
0.43022
0.244819
0.144066
0.0888639
0.0577058
0.0393932
0.0281552
0.020967
0.0161931
0.0129167
0.0106077
0.00895164
0.00775832
0.00692235
0.00645501
0.00652493
3.28582
6.28922
6.24661
5.23745
3.74694
2.50657
1.57603
0.942922
0.548142
0.317726
0.188176
0.115858
0.0747849
0.0506927
0.0360049
0.0266962
0.0205873
0.0164679
0.0136517
0.0117453
0.0105225
0.0098635
0.0097428
0.0101085
3.00394
5.55827
5.75574
5.17126
3.91478
2.7537
1.81812
1.13748
0.686083
0.407959
0.244834
0.151206
0.0972666
0.0655015
0.0461884
0.0340341
0.0261448
0.0209151
0.0174403
0.0152026
0.0138972
0.0133432
0.013429
0.0139476
2.95226
5.01398
5.3574
5.02114
4.03941
2.96039
2.04608
1.33948
0.84131
0.51623
0.316044
0.196906
0.126697
0.0848949
0.0594213
0.0434508
0.0331742
0.0264582
0.0220923
0.0193734
0.0178734
0.0173176
0.0174957
0.0181083
3.01996
4.67186
5.06344
4.79943
4.04639
3.10837
2.24769
1.53953
1.00878
0.641563
0.403116
0.254934
0.164868
0.110233
0.0766587
0.0555936
0.0421058
0.0333738
0.0277709
0.0243345
0.0224663
0.0217749
0.021954
0.0226074
3.18255
4.5295
4.89503
4.6304
4.00573
3.19954
2.41367
1.72756
1.18154
0.781015
0.506163
0.326883
0.213671
0.143152
0.0991384
0.0713408
0.0535386
0.0420555
0.0347197
0.0302227
0.0277409
0.0267392
0.0268224
0.0274544
3.41871
4.55161
4.87632
4.57124
3.96006
3.24815
2.54095
1.89456
1.35121
0.92955
0.623601
0.41347
0.274811
0.185463
0.12839
0.0918499
0.0682963
0.0530628
0.0433019
0.0372608
0.0338263
0.0322791
0.0321229
0.0326736
3.70216
4.66177
4.95018
4.61416
3.94845
3.2763
2.6347
2.0357
1.50973
1.08083
0.752216
0.514212
0.349463
0.238965
0.166188
0.118594
0.0874924
0.0671879
0.0540549
0.0457965
0.0409353
0.0385148
0.037899
0.0383062
3.99818
4.84881
5.13616
4.77962
4.0058
3.31531
2.70824
2.15217
1.65247
1.22756
0.887049
0.627059
0.437834
0.305119
0.214403
0.153347
0.112587
0.0855373
0.0677691
0.0563666
0.0494149
0.045654
0.0442695
0.0444167
4.26576
5.05892
5.39819
5.0776
4.2027
3.41274
2.78876
2.25447
1.77959
1.36596
1.022
0.748193
0.538635
0.384524
0.274651
0.19803
0.145382
0.109604
0.0855864
0.0697918
0.0598218
0.0540571
0.0514576
0.0511174
4.46977
5.24953
5.66818
5.43183
4.57063
3.62815
2.91838
2.36484
1.89914
1.49636
1.15384
0.872706
0.648912
0.476412
0.347792
0.254387
0.18789
0.141282
0.109096
0.0873033
0.0730392
0.0643191
0.0598424
0.0586286
4.57038
5.36665
5.87785
5.76578
5.04188
3.99841
3.15306
2.52336
2.0322
1.62658
1.2844
0.998708
0.765263
0.578664
0.433479
0.32349
0.242002
0.182742
0.140376
0.110675
0.0904511
0.0774246
0.0700632
0.0673747
4.56981
5.37363
5.95869
6.00435
5.49598
4.48782
3.53397
2.78531
2.22017
1.77998
1.42359
1.12986
0.887666
0.689726
0.5307
0.40557
0.309109
0.236131
0.181881
0.142302
0.114151
0.0949993
0.0832554
0.0780976
4.45303
5.23422
5.86877
6.0861
5.78796
4.98231
4.02612
3.18198
2.51326
1.99921
1.59926
1.28095
1.02295
0.812011
0.639933
0.500954
0.390244
0.303362
0.236207
0.185132
0.147074
0.119657
0.101411
0.0921325
4.22447
4.92951
5.59311
5.94276
5.84719
5.32387
4.50459
3.66435
2.92479
2.32443
1.85294
1.48408
1.19219
0.957815
0.767754
0.613169
0.487797
0.386809
0.306207
0.242578
0.193037
0.155287
0.127966
0.111894
3.90913
4.48137
5.12286
5.55665
5.65875
5.39336
4.81331
4.09824
3.3821
2.74155
2.20578
1.77324
1.42852
1.15366
0.933113
0.754911
0.610214
0.4925
0.396838
0.319374
0.257031
0.207335
0.168553
0.141764
3.55069
3.9284
4.48954
4.96893
5.2095
5.16665
4.84665
4.33359
3.74222
3.14987
2.60732
2.13793
1.74555
1.42363
1.16173
0.949056
0.776068
0.634939
0.51948
0.424839
0.347254
0.283716
0.231961
0.189548
3.19597
3.33135
3.77297
4.23571
4.55416
4.67365
4.57969
4.28681
3.87062
3.40562
2.93366
2.48945
2.0912
1.74563
1.45214
1.20618
1.00157
0.831919
0.691347
0.574727
0.477942
0.397132
0.331285
0.268501
2.86827
2.7613
3.06044
3.45313
3.79045
3.99599
4.04802
3.95426
3.72521
3.40834
3.05692
2.69815
2.35078
2.02884
1.73956
1.48517
1.2648
1.07576
0.91459
0.777511
0.661519
0.562086
0.482062
0.397743
2.58867
2.27188
2.4328
2.73088
3.02578
3.25241
3.37601
3.39227
3.31365
3.14782
2.92722
2.67648
2.41641
2.16014
1.91671
1.69202
1.48892
1.30816
1.14816
1.00692
0.883777
0.775822
0.68814
0.593903
2.33162
1.88587
1.94249
2.1484
2.37229
2.5632
2.69257
2.75388
2.74808
2.68448
2.56835
2.42089
2.2548
2.08063
1.90662
1.73857
1.58082
1.43645
1.30819
1.19503
1.09454
1.00361
0.927133
0.85318
1.64762
2.16333
3.94278
5.33856
6.00663
6.15799
0.767476
1.37613
2.23634
2.77397
3.01111
2.86564
0.218594
1.13394
1.63881
1.93709
2.05752
1.97544
0.247012
1.00751
1.352
1.55126
1.63118
1.60141
0.267726
0.924354
1.17836
1.33312
1.40522
1.41351
1.19132
0.872707
1.06253
1.19438
1.27473
1.31197
1.25971
0.838923
0.981524
1.10123
1.19158
1.25744
1.34242
0.814644
0.922536
1.03614
1.13698
1.22742
1.40491
0.796803
0.878227
0.98835
1.09901
1.21119
1.44684
0.783314
0.84401
0.951301
1.07028
1.20155
1.46775
0.772855
0.816886
0.920771
1.04591
1.19341
1.46762
0.764865
0.794855
0.893939
1.02262
1.18329
1.44788
0.759822
0.77661
0.868828
0.99826
1.16911
1.4173
0.758804
0.761309
0.843995
0.971561
1.15026
1.37374
0.757967
0.747573
0.818872
0.94209
1.12775
1.31542
0.752931
0.733529
0.7935
0.910319
1.10489
1.23801
0.736643
0.717344
0.768245
0.87777
1.08897
0.280549
0.688877
0.697652
0.744549
0.847528
1.08865
0.27554
0.616828
0.677389
0.724897
0.823968
1.1126
0.266078
0.571166
0.66692
0.714525
0.812516
1.17272
0.2509
0.561312
0.677574
0.724948
0.822041
1.27196
0.229852
0.608848
0.736601
0.785345
0.871359
1.40002
0.865207
0.870551
0.961791
1.01605
1.04681
1.6142
2.12302
2.21001
2.21628
2.21985
1.89002
1.87898
1.95878
1.59891
1.60433
1.73976
1.89304
2.02538
2.1195
2.17156
2.18462
2.16102
2.10381
2.02379
1.92877
1.82536
1.71916
1.61455
1.51473
1.42182
1.33735
1.2641
1.2044
1.15788
1.1217
1.0971
1.65868
1.41598
1.41071
1.50755
1.61278
1.69302
1.74006
1.75872
1.75204
1.7249
1.68189
1.62825
1.56872
1.50724
1.44704
1.39062
1.33981
1.29583
1.25908
1.2293
1.20591
1.18809
1.17609
1.17306
1.47902
1.32065
1.3277
1.41392
1.50112
1.55606
1.57936
1.57639
1.54978
1.50723
1.45506
1.39866
1.34221
1.28879
1.24069
1.19956
1.16636
1.14157
1.12522
1.11671
1.11388
1.11422
1.11592
1.1199
1.3743
1.28552
1.31273
1.404
1.49182
1.54239
1.56034
1.54996
1.51538
1.46548
1.40746
1.34689
1.28788
1.23322
1.1847
1.14344
1.10988
1.08383
1.06454
1.05068
1.04053
1.03228
1.02536
1.02085
1.32174
1.28813
1.35509
1.47369
1.58332
1.64911
1.67448
1.66676
1.63044
1.57606
1.51198
1.44447
1.37789
1.31511
1.25787
1.20706
1.16302
1.1256
1.09436
1.0686
1.04751
1.03042
1.01693
1.00719
1.30356
1.32715
1.44691
1.61238
1.76369
1.86452
1.91105
1.91783
1.88941
1.83757
1.7725
1.70135
1.62879
1.55782
1.49031
1.42729
1.36921
1.31615
1.26798
1.22461
1.18622
1.15366
1.12807
1.10874
1.30635
1.39414
1.57808
1.80802
2.01696
2.16433
2.24097
2.26476
2.24578
2.19697
2.13359
2.06136
1.9854
1.90924
1.83504
1.76393
1.69644
1.63272
1.5728
1.51679
1.46524
1.41974
1.38209
1.34996
1.32484
1.48019
1.74016
2.04995
2.32647
2.51937
2.62008
2.65338
2.63024
2.56971
2.48494
2.39176
2.29839
2.20797
2.12175
2.04005
1.96265
1.88901
1.81849
1.75054
1.68515
1.62326
1.56849
1.5108
1.35222
1.57835
1.92661
2.32875
2.67136
2.88797
2.98175
2.955
2.86473
2.74786
2.62754
2.51254
2.40361
2.30128
2.20546
2.11571
2.03122
1.95097
1.87392
1.79909
1.7262
1.65502
1.59239
1.51768
1.3828
1.68351
2.13471
2.63722
3.02071
3.20769
3.17702
3.06032
2.91467
2.75953
2.60571
2.45903
2.32335
2.19926
2.08577
1.98139
1.88439
1.79292
1.70545
1.62
1.53651
1.44944
1.37703
1.27025
1.41212
1.79356
2.369
2.96973
3.33234
3.35926
3.21656
2.98863
2.73609
2.49154
2.2698
2.07454
1.90427
1.75537
1.6234
1.50477
1.39609
1.2946
1.19839
1.10383
1.01145
0.911556
0.835814
0.712154
1.4375
1.91228
2.64875
3.31881
3.54306
3.38751
3.02666
2.61633
2.24161
1.92042
1.65365
1.43245
1.24927
1.09209
0.956014
0.837213
0.732188
0.638245
0.553709
0.477813
0.41372
0.355714
0.312117
0.257898
1.4589
2.05478
3.00873
3.6754
3.62402
3.218
2.59135
2.05597
1.62582
1.28939
1.02878
0.822651
0.662684
0.542132
0.449914
0.377142
0.318425
0.270302
0.230479
0.197176
0.16929
0.145487
0.126732
0.108565
1.48032
2.256
3.49412
3.96047
3.64135
2.83888
2.11175
1.56415
1.15924
0.862903
0.64636
0.495237
0.386208
0.305909
0.245901
0.200305
0.165036
0.137349
0.115361
0.097745
0.0836367
0.0724094
0.0638676
0.0584549
1.51181
2.57929
4.07664
4.14618
3.47063
2.46594
1.75335
1.24778
0.891857
0.643223
0.470054
0.348843
0.263088
0.201744
0.157341
0.124759
0.100497
0.0821835
0.0682223
0.0575559
0.049478
0.043557
0.0396871
0.0387388
1.57522
3.12262
4.58679
4.2477
3.145
2.16331
1.48187
1.0123
0.695964
0.485182
0.3455
0.251397
0.186793
0.141538
0.10918
0.0856288
0.0682576
0.0553364
0.0457189
0.0386421
0.0336156
0.0303139
0.0287682
0.0293654
1.70104
3.94994
4.93977
4.26861
2.87321
1.88717
1.22281
0.791139
0.518776
0.347367
0.238485
0.168315
0.122143
0.0910241
0.0695525
0.0544212
0.043571
0.0357278
0.0301036
0.0261924
0.0236674
0.0223452
0.0223441
0.0235266
1.93559
4.94906
5.19691
4.07658
2.56942
1.58478
0.96798
0.598529
0.379435
0.248107
0.167641
0.116791
0.0836883
0.0616155
0.0466241
0.0363054
0.0291559
0.0241998
0.0208095
0.018633
0.0174647
0.0172219
0.0177322
0.0193119
2.36962
5.8343
5.40213
3.71281
2.20348
1.27838
0.744079
0.445423
0.277029
0.179404
0.120696
0.08413
0.0606241
0.0450818
0.034553
0.0272846
0.0222136
0.0186946
0.0163397
0.0149115
0.0142687
0.0143305
0.0149884
0.0165444
3.23218
6.45294
5.48164
3.29627
1.82179
0.993096
0.556061
0.326051
0.200974
0.129606
0.0870181
0.0606428
0.0437988
0.0327535
0.0253391
0.020267
0.0167642
0.0143695
0.0128147
0.0119449
0.011677
0.0118944
0.0126605
0.0141023
4.75208
6.89627
5.31079
2.81556
1.42909
0.741318
0.406983
0.23789
0.146817
0.0949168
0.06398
0.0448416
0.0326133
0.0245766
0.0191702
0.0154742
0.0129373
0.0112295
0.0101583
0.00961372
0.00953931
0.00982779
0.0105938
0.0118358
7.18992
7.53411
4.80182
2.23546
1.06321
0.541038
0.297647
0.174983
0.108636
0.070703
0.0480387
0.0339833
0.0249755
0.0190321
0.0150137
0.0122504
0.0103438
0.00905808
0.00825798
0.00786859
0.00785211
0.00813095
0.00881082
0.00985637
10.0197
8.04742
3.72541
1.63895
0.765738
0.39254
0.218485
0.129759
0.0812968
0.0533984
0.036633
0.0261741
0.0194291
0.0149504
0.0119034
0.00979542
0.00833162
0.00733745
0.00671389
0.00640837
0.00639584
0.00663017
0.00719445
0.00806097
13.6792
7.74676
2.91435
1.18152
0.548898
0.286453
0.162094
0.0974996
0.0617679
0.041006
0.0284251
0.0205127
0.0153687
0.0119256
0.00956409
0.0079157
0.00675822
0.00595904
0.00544293
0.00517137
0.00512747
0.00529278
0.00572701
0.0064307
)
;

boundaryField
{
    rotor
    {
        type            epsilonWallFunction;
        value           nonuniform List<scalar> 
144
(
2.64979
7.1746
10.1984
11.0576
10.7858
41.6073
2.64979
0.946644
1.26021
1.66881
1.99747
2.25077
2.43667
2.56376
2.63971
2.67088
2.66324
2.61549
2.53232
2.41786
2.27911
2.11772
1.93442
1.72806
1.4927
1.2126
0.264159
0.243376
0.926518
2.36468
2.36468
1.84698
2.0121
2.29892
4.69682
5.86583
2.66875
6.1578
8.79874
8.5393
7.36494
6.19637
2.66875
0.964509
1.36424
1.89835
2.38854
2.83584
3.22209
3.5412
3.79213
3.97586
4.09414
4.14972
4.15326
4.12564
4.05712
3.93892
3.76232
3.51791
3.19508
2.78469
2.28308
1.70089
1.18521
3.28624
3.28624
4.61218
6.51312
7.25573
7.89891
34.4005
3.72188
3.9401
4.30943
3.58823
2.71852
2.4422
3.72188
1.25346
1.76739
2.30193
2.75752
3.14623
3.47961
3.76498
4.00696
4.20961
4.37795
4.50645
4.56195
4.54674
4.45175
4.27536
4.01602
3.67295
3.24783
2.74751
2.18909
1.58422
1.09851
2.84386
2.84386
5.88173
7.70753
7.78305
6.98912
6.21053
1.64762
2.16333
3.94278
5.33856
6.00663
6.15799
1.64762
0.767476
0.218594
0.247012
0.267726
1.19132
1.25971
1.34242
1.40491
1.44684
1.46775
1.46762
1.44788
1.4173
1.37374
1.31542
1.23801
0.280549
0.27554
0.266078
0.2509
0.229852
0.865207
2.12302
2.12302
2.21001
2.21628
2.21985
1.89002
1.87898
)
;
    }
    freestream
    {
        type            inletOutlet;
        inletValue      uniform 0.000375;
        value           nonuniform List<scalar> 
96
(
0.00496487
0.00364239
0.00246187
0.00143585
0.000375
0.000375
0.000375
0.000375
0.000375
0.000375
0.000375
0.000375
0.000375
0.000375
0.000375
0.000375
0.000375
0.000375
0.000375
0.000375
0.000375
0.000375
0.000375
0.000375
0.000375
0.000375
0.000375
0.000375
0.000375
0.000375
0.000375
0.000375
0.000375
0.000375
0.000375
0.000375
0.000375
0.000375
0.000375
0.000375
0.000375
0.000375
0.000375
0.000375
0.000375
0.000375
0.000375
0.000375
0.000375
0.000375
0.00327704
0.00652493
0.0101085
0.0139476
0.0181083
0.0226074
0.0274544
0.0326736
0.0383062
0.0444167
0.0511174
0.0586286
0.0673747
0.0780976
0.0921325
0.111894
0.141764
0.189548
0.268501
0.397743
0.593903
0.85318
1.0971
1.17306
1.1199
1.02085
1.00719
1.10874
1.34996
1.5108
1.51768
1.27025
0.712154
0.257898
0.108565
0.0584549
0.0387388
0.0293654
0.0235266
0.0193119
0.0165444
0.0141023
0.0118358
0.00985637
0.00806097
0.0064307
)
;
    }
    frontAndBack
    {
        type            empty;
    }
}


// ************************************************************************* //
