/*--------------------------------*- C++ -*----------------------------------*\
  =========                 |
  \\      /  F ield         | OpenFOAM: The Open Source CFD Toolbox
   \\    /   O peration     | Website:  https://openfoam.org
    \\  /    A nd           | Version:  11
     \\/     M anipulation  |
\*---------------------------------------------------------------------------*/
FoamFile
{
    format      ascii;
    class       volScalarField;
    location    "0.72";
    object      nut;
}
// * * * * * * * * * * * * * * * * * * * * * * * * * * * * * * * * * * * * * //

dimensions      [0 2 -1 0 0 0 0];

internalField   nonuniform List<scalar> 
2880
(
1.09333e-06
1.10877e-05
4.25854e-05
0.000102481
0.000195641
5.50528e-05
3.15e-05
8.78722e-05
0.000178661
0.00028802
0.000391395
0.000378563
4.8144e-05
0.00017298
0.00029902
0.000423222
0.000527574
0.000593536
5.28579e-05
0.000239003
0.000381727
0.000499489
0.000597155
0.00064125
5.61113e-05
0.000285586
0.000431817
0.000537187
0.000603889
0.000642218
5.83785e-05
0.000315831
0.000457648
0.000544928
0.000579764
0.000629122
5.99332e-05
0.000333512
0.000466751
0.000532521
0.000552857
0.000607026
6.09488e-05
0.000341965
0.000463804
0.000510433
0.000526515
0.000595244
6.15384e-05
0.000343695
0.000453207
0.000485228
0.000504127
0.000592231
6.17765e-05
0.000340491
0.000438169
0.000460373
0.000485639
0.000596052
6.17154e-05
0.000333503
0.000420793
0.000437246
0.000470222
0.000603573
6.13433e-05
0.000323505
0.000402194
0.00041611
0.000456374
0.000612788
6.06856e-05
0.000310909
0.000382907
0.000395998
0.000442553
0.000620828
5.97565e-05
0.000295889
0.000363177
0.000377398
0.000429764
0.000626793
5.85877e-05
0.000278479
0.000342904
0.000359124
0.00041578
0.000628307
5.71691e-05
0.00025886
0.000321817
0.000340941
0.000399375
0.000626748
5.5469e-05
0.000237587
0.000299162
0.000322921
0.000381293
0.000620682
5.34227e-05
0.000215112
0.00027405
0.000304551
0.000361508
0.000608369
5.08822e-05
0.000191873
0.000247218
0.000283265
0.000341131
0.000586541
4.74951e-05
0.000168465
0.00021971
0.000253571
0.000318682
0.000553087
0.000186956
0.000146899
0.000188445
0.000216121
0.000292117
0.00049837
0.000172256
0.000110483
0.00014603
0.000169526
0.00025211
0.000418328
3.08094e-05
5.14702e-05
8.30415e-05
0.000103257
0.000184095
0.000304014
9.74922e-07
2.8527e-06
8.40068e-06
2.15166e-05
8.59469e-05
0.0001865
0.000200011
0.00051545
0.000718674
0.0008893
0.00106719
0.00127977
0.00152385
0.00178915
0.00206805
0.00235568
0.00264812
0.0029412
0.00323021
0.00351032
0.00377734
0.00402846
0.00426262
0.00447971
0.00467862
0.0048549
0.00499815
0.00510715
0.00519759
0.00525827
0.000556042
0.000736603
0.000817614
0.000947604
0.00115147
0.00140402
0.00168201
0.00197407
0.00227462
0.00257955
0.00288457
0.00318473
0.00347434
0.00374754
0.00399899
0.00422475
0.00442288
0.00459317
0.00473613
0.00485132
0.00493681
0.0049904
0.00502918
0.00507249
0.000711295
0.000752925
0.000857565
0.00104327
0.00128172
0.0015547
0.00185108
0.00216159
0.00247873
0.00279653
0.00310952
0.00341184
0.00369706
0.00395849
0.00418993
0.00438648
0.00454512
0.00466482
0.00474614
0.00479079
0.00480202
0.00478657
0.00475842
0.00476081
0.000725714
0.000788773
0.000926109
0.0011297
0.00138943
0.00168937
0.00201162
0.00234306
0.00267543
0.00300286
0.00331982
0.00362018
0.00389705
0.00414329
0.00435221
0.00451833
0.00463781
0.00470853
0.00472974
0.00470201
0.00462867
0.00451995
0.00439629
0.00430449
0.000718059
0.000814598
0.000982463
0.00121755
0.00150668
0.00183143
0.00217373
0.0025205
0.00286338
0.00319628
0.00351345
0.00380843
0.00407405
0.004303
0.00448857
0.00462536
0.0047096
0.00473898
0.00471188
0.00462619
0.00447771
0.00425891
0.00395537
0.00352184
0.000710723
0.000845684
0.00104391
0.00130489
0.00161907
0.00196706
0.0023282
0.00268829
0.00303896
0.00337437
0.00368883
0.00397581
0.00422809
0.00443849
0.00460075
0.00471024
0.00476427
0.00476186
0.00470306
0.00458793
0.00441529
0.00418213
0.00388363
0.0035068
0.000719501
0.000883413
0.00110506
0.00139031
0.00172896
0.00209838
0.00247547
0.00284564
0.00320096
0.00353598
0.00384514
0.0041219
0.00435911
0.0045499
0.00468872
0.00477218
0.0047992
0.0047708
0.00468926
0.00455712
0.00437598
0.00414608
0.00386673
0.00352852
0.000736454
0.000922391
0.00116425
0.00147188
0.00183342
0.00222249
0.00261311
0.0029907
0.00334805
0.00368024
0.00398191
0.00424655
0.00446708
0.00463706
0.00475184
0.00480944
0.00481069
0.00475883
0.00465848
0.0045144
0.00433005
0.0041073
0.00384786
0.00354441
0.000758439
0.000961062
0.00121997
0.00154801
0.00193116
0.00233829
0.00274007
0.00312258
0.00347963
0.00380692
0.00409923
0.00435004
0.00455239
0.0047003
0.00479014
0.00482147
0.00479714
0.00472261
0.0046047
0.00445014
0.004264
0.00404974
0.00381124
0.00354383
0.000782318
0.000997142
0.00127036
0.00161683
0.00202119
0.00244485
0.00285558
0.00324081
0.00359562
0.00391626
0.00419765
0.00443321
0.00461608
0.00474081
0.00480491
0.0048097
0.00476022
0.00466427
0.00453088
0.00436855
0.00418366
0.00398075
0.00376493
0.00353339
0.000805513
0.00102833
0.00131409
0.00167926
0.00210314
0.0025416
0.00295925
0.00334538
0.00369635
0.00400897
0.00427822
0.00449742
0.0046598
0.00476055
0.00479848
0.00477692
0.00470333
0.00458794
0.0044419
0.0042752
0.00409501
0.00390626
0.00371428
0.00351726
0.000825304
0.00105494
0.00135289
0.0017351
0.00217641
0.00262815
0.00305105
0.00343662
0.00378254
0.00408613
0.00434236
0.00454443
0.00468569
0.00476205
0.00477387
0.00472672
0.00463069
0.00449853
0.00434323
0.00417582
0.00400363
0.00383127
0.00366338
0.00349847
0.00084262
0.00107802
0.00138652
0.00178384
0.00224053
0.00270434
0.00313121
0.00351515
0.00385516
0.00414906
0.00439176
0.00457631
0.00469621
0.00474823
0.00473449
0.0046631
0.00454693
0.00440116
0.00424031
0.00407581
0.00391447
0.00375986
0.00361531
0.00347919
0.000856949
0.00109762
0.00141491
0.00182526
0.0022953
0.00277029
0.00320023
0.00358182
0.0039154
0.00419926
0.00442828
0.0045953
0.00469401
0.00472219
0.00468394
0.00459013
0.00445657
0.00430067
0.00413797
0.00397959
0.00383116
0.00369471
0.00357189
0.00346078
0.000868376
0.00111423
0.0014382
0.00185934
0.00234077
0.00282626
0.00325879
0.00363765
0.00396455
0.00423835
0.00445385
0.00460369
0.00468179
0.00468703
0.00462573
0.00451174
0.00436379
0.00420124
0.00404004
0.00389032
0.00375597
0.00363721
0.00353396
0.00344402
0.000877316
0.00112866
0.00145719
0.00188618
0.00237731
0.00287268
0.00330774
0.00368376
0.00400398
0.00426793
0.00447038
0.00460376
0.00466219
0.00464576
0.00456319
0.00443148
0.00427219
0.00410622
0.00394929
0.00380992
0.00368996
0.00358775
0.00350165
0.00342932
0.000884325
0.00114203
0.00147395
0.00190657
0.00240545
0.00290999
0.00334804
0.00372135
0.00403506
0.00428959
0.00447972
0.00459764
0.00463767
0.00460115
0.00449934
0.00435242
0.00418467
0.00401804
0.00386741
0.00373927
0.00363327
0.00354606
0.00347472
0.00341682
0.000890107
0.00115509
0.00148594
0.0019256
0.00242473
0.00293847
0.00338081
0.00375166
0.00405912
0.0043048
0.00448356
0.0045873
0.00461048
0.0045557
0.00443677
0.00427711
0.00410344
0.0039383
0.00379523
0.00367841
0.00358543
0.00351149
0.00345268
0.00340652
0.000895462
0.00116966
0.00149618
0.00193787
0.00244596
0.00295647
0.00340732
0.00377596
0.00407745
0.00431493
0.00448341
0.00457447
0.0045826
0.00451155
0.00437768
0.00420752
0.00403001
0.00386785
0.00373287
0.0036269
0.00354565
0.00348322
0.00343497
0.00339831
0.000901053
0.00118694
0.00150599
0.00194632
0.00246175
0.00297854
0.00342617
0.00379567
0.0040913
0.00432121
0.00448059
0.00456063
0.00455568
0.0044705
0.00432381
0.00414512
0.00396533
0.00380697
0.00367999
0.00358396
0.00351297
0.00346034
0.00342097
0.00339198
0.000907113
0.00120804
0.00151748
0.00195448
0.00247143
0.00299694
0.00344967
0.00381018
0.00410185
0.00432473
0.00447624
0.00454702
0.00453114
0.00443404
0.00427655
0.00409094
0.00390986
0.00375551
0.00363596
0.00354868
0.00348643
0.00344194
0.00340996
0.00338716
0.000912931
0.00123415
0.00153292
0.00196597
0.00248242
0.00301054
0.00347597
0.00382647
0.00410966
0.00432645
0.00447128
0.00453467
0.00451011
0.00440337
0.00423701
0.00404574
0.00386381
0.00371311
0.00360002
0.00352017
0.00346521
0.0034274
0.00340135
0.00338344
0.000915155
0.0012673
0.00155563
0.00198508
0.00249847
0.00302412
0.00349351
0.00384646
0.00411746
0.00432757
0.00446649
0.0045244
0.00449353
0.00437953
0.00420614
0.00401017
0.00382736
0.0036795
0.00357155
0.00349768
0.0034486
0.00341616
0.00339476
0.00338074
0.000919484
0.00132733
0.00160579
0.00202393
0.00252503
0.00304084
0.00350648
0.0038575
0.00412772
0.00432951
0.00446351
0.00451684
0.00448213
0.00436333
0.00418478
0.00398486
0.00380078
0.00365452
0.00355013
0.00348061
0.00343596
0.00340765
0.00338988
0.00337889
1.10016e-06
9.49487e-06
3.66828e-05
7.90901e-05
0.000132933
0.000199558
3.20602e-05
5.3662e-05
0.000119063
0.000207972
0.0003127
0.000422416
4.94107e-05
0.000124316
0.000229096
0.000362118
0.000514727
0.000700076
5.51727e-05
0.000195375
0.000336485
0.000509461
0.000696854
0.000933966
5.95786e-05
0.000261177
0.000436957
0.000642083
0.000853001
0.00111305
6.30946e-05
0.00031918
0.000528529
0.000757607
0.000983338
0.00124641
6.58425e-05
0.00036873
0.00060955
0.000856229
0.00109132
0.00134552
6.79508e-05
0.000409763
0.000679128
0.000939602
0.00117905
0.00142037
6.9521e-05
0.000442362
0.000736888
0.00100893
0.00125003
0.00148046
7.06276e-05
0.000466638
0.000782723
0.00106511
0.00130762
0.00152574
7.13226e-05
0.000482509
0.000816678
0.00110978
0.00135207
0.00156123
7.16446e-05
0.000489541
0.000839038
0.00114075
0.0013859
0.00158864
7.16664e-05
0.000486889
0.000849909
0.001159
0.00140976
0.00160871
7.15105e-05
0.000473233
0.000847954
0.00116504
0.00142253
0.0016218
7.11175e-05
0.000450549
0.000833208
0.00115873
0.00142348
0.00162678
7.04268e-05
0.000420689
0.000805498
0.00113885
0.00141071
0.00162282
6.93668e-05
0.000385452
0.000764942
0.00110341
0.00138171
0.00160586
6.78416e-05
0.000346286
0.00071201
0.00105107
0.00133243
0.00156792
6.57121e-05
0.00030322
0.000647063
0.000975199
0.00125629
0.00150038
6.27827e-05
0.000258258
0.000568514
0.000871793
0.00114959
0.0013899
5.87753e-05
0.000211426
0.000471401
0.000732954
0.00099187
0.00120858
5.32951e-05
0.000157799
0.000347138
0.000548838
0.000762085
0.0009183
3.95082e-05
8.50121e-05
0.000188318
0.000312745
0.000453162
0.000484048
1.36054e-06
7.13087e-06
2.72116e-05
6.72838e-05
0.000142379
5.1559e-05
0.000981441
0.00141526
0.00168331
0.0020796
0.00256091
0.00306121
0.00351733
0.00386211
0.00413047
0.00433134
0.00446223
0.00451358
0.00447638
0.00435531
0.00417355
0.00397035
0.0037843
0.00363812
0.00353548
0.0034686
0.00342689
0.00340149
0.00338637
0.00337766
0.00116447
0.00152258
0.00177229
0.00214478
0.00260222
0.00308429
0.00352797
0.0038648
0.00412767
0.00432743
0.00445986
0.00451322
0.00447744
0.00435615
0.00417284
0.00396713
0.00377825
0.00363036
0.00352747
0.00346143
0.00342117
0.00339742
0.00338394
0.00337685
0.00133726
0.0016362
0.0018651
0.00221156
0.00264377
0.0031072
0.00353722
0.00386557
0.00412365
0.00432147
0.00445497
0.00451222
0.00448213
0.00436516
0.0041829
0.00397479
0.00378263
0.00363147
0.00352625
0.00345912
0.00341862
0.00339502
0.00338264
0.00337647
0.00145285
0.00173199
0.00195026
0.00227243
0.00268182
0.00312712
0.00354257
0.0038632
0.00411755
0.00431477
0.00445085
0.00451369
0.00449103
0.00438135
0.0042034
0.00399514
0.00379876
0.00364207
0.00353208
0.00346166
0.00341899
0.00339485
0.00338238
0.00337636
0.0015334
0.00180648
0.00201993
0.00232289
0.00271265
0.00314113
0.00354214
0.00385649
0.00410854
0.00430657
0.00444673
0.00451709
0.00450456
0.00440527
0.00423448
0.00402755
0.00382689
0.00366308
0.00354604
0.00347014
0.00342376
0.00339713
0.00338332
0.00337658
0.00159404
0.00186059
0.00207212
0.00236099
0.00273338
0.0031467
0.00353464
0.00384447
0.00409587
0.00429619
0.00444192
0.00452157
0.00452157
0.00443574
0.00427534
0.00407211
0.00386774
0.0036955
0.00356903
0.00348513
0.00343326
0.00340216
0.00338559
0.00337724
0.00164218
0.00189579
0.00210781
0.00238506
0.00274204
0.00314194
0.00351902
0.00382628
0.00407877
0.00428293
0.00443566
0.00452619
0.00454084
0.00447137
0.00432485
0.00412841
0.00392183
0.00374056
0.00360255
0.00350799
0.0034477
0.00341088
0.00338964
0.00337852
0.00168117
0.00191551
0.00212817
0.00239491
0.0027377
0.00312561
0.00349441
0.0038011
0.00405649
0.00426602
0.00442711
0.0045299
0.00456098
0.00451049
0.00438139
0.00419547
0.00398923
0.00379932
0.00364815
0.00354028
0.00346881
0.00342364
0.00339631
0.00338074
0.00171209
0.0019247
0.00213538
0.00239124
0.00272015
0.00309695
0.00345998
0.00376809
0.00402814
0.00424459
0.00441533
0.00453157
0.00458049
0.00455115
0.00444279
0.00427153
0.00406932
0.00387249
0.00370745
0.00358389
0.00349829
0.00344176
0.00340594
0.00338421
0.0017363
0.0019266
0.00213136
0.00237507
0.00268962
0.00305558
0.003415
0.00372633
0.00399276
0.00421765
0.00439927
0.00452994
0.00459774
0.00459121
0.00450646
0.0043541
0.00416049
0.00395994
0.00378169
0.00364075
0.00353803
0.00346686
0.00341946
0.00338923
0.0017553
0.00192404
0.00211709
0.00234745
0.00264672
0.00300145
0.00335878
0.00367485
0.00394925
0.00418404
0.00437775
0.00452371
0.00461111
0.00462846
0.00456958
0.00444004
0.00426014
0.00406049
0.00387135
0.00371253
0.0035901
0.0035007
0.00343808
0.00339623
0.00177029
0.00191963
0.00209333
0.00230971
0.0025924
0.00293483
0.00329072
0.00361264
0.00389641
0.0041425
0.00434944
0.00451149
0.00461897
0.00466081
0.00462931
0.00452587
0.00436478
0.00417167
0.00397576
0.0038002
0.00365632
0.00354518
0.00346331
0.00340589
0.00178196
0.00191411
0.00206443
0.00226422
0.0025282
0.00285641
0.00321038
0.00353868
0.00383295
0.00409164
0.00431293
0.00449183
0.00461973
0.00468628
0.00468295
0.00460794
0.00447017
0.00428961
0.00409253
0.00390339
0.00373792
0.00360217
0.0034967
0.00341886
0.00179034
0.00190831
0.00203365
0.00221342
0.00245606
0.00276738
0.00311746
0.00345203
0.00375758
0.00402996
0.00426669
0.00446318
0.0046118
0.00470299
0.00472796
0.0046827
0.00457164
0.00440922
0.00421738
0.00401968
0.00383457
0.00367274
0.00353953
0.00343566
0.00179459
0.00190273
0.00200375
0.00215915
0.00237811
0.00266963
0.00301169
0.00335197
0.00366909
0.00395598
0.00420907
0.00442388
0.00459351
0.00470914
0.00476208
0.00474688
0.0046646
0.00452472
0.00434437
0.00414436
0.0039437
0.00375638
0.00359241
0.00345664
0.00179241
0.00189727
0.00197663
0.00210317
0.00229655
0.00256536
0.00289428
0.00323849
0.0035666
0.00386828
0.00413842
0.0043722
0.00456312
0.00470296
0.00478325
0.00479768
0.00474491
0.0046304
0.00446661
0.00427063
0.00406007
0.00385021
0.00365445
0.00348161
0.00178094
0.00189129
0.00195221
0.00204887
0.00221413
0.00245689
0.00276819
0.00311233
0.0034496
0.00376566
0.00405312
0.00430633
0.0045188
0.00468265
0.00478957
0.00483278
0.00480918
0.00472122
0.00457733
0.00439064
0.00417615
0.00394852
0.0037225
0.00350939
0.00176175
0.00187678
0.00192853
0.0019982
0.0021334
0.00234716
0.00263635
0.0029747
0.00331808
0.00364723
0.00395174
0.00422456
0.00445873
0.00464641
0.00477933
0.00485026
0.00485488
0.00479332
0.00467075
0.00449673
0.00428322
0.00404311
0.00379055
0.0035371
0.00172896
0.00184627
0.00190272
0.00195184
0.00205617
0.00223908
0.0025024
0.002827
0.00317271
0.00351274
0.0038333
0.00412539
0.0043812
0.00459252
0.00475088
0.00484856
0.00488021
0.00484408
0.00474276
0.00458273
0.0043731
0.00412466
0.00385007
0.00355959
0.00166684
0.00179166
0.00187286
0.00190878
0.00198396
0.00213509
0.0023693
0.00267368
0.00301579
0.00336294
0.00369745
0.0040078
0.00428476
0.00451941
0.00470273
0.0048264
0.00488396
0.00487207
0.00479104
0.00464473
0.00443968
0.00418475
0.0038913
0.00356927
0.00155107
0.00170409
0.00183093
0.00186491
0.00191762
0.00203689
0.00223992
0.00251919
0.00285052
0.00319958
0.00354474
0.00387142
0.00416848
0.00442585
0.00463367
0.00478274
0.00486543
0.00487675
0.0048149
0.00468126
0.00447991
0.00421779
0.00390558
0.00355679
0.00134453
0.00156308
0.0017634
0.00181315
0.00185507
0.00194581
0.00211641
0.00236735
0.00268062
0.00302537
0.00337668
0.00371675
0.00403214
0.00431119
0.00454292
0.00471698
0.00482438
0.00485839
0.00481501
0.00469308
0.00449399
0.00422226
0.00388765
0.00351281
0.00094906
0.00135321
0.00165403
0.00174375
0.00179088
0.00186211
0.00200092
0.00222081
0.00251038
0.0028441
0.00319596
0.0035454
0.00387645
0.00417561
0.00443042
0.00462915
0.00476128
0.00481812
0.00479334
0.004683
0.00448529
0.00420122
0.0038377
0.0034302
0.000389805
0.000974682
0.00143026
0.00163953
0.00171526
0.00178157
0.00189497
0.00208268
0.00234414
0.00266026
0.00300633
0.00336007
0.00370323
0.00402027
0.00429707
0.00452031
0.00467772
0.00475851
0.00475377
0.00465642
0.00446085
0.00416295
0.00376288
0.0033069
1.52894e-06
6.10291e-06
1.81037e-05
3.35418e-05
4.9463e-05
7.85014e-05
4.15936e-05
7.39019e-05
0.000135802
0.00017305
0.000202257
0.000212095
5.37879e-05
0.000133912
0.000240146
0.000295246
0.000331992
0.000319525
5.87672e-05
0.000178999
0.000318862
0.000394288
0.000434362
0.000416939
6.24374e-05
0.000220065
0.000384319
0.00047483
0.0005185
0.000505891
6.52614e-05
0.000260105
0.000442234
0.000543035
0.000590241
0.000586304
6.75013e-05
0.000298928
0.000493453
0.000601326
0.000652866
0.000658951
6.93049e-05
0.000335437
0.000537708
0.000651018
0.000708206
0.000723953
7.07615e-05
0.000368226
0.000574565
0.000692683
0.000756967
0.000781928
7.19343e-05
0.00039575
0.000603722
0.000726817
0.00079907
0.000833889
7.28783e-05
0.000416385
0.00062517
0.000753208
0.000834071
0.000879087
7.35773e-05
0.000429285
0.000638693
0.000772077
0.000862249
0.000918104
7.38692e-05
0.000435644
0.000644209
0.00078316
0.000883331
0.000951177
7.378e-05
0.000435733
0.000641414
0.000785812
0.000896462
0.000977408
7.32542e-05
0.000429354
0.000629485
0.000778034
0.000899136
0.00099533
7.22652e-05
0.000416075
0.000608673
0.000760703
0.000890728
0.00100122
7.07649e-05
0.000395225
0.0005777
0.000731042
0.000869445
0.000995257
6.86812e-05
0.000366001
0.000535646
0.000687211
0.000830789
0.000972568
6.59141e-05
0.000327486
0.000481557
0.000627276
0.000770953
0.000927868
6.23317e-05
0.000278637
0.000414473
0.000549543
0.000685449
0.000849362
5.77786e-05
0.00021917
0.000334297
0.000453089
0.000570068
0.00073179
5.18703e-05
0.000149951
0.000240002
0.000336762
0.00042566
0.000548894
3.64818e-05
7.15178e-05
0.000131442
0.000203312
0.000264307
0.000318473
1.16883e-06
9.04622e-06
3.20409e-05
7.19791e-05
0.000126089
0.000201018
0.000267125
0.000770057
0.00121008
0.00152449
0.00163119
0.00170262
0.0017985
0.00195613
0.00218643
0.0024789
0.00281242
0.00316455
0.00351535
0.00384741
0.00414488
0.00439278
0.00457702
0.0046846
0.00470384
0.00462415
0.00443523
0.00412565
0.00368278
0.00315094
0.000205293
0.000643351
0.00101686
0.00137024
0.00153469
0.00162223
0.00171001
0.00184248
0.00204106
0.0023051
0.00261943
0.00296341
0.00331655
0.00366007
0.00397665
0.00424991
0.00446421
0.00460473
0.00465742
0.00460843
0.00444256
0.00414028
0.00367224
0.00302701
0.000197754
0.000550049
0.000897619
0.00123057
0.00145126
0.0015467
0.00162993
0.00174217
0.00191053
0.00214323
0.0024325
0.00276157
0.00311094
0.00346144
0.00379498
0.00409449
0.0043439
0.00452826
0.00463376
0.00464737
0.00455793
0.00436661
0.00412441
0.00396338
0.000274154
0.000479837
0.000799545
0.00108963
0.00135586
0.00147125
0.00155625
0.00165402
0.00179554
0.00199625
0.00225607
0.00256376
0.00290257
0.00325429
0.00360114
0.00392664
0.0042161
0.00445739
0.00464144
0.00476234
0.00481817
0.00481629
0.00478451
0.00476848
0.000394228
0.000440364
0.000731666
0.000972989
0.00124062
0.00139752
0.00148657
0.00157558
0.0016952
0.00186553
0.00209347
0.00237421
0.00269535
0.00304115
0.00339551
0.00374372
0.00407376
0.00437691
0.00464757
0.00488153
0.00507399
0.00522036
0.00531976
0.00538323
0.000515237
0.000441757
0.000682098
0.00088781
0.00114035
0.00133178
0.00142276
0.00150573
0.00160798
0.00175104
0.00194676
0.00219651
0.00249326
0.00282518
0.00317917
0.00354353
0.00390951
0.00427114
0.00462304
0.00495632
0.00525622
0.00550251
0.00567575
0.00578951
0.000619719
0.000479959
0.000649222
0.000821184
0.001027
0.00124397
0.00135534
0.00143995
0.001531
0.00165139
0.00181663
0.0020334
0.00230028
0.00261031
0.00295459
0.00332534
0.00371742
0.00412705
0.00454722
0.00496217
0.00534619
0.00565734
0.00589451
0.00603308
0.000706686
0.000539556
0.000638107
0.000776446
0.00094678
0.00115697
0.00129461
0.00137851
0.0014619
0.00156445
0.00170258
0.00188659
0.00212005
0.0024012
0.00272593
0.00309093
0.00349502
0.00393658
0.00440721
0.00488547
0.00533202
0.00570112
0.00598378
0.00614606
0.000777936
0.000619493
0.000661726
0.000746617
0.000884014
0.00107333
0.00122953
0.00131922
0.00139873
0.00148797
0.00160322
0.00175666
0.00195554
0.00220271
0.00249884
0.00284523
0.00324477
0.00369872
0.00419899
0.00472101
0.0052134
0.00563361
0.00595212
0.00613985
0.000838937
0.000714882
0.000695694
0.000736238
0.000838077
0.000995709
0.00115533
0.00125663
0.00133772
0.00141891
0.00151633
0.00164301
0.00180852
0.00201921
0.0022798
0.00259571
0.00297385
0.00341919
0.00392628
0.00447093
0.00499596
0.00545612
0.00580775
0.00601886
0.000894526
0.000811771
0.000760648
0.00075146
0.000815267
0.000940567
0.00108955
0.00119605
0.00127828
0.00135485
0.0014393
0.00154397
0.00167933
0.00185381
0.00207495
0.00235126
0.00269308
0.00310946
0.00359985
0.00414434
0.00468814
0.00517527
0.00555942
0.00578869
0.000946257
0.000899102
0.000843979
0.000794381
0.000818992
0.00090803
0.00102934
0.00113467
0.00121954
0.00129397
0.00136971
0.00145734
0.00156708
0.00170808
0.00188925
0.00212081
0.00241525
0.00278526
0.00323636
0.00375629
0.00430246
0.00480108
0.0052133
0.00545856
0.000994407
0.000977829
0.00092885
0.00087177
0.000840638
0.000896754
0.00099334
0.00108372
0.00116493
0.00123666
0.00130586
0.00138093
0.0014701
0.00158208
0.00172589
0.00191192
0.00215322
0.00246462
0.00285738
0.00332898
0.00385284
0.00434993
0.00477817
0.00504083
0.00103743
0.00104626
0.00101351
0.000962372
0.000897344
0.000904532
0.000969924
0.00104556
0.00111789
0.0011846
0.00124784
0.00131311
0.00138644
0.00147469
0.00158595
0.00172965
0.00191778
0.00216517
0.00248668
0.00288923
0.00336029
0.00384525
0.00426862
0.00454931
0.0010754
0.00110501
0.00109133
0.001051
0.000980877
0.000953224
0.000971685
0.0010249
0.0010835
0.00114138
0.00119734
0.00125377
0.00131445
0.00138404
0.00146868
0.00157603
0.00171589
0.00190112
0.00214696
0.00246646
0.00286065
0.00330467
0.00371178
0.00400134
0.00109743
0.0011491
0.00115747
0.00113193
0.00107475
0.0010319
0.00101861
0.00103606
0.00107179
0.00111422
0.00115899
0.00120537
0.00125448
0.00130881
0.00137233
0.00145035
0.00154997
0.00168088
0.00185581
0.00208924
0.00239174
0.00275764
0.00314437
0.00342234
0.00111333
0.00118238
0.00120649
0.00119969
0.0011656
0.00112186
0.0010935
0.00108412
0.00109259
0.00111319
0.00114117
0.00117382
0.00121005
0.00125026
0.00129623
0.00135102
0.001419
0.00150644
0.00162216
0.00177789
0.00198689
0.00225781
0.00257744
0.00284996
0.00111704
0.00120377
0.00124193
0.00125221
0.00123876
0.00120921
0.00117989
0.00115694
0.00114467
0.0011434
0.00115147
0.00116676
0.00118745
0.0012126
0.00124233
0.00127776
0.00132105
0.00137553
0.00144621
0.00154041
0.00166827
0.0018421
0.00206989
0.00231136
0.00110715
0.00121365
0.00126275
0.00128651
0.00128968
0.00127973
0.00126004
0.00123674
0.00121541
0.00119935
0.00119011
0.0011878
0.00119158
0.00120052
0.00121399
0.00123197
0.00125504
0.00128451
0.0013226
0.00137284
0.00144062
0.00153408
0.00166552
0.00184885
0.00108055
0.00121568
0.00127185
0.00130434
0.00132128
0.00132445
0.00132089
0.00130647
0.00128675
0.00126601
0.00124715
0.00123195
0.00122115
0.00121481
0.00121269
0.00121451
0.00122016
0.00122984
0.00124417
0.00126437
0.00129249
0.00133191
0.00138693
0.0014971
0.00103415
0.00121331
0.00127618
0.00131131
0.00133666
0.00135137
0.00135557
0.0013545
0.00134418
0.00132639
0.00130637
0.00128596
0.00126675
0.00124967
0.00123523
0.00122358
0.00121471
0.00120856
0.00120512
0.00120461
0.00120738
0.0012152
0.00122368
0.00127303
0.000973051
0.0012089
0.00128419
0.00131878
0.00134508
0.0013653
0.00137717
0.00138035
0.0013782
0.00136915
0.00135402
0.00133476
0.00131394
0.00129279
0.00127215
0.00125256
0.00123431
0.00121743
0.00120195
0.00118807
0.00117541
0.00116585
0.00115166
0.00116303
0.000903785
0.0012067
0.00130347
0.00133778
0.00136215
0.00138164
0.00139475
0.00140116
0.00140121
0.00139615
0.00138493
0.00137034
0.00135256
0.00133278
0.00131223
0.00129148
0.00127098
0.00124984
0.00122887
0.00120997
0.00119245
0.00117682
0.00115698
0.00115377
0.00084819
0.00121611
0.00133574
0.00137501
0.00140003
0.0014179
0.00142874
0.00143302
0.00143185
0.00142607
0.00141612
0.00140296
0.00138749
0.00137061
0.001353
0.00133578
0.00132033
0.00130713
0.0012914
0.00127259
0.00125518
0.00124368
0.00123303
0.00123438
6.82941e-07
3.36904e-06
1.66753e-05
5.00766e-05
0.000109171
0.000197299
2.55968e-05
3.50238e-05
7.93013e-05
0.000162689
0.000289449
0.000478227
0.000155187
9.21797e-05
0.000172564
0.000298568
0.000476484
0.000705808
0.000175526
0.000151619
0.000264418
0.000421582
0.000626543
0.000855017
0.000190738
0.000207392
0.000347829
0.000524176
0.000734575
0.000942254
4.72525e-05
0.000255343
0.000419775
0.000605876
0.000805413
0.000984549
4.81409e-05
0.000294869
0.000478718
0.00066704
0.000849177
0.000994801
4.93078e-05
0.000324969
0.000524627
0.000709286
0.000870636
0.000984441
5.00808e-05
0.000346328
0.00055806
0.000735357
0.000874988
0.000959738
5.05781e-05
0.000359619
0.000580013
0.000748018
0.000866638
0.000925548
5.08217e-05
0.000365492
0.000591433
0.000749791
0.000849168
0.000885625
5.082e-05
0.000364367
0.000593415
0.000742833
0.000825383
0.000842828
5.05918e-05
0.000356105
0.000586795
0.000728905
0.000797368
0.000799228
5.02327e-05
0.000340251
0.000572175
0.000709381
0.000766512
0.000756082
4.97118e-05
0.000319099
0.000550547
0.000684834
0.000733476
0.000713681
4.89971e-05
0.00029463
0.000523174
0.000655204
0.000698143
0.000670992
4.8076e-05
0.000269435
0.000491279
0.000620096
0.000659483
0.000624802
0.000199977
0.000251971
0.000456099
0.000578346
0.000615204
0.00057209
0.000195365
0.000243007
0.000416499
0.000528294
0.000562216
0.000512142
0.000188728
0.000225213
0.000366998
0.000466842
0.000497293
0.000441407
0.000178008
0.000191931
0.000302633
0.000388451
0.000416724
0.000363326
0.000163097
0.000138958
0.000217141
0.000285497
0.000314497
0.000283995
2.88503e-05
6.1995e-05
0.000106251
0.00015116
0.00017797
0.000195357
8.79526e-07
3.42405e-06
9.269e-06
2.05816e-05
3.40518e-05
5.98969e-05
0.000911224
0.00124407
0.00137285
0.0014242
0.00145847
0.0014818
0.00149375
0.00149635
0.00149219
0.00148335
0.00147096
0.00145632
0.00144054
0.0014249
0.00141031
0.00139751
0.00138696
0.00138074
0.00138343
0.00139075
0.00139644
0.00139931
0.00140465
0.00141662
0.00102336
0.00127244
0.00139206
0.00145629
0.00150807
0.00155037
0.00157699
0.00158929
0.00159196
0.00158522
0.00157225
0.00155607
0.00153884
0.00152233
0.00150814
0.00149759
0.0014917
0.0014912
0.00149603
0.00150832
0.00152896
0.00155366
0.00158027
0.00160278
0.00110098
0.00128242
0.00138673
0.00145831
0.00152379
0.00158583
0.00162928
0.0016575
0.00167701
0.00168583
0.00168654
0.00168155
0.00167307
0.00166324
0.00165398
0.00164702
0.00164364
0.0016446
0.00164989
0.00165898
0.00167059
0.0016875
0.00170556
0.00172036
0.00114068
0.00127162
0.00136447
0.00143854
0.00151083
0.00158403
0.00163907
0.00167944
0.00171206
0.00173379
0.00174659
0.00175249
0.00175352
0.00175163
0.00174872
0.00174656
0.00174678
0.00175063
0.00175899
0.00177224
0.00178996
0.0018117
0.00183355
0.00184947
0.00114805
0.00124529
0.00131406
0.00138134
0.00145527
0.00153447
0.00160337
0.00165795
0.00170682
0.0017472
0.00177931
0.00180434
0.00182353
0.00183805
0.00184902
0.00185752
0.0018645
0.00187076
0.00187685
0.00188312
0.00188972
0.00189669
0.00190394
0.00190985
0.00113104
0.00119639
0.00124148
0.00129914
0.00136965
0.00144741
0.00152356
0.00158834
0.00164682
0.00170009
0.00174654
0.00178666
0.00182113
0.0018504
0.00187503
0.00189543
0.00191197
0.00192494
0.00193463
0.0019414
0.00194585
0.0019488
0.00195115
0.0019538
0.00109678
0.00113003
0.00115441
0.00119999
0.00126411
0.00133801
0.00141495
0.00148547
0.00155085
0.00161126
0.0016637
0.00171134
0.00175476
0.00179253
0.00182507
0.0018526
0.00187503
0.00189225
0.00190416
0.00191087
0.0019129
0.00191118
0.00190734
0.00190393
0.00104863
0.0010529
0.00105721
0.00108823
0.00113999
0.0012018
0.00126811
0.00133058
0.00139242
0.0014526
0.00151147
0.0015663
0.00161694
0.00166018
0.00169654
0.00172707
0.00175188
0.00177104
0.00178475
0.00179334
0.00179761
0.00179937
0.00179934
0.00180534
0.000991518
0.000969288
0.000952644
0.000964366
0.00100033
0.00105314
0.00111465
0.00119059
0.00126981
0.00134549
0.00141257
0.00147082
0.00152302
0.00156723
0.00160355
0.00163393
0.00165847
0.0016772
0.0016901
0.00169733
0.00169913
0.00169686
0.00169001
0.00168614
0.000929373
0.000882721
0.000845185
0.000838428
0.000858644
0.000898609
0.000967528
0.00103893
0.00110507
0.00116424
0.00121927
0.00126949
0.00131263
0.00134942
0.00138008
0.00140478
0.00142359
0.00143657
0.00144371
0.00144517
0.00144071
0.00143272
0.00141683
0.00140551
0.000865392
0.000796219
0.000737891
0.000712285
0.000714108
0.000745797
0.000787003
0.00083488
0.000887859
0.000938967
0.000986611
0.00102913
0.00106578
0.00109636
0.001121
0.00113957
0.00115195
0.00115825
0.00115855
0.00115463
0.00114839
0.0011429
0.00112298
0.00110953
0.000802211
0.000712817
0.000635452
0.000595554
0.000582618
0.000587158
0.000612415
0.000651796
0.000696566
0.000742365
0.000785706
0.000825574
0.000860772
0.000894092
0.000923961
0.000947375
0.000964518
0.000976565
0.000985083
0.000990805
0.00098772
0.000982423
0.000980898
0.00101433
0.000741886
0.000636268
0.000546949
0.000496409
0.000477998
0.000465457
0.000493686
0.000535011
0.000582923
0.000633361
0.00068352
0.000736239
0.000787645
0.00082877
0.000859241
0.000884358
0.00090678
0.000929067
0.000953816
0.000984154
0.00102303
0.00107641
0.00114844
0.00126475
0.000685405
0.000568036
0.000470643
0.000423706
0.000398499
0.000406435
0.000450384
0.000507031
0.000569683