/*--------------------------------*- C++ -*----------------------------------*\
  =========                 |
  \\      /  F ield         | OpenFOAM: The Open Source CFD Toolbox
   \\    /   O peration     | Website:  https://openfoam.org
    \\  /    A nd           | Version:  11
     \\/     M anipulation  |
\*---------------------------------------------------------------------------*/
FoamFile
{
    format      ascii;
    class       volScalarField;
    location    "0.72";
    object      p;
}
// * * * * * * * * * * * * * * * * * * * * * * * * * * * * * * * * * * * * * //

dimensions      [0 2 -2 0 0 0 0];

internalField   nonuniform List<scalar> 
2880
(
0.831098
0.851924
0.883682
0.91934
0.893949
0.67657
0.832379
0.848845
0.869005
0.885631
0.81702
0.659742
0.833069
0.844494
0.854121
0.858617
0.788026
0.64924
0.832653
0.839935
0.842963
0.839847
0.774883
0.65468
0.831597
0.836137
0.835276
0.827941
0.771311
0.668188
0.830243
0.833144
0.830137
0.820983
0.771939
0.681878
0.828681
0.830746
0.826723
0.817251
0.773782
0.69406
0.826954
0.828703
0.824501
0.815313
0.775947
0.704691
0.825119
0.826861
0.823079
0.814361
0.778274
0.714153
0.823244
0.82513
0.822159
0.814052
0.780877
0.722785
0.821399
0.823471
0.821572
0.814248
0.783877
0.730752
0.819662
0.821882
0.821301
0.81482
0.787024
0.738329
0.818116
0.820383
0.821186
0.815838
0.79058
0.745522
0.816847
0.819018
0.821195
0.817268
0.794567
0.752319
0.815903
0.817858
0.821297
0.819043
0.798946
0.758723
0.81528
0.817002
0.821434
0.821093
0.803574
0.764752
0.815073
0.816512
0.821509
0.823286
0.808238
0.770368
0.81539
0.816468
0.821436
0.825291
0.812592
0.775129
0.815947
0.816829
0.821175
0.826437
0.816029
0.778123
0.815017
0.81723
0.820572
0.825869
0.817952
0.778654
0.812109
0.817086
0.819178
0.82298
0.818529
0.778451
0.81252
0.81653
0.816476
0.817811
0.81859
0.780182
0.817568
0.815786
0.81269
0.811517
0.815779
0.750841
0.820464
0.814789
0.808763
0.804015
0.789544
0.551298
-0.120833
-0.149103
-0.0966515
-0.0526078
-0.0162818
0.014114
0.0393965
0.0607172
0.0789839
0.0947804
0.108522
0.120537
0.131097
0.140419
0.148672
0.155988
0.162467
0.168186
0.173113
0.17698
0.180175
0.187293
0.204567
0.192145
0.124276
0.00654497
0.0229744
0.0425925
0.0603513
0.0775331
0.093392
0.107679
0.1205
0.131988
0.14227
0.151475
0.15973
0.16715
0.173835
0.179864
0.185303
0.190202
0.194502
0.1979
0.200676
0.207153
0.223765
0.214356
0.280212
0.146955
0.129106
0.127904
0.131154
0.137498
0.145193
0.153204
0.161083
0.168606
0.175656
0.182193
0.18822
0.193766
0.198864
0.203551
0.207863
0.211841
0.215455
0.218467
0.220938
0.226084
0.240647
0.242507
0.391158
0.260576
0.219719
0.203274
0.195557
0.193194
0.194043
0.196664
0.200215
0.204196
0.208305
0.212368
0.216291
0.220022
0.223533
0.226811
0.229851
0.232674
0.23529
0.237518
0.238837
0.23975
0.24732
0.283756
0.469711
0.349269
0.296346
0.269268
0.253381
0.244315
0.239658
0.237774
0.237608
0.238484
0.239971
0.241797
0.243785
0.245819
0.247813
0.249696
0.251419
0.252966
0.254294
0.255032
0.254525
0.255041
0.267711
0.29025
0.526579
0.4179
0.360253
0.326699
0.305059
0.29093
0.281914
0.276344
0.273058
0.271278
0.270488
0.270346
0.270619
0.271141
0.27178
0.272428
0.273005
0.273471
0.273707
0.273184
0.27153
0.272947
0.288752
0.298076
0.568621
0.471811
0.413711
0.376576
0.351026
0.333188
0.320826
0.312322
0.30648
0.302477
0.299752
0.297923
0.296721
0.295943
0.295427
0.295038
0.294681
0.294302
0.293738
0.292406
0.290204
0.292278
0.309463
0.312389
0.600641
0.514908
0.458561
0.419882
0.391863
0.371405
0.356541
0.345749
0.337857
0.332032
0.3277
0.324459
0.322019
0.320154
0.318682
0.31745
0.316351
0.315321
0.314171
0.312299
0.309757
0.312107
0.329735
0.329442
0.625908
0.549999
0.49646
0.457584
0.428153
0.405928
0.389255
0.37673
0.367229
0.359942
0.3543
0.3499
0.346443
0.343689
0.341443
0.339538
0.337858
0.336331
0.334754
0.332517
0.329764
0.332221
0.349816
0.347771
0.646486
0.579109
0.528812
0.490492
0.460464
0.437143
0.419214
0.405411
0.394674
0.386234
0.379545
0.374212
0.369934
0.366468
0.363605
0.36117
0.359039
0.357136
0.355248
0.352763
0.349893
0.352375
0.369611
0.366608
0.663722
0.603697
0.556691
0.519441
0.489351
0.465432
0.446674
0.431956
0.420291
0.410959
0.403447
0.397375
0.392449
0.388421
0.385076
0.382231
0.379759
0.377577
0.375466
0.372828
0.36992
0.372372
0.388988
0.385513
0.678666
0.62484
0.581003
0.545119
0.515323
0.49116
0.471893
0.456542
0.444193
0.434183
0.426032
0.419385
0.413954
0.409492
0.405778
0.402624
0.399897
0.397513
0.395251
0.392534
0.389654
0.392033
0.407807
0.404183
0.691709
0.643322
0.60247
0.568105
0.53883
0.514663
0.495116
0.479342
0.466499
0.455977
0.447338
0.440247
0.434428
0.429636
0.425646
0.422264
0.419353
0.416828
0.414472
0.411736
0.408936
0.411201
0.425949
0.422394
0.703181
0.659722
0.621671
0.588894
0.560269
0.53625
0.516574
0.500525
0.487325
0.476418
0.467404
0.459972
0.453858
0.448819
0.444626
0.441079
0.43804
0.435421
0.433013
0.430305
0.427625
0.429736
0.443306
0.439967
0.713293
0.674485
0.639084
0.60791
0.579994
0.5562
0.536479
0.520247
0.506783
0.495579
0.486271
0.478574
0.472235
0.467011
0.46267
0.459007
0.45588
0.453203
0.450776
0.44813
0.445595
0.447517
0.459791
0.456759
0.722179
0.68798
0.655132
0.625535
0.598319
0.574765
0.555024
0.538652
0.524976
0.513529
0.50398
0.496068
0.48955
0.484186
0.479736
0.475991
0.472807
0.470095
0.46767
0.465111
0.462737
0.464436
0.475331
0.472655
0.729926
0.700539
0.670199
0.642121
0.615524
0.592168
0.572383
0.555869
0.541996
0.530328
0.520564
0.512464
0.505796
0.500317
0.495783
0.491979
0.488755
0.486024
0.483614
0.481157
0.478951
0.480401
0.489866
0.487565
0.736654
0.712493
0.684658
0.657994
0.631877
0.608609
0.588708
0.572009
0.557921
0.546026
0.53605
0.527768
0.520959
0.515378
0.510772
0.506918
0.503664
0.50092
0.498532
0.496182
0.494145
0.49533
0.503356
0.501419
0.742613
0.724205
0.698895
0.673453
0.647622
0.624268
0.604133
0.587169
0.572815
0.560662
0.550452
0.541977
0.535021
0.529336
0.524659
0.520757
0.517473
0.514716
0.512349
0.510108
0.508242
0.509174
0.515797
0.514141
0.748472
0.736101
0.713282
0.688796
0.662961
0.639302
0.618763
0.601425
0.586725
0.574257
0.563775
0.555079
0.547957
0.542154
0.537396
0.53344
0.530119
0.527343
0.524992
0.522855
0.52117
0.521906
0.527179
0.525516
0.75553
0.748681
0.728203
0.704321
0.678084
0.65383
0.632677
0.614817
0.599675
0.586815
0.576006
0.56705
0.559731
0.553787
0.548931
0.544904
0.541533
0.538721
0.536363
0.534303
0.532772
0.53332
0.53726
0.535388
0.764003
0.763124
0.744352
0.720375
0.693165
0.667934
0.645909
0.627346
0.611649
0.598317
0.587117
0.577853
0.570301
0.564189
0.559211
0.555094
0.55165
0.548779
0.54639
0.544367
0.542904
0.543138
0.545858
0.544271
0.771082
0.783264
0.763033
0.737295
0.708278
0.681608
0.65842
0.638965
0.622587
0.608709
0.597059
0.587439
0.579617
0.573307
0.568185
0.563959
0.560429
0.557487
0.555055
0.553051
0.551608
0.551487
0.553194
0.552157
0.79056
0.814542
0.784814
0.754929
0.723231
0.694682
0.67008
0.649569
0.6324
0.617905
0.605761
0.595746
0.58762
0.581083
0.575796
0.571448
0.567822
0.564802
0.562323
0.560328
0.558899
0.558497
0.559392
0.558739
1.11012
1.0896
1.07372
1.07008
1.13029
1.27215
1.11334
1.09291
1.07571
1.06788
1.10295
1.15562
1.11584
1.09847
1.07972
1.06869
1.08658
1.0933
1.11602
1.10218
1.08228
1.06868
1.07307
1.05915
1.11453
1.10296
1.08253
1.06648
1.06078
1.03846
1.11208
1.10175
1.08102
1.06296
1.04989
1.02383
1.10892
1.0996
1.07849
1.05885
1.04031
1.01199
1.10525
1.0972
1.07543
1.05447
1.03176
1.00181
1.1014
1.09496
1.07224
1.04998
1.02391
0.99255
1.09778
1.0932
1.06921
1.04553
1.01649
0.983583
1.09486
1.09212
1.06658
1.04121
1.00924
0.974417
1.093
1.09191
1.06449
1.0371
1.00199
0.964675
1.09243
1.09272
1.06307
1.03327
0.994612
0.954011
1.09327
1.09453
1.06246
1.02979
0.98699
0.942113
1.09544
1.0974
1.06264
1.02679
0.979044
0.928674
1.09874
1.10116
1.06364
1.02433
0.97072
0.91307
1.10285
1.1055
1.06537
1.02248
0.96206
0.895158
1.10734
1.11
1.06766
1.02128
0.95314
0.874556
1.11171
1.11418
1.07024
1.02087
0.944154
0.851095
1.11547
1.1176
1.07296
1.02174
0.935644
0.824933
1.11826
1.12026
1.07642
1.02536
0.929068
0.797454
1.12039
1.12325
1.08239
1.03378
0.92755
0.773195
1.12298
1.12759
1.09152
1.04525
0.934227
0.759767
1.12586
1.13084
1.09739
1.04672
0.951434
0.759923
0.895856
0.848696
0.807066
0.772259
0.737454
0.706793
0.680653
0.658998
0.640969
0.625803
0.613129
0.602692
0.594238
0.587453
0.581984
0.5775
0.573769
0.570666
0.568132
0.56613
0.564703
0.56408
0.56436
0.564002
0.941779
0.879108
0.827076
0.78767
0.750121
0.717481
0.68985
0.667056
0.648149
0.632295
0.61907
0.608194
0.599393
0.592345
0.586681
0.582053
0.578212
0.575022
0.572427
0.570404
0.568962
0.568179
0.568044
0.567894
0.953961
0.89737
0.842432
0.800133
0.760596
0.726331
0.69739
0.673542
0.653793
0.637263
0.623492
0.612171
0.603014
0.595689
0.589821
0.585044
0.58109
0.577813
0.575154
0.573093
0.571621
0.570739
0.5704
0.570368
0.957742
0.906705
0.852822
0.809221
0.768506
0.733045
0.703036
0.678269
0.657755
0.640594
0.6263
0.614545
0.605032
0.597427
0.591345
0.586414
0.582348
0.578986
0.576261
0.574147
0.572631
0.57171
0.571384
0.571386
0.958328
0.910691
0.858922
0.81498
0.773714
0.737446
0.706615
0.681086
0.659903
0.642176
0.627402
0.615237
0.605379
0.597493
0.591197
0.58611
0.581934
0.57849
0.575698
0.573516
0.57194
0.571063
0.570966
0.57089
0.956835
0.911306
0.861505
0.817656
0.776226
0.739455
0.708018
0.681874
0.660126
0.641909
0.62671
0.614172
0.603989
0.595832
0.589324
0.584084
0.579801
0.576281
0.573424
0.571166
0.56952
0.568747
0.569098
0.568858
0.953902
0.909384
0.861128
0.817497
0.776106
0.739042
0.70717
0.680544
0.658333
0.639706
0.624143
0.611279
0.600803
0.592393
0.585682
0.580293
0.575909
0.572321
0.569403
0.567061
0.56534
0.564744
0.565754
0.56525
0.949532
0.905302
0.858134
0.814685
0.773415
0.736194
0.704017
0.677021
0.654445
0.63549
0.619632
0.606495
0.595767
0.58713
0.580231
0.574702
0.570225
0.566577
0.563606
0.56118
0.559385
0.559049
0.560934
0.560011
0.943639
0.899211
0.852697
0.809318
0.768177
0.730885
0.698501
0.671233
0.648385
0.629187
0.613108
0.599762
0.588829
0.580001
0.572937
0.567283
0.562722
0.559023
0.556006
0.553493
0.55161
0.551558
0.554531
0.55328
0.936106
0.891081
0.844825
0.801384
0.760352
0.723053
0.690548
0.6631
0.640076
0.620724
0.604505
0.59102
0.579944
0.57097
0.563773
0.558012
0.553378
0.549634
0.546572
0.543961
0.541945
0.54213
0.546358
0.545066
0.926752
0.880728
0.834358
0.790754
0.74982
0.712588
0.680056
0.652528
0.62943
0.610024
0.593758
0.580217
0.569068
0.560005
0.552715
0.546875
0.542183
0.538402
0.535297
0.532573
0.530377
0.530748
0.536331
0.535218
0.915298
0.867813
0.82099
0.777189
0.73638
0.699322
0.666886
0.6394
0.61635
0.597006
0.5808
0.567299
0.556162
0.547081
0.539755
0.533874
0.529152
0.525352
0.522215
0.519382
0.517011
0.517623
0.524618
0.523351
0.901329
0.851835
0.804291
0.76034
0.71975
0.683027
0.650862
0.623576
0.600723
0.581581
0.565563
0.552218
0.541193
0.532181
0.524889
0.519023
0.514311
0.510522
0.507378
0.504456
0.501933
0.502835
0.511313
0.509746
0.884238
0.832119
0.783672
0.739717
0.699546
0.663403
0.631755
0.604886
0.582422
0.563655
0.547979
0.534927
0.524134
0.515294
0.508122
0.50234
0.497693
0.493958
0.490842
0.487861
0.485208
0.486412
0.496396
0.494513
0.863169
0.807786
0.758344
0.714659
0.675265
0.640072
0.609288
0.583134
0.561305
0.543128
0.527983
0.515388
0.504969
0.496423
0.489472
0.483857
0.47934
0.475712
0.472668
0.469671
0.466921
0.468427
0.479901
0.477717
0.837157
0.777722
0.727269
0.68432
0.646288
0.612581
0.583138
0.558099
0.537226
0.519906
0.505519
0.493573
0.483695
0.475582
0.468972
0.463621
0.459313
0.455855
0.452937
0.449977
0.447176
0.448982
0.461891
0.459453
0.804547
0.740356
0.689096
0.647675
0.611882
0.580412
0.552947
0.529546
0.510035
0.4939
0.480541
0.469474
0.460328
0.452811
0.446677
0.441702
0.437692
0.434476
0.431748
0.428889
0.426094
0.428201
0.442452
0.439841
0.763346
0.693535
0.642148
0.603513
0.571202
0.542996
0.518336
0.49723
0.479591
0.465036
0.453026
0.443102
0.43491
0.428175
0.42267
0.418198
0.414588
0.411695
0.409226
0.406539
0.403821
0.406227
0.421689
0.419024
0.710711
0.634277
0.584492
0.550498
0.523337
0.499741
0.478926
0.460919
0.445771
0.433266
0.42298
0.414503
0.407516
0.401771
0.39707
0.393242
0.390147
0.387668
0.385533
0.383096
0.380531
0.38323
0.399728
0.397168
0.64276
0.558797
0.514018
0.487243
0.467389
0.450087
0.434385
0.420433
0.408501
0.398592
0.390452
0.383763
0.378259
0.373737
0.370033
0.367008
0.364558
0.362594
0.360876
0.358768
0.356435
0.359412
0.376721
0.374467
0.554996
0.462469
0.428485
0.412441
0.40257
0.393579
0.384478
0.375676
0.367774
0.361071
0.355543
0.351013
0.347299
0.344253
0.341757
0.339714
0.338053
0.336719
0.33551
0.333816
0.331793
0.33501
0.352846
0.351168
0.439966
0.340047
0.325906
0.325081
0.328369
0.329989
0.329131
0.326672
0.323675
0.320835
0.318417
0.316438
0.314835
0.313538
0.312483
0.311619
0.310911
0.31034
0.309745
0.308559
0.306918
0.310298
0.328298
0.327626
0.273607
0.186325
0.20434
0.2246
0.244715
0.259442
0.268522
0.273624
0.276412
0.278104
0.279302
0.280274
0.281113
0.281848
0.282483
0.283016
0.283452
0.283806
0.283958
0.283398
0.282229
0.285669
0.303351
0.304241
0.00491177
0.00702317
0.0663538
0.112677
0.152674
0.182679
0.203197
0.216947
0.226371
0.233207
0.238498
0.242805
0.246409
0.249461
0.252046
0.254218
0.256022
0.257503
0.258585
0.25882
0.258241
0.261564
0.278285
0.28181
-0.669969
-0.669594
-0.695829
-0.730862
-0.768915
-0.826266
-0.675341
-0.677598
-0.707633
-0.744483
-0.773402
-0.816741
-0.680481
-0.686387
-0.71966
-0.757208
-0.778014
-0.804202
-0.685581
-0.695079
-0.730712
-0.769206
-0.787293
-0.805009
-0.691517
-0.704065
-0.741033
-0.780359
-0.801511
-0.817701
-0.698164
-0.713481
-0.750891
-0.79067
-0.816472
-0.83525
-0.705016
-0.722937
-0.760076
-0.799824
-0.829565
-0.851607
-0.711592
-0.731949
-0.76826
-0.807477
-0.839945
-0.864621
-0.717511
-0.740135
-0.775216
-0.813435
-0.847434
-0.874179
-0.7225
-0.747244
-0.780845
-0.817677
-0.852023
-0.879999
-0.726414
-0.753139
-0.785154
-0.820314
-0.853823
-0.88188
-0.729241
-0.75777
-0.7882
-0.821492
-0.853132
-0.879973
-0.731052
-0.761195
-0.790183
-0.821368
-0.850415
-0.874848
-0.732016
-0.76341
-0.791385
-0.820194
-0.846313
-0.867261
-0.732363
-0.764564
-0.791905
-0.818516
-0.841361
-0.85816
-0.732344
-0.764883
-0.791787
-0.817071
-0.836096
-0.848544
-0.732196
-0.764581
-0.79134
-0.816195
-0.831654
-0.839192
-0.732111
-0.763921
-0.79095
-0.815805
-0.829533
-0.830904
-0.732209
-0.763228
-0.790857
-0.81626
-0.829986
-0.826008
-0.732534
-0.762892
-0.791285
-0.818044
-0.833044
-0.828797
-0.733109
-0.763378
-0.792439
-0.821277
-0.839382
-0.841102
-0.733903
-0.765125
-0.794259
-0.825419
-0.848552
-0.860025
-0.735552
-0.76797
-0.795695
-0.828181
-0.859245
-0.888364
-0.737182
-0.769633
-0.794856
-0.827367
-0.871713
-1.02498
-0.391675
-0.198411
-0.0879523
-0.00746385
0.05483
0.101251
0.134172
0.157378
0.174076
0.186576
0.196373
0.204351
0.211012
0.21665
0.221445
0.225513
0.228944
0.231812
0.234088
0.235408
0.235639
0.238487
0.253055
0.261652
-0.549922
-0.395344
-0.242825
-0.128331
-0.0447818
0.0173761
0.0628475
0.0958771
0.120229
0.138742
0.153342
0.165247
0.175196
0.183642
0.190876
0.197092
0.202432
0.207011
0.210875
0.213806
0.215472
0.217757
0.22828
0.246029
-0.638373
-0.541041
-0.376666
-0.242527
-0.142297
-0.0663776
-0.00909553
0.0335747
0.0656341
0.0902956
0.109851
0.125825
0.139193
0.150582
0.160402
0.168943
0.176418
0.183002
0.18882
0.193775
0.19751
0.20125
0.211301
0.225497
-0.718335
-0.639434
-0.486751
-0.347106
-0.235523
-0.148072
-0.0802401
-0.0284804
0.0110809
0.041836
0.066346
0.0864003
0.103196
0.117526
0.129923
0.140762
0.150315
0.158787
0.166258
0.172532
0.177513
0.183783
0.196675
0.192561
-0.786701
-0.708691
-0.579021
-0.441921
-0.323294
-0.226416
-0.14947
-0.0893842
-0.0427116
-0.00606992
0.0232672
0.0472966
0.0674078
0.0845447
0.0993447
0.112241
0.123528
0.133389
0.141838
0.14861
0.153839
0.160905
0.174502
0.163255
-0.836764
-0.764294
-0.658045
-0.527061
-0.404756
-0.300536
-0.215817
-0.148308
-0.0950644
-0.0528656
-0.0189293
0.00888504
0.032126
0.0518723
0.068858
0.0835705
0.0963234
0.107299
0.116512
0.123752
0.129319
0.136753
0.150212
0.137854
-0.870733
-0.812929
-0.724994
-0.60219
-0.479104
-0.369702
-0.278507
-0.204563
-0.145372
-0.098018
-0.0597714
-0.0284108
-0.00226295
0.0198735
0.0388275
0.0551492
0.0691894
0.0811589
0.0911235
0.098977
0.105144
0.112969
0.126071
0.114797
-0.893626
-0.854522
-0.77963
-0.666604
-0.545446
-0.433082
-0.336771
-0.257399
-0.192991
-0.140977
-0.0987636
-0.0641269
-0.0353112
-0.0110077
0.00970798
0.0274599
0.0426559
0.055559
0.0663047
0.0748991
0.0818324
0.0900908
0.102834
0.093775
-0.908079
-0.887126
-0.822033
-0.719765
-0.602924
-0.48968
-0.389767
-0.306035
-0.237266
-0.181174
-0.13538
-0.0977629
-0.0665303
-0.0402802
-0.0179959
0.00102833
0.0172725
0.0310669
0.0426219
0.0520412
0.0598228
0.0685499
0.0809946
0.0747908
-0.915219
-0.90929
-0.852835
-0.761143
-0.650514
-0.538432
-0.43659
-0.349741
-0.277501
-0.218052
-0.169096
-0.128813
-0.0954241
-0.0674428
-0.0437702
-0.0236192
-0.00642889
0.00820601
0.02057
0.0308449
0.039499
0.048712
0.0609264
0.057889
-0.915938
-0.920262
-0.872754
-0.790466
-0.687307
-0.578325
-0.476234
-0.387714
-0.313121
-0.250955
-0.199302
-0.156727
-0.121484
-0.0919997
-0.0671188
-0.0459847
-0.0279579
-0.0125571
0.000573311
0.0116793
0.0211842
0.0308828
0.0429411
0.0431347
-0.911061
-0.920409
-0.881858
-0.807935
-0.71259
-0.608501
-0.508063
-0.418768
-0.34325
-0.279135
-0.225477
-0.180995
-0.144234
-0.113491
-0.0875885
-0.0656207
-0.0468792
-0.0308139
-0.0170027
-0.00514448
0.00515191
0.0153222
0.0272943
0.0305727
-0.901318
-0.91136
-0.879805
-0.813895
-0.726018
-0.628089
-0.531039
-0.442777
-0.366816
-0.301751
-0.246863
-0.201305
-0.163326
-0.131534
-0.104798
-0.0821526
-0.0628287
-0.0462205
-0.0318493
-0.0193596
-0.00836556
0.00223872
0.0141587
0.0201907
-0.887552
-0.895205
-0.867387
-0.808726
-0.727946
-0.636689
-0.54441
-0.458675
-0.383479
-0.318671
-0.26295
-0.216973
-0.178346
-0.14579
-0.118435
-0.0952867
-0.0755258
-0.0585104
-0.0437189
-0.0307435
-0.0191958
-0.00822654
0.00363934
0.0119306
-0.871664
-0.87313
-0.846511
-0.793404
-0.719424
-0.634795
-0.548067
-0.466088
-0.392866
-0.32936
-0.274244
-0.227559
-0.188779
-0.155925
-0.128269
-0.104827
-0.0847916
-0.0675143
-0.0524488
-0.039149
-0.027222
-0.0159814
-0.00420878
0.00572095
-0.854152
-0.847993
-0.819638
-0.769927
-0.702035
-0.623709
-0.54272
-0.465239
-0.394946
-0.33324
-0.27974
-0.233673
-0.194629
-0.161926
-0.134273
-0.110737
-0.0905901
-0.0731972
-0.0580025
-0.0445375
-0.0323995
-0.0210321
-0.00942559
0.00150858
-0.836509
-0.821514
-0.789247
-0.740906
-0.677759
-0.605127
-0.529696
-0.45691
-0.390168
-0.330898
-0.279209
-0.234476
-0.196289
-0.163947
-0.136484
-0.113068
-0.0929967
-0.075649
-0.0604773
-0.0470072
-0.0348292
-0.0234742
-0.0121371
-0.00085855
-0.82013
-0.795362
-0.757599
-0.708945
-0.648867
-0.581022
-0.510626
-0.442392
-0.379401
-0.323023
-0.273512
-0.230495
-0.193512
-0.161933
-0.134996
-0.111967
-0.0921882
-0.0750717
-0.0600954
-0.0467957
-0.0347619
-0.023563
-0.012638
-0.00161358
-0.805816
-0.770862
-0.726607
-0.676317
-0.617729
-0.553493
-0.487394
-0.423302
-0.363928
-0.310559
-0.263468
-0.222388
-0.186875
-0.156373
-0.130238
-0.107825
-0.0885369
-0.0718315
-0.0572241
-0.0442758
-0.0325928
-0.021746
-0.0113966
-0.00103781
-0.793388
-0.748755
-0.697703
-0.644853
-0.586601
-0.524664
-0.461929
-0.401397
-0.345316
-0.294817
-0.25016
-0.211113
-0.177243
-0.148028
-0.122893
-0.101271
-0.0826289
-0.0664828
-0.0523948
-0.0399613
-0.02883
-0.0185671
-0.00906457
0.000376695
-0.783325
-0.729437
-0.671958
-0.616116
-0.557289
-0.496536
-0.436139
-0.378447
-0.32519
-0.277291
-0.234947
-0.197897
-0.16571
-0.137873
-0.113852
-0.0931317
-0.0752426
-0.0597595
-0.0463013
-0.0345099
-0.0240981
-0.0146322
-0.00626443
0.00206349
-0.777127
-0.712553
-0.649742
-0.591155
-0.531273
-0.470839
-0.411793
-0.356125
-0.30513
-0.259463
-0.219206
-0.184049
-0.153516
-0.127077
-0.104212
-0.0844431
-0.0673536
-0.0525796
-0.0398006
-0.0287152
-0.0191134
-0.0105812
-0.00349888
0.00343682
-0.77465
-0.695054
-0.63034
-0.570415
-0.509599
-0.448932
-0.390458
-0.335971
-0.28656
-0.242661
-0.204195
-0.170765
-0.141824
-0.116794
-0.0951317
-0.0763587
-0.0600924
-0.0460453
-0.0339738
-0.0236229
-0.0148245
-0.00728154
-0.00135838
0.00388899
-0.763241
-0.672112
-0.612775
-0.553851
-0.49274
-0.431701
-0.37325
-0.319252
-0.27072
-0.227992
-0.190891
-0.158925
-0.131452
-0.107825
-0.0874491
-0.0698142
-0.0544995
-0.0412128
-0.0298199
-0.0202333
-0.0123272
-0.00587738
-0.000985648
0.00243577
-0.684019
-0.686771
-0.677564
-0.657764
-0.595292
-0.468068
-0.679518
-0.684731
-0.676606
-0.660757
-0.616975
-0.548422
-0.670968
-0.681465
-0.674464
-0.662018
-0.632031
-0.595226
-0.666428
-0.679543
-0.67423
-0.665016
-0.645186
-0.624026
-0.667367
-0.680097
-0.676279
-0.670538
-0.65801
-0.644846
-0.67381
-0.682865
-0.680228
-0.67762
-0.670611
-0.662177
-0.684014
-0.686686
-0.685476
-0.685521
-0.683017
-0.678285
-0.690942
-0.690155
-0.691296
-0.69384
-0.695312
-0.694133
-0.694116
-0.693358
-0.6973
-0.702316
-0.7075
-0.709981
-0.697014
-0.696303
-0.703242
-0.710727
-0.719474
-0.725779
-0.699948
-0.698871
-0.70889
-0.718853
-0.731035
-0.741266
-0.702476
-0.700968
-0.714046
-0.726471
-0.741922
-0.755999
-0.704267
-0.702524
-0.718585
-0.73338
-0.751837
-0.769408
-0.70517
-0.703545
-0.72242
-0.739473
-0.760445
-0.780875
-0.70518
-0.703842
-0.725544
-0.744704
-0.767455
-0.789808
-0.704385
-0.703282
-0.727986
-0.749079
-0.772741
-0.795699
-0.702941
-0.701974
-0.729897
-0.752665
-0.776414
-0.798478
-0.704549
-0.700955
-0.731557
-0.755659
-0.778793
-0.798881
-0.710794
-0.701707
-0.733146
-0.758286
-0.780498
-0.798206
-0.714411
-0.702982
-0.734217
-0.760608
-0.782643
-0.798338
-0.712935
-0.703092
-0.734122
-0.762569
-0.786172
-0.805348
-0.707027
-0.701082
-0.73226
-0.763687
-0.791402
-0.830452
-0.69832
-0.697551
-0.72941
-0.76363
-0.797012
-0.868622
-0.694091
-0.695282
-0.728492
-0.764499
-0.801917
-0.891691
-0.681986
-0.648995
-0.597917
-0.54122
-0.480504
-0.419255
-0.360591
-0.306592
-0.258348
-0.216184
-0.1799
-0.148954
-0.122648
-0.100265
-0.0811506
-0.0647642
-0.050658
-0.0384752
-0.0279961
-0.019182
-0.0121003
-0.00675288
-0.00318332
-0.00141902
-0.652203
-0.630902
-0.587414
-0.532577
-0.472296
-0.410839
-0.35181
-0.297524
-0.249117
-0.206978
-0.170955
-0.140492
-0.114867
-0.09333
-0.0751876
-0.0598838
-0.046934
-0.0359673
-0.0266952
-0.0189932
-0.0128994
-0.0086241
-0.00665258
-0.00618823
-0.648392
-0.622781
-0.58223
-0.528078
-0.46763
-0.405476
-0.3456
-0.290552
-0.241547
-0.198983
-0.1627
-0.132185
-0.10674
-0.085641
-0.0682324
-0.0538791
-0.0420207
-0.0322568
-0.0243175
-0.0179575
-0.013013
-0.00984098
-0.00937004
-0.00916101
-0.650815
-0.622703
-0.582194
-0.528051
-0.466501
-0.402747
-0.341178
-0.284591
-0.234307
-0.190721
-0.153678
-0.122674
-0.0970628
-0.0761602
-0.0592432
-0.0455791
-0.0346093
-0.0259591
-0.0192587
-0.0140694
-0.0103504
-0.00814587
-0.00732069
-0.00500075
-0.656786
-0.628528
-0.587779
-0.532732
-0.469036
-0.402624
-0.338384
-0.279372
-0.227053
-0.181827
-0.143501
-0.111513
-0.0851425
-0.0636316
-0.0462526
-0.0324243
-0.0216944
-0.0136431
-0.00807472
-0.0033667
-0.000411791
0.00151544
0.00348845
0.00510155
-0.666326
-0.639433
-0.598912
-0.54216
-0.475319
-0.405094
-0.337069
-0.274675
-0.21954
-0.172084
-0.132055
-0.098828
-0.0716051
-0.0495926
-0.0320624
-0.0183613
-0.00789808
-9.04291e-05
0.0057091
0.00862613
0.0103151
0.0113205
0.0126556
0.0117981
-0.679147
-0.655001
-0.615032
-0.556284
-0.485305
-0.409991
-0.336956
-0.270202
-0.211553
-0.161425
-0.119466
-0.0849141
-0.0568698
-0.0344807
-0.0169824
-0.00367336
0.00606693
0.0127773
0.0169087
0.0187523
0.0188831
0.0180657
0.0172597
0.0141376
-0.694769
-0.674664
-0.635907
-0.574901
-0.498714
-0.417075
-0.338021
-0.266313
-0.203882
-0.151035
-0.107237
-0.0715548
-0.042975
-0.0205217
-0.00331871
0.00941698
0.0183623
0.0240874
0.0270795
0.0277685
0.0265903
0.0242671
0.0213839
0.0166592
-0.712618
-0.69791
-0.661223
-0.597673
-0.515151
-0.425926
-0.339982
-0.262861
-0.196599
-0.141379
-0.0963339
-0.0601897
-0.0316965
-0.00971786
0.00678863
0.0187152
0.0268075
0.0316995
0.0339417
0.0339653
0.0320856
0.0290431
0.0247384
0.0202443
-0.732015
-0.724098
-0.690391
-0.623922
-0.533598
-0.435072
-0.341427
-0.258712
-0.189184
-0.132421
-0.0869674
-0.0511172
-0.0233378
-0.00227701
0.0132912
0.0243156
0.0315112
0.0355788
0.0373402
0.0372426
0.0352576
0.0319162
0.0252402
0.0213458
-0.752122
-0.752307
-0.722366
-0.652392
-0.552329
-0.444117
-0.342644
-0.255121
-0.183314
-0.125994
-0.0810011
-0.0461843
-0.0196977
1.08631e-05
0.0145071
0.0247649
0.0310597
0.0338435
0.0345692
0.0342477
0.0326637
0.0307276
0.0268484
0.0244858
-0.771891
-0.781267
-0.75542
-0.68071
-0.571413
-0.453697
-0.345808
-0.254922
-0.182131
-0.125274
-0.0814057
-0.0479291
-0.0227788
-0.00452296
0.00878589
0.0189699
0.026581
0.0319184
0.03426
0.0337608
0.0314352
0.0281759
0.0246595
0.0267409
-0.790065
-0.80923
-0.786489
-0.70675
-0.588877
-0.463697
-0.351599
-0.259294
-0.186771
-0.130832
-0.0879026
-0.0550888
-0.0301094
-0.0109505
0.00305002
0.0129554
0.0203702
0.0257276
0.0288755
0.0299244
0.0294553
0.0283096
0.0275482
0.0317185
-0.805554
-0.83374
-0.811093
-0.726233
-0.600565
-0.470574
-0.356856
-0.264897
-0.193549
-0.138671
-0.0963951
-0.0637036
-0.0383252
-0.0186592
-0.00372412
0.00728924
0.0157045
0.0219703
0.0261755
0.029154
0.031226
0.0326088
0.0353436
0.0388077
-0.817411
-0.851353
-0.824887
-0.733592
-0.601537
-0.469294
-0.356726
-0.266474
-0.197033
-0.143584
-0.10204
-0.0695525
-0.0439707
-0.0236473
-0.00745089
0.00501221
0.014372
0.0215122
0.0273685
0.0321171
0.0353197
0.0377275
0.0423936
0.0448821
-0.824511
-0.862815
-0.825278
-0.724661
-0.588235
-0.456978
-0.347966
-0.260905
-0.194017
-0.142508
-0.102054
-0.0699737
-0.044374
-0.0238289
-0.00722097
0.00616484
0.0164974
0.0247429
0.0315423
0.0366477
0.040573
0.0446902
0.0519668
0.0525283
-0.826305
-0.854532
-0.810838
-0.698874
-0.560014
-0.432906
-0.329102
-0.248051
-0.184343
-0.134935
-0.0960094
-0.0648419
-0.0396885
-0.0192688
-0.00262553
0.0109623
0.0220264
0.0309259
0.0380738
0.0438269
0.048582
0.0541878
0.0642631
0.0639396
-0.823407
-0.827374
-0.77922
-0.657295
-0.518716
-0.397875
-0.301941
-0.227249
-0.167779
-0.121061
-0.0840609
-0.0542445
-0.029965
-0.0100667
0.006322
0.0198462
0.0309988
0.0402068
0.0478272
0.0540973
0.0594429
0.0662878
0.0789916
0.0772778
-0.813949
-0.786417
-0.728895
-0.601049
-0.466809
-0.354291
-0.26706
-0.198773
-0.144446
-0.101284
-0.0667444
-0.0387006
-0.0156741
0.00336349
0.0191801
0.0323678
0.0433875
0.052608
0.0603398
0.0667809
0.0723826
0.0800737
0.0945821
0.0907834
-0.792337
-0.741524
-0.66296
-0.532082
-0.405746
-0.303998
-0.22532
-0.163978
-0.115263
-0.0762196
-0.0446389
-0.0187742
0.00264049
0.0205048
0.0354841
0.0480862
0.0587074
0.0676724
0.0752534
0.0815915
0.0871485
0.0952961
0.111045
0.104923
-0.746448
-0.692917
-0.584339
-0.452138
-0.336912
-0.247007
-0.178052
-0.124273
-0.0814556
-0.0468538
-0.0185622
0.00483806
0.0243867
0.0408389
0.0547551
0.066562
0.0765923
0.085122
0.0923738
0.0984236
0.103735
0.112074
0.12871
0.120209
-0.676168
-0.618938
-0.488295
-0.361774
-0.26121
-0.184831
-0.126461
-0.0807435
-0.0440787
-0.014153
0.0105932
0.0312832
0.0487431
0.0635807
0.0762487
0.0870886
0.0963675
0.104309
0.111075
0.11667
0.121559
0.12983
0.146974
0.136361
-0.59478
-0.494107
-0.368435
-0.261855
-0.180456
-0.119106
-0.071941
-0.0345649
-0.00418316
0.020954
0.0420174
0.0598457
0.0750616
0.088131
0.0994037
0.109143
0.117553
0.124805
0.13099
0.13603
0.140386
0.148409
0.165812
0.153607
-0.468084
-0.322463
-0.230387
-0.156189
-0.097564
-0.0520004
-0.0161092
0.0129922
0.0371615
0.0575414
0.074903
0.0898155
0.102713
0.113931
0.123722
0.132277
0.139747
0.14625
0.151809
0.156249
0.160017
0.167652
0.185116
0.172144
)
;

boundaryField
{
    rotor
    {
        type            zeroGradient;
    }
    freestream
    {
        type            freestreamPressure;
        freestreamValue uniform 0;
        supersonic      false;
        value           nonuniform List<scalar> 
96
(
0.077569
0.0936005
0.11398
0.142879
0.155533
0.170024
0.188927
0.21037
0.233533
0.257887
0.283045
0.308664
0.334431
0.360044
0.385217
0.40968
0.433178
0.455477
0.47634
0.495404
0.512361
0.527563
0.540886
0.551929
0.560587
0.566736
0.57028
0.57115
0.569287
0.564686
0.557353
0.547302
0.534762
0.519852
0.502559
0.482684
0.46068
0.436841
0.411435
0.384762
0.357148
0.328937
0.300485
0.272157
0.244337
0.217452
0.191908
0.168289
0.147367
0.130279
0.112076
0.0896583
0.0709117
0.0556323
0.0428747
0.0322897
0.0236525
0.0167502
0.0113761
0.00732105
0.00437291
0.00232756
0.00100103
0.000235606
-0.000118978
-0.000196922
-0.000110393
3.44232e-05
0.000158908
0.000218103
0.000199682
0.000101199
-4.91551e-05
-0.000183615
-0.000215712
-6.62311e-05
1.99005e-05
3.62156e-07
5.81912e-05
0.000213324
0.000473159
0.000746223
0.00118404
0.00170935
0.00259936
0.00398978
0.00561929
0.00778095
0.0110101
0.0152438
0.0202757
0.0262929
0.0335569
0.0421181
0.0521678
0.0639148
)
;
    }
    frontAndBack
    {
        type            empty;
    }
}


// ************************************************************************* //
