/*--------------------------------*- C++ -*----------------------------------*\
  =========                 |
  \\      /  F ield         | OpenFOAM: The Open Source CFD Toolbox
   \\    /   O peration     | Website:  https://openfoam.org
    \\  /    A nd           | Version:  11
     \\/     M anipulation  |
\*---------------------------------------------------------------------------*/
FoamFile
{
    format      ascii;
    class       volVectorField;
    location    "0.72";
    object      U;
}
// * * * * * * * * * * * * * * * * * * * * * * * * * * * * * * * * * * * * * //

dimensions      [0 1 -1 0 0 0 0];

internalField   nonuniform List<vector> 
2880
(
(-0.0650853 -0.0756362 -3.92821e-19)
(-0.0765116 -0.115949 -5.6004e-19)
(-0.0556055 -0.0481451 2.09275e-19)
(-0.0251497 0.139103 -5.01721e-20)
(0.0997909 0.309635 5.54651e-21)
(0.209892 0.874148 4.03346e-21)
(-0.0816716 -0.0972111 -4.0045e-19)
(-0.0655214 -0.0973114 1.38778e-19)
(-0.0143315 0.000147396 -2.19547e-19)
(0.0455746 0.183369 -8.84694e-20)
(0.169173 0.385192 0)
(0.378283 0.712773 0)
(-0.0923981 -0.0978138 0)
(-0.0485508 -0.0726746 -1.11672e-19)
(0.0282309 0.0341927 0)
(0.120322 0.208934 8.80552e-20)
(0.282742 0.410709 -4.21098e-21)
(0.496282 0.659252 0)
(-0.101909 -0.0932036 0)
(-0.0315126 -0.0515494 -2.22584e-20)
(0.068228 0.0595584 5.78567e-21)
(0.187983 0.225476 0)
(0.368729 0.418355 0)
(0.582818 0.618216 0)
(-0.109698 -0.0871482 3.70167e-19)
(-0.0152296 -0.0339342 -2.10973e-19)
(0.104217 0.0789067 -1.88737e-19)
(0.247265 0.236054 -1.80963e-20)
(0.439301 0.417068 1.58913e-20)
(0.647564 0.579503 2.0791e-20)
(-0.115596 -0.0816081 -3.68208e-19)
(-0.000593847 -0.019688 2.18764e-19)
(0.135478 0.0932034 1.53099e-19)
(0.297414 0.242667 1.85931e-20)
(0.496494 0.410868 0)
(0.692539 0.545632 0)
(-0.119979 -0.0775412 -2.2896e-20)
(0.0118634 -0.00874747 -4.41219e-19)
(0.161752 0.103078 3.66163e-19)
(0.338912 0.246121 0)
(0.541709 0.402092 0)
(0.723727 0.515654 0)
(-0.123119 -0.0753138 6.83539e-20)
(0.0218649 -0.000984444 3.98053e-19)
(0.182999 0.109079 3.43447e-19)
(0.372327 0.246584 6.67505e-19)
(0.57651 0.392213 4.40451e-19)
(0.744709 0.488791 0)
(-0.125187 -0.0749227 4.54249e-20)
(0.0292695 0.0038643 -7.90385e-20)
(0.199252 0.111648 -6.92104e-19)
(0.398245 0.244277 -5.63371e-19)
(0.602497 0.381408 -5.08997e-19)
(0.757784 0.464625 -9.76463e-20)
(-0.126341 -0.0761299 0)
(0.0339697 0.00616643 0)
(0.210534 0.11119 6.10049e-19)
(0.417123 0.239441 1.50638e-19)
(0.620873 0.369671 -6.57472e-20)
(0.764883 0.442283 -4.19012e-19)
(-0.126752 -0.0785385 -1.44373e-18)
(0.035866 0.00634313 0)
(0.216831 0.10809 -1.49496e-18)
(0.429267 0.23227 7.7027e-20)
(0.632553 0.356882 0)
(0.767389 0.421147 4.18517e-19)
(-0.126615 -0.0816496 1.44502e-18)
(0.0348536 0.00482426 -8.53748e-19)
(0.218038 0.102665 1.66828e-22)
(0.43489 0.222893 7.61785e-20)
(0.638388 0.34292 -6.67102e-20)
(0.766229 0.400726 -1.02552e-19)
(-0.126153 -0.0848986 2.25462e-20)
(0.0308225 0.00202869 8.6348e-19)
(0.214 0.095141 8.09165e-19)
(0.434091 0.21119 -7.85336e-20)
(0.638958 0.327618 0)
(0.762041 0.38069 -5.33793e-19)
(-0.125622 -0.0877162 0)
(0.0236855 -0.00167393 -9.27145e-19)
(0.204587 0.0857426 -7.73659e-19)
(0.426775 0.197016 1.26408e-21)
(0.634378 0.310687 6.77549e-20)
(0.755242 0.360674 5.34625e-19)
(-0.125143 -0.0894551 -1.42248e-18)
(0.0133831 -0.0059941 5.65699e-20)
(0.189603 0.0746402 -4.61063e-20)
(0.412681 0.180171 -4.82367e-19)
(0.624638 0.291764 -1.36712e-19)
(0.746116 0.340243 5.43194e-19)
(-0.125028 -0.0894702 1.41891e-18)
(-6.58987e-06 -0.0106726 8.45072e-19)
(0.168863 0.0619858 4.65004e-20)
(0.391414 0.160363 1.29343e-18)
(0.609534 0.270303 -5.47583e-19)
(0.734759 0.318874 -4.37465e-19)
(-0.125431 -0.0877372 2.21332e-20)
(-0.0163039 -0.0154821 -5.75836e-20)
(0.142245 0.0479454 8.05911e-19)
(0.362373 0.137323 -5.7218e-19)
(0.588306 0.24566 6.16085e-19)
(0.721242 0.296015 -1.13556e-19)
(-0.12723 -0.0834468 -6.8148e-20)
(-0.0351543 -0.020278 -2.95196e-20)
(0.109719 0.0327122 -6.26152e-19)
(0.32485 0.110878 -4.1885e-22)
(0.559697 0.217172 -7.04277e-20)
(0.70541 0.27094 -5.56754e-19)
(-0.131608 -0.0770185 -2.29316e-20)
(-0.0558231 -0.0251082 0)
(0.0714164 0.0165943 8.82579e-19)
(0.278221 0.0810104 -7.53163e-19)
(0.521796 0.184295 0)
(0.686719 0.242718 4.48685e-19)
(-0.135538 -0.0619888 2.14641e-20)
(-0.0765668 -0.0300819 -6.15586e-20)
(0.0281018 0.000199438 -8.48106e-19)
(0.222053 0.0476609 8.48352e-19)
(0.471532 0.146594 6.76488e-20)
(0.664157 0.209805 3.3613e-19)
(-0.131957 -0.0522644 -3.80446e-20)
(-0.094849 -0.034901 1.10142e-18)
(-0.0181479 -0.0155954 7.65032e-19)
(0.156218 0.0113652 0)
(0.403066 0.103323 7.17943e-19)
(0.634859 0.167236 -5.73499e-19)
(-0.126004 -0.0466321 0)
(-0.109982 -0.0377538 -9.83176e-19)
(-0.0640238 -0.0295362 -5.22814e-19)
(0.0808846 -0.025398 4.3808e-20)
(0.305171 0.0531654 -5.86459e-19)
(0.591362 0.0986303 0)
(-0.116349 -0.038749 3.39852e-20)
(-0.121069 -0.0383581 -3.46928e-20)
(-0.104941 -0.0402608 3.81084e-19)
(-0.00478277 -0.0591458 -4.50889e-20)
(0.151687 -0.00354223 7.40837e-20)
(0.54092 0.00793383 5.66968e-20)
(-0.0764499 -0.0280906 0)
(-0.108122 -0.0372405 0)
(-0.127759 -0.0431275 5.6144e-20)
(-0.0847408 -0.063626 -5.40944e-22)
(-0.0604525 -0.0265801 -3.78267e-20)
(0.497875 0.00966333 0)
(0.991655 0.92005 1.30465e-19)
(1.28319 0.706756 1.22486e-20)
(1.37832 0.557022 -4.4716e-20)
(1.40211 0.450768 2.3568e-20)
(1.3932 0.370451 -8.13971e-23)
(1.37298 0.308815 -8.17124e-22)
(1.35079 0.261528 1.68725e-21)
(1.32972 0.224776 5.67924e-21)
(1.31048 0.195688 0)
(1.293 0.172233 9.1257e-21)
(1.27697 0.152959 0)
(1.26204 0.136819 -9.5391e-21)
(1.24788 0.123056 -9.57571e-21)
(1.23418 0.111119 -9.54163e-21)
(1.22066 0.100608 -1.59767e-20)
(1.20705 0.0912385 1.60322e-20)
(1.19309 0.0828211 -1.59829e-20)
(1.17847 0.0752538 1.85595e-20)
(1.16285 0.0684927 -1.72321e-20)
(1.14579 0.0624444 1.53838e-20)
(1.12671 0.0570013 1.75011e-20)
(1.10513 0.0532826 -4.65301e-20)
(1.08102 0.0559072 1.66372e-20)
(1.05365 0.0652418 -1.73511e-20)
(0.970671 0.81302 -1.6481e-21)
(1.22568 0.692724 -1.7399e-20)
(1.32141 0.560027 4.54863e-21)
(1.34804 0.459211 1.11036e-21)
(1.34537 0.381441 0)
(1.33216 0.321169 5.08547e-21)
(1.31616 0.274351 -6.71618e-21)
(1.30012 0.237494 -1.31033e-20)
(1.28486 0.207965 4.88107e-21)
(1.27048 0.183881 -1.39219e-20)
(1.25686 0.163889 4.26169e-21)
(1.24378 0.147001 -1.35423e-21)
(1.23102 0.132498 3.02095e-20)
(1.21837 0.119846 -1.1048e-20)
(1.20563 0.108652 9.89753e-21)
(1.19259 0.0986251 0)
(1.17904 0.0895606 0)
(1.16476 0.0813324 0)
(1.14946 0.0738684 0)
(1.13279 0.067048 -1.84008e-20)
(1.11426 0.0607169 1.30297e-20)
(1.09334 0.0558739 1.84752e-20)
(1.06997 0.0570022 -1.30424e-20)
(1.04418 0.0660456 0)
(0.939633 0.767245 -1.29129e-21)
(1.17843 0.670744 7.66026e-21)
(1.26688 0.552152 -5.74493e-21)
(1.29545 0.458752 3.04315e-22)
(1.29928 0.385904 -1.05316e-21)
(1.2927 0.328404 1.83987e-21)
(1.28231 0.282945 0)
(1.27083 0.246658 0)
(1.25924 0.217237 0)
(1.24779 0.192978 -5.89161e-21)
(1.23647 0.172637 6.68538e-21)
(1.22521 0.155306 -2.32409e-21)
(1.21387 0.140313 2.9786e-21)
(1.20234 0.12716 3.76615e-21)
(1.19046 0.115469 2.96566e-21)
(1.1781 0.104956 -5.50761e-21)
(1.16508 0.0954096 -5.48271e-21)
(1.15123 0.0866848 5.24983e-21)
(1.13635 0.0786864 -6.76887e-22)
(1.12016 0.071285 0)
(1.10223 0.0642743 4.70889e-21)
(1.08201 0.0582638 -6.29135e-22)
(1.05946 0.0569239 -4.2218e-21)
(1.03592 0.0666995 0)
(0.928877 0.708391 0)
(1.13075 0.633772 0)
(1.21481 0.535474 0)
(1.24721 0.452247 -1.38262e-21)
(1.25641 0.385048 0)
(1.25524 0.331033 -5.24371e-21)
(1.24968 0.287664 4.77498e-21)
(1.24228 0.252548 -4.48724e-21)
(1.23401 0.223706 4.14066e-21)
(1.22525 0.199643 0)
(1.21611 0.179253 -8.66841e-22)
(1.2066 0.161722 -8.34687e-22)
(1.1967 0.146442 0)
(1.18633 0.132954 5.89832e-21)
(1.17541 0.120909 -6.33622e-21)
(1.16383 0.110043 0)
(1.15148 0.10015 1.20376e-20)
(1.13823 0.0910874 -1.15508e-20)
(1.12391 0.0827603 -1.06905e-20)
(1.10833 0.0750709 1.09784e-20)
(1.09118 0.0677933 0)
(1.07209 0.0608319 1.12677e-20)
(1.05072 0.0554171 -1.09834e-20)
(1.02641 0.0673589 0)
(0.920087 0.651321 5.63465e-21)
(1.09088 0.596337 4.72634e-20)
(1.16952 0.515099 5.93621e-20)
(1.20353 0.441502 -3.14925e-20)
(1.21672 0.380278 -1.54983e-20)
(1.22006 0.330158 4.16114e-20)
(1.21865 0.289254 -1.60383e-22)
(1.2148 0.255643 -3.19137e-20)
(1.20948 0.227672 -2.88067e-23)
(1.20315 0.204059 5.60809e-20)
(1.19602 0.183839 -1.71021e-20)
(1.1882 0.16629 -1.6278e-20)
(1.17971 0.150867 -1.27068e-22)
(1.17054 0.137156 1.46319e-20)
(1.16065 0.124839 0)
(1.14998 0.113671 0)
(1.13845 0.103464 0)
(1.12597 0.0940874 0)
(1.11242 0.0854572 1.18062e-20)
(1.09769 0.0774424 -2.37268e-20)
(1.08166 0.0696692 -1.19022e-20)
(1.06417 0.0621369 -1.16461e-20)
(1.04404 0.0583839 0)
(1.01763 0.0729659 1.37885e-20)
(0.912803 0.601841 0)
(1.05703 0.560237 -9.68723e-20)
(1.12945 0.492694 -1.59305e-19)
(1.16435 0.428069 6.15795e-20)
(1.18057 0.372676 -3.49664e-20)
(1.18745 0.326483 3.22688e-21)
(1.18945 0.2882 0)
(1.18859 0.256292 0)
(1.18584 0.229394 0)
(1.18168 0.206416 -6.28287e-20)
(1.1764 0.186528 7.86887e-20)
(1.17015 0.169096 -3.59558e-20)
(1.16302 0.153637 0)
(1.15505 0.139776 0)
(1.14623 0.127221 3.20557e-20)
(1.13653 0.11574 -2.82581e-20)
(1.1259 0.105153 5.64843e-20)
(1.11429 0.0953315 -2.82991e-20)
(1.1016 0.086174 -1.46091e-20)
(1.08775 0.0774693 0)
(1.07269 0.0687466 1.19329e-20)
(1.05609 0.0604373 3.63784e-20)
(1.03614 0.0576825 -7.43373e-20)
(1.01067 0.0691178 6.66731e-20)
(0.905589 0.559733 0)
(1.02851 0.526895 1.64318e-19)
(1.09465 0.46993 8.43848e-20)
(1.1294 0.413051 2.56767e-20)
(1.14768 0.363053 1.25988e-19)
(1.15732 0.320647 -1.43907e-19)
(1.16209 0.284992 1.25936e-19)
(1.16376 0.254869 -2.76926e-20)
(1.16321 0.229154 0)
(1.16097 0.206931 -4.98124e-20)
(1.15736 0.18749 4.42286e-20)
(1.15259 0.17028 -3.76155e-20)
(1.14676 0.154873 -1.50067e-21)
(1.13995 0.14093 -3.64098e-20)
(1.13219 0.128182 -3.19311e-20)
(1.12346 0.11641 -3.05563e-20)
(1.11376 0.105442 -9.24982e-20)
(1.10302 0.0951499 2.83824e-20)
(1.0912 0.0854248 1.13271e-19)
(1.07824 0.0760165 0)
(1.06412 0.0664548 1.33126e-19)
(1.0484 0.0574917 -7.8209e-20)
(1.02903 0.0549063 2.58035e-20)
(1.00547 0.0639531 -2.55275e-20)
(0.897957 0.523681 -2.33264e-19)
(1.00396 0.4964 -2.03672e-19)
(1.06414 0.447493 3.5415e-20)
(1.09818 0.397168 5.22723e-20)
(1.11783 0.352031 -1.32122e-19)
(1.12958 0.313159 7.30616e-20)
(1.13657 0.28004 -6.39313e-20)
(1.14033 0.2517 0)
(1.14167 0.227216 0)
(1.14113 0.205821 -1.88312e-21)
(1.13902 0.186909 4.60074e-20)
(1.1356 0.170004 -4.08202e-20)
(1.131 0.154728 3.83559e-20)
(1.12531 0.140776 3.62652e-20)
(1.11857 0.1279 0)
(1.11081 0.115896 0)
(1.10202 0.104604 -3.37108e-20)
(1.09218 0.0939067 6.29742e-20)
(1.08124 0.0836977 -2.93188e-20)
(1.0692 0.0737228 -1.16437e-19)
(1.05606 0.0635445 8.59539e-20)
(1.04133 0.0540889 0)
(1.02273 0.0512652 0)
(1.00086 0.0582839 0)
(0.889738 0.492181 -2.41382e-19)
(0.982383 0.468554 4.20068e-19)
(1.03721 0.425826 -2.95942e-19)
(1.07017 0.380933 -5.65753e-20)
(1.0907 0.340074 1.45595e-19)
(1.10404 0.304427 -1.67441e-19)
(1.1128 0.27369 1.46048e-19)
(1.11829 0.247078 -1.29712e-19)
(1.12125 0.223827 5.91289e-20)
(1.12218 0.203295 0)
(1.12144 0.184969 1.01718e-19)
(1.11926 0.168436 0)
(1.11581 0.153362 0)
(1.11118 0.139473 0)
(1.10544 0.126544 -7.63308e-20)
(1.09863 0.114388 7.3182e-20)
(1.09076 0.102856 -1.39439e-19)
(1.08182 0.0918472 6.19636e-22)
(1.07179 0.0812652 7.36522e-22)
(1.06071 0.0708651 1.25213e-19)
(1.04864 0.0602466 6.20308e-20)
(1.03501 0.0504266 0)
(1.01731 0.0472122 0)
(0.997058 0.0524856 -7.71859e-20)
(0.880887 0.464214 4.22269e-19)
(0.963035 0.443101 -7.0653e-19)
(1.01314 0.405114 2.94069e-19)
(1.04492 0.364689 0)
(1.06596 0.327519 0)
(1.08049 0.29477 0)
(1.09066 0.266228 1.60642e-19)
(1.09758 0.24125 -7.45401e-20)
(1.10193 0.219203 -6.31525e-20)
(1.10417 0.199546 -1.1266e-19)
(1.10465 0.181841 4.41332e-21)
(1.10362 0.165732 0)
(1.10124 0.150923 9.0663e-20)
(1.09763 0.137169 -7.42416e-22)
(1.09286 0.124263 -8.17804e-20)
(1.08699 0.112036 -2.34797e-19)
(1.08003 0.100357 2.21016e-19)
(1.072 0.0891382 -2.16865e-19)
(1.06291 0.0782994 7.084e-20)
(1.05284 0.0676116 0)
(1.04188 0.0567145 3.67638e-21)
(1.02942 0.0466648 -6.4645e-20)
(1.01274 0.0430136 -6.53464e-20)
(0.994072 0.0467415 -1.07711e-19)
(0.871429 0.439008 0)
(0.94533 0.419747 3.85304e-19)
(0.991338 0.385381 0)
(1.02199 0.348635 0)
(1.04329 0.314633 -1.07176e-19)
(1.05871 0.284435 9.65616e-20)
(1.07001 0.257881 9.70202e-21)
(1.07814 0.234423 1.41791e-19)
(1.08368 0.21353 -5.19814e-21)
(1.08707 0.19474 2.01793e-21)
(1.08867 0.177679 -1.13909e-19)
(1.0887 0.162035 0)
(1.08733 0.147546 3.1326e-21)
(1.0847 0.13399 9.14178e-20)
(1.08087 0.121181 -8.86101e-20)
(1.07591 0.108965 8.00372e-20)
(1.06987 0.0972291 2.33937e-19)
(1.06276 0.0859021 -1.51679e-19)
(1.05464 0.0749203 4.55648e-22)
(1.0456 0.0640761 0)
(1.03578 0.0530517 1.4004e-19)
(1.02453 0.0429045 4.11378e-22)
(1.00895 0.0388141 1.34022e-19)
(0.991881 0.0411663 1.23562e-19)
(0.86131 0.415927 1.88965e-19)
(0.928834 0.398204 -6.15114e-19)
(0.971355 0.366635 8.56343e-20)
(1.00095 0.332891 -4.11519e-19)
(1.02237 0.301575 1.1827e-19)
(1.03847 0.273598 0)
(1.0507 0.248823 -2.53054e-19)
(1.05985 0.226763 -7.34946e-20)
(1.06644 0.206962 2.7056e-19)
(1.07088 0.189022 -2.51196e-19)
(1.07349 0.172616 -6.00748e-21)
(1.07451 0.157468 0)
(1.07411 0.143347 -9.89537e-20)
(1.07241 0.130049 1.90876e-19)
(1.0695 0.117406 -9.41891e-20)
(1.06545 0.105281 -1.73177e-19)
(1.06031 0.0935766 1.67128e-19)
(1.05414 0.0822407 -7.80899e-20)
(1.04699 0.0712272 1.50095e-19)
(1.039 0.0603531 -2.97819e-19)
(1.03034 0.049344 5.7626e-22)
(1.0203 0.0392241 -4.27648e-19)
(1.0059 0.0347146 2.07067e-19)
(0.990421 0.0358467 0)
(0.850547 0.394521 5.88324e-19)
(0.913221 0.37823 4.09971e-19)
(0.952778 0.348833 0)
(0.981434 0.317503 -1.09042e-20)
(1.00291 0.288437 0)
(1.01957 0.262375 -2.0981e-19)
(1.03258 0.239179 -1.7736e-19)
(1.04263 0.218396 4.85867e-19)
(1.05015 0.199623 1.4278e-19)
(1.05554 0.182508 -2.66626e-19)
(1.0591 0.166761 1.1769e-19)
(1.06106 0.152138 0)
(1.06158 0.138426 -1.08949e-19)
(1.06078 0.125442 0)
(1.05877 0.113032 0)
(1.05561 0.101074 -8.87052e-20)
(1.05138 0.0894889 1.75883e-19)
(1.04614 0.078242 -2.54388e-19)
(1.03997 0.0673055 -2.70538e-21)
(1.03304 0.0565227 -1.55251e-19)
(1.02552 0.0456611 3.7765e-19)
(1.01668 0.035682 -3.39216e-21)
(1.00352 0.030788 -2.92622e-19)
(0.989608 0.0308499 4.20908e-19)
(0.839168 0.374501 -1.24227e-18)
(0.898222 0.359627 2.13224e-19)
(0.93525 0.331891 -1.75574e-19)
(0.963126 0.302467 3.62076e-19)
(0.984646 0.275261 0)
(1.0018 0.250837 2.08746e-19)
(1.01551 0.229034 -3.74948e-19)
(1.02636 0.209413 6.24486e-21)
(1.03475 0.191605 -1.47747e-19)
(1.04103 0.175289 1.35049e-19)
(1.04548 0.160204 2.51038e-19)
(1.04832 0.146129 -1.19588e-19)
(1.04973 0.132867 -4.63754e-21)
(1.04981 0.120251 -1.02158e-19)
(1.04867 0.108138 9.90558e-20)
(1.0464 0.096423 -5.5837e-22)
(1.04307 0.085043 -9.06587e-20)
(1.03876 0.0739814 -8.98572e-20)
(1.03357 0.0632273 2.54558e-19)
(1.02768 0.0526501 8.39774e-20)
(1.02127 0.0420557 -3.18386e-19)
(1.01359 0.0323174 3.06071e-19)
(1.00171 0.0270864 7.78974e-20)
(0.989353 0.0262262 6.93582e-20)
(0.827119 0.355618 4.57818e-19)
(0.88359 0.342227 0)
(0.918457 0.31571 1.75191e-19)
(0.94573 0.287746 1.50684e-19)
(0.967334 0.262049 0)
(0.984961 0.239014 1.08084e-19)
(0.999332 0.218438 9.13729e-20)
(1.01095 0.199875 -1.70741e-19)
(1.02016 0.182973 1.58658e-19)
(1.02728 0.167433 -1.45851e-19)
(1.03258 0.153013 -1.34768e-19)
(1.03629 0.139508 2.45119e-19)
(1.03855 0.126736 -2.37793e-19)
(1.03949 0.11454 -1.07572e-19)
(1.03922 0.102789 7.10101e-22)
(1.03781 0.0913928 2.98737e-19)
(1.03538 0.0803035 -1.91912e-19)
(1.03199 0.0695215 1.84403e-19)
(1.02776 0.0590508 -1.78802e-19)
(1.02288 0.0487851 -4.27291e-19)
(1.01754 0.0385637 6.65586e-19)
(1.01098 0.0291525 -2.43677e-19)
(1.0004 0.023645 -7.79099e-20)
(0.98956 0.0220108 -3.21009e-19)
(0.814249 0.337687 0)
(0.869066 0.325898 0)
(0.902102 0.300184 0)
(0.928972 0.27327 -4.65582e-19)
(0.95075 0.248766 -5.57055e-21)
(0.968894 0.226901 -3.45619e-19)
(0.983929 0.207404 1.96647e-19)
(0.996299 0.189808 -1.81303e-19)
(1.0063 0.173765 1.6006e-19)
(1.01425 0.158982 -4.26047e-21)
(1.02039 0.145233 1.34655e-19)
(1.02493 0.132324 1.29994e-19)
(1.02803 0.120083 1.18156e-19)
(1.02982 0.108361 2.26876e-19)
(1.03039 0.0970382 -3.24941e-19)
(1.02984 0.0860357 1.01582e-19)
(1.02828 0.0753223 -7.81639e-22)
(1.0258 0.0649117 0)
(1.02251 0.0548202 1.85192e-19)
(1.01861 0.0449624 -8.84982e-20)
(1.01427 0.0352052 -3.46292e-19)
(1.00877 0.0261956 4.21582e-19)
(0.999515 0.0204858 2.43876e-19)
(0.990138 0.0182254 -2.27997e-19)
(0.800325 0.320545 0)
(0.854348 0.310538 0)
(0.8859 0.285198 0)
(0.912594 0.258934 3.11761e-19)
(0.934687 0.235345 0)
(0.953437 0.214456 -6.65134e-21)
(0.96918 0.195914 -4.1046e-19)
(0.982322 0.179214 1.86595e-19)
(0.993129 0.163992 -1.692e-19)
(1.00189 0.149958 -1.55141e-19)
(1.00885 0.136892 -1.43613e-19)
(1.01422 0.124609 1.35384e-19)
(1.01815 0.112943 -1.25248e-19)
(1.02076 0.101751 0)
(1.02216 0.0909232 2.24283e-19)
(1.02246 0.0803914 -9.55841e-22)
(1.02176 0.0701379 -1.0202e-19)
(1.02016 0.0601879 -1.01437e-19)
(1.01778 0.0505653 0)
(1.01481 0.0412026 -1.85715e-19)
(1.01142 0.0319878 -4.50218e-19)
(1.00692 0.0234449 -8.96882e-20)
(0.998968 0.0176195 4.18047e-19)
(0.990996 0.0148785 0)
(0.785108 0.304042 7.51724e-19)
(0.83904 0.296049 4.54963e-19)
(0.869536 0.270583 -9.75576e-20)
(0.896378 0.244601 -3.26863e-19)
(0.918948 0.22167 -2.79015e-19)
(0.93845 0.201604 4.77268e-19)
(0.954985 0.183921 1.03861e-19)
(0.968946 0.168067 2.87113e-19)
(0.98058 0.153644 1.68965e-19)
(0.990165 0.140361 1.55015e-19)
(0.99795 0.127999 1.43587e-19)
(1.00413 0.116377 -1.34192e-19)
(1.00888 0.105335 0)
(1.01231 0.0947338 1.23449e-19)
(1.01453 0.0844704 2.31721e-19)
(1.01566 0.0744867 -3.33775e-19)
(1.0158 0.0647762 0)
(1.01505 0.0553719 1.01779e-19)
(1.01354 0.0463023 0)
(1.01145 0.0375132 -2.80219e-21)
(1.00893 0.0289092 9.12533e-20)
(1.00535 0.0208929 -9.12875e-20)
(0.998686 0.0150493 0)
(0.992049 0.0119654 -8.01748e-20)
(0.768385 0.288109 -6.81515e-19)
(0.822647 0.282299 -2.27678e-19)
(0.852638 0.256124 -3.97288e-19)
(0.880101 0.230071 7.02995e-20)
(0.903404 0.207592 5.58508e-19)
(0.923802 0.188229 -3.65934e-19)
(0.941264 0.171346 0)
(0.956115 0.156315 -3.86895e-19)
(0.968619 0.14269 0)
(0.979052 0.130173 1.5995e-19)
(0.987666 0.118546 4.08504e-22)
(0.994667 0.107631 -1.39034e-19)
(1.00022 0.097267 2.66373e-19)
(1.00444 0.087321 1.25906e-19)
(1.00747 0.0776942 -4.79282e-19)
(1.0094 0.0683366 2.30694e-19)
(1.01035 0.0592502 2.20484e-19)
(1.01043 0.0504726 -2.1353e-19)
(1.00975 0.0420336 2.04841e-19)
(1.00848 0.0338895 -1.00747e-19)
(1.00676 0.025958 -3.82266e-19)
(1.00404 0.0185289 4.61668e-19)
(0.998589 0.0127735 -8.99345e-20)
(0.9932 0.00946202 7.98569e-20)
(0.749561 0.27266 0)
(0.804541 0.269082 1.15296e-19)
(0.834835 0.241511 2.92307e-19)
(0.863513 0.215076 3.33643e-19)
(0.887958 0.192916 -2.84927e-19)
(0.909446 0.174188 0)
(0.927951 0.158086 -2.23143e-19)
(0.943797 0.143882 4.41762e-23)
(0.957227 0.131076 4.17132e-21)
(0.968539 0.11936 1.67077e-19)
(0.977996 0.108514 -1.51443e-19)
(0.985811 0.0983584 -1.44952e-19)
(0.992155 0.088736 -1.33723e-19)
(0.997165 0.0795146 2.5614e-19)
(1.00096 0.0705996 -2.47049e-19)
(1.00367 0.0619466 0)
(1.0054 0.0535628 -1.14774e-19)
(1.00625 0.0454873 0)
(1.00635 0.0377489 -1.06553e-19)
(1.00586 0.0303134 -2.02904e-19)
(1.00487 0.023112 1.81364e-22)
(1.00292 0.0163425 1.89986e-19)
(0.998616 0.0108176 -1.85529e-21)
(0.994317 0.00731197 3.11293e-19)
(0.727416 0.257429 6.26472e-19)
(0.784034 0.256041 5.36903e-19)
(0.815753 0.226325 -1.02689e-19)
(0.846415 0.199264 -3.48611e-19)
(0.872487 0.177381 0)
(0.89538 0.159307 2.58036e-19)
(0.915058 0.144007 4.5045e-19)
(0.931987 0.130675 -9.98659e-20)
(0.946414 0.118736 -9.25554e-20)
(0.958639 0.107876 0)
(0.968953 0.097871 0)
(0.977582 0.0885412 1.45051e-19)
(0.984707 0.0797307 -1.37663e-19)
(0.990477 0.0713096 1.30516e-19)
(0.995021 0.0631855 -1.26443e-19)
(0.998459 0.0553171 1.21986e-19)
(1.00091 0.0477135 -1.169e-19)
(1.00249 0.0404126 1.07542e-21)
(1.00331 0.0334415 2.14118e-19)
(1.00352 0.0267759 0)
(1.00321 0.0203654 0)
(1.00198 0.0143498 9.81088e-20)
(0.998811 0.00927226 1.87855e-19)
(0.995322 0.0054428 8.54645e-20)
(0.700051 0.242511 -4.858e-19)
(0.760457 0.242431 -2.93639e-19)
(0.794979 0.209935 -2.09134e-19)
(0.828673 0.182155 6.12657e-19)
(0.856939 0.160665 -1.50539e-19)
(0.8816 0.143373 -1.91361e-19)
(0.902653 0.128982 -2.27291e-19)
(0.920736 0.116588 1.01774e-19)
(0.936219 0.105594 9.06332e-20)
(0.949393 0.0956676 0)
(0.960574 0.0865806 1.5843e-19)
(0.97001 0.0781541 -2.17769e-21)
(0.977898 0.0702346 -1.42091e-19)
(0.984398 0.0626947 2.66723e-19)
(0.989648 0.0554442 -6.57943e-20)
(0.993774 0.0484423 -1.23069e-19)
(0.996895 0.0416963 5.78828e-20)
(0.999127 0.0352393 -1.09629e-21)
(1.00059 0.0290945 -1.11576e-19)
(1.00142 0.0232431 0)
(1.0017 0.0176451 5.15775e-20)
(1.00115 0.01239 -9.81684e-20)
(0.999056 0.00784332 -9.56288e-20)
(0.996434 0.0039592 -8.59609e-20)
(0.666744 0.231413 -3.46231e-20)
(0.73282 0.226136 8.07858e-21)
(0.772037 0.191148 4.22471e-19)
(0.810256 0.163088 4.21268e-21)
(0.8414 0.142388 -7.52939e-20)
(0.868172 0.126147 2.01722e-19)
(0.890826 0.112853 1.17935e-19)
(0.910165 0.101526 0)
(0.926729 0.0915781 0)
(0.940869 0.0826824 0)
(0.952916 0.0746065 8.18017e-20)
(0.963145 0.0671715 2.27597e-19)
(0.97177 0.0602284 -1.44546e-19)
(0.978965 0.053654 2.04752e-19)
(0.984878 0.0473604 -6.64651e-20)
(0.98964 0.0413054 6.31804e-20)
(0.993373 0.0354909 -1.21319e-19)
(0.996196 0.0299421 1.16567e-19)
(0.998227 0.0246757 -2.23525e-19)
(0.999598 0.0196746 2.70438e-19)
(1.00039 0.0149003 -5.16135e-20)
(1.00042 0.0103902 2.01578e-19)
(0.999245 0.00637159 -3.41228e-19)
(0.997572 0.00288196 3.47599e-19)
(0.622836 0.229648 -3.042e-19)
(0.699171 0.202671 -2.48926e-19)
(0.747136 0.168212 5.89717e-20)
(0.791539 0.141353 -2.27974e-19)
(0.82617 0.122178 -1.57841e-19)
(0.855312 0.1074 -2.70141e-19)
(0.879711 0.0954688 -1.76355e-19)
(0.900409 0.0854027 -5.31755e-20)
(0.918077 0.0766387 -9.56697e-20)
(0.933168 0.0688869 8.99226e-20)
(0.946063 0.0619229 -8.26619e-23)
(0.957053 0.0555734 -1.55336e-19)
(0.966376 0.0496953 -7.33237e-20)
(0.974221 0.0441712 -6.88134e-20)
(0.980745 0.038916 -6.66509e-20)
(0.986087 0.0338847 -1.90187e-19)
(0.990371 0.0290714 1.22171e-19)
(0.993717 0.024491 -5.92613e-20)
(0.996247 0.0201534 5.70597e-20)
(0.998081 0.016044 -1.09302e-19)
(0.999304 0.0121292 -5.30135e-20)
(0.999826 0.00841435 -5.12295e-20)
(0.999402 0.00502651 -2.96308e-19)
(0.998518 0.00203873 1.32888e-19)
(0.0383962 -0.0585939 5.11739e-19)
(0.19537 -0.112567 2.45132e-20)
(0.365125 -0.160345 2.96827e-19)
(0.453188 -0.179089 -6.14481e-20)
(0.456873 -0.17562 5.0824e-20)
(0.352962 -0.105108 0)
(0.0863146 -0.0901539 -5.34949e-19)
(0.260516 -0.163914 1.85486e-19)
(0.386189 -0.195582 -2.74488e-19)
(0.440266 -0.199132 -1.08096e-19)
(0.447919 -0.193055 0)
(0.384453 -0.121001 0)
(0.11526 -0.118378 0)
(0.277689 -0.194544 -1.50824e-19)
(0.376097 -0.215079 0)
(0.421581 -0.20925 1.10088e-19)
(0.43209 -0.187195 -5.48924e-21)
(0.410822 -0.108812 0)
(0.138908 -0.148423 0)
(0.281938 -0.220029 -3.01452e-20)
(0.362999 -0.233331 7.68553e-21)
(0.406021 -0.219748 0)
(0.420264 -0.189001 0)
(0.423405 -0.114178 0)
(0.158024 -0.177433 4.91978e-19)
(0.282551 -0.242302 -2.84443e-19)
(0.351358 -0.251025 -2.44009e-19)
(0.392538 -0.23263 -2.29967e-20)
(0.412706 -0.19767 1.94989e-20)
(0.430857 -0.129975 3.19257e-20)
(0.173283 -0.203733 -4.87936e-19)
(0.281684 -0.261401 2.87432e-19)
(0.340816 -0.268028 1.90804e-19)
(0.381037 -0.247587 2.21347e-20)
(0.407489 -0.21173 0)
(0.436268 -0.151844 0)
(0.185495 -0.227201 -3.00691e-20)
(0.279564 -0.277799 -5.65169e-19)
(0.331038 -0.284539 4.41108e-19)
(0.371003 -0.264501 0)
(0.403244 -0.230211 0)
(0.440032 -0.178128 0)
(0.195299 -0.247731 8.96594e-20)
(0.276157 -0.292083 4.96576e-19)
(0.321577 -0.300795 3.97682e-19)
(0.361812 -0.283265 7.29152e-19)
(0.399176 -0.252341 4.7836e-19)
(0.442347 -0.207664 0)
(0.203016 -0.265047 5.93552e-20)
(0.271321 -0.304719 -9.5892e-20)
(0.311988 -0.316977 -7.73592e-19)
(0.35287 -0.303714 -5.9281e-19)
(0.394779 -0.277551 -5.37168e-19)
(0.443313 -0.239882 -1.13464e-19)
(0.208781 -0.278927 0)
(0.264873 -0.316034 0)
(0.301861 -0.333206 6.59783e-19)
(0.343643 -0.325671 1.53933e-19)
(0.389653 -0.30542 -6.63378e-20)
(0.442997 -0.274545 -4.52366e-19)
(0.212338 -0.289205 -1.88402e-18)
(0.256706 -0.32626 0)
(0.290839 -0.349542 -1.57106e-18)
(0.333662 -0.348946 7.65058e-20)
(0.383476 -0.335644 0)
(0.441437 -0.311605 4.48768e-19)
(0.213231 -0.295864 1.8824e-18)
(0.24677 -0.335553 -9.88287e-19)
(0.278617 -0.365986 1.20205e-21)
(0.322521 -0.373357 7.32309e-20)
(0.375958 -0.368005 -6.424e-20)
(0.438596 -0.351092 -1.07523e-19)
(0.210996 -0.299041 2.93682e-20)
(0.235043 -0.344001 9.90337e-19)
(0.264953 -0.382457 8.1569e-19)
(0.309851 -0.398725 -7.48143e-20)
(0.366806 -0.402302 0)
(0.434388 -0.3931 -5.35571e-19)
(0.20526 -0.298983 0)
(0.221479 -0.351609 -1.06544e-18)
(0.249677 -0.39882 -7.69292e-19)
(0.295314 -0.424798 2.68279e-21)
(0.355712 -0.438337 6.29403e-20)
(0.428674 -0.437749 5.32334e-19)
(0.19581 -0.29595 -1.861e-18)
(0.206062 -0.358303 5.98524e-20)
(0.232675 -0.414846 -4.68796e-20)
(0.278631 -0.451222 -4.42133e-19)
(0.342342 -0.475852 -1.25179e-19)
(0.421258 -0.485151 5.1744e-19)
(0.182565 -0.290177 1.89388e-18)
(0.188905 -0.363894 9.84196e-19)
(0.213918 -0.430151 4.62441e-20)
(0.25958 -0.47749 1.1774e-18)
(0.326324 -0.514443 -4.83778e-19)
(0.411837 -0.535274 -4.15977e-19)
(0.165646 -0.281815 2.98257e-20)
(0.170238 -0.367976 -6.66675e-20)
(0.193483 -0.444142 8.05064e-19)
(0.23799 -0.502869 -5.23043e-19)
(0.307259 -0.553445 5.42104e-19)
(0.399987 -0.587868 -1.05331e-19)
(0.145523 -0.270766 -9.02389e-20)
(0.15042 -0.369846 -3.39792e-20)
(0.17157 -0.455922 -6.35101e-19)
(0.213754 -0.526282 -4.22858e-21)
(0.284683 -0.591818 -6.3146e-20)
(0.385155 -0.642441 -4.88863e-19)
(0.123138 -0.256336 -3.03267e-20)
(0.129842 -0.368384 0)
(0.148481 -0.464136 9.05495e-19)
(0.186728 -0.546281 -7.01435e-19)
(0.258031 -0.628007 0)
(0.366439 -0.698075 3.99997e-19)
(0.0999036 -0.236888 3.06345e-20)
(0.108863 -0.361814 -7.53292e-20)
(0.124565 -0.466854 -8.95653e-19)
(0.156703 -0.561076 8.06499e-19)
(0.22672 -0.659568 5.2696e-20)
(0.342321 -0.753196 2.80711e-19)
(0.0773084 -0.209899 -6.20356e-20)
(0.0878699 -0.347579 1.41194e-18)
(0.100209 -0.461623 8.37741e-19)
(0.123557 -0.568695 0)
(0.190158 -0.682984 6.4548e-19)
(0.310104 -0.805986 -5.08963e-19)
(0.0572132 -0.173941 0)
(0.0677875 -0.322823 -1.286e-18)
(0.0762899 -0.445733 -6.09627e-19)
(0.0879232 -0.567521 4.76871e-20)
(0.148248 -0.693147 -5.62068e-19)
(0.264476 -0.85663 0)
(0.0432119 -0.130487 4.94256e-20)
(0.0507057 -0.283227 -4.63799e-20)
(0.0553197 -0.414682 4.72877e-19)
(0.0517996 -0.555554 -4.55433e-20)
(0.100834 -0.678339 8.27151e-20)
(0.192344 -0.91852 4.08765e-20)
(0.037565 -0.0676284 -1.11669e-18)
(0.0356735 -0.199341 0)
(0.0318684 -0.338497 -7.31895e-20)
(-0.00337875 -0.514601 5.95241e-20)
(0.0684943 -0.603522 -7.97041e-20)
(0.0529305 -1.05452 1.03664e-19)
(0.51078 0.191019 3.01152e-19)
(0.658295 0.169237 -1.32667e-19)
(0.72259 0.139846 -2.70611e-19)
(0.773578 0.116454 2.10356e-21)
(0.811827 0.0997858 1.59114e-19)
(0.843376 0.0869855 1.02e-19)
(0.869542 0.0767329 1.20098e-19)
(0.891615 0.0681531 1.06673e-19)
(0.910397 0.0607495 0)
(0.926416 0.0542699 4.52332e-20)
(0.940112 0.0485242 0)
(0.951814 0.0433542 3.83906e-20)
(0.96178 0.0386282 -3.69876e-20)
(0.970215 0.0342368 -3.51775e-20)
(0.977287 0.0300982 6.66856e-20)
(0.98314 0.0261638 6.41779e-20)
(0.987903 0.022418 -1.2406e-19)
(0.991698 0.018864 1.78848e-19)
(0.994646 0.015505 -1.71672e-19)
(0.996864 0.0123284 1.65758e-19)
(0.998438 0.00930733 5.30337e-20)
(0.999354 0.00643241 5.12427e-20)
(0.999518 0.00376877 1.49326e-19)
(0.999245 0.00139403 -4.49328e-20)
(0.485413 0.12154 -1.99472e-20)
(0.6298 0.125411 8.0767e-20)
(0.701938 0.106468 2.90358e-20)
(0.757684 0.0885372 2.42282e-20)
(0.799062 0.0752493 0)
(0.832788 0.0649108 6.90219e-20)
(0.860599 0.0566438 -6.06803e-20)
(0.883974 0.0497732 -8.12723e-20)
(0.903821 0.0439039 2.51574e-20)
(0.920723 0.0388386 -6.74174e-20)
(0.935166 0.0344238 2.14376e-20)
(0.947515 0.0305275 1.04151e-22)
(0.958053 0.0270357 1.11339e-19)
(0.967004 0.0238528 -3.55131e-20)
(0.974547 0.0209028 3.39576e-20)
(0.980832 0.0181336 0)
(0.985991 0.0155182 0)
(0.99015 0.0130472 0)
(0.99343 0.0107163 0)
(0.995947 0.00851466 -5.56456e-20)
(0.99779 0.00642369 4.03291e-20)
(0.998997 0.00443178 5.18745e-20)
(0.999579 0.00256803 -3.76222e-20)
(0.99973 0.000887257 0)
(0.486137 0.0616568 -4.93119e-21)
(0.613011 0.0787977 7.05226e-20)
(0.686581 0.0701833 -5.56476e-20)
(0.744719 0.0583515 1.7865e-22)
(0.788404 0.0488839 -4.72417e-21)
(0.823914 0.0413338 8.99454e-21)
(0.853151 0.0352963 0)
(0.877686 0.0303219 0)
(0.898496 0.0261403 0)
(0.9162 0.0226202 -2.28328e-20)
(0.931317 0.0196473 2.37955e-20)
(0.944237 0.0171169 -7.35321e-21)
(0.955266 0.0149379 9.41231e-21)
(0.964647 0.0130325 1.10563e-20)
(0.972571 0.0113347 8.37912e-21)
(0.979198 0.00979128 -1.63706e-20)
(0.984664 0.00836396 -1.56385e-20)
(0.989094 0.00702956 1.51364e-20)
(0.992614 0.0057748 -1.81802e-21)
(0.995339 0.00459003 0)
(0.997364 0.00346563 1.34635e-20)
(0.998757 0.00239556 -1.63011e-21)
(0.999577 0.00138832 -1.09977e-20)
(0.999952 0.000458118 0)
(0.492608 0.0126848 0)
(0.603482 0.034076 0)
(0.676082 0.032972 0)
(0.734935 0.026727 -5.95813e-21)
(0.780138 0.0211086 0)
(0.816999 0.0164954 -1.73465e-20)
(0.847404 0.0128428 1.58834e-20)
(0.872929 0.00990343 -1.36868e-20)
(0.89457 0.00753594 1.27848e-20)
(0.912967 0.00567219 0)
(0.928658 0.00423788 -2.65811e-21)
(0.942056 0.00315743 -2.48173e-21)
(0.953486 0.00236325 0)
(0.963202 0.00179711 1.54823e-20)
(0.971412 0.0014064 -1.70967e-20)
(0.978281 0.00114041 0)
(0.983952 0.000951748 3.13209e-20)
(0.988555 0.000802316 -3.03223e-20)
(0.992217 0.000668712 -2.72382e-20)
(0.995055 0.000541077 2.8092e-20)
(0.997172 0.000419011 0)