/*--------------------------------*- C++ -*----------------------------------*\
  =========                 |
  \\      /  F ield         | OpenFOAM: The Open Source CFD Toolbox
   \\    /   O peration     | Website:  https://openfoam.org
    \\  /    A nd           | Version:  11
     \\/     M anipulation  |
\*---------------------------------------------------------------------------*/
FoamFile
{
    format      ascii;
    class       volScalarField;
    location    "0.52";
    object      epsilon;
}
// * * * * * * * * * * * * * * * * * * * * * * * * * * * * * * * * * * * * * //

dimensions      [0 2 -3 0 0 0 0];

internalField   nonuniform List<scalar> 
2880
(
1.92937
2.90469
5.86856
6.66126
6.54324
6.22856
0.845207
2.24735
3.5822
4.07298
4.48672
5.11267
0.235886
2.04789
2.77851
2.9934
3.0935
2.99008
0.262611
1.91554
2.35951
2.4364
2.40503
2.17212
1.19014
1.81441
2.08495
2.09569
2.01747
1.82315
1.31877
1.71488
1.88528
1.86068
1.77787
1.64565
1.46539
1.61939
1.72869
1.68684
1.61446
1.53866
1.57668
1.53103
1.60021
1.55049
1.49255
1.45778
1.65513
1.45296
1.49153
1.43776
1.39424
1.38421
1.70182
1.38343
1.39746
1.34155
1.3071
1.31332
1.71689
1.32136
1.31464
1.25669
1.22624
1.24432
1.70872
1.26628
1.24084
1.17969
1.1505
1.17853
1.67407
1.21877
1.17463
1.1086
1.07977
1.11931
1.62809
1.17975
1.11494
1.04248
1.01458
1.07074
1.56891
1.14629
1.06061
0.980712
0.955816
1.0372
1.49499
1.11386
1.01002
0.92277
0.904172
1.02257
1.40286
1.07404
0.960507
0.8681
0.859675
1.03046
1.26613
1.00893
0.908114
0.8165
0.820816
1.06608
0.28054
0.882402
0.849092
0.76917
0.787959
1.13645
0.269194
0.756044
0.786383
0.729743
0.762643
1.23609
0.253353
0.678562
0.744063
0.702611
0.747994
1.32556
0.232316
0.681568
0.751739
0.712848
0.757052
1.43248
0.87809
0.8904
0.895384
0.83357
0.834411
1.64577
2.21283
2.09311
1.86261
1.62184
1.35271
1.61808
2.48284
1.76456
1.71112
1.84464
2.03428
2.25139
2.4703
2.65687
2.78148
2.83686
2.82797
2.75154
2.63525
2.4953
2.34378
2.18959
2.03884
1.89548
1.76167
1.63835
1.52605
1.42526
1.33445
1.25219
2.11312
1.67567
1.68219
1.856
2.08718
2.35715
2.63115
2.85523
2.97911
3.00068
2.95096
2.85787
2.73212
2.58677
2.43303
2.27924
2.13101
1.99189
1.86382
1.74756
1.6432
1.55037
1.46608
1.38212
1.82861
1.60718
1.67242
1.87612
2.14649
2.468
2.7855
2.99129
3.05703
3.02816
2.92809
2.78752
2.62877
2.46582
2.30748
2.15852
2.02135
1.89676
1.78455
1.68393
1.59392
1.51362
1.44291
1.36366
1.67484
1.56929
1.67893
1.90692
2.2188
2.59832
2.93621
3.09646
3.05699
2.84767
2.58139
2.32912
2.10304
1.9064
1.7377
1.59492
1.47627
1.37792
1.2961
1.22679
1.16828
1.11464
1.07647
1.02018
1.59215
1.55622
1.6994
1.95699
2.32959
2.79316
3.12853
3.19911
2.93636
2.4722
2.05341
1.71607
1.4423
1.21931
1.03957
0.89582
0.780879
0.689171
0.616476
0.558185
0.51333
0.473115
0.448517
0.411139
1.541
1.55994
1.73403
2.03622
2.50862
3.0784
3.39145
3.2544
2.73869
2.12963
1.67321
1.33728
1.08626
0.887537
0.724916
0.592044
0.484859
0.399615
0.332644
0.279798
0.238735
0.205331
0.181137
0.155947
1.50166
1.56998
1.7808
2.15747
2.7979
3.47949
3.6339
3.27606
2.48095
1.85735
1.43965
1.14664
0.919393
0.733478
0.580671
0.456396
0.356899
0.278828
0.21886
0.173665
0.139647
0.113648
0.0946931
0.0800595
1.4657
1.58003
1.84293
2.35412
3.25387
3.9385
3.80343
3.10268
2.20298
1.63116
1.25363
0.981381
0.769411
0.599197
0.463914
0.357943
0.275687
0.212043
0.16289
0.125223
0.0968078
0.0759032
0.0617799
0.0537976
1.42749
1.58897
1.94197
2.69979
3.90391
4.30561
3.86285
2.7613
1.92762
1.42133
1.07502
0.81809
0.618734
0.463872
0.346422
0.25906
0.194896
0.148001
0.113639
0.0883051
0.0695465
0.0559435
0.0469176
0.0427329
1.38604
1.6077
2.12527
3.30322
4.60863
4.45994
3.57486
2.3684
1.66487
1.2214
0.907543
0.67303
0.493712
0.359892
0.262039
0.191434
0.140913
0.105016
0.0797242
0.0621177
0.0501433
0.0424206
0.038142
0.0369531
1.34607
1.66233
2.46765
4.23329
4.98931
4.45588
3.03192
2.01604
1.43123
1.03875
0.75399
0.542143
0.388034
0.27814
0.200695
0.146313
0.108075
0.0811541
0.0623035
0.0493729
0.0409213
0.0359366
0.0337251
0.033688
1.31808
1.79536
3.10069
5.206
5.1008
3.96989
2.51791
1.72203
1.2219
0.869119
0.612034
0.428633
0.300579
0.212359
0.151922
0.110521
0.0820895
0.0625472
0.0492108
0.0403408
0.0348086
0.031854
0.0309728
0.0314194
1.31669
2.06446
4.18243
5.60737
4.97535
3.27
2.14218
1.47968
1.0309
0.712033
0.488944
0.336128
0.232837
0.163361
0.116578
0.0849566
0.0635309
0.0490686
0.0394704
0.0333626
0.0298333
0.0282629
0.0282269
0.0289797
1.3598
2.54707
5.47555
5.67831
4.39389
2.75323
1.84817
1.26304
0.856634
0.576409
0.38763
0.262696
0.180592
0.126515
0.0906242
0.0665974
0.0504409
0.0396399
0.0325951
0.028269
0.0259603
0.025188
0.0255062
0.0264632
1.47566
3.39527
6.11922
5.54308
3.68532
2.39328
1.6007
1.06496
0.701504
0.460879
0.304951
0.204816
0.140363
0.0984839
0.0709388
0.0526279
0.0404045
0.032317
0.027137
0.0240727
0.0225869
0.0223079
0.0228245
0.023846
1.68647
4.71178
6.25637
5.07644
3.198
2.09455
1.3704
0.884852
0.567641
0.365967
0.239474
0.160078
0.109712
0.0772643
0.0560285
0.0419634
0.0326177
0.0264854
0.0226234
0.0204245
0.0194748
0.0194819
0.0201068
0.0211021
2.00204
6.05409
6.15679
4.53229
2.87013
1.83783
1.16153
0.726537
0.455386
0.289462
0.188102
0.125519
0.0861962
0.0609936
0.0445427
0.0336641
0.0264502
0.0217385
0.0188058
0.0171886
0.0165703
0.0167041
0.0173743
0.0183108
2.45502
6.80032
6.10144
4.02422
2.53427
1.57803
0.965918
0.588763
0.362835
0.228502
0.147935
0.0987269
0.0679892
0.0483466
0.0355399
0.0270721
0.0214554
0.0177884
0.0155154
0.0142837
0.013854
0.0140328
0.0146756
0.015538
3.16486
7.07447
5.83994
3.67093
2.25306
1.34731
0.79648
0.474269
0.288387
0.180455
0.116602
0.0778887
0.0537952
0.0384228
0.0284024
0.02177
0.0173591
0.0144664
0.0126622
0.0116781
0.0113365
0.0114981
0.0120641
0.0128435
4.29038
7.12631
5.56552
3.36272
1.95732
1.12243
0.645722
0.378643
0.228477
0.142527
0.0920632
0.0615813
0.0426431
0.0305663
0.0226902
0.0174666
0.0139759
0.0116642
0.0101952
0.00936319
0.00903753
0.00912878
0.00957576
0.0102616
6.04192
7.33677
5.31298
2.98983
1.65799
0.920384
0.519383
0.301412
0.180992
0.112719
0.0728212
0.0487699
0.0338365
0.0243119
0.0180941
0.013959
0.0111776
0.00930897
0.00808487
0.00734224
0.00698156
0.00695007
0.00722787
0.00779455
8.38653
7.84596
4.84906
2.56959
1.37011
0.742737
0.414071
0.238996
0.143255
0.0892187
0.0576865
0.0386782
0.026868
0.0193274
0.0143961
0.0111051
0.00887423
0.00734925
0.00631115
0.00562337
0.00519971
0.00499556
0.00503378
0.00540366
10.2444
8.11125
4.18761
2.12699
1.10452
0.591235
0.327941
0.189057
0.113394
0.0707139
0.0457847
0.0307328
0.0213641
0.0153704
0.0114403
0.00880587
0.0070045
0.00575039
0.0048622
0.00422044
0.00374043
0.00336165
0.00307036
0.00302664
12.9624
7.80793
3.501
1.69486
0.869704
0.464993
0.258335
0.14932
0.0898166
0.0561569
0.0364346
0.0244911
0.0170368
0.0122551
0.00910971
0.00699124
0.00553086
0.00449867
0.00374618
0.0031721
0.0027007
0.00227145
0.00184033
0.00122224
2.11295
3.92888
6.03557
6.74933
7.09593
33.0495
0.913123
1.89595
3.16274
4.07155
4.87402
9.59575
0.246067
1.55147
2.54059
3.3013
3.84333
5.17863
0.267909
1.47827
2.27684
2.82554
3.08905
3.43231
0.280633
1.48323
2.11239
2.43666
2.49148
2.49444
1.21581
1.52514
1.98347
2.1152
2.0294
1.8927
1.29207
1.54579
1.87139
1.86136
1.67641
1.47605
1.36111
1.55089
1.77002
1.66218
1.40905
1.18763
1.41464
1.54228
1.68036
1.49762
1.21049
0.984741
1.45032
1.52008
1.60196
1.36421
1.06163
0.838961
1.46969
1.48739
1.53437
1.25938
0.94971
0.732394
1.47646
1.44772
1.47714
1.18068
0.866127
0.653752
1.47328
1.40416
1.43062
1.12548
0.804938
0.595801
1.44758
1.35862
1.3962
1.09087
0.762256
0.553816
1.39632
1.31199
1.37365
1.07712
0.735947
0.524798
1.32339
1.26411
1.36229
1.08045
0.72674
0.507049
1.24006
1.21354
1.35991
1.10414
0.7329
0.500392
0.28086
1.15618
1.36369
1.14981
0.76007
0.504563
0.274779
1.09158
1.37127
1.21996
0.815822
0.522906
0.2622
1.02862
1.37839
1.31774
0.915356
0.562087
0.243426
0.95384
1.38232
1.44747
1.08977
0.63939
0.219595
0.876464
1.37941
1.62823
1.40871
0.808877
0.813057
0.854292
1.36273
1.95017
2.0598
1.30122
1.79932
1.29636
1.61976
2.71244
3.44045
3.35975
15.4832
5.69826
2.57237
1.28678
0.67258
0.362985
0.20295
0.117941
0.0712706
0.0447271
0.0291
0.0195991
0.0136503
0.00982368
0.00729971
0.0055944
0.00441398
0.00357514
0.0029598
0.0024879
0.00210023
0.00175079
0.00140344
0.000939918
7.08672
3.50242
1.84141
0.971507
0.517916
0.282625
0.159409
0.0933239
0.0567309
0.0357648
0.0233482
0.0157651
0.0110012
0.00792921
0.00589908
0.00452548
0.00357386
0.00289776
0.00240289
0.00202493
0.001715
0.00143491
0.00116152
0.000821323
4.24578
2.49863
1.37358
0.738584
0.398939
0.220285
0.125552
0.0741324
0.0453613
0.0287378
0.0188304
0.0127517
0.00892036
0.0064441
0.00480519
0.00369528
0.00292609
0.00237975
0.00198011
0.00167482
0.00142347
0.0011958
0.000978971
0.000727297
2.91829
1.81543
1.02505
0.561423
0.308069
0.17247
0.0994179
0.0592175
0.0364721
0.0232184
0.0152701
0.0103718
0.00727496
0.00526917
0.0039398
0.00303871
0.0024139
0.00196994
0.00164508
0.00139668
0.00119182
0.0010074
0.000837148
0.00065116
2.07995
1.33116
0.769648
0.429796
0.23978
0.136097
0.0793052
0.0476243
0.0295087
0.0188694
0.0124526
0.00848231
0.00596516
0.00433181
0.003248
0.00251286
0.00200293
0.00164057
0.00137554
0.0011731
0.00100667
0.000858775
0.000726797
0.000590034
1.52679
0.995052
0.586528
0.333283
0.188751
0.108459
0.0638055
0.0385902
0.0240365
0.0154301
0.0102137
0.00697489
0.00491678
0.00357942
0.00269138
0.00208898
0.00167131
0.00137487
0.00115856
0.000994033
0.000859755
0.000742473
0.000641321
0.000541355
1.1623
0.762388
0.455559
0.262512
0.150533
0.0873843
0.0518148
0.031523
0.0197198
0.0126997
0.00842745
0.00576753
0.00407439
0.00297331
0.00224222
0.00174671
0.00140375
0.00116106
0.0009848
0.000851697
0.000744231
0.000652209
0.000575432
0.000502787
0.914169
0.599476
0.361233
0.210279
0.121725
0.0712198
0.04249
0.0259691
0.0163004
0.0105241
0.00699756
0.00479757
0.00339584
0.00248429
0.00187966
0.00147072
0.00118863
0.000990004
0.000846783
0.000739689
0.000654352
0.00058278
0.000524884
0.000472321
0.741303
0.48362
0.292489
0.171336
0.0998196
0.0587292
0.0351939
0.0215823
0.0135805
0.00878415
0.00584953
0.00401661
0.00284857
0.0020897
0.0015874
0.00124886
0.00101653
0.000854097
0.000738077
0.000652353
0.000585031
0.000529718
0.000486209
0.000448298
0.618212
0.399809
0.241671
0.141945
0.0829932
0.0489982
0.0294476
0.0180989
0.0114076
0.00738807
0.00492552
0.00338687
0.002407
0.00177157
0.00135236
0.00107123
0.000879626
0.000746881
0.000653145
0.000584806
0.000531944
0.000489353
0.000456679
0.000429409
0.528875
0.33813
0.203523
0.119472
0.0699292
0.041352
0.0248912
0.0153183
0.00966461
0.00626446
0.00418033
0.0028786
0.00205081
0.0015155
0.00116391
0.00092963
0.000771339
0.000662868
0.000587257
0.000532909
0.000491508
0.00045876
0.000434198
0.000414646
0.463068
0.292007
0.174447
0.10206
0.0596763
0.0352922
0.0212541
0.0130872
0.00826113
0.00535773
0.00357842
0.00246821
0.00176372
0.00130979
0.0010133
0.000817271
0.00068617
0.000597442
0.000536452
0.000493251
0.000460845
0.000435664
0.000417178
0.000403226
0.414205
0.257042
0.151965
0.088396
0.0515436
0.030449
0.0183319
0.0112883
0.00712716
0.00462445
0.00309177
0.0021369
0.00153262
0.00114496
0.00089338
0.000728531
0.000619546
0.000546776
0.00049748
0.000463082
0.000437695
0.000418326
0.000404416
0.000394529
0.377946
0.230259
0.13435
0.0775384
0.045025
0.0265464
0.0159697
0.00983168
0.0062084
0.00403058
0.00269822
0.00186966
0.00134696
0.00101326
0.000798271
0.000658784
0.000567705
0.000507746
0.000467727
0.000440235
0.000420311
0.000405425
0.000394987
0.000388049
0.351397
0.209601
0.120375
0.068804
0.039746
0.0233769
0.0140496
0.00864807
0.00546266
0.00354943
0.00238021
0.00165451
0.00119821
0.000908433
0.000723181
0.00060425
0.000527591
0.000477841
0.000445128
0.000423026
0.000407353
0.000395947
0.000388174
0.000383364
0.332635
0.193619
0.109157
0.0616891
0.0354262
0.0207836
0.0124816
0.00768406
0.00485714
0.00316008
0.00212388
0.0014819
0.00107955
0.000825401
0.000664221
0.00056186
0.000496738
0.00045507
0.000428076
0.00041016
0.000397785
0.000389092
0.000383392
0.000380114
0.320425
0.181267
0.100041
0.0558165
0.0318537
0.0186472
0.0111968
0.00689854
0.00436638
0.00284618
0.00191832
0.00134426
0.000985543
0.000760112
0.000618267
0.000529146
0.000473174
0.000437856
0.000415314
0.000400634
0.000390795
0.000384193
0.000380131
0.000377946
0.314047
0.171771
0.0925465
0.0509021
0.0288676
0.016877
0.0101428
0.00626006
0.00397078
0.00259504
0.00175504
0.00123571
0.000911939
0.000709393
0.000582872
0.000504178
0.000455359
0.000424974
0.000405877
0.000393695
0.0003858
0.000380776
0.000377937
0.000376524
0.313301
0.164539
0.086324
0.0467355
0.0263462
0.0154054
0.00928037
0.00574485
0.00365539
0.00239696
0.00162749
0.00115169
0.000855478
0.000670834
0.000556202
0.000485532
0.000442177
0.000415542
0.000399066
0.000388794
0.000382377
0.000378512
0.000376547
0.000375654
0.318422
0.15936
0.0809443
0.0431515
0.0241992
0.0141837
0.00858105
0.00533547
0.0034091
0.0022446
0.00153073
0.00108876
0.000813702
0.000642628
0.000536903
0.000472175
0.000432828
0.000408929
0.000394361
0.000385477
0.00038013
0.00037716
0.000375766
0.000375205
0.331686
0.155527
0.0760028
0.0399493
0.0223626
0.0131799
0.00802576
0.00501978
0.00322396
0.00213267
0.00146114
0.00104439
0.000784786
0.000623431
0.000523959
0.000463334
0.000426718
0.000404668
0.000391386
0.000383438
0.000378808
0.000376421
0.000375378
0.000375041
0.356938
0.152037
0.0710889
0.0370031
0.0208035
0.0123772
0.00760342
0.00479019
0.00309477
0.00205758
0.00141622
0.00101682
0.000767465
0.000612299
0.000516658
0.000458462
0.000423428
0.000402437
0.000389888
0.00038248
0.000378273
0.000376179
0.000375282
0.00037501
0.395895
0.14677
0.0657901
0.0342601
0.0195224
0.0117733
0.00731017
0.00464317
0.00301877
0.0020173
0.00139451
0.00100503
0.000761021
0.000608695
0.000514586
0.000457254
0.000422728
0.000402073
0.000389771
0.000382516
0.000378386
0.000376301
0.000375369
0.00037504
0.440237
0.135767
0.0598635
0.0317852
0.0185558
0.0113794
0.00714846
0.00457883
0.0029955
0.00201127
0.0013954
0.00100828
0.000764767
0.000612258
0.000517622
0.000459639
0.00042456
0.000403496
0.000390903
0.000383442
0.000379127
0.000376794
0.000375653
0.000375135
2.01057
1.96702
3.18916
3.36128
3.10685
2.89882
0.895533
1.65281
2.11119
1.95432
1.47543
0.919874
0.247365
1.55535
1.68712
1.30068
0.847805
0.448597
0.274896
1.51437
1.46291
0.991851
0.604354
0.316202
1.31405
1.50126
1.30993
0.832903
0.498895
0.272928
1.62484
1.4732
1.20486
0.752125
0.456447
0.263465
1.90075
1.44129
1.13707
0.71733
0.447777
0.271297
2.13323
1.42003
1.09951
0.713046
0.458545
0.293867
2.31996
1.41312
1.08738
0.728952
0.489099
0.328124
2.46119
1.41864
1.09446
0.765994
0.535694
0.374805
2.55788
1.43773
1.12286
0.820651
0.598609
0.435757
2.61116
1.46971
1.17018
0.892824
0.679312
0.513815
2.62251
1.51526
1.23544
0.983171
0.780113
0.612812
2.61794
1.57789
1.31823
1.09267
0.903892
0.737637
2.5976
1.65511
1.41759
1.22208
1.05373
0.894274
2.55374
1.74081
1.53124
1.37122
1.23225
1.0896
2.47768
1.82598
1.65489
1.53821
1.44064
1.33055
2.36008
1.89835
1.78179
1.71894
1.67744
1.62257
2.18989
1.94248
1.90328
1.90773
1.93778
1.97214
1.95426
1.94266
2.0113
2.09787
2.21725
2.40268
1.64179
1.90225
2.1195
2.29657
2.51431
2.94288
1.2523
1.83613
2.28284
2.55692
2.87629
3.6504
0.966454
1.95635
2.75596
3.14019
3.56961
4.6594
2.48937
3.71269
5.26386
5.7118
5.62479
6.21236
0.355457
0.114479
0.0537343
0.0298211
0.0179724
0.0112165
0.00712572
0.00459949
0.00302625
0.00204063
0.00142006
0.00102797
0.000780003
0.000623726
0.000526082
0.000465821
0.000429074
0.000406833
0.000393414
0.000385344
0.000380524
0.000377705
0.000376158
0.000375368
0.235123
0.0945184
0.0491048
0.0287643
0.0178506
0.0113108
0.00725368
0.00471275
0.00311537
0.0021078
0.00146992
0.00106475
0.000807046
0.000643512
0.000540467
0.000476228
0.00043661
0.000412339
0.000397487
0.000388361
0.000382693
0.000379152
0.000377032
0.000375809
0.17425
0.0832219
0.0469539
0.028795
0.0182447
0.0116869
0.00754626
0.00492655
0.00326832
0.00221675
0.00154777
0.00112071
0.000847483
0.000672809
0.000561683
0.000491572
0.000447727
0.000420453
0.000403469
0.000392778
0.000385875
0.000381321
0.000378419
0.00037659
0.149448
0.0793104
0.0473774
0.0299162
0.0191902
0.0123716
0.00802182
0.0052536
0.00349381
0.00237349
0.0016579
0.00119894
0.000903594
0.000713327
0.000591038
0.000512868
0.000463216
0.000431791
0.000411841
0.000398978
0.000390387
0.000384478
0.000380513
0.000377885
0.14309
0.0807733
0.0501548
0.0321368
0.0207298
0.0134003
0.00870585
0.00571159
0.00380407
0.00258657
0.00180633
0.00130378
0.000978552
0.000767434
0.000630334
0.000541511
0.000484167
0.000447209
0.000423288
0.000407521
0.000396685
0.00038894
0.000383442
0.000379786
0.147082
0.0869601
0.0551208
0.0355197
0.0229334
0.0148253
0.00963452
0.00632518
0.00421597
0.00286766
0.00200131
0.00144115
0.00107671
0.0008384
0.000682082
0.000579466
0.000512138
0.000467943
0.000438774
0.00041913
0.000405262
0.000395022
0.000387546
0.000382503
0.15976
0.0974939
0.0623832
0.0402161
0.0259149
0.0167237
0.0108589
0.00712837
0.00475249
0.00323262
0.002254
0.00161909
0.00120399
0.00093068
0.000749721
0.000629444
0.000549288
0.000495706
0.00045963
0.000434809
0.000416871
0.000403347
0.000393403
0.000386443
0.180132
0.112524
0.072288
0.0464896
0.029849
0.0192073
0.0124507
0.00816777
0.0054447
0.00370268
0.0025793
0.00184832
0.00136827
0.00105021
0.000837817
0.000695024
0.000598463
0.000532772
0.000487665
0.000455987
0.000432636
0.000414775
0.000401591
0.000391971
0.208928
0.132799
0.0854479
0.054751
0.0349935
0.0224354
0.0145094
0.00950711
0.00633455
0.00430631
0.00299707
0.00214305
0.00157998
0.00120482
0.000952366
0.000780889
0.000663379
0.000582121
0.000525275
0.000484571
0.000454027
0.000430365
0.000412808
0.00039948
0.247397
0.159622
0.10281
0.0656103
0.0417219
0.0266344
0.0171738
0.0112338
0.00747881
0.00508158
0.00353365
0.00252206
0.00185287
0.00140481
0.00110125
0.000893188
0.000748928
0.000647704
0.000575668
0.000523138
0.00048304
0.00045155
0.000427997
0.000409473
0.29775
0.19496
0.125772
0.0799589
0.0505743
0.0321268
0.0206389
0.0134685
0.00895476
0.00607972
0.00422421
0.00301025
0.00220506
0.00166372
0.00129482
0.00104002
0.000861562
0.000734744
0.000643109
0.000575147
0.000522391
0.000480315
0.000448461
0.00042261
0.363234
0.241633
0.156354
0.0990935
0.0623347
0.0393768
0.025181
0.0163799
0.0108687
0.00737025
0.00511587
0.00364067
0.00266051
0.00199939
0.00154672
0.00123203
0.00100977
0.000850125
0.000733238
0.00064521
0.000575758
0.000519403
0.000476019
0.000439773
0.448309
0.303593
0.197454
0.124901
0.0781489
0.0490591
0.0311975
0.0202067
0.0133687
0.00904852
0.00627241
0.00445759
0.00325098
0.00243534
0.00187486
0.00148322
0.00120471
0.00100291
0.000853498
0.000739449
0.000648076
0.000572561
0.000513193
0.000462152
0.558906
0.386283
0.253192
0.160126
0.0997016
0.0621663
0.0392679
0.0252924
0.0166644
0.0112472
0.00778117
0.00552078
0.00401891
0.00300275
0.00230284
0.00181194
0.00146103
0.00120499
0.00101369
0.000865968
0.000745944
0.00064488
0.000563463
0.000491358
0.702704
0.49705
0.329339
0.208733
0.129476
0.0801713
0.0502492
0.0321391
0.0210576
0.0141541
0.0097637
0.00691212
0.00502163
0.00374324
0.00286191
0.00224239
0.00179794
0.00147197
0.0012267
0.00103548
0.000878161
0.000743244
0.000631608
0.000529523
0.88949
0.645519
0.433776
0.27636
0.171112
0.105269
0.0654222
0.0414924
0.0269903
0.0180399
0.0123922
0.00874564
0.00633773
0.00471309
0.00359384
0.00280658
0.00224074
0.00182437
0.00150947
0.00126215
0.0010565
0.000877006
0.000724195
0.000579404
1.13162
0.84384
0.57683
0.370776
0.22985
0.140715
0.0867126
0.0544732
0.0351216
0.0233023
0.0159155
0.0111834
0.00807712
0.00598983
0.00455542
0.0035476
0.00282316
0.00228936
0.00188445
0.00156481
0.0012968
0.00105904
0.000850428
0.000644483
1.4442
1.10695
0.771349
0.502174
0.312989
0.191256
0.117007
0.0727796
0.0464475
0.0305367
0.0207008
0.0144608
0.0103969
0.00768278
0.00582572
0.00452481
0.00359132
0.00290388
0.00238202
0.001969
0.00162083
0.00130757
0.00102377
0.000729227
1.84013
1.45397
1.03228
0.682982
0.430133
0.263574
0.16056
0.0989792
0.0624865
0.0406474
0.0273005
0.0189271
0.0135274
0.00995019
0.00751825
0.00582297
0.00461095
0.00372065
0.00304565
0.00251141
0.00206023
0.00165014
0.00126581
0.000840249
2.32291
1.90363
1.37414
0.926409
0.592746
0.366489
0.223422
0.136894
0.0855519
0.0550211
0.0365577
0.0251112
0.0178133
0.013027
0.00980077
0.00756777
0.00598071
0.0048205
0.00394398
0.00325195
0.00266864
0.00213593
0.00161866
0.00099498
2.91116
2.46245
1.80489
1.24275
0.812259
0.510412
0.313619
0.192003
0.119113
0.0757822
0.0497718
0.0338238
0.0237789
0.017268
0.0129262
0.00995021
0.00785417
0.00633518
0.00519744
0.00430726
0.00356485
0.00288935
0.00220946
0.00133344
3.62535
3.11352
2.31575
1.63284
1.096
0.705315
0.440595
0.271623
0.168179
0.106134
0.0689391
0.0463159
0.0322285
0.0232116
0.0172743
0.0132555
0.0104622
0.00846908
0.00700712
0.00589974
0.00502359
0.00429514
0.00373239
0.00364516
4.4355
3.75547
2.862
2.07711
1.4405
0.956641
0.613215
0.384373
0.23947
0.150717
0.0970731
0.064505
0.0443925
0.0316687
0.0234006
0.0178834
0.014111
0.0114789
0.0096199
0.00831052
0.00741469
0.00686805
0.00675677
0.00736163
5.04771
4.20932
3.3403
2.52381
1.8231
1.25937
0.835966
0.538329
0.340941
0.21578
0.138539
0.0912731
0.0621388
0.0438564
0.0321127
0.0243826
0.0191839
0.0156408
0.0132376
0.011675
0.0107826
0.0104897
0.0108437
0.0119391
2.2394
3.26211
3.98684
3.97888
3.37719
3.40954
0.956346
1.48879
1.92049
2.04467
1.96319
2.31856
0.253091
1.21061
1.55331
1.64706
1.66054
1.97643
0.273748
1.18939
1.45595
1.52674
1.56186
1.81813
1.24537
1.26792
1.43641
1.49443
1.53588
1.74216
1.48007
1.34078
1.44712
1.49495
1.53981
1.71074
1.6807
1.40019
1.47035
1.51276
1.55942
1.70265
1.8445
1.44451
1.49588
1.53725
1.58497
1.70781
1.97238
1.47428
1.51992
1.56366
1.61194
1.71956
2.0667
1.49114
1.54178
1.59037
1.63865
1.73371
2.1305
1.49906
1.56228
1.61752
1.665
1.74859
2.16763
1.50191
1.58284
1.64626
1.69211
1.76455
2.17247
1.50065
1.60497
1.67836
1.72194
1.78283
2.14211
1.49496
1.63046
1.71598
1.757
1.80512
2.07349
1.48533
1.661
1.76175
1.80031
1.83343
1.96686
1.47225
1.69792
1.81915
1.85569
1.87046
1.8235
1.45583
1.74224
1.89231
1.92898
1.92047
1.64619
1.43577
1.79447
1.98679
2.03005
1.99018
1.44026
1.41184
1.85409
2.11164
2.17329
2.0965
1.21746
1.3839
1.91982
2.28103
2.38617
2.2756
0.269602
1.35361
1.99227
2.51942
2.72197
2.60631
0.248443
1.35177
2.08754
2.87618
3.30047
3.3435
0.935736
1.47473
2.33098
3.48488
4.44846
5.71907
2.14837
2.40182
3.50154
5.21545
6.22528
26.4133
5.48698
4.63276
3.70577
2.91203
2.20261
1.59379
1.10441
0.737749
0.480149
0.308763
0.199224
0.130787
0.0882623
0.061614
0.044623
0.0335638
0.0262355
0.0213463
0.0181442
0.0161947
0.0152425
0.0151574
0.015871
0.0173713
5.60305
5.18359
4.07362
3.23601
2.54463
1.93068
1.40333
0.97954
0.661421
0.436849
0.286165
0.188661
0.126795
0.0876904
0.0627693
0.0466553
0.0360969
0.0291679
0.0247402
0.0221496
0.0209853
0.0210079
0.021993
0.0238606
4.63829
5.66145
4.7301
3.60961
2.86092
2.24907
1.71113
1.25182
0.882749
0.604399
0.406216
0.271606
0.183152
0.126041
0.0892974
0.065524
0.0500326
0.0399654
0.0336123
0.0299401
0.0282873
0.0282502
0.0294143
0.0316248
3.37485
5.65698
5.30113
4.16434
3.21614
2.55499
2.01125
1.53723
1.13441
0.810037
0.563607
0.386127
0.263765
0.181944
0.12814
0.0929543
0.0699661
0.0550539
0.0456556
0.0401766
0.037572
0.0371931
0.0384077
0.0409232
2.69294
5.0743
5.53923
4.8784
3.69149
2.88601
2.30335
1.82068
1.40154
1.0455
0.757335
0.536238
0.37479
0.261589
0.184488
0.132898
0.0987476
0.0764273
0.0622426
0.0537988
0.0494882
0.0483006
0.0493673
0.0520761
2.35026
4.09366
5.39483
5.23924
4.37178
3.32655
2.61961
2.10031
1.66978
1.29679
0.979331
0.720531
0.519605
0.37059
0.264217
0.190443
0.140352
0.107007
0.0854386
0.0722354
0.0650176
0.0622476
0.0628373
0.0655204
2.15889
3.35012
4.82181
5.25624
4.8924
3.9207
3.01736
2.39587
1.93296
1.54844
1.2152
0.930317
0.695883
0.511376
0.372219
0.271059
0.199723
0.150771
0.118223
0.0976088
0.0856347
0.0800408
0.0795143
0.0818733
2.05025
2.88326
4.09155
5.01036
5.01156
4.5395
3.5438
2.75726
2.20741
1.79359
1.44941
1.15076
0.89392
0.680277
0.509628
0.378669
0.281766
0.212428
0.164527
0.132912
0.113492
0.103188
0.100194
0.10199
1.98891
2.59917
3.51734
4.47075
4.91573
4.77105
4.1524
3.24347
2.54383
2.04941
1.67612
1.3667
1.09837
0.866322
0.671119
0.512807
0.389181
0.296137
0.228698
0.181933
0.151495
0.133735
0.126296
0.126868
1.95356
2.42359
3.12423
3.9473
4.60728
4.74119
4.50119
3.81477
2.99069
2.36121
1.91286
1.57447
1.29566
1.0544
0.844752
0.666464
0.519698
0.403127
0.313936
0.248511
0.203136
0.174404
0.159797
0.157667
1.93323
2.31196
2.8645
3.54114
4.19848
4.58773
4.56177
4.23995
3.50258
2.76784
2.20414
1.7961
1.48716
1.23441
1.01692
0.827519
0.665007
0.529351
0.419835
0.334681
0.271536
0.228185
0.203012
0.195796
1.92237
2.23789
2.68965
3.24752
3.83573
4.30881
4.48741
4.37676
3.9526
3.24322
2.58575
2.07485
1.69908
1.41388
1.18242
0.985061
0.813921
0.666127
0.54115
0.438623
0.357637
0.297319
0.258016
0.242691
1.9176
2.18529
2.56441
3.03255
3.54399
4.01376
4.31791
4.35126
4.17532
3.68143
3.02781
2.4388
1.97364
1.62391
1.35682
1.14149
0.959437
0.803654
0.669422
0.554591
0.458873
0.382144
0.326282
0.299398
1.91737
2.14401
2.46516
2.86327
3.30678
3.74256
4.08977
4.25574
4.21314
3.96179
3.43952
2.86062
2.33489
1.90772
1.57742
1.32139
1.11595
0.944636
0.799552
0.67565
0.569407
0.479763
0.40772
0.366276
1.92113
2.10763
2.37688
2.71565
3.09981
3.4937
3.84385
4.08265
4.1502
4.05303
3.74257
3.26101
2.75064
2.28115
1.88625
1.56884
1.31597
1.11267
0.946464
0.807327
0.689051
0.588126
0.501978
0.443901
1.92875
2.07259
2.2911
2.57521
2.90447
3.25384
3.58669
3.85455
4.00711
4.01179
3.87451
3.55239
3.13547
2.69526
2.27858
1.91193
1.60365
1.35085
1.14495
0.975951
0.835444
0.717391
0.615819
0.538324
1.94098
2.03751
2.20456
2.43601
2.71183
3.01354
3.31566
3.58359
3.77865
3.86664
3.83507
3.67667
3.39255
3.04453
2.67195
2.3072
1.97245
1.67894
1.42887
1.21872
1.04297
0.89578
0.771185
0.6686
1.96012
2.00252
2.11783
2.29892
2.52269
2.77354
3.03356
3.27837
3.48031
3.61057
3.65274
3.60154
3.45114
3.21869
2.93745
2.63161
2.32393
2.03176
1.76506
1.52807
1.32144
1.14295
0.990931
0.861052
1.98788
1.97006
2.03357
2.16954
2.34553
2.54547
2.75563
2.95894
3.13656
3.26988
3.34121
3.3486
3.28667
3.15487
2.9707
2.75123
2.51241
2.26856
2.03102
1.80678
1.60065
1.41433
1.25075
1.10964
2.02693
1.94242
1.95613
2.05565
2.19299
2.34833
2.50889
2.66187
2.79526
2.89756
2.95759
2.97632
2.94799
2.8738
2.75968
2.61458
2.44758
2.26766
2.08322
1.90176
1.72844
1.56701
1.4238
1.30768
2.09212
1.91714
1.89035
1.96443
2.07816
2.2071
2.33434
2.44556
2.52972
2.58152
2.60232
2.59423
2.55439
2.48742
2.39805
2.29119
2.17167
2.04408
1.91267
1.78121
1.65375
1.53369
1.42603
1.33868
2.20337
1.89472
1.83666
1.90032
2.01328
2.13986
2.26026
2.35786
2.41682
2.44103
2.43005
2.38233
2.30617
2.20959
2.09983
1.98308
1.8643
1.74725
1.63474
1.52883
1.43071
1.34252
1.26787
1.20758
2.39189
1.87319
1.79161
1.8626
1.98863
2.12576
2.2556
2.3589
2.41606
2.43624
2.41427
2.35101
2.25776
2.14438
2.01942
1.88984
1.76087
1.63622
1.51833
1.40881
1.30886
1.2203
1.14568
1.08462
2.73092
1.83933
1.75037
1.8457
1.99682
2.16648
2.33233
2.46971
2.55217
2.58457
2.56518
2.49475
2.38737
2.25635
2.11287
1.96568
1.82105
1.68319
1.55464
1.43677
1.33031
1.236
1.15507
1.08679
)
;

boundaryField
{
    rotor
    {
        type            epsilonWallFunction;
        value           nonuniform List<scalar> 
144
(
1.92937
2.90469
5.86856
6.66126
6.54324
6.22856
1.92937
0.845207
0.235886
0.262611
1.19014
1.31877
1.46539
1.57668
1.65513
1.70182
1.71689
1.70872
1.67407
1.62809
1.56891
1.49499
1.40286
1.26613
0.28054
0.269194
0.253353
0.232316
0.87809
2.21283
2.21283
2.09311
1.86261
1.62184
1.35271
1.61808
2.11295
3.92888
6.03557
6.74933
7.09593
33.0495
2.11295
0.913123
0.246067
0.267909
0.280633
1.21581
1.29207
1.36111
1.41464
1.45032
1.46969
1.47646
1.47328
1.44758
1.39632
1.32339
1.24006
0.28086
0.274779
0.2622
0.243426
0.219595
0.813057
1.79932
1.79932
1.29636
1.61976
2.71244
3.44045
3.35975
2.01057
1.96702
3.18916
3.36128
3.10685
2.89882
2.01057
0.895533
0.247365
0.274896
1.31405
1.62484
1.90075
2.13323
2.31996
2.46119
2.55788
2.61116
2.62251
2.61794
2.5976
2.55374
2.47768
2.36008
2.18989
1.95426
1.64179
1.2523
0.966454
2.48937
2.48937
3.71269
5.26386
5.7118
5.62479
6.21236
2.2394
3.26211
3.98684
3.97888
3.37719
3.40954
2.2394
0.956346
0.253091
0.273748
1.24537
1.48007
1.6807
1.8445
1.97238
2.0667
2.1305
2.16763
2.17247
2.14211
2.07349
1.96686
1.8235
1.64619
1.44026
1.21746
0.269602
0.248443
0.935736
2.14837
2.14837
2.40182
3.50154
5.21545
6.22528
26.4133
)
;
    }
    freestream
    {
        type            inletOutlet;
        inletValue      uniform 0.000375;
        value           nonuniform List<scalar> 
96
(
1.25219
1.38212
1.36366
1.02018
0.411139
0.155947
0.0800595
0.0537976
0.0427329
0.0369531
0.033688
0.0314194
0.0289797
0.0264632
0.023846
0.0211021
0.0183108
0.015538
0.0128435
0.0102616
0.00779455
0.00540366
0.00302664
0.000375
0.000375
0.000375
0.000375
0.000375
0.000375
0.000375
0.000375
0.000375
0.000375
0.000375
0.000375
0.000375
0.000375
0.000375
0.000375
0.000375
0.000375
0.000375
0.000375
0.000375
0.000375
0.000375
0.000375
0.000375
0.000375
0.000375
0.000375
0.000375
0.000375
0.000375
0.000375
0.000375
0.000375
0.000375
0.000375
0.000375
0.000375
0.000375
0.000375
0.000375
0.000375
0.000375
0.000375
0.000375
0.000375
0.00364516
0.00736163
0.0119391
0.0173713
0.0238606
0.0316248
0.0409232
0.0520761
0.0655204
0.0818733
0.10199
0.126868
0.157667
0.195796
0.242691
0.299398
0.366276
0.443901
0.538324
0.6686
0.861052
1.10964
1.30768
1.33868
1.20758
1.08462
1.08679
)
;
    }
    frontAndBack
    {
        type            empty;
    }
}


// ************************************************************************* //
