/*--------------------------------*- C++ -*----------------------------------*\
  =========                 |
  \\      /  F ield         | OpenFOAM: The Open Source CFD Toolbox
   \\    /   O peration     | Website:  https://openfoam.org
    \\  /    A nd           | Version:  11
     \\/     M anipulation  |
\*---------------------------------------------------------------------------*/
FoamFile
{
    format      ascii;
    class       volScalarField;
    location    "0.52";
    object      k;
}
// * * * * * * * * * * * * * * * * * * * * * * * * * * * * * * * * * * * * * //

dimensions      [0 2 -2 0 0 0 0];

internalField   nonuniform List<scalar> 
2880
(
0.00413706
0.0120296
0.0399785
0.0676439
0.0927648
0.118524
0.0162729
0.0261679
0.0574144
0.081403
0.102671
0.124168
0.0209473
0.0391163
0.0699441
0.0912147
0.110289
0.126946
0.0232646
0.0482644
0.077537
0.0969699
0.114022
0.126949
0.0249459
0.0549246
0.0821259
0.100098
0.115323
0.125875
0.026839
0.0595523
0.0846956
0.101403
0.115056
0.124138
0.0287428
0.0625441
0.0858329
0.101369
0.113653
0.121865
0.0301809
0.0642872
0.0859043
0.100349
0.111391
0.119002
0.0311753
0.0650436
0.0851894
0.0984684
0.10845
0.115595
0.03176
0.0650157
0.0837874
0.0959434
0.104927
0.111647
0.031948
0.0643241
0.0818538
0.0928941
0.100914
0.107231
0.0318474
0.063082
0.0794744
0.0894153
0.096511
0.102481
0.0314151
0.061335
0.0767063
0.085585
0.0918184
0.0975725
0.030837
0.0590904
0.0735875
0.0814667
0.0869335
0.0926957
0.0300846
0.0563894
0.0701384
0.0771105
0.0819405
0.0880263
0.0291315
0.0532341
0.0663626
0.0725532
0.0769055
0.0837474
0.0279216
0.0495809
0.0622537
0.0678192
0.0718781
0.0799737
0.026139
0.0453896
0.0578207
0.0629211
0.066923
0.0766839
0.0249155
0.0410388
0.0531373
0.0578543
0.062007
0.0737906
0.0238483
0.0370179
0.0483138
0.0525836
0.0570022
0.0710246
0.0224884
0.0332936
0.0432897
0.0470147
0.0516076
0.0665356
0.0206257
0.0292794
0.0375772
0.040846
0.0451768
0.0618719
0.0168987
0.0234714
0.0296547
0.0330555
0.0359314
0.0560752
0.00474422
0.008682
0.012706
0.0164794
0.0191674
0.0305447
0.149957
0.15576
0.158728
0.163899
0.170967
0.17943
0.188486
0.197021
0.204025
0.208987
0.211744
0.212664
0.211799
0.209345
0.205598
0.200868
0.195484
0.189823
0.184138
0.178624
0.173438
0.168587
0.163994
0.159705
0.142956
0.14821
0.151422
0.156014
0.162202
0.169734
0.177825
0.185259
0.19095
0.194868
0.197283
0.198458
0.19852
0.197585
0.195707
0.192985
0.189676
0.185969
0.18203
0.177998
0.173988
0.170132
0.16633
0.162379
0.138
0.141936
0.144556
0.148038
0.152787
0.158594
0.164449
0.169024
0.170563
0.170271
0.169256
0.168507
0.167999
0.16749
0.166818
0.165866
0.164597
0.163127
0.161535
0.159841
0.158074
0.15628
0.154404
0.151815
0.134341
0.137025
0.138687
0.140924
0.144288
0.148748
0.151806
0.151816
0.146624
0.139222
0.132303
0.127809
0.125102
0.123188
0.121625
0.120322
0.119278
0.118474
0.117862
0.11734
0.116873
0.116279
0.115777
0.11452
0.131482
0.133356
0.134319
0.135987
0.139788
0.144924
0.147347
0.142294
0.129022
0.116646
0.108651
0.103837
0.0999563
0.095975
0.0917257
0.0874081
0.0832659
0.0794512
0.0760679
0.0730997
0.0706146
0.0682119
0.0664087
0.0636793
0.129069
0.130748
0.131709
0.133947
0.139549
0.146171
0.147459
0.139095
0.120688
0.106709
0.0989581
0.0943137
0.0899327
0.0850775
0.0797813
0.074353
0.0690502
0.0640459
0.0594596
0.0553238
0.0516869
0.0482907
0.0454741
0.0427843
0.126765
0.128896
0.130762
0.134954
0.143903
0.152033
0.150161
0.135429
0.114253
0.101313
0.0951005
0.0905993
0.0858519
0.0804364
0.0746246
0.0687076
0.0629472
0.0575392
0.0526045
0.0482226
0.0444467
0.0411571
0.0386942
0.0371285
0.124264
0.127419
0.131195
0.139078
0.152592
0.15911
0.151661
0.128292
0.108075
0.0994024
0.0941672
0.0894916
0.0843915
0.078521
0.0722292
0.0659181
0.0598966
0.0543553
0.0493931
0.0450665
0.0413996
0.0385619
0.0369061
0.0361981
0.121311
0.12601
0.132878
0.146444
0.163598
0.163135
0.14866
0.11965
0.106015
0.0993461
0.094278
0.0891204
0.0830111
0.0761667
0.0692056
0.0625637
0.0564913
0.0511169
0.0465065
0.0427031
0.0396898
0.0378458
0.0368649
0.0368806
0.117858
0.124613
0.136155
0.156918
0.171133
0.164316
0.136895
0.115178
0.105958
0.100114
0.0944499
0.0879256
0.0803709
0.0726264
0.0652686
0.0586109
0.052799
0.0478957
0.0439356
0.0409571
0.0390437
0.0380356
0.0380276
0.0386294
0.114009
0.123554
0.141923
0.16907
0.173465
0.157807
0.12726
0.114211
0.107142
0.100682
0.0937003
0.0854904
0.0770007
0.0689062
0.0615875
0.0552189
0.049868
0.045563
0.0423249
0.0401701
0.0390889
0.0389622
0.0395202
0.0406789
0.110021
0.123609
0.151184
0.17642
0.171161
0.143039
0.124239
0.115168
0.107914
0.100438
0.0914483
0.0820863
0.073156
0.0650939
0.0580928
0.0522129
0.0474602
0.0438282
0.041307
0.03987
0.0394619
0.0398456
0.0409241
0.0423223
0.106314
0.125974
0.163673
0.177993
0.161723
0.136082
0.124199
0.116373
0.108133
0.0983565
0.0880052
0.0780652
0.0690814
0.0612843
0.054732
0.0494069
0.0452706
0.0422832
0.0403962
0.0395344
0.0395729
0.0402636
0.0416341
0.0430776
0.103507
0.132009
0.174157
0.173059
0.150218
0.134853
0.126304
0.117073
0.106587
0.0950798
0.083888
0.0737615
0.0649909
0.0576173
0.0515816
0.046804
0.0432149
0.0407535
0.0393509
0.0389145
0.0392391
0.0402258
0.0417006
0.0431598
0.102081
0.142341
0.177281
0.166163
0.146519
0.136909
0.127584
0.116472
0.10362
0.0908908
0.0793349
0.0693486
0.0609694
0.054089
0.0485687
0.0442881
0.0411554
0.0390951
0.0380275
0.0378543
0.0383514
0.039494
0.041024
0.0424717
0.102122
0.154749
0.174873
0.159553
0.147158
0.140209
0.128238
0.114074
0.0995173
0.0861626
0.074626
0.0649785
0.0570653
0.0506769
0.0456242
0.0417614
0.0389822
0.0372024
0.0363393
0.0362965
0.0368633
0.0380323
0.039533
0.0409383
0.103318
0.165455
0.169442
0.158153
0.15238
0.142168
0.127061
0.110366
0.0947294
0.0811871
0.0699086
0.060701
0.0532727
0.0473475
0.0427035
0.039178
0.0366555
0.0350492
0.0342799
0.034261
0.0348134
0.0359182
0.0373386
0.0386874
0.104349
0.17
0.167856
0.161704
0.157219
0.143105
0.12409
0.105639
0.0895194
0.076125
0.0652559
0.0565331
0.0495778
0.0440739
0.0397795
0.0365203
0.0341743
0.0326541
0.0318881
0.0318041
0.0322648
0.0332357
0.0345342
0.0358169
0.102468
0.170636
0.169872
0.169548
0.161113
0.141355
0.119635
0.100262
0.0841227
0.0710942
0.0607141
0.0524836
0.0459735
0.0408459
0.0368476
0.0337963
0.0315643
0.0300635
0.0292294
0.0290053
0.0293013
0.0300675
0.031201
0.0324076
0.0978123
0.170167
0.1794
0.178366
0.162613
0.137596
0.114243
0.0945567
0.0787018
0.0661661
0.0563092
0.0485597
0.0424618
0.0376686
0.0339221
0.0310345
0.0288724
0.0273444
0.0263885
0.0259596
0.0260117
0.0264937
0.0273951
0.028503
0.104007
0.178076
0.191592
0.184762
0.160585
0.132447
0.108228
0.0886784
0.073326
0.06137
0.0520551
0.0447721
0.0390567
0.0345627
0.0310329
0.0282777
0.0261586
0.0245771
0.0234661
0.0227817
0.0224945
0.0225956
0.0231311
0.0240774
0.133922
0.194804
0.204682
0.187584
0.155623
0.126046
0.101765
0.0827381
0.0680565
0.056741
0.0479775
0.0411459
0.0357876
0.0315643
0.028225
0.0255817
0.0234925
0.0218503
0.0205752
0.0196081
0.018907
0.0184693
0.0184152
0.0189955
0.159562
0.21587
0.213913
0.185705
0.149232
0.118867
0.095056
0.0768292
0.0629415
0.0523102
0.0441037
0.0377123
0.032693
0.0287215
0.0255568
0.0230161
0.0209576
0.0192679
0.0178523
0.0166261
0.0155065
0.014426
0.0134207
0.0129564
0.19324
0.236623
0.217898
0.177606
0.140602
0.110936
0.0882
0.0710225
0.0580257
0.048109
0.0404622
0.0345031
0.0298129
0.0260859
0.0230943
0.0206641
0.0186585
0.0169647
0.0154841
0.0141195
0.0127621
0.0112831
0.00953564
0.00693949
0.00452924
0.0162799
0.0411437
0.0685781
0.100634
0.137036
0.0175702
0.0392776
0.0726951
0.105988
0.14371
0.221557
0.0218482
0.050147
0.0861653
0.120987
0.158048
0.219165
0.0238127
0.0569204
0.0928907
0.125499
0.158928
0.201519
0.024954
0.0616477
0.0959636
0.125157
0.152804
0.182771
0.0253665
0.0651283
0.0968312
0.121946
0.144303
0.165753
0.0264144
0.0675114
0.0965156
0.11769
0.135744
0.151335
0.027345
0.0690661
0.0953729
0.113228
0.127969
0.139466
0.0280565
0.0698808
0.0936864
0.108937
0.121161
0.129751
0.0285259
0.0699863
0.0916354
0.104962
0.115282
0.121759
0.0287783
0.0694658
0.0893433
0.101336
0.110233
0.115138
0.0288647
0.0683348
0.0868924
0.098038
0.105882
0.109623
0.0288206
0.0666371
0.0843265
0.0950162
0.102087
0.105021
0.0284818
0.0644598
0.0816476
0.0921954
0.0987464
0.101158
0.027804
0.0618439
0.0788147
0.0894847
0.0957676
0.09789
0.0268296
0.0587877
0.0757457
0.0867817
0.0930533
0.0950893
0.025718
0.0552521
0.0723127
0.0839511
0.0905016
0.0926356
0.025015
0.0511609
0.0683347
0.080807
0.0879831
0.0904048
0.0243839
0.0464674
0.0635544
0.0770845
0.0853231
0.0882442
0.0232701
0.0412484
0.0576231
0.0723872
0.0822634
0.0859493
0.0216027
0.0352183
0.0500742
0.0660987
0.0783797
0.083233
0.0194858
0.0280472
0.0402129
0.0571934
0.0728624
0.0796779
0.015637
0.0187287
0.0267112
0.0436896
0.0635678
0.0742509
0.00385432
0.00536262
0.0110329
0.0276116
0.0489311
0.0635821
0.243986
0.245858
0.212205
0.167361
0.130907
0.102675
0.0813791
0.0654071
0.0533561
0.0441655
0.0370737
0.0315393
0.0271736
0.0236931
0.020886
0.0185912
0.0166824
0.0150574
0.0136292
0.0123168
0.0110335
0.00968441
0.00816697
0.0060763
0.265645
0.24183
0.196214
0.154317
0.120375
0.0943179
0.0747412
0.0600632
0.0489722
0.0404973
0.0339453
0.028823
0.0247751
0.0215416
0.0189285
0.0167886
0.0150076
0.0134947
0.0121742
0.0109761
0.00982329
0.00863398
0.00734457
0.00569082
0.241305
0.220428
0.178784
0.140662
0.10987
0.0862516
0.0684603
0.0550649
0.0449017
0.03711
0.0310712
0.0263411
0.0225976
0.0196038
0.0171828
0.0152005
0.0135536
0.0121602
0.0109529
0.00986889
0.00883816
0.00779163
0.0066964
0.00537992
0.216734
0.197993
0.161254
0.127399
0.0999276
0.0787258
0.0626408
0.0504504
0.0411531
0.033998
0.0284376
0.0240739
0.0206157
0.0178477
0.0156088
0.0137769
0.0122578
0.0109779
0.00987643
0.00889727
0.00797827
0.00706416
0.00614374
0.00510065
0.193344
0.176479
0.14483
0.115184
0.0908389
0.0718545
0.0573214
0.0462274
0.0377209
0.0311493
0.0260287
0.0220026
0.0188078
0.016249
0.0141793
0.0124874
0.011088
0.00991436
0.00891239
0.00803223
0.00721982
0.006432
0.00567028
0.00485282
0.172972
0.157556
0.130284
0.104313
0.0827021
0.0656629
0.0525023
0.0423873
0.0345927
0.0285499
0.0238295
0.0201115
0.0171582
0.0147917
0.0128785
0.0113173
0.0100306
0.00895824
0.00805205
0.00726784
0.00655858
0.00589026
0.00527004
0.00463757
0.155946
0.14153
0.117745
0.0948103
0.0755021
0.0601294
0.0481634
0.0389124
0.0317531
0.0261856
0.0218269
0.0183889
0.015656
0.0134663
0.0116984
0.0102599
0.00908057
0.00810613
0.00729325
0.00660241
0.00599207
0.00543442
0.00493733
0.00445428
0.141979
0.128196
0.107081
0.086579
0.0691727
0.0552096
0.0442745
0.0357808
0.0291848
0.0240424
0.0200095
0.0168253
0.0142935
0.0122668
0.0106344
0.00931205
0.00823588
0.00735655
0.00663458
0.00603373
0.00551637
0.00505837
0.00466547
0.00430077
0.130563
0.117189
0.098063
0.0794777
0.0636271
0.0508496
0.0408002
0.0329681
0.02687
0.0221068
0.0183668
0.0154123
0.0130644
0.0111884
0.00968285
0.00847093
0.00749406
0.00670686
0.00607252
0.00555681
0.0051246
0.00475372
0.00444662
0.00417396
0.121182
0.108138
0.0904395
0.0733539
0.0587733
0.0469925
0.037704
0.0304491
0.0247908
0.0203656
0.0168887
0.0141425
0.0119629
0.0102264
0.0088399
0.00773288
0.00685123
0.00615242
0.00560114
0.00516406
0.00480767
0.0045108
0.00427272
0.00407051
0.113483
0.100631
0.083972
0.0680632
0.0545231
0.0435831
0.0349498
0.0281994
0.0229296
0.0188058
0.0155655
0.0130083
0.0109829
0.00937559
0.00810069
0.00709297
0.00630183
0.00568657
0.00521234
0.004846
0.00455526
0.00431968
0.00413615
0.00398724
0.107147
0.0943638
0.0784572
0.0634772
0.0507961
0.0405698
0.0325032
0.026195
0.0212694
0.0174148
0.0143875
0.0120018
0.0101177
0.00862996
0.00745931
0.00654493
0.00583878
0.00530104
0.00489659
0.00459222
0.0043569
0.00417111
0.00403018
0.00392128
0.101921
0.089097
0.0737265
0.0594854
0.0475207
0.0379056
0.0303324
0.024414
0.0197941
0.0161804
0.0133451
0.0111151
0.00936021
0.00798281
0.00690896
0.00608143
0.00545386
0.00498654
0.00464374
0.00439232
0.00420284
0.00405694
0.00394911
0.00387008
0.0976025
0.0846425
0.0696404
0.0559929
0.0446335
0.0355481
0.0284086
0.0228355
0.0184885
0.0150909
0.0124287
0.01034
0.00870306
0.00742688
0.00644216
0.00569441
0.00513821
0.00473345
0.00444382
0.00423665
0.00408448
0.00397031
0.00388817
0.00383131
0.0940332
0.080847
0.0660808
0.0529171
0.0420789
0.0334595
0.0267055
0.0214412
0.0173387
0.0141355
0.0116294
0.00966838
0.00813856
0.00695455
0.006051
0.00537545
0.00488283
0.00453243
0.00428762
0.00411676
0.00399458
0.00390555
0.00384341
0.00380289
0.0910837
0.0775813
0.0629452
0.0501855
0.0398075
0.0316065
0.0252
0.0202142
0.0163322
0.013304
0.0109384
0.00909247
0.00765914
0.00655816
0.00572748
0.00511612
0.00467898
0.0043748
0.00416705
0.00402547
0.00392712
0.00385793
0.00381144
0.00378293
0.0886453
0.0747307
0.060141
0.0477331
0.0377755
0.0299599
0.0238722
0.0191402
0.015458
0.0125874
0.010348
0.0086049
0.00725758
0.00623032
0.00546387
0.00490836
0.00451855
0.00425284
0.00407517
0.00395687
0.00387716
0.0038234
0.00378923
0.00376945
0.0866193
0.0721856
0.0575807
0.0455006
0.0359451
0.028495
0.0227053
0.0182071
0.0147066
0.011978
0.00985117
0.00819916
0.00692739
0.0059643
0.00525313
0.00474492
0.00439438
0.00415993
0.00400626
0.00390627
0.00384101
0.00379898
0.00377403
0.00376052
0.0849052
0.0698334
0.0551776
0.0434349
0.0342847
0.0271926
0.0216865
0.0174056
0.0140707
0.0114694
0.00944211
0.00786962
0.00666297
0.00575441
0.00508939
0.0046199
0.00430084
0.00409097
0.00395594
0.00387008
0.00381588
0.00378257
0.00376408
0.00375498
0.0833899
0.0675437
0.0528467
0.0414922
0.0327721
0.02604
0.0208074
0.0167291
0.0135447
0.0110566
0.00911602
0.00761161
0.00645965
0.00559588
0.00496788
0.00452865
0.00423361
0.00404213
0.00392085
0.00384534
0.00379919
0.00377217
0.00375838
0.00375207
0.0819088
0.0651611
0.0505093
0.0396447
0.0313983
0.0250328
0.0200643
0.0161741
0.0131249
0.0107357
0.00886911
0.00742128
0.00631349
0.00548475
0.00488465
0.00446742
0.00418929
0.00401046
0.00389852
0.00382995
0.00378911
0.0037664
0.00375544
0.00375089
0.0801245
0.0624746
0.0481028
0.0378864
0.0301689
0.0241752
0.0194588
0.0157403
0.0128098
0.0105045
0.00869863
0.00729566
0.00622146
0.00541793
0.00483667
0.00443337
0.00416541
0.0039939
0.00388724
0.00382257
0.00378468
0.00376422
0.00375453
0.00375062
0.0771418
0.0591847
0.0456112
0.0362462
0.0291077
0.0234808
0.0189976
0.01543
0.0125994
0.0103619
0.00860294
0.00723277
0.00618156
0.00539351
0.00482203
0.00442484
0.00416055
0.00399132
0.00388621
0.0038226
0.00378536
0.00376503
0.00375513
0.00375084
0.0714374
0.0550222
0.0431322
0.0348051
0.0282595
0.0229719
0.0186913
0.0152481
0.0124957
0.0103084
0.00858156
0.00723162
0.00619186
0.0054095
0.00483989
0.00444136
0.00417439
0.0040024
0.00389497
0.00382953
0.00379075
0.00376871
0.00375718
0.00375153
0.00430746
0.00811035
0.0216604
0.0340964
0.0440463
0.0547746
0.0172232
0.0217673
0.036052
0.0460818
0.0516608
0.0539739
0.02194
0.0357501
0.0488108
0.0552852
0.0572863
0.0553833
0.0243778
0.0461488
0.0575482
0.0616496
0.0618282
0.0574852
0.0266899
0.0539499
0.064147
0.0670876
0.0657463
0.0601364
0.0307435
0.0599512
0.0696018
0.0719528
0.06961
0.0633901
0.0341305
0.0647907
0.0744042
0.0765515
0.0737051
0.0672379
0.03686
0.0688111
0.0788347
0.0811049
0.0781742
0.0716994
0.0389821
0.0722228
0.0830585
0.0857592
0.0830956
0.0768212
0.0405504
0.0751565
0.0871615
0.0906064
0.088541
0.0826552
0.0416077
0.0776789
0.0911694
0.0957074
0.0945527
0.0892664
0.0421853
0.0798028
0.0950645
0.101074
0.101154
0.0967248
0.0423091
0.0814783
0.0987849
0.106658
0.108338
0.105094
0.0422607
0.0825685
0.102256
0.112322
0.116052
0.114411
0.0420425
0.0829569
0.105313
0.117899
0.124175
0.124646
0.0415692
0.0825844
0.107712
0.123119
0.132469
0.135779
0.0407407
0.0811613
0.109123
0.127584
0.140541
0.147624
0.0394417
0.0785317
0.109143
0.130751
0.147768
0.159729
0.0375218
0.0745028
0.10752
0.13192
0.153236
0.171345
0.0347786
0.0689274
0.103543
0.130615
0.155663
0.181387
0.0309632
0.0616726
0.0968478
0.125575
0.1538
0.18818
0.025847
0.0524991
0.0866778
0.115172
0.145188
0.188225
0.0185726
0.0401443
0.0710585
0.0968189
0.125656
0.175662
0.00532596
0.015406
0.0359329
0.0580697
0.0796893
0.117199
0.0613557
0.0503109
0.0409663
0.0337
0.0276833
0.0226758
0.018553
0.0152008
0.0125013
0.0103445
0.00863517
0.0072933
0.00625494
0.00546879
0.00489161
0.00448393
0.00420782
0.0040279
0.00391416
0.00384383
0.00380106
0.00377554
0.00376099
0.00375312
0.0545105
0.0469438
0.0395539
0.033072
0.0274333
0.0226169
0.018595
0.0152953
0.0126215
0.0104751
0.00876654
0.00741937
0.00637124
0.00557177
0.00497881
0.00455452
0.00426276
0.0040695
0.00394517
0.00386662
0.00381724
0.00378622
0.00376729
0.00375602
0.0518299
0.0454772
0.0390379
0.0329798
0.0275354
0.0228101
0.0188263
0.0155373
0.0128601
0.0107025
0.0089783
0.00761262
0.00654376
0.00572161
0.00510466
0.00465634
0.00434228
0.00412993
0.0039903
0.00389978
0.00384084
0.00380203
0.00377702
0.00376104
0.0517897
0.0455288
0.0393399
0.0334088
0.0279966
0.0232617
0.0192529
0.0159327
0.0132223
0.0110316
0.0092748
0.00787719
0.00677658
0.00592244
0.00527334
0.00479359
0.00445041
0.00421285
0.00405267
0.00394591
0.003874
0.00382474
0.00379147
0.0037692
0.0532291
0.04667
0.0403862
0.0343351
0.0288079
0.0239734
0.0198801
0.0164875
0.0137143
0.0114682
0.00966169
0.00821845
0.00707493
0.00617948
0.00549011
0.00497155
0.00459231
0.00432303
0.00413652
0.00400865
0.00391974
0.00385648
0.00381156
0.00378107
0.0558534
0.04874
0.0420709
0.0357226
0.0299621
0.0249477
0.020714
0.0172091
0.0143437
0.0120198
0.0101461
0.00864324
0.00744547
0.0064993
0.00576163
0.00519695
0.00477464
0.00446682
0.00424746
0.00409258
0.00398137
0.00389945
0.00383946
0.0037979
0.0593021
0.0515555
0.04434
0.0375558
0.0314596
0.0261913
0.0217636
0.0181072
0.0151199
0.0126955
0.0107366
0.00915993
0.00789635
0.00688999
0.00609598
0.005478
0.00500563
0.00465209
0.00439263
0.00420366
0.00406363
0.00395754
0.00387862
0.00382201
0.0634926
0.0550677
0.0471801
0.0398399
0.0333122
0.0277177
0.0230423
0.0191941
0.0160546
0.0135061
0.0114437
0.00977841
0.00843712
0.00736084
0.00650237
0.00582387
0.00529446
0.00488789
0.00458053
0.00434953
0.00417302
0.00403593
0.00393249
0.00385543
0.0684286
0.0592872
0.0506153
0.0426019
0.0355449
0.0295484
0.0245684
0.0204858
0.0171619
0.0144646
0.0122793
0.0105099
0.00907848
0.00792214
0.00699077
0.0062444
0.00565096
0.00518408
0.00482084
0.00453919
0.00431731
0.00414062
0.00400509
0.00390019
0.0741683
0.0642749
0.0547055
0.0458936
0.0381986
0.031715
0.0263666
0.0220024
0.0184587
0.0155859
0.0132567
0.0113669
0.00983218
0.00858508
0.00757194
0.0067501
0.00608563
0.0055513
0.00512427
0.004783
0.00450576
0.00427892
0.00410139
0.00395875
0.0808056
0.0701345
0.0595472
0.0497934
0.0413326
0.0342614
0.0284697
0.0237691
0.0199654
0.0168869
0.0143912
0.0123631
0.0107109
0.00936161
0.00825731
0.00735207
0.00660948
0.00600069
0.00550221
0.00509228
0.00474895
0.00445965
0.00422756
0.00403403
0.0884619
0.0770104
0.0652752
0.0544109
0.0450289
0.0372466
0.0309201
0.0258172
0.0217061
0.0183875
0.0156993
0.0135133
0.0117282
0.0102644
0.00905889
0.00806187
0.00723384
0.00654366
0.00596626
0.00547885
0.00505834
0.00469286
0.00439095
0.00412946
0.097278
0.0850839
0.0720658
0.059892
0.0493973
0.0407491
0.0337733
0.0281866
0.0237105
0.0201105
0.0171999
0.0148335
0.0128984
0.0113066
0.00998914
0.00889142
0.0079703
0.00719164
0.00652799
0.00595447
0.00544571
0.00498937
0.00459984
0.00424885
0.107401
0.0945693
0.080137
0.0664242
0.0545819
0.0448727
0.0371022
0.0309283
0.0260152
0.0220834
0.0189146
0.0163416
0.014237
0.0125022
0.0110608
0.00985283
0.00883051
0.00795604
0.00719876
0.00653062
0.00592259
0.00536017
0.00486297
0.0043961
0.118959
0.105703
0.0897437
0.0742382
0.0607673
0.0497533
0.041002
0.0341086
0.0286668
0.0243399
0.0208686
0.0180577
0.0157605
0.0138655
0.0122872
0.0109584
0.00982622
0.00884823
0.00798973
0.00721843
0.00650016
0.00581599
0.005189
0.00457448
0.131947
0.118729
0.101156
0.0836007
0.068181
0.0555651
0.0455977
0.0378142
0.0317254
0.0269226
0.0230931
0.0200054
0.017488
0.0154127
0.0136822
0.012221
0.0109694
0.00987975
0.00891215
0.00802905
0.00718949
0.00636745
0.00558624
0.00478576
0.1463
0.133798
0.114605
0.0947868
0.0770859
0.0625242
0.0510505
0.0421595
0.0352706
0.029887
0.0256281
0.0222145
0.0194426
0.0171625
0.015262
0.0136549
0.0122735
0.0110632
0.00997821
0.00897449
0.00800263
0.00702624
0.00606352
0.00502938
0.161959
0.150779
0.130195
0.108024
0.0877536
0.0708827
0.0575625
0.047293
0.0394075
0.033307
0.028526
0.0247235
0.0216539
0.0191389
0.017047
0.0152784
0.0137551
0.0124146
0.0112035
0.0100701
0.00895515
0.00780801
0.00663301
0.00530263
0.178677
0.169115
0.147823
0.123401
0.100407
0.0809042
0.0653723
0.053403
0.0442743
0.0372814
0.0318577
0.0275848
0.0241622
0.0213749
0.019066
0.017118
0.0154403
0.0139597
0.0126139
0.0113421
0.0100738
0.00874064
0.00731897
0.00560432
0.195489
0.187872
0.167035
0.140734
0.115115
0.0928036
0.0747324
0.0607146
0.0500475
0.0419406
0.0357186
0.0308692
0.0270231
0.023917
0.0213612
0.0192157
0.017373
0.0157468
0.014263
0.0128494
0.0114231
0.00989422
0.00818954
0.00596263
0.210505
0.205403
0.1866
0.159342
0.131636
0.106639
0.0858504
0.0694684
0.05694
0.0474525
0.0402349
0.0346723
0.0303116
0.026829
0.023993
0.0216346
0.0196261
0.0178652
0.0162645
0.0147388
0.0131923
0.0115091
0.00953558
0.00674283
0.21967
0.218558
0.204237
0.177861
0.149237
0.12216
0.0987843
0.0798659
0.0651814
0.0540192
0.0455674
0.0391175
0.0341242
0.0301912
0.0270352
0.0244524
0.0222925
0.0204396
0.0187997
0.0172904
0.015835
0.0143892
0.0131158
0.0127807
0.214958
0.222324
0.215145
0.194289
0.166577
0.138645
0.113296
0.0919684
0.0749653
0.0618581
0.0519066
0.044356
0.0385766
0.034092
0.0305579
0.0277296
0.0254336
0.0235485
0.0219931
0.0207187
0.0197024
0.0189758
0.0187786
0.0196078
0.18619
0.215566
0.215371
0.204754
0.181591
0.154786
0.128703
0.105559
0.0863554
0.071152
0.0594537
0.0505613
0.043801
0.0386234
0.0346173
0.0314901
0.0290417
0.0271449
0.0257306
0.0247735
0.0242726
0.0242659
0.0248875
0.0262998
0.00479753
0.0135156
0.02716
0.0403954
0.0478307
0.0642924
0.0183885
0.0343263
0.0525013
0.0656538
0.0725538
0.089569
0.0224483
0.0444011
0.0650768
0.0782332
0.0862606
0.100717
0.0242783
0.0515058
0.073487
0.0867808
0.0955661
0.108697
0.025752
0.0575235
0.0799309
0.0934437
0.102956
0.115414
0.0288837
0.0626696
0.0851539
0.0989557
0.109187
0.121392
0.0314335
0.06704
0.0894511
0.103603
0.114524
0.126647
0.0334422
0.0706505
0.0929451
0.10751
0.119087
0.131219
0.0349699
0.0735065
0.0956963
0.110742
0.122954
0.135176
0.0360756
0.0756166
0.0977468
0.113346
0.126202
0.138599
0.0368136
0.0769907
0.0991343
0.115368
0.128907
0.141577
0.037239
0.077635
0.0998881
0.11685
0.131141
0.144197
0.0372944
0.0775763
0.100011
0.11782
0.132958
0.146525
0.0369464
0.076843
0.099543
0.118288
0.134389
0.148597
0.0361536
0.075438
0.0984395
0.118228
0.135429
0.150411
0.034904
0.0733423
0.0966456
0.117575
0.136031
0.151932
0.0331879
0.0705123
0.0940637
0.116209
0.136089
0.153091
0.0310024
0.0668725
0.0905399
0.11394
0.135457
0.153791
0.0283636
0.0623008
0.0858481
0.110479
0.133884
0.153888
0.0253625
0.0565964
0.0796616
0.105401
0.130985
0.153231
0.0239043
0.049398
0.0714923
0.0980652
0.126102
0.15134
0.0220281
0.0405517
0.0605293
0.0874884
0.11808
0.147214
0.0179831
0.0284344
0.0449627
0.0721262
0.104844
0.137727
0.00459786
0.00993587
0.023866
0.0530326
0.0882848
0.11621
0.173644
0.200568
0.210699
0.206401
0.191983
0.168845
0.143854
0.120035
0.0991663
0.0819654
0.0683772
0.057914
0.049948
0.0438926
0.0392772
0.0357584
0.0331051
0.0311786
0.0299094
0.0292695
0.0292397
0.0297765
0.0309861
0.0327283
0.172556
0.198859
0.20359
0.203523
0.196338
0.179448
0.15739
0.134419
0.112874
0.0941393
0.0787378
0.0665651
0.0571768
0.0500282
0.0446229
0.0405756
0.0376231
0.035607
0.0344428
0.0340786
0.0344135
0.0354049
0.0370403
0.0390151
0.159731
0.204512
0.203364
0.199987
0.195522
0.185109
0.167826
0.147431
0.126578
0.10719
0.0903847
0.0765644
0.0656203
0.0571712
0.0507661
0.0460098
0.0426152
0.0404007
0.0392548
0.0390863
0.0396878
0.0410508
0.0430205
0.0451948
0.149847
0.206989
0.207585
0.201174
0.194182
0.186515
0.17422
0.157751
0.139088
0.120273
0.102858
0.0877606
0.075316
0.0654401
0.0578349
0.05216
0.0481339
0.0455602
0.0442975
0.0442096
0.0449763
0.04662
0.0488672
0.0512279
0.146816
0.200634
0.215758
0.20718
0.195447
0.186647
0.177171
0.164712
0.149302
0.132328
0.115378
0.0997157
0.0861098
0.0748602
0.0659356
0.0591433
0.0542665
0.0511246
0.0495605
0.0493995
0.0502164
0.0520324
0.0545044
0.0570447
0.146748
0.1906
0.218656
0.216512
0.202205
0.188593
0.178326
0.168416
0.156435
0.142256
0.126909
0.11166
0.0975545
0.0852589
0.0750746
0.0670513
0.0611186
0.0571702
0.0550728
0.0546383
0.0553711
0.0572178
0.0598501
0.0625597
0.148056
0.183239
0.215467
0.223864
0.215302
0.195579
0.181157
0.170458
0.160585
0.149325
0.136409
0.122591
0.108885
0.0961703
0.0850523
0.0758673
0.0687662
0.063792
0.0609004
0.0599403
0.0604334
0.0621208
0.0648234
0.0676801
0.150036
0.179048
0.209338
0.226817
0.225139
0.210675
0.18919
0.174108
0.163269
0.153658
0.143208
0.131522
0.119123
0.106821
0.0953736
0.0853585
0.077169
0.0710539
0.0671294
0.0653497
0.0654293
0.0667149
0.0693516
0.0723097
0.152314
0.177103
0.203984
0.225433
0.231779
0.225081
0.205607
0.183435
0.167788
0.156862
0.147563
0.137909
0.12737
0.116272
0.10526
0.0950004
0.0860636
0.078899
0.0738242
0.0709823
0.0703061
0.0711052
0.0733588
0.0763577
0.154684
0.176489
0.200234
0.221988
0.23478
0.234286
0.223798
0.200489
0.1784
0.162485
0.151391
0.142294
0.1333
0.123766
0.113842
0.104026
0.0949068
0.0870451
0.0809221
0.0768896
0.0751016
0.0752918
0.0768663
0.0797814
0.157054
0.176737
0.197974
0.218561
0.234272
0.239944
0.23574
0.220407
0.196205
0.17437
0.158276
0.146883
0.1378
0.129274
0.120579
0.111699
0.102994
0.0949658
0.088148
0.0830258
0.0799678
0.0791814
0.0800372
0.082505
0.159391
0.17757
0.196791
0.215805
0.232192
0.242276
0.2428
0.235547
0.216594
0.192473
0.171158
0.155038
0.143321
0.134106
0.12584
0.117776
0.109798
0.102096
0.095066
0.0891913
0.0849531
0.0827981
0.0829174
0.0846022
0.161671
0.178706
0.196209
0.213672
0.229711
0.241843
0.247013
0.244598
0.233709
0.212759
0.189713
0.169189
0.153082
0.140953
0.131425
0.123173
0.115448
0.108149
0.101302
0.095116
0.0900133
0.0865033
0.0853507
0.0862903
0.163862
0.179923
0.195875
0.211853
0.227137
0.240045
0.248318
0.249813
0.244921
0.231002
0.210383
0.188657
0.169024
0.152945
0.140316
0.130216
0.121664
0.114
0.107025
0.100699
0.0950841
0.0905058
0.0876835
0.0878109
0.165909
0.181027
0.195439
0.209994
0.224355
0.237382
0.247395
0.252486
0.251634
0.244439
0.22924
0.210143
0.190118
0.171482
0.155456
0.142184
0.131198
0.121951
0.113998
0.10697
0.10071
0.0952483
0.0908887
0.0896708
0.167736
0.181865
0.194707
0.207809
0.221141
0.233915
0.244851
0.252401
0.255167
0.252718
0.24411
0.229892
0.212718
0.194552
0.177009
0.16108
0.147161
0.135252
0.125104
0.11637
0.108762
0.102095
0.0962485
0.0932612
0.169253
0.182299
0.193503
0.205117
0.217331
0.229573
0.240834
0.249857
0.255399
0.256544
0.253292
0.244857
0.232308
0.217307
0.201098
0.184833
0.169383
0.155276
0.14271
0.131643
0.121934
0.113407
0.105806
0.100741
0.170373
0.182198
0.191727
0.201853
0.212897
0.224369
0.235433
0.245052
0.252208
0.25599
0.256061
0.252437
0.244955
0.234336
0.22147
0.207295
0.192714
0.178419
0.16486
0.152288
0.140819
0.130444
0.121119
0.114151
0.170972
0.18147
0.189306
0.198038
0.207943
0.218506
0.228951
0.238378
0.245966
0.250952
0.253051
0.25214
0.248103
0.241239
0.232179
0.221487
0.20966
0.197267
0.184818
0.172676
0.161069
0.150154
0.140207
0.132569
0.170864
0.180024
0.186204
0.193723
0.202635
0.21233
0.22198
0.230722
0.237843
0.242784
0.245204
0.245411
0.243077
0.23844
0.231828
0.223622
0.214312
0.204328
0.194052
0.183816
0.173898
0.16448
0.156023
0.149798
0.169919
0.177748
0.182386
0.188931
0.197108
0.206148
0.215134
0.223172
0.229565
0.233725
0.235589
0.235517
0.233251
0.229122
0.223474
0.216652
0.208991
0.200791
0.192322
0.18382
0.175532
0.167776
0.161061
0.156237
0.167954
0.174454
0.177781
0.183629
0.191347
0.200053
0.208728
0.216419
0.222381
0.225873
0.227199
0.226516
0.223704
0.219173
0.213352
0.206621
0.199317
0.191712
0.184071
0.17662
0.16957
0.163195
0.157879
0.153877
0.164397
0.16983
0.172287
0.177739
0.185261
0.193928
0.202719
0.210604
0.216755
0.220354
0.22171
0.221044
0.218288
0.213872
0.208185
0.20162
0.194532
0.187171
0.17975
0.172474
0.165565
0.159295
0.153999
0.149793
0.158455
0.163542
0.165867
0.17118
0.178589
0.187296
0.19638
0.204766
0.21153
0.215943
0.217901
0.217952
0.215874
0.212097
0.207031
0.201077
0.194575
0.187786
0.180914
0.174104
0.167491
0.161319
0.155868
0.151252
)
;

boundaryField
{
    rotor
    {
        type            kqRWallFunction;
        value           nonuniform List<scalar> 
144
(
0.00413706
0.0120296
0.0399785
0.0676439
0.0927648
0.118524
0.00413706
0.0162729
0.0209473
0.0232646
0.0249459
0.026839
0.0287428
0.0301809
0.0311753
0.03176
0.031948
0.0318474
0.0314151
0.030837
0.0300846
0.0291315
0.0279216
0.026139
0.0249155
0.0238483
0.0224884
0.0206257
0.0168987
0.00474422
0.00474422
0.008682
0.012706
0.0164794
0.0191674
0.0305447
0.00452924
0.0162799
0.0411437
0.0685781
0.100634
0.137036
0.00452924
0.0175702
0.0218482
0.0238127
0.024954
0.0253665
0.0264144
0.027345
0.0280565
0.0285259
0.0287783
0.0288647
0.0288206
0.0284818
0.027804
0.0268296
0.025718
0.025015
0.0243839
0.0232701
0.0216027
0.0194858
0.015637
0.00385432
0.00385432
0.00536262
0.0110329
0.0276116
0.0489311
0.0635821
0.00430746
0.00811035
0.0216604
0.0340964
0.0440463
0.0547746
0.00430746
0.0172232
0.02194
0.0243778
0.0266899
0.0307435
0.0341305
0.03686
0.0389821
0.0405504
0.0416077
0.0421853
0.0423091
0.0422607
0.0420425
0.0415692
0.0407407
0.0394417
0.0375218
0.0347786
0.0309632
0.025847
0.0185726
0.00532596
0.00532596
0.015406
0.0359329
0.0580697
0.0796893
0.117199
0.00479753
0.0135156
0.02716
0.0403954
0.0478307
0.0642924
0.00479753
0.0183885
0.0224483
0.0242783
0.025752
0.0288837
0.0314335
0.0334422