/*--------------------------------*- C++ -*----------------------------------*\
  =========                 |
  \\      /  F ield         | OpenFOAM: The Open Source CFD Toolbox
   \\    /   O peration     | Website:  https://openfoam.org
    \\  /    A nd           | Version:  11
     \\/     M anipulation  |
\*---------------------------------------------------------------------------*/
FoamFile
{
    format      ascii;
    class       volScalarField;
    location    "0.52";
    object      nut;
}
// * * * * * * * * * * * * * * * * * * * * * * * * * * * * * * * * * * * * * //

dimensions      [0 2 -1 0 0 0 0];

internalField   nonuniform List<scalar> 
2880
(
7.98383e-07
4.48383e-06
2.45111e-05
6.1822e-05
0.000118363
0.000202986
2.81974e-05
2.74226e-05
8.28199e-05
0.000146423
0.000211451
0.000271403
0.000167416
6.72439e-05
0.000158465
0.000250154
0.000353882
0.000485066
0.00018549
0.000109447
0.000229318
0.00034735
0.000486522
0.000667751
4.70591e-05
0.000149638
0.000291143
0.000430295
0.000593291
0.000782163
4.91592e-05
0.000186125
0.000342444
0.000497358
0.000670137
0.000842782
5.07398e-05
0.000217402
0.00038356
0.000548244
0.000720072
0.000868674
5.19953e-05
0.000242945
0.000415045
0.000584522
0.000748194
0.000874299
5.28486e-05
0.000262058
0.000437908
0.000606946
0.000759219
0.000868799
5.33446e-05
0.000274993
0.000452128
0.000617541
0.000758064
0.000854207
5.35039e-05
0.000281818
0.000458685
0.000618001
0.000747427
0.000831674
5.3422e-05
0.000282829
0.000458122
0.000609958
0.000728633
0.000802034
5.30575e-05
0.000277802
0.000450819
0.000594651
0.000702703
0.000765505
5.25661e-05
0.000266371
0.000437119
0.000572975
0.000670396
0.000722235
5.19198e-05
0.000249657
0.000417443
0.000545668
0.000632216
0.000672368
5.10892e-05
0.000228978
0.000392427
0.000513407
0.000588716
0.000617296
5.00157e-05
0.000205993
0.000363139
0.000476846
0.00054088
0.000558604
4.85672e-05
0.000183778
0.000331337
0.000436394
0.000491075
0.000496435
0.000199154
0.000171777
0.000299286
0.000391644
0.000439158
0.000431215
0.000190149
0.000163124
0.000267147
0.000341015
0.000383446
0.000367292
0.000179653
0.00014702
0.000226674
0.000283136
0.000320458
0.000300575
0.000164809
0.000113203
0.000169054
0.000210641
0.000242632
0.000240514
2.9269e-05
5.56849e-05
8.83936e-05
0.000117974
0.000139255
0.000171955
9.15426e-07
3.24109e-06
7.80072e-06
1.50701e-05
2.44435e-05
5.18937e-05
0.000815132
0.00123741
0.00132517
0.00131064
0.00129318
0.00128701
0.00129435
0.00131491
0.0013469
0.00138562
0.00142688
0.00147929
0.00153204
0.00158069
0.00162316
0.00165844
0.00168687
0.00171088
0.00173223
0.00175274
0.00177403
0.00179471
0.00181384
0.00183321
0.000870408
0.0011798
0.00122672
0.0011803
0.00113447
0.0011
0.00108164
0.00108183
0.00110153
0.00113895
0.00118702
0.00124033
0.00129823
0.0013583
0.00141679
0.00147062
0.00151943
0.00156263
0.00160002
0.0016317
0.00165803
0.00168027
0.00169833
0.00171694
0.000937299
0.00112814
0.00112453
0.0010513
0.000978779
0.000917212
0.000873781
0.000859568
0.000856473
0.00086168
0.000880538
0.000916775
0.000966285
0.00102391
0.0010854
0.0011471
0.00120627
0.00126266
0.00131597
0.00136551
0.0014109
0.00145221
0.00148702
0.00152112
0.00096981
0.00107681
0.00103105
0.0009373
0.00084447
0.000766397
0.000706374
0.000669902
0.000632937
0.000612584
0.000610279
0.000631206
0.000669761
0.000716413
0.000766151
0.000816946
0.000867348
0.000916778
0.000964609
0.0010101
0.00105226
0.00109171
0.00112068
0.00115698
0.000977224
0.00102848
0.00095548
0.000850456
0.000754928
0.000676747
0.000624573
0.000569621
0.000510224
0.000495335
0.000517406
0.000565469
0.000623458
0.000679902
0.000728399
0.000767583
0.000799086
0.000824359
0.000844751
0.000861581
0.000874248
0.000885109
0.00088494
0.000887666
0.000972936
0.000986284
0.000900365
0.000793016
0.000698649
0.000624659
0.000577034
0.000535053
0.000478662
0.000481219
0.00052674
0.000598643
0.000670105
0.000733983
0.000790237
0.000840398
0.000885028
0.000923811
0.000956549
0.000984514
0.00100713
0.00102215
0.00102746
0.00105641
0.000963102
0.000952412
0.000864156
0.000759744
0.000666112
0.000597868
0.000558447
0.000503863
0.00047354
0.000497375
0.000565395
0.000644264
0.000721508
0.000793889
0.00086313
0.000930917
0.000999195
0.00106865
0.00113795
0.00120512
0.00127318
0.00134144
0.00142303
0.00154969
0.000948169
0.000924802
0.000840557
0.000739489
0.000644033
0.000578506
0.000544269
0.000477426
0.000477175
0.000545181
0.000636609
0.000734463
0.000833069
0.000926073
0.00101212
0.00109254
0.0011712
0.00125401
0.00134798
0.00145971
0.0015934
0.00176319
0.00198423
0.00219206
0.000927828
0.000899368
0.000818293
0.000714915
0.00061702
0.000556292
0.000514897
0.000466606
0.000524753
0.000624957
0.000744129
0.000873767
0.00100233
0.00112557
0.00124428
0.00135984
0.00147368
0.00158894
0.00171294
0.00185855
0.00203857
0.00230425
0.00260695
0.00286467
0.000901955
0.000869286
0.000785054
0.000670884
0.000571923
0.000544842
0.000471804
0.000504107
0.000606916
0.000738537
0.000884664
0.00103381
0.00117752
0.00131904
0.00146314
0.00161503
0.0017805
0.00196598
0.00217914
0.00243045
0.0027361
0.00306935
0.00341221
0.00363435
0.000869067
0.00082649
0.000734621
0.000607714
0.000542784
0.000502991
0.000480734
0.000582314
0.000721854
0.000878293
0.001048
0.00121328
0.00137519
0.00153637
0.00170095
0.00187557
0.00207091
0.00230228
0.00258775
0.00294143
0.00336048
0.00380182
0.00416801
0.00442084
0.000826521
0.000765934
0.000663427
0.000538063
0.000516906
0.000463844
0.000551723
0.000693207
0.000857757
0.00104462
0.00122975
0.00141481
0.00160244
0.00179578
0.00199925
0.00222
0.00246953
0.00276403
0.00312054
0.00354642
0.00402635
0.00448579
0.00486653
0.00513078
0.000772578
0.000691832
0.000576457
0.000508496
0.000473113
0.000509681
0.000648066
0.000823714
0.0010208
0.00122278
0.00142561
0.00163175
0.00184464
0.00206915
0.00231265
0.00258595
0.00290328
0.00327925
0.00372094
0.00421631
0.00472429
0.0051624
0.00552684
0.00576304
0.0007091
0.000615756
0.000498535
0.000474691
0.000462209
0.00059446
0.000776841
0.000976659
0.00119358
0.00141152
0.0016339
0.00186401
0.00210498
0.0023616
0.00264234
0.00296041
0.00333216
0.00377086
0.00427561
0.00482119
0.0053379
0.00578173
0.00613595
0.00633517
0.000635538
0.000537071
0.000462244
0.00044829
0.000524272
0.000704877
0.000915218
0.00114644
0.00137752
0.00161323
0.00185755
0.00211327
0.00238349
0.00267359
0.00299276
0.00335429
0.00377281
0.00425652
0.00479597
0.00535735
0.00586068
0.00629281
0.00663618
0.0068081
0.000556542
0.000457416
0.000439911
0.000451327
0.000609439
0.0008447
0.00108001
0.00132357
0.00157024
0.00182574
0.00209297
0.00237383
0.00267137
0.00299147
0.00334368
0.00374043
0.00419297
0.00470303
0.00525337
0.00580525
0.00627996
0.00668217
0.0069955
0.00714789
0.000479871
0.00040696
0.000419691
0.000496681
0.000728109
0.000989783
0.00125095
0.00150887
0.0017735
0.0020494
0.00233836
0.00264194
0.00296322
0.00330791
0.00368462
0.00410355
0.00457186
0.00508592
0.00562381
0.00614612
0.00658271
0.00695099
0.00722188
0.00735654
0.000399177
0.000382482
0.000415606
0.000584795
0.000877811
0.00116799
0.00143475
0.00170588
0.00198778
0.00228249
0.00259066
0.00291348
0.0032537
0.0036161
0.00400725
0.00443392
0.00489896
0.00539485
0.00589844
0.00637335
0.0067628
0.00708448
0.00731383
0.0074306
0.000298583
0.000370418
0.000444708
0.00070478
0.00103688
0.00133474
0.00161728
0.00190761
0.00220848
0.00252082
0.0028452
0.00318285
0.00353602
0.00390796
0.00430236
0.00472196
0.00516544
0.00562289
0.00607258
0.00648374
0.00681608
0.0070764
0.00726247
0.00735959
0.000200694
0.000365703
0.00052045
0.000851485
0.00121588
0.00151808
0.00181908
0.00212519
0.00243988
0.00276449
0.00309966
0.00344623
0.00380532
0.00417792
0.00456426
0.00496275
0.0053682
0.00576931
0.00614713
0.00647759
0.00673799
0.00692015
0.00705367
0.00712538
0.000161137
0.000388999
0.000621809
0.0010276
0.00139982
0.00171538
0.0020297
0.00234811
0.00267362
0.00300716
0.00334898
0.00369918
0.00405741
0.0044222
0.00479018
0.00515559
0.00550964
0.00583983
0.00612986
0.00636187
0.0065229
0.00661153
0.00666229
0.00669377
0.000192472
0.000435304
0.000777582
0.00123246
0.00159087
0.00192514
0.00225095
0.00257788
0.00290985
0.00324773
0.00359123
0.0039394
0.00429015
0.00463939
0.00498042
0.00530371
0.00559721
0.00584677
0.00603703
0.00615343
0.00618743
0.00614553
0.0060632
0.00600971
0.000223674
0.000517056
0.000983444
0.00145923
0.00181466
0.00215082
0.00247974
0.00280997
0.00314434
0.00348265
0.0038236
0.00416492
0.00450264
0.00483027
0.00513826
0.0054142
0.00564352
0.00581052
0.00589927
0.00589475
0.00578562
0.00557165
0.00527967
0.00499172
0.00025927
0.000645389
0.00122055
0.00167504
0.00204576
0.00238202
0.00271017
0.00304031
0.00337386
0.00370931
0.00404415
0.00437472
0.00469529
0.00499732
0.00526923
0.00549696
0.00566501
0.00575776
0.00576003
0.00565633
0.00542764
0.00504429
0.0044468
0.00354601
8.73783e-07
6.07122e-06
2.52424e-05
6.27122e-05
0.000128446
5.11388e-05
3.04277e-05
7.32326e-05
0.000150379
0.000248312
0.000381357
0.000460398
0.000174591
0.000145878
0.00026301
0.000399054
0.000584939
0.000834775
0.000190489
0.000197253
0.000341078
0.000501674
0.0007359
0.00106485
0.000199702
0.000230604
0.000392357
0.00057857
0.000843438
0.00120528
4.76319e-05
0.000250306
0.000425449
0.00063274
0.000923472
0.00130642
4.86003e-05
0.000265367
0.000447996
0.000669716
0.000989249
0.00139643
4.9443e-05
0.000276817
0.000462504
0.00069418
0.00104599
0.00147401
5.00799e-05
0.000284967
0.000470103
0.000713168
0.00109146
0.00153866
5.04958e-05
0.000290003
0.000471757
0.00072681
0.00112665
0.0015904
5.07163e-05
0.000291985
0.000468204
0.000733856
0.00115154
0.00162904
5.07873e-05
0.000290297
0.000460027
0.000732655
0.00116495
0.00165438
5.07413e-05
0.000284614
0.000447348
0.000721937
0.00116526
0.00166607
5.04354e-05
0.000275248
0.000429717
0.000701273
0.00115129
0.00166296
4.98279e-05
0.000262366
0.000406989
0.000669077
0.00112159
0.00164334
4.89535e-05
0.000246054
0.000379043
0.000627327
0.00107233
0.00160493
4.80037e-05
0.000226406
0.000346069
0.000574476
0.0010058
0.00154344
0.000200518
0.000203749
0.000308183
0.000511108
0.000916615
0.00145784
0.000194745
0.000178026
0.000265102
0.00043836
0.000803121
0.00134027
0.000185869
0.000148869
0.000216803
0.00035788
0.000665375
0.00118283
0.000172541
0.000117032
0.000163253
0.000271656
0.00050736
0.000975142
0.000155617
8.07767e-05
0.000105506
0.000180809
0.000339177
0.000706376
2.70663e-05
3.69531e-05
4.71215e-05
8.80896e-05
0.00017656
0.000381326
7.43069e-07
1.99651e-06
6.76353e-06
2.52969e-05
6.26321e-05
0.000108294
0.000346028
0.000954703
0.0015755
0.00195906
0.00229312
0.00261389
0.00293684
0.00326459
0.00359501
0.00392498
0.00425089
0.00456782
0.00486852
0.00514292
0.00537834
0.00556039
0.00567452
0.00570751
0.00564835
0.00548791
0.00521674
0.00482119
0.00427731
0.00353533
0.000896191
0.00150278
0.0018817
0.0022061
0.00251801
0.00283283
0.00315391
0.0034791
0.00380472
0.00412704
0.00444169
0.00474267
0.0050215
0.00526705
0.00546625
0.00560539
0.0056719
0.00565595
0.00555124
0.00535457
0.00506398
0.00467564
0.00417972
0.00354878
0.00123429
0.00175014
0.00209434
0.00241099
0.00272328
0.00303942
0.00335968
0.00368116
0.00400022
0.00431292
0.00461423
0.00489714
0.00515209
0.00536733
0.00552991
0.00562747
0.00565018
0.0055923
0.00545268
0.00523371
0.00493877
0.00456919
0.00412245
0.00358165
0.00144867
0.00194341
0.00228307
0.00260187
0.00291719
0.00323418
0.00355216
0.00386831
0.00417914
0.00448042
0.00476638
0.005029
0.00525786
0.00544084
0.00556557
0.00562154
0.00560211
0.00550586
0.00533649
0.00510103
0.00480672
0.00445823
0.00405794
0.00359589
0.00161752
0.00210572
0.00245284
0.0027782
0.00309723
0.0034143
0.00372885
0.00403843
0.00433966
0.00462788
0.0048965
0.00513658
0.00533702
0.00548562
0.00557101
0.00558495
0.00552439
0.00539233
0.00519708
0.00494969
0.00466024
0.00433565
0.00398143
0.00359215
0.00176366
0.00224526
0.00260456
0.0029384
0.00326127
0.00357783
0.00388814
0.00419022
0.00448065
0.00475427
0.00500368
0.0052191
0.00538895
0.00550131
0.00554621
0.00551814
0.00541795
0.00525322
0.00503658
0.00478247
0.00450285
0.00420563
0.00389757
0.00357553
0.0018831
0.00236463
0.00273892
0.0030818
0.00340824
0.00372377
0.00402925
0.00432306
0.00460164
0.00485928
0.0050878
0.00527675
0.00541428
0.0054891
0.00549307
0.00542386
0.00528661
0.00509349
0.00486112
0.0046064
0.00434198
0.00407532
0.0038127
0.00355151
0.00198456
0.00246728
0.00285681
0.00320828
0.00353779
0.00385187
0.00415206
0.00443696
0.00470279
0.00494327
0.00514954
0.00531061
0.00541466
0.00545136
0.00541484
0.00530644
0.00513588
0.00491988
0.0046784
0.00442961
0.00418541
0.00395147
0.00373223
0.0035245
0.00206959
0.00255572
0.00295899
0.00331807
0.00365015
0.00396245
0.00425697
0.00453244
0.00478479
0.0050072
0.00519024
0.00532255
0.00539258
0.00539134
0.00531572
0.00517119
0.00497227
0.00473995
0.00449654
0.00426001
0.00404002
0.00383942
0.00365999
0.00349762
0.00213786
0.00263236
0.00304603
0.00341169
0.00374593
0.00405621
0.00434479
0.00461041
0.00484874
0.00505249
0.00521173
0.00531494
0.00535108
0.00531289
0.00520049
0.00502393
0.00480265
0.00456125
0.00432301
0.00410407
0.00391063
0.0037422
0.00359783
0.00347271
0.00219155
0.00269541
0.00311816
0.00348981
0.003826
0.00413412
0.00441657
0.00467208
0.00489609
0.00508091
0.00521625
0.00529055
0.00529358
0.00522016
0.0050742
0.00487067
0.00463373
0.00439053
0.00416371
0.00396604
0.0037996
0.00366067
0.00354606
0.00345072
0.00223132
0.00274448
0.00317574
0.00355322
0.00389136
0.00419731
0.00447354
0.00471884
0.00492847
0.00509444
0.00520621
0.00525234
0.00522364
0.00511749
0.00494198
0.00471722
0.00447152
0.0042332
0.00402253
0.00384786
0.00370717
0.00359413
0.00350404
0.00343203
0.00225711
0.00277949
0.00321919
0.00360273
0.00394306
0.00424694
0.004517
0.00475215
0.00494761
0.00509517
0.00518413
0.00520335
0.00514492
0.00500916
0.00480875
0.00456884
0.00432093
0.0040929
0.00390124
0.00374948
0.00363209
0.00354099
0.00347067
0.00341667
0.00226848
0.00280029
0.00324884
0.00363908
0.00398209
0.0042842
0.00454826
0.0047735
0.00495524
0.00508517
0.00515252
0.00514656
0.00506096
0.00489929
0.00467903
0.00442993
0.00418546
0.00397148
0.00379981
0.00366947
0.00357228
0.00349929
0.00344469
0.00340447
0.00226468
0.00280658
0.00326479
0.00366286
0.00400939
0.00431017
0.00456855
0.00478432
0.00495305
0.00506645
0.00511379
0.00508487
0.00497514
0.00479168
0.00455669
0.00430384
0.00406713
0.00386919
0.00371698
0.00360567
0.00352544
0.00346712
0.00342491
0.00339515
0.00224468
0.00279776
0.00326677
0.00367444
0.00402576
0.00432588
0.00457902
0.0047859
0.00494257
0.00504088
0.00507019
0.00502097
0.00489057
0.00468966
0.00444485
0.00419272
0.0039666
0.00378513
0.00365073
0.00355568
0.00348933
0.0034427
0.00341019
0.00338832
0.00220713
0.00277282
0.0032539
0.00367383
0.00403185
0.00433221
0.0045807
0.00477943
0.00492522
0.00501017
0.00502382
0.00495735
0.00481006
0.00459605
0.00434577
0.00409769
0.00388346
0.00371765
0.0035988
0.00351722
0.00346195
0.00342447
0.00339947
0.00338352
0.00215019
0.0027302
0.0032243
0.0036605
0.0040282
0.00432997
0.00457444
0.00476591
0.00490222
0.00497587
0.00497659
0.00489627
0.00473605
0.0045131
0.00426094
0.00401898
0.00381666
0.00366481
0.00355899
0.00348825
0.00344168
0.00341121
0.00339182
0.00338022
0.00207085
0.00266747
0.00317421
0.00363306
0.00401536
0.00431987
0.00456097
0.00474615
0.00487463
0.00493932
0.00493017
0.00483968
0.00467057
0.00444251
0.00419124
0.0039563
0.0037649
0.00362477
0.00352937
0.00346708
0.00342721
0.00340202
0.00338642
0.00337808
0.00196547
0.00257652
0.00310522
0.00359071
0.00399439
0.00430264
0.00454083
0.00472079
0.0048433
0.00490167
0.00488599
0.00478922
0.00461524
0.0043855
0.00413704
0.0039091
0.00372691
0.00359596
0.00350841
0.00345235
0.00341737
0.00339545
0.00338319
0.00337689
0.00182044
0.00245705
0.00302103
0.00354081
0.00396765
0.00427906
0.00451443
0.0046903
0.00480891
0.00486384
0.00484519
0.00474612
0.0045712
0.00434278
0.00409838
0.00387669
0.00370154
0.00357712
0.00349491
0.00344297
0.00341113
0.00339173
0.00338138
0.00337623
0.00161875
0.00231048
0.00292942
0.00349117
0.00393754
0.00424971
0.00448195
0.00465495
0.00477194
0.00482652
0.00480855
0.00471116
0.00453908
0.00431465
0.00407504
0.0038584
0.00368789
0.0035673
0.00348807
0.00343831
0.00340796
0.00338998
0.00338061
0.00337604
0.00135283
0.00214795
0.00284593
0.00345127
0.00390596
0.00421471
0.00444337
0.00461486
0.00473272
0.00479018
0.00477654
0.00468459
0.00451899
0.00430115
0.00406672
0.00385372
0.00368538
0.00356592
0.00348727
0.00343804
0.00340818
0.00339036
0.00338091
0.00337615
0.0010433
0.00200689
0.00279694
0.00343007
0.00387338
0.00417368
0.00439856
0.00457001
0.00469127
0.00475508
0.00474983
0.00466801
0.00451186
0.00430152
0.00407288
0.0038624
0.00369394
0.0035731
0.00349286
0.00344218
0.00341122
0.00339253
0.00338206
0.00337654
8.30551e-07
3.00962e-06
1.32403e-05
3.11282e-05
5.62007e-05
9.31493e-05
2.98118e-05
2.58004e-05
5.54082e-05
9.77928e-05
0.000162797
0.000285024
0.000175137
7.39553e-05
0.000127095
0.00021149
0.000348376
0.00061538
0.000194564
0.00012657
0.000203745
0.000344871
0.000569278
0.00094057
4.8789e-05
0.000174489
0.000282714
0.000486332
0.000779787
0.00119253
5.23528e-05
0.000219571
0.000361865
0.00061951
0.000955422
0.00137265
5.51573e-05
0.00026213
0.000438176
0.000735243
0.00109188
0.00149977
5.7321e-05
0.000300097
0.000508719
0.000830269
0.00119946
0.00157443
5.89512e-05
0.00033221
0.00057099
0.000908041
0.00127058
0.00161871
6.01296e-05
0.000358348
0.000624727
0.000964573
0.00131709
0.0016405
6.09129e-05
0.000377721
0.000666217
0.00100456
0.00134415
0.00164579
6.13383e-05
0.000389983
0.000695065
0.0010298
0.00135562
0.00163875
6.14318e-05
0.00039431
0.000710887
0.00104137
0.00135408
0.00162207
6.13982e-05
0.000388861
0.000713883
0.00103916
0.001341
0.00159711
6.12418e-05
0.000374214
0.000704132
0.00102367
0.00131698
0.00156361
6.08989e-05
0.000352603
0.000681904
0.000994912
0.00128166
0.00152279
6.02912e-05
0.000324672
0.000647599
0.000952403
0.00123394
0.00147408
5.93235e-05
0.000292386
0.000601693
0.000895101
0.00117154
0.00141516
5.78613e-05
0.000257177
0.000546661
0.000821009
0.00109059
0.00133982
5.57037e-05
0.000220105
0.000479738
0.000731893
0.000983555
0.00123242
5.25553e-05
0.000179953
0.00039828
0.000617973
0.000846716
0.00108297
4.80124e-05
0.000135096
0.000296199
0.000466895
0.00065959
0.000873491
3.21224e-05
7.41383e-05
0.000164893
0.000268662
0.000398098
0.000596029
1.02553e-06
5.75356e-06
2.20761e-05
5.31336e-05
0.00010161
0.000198991
0.000953158
0.00198993
0.0028109
0.00342752
0.00383772
0.0041258
0.00434754
0.00452135
0.00464783
0.00471951
0.00472581
0.00465704
0.00451432
0.00431549
0.00409348
0.00388455
0.00371385
0.00358908
0.00350486
0.00345083
0.00341718
0.00339663
0.00338436
0.00337731
0.00113739
0.00209838
0.00286746
0.00342223
0.00379442
0.0040702
0.0042902
0.00446768
0.00460206
0.00468522
0.00470551
0.00465295
0.00452681
0.00434182
0.00412787
0.00392025
0.00374569
0.00361468
0.00352413
0.00346473
0.00342681
0.00340283
0.00338783
0.00337856
0.0013875
0.00223662
0.00292108
0.00339955
0.00374014
0.0040068
0.00422707
0.00441014
0.00455414
0.0046505
0.00468732
0.00465391
0.00454744
0.00437912
0.00417527
0.00396957
0.00379022
0.00365099
0.00355176
0.00348479
0.00344071
0.0034118
0.00339288
0.00338057
0.00161524
0.00235225
0.00293993
0.00335783
0.00367597
0.00393641
0.00415876
0.00434877
0.00450358
0.00461455
0.00466975
0.00465786
0.00457393
0.00442543
0.00423446
0.00403235
0.00384822
0.00369932
0.00358918
0.00351227
0.00345993
0.00342432
0.00340007
0.00338362
0.0017821
0.00242689
0.00292683
0.00330155
0.00360304
0.00386001
0.00408572
0.00428348
0.00444981
0.00457623
0.00465106
0.0046625
0.00460365
0.00447821
0.00430362
0.00410789
0.00392021
0.00376105
0.00363811
0.00354885
0.00348587
0.00344145
0.00340996
0.00338792
0.0019089
0.00245864
0.00288995
0.00323339
0.00352304
0.00377833
0.00400811
0.00421393
0.00439203
0.00453427
0.00462938
0.00466537
0.00463368
0.00453445
0.00438022
0.00419481
0.00400625
0.00383748
0.00370051
0.00359657
0.00352024
0.00346439
0.00342342
0.00339386
0.00198113
0.00245366
0.00283639
0.00315644
0.00343716
0.00369168
0.0039257
0.00413955
0.00432931
0.0044873
0.00460282
0.00466396
0.00466093
0.0045907
0.00446098
0.00429072
0.00410545
0.0039293
0.00377818
0.00365762
0.00356508
0.00349473
0.00344159
0.00340205
0.00201418
0.00242543
0.00277137
0.00307271
0.00334594
0.00359989
0.00383796
0.00405951
0.00426056
0.00443392
0.00456956
0.00465587
0.0046823
0.00464323
0.00454189
0.00439203
0.00421549
0.00403593
0.00387215
0.003734
0.0036226
0.00353441
0.00346573
0.00341298
0.00201706
0.00238216
0.00269839
0.00298338
0.00324945
0.00350248
0.00374409
0.00397283
0.00418462
0.00437273
0.00452784
0.00463883
0.0046948
0.00468818
0.00461837
0.00449402
0.00433237
0.00415501
0.003982
0.00382685
0.00369477
0.00358538
0.00349719
0.00342704
0.00200117
0.00232934
0.0026198
0.00288918
0.00314755
0.00339884
0.00364322
0.00387845
0.00410029
0.00430236
0.00447601
0.00461076
0.00469566
0.00472186
0.00468567
0.00459114
0.00445055
0.00428208
0.0041052
0.00393574
0.00378265
0.00364927
0.00353724
0.00344455
0.00197366
0.00227071
0.00253735
0.00279074
0.00304017
0.00328841
0.00353445
0.00377526
0.00400631
0.00422143
0.00441254
0.00456977
0.00468245
0.00474093
0.00473924
0.00467756
0.00456341
0.00441072
0.00423674
0.00405778
0.00388545
0.00372664
0.00358672
0.00346562
0.00193896
0.00220895
0.00245262
0.00268887
0.00292749
0.00317084
0.00341705
0.00366226
0.00390149
0.00412861
0.00433594
0.00451421
0.00465307
0.00474255
0.00477509
0.00474779
0.00466399
0.00453316
0.0043692
0.00418716
0.00399963
0.00381604
0.00364531
0.0034898
0.00189974
0.00214608
0.0023672
0.00258473
0.00281013
0.0030462
0.00329057
0.0035386
0.00378473
0.00402263
0.00424485
0.00444254
0.00460577
0.00472444
0.00478994
0.00479712
0.00474578
0.00464127
0.00449365
0.00431539
0.00411837
0.00391302
0.00371063
0.00351561
0.00185745
0.00208371
0.00228275
0.0024799
0.00268929
0.0029151
0.00315503
0.0034038
0.00365517
0.00390239
0.004138
0.00435345
0.00453908
0.00468483
0.00478139
0.00482192
0.00480346
0.00472774
0.00460101
0.0044325
0.00423214
0.00400978
0.00377729
0.0035398
0.00181246
0.00202309
0.00220093
0.00237632
0.0025668
0.00277887
0.00301108
0.00325788
0.0035123
0.00376702
0.00401434
0.00424576
0.0044518
0.0046224
0.00474778
0.00481979
0.00483326
0.00478691
0.00468349
0.00452884
0.00433028
0.00409598
0.00383673
0.00355665
0.00176157
0.00196538
0.00212304
0.00227607
0.00244505
0.00263965
0.00286024
0.00310159
0.00335621
0.00361611
0.00387312
0.00411856
0.00434299
0.00453623
0.00468809
0.00478936
0.00483305
0.00481529
0.00473569
0.00459686
0.00440322
0.00416075
0.00387817
0.00355765
0.00170227
0.00190934
0.00204927
0.00218086
0.00232674
0.00250034
0.00270496
0.00293663
0.00318783
0.00344991
0.00371411
0.00397137
0.00421204
0.00442578
0.00460191
0.00473026
0.00480221
0.00481159
0.00475514
0.00463234
0.00444463
0.00419542
0.00389093
0.00353233
0.00163465
0.0018484
0.00197777
0.00209134
0.00221433
0.00236433
0.00254865
0.00276583
0.00300911
0.00326958
0.00353783
0.00380428
0.0040589
0.00429101
0.00448941
0.00464297
0.00474152
0.00477669
0.00474247
0.00463517
0.004453
0.0041962
0.00386778
0.00347027
0.00156145
0.00177032
0.00190515
0.00200665
0.00210943
0.00223502
0.00239548
0.00259316
0.00282332
0.00307746
0.00334582
0.00361823
0.00388419
0.00413256
0.00435154
0.00452903
0.00465332
0.00471385
0.0047018
0.00461011
0.0044332
0.00416686
0.00380867
0.00336419
0.00148066
0.00166873
0.00182737
0.00192414
0.00201204
0.00211501
0.00224975
0.00242351
0.00263498
0.00287728
0.00314089
0.00341529
0.00368951
0.00395195
0.0041902
0.00439125
0.00454192
0.00462951
0.00464228
0.00456946
0.00440067
0.00412494
0.00372911
0.00321591
0.00136994
0.00154202
0.00173627
0.00183874
0.00191999
0.0020052
0.00211507
0.00226209
0.00244973
0.00267419
0.00292729
0.00319879
0.00347751
0.00375154
0.00400812
0.0042336
0.00441375
0.0045342
0.00458072
0.00453904
0.0043938
0.00412598
0.00370382
0.00306868
0.00119793
0.00138078
0.00162113
0.00174366
0.00182888
0.00190421
0.00199333
0.00211349
0.00227362
0.00247449
0.00271072
0.0029734
0.00325183
0.00353426
0.00380804
0.00405966
0.00427498
0.00443966
0.00453945
0.0045606
0.00449225
0.00433847
0.00414805
0.00403307
0.000937576
0.00118455
0.00145558
0.00163561
0.00173364
0.00180843
0.0018839
0.00198046
0.00211209
0.00228493
0.00249798
0.00274507
0.00301703
0.00330306
0.00359139
0.00386972
0.00412573
0.00434777
0.00452526
0.00464879
0.00471182
0.00471858
0.00469708
0.00470033
0.000618105
0.000993557
0.00124978
0.00149503
0.00162787
0.00171219
0.00178332
0.0018629
0.00196853
0.00211157
0.00229629
0.00252078
0.00277874
0.00306133
0.00335856
0.00366024
0.00395685
0.00423992
0.00450126
0.00473107
0.00491757
0.00505208
0.00514073
0.00521405
9.25012e-07
5.03982e-06
1.66522e-05
3.69101e-05
6.09679e-05
0.00010911
3.18213e-05
7.12303e-05
0.000129172
0.000189731
0.000241325
0.000311415
0.000179198
0.000146563
0.000245378
0.000334439
0.00040329
0.000461921
0.000193789
0.000200738
0.000333822
0.00044394
0.000526269
0.000584864
4.79255e-05
0.000234877
0.000400306
0.000525856
0.00062114
0.000688126
5.07299e-05
0.000263631
0.000450969
0.000589516
0.00069682
0.000775244
5.291e-05
0.000288885
0.000489771
0.00063858
0.000756966
0.00084783
5.45701e-05
0.000310995
0.000519755
0.000676705
0.000805283
0.000907398
5.5801e-05
0.000329848
0.000542264
0.000705868
0.000844074
0.000956366
5.66752e-05
0.00034511
0.000557733
0.000727032
0.000874767
0.000997203
5.72503e-05
0.000355879
0.000566151
0.000740565
0.000898226
0.00103167
5.75775e-05
0.000361171
0.000567326
0.000746449
0.000914723
0.00106053
5.76203e-05
0.000360929
0.000560883
0.000744385
0.000923956
0.00108382
5.73516e-05
0.000355486
0.000546957
0.000733857
0.000925118
0.00110091
5.6734e-05
0.000344825
0.000525064
0.000714062
0.000916897
0.00111055
5.57465e-05
0.00032883
0.000495097
0.000683917
0.000897449
0.00111069
5.43621e-05
0.00030737
0.000457066
0.000642293
0.000864096
0.00109833
5.25478e-05
0.000280319
0.000411136
0.000588084
0.000813465
0.00106958
5.0272e-05
0.000247424
0.000357743
0.000520212
0.000742306
0.00101661
4.75523e-05
0.000208313
0.000297495
0.000438329
0.000647123
0.000928619
0.000190752
0.000162244
0.000230894
0.000343536
0.000525782
0.000790904
0.00017578
0.000109486
0.000157957
0.000239512
0.000380204
0.000583364
3.11042e-05
4.93422e-05
7.80563e-05
0.000134351
0.000222394
0.000298508
8.85615e-07
3.69925e-06
1.464e-05
4.8533e-05
0.000112682
4.60156e-05
0.00049457
0.000781493
0.00107818
0.00131665
0.00150601
0.00160986
0.00168638
0.00175772
0.0018433
0.0019583
0.00211215
0.00230805
0.00254392
0.00281414
0.00311147
0.00342868
0.00375961
0.00409857
0.00443731
0.004761
0.00504814
0.00526458
0.00544469
0.00554955
0.000478276
0.000686596
0.000915744
0.00115202
0.00136341
0.0015011
0.00158869
0.00166012
0.0017336
0.0018258
0.00194981
0.00211375
0.0023205
0.00256874
0.00285503
0.00317594
0.00352924
0.00391208
0.00431555
0.0047189
0.00507906
0.00537017
0.00561444
0.00574152
0.000495067
0.000664895
0.000786898
0.000997204
0.00120262
0.00137118
0.00148141
0.0015627
0.00163351
0.00171091
0.00180998
0.00194248
0.00211595
0.00233392
0.00259747
0.00290765
0.00326676
0.00367567
0.00412602
0.00459238
0.00501146
0.00536864
0.00566285
0.00581287
0.000598806
0.000681634
0.00073159
0.000874662
0.00105517
0.0012254
0.00135823
0.00145697
0.00153482
0.00160721
0.00168943
0.00179519
0.00193553
0.00211832
0.00234929
0.00263419
0.00298027
0.00339333
0.00386818
0.00437826
0.00484559
0.00525927
0.00559576
0.00577147
0.000720387
0.000713964
0.000756357
0.000791879
0.000931318
0.00108639
0.00122651
0.00134109
0.00143142
0.00150737
0.00158197
0.00166883
0.00178057
0.00192808
0.00212087
0.00236884
0.00268399
0.00307789
0.00355161
0.00408239
0.00458597
0.00504472
0.00541585
0.00562386
0.000824647
0.000798691
0.000797602
0.000805267
0.000841719
0.000962274
0.00109253
0.00121542
0.00131902
0.00140448
0.00148011
0.00155734
0.00164841
0.00176534
0.00191985
0.00212467
0.00239535
0.00274898
0.00319493
0.00371952
0.00424402
0.00473349
0.00513044
0.00537595
0.000913831
0.000902021
0.000866552
0.000858097
0.000852744
0.000878062
0.000978873
0.00109148
0.00120069
0.00129602
0.00137809
0.00145387
0.00153334
0.00162774
0.0017491
0.00191112
0.00213091
0.00242917
0.00282347
0.00331277
0.00383836
0.00433916
0.0047562
0.00503527
0.000988158
0.00100069
0.000963943
0.000924117
0.000910271
0.000879959
0.000909012
0.00098947
0.00108685
0.00118476
0.00127345
0.00135286
0.00142867
0.00150962
0.00160637
0.00173171
0.00190213
0.00213898
0.00246508
0.00289179
0.00339487
0.00388205
0.0043203
0.00461401
0.0010498
0.00108607
0.00106469
0.00102305
0.000983565
0.000955663
0.000916263
0.000933673
0.000996033
0.00108055
0.00116921
0.00125243
0.00132932
0.00140448
0.00148583
0.00158394
0.00171289
0.00189188
0.00214475
0.00249247
0.00293651
0.00340253
0.00383493
0.00413616
0.00110232
0.00115669
0.00115498
0.00112358
0.00107677
0.00104195
0.00100144
0.000948318
0.000957772
0.00100632
0.00107835
0.00115739
0.00123427
0.00130748
0.00138075
0.00146133
0.00155986
0.00169156
0.00187731
0.00214108
0.00249893
0.00292537
0.00332771
0.00363334
0.0011483
0.00121595
0.00123142
0.00121407
0.0011765
0.00112945
0.00109642
0.00103117
0.000989178
0.00098866
0.0010229
0.00108107
0.00114916
0.00121845
0.00128677
0.00135695
0.00143563
0.00153332
0.00166567
0.00185369
0.00211956
0.00247288
0.00283991
0.00312895
0.00118941
0.00126806
0.00129585
0.00129067
0.00126499
0.00122604
0.00118234
0.00114089
0.0010682
0.00102803
0.00101965
0.00104264
0.00108805
0.00114479
0.00120534
0.00126734
0.00133305
0.00140833
0.00150306
0.00163229
0.00181618
0.0020752
0.00239821
0.00265432
0.00122674
0.00131527
0.00135112
0.00135497
0.00134003
0.00131146
0.00127177
0.00123747
0.00117735
0.00110663
0.00106981
0.00105635
0.00106862
0.00110111
0.00114571
0.0011962
0.00125025
0.00130984
0.00137967
0.00146817
0.00158915
0.0017623
0.00200939
0.00223829
0.00126036
0.00135891
0.00140073
0.00141075
0.00140415