/*--------------------------------*- C++ -*----------------------------------*\
  =========                 |
  \\      /  F ield         | OpenFOAM: The Open Source CFD Toolbox
   \\    /   O peration     | Website:  https://openfoam.org
    \\  /    A nd           | Version:  11
     \\/     M anipulation  |
\*---------------------------------------------------------------------------*/
FoamFile
{
    format      ascii;
    class       volScalarField;
    location    "0.52";
    object      p;
}
// * * * * * * * * * * * * * * * * * * * * * * * * * * * * * * * * * * * * * //

dimensions      [0 2 -2 0 0 0 0];

internalField   nonuniform List<scalar> 
2880
(
-0.874916
-0.895658
-0.919053
-0.949401
-0.990981
-1.05675
-0.86889
-0.893469
-0.915777
-0.945243
-0.972511
-0.983795
-0.856994
-0.888884
-0.909766
-0.937645
-0.957061
-0.955289
-0.854975
-0.884509
-0.904195
-0.929788
-0.945289
-0.941716
-0.863916
-0.881697
-0.900369
-0.923199
-0.935713
-0.934353
-0.869661
-0.880114
-0.897779
-0.917872
-0.928721
-0.931144
-0.871083
-0.87904
-0.895826
-0.913381
-0.924078
-0.929877
-0.87185
-0.877985
-0.894101
-0.909659
-0.920575
-0.928725
-0.872492
-0.876747
-0.892457
-0.906495
-0.91737
-0.926831
-0.873261
-0.875207
-0.890774
-0.903427
-0.91408
-0.923822
-0.873744
-0.873292
-0.888837
-0.900253
-0.910434
-0.919524
-0.873574
-0.870909
-0.886569
-0.896901
-0.906292
-0.913984
-0.872543
-0.868058
-0.883953
-0.893383
-0.901684
-0.907353
-0.870548
-0.86475
-0.881139
-0.889771
-0.896734
-0.899893
-0.867638
-0.86097
-0.878216
-0.886186
-0.891647
-0.891899
-0.86395
-0.856822
-0.875297
-0.882787
-0.886698
-0.883815
-0.859894
-0.852407
-0.872545
-0.879794
-0.882219
-0.876615
-0.855266
-0.848216
-0.870242
-0.877582
-0.87851
-0.8715
-0.855252
-0.84518
-0.868707
-0.876647
-0.876271
-0.869647
-0.861751
-0.843997
-0.867941
-0.877295
-0.876892
-0.8749
-0.863555
-0.843111
-0.867168
-0.879096
-0.881494
-0.89763
-0.855894
-0.840814
-0.865719
-0.88151
-0.888868
-0.938706
-0.845102
-0.837287
-0.864037
-0.883621
-0.896589
-0.981114
-0.840003
-0.834896
-0.863997
-0.886141
-0.90389
-1.0096
-0.869376
-0.82647
-0.820365
-0.810907
-0.78867
-0.747439
-0.685195
-0.605192
-0.515199
-0.423628
-0.33686
-0.258928
-0.191777
-0.135795
-0.0903853
-0.0545108
-0.0269891
-0.00663183
0.00763941
0.0167345
0.0214394
0.0227278
0.0215573
0.0151633
-0.896936
-0.86821
-0.860989
-0.856053
-0.83893
-0.800184
-0.735491
-0.6477
-0.546391
-0.442698
-0.345057
-0.258813
-0.185967
-0.126517
-0.0793624
-0.04294
-0.0156416
0.00399193
0.0171863
0.0249043
0.0278483
0.0267357
0.0218373
0.0125177
-0.906741
-0.897892
-0.898766
-0.902158
-0.893384
-0.859963
-0.79457
-0.69915
-0.5851
-0.467808
-0.35775
-0.262401
-0.183241
-0.120022
-0.0710895
-0.0342624
-0.00740681
0.0113308
0.0234123
0.0299306
0.0316074
0.0295507
0.0235061
0.0147036
-0.915929
-0.921002
-0.932583
-0.946724
-0.948764
-0.923418
-0.859704
-0.758301
-0.632123
-0.502413
-0.382089
-0.278238
-0.193173
-0.126239
-0.0751341
-0.0371337
-0.00973805
0.00923647
0.021477
0.0280359
0.029183
0.0270883
0.0209201
0.0150291
-0.925367
-0.940168
-0.961731
-0.986595
-0.999923
-0.983987
-0.923467
-0.81772
-0.683204
-0.544271
-0.416744
-0.308071
-0.220336
-0.151973
-0.0998383
-0.0607068
-0.0318971
-0.0112813
0.00300691
0.0125184
0.018049
0.0200421
0.0179524
0.0156849
-0.933175
-0.9551
-0.984615
-1.01792
-1.03995
-1.03139
-0.972258
-0.863362
-0.723469
-0.579694
-0.449621
-0.340428
-0.253658
-0.186226
-0.134272
-0.0943535
-0.0636343
-0.0400936
-0.0225045
-0.0096681
-0.000534982
0.00590489
0.00966057
0.0137381
-0.938544
-0.965251
-0.999691
-1.03804
-1.06493
-1.05652
-0.99601
-0.883768
-0.742052
-0.598912
-0.471096
-0.364464
-0.280509
-0.21461
-0.162902
-0.122327
-0.0904576
-0.0653135
-0.0453711
-0.0294869
-0.0166699
-0.00625611
0.00213763
0.0117663
-0.941356
-0.970162
-1.00634
-1.0457
-1.07107
-1.0584
-0.992743
-0.877442
-0.737571
-0.59998
-0.477949
-0.37741
-0.2975
-0.233702
-0.182698
-0.141771
-0.108819
-0.0821625
-0.0604167
-0.0424114
-0.0271122
-0.0137256
-0.000935725
0.0111777
-0.941295
-0.969737
-1.00467
-1.04096
-1.05933
-1.03856
-0.965138
-0.848202
-0.713331
-0.584137
-0.471637
-0.379506
-0.303989
-0.243239
-0.194019
-0.153783
-0.120667
-0.093187
-0.0701225
-0.0504606
-0.0332918
-0.0174077
-0.0014355
0.0116648
-0.938264
-0.964223
-0.99551
-1.0245
-1.03213
-0.999884
-0.918476
-0.801907
-0.674211
-0.555619
-0.454809
-0.369965
-0.300017
-0.242777
-0.19575
-0.15681
-0.124322
-0.0969484
-0.0735536
-0.0532143
-0.0351384
-0.0181294
-0.000106683
0.0142664
-0.932389
-0.954263
-0.979961
-0.997223
-0.992326
-0.946431
-0.858508
-0.744329
-0.626234
-0.518888
-0.427855
-0.35111
-0.286921
-0.233536
-0.188996
-0.15159
-0.119952
-0.0929501
-0.0696197
-0.0491905
-0.0309772
-0.0134967
0.00576258
0.0195693
-0.923951
-0.940777
-0.958463
-0.961621
-0.942106
-0.883127
-0.790024
-0.680203
-0.572333
-0.476272
-0.394099
-0.324671
-0.266071
-0.216675
-0.174939
-0.139463
-0.109072
-0.0827918
-0.0598336
-0.039621
-0.0215649
-0.00395525
0.0159829
0.0277128
-0.913445
-0.924956
-0.930583
-0.920213
-0.884265
-0.813423
-0.716878
-0.613006
-0.515262
-0.429082
-0.355203
-0.2923
-0.238759
-0.193157
-0.154229
-0.120844
-0.092027
-0.0669489
-0.0449434
-0.0255377
-0.00816781
0.00924319
0.0296602
0.0384218
-0.901695
-0.907695
-0.896732
-0.873509
-0.821054
-0.739154
-0.641771
-0.54469
-0.456143
-0.378769
-0.312215
-0.255186
-0.206278
-0.164262
-0.12808
-0.0968157
-0.0696876
-0.0460294
-0.0253032
-0.00711465
0.00913671
0.0259713
0.04655
0.051596
-0.889541
-0.888493
-0.859788
-0.820975
-0.75228
-0.661846
-0.566096
-0.475957
-0.395763
-0.326055
-0.265954
-0.214199
-0.169561
-0.130969
-0.0975206
-0.0684607
-0.043155
-0.0210658
-0.00176162
0.0150725
0.0300897
0.0462121
0.0666941
0.0673298
-0.877353
-0.862426
-0.822183
-0.762262
-0.677765
-0.582507
-0.49025
-0.407026
-0.334274
-0.271366
-0.217089
-0.170191
-0.129554
-0.0942409
-0.0634859
-0.0366687
-0.0132769
0.00713043
0.0249056
0.0402899
0.0539838
0.0693413
0.0896916
0.0856251
-0.866693
-0.824956
-0.778634
-0.69646
-0.598432
-0.501688
-0.414187
-0.337748
-0.271843
-0.215148
-0.166254
-0.123918
-0.0871058
-0.0549846
-0.0268997
-0.00234056
0.0191063
0.0378022
0.0540276
0.0679376
0.0802563
0.094793
0.115055
0.106405
-0.857405
-0.780822
-0.721146
-0.621189
-0.514734
-0.419411
-0.337614
-0.267912
-0.208536
-0.15773
-0.113971
-0.0760335
-0.0429542
-0.0139884
0.0114295
0.0337245
0.0532342
0.0702531
0.0849885
0.0974903
0.108479
0.122189
0.142409
0.129598
-0.840811
-0.741502
-0.650063
-0.535477
-0.426711
-0.335563
-0.260217
-0.19738
-0.144464
-0.0994331
-0.0607165
-0.0271247
0.00223659
0.028036
0.050767
0.0707909
0.088388
0.103797
0.117148
0.128368
0.138136
0.151061
0.171311
0.155155
-0.803022
-0.706274
-0.569441
-0.440384
-0.334112
-0.249636
-0.181623
-0.126018
-0.0797325
-0.040559
-0.0069312
0.0222736
0.0478684
0.0704477
0.090443
0.108168
0.123863
0.137724
0.14981
0.159923
0.168644
0.180856
0.201203
0.183109
-0.737779
-0.648918
-0.474702
-0.336154
-0.23641
-0.160961
-0.101646
-0.0539524
-0.0146404
0.0184936
0.0469237
0.0716583
0.0934078
0.112685
0.129863
0.14522
0.15897
0.171284
0.182182
0.191389
0.19935
0.210944
0.231351
0.213935
-0.664268
-0.535277
-0.354183
-0.221555
-0.133507
-0.0695658
-0.0205064
0.0184755
0.0504247
0.0773176
0.100429
0.120602
0.138418
0.154291
0.168533
0.181381
0.19303
0.203647
0.213279
0.221696
0.229154
0.239811
0.259613
0.25045
-0.594546
-0.35963
-0.19975
-0.0954891
-0.0260065
0.0236997
0.0611184
0.0906743
0.114931
0.135442
0.153171
0.168742
0.182572
0.194961
0.206131
0.216256
0.22548
0.233948
0.241761
0.248792
0.254805
0.261757
0.276971
0.298055
-0.434455
-0.128674
-0.0198522
0.0394435
0.08411
0.117062
0.141911
0.161706
0.178192
0.192351
0.204766
0.215803
0.2257
0.234622
0.242682
0.249953
0.256483
0.262325
0.267498
0.271687
0.27412
0.276541
0.290628
0.322203
1.44666
1.47463
1.49306
1.50213
1.45075
1.23655
1.44605
1.4704
1.47788
1.47644
1.3895
1.19864
1.44409
1.46434
1.46214
1.45022
1.357
1.17832
1.44158
1.45903
1.4502
1.42991
1.3378
1.17865
1.44132
1.4553
1.44198
1.41514
1.32599
1.18545
1.44325
1.45242
1.43591
1.40401
1.31838
1.19237
1.44375
1.44938
1.43079
1.39526
1.31316
1.19851
1.44246
1.44595
1.42622
1.38813
1.30945
1.20436
1.44089
1.44227
1.42215
1.3823
1.30701
1.21012
1.43917
1.4385
1.41856
1.37778
1.3058
1.21585
1.43731
1.43479
1.41552
1.37458
1.30577
1.22111
1.43539
1.43125
1.41309
1.37264
1.30691
1.22644
1.43347
1.42796
1.41129
1.37191
1.3091
1.23185
1.4316
1.42505
1.41016
1.37229
1.31228
1.23733
1.42977
1.42252
1.40966
1.37367
1.31639
1.24294
1.42801
1.42038
1.40971
1.37592
1.32144
1.24876
1.42657
1.41867
1.41017
1.37885
1.3274
1.2549
1.42662
1.4174
1.41085
1.3822
1.33421
1.26152
1.4279
1.41655
1.41144
1.38567
1.34166
1.26871
1.4274
1.41565
1.41147
1.38884
1.34933
1.27622
1.42526
1.4142
1.41057
1.39099
1.35631
1.28332
1.42318
1.41206
1.40856
1.39139
1.36171
1.29022
1.42201
1.40969
1.4057
1.39055
1.36651
1.30159
1.42169
1.40785
1.40456
1.39179
1.37384
1.32105
0.101705
0.116219
0.156626
0.174529
0.192753
0.208042
0.220255
0.230494
0.239467
0.247528
0.254863
0.26158
0.267744
0.273391
0.278534
0.283161
0.287255
0.29081
0.29373
0.295446
0.295366
0.297748
0.316183
0.333911
0.468218
0.327762
0.310539
0.298875
0.294483
0.293786
0.294491
0.295995
0.298056
0.300483
0.303123
0.30586
0.308606
0.311286
0.313828
0.31616
0.318221
0.319977
0.321272
0.32145
0.320276
0.323491
0.344354
0.353028
0.682183
0.504918
0.444133
0.40837
0.386437
0.372689
0.363596
0.357476
0.353412
0.350801
0.349231
0.348406
0.348114
0.348187
0.348484
0.348876
0.349262
0.349581
0.349626
0.348696
0.346768
0.350249
0.371908
0.375656
0.815207
0.638411
0.554637
0.502635
0.467995
0.444117
0.427013
0.414462
0.405133
0.398148
0.392904
0.388975
0.386049
0.383886
0.382283
0.381063
0.380089
0.379265
0.378348
0.376602
0.374116
0.377584
0.399266
0.400089
0.906334
0.73968
0.645347
0.583058
0.539436
0.507931
0.484485
0.466679
0.452959
0.442278
0.433911
0.427341
0.422185
0.418142
0.414957
0.412411
0.410328
0.408582
0.406894
0.404508
0.401588
0.404907
0.426134
0.425102
0.97032
0.816689
0.719036
0.650915
0.601314
0.56428
0.536002
0.514037
0.496756
0.483036
0.472083
0.463322
0.45632
0.450729
0.446253
0.442628
0.439648
0.437158
0.434852
0.431973
0.42874
0.431856
0.452286
0.45008
1.016
0.875707
0.778639
0.707746
0.654431
0.613581
0.581744
0.556589
0.536506
0.520356
0.507319
0.496789
0.488298
0.481464
0.475954
0.47147
0.467775
0.464692
0.4619
0.458654
0.455225
0.458113
0.477475
0.474575
1.04963
0.921367
0.826812
0.755102
0.699719
0.656371
0.622012
0.594493
0.572275
0.554242
0.539576
0.52766
0.518006
0.510204
0.503891
0.498738
0.494486
0.490941
0.487776
0.484279
0.48076
0.483405
0.501478
0.498238
1.0751
0.957103
0.865771
0.794423
0.738092
0.693224
0.657168
0.627969
0.604186
0.58475
0.56886
0.5559
0.545372
0.536846
0.529932
0.524278
0.519605
0.515711
0.512275
0.508628
0.505108
0.507493
0.524101
0.520782
1.09477
0.985301
0.8973
0.826937
0.770383
0.724705
0.687591
0.657271
0.632403
0.611974
0.59521
0.581506
0.570358
0.561321
0.553981
0.547968
0.542992
0.538848
0.535228
0.531516
0.528067
0.530173
0.545179
0.54197
1.11061
1.00768
0.922753
0.853641
0.797317
0.751334
0.713653
0.682659
0.657104
0.636029
0.618693
0.604503
0.592953
0.583586
0.57597
0.56972
0.56454
0.560228
0.556497
0.552792
0.549467
0.551273
0.564581
0.561609
1.12325
1.02541
0.943141
0.875329
0.819499
0.773568
0.735695
0.704386
0.678471
0.657042
0.639388
0.62493
0.613163
0.603619
0.595852
0.589466
0.584165
0.579755
0.575972
0.57233
0.569167
0.570654
0.582208
0.579552
1.1334
1.03934
0.959212
0.892618
0.837422
0.791795
0.75402
0.722686
0.696681
0.67514
0.65738
0.642837
0.631009
0.621415
0.613599
0.60716
0.601805
0.597353
0.593568
0.59003
0.587053
0.588209
0.597996
0.595694
1.14149
1.05005
0.971494
0.905968
0.851475
0.806337
0.768891
0.737769
0.711899
0.690448
0.67276
0.658284
0.64652
0.636979
0.629197
0.62277
0.617417
0.612968
0.609219
0.605817
0.60304
0.603862
0.611913
0.609973
1.14773
1.05787
0.980329
0.915703
0.861947
0.81745
0.780529
0.749822
0.724276
0.703086
0.685617
0.671332
0.659734
0.650328
0.642644
0.636282
0.630974
0.626565
0.622882
0.619636
0.617066
0.617568
0.623961
0.622362
1.15215
1.06295
0.985896
0.922026
0.869043
0.825333
0.789119
0.759009
0.733953
0.713167
0.696039
0.682047
0.670695
0.661488
0.653951
0.647695
0.642467
0.638127
0.634533
0.631457
0.629102
0.62933
0.634196
0.632816
1.15466
1.06525
0.988216
0.925023
0.872892
0.830137
0.794819
0.765477
0.74106
0.720803
0.704118
0.690498
0.679455
0.670493
0.663141
0.657022
0.6519
0.64765
0.644156
0.64125
0.639111
0.639134
0.642587
0.64111
1.15498
1.06456
0.987134
0.924667
0.87356
0.831981
0.797768
0.769367
0.745726
0.726107
0.709947
0.696762
0.686074
0.67739
0.67025
0.66429
0.659289
0.655139
0.651746
0.648989
0.647015
0.646795
0.648985
0.647602
1.15257
1.06038
0.982345
0.920833
0.871077
0.830976
0.798107
0.770822
0.748083
0.729193
0.713626
0.700923
0.690621
0.68224
0.67533
0.669546
0.664681
0.660641
0.657352
0.654729
0.652864
0.65235
0.653525
0.652633
1.14656
1.05198
0.97346
0.913386
0.865495
0.82726
0.795998
0.769998
0.748273
0.730187
0.715262
0.703072
0.693177
0.685114
0.67845
0.672855
0.668142
0.664224
0.661048
0.658557
0.656789
0.656048
0.656465
0.655969
1.13608
1.03861
0.96004
0.902265
0.856952
0.821041
0.791644
0.767076
0.746453
0.729224
0.714971
0.703311
0.693831
0.686092
0.67968
0.674285
0.669732
0.665946
0.662886
0.660515
0.658835
0.657952
0.657863
0.657638
1.12075
1.01914
0.941551
0.887531
0.84573
0.812619
0.785299
0.762266
0.742797
0.726449
0.712878
0.701745
0.692676
0.685257
0.679098
0.673907
0.66952
0.665868
0.662922
0.660655
0.659047
0.658099
0.657755
0.657697
1.09535
0.989959
0.917459
0.869564
0.832333
0.802402
0.77727
0.755801
0.73749
0.722015
0.709109
0.698487
0.689812
0.6827
0.676787
0.671795
0.667572
0.664054
0.661215
0.659032
0.657479
0.656545
0.656195
0.656189
1.02847
0.944573
0.888544
0.84949
0.817556
0.790899
0.767901
0.747933
0.730724
0.716078
0.703798
0.693651
0.685339
0.678512
0.672828
0.668027
0.663961
0.660571
0.65783
0.655708
0.654188
0.653343
0.653237
0.653178
0.959703
0.929771
0.899158
0.851622
0.785848
0.696927
0.965788
0.933247
0.905127
0.860191
0.808952
0.771174
0.978105
0.939588
0.91334
0.870385
0.82952
0.804667
0.981178
0.94588
0.92113
0.88058
0.846386
0.822856
0.973218
0.950196
0.927073
0.889419
0.858983
0.834602
0.968739
0.953066
0.931448
0.896459
0.867338
0.841108
0.969047
0.955451
0.934777
0.90174
0.872384
0.843934
0.969883
0.957734
0.937376
0.905555
0.874967
0.844075
0.970153
0.960065
0.939482
0.908209
0.875608
0.842127
0.970314
0.962684
0.941323
0.909911
0.874756
0.838534
0.970961
0.965848
0.943093
0.910896
0.872795
0.833535
0.972457
0.96975
0.944982
0.911416
0.86995
0.827229
0.974981
0.974495
0.947166
0.911671
0.86635
0.819627
0.978611
0.979965
0.949917
0.911826
0.862085
0.810674
0.983249
0.986272
0.95323
0.912039
0.857202
0.800203
0.988679
0.993254
0.957161
0.912451
0.851744
0.788103
0.994565
1.00058
0.961681
0.913192
0.845773
0.774105
1.00047
1.00782
0.966625
0.914368
0.839423
0.757882
1.00592
1.01447
0.971726
0.915997
0.83291
0.739266
1.01042
1.02011
0.976897
0.918268
0.826577
0.718633
1.01372
1.02478
0.982714
0.922465
0.822044
0.697008
1.01624
1.02948
0.990869
0.931221
0.823925
0.675567
1.01896
1.03517
1.00229
0.944641
0.835183
0.654874
1.02157
1.03949
1.01019
0.952802
0.835385
0.641065
0.877139
0.890678
0.859346
0.829321
0.802389
0.778646
0.757528
0.738898
0.722681
0.708782
0.697065
0.687342
0.679352
0.672778
0.667302
0.662675
0.658756
0.655485
0.65283
0.650745
0.649237
0.648553
0.648934
0.648717
0.842393
0.852697
0.834871
0.811047
0.787662
0.766065
0.746427
0.728898
0.713519
0.700257
0.689022
0.67966
0.671943
0.665583
0.660284
0.655811
0.652022
0.648857
0.646274
0.644204
0.642689
0.64224
0.643346
0.642861
0.83734
0.832659
0.8164
0.795062
0.773603
0.753354
0.734766
0.718072
0.703355
0.690608
0.679764
0.670692
0.663191
0.657001
0.651846
0.647499
0.64382
0.640747
0.63822
0.636144
0.634612
0.634484
0.636553
0.635634
0.832947
0.820076
0.801853
0.780799
0.760071
0.740534
0.722609
0.706496
0.692264
0.679905
0.669357
0.660503
0.653161
0.647094
0.642046
0.637796
0.634204
0.631202
0.628717
0.626613
0.625039
0.625266
0.628539
0.627182
0.828522
0.809882
0.789222
0.767528
0.746809
0.727522
0.709943
0.694187
0.680279
0.668189
0.657848
0.649142
0.641903
0.635914
0.630933
0.626746
0.62321
0.620253
0.617782
0.615609
0.613902
0.614371
0.619051
0.617845
0.824829
0.80068
0.777441
0.754678
0.733544
0.714183
0.696703
0.681118
0.667394
0.65547
0.645257
0.636638
0.629454
0.623501
0.618551
0.614393
0.610884
0.607944
0.605456
0.603173
0.601272
0.601953
0.608125
0.607091
0.820431
0.791656
0.765867
0.741813
0.720008
0.700348
0.682782
0.667224
0.653575
0.641731
0.631584
0.623004
0.615836
0.609887
0.604938
0.600786
0.597283
0.594341
0.591819
0.589408
0.587311
0.588276
0.596039
0.594814
0.814777
0.782217
0.754017
0.728564
0.705935
0.685827
0.668047
0.652411
0.638757
0.626935
0.616808
0.608235
0.601058
0.595091
0.590126
0.585963
0.582452
0.5795
0.576936
0.57439
0.572098
0.573382
0.582822
0.581282
0.807873
0.771995
0.741488
0.714592
0.691054
0.67041
0.652336
0.63656
0.622853
0.611019
0.600891
0.592311
0.585114
0.579121
0.574132
0.569951
0.566428
0.563461
0.560855
0.558173
0.555681
0.557282
0.568443
0.56656
0.79971
0.76069
0.727916
0.699562
0.675084
0.653866
0.635468
0.619529
0.605755
0.593904
0.583777
0.575194
0.567987
0.561975
0.556966
0.552772
0.54924
0.546264
0.543623
0.540816
0.538127
0.54003
0.552912
0.550694
0.790173
0.747978
0.71293
0.683124
0.657718
0.635942
0.617236
0.601154
0.587337
0.575496
0.565396
0.556841
0.549648
0.54364
0.538632
0.534439
0.530913
0.527942
0.525284
0.522372
0.5195
0.521685
0.536252
0.533741
0.779043
0.733478
0.696118
0.664892
0.638623
0.616358
0.597412
0.581251
0.567454
0.555683
0.545669
0.537193
0.530064
0.524103
0.519129
0.514967
0.511471
0.508528
0.505879
0.502898
0.499871
0.502313
0.518492
0.515776
0.766
0.716727
0.677001
0.644427
0.617418
0.594797
0.575738
0.559617
0.545947
0.534344
0.524506
0.516192
0.509199
0.503346
0.49846
0.494371
0.490941
0.48806
0.485455
0.482451
0.479312
0.481987
0.499663
0.496888
0.750613
0.697155
0.655009
0.621213
0.593665
0.570901
0.551927
0.536022
0.522638
0.511345
0.50181
0.493771
0.487015
0.481358
0.476632
0.472677
0.469363
0.466585
0.464068
0.461097
0.457905
0.460785
0.479797
0.477179
0.732337
0.674058
0.629448
0.594641
0.566856
0.544259
0.525655
0.510217
0.497335
0.486543
0.477481
0.469867
0.46348
0.458135
0.453668
0.449928
0.446795
0.444176
0.441798
0.438924
0.435748
0.438799
0.458927
0.456768
0.710318
0.64656
0.599449
0.563974
0.536396
0.514405
0.496561
0.481923
0.469831
0.459787
0.451414
0.444417
0.438568
0.433683
0.429602
0.426186
0.423324
0.420936
0.418762
0.416059
0.412972
0.41614
0.437085
0.43581
0.683444
0.613532
0.563921
0.528327
0.501595
0.480809
0.464243
0.450844
0.439906
0.430921
0.423504
0.41736
0.41226
0.408021
0.404491
0.40154
0.39907
0.39701
0.395123
0.392679
0.389762
0.392952
0.414303
0.414552
0.650173
0.573369
0.521505
0.486667
0.461676
0.442884
0.428268
0.416659
0.407329
0.399781
0.393647
0.388641
0.384542
0.381178
0.378406
0.376104
0.374186
0.372591
0.371108
0.369041
0.366382
0.369426
0.390605
0.393448
0.608281
0.523728
0.470657
0.437854
0.415797
0.400012
0.38818
0.379038
0.371865
0.366206
0.361735
0.3582
0.355403
0.353187
0.351424
0.350007
0.348854
0.347918
0.347018
0.345508
0.343233
0.345821
0.365899
0.373402
0.554709
0.461376
0.409683
0.380711
0.363108
0.351578
0.343532
0.337656
0.333281
0.330034
0.327662
0.325975
0.324818
0.324064
0.32361
0.323366
0.323261
0.323256
0.32322
0.3226
0.320972
0.322495
0.339593
0.35619
0.485467
0.382204
0.336691
0.314108
0.302832
0.297031
0.29392
0.292217
0.291362
0.291106
0.291314
0.291886
0.292734
0.293782
0.294965
0.296224
0.297512
0.298808
0.300071
0.300936
0.300676
0.300765
0.312022
0.345134
0.394512
0.281708
0.249638
0.237172
0.234432
0.235989
0.239052
0.242487
0.245922
0.24928
0.252574
0.255826
0.259046
0.262227
0.265361
0.268438
0.271459
0.274454
0.277454
0.280247
0.282237
0.284834
0.297303
0.322501
0.2663
0.156937
0.147213
0.149653
0.157812
0.168372
0.178818
0.188338
0.196834
0.204434
0.211322
0.217669
0.223595
0.229184
0.234489
0.239549
0.244403
0.249094
0.253591
0.257557
0.260806
0.266866
0.283967
0.283769
0.0668632
0.0128063
0.0314893
0.052521
0.0737602
0.0945846
0.11338
0.129796
0.144051
0.156487
0.167461
0.177287
0.186213
0.194412
0.201997
0.209039
0.21558
0.221638
0.227106
0.231568
0.235175
0.24273
0.261653
0.249154
-0.46988
-0.45543
-0.45572
-0.468921
-0.495931
-0.55683
-0.471906
-0.459024
-0.463024
-0.480082
-0.508098
-0.571428
-0.476149
-0.463799
-0.471743
-0.490057
-0.513961
-0.549895
-0.477309
-0.467453
-0.478015
-0.496443
-0.516673
-0.53802
-0.474313
-0.469958
-0.482401
-0.500631
-0.518787
-0.534164
-0.473736
-0.47245
-0.485901
-0.503969
-0.521446
-0.534813
-0.475165
-0.47528
-0.489013
-0.506955
-0.524509
-0.537906
-0.476743
-0.478306
-0.491854
-0.509687
-0.527661
-0.542187
-0.478276
-0.481369
-0.494411
-0.51215
-0.530704
-0.546791
-0.479765
-0.484334
-0.496625
-0.514289
-0.533493
-0.551264
-0.48118
-0.487083
-0.49843
-0.516037
-0.53591
-0.555355
-0.482481
-0.489523
-0.499785
-0.517335
-0.537865
-0.55888
-0.483644
-0.491575
-0.500715
-0.518147
-0.539266
-0.561714
-0.484664
-0.493207
-0.501237
-0.51847
-0.540012
-0.563835
-0.485546
-0.494399
-0.501363
-0.518286
-0.540063
-0.565238
-0.486304
-0.495156
-0.50109
-0.517574
-0.539521
-0.566006
-0.486964
-0.495518
-0.500455
-0.516469
-0.538474
-0.56638
-0.487592
-0.495569
-0.499614
-0.515134
-0.536877
-0.566565
-0.488237
-0.495458
-0.498781
-0.513713
-0.534751
-0.566606
-0.487183
-0.495478
-0.498221
-0.512461
-0.53226
-0.566663
-0.485058
-0.496185
-0.498358
-0.511785
-0.529752
-0.566707
-0.485752
-0.497962
-0.499741
-0.512085
-0.527391
-0.56524
-0.488257
-0.500321
-0.50239
-0.513144
-0.523821
-0.553714
-0.48941
-0.501916
-0.502996
-0.510796
-0.516734
-0.532109
-0.262934
-0.147191
-0.0898069
-0.050852
-0.0156732
0.0157518
0.043286
0.0670934
0.08764
0.105425
0.120934
0.134608
0.146809
0.157805
0.167776
0.176824
0.184998
0.192309
0.198647
0.203655
0.207744
0.21608
0.235376
0.218896
-0.385943
-0.285925
-0.20801
-0.153045
-0.107007
-0.066323
-0.0305447
0.00067939
0.0277911
0.0513035
0.0717431
0.0896181
0.105378
0.119381
0.131879
0.143024
0.15289
0.161506
0.168815
0.174595
0.179438
0.188382
0.207512
0.190645
-0.443198
-0.373458
-0.304896
-0.248112
-0.196721
-0.14964
-0.106991
-0.068875
-0.0352282
-0.00576601
0.0199321
0.0423524
0.0619802
0.0792412
0.0944626
0.107859
0.119554
0.129621
0.138077
0.144856
0.150654
0.160164
0.178926
0.163687
-0.484411
-0.429
-0.378007
-0.330847
-0.281748
-0.232233
-0.184801
-0.14084
-0.101038
-0.0656004
-0.0344042
-0.00711093
0.016722
0.0375463
0.0557514
0.0716251
0.0853576
0.0970854
0.10691
0.114912
0.121833
0.131922
0.150253
0.137981
-0.51138
-0.469719
-0.434931
-0.399977
-0.358917
-0.311875
-0.262596
-0.214356
-0.16912
-0.127903
-0.0910872
-0.0586324
-0.0302408
-0.00549744
0.016019
0.0346639
0.0507054
0.0643566
0.0758048
0.0852548
0.0934602
0.10418
0.122078
0.113656
-0.527875
-0.502654
-0.480643
-0.457706
-0.426897
-0.386436
-0.338769
-0.288372
-0.238797
-0.192231
-0.149816
-0.11198
-0.0786868
-0.0496379
-0.0244283
-0.00265646
0.016022
0.0319016
0.0452556
0.0563896
0.0660431
0.0774811
0.0949661
0.0908891
-0.539899
-0.529458
-0.51821
-0.5061
-0.485941
-0.454129
-0.411411
-0.361485
-0.309111
-0.257912
-0.210097
-0.166766
-0.128279
-0.0945458
-0.0652388
-0.0399457
-0.0182618
0.000185433
0.0157523
0.0288245
0.0401146
0.0523979
0.0695071
0.0699173
-0.550453
-0.550995
-0.549638
-0.546486
-0.536354
-0.51392
-0.478353
-0.431748
-0.378622
-0.323905
-0.271142
-0.222364
-0.178494
-0.139758
-0.105977
-0.076772
-0.0517041
-0.0303341
-0.012231
0.00304573
0.0161998
0.0294923
0.046322
0.0510953
-0.560028
-0.568552
-0.575538
-0.580041
-0.578192
-0.56506
-0.537587
-0.496548
-0.445126
-0.388547
-0.331689
-0.277776
-0.228518
-0.184593
-0.146054
-0.112614
-0.0838283
-0.0592086
-0.0382647
-0.0205067
-0.00524266
0.00929323
0.0260703
0.0348204
-0.568641
-0.583007
-0.596237
-0.606985
-0.611765
-0.60641
-0.587037
-0.552664
-0.505378
-0.449223
-0.389741
-0.331444
-0.277096
-0.228022
-0.184634
-0.146789
-0.114065
-0.0859642
-0.0619427
-0.0414589
-0.0238651
-0.00778286
0.00924995
0.0213419
-0.576181
-0.594784
-0.612244
-0.62727
-0.63697
-0.637321
-0.624785
-0.597193
-0.555379
-0.502078
-0.442167
-0.380946
-0.322324
-0.268527
-0.220495
-0.17834
-0.141684
-0.110076
-0.0828608
-0.0595141
-0.0394363
-0.0215318
-0.00389446
0.0108367
-0.582576
-0.604119
-0.624104
-0.64141
-0.653869
-0.657843
-0.649934
-0.628068
-0.591683
-0.542678
-0.484648
-0.422695
-0.36141
-0.303809
-0.252068
-0.206056
-0.165442
-0.130773
-0.100521
-0.0744143
-0.051846
-0.0319626
-0.0133474
0.00341818
-0.587865
-0.611244
-0.632322
-0.650105
-0.663162
-0.668392
-0.6628
-0.644351
-0.612251
-0.567577
-0.512945
-0.452475
-0.390781
-0.33138
-0.276588
-0.227762
-0.185264
-0.147014
-0.11382
-0.0856372
-0.0609001
-0.0391312
-0.0193405
-0.00110656
-0.592226
-0.616528
-0.637521
-0.654242
-0.665744
-0.670052
-0.664382
-0.646853
-0.617035
-0.575581
-0.524477
-0.466846
-0.406771
-0.347741
-0.292248
-0.242025
-0.197313
-0.157282
-0.12287
-0.0928165
-0.0663346
-0.0431572
-0.0223796
-0.00323688
-0.596054
-0.620561
-0.640556
-0.65503
-0.663592
-0.664769
-0.656648
-0.63778
-0.607943
-0.567951
-0.5194
-0.464818
-0.407444
-0.350456
-0.296193
-0.246277
-0.201356
-0.161601
-0.126243
-0.0951649
-0.0682183
-0.0443885
-0.0231013
-0.00355502
-0.599771
-0.624188
-0.642538
-0.653927
-0.658347
-0.65492
-0.642473
-0.620281
-0.588409
-0.547966
-0.500547
-0.448314
-0.393774
-0.339592
-0.287854
-0.239953
-0.19658
-0.157825
-0.123391
-0.0930961
-0.0665287
-0.0429327
-0.0219711
-0.00265688
-0.603894
-0.628316
-0.644771
-0.652658
-0.652181
-0.643211
-0.625166
-0.598143
-0.56266
-0.520169
-0.47244
-0.421407
-0.369182
-0.317829
-0.26908
-0.22406
-0.183304
-0.146876
-0.114588
-0.0861448
-0.0611515
-0.0389709
-0.0193961
-0.00121018
-0.609265
-0.634054
-0.648737
-0.652894
-0.647344
-0.632452
-0.608161
-0.575226
-0.535092
-0.489331
-0.439995
-0.389024
-0.338224
-0.289215
-0.243313
-0.201354
-0.16367
-0.130236
-0.100825
-0.0751054
-0.0526928
-0.0330051
-0.0158212
4.194e-05
-0.616879
-0.642466
-0.656293
-0.656318
-0.646002
-0.625315
-0.594656
-0.555476
-0.509773
-0.459868
-0.40789
-0.355842
-0.305461
-0.258027
-0.214446
-0.175245
-0.140557
-0.110232
-0.0839618
-0.0613745
-0.04209
-0.0256268
-0.0116679
0.000556323
-0.627748
-0.654766
-0.668376
-0.664851
-0.650341
-0.624133
-0.587241
-0.541737
-0.490224
-0.435515
-0.380083
-0.326019
-0.27495
-0.228057
-0.18597
-0.148923
-0.116829
-0.0893784
-0.066155
-0.0467079
-0.0306201
-0.0175094
-0.00709457
0.000901431
-0.642834
-0.672031
-0.685844
-0.680058
-0.661748
-0.630503
-0.587626
-0.535753
-0.478161
-0.418196
-0.358689
-0.301835
-0.249313
-0.202086
-0.160604
-0.124907
-0.0947307
-0.0696162
-0.0490079
-0.0323288
-0.0190658
-0.00882473
-0.00131295
0.00333976
-0.662465
-0.695697
-0.709902
-0.702363
-0.681144
-0.645507
-0.596874
-0.53846
-0.474249
-0.408307
-0.343991
-0.283654
-0.228934
-0.180707
-0.139205
-0.104248
-0.0753868
-0.0520169
-0.0334808
-0.019065
-0.00819182
-0.000219152
0.00583184
0.00921213
-0.689844
-0.728639
-0.741361
-0.732203
-0.708891
-0.669576
-0.615833
-0.550667
-0.479001
-0.405951
-0.335637
-0.270741
-0.212921
-0.16294
-0.120803
-0.0861013
-0.058156
-0.0362098
-0.0194732
-0.00727197
0.00115022
0.00721819
0.013362
0.0170563
-0.751353
-0.774672
-0.779324
-0.768843
-0.744857
-0.703613
-0.645213
-0.572815
-0.492584
-0.411028
-0.333249
-0.262488
-0.200475
-0.147821
-0.104286
-0.0691882
-0.0416275
-0.0206301
-0.0052344
0.00544074
0.01231
0.0167938
0.0208425
0.0203839
)
;

boundaryField
{
    rotor
    {
        type            zeroGradient;
    }
    freestream
    {
        type            freestreamPressure;
        freestreamValue uniform 0;
        supersonic      false;
        value           nonuniform List<scalar> 
96
(
0.000154579
0.000289704
0.000498789
0.000651106
0.000867974
0.000988354
0.00107138
0.00124527
0.0015286
0.00214779
0.00334035
0.00531066
0.00820749
0.0122224
0.0176071
0.0246115
0.0334783
0.0444566
0.0577977
0.0737767
0.0928439
0.116561
0.148039
0.169876
0.187386
0.210297
0.236601
0.265361
0.295748
0.327216
0.359267
0.391427
0.423244
0.45428
0.484126
0.512407
0.53879
0.56299
0.584768
0.603886
0.619952
0.633157
0.643714
0.651304
0.655882
0.65746
0.656065
0.651768
0.644657
0.63484
0.622422
0.607642
0.590939
0.571926
0.55066
0.527556
0.502847
0.476755
0.449515
0.421384
0.392628
0.363524
0.334355
0.305424
0.277083
0.249789
0.224218
0.201434
0.183165
0.160374
0.131902
0.1078
0.0877848
0.0705956
0.055774
0.0431277
0.0325007
0.0237274
0.0166381
0.0110746
0.00687364
0.0038397
0.0017793
0.000513025
-0.000152004
-0.000407095
-0.000408771
-0.000278125
-0.000114371
3.5239e-06
4.03261e-05
5.30845e-05
0.000141406
0.000211347
9.61199e-05
7.17467e-06
)
;
    }
    frontAndBack
    {
        type            empty;
    }
}


// ************************************************************************* //
