/*--------------------------------*- C++ -*----------------------------------*\
  =========                 |
  \\      /  F ield         | OpenFOAM: The Open Source CFD Toolbox
   \\    /   O peration     | Website:  https://openfoam.org
    \\  /    A nd           | Version:  11
     \\/     M anipulation  |
\*---------------------------------------------------------------------------*/
FoamFile
{
    format      ascii;
    class       surfaceVectorField;
    location    "0.52";
    object      Uf;
}
// * * * * * * * * * * * * * * * * * * * * * * * * * * * * * * * * * * * * * //

dimensions      [0 1 -1 0 0 0 0];

internalField   nonuniform List<vector> 
5640
(
(-0.0941256 0.0403495 -6.21515e-21)
(-0.0711802 0.0435393 -1.9672e-20)
(-0.244883 0.0479222 1.03701e-20)
(-0.207615 0.0609715 9.94681e-21)
(-0.369345 0.0484014 -3.11941e-19)
(-0.362046 0.058497 0)
(-0.446656 0.0591335 -3.319e-19)
(-0.431028 0.0582568 -3.20603e-19)
(-0.511419 0.106175 -8.20676e-20)
(-0.504943 0.0614533 4.39117e-20)
(-0.595383 0.0960115 -1.20797e-19)
(-0.632075 0.164027 -3.56256e-20)
(-0.169812 0.0645078 -6.42495e-21)
(-0.113903 0.0589882 -6.07449e-21)
(-0.321809 0.0708111 0)
(-0.268666 0.0821357 2.97468e-19)
(-0.418803 0.0699238 1.22822e-21)
(-0.397274 0.0784737 0)
(-0.487145 0.069684 4.39874e-20)
(-0.45866 0.0770967 1.98049e-19)
(-0.549827 0.0871389 1.94295e-20)
(-0.526603 0.081582 4.39117e-20)
(-0.582448 0.119297 6.6634e-20)
(-0.604167 0.136354 -9.19451e-21)
(-0.199105 0.084702 2.80306e-19)
(-0.141701 0.0778364 -6.36285e-19)
(-0.344608 0.0928453 3.10126e-19)
(-0.292821 0.107267 1.18272e-20)
(-0.431246 0.0900725 1.87259e-19)
(-0.405953 0.100727 0)
(-0.492506 0.0906584 1.9924e-19)
(-0.460636 0.0986026 5.58203e-19)
(-0.545766 0.109169 1.0087e-19)
(-0.517035 0.104441 -3.10769e-19)
(-0.553709 0.137235 -9.08954e-20)
(-0.576989 0.146892 1.44276e-19)
(-0.221206 0.102151 -9.40482e-19)
(-0.168767 0.0957696 8.11027e-19)
(-0.353952 0.115315 -2.95945e-19)
(-0.309804 0.129615 2.91698e-19)
(-0.429967 0.111419 3.52086e-19)
(-0.404889 0.123026 2.70528e-20)
(-0.481285 0.113012 7.25573e-20)
(-0.451263 0.120253 -3.77928e-19)
(-0.521696 0.130421 -5.11042e-19)
(-0.494289 0.1269 6.34094e-20)
(-0.51658 0.154091 -7.30966e-21)
(-0.539138 0.158885 -1.8869e-19)
(-0.243456 0.119244 2.08918e-18)
(-0.19456 0.112756 6.86808e-19)
(-0.358623 0.136374 6.25466e-19)
(-0.322523 0.1479 5.60136e-20)
(-0.421761 0.132829 -6.87497e-19)
(-0.398517 0.144158 4.30063e-19)
(-0.46198 0.134364 -3.99953e-19)
(-0.435671 0.141267 -2.76055e-20)
(-0.489015 0.149508 5.67472e-19)
(-0.465127 0.148151 5.07798e-20)
(-0.475233 0.170107 -6.19623e-20)
(-0.494466 0.171855 2.21865e-19)
(-0.263174 0.137964 -1.32089e-18)
(-0.215664 0.129768 -8.09138e-19)
(-0.359125 0.155224 -1.57509e-19)
(-0.32951 0.163453 -1.00872e-18)
(-0.409107 0.153313 1.10794e-18)
(-0.388569 0.163805 1.15644e-20)
(-0.437681 0.154807 4.21405e-19)
(-0.415848 0.161488 3.48412e-19)
(-0.451828 0.167512 -5.78216e-19)
(-0.432355 0.168251 -7.53807e-21)
(-0.430641 0.185595 -2.53382e-19)
(-0.445386 0.185446 -2.95489e-19)
(-0.275905 0.154724 -4.85342e-19)
(-0.232186 0.146016 -9.68167e-23)
(-0.355614 0.172183 -8.83509e-19)
(-0.331344 0.177454 -1.30136e-20)
(-0.393117 0.172605 -7.59956e-19)
(-0.376008 0.182 -3.91914e-19)
(-0.410063 0.174486 -6.98017e-20)
(-0.393137 0.180846 -4.07491e-19)
(-0.411759 0.185112 3.24029e-19)
(-0.397712 0.187131 6.29684e-19)
(-0.383647 0.200727 0)
(-0.393014 0.199274 7.24065e-20)
(-0.28327 0.168097 4.73132e-19)
(-0.245583 0.160227 8.18272e-19)
(-0.348817 0.18762 4.95011e-19)
(-0.329226 0.190148 -4.33523e-21)
(-0.374755 0.190623 -3.8923e-20)
(-0.361481 0.198917 0)
(-0.380725 0.193073 2.63169e-19)
(-0.369104 0.199094 -4.02839e-20)
(-0.37043 0.201823 3.2075e-19)
(-0.362385 0.204785 -3.36551e-20)
(-0.336068 0.21506 -7.31727e-22)
(-0.339216 0.212626 2.87228e-19)
(-0.287552 0.180154 3.88034e-19)
(-0.255735 0.172157 1.42815e-20)
(-0.339413 0.201821 -4.99531e-19)
(-0.324025 0.201624 -3.5168e-20)
(-0.355212 0.207506 0)
(-0.345759 0.214677 2.31453e-20)
(-0.351014 0.210429 -3.37391e-19)
(-0.344761 0.216172 -7.93324e-20)
(-0.329086 0.217324 -3.5552e-19)
(-0.327373 0.221134 -3.47896e-19)
(-0.289657 0.228236 1.24064e-19)
(-0.286006 0.224931 -3.25732e-19)
(-0.289128 0.190702 -4.07318e-19)
(-0.262598 0.181636 -8.29591e-19)
(-0.32821 0.214906 4.84285e-19)
(-0.31643 0.211964 9.72842e-19)
(-0.335235 0.223269 -5.2725e-20)
(-0.329444 0.229378 -4.66598e-20)
(-0.321662 0.226587 -8.21661e-20)
(-0.320659 0.232191 -4.03018e-20)
(-0.289187 0.231495 1.21543e-19)
(-0.293755 0.236175 2.0517e-19)
(-0.245978 0.239989 -6.19723e-20)
(-0.235319 0.235763 1.0921e-19)
(-0.288027 0.199459 4.48176e-19)
(-0.266138 0.188572 -4.88386e-20)
(-0.315749 0.22697 4.85423e-19)
(-0.306974 0.221238 5.86409e-20)
(-0.315263 0.238051 -3.42205e-20)
(-0.31283 0.243233 -1.16495e-19)
(-0.293513 0.241603 2.40293e-19)
(-0.297416 0.247253 1.17525e-19)
(-0.251966 0.244274 2.90053e-20)
(-0.262501 0.24997 -1.05258e-19)
(-0.206381 0.250218 -1.85052e-19)
(-0.18886 0.244815 -5.05165e-19)
(-0.284236 0.206452 -4.43042e-19)
(-0.266266 0.19299 -1.22193e-20)
(-0.302481 0.23802 -5.34877e-19)
(-0.296015 0.229629 -4.70167e-19)
(-0.295722 0.252027 2.79088e-20)
(-0.296176 0.256367 -9.34223e-20)
(-0.26734 0.255584 -2.21713e-19)
(-0.275602 0.261506 1.17631e-19)
(-0.218502 0.255652 -3.17046e-19)
(-0.234453 0.262656 -3.1121e-19)
(-0.17193 0.258921 5.02418e-19)
(-0.147923 0.252006 5.05705e-19)
(-0.277809 0.211907 -1.29242e-20)
(-0.262809 0.195095 -1.22193e-20)
(-0.288325 0.248637 -4.47434e-20)
(-0.283703 0.237258 0)
(-0.277065 0.265306 -1.00507e-20)
(-0.279851 0.268969 -4.19913e-19)
(-0.243781 0.268686 4.02339e-20)
(-0.255679 0.275115 3.91366e-20)
(-0.189602 0.265788 4.88639e-19)
(-0.210277 0.274414 2.07922e-19)
(-0.143433 0.266243 3.73864e-19)
(-0.113437 0.25737 -6.46947e-20)
(-0.269219 0.215315 0)
(-0.255779 0.195261 0)
(-0.273778 0.258622 -3.57301e-19)
(-0.270106 0.244177 4.47367e-19)
(-0.259636 0.278084 -3.85789e-19)
(-0.264045 0.281167 4.03989e-19)
(-0.223329 0.281104 2.02093e-19)
(-0.238018 0.28825 0)
(-0.165915 0.274856 8.96263e-20)
(-0.190496 0.285476 -3.52886e-19)
(-0.121465 0.272383 -3.77615e-19)
(-0.085887 0.261014 1.05337e-19)
(-0.257957 0.21764 4.21558e-19)
(-0.245092 0.19383 1.21559e-20)
(-0.258915 0.26814 1.20854e-18)
(-0.255403 0.250432 4.14271e-19)
(-0.243691 0.290505 8.03355e-19)
(-0.248907 0.293081 7.5145e-19)
(-0.206378 0.293049 -5.44944e-19)
(-0.22289 0.301065 4.00685e-20)
(-0.147948 0.283065 -8.19057e-19)
(-0.175497 0.29612 -6.54046e-20)
(-0.106551 0.277547 4.66691e-21)
(-0.065396 0.262803 -2.92676e-19)
(-0.244301 0.21898 -1.83338e-20)
(-0.230453 0.191982 1.21559e-20)
(-0.243871 0.27725 -6.12072e-20)
(-0.239712 0.255916 -9.90239e-19)
(-0.229404 0.302671 1.30362e-20)
(-0.234553 0.304699 -8.23374e-19)
(-0.193193 0.304748 5.22373e-19)
(-0.210445 0.313655 4.00685e-20)
(-0.136159 0.290683 7.56489e-19)
(-0.165533 0.306712 4.93531e-19)
(-0.0993578 0.28203 2.54961e-19)
(-0.0517522 0.262251 4.62515e-20)
(-0.229369 0.220771 -9.0143e-19)
(-0.209799 0.196486 0)
(-0.228882 0.285929 -1.75823e-18)
(-0.223398 0.260055 -4.51859e-19)
(-0.216892 0.314555 -8.24535e-19)
(-0.221073 0.315749 -2.3158e-19)
(-0.183925 0.3164 -1.2895e-21)
(-0.200692 0.325956 2.27191e-19)
(-0.130858 0.298088 -1.3585e-21)
(-0.160676 0.317684 -3.27954e-19)
(-0.100357 0.285607 0)
(-0.0422141 0.259373 2.91255e-19)
(-0.207146 0.226785 4.73729e-19)
(-0.185194 0.201927 5.64632e-21)
(-0.214259 0.293483 1.06571e-18)
(-0.2083 0.260809 5.18785e-19)
(-0.206087 0.325838 8.04752e-19)
(-0.208424 0.325443 3.52895e-19)
(-0.178616 0.328049 -8.30429e-20)
(-0.193444 0.337657 7.98584e-20)
(-0.132226 0.305484 -3.33855e-19)
(-0.160881 0.32944 -3.80778e-19)
(-0.110125 0.286463 3.28047e-20)
(-0.0333431 0.25438 3.47572e-20)
(-0.18518 0.225399 2.10982e-20)
(-0.161481 0.195295 -4.28069e-21)
(-0.200375 0.297286 -1.84946e-19)
(-0.193546 0.255708 1.51862e-19)
(-0.196611 0.335796 -3.62239e-19)
(-0.195849 0.332674 -1.10591e-19)
(-0.176948 0.339513 -2.04563e-19)
(-0.188161 0.348302 -1.25808e-19)
(-0.140884 0.31287 -2.56224e-20)
(-0.165998 0.34255 -9.16636e-20)
(-0.130451 0.282671 8.16105e-20)
(-0.0219385 0.244477 -1.03539e-19)
(-0.166832 0.214293 1.1877e-19)
(-0.138234 0.179729 -1.46807e-20)
(-0.186346 0.296378 2.39488e-19)
(-0.176845 0.245411 1.0264e-20)
(-0.187561 0.343732 1.26354e-19)
(-0.182189 0.33683 -2.69929e-21)
(-0.178163 0.350785 -1.43843e-20)
(-0.183852 0.357199 2.1371e-20)
(-0.157808 0.322143 6.04858e-21)
(-0.174714 0.359738 -3.69238e-20)
(-0.164323 0.275812 6.47963e-20)
(-0.00573966 0.228641 1.75354e-19)
(-0.145984 0.199138 -1.23216e-19)
(-0.114267 0.161974 4.17127e-21)
(-0.170355 0.29164 -2.32204e-19)
(-0.157165 0.231378 -1.17724e-19)
(-0.17817 0.349017 -1.08725e-19)
(-0.166533 0.337823 -1.15441e-19)
(-0.180722 0.362674 0)
(-0.178741 0.362322 8.62449e-21)
(-0.178676 0.339498 1.56072e-20)
(-0.183167 0.386368 0)
(-0.198842 0.272105 8.01564e-21)
(0.0218292 0.245291 4.38385e-20)
(-0.124581 0.182082 1.73696e-20)
(-0.0898878 0.141881 8.94574e-20)
(-0.152455 0.283779 -1.05862e-21)
(-0.134083 0.212661 7.16396e-20)
(-0.166638 0.350082 -2.28111e-21)
(-0.148548 0.334231 -3.00075e-21)
(-0.180716 0.375414 8.8663e-21)
(-0.169802 0.358631 2.58938e-21)
(-0.194134 0.371043 -7.78376e-21)
(-0.18592 0.422837 -5.39335e-21)
(-0.208908 0.274649 -3.38192e-21)
(0.089489 0.328614 -2.53981e-20)
(-0.102123 0.158878 1.45328e-19)
(-0.0649934 0.0992958 -1.28679e-20)
(-0.132285 0.270932 7.29097e-20)
(-0.105499 0.169937 -1.65359e-19)
(-0.152614 0.341977 1.63294e-21)
(-0.127757 0.309234 7.19241e-21)
(-0.174842 0.383525 -1.14158e-20)
(-0.152223 0.323391 -1.19836e-19)
(-0.195055 0.409428 -7.88102e-21)
(-0.178135 0.451957 2.80942e-20)
(-0.191351 0.245674 -1.47629e-20)
(0.180331 0.433107 5.35629e-21)
(-0.0663516 0.0942431 -3.15085e-19)
(-0.101297 0.219754 -2.37603e-19)
(-0.122749 0.289267 -1.09985e-19)
(-0.146787 0.354811 -7.76332e-20)
(-0.172131 0.406174 5.31932e-20)
(0.260491 0.50578 -3.5897e-20)
(-0.567328 0.188889 6.08555e-20)
(-0.583 0.197368 1.15194e-19)
(-0.529382 0.231929 -3.01408e-20)
(-0.570891 0.121705 5.74715e-20)
(-0.569052 0.154021 -5.10746e-20)
(-0.560174 0.14817 1.32093e-20)
(-0.576196 0.0577508 1.04627e-19)
(-0.568338 0.0941356 1.15092e-19)
(-0.574371 0.0843962 1.20864e-19)
(-0.572252 -0.00972092 3.62673e-21)
(-0.564963 0.0288282 -2.322e-21)
(-0.582075 0.0217849 3.86629e-20)
(-0.552412 -0.0819653 -1.50186e-19)
(-0.548428 -0.0453506 1.32686e-19)
(-0.575275 -0.0439761 -4.5732e-20)
(-0.512776 -0.155065 -1.29316e-19)
(-0.511613 -0.126136 -8.68131e-20)
(-0.550257 -0.111362 -8.72579e-20)
(-0.453176 -0.222259 -6.01836e-20)
(-0.451645 -0.20649 -8.11787e-20)
(-0.505237 -0.17533 0)
(-0.377603 -0.276578 -6.16938e-20)
(-0.371454 -0.276911 2.19864e-22)
(-0.442808 -0.229679 -7.44269e-20)
(-0.292862 -0.313919 0)
(-0.278819 -0.329292 -5.23923e-20)
(-0.3684 -0.26953 0)
(-0.205598 -0.333702 -2.71682e-20)
(-0.182282 -0.360944 0)
(-0.288095 -0.293378 0)
(-0.120685 -0.337774 -2.7724e-20)
(-0.0883673 -0.373167 2.83881e-20)
(-0.206844 -0.302059 -3.92959e-20)
(-0.041103 -0.329397 -1.17017e-20)
(-0.00106192 -0.369471 2.01007e-20)
(-0.128243 -0.298129 -6.20475e-21)
(0.0317975 -0.312013 -5.80623e-21)
(0.0778791 -0.354147 -1.18111e-20)
(-0.0543273 -0.284689 1.00343e-21)
(0.0977571 -0.288502 1.73469e-21)
(0.148163 -0.330964 6.36749e-21)
(0.0141072 -0.264467 1.11516e-20)
(0.157132 -0.261119 -6.91652e-22)
(0.210309 -0.302888 -4.72531e-21)
(0.0768938 -0.239729 -4.72531e-21)
(0.210547 -0.231556 5.80099e-21)
(0.265247 -0.272073 6.9314e-21)
(0.134274 -0.212241 4.50976e-21)
(0.258699 -0.201038 1.22446e-21)
(0.314016 -0.240029 5.5717e-22)
(0.186667 -0.183333 1.62671e-22)
(0.302254 -0.170417 6.02125e-22)
(0.357607 -0.207792 -7.28358e-22)
(0.234535 -0.15398 2.1137e-21)
(0.341806 -0.140245 -1.03726e-21)
(0.396901 -0.17602 4.96689e-23)
(0.278306 -0.124858 4.96689e-23)
(0.377844 -0.110848 -3.32277e-21)
(0.432635 -0.145085 -2.13047e-22)
(0.318309 -0.0964124 -1.09456e-21)
(0.410766 -0.0824552 2.37016e-21)
(0.465343 -0.115169 -2.23552e-21)
(0.35472 -0.0689276 -1.5031e-21)
(0.440943 -0.0556149 3.34802e-21)
(0.495792 -0.0863815 2.34002e-21)
(0.387943 -0.0426493 1.75579e-21)
(0.46896 -0.0328812 -5.25937e-22)
(0.525259 -0.0591572 4.72451e-21)
(0.419716 -0.018167 1.63426e-22)
(0.557332 -0.0369473 -2.50358e-21)
(0.454102 0.00135725 2.17735e-22)
(-0.57698 0.174958 1.16951e-20)
(-0.581214 0.183538 6.14298e-20)
(-0.562843 0.127832 2.60962e-22)
(-0.554712 0.156193 -3.48735e-20)
(-0.555086 0.0662568 1.09694e-20)
(-0.543212 0.103576 -2.58228e-20)
(-0.539672 -0.0057637 1.25263e-19)
(-0.527278 0.0381485 9.59635e-20)
(-0.507221 -0.0886336 2.01445e-19)
(-0.497095 -0.0429132 -5.83296e-21)
(-0.451846 -0.177036 -3.79667e-20)
(-0.442924 -0.136871 8.94752e-20)
(-0.372955 -0.261144 -2.10068e-20)
(-0.360796 -0.234318 -1.34008e-19)
(-0.276087 -0.330042 1.09832e-20)
(-0.255322 -0.321556 6.20113e-20)
(-0.1711 -0.376936 -5.29753e-20)
(-0.138392 -0.385939 7.39924e-22)
(-0.0671454 -0.401047 5.60097e-20)
(-0.0217003 -0.423237 -4.29046e-20)
(0.0299307 -0.405411 7.70591e-20)
(0.0868109 -0.435939 2.50439e-20)
(0.117193 -0.394669 2.02871e-20)
(0.183189 -0.429154 -3.17023e-21)
(0.193913 -0.373472 0)
(0.26646 -0.408862 0)
(0.260599 -0.34565 0)
(0.33736 -0.380044 -1.3486e-20)
(0.318416 -0.314054 2.4024e-21)
(0.397483 -0.346515 7.92234e-21)
(0.36875 -0.280667 1.87354e-21)
(0.448707 -0.310897 -2.17433e-21)
(0.412958 -0.246828 -3.62326e-22)
(0.492841 -0.274875 -3.40387e-22)
(0.452266 -0.213397 -6.81324e-22)
(0.531504 -0.239516 -2.98776e-22)
(0.487732 -0.180863 1.09376e-21)
(0.566041 -0.205439 0)
(0.520234 -0.149445 1.10817e-21)
(0.597581 -0.172921 -5.48348e-21)
(0.550498 -0.119284 -1.20605e-21)
(0.626827 -0.142041 3.66707e-23)
(0.579247 -0.0906082 3.04071e-21)
(0.65504 -0.112876 4.84855e-21)
(0.607192 -0.0654376 1.84582e-20)
(0.682255 -0.085479 -4.31456e-22)
(0.714764 -0.0611209 2.30119e-21)
(-0.556038 0.170175 2.1615e-20)
(-0.55409 0.180125 6.31366e-20)
(-0.533844 0.134111 -6.15085e-20)
(-0.520984 0.161196 -3.01331e-19)
(-0.513067 0.0769184 6.1899e-20)
(-0.497711 0.115302 -6.28242e-20)
(-0.482577 0.00224266 -3.1255e-20)
(-0.466146 0.0513771 -2.66744e-22)
(-0.431835 -0.0902066 -1.19442e-19)
(-0.416566 -0.0347868 -4.69963e-19)
(-0.353446 -0.193883 -2.70834e-21)
(-0.337007 -0.140897 2.07766e-19)
(-0.247415 -0.295227 -5.20116e-20)
(-0.22345 -0.254987 -6.22789e-20)
(-0.122632 -0.378072 5.26634e-20)
(-0.0845722 -0.35831 0)
(0.00684921 -0.432322 1.14649e-20)
(0.0618497 -0.432731 2.33462e-19)
(0.129349 -0.457389 -7.23019e-20)
(0.200257 -0.472593 4.45283e-20)
(0.238158 -0.458341 -4.98116e-20)
(0.321577 -0.481987 -1.52803e-19)
(0.331366 -0.441737 -2.06602e-20)
(0.423145 -0.468969 -5.21748e-20)
(0.409358 -0.413763 -1.33676e-20)
(0.505794 -0.441093 1.14878e-20)
(0.473994 -0.379353 -8.02228e-21)
(0.572258 -0.404788 -5.02992e-21)
(0.527674 -0.342027 5.5451e-21)
(0.625818 -0.364706 2.03909e-20)
(0.572768 -0.304036 -2.2497e-21)
(0.669576 -0.323859 -8.79353e-21)
(0.611369 -0.266742 -7.31639e-22)
(0.70613 -0.284007 -2.34213e-21)
(0.645246 -0.230956 3.80472e-22)
(0.737698 -0.246127 4.03538e-21)
(0.675823 -0.197077 -6.54066e-21)
(0.765894 -0.210708 -1.38625e-21)
(0.70419 -0.165181 -5.18164e-21)
(0.792091 -0.177809 -1.05989e-20)
(0.731186 -0.135375 6.17124e-21)
(0.816617 -0.147411 6.01451e-21)
(0.75765 -0.107407 1.40782e-21)
(0.842224 -0.119422 3.60269e-21)
(0.784031 -0.0820459 -2.22183e-20)
(0.865041 -0.0941078 2.18883e-22)
(0.901807 -0.0682799 2.42216e-21)
(-0.516462 0.173351 -2.51072e-19)
(-0.511762 0.183923 4.20276e-20)
(-0.484736 0.143923 -3.07641e-19)
(-0.470884 0.170002 2.15583e-21)
(-0.448474 0.0913598 -1.23932e-19)
(-0.432548 0.130315 0)
(-0.397249 0.0156843 -4.29051e-19)
(-0.380133 0.0689536 -1.26281e-19)
(-0.319876 -0.0847098 -1.56634e-19)
(-0.303292 -0.0203778 -6.50394e-20)
(-0.208501 -0.202675 1.53897e-19)
(-0.188065 -0.136458 1.59795e-19)
(-0.0660829 -0.320548 -7.18531e-21)
(-0.0330769 -0.264661 -1.03131e-19)
(0.0937208 -0.415468 1.78015e-19)
(0.146166 -0.381955 -8.33598e-20)
(0.25049 -0.473979 2.62012e-19)
(0.323672 -0.462726 5.33097e-20)
(0.38899 -0.496866 -3.47432e-20)
(0.478065 -0.500396 -1.03219e-19)
(0.504405 -0.491172 -1.5424e-19)
(0.602377 -0.503913 -6.74379e-20)
(0.596466 -0.465793 -2.28242e-20)
(0.697705 -0.482806 -3.51092e-20)
(0.668165 -0.428898 1.59771e-20)
(0.768965 -0.446596 5.15919e-20)
(0.723779 -0.386673 1.10388e-20)
(0.822065 -0.403058 2.65635e-20)
(0.767462 -0.343161 5.63634e-22)
(0.862267 -0.357398 -3.88309e-20)
(0.802688 -0.300736 -8.93487e-21)
(0.893705 -0.312683 2.89012e-20)
(0.832155 -0.260667 -3.19445e-21)
(0.919357 -0.270523 -1.39688e-20)
(0.857973 -0.223527 -1.98851e-21)
(0.94192 -0.231637 7.58811e-21)
(0.881682 -0.18947 -5.38307e-21)
(0.962562 -0.196425 6.33484e-21)
(0.904345 -0.158366 4.79465e-21)
(0.982418 -0.164695 -1.58333e-20)
(0.926951 -0.130406 3.57054e-21)
(1.00107 -0.136669 1.31905e-20)
(0.950172 -0.105153 9.33112e-21)
(1.02278 -0.111534 -1.25772e-20)
(0.974719 -0.0825844 3.66012e-21)
(1.03916 -0.0916718 4.3861e-21)
(1.07798 -0.067038 -1.45836e-22)
(-0.464482 0.181745 2.96229e-19)
(-0.45972 0.192457 0)
(-0.41893 0.157206 3.09861e-19)
(-0.407954 0.181467 2.23951e-19)
(-0.361919 0.109381 0)
(-0.350087 0.147427 7.29732e-20)
(-0.282556 0.0342691 2.44711e-19)
(-0.271125 0.0891581 0)
(-0.168494 -0.071797 2.52654e-19)
(-0.159202 -0.0019859 2.48873e-19)
(-0.0131161 -0.201395 -9.46997e-20)
(0.000853728 -0.12546 0)
(0.175326 -0.331652 -1.74589e-19)
(0.204896 -0.264558 -9.60366e-20)
(0.369728 -0.436031 -2.26732e-19)
(0.423285 -0.387982 6.29791e-20)
(0.546537 -0.495724 -3.73059e-19)
(0.621746 -0.471159 -3.54476e-20)
(0.688942 -0.512744 -1.41011e-19)
(0.773886 -0.504432 -3.13146e-19)
(0.795274 -0.498931 7.32477e-20)
(0.881045 -0.500868 -1.03751e-20)
(0.871328 -0.465423 4.06598e-20)
(0.953225 -0.473328 4.58056e-21)
(0.924656 -0.421628 5.84047e-20)
(1.00062 -0.432131 4.01041e-20)
(0.962418 -0.37424 -1.90294e-20)
(1.03195 -0.385498 1.81074e-20)
(0.990168 -0.327265 -1.54224e-20)
(1.05356 -0.338465 -6.6625e-20)
(1.01189 -0.282898 2.89635e-20)
(1.06963 -0.293776 3.09584e-20)
(1.03051 -0.242244 -6.55553e-21)
(1.08297 -0.252895 -1.73891e-20)
(1.0477 -0.205661 1.13839e-20)
(1.09501 -0.216186 9.51845e-21)
(1.06417 -0.173004 -6.06306e-21)
(1.10635 -0.183431 3.1531e-21)
(1.08033 -0.144091 3.45622e-21)
(1.11777 -0.154241 -7.24298e-21)
(1.09675 -0.119077 1.92157e-21)
(1.12874 -0.129082 7.21265e-21)
(1.11377 -0.0979702 -8.91792e-21)
(1.14289 -0.106989 -1.50657e-21)
(1.13212 -0.0807374 5.3491e-23)
(1.15215 -0.0916468 2.82022e-21)
(1.1822 -0.0700949 -9.73616e-23)
(-0.40268 0.193111 -7.76474e-20)
(-0.401509 0.203148 8.68371e-20)
(-0.339705 0.172331 -1.06301e-20)
(-0.335654 0.194226 -2.39044e-19)
(-0.257371 0.128913 7.43301e-20)
(-0.254873 0.16454 -1.56203e-19)
(-0.14424 0.0552193 0)
(-0.145679 0.108938 4.3724e-19)
(0.0128968 -0.0548624 0)
(0.00578355 0.016532 -4.10917e-19)
(0.218103 -0.191519 0)
(0.21579 -0.112543 -1.22595e-19)
(0.447946 -0.328557 1.71412e-19)
(0.467251 -0.254787 -1.06676e-19)
(0.667321 -0.434538 3.10235e-19)
(0.714228 -0.37821 5.20075e-21)
(0.843356 -0.490483 3.18988e-20)
(0.910694 -0.457086 1.50465e-19)
(0.964196 -0.500756 -1.85668e-19)
(1.036 -0.483078 -1.11719e-19)
(1.04049 -0.481573 -7.91891e-20)
(1.1084 -0.474613 7.65468e-20)
(1.08624 -0.445248 0)
(1.14752 -0.445884 -5.92644e-20)
(1.11243 -0.400938 0)
(1.16622 -0.405667 7.47163e-20)
(1.12757 -0.354648 -4.25277e-21)
(1.17391 -0.362081 -7.07208e-20)
(1.13709 -0.309749 -2.8206e-20)
(1.17651 -0.319171 3.00881e-21)
(1.14414 -0.268029 -1.83957e-20)
(1.17739 -0.278849 -2.20219e-20)
(1.15012 -0.230195 -3.25355e-21)
(1.17825 -0.241857 1.81539e-20)
(1.15563 -0.196399 -9.33413e-21)
(1.17939 -0.208569 -2.71486e-20)
(1.16132 -0.166586 0)
(1.18138 -0.179152 1.24627e-20)
(1.1677 -0.140625 0)
(1.18451 -0.153422 0)
(1.17516 -0.118702 1.29201e-21)
(1.18836 -0.131492 0)
(1.18352 -0.100975 2.624e-21)
(1.19401 -0.112622 1.30004e-21)
(1.1919 -0.0867888 -1.6921e-22)
(1.1964 -0.0988313 1.3241e-21)
(1.21208 -0.0777817 1.05929e-22)
(-0.334896 0.205065 -6.48214e-20)
(-0.340443 0.214234 4.3131e-19)
(-0.251901 0.18716 -3.88122e-19)
(-0.258062 0.206508 -1.5949e-19)
(-0.142221 0.146831 1.95672e-19)
(-0.153291 0.179469 1.53168e-19)
(0.00648643 0.0733892 5.08847e-20)
(-0.0135683 0.125224 7.56935e-20)
(0.210203 -0.0386691 -5.37893e-19)
(0.179969 0.0301118 2.78663e-19)
(0.462044 -0.177318 -2.25819e-19)
(0.440867 -0.100114 -2.49979e-19)
(0.723096 -0.31216 -2.74325e-19)
(0.73105 -0.238118 -1.04603e-19)
(0.945144 -0.411164 -1.01646e-19)
(0.986648 -0.35234 -1.68442e-19)
(1.09561 -0.458456 2.40931e-20)
(1.15686 -0.420317 1.56613e-20)
(1.17787 -0.463134 1.90274e-19)
(1.24067 -0.437737 -8.77858e-20)
(1.21689 -0.443219 1.12238e-19)
(1.27556 -0.427514 1.80132e-19)
(1.23134 -0.409384 1.42101e-20)
(1.2845 -0.402533 -6.39726e-20)
(1.23177 -0.369845 1.63101e-20)
(1.2786 -0.367022 -4.99732e-20)
(1.22654 -0.329653 -5.13551e-20)
(1.26716 -0.330051 4.6055e-21)
(1.22002 -0.291248 3.41357e-20)
(1.25484 -0.29431 -5.18839e-21)
(1.21422 -0.255653 2.62241e-20)
(1.2438 -0.260943 2.7137e-20)
(1.20988 -0.223217 5.55898e-21)
(1.23476 -0.230329 -6.69589e-20)
(1.20728 -0.194073 3.62615e-21)
(1.22784 -0.202556 5.21784e-21)
(1.20631 -0.168315 1.25459e-20)
(1.22287 -0.177686 1.24627e-20)
(1.20666 -0.145902 0)
(1.21945 -0.155723 4.94714e-21)
(1.20776 -0.126622 0)
(1.21698 -0.136582 0)
(1.20849 -0.110493 0)
(1.2143 -0.119474 0)
(1.20724 -0.0956459 1.14756e-21)
(1.21013 -0.105347 0)
(1.21234 -0.0836314 1.1542e-21)
(-0.264736 0.216343 3.52731e-19)
(-0.278974 0.224704 -4.59974e-20)
(-0.161127 0.1997 3.74325e-19)
(-0.179531 0.216863 7.94457e-20)
(-0.0243703 0.160483 3.78158e-20)
(-0.0518683 0.190284 7.7736e-20)
(0.1615 0.0865832 3.08286e-19)
(0.117903 0.134584 -2.1583e-19)
(0.410911 -0.0266179 5.8575e-19)
(0.356655 0.0380361 -1.3286e-19)
(0.703715 -0.160876 -1.25776e-19)
(0.668347 -0.0879125 -2.45957e-19)
(0.979925 -0.284786 3.47234e-21)
(0.982503 -0.213254 6.40926e-19)
(1.1831 -0.369827 2.74572e-21)
(1.22169 -0.310797 -1.8812e-19)
(1.29338 -0.405443 -9.36129e-20)
(1.34679 -0.365808 2.74551e-19)
(1.33534 -0.40542 -7.65575e-20)
(1.38769 -0.376226 -1.1144e-19)
(1.34387 -0.387882 9.80519e-21)
(1.39275 -0.367511 1.6395e-20)
(1.33442 -0.360201 -1.24731e-19)
(1.37919 -0.347599 5.67708e-20)
(1.31633 -0.327448 -5.98259e-20)
(1.35562 -0.31914 -1.17515e-19)
(1.29723 -0.294913 5.08539e-20)
(1.33173 -0.289759 1.18042e-19)
(1.27988 -0.26414 -1.24438e-20)
(1.31016 -0.261418 -7.34488e-20)
(1.26522 -0.235707 -6.31801e-20)
(1.29169 -0.234956 9.44417e-20)
(1.25334 -0.209758 -7.07019e-20)
(1.27628 -0.210636 -8.14621e-20)
(1.24394 -0.186292 1.21286e-20)
(1.2635 -0.18848 3.28487e-20)
(1.23647 -0.1653 4.91415e-21)
(1.25273 -0.168438 5.35021e-21)
(1.23022 -0.146697 4.97887e-21)
(1.24324 -0.150449 -7.47882e-21)
(1.22393 -0.129758 0)
(1.23415 -0.134296 0)
(1.2167 -0.114274 0)
(1.22405 -0.119248 0)
(1.20677 -0.0992059 0)
(1.21324 -0.104469 1.92264e-21)
(1.20227 -0.0824949 -1.80778e-21)
(-0.195595 0.225846 -3.23399e-19)
(-0.219519 0.233839 -4.3346e-19)
(-0.0724459 0.20857 -2.17108e-19)
(-0.103988 0.224289 3.18286e-19)
(0.0904235 0.168124 -1.65705e-19)
(0.0445779 0.195648 -2.24615e-19)
(0.314516 0.092421 -6.38031e-19)
(0.246526 0.13683 1.47294e-19)
(0.613018 -0.017389 -9.60198e-19)
(0.539701 0.0418547 -9.38372e-19)
(0.937458 -0.1404 5.00495e-19)
(0.896465 -0.0713417 1.37262e-19)
(1.20699 -0.245398 3.90594e-19)
(1.21008 -0.177856 2.99711e-19)
(1.3699 -0.313559 7.16742e-20)
(1.4048 -0.255776 -1.81028e-19)
(1.43352 -0.339488 2.35051e-19)
(1.47676 -0.300383 5.3007e-19)
(1.44202 -0.338918 -1.2218e-20)
(1.48309 -0.308173 -2.1347e-19)
(1.42869 -0.326539 6.04335e-20)
(1.46807 -0.303282 7.9042e-20)
(1.40215 -0.306082 6.7747e-20)
(1.43775 -0.28924 2.83319e-21)
(1.37261 -0.281055 4.39714e-20)
(1.40401 -0.269219 -1.17499e-19)
(1.34588 -0.256114 -3.63528e-21)
(1.3737 -0.247849 5.87478e-20)
(1.32289 -0.23224 3.1245e-20)
(1.34745 -0.226658 6.17497e-20)
(1.30344 -0.209918 8.18587e-20)
(1.32497 -0.206368 2.78277e-20)
(1.28694 -0.189352 1.98517e-20)
(1.30565 -0.187314 6.08865e-20)
(1.27262 -0.170563 2.64001e-20)
(1.28873 -0.169643 3.0144e-20)
(1.25972 -0.153477 -5.6677e-21)
(1.27339 -0.153359 7.55535e-21)
(1.24734 -0.137899 -1.21438e-20)
(1.25879 -0.138363 -2.95239e-20)
(1.23453 -0.123506 0)
(1.24395 -0.124432 -3.21297e-21)
(1.22033 -0.109536 1.91119e-21)
(1.22791 -0.110996 3.39639e-21)
(1.20143 -0.093403 5.7177e-20)
(1.21025 -0.0959416 -4.58708e-22)
(1.18848 -0.0733687 -1.80778e-21)
(-0.130347 0.23293 1.89198e-19)
(-0.164228 0.241126 -3.87518e-19)
(0.0106158 0.212962 3.18659e-19)
(-0.0344094 0.228234 -8.49831e-20)
(0.200578 0.169025 8.01733e-20)
(0.134381 0.195032 3.83313e-19)
(0.471737 0.0931508 -1.21424e-19)
(0.379071 0.133473 -1.41201e-19)
(0.820014 -0.00597129 1.10601e-19)
(0.736798 0.0478325 2.74425e-19)
(1.15641 -0.11039 -8.03431e-20)
(1.1186 -0.0446001 4.93748e-19)
(1.39038 -0.194708 -3.14077e-19)
(1.39656 -0.130697 4.52525e-20)
(1.49872 -0.247259 3.04226e-19)
(1.52831 -0.192775 -1.89429e-19)
(1.52098 -0.269931 7.64402e-20)
(1.55472 -0.229303 1.13673e-19)
(1.50787 -0.272298 -1.20275e-19)
(1.54035 -0.239927 -1.96359e-19)
(1.47769 -0.265203 2.1084e-20)
(1.50932 -0.239997 7.60678e-20)
(1.44024 -0.251495 -1.79818e-19)
(1.46953 -0.231919 5.42513e-20)
(1.40594 -0.235209 -1.14765e-19)
(1.43249 -0.21995 -1.59672e-19)
(1.37593 -0.217921 1.1977e-19)
(1.39983 -0.206069 1.20658e-19)
(1.35005 -0.200573 5.53637e-20)
(1.3714 -0.191531 1.05813e-19)
(1.32765 -0.183719 5.62426e-21)
(1.34654 -0.177003 -2.09779e-20)
(1.3079 -0.167677 7.11471e-20)
(1.32445 -0.162828 1.53148e-20)
(1.28993 -0.152584 1.22573e-20)
(1.30432 -0.149185 -9.51481e-21)
(1.27287 -0.138411 -1.4545e-20)
(1.2853 -0.136121 1.33171e-20)
(1.25585 -0.124992 -2.15549e-20)
(1.26656 -0.12357 -3.42684e-20)
(1.23789 -0.111933 1.42608e-22)
(1.24716 -0.111349 1.27335e-20)
(1.21749 -0.098256 -6.66133e-21)
(1.22615 -0.0987512 4.02326e-21)
(1.19142 -0.0814736 -3.32968e-21)
(1.20257 -0.0832943 -3.72449e-21)
(1.17349 -0.0604505 0)
(-0.0712102 0.23716 -6.68083e-19)
(-0.114811 0.246277 2.59896e-19)
(0.0871481 0.212604 -3.17533e-20)
(0.0275545 0.228164 1.53985e-19)
(0.311528 0.164532 1.71398e-19)
(0.221011 0.188767 2.30491e-19)
(0.642619 0.0955471 2.25417e-19)
(0.529278 0.130197 1.27754e-19)
(1.02943 0.013586 6.31042e-19)
(0.948222 0.0653871 3.94188e-19)
(1.3449 -0.0682638 5.94905e-19)
(1.31629 -0.00602449 4.39049e-19)
(1.51898 -0.13562 1.3289e-19)
(1.52721 -0.0749891 5.13534e-21)
(1.57532 -0.178299 -3.53989e-19)
(1.59878 -0.127406 9.90211e-20)
(1.57118 -0.199854 -1.58693e-19)
(1.59687 -0.159417 -1.44158e-19)
(1.54151 -0.206659 -6.37037e-21)
(1.56752 -0.174236 -8.24598e-20)
(1.50113 -0.205837 1.06819e-19)
(1.52682 -0.179259 7.1011e-20)
(1.46213 -0.199468 7.36997e-20)
(1.4862 -0.177738 9.9231e-20)
(1.42682 -0.190044 6.43388e-20)
(1.44887 -0.172268 -8.28869e-20)
(1.39561 -0.179123 1.03567e-19)
(1.41563 -0.164544 1.04037e-19)
(1.36807 -0.167553 3.17756e-20)
(1.38614 -0.155628 -2.5342e-20)
(1.34346 -0.155793 -1.09383e-20)
(1.35969 -0.146121 3.34007e-20)
(1.32097 -0.144092 -6.41772e-20)
(1.33551 -0.136339 -5.7463e-20)
(1.29978 -0.13256 -8.4174e-21)
(1.31281 -0.126434 -1.80261e-20)
(1.2791 -0.12118 -5.53991e-21)
(1.29083 -0.11644 1.75004e-20)
(1.25812 -0.109785 -2.23829e-21)
(1.26879 -0.106296 -2.79527e-20)
(1.23583 -0.0979504 1.65611e-20)
(1.24581 -0.0958102 3.61512e-20)
(1.2106 -0.084668 -8.2502e-21)
(1.22088 -0.0841469 -2.46388e-21)
(1.17947 -0.0676625 -4.16219e-22)
(1.19295 -0.0686994 -6.41559e-21)
(1.15902 -0.0461711 5.49269e-21)
(-0.0193129 0.238264 1.08305e-18)
(-0.0724384 0.24923 -1.74371e-19)
(0.159518 0.207607 4.20489e-19)
(0.0819268 0.223261 2.34157e-19)
(0.435348 0.158791 1.88757e-19)
(0.315071 0.179562 1.4068e-19)
(0.831825 0.107882 2.73453e-19)
(0.709549 0.138237 -1.93589e-19)
(1.22657 0.0470331 2.01513e-19)
(1.15764 0.0988251 0)
(1.48582 -0.0179398 -1.33462e-19)
(1.46696 0.0419854 -5.87908e-21)
(1.59526 -0.0733551 -3.13082e-20)
(1.6031 -0.0167995 -3.45746e-19)
(1.61431 -0.111446 2.85204e-19)
(1.63147 -0.0638195 2.59378e-19)
(1.59158 -0.133782 -7.53077e-20)
(1.61174 -0.0946072 -1.93225e-19)
(1.55281 -0.145746 -8.02989e-21)
(1.57377 -0.113135 -6.42799e-20)
(1.51191 -0.150293 6.53223e-20)
(1.53238 -0.122861 7.1011e-20)
(1.47317 -0.149833 -5.08788e-20)
(1.49247 -0.126808 -5.24832e-21)
(1.43799 -0.146213 -4.62665e-20)
(1.45578 -0.126938 -7.51516e-20)
(1.40643 -0.140666 -2.30484e-20)
(1.42271 -0.124541 5.76144e-20)
(1.37798 -0.133943 -2.34268e-20)
(1.39285 -0.120475 -5.49523e-21)
(1.35193 -0.126486 -1.14271e-20)
(1.36552 -0.11527 1.29252e-20)
(1.3275 -0.118538 -1.15979e-20)
(1.33998 -0.109239 -1.76137e-20)
(1.30396 -0.110201 6.60656e-21)
(1.3155 -0.102544 1.08912e-20)
(1.2806 -0.101446 -5.15302e-21)
(1.29144 -0.0952388 6.65279e-21)
(1.25668 -0.0920903 5.74262e-21)
(1.26709 -0.0872851 -1.03833e-20)
(1.23118 -0.0816778 1.93651e-20)
(1.24157 -0.0784882 1.85284e-20)
(1.20242 -0.0692149 -9.76289e-21)
(1.21381 -0.0679408 -3.77136e-21)
(1.16776 -0.0527586 -5.01414e-20)
(1.18285 -0.0530361 -7.99684e-21)
(1.14575 -0.0315155 5.49269e-21)
(0.0255965 0.235972 -1.03542e-18)
(-0.037776 0.250003 -4.72373e-19)
(0.234794 0.199048 -3.6794e-20)
(0.131921 0.213097 -5.54396e-19)
(0.584034 0.162574 -2.39399e-19)
(0.434141 0.174956 1.99247e-19)
(1.03097 0.135575 -4.6923e-19)
(0.915232 0.167983 -8.26679e-20)
(1.38887 0.0920793 -2.00846e-19)
(1.33666 0.144279 9.5314e-20)
(1.57374 0.0366988 -2.06784e-19)
(1.56216 0.0942548 -2.03945e-19)
(1.63159 -0.0123484 -1.63154e-20)
(1.63775 0.0401957 0)
(1.6256 -0.0488217 -2.16351e-19)
(1.63876 -0.00382415 -1.65277e-20)
(1.59334 -0.0736327 -1.82668e-19)
(1.609 -0.0355257 -1.14836e-19)
(1.55343 -0.0893544 1.19991e-20)
(1.56955 -0.0568674 1.42784e-19)
(1.5131 -0.0986177 1.18893e-21)
(1.52886 -0.0707697 0)
(1.47522 -0.103316 -2.71439e-20)
(1.49024 -0.0794422 -4.12604e-20)
(1.44066 -0.10479 2.77886e-20)
(1.45475 -0.0843572 -1.1835e-19)
(1.40928 -0.103993 7.56939e-20)
(1.42242 -0.0865407 -1.80296e-22)
(1.38052 -0.101548 3.07105e-20)
(1.39279 -0.0866982 2.17433e-20)
(1.3537 -0.0978494 6.49437e-21)
(1.36522 -0.0852874 -1.02762e-20)