/*--------------------------------*- C++ -*----------------------------------*  =========                 |
  \      /  F ield         | OpenFOAM: The Open Source CFD Toolbox
   \    /   O peration     | Website:  https://openfoam.org
    \  /    A nd           | Version:  11
     \/     M anipulation  |
\*---------------------------------------------------------------------------*/
FoamFile
{
    format      ascii;
    class       volScalarField;
    object      U;
}
// * * * * * * * * * * * * * * * * * * * * * * * * * * * * * * * * * * * * * //

dimensions      [0 1 -1 0 0 0 0];

internalField   nonuniform List<scalar> 
2880
( 
0.07363740949171337
0.14518506856502142
0.22525908412298148
0.2714808107489433
0.34209378061311546
0.44691256116072864
0.1036122272956384
0.17577146988124917
0.24826580215705654
0.29068805658579744
0.3532103269314468
0.4226215664605163
0.11750892036137596
0.1861042035059257
0.251746804911114
0.2934316929394419
0.35749243103468675
0.43289227694516286
0.12990973314275922
0.19346688540425133
0.25227176523077327
0.2938455156019708
0.3614015537944455
0.44294620224987336
0.14300264466193402
0.19958532335259402
0.2518627901935292
0.29412978388024
0.3633391304744927
0.4481485139877267
0.1555363192921189
0.20433365249067986
0.2503278410460023
0.29394395273908386
0.363530057711458
0.4483515737942963
0.16702474573040726
0.20779447258698053
0.2489215988037041
0.2932484092670193
0.3622172554788771
0.44532585764885335
0.176363939134521
0.2102198133992431
0.24776858065084184
0.2923931118940922
0.3602806765452518
0.4407493324617308
0.18405264296479712
0.21174088199010613
0.24636836493889863
0.29127838299714837
0.35790331502371336
0.43561814256823916
0.19006601822222666
0.21291351603686984
0.24512759355518735
0.2903333329473578
0.3561722390020771
0.43177626428433785
0.19439687161593205
0.21403638781070553
0.24558229177999835
0.29060757015921834
0.35538076387889017
0.42937358865892483
0.19646911122469424
0.215137072134821
0.24733735355330752
0.29192812534778084
0.3557422807890766
0.42800352694286786
0.19686852455600437
0.216031980032235
0.24955282334616694
0.2949567442756645
0.3579985311568834
0.4289973476345307
0.19497626069534832
0.21642122367307465
0.2519215645059335
0.29927736575569175
0.36263914339200776
0.43321178475870376
0.1910344993749531
0.2164948030434683
0.2542397029978038
0.3035768104357849
0.3679352876430507
0.4386337632382658
0.1852836532734195
0.21576666668213934
0.25664343285941704
0.3072061379668087
0.3725935824474518
0.4441936499781071
0.17785476558052296
0.21481940101664004
0.2588307590957343
0.30996323245245405
0.376789453289738
0.4494162391106781
0.16863761054430879
0.21276336305930196
0.26012464240217337
0.3116194875542337
0.37968096437585597
0.4537632254670225
0.15710962334666373
0.2085675173033033
0.2609965724824552
0.31218723736137927
0.38093492215376007
0.45667215430795904
0.14348416785358994
0.2021709610487135
0.2604993366275868
0.31063624239854426
0.3802663828516293
0.4569030154959212
0.12820148511362944
0.1931475523429758
0.25850292399996794
0.3089762535915775
0.37758487083515624
0.45354493303268656
0.11293760462107945
0.18165684118042655
0.2544088535027271
0.30525072965072264
0.3737060773827333
0.4452175110189837
0.09624294302446873
0.16682933841564515
0.24570228180730092
0.2977462905448951
0.37091163869416305
0.43325335307777424
0.06513099386021136
0.13302588292014061
0.21970373133924906
0.2716488208368585
0.3647974206199597
0.4301003225734328
0.8268529730759798
0.9078239094245282
0.9467560547857616
0.9694633783041865
0.9850464924263242
0.9959100605754369
1.00576739665611
1.0209136042425797
1.0378955032029311
1.0545423224553454
1.0708453858752156
1.0848318605818679
1.0952251453408244
1.1012381654728431
1.103924329306217
1.104557843234633
1.102491980042746
1.0980902535692139
1.0920890883427026
1.0842731912529844
1.0743081540269013
1.0630819400639555
1.0488262624337026
1.0322232979332904
0.733536797181122
0.8777548803909605
0.9336923752153378
0.9628547775989321
0.982007561015431
0.9962446571262638
1.0103163643355682
1.0282082278639237
1.0489324486378846
1.0677216352617005
1.0838606322688242
1.095949619159416
1.104250445154533
1.1089046850179594
1.1099140423741563
1.107940367393071
1.1047586667399278
1.0994898051639317
1.0921418781860703
1.083704376283635
1.073050377871963
1.0610579159509372
1.0462470933793866
1.0295874624570132
0.6695683462897738
0.8327153566650666
0.9050008147662939
0.9467977819624969
0.9727460974558457
0.9931335886401326
1.012902883500714
1.036344555094396
1.0598297005130413
1.0796513595803336
1.0953842352967538
1.1057774256592825
1.1114616744098873
1.1133331235045811
1.1127570201964367
1.1097033626807515
1.1049838310229692
1.0981827717877843
1.0907801677526439
1.0810257094894429
1.0710306530152398
1.0585359644082635
1.0433655787527119
1.0265276529253557
0.6307323505601261
0.7850657441701199
0.8693939320134974
0.9208779902688777
0.9557390370657329
0.984149511334312
1.0144574475390573
1.0425554481776724
1.0671763801552312
1.088188238589229
1.1026553979847638
1.111253833797225
1.114874648146568
1.1152033064262894
1.1129335518281138
1.1083711802051102
1.1030473472883147
1.0956769141468492
1.0872990840298076
1.0783766886894715
1.066957785854491
1.0549812696672467
1.0392005480778723
1.022761539776645
0.6038239739903929
0.743531903432708
0.8326233570487309
0.8920596126338999
0.935493117634529
0.972900018676526
1.0101773357661645
1.044032222410069
1.0723229648828676
1.092605251632239
1.1050741286430326
1.1122252863997237
1.1144009473031389
1.1135505044285827
1.110470027366747
1.1057644212515696
1.099810258395139
1.0921201482847578
1.0837930324586666
1.074346575899927
1.06375153562991
1.0512880699234715
1.0356304084847567
1.019013291028566
0.5824928348277264
0.7094109278590635
0.7990732625073191
0.8649220552070286
0.9155348427855264
0.9619139186492927
1.0060394972999414
1.0441447522094975
1.0726630620649473
1.09247374267775
1.1032375105137275
1.1083025027359636
1.109685987962596
1.108794884631022
1.104990930355044
1.1003650091875634
1.0936132216114194
1.0875288229096363
1.0788562906295143
1.0693763110237253
1.058535362493735
1.0460178048366517
1.0310870553449534
1.01528637813311
0.5647060022811448
0.6812138021042733
0.7705452138460902
0.8405824015966166
0.899639215298577
0.9542173716563184
1.0027886964394372
1.041940458191269
1.07142257039364
1.088537491441524
1.0983324636484002
1.102814626369932
1.103820843804722
1.1022142897545844
1.098758984996811
1.093852525660236
1.0884126949291206
1.0815795719281518
1.0735243363477618
1.0645812836979198
1.0545973903091366
1.0425942606594638
1.027629110002978
1.012988990686587
0.5487866442624146
0.6581173326297244
0.7477497262044277
0.8217066843556529
0.8878440279640415
0.949341705086624
1.001522036892242
1.0410810100937367
1.067270356059063
1.0831372924295386
1.0918429134076084
1.095506450429392
1.0961847975686647
1.0949562687250063
1.0918584306463546
1.087448721628545
1.0830020476476276
1.0765331472651607
1.0690955734036138
1.0601654688929
1.0504172005654449
1.039061694445457
1.0255636701438746
1.0113331259720713
0.5361029498303665
0.6411608635711401
0.731485135334666
0.8086667279674808
0.8818518989363094
0.9485176223873171
1.00129019467248
1.0377795435741848
1.0615749553209295
1.076027058336905
1.0835004770059278
1.0867586757687195
1.0877985653861186
1.0866244422336069
1.0846100397023983
1.0809513009703833
1.075940862748838
1.0695039016746282
1.0634573544590757
1.0556999207594162
1.0474067219900884
1.037184327528734
1.0239040194657794
1.0102342963941833
0.5275870264294628
0.6296114118853641
0.72094393838809
0.8032554561132025
0.8822426214442495
0.9499388883473453
1.0012184314838024
1.0346225834446876
1.0554239470410796
1.0680764681776092
1.0749851762260314
1.078353172792266
1.0794724993698854
1.0789790130758117
1.076676321918278
1.073314669029795
1.0694944680074858
1.0651800444641062
1.0588454696361445
1.0525854798038972
1.0450168599204122
1.035861441701128
1.0243259907840134
1.0118561509623774
0.5216595045047516
0.6239264452911601
0.7168645700094659
0.8051967680214255
0.8875526224576359
0.9546791804750502
1.0011103746906427
1.0305255883945175
1.0491236158850636
1.0604860268355423
1.0668846938820877
1.0702063413196048
1.0715604897306297
1.0715377267206454
1.069684768696281
1.067605266403904
1.0641329741860135
1.0605512344154102
1.0554125191042272
1.050250216365851
1.0441871131222913
1.036593072004754
1.0264103119255763
1.0151412473438952
0.5190844166669383
0.6231814582401275
0.7186530618352212
0.813458768399089
0.8973634998840201
0.960308280100189
1.0020698157677888
1.027855998544173
1.0435401571126044
1.0533122991554493
1.0593352963703255
1.062861373078752
1.0646827983624911
1.064607168311694
1.0639511183273676
1.0615151972133539
1.0591642154022443
1.0566287843576547
1.0536479463195028
1.0500390495547047
1.0447308271317828
1.0389183455665156
1.0297810268030578
1.0192583009797673
0.5204128590670829
0.6261713782850906
0.7276319181606299
0.8278514247906217
0.9102159425114861
0.9666148339897963
1.003069948780043
1.0246687462197022
1.0388413987138294
1.0474973252229853
1.0537659115516962
1.0569511058779366
1.059249672602337
1.0592741459202881
1.0586752123394396
1.0574726094465852
1.0565378232917462
1.0554118179770917
1.0539174540811835
1.0514395180482707
1.0478906879779253
1.042216338548755
1.0339369893069676
1.023946091702557
0.5250871990764827
0.6328470147928543
0.7425952883393053
0.8458969417273711
0.9229415043747787
0.9731091108343328
1.002907317721479
1.0226225448037611
1.0349905088165625
1.043653526951514
1.049442168515027
1.0519462888140632
1.054211199679687
1.0554265361369648
1.0563361633322876
1.0568246842742466
1.0559157653257822
1.055225946600605
1.0553450432522729
1.0537281967777725
1.0510721594821013
1.0465220012328889
1.0382279843852271
1.0291705682226628
0.5326701786960185
0.6442137874000399
0.762540141903592
0.8656086756123491
0.9346619986925382
0.9771621370846448
1.0033537740065566
1.021117569071134
1.0321670525973974
1.0391335739054932
1.045028957156371
1.0490509263266752
1.0517873314435724
1.0534550657735389
1.0540904112113854
1.0561824417678685
1.0570337135620833
1.0585509596847311
1.058731112167911
1.0577802365041162
1.0554184070137203
1.0507474932123366
1.0432120748425786
1.033579045238896
0.5424587980956299
0.6633685841104533
0.7890074367245745
0.8852972983410744
0.9460624571770132
0.9820577394067334
1.0048627042662823
1.0191503991775939
1.030429691666421
1.0377476214127563
1.0426603481953063
1.0460964220986033
1.0491945322475198
1.0516927242981593
1.0552328965196824
1.0578839452328854
1.0594185302490287
1.060769166012266
1.0623319893298069
1.0614703415479845
1.0593751564588774
1.0548568374233256
1.0462903730501123
1.036725808163385
0.5539740679756535
0.6888533684361665
0.8183433343585796
0.9052768588527617
0.9557169299520493
0.9855675130706086
1.0058129121437016
1.0198398995020264
1.0289537781790996
1.0350592087427595
1.040176373383481
1.0447367450329494
1.04907678494062
1.0526812692398149
1.056412137198677
1.0606420497730151
1.0636714810857613
1.065113836607089
1.0658252276246185
1.065483731064777
1.0625741990052844
1.057645740951203
1.049094017067558
1.038310143755538
0.5669046021143868
0.7201108377844557
0.8488576905060745
0.9231153899348383
0.9642307990083606
0.9903755535376749
1.0070986047253525
1.018472303039571
1.0274835730483518
1.033906437868537
1.0394108649410132
1.0452960977608992
1.0502705648964934
1.0549939651771054
1.0595811190918265
1.0637714462568941
1.066786713208882
1.0690235685260532
1.0696940958636847
1.0691495792979608
1.066143945089154
1.0598817827350164
1.050312902567822
1.0391528133107124
0.5833440566391992
0.7583924640915167
0.8764172938506023
0.9370331753369595
0.9710812905313406
0.9921575426983804
1.0069958577597447
1.018088280374681
1.02652800420126
1.0328582342267159
1.0389209859647963
1.04553217167936
1.051423811215281
1.0578511671989528
1.063918065618136
1.0680839825086885
1.070529195247373
1.073065178270485
1.0737875955970557
1.072290307554318
1.0682068992347304
1.0613724034672973
1.05069349173819
1.0380508155488675
0.6051789328490839
0.7996598970425638
0.8997206053344174
0.9489425455499572
0.9768311362232447
0.9943155490313446
1.006869784490294
1.0167680449406131
1.0245272789726054
1.0314757054039376
1.040013493673739
1.0474846675031817
1.0554302128406834
1.0621021936341706
1.0673922570091334
1.072613741834908
1.0749300476962969
1.076261924446381
1.0765729958607289
1.0735972304782417
1.068978975262281
1.0614094891858104
1.0506378914032517
1.037157914931677
0.6374976410189516
0.8393960273870996
0.9189630186575016
0.9570298372721978
0.9798514761502503
0.9953751327380086
1.0066314911052208
1.0151992385962287
1.0241127677536852
1.033131867533757
1.042250371140836
1.0509702306539304
1.0591819352602208
1.066463141325497
1.0719053844430881
1.075388529909132
1.0785872341342875
1.0795530728824594
1.0788850012413063
1.0746500880884138
1.0693199708886882
1.0606041507473891
1.0491823161818203
1.035162305479713
0.6869118207212553
0.8715588003999473
0.9331341240607524
0.9633030442743455
0.9819650738956682
0.9948953834599559
1.0053235942505685
1.014496695344724
1.023742968598129
1.0336077606194651
1.045086245071601
1.0549770125743685
1.0633409099304372
1.0706568088820274
1.0759945688789871
1.0796987821364343
1.0824275430310324
1.0819268323163949
1.0800615610129334
1.0753535125544325
1.0688593090328706
1.0594993500297003
1.0480824321357587
1.0339054601848336
0.7544281114926981
0.8944598394218878
0.9406272068223338
0.9655717488920719
0.982032218034591
0.9933904062265224
1.0038837096283848
1.0131287319930258
1.0239272931658563
1.036541625665154
1.048313505611178
1.059509004491607
1.0693902197081793
1.075842637819607
1.0799167325289059
1.0836160813828348
1.084304219691933
1.0832791181571484
1.080324326279547
1.074971886855728
1.0676460250969422
1.057998291890124
1.0457191827291765
1.0318343752024683
0.8274499446693787
0.9050969230401086
0.9406956074991082
0.9642502652711314
0.9797927845769029
0.9915667021271933
1.0011993812635074
1.0135995492619287
1.0265722412173799
1.0402844325585576
1.0532185386710433
1.063968969871695
1.0737826413544511
1.0804650813852137
1.084137458092246
1.0867438354806476
1.08679122487351
1.0841873014700496
1.0803241798826797
1.0742065747235792
1.0667780665529614
1.0569182709763434
1.0443759125325174
1.0300098689237616
0.07036218634837295
0.1405459956176851
0.22104868012504086
0.2719940812631641
0.34060971301401
0.45111375098568907
0.10002346515622661
0.1711532922200319
0.2442516251866372
0.2894090607339659
0.35003586810027487
0.41850610069521255
0.1140069681686071
0.18223527763930342
0.2485271457872832
0.2917670570651579
0.353516624005049
0.42394268410558256
0.12630919452531716
0.19046989534021763
0.24965495710495184
0.291839652744475
0.35440358402102795
0.4299969541226902
0.13911100095797282
0.19704021553488
0.24928305231442932
0.2911590363620663
0.3540312318779447
0.43056476563435986
0.15143891596907777
0.2019757556562416
0.24883086348942643
0.2903174301637044
0.3525859361534937
0.42782080709767667
0.16282658876868716
0.2054238536370024
0.2476986916427916
0.28900332874779244
0.3500481896824312
0.42268060164600413
0.17215561703101878
0.208240591391658
0.24603056859550784
0.2872869770395528
0.34679764123015183
0.41633676748766
0.17963514733319944
0.21029589096730752
0.24539876962251286
0.2860400918226898
0.34380597806694335
0.4102161344269501
0.1855838939805395
0.2117442340511694
0.2453703564448425
0.2855571869075631
0.34178828613201534
0.40608078726816027
0.1896890474110699
0.21294101139225713
0.24602402255168965
0.2859194235506692
0.3414666671122818
0.40471438269976356
0.19182877691092887
0.2138841366903078
0.24725695575308163
0.2874870495847832
0.3432459736623192
0.4054399979780066
0.19197910783990413
0.21455596320352124
0.24927353694236565
0.29098985996774324
0.3468541786402592
0.40817608590298926
0.19007318375182108
0.21490756823566337
0.25160568814433354
0.2953124184573838
0.3520466737478986
0.4134339644336764
0.18629297747826243
0.2145647149935583
0.2539781941256372
0.29974417743200565
0.3579264567858203
0.41973290800409796
0.1806293886929578
0.2136928338976158
0.2559134432425605
0.30402127132017304
0.3636711239030979
0.4266189627183289
0.17344059895620278
0.21198632462620703
0.2571700354483194
0.30743466014713017
0.3689007226556124
0.4335395896394177
0.16432188267214692
0.20919529037427737
0.2584829627461844
0.30937671387230564
0.37303559844663886
0.4397135281424116
0.15309071573168004
0.20488838016091748
0.2585019898800743
0.30994549624292445
0.3758203312070716
0.4445419513286067
0.139868104596048
0.19827624399495516
0.2572696621774266
0.30916571242224955
0.3763454491195084
0.44732006041933975
0.12443247776600773
0.18859365646615311
0.25458694017152383
0.3066707238387485
0.37521698867513825
0.4470163356280801
0.10928031973017058
0.17651864287475078
0.2490009078534407
0.3023610777707184
0.3720444083919643
0.4425445153501893
0.09284686302452848
0.16135589105538475
0.23962761975592917
0.2939715071076163
0.36804334637322556
0.4352111092881167
0.062477553557627206
0.1277890099668425
0.2120306432844041
0.26743395069832954
0.3580845273484468
0.4376804337555338
0.8087158323502804
0.8927132924603518
0.9328652152261272
0.9583213318149851
0.9741826100115594
0.9876442626657055
0.9997366495615904
1.012986931498244
1.0287262924629192
1.0446709400165075
1.0588704272802356
1.0697113155206373
1.0778088848898082
1.0839209462104413
1.0883885722147015
1.0889976546987492
1.0876236764892115
1.0841653662284876
1.0798852382737918
1.073200917760766
1.065400104827775
1.0551959950137149
1.0425773152434645
1.0286036982094777
0.7081405989997571
0.8538395789599699
0.9129851788492865
0.9455693984305006
0.9657683555123082
0.9811854513650932
0.9963810740201662
1.014399461087506
1.0322266887652372
1.0489970289491415
1.0636946350630554
1.0742176874472358
1.0823325654478806
1.0875499546069602
1.0895565259730795
1.0897974754845183
1.0875315733519428
1.083825014377574
1.0781533887649
1.0716024510270374
1.0630489529758553
1.052531820443622
1.0401564060204482
1.0260180757768276
0.6426498774484581
0.8024899691657655
0.8790588165950994
0.9224599734378132
0.9505802903151045
0.9708262099294731
0.992319294327546
1.014080198316374
1.0348825504394517
1.0526224054649473
1.0669963575804589
1.0774801326680445
1.0847119670986036
1.088605370462039
1.0900343267926376
1.088997970551074
1.0859797699946077
1.081761647184112
1.0758294238197388
1.069057278387901
1.0604747359073712
1.0500607491289895
1.037398103740836
1.0243146574941526
0.6014756989698279
0.7516575956870543
0.8373142614710551
0.8910737724261714
0.927472329921984
0.9566687109195994
0.9841797398778431
1.0107448477374321
1.0348178116840614
1.0543406845246215
1.0686663924368889
1.0789449939429974
1.0846926473235088
1.087523289166896
1.088283560188435
1.0861625058325
1.0827543152529477
1.0783186388614674
1.0727699597804747
1.0658084475507916
1.056546427804527
1.0465749418557209
1.0340250643735125
1.0200370373201693
0.572338754359387
0.7075963398847938
0.7965605451197276
0.8574693944262161
0.9013724151917416
0.9385598803098453
0.9741602814868044
1.005424735287347
1.031228590848893
1.0518926425434003
1.0664104377227412
1.0755765721494424
1.0807954069829517
1.0828029951305955
1.0823090211255944
1.0806548433426053
1.077267682253577
1.0728060302252418
1.0668680039661362
1.0602509436274044
1.052245317873608
1.0422702673564115
1.0293865700253286
1.0165883427725129
0.5489230724012433
0.6697232203044994
0.7600452328073004
0.8259449791548952
0.8761316108702293
0.9213427066849428
0.962051370439048
0.9977412004207518
1.025599117627536
1.0470875059351767
1.060595358544791
1.069159479268477
1.0738954382927
1.0755880481609799
1.0753478893009911
1.0736574554694878
1.070810826913436
1.0667476477310673
1.061004392196217
1.0542995494471783
1.0466956283431972
1.0373065270031907
1.025337126641157
1.012531993862742
0.5294936655473433
0.639691605376112
0.728006211658291
0.7979302273628043
0.8549639218778203
0.9065659695246797
0.9526013863963165
0.9909405118128152
1.0201165853139313
1.0397923310253068
1.0527267870087462
1.0604732862108557
1.0650731854669586
1.0666859845969334
1.067012865278856
1.0659396177678877
1.0627550938077794
1.059264086729454
1.0541869051872759
1.0480832499120143
1.0410011350087238
1.0318741948391883
1.0206320336433135
1.0088361030286705
0.5126654003679951
0.6154422597555621
0.7023865310501951
0.7749167692229835
0.8380516527654878
0.8966289001965229
0.9461147507630039
0.9858412318682116
1.013328928124095
1.0317420897290783
1.043822314171692
1.0512564452386817
1.0548853298927485
1.057611016983537
1.0579045638070337
1.057317847333338
1.054887792590945
1.052158646938861
1.047931305974803
1.042422900811201
1.0354482378544214
1.0277199158354897
1.0165443733170625
1.00571422310243
0.49855258907164995
0.595803639679598
0.6830427715750725
0.7578403494118772
0.8278294792308337
0.8916432183955945
0.9432201265641823
0.9816131698845124
1.0073943705229513
1.0243242472959568
1.0349763660295632
1.0421096228218
1.0461046707710535
1.0490188418196695
1.0497444763288686
1.0496042992554129
1.0481588205980228
1.0458613355781483
1.0419895102112677
1.037403589427356
1.0319308777828067
1.0238866647676672
1.0135789928438468
1.0033049258700415
0.4898668653250808
0.5835065895812667
0.6699544805181171
0.7478662740559578
0.824855472762305
0.8918805087377242
0.9432238658544825
0.9789447081832744
1.0022910211799758
1.017758848503772
1.028191369105154
1.0345222262004181
1.0397834760662146
1.0422364696149753
1.0432094665663592
1.0432832994214525
1.0422923954608505
1.040000424392022
1.0373890415936853
1.033702404133383
1.0284305966944685
1.0220622585376025
1.012472183752401
1.0029610057482374
0.48603230427799743
0.5781864799032794
0.6646367399540707
0.7483783838999748
0.8288911473996403
0.8963268683334842
0.94471160899031
0.9773675985747942
0.9982364370432436
1.0126683917010426
1.0222002493650473
1.0289910951531884
1.0338525108606615
1.0370031845429049
1.03817171850197
1.0390668529408826
1.0382965795166395
1.037332549138207
1.035077990312525
1.0314595145986303
1.0273697114669715
1.0222690375200734
1.0138531761109493
1.0045491304326255
0.48519295760382253
0.5780426002778817
0.6667815355598691
0.7574510547572786
0.8403024598439756
0.9042779279124303
0.948324575433338
0.9766027474816642
0.9959941570857905
1.0093726912398762
1.0186251742541295
1.025273046172145
1.030515350916024
1.0337160964069705
1.036146440608876
1.0368134866204792
1.0364649103601282
1.0356160423542056
1.0341607504537689
1.0321099787287278
1.028753168228625
1.0244677874006556
1.016795738796865
1.0082367016117875
0.4866582009186035
0.581138944879464
0.6752764345078588
0.7729515598306786
0.8544858068523743
0.9135936886176547
0.9525334740363489
0.9776196023126684
0.9952491530426238
1.008492124047234
1.0177724713012877
1.024149165452433
1.029200415620306
1.0325722308572611
1.0353905946340223
1.0367061940388302
1.0367322445560174
1.0361174911679143
1.0353375739493593
1.0349225890364824
1.032122573819251
1.0286562869423712
1.0213768018620188
1.013163525654314
0.49288861912338855
0.5881306810479762
0.6904816920389466
0.7918555476759198
0.8703472544328247
0.9224806129567995
0.9567171308708031
0.9804652021309739
0.9966231562873271
1.0083307945392308
1.0175656583579005
1.0244806441150296
1.030295213815675
1.0340969214906905
1.0363676988458654
1.037415890294372
1.0390861008156054
1.0408625599379513
1.0406600681092513
1.0403733956943377
1.0382918782947157
1.0340635448503306
1.0265708400623685
1.0181701613328797
0.501951022739336
0.6010751580866297
0.7116802153720141
0.8133554400346487
0.8851806197408272
0.9305643876832503
0.9607838030684507
0.9820364039672862
0.9974652455359572
1.0098225344749145
1.0199241171437052
1.0265260439973924
1.032127187333928
1.0360088641618512
1.0396795196650883
1.0429884550943769
1.0447234458817052
1.046245188144767
1.0470715204031535
1.0468969857059247
1.0448024493924675
1.0408928545289804
1.0332325874448007
1.0240387823413826
0.5124410083537405
0.6204968888898637
0.739435175921198
0.836402317704306
0.8978496847240149
0.9377976257237012
0.9645324320752958
0.9845521088434179
1.0000407772147077
1.0118264369188126
1.0208577740191498
1.0294920533634695
1.0357856996318069
1.0403924438659795
1.0446687312187997
1.0480570908274984
1.0517741064274955
1.0540816159221047
1.0547841066451034
1.0544808600581432
1.0523020115521864
1.0478422162933871
1.0394690500278034
1.0296198686064801
0.524392309742964
0.6474203034750828
0.7724740139148693
0.8581848877020588
0.9102855310113381
0.9438954584241644
0.9682379615230254
0.9867230885293006
1.0016955043639446
1.0147275025494689
1.0247883638977697
1.032436990885951
1.039413871557242
1.0457251147387945
1.0517763307155383
1.0557486105657565
1.0590096049795448
1.0615139264843574
1.062901001574775
1.0616659166017721
1.0595083729310106
1.0541567737718422
1.0448531902729685
1.0350524462065407
0.5387508164248563
0.6814826235874255
0.8062036750263255
0.8794481981803471
0.9229737309176058
0.9512269152575783
0.9723144146468935
0.9904064124345092
1.005012258393294
1.016803601642024
1.0277693913511001
1.0364101529664265
1.0445584696253765
1.0521393846141665
1.0584912787111147
1.0637582751729586
1.0680587811450415
1.0699494621349586
1.0704172570792205
1.0696411764206468
1.0656294779312725
1.0597554023025484
1.0497562838477432
1.0391490588052155
0.557168846066997
0.7228770962910721
0.8380252963623925
0.8993283516385353
0.9344006296504016
0.9588129679550953
0.9775085481720117
0.9936870399385478
1.0080678516812283
1.0209758936480264
1.031740908617606
1.0417536365945521
1.0513121720283918
1.059642733229093
1.0661586778733076
1.0709364493369409
1.0756236582424827
1.077452223281596
1.0777965685682485
1.0756853756934113
1.071497003155656
1.064098225363324
1.0538052548084758
1.041614747592834
0.5815553685232074
0.7689026136073441
0.8675382732158432
0.9162456657273327
0.9456780867319935
0.9670354304882763
0.9840163160706815
0.9994406073440717
1.0124272169619188
1.025434161394142
1.036710598725738
1.048214361885161
1.057809170624325
1.0667247131947521
1.0737164354698792
1.0791634253440288
1.0824878682089965
1.0838963145342968
1.0833497237266698
1.0803264919503652
1.075227454071676
1.0672004136159192
1.056243948710655
1.043039914674804
0.6175494837360801
0.8146364942678505
0.8933065160502105
0.9315999710820941
0.9564154630312759
0.9755040012531816
0.991360742819661
1.0057928114466503
1.0185062492597297
1.029814054606313
1.0431525341692396
1.0551915447421583
1.0654601845652725
1.0738004793375644
1.0802543136432858
1.0854417071895315
1.0884216742114567
1.0890277293196402
1.08771136462694
1.083919155886981
1.0777555578547067
1.068810403837313
1.056930035485476
1.0431740180060851
0.6719643120137772
0.8542062573713983
0.9146664225095771
0.9453587330147138
0.9672234160992771
0.9838779063437737
0.9993386808827125
1.01288801846903
1.0261630442140361
1.0385233506450338
1.0502652941089123
1.0619966089988768
1.0726866396317998
1.0811099429934294
1.0871278059114655
1.0916739625976528
1.0930106152221863
1.0927785325933759
1.0899355538905757
1.0856209275072988
1.0785571092250943
1.0693759677364378
1.0561941772374073
1.0421237959356966
0.7465136351324795
0.8846388488068803
0.9299263361763409
0.9567018433153837
0.9762849051909074
0.9924673675810701
1.0077864611431948
1.0210146764458001
1.0335236123486276
1.0471909989611516
1.0601367474385728
1.0704753609625093
1.0793354789532055
1.087436423974432
1.0929359480237149
1.0958129057405959
1.0967407849342816
1.094891742190292
1.091341216019451
1.0862594723747432
1.0779799965257615
1.06810696832735
1.0548173701470849
1.039987394924373
0.8285287502009308
0.902972414273982
0.939607860116131
0.9649938349622746
0.984907161938072
1.0007472930797756
1.0155466572394314
1.028607758031386
1.0421029921747318
1.0560476934611722
1.0689764018008865
1.079877731271437
1.0872846928753106
1.0931709146853739
1.0971699216857962
1.098891094372032
1.098776989303118
1.0955928398584442
1.0915043557580122
1.0846554837799904
1.0764310611009267
1.0657481632694517
1.0524210274498051
1.0364965077199526
0.07747252798538652
0.15782691842321409
0.2428852154742866
0.289818332193756
0.3588786626391913
0.4537888057931875
0.11031261490642155
0.19043846803764714
0.26501293352940364
0.30704438883942775
0.366937552936441
0.42967155103084886
0.12652195037976838
0.20095919247488894
0.2672340445073652
0.3078238752920367
0.36842937064973325
0.43825880308718984
0.14066254922221746
0.20799436040024102
0.2663981461391068
0.3060886550336438
0.3698864698864377
0.44709184026004456
0.1550687038378117
0.21364653145293258
0.2646893452298445
0.30451202836318325
0.370051344429734
0.4513328197696447
0.1685607276510353
0.21819980483026347
0.26193449011321884
0.3023951061954219
0.3685105016537995
0.4502650644484208
0.18080283423792787
0.2210593655121977
0.2594802149489492
0.30026802050549395
0.3657229775496932
0.44632552055397173
0.19098760802546527
0.22291624778507507
0.2573910853188502
0.2982595575152024
0.3622057741744485
0.44077952141789045
0.1993168461122007
0.22412963742838118
0.25523871082239363
0.2961020512288704
0.35871682803220595
0.4338773864218318
0.20596523928763577
0.22522642334611456
0.2533869057025672
0.2941435839937128
0.35553699344804995
0.4289343145775
0.2107267708586025
0.22609003170511974
0.25356883710117384
0.29343849828667
0.3538689222157888
0.4267740494463912
0.21315669895381162
0.22692412415766305
0.254757189943479
0.29455560190945085
0.3541236346671599
0.42633902793594086
0.21339168783523768
0.22780671379956924
0.25683922895700595
0.29773365036863786
0.3572960875731983
0.4291905079365249
0.21134708726590745
0.22812341582592777
0.2592143384622382
0.3021451855878351
0.363217183924114
0.43485522105241675
0.20690026167863904
0.227896619803732
0.2618066273677704
0.3069090054789257
0.3692030680205125
0.44171920283232524
0.20046636703850704
0.22753488526592583
0.26480758975846114
0.3114703014100461
0.3752610639611953
0.4486255253081025
0.19220204168529023
0.22659505620410128
0.2676694100823642
0.31512684798951457
0.3802676105682032
0.4553250665424105
0.18200013576196108
0.22462845739736248
0.26953229572406984
0.3182061134415867
0.3844535750193772
0.46031493538874063
0.16973739522096634
0.22086278318478753