/*--------------------------------*- C++ -*----------------------------------*\
  =========                 |
  \\      /  F ield         | OpenFOAM: The Open Source CFD Toolbox
   \\    /   O peration     | Website:  https://openfoam.org
    \\  /    A nd           | Version:  11
     \\/     M anipulation  |
\*---------------------------------------------------------------------------*/
FoamFile
{
    format      ascii;
    class       volScalarField;
    location    "1.64";
    object      epsilon;
}
// * * * * * * * * * * * * * * * * * * * * * * * * * * * * * * * * * * * * * //

dimensions      [0 2 -3 0 0 0 0];

internalField   nonuniform List<scalar> 
2880
(
2.08294
3.29869
6.12388
7.64295
7.43196
6.21057
0.889741
2.05569
3.42538
4.33003
5.20569
7.26188
0.245815
1.72392
2.65529
3.43559
4.35037
5.41503
0.270329
1.57845
2.32407
3.06302
3.96429
4.90174
1.2287
1.49038
2.14183
2.87839
3.80658
4.78302
1.4172
1.4306
2.02755
2.78164
3.76322
4.81759
1.57444
1.38987
1.94843
2.73101
3.78537
4.94405
1.69765
1.35863
1.88771
2.705
3.84921
5.1229
1.78607
1.33111
1.83538
2.69028
3.9376
5.33642
1.83964
1.30374
1.78481
2.67773
4.0394
5.57619
1.85735
1.27436
1.73138
2.66047
4.14638
5.83793
1.84816
1.24232
1.67186
2.63216
4.25153
6.11895
1.81007
1.20872
1.60402
2.58772
4.34821
6.41653
1.75379
1.17354
1.52733
2.52222
4.42927
6.72623
1.67795
1.1337
1.44185
2.43144
4.48426
7.04189
1.58169
1.08582
1.3474
2.31203
4.4966
7.36088
1.46234
1.02504
1.24368
2.16131
4.44811
7.67881
1.30006
0.942703
1.13075
1.97879
4.32069
7.98861
1.1915
0.827363
1.0114
1.76859
4.09714
8.27432
0.268983
0.693948
0.896761
1.54118
3.7662
8.501
0.25226
0.621143
0.805921
1.31737
3.33356
8.64358
0.230595
0.627587
0.776885
1.13874
2.82605
8.68858
0.86801
0.833172
0.904744
1.11099
2.35202
8.4393
2.13171
2.00828
1.91111
1.90438
2.55314
6.15957
5.09034
4.85188
5.04638
4.96925
4.65584
4.04943
3.33411
2.62931
2.00736
1.50189
1.11543
0.834084
0.633182
0.487693
0.379682
0.297607
0.234552
0.186867
0.152341
0.129012
0.114596
0.107329
0.106444
0.110006
5.17126
5.15606
5.20326
4.93985
4.2992
3.47745
2.68374
2.00847
1.48157
1.09187
0.81195
0.610613
0.462671
0.352141
0.26888
0.206496
0.160677
0.128052
0.10584
0.0916701
0.083627
0.080466
0.0812221
0.0850609
5.22761
5.37369
5.23945
4.68687
3.77255
2.87073
2.11603
1.54158
1.12458
0.826154
0.610545
0.452238
0.335423
0.249482
0.186986
0.142258
0.11081
0.0892257
0.0750399
0.0664017
0.0619883
0.060929
0.0622683
0.0659941
5.33822
5.47912
5.14744
4.26012
3.22242
2.3472
1.68826
1.21496
0.877612
0.634951
0.458913
0.331557
0.240214
0.175535
0.130288
0.0989486
0.0775043
0.0631643
0.0540265
0.0487353
0.0463739
0.0463212
0.047844
0.0511561
5.4925
5.50731
4.91952
3.77506
2.73454
1.94247
1.37626
0.975661
0.690486
0.486891
0.342532
0.241408
0.171554
0.123843
0.0914854
0.0696468
0.0550229
0.0454274
0.0394435
0.0361252
0.0348596
0.035146
0.0366622
0.0394335
5.65949
5.49702
4.58323
3.33533
2.34442
1.63495
1.13757
0.787983
0.542342
0.371409
0.254283
0.175334
0.122786
0.0880355
0.0650637
0.0498365
0.0397515
0.033177
0.0291049
0.0268959
0.0261444
0.0264968
0.0278189
0.0300389
5.81889
5.43733
4.21963
2.96046
2.03631
1.39241
0.945581
0.63614
0.424364
0.282125
0.188474
0.127751
0.0886656
0.0634674
0.0470828
0.036312
0.0291885
0.0245235
0.0216048
0.0199999
0.0194393
0.0197054
0.0207242
0.0224554
5.96272
5.33408
3.88405
2.65291
1.78741
1.1932
0.786785
0.512331
0.331019
0.214112
0.140189
0.0939116
0.0649071
0.046529
0.0346836
0.0269074
0.0217335
0.0182938
0.0160783
0.014788
0.0142425
0.0143328
0.0150085
0.0163036
6.09299
5.19191
3.60064
2.40201
1.58116
1.02575
0.654357
0.411888
0.258123
0.163054
0.10515
0.0699423
0.0483004
0.0347293
0.0260068
0.0202581
0.0163884
0.0137548
0.0119809
0.0108493
0.0102364
0.0100915
0.0104247
0.0113049
6.21862
5.03133
3.36819
2.19312
1.40564
0.883047
0.543991
0.331183
0.201891
0.125099
0.0798269
0.0529149
0.0365844
0.0263938
0.0198347
0.0154808
0.0125074
0.0104281
0.00895412
0.00791527
0.0072158
0.00682128
0.00679027
0.00724947
6.35014
4.88132
3.17019
2.01497
1.25413
0.761216
0.452646
0.267018
0.158923
0.0970223
0.0614964
0.0407232
0.0282131
0.0204141
0.015375
0.0120024
0.00966618
0.00799144
0.00674878
0.0057956
0.0050441
0.00444813
0.00399769
0.00386774
6.49482
4.74918
3.00524
1.86238
1.12281
0.65756
0.377672
0.216453
0.126271
0.0762484
0.0481426
0.0318927
0.0221432
0.0160572
0.0121063
0.00944207
0.0075759
0.00621465
0.00517427
0.00433277
0.00360464
0.00293109
0.00224483
0.00132017
6.6586
4.64086
2.8701
1.73118
1.00893
0.569816
0.316595
0.176844
0.101493
0.060808
0.038317
0.0254078
0.0176722
0.0128322
0.00967685
0.00753744
0.00602922
0.00492084
0.00406624
0.00336699
0.00275056
0.00216402
0.00158216
0.000895746
6.8475
4.56295
2.76228
1.6183
0.910357
0.495979
0.267153
0.145918
0.0826482
0.0492417
0.030997
0.0205714
0.014323
0.0104041
0.00784114
0.00609793
0.00486577
0.00395893
0.00326045
0.00269182
0.00219547
0.00172986
0.00127302
0.000770492
7.06862
4.52124
2.67967
1.52146
0.825348
0.43419
0.227314
0.12179
0.0682432
0.0404882
0.0254673
0.0169056
0.0117698
0.00854241
0.00642764
0.00498742
0.00396895
0.00321985
0.00264405
0.00217725
0.00177285
0.00139939
0.00104525
0.000680494
7.32728
4.52377
2.62047
1.43873
0.752287
0.382728
0.195318
0.102936
0.057149
0.0337844
0.0212286
0.0140818
0.00979053
0.00709037
0.00532009
0.00411509
0.00326438
0.00264052
0.00216319
0.00177893
0.00144963
0.00115127
0.000877378
0.000610039
7.62838
4.58394
2.58224
1.36816
0.689689
0.340131
0.169579
0.0880779
0.0485261
0.0285848
0.0179324
0.0118734
0.00823258
0.00594103
0.00444008
0.00342088
0.0027042
0.00218158
0.0017848
0.0014687
0.00120171
0.000964824
0.000753619
0.000555982
8.00078
4.6921
2.56169
1.30778
0.636572
0.304741
0.148711
0.0762569
0.0417362
0.0244984
0.0153334
0.0101221
0.00698981
0.00502012
0.00373333
0.0028634
0.00225549
0.00181582
0.0014855
0.00122582
0.00101012
0.000822838
0.000660376
0.000514064
8.47146
4.84858
2.55535
1.25638
0.591024
0.27504
0.131628
0.0667525
0.0363257
0.0212465
0.0132578
0.00871583
0.00598717
0.00427503
0.00316124
0.00241302
0.00189455
0.00152352
0.00124839
0.00103546
0.000861835
0.00071439
0.000589778
0.00048154
9.07571
5.05718
2.55688
1.21197
0.551129
0.249748
0.117473
0.0590196
0.0319614
0.0186274
0.0115804
0.00757435
0.00517065
0.00366764
0.00269557
0.00204782
0.00160361
0.00128976
0.00106056
0.000886311
0.000747049
0.000631428
0.000536158
0.000456288
9.86897
5.31697
2.56186
1.16997
0.51498
0.22778
0.105568
0.052645
0.0283972
0.0164937
0.0102105
0.00663924
0.00450078
0.00316979
0.00231514
0.00175109
0.0013689
0.00110281
0.000911833
0.000769511
0.000658208
0.000567926
0.000495372
0.00043666
10.9391
5.57428
2.56169
1.12579
0.480736
0.208214
0.0953796
0.0473156
0.0254504
0.014737
0.00908155
0.00586753
0.0039482
0.00276026
0.00200375
0.00150983
0.00117964
0.000953455
0.000794238
0.000678181
0.000589542
0.000519369
0.000464351
0.000421386
12.4214
5.79518
2.52927
1.07319
0.446623
0.190304
0.0865032
0.0427983
0.0229863
0.0132774
0.00814422
0.00522718
0.00349078
0.00242279
0.00174878
0.00131382
0.00102723
0.000834361
0.000701462
0.000606937
0.000536599
0.00048232
0.000440788
0.000409501
14.4114
5.94514
2.43582
1.00611
0.411353
0.17356
0.0786563
0.0389252
0.0209064
0.0120559
0.00736194
0.00469412
0.0031116
0.00214473
0.00154027
0.0011549
0.000904812
0.000739674
0.000628497
0.000551543
0.000495911
0.000454143
0.000422945
0.00040028
3.16354
8.57783
11.2942
12.1948
46.7904
49.0354
1.15591
4.30482
5.87248
7.07126
10.6374
16.6259
1.70963
3.34792
4.4441
5.49283
7.1959
9.79509
2.3659
2.99221
3.83205
4.73435
5.88799
7.12299
2.97284
2.83491
3.50134
4.28124
5.13237
5.77694
3.51395
2.76672
3.29979
3.97811
4.63259
4.97402
3.98022
2.74172
3.16783
3.76333
4.27878
4.44922
4.36702
2.73772
3.07725
3.60592
4.02155
4.08945
4.67224
2.74252
3.01303
3.48936
3.83524
3.83967
4.89545
2.74901
2.96654
3.40437
3.70535
3.67084
5.03807
2.7531
2.93262
3.3458
3.62231
3.56771
5.10509
2.75281
2.90797
3.3103
3.58073
3.52228
5.10059
2.7468
2.89042
3.29567
3.57802
3.53099
5.01824
2.73249
2.87848
3.30037
3.61226
3.59337
4.85622
2.70815
2.87144
3.3232
3.68649
3.71573
4.61337
2.67219
2.86956
3.36556
3.80336
3.90607
4.28935
2.62535
2.87446
3.43049
3.96652
4.18058
3.88482
2.57148
2.89074
3.52167
4.18557
4.56635
3.40258
2.51819
2.92904
3.64826
4.47731
5.11222
2.84943
2.48112
3.01168
3.83061
4.87066
5.92209
2.23929
2.4929
3.18885
4.11708
5.43078
7.25152
1.59749
2.64658
3.58481
4.64474
6.38482
9.88497
1.09897
3.29514
4.6591
5.90481
8.87467
16.7264
2.73486
7.10215
9.47691
10.7217
10.6807
51.7212
15.8568
5.63753
2.25114
0.922341
0.374837
0.15783
0.0716774
0.0355832
0.0191407
0.0110294
0.00670743
0.00425001
0.00279751
0.00191607
0.00137023
0.00102649
0.000806872
0.000664712
0.000571366
0.000508656
0.000464767
0.000432809
0.000409521
0.000393192
10.0303
4.63988
1.99174
0.828865
0.338597
0.143292
0.0655017
0.0327006
0.0176405
0.0101664
0.00616026
0.00388084
0.00253819
0.00172879
0.00123221
0.000923254
0.000728942
0.000605716
0.000526905
0.000475635
0.00044103
0.000416728
0.000399522
0.00038784
7.44789
3.88374
1.74829
0.739296
0.304894
0.130252
0.0601145
0.0302321
0.0163717
0.00944388
0.0057051
0.00357576
0.00232551
0.00157647
0.00112095
0.000840843
0.000667389
0.000559648
0.000492579
0.000450389
0.000423007
0.000404592
0.00039213
0.000383838
5.95422
3.31936
1.53811
0.659452
0.275059
0.118911
0.055503
0.0281451
0.0153096
0.00884471
0.00533034
0.0033264
0.00215303
0.00145397
0.00103225
0.000775751
0.000619279
0.000524057
0.00046637
0.000431302
0.000409468
0.000395489
0.000386585
0.000380807
4.97824
2.88734
1.36331
0.591464
0.249643
0.109325
0.051639
0.0264118
0.0144356
0.00835612
0.00502714
0.00312629
0.00201578
0.00135728
0.000962829
0.000725268
0.000582348
0.000497052
0.000446719
0.000417141
0.000399498
0.000388791
0.000382458
0.000378564
4.30291
2.55575
1.22201
0.53552
0.228675
0.101444
0.0484791
0.0250062
0.013736
0.00796842
0.00478875
0.0029705
0.00190993
0.00128339
0.000910231
0.000687366
0.000554904
0.000477212
0.000432445
0.000406962
0.000392406
0.000384071
0.000379513
0.000376997
3.82235
2.30225
1.11066
0.490868
0.21191
0.0951592
0.0459715
0.0239012
0.0132041
0.00767425
0.00461001
0.00285525
0.00183258
0.00122998
0.000872591
0.000660515
0.000535675
0.000463467
0.000422651
0.000400024
0.000387602
0.000380924
0.000377601
0.000375999
3.47805
2.1115
1.02534
0.456434
0.199
0.0903473
0.0440721
0.0230798
0.0128212
0.00746708
0.00448706
0.00277772
0.00178155
0.0011953
0.000848482
0.000643537
0.000523671
0.000454984
0.000416643
0.000395758
0.000384648
0.000379091
0.000376518
0.000375419
3.23478
1.97276
0.962681
0.431186
0.189605
0.0868938
0.04274
0.0225245
0.012577
0.00734236
0.00441715
0.00273593
0.00175527
0.00117809
0.000836877
0.000635582
0.000518183
0.000451198
0.00041398
0.000393841
0.000383364
0.000378254
0.000376007
0.000375162
3.07083
1.87839
0.920254
0.41428
0.183443
0.0847063
0.0419441
0.0222231
0.0124661
0.00729743
0.00439864
0.00272866
0.00175278
0.00117755
0.000837133
0.000636055
0.000518678
0.0004517
0.000414422
0.000394142
0.000383501
0.000378281
0.00037597
0.00037512
2.97308
1.8234
0.896399
0.405129
0.180319
0.0837259
0.041666
0.0221683
0.0124837
0.00732717
0.00442665
0.00275163
0.00177053
0.00119072
0.000846962
0.000643779
0.000524875
0.000456381
0.000417807
0.000396505
0.000384972
0.000379107
0.000376345
0.0003752
2.93458
1.80507
0.890239
0.403433
0.180143
0.0839142
0.0418814
0.0223433
0.0126191
0.00742695
0.0044995
0.0028046
0.00180949
0.00122036
0.000869679
0.000660769
0.000537268
0.000465371
0.000424232
0.000400993
0.000387988
0.000380847
0.000377176
0.00037541
2.952
1.82273
0.901707
0.409146
0.182866
0.0852521
0.0425916
0.0227556
0.0128797
0.00760164
0.00462201
0.00289348
0.0018749
0.00126843
0.000904728
0.000686359
0.000555926
0.000478865
0.000433858
0.000407712
0.000392488
0.000383617
0.000378559
0.000375812
3.02755
1.8778
0.931624
0.422731
0.188745
0.0878676
0.0438531
0.0234306
0.0132795
0.00786161
0.00480071
0.00301993
0.00196565
0.00133393
0.000952415
0.00072122
0.000581375
0.000497302
0.000447042
0.000416945
0.000398696
0.00038746
0.000380581
0.000376478
3.16658
1.97386
0.981722
0.444843
0.197977
0.091812
0.0456861
0.0243807
0.0138251
0.00820789
0.00503441
0.00318316
0.00208197
0.00141802
0.0010138
0.000766253
0.000614382
0.000521326
0.000464314
0.000429118
0.000406946
0.000392634
0.000383383
0.000377478
3.3797
2.11702
1.05478
0.476595
0.210961
0.09722
0.0481302
0.025614
0.0145158
0.00863996
0.00532353
0.00338445
0.00222562
0.00152223
0.00109022
0.000822612
0.000655938
0.000551778
0.000486367
0.000444779
0.000417658
0.00039945
0.000387182
0.000378935
3.68429
2.31655
1.15477
0.519534
0.228235
0.10427
0.0512461
0.027153
0.0153606
0.00916187
0.00567075
0.00362608
0.00239856
0.0016483
0.00118324
0.000891679
0.000707253
0.000589694
0.000514068
0.000464626
0.00043137
0.000408305
0.000392252
0.000380995
4.10797
2.58593
1.28703
0.57565
0.250472
0.113179
0.0551048
0.0290229
0.0163692
0.00977813
0.00607891
0.0039103
0.00260282
0.00179811
0.00129457
0.000975022
0.000769729
0.000636308
0.000548466
0.000489521
0.000448754
0.00041969
0.000398921
0.000383825
4.69625
2.94488
1.45841
0.647346
0.278444
0.124185
0.0597811
0.0312494
0.0175519
0.010493
0.00655048
0.00423911
0.00284025
0.00197348
0.00142599
0.00107432
0.000844924
0.000693026
0.000590796
0.0005205
0.000470631
0.000434206
0.000407577
0.000387613
5.52732
3.42246
1.67727
0.737235
0.312938
0.137518
0.0653411
0.0338527
0.0189213
0.0113103
0.00708728
0.00461399
0.00311241
0.00217605
0.00157919
0.00119126
0.000934463
0.000761369
0.000642431
0.000558752
0.000497974
0.000452589
0.000418707
0.000392603
6.74588
4.05863
1.95241
0.847542
0.354537
0.153334
0.0718248
0.0368424
0.0204874
0.0122321
0.00769011
0.00503572
0.00342033
0.00240713
0.00175566
0.00132743
0.00103997
0.000842927
0.000704886
0.00060567
0.000531995
0.000475759
0.000432706
0.000398937
8.63478
4.90293
2.29096
0.978753
0.40321
0.171612
0.0792236
0.0402165
0.0222415
0.0132569
0.00835837
0.00550427
0.00376449
0.0026676
0.00195662
0.00148428
0.00116303
0.000939348
0.000779779
0.000662752
0.000573953
0.000504628
0.00045022
0.00040683
12.074
6.06965
2.69304
1.12762
0.457724
0.191994
0.0874369
0.0439426
0.0241701
0.01438
0.0090901
0.00601881
0.00414482
0.00295798
0.00218304
0.00166312
0.00130517
0.00105229
0.000868796
0.000731599
0.000625266
0.000540344
0.000472064
0.000416588
20.3346
7.82527
3.14266
1.28396
0.514925
0.213648
0.0962443
0.0479567
0.0262519
0.0155942
0.00988225
0.00657794
0.00456083
0.00327845
0.00243561
0.00186505
0.00146781
0.00118335
0.000973636
0.000813911
0.000687527
0.000584282
0.00049926
0.000428618
4.03933
3.00942
2.12163
1.72071
1.99837
5.2723
1.29054
1.62399
1.37851
1.34727
2.12372
6.29877
1.77474
1.65515
1.41995
1.52648
2.77827
7.54478
2.21421
1.82461
1.60725
1.82927
3.4668
8.28364
2.55915
1.96481
1.80244
2.1565
4.08018
8.62984
2.84566
2.07227
1.98374
2.48421
4.59408
8.65012
3.09324
2.16206
2.15113
2.8034
4.9861
8.47967
3.30895
2.2427
2.31277
3.10232
5.25174
8.15869
3.49493
2.31496
2.47496
3.37122
5.40557
7.77421
3.65179
2.38259
2.63685
3.60377
5.47052
7.36754
3.78011
2.44989
2.7949
3.79354
5.47378
6.97287
3.88107
2.52187
2.94464
3.94151
5.43491
6.61223
3.95702
2.60538
3.08122
4.05487
5.37146
6.29515
3.97571
2.69151
3.20538
4.14403
5.29922
6.02547
3.94665
2.77998
3.32142
4.2201
5.23256
5.80727
3.85257
2.87561
3.4364
4.29502
5.18513
5.64632
3.69387
2.98727
3.56024
4.38023
5.17297
5.55223
3.46462
3.12839
3.70684
4.48777
5.20639
5.54025
3.1584
3.31977
3.89729
4.63487
5.30102
5.60372
2.76801
3.58942
4.16753
4.84726
5.49275
5.79389
2.28573
3.96416
4.59003
5.17282
5.82781
6.19717
1.70447
4.58238
5.34441
5.74083
6.37706
7.06105
1.15717
5.9312
7.09824
6.99669
7.34243
9.61351
4.12404
9.75781
13.0876
11.6769
9.31527
26.5378
17.8485
8.67072
3.48138
1.4206
0.569083
0.235255
0.105323
0.0521714
0.0284603
0.0168912
0.0107315
0.00718011
0.00501185
0.00362897
0.00271478
0.00209093
0.00165214
0.00133402
0.00109596
0.000911447
0.00076249
0.000638042
0.000533041
0.000443421
14.8113
8.42626
3.63531
1.51717
0.614977
0.255517
0.114348
0.0565012
0.030771
0.0182641
0.0116355
0.00782428
0.00549742
0.00400945
0.00302086
0.00234143
0.00185918
0.00150559
0.00123735
0.00102599
0.00085203
0.000703417
0.000574847
0.000461615
12.74
7.95231
3.62281
1.57075
0.650723
0.273743
0.123117
0.0608934
0.0331715
0.019711
0.0125943
0.00851065
0.0060177
0.0044201
0.0033542
0.00261714
0.00208979
0.00169925
0.00139928
0.00115929
0.000958107
0.000782392
0.000626349
0.00048395
11.2557
7.26151
3.53304
1.58865
0.677008
0.289891
0.131605
0.0653483
0.0356681
0.0212374
0.0136115
0.0092415
0.00657403
0.0048618
0.00371549
0.00291876
0.00234483
0.00191609
0.00158315
0.00131309
0.00108275
0.000877136
0.000689469
0.000511329
10.1199
6.60717
3.41601
1.58379
0.696283
0.304498
0.139952
0.0699208
0.0382883
0.0228577
0.0146956
0.0100217
0.00716941
0.0053365
0.00410618
0.00324752
0.00262548
0.0021574
0.00179047
0.00148918
0.00122811
0.00099003
0.000766423
0.000544818
9.20155
6.03162
3.27799
1.56844
0.711188
0.318251
0.148387
0.0747067
0.0410787
0.0245961
0.0158599
0.0108593
0.00780896
0.00584776
0.00452898
0.0036057
0.00293384
0.00242519
0.00202328
0.00168977
0.00139663
0.00112383
0.00085986
0.000585691
8.43189
5.53376
3.12578
1.54715
0.723631
0.331795
0.157174
0.0798296
0.0441024
0.0264853
0.0171231
0.0117657
0.00850021
0.00640115
0.00498848
0.00399744
0.00327381
0.00272328
0.00228529
0.00191847
0.00159195
0.00128229
0.000973364
0.000635582
7.76954
5.1058
2.96241
1.52328
0.735106
0.345716
0.166587
0.0854335
0.0474371
0.0285672
0.0185091
0.0127554
0.00925312
0.00700439
0.00549155
0.0044295
0.00365245
0.00305907
0.00258416
0.00218292
0.00182146
0.00147254
0.00111348
0.000697325
7.19667
4.74174
2.81411
1.49972
0.746853
0.360667
0.176946
0.0916844
0.0511763
0.0308932
0.020047
0.0138461
0.0100795
0.00766679
0.00604693
0.00491132
0.00408076
0.00344564
0.00293524
0.00250054
0.00210399
0.00171402
0.00129886
0.000781854
6.69934
4.43579
2.68468
1.47892
0.759791
0.377207
0.188713
0.0988525
0.0554493
0.033529
0.0217729
0.0150586
0.0109923
0.00839765
0.00666309
0.00545265
0.00457156
0.00390077
0.00336321
0.00290513
0.0024848
0.00206539
0.00160477
0.000987364
6.27132
4.18179
2.57548
1.46277
0.774864
0.395731
0.202131
0.107142
0.0603947
0.0365553
0.0237314
0.0164172
0.0120048
0.00920433
0.00734477
0.00605811
0.00513198
0.00443754
0.0038926
0.00344208
0.00304819
0.00269232
0.00239891
0.00226747
5.90868
3.97487
2.4873
1.45281
0.792966
0.41671
0.217543
0.116803
0.0661807
0.0400746
0.0259807
0.0179537
0.0131329
0.0100936
0.00809305
0.00672563
0.00575918
0.0050555
0.00453001
0.00413076
0.0038277
0.00361289
0.00351596
0.00358963
5.60929
3.81276
2.4214
1.44933
0.814795
0.440661
0.235361
0.128155
0.0730276
0.044225
0.0286023
0.0197145
0.0144026
0.0110785
0.0089132
0.00745537
0.0064495
0.00574671
0.00525946
0.00493735
0.00475282
0.00469582
0.00477187
0.00497399
5.37227
3.69483
2.37549
1.45335
0.841168
0.468174
0.256086
0.141605
0.0812293
0.0491978
0.0317141
0.0217713
0.0158573
0.0121862
0.00982247
0.00825851
0.00720979
0.00651333
0.00607551
0.005843
0.00578423
0.00587216
0.00609912
0.00641171
5.19808
3.62304
2.36038
1.47005
0.87357
0.500042
0.280347
0.157678
0.0911801
0.0552601
0.0354873
0.0242322
0.0175665
0.0134623
0.0108517
0.00915597
0.00805313
0.00736088
0.00697557
0.00683758
0.00690041
0.00713227
0.00750919
0.00793599
5.08902
3.60132
2.37255
1.50225
0.914189
0.537518
0.309014
0.177076
0.103418
0.0627889
0.040171
0.0272587
0.0196358
0.014978
0.0120496
0.0101807
0.00900012
0.00829923
0.00795994
0.0079143
0.00808967
0.00847681
0.00901082
0.00957125
5.05876
3.63855
2.42115
1.55453
0.965991
0.582438
0.343344
0.200768
0.118689
0.072322
0.0461305
0.0310927
0.0222263
0.0168423
0.0134918
0.0113855
0.0100866
0.00935043
0.00903987
0.00906954
0.00935743
0.00990197
0.0106086
0.0113297
5.09132
3.7438
2.51708
1.63464
1.03381
0.637713
0.385236
0.230151
0.13806
0.0846407
0.0539087
0.0361005
0.0255847
0.0192248
0.0152979
0.0128563
0.0113748
0.0105589
0.0102462
0.0103241
0.0107143
0.0114125
0.012307
0.0132207
5.22489
3.93713
2.67614
1.75449
1.12545
0.708118
0.437719
0.267338
0.163103
0.100906
0.0643298
0.0428491
0.0300982
0.0223938
0.0176591
0.0147339
0.0129709
0.0120057
0.0116397
0.0117316
0.0121907
0.01303
0.0141204
0.0152604
5.4799
4.23167
2.91548
1.93035
1.25301
0.801566
0.505838
0.315725
0.196259
0.122909
0.0786819
0.0522401
0.036391
0.0267864
0.0208901
0.0172533
0.0150568
0.0138354
0.0133362
0.0133933
0.0138623
0.0148101
0.0160888
0.0174862
5.8798
4.61947
3.24075
2.17709
1.43218
0.930291
0.598028
0.381011
0.241518
0.153534
0.0990523
0.0657587
0.0455077
0.0331414
0.0255265
0.0208175
0.0179487
0.0163051
0.0155486
0.0154968
0.0158992
0.0168701
0.0183086
0.0199867
6.43257
5.05111
3.62817
2.49395
1.67482
1.10899
0.726949
0.472704
0.305734
0.197726
0.129018
0.0859753
0.059281
0.0427694
0.0325244
0.0261479
0.0222145
0.0198824
0.0186785
0.0183592
0.0186272
0.0194845
0.0210002
0.0229604
7.00202
5.40113
4.0009
2.84685
1.97504
1.34646
0.90631
0.604159
0.39995
0.264002
0.174951
0.117572
0.08111
0.0581356
0.0436951
0.0346141
0.0289314
0.0254541
0.0234791
0.0226336
0.0226554
0.0232321
0.0246266
0.0268344
7.02539
5.33501
4.1862
3.15095
2.29538
1.63382
1.14286
0.788833
0.539
0.365862
0.247988
0.169228
0.117554
0.0841362
0.0627021
0.0490082
0.0402991
0.03483
0.0315067
0.0297093
0.0291209
0.029346
0.0303048
0.0325163
1.88071
2.12632
2.48987
2.52119
2.31702
2.52294
0.845273
0.90239
1.09631
1.18781
1.21058
1.37475
0.227478
0.669351
0.837025
0.918074
0.969708
1.09258
0.25043
0.617025
0.756731
0.83034
0.88997
0.991557
0.267259
0.618515
0.732657
0.800326
0.863306
0.953285
0.277413
0.650148
0.731414
0.793792
0.857782
0.941096
1.18736
0.706563
0.741557
0.798424
0.86222
0.940119
1.25763
0.745949
0.755983
0.808612
0.871632
0.944726
1.33976
0.773692
0.770885
0.821563
0.883502
0.952075
1.4101
0.792779
0.785087
0.835986
0.89697
0.961412
1.46422
0.805881
0.798664
0.851491
0.912221
0.973395
1.50172
0.815248
0.812034
0.868421
0.930165
0.989642
1.51737
0.821373
0.82571
0.887584
0.95224
1.01251
1.50969
0.824489
0.840348
0.910047
0.980306
1.045
1.47761
0.824736
0.856707
0.937102
1.01662
1.09078
1.42216
0.822211
0.875683
0.970301
1.06395
1.15438
1.34588
0.817224
0.898443
1.01159
1.12575
1.2415
1.25268
0.810218
0.926676
1.06366
1.20675
1.35983
1.18702
0.802134
0.963203
1.13069
1.31399
1.52058
0.27149
0.796009
1.01348
1.22022
1.45957
1.74217
0.254836
0.816877
1.08974
1.34843
1.668
2.06043
0.230968
0.884042
1.22487
1.5584
2.0005
2.56202
0.852406
1.09626
1.54921
2.01081
2.66257
3.52191
1.84618
2.15417
3.02753
3.81867
4.72257
6.20772
4.44476
4.54719
4.03781
3.28502
2.56629
1.93899
1.42977
1.03465
0.737956
0.520916
0.365667
0.256681
0.181603
0.130951
0.0974545
0.0757278
0.0616074
0.0524668
0.0466198
0.043007
0.0410412
0.040415
0.0407604
0.0423035
2.44931
3.31828
3.45701
3.19366
2.72163
2.22254
1.758
1.35584
1.02413
0.760612
0.557746
0.408019
0.300866
0.224914
0.171812
0.135017
0.109826
0.092669
0.0810232
0.0731253
0.0678505
0.0645268
0.0627936
0.0629292
1.58671
2.32963
2.75462
2.84701
2.71749
2.4423
2.11316
1.77907
1.46474
1.18159
0.935358
0.733556
0.576199
0.455178
0.363723
0.295589
0.245216
0.207991
0.180354
0.159675
0.144075
0.132047
0.123018
0.115815
1.26749
1.75639
2.18408
2.44984
2.55367
2.51612
2.40801
2.2305
2.03085
1.82255
1.61545
1.41356
1.22243
1.05135
0.905376
0.785141
0.685846
0.602457
0.531684
0.47116
0.419792
0.374092
0.339113
0.297282
1.14083
1.47047
1.81648
2.1107
2.32248
2.451
2.50597
2.5032
2.47529
2.41655
2.33222
2.23715
2.13475
2.0279
1.91717
1.80279
1.68718
1.57142
1.45539
1.33826
1.22293
1.10524
1.00548
0.876292
1.08636
1.32706
1.5985
1.86322
2.09689
2.28988
2.43928
2.55098
2.635
2.69216
2.72762
2.74619
2.74988
2.74122
2.71941
2.67943
2.62095
2.54741
2.45751
2.35261
2.23457
2.10525
1.97517
1.82438
1.06174
1.24942
1.46557
1.6894
1.90551
2.10471
2.28204
2.43763
2.57284
2.68765
2.78266
2.85897
2.91608
2.95248
2.96627
2.96006
2.93696
2.88965
2.81857
2.73193
2.63243
2.52574
2.42025
2.32363
1.05025
1.20254
1.37727
1.56221
1.74773
1.92692
2.09529
2.25053
2.39106
2.51539
2.62238
2.71075
2.77894
2.82557
2.85
2.85262
2.83736
2.80145
2.74553
2.6771
2.59962
2.51785
2.43688
2.36613
1.04497
1.17096
1.31315
1.46355
1.61584
1.76497
1.90702
2.03896
2.15818
2.26234
2.3494
2.41769
2.46602
2.49389
2.50176
2.49203
2.46637
2.42705
2.37899
2.32546
2.26798
2.21089
2.1558
2.10517
1.04379
1.14941
1.26487
1.38537
1.50601
1.62294
1.73273
1.83233
1.91904
1.99058
2.04526
2.08229
2.10194
2.10537
2.09452
2.07137
2.04081
2.00723
1.97427
1.94503
1.92316
1.90706
1.89344
1.87463
1.04748
1.13795
1.2321
1.32718
1.42028
1.50779
1.58681
1.65484
1.70983
1.75044
1.77621
1.78805
1.78815
1.7793
1.76618
1.75472
1.74837
1.74848
1.7553
1.76819
1.78655
1.80913
1.83092
1.84457
1.05831
1.13782
1.21808
1.29593
1.36827
1.43307
1.48837
1.53277
1.56565
1.58727
1.59933
1.60478
1.6071
1.61006
1.61709
1.6297
1.64794
1.67193
1.70071
1.73276
1.76648
1.8008
1.8417
1.89917
1.07974
1.15416
1.22652
1.29469
1.35644
1.40991
1.45398
1.48835
1.51371
1.53171
1.54505
1.55697
1.57075
1.58914
1.61376
1.64495
1.68113
1.71837
1.7517
1.77556
1.78569
1.78218
1.78406
1.84109
1.11628
1.19302
1.26605
1.3339
1.39486
1.4479
1.49281
1.53028
1.562
1.59048
1.61883
1.65015
1.68684
1.7299
1.77816
1.82791
1.87297
1.9045
1.91621
1.89616
1.8336
1.73586
1.62416
1.59905
1.17348
1.26169
1.34547
1.42427
1.4969
1.56303
1.62314
1.6786
1.73148
1.78429
1.83943
1.89844
1.96128
2.02555
2.08626
2.13558
2.16703
2.16104
2.10787
1.99673
1.86273
1.70614
1.52005
1.39252
1.25822
1.36891
1.47496
1.57721
1.6747
1.76745
1.85608
1.94179
2.02599
2.10984
2.19348
2.27534
2.35192
2.41655
2.46377
2.47574
2.43052
2.32633
2.18177
2.01856
1.83113
1.62437
1.40876
1.23351
1.37916
1.525
1.66584
1.80456
1.93967
2.0706
2.19698
2.31852
2.43451
2.5432
2.64173
2.72409
2.78646
2.81238
2.77063
2.67207
2.52629
2.35433
2.15296
1.92023
1.671
1.4251
1.1953
1.01452
1.54736
1.74175
1.92956
2.11664
2.29921
2.47435
2.63895
2.78978
2.92307
3.03275
3.11568
3.1568
3.11705
3.02038
2.87483
2.69525
2.47639
2.21844
1.93523
1.64546
1.36901
1.12416
0.918323
0.776891
1.777
2.03123
2.27502
2.51804
2.75073
2.96518
3.15371
3.30922
3.42714
3.49283
3.4613
3.36859
3.22019
3.03009
2.78939
2.50279
2.18478
1.8546
1.53302
1.24019
0.991447
0.795334
0.649264
0.569527
2.08568
2.40278
2.70379
3.00109
3.2734
3.50501
3.68341
3.7955
3.80134
3.71654
3.56667
3.36328
3.09565
2.77511
2.41829
2.04609
1.68098
1.34536
1.05734
0.826554
0.653498
0.532102
0.452224
0.420206
2.49381
2.85708
3.20346
3.53849
3.82059
4.02518
4.11825
4.06433
3.93
3.71302
3.41806
3.05877
2.65714
2.2384
1.82791
1.44978
1.12496
0.864783
0.668847
0.528992
0.433585
0.370666
0.330999
0.320615
3.02196
3.37772
3.74159
4.07933
4.3181
4.39146
4.29725
4.10381
3.79624
3.39786
2.94407
2.46947
2.00614
1.58067
1.21539
0.923707
0.704947
0.548134
0.438745
0.362728
0.309497
0.272549
0.249885
0.247245
3.68507
3.92462
4.26562
4.55349
4.63756
4.52062
4.26214
3.84627
3.34143
2.79904
2.26564
1.77794
1.35958
1.02525
0.775006
0.595412
0.468516
0.378092
0.311564
0.261615
0.225129
0.200462
0.187778
0.188693
4.47631
4.43989
4.71323
4.86006
4.74257
4.43343
3.91339
3.30321
2.67896
2.09962
1.60224
1.20208
0.900398
0.683213
0.528577
0.416852
0.333779
0.270024
0.220981
0.184919
0.160413
0.145842
0.140695
0.14346
)
;

boundaryField
{
    rotor
    {
        type            epsilonWallFunction;
        value           nonuniform List<scalar> 
144
(
2.08294
3.29869
6.12388
7.64295
7.43196
6.21057
2.08294
0.889741
0.245815
0.270329
1.2287
1.4172
1.57444
1.69765
1.78607
1.83964
1.85735
1.84816
1.81007
1.75379
1.67795
1.58169
1.46234
1.30006
1.1915
0.268983
0.25226
0.230595
0.86801
2.13171
2.13171
2.00828
1.91111
1.90438
2.55314
6.15957
3.16354
8.57783
11.2942
12.1948
46.7904
49.0354
3.16354
1.15591
1.70963
2.3659
2.97284
3.51395
3.98022
4.36702
4.67224
4.89545
5.03807
5.10509
5.10059
5.01824
4.85622
4.61337
4.28935
3.88482
3.40258
2.84943
2.23929
1.59749
1.09897
2.73486
2.73486
7.10215
9.47691
10.7217
10.6807
51.7212
4.03933
3.00942
2.12163
1.72071
1.99837
5.2723
4.03933
1.29054
1.77474
2.21421
2.55915
2.84566
3.09324
3.30895
3.49493
3.65179
3.78011
3.88107
3.95702
3.97571
3.94665
3.85257
3.69387
3.46462
3.1584
2.76801
2.28573
1.70447
1.15717
4.12404
4.12404
9.75781
13.0876
11.6769
9.31527
26.5378
1.88071
2.12632
2.48987
2.52119
2.31702
2.52294
1.88071
0.845273
0.227478
0.25043
0.267259
0.277413
1.18736
1.25763
1.33976
1.4101
1.46422
1.50172
1.51737
1.50969
1.47761
1.42216
1.34588
1.25268
1.18702
0.27149
0.254836
0.230968
0.852406
1.84618
1.84618
2.15417
3.02753
3.81867
4.72257
6.20772
)
;
    }
    freestream
    {
        type            inletOutlet;
        inletValue      uniform 0.000375;
        value           nonuniform List<scalar> 
96
(
0.110006
0.0850609
0.0659941
0.0511561
0.0394335
0.0300389
0.0224554
0.0163036
0.0113049
0.00724947
0.00386774
0.000375
0.000375
0.000375
0.000375
0.000375
0.000375
0.000375
0.000375
0.000375
0.000375
0.000375
0.000375
0.000375
0.000375
0.000375
0.000375
0.000375
0.000375
0.000375
0.000375
0.000375
0.000375
0.000375
0.000375
0.000375
0.000375
0.000375
0.000375
0.000375
0.000375
0.000375
0.000375
0.000375
0.000375
0.000375
0.000375
0.000375
0.000375
0.000375
0.000375
0.000375
0.000375
0.000375
0.000375
0.000375
0.000375
0.000375
0.00226747
0.00358963
0.00497399
0.00641171
0.00793599
0.00957125
0.0113297
0.0132207
0.0152604
0.0174862
0.0199867
0.0229604
0.0268344
0.0325163
0.0423035
0.0629292
0.115815
0.297282
0.876292
1.82438
2.32363
2.36613
2.10517
1.87463
1.84457
1.89917
1.84109
1.59905
1.39252
1.23351
1.01452
0.776891
0.569527
0.420206
0.320615
0.247245
0.188693
0.14346
)
;
    }
    frontAndBack
    {
        type            empty;
    }
}


// ************************************************************************* //
