/*--------------------------------*- C++ -*----------------------------------*\
  =========                 |
  \\      /  F ield         | OpenFOAM: The Open Source CFD Toolbox
   \\    /   O peration     | Website:  https://openfoam.org
    \\  /    A nd           | Version:  11
     \\/     M anipulation  |
\*---------------------------------------------------------------------------*/
FoamFile
{
    format      ascii;
    class       surfaceVectorField;
    location    "1.64";
    object      Uf;
}
// * * * * * * * * * * * * * * * * * * * * * * * * * * * * * * * * * * * * * //

dimensions      [0 1 -1 0 0 0 0];

internalField   nonuniform List<vector> 
5640
(
(-0.106103 -0.0428906 -4.91347e-21)
(-0.0882839 -0.0219987 -9.88428e-21)
(-0.198852 -0.123628 3.97913e-21)
(-0.185359 -0.0977131 -1.15163e-19)
(-0.241838 -0.169984 0)
(-0.244769 -0.158366 -8.75185e-20)
(-0.22734 -0.160423 -3.14106e-20)
(-0.240951 -0.16542 6.74097e-20)
(-0.160106 -0.0975836 -3.86946e-20)
(-0.194663 -0.136407 -3.23167e-20)
(-0.0590813 -0.0186765 -2.87522e-20)
(0.0230085 -0.016279 -5.02113e-20)
(-0.159029 -0.0650763 -1.19243e-19)
(-0.1253 -0.0365606 -8.45047e-21)
(-0.22961 -0.130888 -2.06725e-19)
(-0.215741 -0.10498 1.07373e-19)
(-0.239384 -0.154919 -2.56021e-20)
(-0.243651 -0.144799 -8.34931e-20)
(-0.198038 -0.144005 6.92996e-20)
(-0.214287 -0.147853 -4.9515e-20)
(-0.1046 -0.0961434 -2.24598e-20)
(-0.137226 -0.12306 -8.96762e-21)
(0.00229697 -0.0516002 -1.45549e-20)
(0.0690314 -0.0395645 -2.68355e-20)
(-0.179365 -0.0638784 1.99805e-19)
(-0.152724 -0.0402861 -3.80528e-21)
(-0.23239 -0.117727 2.27379e-19)
(-0.22751 -0.0938482 1.11164e-19)
(-0.2208 -0.136579 -1.10535e-19)
(-0.236147 -0.127693 7.93223e-20)
(-0.155943 -0.126638 -1.26178e-19)
(-0.185048 -0.128651 -5.16429e-20)
(-0.0428049 -0.0932131 8.06229e-21)
(-0.0857738 -0.108777 4.00996e-20)
(0.0616225 -0.0644675 3.77372e-20)
(0.125765 -0.0540042 4.66577e-20)
(-0.194325 -0.0630515 -1.00321e-19)
(-0.17765 -0.0436285 4.34095e-21)
(-0.232317 -0.104306 -3.4627e-20)
(-0.235898 -0.0849574 -1.25417e-20)
(-0.202244 -0.119373 1.41475e-19)
(-0.22737 -0.11202 7.86971e-20)
(-0.117994 -0.111233 1.11513e-19)
(-0.157896 -0.111743 1.08476e-20)
(0.0110287 -0.0864965 7.35164e-20)
(-0.0409949 -0.0960261 -9.53801e-22)
(0.117484 -0.0652682 6.52643e-20)
(0.182784 -0.0570339 -3.72541e-20)
(-0.210432 -0.0623264 9.37682e-20)
(-0.199399 -0.0442028 6.71336e-21)
(-0.23133 -0.0931074 9.7918e-20)
(-0.241382 -0.0781869 1.95167e-21)
(-0.18492 -0.104036 -4.96381e-20)
(-0.218079 -0.0977637 0)
(-0.0843127 -0.0971822 -1.01056e-19)
(-0.133394 -0.0966453 5.28189e-21)
(0.0597069 -0.0776498 -1.46799e-20)
(-0.00140142 -0.0835855 -4.94432e-20)
(0.170152 -0.0588773 -1.03185e-21)
(0.240924 -0.051754 9.75554e-20)
(-0.226905 -0.0570821 -8.49532e-20)
(-0.217476 -0.0413968 7.96893e-20)
(-0.228992 -0.0826805 -9.6767e-20)
(-0.2444 -0.0713321 -9.28173e-20)
(-0.16897 -0.0898561 5.49249e-20)
(-0.208862 -0.0843554 3.17776e-20)
(-0.0542865 -0.0836411 5.84391e-20)
(-0.111709 -0.082652 6.05573e-20)
(0.104189 -0.0662907 -3.56958e-20)
(0.0339467 -0.0706804 0)
(0.219966 -0.0475778 -3.65725e-20)
(0.29862 -0.039919 -6.11256e-20)
(-0.235695 -0.052688 8.17775e-20)
(-0.232987 -0.0384153 -7.81442e-20)
(-0.225749 -0.0726171 3.04253e-20)
(-0.245799 -0.0641365 -4.57385e-20)
(-0.154616 -0.0765614 3.61588e-20)
(-0.200389 -0.0716807 2.81141e-20)
(-0.0276488 -0.0702099 3.81608e-21)
(-0.0929816 -0.0693294 3.81102e-21)
(0.145039 -0.0527378 0)
(0.0653952 -0.0571169 3.22293e-21)
(0.266694 -0.0328815 -2.56098e-20)
(0.354718 -0.0233216 -1.89223e-20)
(-0.242881 -0.0479902 -2.0623e-19)
(-0.245911 -0.0355439 -7.62513e-20)
(-0.222332 -0.0627905 -5.12278e-20)
(-0.246232 -0.056787 -2.34305e-20)
(-0.142218 -0.0638763 -3.99512e-21)
(-0.193116 -0.0595689 -3.96867e-20)
(-0.00445486 -0.0567455 3.29493e-21)
(-0.0774035 -0.0564566 9.90176e-23)
(0.182204 -0.0376043 -2.16957e-20)
(0.0928509 -0.0430008 1.62323e-20)
(0.309773 -0.0159627 -4.62263e-21)
(0.408031 -0.00342113 -7.62226e-21)
(-0.249002 -0.0432239 1.04028e-19)
(-0.256229 -0.0331187 7.84716e-20)
(-0.219211 -0.0531079 -1.1204e-20)
(-0.246116 -0.0491692 4.49867e-20)
(-0.132106 -0.0516216 -3.72191e-20)
(-0.187389 -0.0478501 -3.60028e-20)
(0.0150666 -0.0432805 1.26447e-20)
(-0.0652203 -0.0439483 -1.91488e-21)
(0.215277 -0.0214133 3.37706e-20)
(0.115991 -0.0285947 1.63114e-21)
(0.348437 0.00221673 2.09516e-20)
(0.457348 0.0186073 2.44333e-20)
(-0.25372 -0.0386399 2.1375e-20)
(-0.263862 -0.0312722 0)
(-0.216723 -0.0433679 2.36489e-20)
(-0.245732 -0.0411571 2.26837e-20)
(-0.124583 -0.0396851 -1.85019e-21)
(-0.183515 -0.0363718 -4.69777e-21)
(0.0305733 -0.0299497 -1.29658e-20)
(-0.0567245 -0.0318078 -1.91488e-21)
(0.243648 -0.00471938 -1.16394e-20)
(0.134349 -0.01422 -8.00148e-21)
(0.381856 0.0208271 0)
(0.501563 0.0417777 -9.79756e-22)
(-0.256854 -0.0340839 0)
(-0.268684 -0.0297107 6.40142e-22)
(-0.215141 -0.0335258 -4.49786e-21)
(-0.245325 -0.0327601 -3.65674e-22)
(-0.119943 -0.0280104 -4.85647e-21)
(-0.181736 -0.0250145 1.51803e-23)
(0.0416545 -0.0169436 3.27107e-21)
(-0.0522335 -0.0200907 0)
(0.266639 0.0118714 3.4461e-21)
(0.147353 -0.000201621 -2.35981e-23)
(0.409248 0.0391411 -9.9108e-21)
(0.539777 0.065285 0)
(-0.258455 -0.0293419 2.80724e-22)
(-0.270615 -0.0280881 6.40142e-22)
(-0.214665 -0.0235639 4.12851e-21)
(-0.245069 -0.0239842 -4.75871e-20)
(-0.11845 -0.0165887 4.86931e-21)
(-0.182234 -0.0136921 4.3374e-20)
(0.0478578 -0.00445095 -3.29103e-21)
(-0.0520515 -0.00887183 4.01612e-21)
(0.283571 0.0278653 -1.31403e-20)
(0.154385 0.0131631 -6.94596e-21)
(0.429904 0.0565074 -2.11013e-20)
(0.571302 0.0885156 -1.36613e-20)
(-0.258595 -0.0242522 -4.44971e-20)
(-0.269652 -0.0259763 0)
(-0.215439 -0.013369 -1.22123e-20)
(-0.245031 -0.0148478 3.73445e-21)
(-0.12033 -0.00538028 4.38505e-20)
(-0.185125 -0.00235763 -3.71693e-20)
(0.048688 0.00747511 4.49407e-22)
(-0.0564076 0.00179654 -3.4177e-20)
(0.293833 0.0427132 -1.46063e-20)
(0.154714 0.0255777 -3.55999e-21)
(0.443259 0.0723105 1.11477e-20)
(0.595658 0.111026 -1.30964e-20)
(-0.257267 -0.0187709 4.80285e-20)
(-0.265903 -0.0229252 8.45225e-20)
(-0.217517 -0.00294002 -1.90178e-20)
(-0.245172 -0.00536974 4.78415e-20)
(-0.125767 0.00560402 -1.14819e-19)
(-0.190423 0.00899678 -3.35379e-20)
(0.0437621 0.0182238 -3.9264e-20)
(-0.0656413 0.0118638 -3.81711e-21)
(0.296937 0.0558946 2.20055e-20)
(0.147718 0.0367522 0)
(0.449042 0.0860652 1.78267e-20)
(0.612424 0.132797 2.62927e-20)
(-0.254559 -0.0124476 8.64517e-20)
(-0.259531 -0.0184234 1.69264e-19)
(-0.220837 0.00766362 3.66499e-20)
(-0.245439 0.00441386 9.29423e-20)
(-0.134833 0.0162927 7.67744e-20)
(-0.198011 0.0203296 4.7312e-20)
(0.0326766 0.0281224 3.52796e-20)
(-0.0797885 0.021313 1.09176e-19)
(0.291979 0.0681306 -4.60616e-21)
(0.13307 0.0466519 4.91754e-20)
(0.446201 0.0972871 -4.7193e-21)
(0.62119 0.152998 -6.48745e-22)
(-0.250646 -0.00509193 1.79506e-19)
(-0.250933 -0.0116132 -9.40491e-20)
(-0.225277 0.0184115 1.05061e-19)
(-0.245706 0.014434 -2.70227e-21)
(-0.147431 0.0266636 7.82559e-20)
(-0.207605 0.0315396 5.12111e-21)
(0.0151988 0.0370771 1.23133e-19)
(-0.0987306 0.0301543 3.00131e-21)
(0.27839 0.0781481 5.03543e-20)
(0.109933 0.0554795 -8.12212e-21)
(0.433499 0.105366 4.65751e-20)
(0.621854 0.170289 1.52844e-20)
(-0.246648 0.00347912 -2.75653e-19)
(-0.24176 0.000840171 -1.73846e-19)
(-0.230683 0.0291878 -1.02586e-19)
(-0.245758 0.0243331 4.46067e-21)
(-0.163252 0.0366639 -6.93287e-20)
(-0.218706 0.042441 1.08023e-20)
(-0.00891196 0.0452078 -1.29323e-19)
(-0.122039 0.0384583 -6.12739e-21)
(0.255227 0.0860549 -1.3073e-20)
(0.0775021 0.0637168 -1.15756e-19)
(0.410228 0.109683 -4.18564e-20)
(0.613586 0.185943 3.95938e-20)
(-0.241045 0.0167916 9.69254e-20)
(-0.230484 0.0153045 0)
(-0.236599 0.0396031 1.17579e-19)
(-0.245178 0.0323774 -1.75927e-21)
(-0.181701 0.0462126 7.64004e-20)
(-0.230524 0.052814 -7.7577e-20)
(-0.0397272 0.0527209 1.05138e-20)
(-0.148853 0.0463748 -1.06019e-20)
(0.221583 0.0917063 -1.44854e-19)
(0.0349367 0.0719774 -1.25855e-20)
(0.375235 0.109356 2.96844e-20)
(0.595905 0.199146 -1.38395e-19)
(-0.231271 0.0270758 -9.86697e-20)
(-0.213299 0.023255 2.10758e-21)
(-0.24166 0.0483852 -1.93785e-19)
(-0.241969 0.0375356 -1.08133e-19)
(-0.201626 0.0553649 -1.64887e-19)
(-0.241902 0.0628641 1.66182e-21)
(-0.0770273 0.0599151 -3.47514e-20)
(-0.177769 0.054184 -8.55475e-20)
(0.1769 0.0942094 1.51375e-19)
(-0.0187865 0.0806666 3.71631e-20)
(0.327467 0.103647 1.42834e-19)
(0.567918 0.20955 1.52969e-19)
(-0.218221 0.0302747 -2.60779e-21)
(-0.191182 0.0260332 -1.29044e-19)
(-0.244531 0.0556943 8.33147e-20)
(-0.234664 0.0412321 -6.96485e-21)
(-0.221625 0.064524 8.46739e-20)
(-0.251737 0.0732039 9.07439e-20)
(-0.119932 0.0674073 -1.0808e-20)
(-0.206771 0.0622645 -8.40305e-20)
(0.117904 0.0972805 6.03392e-21)
(-0.0823455 0.0909864 -8.33986e-20)
(0.264284 0.0909629 -1.0227e-19)
(0.527865 0.217478 1.90309e-21)
(-0.201335 0.0325852 -1.43862e-19)
(-0.166885 0.0280191 2.67878e-20)
(-0.244395 0.0629106 -3.69347e-21)
(-0.222924 0.044823 9.52885e-20)
(-0.240202 0.0742587 -7.20561e-20)
(-0.259059 0.0842515 1.19151e-19)
(-0.166103 0.0757643 -1.5944e-19)
(-0.233464 0.0709759 1.32235e-21)
(0.0442879 0.10018 -2.06123e-19)
(-0.153488 0.104021 -7.77121e-20)
(0.184873 0.0695051 -5.98485e-20)
(0.473469 0.224396 -1.53501e-19)
(-0.182382 0.0344273 2.5297e-19)
(-0.140485 0.0290616 3.02925e-19)
(-0.240899 0.0701759 2.13054e-19)
(-0.205432 0.0478274 -2.01307e-20)
(-0.255839 0.0849166 2.01582e-19)
(-0.262155 0.0954744 9.70135e-21)
(-0.212707 0.08534 7.51964e-20)
(-0.254711 0.080118 1.72633e-19)
(-0.0430926 0.100108 6.61211e-20)
(-0.229849 0.121157 7.57391e-20)
(0.09567 0.0343385 1.81856e-19)
(0.401577 0.23231 8.39216e-20)
(-0.158617 0.0337093 5.41543e-20)
(-0.100762 0.0174226 -2.53541e-20)
(-0.232042 0.0764506 -2.20311e-19)
(-0.169908 0.0399602 -2.39567e-19)
(-0.266366 0.094343 -1.73106e-20)
(-0.251023 0.0984352 -1.06177e-19)
(-0.257141 0.0959042 1.72063e-19)
(-0.25671 0.0807431 3.52278e-20)
(-0.142486 0.091032 1.84896e-19)
(-0.31619 0.149731 -3.60055e-20)
(0.00461559 -0.0153765 -1.06938e-19)
(0.307861 0.23576 1.28156e-19)
(-0.102662 0.0163718 -3.02128e-19)
(-0.194291 0.0676244 -1.31109e-19)
(-0.243449 0.0932035 -7.25093e-20)
(-0.277065 0.113381 -2.55213e-19)
(-0.234334 0.120745 -3.55195e-19)
(0.208478 0.256785 -3.97629e-19)
(0.215728 -0.0527886 -6.42338e-20)
(0.175763 -0.0412397 -3.9483e-20)
(0.117178 -0.0556377 -1.31075e-20)
(0.370479 -0.0396913 -4.14173e-20)
(0.328409 -0.0486845 -2.36071e-21)
(0.256209 -0.0570977 -5.22968e-20)
(0.530512 -0.0117643 -2.74332e-20)
(0.499768 -0.0192152 -1.68709e-20)
(0.405036 -0.0326292 6.75118e-21)
(0.689426 0.0209576 -1.06174e-20)
(0.669064 0.015717 -1.40742e-20)
(0.557819 -0.00329728 -1.93943e-21)
(0.838884 0.0533369 -3.29715e-21)
(0.827351 0.051314 1.70094e-21)
(0.707898 0.0279824 -4.14488e-21)
(0.973689 0.081749 -4.0419e-21)
(0.968143 0.082987 -2.89667e-21)
(0.848828 0.0575313 5.00765e-22)
(1.0911 0.103813 -1.16968e-21)
(1.08872 0.107889 -1.15284e-21)
(0.976981 0.0826357 1.53522e-21)
(1.18956 0.118234 6.17122e-22)
(1.18801 0.124526 3.39606e-21)
(1.0902 0.101499 4.28856e-22)
(1.26862 0.124688 -6.73922e-22)
(1.26615 0.132576 -8.90213e-22)
(1.18684 0.113087 1.00159e-21)
(1.32873 0.123881 -2.59156e-21)
(1.32494 0.133023 4.00351e-21)
(1.26623 0.117202 -6.79792e-22)
(1.36959 0.116876 -1.32185e-21)
(1.36476 0.127043 -1.12327e-21)
(1.32847 0.114614 -1.92476e-21)
(1.39479 0.105201 -2.17988e-22)
(1.38862 0.11613 7.02983e-21)
(1.372 0.106327 1.79223e-21)
(1.4101 0.0908823 6.88603e-21)
(1.40279 0.102536 -8.83322e-21)
(1.39874 0.0935439 1.90499e-23)
(1.41691 0.0753439 1.6088e-20)
(1.40909 0.0873469 7.70095e-21)
(1.41525 0.0784636 7.5075e-21)
(1.41541 0.0589332 -4.92729e-21)
(1.40738 0.0712791 -1.2732e-20)
(1.42339 0.0616066 5.69215e-21)
(1.40728 0.0427596 -2.71453e-21)
(1.39951 0.0552332 -9.44996e-21)
(1.42314 0.0449671 -1.17901e-20)
(1.39401 0.0278607 8.59435e-21)
(1.38705 0.040147 2.69737e-20)
(1.41522 0.0286849 -2.70183e-22)
(1.37671 0.014878 -4.0326e-21)
(1.37091 0.0266813 -3.23228e-20)
(1.40154 0.0138618 4.67843e-21)
(1.3561 0.00428253 0)
(1.3517 0.0153515 -6.5636e-22)
(1.38329 0.00121044 0)
(1.33245 -0.00348989 0)
(1.3297 0.00649932 -5.1833e-22)
(1.36137 -0.00876675 -1.5655e-20)
(1.30531 -0.00789701 0)
(1.30444 0.000379713 1.34478e-20)
(1.33594 -0.0157989 1.48577e-20)
(1.27333 -0.00787153 -2.41413e-20)
(1.27548 -0.00184259 0)
(1.30678 -0.0188092 -1.49526e-20)
(1.23342 -0.00100598 -1.12333e-19)
(1.243 0.00412181 -2.42859e-20)
(1.27422 -0.0137313 1.25035e-20)
(1.20404 0.0225353 2.39455e-20)
(1.23555 0.00528624 9.23789e-21)
(0.277863 -0.0497845 2.37902e-20)
(0.225891 -0.0474458 3.78635e-20)
(0.455577 -0.0277097 2.4885e-20)
(0.405126 -0.0386687 -1.50782e-21)
(0.635086 0.00705623 -3.56389e-21)
(0.598684 -0.000752233 -3.21333e-21)
(0.804435 0.0453047 -1.86038e-21)
(0.780398 0.0408215 2.57218e-21)
(0.954698 0.0804983 1.81087e-21)
(0.940024 0.0798411 -4.65529e-21)
(1.08181 0.108911 -3.18862e-23)
(1.073 0.111536 9.18382e-22)
(1.18467 0.12855 2.66359e-21)
(1.17878 0.133735 9.09601e-22)
(1.26397 0.138995 -5.32947e-22)
(1.25887 0.145982 -3.03407e-21)
(1.32191 0.141105 2.57201e-21)
(1.3165 0.149292 -3.5537e-21)
(1.36031 0.136289 5.52527e-21)
(1.3548 0.145604 5.53556e-21)
(1.38347 0.126318 6.41556e-21)
(1.37714 0.136352 -5.54166e-21)
(1.39683 0.11356 1.59142e-22)
(1.38964 0.123969 -1.47654e-21)
(1.40181 0.0991157 -5.81548e-21)
(1.39437 0.109914 8.87773e-21)
(1.39939 0.0834036 -2.09487e-20)
(1.39179 0.094492 -7.97065e-21)
(1.39146 0.0676055 -1.6687e-20)
(1.38411 0.078846 -1.3256e-20)
(1.37942 0.0525867 1.93615e-20)
(1.37272 0.0637792 1.30828e-20)
(1.36414 0.0389597 -1.34578e-20)
(1.35837 0.0498692 3.28913e-20)
(1.34611 0.0272003 -2.90542e-20)
(1.34148 0.0375742 -4.5709e-20)
(1.32552 0.0176844 -7.93302e-22)
(1.32226 0.027311 1.7044e-20)
(1.30213 0.010794 1.46969e-20)
(1.30054 0.0193078 -1.72552e-20)
(1.27521 0.00705404 1.35308e-20)
(1.27558 0.0137955 1.34478e-20)
(1.24336 0.00741077 0)
(1.24686 0.0120057 0)
(1.20381 0.013833 0)
(1.21456 0.0183473 0)
(1.17573 0.0357432 0)
(0.344047 -0.0460432 1.35094e-20)
(0.280957 -0.0502972 -5.31257e-20)
(0.545588 -0.0114247 -2.95704e-20)
(0.488507 -0.0238465 3.1165e-20)
(0.740623 0.0317528 3.22456e-21)
(0.699836 0.0236312 7.66191e-21)
(0.913465 0.0745719 4.70716e-23)
(0.886826 0.0710187 1.41442e-20)
(1.05657 0.110462 -5.40294e-21)
(1.03981 0.111043 -1.28452e-21)
(1.1688 0.13622 2.46735e-21)
(1.15798 0.140066 2.26164e-21)
(1.25219 0.151193 -4.67307e-21)
(1.24439 0.157345 2.97557e-22)
(1.31081 0.156445 -6.89616e-21)
(1.30418 0.164123 -5.6724e-21)
(1.34886 0.153897 -1.24649e-21)
(1.3429 0.162717 -1.51718e-21)
(1.3714 0.1456 -4.85308e-21)
(1.36524 0.155177 1.01117e-20)
(1.38347 0.13414 -1.15908e-20)
(1.37677 0.143918 -5.46045e-21)
(1.38719 0.120488 8.76505e-21)
(1.38037 0.130629 -6.13698e-21)
(1.38424 0.105369 7.47068e-21)
(1.37737 0.115734 3.54423e-21)
(1.37658 0.0899793 -5.59368e-22)
(1.36991 0.100451 -1.9791e-20)
(1.36552 0.0750417 1.53457e-20)
(1.35929 0.0854978 7.54065e-21)
(1.35183 0.0610844 2.61241e-20)
(1.34626 0.071367 7.80713e-21)
(1.33588 0.048539 1.19988e-21)
(1.33121 0.0584537 1.83972e-20)
(1.31782 0.0377586 6.55887e-23)
(1.31425 0.0470892 -3.88879e-20)
(1.2975 0.0290553 8.22816e-22)
(1.29533 0.0376062 3.79974e-20)
(1.27443 0.0227687 -1.68442e-20)
(1.27396 0.0301763 3.38746e-21)
(1.2478 0.0193805 0)
(1.24937 0.0249856 -1.90856e-20)
(1.21623 0.0196955 0)
(1.22095 0.0233102 0)
(1.1773 0.0252862 0)
(1.18894 0.0295985 0)
(1.15058 0.0457182 -1.00879e-20)
(0.417124 -0.0352367 -3.62701e-20)
(0.342578 -0.044305 -2.55906e-20)
(0.639105 0.0109769 7.12297e-20)
(0.576214 -0.0021465 2.62301e-20)
(0.842661 0.0617699 1.88704e-20)
(0.799061 0.0536835 6.50448e-22)
(1.01079 0.106733 1.36082e-20)
(0.982969 0.104313 -1.85895e-21)
(1.1397 0.14034 6.8919e-21)
(1.12223 0.142315 3.33828e-21)
(1.23262 0.161117 -3.54792e-22)
(1.22124 0.166262 3.33755e-21)
(1.29577 0.170336 -1.12272e-21)
(1.28756 0.177536 -6.46816e-21)
(1.33587 0.170443 0)
(1.32922 0.178957 9.09314e-21)
(1.3591 0.163994 9.46052e-21)
(1.35301 0.173381 -4.23154e-21)
(1.37064 0.15361 9.66676e-21)
(1.36448 0.16315 -1.78554e-20)
(1.37369 0.140598 0)
(1.36758 0.150409 1.09041e-20)
(1.37054 0.12597 -1.14475e-20)
(1.36445 0.135933 -1.95754e-20)
(1.36314 0.110888 -2.33727e-20)
(1.3572 0.120904 1.91015e-20)
(1.35276 0.0960322 -1.19189e-20)
(1.34711 0.106017 -6.87406e-21)
(1.34018 0.0818782 0)
(1.33499 0.0917346 -6.94481e-21)
(1.3258 0.0687928 0)
(1.32126 0.0783912 3.29036e-20)
(1.30975 0.0570824 -2.13411e-20)
(1.30608 0.0662588 -1.78471e-20)
(1.29193 0.0470141 -1.38838e-21)
(1.28935 0.055583 -3.9692e-20)
(1.27199 0.0388498 4.04225e-20)
(1.27081 0.0466263 4.99926e-20)
(1.24931 0.032894 -7.23185e-22)
(1.24984 0.0395186 2.01243e-20)
(1.22302 0.0295671 -1.92035e-20)
(1.22562 0.0343874 -1.90856e-20)
(1.19186 0.0295298 0)
(1.19758 0.0325376 5.87293e-21)
(1.15377 0.034002 -1.00299e-20)
(1.16599 0.0384369 0)
(1.12836 0.053145 -6.53399e-21)
(0.494062 -0.0167222 3.51952e-20)
(0.408448 -0.0303107 4.34397e-20)
(0.731817 0.0396337 -4.40102e-20)
(0.664331 0.0259736 -3.26429e-20)
(0.936118 0.0952283 -2.11668e-20)
(0.891421 0.087899 -1.0832e-20)
(1.09226 0.139235 -1.32436e-20)
(1.06471 0.138278 -7.03662e-21)
(1.20253 0.168019 -8.36742e-22)
(1.18565 0.171643 -2.51489e-21)
(1.27545 0.182646 -3.40707e-21)
(1.26461 0.189228 -1.62267e-21)
(1.3206 0.186194 3.5478e-21)
(1.31289 0.194511 5.82898e-21)
(1.34616 0.181925 5.00869e-21)
(1.33992 0.191179 8.85796e-23)
(1.35834 0.172616 -3.11991e-20)
(1.35267 0.182248 -4.23154e-21)
(1.36144 0.160146 -1.65868e-20)
(1.35598 0.169969 -2.11813e-20)
(1.35838 0.145883 -8.3721e-21)
(1.35302 0.155768 1.09041e-20)
(1.35123 0.130981 1.04474e-20)
(1.34599 0.140829 -1.28109e-20)
(1.34132 0.116134 3.54461e-20)
(1.33627 0.125885 8.26102e-21)
(1.32949 0.101807 -2.08776e-21)
(1.32476 0.111414 2.61125e-20)
(1.31622 0.0883257 2.56423e-20)
(1.31195 0.0977233 -2.68225e-23)
(1.30169 0.0759362 1.54087e-20)
(1.29804 0.0850234 2.60915e-20)
(1.28583 0.0648514 -3.60396e-20)
(1.28301 0.0734894 4.30385e-21)
(1.26837 0.0552722 1.12163e-20)
(1.26661 0.0632969 -2.39446e-20)
(1.24882 0.0474155 2.98937e-20)
(1.24845 0.0546462 -2.94989e-21)
(1.22653 0.0415479 0)
(1.22788 0.0476358 0)
(1.20064 0.0380254 5.83666e-21)
(1.20409 0.0423344 0)
(1.17004 0.0373786 5.9079e-21)
(1.17653 0.0400531 2.61555e-20)
(1.13297 0.0405276 3.80924e-21)
(1.14547 0.0453113 -1.81197e-20)
(1.10881 0.0585861 1.77282e-20)
(0.571385 0.0078515 -2.26888e-20)
(0.475732 -0.0101726 -4.48511e-20)
(0.819221 0.0728037 0)
(0.748938 0.0587034 -1.40564e-20)
(1.01698 0.130011 3.49191e-21)
(0.972901 0.124008 7.19612e-21)
(1.15628 0.170166 3.73096e-21)
(1.13021 0.171064 3.55808e-21)
(1.24672 0.19269 -3.7232e-21)
(1.23125 0.198152 -1.32413e-21)
(1.30149 0.201092 7.2763e-21)
(1.29173 0.20919 -3.76463e-21)
(1.33193 0.199571 2.32374e-21)
(1.32506 0.209038 5.03515e-21)
(1.34632 0.191612 -9.05076e-21)
(1.34079 0.201671 -3.31926e-21)
(1.35031 0.179757 5.94324e-21)
(1.34533 0.189973 -7.87867e-21)
(1.34764 0.165769 6.0728e-21)
(1.34287 0.175908 2.1712e-20)
(1.34075 0.150872 6.6229e-21)
(1.3361 0.160838 -1.66729e-20)
(1.33117 0.135872 -1.51692e-20)
(1.32668 0.145628 -1.07033e-20)
(1.31986 0.121288 -1.16613e-21)
(1.3156 0.130823 -1.47913e-20)
(1.30736 0.107437 2.82764e-20)
(1.30343 0.116739 2.12869e-20)
(1.29391 0.0945162 1.9376e-22)
(1.29041 0.10355 1.56426e-20)
(1.27949 0.0826685 1.51571e-20)
(1.27658 0.0913601 -1.53615e-20)
(1.26392 0.0720267 1.65423e-20)
(1.26178 0.0802611 2.21605e-20)
(1.24681 0.0627379 -3.82201e-20)
(1.24572 0.0703702 -5.75418e-21)
(1.22766 0.054981 -3.28765e-20)
(1.22793 0.0618355 -4.0493e-20)
(1.20578 0.0489876 0)
(1.20778 0.0547283 7.56267e-21)
(1.18039 0.0450551 2.01429e-20)
(1.18449 0.0490693 0)
(1.15048 0.0435996 1.88931e-20)
(1.15753 0.0461479 -8.68031e-21)
(1.11463 0.0452969 -4.40687e-21)
(1.12713 0.0505741 3.07624e-20)
(1.09167 0.0625062 -2.68383e-20)
(0.646062 0.0367662 -3.6957e-20)
(0.541916 0.014514 3.24379e-21)
(0.897882 0.108126 -7.30536e-21)
(0.826752 0.0942103 -1.29649e-22)
(1.08337 0.16417 7.32993e-21)
(1.04129 0.159953 1.36616e-21)
(1.20367 0.198644 -1.41537e-21)
(1.17982 0.201695 -9.61154e-22)
(1.27546 0.21453 -1.46132e-21)
(1.26172 0.22191 9.55113e-23)
(1.31491 0.217178 -5.97154e-21)
(1.30639 0.226782 -2.72553e-21)
(1.33376 0.211265 -4.93992e-22)
(1.32778 0.221839 -2.30937e-21)
(1.33978 0.200201 -2.0928e-21)
(1.33494 0.211026 2.14701e-21)
(1.33796 0.186319 7.65598e-21)
(1.33357 0.197008 -7.87867e-21)
(1.33145 0.171177 -7.25424e-22)
(1.32724 0.181557 1.07766e-20)
(1.32217 0.155778 -3.40577e-20)
(1.31809 0.165797 -7.82927e-21)
(1.31125 0.140741 -1.01713e-20)
(1.30736 0.150406 -1.73919e-20)
(1.2993 0.126413 7.39786e-21)
(1.29566 0.135752 2.12933e-20)
(1.2866 0.112971 8.70007e-21)
(1.2833 0.122002 0)
(1.2732 0.100497 3.33574e-22)
(1.27033 0.109216 4.91068e-21)
(1.25899 0.0890474 -8.6425e-21)
(1.25668 0.0974075 -9.33135e-23)
(1.2437 0.0786883 0)
(1.24214 0.0866013 4.56701e-21)
(1.22695 0.0695219 -7.77983e-21)
(1.22639 0.076864 4.43016e-21)
(1.2082 0.0616934 -3.74292e-22)
(1.20897 0.0682973 -6.63544e-23)
(1.1868 0.0554018 7.61118e-21)
(1.18927 0.0609405 -4.10538e-21)
(1.16201 0.0508936 -2.87696e-20)
(1.16658 0.0547795 -4.01374e-21)
(1.13294 0.0484885 2.49869e-21)
(1.14034 0.0510591 -2.89484e-20)
(1.09849 0.0486723 7.64841e-20)
(1.11073 0.0544893 4.47041e-20)
(1.07667 0.0652921 -3.77509e-20)
(0.715497 0.0685705 4.04109e-20)
(0.604884 0.0423544 2.60257e-20)
(0.965646 0.143956 8.43711e-21)
(0.895489 0.131027 7.37726e-21)
(1.13532 0.19664 -7.18217e-21)
(1.09612 0.194607 -8.874e-21)
(1.23663 0.224626 3.93434e-22)
(1.21527 0.229964 -1.34718e-21)
(1.29204 0.234092 -1.27368e-21)
(1.28001 0.24337 4.80375e-22)
(1.31901 0.231545 9.30843e-22)
(1.31163 0.242595 1.17799e-21)
(1.32891 0.221788 2.97382e-22)
(1.3237 0.233401 3.74647e-21)
(1.32879 0.208059 -3.51931e-21)
(1.32449 0.21958 -3.47783e-21)
(1.32296 0.192481 -4.87048e-21)
(1.31899 0.20359 0)
(1.31402 0.176402 3.73014e-21)
(1.31019 0.186982 5.43892e-21)
(1.30342 0.160628 8.88493e-21)
(1.29974 0.170679 3.70219e-21)
(1.29191 0.145593 1.3799e-20)
(1.28843 0.155162 0)
(1.27979 0.13149 1.40503e-20)
(1.27661 0.140635 8.95804e-21)
(1.26714 0.118372 -3.82155e-21)
(1.26433 0.127143 0)
(1.25392 0.106233 4.53485e-21)
(1.25155 0.114651 -8.62677e-21)
(1.23994 0.0950558 1.30833e-20)
(1.23812 0.103108 8.48656e-21)
(1.22493 0.0848521 8.99816e-21)
(1.22383 0.0924804 4.68837e-21)
(1.20851 0.07568 1.21982e-20)
(1.20837 0.0827874 -9.06942e-21)
(1.19017 0.0676517 -3.7669e-21)
(1.19131 0.0740875 7.79136e-21)
(1.16932 0.0609325 -1.57512e-20)
(1.17212 0.0663775 -7.55297e-21)
(1.14524 0.0557267 -4.03853e-21)
(1.1501 0.059613 -1.70671e-20)
(1.11717 0.0522792 -4.13212e-21)
(1.12471 0.0549749 1.2079e-20)
(1.08432 0.0509382 -1.07961e-21)
(1.09603 0.0572126 5.4791e-24)
(1.06357 0.0672404 3.07184e-22)
(0.777877 0.101967 -6.56092e-21)
(0.662961 0.0721631 -1.17502e-21)
(1.02174 0.179307 -9.59351e-21)
(0.95393 0.168056 3.7178e-22)
(1.17397 0.227148 -3.21979e-21)
(1.13802 0.227569 4.24398e-22)
(1.25765 0.248428 -1.33095e-21)
(1.23866 0.256083 -3.86028e-22)
(1.29918 0.251873 2.8899e-21)
(1.28867 0.262986 -9.08955e-22)
(1.3162 0.244626 3.92854e-21)
(1.30975 0.257044 3.8746e-21)
(1.3193 0.231449 0)
(1.31465 0.244024 -2.6784e-21)
(1.31479 0.21539 0)
(1.31082 0.227535 5.38821e-21)
(1.30635 0.198363 1.02323e-20)
(1.3026 0.209829 -2.70039e-21)
(1.29605 0.181508 5.34406e-21)
(1.2924 0.192242 1.03474e-20)
(1.28489 0.16543 -5.1464e-21)
(1.28141 0.17548 -5.09638e-21)
(1.27327 0.150387 -4.9145e-21)
(1.27005 0.159839 0)
(1.26128 0.136441 -5.00403e-21)
(1.25842 0.14538 -4.96048e-21)
(1.24886 0.123549 -4.73276e-21)
(1.24641 0.132047 0)
(1.23587 0.111635 -4.81047e-21)
(1.23391 0.119741 -4.77256e-21)
(1.22212 0.100626 1.1241e-22)
(1.22074 0.108357 -1.37548e-21)
(1.20737 0.0904848 -1.32938e-20)
(1.20669 0.0978193 5.02265e-21)
(1.19127 0.0812232 -1.36051e-20)
(1.1915 0.088099 -1.35112e-20)
(1.17338 0.072914 4.11925e-21)
(1.17481 0.0792103 0)
(1.15313 0.0656854 -8.79234e-21)
(1.15614 0.0711091 4.14691e-21)
(1.12986 0.0597029 4.01579e-22)
(1.13486 0.0637065 -2.23337e-20)
(1.10292 0.0551548 1.63094e-20)
(1.11041 0.0580552 1.59002e-20)
(1.07189 0.0523108 1.39905e-21)
(1.08277 0.0586994 1.32668e-20)
(1.05217 0.0685251 -2.8247e-21)
(0.832115 0.13594 5.74004e-21)
(0.714935 0.102994 -1.17502e-21)
(1.06634 0.213656 1.08864e-20)
(1.00174 0.20458 7.18566e-21)
(1.20093 0.255779 3.37621e-21)
(1.16819 0.258791 3.31458e-21)
(1.26891 0.270426 0)
(1.25202 0.280364 -4.5225e-22)
(1.29896 0.268247 0)
(1.28966 0.281124 0)
(1.30817 0.256701 -2.64112e-21)
(1.30237 0.270406 0)
(1.30624 0.240433 2.66756e-21)
(1.30188 0.253888 -2.6784e-21)
(1.29875 0.222303 2.72626e-21)
(1.29485 0.234996 5.38821e-21)
(1.28878 0.204012 -2.73044e-21)
(1.28501 0.215772 -2.70039e-21)
(1.2779 0.186481 0)
(1.27423 0.197323 0)
(1.2667 0.170115 0)
(1.26324 0.180136 -2.09158e-22)
(1.25532 0.155018 0)
(1.25219 0.164332 1.9536e-22)
(1.24366 0.14114 0)
(1.24096 0.149854 0)
(1.23158 0.128367 0)
(1.22937 0.13657 0)
(1.21889 0.116573 -1.36456e-21)
(1.21724 0.124335 0)
(1.20541 0.105644 3.49471e-21)
(1.20439 0.113011 -9.73876e-24)
(1.19091 0.0955018 4.95356e-21)
(1.19062 0.102488 5.26497e-21)
(1.17512 0.0861112 0)
(1.17571 0.0926997 -3.31004e-22)
(1.15766 0.0774966 0)
(1.15937 0.0836162 0)
(1.13801 0.0697413 -9.22466e-21)
(1.14122 0.0751735 0)
(1.11556 0.0629645 -4.64891e-21)
(1.1207 0.0672584 -9.90844e-21)
(1.08977 0.0572736 9.49255e-21)
(1.09716 0.0605995 3.28053e-21)
(1.06095 0.0529105 9.13554e-21)
(1.07065 0.0585412 9.08332e-21)
(1.04237 0.0691265 0)
(0.877773 0.169783 0)
(0.760018 0.134188 -1.91175e-21)
(1.10015 0.246765 0)
(1.03918 0.240213 1.3718e-21)
(1.2178 0.282727 -4.4384e-22)
(1.188 0.288377 -3.71807e-22)
(1.2722 0.290935 -4.59813e-22)
(1.25702 0.303105 -2.88872e-21)
(1.29292 0.283478 0)
(1.2845 0.298049 5.08752e-21)
(1.29612 0.267943 0)
(1.29067 0.282856 6.46053e-21)
(1.29061 0.248841 0)
(1.28626 0.263093 -3.60673e-21)
(1.28125 0.228839 0)
(1.27719 0.242002 -8.0593e-21)
(1.27059 0.209413 0)
(1.26658 0.221405 3.48152e-21)
(1.2597 0.191256 -2.06976e-22)
(1.25581 0.202163 3.74575e-21)
(1.24885 0.174582 -1.61183e-23)
(1.24524 0.184545 -3.69645e-21)
(1.23795 0.159355 1.9717e-22)
(1.23475 0.168515 7.49925e-21)
(1.22679 0.145438 0)
(1.2241 0.153915 6.84364e-21)
(1.21515 0.132667 0)
(1.21306 0.140558 -6.43087e-21)
(1.20285 0.120883 1.35329e-21)
(1.20141 0.128266 0)
(1.18971 0.109949 1.71891e-21)
(1.18897 0.116886 1.36413e-21)
(1.17552 0.0997587 2.07923e-23)
(1.17557 0.106292 5.13659e-22)
(1.16006 0.0902393 -3.33304e-22)
(1.16101 0.0963921 -5.62989e-22)
(1.14301 0.0813658 0)
(1.14507 0.0871333 0)
(1.12396 0.0731743 -6.20231e-22)
(1.12746 0.078465 -1.63849e-20)
(1.1023 0.0657783 -1.22174e-21)
(1.10777 0.070318 9.86915e-21)
(1.07761 0.0592577 -6.46033e-22)
(1.0853 0.0630556 1.63746e-20)
(1.05122 0.0529029 0)
(1.05849 0.0567682 -1.01788e-20)
(1.03414 0.0694695 0)
(0.914799 0.203136 -8.92735e-22)
(0.797757 0.16537 -1.91175e-21)
(1.12409 0.278598 5.75351e-22)
(1.06681 0.274872 -2.95163e-21)
(1.22603 0.30822 -2.78392e-21)
(1.19874 0.316513 -1.13379e-21)
(1.26892 0.310206 2.51069e-21)
(1.25502 0.32455 2.91408e-21)
(1.28219 0.297734 1.15272e-20)
(1.27427 0.31393 4.11169e-21)
(1.28089 0.278446 2.99395e-21)
(1.27546 0.294482 7.64038e-21)
(1.27297 0.256708 -1.15159e-20)
(1.26835 0.271668 -3.60673e-21)
(1.26265 0.234982 -4.63803e-21)
(1.25818 0.248538 -2.90082e-22)
(1.25193 0.214505 7.22433e-21)
(1.24749 0.226671 1.1289e-20)
(1.24146 0.195737 2.95188e-22)
(1.23719 0.20667 -4.46912e-21)
(1.23124 0.178708 3.71068e-21)
(1.22731 0.188593 4.15488e-21)
(1.22101 0.16326 1.41518e-20)
(1.21758 0.172261 -7.35496e-21)
(1.21048 0.149186 5.08862e-22)
(1.20766 0.157431 2.87909e-20)
(1.19943 0.136284 -6.4845e-21)
(1.19729 0.143871 8.51162e-22)
(1.18764 0.124378 0)
(1.18624 0.131381 0)
(1.17497 0.113324 1.65325e-22)
(1.17436 0.119796 0)
(1.16122 0.103004 -5.94364e-23)
(1.16148 0.108982 -5.90405e-21)
(1.14622 0.0933376 -2.33597e-22)
(1.14745 0.0988402 5.6626e-21)
(1.12974 0.0842747 -1.62756e-20)
(1.13207 0.0893068 0)
(1.11149 0.0757962 -6.11939e-21)
(1.11511 0.0802981 -1.07383e-20)
(1.0912 0.0679605 2.7371e-20)
(1.09633 0.0716154 -1.17554e-20)
(1.06851 0.0611997 4.87603e-21)
(1.07571 0.0634374 2.75439e-20)
(1.04201 0.0571042 -1.02374e-20)
(1.05404 0.0568296 -1.01788e-20)
(1.01931 0.0692382 5.92529e-21)
(0.94332 0.235931 -4.21978e-21)
(0.827939 0.19642 0)
(1.13907 0.309308 -5.15999e-21)
(1.0853 0.308656 5.19087e-22)
(1.2268 0.332472 4.42593e-21)
(1.20151 0.343418 -4.29852e-22)
(1.26012 0.328404 4.48952e-21)
(1.24704 0.344879 5.30065e-21)
(1.26755 0.311106 2.44287e-22)
(1.25974 0.328862 -7.28607e-21)
(1.26303 0.288235 1.22476e-21)
(1.25729 0.305308 1.14328e-20)
(1.25369 0.264011 7.66735e-21)
(1.24853 0.279587 -9.34252e-21)
(1.24313 0.240674 1.57455e-20)
(1.23803 0.254538 7.8456e-21)
(1.23285 0.2192 -2.29103e-22)
(1.22779 0.231475 4.53256e-20)
(1.22313 0.199814 -6.62011e-22)
(1.21831 0.210732 -2.53604e-20)
(1.21374 0.182374 -6.79968e-21)
(1.20936 0.192164 7.64217e-21)
(1.20432 0.166614 7.00456e-21)
(1.20053 0.175462 -3.9525e-20)
(1.19456 0.152264 2.9358e-20)
(1.19146 0.160307 3.07338e-20)
(1.1842 0.139091 7.34276e-21)
(1.18187 0.14643 -1.50432e-20)
(1.17307 0.126904 0)
(1.17154 0.133608 2.92001e-20)
(1.161 0.115548 -5.99991e-21)
(1.16034 0.121666 0)
(1.14785 0.104897 -2.72483e-22)
(1.14811 0.110459 -6.04574e-21)
(1.13346 0.0948508 5.9003e-21)
(1.13472 0.0998821 5.85959e-21)
(1.11765 0.0853323 5.51417e-21)
(1.12 0.0898544 -1.28668e-20)
(1.10026 0.0763118 -1.65193e-20)
(1.10381 0.0802045 1.72371e-20)
(1.08112 0.0678421 -8.91599e-21)
(1.08608 0.0705309 -5.78275e-20)
(1.05971 0.0598289 1.08441e-20)
(1.0666 0.0611652 1.6202e-20)
(1.03375 0.05076 5.89123e-21)
(1.04324 0.0567301 0)
(1.01356 0.067038 3.37548e-22)
(0.963534 0.26826 4.79727e-21)
(0.850348 0.227396 3.18574e-21)
(1.1459 0.33909 2.82549e-21)
(1.09524 0.341693 4.9151e-21)
(1.22104 0.355663 2.29145e-22)
(1.19716 0.369297 2.24962e-22)
(1.24652 0.34563 -6.20004e-21)
(1.23377 0.3642 0)
(1.24953 0.323614 3.69322e-21)