/*--------------------------------*- C++ -*----------------------------------*\
  =========                 |
  \\      /  F ield         | OpenFOAM: The Open Source CFD Toolbox
   \\    /   O peration     | Website:  https://openfoam.org
    \\  /    A nd           | Version:  11
     \\/     M anipulation  |
\*---------------------------------------------------------------------------*/
FoamFile
{
    format      ascii;
    class       surfaceScalarField;
    location    "1.54";
    object      meshPhi;
}
// * * * * * * * * * * * * * * * * * * * * * * * * * * * * * * * * * * * * * //

dimensions      [0 3 -1 0 0 0 0];

internalField   nonuniform List<scalar> 
5640
(
1.36916e-16
9.81747e-07
2.42048e-16
1.37445e-06
3.76805e-16
1.76715e-06
-1.33947e-15
2.15984e-06
-3.68184e-15
2.55254e-06
2.94524e-06
5.95099e-15
1.80439e-18
9.81747e-07
-3.88842e-16
1.37445e-06
-2.60431e-15
1.76715e-06
1.94346e-15
2.15984e-06
8.06586e-15
2.55254e-06
2.94524e-06
-9.03019e-15
-1.16511e-16
9.81747e-07
1.86315e-16
1.37445e-06
-1.56247e-15
1.76715e-06
-4.21271e-15
2.15984e-06
-7.49863e-15
2.55254e-06
2.94524e-06
7.71856e-16
8.68914e-17
9.81747e-07
-1.01978e-16
1.37445e-06
2.69308e-15
1.76715e-06
7.44269e-15
2.15984e-06
3.25967e-15
2.55254e-06
2.94524e-06
-2.79818e-15
-4.84394e-17
9.81747e-07
3.94354e-17
1.37445e-06
1.94243e-16
1.76715e-06
-1.80632e-15
2.15984e-06
-4.20866e-15
2.55254e-06
2.94524e-06
5.01309e-15
-1.80149e-16
9.81747e-07
4.23189e-18
1.37445e-06
-1.84788e-15
1.76715e-06
-3.88635e-15
2.15984e-06
3.15686e-15
2.55254e-06
2.94524e-06
4.97917e-16
2.53926e-16
9.81747e-07
2.55402e-16
1.37445e-06
2.06587e-15
1.76715e-06
4.50395e-15
2.15984e-06
-2.31033e-15
2.55254e-06
2.94524e-06
5.40635e-16
2.16084e-17
9.81747e-07
-3.21744e-16
1.37445e-06
-1.14899e-15
1.76715e-06
-5.28575e-15
2.15984e-06
-3.77071e-16
2.55254e-06
2.94524e-06
-5.64003e-15
-1.43445e-16
9.81747e-07
1.66345e-16
1.37445e-06
4.19107e-15
1.76715e-06
6.34921e-15
2.15984e-06
-8.05854e-16
2.55254e-06
2.94524e-06
8.39097e-16
-6.88527e-17
9.81747e-07
-9.21172e-17
1.37445e-06
-2.7695e-15
1.76715e-06
-3.6903e-16
2.15984e-06
-1.45103e-15
2.55254e-06
2.94524e-06
-1.76923e-16
1.66274e-16
9.81747e-07
-8.87585e-17
1.37445e-06
5.69584e-16
1.76715e-06
-2.10375e-15
2.15984e-06
9.65982e-15
2.55254e-06
2.94524e-06
5.2897e-15
-1.77848e-16
9.81747e-07
-2.055e-17
1.37445e-06
-3.45555e-16
1.76715e-06
-4.17287e-15
2.15984e-06
-2.62254e-15
2.55254e-06
2.94524e-06
5.36908e-15
1.77739e-16
9.81747e-07
2.04553e-17
1.37445e-06
3.45298e-16
1.76715e-06
4.1726e-15
2.15984e-06
2.62214e-15
2.55254e-06
2.94524e-06
-5.36986e-15
-1.6638e-16
9.81747e-07
8.86176e-17
1.37445e-06
-5.69748e-16
1.76715e-06
2.10338e-15
2.15984e-06
-9.66024e-15
2.55254e-06
2.94524e-06
-5.29045e-15
6.87425e-17
9.81747e-07
9.20003e-17
1.37445e-06
2.76931e-15
1.76715e-06
3.68624e-16
2.15984e-06
1.45073e-15
2.55254e-06
2.94524e-06
1.76647e-16
1.43351e-16
9.81747e-07
-1.66451e-16
1.37445e-06
-4.19131e-15
1.76715e-06
-6.34965e-15
2.15984e-06
8.055e-16
2.55254e-06
2.94524e-06
-8.39699e-16
-2.16894e-17
9.81747e-07
3.2161e-16
1.37445e-06
1.14884e-15
1.76715e-06
5.2854e-15
2.15984e-06
3.76457e-16
2.55254e-06
2.94524e-06
5.63943e-15
-2.54017e-16
9.81747e-07
-2.55446e-16
1.37445e-06
-2.06609e-15
1.76715e-06
-4.50434e-15
2.15984e-06
2.30969e-15
2.55254e-06
2.94524e-06
-5.41018e-16
1.80074e-16
9.81747e-07
-4.38273e-18
1.37445e-06
1.84769e-15
1.76715e-06
3.88592e-15
2.15984e-06
-3.15731e-15
2.55254e-06
2.94524e-06
-4.98398e-16
4.83457e-17
9.81747e-07
-3.96098e-17
1.37445e-06
-1.9443e-16
1.76715e-06
1.8059e-15
2.15984e-06
4.20833e-15
2.55254e-06
2.94524e-06
-5.01377e-15
-8.69951e-17
9.81747e-07
1.01851e-16
1.37445e-06
-2.69326e-15
1.76715e-06
-7.44294e-15
2.15984e-06
-3.26006e-15
2.55254e-06
2.94524e-06
2.79767e-15
1.16427e-16
9.81747e-07
-1.86428e-16
1.37445e-06
1.56226e-15
1.76715e-06
4.21237e-15
2.15984e-06
7.49805e-15
2.55254e-06
2.94524e-06
-7.72497e-16
-1.88284e-18
9.81747e-07
3.88687e-16
1.37445e-06
2.60395e-15
1.76715e-06
-1.9438e-15
2.15984e-06
-8.06639e-15
2.55254e-06
2.94524e-06
9.02943e-15
-1.36991e-16
-2.42163e-16
-3.77076e-16
1.33911e-15
3.68131e-15
-5.95176e-15
-1.13363e-14
4.53785e-06
-4.53785e-06
-4.81525e-16
5.23599e-06
-5.23599e-06
-5.35775e-15
5.93412e-06
-5.93412e-06
-1.13038e-14
6.63225e-06
-6.63225e-06
4.86793e-15
7.33038e-06
-7.33038e-06
-1.11068e-15
8.02851e-06
-8.02851e-06
-8.15913e-15
8.72664e-06
-8.72664e-06
1.30423e-14
9.42478e-06
-9.42478e-06
5.94785e-15
1.01229e-05
-1.01229e-05
-1.99818e-15
1.0821e-05
-1.0821e-05
2.43843e-14
1.15192e-05
-1.15192e-05
1.61864e-14
1.22173e-05
-1.22173e-05
-3.27909e-14
1.29154e-05
-1.29154e-05
-3.05214e-15
1.36136e-05
-1.36136e-05
-1.4443e-14
1.43117e-05
-1.43117e-05
-2.69047e-14
1.50098e-05
-1.50098e-05
7.73436e-15
1.5708e-05
-1.5708e-05
-4.44271e-15
1.64061e-05
-1.64061e-05
-1.80048e-14
1.71042e-05
-1.71042e-05
2.18188e-14
1.78024e-05
-1.78024e-05
8.20824e-15
1.85005e-05
-1.85005e-05
-6.08533e-15
1.91986e-05
-1.91986e-05
3.89175e-14
1.98967e-05
-1.98967e-05
2.05949e-05
-2.05949e-05
9.39863e-15
4.53785e-06
5.19339e-16
5.23599e-06
7.52761e-15
5.93412e-06
-4.4128e-15
6.63225e-06
3.78265e-15
7.33038e-06
1.33833e-14
8.02851e-06
-2.11051e-15
8.72664e-06
8.52714e-15
9.42478e-06
-1.00284e-14
1.01229e-05
1.86523e-15
1.0821e-05
-2.02043e-14
1.15192e-05
-7.01503e-15
1.22173e-05
7.50934e-15
1.29154e-05
2.36073e-14
1.36136e-05
-2.04497e-15
1.43117e-05
1.48308e-14
1.50098e-05
-1.38824e-14
1.5708e-05
2.38642e-15
1.64061e-05
2.04067e-14
1.71042e-05
-7.01933e-15
1.78024e-05
1.20596e-14
1.85005e-05
-2.59503e-14
1.91986e-05
1.8433e-15
1.98967e-05
2.05949e-05
-8.67641e-15
4.53785e-06
1.22916e-14
5.23599e-06
1.88267e-15
5.93412e-06
8.90118e-15
6.63225e-06
-5.1092e-15
7.33038e-06
-2.19921e-14
8.02851e-06
1.22637e-14
8.72664e-06
-5.3753e-15
9.42478e-06
4.45419e-15
1.01229e-05
-1.43073e-14
1.0821e-05
-7.32695e-15
1.15192e-05
7.03797e-15
1.22173e-05
2.39929e-14
1.29154e-05
-7.55561e-15
1.36136e-05
9.79604e-15
1.43117e-05
-1.62385e-14
1.50098e-05
4.02897e-14
1.5708e-05
1.44407e-14
1.64061e-05
-1.37095e-14
1.71042e-05
-7.9012e-15
1.78024e-05
-3.92578e-14
1.85005e-05
4.27481e-14
1.91986e-05
-8.85744e-15
1.98967e-05
2.05949e-05
5.98559e-15
4.53785e-06
2.18283e-16
5.23599e-06
-6.43589e-15
5.93412e-06
6.06358e-15
6.63225e-06
-2.09338e-15
7.33038e-06
1.61752e-14
8.02851e-06
-1.88317e-14
8.72664e-06
-2.35257e-15
9.42478e-06
9.17024e-15
1.01229e-05
-4.7128e-15
1.0821e-05
2.16258e-14
1.15192e-05
-2.96477e-14
1.22173e-05
-9.29247e-15
1.29154e-05
-1.89094e-14
1.36136e-05
4.46292e-15
1.43117e-05
3.01532e-14
1.50098e-05
-2.62219e-14
1.5708e-05
4.30735e-16
1.64061e-05
-2.11773e-14
1.71042e-05
1.87121e-14
1.78024e-05
-3.92811e-15
1.85005e-05
-2.91673e-14
1.91986e-05
1.52227e-14
1.98967e-05
2.05949e-05
6.71468e-15
4.53785e-06
-7.30703e-15
5.23599e-06
1.11002e-14
5.93412e-06
-4.24138e-15
6.63225e-06
1.51019e-14
7.33038e-06
-5.2109e-15
8.02851e-06
1.70117e-14
8.72664e-06
-3.94218e-15
9.42478e-06
-2.96126e-16
1.01229e-05
6.60956e-15
1.0821e-05
1.37034e-14
1.15192e-05
1.01826e-14
1.22173e-05
1.8214e-14
1.29154e-05
1.43652e-14
1.36136e-05
2.33387e-14
1.43117e-05
-2.53502e-14
1.50098e-05
2.90699e-14
1.5708e-05
-7.83345e-15
1.64061e-05
3.54151e-14
1.71042e-05
-4.51738e-15
1.78024e-05
4.23646e-14
1.85005e-05
-5.95277e-16
1.91986e-05
-8.74065e-15
1.98967e-05
2.05949e-05
-4.63077e-15
4.53785e-06
5.79737e-15
5.23599e-06
-1.61511e-14
5.93412e-06
-5.975e-15
6.63225e-06
-8.55589e-15
7.33038e-06
4.22278e-15
8.02851e-06
-8.18871e-15
8.72664e-06
6.998e-15
9.42478e-06
-2.42321e-14
1.01229e-05
-7.77085e-15
1.0821e-05
-2.27666e-14
1.15192e-05
8.34739e-15
1.22173e-05
-7.40722e-15
1.29154e-05
2.82629e-14
1.36136e-05
-4.57142e-14
1.43117e-05
-8.22471e-15
1.50098e-05
-2.8231e-14
1.5708e-05
-2.34253e-15
1.64061e-05
-6.94866e-15
1.71042e-05
2.21466e-14
1.78024e-05
-3.41137e-14
1.85005e-05
-3.74509e-15
1.91986e-05
-3.23491e-14
1.98967e-05
2.05949e-05
-8.92539e-15
4.53785e-06
-2.28889e-15
5.23599e-06
-2.2247e-15
5.93412e-06
6.61575e-15
6.63225e-06
-3.38857e-15
7.33038e-06
-3.90751e-15
8.02851e-06
-6.42029e-15
8.72664e-06
-7.15999e-15
9.42478e-06
6.80835e-15
1.01229e-05
6.98094e-15
1.0821e-05
-9.06804e-15
1.15192e-05
6.75724e-15
1.22173e-05
-2.8892e-14
1.29154e-05
-1.22362e-14
1.36136e-05
4.79982e-15
1.43117e-05
2.50227e-14
1.50098e-05
3.85905e-15
1.5708e-05
3.60465e-15
1.64061e-05
-2.04906e-14
1.71042e-05
-2.17605e-14
1.78024e-05
3.46109e-15
1.85005e-05
2.9035e-14
1.91986e-05
-1.66778e-15
1.98967e-05
2.05949e-05
6.21551e-15
4.53785e-06
-3.87989e-15
5.23599e-06
1.54212e-14
5.93412e-06
-7.06552e-15
6.63225e-06
-2.21119e-15
7.33038e-06
1.42829e-15
8.02851e-06
-5.49464e-15
8.72664e-06
1.32249e-14
9.42478e-06
6.04493e-15
1.01229e-05
-1.74532e-14
1.0821e-05
2.08855e-14
1.15192e-05
-2.14477e-14
1.22173e-05
1.91318e-14
1.29154e-05
-7.31763e-15
1.36136e-05
3.84822e-14
1.43117e-05
-1.29267e-14
1.50098e-05
-1.8852e-15
1.5708e-05
5.71315e-15
1.64061e-05
-7.59148e-15
1.71042e-05
2.76539e-14
1.78024e-05
1.40875e-14
1.85005e-05
-5.31513e-14
1.91986e-05
3.90795e-14
1.98967e-05
2.05949e-05
-1.49885e-15
4.53785e-06
1.08966e-14
5.23599e-06
-6.60025e-15
5.93412e-06
7.26506e-15
6.63225e-06
6.17386e-15
7.33038e-06
2.48808e-15
8.02851e-06
-9.66183e-16
8.72664e-06
-4.36611e-15
9.42478e-06
-8.9021e-15
1.01229e-05
1.38616e-14
1.0821e-05
1.06888e-14
1.15192e-05
6.24751e-15
1.22173e-05
-1.307e-16
1.29154e-05
-3.44111e-15
1.36136e-05
-1.10468e-14
1.43117e-05
-1.7768e-14
1.50098e-05
1.76767e-14
1.5708e-05
9.95232e-15
1.64061e-05
3.32475e-15
1.71042e-05
-3.29722e-14
1.78024e-05
-1.04285e-14
1.85005e-05
3.00593e-14
1.91986e-05
-5.99982e-14
1.98967e-05
2.05949e-05
5.16982e-15
4.53785e-06
-7.45624e-15
5.23599e-06
-7.57223e-16
5.93412e-06
6.83878e-15
6.63225e-06
-9.97527e-15
7.33038e-06
-1.66572e-15
8.02851e-06
9.21808e-15
8.72664e-06
-1.34611e-14
9.42478e-06
2.32188e-14
1.01229e-05
1.04709e-14
1.0821e-05
-1.72749e-14
1.15192e-05
-3.02889e-15
1.22173e-05
1.13948e-14
1.29154e-05
-1.98204e-14
1.36136e-05
-4.68152e-15
1.43117e-05
5.03034e-14
1.50098e-05
-2.40488e-14
1.5708e-05
-6.66288e-15
1.64061e-05
1.4255e-14
1.71042e-05
1.64493e-15
1.78024e-05
-6.81634e-15
1.85005e-05
1.44376e-14
1.91986e-05
5.07554e-14
1.98967e-05
2.05949e-05
-6.19759e-15
4.53785e-06
2.80723e-17
5.23599e-06
1.15111e-14
5.93412e-06
-2.06269e-14
6.63225e-06
5.36562e-15
7.33038e-06
1.22066e-15
8.02851e-06
-4.79614e-17
8.72664e-06
1.23925e-14
9.42478e-06
-1.32277e-14
1.01229e-05
-1.88958e-14
1.0821e-05
-4.96655e-15
1.15192e-05
-7.15544e-15
1.22173e-05
-1.48892e-14
1.29154e-05
3.53366e-14
1.36136e-05
-5.05695e-18
1.43117e-05
-4.31413e-14
1.50098e-05
1.35583e-14
1.5708e-05
-2.82608e-14
1.64061e-05
2.45151e-15
1.71042e-05
-1.02436e-14
1.78024e-05
2.37984e-14
1.85005e-05
1.38682e-14
1.91986e-05
-4.55694e-14
1.98967e-05
2.05949e-05
-1.90693e-15
4.53785e-06
1.13024e-15
5.23599e-06
-2.16628e-14
5.93412e-06
9.62309e-15
6.63225e-06
1.51361e-14
7.33038e-06
-1.40664e-14
8.02851e-06
8.09222e-15
8.72664e-06
-2.69607e-14
9.42478e-06
-1.96733e-15
1.01229e-05
2.97146e-14
1.0821e-05
-1.1747e-14
1.15192e-05
1.98659e-14
1.22173e-05
-2.74468e-14
1.29154e-05
-2.06175e-14
1.36136e-05
1.60381e-14
1.43117e-05
-4.61523e-15
1.50098e-05
4.6879e-15
1.5708e-05
4.79639e-14
1.64061e-05
-1.3745e-14
1.71042e-05
3.23689e-14
1.78024e-05
-3.51908e-14
1.85005e-05
-2.49104e-14
1.91986e-05
7.19089e-14
1.98967e-05
2.05949e-05
1.90619e-15
4.53785e-06
-1.13117e-15
5.23599e-06
2.16615e-14
5.93412e-06
-9.62493e-15
6.63225e-06
-1.51379e-14
7.33038e-06
1.4064e-14
8.02851e-06
-8.0947e-15
8.72664e-06
2.69578e-14
9.42478e-06
1.96249e-15
1.01229e-05
-2.97202e-14
1.0821e-05
1.17432e-14
1.15192e-05
-1.98687e-14
1.22173e-05
2.74426e-14
1.29154e-05
2.06142e-14
1.36136e-05
-1.60431e-14
1.43117e-05
4.61017e-15
1.50098e-05
-4.6971e-15
1.5708e-05
-4.79745e-14
1.64061e-05
1.37316e-14
1.71042e-05
-3.23788e-14
1.78024e-05
3.51768e-14
1.85005e-05
2.48957e-14
1.91986e-05
-7.1923e-14
1.98967e-05
2.05949e-05
6.19684e-15
4.53785e-06
-2.88065e-17
5.23599e-06
-1.15121e-14
5.93412e-06
2.06252e-14
6.63225e-06
-5.3677e-15
7.33038e-06
-1.22258e-15
8.02851e-06
4.56915e-17
8.72664e-06
-1.23949e-14
9.42478e-06
1.32237e-14
1.01229e-05
1.88916e-14
1.0821e-05
4.96182e-15
1.15192e-05
7.15185e-15
1.22173e-05
1.48845e-14
1.29154e-05
-3.53427e-14
1.36136e-05
-1.65087e-18
1.43117e-05
4.31342e-14
1.50098e-05
-1.35673e-14
1.5708e-05
2.82538e-14
1.64061e-05
-2.45897e-15
1.71042e-05
1.02376e-14
1.78024e-05
-2.38135e-14
1.85005e-05
-1.38772e-14
1.91986e-05
4.55537e-14
1.98967e-05
2.05949e-05
-5.17048e-15
4.53785e-06
7.45506e-15
5.23599e-06
7.56068e-16
5.93412e-06
-6.84041e-15
6.63225e-06
9.97288e-15
7.33038e-06
1.66409e-15
8.02851e-06
-9.21974e-15
8.72664e-06
1.3458e-14
9.42478e-06
-2.3223e-14
1.01229e-05
-1.0475e-14
1.0821e-05
1.72699e-14
1.15192e-05
3.02427e-15
1.22173e-05
-1.14009e-14
1.29154e-05
1.98136e-14
1.36136e-05
4.67817e-15
1.43117e-05
-5.0312e-14
1.50098e-05
2.4041e-14
1.5708e-05
6.65634e-15
1.64061e-05
-1.42652e-14
1.71042e-05
-1.65575e-15
1.78024e-05
6.80413e-15
1.85005e-05
-1.44462e-14
1.91986e-05
-5.07674e-14
1.98967e-05
2.05949e-05
1.49837e-15
4.53785e-06
-1.08974e-14
5.23599e-06
6.59847e-15
5.93412e-06
-7.26628e-15
6.63225e-06
-6.1766e-15
7.33038e-06
-2.49053e-15
8.02851e-06
9.63088e-16
8.72664e-06
4.3637e-15
9.42478e-06
8.89804e-15
1.01229e-05
-1.38655e-14
1.0821e-05
-1.06936e-14
1.15192e-05
-6.25329e-15
1.22173e-05
1.25026e-16
1.29154e-05
3.43336e-15
1.36136e-05
1.104e-14
1.43117e-05
1.77592e-14
1.50098e-05
-1.76867e-14
1.5708e-05
-9.96212e-15
1.64061e-05
-3.33356e-15
1.71042e-05
3.29651e-14
1.78024e-05
1.04145e-14
1.85005e-05
-3.00757e-14
1.91986e-05
5.99883e-14
1.98967e-05
2.05949e-05
-6.21621e-15
4.53785e-06
3.87861e-15
5.23599e-06
-1.54229e-14
5.93412e-06
7.06381e-15
6.63225e-06
2.20989e-15
7.33038e-06
-1.43022e-15
8.02851e-06
5.49161e-15
8.72664e-06
-1.32277e-14
9.42478e-06
-6.04758e-15
1.01229e-05
1.74484e-14
1.0821e-05
-2.08886e-14
1.15192e-05
2.14413e-14
1.22173e-05
-1.91365e-14
1.29154e-05
7.31135e-15
1.36136e-05
-3.8492e-14
1.43117e-05
1.29205e-14
1.50098e-05
1.87877e-15
1.5708e-05
-5.72089e-15
1.64061e-05
7.57813e-15
1.71042e-05
-2.76626e-14
1.78024e-05
-1.41075e-14
1.85005e-05
5.31311e-14
1.91986e-05
-3.90931e-14
1.98967e-05
2.05949e-05
8.92448e-15
4.53785e-06
2.28829e-15
5.23599e-06
2.22316e-15
5.93412e-06
-6.61732e-15
6.63225e-06
3.38836e-15
7.33038e-06
3.90609e-15
8.02851e-06
6.41707e-15
8.72664e-06
7.15741e-15
9.42478e-06
-6.80985e-15
1.01229e-05
-6.98451e-15
1.0821e-05
9.06103e-15
1.15192e-05
-6.76365e-15
1.22173e-05
2.88856e-14
1.29154e-05
1.22311e-14
1.36136e-05
-4.80985e-15
1.43117e-05
-2.50289e-14
1.50098e-05
-3.86544e-15
1.5708e-05
-3.61111e-15
1.64061e-05
2.04738e-14
1.71042e-05
2.17544e-14
1.78024e-05
-3.47094e-15
1.85005e-05
-2.90484e-14
1.91986e-05
1.65823e-15
1.98967e-05
2.05949e-05
4.62995e-15
4.53785e-06
-5.79799e-15
5.23599e-06
1.61498e-14
5.93412e-06
5.97368e-15
6.63225e-06
8.55426e-15
7.33038e-06
-4.22505e-15
8.02851e-06
8.1855e-15
8.72664e-06
-7.00128e-15
9.42478e-06
2.42271e-14
1.01229e-05
7.76831e-15
1.0821e-05
2.27621e-14
1.15192e-05
-8.35217e-15
1.22173e-05
7.40026e-15
1.29154e-05
-2.82709e-14
1.36136e-05
4.57043e-14
1.43117e-05
8.21857e-15
1.50098e-05
2.82232e-14
1.5708e-05
2.33583e-15
1.64061e-05
6.93856e-15
1.71042e-05
-2.21554e-14
1.78024e-05
3.41065e-14
1.85005e-05
3.73763e-15
1.91986e-05
3.23393e-14
1.98967e-05
2.05949e-05
-6.71543e-15
4.53785e-06
7.30637e-15
5.23599e-06
-1.11017e-14
5.93412e-06
4.24016e-15
6.63225e-06
-1.5103e-14
7.33038e-06
5.20868e-15
8.02851e-06
-1.70147e-14
8.72664e-06
3.93879e-15
9.42478e-06
2.92641e-16
1.01229e-05
-6.61454e-15
1.0821e-05
-1.37082e-14
1.15192e-05
-1.0188e-14
1.22173e-05
-1.82191e-14
1.29154e-05
-1.43713e-14
1.36136e-05
-2.3344e-14
1.43117e-05
2.53408e-14
1.50098e-05
-2.90774e-14
1.5708e-05
7.82052e-15
1.64061e-05
-3.54238e-14
1.71042e-05
4.51087e-15
1.78024e-05
-4.23741e-14
1.85005e-05
5.80341e-16
1.91986e-05
8.72321e-15
1.98967e-05
2.05949e-05
-5.98611e-15
4.53785e-06
-2.19087e-16
5.23599e-06
6.43483e-15
5.93412e-06
-6.06456e-15
6.63225e-06
2.09183e-15
7.33038e-06
-1.61771e-14
8.02851e-06
1.88289e-14
8.72664e-06
2.3487e-15
9.42478e-06
-9.17368e-15
1.01229e-05
4.70707e-15
1.0821e-05
-2.16293e-14
1.15192e-05
2.96419e-14
1.22173e-05
9.28634e-15
1.29154e-05
1.8904e-14
1.36136e-05
-4.47079e-15
1.43117e-05
-3.01584e-14
1.50098e-05
2.62122e-14
1.5708e-05
-4.37556e-16
1.64061e-05
2.1165e-14
1.71042e-05
-1.87208e-14
1.78024e-05
3.91649e-15
1.85005e-05
2.91511e-14
1.91986e-05
-1.524e-14
1.98967e-05
2.05949e-05
8.67573e-15
4.53785e-06
-1.22929e-14
5.23599e-06
-1.88393e-15
5.93412e-06
-8.90297e-15
6.63225e-06
5.10749e-15
7.33038e-06
2.19902e-14
8.02851e-06
-1.22661e-14
8.72664e-06
5.37216e-15
9.42478e-06
-4.45885e-15
1.01229e-05
1.43033e-14
1.0821e-05
7.32304e-15
1.15192e-05
-7.04402e-15
1.22173e-05
-2.39981e-14
1.29154e-05
7.55492e-15
1.36136e-05
-9.80245e-15
1.43117e-05
1.62304e-14
1.50098e-05
-4.0299e-14
1.5708e-05
-1.44476e-14
1.64061e-05
1.36991e-14
1.71042e-05
7.88714e-15
1.78024e-05
3.92459e-14
1.85005e-05
-4.27569e-14
1.91986e-05
8.84468e-15
1.98967e-05
2.05949e-05
-9.39911e-15
4.53785e-06
-5.21016e-16
5.23599e-06
-7.52931e-15
5.93412e-06
4.41115e-15
6.63225e-06
-3.78433e-15
7.33038e-06
-1.33853e-14
8.02851e-06
2.10777e-15
8.72664e-06
-8.53094e-15
9.42478e-06
1.00249e-14
1.01229e-05
-1.86748e-15
1.0821e-05
2.02002e-14
1.15192e-05
7.00825e-15
1.22173e-05
-7.51403e-15
1.29154e-05
-2.36114e-14
1.36136e-05
2.03987e-15
1.43117e-05
-1.48385e-14
1.50098e-05
1.38763e-14
1.5708e-05
-2.39622e-15
1.64061e-05
-2.0416e-14
1.71042e-05
7.00974e-15
1.78024e-05
-1.20701e-14
1.85005e-05
2.59326e-14
1.91986e-05
-1.852e-15
1.98967e-05
2.05949e-05
1.13357e-14
4.53785e-06
4.80654e-16
5.23599e-06
5.35635e-15
5.93412e-06
1.13028e-14
6.63225e-06
-4.86976e-15
7.33038e-06
1.10785e-15
8.02851e-06
8.15622e-15
8.72664e-06
-1.30465e-14
9.42478e-06
-5.95107e-15
1.01229e-05
1.99361e-15
1.0821e-05
-2.43889e-14
1.15192e-05
-1.61935e-14
1.22173e-05
3.27836e-14
1.29154e-05
3.05075e-15
1.36136e-05
1.44368e-14
1.43117e-05
2.68983e-14
1.50098e-05
-7.74342e-15
1.5708e-05
4.4314e-15
1.64061e-05
1.79955e-14
1.71042e-05
-2.18279e-14
1.78024e-05
-8.21915e-15
1.85005e-05
6.07997e-15
1.91986e-05
-3.89243e-14
1.98967e-05
2.05949e-05
1.36907e-16
9.81747e-07
2.42046e-16
1.37445e-06
3.768e-16
1.76715e-06
-1.33953e-15
2.15984e-06
-3.68185e-15
2.55254e-06
2.94524e-06
5.95113e-15
1.80439e-18
9.81747e-07
-3.88842e-16
1.37445e-06
-2.60431e-15
1.76715e-06
1.94346e-15
2.15984e-06
8.06586e-15
2.55254e-06
2.94524e-06
-9.03019e-15
-1.16511e-16
9.81747e-07
1.86315e-16
1.37445e-06
-1.56247e-15
1.76715e-06
-4.21271e-15
2.15984e-06
-7.49863e-15
2.55254e-06
2.94524e-06
7.71856e-16
8.68914e-17
9.81747e-07
-1.01978e-16
1.37445e-06
2.69308e-15
1.76715e-06
7.44269e-15
2.15984e-06
3.25967e-15
2.55254e-06
2.94524e-06
-2.79818e-15
-4.84394e-17
9.81747e-07
3.94354e-17
1.37445e-06
1.94243e-16
1.76715e-06
-1.80632e-15
2.15984e-06
-4.20866e-15
2.55254e-06
2.94524e-06
5.01309e-15
-1.80149e-16
9.81747e-07
4.23189e-18
1.37445e-06
-1.84788e-15
1.76715e-06
-3.88635e-15
2.15984e-06
3.15686e-15
2.55254e-06
2.94524e-06
4.97917e-16
2.53926e-16
9.81747e-07
2.55402e-16
1.37445e-06
2.06587e-15
1.76715e-06
4.50395e-15
2.15984e-06
-2.31033e-15
2.55254e-06
2.94524e-06
5.40635e-16
2.16084e-17
9.81747e-07
-3.21744e-16
1.37445e-06
-1.14899e-15
1.76715e-06
-5.28575e-15
2.15984e-06
-3.77071e-16
2.55254e-06
2.94524e-06
-5.64003e-15
-1.43445e-16
9.81747e-07
1.66345e-16
1.37445e-06
4.19107e-15
1.76715e-06
6.34921e-15
2.15984e-06
-8.05854e-16
2.55254e-06
2.94524e-06
8.39097e-16
-6.88527e-17
9.81747e-07
-9.21172e-17
1.37445e-06
-2.7695e-15
1.76715e-06
-3.6903e-16
2.15984e-06
-1.45103e-15
2.55254e-06
2.94524e-06
-1.76923e-16
1.66274e-16
9.81747e-07
-8.87585e-17
1.37445e-06
5.69584e-16
1.76715e-06
-2.10375e-15
2.15984e-06
9.65982e-15
2.55254e-06
2.94524e-06
5.2897e-15
-1.77848e-16
9.81747e-07
-2.055e-17
1.37445e-06
-3.45555e-16
1.76715e-06
-4.17287e-15
2.15984e-06
-2.62254e-15
2.55254e-06
2.94524e-06
5.36908e-15
1.77739e-16
9.81747e-07
2.04553e-17
1.37445e-06
3.45298e-16
1.76715e-06
4.1726e-15
2.15984e-06
2.62214e-15
2.55254e-06
2.94524e-06
-5.36986e-15
-1.6638e-16
9.81747e-07
8.86176e-17
1.37445e-06
-5.69748e-16
1.76715e-06
2.10338e-15
2.15984e-06
-9.66024e-15
2.55254e-06
2.94524e-06
-5.29045e-15
6.87425e-17
9.81747e-07
9.20003e-17
1.37445e-06
2.76931e-15
1.76715e-06
3.68624e-16
2.15984e-06
1.45073e-15
2.55254e-06
2.94524e-06
1.76647e-16
1.43351e-16
9.81747e-07
-1.66451e-16
1.37445e-06
-4.19131e-15
1.76715e-06
-6.34965e-15
2.15984e-06
8.055e-16
2.55254e-06
2.94524e-06
-8.39699e-16
-2.16894e-17
9.81747e-07
3.2161e-16
1.37445e-06
1.14884e-15
1.76715e-06
5.2854e-15
2.15984e-06
3.76457e-16
2.55254e-06
2.94524e-06
5.63943e-15
-2.54017e-16
9.81747e-07
-2.55446e-16
1.37445e-06
-2.06609e-15
1.76715e-06
-4.50434e-15
2.15984e-06
2.30969e-15
2.55254e-06
2.94524e-06
-5.41018e-16
1.80074e-16
9.81747e-07
-4.38273e-18
1.37445e-06
1.84769e-15
1.76715e-06
3.88592e-15
2.15984e-06
-3.15731e-15
2.55254e-06
2.94524e-06
-4.98398e-16
4.83457e-17
9.81747e-07
-3.96098e-17
1.37445e-06
-1.9443e-16
1.76715e-06
1.8059e-15
2.15984e-06
4.20833e-15
2.55254e-06
2.94524e-06
-5.01377e-15
-8.69951e-17
9.81747e-07
1.01851e-16
1.37445e-06
-2.69326e-15
1.76715e-06
-7.44294e-15
2.15984e-06
-3.26006e-15
2.55254e-06
2.94524e-06
2.79767e-15
1.16427e-16
9.81747e-07
-1.86428e-16
1.37445e-06
1.56226e-15
1.76715e-06
4.21237e-15
2.15984e-06
7.49805e-15
2.55254e-06
2.94524e-06
-7.72497e-16
-1.88284e-18
9.81747e-07
3.88687e-16
1.37445e-06
2.60395e-15
1.76715e-06
-1.9438e-15
2.15984e-06
-8.06639e-15
2.55254e-06
2.94524e-06
9.02943e-15
-1.36984e-16
-2.42144e-16
-3.77143e-16
1.33906e-15
3.68131e-15
-5.95168e-15
-1.13363e-14
4.53785e-06
-4.8172e-16
5.23599e-06
-5.35812e-15
5.93412e-06
-1.13038e-14
6.63225e-06
4.86846e-15
7.33038e-06
-1.1107e-15
8.02851e-06
-8.15911e-15
8.72664e-06
1.3042e-14
9.42478e-06
5.94706e-15
1.01229e-05
-1.99813e-15
1.0821e-05
2.43824e-14
1.15192e-05
1.61869e-14
1.22173e-05
-3.27887e-14
1.29154e-05
-3.05208e-15
1.36136e-05
-1.4444e-14
1.43117e-05
-2.69048e-14
1.50098e-05
7.73547e-15
1.5708e-05
-4.4428e-15
1.64061e-05
-1.80048e-14
1.71042e-05
2.18177e-14
1.78024e-05
8.20692e-15
1.85005e-05
-6.0868e-15
1.91986e-05
3.89147e-14
1.98967e-05
2.05949e-05
9.39863e-15
4.53785e-06
5.19339e-16
5.23599e-06
7.52761e-15
5.93412e-06
-4.4128e-15
6.63225e-06
3.78265e-15
7.33038e-06
1.33833e-14
8.02851e-06
-2.11051e-15
8.72664e-06
8.52714e-15
9.42478e-06
-1.00284e-14
1.01229e-05
1.86523e-15
1.0821e-05
-2.02043e-14
1.15192e-05
-7.01503e-15
1.22173e-05
7.50934e-15
1.29154e-05
2.36073e-14
1.36136e-05
-2.04497e-15
1.43117e-05
1.48308e-14
1.50098e-05
-1.38824e-14
1.5708e-05
2.38642e-15
1.64061e-05
2.04067e-14
1.71042e-05
-7.01933e-15
1.78024e-05
1.20596e-14
1.85005e-05
-2.59503e-14
1.91986e-05
1.8433e-15
1.98967e-05
2.05949e-05
-8.67641e-15
4.53785e-06
1.22916e-14
5.23599e-06
1.88267e-15
5.93412e-06
8.90118e-15
6.63225e-06
-5.1092e-15
7.33038e-06
-2.19921e-14
8.02851e-06
1.22637e-14
8.72664e-06
-5.3753e-15
9.42478e-06
4.45419e-15
1.01229e-05
-1.43073e-14
1.0821e-05
-7.32695e-15
1.15192e-05
7.03797e-15
1.22173e-05
2.39929e-14
1.29154e-05
-7.55561e-15
1.36136e-05
9.79604e-15
1.43117e-05
-1.62385e-14
1.50098e-05
4.02897e-14
1.5708e-05
1.44407e-14
1.64061e-05
-1.37095e-14
1.71042e-05
-7.9012e-15
1.78024e-05
-3.92578e-14
1.85005e-05
4.27481e-14
1.91986e-05
-8.85744e-15
1.98967e-05
2.05949e-05
5.98559e-15
4.53785e-06
2.18283e-16
5.23599e-06
-6.43589e-15
5.93412e-06
6.06358e-15
6.63225e-06
-2.09338e-15
7.33038e-06
1.61752e-14
8.02851e-06
-1.88317e-14
8.72664e-06
-2.35257e-15
9.42478e-06
9.17024e-15
1.01229e-05
-4.7128e-15
1.0821e-05
2.16258e-14
1.15192e-05
-2.96477e-14
1.22173e-05
-9.29247e-15
1.29154e-05
-1.89094e-14
1.36136e-05
4.46292e-15
1.43117e-05
3.01532e-14
1.50098e-05
-2.62219e-14
1.5708e-05
4.30735e-16
1.64061e-05
-2.11773e-14
1.71042e-05
1.87121e-14
1.78024e-05
-3.92811e-15
1.85005e-05
-2.91673e-14
1.91986e-05
1.52227e-14
1.98967e-05
2.05949e-05
6.71468e-15
4.53785e-06
-7.30703e-15
5.23599e-06
1.11002e-14
5.93412e-06
-4.24138e-15
6.63225e-06
1.51019e-14
7.33038e-06
-5.2109e-15
8.02851e-06
1.70117e-14
8.72664e-06
-3.94218e-15
9.42478e-06
-2.96126e-16
1.01229e-05
6.60956e-15
1.0821e-05
1.37034e-14
1.15192e-05
1.01826e-14
1.22173e-05
1.8214e-14
1.29154e-05
1.43652e-14
1.36136e-05
2.33387e-14
1.43117e-05
-2.53502e-14
1.50098e-05
2.90699e-14
1.5708e-05
-7.83345e-15
1.64061e-05
3.54151e-14
1.71042e-05
-4.51738e-15
1.78024e-05
4.23646e-14
1.85005e-05
-5.95277e-16
1.91986e-05
-8.74065e-15
1.98967e-05
2.05949e-05
-4.63077e-15
4.53785e-06
5.79737e-15
5.23599e-06
-1.61511e-14
5.93412e-06
-5.975e-15
6.63225e-06
-8.55589e-15
7.33038e-06
4.22278e-15
8.02851e-06
-8.18871e-15
8.72664e-06
6.998e-15
9.42478e-06
-2.42321e-14
1.01229e-05
-7.77085e-15
1.0821e-05
-2.27666e-14
1.15192e-05
8.34739e-15
1.22173e-05
-7.40722e-15
1.29154e-05
2.82629e-14
1.36136e-05
-4.57142e-14
1.43117e-05
-8.22471e-15
1.50098e-05
-2.8231e-14
1.5708e-05
-2.34253e-15
1.64061e-05
-6.94866e-15
1.71042e-05
2.21466e-14
1.78024e-05
-3.41137e-14
1.85005e-05
-3.74509e-15
1.91986e-05
-3.23491e-14
1.98967e-05
2.05949e-05
-8.92539e-15
4.53785e-06
-2.28889e-15
5.23599e-06
-2.2247e-15
5.93412e-06
6.61575e-15
6.63225e-06
-3.38857e-15
7.33038e-06
-3.90751e-15
8.02851e-06
-6.42029e-15
8.72664e-06
-7.15999e-15
9.42478e-06
6.80835e-15
1.01229e-05
6.98094e-15
1.0821e-05
-9.06804e-15
1.15192e-05
6.75724e-15
1.22173e-05
-2.8892e-14
1.29154e-05
-1.22362e-14
1.36136e-05
4.79982e-15
1.43117e-05
2.50227e-14
1.50098e-05
3.85905e-15
1.5708e-05
3.60465e-15
1.64061e-05
-2.04906e-14
1.71042e-05
-2.17605e-14
1.78024e-05
3.46109e-15
1.85005e-05
2.9035e-14
1.91986e-05
-1.66778e-15
1.98967e-05
2.05949e-05
6.21551e-15
4.53785e-06
-3.87989e-15
5.23599e-06
1.54212e-14
5.93412e-06
-7.06552e-15
6.63225e-06
-2.21119e-15
7.33038e-06
1.42829e-15
8.02851e-06
-5.49464e-15
8.72664e-06
1.32249e-14
9.42478e-06
6.04493e-15
1.01229e-05
-1.74532e-14
1.0821e-05
2.08855e-14
1.15192e-05
-2.14477e-14
1.22173e-05
1.91318e-14
1.29154e-05
-7.31763e-15
1.36136e-05
3.84822e-14
1.43117e-05
-1.29267e-14
1.50098e-05
-1.8852e-15
1.5708e-05
5.71315e-15
1.64061e-05
-7.59148e-15
1.71042e-05
2.76539e-14
1.78024e-05
1.40875e-14
1.85005e-05
-5.31513e-14
1.91986e-05
3.90795e-14
1.98967e-05
2.05949e-05
-1.49885e-15
4.53785e-06
1.08966e-14
5.23599e-06
-6.60025e-15
5.93412e-06
7.26506e-15
6.63225e-06
6.17386e-15
7.33038e-06
2.48808e-15
8.02851e-06
-9.66183e-16
8.72664e-06
-4.36611e-15
9.42478e-06
-8.9021e-15
1.01229e-05
1.38616e-14
1.0821e-05
1.06888e-14
1.15192e-05
6.24751e-15
1.22173e-05
-1.307e-16
1.29154e-05
-3.44111e-15
1.36136e-05
-1.10468e-14
1.43117e-05
-1.7768e-14
1.50098e-05
1.76767e-14
1.5708e-05
9.95232e-15
1.64061e-05
3.32475e-15
1.71042e-05
-3.29722e-14
1.78024e-05
-1.04285e-14
1.85005e-05
3.00593e-14
1.91986e-05
-5.99982e-14
1.98967e-05
2.05949e-05
5.16982e-15
4.53785e-06
-7.45624e-15
5.23599e-06
-7.57223e-16
5.93412e-06
6.83878e-15
6.63225e-06
-9.97527e-15
7.33038e-06
-1.66572e-15
8.02851e-06
9.21808e-15
8.72664e-06
-1.34611e-14
9.42478e-06
2.32188e-14
1.01229e-05
1.04709e-14
1.0821e-05
-1.72749e-14
1.15192e-05
-3.02889e-15
1.22173e-05
1.13948e-14
1.29154e-05
-1.98204e-14
1.36136e-05
-4.68152e-15
1.43117e-05
5.03034e-14
1.50098e-05
-2.40488e-14
1.5708e-05
-6.66288e-15
1.64061e-05
1.4255e-14
1.71042e-05
1.64493e-15
1.78024e-05
-6.81634e-15
1.85005e-05
1.44376e-14
1.91986e-05
5.07554e-14
1.98967e-05
2.05949e-05
-6.19759e-15
4.53785e-06
2.80723e-17
5.23599e-06
1.15111e-14
5.93412e-06
-2.06269e-14
6.63225e-06
5.36562e-15
7.33038e-06
1.22066e-15
8.02851e-06
-4.79614e-17
8.72664e-06
1.23925e-14
9.42478e-06
-1.32277e-14
1.01229e-05
-1.88958e-14
1.0821e-05
-4.96655e-15
1.15192e-05
-7.15544e-15
1.22173e-05
-1.48892e-14
1.29154e-05
3.53366e-14
1.36136e-05
-5.05695e-18
1.43117e-05
-4.31413e-14
1.50098e-05
1.35583e-14
1.5708e-05
-2.82608e-14
1.64061e-05
2.45151e-15
1.71042e-05
-1.02436e-14
1.78024e-05
2.37984e-14
1.85005e-05
1.38682e-14
1.91986e-05
-4.55694e-14
1.98967e-05
2.05949e-05
-1.90693e-15
4.53785e-06
1.13024e-15
5.23599e-06
-2.16628e-14
5.93412e-06
9.62309e-15
6.63225e-06
1.51361e-14
7.33038e-06
-1.40664e-14
8.02851e-06
8.09222e-15
8.72664e-06
-2.69607e-14
9.42478e-06
-1.96733e-15
1.01229e-05
2.97146e-14
1.0821e-05
-1.1747e-14
1.15192e-05
1.98659e-14
1.22173e-05
-2.74468e-14
1.29154e-05
-2.06175e-14
1.36136e-05
1.60381e-14
1.43117e-05
-4.61523e-15
1.50098e-05
4.6879e-15
1.5708e-05
4.79639e-14
1.64061e-05
-1.3745e-14
1.71042e-05
3.23689e-14
1.78024e-05
-3.51908e-14
1.85005e-05
-2.49104e-14
1.91986e-05
7.19089e-14
1.98967e-05
2.05949e-05
1.90619e-15
4.53785e-06
-1.13117e-15
5.23599e-06
2.16615e-14
5.93412e-06
-9.62493e-15
6.63225e-06
-1.51379e-14
7.33038e-06
1.4064e-14
8.02851e-06
-8.0947e-15
8.72664e-06
2.69578e-14
9.42478e-06
1.96249e-15
1.01229e-05
-2.97202e-14
1.0821e-05
1.17432e-14
1.15192e-05
-1.98687e-14
1.22173e-05
2.74426e-14
1.29154e-05
2.06142e-14
1.36136e-05
-1.60431e-14
1.43117e-05
4.61017e-15
1.50098e-05
-4.6971e-15
1.5708e-05
-4.79745e-14
1.64061e-05
1.37316e-14
1.71042e-05
-3.23788e-14
1.78024e-05
3.51768e-14
1.85005e-05
2.48957e-14
1.91986e-05
-7.1923e-14
1.98967e-05
2.05949e-05
6.19684e-15
4.53785e-06
-2.88065e-17
5.23599e-06
-1.15121e-14
5.93412e-06
2.06252e-14
6.63225e-06
-5.3677e-15
7.33038e-06
-1.22258e-15
8.02851e-06
4.56915e-17
8.72664e-06
-1.23949e-14
9.42478e-06
1.32237e-14
1.01229e-05
1.88916e-14
1.0821e-05
4.96182e-15
1.15192e-05
7.15185e-15
1.22173e-05
1.48845e-14
1.29154e-05
-3.53427e-14
1.36136e-05
-1.65087e-18
1.43117e-05
4.31342e-14
1.50098e-05
-1.35673e-14
1.5708e-05
2.82538e-14
1.64061e-05
-2.45897e-15
1.71042e-05
1.02376e-14
1.78024e-05
-2.38135e-14
1.85005e-05
-1.38772e-14
1.91986e-05
4.55537e-14
1.98967e-05
2.05949e-05
-5.17048e-15
4.53785e-06
7.45506e-15
5.23599e-06
7.56068e-16
5.93412e-06
-6.84041e-15
6.63225e-06
9.97288e-15
7.33038e-06
1.66409e-15
8.02851e-06
-9.21974e-15
8.72664e-06
1.3458e-14
9.42478e-06
-2.3223e-14
1.01229e-05
-1.0475e-14
1.0821e-05
1.72699e-14
1.15192e-05
3.02427e-15
1.22173e-05
-1.14009e-14
1.29154e-05
1.98136e-14
1.36136e-05
4.67817e-15
1.43117e-05
-5.0312e-14
1.50098e-05
2.4041e-14
1.5708e-05
6.65634e-15