/*--------------------------------*- C++ -*----------------------------------*\
  =========                 |
  \\      /  F ield         | OpenFOAM: The Open Source CFD Toolbox
   \\    /   O peration     | Website:  https://openfoam.org
    \\  /    A nd           | Version:  11
     \\/     M anipulation  |
\*---------------------------------------------------------------------------*/
FoamFile
{
    format      ascii;
    class       surfaceVectorField;
    location    "1.54";
    object      Uf;
}
// * * * * * * * * * * * * * * * * * * * * * * * * * * * * * * * * * * * * * //

dimensions      [0 1 -1 0 0 0 0];

internalField   nonuniform List<vector> 
5640
(
(-0.0438833 0.0390423 2.62023e-19)
(-0.0432655 0.0335852 -4.11711e-19)
(-0.128726 0.04102 1.01739e-19)
(-0.109311 0.0464515 6.22987e-20)
(-0.201243 0.04066 -2.34024e-19)
(-0.212179 0.0365525 -2.54424e-19)
(-0.261611 0.0558619 -1.25502e-19)
(-0.255051 0.0420093 -1.9799e-19)
(-0.351969 0.115163 4.75652e-20)
(-0.322211 0.051838 6.37377e-20)
(-0.502218 0.0785595 -1.49125e-19)
(-0.563085 0.202438 1.94726e-19)
(-0.0991986 0.0425089 -6.42115e-19)
(-0.0743897 0.0356575 -1.04368e-18)
(-0.196506 0.0415433 -2.80326e-19)
(-0.160733 0.0510901 -8.12846e-19)
(-0.267528 0.0399051 -2.16546e-19)
(-0.262799 0.038773 5.39502e-20)
(-0.333659 0.0444712 -3.38933e-20)
(-0.314911 0.0444541 -1.92469e-19)
(-0.421774 0.074162 -1.00063e-19)
(-0.395771 0.0590564 2.09914e-19)
(-0.511223 0.114964 -1.18682e-19)
(-0.540134 0.164713 -4.87724e-19)
(-0.127216 0.0492761 -1.23155e-18)
(-0.0958895 0.0424624 -7.2193e-20)
(-0.229863 0.0491932 -5.16168e-19)
(-0.190782 0.0617729 -4.08923e-20)
(-0.305514 0.0467829 8.99817e-20)
(-0.290941 0.0482474 1.3512e-19)
(-0.37456 0.0573766 4.18562e-20)
(-0.34666 0.0541768 3.04475e-19)
(-0.454822 0.0953597 2.56729e-19)
(-0.422795 0.0742624 -2.5452e-19)
(-0.49603 0.135798 2.07406e-19)
(-0.52121 0.174675 2.41872e-19)
(-0.150335 0.0575308 1.10751e-18)
(-0.117344 0.0495104 5.55337e-19)
(-0.2527 0.0600217 6.03661e-19)
(-0.21524 0.0723728 7.28285e-20)
(-0.326846 0.0580822 3.50644e-19)
(-0.308074 0.0606681 -3.6942e-19)
(-0.390822 0.0718302 2.55713e-20)
(-0.361377 0.0671339 -3.16734e-20)
(-0.454211 0.11302 -3.01672e-19)
(-0.424719 0.0906807 -9.55071e-21)
(-0.470223 0.14904 5.91029e-20)
(-0.491218 0.181531 0)
(-0.17251 0.0643267 -4.5277e-19)
(-0.139438 0.0559914 2.69222e-21)
(-0.269845 0.0715696 -8.82894e-19)
(-0.23638 0.0808703 1.44832e-20)
(-0.337827 0.0712976 -7.59461e-19)
(-0.318048 0.0739189 -3.76875e-20)
(-0.392386 0.0862695 -6.74671e-20)
(-0.365305 0.081049 -2.94526e-19)
(-0.438027 0.125593 3.48893e-19)
(-0.413927 0.105922 3.1782e-19)
(-0.438909 0.157596 8.71058e-22)
(-0.453748 0.184428 -2.79971e-19)
(-0.193507 0.0702237 4.69887e-19)
(-0.159095 0.0635256 1.00392e-20)
(-0.282647 0.0820405 8.62225e-19)
(-0.252833 0.0878172 9.4521e-19)
(-0.341561 0.084779 4.36525e-19)
(-0.322528 0.0868983 3.38192e-19)
(-0.384997 0.100226 7.37081e-20)
(-0.362009 0.094869 7.84513e-20)
(-0.413982 0.136278 -2.29555e-20)
(-0.395996 0.119457 2.28849e-19)
(-0.403815 0.163737 -1.47906e-21)
(-0.41225 0.185811 1.79844e-19)
(-0.21147 0.0806357 4.32196e-19)
(-0.17491 0.0722717 -7.37439e-19)
(-0.290366 0.0920335 4.47007e-19)
(-0.2637 0.0948511 3.99153e-20)
(-0.33994 0.0978347 -1.24935e-20)
(-0.322745 0.0993726 2.92257e-19)
(-0.371949 0.113285 2.29491e-19)
(-0.353835 0.10815 3.84734e-20)
(-0.38572 0.145396 2.55926e-19)
(-0.374088 0.131325 -6.11691e-20)
(-0.366885 0.168428 1.64991e-21)
(-0.368785 0.186316 -2.39512e-19)
(-0.222656 0.0875481 -1.17472e-18)
(-0.188441 0.0805175 2.45824e-22)
(-0.293787 0.10172 -1.25844e-19)
(-0.269996 0.102063 1.75911e-20)
(-0.33443 0.110279 3.5041e-19)
(-0.319699 0.111323 -6.0763e-20)
(-0.35547 0.125315 -2.49759e-19)
(-0.342492 0.120752 3.31247e-19)
(-0.355594 0.153087 -3.16906e-19)
(-0.350281 0.141778 -1.94376e-19)
(-0.329937 0.172049 -5.5716e-20)
(-0.325281 0.186159 -3.00439e-20)
(-0.230896 0.0945592 1.18963e-18)
(-0.199504 0.087951 7.35738e-19)
(-0.293792 0.111196 8.57823e-20)
(-0.272622 0.109352 5.62054e-21)
(-0.326233 0.12212 -9.39413e-20)
(-0.314231 0.122805 -3.99854e-19)
(-0.33718 0.136401 4.01367e-19)
(-0.329265 0.132701 7.59749e-20)
(-0.325297 0.159671 6.30665e-20)
(-0.326067 0.15112 -1.54971e-19)
(-0.294414 0.174894 1.62094e-19)
(-0.283354 0.185475 2.10781e-19)
(-0.236687 0.101424 -4.06234e-19)
(-0.207983 0.0943432 1.14578e-20)
(-0.291091 0.120555 -4.62858e-19)
(-0.272183 0.116715 -6.41466e-21)
(-0.316295 0.13347 -2.46807e-19)
(-0.307021 0.133945 -3.44848e-19)
(-0.318295 0.146719 -4.7415e-19)
(-0.315132 0.144136 -5.43281e-19)
(-0.296116 0.165453 -6.43633e-20)
(-0.302577 0.15967 9.21989e-20)
(-0.261405 0.177235 -1.10356e-19)
(-0.244195 0.184431 4.3174e-19)
(-0.239853 0.10777 4.12308e-19)
(-0.213706 0.0996084 -1.13782e-20)
(-0.286233 0.129838 1.25997e-19)
(-0.269205 0.12415 4.16267e-20)
(-0.305351 0.144481 -6.34618e-19)
(-0.298608 0.144916 -2.22293e-20)
(-0.299768 0.15655 5.28488e-21)
(-0.300851 0.155258 -9.71097e-25)
(-0.269021 0.170738 5.03444e-20)
(-0.280685 0.167759 3.09888e-19)
(-0.231727 0.179386 -1.26212e-21)
(-0.208648 0.183167 -5.02072e-19)
(-0.24036 0.113517 -3.84676e-19)
(-0.216506 0.103765 7.06156e-19)
(-0.279749 0.139144 -1.03263e-19)
(-0.26414 0.131634 -3.68663e-19)
(-0.29398 0.155358 6.11769e-19)
(-0.289405 0.155922 2.58463e-19)
(-0.282281 0.166143 2.95958e-19)
(-0.287016 0.166304 6.10316e-19)
(-0.244725 0.17583 2.65363e-19)
(-0.261073 0.175707 0)
(-0.20591 0.181622 5.19841e-20)
(-0.177051 0.181975 2.25415e-19)
(-0.238249 0.118863 7.84672e-19)
(-0.216205 0.106931 -2.31565e-20)
(-0.272258 0.148106 -3.2752e-20)
(-0.257469 0.139242 4.1056e-20)
(-0.282589 0.166325 2.45372e-19)
(-0.279629 0.167054 -2.1296e-20)
(-0.266419 0.175778 3.31469e-19)
(-0.274116 0.177513 -3.78873e-20)
(-0.22376 0.181021 -2.14637e-19)
(-0.244256 0.183835 2.80291e-19)
(-0.184341 0.184211 -2.19909e-19)
(-0.149506 0.180995 -2.56454e-19)
(-0.233776 0.123625 -7.7016e-19)
(-0.212733 0.109328 -3.17229e-21)
(-0.26334 0.158096 5.5443e-20)
(-0.249178 0.146853 4.54368e-19)
(-0.271547 0.177577 -3.0408e-19)
(-0.269763 0.178556 4.29476e-20)
(-0.252629 0.185712 -9.8258e-20)
(-0.262547 0.189073 -3.60302e-19)
(-0.206512 0.186615 2.87011e-19)
(-0.230597 0.192474 2.83437e-20)
(-0.167358 0.18743 -5.55283e-20)
(-0.125835 0.180284 0)
(-0.226952 0.127891 1.19571e-18)
(-0.205996 0.111476 9.08745e-21)
(-0.253865 0.167927 4.5938e-19)
(-0.239523 0.154465 2.15421e-19)
(-0.261205 0.189259 0)
(-0.25989 0.190476 -1.74559e-19)
(-0.241235 0.196168 -2.44903e-19)
(-0.252587 0.201105 1.09764e-19)
(-0.193233 0.192918 -3.12205e-19)
(-0.220337 0.201933 -3.47218e-19)
(-0.155235 0.19136 -5.55283e-20)
(-0.105042 0.180008 8.94642e-20)
(-0.217933 0.13233 -9.82399e-19)
(-0.195546 0.115356 -1.10054e-18)
(-0.243795 0.17801 -4.02002e-19)
(-0.228707 0.161911 -6.86593e-19)
(-0.251738 0.201444 -7.44012e-20)
(-0.250146 0.202798 1.3828e-20)
(-0.232465 0.20729 1.99767e-20)
(-0.244414 0.213645 1.28056e-19)
(-0.184132 0.200112 -9.75341e-20)
(-0.213653 0.212455 1.14483e-19)
(-0.148306 0.195305 2.89308e-20)
(-0.0856222 0.180383 -4.96345e-22)
(-0.207698 0.138726 -8.27533e-19)
(-0.180279 0.12732 -2.42624e-20)
(-0.233442 0.188253 -3.01278e-19)
(-0.217282 0.16841 -2.36958e-19)
(-0.243256 0.214085 2.12415e-19)
(-0.240607 0.215227 1.77042e-19)
(-0.226468 0.219101 2.22694e-19)
(-0.238095 0.226604 -1.41408e-19)
(-0.179508 0.207993 2.42724e-19)
(-0.210786 0.224247 9.50131e-20)
(-0.14747 0.197309 -2.98047e-20)
(-0.0660046 0.180438 -1.25661e-19)
(-0.189805 0.149924 5.76183e-19)
(-0.162578 0.135502 3.39951e-19)
(-0.223097 0.197735 2.21789e-19)
(-0.20678 0.171686 2.26738e-19)
(-0.235711 0.226873 -1.65888e-19)
(-0.231113 0.226965 -1.12547e-20)
(-0.223404 0.231586 -2.75096e-19)
(-0.233486 0.239803 -1.59739e-19)
(-0.180501 0.216149 -1.74358e-19)
(-0.212119 0.237809 -9.77439e-20)
(-0.154941 0.19555 -1.23428e-20)
(-0.0452163 0.176861 -6.84962e-20)
(-0.175366 0.14931 -3.38479e-21)
(-0.145249 0.129363 -6.92584e-21)
(-0.212644 0.203869 3.82173e-21)
(-0.194947 0.170266 -3.66502e-23)
(-0.228756 0.239202 0)
(-0.220765 0.237094 2.90346e-21)
(-0.223213 0.244976 1.60827e-20)
(-0.22999 0.253016 9.82673e-21)
(-0.188802 0.225293 6.37044e-20)
(-0.217725 0.254638 1.65466e-20)
(-0.173532 0.191277 3.6969e-20)
(-0.0224453 0.168893 6.83019e-20)
(-0.161261 0.141954 -3.48879e-21)
(-0.126938 0.118153 -7.18505e-20)
(-0.200808 0.206782 -1.49033e-21)
(-0.18025 0.16511 -3.70239e-21)
(-0.221481 0.250519 1.24963e-20)
(-0.208601 0.245157 -4.52953e-20)
(-0.225112 0.259922 1.01022e-20)
(-0.226373 0.265313 3.79944e-20)
(-0.20348 0.238981 -7.67532e-21)
(-0.22631 0.278154 -3.52626e-20)
(-0.197317 0.18973 1.85796e-21)
(0.00638334 0.178667 -4.03664e-20)
(-0.142613 0.13235 -7.59957e-20)
(-0.107555 0.105958 5.78548e-21)
(-0.186211 0.206707 -4.61477e-20)
(-0.162238 0.156546 -1.17195e-19)
(-0.212533 0.259876 -2.26342e-20)
(-0.193856 0.250855 9.62849e-20)
(-0.227052 0.277202 -4.99564e-21)
(-0.220327 0.274697 -1.40598e-20)
(-0.218969 0.263667 -2.79427e-20)
(-0.234493 0.311442 -8.73977e-21)
(-0.213503 0.197691 1.81393e-20)
(0.0472691 0.230247 1.15748e-20)
(-0.12411 0.120487 -2.85301e-20)
(-0.087528 0.091737 7.19672e-20)
(-0.169157 0.203784 1.70231e-20)
(-0.140327 0.143483 2.57154e-20)
(-0.200637 0.266001 1.08324e-19)
(-0.175977 0.252699 3.728e-20)
(-0.225751 0.296132 -1.75441e-20)
(-0.208547 0.27698 1.34876e-19)
(-0.230033 0.301745 2.60698e-20)
(-0.237933 0.353896 2.67874e-20)
(-0.2182 0.213745 -1.37686e-19)
(0.0972015 0.312087 4.08216e-21)
(-0.103675 0.103004 1.29119e-19)
(-0.0651281 0.0607247 -1.15238e-20)
(-0.149208 0.196191 4.60215e-20)
(-0.11088 0.111024 1.4145e-19)
(-0.18467 0.264214 6.17429e-20)
(-0.152745 0.236531 -3.27729e-19)
(-0.217914 0.311724 1.82238e-19)
(-0.184363 0.253144 -1.91108e-19)
(-0.233387 0.347577 -1.42402e-19)
(-0.230817 0.393886 1.16205e-19)
(-0.20316 0.199656 2.12192e-20)
(0.160269 0.414855 -1.70146e-19)
(-0.0688606 0.0552184 -6.4042e-21)
(-0.115745 0.158176 -2.12335e-19)
(-0.14966 0.22568 -5.87036e-19)
(-0.185956 0.299722 -2.67716e-19)
(-0.210926 0.361621 2.25485e-19)
(0.214664 0.493069 2.16686e-19)
(-0.497726 0.323135 1.51517e-19)
(-0.523281 0.300775 -1.787e-19)
(-0.460611 0.35809 2.48684e-19)
(-0.488979 0.284277 3.58617e-20)
(-0.49609 0.302766 1.17636e-19)
(-0.489923 0.303281 -3.70208e-20)
(-0.474503 0.235583 -2.08384e-19)
(-0.468136 0.26266 1.82331e-19)
(-0.491233 0.255939 5.70513e-20)
(-0.450804 0.178318 -1.12268e-19)
(-0.43605 0.213377 1.71706e-19)
(-0.485555 0.20312 -6.23308e-20)
(-0.413161 0.107842 9.88125e-20)
(-0.392299 0.151506 2.66861e-19)
(-0.467914 0.140981 6.37343e-21)
(-0.355966 0.0204557 4.58786e-20)
(-0.329936 0.0721653 4.52487e-20)
(-0.434762 0.0651855 -2.22848e-19)
(-0.274284 -0.0830638 -4.59622e-22)
(-0.241808 -0.0275488 -9.45457e-20)
(-0.380194 -0.0261894 4.11481e-20)
(-0.168008 -0.195578 7.39919e-20)
(-0.125613 -0.142491 3.36719e-21)
(-0.30074 -0.129304 -8.10296e-20)
(-0.0420987 -0.304057 2.0221e-20)
(0.0132508 -0.261666 7.99089e-20)
(-0.198004 -0.234735 1.33357e-20)
(0.0943126 -0.394204 4.6075e-20)
(0.164049 -0.36935 1.41445e-20)
(-0.0791275 -0.329682 1.93402e-21)
(0.228971 -0.456896 9.70733e-20)
(0.313401 -0.449876 9.61298e-20)
(0.0461082 -0.403377 8.71887e-21)
(0.351883 -0.490228 -4.54861e-20)
(0.44721 -0.496945 7.09846e-20)
(0.167116 -0.450133 -5.95638e-20)
(0.458268 -0.497928 -7.06591e-22)
(0.559438 -0.513695 -6.12951e-20)
(0.276969 -0.470918 -4.16986e-20)
(0.546939 -0.486271 4.39425e-20)
(0.649852 -0.506899 3.10906e-20)
(0.37266 -0.470897 2.73786e-20)
(0.619258 -0.461651 1.25365e-20)
(0.72109 -0.48398 -3.47651e-20)
(0.453852 -0.455651 0)
(0.677816 -0.429471 7.66003e-21)
(0.776867 -0.451498 -9.33211e-21)
(0.521853 -0.430435 1.73466e-21)
(0.725495 -0.393651 -5.97888e-21)
(0.820902 -0.414344 1.29316e-20)
(0.578677 -0.399384 -2.85764e-21)
(0.764988 -0.356819 1.51674e-21)
(0.856402 -0.375798 -1.79359e-20)
(0.626541 -0.365437 6.03974e-21)
(0.798605 -0.32066 -4.55344e-22)
(0.885888 -0.337959 -6.68603e-21)
(0.667497 -0.330611 -2.3925e-21)
(0.828245 -0.286257 -9.0552e-22)
(0.91146 -0.302048 5.98859e-21)
(0.703427 -0.296219 -4.86137e-22)
(0.85562 -0.254381 8.24237e-23)
(0.934685 -0.26911 -9.11365e-22)
(0.735768 -0.263179 3.52578e-21)
(0.882045 -0.225184 2.26989e-22)
(0.958265 -0.239362 2.81811e-21)
(0.766781 -0.232004 8.17794e-22)
(0.908722 -0.199236 -1.15792e-21)
(0.977083 -0.214383 -2.71478e-22)
(0.794616 -0.203181 -2.30062e-21)
(1.01136 -0.18924 -1.51872e-21)
(0.831041 -0.176117 2.77038e-21)
(-0.513808 0.294278 -1.70027e-19)
(-0.529568 0.268535 -1.92359e-19)
(-0.471496 0.282196 2.6275e-19)
(-0.477809 0.291398 2.9167e-19)
(-0.428337 0.241264 5.65643e-19)
(-0.425996 0.262509 -2.15043e-21)
(-0.376122 0.187196 5.50494e-19)
(-0.365692 0.218935 3.38669e-19)
(-0.306826 0.116214 2.19372e-19)
(-0.29039 0.158886 2.03176e-21)
(-0.21359 0.024178 -9.32295e-20)
(-0.19169 0.0776791 -1.07007e-19)
(-0.0918791 -0.0882411 -9.58586e-20)
(-0.0627918 -0.0282536 5.31028e-21)
(0.054493 -0.212594 1.25859e-20)
(0.0950143 -0.151088 1.90241e-19)
(0.21622 -0.332824 8.03564e-20)
(0.271184 -0.279091 3.25118e-19)
(0.378651 -0.431808 6.92326e-20)
(0.449485 -0.392909 -7.66218e-20)
(0.527792 -0.496719 7.02879e-20)
(0.611848 -0.476016 0)
(0.652583 -0.526119 4.68517e-20)
(0.741927 -0.519879 -9.23276e-20)
(0.750501 -0.526956 -3.08982e-20)
(0.83884 -0.530144 -8.50538e-21)
(0.824728 -0.507729 -4.60177e-20)
(0.90861 -0.516721 2.8884e-20)
(0.880099 -0.476103 -5.68357e-20)
(0.957842 -0.488192 -7.40145e-20)
(0.921578 -0.438128 -1.50149e-21)
(0.992698 -0.451625 8.59014e-21)
(0.953358 -0.397977 7.3114e-21)
(1.01806 -0.411923 3.94538e-20)
(0.978684 -0.358301 -2.62168e-20)
(1.03739 -0.372204 -1.98882e-20)
(1.00002 -0.32076 -4.48228e-21)
(1.05301 -0.334442 -6.2337e-21)
(1.01934 -0.286466 6.02699e-21)
(1.06677 -0.299853 -2.22098e-21)
(1.0378 -0.255995 1.80129e-21)
(1.07901 -0.269176 7.89257e-21)
(1.05548 -0.22943 -4.58265e-21)
(1.0914 -0.241477 4.80147e-21)
(1.07304 -0.207416 2.61132e-20)
(1.10008 -0.218931 -1.30782e-21)
(1.1215 -0.195813 -3.99206e-21)
(-0.493166 0.271904 2.5344e-19)
(-0.506662 0.248767 0)
(-0.432333 0.274093 3.34104e-20)
(-0.440121 0.278244 -7.87971e-21)
(-0.362388 0.241702 -2.36184e-19)
(-0.365848 0.258185 -1.74674e-19)
(-0.278936 0.191789 -2.08649e-19)
(-0.277046 0.219786 -4.96926e-20)
(-0.17325 0.121461 -3.26006e-19)
(-0.167554 0.161558 -4.43902e-19)
(-0.0390731 0.0265574 -1.69986e-20)
(-0.0299157 0.0792212 1.11126e-19)
(0.124664 -0.0914533 2.85153e-19)
(0.140725 -0.0302134 2.01758e-19)
(0.310165 -0.221197 5.03219e-19)
(0.338185 -0.1574 -9.03755e-20)
(0.500068 -0.345787 1.56559e-19)
(0.544419 -0.286709 3.27064e-19)
(0.676255 -0.445918 -1.46654e-19)
(0.738126 -0.399429 -2.75263e-19)
(0.820751 -0.507702 -1.61709e-19)
(0.894732 -0.477783 1.22664e-19)
(0.926056 -0.530946 -1.47041e-19)
(1.00205 -0.514237 -6.12692e-21)
(0.997324 -0.525746 4.79476e-20)
(1.0691 -0.518192 -1.17327e-20)
(1.04384 -0.502254 4.3551e-21)
(1.10919 -0.501579 4.13724e-20)
(1.07341 -0.468509 7.82548e-21)
(1.13158 -0.472059 -3.92494e-20)
(1.09239 -0.430181 6.66487e-20)
(1.14334 -0.436575 5.94455e-20)
(1.10516 -0.390842 1.87974e-20)
(1.14923 -0.399322 8.32289e-21)
(1.11448 -0.352717 0)
(1.15216 -0.362689 0)
(1.12197 -0.3172 -8.15481e-21)
(1.15379 -0.328024 0)
(1.12822 -0.284991 -2.27536e-21)
(1.155 -0.295944 -8.20957e-21)
(1.13332 -0.256273 6.9742e-21)
(1.1555 -0.267088 7.89257e-21)
(1.13783 -0.231477 1.4223e-21)
(1.15597 -0.241535 -4.18337e-21)
(1.1421 -0.210762 -2.56792e-21)
(1.15557 -0.220223 1.44602e-22)
(1.15965 -0.197665 -1.09481e-21)
(-0.453255 0.256533 -2.56082e-19)
(-0.467524 0.236201 -4.11052e-19)
(-0.375119 0.263999 -2.0719e-19)
(-0.388178 0.265431 -1.96319e-19)
(-0.28048 0.238097 1.20806e-20)
(-0.292685 0.251183 -5.5241e-22)
(-0.165505 0.191392 -2.78284e-19)
(-0.175802 0.216055 -2.32231e-19)
(-0.0235041 0.121229 -1.52029e-20)
(-0.0329489 0.158977 -3.42526e-19)
(0.151074 0.0247839 3.21653e-19)
(0.142521 0.0751299 1.06773e-19)
(0.353546 -0.0948238 -1.71607e-19)
(0.352023 -0.035104 1.01902e-19)
(0.56884 -0.224124 -2.84026e-19)
(0.582284 -0.160986 -9.6282e-20)
(0.774611 -0.344717 -1.27579e-19)
(0.807652 -0.284989 -5.31777e-21)
(0.946891 -0.437471 2.34699e-20)
(1.00028 -0.388138 -2.58871e-19)
(1.06903 -0.48993 2.88279e-19)
(1.13411 -0.455128 2.43842e-19)
(1.14216 -0.505654 1.47893e-19)
(1.20784 -0.481443 7.99693e-20)
(1.18075 -0.497182 -9.77132e-21)
(1.24224 -0.480356 5.05029e-20)
(1.1987 -0.473764 0)
(1.25498 -0.464526 -5.68507e-20)
(1.20384 -0.442343 2.84099e-21)
(1.25443 -0.437342 0)
(1.20245 -0.40787 -1.55459e-20)
(1.24737 -0.406073 2.86341e-20)
(1.19825 -0.373217 -1.87068e-20)
(1.23775 -0.373934 -6.90897e-20)
(1.19325 -0.339922 0)
(1.22762 -0.34262 0)
(1.18831 -0.308726 0)
(1.21791 -0.312945 1.31696e-20)
(1.18368 -0.280033 0)
(1.2088 -0.285289 0)
(1.17934 -0.254144 2.30271e-21)
(1.20015 -0.259815 6.97874e-21)
(1.17486 -0.231287 4.28935e-21)
(1.19152 -0.236474 -1.11773e-20)
(1.1684 -0.210004 1.62483e-21)
(1.18212 -0.215107 8.31408e-21)
(1.17155 -0.190909 4.06685e-21)
(-0.402755 0.245246 -3.58872e-19)
(-0.419931 0.227346 -1.13717e-19)
(-0.307536 0.253389 6.21857e-21)
(-0.327896 0.253067 6.60525e-20)
(-0.188787 0.230914 -2.39483e-19)
(-0.211919 0.241651 4.94908e-23)
(-0.0438338 0.185717 -2.93575e-19)
(-0.0685558 0.207874 -1.14712e-19)
(0.133094 0.115769 -2.35159e-19)
(0.105827 0.15047 -3.37721e-19)
(0.343804 0.0189964 -1.12236e-19)
(0.317232 0.0664317 1.04555e-19)
(0.57903 -0.0984257 1.83074e-19)
(0.562639 -0.041525 -2.00651e-19)
(0.815003 -0.221523 1.842e-19)
(0.817693 -0.160313 8.69181e-20)
(1.02295 -0.3308 -1.30864e-19)
(1.04875 -0.272443 -1.78759e-19)
(1.17602 -0.409754 2.34121e-20)
(1.22184 -0.359622 -2.70234e-19)
(1.26553 -0.449662 3.71409e-20)
(1.31987 -0.412558 2.19594e-19)
(1.3047 -0.457848 -2.7238e-20)
(1.35754 -0.429935 -2.41391e-19)
(1.31571 -0.44841 2.88968e-21)
(1.36489 -0.426581 1.29846e-19)
(1.31182 -0.428089 -5.73248e-20)
(1.35773 -0.413424 -5.68507e-20)
(1.29925 -0.401112 2.44244e-20)
(1.34042 -0.390736 -3.86998e-20)
(1.28373 -0.372124 -2.15976e-20)
(1.32065 -0.364945 2.46199e-20)
(1.2679 -0.343225 -5.08839e-20)
(1.30094 -0.338453 -5.05176e-20)
(1.25284 -0.31545 1.30781e-20)
(1.28228 -0.312492 0)
(1.23881 -0.289275 1.32574e-20)
(1.26485 -0.287643 -1.26363e-20)
(1.22562 -0.264841 6.93398e-21)
(1.24837 -0.264153 -1.03192e-20)
(1.21269 -0.242053 -6.38918e-21)
(1.23225 -0.241995 -2.4249e-20)
(1.1991 -0.220579 -1.01787e-20)
(1.21565 -0.220873 2.63151e-20)
(1.18242 -0.198381 2.88911e-20)
(1.1973 -0.199901 -1.03593e-20)
(1.17493 -0.174189 5.40129e-21)
(-0.346284 0.235297 3.04253e-19)
(-0.368768 0.219985 -6.94915e-20)
(-0.23453 0.241878 6.12657e-20)
(-0.263684 0.240963 6.57009e-20)
(-0.0931009 0.220329 1.26912e-19)
(-0.128331 0.229728 1.2483e-19)
(0.0800438 0.175205 -1.49846e-19)
(0.0399766 0.195589 4.70651e-21)
(0.289778 0.10509 -2.37618e-20)
(0.245638 0.137633 3.28275e-21)
(0.535594 0.0105131 2.88161e-20)
(0.494395 0.0551075 3.20743e-19)
(0.798057 -0.100029 -2.95525e-19)
(0.772112 -0.0460318 -2.98832e-19)
(1.04335 -0.210655 -2.58242e-19)
(1.04064 -0.151819 -9.25223e-20)
(1.23611 -0.303122 -3.40017e-19)
(1.2575 -0.246864 -3.84232e-22)
(1.35446 -0.365185 -4.5573e-20)
(1.39172 -0.315937 -1.37509e-19)
(1.40564 -0.393824 -7.26303e-20)
(1.44828 -0.356127 2.10774e-19)
(1.41502 -0.398487 -9.0488e-20)
(1.45507 -0.368994 -6.53179e-20)
(1.40642 -0.391168 7.02679e-20)
(1.44468 -0.366924 1.8183e-19)
(1.38699 -0.37578 -3.83771e-20)
(1.42294 -0.357191 -1.07063e-19)
(1.36274 -0.354264 -3.90072e-20)
(1.39528 -0.340461 1.21628e-21)
(1.33869 -0.331173 0)
(1.3682 -0.320966 2.89551e-20)
(1.31605 -0.307791 0)
(1.3427 -0.30034 0)
(1.29495 -0.28484 -2.65341e-20)
(1.3188 -0.279481 0)
(1.27499 -0.262698 -3.71484e-20)
(1.29615 -0.258854 2.16561e-22)
(1.25553 -0.241452 -4.20275e-20)
(1.27416 -0.238668 -5.32823e-22)
(1.23569 -0.220897 5.42252e-21)
(1.25205 -0.218889 -2.45608e-20)
(1.21423 -0.20029 2.68112e-20)
(1.22882 -0.199155 3.98095e-20)
(1.18836 -0.177048 -1.62675e-20)
(1.20303 -0.178108 -1.23923e-20)
(1.17172 -0.151141 -3.96056e-22)
(-0.287931 0.225758 -3.12782e-19)
(-0.317111 0.213187 -3.28315e-19)
(-0.16016 0.229296 1.28027e-19)
(-0.199003 0.228691 1.31846e-19)
(0.00288138 0.206813 9.51585e-21)
(-0.0450587 0.215652 1.83747e-21)
(0.204196 0.160946 1.6322e-19)
(0.148746 0.180277 5.9196e-20)
(0.449249 0.0919428 3.32687e-19)
(0.390091 0.122934 1.17308e-19)
(0.729548 0.00342387 1.82055e-20)
(0.678742 0.0456407 4.06427e-19)
(1.0097 -0.0951323 -9.94419e-20)
(0.979989 -0.04304 -1.17913e-20)
(1.24562 -0.187973 1.53131e-19)
(1.24174 -0.132013 0)
(1.40184 -0.261632 1.60637e-19)
(1.41953 -0.208001 -1.0915e-19)
(1.47609 -0.308527 1.36532e-19)
(1.505 -0.261648 1.03232e-19)
(1.49321 -0.331224 2.11076e-19)
(1.52589 -0.292664 -5.82652e-22)
(1.4836 -0.336866 2.02339e-19)
(1.51443 -0.305505 1.69269e-19)
(1.46114 -0.332442 7.23287e-21)
(1.49146 -0.306847 1.67149e-19)
(1.43127 -0.321424 -6.99664e-20)
(1.46037 -0.300695 -1.07063e-19)
(1.40122 -0.306584 6.73386e-20)
(1.42831 -0.289958 -2.68907e-20)
(1.37266 -0.289725 2.91746e-20)
(1.39767 -0.276449 1.119e-19)
(1.34584 -0.271809 0)
(1.36877 -0.261312 -8.82262e-20)
(1.32039 -0.253413 2.67858e-20)
(1.34123 -0.24523 8.46911e-20)
(1.29571 -0.234849 3.71988e-20)
(1.31455 -0.228569 6.91526e-21)
(1.27109 -0.216205 1.74168e-20)
(1.28811 -0.211481 2.21318e-20)
(1.24566 -0.197252 7.33055e-21)
(1.26121 -0.193926 -9.08655e-21)
(1.2181 -0.177106 2.79712e-21)
(1.23292 -0.175462 -7.72067e-21)
(1.18569 -0.153209 3.78072e-21)
(1.20174 -0.154503 -2.08798e-20)
(1.16468 -0.12696 7.0874e-21)
(-0.230445 0.21622 1.04005e-19)
(-0.267032 0.206617 2.93809e-19)
(-0.0869214 0.2156 8.98055e-21)
(-0.136142 0.215947 1.31895e-19)
(0.0985512 0.191092 5.29118e-20)
(0.0370892 0.199906 -1.20572e-19)
(0.332499 0.145414 1.91104e-20)
(0.261446 0.163723 3.40036e-19)
(0.617951 0.081169 1.86655e-19)
(0.546829 0.110721 -1.08065e-19)
(0.926628 0.00345434 3.95307e-19)
(0.872142 0.0446412 3.84302e-19)
(1.20556 -0.0784178 8.74991e-20)
(1.17731 -0.0279548 -1.90133e-19)
(1.40662 -0.152932 -2.6098e-19)
(1.40383 -0.0995801 0)
(1.51326 -0.210337 -1.34641e-19)
(1.5271 -0.159868 -1.2336e-19)
(1.54853 -0.247284 -9.22873e-21)
(1.57002 -0.203206 1.09283e-19)
(1.54444 -0.26723 -3.34749e-20)
(1.56819 -0.22988 -1.97709e-19)
(1.52188 -0.274598 1.30521e-19)
(1.546 -0.243374 1.96365e-19)
(1.49043 -0.274377 5.54584e-20)
(1.5147 -0.248057 -6.9087e-20)
(1.45734 -0.268678 -6.46561e-20)
(1.48089 -0.246638 -9.0246e-20)
(1.425 -0.259306 1.646e-20)
(1.44729 -0.240988 -6.51999e-20)
(1.39404 -0.247618 -1.33439e-21)
(1.4149 -0.232437 8.42391e-20)
(1.36437 -0.234411 -5.81268e-21)
(1.3838 -0.221879 -3.34411e-20)
(1.33555 -0.220128 6.70184e-20)
(1.35363 -0.209856 4.72477e-20)
(1.30706 -0.204992 -6.80894e-21)
(1.32393 -0.196679 -3.44751e-20)
(1.27836 -0.189025 -2.4058e-21)
(1.29424 -0.182484 -1.76164e-20)
(1.24872 -0.171942 -2.16123e-20)
(1.26397 -0.167206 -7.61605e-21)
(1.21678 -0.152792 -3.05299e-20)
(1.2322 -0.150297 2.27581e-20)
(1.17992 -0.129209 -7.47065e-21)
(1.19742 -0.13003 -3.44101e-20)
(1.15673 -0.102983 6.43389e-21)
(-0.175493 0.206483 3.25722e-19)
(-0.219993 0.200129 5.4565e-19)
(-0.0154527 0.200965 9.0919e-21)
(-0.0761259 0.202624 3.90637e-19)
(0.19706 0.174613 1.57987e-19)
(0.120239 0.183375 -1.2003e-19)
(0.472787 0.132283 2.27152e-19)
(0.38613 0.149602 2.14382e-19)
(0.798879 0.0788759 8.41711e-20)
(0.721065 0.107207 1.01068e-19)
(1.11862 0.0160877 -1.79365e-19)
(1.06652 0.0574917 -3.80299e-19)
(1.36885 -0.0488828 -2.73599e-19)
(1.34544 -5.91533e-05 -4.25494e-19)
(1.5165 -0.108479 1.30744e-19)
(1.51466 -0.058057 1.43606e-19)
(1.5772 -0.154979 1.33794e-19)
(1.5872 -0.107975 1.32322e-19)
(1.58592 -0.186848 -8.56023e-20)
(1.60145 -0.145336 0)
(1.56828 -0.206102 3.24669e-20)
(1.5864 -0.170272 -1.88083e-20)
(1.5387 -0.216179 1.68421e-21)
(1.55782 -0.185378 5.76025e-20)
(1.50512 -0.219724 -2.11255e-19)
(1.52429 -0.193213 -2.97284e-20)
(1.47088 -0.218476 -9.09987e-20)
(1.48961 -0.195802 -2.04282e-19)
(1.43735 -0.213723 0)
(1.45536 -0.194511 -5.2321e-20)
(1.40488 -0.206399 5.43698e-20)
(1.42209 -0.190255 2.87612e-20)
(1.37329 -0.197123 1.92659e-20)
(1.38972 -0.18366 3.56233e-20)
(1.34222 -0.186285 -5.19213e-20)
(1.35796 -0.17515 -3.41139e-20)
(1.31129 -0.174101 -4.48934e-20)
(1.32646 -0.165008 -1.76465e-20)
(1.28005 -0.160587 -2.26823e-20)
(1.29485 -0.153389 -3.56329e-20)
(1.24775 -0.145414 3.66836e-20)
(1.26257 -0.140235 4.21101e-21)
(1.21294 -0.127639 1.8333e-20)
(1.22858 -0.124939 2.84811e-20)
(1.1731 -0.105188 -1.0767e-20)
(1.19146 -0.105743 -1.04744e-20)
(1.14839 -0.079926 -3.44124e-22)
(-0.123847 0.196501 6.14281e-19)
(-0.176918 0.193726 7.00221e-20)
(0.0558818 0.185904 2.7413e-19)
(-0.0185169 0.18877 2.55873e-19)
(0.305248 0.16032 -6.81105e-20)
(0.210034 0.167875 1.73928e-19)
(0.631013 0.128143 9.19989e-20)
(0.531383 0.143685 -3.34272e-19)
(0.985564 0.0897199 -3.46159e-19)
(0.90826 0.119002 2.94881e-19)
(1.28827 0.042649 -6.2177e-19)
(1.24322 0.0841442 -2.86326e-19)
(1.48533 -0.0103637 2.55284e-22)
(1.46718 0.0370936 -2.31955e-19)
(1.5795 -0.0600071 1.45319e-19)
(1.57788 -0.0126614 2.58957e-19)
(1.60755 -0.100078 0)
(1.61451 -0.0563298 -2.00514e-19)
(1.60005 -0.129396 6.69902e-20)
(1.61153 -0.0902872 0)
(1.57531 -0.149375 4.49858e-21)
(1.58906 -0.114874 6.76963e-20)
(1.54331 -0.161921 2.55718e-20)
(1.558 -0.131669 -1.63256e-20)
(1.50886 -0.168829 -2.10254e-20)
(1.5238 -0.142407 9.73201e-20)
(1.4742 -0.171455 -1.66871e-19)
(1.48906 -0.148505 -5.06608e-20)
(1.44024 -0.170722 -2.49081e-20)
(1.45487 -0.150945 -9.65268e-20)
(1.40709 -0.167256 1.07288e-20)
(1.42146 -0.150381 1.2525e-19)
(1.37456 -0.161498 -1.63464e-20)
(1.3887 -0.14726 -6.26836e-20)
(1.34236 -0.153762 3.49006e-22)
(1.35633 -0.141909 1.43339e-20)
(1.3102 -0.14425 -7.8422e-21)
(1.32408 -0.134573 -4.54236e-21)
(1.27761 -0.132987 -9.85546e-21)
(1.29161 -0.125398 1.64548e-20)
(1.24374 -0.119663 -5.85294e-21)
(1.25821 -0.11433 -2.60206e-20)
(1.20707 -0.103426 -1.48244e-21)
(1.22282 -0.100718 9.62189e-21)
(1.16523 -0.0825473 -2.07155e-20)
(1.18417 -0.082846 -1.98694e-21)
(1.1395 -0.0587148 -9.19686e-22)
(-0.0752129 0.186382 -2.92087e-19)
(-0.138176 0.187454 -3.29733e-19)
(0.131166 0.171577 1.58553e-19)
(0.038893 0.174807 5.80155e-20)
(0.431073 0.152888 -8.24124e-20)
(0.315194 0.157552 -6.21249e-20)
(0.804943 0.138417 -1.52362e-19)
(0.699532 0.153037 -2.25373e-19)
(1.16179 0.115663 3.70164e-19)
(1.09168 0.147039 1.09294e-19)
(1.41758 0.0784854 9.67804e-20)
(1.38138 0.120314 1.7382e-19)
(1.555 0.0326265 3.62954e-20)
(1.54122 0.0782933 -2.02033e-19)
(1.60921 -0.0111214 -9.26523e-20)
(1.60744 0.0332103 3.18067e-19)
(1.61656 -0.047639 -2.02746e-19)
(1.62121 -0.0067018 -1.19426e-19)
(1.59978 -0.075986 0)
(1.60798 -0.0389747 -7.50628e-20)
(1.57156 -0.0969402 4.66181e-20)
(1.58169 -0.0638232 -5.04011e-20)
(1.53855 -0.111785 5.32984e-20)
(1.54966 -0.0823299 7.46642e-21)
(1.50415 -0.121721 6.77586e-20)
(1.51571 -0.0956535 4.31648e-20)
(1.46988 -0.127687 1.91029e-20)
(1.48165 -0.104756 8.01283e-20)
(1.43625 -0.130351 4.99085e-20)
(1.44815 -0.110342 -1.05736e-19)
(1.40323 -0.130181 5.29623e-20)
(1.41527 -0.112901 9.57501e-20)
(1.37063 -0.12752 -3.30795e-20)
(1.38283 -0.11278 -3.15162e-20)
(1.3382 -0.122625 9.4611e-21)
(1.35062 -0.110245 1.83405e-20)
(1.30566 -0.115668 1.97225e-20)
(1.31838 -0.10551 -2.0485e-20)
(1.27245 -0.106641 1.3283e-21)
(1.2857 -0.0987002 2.21402e-20)
(1.23762 -0.0952593 -1.27273e-20)
(1.25176 -0.0897512 -2.01485e-20)
(1.19968 -0.0808024 2.63171e-21)
(1.21552 -0.0780017 1.34557e-20)
(1.15649 -0.0618713 -2.62872e-21)
(1.1759 -0.061719 -1.67302e-21)
(1.1302 -0.0396493 0)
(-0.0280531 0.176506 1.04065e-20)
(-0.103659 0.181259 -1.09616e-19)
(0.216956 0.160947 -1.61071e-19)
(0.100692 0.161947 -1.34598e-19)
(0.577917 0.159642 -2.01288e-19)
(0.444358 0.159409 -3.51186e-19)
(0.981968 0.164781 1.23965e-20)
(0.880226 0.181789 -5.08234e-20)
(1.30713 0.152538 -8.58032e-20)
(1.24879 0.186065 9.12437e-20)
(1.50122 0.118713 -1.23697e-19)
(1.47346 0.160898 -1.36583e-19)
(1.59022 0.076678 7.30576e-20)
(1.57926 0.120397 -1.10285e-19)
(1.61747 0.0362468 2.77814e-19)
(1.61532 0.0780683 1.01717e-19)
(1.61184 0.00146837 4.10479e-21)
(1.61464 0.040189 -5.77019e-20)
(1.5897 -0.0267809 -1.25721e-19)
(1.59537 0.00851059 -6.48252e-20)
(1.55985 -0.0489479 -8.92542e-20)
(1.56717 -0.0170549 -5.04011e-20)
(1.52697 -0.0658681 -2.97434e-21)
(1.53521 -0.037206 3.26141e-20)
(1.49338 -0.0783734 5.51429e-20)
(1.50217 -0.0527466 6.08636e-20)
(1.46008 -0.0871432 -4.19105e-20)
(1.46927 -0.0643775 -2.19852e-20)
(1.42732 -0.0926763 -6.20186e-20)
(1.4369 -0.0726276 -3.13183e-20)
(1.39502 -0.0953316 1.21932e-20)
(1.40502 -0.0778691 0)
(1.36298 -0.0953853 1.90476e-20)
(1.37345 -0.0803751 1.22864e-20)
(1.33096 -0.0930581 -1.08533e-20)
(1.34195 -0.0803678 8.94832e-21)
(1.2986 -0.0884937 -1.80348e-20)
(1.31024 -0.07803 -9.21605e-21)
(1.26528 -0.0816738 2.0019e-21)
(1.2778 -0.0734789 -1.51641e-21)
(1.22997 -0.0723428 3.77333e-21)
(1.24375 -0.0666477 -1.27889e-21)
(1.19131 -0.0599064 2.89316e-21)
(1.2071 -0.0568921 3.7043e-21)
(1.1473 -0.0432435 1.13904e-21)
(1.16697 -0.0424022 -9.15749e-21)
(1.12073 -0.0226663 1.49685e-20)
(0.0206004 0.167541 -2.55979e-19)
(-0.0726821 0.174728 0)
(0.320186 0.159132 -3.22593e-19)
(0.173889 0.153065 -2.62267e-19)
(0.740456 0.184228 -2.13366e-19)
(0.599262 0.182007 1.61969e-19)
(1.14259 0.204732 1.89217e-20)
(1.05275 0.225937 -3.37365e-19)
(1.41162 0.193924 4.61551e-20)
(1.36523 0.230154 2.69947e-20)
(1.54827 0.160535 -1.24697e-19)
(1.52651 0.202532 -1.14543e-21)
(1.6023 0.120208 -8.49744e-20)
(1.59296 0.162216 2.81079e-20)
(1.61165 0.0813274 -2.37776e-19)
(1.609 0.121187 -2.11385e-19)
(1.59797 0.0471418 -1.28047e-19)
(1.5992 0.0841069 -9.23603e-20)
(1.57291 0.01844 1.03444e-20)
(1.57644 0.0523118 1.07763e-19)
(1.54268 -0.00500283 7.00614e-20)
(1.54761 0.0258151 -7.68431e-21)
(1.51058 -0.0237649 9.55421e-20)
(1.51638 0.00413772 3.18449e-20)
(1.47823 -0.0384658 -1.53076e-20)
(1.48465 -0.0133217 2.43561e-20)
(1.44625 -0.0496256 -1.13813e-20)
(1.45322 -0.0271076 -4.71984e-20)
(1.41475 -0.0576313 2.99015e-20)
(1.42229 -0.0376398 2.87932e-20)
(1.3836 -0.0627658 0)
(1.39177 -0.0452181 0)