/*--------------------------------*- C++ -*----------------------------------*  =========                 |
  \      /  F ield         | OpenFOAM: The Open Source CFD Toolbox
   \    /   O peration     | Website:  https://openfoam.org
    \  /    A nd           | Version:  11
     \/     M anipulation  |
\*---------------------------------------------------------------------------*/
FoamFile
{
    format      ascii;
    class       volScalarField;
    object      U;
}
// * * * * * * * * * * * * * * * * * * * * * * * * * * * * * * * * * * * * * //

dimensions      [0 1 -1 0 0 0 0];

internalField   nonuniform List<scalar> 
2880
( 
0.07221899930352357
0.14183132386974195
0.22136263001513817
0.26932291804429137
0.33962496128369474
0.44858357297344315
0.10112457402596887
0.17170071511417065
0.2442217557657954
0.28810525144957466
0.3505524848092865
0.42060359571692313
0.11465152526751678
0.18221180320556968
0.2480619733161743
0.29086343129242714
0.35444392212626186
0.42835790906694615
0.1267814690601536
0.1898422271838376
0.2489316695699821
0.2912359625491088
0.35732488970275605
0.4364390240382202
0.13958802647565902
0.19620411137598992
0.24897287710728325
0.29124221396846917
0.35837909860162065
0.4397036879883368
0.15186153332109922
0.20126303676479773
0.24772029586399721
0.29081189865169627
0.35773647024271615
0.43874900338185396
0.1630129156870842
0.20480088126780813
0.24646200580059338
0.29002210841827086
0.35573718629085893
0.4347057448532925
0.17198201974761673
0.2071918162812643
0.24545675377507087
0.28902990963795683
0.353439148004866
0.4294541914467554
0.17942749884295853
0.20881691665239932
0.24425212217206121
0.28783098951781805
0.35077704859105263
0.42392308635043413
0.18525694744647234
0.21002437704666377
0.24302549472032478
0.2869951400221585
0.3489696129654004
0.4200399722171555
0.1893602864916125
0.21108382196361994
0.2435693804590851
0.28722254730425995
0.34853827849849955
0.41828219811362655
0.19153379735722323
0.21224671709245307
0.2452940117788834
0.28891119201517257
0.34942821528299484
0.41746197221760484
0.19182324558828262
0.21304182330459476
0.24763738529373758
0.29212135115892757
0.35212631923727694
0.41916348576311085
0.19013161753239352
0.2135102709280743
0.25005436143971704
0.29648949670241725
0.35717764400761204
0.4241854760532939
0.18626901376913602
0.21346886611165364
0.25235975464333565
0.30092303491839767
0.3628003787401955
0.43013458784374414
0.18069464946825592
0.21278282938279136
0.2546414489261477
0.30476925295306145
0.3680939322477931
0.4363882739486501
0.17359460896286152
0.21163315268672783
0.2568039424570275
0.3075146427378041
0.3727945078069014
0.4425194421778243
0.16449366109269062
0.20937483092977072
0.2578568953281851
0.30953122411947304
0.37632095232546
0.4477799254473449
0.15334022125484556
0.20513746378866038
0.2584290936819173
0.3102342185960783
0.3781323791048564
0.45175327129913484
0.14007590364430622
0.19846939692273174
0.257702420324218
0.3088775635876685
0.37823874072879493
0.45325631797294075
0.12513035889768012
0.18941370726623602
0.25533417055603075
0.3069692773850704
0.3761559438497136
0.45124182797546414
0.11023916312686763
0.17773791795725347
0.25077758153942464
0.3031028955989369
0.37260226761585397
0.4442609868672485
0.09400680802898505
0.16293883556639635
0.24188097630448654
0.29520120070578626
0.3694456703154274
0.4339544259357547
0.06413828702561716
0.1297395164643045
0.2155366247449538
0.26931814471590154
0.3620862229229937
0.43358259117925446
0.8237928249558119
0.9059405364999622
0.9468387053311235
0.9708777196029205
0.9868936914387219
0.9981334127013439
1.00916072788658
1.0238995547659602
1.040302846982124
1.056729227208689
1.0720443494153538
1.08560401975905
1.0955395335448055
1.1016959778140818
1.1048171135797564
1.1054109899973223
1.1035258644111143
1.099424680099129
1.0937873059047554
1.0863673274550854
1.0773072442608327
1.0658500153114165
1.0517965864326535
1.0359717225804126
0.7257717648209517
0.8713946320357612
0.9302373387951224
0.9606504536680702
0.9813098656086425
0.9962636897857139
1.0101645229412026
1.0284127292356475
1.0488381853258961
1.0671492443721584
1.0824158075116515
1.0943572558906411
1.102994443460413
1.1078754084349454
1.108744706134052
1.107509248375684
1.1043423073880203
1.0995439159800557
1.0927350985948454
1.0847939724541174
1.07523370541263
1.063517806187492
1.0489737181802377
1.0330921226041416
0.6594898412295861
0.8225966371204538
0.8974859722257572
0.9408685475880089
0.9682957124512029
0.9897480066908465
1.0094805852438729
1.033122578662929
1.0557950774833222
1.07583899311673
1.091654866503855
1.1018736066210724
1.1079910748777242
1.1101931032514394
1.110251668668985
1.1078135856805247
1.1035277948457607
1.0977536604939835
1.090330543788646
1.0817960358611578
1.0717269908144742
1.059594236630503
1.045243802401747
1.028996980019597
0.6184409345441778
0.7714192783682151
0.8574364330335008
0.9110273670555312
0.9474931856361493
0.977028368088052
1.0071718072851117
1.0356063750066287
1.0604835235949601
1.0812318737208504
1.0964169247247488
1.1053298591680134
1.1093764574133882
1.110272604172556
1.1087951016400885
1.1054372952386158
1.1000362758731859
1.0938511174425916
1.0861451793247263
1.0772397625955032
1.0666840866742318
1.0549829264242698
1.0401769276221866
1.0244240735051753
0.5901906992506706
0.7274771149858392
0.8175465416045826
0.8786090362655563
0.9227810027462993
0.9613076896832649
0.9994015202864787
1.0336884885739075
1.061900700833682
1.082351659533191
1.0960667549172907
1.1038556640350736
1.1067188621434545
1.1068265849867223
1.1046398750473805
1.1006785616071832
1.095325188280714
1.0888697659248587
1.0810398681237405
1.0720505866960828
1.0620003062801202
1.0504370657420716
1.035654886626812
1.0199245533365024
0.5678958546000514
0.6916320204303794
0.7809654816169258
0.8476280186863776
0.8991725216525026
0.946350328015989
0.9911835790925347
1.0296136357349128
1.0592522902572485
1.0796475828050083
1.091564998756407
1.0978026008599844
1.100439225660648
1.0998594932790164
1.0976191278159075
1.0936091356236446
1.0885032268668118
1.082325812386541
1.074570539028614
1.0657514261137573
1.0560967366818232
1.0447171001046822
1.030337328360274
1.0150295937871727
0.5487747754754011
0.6622126843432233
0.7504971178217393
0.8204817862324549
0.879732940458618
0.9356006208778751
0.984682209792624
1.0248463010445488
1.054321885306805
1.073102310650061
1.0842563345955754
1.08973895725048
1.092044129079491
1.0916994229364039
1.0897542982773278
1.0859621417157972
1.0812589552371148
1.0752903198199442
1.0680724577236775
1.0599388692159712
1.0508231917712578
1.0397373345137912
1.0257748843481467
1.011947997579513
0.5325590376519193
0.63810435239623
0.7257525441286969
0.7993675473479854
0.8653189405609714
0.9275316270696753
0.9800963736385956
1.020666003041899
1.0483194278835992
1.0650429643486428
1.0756051046846224
1.0805821385925658
1.0829452939444222
1.0827625947049284
1.0812188238926004
1.077844687023112
1.0737428629009746
1.068571090264969
1.0620192220718074
1.05418005301305
1.0458495082599437
1.03557114816885
1.0226868328906007
1.0091211344409765
0.5194906995002938
0.6201902031401774
0.7082438898961151
0.7839412558426568
0.857344825120243
0.9238483055090904
0.9778063524287434
1.0165466212312664
1.0413047723132234
1.0569261620543364
1.0660295563730198
1.070874573334529
1.073376962363332
1.0735674876385546
1.0723130109260943
1.0696597024871264
1.0663587061068651
1.0613203031268663
1.0557297952647995
1.0492071547665844
1.0414780569916469
1.0324659874865174
1.0203374993422192
1.0083878204078633
0.5108644981996774
0.6081330500453365
0.6968503773658119
0.7775121755129465
0.8564921573719052
0.92443045962079
0.9765396470355532
1.011504573935161
1.0338234327917197
1.0476678071825192
1.0565390952412121
1.0611784354840108
1.0638583770200405
1.064671939437286
1.0635301167273532
1.0616441953446112
1.058960642945058
1.0551460234588423
1.050724771113695
1.0450477042879671
1.03885196739698
1.031039372191165
1.020687753569577
1.0099416907617924
0.5054996781071429
0.6028933684803481
0.6924040341548484
0.7784829964400573
0.8607654210318659
0.9283060093974878
0.9762533635718552
1.0072128389372814
1.0271461455115314
1.0398599767877905
1.047827926905343
1.0528365879001598
1.0554833155404355
1.0564658562192195
1.0560937860201993
1.0548966966068805
1.0527176969364334
1.0499734850637243
1.0463739010109674
1.04263612833192
1.0377643672045995
1.031535945291264
1.0228278026270385
1.0132379068596868
0.5036066959221861
0.6024603123866211
0.6941469155519477
0.7871121655231382
0.8708547448353142
0.934567935330834
0.9770523161663722
1.0041164379536476
1.0217009163812478
1.0332001363535392
1.0403776924924475
1.0454416143204195
1.0484009438588953
1.04986468479831
1.0499466852385664
1.0489920219410758
1.0476343852706262
1.0460847835382525
1.0444283614162757
1.0421677674012118
1.039065773082789
1.0344185751114636
1.0267446117401777
1.0179677347534093
0.5056395524090758
0.6057135607136341
0.7039681907733746
0.802366196646677
0.8845994910539827
0.9419904186122215
0.978994501036915
1.0020515275296786
1.017390703114013
1.0281524353896467
1.0353254875766502
1.040131206119388
1.0434981390322844
1.044661009842155
1.0448190626734273
1.0450461233862167
1.045455934752429
1.045391883317373
1.0451949137520862
1.0444484186124665
1.0421711692135907
1.038513247739933
1.0317145183454466
1.023649889363295
0.5107508402524283
0.6129416548374768
0.7192849820253239
0.8215706388259226
0.8988848471117483
0.9491809177786157
0.9807601412492291
1.0009899969361506
1.0148924670099497
1.0252059514509606
1.0316480214050798
1.0356298270505448
1.038948801718202
1.0416716161158532
1.0435277700654095
1.045068396053024
1.0457002403980944
1.046435168408979
1.0475469213686759
1.0479533739541524
1.046982179438549
1.0438431417198852
1.0374456315126028
1.029364267388228
0.5191506741033187
0.6254631178934458
0.7408729520416835
0.8432829028209106
0.9128151283438356
0.9559776227895437
0.982807635351635
1.0014484263256147
1.01404187008883
1.0224198556301465
1.0292512581291244
1.034145583650041
1.0379676170781302
1.0400830077454193
1.042176000063011
1.0452856748797603
1.0481417056512619
1.050772551480721
1.0522479244285052
1.0528315281994258
1.0517254670915892
1.0488186539837299
1.042654479850016
1.03440247762588
0.5298921705778363
0.6456619840034645
0.7686191747931914
0.864950813115178
0.9258459981353536
0.9624922806778373
0.986155430368465
1.0017015429563239
1.013414660197505
1.0221736630284193
1.0279141700965206
1.0323590481468554
1.0362390335465286
1.0403758642490846
1.044799175637946
1.0485937710046365
1.0515617657402425
1.0546741344693886
1.0571659520382037
1.0582877189362887
1.057442936637929
1.0542809653557093
1.047240809316847
1.038596682006757
0.5421114141013871
0.6720547827226939
0.8002053946475446
0.8872895721151658
0.9382924240643956
0.9686400387310627
0.9894523563602161
1.0039256238437193
1.013919693315045
1.021259376972559
1.027180494294938
1.0326216854908372
1.0375351930680767
1.042918478261285
1.0480845459129824
1.0533003379087469
1.057644976842954
1.0605331160829656
1.062538710143559
1.0635813841688153
1.0621056997162304
1.0582840094938337
1.050887311087037
1.0413721288627056
0.5556717218683338
0.7049888542264524
0.8332806221221811
0.9073200906605365
0.9487800943068995
0.97523385551231
0.992714196555546
1.0052657943164254
1.0147765389181553
1.0221086556689236
1.028553063279143
1.0346572686655613
1.0413154265884734
1.0474113838979968
1.0530722108206159
1.058104225428004
1.0627273124471128
1.0663127326910569
1.0683344581289969
1.0681155841967491
1.066313198227615
1.0613587368405166
1.0526944600585124
1.0421704637184874
0.5732238791643113
0.7454103615943795
0.8631931718038189
0.9243676544828994
0.9585787618267682
0.9804591050195037
0.9956031989871397
1.0068719832348683
1.0155085352760478
1.0233598829225126
1.0297464942746892
1.037281760595606
1.0445894430611065
1.0523530865909523
1.0589048317594343
1.0645922972041864
1.0682133449711033
1.07176759569251
1.073244897058863
1.0727164977949821
1.069108358774333
1.0632710703245645
1.053651484465759
1.0417572284230625
0.5964895903792607
0.7892391797967357
0.8897293984238969
0.938846985089557
0.9666372271817469
0.9848940878602352
0.9977949314598953
1.008116837027246
1.0162907050121912
1.0240080043639412
1.0330849188541646
1.0424137040884236
1.050829266722921
1.058484220853822
1.0647913468451053
1.070508704165577
1.0744246919410978
1.076983041819675
1.077346970219536
1.0756356651270969
1.0710908347918122
1.0638898566881803
1.0537725795673512
1.0410792158644155
0.6303274248217351
0.831660884199044
0.9122214448100548
0.9509181291573213
0.9731180079390704
0.9885631166518348
0.9999118426384149
1.0091718373379162
1.0183050769615525
1.0282184503137928
1.0378491983063851
1.0476821549205664
1.0570864247858824
1.065148810885509
1.0716742976126394
1.076311958976945
1.0798982024660615
1.081442736836575
1.0807342824691486
1.077710531459335
1.0719363638108623
1.0636953024993012
1.0526719619157807
1.0390655529922666
0.6824038058197366
0.8672500228132209
0.9294594513249126
0.9596525886202384
0.9779406288183868
0.9908776348016123
1.0013057056011068
1.0109253909480234
1.0205413643078074
1.0310621541770526
1.0432689984780221
1.0546385761531334
1.0638615184932707
1.0716043802240878
1.078065482067419
1.0822486333361911
1.0848326333856588
1.0851182116398286
1.0831301884056515
1.0787086161776582
1.0724117353378275
1.0630108376895158
1.0516928276764232
1.037730613486873
0.7530000478026972
0.8938930372115154
0.9404609727761015
0.9650618965723349
0.9807262685246113
0.9926012030270183
1.002393124626275
1.0121258597006162
1.0240289990609353
1.0369506168835876
1.049674798550819
1.0616033217947545
1.0717721866470435
1.0793121260424259
1.0842876356725553
1.087646183798014
1.0890715590264675
1.0876857457261453
1.08480054545621
1.0792395534999195
1.0722002333859064
1.0625014262786847
1.0500829249735713
1.035564806914052
0.8309950716947666
0.9085902571216895
0.9441757337325829
0.9668610136179624
0.9815566811557594
0.9931994145964247
1.0028022315439167
1.0150307640149845
1.0289208752866996
1.0433632810798257
1.056898495414217
1.0687567699556606
1.0787234586715004
1.0856924896471525
1.090148462754228
1.0924927559123465
1.0922354344460425
1.0898556288330328
1.0857001156147006
1.0794225616917668
1.0716983295967573
1.0615638756468173
1.0484639590237168
1.034231650122621
0.07225291574108376
0.14476845294778162
0.22652469121433255
0.27614385246035833
0.3457574937650385
0.4529130400891505
0.10315042132627332
0.17630972137519432
0.25008667287016206
0.29401658095683897
0.35520653019930337
0.42367692774307397
0.11758798326087491
0.18728133052653187
0.2540727229504739
0.29648250273268645
0.3594442631022349
0.43170764958688446
0.13018904209065274
0.195316977241092
0.2547321139596332
0.2967144527831949
0.36136488861404215
0.43957180916601424
0.14334577613950672
0.20171835872977412
0.2541157771009054
0.296304351610935
0.36174582544670464
0.44196576717028485
0.15605963742089035
0.20648999052554995
0.2533823362102622
0.29554412987302164
0.3610106723886131
0.4404930287653704
0.1678428223007364
0.20977547919114867
0.25186125185079283
0.2944060443958095
0.3589636146745431
0.436367031759276
0.1775097493558212
0.21259801881311144
0.25009159767283246
0.2928664531506673
0.35619892857191005
0.4306502366277646
0.18534784998926462
0.2146595507413758
0.24934487751999485
0.2914806364154135
0.3532779916349718
0.4246209136821184
0.1914710356831844
0.21617452341055352
0.2492495896421011
0.2910264791663207
0.35123784747598674
0.4203578619279567
0.19583766192801508
0.21736002514156294
0.24970505311667857
0.2911941572077456
0.35066921393323025
0.4187998821714986
0.19798422178351968
0.21827597278543714
0.25101007576704304
0.2924402033977227
0.35192673432270344
0.41905031943613197
0.19809521078674078
0.21893257162130064
0.25294463079904583
0.29571060610615224
0.3553141897536533
0.42110556395466425
0.19617168936265486
0.21925494641104007
0.2553664540578066
0.30009016809849814
0.36012338132076227
0.4256071957624038
0.19210788607958473
0.21909643203205353
0.2578036588848265
0.3045814362432203
0.36560269112632016
0.43143525359554136
0.18624454537274698
0.2182803243015677
0.25985218420316364
0.30870551650509886
0.3709386581698249
0.4376982952074423
0.1788248616525836
0.21672626256170388
0.26120594105106654
0.31192499959978864
0.37556616407208304
0.44368464206346536
0.1693589469439553
0.2139483686646819
0.2626435787923152
0.3138221122936179
0.3792724170659415
0.44897750354103333
0.15783468541123843
0.2096920150048549
0.26284962723133076
0.3140690980715078
0.3813870101994645
0.45303512000044993
0.14421641335837213
0.20319623857138763
0.2620384712743149
0.3134290704721064
0.38148567910163417
0.45454998180798306
0.1282835650569506
0.19368529709945911
0.25957059118724535
0.31093713782198623
0.3796444171004794
0.45295533426919893
0.11269829657564122
0.18158024980163784
0.2544136596404737
0.30683994454342245
0.37610097478397736
0.4468155077712348
0.09571150931049402
0.16638591235979078
0.24530935676138615
0.2986540374924348
0.37222604331148806
0.4377269285224247
0.06393058703586701
0.13188761083763983
0.21757609106091622
0.2718301825965708
0.3634173523574375
0.437486650520079
0.8179100222340586
0.9006725070055309
0.939533382356903
0.9639820187097582
0.9793414338002537
0.9919017355905873
1.0043244016435025
1.0177430551046447
1.0340861004407946
1.0506279778655068
1.0650427281195043
1.076906855347363
1.085420921169433
1.0917626147928905
1.0950645704708828
1.0960179722155658
1.0946475333676935
1.0910503044471997
1.086095479228106
1.0791224317940724
1.0706313529627174
1.0603254628597854
1.0470656003649266
1.032251907402543
0.7213296122117825
0.8663051425292622
0.9233758979014697
0.9544887778966855
0.9737704332587854
0.9887702818222476
1.0039250601144167
1.0223496210064509
1.0405079250009686
1.0575017935707862
1.072948263543764
1.083795529721193
1.0921191845814564
1.096803747718161
1.0986335532069893
1.0982116853372443
1.0957963140774636
1.09119829816358
1.085231142209636
1.0781625827169106
1.06921539286748
1.0583571839633996
1.0452526797848556
1.0303641560529435
0.6577954532263938
0.8188208823634621
0.8931751831811646
0.9351028450434989
0.9618726276185514
0.9815235460174809
1.0029913320642685
1.0252005318506234
1.0460182519580634
1.0643360759271725
1.0790276561602388
1.089473956950462
1.0962388566485595
1.0996529456798116
1.1002984832282292
1.0988601732809649
1.095393199941034
1.0903764780099776
1.0840336855699857
1.0767636733627928
1.0676079721544276
1.056493177173371
1.0431887883968514
1.0284029798955168
0.617864553976764
0.7707681725898707
0.8553472392743199
0.907542559582452
0.9425705172979363
0.9715921385790178
0.998587835578848
1.0253063637471513
1.0492224194176316
1.0688915081338977
1.0830739915144025
1.0925624703305168
1.0980806150464233
1.1001766270228135
1.0998620841109998
1.0973950008865105
1.09348147030304
1.0883605364200275
1.0818879496745784
1.0739192950701126
1.0643162788312874
1.0538031845587363
1.0400990298209425
1.0255675901032173
0.5901133824190865
0.7285148876101013
0.8177815308139644
0.8773347492436283
0.9207989923294906
0.9569981999171749
0.992093081758031
1.0231663237683726
1.0493234225438015
1.0693693876449262
1.0834896359099024
1.0918710702868957
1.0961038287538993
1.097397687362049
1.0964663428386257
1.0936260994040423
1.0893631422937544
1.0840480259227372
1.077705504121462
1.0697195079976343
1.060672433328798
1.049966196121249
1.0364170396552468
1.0223775505654793
0.5678227987960384
0.6923712924693015
0.7832776436489738
0.8490055668492384
0.8989684403113779
0.9436382453991169
0.9843494782918619
1.0193601011198348
1.0472159675629027
1.0672883575735264
1.0802140719477797
1.0875790334962596
1.0909407357801504
1.0919532678762776
1.0906976431962214
1.0879922301821363
1.0840354559405347
1.0791063069216673
1.0727975243771615
1.0651897517154374
1.0564694186423336
1.0465755687881988
1.0330426292139414
1.019455251376233
0.548945998043972
0.6635020667914591
0.7534886824570286
0.823870098499867
0.8808112950498819
0.932312830383366
0.9780785451569661
1.0157136788291847
1.0436706454262288
1.0624305907023162
1.0740932957788942
1.0808908718820525
1.0841873008220073
1.0847406138766584
1.0836967247175795
1.0813882727434356
1.077872524889893
1.0727538916504067
1.0668458706254953
1.0600939160236371
1.051904126023582
1.0418688782553085
1.0291438909416057
1.0162147669890305
0.5326820539041163
0.64000952727409
0.7294824589569298
0.8033595606071223
0.8667207118803913
0.9253077918258431
0.974276826343243
1.012766873481497
1.0399029074835964
1.0568887201511539
1.0668688551786236
1.0731537608414123
1.0760466133561817
1.0769329891493165
1.076071748487229
1.074009341656688
1.0707983132913619
1.066735691368404
1.061331004292686
1.0550903924849577
1.0475125252427295
1.0385802287421408
1.0263126282372166
1.013501772696989
0.5190986322927225
0.6211855240740134
0.7114156177181334
0.7882476294887323
0.8588060896272242
0.9222939862377652
0.9732123727734628
1.0107355876467643
1.0350075148721303
1.050336921298583
1.0597724963285786
1.0654151660301914
1.0682000899786444
1.0691248757456888
1.0691634980937454
1.0676625335863277
1.0653830489390768
1.0614622263809468
1.0567958321570121
1.0506214619400398
1.043829390230803
1.0351552591145132
1.0238684892220162
1.0119350372835303
0.5101173023718697
0.6092441732227891
0.69967719413727
0.7798313572209418
0.8571948770352528
0.9240772210553361
0.9747846704005371
1.0092726497993587
1.0308556257317918
1.0447031465816767
1.0535878758468915
1.0590523236954956
1.0618235065246506
1.0629720331464114
1.0634821113285147
1.0623332828441738
1.0599549899437843
1.0567500695709298
1.0527519947545017
1.047443231517938
1.0409188009270844
1.033454994913103
1.02281281988289
1.0116004303154005
0.5058696776755747
0.6042071947182746
0.6945432921284732
0.780498308998143
0.8623156149896875
0.9293778209647087
0.9767833578401903
1.0077796624998936
1.0273387046706728
1.0400123075568073
1.0481221354054222
1.053397719219608
1.0568128855139869
1.0583766119306734
1.058401468902154
1.0580892324556306
1.056474441431873
1.0537628040092695
1.0504121194506748
1.0459224631345214
1.0404028217456323
1.0336450949781124
1.0239377261498186
1.0133136338829631
0.5045236273844984
0.6035377462443647
0.6968135886638026
0.7898129956046246
0.8732383917742482
0.9369059055017516
0.9796314178277556
1.0070591524624015
1.0248511167208108
1.0365996592426574
1.044510183625901
1.0498889867523111
1.053229587746666
1.0551345150958975
1.056275409608023
1.055624692887408
1.054261856235254
1.0522750936050305
1.049465876270206
1.046091156099861
1.0414333089658057
1.035427522906242
1.0263718661967802
1.0160533369716644
0.505335435047823
0.6062386558144881
0.7048232315808427
0.8044092160995664
0.8867423260171476
0.9456065639300161
0.9831291596069617
1.0070368064081996
1.0233611965951632
1.035205214204253
1.0427110239798318
1.0481879106577539
1.0516460815196587
1.0540466583165113
1.055193213520675
1.0553732972892
1.0540582294077638
1.052262633082735
1.050689263040071
1.0484271968777508
1.0445189169522058
1.03896801169162
1.030288512428922
1.0204647769749609
0.5110268595259984
0.6127570034791621
0.7191650849228379
0.8224447847456848
0.9011191750131646
0.95301872437889
0.9859382544562886
1.007965901797585
1.0233747440140182
1.0340309999975563
1.041908139310901
1.0476603980417039
1.0519552800672771
1.054458588195205
1.055453148824821
1.0557843445341721
1.055943869989427
1.0559576089070184
1.0547091990289341
1.0526082614129073
1.0491566176964502
1.043930940288619
1.0351507330311338
1.0248896531435545
0.5194655095548404
0.6247852732004169
0.7392735235894745
0.8421780062645007
0.9140268428477673
0.9590091491170737
0.988563296320322
1.008477897706869
1.0230671464235934
1.0341723825825635
1.0425222577198312
1.0482148071403816
1.0523344743034182
1.0557438120321132
1.0577997821323413
1.059387379704342
1.0606066385035833
1.0606434028176974
1.0600876720818775
1.0583830890793955
1.0551214869439625
1.0495358725040156
1.0406793865564417
1.0301633549514413
0.529534705991919
0.6434203807956949
0.7655662757791419
0.86328075830048
0.924685216589851
0.9642867331540698
0.9900671918504499
1.0090533813269487
1.0232796091322367
1.0341517453809288
1.0425623527225598
1.049682296755339
1.0549459070379161
1.0584905068097499
1.061419217486017
1.0637418047174585
1.0659292716304891
1.0671236937596629
1.0665372911726265
1.064738907169295
1.0609446081378908
1.0552622115055326
1.046181986552984
1.035081999647789
0.5407845753035598
0.6690687455978537
0.7968170386857083
0.8829413024342541
0.9350378971876352
0.9681861665029111
0.9918657294272138
1.009883285408664
1.0236304275320458
1.0351817958231082
1.0441810731293677
1.0511169423210076
1.0568947787927017
1.061899762646539
1.0668361769029597
1.0699257941607412
1.0721359233876109
1.0733882430503014
1.0732040392977364
1.0712514428883158
1.0673658439898113
1.0607543984554846
1.051058799694264
1.0394505562205263
0.5541803541358689
0.7019275528747435
0.828100780403626
0.9016249520996296
0.9449960831390327
0.9729392494954955
0.9934001431097633
1.0109281749102135
1.0245667482171328
1.0357608242146086
1.0456415008947988
1.0535028943919276
1.0606425705203184
1.0666962470196077
1.0720861395098864
1.0762620665141223
1.0793233234725512
1.0802914319735224
1.0796716106514896
1.0776529444501326
1.072677533105556
1.0658857906328023
1.0554886972007704
1.0429751642655984
0.5716027613283197
0.7416156910249162
0.8574384024853495
0.9186857663469111
0.9536883463846398
0.9781425708944593
0.9961761714492433
1.0118611098859636
1.0256042046776417
1.0372044256879225
1.0474345421067617
1.056536263857978
1.0652951643457849
1.0725443454086727
1.0778693010445126
1.0816258837300894
1.0854157308434245
1.0863126954217783
1.0855798616627461
1.082842595702095
1.0775638571430521
1.0700128160058895
1.0586189691016077
1.045198911407425
0.5949566748665798
0.7853733453890045
0.8841801333754382
0.9331124833865664
0.9624195716659835
0.9832176653166997
1.00040801726512
1.0148681468394531
1.027472320882441
1.0395721938467841
1.0504765341786053
1.060677730720362
1.0693601550321095
1.0777892857711306
1.0836662674710968
1.0880334405050727
1.0903516619683433
1.0915228212589425
1.0900386229666752
1.0869937574492454
1.080934723192015
1.0724753754948464
1.0606620017912407
1.0469868665657682
0.6291311986438899
0.8281620137250488
0.9070604485058232
0.9452529172655628
0.9704714118148792
0.989022642525275
1.0048594358695015
1.0187747484207061
1.0310751790036905
1.0416233515984785
1.0541868386547333
1.065290566616045
1.0748892013210016
1.082099465167747
1.088323636914153
1.0930156932388289
1.0952044738555327
1.0952937847289586
1.093462372947638
1.0890984659111929
1.082613139401418
1.073644303901106
1.061604529611577
1.0468649065118556
0.681958406900514
0.8648900086242916
0.9248787968451446
0.9562531690684234
0.9774830623963889
0.9950183203364014
1.00958341135216
1.023147337484464
1.0358203574078177
1.0479233606019236
1.0591452824567054
1.0698046075573178
1.0799821432398202
1.0877217993586472
1.0931356498918372
1.0969620432826208
1.098370946044578
1.0977873356983443
1.0949868887672256
1.0900551584327298
1.0829866841408402
1.0734421517648622
1.0606293113246164
1.0460437904578301
0.7533200964683958
0.891887481937946
0.9371204032895197
0.9642804717237107
0.9837875690626284
1.00076749173623
1.0153668714559219
1.0280145824614275
1.0405275247648258
1.0536522497668293
1.0658740554452704
1.0759074907890644
1.084605322608552
1.092139039727706
1.0973134365253638
1.0998420482110551
1.100324121932716
1.0991477212898417
1.095357229202203
1.0896286083519877
1.0820696035300013
1.0720455597310243
1.0591923947129753
1.0440774949774934
0.830888603317572
0.9059432667703425
0.9434214188048957
0.969327266696076
0.9895470135382363
1.0054226533057664
1.0203733346162756
1.033215881738676
1.0469449733006067
1.0602805156503265
1.0727142057855696
1.0830282076144897
1.0904253031729032
1.0960505717421625
1.0999609624074396
1.1016785501051825
1.1012371467954836
1.0987377670662044
1.0943669045421824
1.088099046207605
1.0799666494456952
1.0696933167306935
1.0564078557019274
1.0405954381419054
0.07576147986809968
0.15371707043806643
0.23800080022058864
0.2866313221184623
0.3555200691320907
0.4551497736384096
0.10743725958291811
0.18564025679579244
0.26010450869792495
0.30369538342777225
0.363542928762936
0.4271590783383906
0.1231245461706632
0.1962455586547537
0.2626926465788066
0.30441746778825474
0.36463856126533517
0.43339703769573235
0.13696660247913023
0.20357339281044012
0.26246323907661484
0.3025963458794004
0.3653294531278243
0.4402077034485475
0.15092929908672056
0.2096599313654998
0.2611140069492874
0.30095858826203536
0.36457016246263446
0.4425165671295121
0.1642460967000249
0.21435415295315646
0.2587401291652404
0.2988962406665121
0.362392952750233
0.44056018360262783
0.17608842058544205
0.21739844484272303
0.25660549912672553
0.29661546660012517
0.3590625791440643
0.4355360187865781
0.18591548027980162
0.2193244160612897
0.2546559514116741
0.29444661156772783
0.35528467534770003
0.4291166769215775
0.1940767943397984
0.2205725234839017
0.25260066045288077
0.2921750686855565
0.3515095887278509
0.4222732618812672
0.2004811741433817
0.2216181366461451
0.25078681340191267
0.29041717210203233
0.34816832281069293
0.41705798679139494
0.20496764695391506
0.22250900587289155
0.25104871554786257
0.2899608574771609
0.3470233685310486
0.4154517970842029
0.20731301119636403
0.22347526603378706
0.25233890398944653
0.29124250755253495
0.34765839430077455
0.41554788677087534
0.20768091204763614
0.2241555196903699
0.25440200593531576
0.2945268340589827
0.3512158844813809
0.41899109853127786
0.20570592049073225
0.22451024955161322
0.2568076047101226
0.2991882104019082
0.35740429002882773
0.42524783001880123
0.20143895494645594
0.22444585857940894
0.2594881692300812
0.30413728013607483
0.36387373382231486
0.43272123380307276
0.19521189419528379
0.22393264830828846
0.26230947653505476
0.30869538937245644
0.37032197242190096
0.44048602503564377
0.18721483985643786
0.22283855930748594
0.2649392066364546
0.3124757265556144
0.37607461421483995
0.4477854276249973
0.17727162891148618
0.22073840479573056
0.26672295577759175
0.31559609111739007
0.3806233991483787