/*--------------------------------*- C++ -*----------------------------------*\
  =========                 |
  \\      /  F ield         | OpenFOAM: The Open Source CFD Toolbox
   \\    /   O peration     | Website:  https://openfoam.org
    \\  /    A nd           | Version:  11
     \\/     M anipulation  |
\*---------------------------------------------------------------------------*/
FoamFile
{
    format      ascii;
    class       volScalarField;
    location    "0.84";
    object      epsilon;
}
// * * * * * * * * * * * * * * * * * * * * * * * * * * * * * * * * * * * * * //

dimensions      [0 2 -3 0 0 0 0];

internalField   nonuniform List<scalar> 
2880
(
2.70983
8.78775
11.5057
12.4361
47.2331
57.8201
1.05199
4.01554
5.52041
6.72121
10.5346
17.8667
1.52058
3.0522
4.04099
5.05592
6.88613
10.1739
2.14501
2.7241
3.42299
4.28662
5.56962
7.22731
2.73816
2.59852
3.09434
3.82791
4.79217
5.74649
3.26983
2.54832
2.89652
3.51247
4.25271
4.83725
3.72139
2.52886
2.7639
3.27721
3.85053
4.21243
4.08393
2.51734
2.6662
3.09322
3.53943
3.75497
4.35515
2.50182
2.58783
2.94613
3.29486
3.4088
4.53694
2.47722
2.52158
2.82806
3.10262
3.14496
4.6338
2.44281
2.46478
2.73497
2.95401
2.94665
4.65021
2.40055
2.41724
2.66436
2.84491
2.80349
4.5979
2.35389
2.37973
2.61659
2.7734
2.70994
4.48219
2.30629
2.35399
2.5929
2.74006
2.66589
4.29496
2.25813
2.3417
2.59281
2.74246
2.66857
4.03506
2.21091
2.34435
2.62055
2.78643
2.72552
3.70469
2.16736
2.36619
2.68059
2.87889
2.84814
3.3081
2.13174
2.41268
2.77991
3.03253
3.05829
2.8518
2.11211
2.4933
2.93016
3.26963
3.39939
2.34627
2.11848
2.6262
3.15712
3.62575
3.96448
1.80796
2.17747
2.85074
3.51484
4.16982
4.97379
1.26305
2.35254
3.26997
4.13611
5.04704
7.04713
0.913991
2.89534
4.26051
5.47749
6.57929
12.4112
2.0358
5.55926
7.98482
9.9551
9.80609
36.2726
23.2385
9.35156
4.54561
2.31817
1.14915
0.554599
0.266997
0.131913
0.0683197
0.0374612
0.0218379
0.0134329
0.00865707
0.00581715
0.00406254
0.0029417
0.00220342
0.00170228
0.00135088
0.00109418
0.000895734
0.000734362
0.000603387
0.000493616
13.0003
7.05128
3.80808
1.97882
0.973348
0.464252
0.221648
0.109186
0.0566059
0.0311129
0.0181764
0.0111814
0.00719186
0.00481646
0.0033509
0.00241849
0.00180847
0.00139841
0.00111469
0.000911009
0.00075692
0.000634945
0.000539261
0.000462464
8.90966
5.62647
3.19707
1.6736
0.816846
0.386418
0.183758
0.090591
0.0471283
0.0260012
0.0152269
0.00936509
0.00600976
0.00401088
0.00278063
0.00200209
0.00149693
0.00116126
0.000932573
0.000771622
0.000652763
0.000561344
0.000492095
0.000438895
6.79941
4.6233
2.68863
1.40718
0.68189
0.320971
0.152585
0.0754948
0.0394749
0.0218842
0.0128447
0.00789605
0.00505466
0.00336241
0.00232445
0.00167179
0.00125234
0.000977258
0.000793091
0.000666339
0.000575202
0.00050723
0.000457559
0.000421082
5.48842
3.84922
2.26476
1.18046
0.568567
0.267025
0.127252
0.0633113
0.0333051
0.01856
0.0109161
0.00670585
0.00428259
0.00284092
0.00196039
0.00141076
0.00106124
0.000835335
0.000687001
0.000587416
0.000517891
0.000467713
0.000432383
0.000407651
4.58886
3.2487
1.91623
0.991736
0.475331
0.223207
0.106838
0.0535126
0.0283322
0.0158712
0.00935176
0.00574063
0.00365865
0.00242221
0.00167069
0.00120529
0.000912698
0.000726555
0.000606901
0.000528731
0.000475884
0.000439062
0.000414133
0.000397585
3.9318
2.78113
1.63256
0.837162
0.399722
0.187966
0.0904721
0.0456432
0.0243212
0.0136926
0.00808116
0.0049576
0.00315489
0.00208675
0.00144092
0.00104427
0.000797893
0.000643768
0.00054693
0.000485489
0.00044537
0.000418463
0.00040102
0.000390136
3.43787
2.41337
1.40321
0.712069
0.339016
0.159797
0.0773843
0.0393227
0.0210818
0.0119244
0.00704822
0.00432254
0.00274876
0.00181868
0.00125935
0.000918732
0.000709757
0.000581305
0.000502491
0.000453978
0.000423446
0.000403829
0.000391747
0.000384745
3.06132
2.12337
1.21896
0.611777
0.290606
0.137356
0.0669233
0.0342409
0.0184616
0.0104874
0.00620825
0.003808
0.00242204
0.00160518
0.00111654
0.000821465
0.000642672
0.000534705
0.000470007
0.000431353
0.000407929
0.000393606
0.000385353
0.000380976
2.77342
1.89528
1.07186
0.532055
0.252186
0.119505
0.0585558
0.0301483
0.0163395
0.00931876
0.00552555
0.0033919
0.00216009
0.00143594
0.00100493
0.000746741
0.000592192
0.000500457
0.000446696
0.000415444
0.000397185
0.000386627
0.000381112
0.000378428
2.556
1.71764
0.955183
0.469385
0.221818
0.105311
0.0518529
0.0268461
0.0146204
0.0083685
0.00497165
0.00305659
0.00195117
0.00130277
0.000918549
0.000690078
0.000554859
0.000475848
0.000430435
0.000404637
0.000390038
0.000382166
0.000378414
0.000376753
2.39741
1.58214
0.863859
0.420414
0.197886
0.0940279
0.0464754
0.0241762
0.0132291
0.00759679
0.00452376
0.00278797
0.00178599
0.00119922
0.000852772
0.000648055
0.000528068
0.000458864
0.000419674
0.000397781
0.000385697
0.000379574
0.000376829
0.00037575
2.29052
1.48282
0.793816
0.382445
0.179094
0.0850632
0.0421593
0.0220174
0.0120999
0.00697145
0.00416362
0.00257474
0.00165713
0.00112023
0.000804022
0.000618059
0.000509858
0.000448007
0.00041327
0.000394001
0.000383534
0.000378371
0.00037612
0.000375271
2.23193
1.41568
0.741851
0.35347
0.164434
0.077953
0.0386947
0.0202719
0.0111843
0.00646691
0.00387647
0.00240776
0.00155866
0.00106177
0.000769462
0.000598023
0.000498685
0.000442119
0.000410382
0.000392746
0.000383102
0.000378235
0.000376032
0.00037517
2.22183
1.3784
0.705636
0.331977
0.153122
0.0723305
0.0359145
0.0188612
0.0104437
0.00606248
0.00365029
0.00227962
0.00148576
0.00102063
0.000746849
0.000586328
0.000493345
0.000440301
0.000410302
0.000393401
0.000383934
0.000378872
0.000376386
0.00037525
2.26313
1.3703
0.68371
0.316839
0.144538
0.0679012
0.0336831
0.0177214
0.00984669
0.0057411
0.00347521
0.00218428
0.00143463
0.000994273
0.000734477
0.00058179
0.000492963
0.000441837
0.000412619
0.000395753
0.000385959
0.000380329
0.000377191
0.000375482
2.36496
1.39217
0.675646
0.30722
0.138178
0.0644204
0.0318876
0.0167992
0.00936674
0.00548855
0.00334302
0.00211681
0.00140217
0.000980744
0.000731056
0.000583367
0.000496759
0.000446484
0.000417081
0.000399603
0.000388997
0.00038246
0.00037841
0.000375878
2.54306
1.44682
0.681637
0.302592
0.133622
0.0616721
0.0304286
0.0160478
0.00898099
0.0052926
0.00324683
0.00207316
0.00138594
0.000978505
0.000735343
0.000590403
0.000504718
0.000453969
0.000423583
0.000404926
0.000393069
0.000385264
0.000380012
0.000376431
2.82401
1.54045
0.700975
0.302206
0.130565
0.0594998
0.0292231
0.015425
0.00866867
0.00514249
0.00318073
0.00204993
0.00138392
0.000986141
0.000746842
0.000603025
0.000516504
0.000464244
0.000432137
0.000411759
0.000398226
0.000388803
0.000382065
0.000377199
3.25123
1.68151
0.733474
0.305338
0.128556
0.0577431
0.0282112
0.0149042
0.00841546
0.0050294
0.00313964
0.00204426
0.00139441
0.00100313
0.00076561
0.000620763
0.00053212
0.000477387
0.000442848
0.000420216
0.000404585
0.000393194
0.000384688
0.000378276
3.89345
1.88053
0.778481
0.310946
0.127093
0.0561956
0.027316
0.0144542
0.00820768
0.00494699
0.00311984
0.00205395
0.00141664
0.00102918
0.000791087
0.000643661
0.000551712
0.0004936
0.000455934
0.000430503
0.000412332
0.000398611
0.000388035
0.000379783
4.85178
2.14898
0.832885
0.317147
0.125546
0.0546555
0.0264588
0.0140407
0.00802975
0.00488696
0.00311684
0.00207675
0.00144919
0.00106343
0.000823117
0.000671833
0.000575536
0.000513197
0.000471713
0.000442915
0.000421728
0.000405274
0.000392293
0.00038186
6.3093
2.47726
0.885877
0.320439
0.123152
0.0529259
0.0255757
0.0136376
0.00786931
0.00484274
0.00312716
0.00211073
0.00149108
0.00110546
0.000861676
0.000705469
0.000603909
0.000536557
0.000490576
0.000457821
0.000433101
0.000413471
0.000397688
0.000384689
8.92373
2.76157
0.909411
0.316407
0.119183
0.0508537
0.0246211
0.013226
0.00771733
0.00480966
0.00314829
0.00215446
0.00154158
0.00115504
0.000906821
0.000744811
0.000637194
0.000564107
0.000512974
0.000475673
0.000446888
0.000423563
0.000404343
0.000388394
2.74739
2.46665
2.55084
2.43298
3.14343
34.774
0.991115
1.20872
1.72071
2.51152
7.16867
17.3931
0.257714
1.10272
1.97883
3.57003
8.14734
11.2382
1.18878
1.27589
2.36183
4.44811
7.53181
8.15413
1.38297
1.49725
2.69213
4.74891
6.51121
6.18171
1.6786
1.68799
2.92138
4.70347
5.65511
4.82176
1.92317
1.84978
3.06752
4.48008
4.94314
3.8583
2.1393
1.98414
3.13424
4.18953
4.35422
3.16461
2.32248
2.09522
3.1392
3.91854
3.86901
2.6616
2.46549
2.18617
3.10906
3.68843
3.47117
2.29717
2.56537
2.25894
3.06494
3.49631
3.15526
2.03644
2.6138
2.31287
3.01906
3.34308
2.91526
1.85621
2.60836
2.34458
2.97884
3.22878
2.74607
1.74218
2.5497
2.35201
2.94599
3.15313
2.64439
1.68822
2.44454
2.33586
2.91854
3.11292
2.61796
1.68908
2.30232
2.29546
2.89331
3.103
2.64358
1.74806
2.13174
2.23692
2.86861
3.11715
2.74248
1.8843
1.93908
2.16842
2.84676
3.16359
2.89886
2.11509
1.72428
2.10124
2.83813
3.24911
3.10766
2.45446
1.48458
2.05334
2.85738
3.37571
3.37504
2.91424
1.21421
2.05366
2.93717
3.55744
3.73514
3.47027
0.261771
2.16306
3.17521
3.87112
4.23586
4.28823
0.986354
2.68748
3.92355
4.62959
5.08223
6.11231
2.51059
5.63397
7.6697
7.84785
7.71332
6.20647
7.79164
2.62054
0.875228
0.302569
0.113324
0.0483951
0.0235798
0.0127961
0.00756872
0.00478498
0.00317869
0.00220716
0.00160042
0.00121222
0.000958822
0.00079028
0.000675905
0.000596412
0.000539479
0.000497006
0.000463524
0.000435818
0.000412364
0.000393009
6.06519
2.29464
0.804997
0.281199
0.105784
0.0455104
0.0224348
0.0123487
0.00742309
0.00476838
0.00321817
0.00226892
0.00166793
0.00127754
0.00101836
0.000842658
0.00072088
0.00063431
0.000570871
0.000522484
0.000483509
0.000450554
0.000422022
0.000398623
4.59685
1.85971
0.699805
0.252072
0.0965049
0.042247
0.0212097
0.0118916
0.00728468
0.00476166
0.00326808
0.00234088
0.00174521
0.00135212
0.00108661
0.00090317
0.00077335
0.000678982
0.000608226
0.000553018
0.000507562
0.000468374
0.000434044
0.000405581
3.53803
1.49278
0.582979
0.217186
0.0859855
0.0387643
0.0199614
0.0114435
0.00716188
0.004769
0.00333134
0.0024253
0.00183418
0.00143773
0.00116526
0.000973429
0.000834865
0.000731902
0.000652914
0.00058986
0.00053683
0.000490351
0.000449367
0.000414416
2.7765
1.20119
0.481845
0.185505
0.0760192
0.0354018
0.018764
0.0110351
0.0070667
0.0047979
0.00341246
0.0025255
0.00193757
0.00153674
0.00125645
0.00105543
0.000907308
0.000794861
0.000706646
0.000634639
0.000572822
0.000517757
0.000468745
0.000425516
2.22312
0.975212
0.399093
0.158504
0.0673293
0.0324301
0.017697
0.0106987
0.00701131
0.00485581
0.00351705
0.00264592
0.00205906
0.0016523
0.00136298
0.00115173
0.000993047
0.0008701
0.000771555
0.000689353
0.000617312
0.000551991
0.000493106
0.000439289
1.81607
0.802341
0.333494
0.136325
0.0600081
0.0299065
0.0168182
0.0104569
0.00700468
0.00495125
0.00365215
0.00279238
0.00220354
0.00178866
0.00148858
0.00126566
0.00109516
0.000960508
0.00085037
0.000756545
0.000672567
0.000594891
0.000523742
0.000456349
1.51415
0.671128
0.282423
0.118562
0.0540228
0.0278494
0.016141
0.0103232
0.00706738
0.00509655
0.00382721
0.00297267
0.00237763
0.00195149
0.00163823
0.00140169
0.00121771
0.00106983
0.000946589
0.000839468
0.000741525
0.000648927
0.000562469
0.000477565
1.28952
0.572266
0.243254
0.104666
0.0492919
0.0262654
0.0156816
0.0102975
0.00721364
0.00530607
0.00405452
0.00319723
0.00259026
0.00214853
0.0018187
0.0015658
0.00136607
0.00120298
0.00106474
0.000942314
0.00082801
0.000717393
0.000611776
0.000504128
1.12331
0.498678
0.213808
0.0941208
0.0457373
0.025172
0.0155057
0.0104273
0.00746704
0.00559893
0.0043504
0.00348011
0.0028536
0.00239038
0.00203928
0.00176621
0.00154756
0.00136653
0.00121082
0.00107059
0.000937057
0.000804709
0.000675084
0.00053762
1.0027
0.445225
0.192401
0.0865185
0.0433098
0.0245852
0.0155854
0.0107423
0.00785719
0.00600069
0.00473691
0.00384045
0.00318436
0.00269169
0.0023129
0.00201438
0.00177241
0.00156971
0.00139315
0.00123187
0.00107555
0.000916998
0.000757231
0.000580107
0.919248
0.408436
0.177868
0.0816018
0.0420084
0.0245644
0.0160007
0.0112884
0.00842421
0.00654607
0.00524422
0.00430465
0.00360575
0.00307305
0.00265794
0.00232687
0.00205566
0.00182616
0.00162418
0.00143744
0.00125376
0.00106352
0.000865791
0.000634416
0.867931
0.386151
0.169664
0.0793663
0.041933
0.0251973
0.0168279
0.0121314
0.00922401
0.00728315
0.00591411
0.00490939
0.00415033
0.0035637
0.00310102
0.00272828
0.00242031
0.0021577
0.00192462
0.00170686
0.00148989
0.00126112
0.00101564
0.000706031
0.848981
0.378618
0.168067
0.0800849
0.0432834
0.0266338
0.0181834
0.013366
0.0103357
0.0082795
0.00680524
0.00570625
0.00486411
0.00420534
0.00368081
0.0032554
0.0029025
0.00260085
0.00233241
0.0020802
0.00182614
0.00155287
0.00124878
0.000819927
0.856513
0.385825
0.173512
0.0841307
0.0463675
0.0291037
0.0202429
0.015131
0.0118733
0.00963165
0.00800093
0.00676827
0.00581211
0.00505703
0.00445242
0.00396167
0.00355664
0.00321448
0.00291562
0.00264164
0.00237286
0.00208671
0.00173325
0.00115715
0.903432
0.411445
0.187661
0.092443
0.0517539
0.0329835
0.023277
0.017634
0.0140048
0.01148
0.00962133
0.00819992
0.00708636
0.00620115
0.00549121
0.00491839
0.0044537
0.00407479
0.00376507
0.00351387
0.00331616
0.00317632
0.00312815
0.00334478
0.998842
0.461742
0.21384
0.106777
0.0604342
0.0388929
0.0277124
0.0211937
0.0169826
0.0140331
0.0118431
0.0101531
0.00881875
0.00775304
0.00689901
0.0062167
0.00567715
0.00526036
0.00495559
0.00476157
0.00468554
0.00474812
0.00501882
0.00560644
1.16191
0.548153
0.257974
0.130231
0.0741182
0.0478646
0.0342379
0.0263113
0.0211969
0.0176088
0.0149326
0.0128547
0.0112042
0.00988087
0.00882136
0.00798329
0.0073384
0.00687065
0.0065765
0.00646391
0.00654073
0.00682918
0.00741397
0.00831342
1.41845
0.689209
0.330511
0.168322
0.0958058
0.0616636
0.0439974
0.0337984
0.0272664
0.0227037
0.019302
0.0166534
0.0145404
0.0128395
0.0114764
0.0104045
0.00959631
0.00904016
0.00873971
0.00871096
0.00894164
0.00948268
0.0103936
0.0116305
1.79584
0.909862
0.448071
0.230588
0.130794
0.083373
0.0589435
0.0450065
0.0362001
0.030115
0.025606
0.0220997
0.0192956
0.0170287
0.0152049
0.0137695
0.0126942
0.0119716
0.0116118
0.0116367
0.0120039
0.0128007
0.0140604
0.0156903
2.34144
1.24135
0.633881
0.332046
0.188036
0.118344
0.0824554
0.0622358
0.0496825
0.0411531
0.0349094
0.0300833
0.0262249
0.0230931
0.0205564
0.0185438
0.017023
0.0159897
0.0154589
0.0154623
0.0159173
0.0169436
0.0185766
0.0206758
3.10751
1.71383
0.918362
0.496855
0.283379
0.176235
0.120547
0.0894876
0.0705811
0.0580102
0.0489729
0.0420669
0.0365677
0.0320924
0.0284373
0.0254984
0.0232316
0.0216341
0.0207261
0.020548
0.0209975
0.0221695
0.0241801
0.026839
4.2515
2.33253
1.29079
0.730358
0.429002
0.268698
0.182105
0.133187
0.103625
0.0843159
0.0707045
0.060462
0.0523706
0.0457845
0.0403624
0.0359322
0.032422
0.0298266
0.0281735
0.0275105
0.027782
0.028916
0.0312326
0.0345449
6.47082
3.79333
1.9861
1.1193
0.664607
0.418213
0.281886
0.203743
0.156479
0.125958
0.104821
0.0891846
0.0769713
0.0670603
0.0588509
0.0520356
0.0464808
0.0421657
0.0391338
0.0374376
0.037141
0.0379845
0.0403318
0.0443699
2.00975
2.5149
3.06487
3.16605
2.926
2.77924
0.880276
1.06448
1.33936
1.48326
1.53204
1.71863
0.236163
0.806511
1.03557
1.15478
1.24191
1.43615
0.259043
0.767925
0.954741
1.06195
1.15961
1.33231
0.274753
0.801854
0.941317
1.04221
1.14495
1.3009
1.22079
0.884268
0.95683
1.05345
1.16061
1.30618
1.39895
0.946913
0.985441
1.08014
1.19168
1.33208
1.55422
0.994847
1.01787
1.11381
1.22976
1.3673
1.68482
1.03074
1.05005
1.15033
1.27022
1.40569
1.78927
1.05731
1.08089
1.18736
1.31039
1.44343
1.8672
1.07723
1.11046
1.22377
1.34883
1.47821
1.91964
1.09307
1.13925
1.2593
1.38502
1.50891
1.94654
1.10642
1.16783
1.29443
1.4192
1.53539
1.93997
1.11675
1.19708
1.33016
1.45233
1.55848
1.89742
1.12423
1.2282
1.36811
1.48621
1.57996
1.8186
1.1296
1.26294
1.4107
1.52368
1.60274
1.70459
1.13404
1.30384
1.46163
1.56915
1.63126
1.5579
1.13896
1.35476
1.52663
1.62892
1.67228
1.38332
1.14703
1.42199
1.61442
1.71368
1.73919
1.1945
1.16251
1.51639
1.74073
1.84451
1.85402
0.264583
1.19702
1.6595
1.93781
2.06294
2.06393
0.242148
1.29208
1.90674
2.28531
2.4642
2.48131
0.89458
1.56417
2.46291
3.04973
3.3366
3.42431
2.00203
2.7735
4.52915
5.76421
6.11627
6.13045
5.70203
4.61922
2.74027
1.6332
1.00696
0.648872
0.44048
0.316751
0.240902
0.192044
0.158634
0.134325
0.1156
0.100505
0.0879653
0.0774134
0.068584
0.0614065
0.0559465
0.0522942
0.050542
0.0507337
0.0526514
0.0572201
4.08398
4.55
3.72395
2.37681
1.50023
0.981329
0.675248
0.488943
0.371607
0.294801
0.242291
0.204478
0.175735
0.152791
0.133761
0.117598
0.103771
0.0920864
0.0825901
0.0754743
0.070891
0.069103
0.0701964
0.0747373
2.6474
4.23238
4.14284
3.4685
2.39395
1.5925
1.07765
0.766492
0.572538
0.449595
0.367455
0.309461
0.266138
0.231986
0.203827
0.179827
0.158977
0.140805
0.125235
0.112516
0.102993
0.0970219
0.0959037
0.0996179
1.9933
3.40626
4.08167
3.99444
3.51573
2.67862
1.93427
1.36969
0.995706
0.754465
0.593084
0.482466
0.405115
0.349579
0.306785
0.271694
0.241552
0.214983
0.191441
0.170949
0.153959
0.141082
0.13406
0.136072
1.73175
2.71207
3.62854
4.02901
3.99643
3.70911
3.12817
2.49642
1.92082
1.45168
1.10141
0.861794
0.693126
0.5707
0.480758
0.414354
0.363988
0.323249
0.288555
0.258178
0.231604
0.209168
0.192004
0.189499
1.62854
2.31202
3.1008
3.73468
4.04665
4.08536
3.93768
3.59867
3.13088
2.6313
2.15148
1.71735
1.35699
1.07405
0.862947
0.707758
0.591539
0.504287
0.438568
0.387052
0.344906
0.309471
0.278643
0.265993
1.59529
2.10299
2.73347
3.34421
3.82006
4.09441
4.19863
4.14742
3.97668
3.67015
3.29563
2.88009
2.45436
2.04636
1.67485
1.3543
1.09344
0.889743
0.734151
0.617322
0.529457
0.462908
0.407741
0.374644
1.5945
1.99665
2.50248
3.03409
3.51421
3.89187
4.14494
4.27716
4.28655
4.21303
4.03967
3.77694
3.45692
3.09525
2.71079
2.32325
1.95238
1.6148
1.32222
1.08039
0.888414
0.741509
0.627728
0.545276
1.60949
1.94198
2.35533
2.80438
3.23821
3.61837
3.9223
4.14204
4.27407
4.32196
4.29504
4.20245
4.03014
3.79783
3.51506
3.19246
2.84268
2.48173
2.12626
1.79116
1.49016
1.23172
1.02187
0.843901
1.62933
1.91046
2.25231
2.62629
2.99798
3.33974
3.63356
3.87001
4.04467
4.15685
4.2083
4.20118
4.14476
4.02808
3.86053
3.65201
3.40598
3.12572
2.8186
2.49422
2.16698
1.85067
1.56867
1.30605
1.64781
1.88657
2.16863
2.47459
2.78022
3.06577
3.31799
3.52925
3.69601
3.81747
3.89459
3.92906
3.9236
3.88289
3.79952
3.67617
3.51783
3.32843
3.11207
2.87469
2.61978
2.35032
2.08312
1.83049
1.66164
1.86194
2.09037
2.33345
2.57347
2.7963
2.9928
3.15774
3.2892
3.3874
3.45394
3.49067
3.50083
3.48693
3.44918
3.38669
3.30112
3.19201
3.05876
2.90134
2.72487
2.53897
2.36521
2.2203
1.66949
1.83253
2.01098
2.19554
2.37315
2.53393
2.67199
2.7848
2.87224
2.93587
2.97798
2.99978
3.00551
2.99746
2.97656
2.94376
2.89938
2.84303
2.77408
2.69243
2.59995
2.50263
2.41111
2.33008
1.67157
1.79735
1.9288
2.05982
2.18091
2.28566
2.37113
2.43736
2.48616
2.52042
2.54226
2.55321
2.55521
2.55048
2.54015
2.52473
2.50359
2.47592
2.44161
2.40067
2.35463
2.30758
2.263
2.19805
1.66927
1.75751
1.8453
1.92915
2.0023
2.06128
2.10615
2.13937
2.16459
2.18487
2.20306
2.22268
2.24634
2.26969
2.28864
2.29984
2.30205
2.29426
2.27593
2.24793
2.21148
2.16705
2.1138
2.04111
1.66499
1.71541
1.76381
1.80842
1.84454
1.87131
1.89142
1.90934
1.93035
1.96059
2.00489
2.0586
2.11608
2.16985
2.21239
2.2415
2.25649
2.25979
2.24934
2.22754
2.19573
2.15434
2.09954
2.0418
1.66207
1.6744
1.68868
1.70348
1.71512
1.72478
1.73723
1.75938
1.79961
1.8606
1.93572
2.01832
2.10003
2.17248
2.22973
2.26796
2.28126
2.27459
2.25671
2.22719
2.18815
2.13969
2.08278
2.04876
1.66533
1.63853
1.62502
1.62079
1.62159
1.63006
1.65251
1.69705
1.7677
1.86375
1.97888
2.09893
2.20638
2.28596
2.32655
2.32176
2.29294
2.24239
2.17231
2.09018
2.00082
1.90713
1.81676
1.77956
1.68018
1.61294
1.57906
1.56789
1.57276
1.59725
1.6474
1.73146
1.85199
2.00227
2.16414
2.31081
2.41549
2.45845
2.43059
2.33652
2.2093
2.06077
1.9041
1.74823
1.59703
1.45066
1.3089
1.21962
1.71503
1.60448
1.55949
1.55423
1.58041
1.63903
1.73832
1.88371
2.06986
2.27749
2.4723
2.61452
2.67496
2.64366
2.48426
2.26891
2.02765
1.78631
1.56169
1.36177
1.18648
1.03217
0.897779
0.825677
1.78202
1.62102
1.57525
1.59088
1.65698
1.77465
1.94742
2.17077
2.42642
2.67622
2.87026
2.96261
2.94235
2.75671
2.4737
2.14967
1.82969
1.54311
1.30107
1.10369
0.94452
0.816979
0.717204
0.665593
1.90087
1.67586
1.64135
1.70075
1.83387
2.03557
2.29968
2.60698
2.91694
3.17134
3.3123
3.3069
3.11473
2.77789
2.38225
1.98167
1.62751
1.3402
1.11611
0.944295
0.812554
0.708873
0.62937
0.589792
2.09532
1.79026
1.78856
1.91947
2.14738
2.45538
2.82031
3.19718
3.51952
3.71408
3.7304
3.52099
3.13834
2.66722
2.17691
1.74109
1.39402
1.1335
0.939723
0.7948
0.685638
0.60224
0.54336
0.518779
2.37394
1.98995
2.05506
2.28748
2.63797
3.06575
3.51717
3.91448
4.16925
4.19984
3.96631
3.53105
2.97119
2.38168
1.85902
1.44869
1.14881
0.932876
0.774747
0.657487
0.5683
0.501783
0.458898
0.443705
1.77403
1.96335
2.93451
4.05824
5.21851
6.21362
0.833822
1.06492
1.64829
2.3513
3.18164
3.68895
0.227781
0.920048
1.4089
1.9562
2.56186
2.94724
0.252659
0.89563
1.33421
1.80421
2.30378
2.72749
0.270015
0.903025
1.30284
1.73287
2.20595
2.70963
1.18855
0.924435
1.28568
1.69718
2.18364
2.78695
1.2568
0.944138
1.27287
1.6784
2.19833
2.91362
1.34038
0.958378
1.26019
1.6662
2.2286
3.06242
1.40917
0.966823
1.24527
1.65402
2.2629
3.21846
1.45682
0.969335
1.22658
1.63724
2.29231
3.37383
1.48043
0.966327
1.20306
1.61247
2.31026
3.52501
1.47928
0.957897
1.17397
1.57743
2.31309
3.67091
1.45255
0.943154
1.13891
1.5306
2.2969
3.81001
1.40298
0.922693
1.09773
1.47133
2.25863
3.93698
1.34036
0.897072
1.0504
1.39999
2.1963
4.04476
1.26883
0.862424
0.99758
1.31825
2.10907
4.12474
1.19932
0.811992
0.940197
1.22872
1.99793
4.17201
0.280872
0.730471
0.88139
1.13488
1.8651
4.18237
0.274724
0.660442
0.825869
1.04191
1.71465
4.15187
0.263332
0.612273
0.781985
0.958107
1.55344
4.07419
0.24613
0.59574
0.763075
0.897936
1.39557
3.96332
0.223319
0.633935
0.793914
0.895569
1.27226
3.84549
0.828899
0.858844
0.981969
1.04306
1.26972
3.7685
1.87461
2.09643
2.19868
2.07768
1.92498
3.66776
2.59613
2.29558
2.47408
2.8454
3.33621
3.86948
4.34922
4.6673
4.70006
4.44251
3.93921
3.27342
2.57606
1.96578
1.497
1.16305
0.928927
0.760857
0.63655
0.541894
0.470209
0.419011
0.388665
0.379549
2.71799
2.70238
3.06038
3.60598
4.22914
4.80417
5.19381
5.22843
4.93895
4.35484
3.5675
2.75565
2.06011
1.5393
1.17715
0.927439
0.749285
0.616828
0.515509
0.43849
0.382135
0.344408
0.324429
0.320201
2.86671
3.20412
3.80366
4.53381
5.23226
5.71955
5.77705
5.45651
4.78333
3.86068
2.92887
2.15096
1.5838
1.1973
0.932928
0.743629
0.601704
0.492821
0.409826
0.348655
0.306005
0.27948
0.267181
0.26609
3.09207
3.78873
4.66017
5.53857
6.18542
6.32297
5.99296
5.2424
4.17393
3.11571
2.25519
1.64291
1.23133
0.949832
0.746832
0.593811
0.476435
0.387101
0.320993
0.274259
0.243395
0.225695
0.218875
0.219568
3.38335
4.43369
5.5643
6.48387
6.81601
6.53198
5.75708
4.53982
3.34514
2.39453
1.73089
1.28769
0.983043
0.761896
0.595017
0.467513
0.370921
0.299438
0.248539
0.214135
0.192706
0.181552
0.178473
0.180107
3.7206
5.1114
6.43143
7.17724
7.03173
6.33569
4.99908
3.65368
2.59422
1.86335
1.37566
1.03821
0.792367
0.607522
0.467445
0.362182
0.284616
0.229148
0.191169
0.166607
0.152231
0.14562
0.144855
0.146994
4.08685
5.79176
7.16654
7.44352
6.92788
5.60458
4.07948
2.88141
2.05812
1.5068
1.12305
0.843419
0.634628
0.478164
0.361941
0.277006
0.216361
0.174422
0.146714
0.129536
0.120149
0.116541
0.117012
0.119445
4.47003
6.44173
7.62671
7.44457
6.3659
4.67175
3.29475
2.33986
1.69706
1.24843
0.922451
0.681094
0.502411
0.3715
0.277015
0.210037
0.163631
0.132477
0.112522
0.100648
0.0946526
0.092933
0.0939956
0.0965663
4.86434
7.02945
7.76485
7.13858
5.49997
3.88597
2.74269
1.96964
1.43041
1.04037
0.753993
0.544468
0.393149
0.285584
0.210311
0.158478
0.12349
0.100561
0.0862469
0.0780573
0.074281
0.0736809
0.0750273
0.0775033
5.26996
7.51453
7.70327
6.57726
4.71087
3.31369
2.35864
1.6929
1.21346
0.864009
0.610995
0.430735
0.304641
0.217863
0.158915
0.119339
0.0931707
0.076318
0.0659966
0.0602893
0.0579037
0.057902
0.0593297
0.0615723
5.69329
7.82848
7.4841
5.87213
4.1344
2.91796
2.07192
1.46608
1.02733
0.712344
0.490529
0.337684
0.234347
0.165427
0.119837
0.0898517
0.0703125
0.0578559
0.0503047
0.0462214
0.0446535
0.0448762
0.0462588
0.0482384
6.14442
7.94328
7.1818
5.28354
3.7173
2.61938
1.83518
1.2691
0.864822
0.582578
0.390564
0.262912
0.179451
0.12536
0.0903707
0.0677107
0.0530676
0.0437515
0.0380919
0.0350309
0.0338797
0.0341184
0.0353171
0.0370256
6.62808
7.95536
6.83642
4.87417
3.42007
2.37904
1.6288
1.09427
0.723042
0.472877
0.308948
0.203791
0.137149
0.0950209
0.0682525
0.0510959
0.0400366
0.0329555
0.0285795
0.0261345
0.0251292
0.0252264
0.0261312
0.0275544
7.12398
7.92149
6.53073
4.59798
3.1853
2.16765
1.4419
0.938198
0.600458
0.38148
0.243328
0.157671
0.104878
0.072187
0.0516895
0.038629
0.0301885
0.0247084
0.0212122
0.0191232
0.0180921
0.0179078
0.0184219
0.0195071
7.59116
7.90942
6.32157
4.3864
2.98103
1.97355
1.271
0.799672
0.495754
0.306396
0.191263
0.122075
0.0804384
0.0550715
0.0393097
0.0292878
0.0227708
0.0184592
0.0155919
0.013721
0.0125792
0.0120113
0.0119804
0.0125605
8.00472
7.96022
6.18418
4.21846
2.79521
1.79219
1.11488
0.677882
0.407446
0.245492
0.150397
0.0948159
0.0620211
0.0422805
0.0300806
0.0223181
0.0172303
0.0137978
0.0114179
0.00972481
0.00848395
0.00752571
0.00672207
0.00629548
8.38957
8.12412
6.11176
4.0746
2.61771
1.62057
0.97273
0.571805
0.333781
0.196587
0.118567
0.0740418
0.0481772
0.0327387
0.0232232
0.0171555
0.0131489
0.0104037
0.00844168
0.00696117
0.00575631
0.00467054
0.00355308
0.00190003
8.82943
8.38796
6.09504
3.93918
2.44273
1.45774
0.844189
0.480316
0.272926
0.157617
0.093887
0.0582314
0.037763
0.0256136
0.0181337
0.0133545
0.0101843
0.00799706
0.00641841
0.00521164
0.00421435
0.00330824
0.00239873
0.00123597
9.42034
8.77477
6.09633
3.79769
2.26708
1.30342
0.728732
0.402049
0.223014
0.126704
0.0747685
0.0461675
0.0298872
0.0202561
0.0143284
0.010536
0.0080157
0.00627425
0.00501754
0.00405948
0.00327106
0.0025575
0.00185244
0.00102757
10.2595
9.28524
6.08574
3.63937
2.08903
1.15747
0.625625
0.335533
0.182284
0.102224
0.0599254
0.0369064
0.0238744
0.0161764
0.0114365
0.00840059
0.00638092
0.00498456
0.00397695
0.00320924
0.00257799
0.0020102
0.00146482
0.000871598
11.4619
9.88969
6.02997
3.4545
1.90717
1.01966
0.534007
0.279317
0.149163
0.0828279
0.048348
0.0297381
0.0192316
0.0130253
0.00919987
0.00674718
0.00511452
0.00398576
0.00317183
0.00255265
0.00204533
0.00159461
0.00117615
0.000751166
13.2054
10.4467
5.90195
3.23402
1.72054
0.889866
0.453029
0.232052
0.122295
0.0674235
0.0392627
0.0241392
0.0156061
0.0105599
0.00744568
0.00544772
0.0041182
0.00320035
0.00254043
0.00204095
0.00163545
0.00128176
0.0009644
0.000659196
15.7791
10.7892
5.6563
2.96969
1.52949
0.768387
0.382012
0.192449
0.100466
0.0551428
0.0320854
0.0197273
0.0127462
0.00861058
0.00605564
0.00441688
0.00332827
0.00257934
0.00204393
0.00164219
0.00132032
0.00104549
0.000807036
0.000588619
19.7919
10.864
5.21953
2.66037
1.3372
0.656353
0.320243
0.159388
0.0827251
0.0453308
0.0263866
0.0162269
0.0104735
0.00705844
0.00494773
0.0035958
0.00270076
0.00208847
0.00165442
0.00133262
0.00107902
0.000867535
0.000690054
0.000534664
)
;

boundaryField
{
    rotor
    {
        type            epsilonWallFunction;
        value           nonuniform List<scalar> 
144
(
2.70983
8.78775
11.5057
12.4361
47.2331
57.8201
2.70983
1.05199
1.52058
2.14501
2.73816
3.26983
3.72139
4.08393
4.35515
4.53694
4.6338
4.65021
4.5979
4.48219
4.29496
4.03506
3.70469
3.3081
2.8518
2.34627
1.80796
1.26305
0.913991
2.0358
2.0358
5.55926
7.98482
9.9551
9.80609
36.2726
2.74739
2.46665
2.55084
2.43298
3.14343
34.774
2.74739
0.991115
0.257714
1.18878
1.38297
1.6786
1.92317
2.1393
2.32248
2.46549
2.56537
2.6138
2.60836
2.5497
2.44454
2.30232
2.13174
1.93908
1.72428
1.48458
1.21421
0.261771
0.986354
2.51059
2.51059
5.63397
7.6697
7.84785
7.71332
6.20647
2.00975
2.5149
3.06487
3.16605
2.926
2.77924
2.00975
0.880276
0.236163
0.259043
0.274753
1.22079
1.39895
1.55422
1.68482
1.78927
1.8672
1.91964
1.94654
1.93997
1.89742
1.8186
1.70459
1.5579
1.38332
1.1945
0.264583
0.242148
0.89458
2.00203
2.00203
2.7735
4.52915
5.76421
6.11627
6.13045
1.77403
1.96335
2.93451
4.05824
5.21851
6.21362
1.77403
0.833822
0.227781
0.252659
0.270015
1.18855
1.2568
1.34038
1.40917
1.45682
1.48043
1.47928
1.45255
1.40298
1.34036
1.26883
1.19932
0.280872
0.274724
0.263332
0.24613
0.223319
0.828899
1.87461
1.87461
2.09643
2.19868
2.07768
1.92498
3.66776
)
;
    }
    freestream
    {
        type            inletOutlet;
        inletValue      uniform 0.000375;
        value           nonuniform List<scalar> 
96
(
0.000375
0.000375
0.000375
0.000375
0.000375
0.000375
0.000375
0.000375
0.000375
0.000375
0.000375
0.000375
0.000375
0.000375
0.000375
0.000375
0.000375
0.000375
0.000375
0.000375
0.000375
0.000375
0.000375
0.000375
0.000375
0.000375
0.000375
0.000375
0.000375
0.000375
0.000375
0.000375
0.000375
0.000375
0.000375
0.000375
0.000375
0.000375
0.000375
0.00334478
0.00560644
0.00831342
0.0116305
0.0156903
0.0206758
0.026839
0.0345449
0.0443699
0.0572201
0.0747373
0.0996179
0.136072
0.189499
0.265993
0.374644
0.545276
0.843901
1.30605
1.83049
2.2203
2.33008
2.19805
2.04111
2.0418
2.04876
1.77956
1.21962
0.825677
0.665593
0.589792
0.518779
0.443705
0.379549
0.320201
0.26609
0.219568
0.180107
0.146994
0.119445
0.0965663
0.0775033
0.0615723
0.0482384
0.0370256
0.0275544
0.0195071
0.0125605
0.00629548
0.000375
0.000375
0.000375
0.000375
0.000375
0.000375
0.000375
0.000375
)
;
    }
    frontAndBack
    {
        type            empty;
    }
}


// ************************************************************************* //
