/*--------------------------------*- C++ -*----------------------------------*\
  =========                 |
  \\      /  F ield         | OpenFOAM: The Open Source CFD Toolbox
   \\    /   O peration     | Website:  https://openfoam.org
    \\  /    A nd           | Version:  11
     \\/     M anipulation  |
\*---------------------------------------------------------------------------*/
FoamFile
{
    format      ascii;
    class       volScalarField;
    location    "0.84";
    object      k;
}
// * * * * * * * * * * * * * * * * * * * * * * * * * * * * * * * * * * * * * //

dimensions      [0 2 -2 0 0 0 0];

internalField   nonuniform List<scalar> 
2880
(
0.00581785
0.0364726
0.0785157
0.126459
0.15395
0.198801
0.0202637
0.0722804
0.119379
0.168462
0.224526
0.333764
0.0294767
0.0905257
0.141609
0.194653
0.258972
0.3503
0.0370747
0.102562
0.156057
0.210937
0.274337
0.347125
0.0436272
0.111587
0.166205
0.221034
0.280288
0.338018
0.0491061
0.118685
0.173475
0.226984
0.281064
0.327041
0.05353
0.124294
0.178582
0.230042
0.278872
0.315568
0.056954
0.128606
0.181936
0.231024
0.274941
0.304303
0.0594507
0.131708
0.183806
0.230498
0.270104
0.293657
0.0610963
0.13365
0.184395
0.228875
0.264901
0.2839
0.0619656
0.134481
0.18387
0.226457
0.259628
0.27525
0.0621144
0.134245
0.182368
0.223463
0.254516
0.267814
0.0616502
0.132982
0.179994
0.220031
0.249724
0.261646
0.0606139
0.130722
0.176812
0.21623
0.245341
0.256771
0.0589166
0.127504
0.17284
0.212061
0.241383
0.253204
0.056518
0.123336
0.168045
0.207451
0.237785
0.250958
0.0533923
0.118194
0.162335
0.202244
0.234377
0.250018
0.0495131
0.11201
0.15555
0.196207
0.230845
0.250376
0.0448506
0.104658
0.14744
0.188977
0.226686
0.25202
0.0393812
0.0959101
0.137618
0.179988
0.221114
0.255003
0.0331004
0.0853341
0.12545
0.168425
0.212972
0.258665
0.0260598
0.0719841
0.109746
0.153009
0.200179
0.260396
0.017611
0.0532077
0.0876714
0.131467
0.178466
0.249611
0.00437143
0.0231286
0.054595
0.10137
0.139321
0.145968
0.389899
0.385804
0.313068
0.234945
0.169333
0.12001
0.0856768
0.0627458
0.0475055
0.0371388
0.0298095
0.0244266
0.0203523
0.0171958
0.0147031
0.0127009
0.011066
0.0097082
0.00855896
0.00756208
0.00666751
0.00584477
0.00510157
0.00442407
0.420906
0.380781
0.301083
0.223276
0.159021
0.111759
0.079489
0.0582063
0.0441176
0.0345033
0.027659
0.0225981
0.0187499
0.0157631
0.0134069
0.0115223
0.00999537
0.00874244
0.00770019
0.00681701
0.00604775
0.00536556
0.00477553
0.00426539
0.406743
0.363316
0.285456
0.209784
0.148163
0.103619
0.073643
0.0540242
0.0410307
0.0321072
0.0257016
0.0209328
0.0172926
0.0144648
0.012239
0.0104682
0.00904663
0.00789606
0.00695735
0.00618243
0.00552942
0.00497288
0.00451315
0.00413664
0.38569
0.342466
0.267931
0.195532
0.137326
0.0958495
0.0682309
0.0502148
0.0382344
0.0299355
0.023925
0.019422
0.0159743
0.0132964
0.0111953
0.00953471
0.00821537
0.00716386
0.00632438
0.00565129
0.00510455
0.00465821
0.00430675
0.00403431
0.364036
0.320801
0.24995
0.181392
0.126959
0.0886386
0.0633062
0.0467788
0.035715
0.0279749
0.0223192
0.0180586
0.0147897
0.0122533
0.0102715
0.00871671
0.00749579
0.00653921
0.00579372
0.0052151
0.00476371
0.00441175
0.00414786
0.00395442
0.343476
0.299925
0.232554
0.167967
0.117353
0.0820896
0.0588857
0.0437043
0.0334564
0.0262125
0.0208752
0.0168359
0.0137332
0.0113303
0.00946173
0.00800798
0.00688085
0.00601421
0.00535661
0.00486408
0.00449629
0.00422297
0.00402802
0.00389312
0.32443
0.280684
0.216352
0.155612
0.108658
0.0762383
0.0549587
0.0409709
0.0314412
0.024636
0.0195843
0.0157473
0.0127989
0.0105212
0.00875962
0.00740129
0.00636257
0.0055801
0.00500333
0.00458757
0.00429108
0.00408147
0.00393945
0.00384702
0.307243
0.26331
0.201654
0.144505
0.100927
0.0710741
0.0514976
0.0385538
0.0296516
0.0232334
0.0184381
0.0147858
0.0119803
0.0098194
0.0081578
0.00688869
0.00593236
0.00522754
0.00472368
0.00437459
0.00413712
0.00397769
0.00387545
0.00381326
0.292034
0.247917
0.188596
0.134697
0.094146
0.0665576
0.0484651
0.0364263
0.0280701
0.0219931
0.0174278
0.0139441
0.0112703
0.00921746
0.00764848
0.00646186
0.00558133
0.00494698
0.0045074
0.00421452
0.00402434
0.00390334
0.00383049
0.00378942
0.278832
0.234522
0.1772
0.126162
0.0882575
0.0626332
0.0458205
0.034562
0.0266799
0.0209039
0.0165453
0.0132149
0.0106616
0.00870793
0.00722373
0.00611241
0.00530055
0.00472889
0.00434453
0.00409762
0.00394406
0.00385152
0.00379993
0.00377317
0.267636
0.223092
0.167419
0.118825
0.083183
0.05924
0.0435227
0.0329354
0.0254652
0.019955
0.0157822
0.012591
0.0101474
0.0082836
0.00687604
0.00583237
0.00508153
0.00456426
0.00422597
0.00401548
0.00388941
0.00381714
0.00378016
0.00376244
0.258429
0.213564
0.159167
0.112585
0.0788382
0.0563174
0.0415331
0.0315229
0.024411
0.0191364
0.0151307
0.0120654
0.00972084
0.00793786
0.00659863
0.00561468
0.00491679
0.00444527
0.00414398
0.00396114
0.00385472
0.00379666
0.00376858
0.00375604
0.251193
0.205869
0.152338
0.107338
0.0751399
0.0538088
0.039816
0.0303021
0.0235035
0.0184385
0.0145833
0.0116315
0.00937577
0.00766461
0.0063854
0.00545307
0.00479976
0.00436526
0.00409228
0.00392927
0.00383594
0.00378638
0.00376298
0.0037529
0.245931
0.199941
0.146821
0.102976
0.0720066
0.0516604
0.038338
0.0292522
0.0227291
0.0178518
0.0141322
0.0112825
0.00910599
0.00745795
0.00623052
0.00534159
0.00472442
0.00431837
0.00406566
0.00391563
0.00382998
0.0037842
0.00376201
0.00375217
0.24268
0.195732
0.142511
0.0993929
0.0693595
0.0498209
0.0370675
0.0283534
0.0220747
0.0173665
0.0137696
0.0110118
0.00890545
0.00731223
0.00612849
0.00527481
0.00468543
0.00429967
0.00405985
0.00391686
0.00383417
0.00378814
0.00376437
0.00375276
0.241544
0.193222
0.139309
0.0964857
0.067121
0.0482406
0.0359736
0.0275861
0.021527
0.0169726
0.0134875
0.0108126
0.00876836
0.00722222
0.00607449
0.00524823
0.00467863
0.0043049
0.00407174
0.00393061
0.0038468
0.00379789
0.00377005
0.00375446
0.242628
0.192417
0.137116
0.094146
0.0652125
0.0468701
0.0350259
0.0269307
0.0210723
0.0166601
0.0132781
0.0106784
0.00868917
0.00718311
0.00606421
0.005257
0.00469878
0.00433185
0.00409941
0.00395559
0.0038671
0.00381243
0.00377849
0.00375721
0.246179
0.193351
0.135839
0.0922572
0.0635527
0.0456594
0.0341932
0.0263669
0.0206965
0.0164186
0.0131332
0.0106028
0.00866265
0.00719012
0.00609217
0.00529796
0.00474648
0.00437885
0.00414188
0.00399128
0.00389488
0.00383181
0.00378967
0.00376102
0.252461
0.196056
0.135372
0.0907208
0.0620664
0.044559
0.0334438
0.0258731
0.0203844
0.0162371
0.0130448
0.0105795
0.00868318
0.00723852
0.00615761
0.00537129
0.00481885
0.00444501
0.0041988
0.00403768
0.00393034
0.00385636
0.00380397
0.00376624
0.26173
0.200505
0.13548
0.0894104
0.0606802
0.0435262
0.0327506
0.0254317
0.0201232
0.0161054
0.0130049
0.0106022
0.00874682
0.0073273
0.00625889
0.00547392
0.00491523
0.00453019
0.00427044
0.00409526
0.00397408
0.00388675
0.00382208
0.00377341
0.274089
0.206483
0.135872
0.0881298
0.0593051
0.0425154
0.0320865
0.0250248
0.019901
0.0160145
0.013006
0.0106659
0.00885049
0.00745309
0.00639264
0.0056049
0.00503553
0.00463494
0.00435771
0.00416506
0.00402711
0.00392396
0.00384491
0.00378325
0.288405
0.213227
0.135956
0.08663
0.0578414
0.0414789
0.0314246
0.0246346
0.0197033
0.0159536
0.0130402
0.0107641
0.00898839
0.00761174
0.00655706
0.00576356
0.00518004
0.00476027
0.00446201
0.00424859
0.00409088
0.00396928
0.00387355
0.00379657
0.299822
0.218735
0.13493
0.0846779
0.056191
0.0403707
0.0307395
0.024245
0.0195185
0.0159135
0.0131004
0.0108912
0.00915638
0.00780037
0.00675044
0.00594933
0.0053492
0.00490739
0.004585
0.00434766
0.00416716
0.0040243
0.00390929
0.0038144
0.291316
0.217986
0.131874
0.0819633
0.054259
0.0391496
0.0300106
0.0238433
0.0193379
0.0158874
0.013181
0.0110426
0.00935084
0.00801643
0.00697123
0.0061617
0.00554349
0.00507757
0.00472852
0.00446443
0.00425821
0.00409101
0.00395279
0.00383731
0.00589583
0.010228
0.0173999
0.0246891
0.0442224
0.141275
0.0190893
0.028614
0.0422681
0.0538111
0.0854498
0.161989
0.0229522
0.0389147
0.0580033
0.0779173
0.121491
0.178132
0.0249784
0.0474508
0.0709117
0.0967832
0.139411
0.175978
0.0275798
0.0556661
0.0816151
0.110346
0.147191
0.167613
0.031483
0.0632395
0.0902194
0.119769
0.147223
0.157984
0.0344653
0.0699783
0.0970981
0.125586
0.144735
0.148899
0.0369911
0.0758812
0.102722
0.12827
0.140488
0.140468
0.0390688
0.0810313
0.107359
0.128799
0.136485
0.132671
0.0406531
0.0854779
0.111125
0.128589
0.132896
0.125803
0.0417406
0.0892128
0.114201
0.128241
0.12989
0.120058
0.0422668
0.0922239
0.116724
0.128383
0.127649
0.115578
0.0422118
0.0944084
0.118935
0.129064
0.126469
0.112528
0.0415817
0.0956723
0.12094
0.130626
0.126583
0.111266
0.0404363
0.0959456
0.122657
0.133056
0.127915
0.111689
0.0388584
0.0951949
0.123897
0.136104
0.131231
0.114282
0.0369203
0.0933966
0.124416
0.139484
0.1362
0.119976
0.0346676
0.0905481
0.123994
0.142727
0.142473
0.12867
0.0320635
0.0866055
0.122178
0.145023
0.149629
0.139451
0.029022
0.0814219
0.118602
0.145306
0.156362
0.150671
0.0253819
0.0745901
0.112587
0.142717
0.160207
0.16029
0.0232663
0.0651158
0.102829
0.134581
0.157833
0.165903
0.0190016
0.0512018
0.0862965
0.117057
0.144642
0.159115
0.00539401
0.0233958
0.0523601
0.079836
0.109437
0.11797
0.265525
0.20745
0.126285
0.078248
0.0519618
0.0377813
0.0292247
0.0234227
0.019157
0.0158714
0.0132783
0.011215
0.00956931
0.00825822
0.00721859
0.00640076
0.00576389
0.00527257
0.00489484
0.00460136
0.00436623
0.00417083
0.0040047
0.00386549
0.234522
0.187167
0.117511
0.073337
0.049275
0.036285
0.0283857
0.0229866
0.0189773
0.0158653
0.0133915
0.0114077
0.00981107
0.00852558
0.0074931
0.00666788
0.00601256
0.00549515
0.00508701
0.00476139
0.0044936
0.0042654
0.00406644
0.00389935
0.208648
0.165285
0.106731
0.0678155
0.0464421
0.0347487
0.0275367
0.02255
0.0188062
0.0158727
0.0135227
0.0116219
0.0100774
0.00882002
0.00779677
0.00696575
0.00629282
0.0057491
0.00530899
0.00494824
0.00464354
0.00437757
0.00414172
0.00394067
0.186821
0.145741
0.0960336
0.0623816
0.0436808
0.0332556
0.0267158
0.0221332
0.0186555
0.0159017
0.0136771
0.0118614
0.0103713
0.00914435
0.0081326
0.00729769
0.00660841
0.0060386
0.00556528
0.00516659
0.00482081
0.00451224
0.00423504
0.00399204
0.168184
0.128877
0.0862266
0.0573414
0.0410984
0.0318545
0.0259518
0.0217556
0.018538
0.0159611
0.0138613
0.0121313
0.0106968
0.00950224
0.00850406
0.00766727
0.00696319
0.00636791
0.00586071
0.00542183
0.00503114
0.00467472
0.00434958
0.004055
0.151786
0.114546
0.0776038
0.0528325
0.0387551
0.0305787
0.0252669
0.0214354
0.0184655
0.0160607
0.0140829
0.0124377
0.0110592
0.00989815
0.00891522
0.00807842
0.00736126
0.00674159
0.00620041
0.00571961
0.00528025
0.00486995
0.00448866
0.00413087
0.137536
0.102502
0.0702201
0.0488942
0.0366791
0.0294512
0.0246789
0.0211852
0.0184475
0.0162103
0.0143509
0.0127881
0.0114648
0.0103376
0.00937099
0.0085358
0.00780727
0.00716458
0.00658986
0.0060659
0.00557427
0.00510342
0.00465639
0.0042215
0.125336
0.0924795
0.0640026
0.0455208
0.0348833
0.0284898
0.0242055
0.0210247
0.018503
0.0164232
0.0146758
0.0131916
0.0119215
0.0108273
0.00987747
0.00904497
0.00830659
0.00764234
0.0070348
0.00646688
0.00591966
0.00538134
0.00485775
0.00432917
0.115047
0.0842304
0.0588481
0.0426923
0.0333767
0.0277109
0.0238647
0.0209756
0.0186495
0.0167137
0.01507
0.0136591
0.0124389
0.011376
0.0104423
0.00961282
0.00886557
0.00818095
0.00754137
0.00692897
0.0063232
0.0057105
0.00509842
0.00445644
0.106525
0.0775408
0.0546638
0.0403891
0.0321699
0.0271324
0.0236725
0.0210407
0.0189001
0.0170965
0.0155477
0.0142037
0.0130288
0.0119943
0.0110751
0.0102482
0.00949226
0.00878786
0.00811666
0.00745926
0.00679226
0.0060984
0.00538483
0.00460577
0.0996471
0.0722385
0.0513715
0.038598
0.0312766
0.0267728
0.023651
0.0212497
0.0192742
0.0175893
0.0161254
0.0148408
0.0137059
0.012696
0.0117889
0.010963
0.0101979
0.00947351
0.00877046
0.0080671
0.00733612
0.00655438
0.00572502
0.00477921
0.0943257
0.068202
0.0489164
0.0373171
0.0307154
0.026656
0.0238224
0.0216229
0.0197925
0.0182119
0.0168221
0.0155889
0.014488
0.0134987
0.012601
0.0117747
0.0109996
0.010255
0.00951957
0.00876874
0.00797054
0.00709403
0.00613254
0.00497888
0.0905317
0.0653681
0.047277
0.0365592
0.0305181
0.0267988
0.0242106
0.0221837
0.0204779
0.0189866
0.0176598
0.0164697
0.015397
0.0144247
0.013535
0.0127087
0.0119254
0.0111631
0.0103974
0.00959973
0.008732
0.00775403
0.006642
0.00521393
0.088327
0.0637383
0.046479
0.0363531
0.0306683
0.0272382
0.0248436
0.0229584
0.0213558
0.0199384
0.0186631
0.017508
0.0164587
0.0155017
0.0146217
0.013801
0.0130189
0.0122519
0.0114724
0.0106456
0.00972387
0.00865042
0.00737182
0.00555644
0.0879572
0.0634144
0.046477
0.0366789
0.0312598
0.0280069
0.0257532
0.0239766
0.0224547
0.0210951
0.0198595
0.0187315
0.0177016
0.0167605
0.0158966
0.015095
0.0143371
0.013601
0.0128606
0.0120817
0.0112145
0.0101813
0.00878876
0.00650725
0.0891842
0.0643158
0.04743
0.0376828
0.0323237
0.029149
0.0269774
0.0252729
0.0238073
0.022488
0.0212794
0.0201698
0.0191548
0.0182307
0.0173911
0.0166267
0.0159254
0.0152747
0.0146646
0.0140912
0.013558
0.0130851
0.0127587
0.013001
0.0931353
0.0670224
0.0495358
0.0394589
0.0339433
0.0307247
0.0285645
0.0268892
0.0254521
0.0241532
0.0229569
0.0218546
0.0208473
0.0199377
0.0191266
0.0184122
0.0177924
0.0172673
0.0168445
0.0165429
0.0163922
0.0164477
0.016845
0.0177916
0.10019
0.0719239
0.0530846
0.0421954
0.0362396
0.0328173
0.0305783
0.028879
0.0274364
0.0261344
0.0249322
0.0238223
0.0228107
0.021907
0.0211206
0.0204599
0.0199342
0.0195574
0.0193515
0.0193468
0.0195655
0.020067
0.0209531
0.0222495
0.110863
0.0796143
0.0585159
0.0461771
0.039394
0.0355484
0.0331073
0.0313132
0.029822
0.0284875
0.0272565
0.0261192
0.0250849
0.0241703
0.0233943
0.0227772
0.0223414
0.0221139
0.0221268
0.022393
0.0229702
0.0238635
0.0251298
0.0267043
0.124914
0.0904825
0.0663329
0.0517979
0.0436724
0.039095
0.0362773
0.0342894
0.0326909
0.0312858
0.0299976
0.0288074
0.0277251
0.0267735
0.0259816
0.0253827
0.0250134
0.0249149
0.0251013
0.0256251
0.0265179
0.0277511
0.02935
0.0311897
0.140332
0.104052
0.0767856
0.0594686
0.0494184
0.0437034
0.040264
0.0379413
0.0361537
0.0346275
0.033246
0.031972
0.03081
0.0297863
0.0289395
0.0283164
0.0279695
0.027955
0.0282631
0.0289957
0.0301514
0.0316807
0.0335844
0.0356944
0.152282
0.118533
0.0894125
0.0693701
0.0569717
0.0496727
0.0452954
0.0424437
0.0403533
0.0386385
0.0371194
0.0357259
0.0344481
0.0333106
0.0323586
0.0316524
0.031262
0.0312624
0.0316249
0.0324881
0.033843
0.0356192
0.0378008
0.0401906
0.152059
0.12939
0.101987
0.0807566
0.0662832
0.0571906
0.0515855
0.0479833
0.0454496
0.0434628
0.0417557
0.0402066
0.0387783
0.0374845
0.0363717
0.0355106
0.0349899
0.0349089
0.0352423
0.0361241
0.0375912
0.0395469
0.041967
0.0446414
0.136708
0.128874
0.110589
0.0914001
0.0763893
0.0659494
0.0591153
0.0546425
0.0515514
0.0492175
0.0472799
0.0455506
0.0439508
0.0424713
0.0411504
0.0400627
0.0393122
0.0390253
0.0392328
0.0399833
0.0414361
0.0434693
0.046063
0.0490149
0.00431247
0.0104365
0.0209117
0.0321804
0.0414804
0.052384
0.0169483
0.0281379
0.0431972
0.0555961
0.0654474
0.0756735
0.0209754
0.0366891
0.0544938
0.0681501
0.0792303
0.0893695
0.0230073
0.0427508
0.0624808
0.0772515
0.0893224
0.100045
0.0244024
0.0479536
0.0690515
0.0848035
0.0977807
0.10923
0.0254528
0.052886
0.0747921
0.0914158
0.10526
0.117457
0.027872
0.0574314
0.0798798
0.097304
0.111987
0.124927
0.0298973
0.061458
0.084354
0.102537
0.118025
0.131673
0.0315485
0.0649018
0.0882126
0.107127
0.123371
0.137653
0.0328383
0.0677359
0.0914501
0.111066
0.128001
0.142808
0.033784
0.0699456
0.0940613
0.114345
0.131891
0.147092
0.0344127
0.0715142
0.0960379
0.116949
0.135021
0.150481
0.0347322
0.0724229
0.0973663
0.118865
0.137383
0.152973
0.0346531
0.0726601
0.0980241
0.120074
0.138972
0.154594
0.0341438
0.0722308
0.0979775
0.120546
0.13979
0.155388
0.0331911
0.0710847
0.0971761
0.120249
0.139834
0.155413
0.0317891
0.0691668
0.0955477
0.119117
0.139091
0.154738
0.0299253
0.0663956
0.0929872
0.117057
0.137519
0.153427
0.0274894
0.0626387
0.0893372
0.113913
0.135011
0.151479
0.0251936
0.0576551
0.0843473
0.109427
0.131356
0.148816
0.0236175
0.0511945
0.0775826
0.103151
0.126138
0.145213
0.0215195
0.0427792
0.0681712
0.094212
0.118484
0.14002
0.0172184
0.030582
0.0539166
0.0806378
0.106457
0.131328
0.0042936
0.0115092
0.0308767
0.0585245
0.0866176
0.115706
0.118986
0.124768
0.11626
0.100108
0.0861044
0.0753058
0.0675999
0.0622985
0.0586208
0.0559093
0.0537302
0.051828
0.0500708
0.048413
0.0468712
0.0455119
0.0444447
0.0438138
0.0437797
0.0442553
0.0454698
0.0474373
0.0501003
0.0533047
0.117863
0.131471
0.125758
0.11085
0.095961
0.0846719
0.0764672
0.0706083
0.0664187
0.0633449
0.060957
0.0589361
0.0570893
0.0553234
0.0536178
0.0520136
0.0506078
0.0495514
0.049045
0.04919
0.0499492
0.0515953
0.0541451
0.0575377
0.11726
0.144894
0.14496
0.134815
0.115797
0.0999845
0.0885371
0.0805228
0.0751947
0.0715109
0.0687892
0.0666174
0.0647374
0.0629723
0.0612329
0.0595099
0.0578611
0.0564109
0.0553547
0.0549467
0.0552144
0.0562196
0.0583547
0.0617929
0.120882
0.149919
0.164222
0.162491
0.151865
0.132983
0.114936
0.100943
0.0911421
0.0842077
0.0792822
0.0758381
0.0733345
0.0712834
0.069447
0.0676901
0.0659539
0.0642763
0.0627917
0.0617278
0.0613888
0.061752
0.0630743
0.0661764
0.126879
0.153182
0.174834
0.185515
0.184598
0.176929
0.161492
0.144087
0.127213
0.112836
0.101982
0.094001
0.087976
0.0833705
0.0799009
0.0772233
0.0749687
0.0729623
0.0711401
0.0695683
0.0684528
0.0681815
0.068721
0.0709615
0.13381
0.157558
0.181236
0.199464
0.20959
0.211264
0.207163
0.197295
0.183106
0.167093
0.150508
0.134806
0.12107
0.10978
0.100942
0.0940611
0.0887097
0.0846023
0.081386
0.0788078
0.076782
0.075403
0.0752151
0.076439
0.14091
0.162896
0.186411
0.207923
0.224625
0.235253
0.23997
0.238965
0.233961
0.223985
0.210779
0.195272
0.178497
0.161543
0.14524
0.1305
0.117969
0.107724
0.0996315
0.0934115
0.0887076
0.0852423
0.0829686
0.0831045
0.147687
0.168461
0.191078
0.213359
0.233087
0.248804
0.259948
0.266342
0.267977
0.265787
0.259805
0.249675
0.236592
0.22109
0.203899
0.185856
0.167864
0.150786
0.135376
0.122155
0.111349
0.102907
0.0963671
0.0932737
0.153808
0.173616
0.195002
0.21669
0.237031
0.254789
0.269229
0.279958
0.286803
0.289888
0.289317
0.285735
0.278321
0.267646
0.254293
0.238701
0.221382
0.202988
0.184303
0.166103
0.149216
0.134272
0.121606
0.11237
0.159051
0.177909
0.197795
0.218016
0.237481
0.255162
0.270358
0.282643
0.291805
0.297811
0.300718
0.300652
0.298149
0.292667
0.284348
0.273601
0.260568
0.245421
0.22858
0.210599
0.192159
0.174018
0.157238
0.143143
0.16328
0.181059
0.199162
0.217372
0.234936
0.251114
0.265353
0.277299
0.286774
0.293722
0.298165
0.300153
0.299789
0.297288
0.292363
0.285389
0.276592
0.266194
0.254142
0.240459
0.225247
0.208844
0.192609
0.179152
0.166431
0.182936
0.198999
0.214747
0.229737
0.243475
0.255588
0.26583
0.274099
0.280387
0.284754
0.287286
0.288102
0.287325
0.284977
0.281023
0.275547
0.26853
0.260128
0.250553
0.240234
0.229479
0.219124
0.211067
0.168502
0.183511
0.197327
0.210319
0.22233
0.233097
0.242416
0.250188
0.256417
0.261179
0.264594
0.266794
0.267842
0.267927
0.267043
0.265214
0.262452
0.25875
0.254105
0.248562
0.242296
0.236009
0.230719
0.226626
0.169549
0.182908
0.194322
0.204428
0.213305
0.220907
0.227206
0.232261
0.236203
0.239216
0.241486
0.243162
0.244351
0.245085
0.24539
0.245247
0.24459
0.243377
0.241573
0.239179
0.236307
0.233261
0.23034
0.226723
0.169663
0.181274
0.19027
0.197535
0.203367
0.207922
0.211348
0.213871
0.215759
0.217287
0.218687
0.220128
0.221681
0.223281
0.224825
0.22621
0.227334
0.228083
0.228367
0.228076
0.227153
0.225621
0.223369
0.219601
0.168973
0.178827
0.185531
0.19019
0.1933
0.19522
0.196231
0.196722
0.197055
0.197554
0.198473
0.199973
0.20214
0.20476
0.207526
0.210204
0.212693
0.21488
0.216659
0.217925
0.218568
0.218416
0.217179
0.215028
0.167618
0.175821
0.180517
0.182998
0.183926
0.18387
0.18317
0.182298
0.181724
0.181738
0.182715
0.184664
0.187277
0.190416
0.19386
0.196704
0.199181
0.201289
0.202998
0.204293
0.205103
0.205243
0.20489
0.205254
0.165748
0.172533
0.175618
0.176584
0.176196
0.174998
0.173545
0.172453
0.172288
0.173371
0.175574
0.178255
0.180671
0.182269
0.183467
0.184104
0.184035
0.183478
0.182544
0.181265
0.17954
0.177212
0.174868
0.175051
0.163495
0.169245
0.171383
0.171706
0.170949
0.169758
0.168843
0.168831
0.170105
0.172616
0.175783
0.178693
0.180422
0.180274
0.177395
0.17323
0.168535
0.163638
0.158806
0.15409
0.149147
0.143303
0.137395
0.136263
0.161003
0.166317
0.168395
0.169048
0.169112
0.169254
0.170114
0.172298
0.175839
0.180187
0.1842
0.186538
0.186225
0.182928
0.175207
0.16608
0.156741
0.147997
0.140293
0.133711
0.127912
0.123023
0.119685
0.120026
0.158425
0.164181
0.167244
0.169375
0.171411
0.174123
0.17808
0.183333
0.189408
0.195117
0.198877
0.199274
0.196107
0.186437
0.174191
0.160963
0.148466
0.137791
0.129274
0.122801
0.118166
0.115026
0.114004
0.115361
0.155971
0.163435
0.168578
0.173249
0.178565
0.185011
0.192642
0.200939
0.208683
0.214132
0.2156
0.212317
0.20167
0.187116
0.170676
0.154534
0.14072
0.130073
0.122385
0.117143
0.113949
0.112638
0.112959
0.114987
0.154109
0.164937
0.173354
0.181826
0.191285
0.201805
0.212816
0.22298
0.230403
0.233153
0.229689
0.218514
0.202175
0.182777
0.163117
0.145983
0.132856
0.1237
0.11764
0.113954
0.112258
0.112364
0.113615
0.116975
0.154487
0.170142
0.182898
0.195784
0.209567
0.223684
0.236642
0.246321
0.250531
0.246923
0.235518
0.21756
0.195193
0.172138
0.151864
0.13628
0.125478
0.118388
0.113971
0.111768
0.111432
0.112257
0.114687
0.11855
0.00380571
0.00816053
0.0200697
0.0413466
0.0740892
0.117354
0.0160508
0.0246234
0.0420317
0.065285
0.095522
0.131477
0.0202283
0.0346016
0.0552071
0.0801295
0.110039
0.143401
0.0224433
0.0416285
0.0642605
0.0902967
0.120253
0.153037
0.0240286
0.0471136
0.0709753
0.0976676
0.127831
0.161091
0.0249929
0.0515477
0.0759973
0.103029
0.133503
0.167765
0.0259077
0.0550406
0.0796572
0.10678
0.137584
0.17306
0.0270954
0.0575931
0.082159
0.109147
0.140216
0.176946
0.0280177
0.05933
0.0836409
0.110271
0.141479
0.179424
0.0286461
0.0603308
0.084205
0.110257
0.141434
0.180532
0.0289546
0.0606552
0.0839617
0.109183
0.140133
0.180361
0.0289394
0.0603639
0.0829334
0.10713
0.137642
0.17902
0.0285894
0.0594601
0.0812088
0.104176
0.134036
0.176641
0.0279347
0.0579727
0.0788495
0.10041
0.129414
0.173394
0.0270972
0.0558904
0.0759123
0.09592
0.123882
0.169516
0.0261229
0.0532325
0.0724504
0.090801
0.117537
0.165266
0.025155
0.0500594
0.0685203
0.0851461
0.11046
0.160712
0.0249751
0.0465528
0.0641962
0.0790484
0.102713
0.155619
0.0244141
0.0430331
0.0595627
0.072592
0.0943164
0.149496
0.0233881
0.0394698
0.0546326
0.0658201
0.0851658
0.141594
0.0218586
0.0356224
0.0492295
0.058662
0.075114
0.131087
0.0198333
0.0309927
0.0428015
0.0507446
0.0638477
0.117899
0.0159583
0.0241055
0.0336999
0.0406835
0.0498948
0.100641
0.00402266
0.0087067
0.0150148
0.0211255
0.0273167
0.0693233
0.16014
0.18054
0.197779
0.21512
0.232646
0.248762
0.260984
0.266811
0.263171
0.251615
0.23173
0.206499
0.180298
0.157237
0.139565
0.127279
0.119104
0.113781
0.110647
0.109442
0.109801
0.111406
0.114723
0.118633
0.169899
0.19509
0.217139
0.2386
0.258364
0.27373
0.281393
0.277964
0.266452
0.244524
0.216481
0.187423
0.162024
0.142688
0.129189
0.119953
0.113553
0.109249
0.106811
0.106349
0.107175
0.109566
0.113386
0.117258
0.180759
0.21184
0.239038
0.263644
0.283154
0.293575
0.291082
0.279828
0.25643
0.225565
0.193897
0.16655
0.145889
0.131348
0.121064
0.113481
0.107853
0.104038
0.102165
0.102253
0.103548
0.1065
0.110439
0.114116
0.19178
0.229061
0.261064
0.286836
0.302234
0.302001
0.291926
0.267776
0.234358
0.200385
0.171391
0.149592
0.134047
0.122663
0.113832
0.106823
0.101536
0.0981459
0.0968298
0.0972403
0.099022
0.102287
0.106194
0.109646
0.202306
0.24537
0.280827
0.30469
0.310033
0.302194
0.278932
0.243666
0.2077
0.177203
0.154271
0.137624
0.125019
0.114857
0.106431
0.0996413
0.0946734
0.0917438
0.0909308
0.0916456
0.0938024
0.097144
0.100936
0.104163
0.211801
0.259709
0.296266
0.312711
0.30956
0.290135
0.254162
0.216561
0.184583
0.160389
0.142454
0.128453
0.116832
0.106928
0.0986275
0.0920842
0.0875207
0.085069
0.0846724
0.0856266
0.088
0.0913024
0.0949129
0.0979097
0.219912
0.271339
0.305424
0.312747
0.2993
0.266571
0.227613
0.194042
0.168368
0.148922
0.133322
0.120071
0.108568
0.0987079
0.0906012
0.0844265
0.0803269
0.0783134
0.0782144
0.0793223
0.0817612
0.0849326
0.0883166
0.0910848
0.22647
0.279881
0.307622
0.304229
0.280129
0.24107
0.205991
0.178634
0.15745
0.140032
0.124941
0.111652
0.100102
0.0903873
0.0826245
0.076908
0.0732644
0.071599
0.071655
0.0728327
0.0752009
0.0781685
0.0812956
0.0838407
0.231467
0.285225
0.303519
0.290629
0.256934
0.220684
0.191521
0.16844
0.149025
0.13187
0.11655
0.10309
0.0916184
0.0822215
0.0749206
0.0696864
0.0664333
0.0649944
0.0650883
0.0662269
0.0684026
0.0711116
0.0739622
0.0762947
0.234973
0.286812
0.293853
0.273591
0.237852
0.207158
0.182226
0.160749
0.141342
0.123712
0.108038
0.0945476
0.0833496
0.0744168
0.0676345
0.0628501
0.0598903
0.05855
0.0585786
0.059553
0.061451
0.0638479
0.0664028
0.0685331
0.237182
0.28557
0.282342
0.256995
0.225458
0.198996
0.175608
0.153873
0.13367
0.115419
0.0995405
0.0862385
0.0754888
0.0671081
0.0608447
0.0564442
0.0536743
0.0523189
0.0521648
0.0528854
0.0544171
0.0564469
0.0586816
0.0606165
0.238157
0.281454
0.271814
0.245007
0.218348
0.193756
0.169938
0.147022
0.125821
0.107094
0.0912519
0.0783456
0.068165
0.0603675
0.0545858
0.050492
0.0478195
0.0463547
0.0459184
0.0462997
0.0473727
0.0489696
0.0508465
0.0525836
0.237871
0.275916
0.263066
0.23923
0.214903
0.189827
0.164379
0.139947
0.117857
0.0989099
0.0833483
0.0709973
0.0614498
0.0542243
0.0488689
0.0450102
0.0423637
0.0407217
0.0399334
0.0398806
0.0404126
0.0414824
0.0429287
0.0444437
0.236239
0.270609
0.258161
0.237643
0.213219
0.186174
0.158564
0.132644
0.10992
0.0910343
0.0759597
0.0642685
0.0553719
0.0486823
0.0436957
0.0400172
0.0373554
0.0355061
0.0343332
0.0337477
0.0336836
0.0340729
0.0349335
0.0361349
0.233577
0.267661
0.256918
0.238153
0.212201
0.182326
0.152408
0.125215
0.102166
0.0836006
0.0691677
0.058191
0.0499317
0.0437322
0.0390657
0.0355347
0.032849
0.0308037
0.0292603
0.0281294
0.0273517
0.0268961
0.0268294
0.0273866
0.23102
0.266637
0.258296
0.240722
0.211353
0.178084
0.145947
0.11779
0.0947272
0.0766972
0.0630086
0.0527626
0.0451099
0.0393565
0.0349762
0.0315829
0.0288954
0.0267079
0.0248676
0.0232559
0.0217628
0.0202637
0.0186549
0.0173894
0.229152
0.268438
0.263165
0.244368
0.210146
0.173344
0.139261
0.110494
0.0877
0.0703692
0.0574809
0.0479545
0.0408704
0.035527
0.0314154
0.0281709
0.0255285
0.0232885
0.0212898
0.0193858
0.0174152
0.0151652
0.0122936
0.00773949
0.228542
0.274327
0.27067
0.247543
0.208253
0.168117
0.132452
0.103425
0.0811404
0.0646214
0.0525517
0.0437148
0.0371589
0.0321967
0.0283477
0.0252754
0.022738
0.0205541
0.0185778
0.0166785
0.0147218
0.012561
0.0100167
0.00647563
0.230822
0.283881
0.28005
0.249969
0.205641
0.162461
0.125606
0.0966475
0.0750668
0.059428
0.0481653
0.0399748
0.033903
0.0292927
0.0256979
0.0228122
0.0204184
0.018356
0.0164986
0.0147347
0.0129499
0.0110222
0.00883141
0.006034
0.237263
0.29707
0.290539
0.251782
0.202301
0.156412
0.118779
0.0901935
0.0694688
0.0547425
0.0442552
0.0366591
0.0310237
0.0267314
0.023372
0.0206675
0.0184222
0.0164926
0.0147661
0.0131441
0.0115254
0.0098101
0.00792804
0.00568479
0.248663
0.313767
0.301192
0.252706
0.198096
0.149962
0.111998
0.08407
0.0643178
0.0505099
0.040754
0.0336976
0.028451
0.0244409
0.0212927
0.0187539
0.0166475
0.0148438
0.0132416
0.011753
0.0102898
0.0087736
0.00717176
0.00537642
0.266354
0.333771
0.310101
0.252015
0.19282
0.143088
0.105276
0.0782696
0.0595761
0.0466748
0.0376015
0.031032
0.0261304
0.0223699
0.0194098
0.0170209
0.0150423
0.0133564
0.011872
0.0105111
0.00919792
0.00787239
0.00652426
0.00509272
0.292792
0.356269
0.315279
0.248994
0.186303
0.135776
0.0986216
0.0727771
0.0552063
0.0431888
0.034748
0.0286169
0.024022
0.0204837
0.0176929
0.0154413
0.0135824
0.012009
0.010639
0.00940286
0.00823541
0.00709026
0.00596932
0.00483812
0.333821
0.376676
0.317497
0.243568
0.178498
0.128062
0.0920713
0.067599
0.0511887
0.0400192
0.0321594
0.026422
0.022101
0.0187625
0.0161262
0.0140026
0.0122578
0.0107935
0.00953525
0.00842078
0.00739348
0.00641656
0.0054971
0.00461474
)
;

boundaryField
{
    rotor
    {
        type            kqRWallFunction;
        value           nonuniform List<scalar> 
144
(
0.00581785
0.0364726
0.0785157
0.126459
0.15395
0.198801
0.00581785
0.0202637
0.0294767
0.0370747
0.0436272
0.0491061
0.05353
0.056954
0.0594507
0.0610963
0.0619656
0.0621144
0.0616502
0.0606139
0.0589166
0.056518
0.0533923
0.0495131
0.0448506
0.0393812
0.0331004
0.0260598
0.017611
0.00437143
0.00437143
0.0231286
0.054595
0.10137
0.139321
0.145968
0.00589583
0.010228
0.0173999
0.0246891
0.0442224
0.141275
0.00589583
0.0190893
0.0229522
0.0249784
0.0275798
0.031483
0.0344653
0.0369911
0.0390688
0.0406531
0.0417406
0.0422668
0.0422118
0.0415817
0.0404363
0.0388584
0.0369203
0.0346676
0.0320635
0.029022
0.0253819
0.0232663
0.0190016
0.00539401
0.00539401
0.0233958
0.0523601
0.079836
0.109437
0.11797
0.00431247
0.0104365
0.0209117
0.0321804
0.0414804
0.052384
0.00431247
0.0169483
0.0209754
0.0230073
0.0244024
0.0254528
0.027872
0.0298973
0.0315485
0.0328383
0.033784
0.0344127
0.0347322
0.0346531
0.0341438
0.0331911
0.0317891
0.0299253
0.0274894
0.0251936
0.0236175
0.0215195
0.0172184
0.0042936
0.0042936
0.0115092
0.0308767
0.0585245
0.0866176
0.115706
0.00380571
0.00816053
0.0200697
0.0413466
0.0740892
0.117354
0.00380571
0.0160508
0.0202283
0.0224433
0.0240286
0.0249929
0.0259077
0.0270954
0.0280177
0.0286461
0.0289546
0.0289394
0.0285894
0.0279347
0.0270972
0.0261229
0.025155
0.0249751
0.0244141
0.0233881
0.0218586
0.0198333
0.0159583
0.00402266
0.00402266
0.0087067
0.0150148
0.0211255
0.0273167
0.0693233
)
;
    }
    freestream
    {
        type            inletOutlet;