/*--------------------------------*- C++ -*----------------------------------*\
  =========                 |
  \\      /  F ield         | OpenFOAM: The Open Source CFD Toolbox
   \\    /   O peration     | Website:  https://openfoam.org
    \\  /    A nd           | Version:  11
     \\/     M anipulation  |
\*---------------------------------------------------------------------------*/
FoamFile
{
    format      ascii;
    class       surfaceScalarField;
    location    "0.84";
    object      meshPhi;
}
// * * * * * * * * * * * * * * * * * * * * * * * * * * * * * * * * * * * * * //

dimensions      [0 3 -1 0 0 0 0];

internalField   nonuniform List<scalar> 
5640
(
1.3695e-16
9.81747e-07
2.42135e-16
1.37445e-06
3.76993e-16
1.76715e-06
-1.33931e-15
2.15984e-06
-3.68158e-15
2.55254e-06
2.94524e-06
5.95146e-15
1.84752e-18
9.81747e-07
-3.88797e-16
1.37445e-06
-2.60413e-15
1.76715e-06
1.94358e-15
2.15984e-06
8.0663e-15
2.55254e-06
2.94524e-06
-9.0299e-15
-1.16453e-16
9.81747e-07
1.86406e-16
1.37445e-06
-1.5623e-15
1.76715e-06
-4.21248e-15
2.15984e-06
-7.49828e-15
2.55254e-06
2.94524e-06
7.72392e-16
8.6954e-17
9.81747e-07
-1.01937e-16
1.37445e-06
2.6932e-15
1.76715e-06
7.4429e-15
2.15984e-06
3.2598e-15
2.55254e-06
2.94524e-06
-2.79793e-15
-4.83934e-17
9.81747e-07
3.95205e-17
1.37445e-06
1.94333e-16
1.76715e-06
-1.8061e-15
2.15984e-06
-4.20848e-15
2.55254e-06
2.94524e-06
5.01347e-15
-1.80112e-16
9.81747e-07
4.31437e-18
1.37445e-06
-1.84778e-15
1.76715e-06
-3.88618e-15
2.15984e-06
3.157e-15
2.55254e-06
2.94524e-06
4.98189e-16
2.5398e-16
9.81747e-07
2.55414e-16
1.37445e-06
2.06592e-15
1.76715e-06
4.50417e-15
2.15984e-06
-2.31004e-15
2.55254e-06
2.94524e-06
5.40672e-16
2.16415e-17
9.81747e-07
-3.21711e-16
1.37445e-06
-1.14886e-15
1.76715e-06
-5.2856e-15
2.15984e-06
-3.76895e-16
2.55254e-06
2.94524e-06
-5.63997e-15
-1.43405e-16
9.81747e-07
1.66458e-16
1.37445e-06
4.19116e-15
1.76715e-06
6.34941e-15
2.15984e-06
-8.05695e-16
2.55254e-06
2.94524e-06
8.39361e-16
-6.87809e-17
9.81747e-07
-9.20118e-17
1.37445e-06
-2.76942e-15
1.76715e-06
-3.68807e-16
2.15984e-06
-1.45074e-15
2.55254e-06
2.94524e-06
-1.76484e-16
1.66343e-16
9.81747e-07
-8.86386e-17
1.37445e-06
5.69664e-16
1.76715e-06
-2.10351e-15
2.15984e-06
9.65988e-15
2.55254e-06
2.94524e-06
5.29051e-15
-1.77802e-16
9.81747e-07
-2.04583e-17
1.37445e-06
-3.45465e-16
1.76715e-06
-4.17263e-15
2.15984e-06
-2.6224e-15
2.55254e-06
2.94524e-06
5.36956e-15
1.77778e-16
9.81747e-07
2.05379e-17
1.37445e-06
3.4546e-16
1.76715e-06
4.17263e-15
2.15984e-06
2.62233e-15
2.55254e-06
2.94524e-06
-5.36932e-15
-1.66336e-16
9.81747e-07
8.86774e-17
1.37445e-06
-5.69637e-16
1.76715e-06
2.10342e-15
2.15984e-06
-9.66003e-15
2.55254e-06
2.94524e-06
-5.29009e-15
6.87916e-17
9.81747e-07
9.2036e-17
1.37445e-06
2.76947e-15
1.76715e-06
3.68742e-16
2.15984e-06
1.45085e-15
2.55254e-06
2.94524e-06
1.76751e-16
1.43413e-16
9.81747e-07
-1.66373e-16
1.37445e-06
-4.19113e-15
1.76715e-06
-6.34943e-15
2.15984e-06
8.05771e-16
2.55254e-06
2.94524e-06
-8.39298e-16
-2.16657e-17
9.81747e-07
3.21714e-16
1.37445e-06
1.14885e-15
1.76715e-06
5.2857e-15
2.15984e-06
3.76798e-16
2.55254e-06
2.94524e-06
5.63985e-15
-2.53962e-16
9.81747e-07
-2.55395e-16
1.37445e-06
-2.06592e-15
1.76715e-06
-4.5041e-15
2.15984e-06
2.30985e-15
2.55254e-06
2.94524e-06
-5.40995e-16
1.80116e-16
9.81747e-07
-4.30381e-18
1.37445e-06
1.84779e-15
1.76715e-06
3.88616e-15
2.15984e-06
-3.15714e-15
2.55254e-06
2.94524e-06
-4.98271e-16
4.83955e-17
9.81747e-07
-3.95059e-17
1.37445e-06
-1.94303e-16
1.76715e-06
1.80608e-15
2.15984e-06
4.20854e-15
2.55254e-06
2.94524e-06
-5.01335e-15
-8.6972e-17
9.81747e-07
1.01904e-16
1.37445e-06
-2.69325e-15
1.76715e-06
-7.44277e-15
2.15984e-06
-3.25977e-15
2.55254e-06
2.94524e-06
2.79798e-15
1.16457e-16
9.81747e-07
-1.86377e-16
1.37445e-06
1.56241e-15
1.76715e-06
4.21252e-15
2.15984e-06
7.49835e-15
2.55254e-06
2.94524e-06
-7.72272e-16
-1.83878e-18
9.81747e-07
3.88817e-16
1.37445e-06
2.60417e-15
1.76715e-06
-1.94368e-15
2.15984e-06
-8.06624e-15
2.55254e-06
2.94524e-06
9.02994e-15
-1.36957e-16
-2.42006e-16
-3.77051e-16
1.33929e-15
3.68144e-15
-5.95113e-15
-1.13362e-14
4.53785e-06
-4.53785e-06
-4.81122e-16
5.23599e-06
-5.23599e-06
-5.35746e-15
5.93412e-06
-5.93412e-06
-1.13033e-14
6.63225e-06
-6.63225e-06
4.86892e-15
7.33038e-06
-7.33038e-06
-1.10917e-15
8.02851e-06
-8.02851e-06
-8.15865e-15
8.72664e-06
-8.72664e-06
1.30435e-14
9.42478e-06
-9.42478e-06
5.94957e-15
1.01229e-05
-1.01229e-05
-1.99673e-15
1.0821e-05
-1.0821e-05
2.43875e-14
1.15192e-05
-1.15192e-05
1.61896e-14
1.22173e-05
-1.22173e-05
-3.27847e-14
1.29154e-05
-1.29154e-05
-3.05081e-15
1.36136e-05
-1.36136e-05
-1.44403e-14
1.43117e-05
-1.43117e-05
-2.69027e-14
1.50098e-05
-1.50098e-05
7.7422e-15
1.5708e-05
-1.5708e-05
-4.43768e-15
1.64061e-05
-1.64061e-05
-1.80004e-14
1.71042e-05
-1.71042e-05
2.18217e-14
1.78024e-05
-1.78024e-05
8.21375e-15
1.85005e-05
-1.85005e-05
-6.0833e-15
1.91986e-05
-1.91986e-05
3.89217e-14
1.98967e-05
-1.98967e-05
2.05949e-05
-2.05949e-05
9.39889e-15
4.53785e-06
5.20351e-16
5.23599e-06
7.52839e-15
5.93412e-06
-4.41188e-15
6.63225e-06
3.78349e-15
7.33038e-06
1.3385e-14
8.02851e-06
-2.10975e-15
8.72664e-06
8.52839e-15
9.42478e-06
-1.00282e-14
1.01229e-05
1.86609e-15
1.0821e-05
-2.02022e-14
1.15192e-05
-7.01342e-15
1.22173e-05
7.51224e-15
1.29154e-05
2.36083e-14
1.36136e-05
-2.04348e-15
1.43117e-05
1.48321e-14
1.50098e-05
-1.38801e-14
1.5708e-05
2.39098e-15
1.64061e-05
2.04119e-14
1.71042e-05
-7.01912e-15
1.78024e-05
1.20669e-14
1.85005e-05
-2.59447e-14
1.91986e-05
1.85109e-15
1.98967e-05
2.05949e-05
-8.6761e-15
4.53785e-06
1.22926e-14
5.23599e-06
1.88343e-15
5.93412e-06
8.90242e-15
6.63225e-06
-5.10863e-15
7.33038e-06
-2.19908e-14
8.02851e-06
1.22636e-14
8.72664e-06
-5.37449e-15
9.42478e-06
4.45552e-15
1.01229e-05
-1.43052e-14
1.0821e-05
-7.32515e-15
1.15192e-05
7.04104e-15
1.22173e-05
2.39951e-14
1.29154e-05
-7.55423e-15
1.36136e-05
9.80111e-15
1.43117e-05
-1.62372e-14
1.50098e-05
4.0295e-14
1.5708e-05
1.44457e-14
1.64061e-05
-1.37051e-14
1.71042e-05
-7.89857e-15
1.78024e-05
-3.92504e-14
1.85005e-05
4.27497e-14
1.91986e-05
-8.84776e-15
1.98967e-05
2.05949e-05
5.98611e-15
4.53785e-06
2.188e-16
5.23599e-06
-6.43506e-15
5.93412e-06
6.06361e-15
6.63225e-06
-2.09256e-15
7.33038e-06
1.61764e-14
8.02851e-06
-1.88312e-14
8.72664e-06
-2.35061e-15
9.42478e-06
9.1727e-15
1.01229e-05
-4.71107e-15
1.0821e-05
2.16291e-14
1.15192e-05
-2.96436e-14
1.22173e-05
-9.28969e-15
1.29154e-05
-1.89059e-14
1.36136e-05
4.46664e-15
1.43117e-05
3.01551e-14
1.50098e-05
-2.62158e-14
1.5708e-05
4.36531e-16
1.64061e-05
-2.11705e-14
1.71042e-05
1.87129e-14
1.78024e-05
-3.91778e-15
1.85005e-05
-2.91571e-14
1.91986e-05
1.5233e-14
1.98967e-05
2.05949e-05
6.71506e-15
4.53785e-06
-7.30661e-15
5.23599e-06
1.1101e-14
5.93412e-06
-4.24121e-15
6.63225e-06
1.51023e-14
7.33038e-06
-5.20907e-15
8.02851e-06
1.7014e-14
8.72664e-06
-3.94108e-15
9.42478e-06
-2.92748e-16
1.01229e-05
6.61015e-15
1.0821e-05
1.37059e-14
1.15192e-05
1.0183e-14
1.22173e-05
1.82185e-14
1.29154e-05
1.43691e-14
1.36136e-05
2.33414e-14
1.43117e-05
-2.53438e-14
1.50098e-05
2.9074e-14
1.5708e-05
-7.82684e-15
1.64061e-05
3.54159e-14
1.71042e-05
-4.51281e-15
1.78024e-05
4.23707e-14
1.85005e-05
-5.82362e-16
1.91986e-05
-8.73247e-15
1.98967e-05
2.05949e-05
-4.63048e-15
4.53785e-06
5.79735e-15
5.23599e-06
-1.61506e-14
5.93412e-06
-5.97439e-15
6.63225e-06
-8.55491e-15
7.33038e-06
4.22438e-15
8.02851e-06
-8.18675e-15
8.72664e-06
6.99955e-15
9.42478e-06
-2.42297e-14
1.01229e-05
-7.76877e-15
1.0821e-05
-2.27648e-14
1.15192e-05
8.34773e-15
1.22173e-05
-7.40239e-15
1.29154e-05
2.82658e-14
1.36136e-05
-4.57104e-14
1.43117e-05
-8.22185e-15
1.50098e-05
-2.82246e-14
1.5708e-05
-2.33928e-15
1.64061e-05
-6.94735e-15
1.71042e-05
2.21524e-14
1.78024e-05
-3.41106e-14
1.85005e-05
-3.74157e-15
1.91986e-05
-3.23487e-14
1.98967e-05
2.05949e-05
-8.92524e-15
4.53785e-06
-2.28878e-15
5.23599e-06
-2.22388e-15
5.93412e-06
6.61616e-15
6.63225e-06
-3.38744e-15
7.33038e-06
-3.9071e-15
8.02851e-06
-6.41826e-15
8.72664e-06
-7.15887e-15
9.42478e-06
6.8098e-15
1.01229e-05
6.98338e-15
1.0821e-05
-9.06503e-15
1.15192e-05
6.75899e-15
1.22173e-05
-2.88888e-14
1.29154e-05
-1.22341e-14
1.36136e-05
4.80468e-15
1.43117e-05
2.50268e-14
1.50098e-05
3.86319e-15
1.5708e-05
3.60761e-15
1.64061e-05
-2.04834e-14
1.71042e-05
-2.17586e-14
1.78024e-05
3.46649e-15
1.85005e-05
2.90382e-14
1.91986e-05
-1.66492e-15
1.98967e-05
2.05949e-05
6.21587e-15
4.53785e-06
-3.87922e-15
5.23599e-06
1.54223e-14
5.93412e-06
-7.06512e-15
6.63225e-06
-2.21031e-15
7.33038e-06
1.42928e-15
8.02851e-06
-5.49354e-15
8.72664e-06
1.3226e-14
9.42478e-06
6.04514e-15
1.01229e-05
-1.74509e-14
1.0821e-05
2.08874e-14
1.15192e-05
-2.14452e-14
1.22173e-05
1.91332e-14
1.29154e-05
-7.31584e-15
1.36136e-05
3.84866e-14
1.43117e-05
-1.29217e-14
1.50098e-05
-1.88432e-15
1.5708e-05
5.71713e-15
1.64061e-05
-7.58148e-15
1.71042e-05
2.76592e-14
1.78024e-05
1.40996e-14
1.85005e-05
-5.31382e-14
1.91986e-05
3.90888e-14
1.98967e-05
2.05949e-05
-1.49869e-15
4.53785e-06
1.08968e-14
5.23599e-06
-6.59954e-15
5.93412e-06
7.26577e-15
6.63225e-06
6.17494e-15
7.33038e-06
2.48882e-15
8.02851e-06
-9.65461e-16
8.72664e-06
-4.3649e-15
9.42478e-06
-8.90092e-15
1.01229e-05
1.38625e-14
1.0821e-05
1.0691e-14
1.15192e-05
6.25135e-15
1.22173e-05
-1.26428e-16
1.29154e-05
-3.43918e-15
1.36136e-05
-1.1044e-14
1.43117e-05
-1.77649e-14
1.50098e-05
1.76804e-14
1.5708e-05
9.95529e-15
1.64061e-05
3.32779e-15
1.71042e-05
-3.29686e-14
1.78024e-05
-1.04223e-14
1.85005e-05
3.00694e-14
1.91986e-05
-5.99874e-14
1.98967e-05
2.05949e-05
5.17032e-15
4.53785e-06
-7.45554e-15
5.23599e-06
-7.56808e-16
5.93412e-06
6.83994e-15
6.63225e-06
-9.97461e-15
7.33038e-06
-1.66395e-15
8.02851e-06
9.21863e-15
8.72664e-06
-1.34597e-14
9.42478e-06
2.32217e-14
1.01229e-05
1.04732e-14
1.0821e-05
-1.72719e-14
1.15192e-05
-3.02723e-15
1.22173e-05
1.13981e-14
1.29154e-05
-1.98152e-14
1.36136e-05
-4.67836e-15
1.43117e-05
5.03066e-14
1.50098e-05
-2.40459e-14
1.5708e-05
-6.6558e-15
1.64061e-05
1.42626e-14
1.71042e-05
1.64499e-15
1.78024e-05
-6.81027e-15
1.85005e-05
1.44428e-14
1.91986e-05
5.07636e-14
1.98967e-05
2.05949e-05
-6.19719e-15
4.53785e-06
2.82341e-17
5.23599e-06
1.15116e-14
5.93412e-06
-2.06255e-14
6.63225e-06
5.36705e-15
7.33038e-06
1.22212e-15
8.02851e-06
-4.70989e-17
8.72664e-06
1.23926e-14
9.42478e-06
-1.32265e-14
1.01229e-05
-1.88961e-14
1.0821e-05
-4.96411e-15
1.15192e-05
-7.15249e-15
1.22173e-05
-1.48866e-14
1.29154e-05
3.53379e-14
1.36136e-05
-1.13975e-18
1.43117e-05
-4.3136e-14
1.50098e-05
1.35651e-14
1.5708e-05
-2.82543e-14
1.64061e-05
2.4544e-15
1.71042e-05
-1.02415e-14
1.78024e-05
2.38005e-14
1.85005e-05
1.38708e-14
1.91986e-05
-4.55601e-14
1.98967e-05
2.05949e-05
-1.90655e-15
4.53785e-06
1.13062e-15
5.23599e-06
-2.16618e-14
5.93412e-06
9.62403e-15
6.63225e-06
1.51377e-14
7.33038e-06
-1.40646e-14
8.02851e-06
8.09283e-15
8.72664e-06
-2.69601e-14
9.42478e-06
-1.96561e-15
1.01229e-05
2.97175e-14
1.0821e-05
-1.17456e-14
1.15192e-05
1.98679e-14
1.22173e-05
-2.74449e-14
1.29154e-05
-2.06164e-14
1.36136e-05
1.60439e-14
1.43117e-05
-4.6137e-15
1.50098e-05
4.69318e-15
1.5708e-05
4.79705e-14
1.64061e-05
-1.37401e-14
1.71042e-05
3.23713e-14
1.78024e-05
-3.51877e-14
1.85005e-05
-2.49079e-14
1.91986e-05
7.19179e-14
1.98967e-05
2.05949e-05
1.9067e-15
4.53785e-06
-1.13054e-15
5.23599e-06
2.16626e-14
5.93412e-06
-9.6241e-15
6.63225e-06
-1.51373e-14
7.33038e-06
1.40653e-14
8.02851e-06
-8.09313e-15
8.72664e-06
2.69607e-14
9.42478e-06
1.96583e-15
1.01229e-05
-2.97167e-14
1.0821e-05
1.17455e-14
1.15192e-05
-1.98679e-14
1.22173e-05
2.74452e-14
1.29154e-05
2.06153e-14
1.36136e-05
-1.60404e-14
1.43117e-05
4.61407e-15
1.50098e-05
-4.69135e-15
1.5708e-05
-4.79649e-14
1.64061e-05
1.37404e-14
1.71042e-05
-3.23725e-14
1.78024e-05
3.51815e-14
1.85005e-05
2.49075e-14
1.91986e-05
-7.1914e-14
1.98967e-05
2.05949e-05
6.19692e-15
4.53785e-06
-2.88096e-17
5.23599e-06
-1.15116e-14
5.93412e-06
2.06262e-14
6.63225e-06
-5.36687e-15
7.33038e-06
-1.22094e-15
8.02851e-06
4.72395e-17
8.72664e-06
-1.23927e-14
9.42478e-06
1.32271e-14
1.01229e-05
1.88946e-14
1.0821e-05
4.96514e-15
1.15192e-05
7.15299e-15
1.22173e-05
1.48869e-14
1.29154e-05
-3.53406e-14
1.36136e-05
-6.74508e-20
1.43117e-05
4.31408e-14
1.50098e-05
-1.35627e-14
1.5708e-05
2.82571e-14
1.64061e-05
-2.45261e-15
1.71042e-05
1.02403e-14
1.78024e-05
-2.38083e-14
1.85005e-05
-1.38737e-14
1.91986e-05
4.55643e-14
1.98967e-05
2.05949e-05
-5.17009e-15
4.53785e-06
7.45553e-15
5.23599e-06
7.56674e-16
5.93412e-06
-6.83968e-15
6.63225e-06
9.97421e-15
7.33038e-06
1.66551e-15
8.02851e-06
-9.21912e-15
8.72664e-06
1.34607e-14
9.42478e-06
-2.32212e-14
1.01229e-05
-1.04721e-14
1.0821e-05
1.72717e-14
1.15192e-05
3.0267e-15
1.22173e-05
-1.13963e-14
1.29154e-05
1.98181e-14
1.36136e-05
4.6773e-15
1.43117e-05
-5.03046e-14
1.50098e-05
2.40433e-14
1.5708e-05
6.66205e-15
1.64061e-05
-1.42594e-14
1.71042e-05
-1.65445e-15
1.78024e-05
6.81238e-15
1.85005e-05
-1.44402e-14
1.91986e-05
-5.07574e-14
1.98967e-05
2.05949e-05
1.49877e-15
4.53785e-06
-1.08973e-14
5.23599e-06
6.59931e-15
5.93412e-06
-7.26584e-15
6.63225e-06
-6.1749e-15
7.33038e-06
-2.4885e-15
8.02851e-06
9.64787e-16
8.72664e-06
4.36501e-15
9.42478e-06
8.89948e-15
1.01229e-05
-1.38627e-14
1.0821e-05
-1.06925e-14
1.15192e-05
-6.25015e-15
1.22173e-05
1.27767e-16
1.29154e-05
3.43905e-15
1.36136e-05
1.10431e-14
1.43117e-05
1.77638e-14
1.50098e-05
-1.76825e-14
1.5708e-05
-9.954e-15
1.64061e-05
-3.32891e-15
1.71042e-05
3.29681e-14
1.78024e-05
1.04227e-14
1.85005e-05
-3.00654e-14
1.91986e-05
5.99932e-14
1.98967e-05
2.05949e-05
-6.21544e-15
4.53785e-06
3.87925e-15
5.23599e-06
-1.54219e-14
5.93412e-06
7.06496e-15
6.63225e-06
2.21053e-15
7.33038e-06
-1.4303e-15
8.02851e-06
5.49289e-15
8.72664e-06
-1.32258e-14
9.42478e-06
-6.04614e-15
1.01229e-05
1.74505e-14
1.0821e-05
-2.08872e-14
1.15192e-05
2.14454e-14
1.22173e-05
-1.91351e-14
1.29154e-05
7.31514e-15
1.36136e-05
-3.84866e-14
1.43117e-05
1.29219e-14
1.50098e-05
1.88183e-15
1.5708e-05
-5.7212e-15
1.64061e-05
7.58428e-15
1.71042e-05
-2.76577e-14
1.78024e-05
-1.40972e-14
1.85005e-05
5.3145e-14
1.91986e-05
-3.90832e-14
1.98967e-05
2.05949e-05
8.92507e-15
4.53785e-06
2.28883e-15
5.23599e-06
2.2241e-15
5.93412e-06
-6.61667e-15
6.63225e-06
3.38775e-15
7.33038e-06
3.90693e-15
8.02851e-06
6.41904e-15
8.72664e-06
7.15813e-15
9.42478e-06
-6.80957e-15
1.01229e-05
-6.9831e-15
1.0821e-05
9.06573e-15
1.15192e-05
-6.75926e-15
1.22173e-05
2.88903e-14
1.29154e-05
1.22337e-14
1.36136e-05
-4.80574e-15
1.43117e-05
-2.50258e-14
1.50098e-05
-3.86213e-15
1.5708e-05
-3.61075e-15
1.64061e-05
2.04795e-14
1.71042e-05
2.17596e-14
1.78024e-05
-3.46658e-15
1.85005e-05
-2.90425e-14
1.91986e-05
1.66181e-15
1.98967e-05
2.05949e-05
4.63054e-15
4.53785e-06
-5.79752e-15
5.23599e-06
1.61506e-14
5.93412e-06
5.97419e-15
6.63225e-06
8.5556e-15
7.33038e-06
-4.22429e-15
8.02851e-06
8.18649e-15
8.72664e-06
-6.99969e-15
9.42478e-06
2.42292e-14
1.01229e-05
7.7699e-15
1.0821e-05
2.27645e-14
1.15192e-05
-8.34949e-15
1.22173e-05
7.4038e-15
1.29154e-05
-2.82661e-14
1.36136e-05
4.57092e-14
1.43117e-05
8.22145e-15
1.50098e-05
2.8224e-14
1.5708e-05
2.34067e-15
1.64061e-05
6.94054e-15
1.71042e-05
-2.21526e-14
1.78024e-05
3.41117e-14
1.85005e-05
3.74065e-15
1.91986e-05
3.23446e-14
1.98967e-05
2.05949e-05
-6.71497e-15
4.53785e-06
7.30691e-15
5.23599e-06
-1.11007e-14
5.93412e-06
4.241e-15
6.63225e-06
-1.51023e-14
7.33038e-06
5.20901e-15
8.02851e-06
-1.70143e-14
8.72664e-06
3.94009e-15
9.42478e-06
2.94122e-16
1.01229e-05
-6.61166e-15
1.0821e-05
-1.37062e-14
1.15192e-05
-1.01853e-14
1.22173e-05
-1.82182e-14
1.29154e-05
-1.43678e-14
1.36136e-05
-2.33413e-14
1.43117e-05
2.53421e-14
1.50098e-05
-2.90734e-14
1.5708e-05
7.82737e-15
1.64061e-05
-3.54198e-14
1.71042e-05
4.50865e-15
1.78024e-05
-4.23675e-14
1.85005e-05
5.84676e-16
1.91986e-05
8.73459e-15
1.98967e-05
2.05949e-05
-5.98582e-15
4.53785e-06
-2.18941e-16
5.23599e-06
6.43529e-15
5.93412e-06
-6.06481e-15
6.63225e-06
2.09246e-15
7.33038e-06
-1.61765e-14
8.02851e-06
1.88312e-14
8.72664e-06
2.35109e-15
9.42478e-06
-9.17251e-15
1.01229e-05
4.70944e-15
1.0821e-05
-2.1627e-14
1.15192e-05
2.96445e-14
1.22173e-05
9.2907e-15
1.29154e-05
1.89064e-14
1.36136e-05
-4.46645e-15
1.43117e-05
-3.01526e-14
1.50098e-05
2.62167e-14
1.5708e-05
-4.35684e-16
1.64061e-05
2.11692e-14
1.71042e-05
-1.87149e-14
1.78024e-05
3.92705e-15
1.85005e-05
2.91521e-14
1.91986e-05
-1.52285e-14
1.98967e-05
2.05949e-05
8.67617e-15
4.53785e-06
-1.22923e-14
5.23599e-06
-1.88328e-15
5.93412e-06
-8.90243e-15
6.63225e-06
5.10879e-15
7.33038e-06
2.19906e-14
8.02851e-06
-1.22647e-14
8.72664e-06
5.37376e-15
9.42478e-06
-4.45664e-15
1.01229e-05
1.43055e-14
1.0821e-05
7.32531e-15
1.15192e-05
-7.04129e-15
1.22173e-05
-2.39955e-14
1.29154e-05
7.55453e-15
1.36136e-05
-9.80123e-15
1.43117e-05
1.62388e-14
1.50098e-05
-4.02919e-14
1.5708e-05
-1.44472e-14
1.64061e-05
1.37026e-14
1.71042e-05
7.89901e-15
1.78024e-05
3.92525e-14
1.85005e-05
-4.27501e-14
1.91986e-05
8.84982e-15
1.98967e-05
2.05949e-05
-9.39887e-15
4.53785e-06
-5.20522e-16
5.23599e-06
-7.52865e-15
5.93412e-06
4.41183e-15
6.63225e-06
-3.78314e-15
7.33038e-06
-1.33853e-14
8.02851e-06
2.10946e-15
8.72664e-06
-8.52987e-15
9.42478e-06
1.00271e-14
1.01229e-05
-1.86688e-15
1.0821e-05
2.02018e-14
1.15192e-05
7.01151e-15
1.22173e-05
-7.51079e-15
1.29154e-05
-2.36084e-14
1.36136e-05
2.0425e-15
1.43117e-05
-1.48327e-14
1.50098e-05
1.38817e-14
1.5708e-05
-2.39485e-15
1.64061e-05
-2.04119e-14
1.71042e-05
7.01883e-15
1.78024e-05
-1.20652e-14
1.85005e-05
2.59393e-14
1.91986e-05
-1.8453e-15
1.98967e-05
2.05949e-05
1.13361e-14
4.53785e-06
4.80757e-16
5.23599e-06
5.35719e-15
5.93412e-06
1.13038e-14
6.63225e-06
-4.86971e-15
7.33038e-06
1.10871e-15
8.02851e-06
8.15849e-15
8.72664e-06
-1.3045e-14
9.42478e-06
-5.94909e-15
1.01229e-05
1.99553e-15
1.0821e-05
-2.43882e-14
1.15192e-05
-1.61896e-14
1.22173e-05
3.27873e-14
1.29154e-05
3.05168e-15
1.36136e-05
1.44409e-14
1.43117e-05
2.69012e-14
1.50098e-05
-7.73759e-15
1.5708e-05
4.43482e-15
1.64061e-05
1.79998e-14
1.71042e-05
-2.18192e-14
1.78024e-05
-8.20987e-15
1.85005e-05
6.0809e-15
1.91986e-05
-3.8919e-14
1.98967e-05
2.05949e-05
1.3695e-16
9.81747e-07
2.42109e-16
1.37445e-06
3.7696e-16
1.76715e-06
-1.33931e-15
2.15984e-06
-3.6815e-15
2.55254e-06
2.94524e-06
5.9514e-15
1.84752e-18
9.81747e-07
-3.88797e-16
1.37445e-06
-2.60413e-15
1.76715e-06
1.94358e-15
2.15984e-06
8.0663e-15
2.55254e-06
2.94524e-06
-9.0299e-15
-1.16453e-16
9.81747e-07
1.86406e-16
1.37445e-06
-1.5623e-15
1.76715e-06
-4.21248e-15
2.15984e-06
-7.49828e-15
2.55254e-06
2.94524e-06
7.72392e-16
8.6954e-17
9.81747e-07
-1.01937e-16
1.37445e-06
2.6932e-15
1.76715e-06
7.4429e-15
2.15984e-06
3.2598e-15
2.55254e-06
2.94524e-06
-2.79793e-15
-4.83934e-17
9.81747e-07
3.95205e-17
1.37445e-06
1.94333e-16
1.76715e-06
-1.8061e-15
2.15984e-06
-4.20848e-15
2.55254e-06
2.94524e-06
5.01347e-15
-1.80112e-16
9.81747e-07
4.31437e-18
1.37445e-06
-1.84778e-15
1.76715e-06
-3.88618e-15
2.15984e-06
3.157e-15
2.55254e-06
2.94524e-06
4.98189e-16
2.5398e-16
9.81747e-07
2.55414e-16
1.37445e-06
2.06592e-15
1.76715e-06
4.50417e-15
2.15984e-06
-2.31004e-15
2.55254e-06
2.94524e-06
5.40672e-16
2.16415e-17
9.81747e-07
-3.21711e-16
1.37445e-06
-1.14886e-15
1.76715e-06
-5.2856e-15
2.15984e-06
-3.76895e-16
2.55254e-06
2.94524e-06
-5.63997e-15
-1.43405e-16
9.81747e-07
1.66458e-16
1.37445e-06
4.19116e-15
1.76715e-06
6.34941e-15
2.15984e-06
-8.05695e-16
2.55254e-06
2.94524e-06
8.39361e-16
-6.87809e-17
9.81747e-07
-9.20118e-17
1.37445e-06
-2.76942e-15
1.76715e-06
-3.68807e-16
2.15984e-06
-1.45074e-15
2.55254e-06
2.94524e-06
-1.76484e-16
1.66343e-16
9.81747e-07
-8.86386e-17
1.37445e-06
5.69664e-16
1.76715e-06
-2.10351e-15
2.15984e-06
9.65988e-15
2.55254e-06
2.94524e-06
5.29051e-15
-1.77802e-16
9.81747e-07
-2.04583e-17
1.37445e-06
-3.45465e-16
1.76715e-06
-4.17263e-15
2.15984e-06
-2.6224e-15
2.55254e-06
2.94524e-06
5.36956e-15
1.77778e-16
9.81747e-07
2.05379e-17
1.37445e-06
3.4546e-16
1.76715e-06
4.17263e-15
2.15984e-06
2.62233e-15
2.55254e-06
2.94524e-06
-5.36932e-15
-1.66336e-16
9.81747e-07
8.86774e-17
1.37445e-06
-5.69637e-16
1.76715e-06
2.10342e-15
2.15984e-06
-9.66003e-15
2.55254e-06
2.94524e-06
-5.29009e-15
6.87916e-17
9.81747e-07
9.2036e-17
1.37445e-06
2.76947e-15
1.76715e-06
3.68742e-16
2.15984e-06
1.45085e-15
2.55254e-06
2.94524e-06
1.76751e-16
1.43413e-16
9.81747e-07
-1.66373e-16
1.37445e-06
-4.19113e-15
1.76715e-06
-6.34943e-15
2.15984e-06
8.05771e-16
2.55254e-06
2.94524e-06
-8.39298e-16
-2.16657e-17
9.81747e-07
3.21714e-16
1.37445e-06
1.14885e-15
1.76715e-06
5.2857e-15
2.15984e-06
3.76798e-16
2.55254e-06
2.94524e-06
5.63985e-15
-2.53962e-16
9.81747e-07
-2.55395e-16
1.37445e-06
-2.06592e-15
1.76715e-06
-4.5041e-15
2.15984e-06
2.30985e-15
2.55254e-06
2.94524e-06
-5.40995e-16
1.80116e-16
9.81747e-07
-4.30381e-18
1.37445e-06
1.84779e-15
1.76715e-06
3.88616e-15
2.15984e-06
-3.15714e-15
2.55254e-06
2.94524e-06
-4.98271e-16
4.83955e-17
9.81747e-07
-3.95059e-17
1.37445e-06
-1.94303e-16
1.76715e-06
1.80608e-15
2.15984e-06
4.20854e-15
2.55254e-06
2.94524e-06
-5.01335e-15
-8.6972e-17
9.81747e-07
1.01904e-16
1.37445e-06
-2.69325e-15
1.76715e-06
-7.44277e-15
2.15984e-06
-3.25977e-15
2.55254e-06
2.94524e-06
2.79798e-15
1.16457e-16
9.81747e-07
-1.86377e-16
1.37445e-06
1.56241e-15
1.76715e-06
4.21252e-15
2.15984e-06
7.49835e-15
2.55254e-06
2.94524e-06
-7.72272e-16
-1.83878e-18
9.81747e-07
3.88817e-16
1.37445e-06
2.60417e-15
1.76715e-06
-1.94368e-15
2.15984e-06
-8.06624e-15
2.55254e-06
2.94524e-06
9.02994e-15
-1.36939e-16
-2.42059e-16
-3.76963e-16
1.33923e-15
3.68154e-15
-5.95113e-15
-1.1336e-14
4.53785e-06
-4.81125e-16
5.23599e-06
-5.35725e-15
5.93412e-06
-1.13034e-14
6.63225e-06
4.86896e-15
7.33038e-06
-1.10918e-15
8.02851e-06
-8.15812e-15
8.72664e-06
1.30434e-14
9.42478e-06
5.94924e-15
1.01229e-05
-1.99775e-15
1.0821e-05
2.43866e-14
1.15192e-05
1.61896e-14
1.22173e-05
-3.27847e-14
1.29154e-05
-3.05081e-15
1.36136e-05
-1.44412e-14
1.43117e-05
-2.69023e-14
1.50098e-05
7.74218e-15
1.5708e-05
-4.4367e-15
1.64061e-05
-1.79993e-14
1.71042e-05
2.18205e-14
1.78024e-05
8.21184e-15
1.85005e-05
-6.08059e-15
1.91986e-05
3.89184e-14
1.98967e-05
2.05949e-05
9.39889e-15
4.53785e-06
5.20351e-16
5.23599e-06
7.52839e-15
5.93412e-06
-4.41188e-15
6.63225e-06
3.78349e-15
7.33038e-06
1.3385e-14
8.02851e-06
-2.10975e-15
8.72664e-06
8.52839e-15
9.42478e-06
-1.00282e-14
1.01229e-05
1.86609e-15
1.0821e-05
-2.02022e-14
1.15192e-05
-7.01342e-15
1.22173e-05
7.51224e-15
1.29154e-05
2.36083e-14
1.36136e-05
-2.04348e-15
1.43117e-05
1.48321e-14
1.50098e-05
-1.38801e-14
1.5708e-05
2.39098e-15
1.64061e-05
2.04119e-14
1.71042e-05
-7.01912e-15
1.78024e-05
1.20669e-14
1.85005e-05
-2.59447e-14
1.91986e-05
1.85109e-15
1.98967e-05
2.05949e-05
-8.6761e-15
4.53785e-06
1.22926e-14
5.23599e-06
1.88343e-15
5.93412e-06
8.90242e-15
6.63225e-06
-5.10863e-15
7.33038e-06
-2.19908e-14
8.02851e-06
1.22636e-14
8.72664e-06
-5.37449e-15
9.42478e-06
4.45552e-15
1.01229e-05
-1.43052e-14
1.0821e-05
-7.32515e-15
1.15192e-05
7.04104e-15
1.22173e-05
2.39951e-14
1.29154e-05
-7.55423e-15
1.36136e-05
9.80111e-15
1.43117e-05
-1.62372e-14
1.50098e-05
4.0295e-14
1.5708e-05
1.44457e-14
1.64061e-05
-1.37051e-14
1.71042e-05
-7.89857e-15
1.78024e-05
-3.92504e-14
1.85005e-05
4.27497e-14
1.91986e-05
-8.84776e-15
1.98967e-05
2.05949e-05
5.98611e-15
4.53785e-06
2.188e-16
5.23599e-06
-6.43506e-15
5.93412e-06
6.06361e-15
6.63225e-06
-2.09256e-15
7.33038e-06
1.61764e-14
8.02851e-06
-1.88312e-14
8.72664e-06
-2.35061e-15
9.42478e-06
9.1727e-15
1.01229e-05
-4.71107e-15
1.0821e-05
2.16291e-14
1.15192e-05
-2.96436e-14
1.22173e-05
-9.28969e-15
1.29154e-05
-1.89059e-14
1.36136e-05
4.46664e-15
1.43117e-05
3.01551e-14
1.50098e-05
-2.62158e-14
1.5708e-05
4.36531e-16
1.64061e-05
-2.11705e-14
1.71042e-05
1.87129e-14
1.78024e-05
-3.91778e-15
1.85005e-05
-2.91571e-14
1.91986e-05
1.5233e-14
1.98967e-05
2.05949e-05
6.71506e-15
4.53785e-06
-7.30661e-15
5.23599e-06
1.1101e-14
5.93412e-06
-4.24121e-15
6.63225e-06
1.51023e-14
7.33038e-06
-5.20907e-15
8.02851e-06
1.7014e-14
8.72664e-06
-3.94108e-15
9.42478e-06
-2.92748e-16
1.01229e-05
6.61015e-15
1.0821e-05
1.37059e-14
1.15192e-05
1.0183e-14
1.22173e-05
1.82185e-14
1.29154e-05
1.43691e-14
1.36136e-05
2.33414e-14
1.43117e-05
-2.53438e-14
1.50098e-05
2.9074e-14
1.5708e-05
-7.82684e-15
1.64061e-05
3.54159e-14
1.71042e-05
-4.51281e-15
1.78024e-05
4.23707e-14
1.85005e-05
-5.82362e-16
1.91986e-05
-8.73247e-15
1.98967e-05
2.05949e-05
-4.63048e-15
4.53785e-06
5.79735e-15
5.23599e-06
-1.61506e-14
5.93412e-06
-5.97439e-15
6.63225e-06
-8.55491e-15
7.33038e-06
4.22438e-15
8.02851e-06
-8.18675e-15
8.72664e-06
6.99955e-15
9.42478e-06
-2.42297e-14
1.01229e-05
-7.76877e-15
1.0821e-05
-2.27648e-14
1.15192e-05
8.34773e-15
1.22173e-05
-7.40239e-15
1.29154e-05
2.82658e-14
1.36136e-05
-4.57104e-14
1.43117e-05
-8.22185e-15
1.50098e-05
-2.82246e-14
1.5708e-05
-2.33928e-15
1.64061e-05
-6.94735e-15
1.71042e-05
2.21524e-14
1.78024e-05
-3.41106e-14
1.85005e-05
-3.74157e-15
1.91986e-05
-3.23487e-14
1.98967e-05
2.05949e-05
-8.92524e-15
4.53785e-06
-2.28878e-15
5.23599e-06
-2.22388e-15
5.93412e-06
6.61616e-15
6.63225e-06
-3.38744e-15
7.33038e-06
-3.9071e-15
8.02851e-06
-6.41826e-15
8.72664e-06
-7.15887e-15
9.42478e-06
6.8098e-15
1.01229e-05
6.98338e-15
1.0821e-05
-9.06503e-15
1.15192e-05
6.75899e-15
1.22173e-05
-2.88888e-14
1.29154e-05
-1.22341e-14
1.36136e-05
4.80468e-15
1.43117e-05
2.50268e-14
1.50098e-05
3.86319e-15
1.5708e-05
3.60761e-15
1.64061e-05
-2.04834e-14
1.71042e-05
-2.17586e-14
1.78024e-05
3.46649e-15
1.85005e-05
2.90382e-14
1.91986e-05
-1.66492e-15
1.98967e-05
2.05949e-05
6.21587e-15
4.53785e-06
-3.87922e-15
5.23599e-06
1.54223e-14
5.93412e-06
-7.06512e-15
6.63225e-06
-2.21031e-15
7.33038e-06
1.42928e-15
8.02851e-06
-5.49354e-15
8.72664e-06
1.3226e-14
9.42478e-06
6.04514e-15
1.01229e-05
-1.74509e-14
1.0821e-05
2.08874e-14
1.15192e-05
-2.14452e-14
1.22173e-05
1.91332e-14
1.29154e-05
-7.31584e-15
1.36136e-05
3.84866e-14
1.43117e-05
-1.29217e-14
1.50098e-05
-1.88432e-15
1.5708e-05
5.71713e-15
1.64061e-05
-7.58148e-15
1.71042e-05
2.76592e-14
1.78024e-05
1.40996e-14
1.85005e-05
-5.31382e-14
1.91986e-05
3.90888e-14
1.98967e-05
2.05949e-05
-1.49869e-15
4.53785e-06
1.08968e-14
5.23599e-06
-6.59954e-15
5.93412e-06
7.26577e-15
6.63225e-06
6.17494e-15
7.33038e-06
2.48882e-15
8.02851e-06
-9.65461e-16
8.72664e-06
-4.3649e-15
9.42478e-06
-8.90092e-15
1.01229e-05
1.38625e-14
1.0821e-05
1.0691e-14
1.15192e-05
6.25135e-15
1.22173e-05
-1.26428e-16
1.29154e-05
-3.43918e-15
1.36136e-05
-1.1044e-14
1.43117e-05
-1.77649e-14
1.50098e-05
1.76804e-14
1.5708e-05
9.95529e-15
1.64061e-05
3.32779e-15
1.71042e-05
-3.29686e-14
1.78024e-05
-1.04223e-14
1.85005e-05
3.00694e-14
1.91986e-05
-5.99874e-14
1.98967e-05
2.05949e-05
5.17032e-15
4.53785e-06
-7.45554e-15
5.23599e-06
-7.56808e-16
5.93412e-06
6.83994e-15
6.63225e-06
-9.97461e-15
7.33038e-06
-1.66395e-15
8.02851e-06
9.21863e-15
8.72664e-06
-1.34597e-14
9.42478e-06
2.32217e-14
1.01229e-05
1.04732e-14
1.0821e-05
-1.72719e-14
1.15192e-05
-3.02723e-15
1.22173e-05
1.13981e-14
1.29154e-05
-1.98152e-14
1.36136e-05
-4.67836e-15
1.43117e-05
5.03066e-14
1.50098e-05
-2.40459e-14
1.5708e-05
-6.6558e-15
1.64061e-05
1.42626e-14
1.71042e-05
1.64499e-15
1.78024e-05
-6.81027e-15
1.85005e-05
1.44428e-14
1.91986e-05
5.07636e-14
1.98967e-05
2.05949e-05
-6.19719e-15
4.53785e-06
2.82341e-17
5.23599e-06
1.15116e-14
5.93412e-06
-2.06255e-14
6.63225e-06
5.36705e-15
7.33038e-06
1.22212e-15
8.02851e-06
-4.70989e-17
8.72664e-06
1.23926e-14
9.42478e-06
-1.32265e-14
1.01229e-05
-1.88961e-14
1.0821e-05
-4.96411e-15
1.15192e-05
-7.15249e-15
1.22173e-05
-1.48866e-14
1.29154e-05
3.53379e-14
1.36136e-05
-1.13975e-18
1.43117e-05
-4.3136e-14
1.50098e-05
1.35651e-14
1.5708e-05
-2.82543e-14
1.64061e-05
2.4544e-15
1.71042e-05
-1.02415e-14
1.78024e-05
2.38005e-14
1.85005e-05
1.38708e-14
1.91986e-05
-4.55601e-14
1.98967e-05
2.05949e-05
-1.90655e-15
4.53785e-06
1.13062e-15
5.23599e-06
-2.16618e-14
5.93412e-06
9.62403e-15
6.63225e-06
1.51377e-14
7.33038e-06
-1.40646e-14
8.02851e-06
8.09283e-15
8.72664e-06
-2.69601e-14
9.42478e-06
-1.96561e-15
1.01229e-05
2.97175e-14
1.0821e-05
-1.17456e-14
1.15192e-05
1.98679e-14
1.22173e-05
-2.74449e-14
1.29154e-05
-2.06164e-14
1.36136e-05
1.60439e-14
1.43117e-05
-4.6137e-15
1.50098e-05
4.69318e-15
1.5708e-05
4.79705e-14
1.64061e-05
-1.37401e-14
1.71042e-05
3.23713e-14
1.78024e-05
-3.51877e-14
1.85005e-05
-2.49079e-14
1.91986e-05
7.19179e-14
1.98967e-05
2.05949e-05
1.9067e-15
4.53785e-06
-1.13054e-15
5.23599e-06
2.16626e-14
5.93412e-06
-9.6241e-15
6.63225e-06
-1.51373e-14
7.33038e-06
1.40653e-14
8.02851e-06
-8.09313e-15
8.72664e-06
2.69607e-14
9.42478e-06
1.96583e-15
1.01229e-05
-2.97167e-14
1.0821e-05
1.17455e-14
1.15192e-05
-1.98679e-14
1.22173e-05
2.74452e-14
1.29154e-05
2.06153e-14
1.36136e-05
-1.60404e-14
1.43117e-05
4.61407e-15
1.50098e-05
-4.69135e-15
1.5708e-05
-4.79649e-14
1.64061e-05
1.37404e-14
1.71042e-05
-3.23725e-14
1.78024e-05
3.51815e-14
1.85005e-05
2.49075e-14
1.91986e-05
-7.1914e-14
1.98967e-05
2.05949e-05
6.19692e-15
4.53785e-06
-2.88096e-17
5.23599e-06
-1.15116e-14
5.93412e-06
2.06262e-14
6.63225e-06
-5.36687e-15
7.33038e-06
-1.22094e-15
8.02851e-06
4.72395e-17
8.72664e-06
-1.23927e-14
9.42478e-06
1.32271e-14
1.01229e-05
1.88946e-14
1.0821e-05
4.96514e-15
1.15192e-05
7.15299e-15
1.22173e-05
1.48869e-14
1.29154e-05
-3.53406e-14
1.36136e-05
-6.74508e-20
1.43117e-05
4.31408e-14
1.50098e-05
-1.35627e-14
1.5708e-05
2.82571e-14
1.64061e-05
-2.45261e-15
1.71042e-05
1.02403e-14
1.78024e-05
-2.38083e-14
1.85005e-05
-1.38737e-14
1.91986e-05
4.55643e-14
1.98967e-05
2.05949e-05
-5.17009e-15
4.53785e-06
7.45553e-15
5.23599e-06
7.56674e-16
5.93412e-06
-6.83968e-15
6.63225e-06
9.97421e-15
7.33038e-06
1.66551e-15
8.02851e-06
-9.21912e-15
8.72664e-06
1.34607e-14
9.42478e-06
-2.32212e-14
1.01229e-05
-1.04721e-14
1.0821e-05
1.72717e-14
1.15192e-05
3.0267e-15
1.22173e-05
-1.13963e-14
1.29154e-05
1.98181e-14
1.36136e-05
4.6773e-15
1.43117e-05
-5.03046e-14
1.50098e-05
2.40433e-14
1.5708e-05