/*--------------------------------*- C++ -*----------------------------------*\
  =========                 |
  \\      /  F ield         | OpenFOAM: The Open Source CFD Toolbox
   \\    /   O peration     | Website:  https://openfoam.org
    \\  /    A nd           | Version:  11
     \\/     M anipulation  |
\*---------------------------------------------------------------------------*/
FoamFile
{
    format      ascii;
    class       volScalarField;
    location    "0.84";
    object      nut;
}
// * * * * * * * * * * * * * * * * * * * * * * * * * * * * * * * * * * * * * //

dimensions      [0 2 -1 0 0 0 0];

internalField   nonuniform List<scalar> 
2880
(
1.12416e-06
1.36238e-05
4.82215e-05
0.000115733
4.51602e-05
6.15177e-05
3.51292e-05
0.000117096
0.000232342
0.000380012
0.000430685
0.000561148
5.14271e-05
0.000241643
0.000446621
0.000674469
0.000876545
0.00108552
5.76724e-05
0.00034753
0.000640331
0.000934187
0.00121615
0.0015005
6.25601e-05
0.000431264
0.000803462
0.00114868
0.00147543
0.00178945
6.63726e-05
0.000497483
0.000935058
0.00132014
0.00167181
0.00198998
6.92996e-05
0.000549822
0.00103847
0.00145329
0.00181774
0.00212763
7.14846e-05
0.000591325
0.00111735
0.00155291
0.00192215
0.00221946
7.30386e-05
0.000624033
0.00117497
0.00162303
0.00199282
0.00227678
7.40473e-05
0.000648962
0.00121358
0.00166705
0.00203554
0.00230653
7.45773e-05
0.000666307
0.00123448
0.00168757
0.00205368
0.00231403
7.46715e-05
0.000675658
0.00123828
0.00168679
0.00204928
0.00230255
7.43964e-05
0.000676153
0.00122527
0.00166524
0.00202373
0.00227359
7.37728e-05
0.000666851
0.00119526
0.00162289
0.00197708
0.00222584
7.27375e-05
0.00064795
0.00114816
0.00156098
0.00191213
0.00216225
7.12469e-05
0.00061923
0.00108411
0.00147801
0.00182627
0.00207967
6.92544e-05
0.000580098
0.00100235
0.0013733
0.0017173
0.00197525
6.66966e-05
0.000529691
0.000902571
0.00124635
0.00158153
0.0018448
6.34833e-05
0.000466737
0.00078469
0.00109691
0.00141447
0.00168156
5.94898e-05
0.000390792
0.000649029
0.000923506
0.00121361
0.00147621
5.45405e-05
0.000300978
0.000496854
0.000726358
0.000978972
0.00121068
4.83909e-05
0.000198235
0.000331492
0.000509427
0.000714569
0.000865959
3.05398e-05
8.80018e-05
0.000162367
0.000283986
0.000435686
0.000451811
8.448e-07
8.66015e-06
3.35956e-05
9.28993e-05
0.000178149
5.28663e-05
0.000588759
0.00143249
0.00194056
0.00214304
0.0022457
0.00233722
0.00247436
0.00268611
0.00297292
0.00331373
0.0036622
0.00399758
0.00430624
0.00457486
0.00478922
0.00493531
0.00500182
0.00498299
0.00488054
0.00470366
0.00446674
0.00418666
0.00388198
0.00356859
0.00122648
0.00185065
0.00214243
0.00226737
0.0023382
0.00242135
0.00256562
0.00279264
0.0030946
0.00344369
0.003788
0.00411045
0.00439945
0.00464297
0.00482769
0.00494058
0.00497198
0.00491895
0.00478728
0.00459101
0.0043489
0.00408072
0.00380617
0.00354064
0.00167117
0.00211143
0.00229388
0.00236667
0.0024187
0.0025007
0.0026562
0.00289957
0.00321498
0.00356823
0.00390437
0.004211
0.00447822
0.00469491
0.00484828
0.00492612
0.00492057
0.00483207
0.0046714
0.00445816
0.00421547
0.00396488
0.00372524
0.00350896
0.00196901
0.0022831
0.00240303
0.00244528
0.00248906
0.00257606
0.00274595
0.003006
0.00333296
0.00368542
0.00401071
0.00429954
0.00454356
0.00473218
0.00485286
0.00489413
0.00485039
0.00472637
0.00453894
0.00431363
0.00407697
0.00385014
0.00364833
0.00347869
0.00217313
0.00240625
0.0024827
0.00250857
0.00255147
0.00264811
0.00283447
0.00311071
0.00344694
0.00379492
0.00410709
0.00437682
0.0045968
0.00475655
0.00484355
0.00484726
0.00476502
0.00460715
0.00439745
0.00416699
0.00394362
0.00374528
0.00358115
0.00345239
0.00231383
0.00249206
0.00254004
0.00256032
0.00260754
0.00271713
0.00292104
0.00321244
0.00355566
0.00389627
0.00419384
0.00444384
0.00463945
0.00476993
0.00482266
0.00478848
0.00466874
0.00448055
0.00425505
0.00402726
0.00382339
0.00365555
0.00352604
0.0034309
0.00240931
0.00254951
0.00258046
0.00260328
0.00265831
0.00278297
0.0030047
0.00330992
0.00365809
0.0039893
0.00427157
0.00450177
0.0046731
0.00477426
0.00479264
0.00472109
0.00456628
0.00435308
0.00411935
0.00390147
0.00372096
0.00358276
0.00348295
0.0034141
0.00247126
0.00258554
0.00260816
0.00263927
0.0027042
0.0028451
0.00308435
0.00340199
0.00375344
0.0040741
0.00434103
0.00455188
0.00469938
0.00477152
0.00475601
0.00464865
0.0044626
0.00423091
0.00399645
0.00379386
0.00363781
0.0035262
0.0034505
0.00340144
0.00250727
0.00260513
0.00262615
0.0026691
0.002745
0.00290262
0.00315881
0.00348762
0.00384114
0.00415095
0.00440313
0.00459544
0.00471985
0.00476367
0.00471538
0.00457477
0.00436243
0.00411916
0.00389036
0.00370601
0.00357312
0.0034838
0.00342682
0.00339228
0.00252297
0.00261178
0.00263652
0.00269242
0.00277986
0.00295439
0.00322695
0.00356597
0.00392078
0.00422026
0.00445878
0.00463371
0.00473608
0.00475265
0.00467335
0.00450295
0.00426994
0.00402155
0.00380291
0.00363742
0.00352482
0.00345315
0.00340989
0.00338588
0.00252214
0.00260781
0.00264098
0.00270723
0.00280747
0.00299914
0.00328777
0.00363653
0.00399189
0.00428253
0.00450898
0.00466795
0.00474956
0.00474039
0.00463251
0.00443643
0.00418841
0.00394017
0.00373411
0.00358634
0.00349062
0.00343136
0.00339856
0.00338162
0.00250716
0.0025945
0.00263941
0.0027135
0.00282684
0.00303579
0.00334047
0.00369919
0.00405401
0.00433844
0.00455474
0.00469938
0.0047618
0.00472881
0.00459534
0.00437806
0.00412017
0.00387574
0.00368269
0.00355009
0.00346723
0.00341781
0.00339198
0.00337913
0.00247927
0.00257238
0.00263111
0.00271133
0.00283728
0.00306342
0.00338426
0.00375337
0.00410889
0.00438907
0.00459709
0.00472914
0.00477418
0.00471971
0.00456406
0.00433007
0.00406661
0.00382806
0.00364703
0.0035267
0.00345288
0.00341014
0.00338828
0.00337778
0.00243887
0.00254145
0.00261518
0.00269997
0.00283788
0.00308123
0.00341862
0.00379897
0.00415718
0.00443517
0.00463686
0.0047582
0.00478791
0.00471466
0.0045405
0.00429403
0.00402822
0.00379614
0.00362507
0.00351345
0.00344604
0.00340745
0.00338733
0.00337739
0.0023856
0.00250144
0.00259036
0.00267821
0.00282759
0.00308847
0.00344318
0.00383605
0.00419932
0.0044773
0.00467471
0.00478735
0.00480401
0.00471493
0.00452602
0.00427085
0.00400489
0.00377888
0.00361542
0.00350981
0.00344611
0.0034088
0.00338839
0.00337772
0.0023202
0.00245212
0.00255464
0.00264442
0.00280528
0.00308453
0.00345779
0.00386478
0.00423565
0.00451592
0.00471114
0.00481718
0.00482325
0.00472148
0.00452152
0.00426092
0.00399637
0.00377491
0.00361621
0.00351349
0.00345066
0.00341324
0.00339137
0.0033787
0.00224027
0.00239352
0.00250436
0.00259655
0.00276991
0.00306909
0.00346258
0.00388553
0.00426657
0.00455137
0.0047465
0.00484811
0.00484615
0.00473491
0.00452731
0.00426361
0.00400006
0.00378255
0.00362632
0.00352401
0.00345993
0.00342027
0.00339561
0.00338008
0.00214481
0.00232553
0.00243634
0.00253154
0.00272041
0.00304238
0.00345812
0.00389893
0.00429251
0.00458399
0.00478105
0.00488036
0.00487302
0.00475502
0.00454252
0.00427869
0.00401733
0.00380134
0.00364501
0.00354072
0.00347346
0.00342998
0.00340132
0.00338197
0.00203126
0.0022457
0.00235287
0.00245106
0.00265539
0.0030033
0.00344466
0.00390584
0.00431405
0.00461408
0.00481491
0.00491394
0.00490331
0.00478192
0.00456917
0.00430591
0.00404628
0.00383037
0.00367173
0.00356338
0.00349119
0.00344246
0.00340862
0.00338445
0.00189627
0.00215176
0.00225221
0.00235634
0.00257776
0.00295287
0.00342184
0.00390557
0.00433071
0.00464162
0.00484813
0.0049488
0.00493801
0.00481697
0.004605
0.00434423
0.00408622
0.00386906
0.00370624
0.00359198
0.00351322
0.00345787
0.00341769
0.00338768
0.00173656
0.00204047
0.00213428
0.00224803
0.00249061
0.00289489
0.00339212
0.00389934
0.00434281
0.00466584
0.00487976
0.00498482
0.00497642
0.00485762
0.0046492
0.00439259
0.00413637
0.00391702
0.00374851
0.00362669
0.00353983
0.00347651
0.00342881
0.00339186
0.00154293
0.00190412
0.00199735
0.0021297
0.00239838
0.0028331
0.00335902
0.00388996
0.0043513
0.00468726
0.00491016
0.00502127
0.00501741
0.00490343
0.0047011
0.00445003
0.004196
0.00397394
0.00379863
0.00366785
0.00357145
0.00349878
0.0034423
0.0033972
0.00128229
0.00173823
0.00184965
0.00201389
0.00230747
0.00277144
0.00332513
0.00387925
0.00435713
0.00470631
0.0049393
0.0050578
0.00506047
0.0049537
0.00475951
0.00451545
0.00426431
0.0040395
0.0038567
0.00371585
0.00360856
0.00352516
0.00345856
0.00340397
0.000855905
0.00154861
0.00172109
0.00191089
0.00222316
0.00271253
0.00329218
0.00386853
0.00436109
0.00472315
0.00496667
0.00509381
0.00510479
0.00500734
0.00482324
0.00458773
0.00434048
0.00411333
0.00392282
0.00377109
0.00365173
0.00355619
0.00347776
0.00341212
1.13871e-06
3.81696e-06
1.0682e-05
2.25484e-05
5.59915e-05
5.16555e-05
3.30901e-05
6.09639e-05
9.34455e-05
0.000103765
9.16697e-05
0.000135781
0.000183972
0.000123596
0.000153017
0.000153052
0.000163048
0.000254115
4.72356e-05
0.000158824
0.000191615
0.000189525
0.000232239
0.000341806
4.95005e-05
0.000186265
0.000222683
0.000230762
0.000299461
0.000409024
5.31433e-05
0.00021323
0.000250758
0.000274484
0.000344946
0.000465866
5.55891e-05
0.000238259
0.000276616
0.000316839
0.000381405
0.000517165
5.75659e-05
0.00026118
0.000302995
0.000353447
0.000407953
0.000561144
5.91495e-05
0.000282046
0.000330446
0.000381013
0.000433324
0.000595182
6.0329e-05
0.000300792
0.000357469
0.000403466
0.00045792
0.000620057
6.11238e-05
0.000317097
0.000382967
0.000423336
0.000481237
0.000637022
6.15132e-05
0.000330963
0.000406151
0.000443723
0.00050304
0.000647681
6.14811e-05
0.000342135
0.00042738
0.000464315
0.000524198
0.000654136
6.10322e-05
0.000350249
0.000446837
0.000487033
0.000545339
0.000659991
6.01991e-05
0.000354687
0.000463936
0.000511853
0.0005625
0.00066468
5.90263e-05
0.000355304
0.000477496
0.000537284
0.000586306
0.00067242
5.75491e-05
0.000350957
0.000485652
0.000561736
0.000608767
0.000687516
5.5782e-05
0.000340297
0.000486065
0.000579525
0.000630199
0.000704481
5.36609e-05
0.000321261
0.000473368
0.000582579
0.0006484
0.000713067
5.10614e-05
0.000290578
0.000443058
0.000562914
0.00065197
0.000701092
4.77526e-05
0.000243824
0.000388408
0.000515292
0.000618444
0.00066633
0.000186112
0.000176419
0.000299711
0.000421089
0.000529294
0.000577664
3.29449e-05
8.77946e-05
0.000170824
0.000266375
0.000370491
0.000372786
1.04302e-06
8.74388e-06
3.21711e-05
7.30953e-05
0.000139742
0.000201811
0.000814373
0.00147802
0.00163992
0.00182123
0.00214431
0.00265457
0.00325987
0.00385869
0.00436392
0.00473798
0.00499207
0.00512874
0.00514956
0.00506329
0.00489114
0.00466578
0.00442373
0.00419509
0.00399709
0.00383402
0.00370154
0.00359239
0.00350026
0.00342176
0.000816143
0.001374
0.00154385
0.00172137
0.00206574
0.00260367
0.00323236
0.00385098
0.00436645
0.00475083
0.00501523
0.00516201
0.00519395
0.00512054
0.00496211
0.00474862
0.00451334
0.00428451
0.00407971
0.00390514
0.00375861
0.00363425
0.00352643
0.00343294
0.000852338
0.0013221
0.00146502
0.00164201
0.00201149
0.00257232
0.00321759
0.00384856
0.00436954
0.00476196
0.00503588
0.00519302
0.0052371
0.00517804
0.00503499
0.00483514
0.00460847
0.00438112
0.00417063
0.00398478
0.00382341
0.00368227
0.00355689
0.00344593
0.000887831
0.00128059
0.00142376
0.00161258
0.0019971
0.00256767
0.00321802
0.00385274
0.00437352
0.004772
0.00505372
0.00522098
0.00527792
0.00523445
0.00510834
0.0049239
0.00470783
0.00448396
0.00426934
0.00407287
0.00389623
0.00373697
0.00359218
0.00346096
0.000916885
0.00124446
0.00138873
0.00159523
0.00199972
0.00257964
0.00323038
0.00386017
0.00437673
0.0047788
0.00506735
0.00524454
0.00531487
0.00528804
0.00518025
0.00501294
0.00480955
0.0045914
0.00437464
0.00416877
0.003977
0.00379864
0.00363246
0.00347784
0.000932705
0.00121089
0.00135811
0.0015849
0.00200768
0.00259497
0.00324673
0.00386522
0.00437688
0.00478087
0.00507517
0.0052619
0.00534592
0.00533655
0.00524827
0.00509971
0.00491107
0.00470108
0.00448453
0.00427104
0.00406487
0.00386686
0.00367736
0.00349604
0.000937442
0.00117855
0.00133069
0.00157827
0.00201776
0.00261026
0.00325922
0.00386282
0.00437248
0.0047765
0.00507519
0.00527083
0.00536855
0.00537715
0.00530936
0.005181
0.00500912
0.00480976
0.00459608
0.00437721
0.00415798
0.00394028
0.00372584
0.00351462
0.000933737
0.00114691
0.00130538
0.00157296
0.00202722
0.00262304
0.00326695
0.00385379
0.00435984
0.00476301
0.0050648
0.00526854
0.00537973
0.00540655
0.00535993
0.00525298
0.0050997
0.00491338
0.00470528
0.00448361
0.00425314
0.00401632
0.00377585
0.003532
0.00092377
0.00111579
0.00128129
0.00156724
0.00203402
0.00263123
0.00326862
0.00384538
0.00433934
0.00473819
0.00504116
0.00525187
0.00537601
0.00542101
0.00539597
0.00531137
0.00517825
0.00500718
0.00480728
0.00458547
0.00434592
0.00409104
0.00382403
0.00354551
0.000909178
0.00108513
0.00125782
0.00155986
0.00203645
0.00263208
0.00325266
0.00382112
0.00430548
0.00469843
0.00500089
0.00521737
0.00535374
0.00541662
0.0054133
0.00535173
0.00524005
0.00508614
0.00489685
0.00467745
0.00443104
0.00415944
0.00386571
0.00355117
0.000891255
0.00105487
0.00123446
0.00154975
0.0020328
0.00262396
0.00323016
0.00378312
0.00425528
0.00464024
0.00494047
0.00516147
0.00530925
0.00538956
0.00540795
0.00536988
0.00528076
0.00514571
0.00496923
0.0047546
0.00450344
0.00421636
0.00389555
0.00354361
0.000871103
0.00102497
0.00121075
0.00153589
0.00202125
0.00260331
0.00319209
0.00372768
0.00418518
0.0045601
0.0048565
0.00508084
0.00523919
0.00533648
0.00537656
0.00536255
0.00529721
0.00518293
0.00502161
0.00481424
0.00456039
0.00425876
0.0039094
0.00351667
0.000849882
0.000995904
0.00118564
0.00151566
0.00199894
0.00256519
0.00313491
0.0036509
0.00409159
0.00445471
0.00474595
0.00497261
0.00514085
0.0052548
0.00531681
0.00532792
0.00528834
0.00519778
0.00505534
0.00485917
0.0046059
0.00429081
0.00390929
0.00346537
0.00082705
0.000965701
0.00115684
0.00148517
0.0019557
0.00250707
0.0030549
0.00354913
0.0039713
0.00432135
0.00460643
0.00483464
0.00501224
0.00514281
0.00522752
0.00526573
0.00525557
0.00519438
0.00507861
0.00490316
0.00466001
0.00433693
0.00391657
0.00338892
0.000812927
0.000938053
0.00112044
0.0014392
0.00189671
0.00242563
0.0029487
0.0034194
0.00382195
0.00415819
0.00443648
0.00466563
0.00485214
0.00499943
0.00510805
0.0051764
0.00520145
0.00517935
0.00510544
0.00497307
0.00477015
0.0044708
0.00401086
0.00329343
0.00079236
0.000904827
0.00107888
0.00138246
0.00181694
0.00231843
0.00281394
0.00325987
0.00364241
0.00396462
0.00423572
0.00446515
0.0046599
0.00482367
0.00495713
0.0050586
0.00512507
0.00515326
0.00514057
0.00508574
0.00498881
0.00485143
0.00468344
0.0045481
0.000781582
0.000875555
0.00103274
0.00131237
0.0017158
0.00218447
0.00264984
0.00307038
0.00343308
0.00374141
0.00400498
0.00423377
0.00443543
0.00461448
0.00477231
0.0049079
0.0050186
0.00510123
0.00515305
0.00517269
0.00516127
0.00512777
0.00508839
0.00508142
0.000777537
0.000849351
0.000983113
0.00123044
0.00159472
0.00202505
0.00245788
0.00285275
0.00319614
0.00349091
0.00374651
0.00397326
0.00417964
0.00437134
0.00455113
0.00471917
0.00487349
0.00501035
0.00512478
0.00521155
0.00526743
0.00530688
0.0053295
0.00535922
0.00077983
0.000827702
0.000932402
0.00114013
0.00145784
0.00184439
0.00224214
0.00261096
0.00293553
0.00321702
0.00346403
0.00368688
0.00389485
0.00409503
0.00429198
0.00448767
0.00468121
0.00486852
0.00504174
0.00518084
0.00531073
0.00540479
0.00546833
0.00551832
0.000781981
0.000809835
0.0008838
0.0010472
0.00131241
0.00164991
0.00200945
0.00235119
0.00265697
0.0029252
0.00316281
0.0033796
0.00358535
0.00378852
0.00399569
0.00421113
0.00443591
0.00466666
0.00488353
0.0050786
0.0052723
0.00541461
0.00551396
0.00558
0.000756959
0.00078496
0.000837132
0.000958562
0.00116891
0.00145253
0.00176953
0.00208174
0.00236779
0.0026223
0.00284956
0.00305813
0.00325771
0.00345775
0.00366673
0.00389153
0.00413596
0.00439866
0.00465055
0.00489367
0.00514029
0.00533122
0.00546451
0.00554598
0.000671622
0.00073783
0.000783475
0.00087168
0.00103085
0.00126005
0.00153177
0.00181178
0.0020764
0.00231622
0.00253215
0.00273066
0.00292063
0.00311175
0.00331386
0.00353625
0.00378614
0.00406581
0.00434294
0.00462297
0.00490924
0.00515059
0.00531846
0.00541658
0.000489465
0.000645982
0.000725232
0.000803641
0.000921701
0.00109554
0.00131515
0.00155583
0.00179405
0.00201637
0.00221936
0.00240633
0.00258424
0.00276202
0.00294979
0.00315847
0.00339851
0.00367714
0.00396764
0.00426912
0.00457774
0.00486775
0.00507515
0.005192
0.00025994
0.000394052
0.000554199
0.000671719
0.000790211
0.000935979
0.00111576
0.00131893
0.00152851
0.00173083
0.00191931
0.00209382
0.00225864
0.00242086
0.00258963
0.00277602
0.00299243
0.00325069
0.00353989
0.00384319
0.00416051
0.00447714
0.00473476
0.00487316
8.32824e-07
3.89791e-06
1.28413e-05
2.9438e-05
5.29243e-05
8.88617e-05
2.93681e-05
6.69401e-05
0.000125388
0.000187548
0.000251627
0.000299881
0.000167669
0.000150213
0.000258082
0.000361973
0.000454921
0.000500521
0.000183908
0.000214197
0.000368002
0.000505771
0.000619227
0.00067613
0.000195059
0.000258101
0.000455882
0.00062103
0.00075156
0.000825436
4.77611e-05
0.000284669
0.000526161
0.000713952
0.000859174
0.000950595
4.99781e-05
0.000313496
0.000582755
0.000788904
0.000947144
0.00105445
5.17599e-05
0.000341698
0.000629162
0.000849556
0.00101945
0.00114123
5.31675e-05
0.000367795
0.00066695
0.000897871
0.00107842
0.00121316
5.42409e-05
0.00039055
0.000696353
0.000935031
0.0011253
0.0012716
5.50139e-05
0.000408747
0.000717068
0.000961561
0.00116069
0.0013173
5.55213e-05
0.000421096
0.000728631
0.000977482
0.00118466
0.00135065
5.57754e-05
0.000426652
0.000730597
0.000982366
0.00119692
0.00137168
5.57097e-05
0.00042548
0.000722414
0.000975519
0.00119683
0.00138015
5.52971e-05
0.000417669
0.000703439
0.00095594
0.00118336
0.0013754
5.45192e-05
0.000402598
0.000672945
0.000922503
0.00115497
0.0013563
5.33556e-05
0.000379671
0.000630173
0.000873686
0.00110963
0.00132104
5.17347e-05
0.000348346
0.000574417
0.000807795
0.00104487
0.00126689
4.91642e-05
0.00030786
0.000505138
0.000723384
0.000957303
0.00118742
4.7823e-05
0.000257347
0.000422254
0.000619104
0.000841908
0.00107504
0.000189736
0.000197054
0.000326434
0.000494172
0.00069414
0.000919515
0.000172118
0.000127473
0.000219357
0.000349551
0.000512729
0.000711119
2.98269e-05
5.38134e-05
0.000106228
0.000191893
0.000305694
0.000453295
8.28736e-07
4.29835e-06
1.89447e-05
5.34784e-05
0.0001104
0.000196544
0.000223463
0.000303306
0.000443926
0.00055226
0.000662649
0.000786575
0.000933702
0.00110276
0.00128383
0.0014649
0.00163788
0.00179976
0.00195189
0.00209884
0.00224772
0.00240812
0.00259215
0.00281352
0.0030833
0.00337069
0.0036816
0.00399195
0.00429054
0.00446914
0.000306134
0.000341896
0.000382217
0.000465284
0.000552427
0.000657516
0.000779345
0.000917691
0.00106841
0.001225
0.00138024
0.00152883
0.00166915
0.00180287
0.00193434
0.00207051
0.00222126
0.00239971
0.00262123
0.00288534
0.00316743
0.0034671
0.00375877
0.00398666
0.000467436
0.000446436
0.000456502
0.000471602
0.000504104
0.000564975
0.000654656
0.00076133
0.000888817
0.00102368
0.00115899
0.00129066
0.00141725
0.00153844
0.00165558
0.00177242
0.00189532
0.002034
0.00220204
0.00241496
0.00266402
0.0029319
0.00319565
0.00344971
0.00065977
0.000593853
0.000594657
0.000594901
0.000590397
0.000594185
0.000614665
0.000669529
0.000750843
0.000845876
0.000953843
0.00107288
0.00119476
0.0013082
0.00141487
0.00151779
0.00162074
0.00172958
0.00185358
0.00200604
0.00220301
0.00243261
0.00267085
0.00289655
0.000836633
0.000778681
0.00075816
0.000768776
0.000767407
0.000759579
0.00075033
0.00074847
0.000758256
0.000789341
0.000849842
0.000922793
0.00100498
0.00109612
0.00119514
0.00129529
0.00138968
0.00148218
0.00157849
0.00168712
0.00182087
0.00200024
0.00221365
0.00239156
0.000989516
0.000966348
0.000953364
0.00095878
0.000976986
0.000983251
0.000980907
0.000973488
0.000963784
0.000954969
0.000947595
0.000952363
0.000972162
0.00100987
0.00106268
0.00112507
0.00119729
0.00127741
0.00135927
0.00144415
0.00153837
0.00165348
0.00182728
0.00197698
0.00112018
0.00113561
0.00114412
0.00116347
0.00118874
0.00121652
0.00123438
0.00123918
0.00123882
0.00123026
0.00121327
0.00119155
0.00116834
0.00114772
0.00113355
0.00113174
0.00114548
0.00117383
0.00121689
0.00127213
0.00133762
0.00141273
0.00151945
0.0016591
0.00123113
0.00127921
0.00131308
0.00135032
0.0013914
0.00143152
0.00146722
0.00149268
0.00150775
0.00150909
0.0015038
0.00148543
0.00145731
0.00142129
0.0013803
0.00133814
0.00129895
0.00126721
0.00124745
0.00124304
0.00125603
0.00128534
0.00133146
0.00143597
0.00132285
0.00139694
0.00145301
0.0015069
0.00156152
0.0016147
0.00166321
0.001703
0.00173208
0.00174994
0.00175398
0.0017485
0.00172988
0.00169757
0.00165568
0.00160629
0.00155167
0.00149428
0.00143777
0.00138633
0.00134474
0.00131735
0.00130243
0.00134664
0.00139735
0.00149108
0.00156331
0.00162883
0.00169305
0.00175454
0.00181046
0.00185784
0.00189472
0.00192027
0.00193399
0.00193642
0.00193023
0.00191378
0.00188494
0.00184479
0.00179408
0.00173427
0.00166835
0.00160036
0.0015336
0.00147266
0.0014185
0.00141196
0.00145613
0.00156391
0.00164616
0.00171849
0.00178675
0.00185116
0.00190992
0.00196091
0.00200257
0.00203395
0.00205444
0.00206367
0.00206153
0.00204853
0.00202468
0.00199398
0.00195726
0.00191602
0.00186787
0.00181023
0.00174299
0.00167017
0.00160281
0.00157804
0.00150029
0.00161762
0.00170499
0.00177868
0.0018458
0.00190796
0.00196447
0.00201408
0.00205573
0.00208877
0.00211284
0.00212796
0.00213385
0.00213081
0.00211907
0.0020987
0.00207002
0.00203312
0.001991
0.00194734
0.00190618
0.00186668
0.00182706
0.00180581
0.00153063
0.00165392
0.00174263
0.00181326
0.00187462
0.00192984
0.00197938
0.00202294
0.00206023
0.00209114
0.00211583
0.00213552
0.00214823
0.00215537
0.0021562
0.00215047
0.00213814
0.00211945
0.00209484
0.00206522
0.00203222
0.00200311
0.00198697
0.00198378
0.00154778
0.00167523
0.00176198
0.00182597
0.00187761
0.00192155
0.00195942
0.00199193
0.00201969
0.00204339
0.00206446
0.00208424
0.00210302
0.00211959
0.00213353
0.00214406
0.00215059
0.00215311
0.00215112
0.00214464
0.00213439
0.00212212
0.00211007
0.00210472
0.001552
0.00168273
0.0017657
0.00182039
0.00185898
0.00188758
0.00190875
0.00192424
0.00193555
0.00194484
0.00195372
0.00196208
0.00196891
0.00197686
0.00198773
0.00200248
0.00202049
0.00204072
0.00206229
0.00208267
0.00209989
0.00211414
0.00212434
0.0021264
0.00154335
0.00167779
0.00175639
0.00180018
0.00182313
0.00183293
0.00183227
0.00182417
0.00181042
0.00179154
0.0017683
0.00174829
0.00173786
0.00173902
0.00175196
0.00177413
0.00180434
0.00183893
0.00187819
0.0019188
0.00195811
0.00199296
0.00202188
0.00203807
0.00152138
0.00166159
0.00173673
0.00176928
0.00177514
0.00176412
0.00173817
0.00169998
0.00165154
0.00159765
0.00155221
0.00152061
0.00150309
0.00150208
0.00151693
0.00153544
0.00156518
0.00160317
0.00164343
0.00168652
0.00173025
0.00177187
0.00181402
0.00185069
0.00148469
0.00163506
0.00170813
0.00173149
0.00172303
0.00169086
0.00164029
0.00157721
0.00151128
0.00145147
0.00140198
0.00136248
0.0013315
0.00130798
0.00130211
0.00131387
0.00132939
0.00135113
0.00138057
0.00141476
0.00144997
0.001482
0.00151483
0.00154974
0.00143184
0.00159829
0.00167409
0.00169238
0.00167229
0.0016238
0.00155744
0.00148161
0.00140618
0.00133931
0.00128503
0.00124363
0.00121287
0.00118973
0.00116524
0.00115589
0.00115709
0.00116945
0.00119203
0.00122234
0.0012536
0.00127406
0.00129801
0.00137017
0.00136031
0.0015516
0.0016365
0.0016548
0.00162863
0.00157301
0.00149828
0.00141837
0.00134441
0.00128302
0.00123516
0.0011978
0.00116682
0.00113919
0.00111211
0.00109411
0.00109047
0.00110355
0.00113428
0.00118161
0.0012411
0.00131967
0.00143598
0.0015703
0.00126758
0.00149658
0.00159806
0.00162296
0.00159589
0.00153759
0.00146559
0.00139351
0.00133068
0.0012803
0.00124019
0.00120634
0.00117634
0.00113479
0.00110394
0.00108473
0.00108423
0.00110736
0.00115602
0.0012297
0.00133051
0.00145755
0.00163095
0.0017995
0.0011518
0.00143448
0.00155827
0.00158834
0.00156482
0.0015134
0.00145237
0.00139391
0.00134366
0.00130126
0.00126302
0.00122685
0.00117518
0.00113435
0.00110052
0.00108457
0.00109504
0.00113618
0.00120778
0.00130787
0.00143818
0.00161081
0.00182465
0.00201764
0.00102011
0.00136761
0.0015122
0.00155015
0.00153354
0.00149275
0.00144529
0.00139961
0.00135748
0.00131726
0.00127283
0.0012205
0.00117219
0.00112726
0.00110001
0.0011016
0.00113955
0.00121496
0.00132542
0.00147043
0.00165417
0.00188681
0.00213808
0.00237381
0.000904811
0.00130924
0.00146499
0.00150814
0.00149836
0.00146885
0.00143296
0.00139499
0.0013549
0.00130657
0.00125865
0.00120642
0.0011541
0.00111972
0.00111652
0.00115379
0.00123349
0.00135218
0.00150893
0.00170996
0.00196647
0.00226022
0.00257964
0.00285069
7.34771e-07
3.05269e-06
1.23535e-05
3.79126e-05
9.46686e-05
0.000199476
2.78075e-05
5.12413e-05
9.64639e-05
0.00016314
0.000258106
0.000421733
0.000161676
0.000117118
0.000194694
0.000295402
0.000425387
0.000627959
0.000179424
0.000174139
0.000278553
0.000406724
0.000564926
0.000772807
0.000192446
0.000221225
0.000347989
0.000495426
0.000666678
0.000861941
4.72997e-05
0.000258693
0.000404303
0.0005629
0.000734591
0.000908899
4.80654e-05
0.000288784
0.00044865
0.000611404
0.000774969
0.000925129
4.92953e-05
0.000311491
0.000482079
0.000643487
0.000793972
0.000920156
5.01353e-05
0.000327676
0.000505611
0.000661646
0.00079609
0.000900231
5.06952e-05
0.000337945
0.000520262
0.000668253
0.000785378
0.000869415
5.09671e-05
0.000342653
0.000527374
0.000665371
0.000765003
0.000830548
5.09531e-05
0.000342357
0.000527283
0.000654806
0.000737137
0.000785729
5.0643e-05
0.000337373
0.000521146
0.000638147
0.000703956
0.000737057
5.00587e-05
0.000327818
0.000509735
0.000616713
0.000667358
0.000687302
4.93026e-05
0.000313393
0.000493756
0.000591474
0.000628884
0.0006394
4.84041e-05
0.000295717
0.000473562
0.000562895
0.000589528
0.000595951
4.74849e-05
0.000277754
0.00044943
0.000531031
0.000549629
0.000557178
0.000199871
0.000267012
0.000420816
0.000495541
0.00050909
0.000521131
0.000195267
0.000252356
0.000386617
0.000455189
0.000466919
0.000484459
0.000186952
0.000228996
0.000343517
0.000406954
0.000420221
0.000442885
0.000174711
0.000191704
0.000285842
0.000344914
0.000363859
0.000390216
0.000158529
0.00013637
0.000207677
0.000258776
0.000288374
0.00032532
2.76512e-05
6.08921e-05
0.000104088
0.000142814
0.000176459
0.000241893
7.76889e-07
3.25439e-06
9.22825e-06
1.93321e-05
3.48876e-05
0.000117923
0.000889028
0.00127791
0.00142295
0.00146373
0.00146009
0.00143932
0.00140948
0.00137272
0.00132622
0.00128259
0.00122687
0.0011724
0.00113572
0.00113193
0.00117103
0.0012536
0.00137439
0.00153136
0.00173095
0.00198928
0.00230761
0.00266584
0.00304769
0.00333725
0.000955818
0.00126755
0.00138657
0.00142089
0.00142054
0.00140369
0.00137209
0.00132999
0.00129374
0.0012357
0.00118227
0.00114726
0.00114685
0.00119041
0.00127604
0.0013963
0.0015488
0.00174146
0.00199176
0.00232139
0.00270528
0.00313703
0.00356649
0.00386459
0.00102578
0.00126051
0.00135199
0.0013798
0.0013791
0.00135619
0.00131998
0.00129155
0.00123723
0.00118611
0.00115527
0.00116065
0.00120945
0.00129684
0.00141391
0.00155859
0.0017399
0.00197669
0.00229216
0.00269895
0.00315351
0.00365254
0.00410848
0.00440463
0.00107054
0.00124639
0.00131624
0.00133694
0.00132911
0.00129819
0.00127982
0.00123099
0.00118428
0.00115988
0.00117229
0.00122588
0.00131334
0.00142567
0.00156151
0.00172952
0.0019475
0.00223956
0.00262884
0.00310294
0.00362572
0.0041722
0.00463707
0.00492791
0.00108871
0.00122214
0.00127558
0.00128862
0.00126919
0.00125826
0.00121629
0.00117704
0.00116065
0.00118022
0.00123749
0.00132378
0.00143095
0.00155834
0.00171337
0.00191129
0.00217479
0.00252981
0.00299412
0.00353003
0.00410937
0.00467814
0.00513758
0.0054217
0.00108514
0.00118762
0.00122829
0.00122623
0.00122651
0.00119577
0.00116298
0.00115524
0.001182
0.00124251
0.00132765
0.00143036
0.00155039
0.0016938
0.00187287
0.0021071
0.00242217
0.00284229
0.00337527
0.00396064
0.0045783
0.0051521
0.00559706
0.0058694
0.001065
0.00114408
0.00117149
0.00118263
0.00116374
0.0011411
0.00114296
0.00117605
0.00123962
0.00132466
0.00142444
0.00153843
0.00167159
0.00183387
0.00204114
0.00231585
0.00268402
0.00316456
0.00375271
0.00437164
0.00500747
0.00557074
0.00599924
0.00625124
0.00103265
0.00109443
0.00111671
0.00111893
0.00110943
0.00111956
0.00115908
0.00122739
0.00131472
0.00141363
0.00152303
0.00164728
0.00179504
0.00197924
0.00221798
0.00253448
0.00295231
0.0034827
0.00410675
0.0047434
0.00537719
0.00591748
0.00632804
0.00655129
0.000991284
0.00104159
0.00106778
0.0010649
0.00108025
0.00112793
0.00120364
0.00129642
0.00139733
0.00150435
0.00162143
0.00175672
0.00192155
0.00213049
0.00240205
0.00275784
0.00321648
0.00378063
0.00442085
0.00505706
0.00566904
0.00617688
0.00656209
0.00675944
0.000942916
0.000985223
0.00100885
0.00102424
0.00108082
0.00116556
0.00126708
0.00137375
0.0014817
0.00159422
0.00171933
0.00186781
0.0020524
0.00228772
0.00259069
0.00297902
0.00346478
0.00404268
0.00467948
0.0052943
0.00586942
0.0063364
0.00668872
0.00686528
0.000889288
0.000937544
0.000958638
0.00101227
0.00110653
0.00122139
0.00133954
0.00145348
0.00156531
0.0016831
0.00181793
0.00198214
0.0021885
0.00245011
0.00278034
0.0031912
0.00368759
0.00425806
0.00486843
0.00544591
0.00596841
0.00639008
0.00669966
0.00685538
0.00083078
0.000897545
0.000925876
0.00102253
0.00115429
0.0012899
0.00141627
0.00153289
0.0016475
0.00177182
0.00191882
0.00210117
0.00233034
0.00261633
0.00296738
0.00338868
0.00387814
0.00442015
0.00498176
0.00550742
0.00596155
0.00632567
0.00658838
0.00672113
0.000768312
0.000861266
0.000911051
0.00105675
0.00121532
0.00136319
0.00149303
0.00161081
0.00172898
0.00186197
0.00202372
0.00222608
0.00247794
0.00278491
0.00314911
0.00356843
0.00403434
0.00452862
0.00502181
0.00547713
0.00584922
0.00613924
0.00634714
0.00645165
0.000705057
0.000831995
0.000918463
0.00110542
0.00128454
0.0014391
0.00156934
0.0016878
0.00181097
0.00195515
0.00213411
0.00235769
0.0026311
0.00295478
0.00332444
0.00373097
0.00416014
0.00459203
0.00500132
0.00536008