/*--------------------------------*- C++ -*----------------------------------*\
  =========                 |
  \\      /  F ield         | OpenFOAM: The Open Source CFD Toolbox
   \\    /   O peration     | Website:  https://openfoam.org
    \\  /    A nd           | Version:  11
     \\/     M anipulation  |
\*---------------------------------------------------------------------------*/
FoamFile
{
    format      ascii;
    class       volScalarField;
    location    "0.84";
    object      p;
}
// * * * * * * * * * * * * * * * * * * * * * * * * * * * * * * * * * * * * * //

dimensions      [0 2 -2 0 0 0 0];

internalField   nonuniform List<scalar> 
2880
(
1.40216
1.42977
1.45657
1.49132
1.49783
1.47969
1.40224
1.42568
1.44631
1.46834
1.43133
1.35312
1.40225
1.42036
1.43252
1.44205
1.39151
1.28583
1.40202
1.416
1.42013
1.4183
1.36176
1.2562
1.40138
1.41283
1.40999
1.39888
1.34069
1.2441
1.40025
1.4098
1.4014
1.38327
1.32584
1.23939
1.39857
1.4062
1.3936
1.37049
1.31504
1.23818
1.39636
1.40176
1.38622
1.35979
1.30686
1.2383
1.39375
1.39657
1.37917
1.35069
1.30033
1.23841
1.39088
1.39091
1.37254
1.34291
1.29485
1.23824
1.38791
1.38514
1.36649
1.33618
1.29012
1.23739
1.38495
1.3796
1.36119
1.33056
1.28576
1.23565
1.38213
1.37456
1.35676
1.326
1.28168
1.23299
1.37952
1.37024
1.35326
1.32252
1.27786
1.22955
1.37714
1.36675
1.35071
1.32014
1.27443
1.22563
1.375
1.36415
1.34907
1.31894
1.27149
1.22169
1.37311
1.3624
1.34824
1.319
1.26921
1.21842
1.37148
1.3614
1.34807
1.32044
1.2678
1.21688
1.37012
1.36093
1.34838
1.32334
1.26754
1.21881
1.36908
1.36062
1.34885
1.32758
1.26882
1.22821
1.36836
1.35982
1.34901
1.33257
1.2717
1.25402
1.36783
1.35775
1.34824
1.33764
1.27623
1.30857
1.36734
1.35447
1.34683
1.34445
1.28506
1.38946
1.36696
1.35208
1.34653
1.3569
1.30388
1.45991
0.364862
0.430642
0.439035
0.460245
0.477308
0.485611
0.487106
0.484192
0.478875
0.472728
0.466788
0.461479
0.456875
0.452985
0.44979
0.447247
0.445301
0.443871
0.442675
0.440997
0.43907
0.442853
0.461438
0.459336
0.655185
0.590005
0.562041
0.558177
0.556439
0.55157
0.543455
0.533258
0.522346
0.511895
0.502635
0.494738
0.488095
0.482593
0.478129
0.474591
0.47186
0.469803
0.468094
0.466023
0.463838
0.467158
0.484245
0.481889
0.825621
0.723084
0.669967
0.646088
0.628937
0.612636
0.595921
0.579116
0.563105
0.548734
0.536448
0.526188
0.51768
0.510708
0.505092
0.500654
0.497217
0.494593
0.492426
0.490026
0.487655
0.490513
0.505965
0.503529
0.927166
0.824797
0.759844
0.722144
0.693236
0.667628
0.643607
0.621065
0.600589
0.582776
0.567823
0.555465
0.545299
0.537022
0.530386
0.525156
0.5211
0.51798
0.515415
0.512754
0.510264
0.512667
0.526391
0.524014
0.999554
0.903167
0.833077
0.786393
0.748863
0.715972
0.685985
0.658645
0.634397
0.613664
0.596435
0.582271
0.570672
0.561269
0.55376
0.547857
0.543275
0.539734
0.536835
0.533977
0.531428
0.533379
0.545324
0.543104
1.05307
0.963638
0.891866
0.839553
0.795917
0.757521
0.72282
0.691603
0.664277
0.641152
0.622042
0.606371
0.593573
0.583232
0.575002
0.568548
0.563539
0.55965
0.556481
0.553485
0.550924
0.552426
0.562578
0.56058
1.09285
1.00892
0.938186
0.88263
0.834827
0.792405
0.754096
0.719848
0.690098
0.665082
0.644473
0.627589
0.613827
0.602737
0.59394
0.587059
0.581716
0.577552
0.574168
0.571083
0.568543
0.569605
0.577989
0.576243
1.12111
1.04289
0.973938
0.916692
0.866184
0.820919
0.779938
0.743406
0.711822
0.685376
0.663622
0.645806
0.631305
0.619652
0.610437
0.603246
0.597656
0.59328
0.589732
0.586599
0.584106
0.58475
0.59144
0.58992
1.14076
1.06769
1.00069
0.942762
0.89062
0.843431
0.80055
0.762374
0.729476
0.702009
0.679433
0.660945
0.645919
0.633877
0.624385
0.616991
0.611233
0.606701
0.603029
0.59988
0.59746
0.597745
0.602847
0.601399
1.15357
1.08485
1.01973
0.961738
0.908736
0.860326
0.816169
0.776887
0.743126
0.714996
0.691887
0.672967
0.657614
0.645345
0.635704
0.6282
0.622338
0.617694
0.613929
0.610778
0.608436
0.608413
0.612041
0.610497
1.16089
1.0956
1.03206
0.974372
0.92106
0.871959
0.827032
0.787098
0.752856
0.724379
0.700995
0.681859
0.666363
0.654016
0.644337
0.636804
0.630893
0.626173
0.622339
0.619191
0.616896
0.616535
0.61886
0.617483
1.16357
1.1008
1.03846
0.981271
0.92803
0.878649
0.833363
0.793156
0.758764
0.730215
0.706787
0.687638
0.672164
0.659873
0.650259
0.642768
0.636857
0.632101
0.628231
0.625101
0.622829
0.622118
0.623383
0.62243
1.16207
1.101
1.03944
0.982892
0.929993
0.880655
0.835353
0.795202
0.760949
0.732574
0.709315
0.690335
0.675039
0.662924
0.653466
0.646084
0.640223
0.635477
0.631613
0.628531
0.626285
0.625275
0.625733
0.625196
1.15659
1.09652
1.03531
0.979521
0.927183
0.878165
0.83315
0.793349
0.759501
0.731528
0.708637
0.689999
0.675022
0.663196
0.653975
0.646761
0.641001
0.636308
0.632487
0.629468
0.627283
0.6261
0.625967
0.625691
1.14705
1.08741
1.02617
0.971281
0.919717
0.871292
0.826856
0.787689
0.754498
0.727149
0.704821
0.68669
0.672167
0.660732
0.651824
0.644835
0.639223
0.634628
0.630885
0.62795
0.625831
0.624569
0.624117
0.624007
1.13309
1.07352
1.01189
0.958132
0.907601
0.860073
0.816528
0.778288
0.746015
0.719514
0.697945
0.680483
0.666542
0.655596
0.647071
0.640364
0.63495
0.6305
0.626873
0.624036
0.621988
0.620729
0.62021
0.620188
1.114
1.05442
0.99209
0.939858
0.89073
0.844483
0.80219
0.765203
0.734127
0.708711
0.688098
0.671468
0.658236
0.647871
0.6398
0.63343
0.628265
0.624004
0.620527
0.617802
0.615827
0.614656
0.614313
0.614266
1.08863
1.02941
0.966206
0.916097
0.868898
0.824443
0.783847
0.748491
0.71892
0.694842
0.675392
0.659755
0.647356
0.637666
0.630118
0.62414
0.619273
0.615247
0.611953
0.60935
0.607454
0.606456
0.606528
0.606368
1.05517
0.997393
0.933462
0.886398
0.841855
0.799853
0.761503
0.72822
0.700505
0.678037
0.659962
0.645484
0.634041
0.625115
0.618156
0.612628
0.608109
0.60436
0.60128
0.59881
0.596996
0.596248
0.596957
0.596601
1.01048
0.956627
0.892781
0.850199
0.809358
0.770648
0.735201
0.704499
0.679023
0.658457
0.641975
0.628818
0.618449
0.610373
0.604072
0.599049
0.594925
0.591493
0.588654
0.586328
0.584598
0.584169
0.585716
0.58508
0.949684
0.904292
0.842708
0.806848
0.771215
0.73687
0.705091
0.677519
0.654683
0.636311
0.621635
0.609953
0.60077
0.593628
0.588048
0.583581
0.579896
0.576816
0.574244
0.572071
0.57043
0.570378
0.572939
0.571954
0.865683
0.835889
0.781553
0.755807
0.727405
0.698738
0.671476
0.647594
0.627783
0.611875
0.599196
0.589124
0.581224
0.575088
0.570286
0.566421
0.563212
0.560515
0.558232
0.556223
0.554678
0.555062
0.558796
0.557394
0.743206
0.745194
0.707829
0.697034
0.678357
0.656773
0.634853
0.615166
0.598709
0.58549
0.574958
0.566603
0.560063
0.554988
0.551007
0.547781
0.545079
0.54279
0.540815
0.538983
0.537552
0.538439
0.54349
0.541523
0.545727
0.625985
0.622039
0.631736
0.62525
0.611874
0.595917
0.580796
0.567928
0.55755
0.549266
0.542693
0.53756
0.53358
0.530447
0.527882
0.525705
0.523835
0.522178
0.520527
0.519193
0.520569
0.527082
0.524702
-0.0510106
-0.105594
-0.160103
-0.244434
-0.258843
-0.606378
-0.0571994
-0.107935
-0.160057
-0.240051
-0.250441
-0.341039
-0.0663652
-0.109617
-0.156182
-0.228133
-0.237769
-0.233838
-0.0667843
-0.108074
-0.148465
-0.209222
-0.211392
-0.181923
-0.0612187
-0.10466
-0.138547
-0.184829
-0.177898
-0.139204
-0.0572856
-0.100376
-0.126257
-0.157604
-0.14365
-0.100572
-0.0546394
-0.0936263
-0.111565
-0.129662
-0.111315
-0.0674322
-0.0506129
-0.0844308
-0.0947937
-0.102169
-0.0811024
-0.0393341
-0.045164
-0.0733507
-0.0766742
-0.0757613
-0.0528455
-0.0149426
-0.038527
-0.0610092
-0.0580715
-0.0506527
-0.0266114
0.00658011
-0.0310341
-0.0478448
-0.0397226
-0.0269703
-0.0026702
0.0256168
-0.023013
-0.0342808
-0.0221317
-0.00486312
0.0190428
0.0422183
-0.0147687
-0.0207401
-0.0056285
0.0154012
0.0385843
0.0564203
-0.0065743
-0.00760514
0.0095717
0.033605
0.0557475
0.0682358
0.0013349
0.00480161
0.0233626
0.0495402
0.0703796
0.0778814
0.00875923
0.0162211
0.0357501
0.0631676
0.0823519
0.0851302
0.0155187
0.0264786
0.04688
0.074641
0.0917236
0.0895559
0.0214612
0.0355216
0.0569497
0.0844681
0.0987982
0.0911113
0.0264692
0.0434259
0.0663092
0.0935354
0.104098
0.0902221
0.0306262
0.0505327
0.0755253
0.102988
0.108817
0.0878861
0.0347501
0.0575332
0.0856969
0.114478
0.115493
0.0863583
0.0382842
0.0649514
0.0984139
0.130751
0.128307
0.0902318
0.0379707
0.0721115
0.11387
0.152968
0.151115
0.0964252
0.0377155
0.0775044
0.127538
0.172681
0.180591
0.105069
0.146594
0.477462
0.529853
0.563336
0.570098
0.565287
0.555526
0.545138
0.535969
0.528495
0.522491
0.517721
0.514004
0.511128
0.50885
0.506953
0.505301
0.503849
0.502502
0.501016
0.499721
0.501483
0.509546
0.507151
0.00907874
0.339787
0.443088
0.496905
0.51531
0.518436
0.514663
0.508931
0.503413
0.498793
0.495026
0.492023
0.489696
0.487904
0.48647
0.48523
0.484094
0.483043
0.481989
0.480641
0.479322
0.481349
0.490972
0.488973
-0.0075976
0.255503
0.372325
0.43645
0.46313
0.472844
0.47442
0.472974
0.470863
0.468919
0.467261
0.465933
0.464932
0.464182
0.463562
0.462959
0.462322
0.461658
0.460882
0.459659
0.458305
0.46058
0.471683
0.469991
-0.00615867
0.206056
0.317721
0.383962
0.415341
0.429883
0.435787
0.437991
0.438865
0.439304
0.439554
0.439763
0.439992
0.440218
0.44037
0.440378
0.440224
0.439938
0.439435
0.438345
0.436995
0.439582
0.452079
0.450307
-0.0012533
0.173332
0.274801
0.339073
0.372522
0.39022
0.399351
0.404467
0.407821
0.410288
0.412202
0.413778
0.41512
0.416242
0.417115
0.417703
0.418014
0.418096
0.417868
0.416927
0.415612
0.418527
0.432355
0.43041
0.0080561
0.15049
0.240362
0.300582
0.334341
0.353877
0.365285
0.372631
0.377964
0.382095
0.385423
0.388189
0.390517
0.392451
0.393988
0.395121
0.395877
0.39632
0.396368
0.395592
0.394337
0.397559
0.412621
0.410563
0.0199056
0.13457
0.212602
0.267486
0.300345
0.320679
0.333571
0.342542
0.349394
0.354863
0.359369
0.363153
0.366345
0.369004
0.371149
0.372792
0.373975
0.374771
0.375101
0.374513
0.373345
0.37685
0.393026
0.390972
0.0318454
0.123282
0.190191
0.238875
0.270048
0.290387
0.304112
0.314181
0.322142
0.328665
0.334137
0.338781
0.342722
0.346027
0.348727
0.350848
0.352442
0.353589
0.354212
0.353839
0.352794
0.356553
0.373705
0.371836
0.0427539
0.114963
0.171689
0.214043
0.242938
0.262679
0.276715
0.287466
0.296201
0.303528
0.309778
0.315141
0.31973
0.323611
0.326822
0.329397
0.331393
0.332892
0.333822
0.3337
0.332821
0.336801
0.354767
0.353353
0.0523442
0.108656
0.155796
0.192218
0.218466
0.237189
0.251129
0.262229
0.271488
0.279419
0.286291
0.292258
0.297415
0.301818
0.305509
0.308522
0.310918
0.31278
0.314039
0.314209
0.313542
0.3177
0.336279
0.335737
0.060572
0.1035
0.141684
0.172645
0.196077
0.213532
0.227093
0.238281
0.247872
0.256255
0.263633
0.270119
0.275785
0.280679
0.284835
0.288289
0.291098
0.293343
0.294961
0.295472
0.295068
0.299322
0.318249
0.319261
0.067319
0.0987612
0.128744
0.154661
0.175243
0.191304
0.204315
0.215421
0.2252
0.233924
0.241726
0.248675
0.25482
0.260194
0.264825
0.268743
0.271998
0.274665
0.27669
0.277608
0.27751
0.281699
0.300571
0.304378
0.0724351
0.0938191
0.116429
0.137648
0.155462
0.170103
0.18247
0.193397
0.203279
0.212277
0.220453
0.22784
0.234458
0.240328
0.24547
0.249906
0.253673
0.256834
0.25935
0.260793
0.261064
0.264783
0.282788
0.292187
0.0757912
0.0880603
0.103981
0.120995
0.136238
0.149508
0.161222
0.17194
0.18189
0.191131
0.199666
0.207488
0.214598
0.221004
0.226718
0.231757
0.236144
0.239918
0.243066
0.245285
0.24621
0.248444
0.262424
0.286099
0.0771255
0.0809222
0.0908535
0.104077
0.117068
0.129092
0.140228
0.150767
0.160796
0.170286
0.179186
0.18746
0.19509
0.202077
0.208435
0.214182
0.21934
0.223932
0.227945
0.231315
0.233857
0.234758
0.235022
0.291275
0.0758957
0.0718117
0.0765604
0.0863403
0.097488
0.108491
0.119169
0.129604
0.139756
0.149525
0.158814
0.16756
0.175733
0.183329
0.190365
0.196876
0.202915
0.208557
0.213832
0.218574
0.222797
0.229259
0.244873
0.254711
0.0712409
0.0598484
0.060274
0.0674355
0.0770999
0.0873415
0.0977391
0.108188
0.118542
0.12864
0.13835
0.147584
0.156297
0.164474
0.172121
0.179265
0.18595
0.192233
0.198077
0.203157
0.207657
0.216021
0.235251
0.228409
0.0620953
0.0441393
0.0413077
0.0467487
0.0554547
0.0652999
0.0756644
0.0862903
0.0969529
0.107448
0.117618
0.127358
0.136603
0.145325
0.153514
0.161178
0.168344
0.17505
0.181231
0.186534
0.191239
0.200252
0.220233
0.208279
0.0473473
0.0236081
0.0189679
0.0237208
0.0321536
0.0420741
0.0527218
0.0637309
0.0748339
0.0858097
0.0964889
0.106754
0.116531
0.125774
0.134459
0.142576
0.150137
0.157176
0.163658
0.169244
0.174261
0.183735
0.204016
0.190251
0.0260242
-0.0029618
-0.00746692
-0.00209366
0.00688476
0.0174469
0.0287584
0.0403935
0.052088
0.063637
0.0748791
0.0856973
0.0960117
0.105768
0.114927
0.123463
0.131374
0.138713
0.145479
0.151359
0.156732
0.166565
0.186918
0.173054
-0.00242554
-0.0365061
-0.0384546
-0.0309864
-0.0205896
-0.00873531
0.00368662
0.0162253
0.0286777
0.0408982
0.0527595
0.0641608
0.075027
0.0853003
0.0949328
0.103885
0.112145
0.119777
0.126815
0.132997
0.138737
0.148804
0.169016
0.156252
-0.0377977
-0.076999
-0.0739708
-0.0629627
-0.0503148
-0.0364823
-0.0224772
-0.00874492
0.00463218
0.0176176
0.0301495
0.0421618
0.0535968
0.064402
0.0745262
0.0839199
0.092556
0.1005
0.107813
0.114302
0.120398
0.130554
0.150382
0.139621
-0.0824007
-0.122294
-0.11284
-0.0979943
-0.0821278
-0.0657829
-0.049729
-0.0344781
-0.0199899
-0.006144
0.00710307
0.0197471
0.031766
0.0431224
0.0537689
0.0636502
0.0727212
0.0810255
0.0886355
0.0954475
0.101877
0.11196
0.131115
0.123038
-0.145391
-0.171366
-0.154221
-0.135008
-0.115096
-0.0958293
-0.0778746
-0.0609356
-0.04516
-0.0303418
-0.0163294
-0.00303685
0.00957824
0.021506
0.032713
0.0431457
0.052742
0.0614985
0.0694785
0.076652
0.0834045
0.0932534
0.111397
0.106466
-0.317675
-0.310361
-0.316441
-0.327974
-0.346637
-0.381564
-0.320101
-0.313251
-0.321773
-0.335677
-0.355311
-0.392445
-0.325177
-0.317256
-0.32818
-0.343477
-0.361636
-0.388197
-0.328557
-0.320432
-0.333161
-0.348767
-0.365375
-0.385338
-0.327277
-0.322366
-0.336519
-0.352102
-0.367749
-0.384246
-0.32401
-0.324015
-0.338949
-0.354411
-0.36944
-0.383674
-0.323452
-0.32644
-0.341075
-0.356175
-0.37064
-0.383158
-0.324923
-0.329197
-0.343016
-0.357606
-0.371327
-0.382513
-0.326359
-0.331813
-0.344682
-0.358722
-0.371555
-0.381711
-0.327504
-0.334105
-0.346023
-0.359444
-0.371432
-0.380762
-0.328362
-0.335991
-0.34699
-0.359753
-0.371005
-0.37968
-0.32893
-0.337415
-0.34752
-0.359667
-0.370303
-0.378486
-0.329216
-0.338306
-0.347579
-0.359207
-0.369346
-0.377195
-0.329237
-0.338681
-0.347167
-0.358381
-0.368141
-0.375805
-0.329038
-0.338567
-0.346301
-0.357191
-0.366678
-0.374288
-0.328694
-0.338021
-0.34501
-0.355641
-0.364924
-0.372564
-0.32837
-0.337131
-0.343347
-0.353726
-0.362805
-0.370489
-0.328118
-0.335992
-0.341392
-0.35143
-0.360209
-0.367839
-0.325851
-0.334703
-0.339254
-0.348735
-0.356985
-0.364289
-0.321981
-0.33347
-0.337121
-0.345669
-0.352964
-0.35928
-0.319549
-0.332972
-0.3355
-0.3424
-0.347898
-0.351505
-0.321968
-0.333651
-0.334741
-0.339088
-0.341218
-0.338584
-0.326076
-0.33488
-0.334465
-0.335169
-0.331486
-0.317229
-0.328
-0.335268
-0.332751
-0.329036
-0.317697
-0.286916
-0.250593
-0.22328
-0.197467
-0.172665
-0.148765
-0.126027
-0.105929
-0.0877482
-0.0708047
-0.0549644
-0.0401365
-0.0261782
-0.012952
-0.000438004
0.0113683
0.0224274
0.0326664
0.0420252
0.05052
0.0581624
0.0653023
0.0748303
0.0915718
0.0899357
-0.308102
-0.273746
-0.240715
-0.209953
-0.18233
-0.15687
-0.133998
-0.113931
-0.0961924
-0.0798284
-0.0643595
-0.0497696
-0.0358811
-0.0227669
-0.0103191
0.00144224
0.0124415
0.0226008
0.0318546
0.0401847
0.047868
0.0571267
0.0721528
0.0736492
-0.344308
-0.31154
-0.278275
-0.246443
-0.215821
-0.187896
-0.163137
-0.140817
-0.121165
-0.103839
-0.0883057
-0.0736386
-0.0593878
-0.0457879
-0.0326011
-0.019995
-0.00809895
0.00306962
0.0133916
0.022759
0.031314
0.040611
0.0538964
0.0581331
-0.366502
-0.339911
-0.309582
-0.277849
-0.24752
-0.219806
-0.193257
-0.169217
-0.148262
-0.129288
-0.112085
-0.0966186
-0.0824852
-0.0690285
-0.0556903
-0.0423635
-0.0295006
-0.0170193
-0.00523148
0.00564341
0.0156054
0.0255345
0.037555
0.044206
-0.378077
-0.36038
-0.33478
-0.305233
-0.275375
-0.247172
-0.221655
-0.198942
-0.177372
-0.157237
-0.139127
-0.122587
-0.106902
-0.0918223
-0.0778925
-0.0646729
-0.0515144
-0.0381512
-0.0247814
-0.0119713
0.00015759
0.0117588
0.0236578
0.0326048
-0.383652
-0.373493
-0.353539
-0.327766
-0.299666
-0.271936
-0.246458
-0.223391
-0.202858
-0.184856
-0.168082
-0.151434
-0.134951
-0.119098
-0.103714
-0.0883895
-0.0730925
-0.0585532
-0.0444615
-0.0302794
-0.015965
-0.00166211
0.0119613
0.0237319
-0.386244
-0.380923
-0.366146
-0.344695
-0.319588
-0.293485
-0.268432
-0.245357
-0.224806
-0.206496
-0.189914
-0.174986
-0.161193
-0.147274
-0.13239
-0.116335
-0.0996216
-0.082678
-0.0654802
-0.0482163
-0.0315997
-0.0152852
0.000375563
0.0192238
-0.387252
-0.384676
-0.373791
-0.356304
-0.334491
-0.310692
-0.286783
-0.264061
-0.243247
-0.224436
-0.207583
-0.192566
-0.178795
-0.165496
-0.152266
-0.138845
-0.124427
-0.108185
-0.0900894
-0.0704027
-0.049849
-0.0285915
-0.00806132
0.0139257
-0.387298
-0.386248
-0.378042
-0.363727
-0.344931
-0.323509
-0.301092
-0.278957
-0.257928
-0.238478
-0.220759
-0.204704
-0.190088
-0.176556
-0.163659
-0.150768
-0.137136
-0.122246
-0.105812
-0.0874823
-0.0668989
-0.0434541
-0.019103
0.00773807
-0.386738
-0.386569
-0.380235
-0.368397
-0.352195
-0.333023
-0.312158
-0.290723
-0.269573
-0.249313
-0.23031
-0.21273
-0.196523
-0.181538
-0.167472
-0.153856
-0.14015
-0.125824
-0.110314
-0.09296
-0.0732045
-0.0502604
-0.0249066
0.00447921
-0.385828
-0.386219
-0.381323
-0.37155
-0.357691
-0.340723
-0.321558
-0.301094
-0.280064
-0.25909
-0.238648
-0.219085
-0.200572
-0.183161
-0.1668
-0.151264
-0.136157
-0.120991
-0.105231
-0.0883321
-0.0697692
-0.0487888
-0.0250097
0.00139659
-0.384762
-0.385585
-0.38195
-0.374079
-0.362617
-0.348015
-0.330932
-0.311996
-0.291685
-0.270499
-0.248913
-0.227365
-0.206195
-0.185694
-0.166089
-0.147421
-0.129552
-0.112241
-0.0951264
-0.0777768
-0.0597702
-0.0406822
-0.020289
-0.00033451
-0.383684
-0.38493
-0.382551
-0.37661
-0.367773
-0.35597
-0.341578
-0.325001
-0.30635
-0.285912
-0.264074
-0.241276
-0.217844
-0.194233
-0.170892
-0.148141
-0.126163
-0.105147
-0.0850914
-0.0658675
-0.0472508
-0.0287156
-0.00961098
0.00714285
-0.382695
-0.384414
-0.383413
-0.379593
-0.373565
-0.365178
-0.354407
-0.341272
-0.32565
-0.307533
-0.287076
-0.264435
-0.239545
-0.213005
-0.18546
-0.157661
-0.130539
-0.104681
-0.0803429
-0.0576909
-0.0367124
-0.0162733
0.00662921
0.0264028
-0.38185
-0.384098
-0.384607
-0.383124
-0.380302
-0.375938
-0.369836
-0.361645
-0.350756
-0.336603
-0.318562
-0.295841
-0.269183
-0.239553
-0.207943
-0.175559
-0.143477
-0.112511
-0.0835139
-0.0571895
-0.0338476
-0.0122736
0.0106265
0.0271221
-0.38116
-0.383948
-0.38607
-0.387087
-0.387874
-0.388193
-0.387517
-0.385013
-0.379535
-0.369826
-0.354701
-0.333755
-0.30749
-0.27631
-0.241324
-0.204057
-0.166149
-0.129317
-0.0950642
-0.0648269
-0.0395699
-0.0200672
-0.00774324
-0.00426953
-0.380585
-0.383839
-0.387596
-0.391116
-0.395606
-0.400835
-0.406108
-0.410145
-0.411304
-0.407787
-0.397925
-0.380768
-0.355821
-0.323307
-0.284582
-0.241732
-0.19721
-0.153598
-0.113194
-0.0778142
-0.048939
-0.0282892
-0.0180968
-0.0153974
-0.380043
-0.383552
-0.388832
-0.394698
-0.402869
-0.413129
-0.42467
-0.435912
-0.444809
-0.448821
-0.445399
-0.432633
-0.40944
-0.375941
-0.333624
-0.285266
-0.234235
-0.183941
-0.137216
-0.0961748
-0.0623849
-0.0371624
-0.0212284
-0.0118765
-0.379388
-0.382751
-0.389209
-0.397299
-0.408927
-0.423949
-0.441532
-0.459855
-0.476335
-0.487707
-0.49057
-0.482478
-0.461368
-0.427479
-0.382601
-0.330048
-0.273938
-0.218412
-0.166824
-0.121395
-0.0834224
-0.0533036
-0.0300449
-0.0115481
-0.378353
-0.381016
-0.388262
-0.39822
-0.41272
-0.431811
-0.454587
-0.478859
-0.501537
-0.518797
-0.526663
-0.521664
-0.502219
-0.468375
-0.422079
-0.36699
-0.307837
-0.249272
-0.19491
-0.146778
-0.105598
-0.0711052
-0.0419367
-0.0164668
-0.376384
-0.378064
-0.385732
-0.39668
-0.413177
-0.435314
-0.461855
-0.490167
-0.5167
-0.537165
-0.547239
-0.543525
-0.5244
-0.490109
-0.442879
-0.38669
-0.326499
-0.26707
-0.211908
-0.162497
-0.119141
-0.082196
-0.0502936
-0.0213404
-0.372452
-0.373838
-0.381134
-0.392054
-0.409601
-0.433462
-0.461958
-0.4921
-0.519899
-0.540801
-0.550478
-0.545838
-0.525489
-0.490014
-0.442113
-0.386125
-0.326916
-0.268987
-0.215427
-0.166567
-0.123607
-0.0867435
-0.0546326
-0.0243289
-0.367225
-0.368809
-0.374408
-0.384213
-0.401659
-0.425843
-0.454619
-0.484559
-0.511334
-0.530329
-0.537496
-0.530097
-0.507259
-0.470241
-0.422261
-0.367743
-0.311252
-0.256705
-0.206707
-0.161807
-0.121599
-0.0863082
-0.0557222
-0.0254618
-0.370756
-0.365279
-0.36609
-0.373566
-0.389679
-0.41295
-0.440581
-0.468643
-0.492591
-0.507928
-0.510922
-0.499493
-0.473623
-0.435274
-0.388037
-0.336228
-0.283789
-0.234476
-0.18955
-0.149172
-0.113323
-0.0817107
-0.0536708
-0.0245465
-0.487377
-0.491729
-0.485851
-0.481472
-0.477717
-0.494487
-0.485896
-0.49058
-0.484669
-0.481262
-0.476218
-0.471077
-0.482765
-0.488854
-0.482894
-0.479912
-0.472475
-0.458944
-0.480464
-0.487491
-0.481604
-0.478459
-0.469097
-0.452214
-0.479914
-0.487031
-0.481244
-0.477638
-0.466871
-0.447673
-0.482104
-0.487436
-0.4818
-0.477695
-0.465883
-0.445106
-0.486569
-0.488365
-0.483118
-0.478596
-0.466266
-0.444821
-0.4894
-0.489344
-0.484881
-0.48025
-0.46815
-0.44682
-0.490168
-0.490255
-0.486948
-0.482618
-0.471368
-0.450893
-0.490919
-0.491063
-0.489223
-0.485635
-0.475711
-0.456722
-0.491756
-0.491705
-0.491618
-0.489196
-0.48095
-0.463962
-0.492526
-0.492136
-0.494051
-0.49316
-0.486748
-0.472215
-0.493119
-0.492347
-0.496429
-0.497352
-0.492753
-0.481155
-0.493448
-0.492317
-0.498671
-0.501616
-0.49863
-0.490479
-0.493421
-0.491969
-0.500726
-0.505887
-0.504306
-0.500235
-0.493177
-0.49104
-0.502642
-0.510239
-0.509999
-0.510381
-0.494373
-0.489906
-0.504487
-0.514732
-0.515334
-0.521459
-0.4975
-0.490289
-0.506384
-0.519329
-0.520348
-0.533622
-0.499617
-0.491586
-0.508174
-0.523916
-0.525324
-0.546992
-0.499761
-0.492568
-0.509496
-0.528305
-0.53078
-0.561868
-0.498998
-0.49251
-0.509728
-0.531943
-0.537391
-0.578625
-0.49588
-0.490728
-0.508158
-0.53352
-0.545178
-0.598409
-0.491118
-0.487666
-0.505321
-0.532251
-0.553032
-0.626576
-0.488796
-0.485551
-0.503861
-0.530928
-0.561942
-0.675372
-0.397352
-0.364405
-0.357163
-0.360883
-0.374679
-0.396039
-0.421331
-0.446176
-0.46591
-0.476171
-0.473887
-0.457903
-0.429105
-0.390194
-0.344957
-0.297316
-0.250454
-0.206624
-0.167291
-0.132154
-0.100846
-0.0731624
-0.0479956
-0.0210882
-0.401751
-0.363283
-0.347853
-0.347242
-0.358094
-0.376689
-0.398627
-0.419166
-0.433467
-0.437655
-0.429607
-0.409218
-0.378336
-0.340094
-0.298055
-0.2554
-0.214461
-0.176721
-0.142802
-0.112611
-0.0858143
-0.0618654
-0.039345
-0.0153087
-0.400456
-0.360307
-0.338794
-0.333886
-0.341298
-0.356345
-0.374113
-0.389241
-0.3971
-0.394747
-0.381152
-0.35729
-0.325613
-0.289226
-0.251092
-0.213559
-0.178231
-0.146007
-0.117214
-0.091692
-0.068993
-0.0482979
-0.0279431
-0.00730188
-0.399345
-0.356974
-0.330818
-0.321774
-0.325277
-0.336215
-0.348795
-0.357437
-0.358373
-0.349687
-0.33144
-0.305367
-0.274069
-0.240226
-0.206099
-0.173338
-0.143004
-0.115663
-0.0913857
-0.0698985
-0.0506965
-0.0327155
-0.0140442
0.00275267
-0.399169
-0.354558
-0.324561
-0.311369
-0.310724
-0.316752
-0.322974
-0.324608
-0.318738
-0.304462
-0.282712
-0.25555
-0.22535
-0.194231
-0.16382
-0.135238
-0.109185
-0.0859805
-0.0655167
-0.0474165
-0.0311265
-0.0153026
0.00220605
0.0148095
-0.400219
-0.353649
-0.320218
-0.302935
-0.297625
-0.297568
-0.296912
-0.291548
-0.279376
-0.260444
-0.23623
-0.208765
-0.179993
-0.151465
-0.124294
-0.0992328
-0.076729
-0.0569196
-0.0395604
-0.0242148
-0.0103159
0.00382309
0.0206146
0.0287629
-0.402928
-0.354436
-0.317693
-0.296144
-0.285148
-0.278516
-0.270901
-0.258718
-0.24091
-0.218272
-0.192456
-0.16519
-0.13791
-0.111676
-0.0872298
-0.0650623
-0.0454333
-0.0283374
-0.0134422
-0.000296537
0.011669
0.0245158
0.0409187
0.0444522
-0.407496
-0.356694
-0.316692
-0.290039
-0.272865
-0.259525
-0.244798
-0.226156
-0.203534
-0.178114
-0.151365
-0.124569
-0.0986968
-0.0744316
-0.0522363
-0.0324032
-0.0150495
-6.53746e-05
0.0129244
0.0243407
0.0347457
0.0466047
0.0628389
0.0617332
-0.413502
-0.360114
-0.316216
-0.283886
-0.260528
-0.240026
-0.218175
-0.193731
-0.167243
-0.139847
-0.112632
-0.0864423
-0.0618616
-0.0392729
-0.0189195
-0.000939532
0.0146544
0.0280354
0.0395839
0.0496525
0.0587915
0.0698941
0.0861198
0.0805267
-0.420561
-0.363782
-0.315206
-0.277371
-0.247202
-0.219175
-0.19065
-0.161311
-0.131859
-0.103134
-0.0758039
-0.0503153
-0.0269289
-0.00578142
0.01306
0.0295779
0.0438345
0.0560299
0.0665088
0.0755328
0.0836435
0.0941689
0.110543
0.10084
-0.42798
-0.367066
-0.313267
-0.2697
-0.23187
-0.196375
-0.161944
-0.128669
-0.0970581
-0.0675518
-0.040407
-0.0157191
0.00652599
0.0263946
0.0439639
0.0593117
0.0725532
0.0838915
0.0935988
0.101833
0.109124
0.119198
0.135846
0.122677
-0.434821
-0.36932
-0.309865
-0.259607
-0.213627
-0.171167
-0.131789
-0.0955098
-0.0624637
-0.0326669
-0.00599509
0.0177655
0.0388627
0.0575329
0.0739715
0.088335
0.100778
0.111493
0.120666
0.128333
0.134995
0.144721
0.161734
0.146064
-0.44005
-0.370051
-0.303883
-0.245772
-0.191799
-0.143226
-0.0998999
-0.061493
-0.0276823
0.00193776
0.0278396
0.0505069
0.0703843
0.087848
0.103192
0.11664
0.128382
0.138604
0.147412
0.154697
0.160924
0.170413
0.187866
0.171118
-0.443304
-0.369246
-0.294156
-0.227246
-0.165918
-0.112256
-0.065976
-0.0262726
0.00766519
0.036649
0.0614668
0.0828331
0.101354
0.117518
0.131698
0.144178
0.155186
0.164914
0.173427
0.180511
0.186548
0.195916
0.213769
0.198174
-0.444738
-0.36646
-0.279658
-0.203409
-0.135624
-0.0779592
-0.0297033
0.0104906
0.043932
0.0718202
0.0952233
0.115047
0.132022
0.146719
0.15957
0.170907
0.180995
0.190053
0.198165
0.20515
0.211272
0.220354
0.237796
0.228137
-0.444436
-0.360235
-0.259594
-0.173785
-0.100542
-0.0400084
0.00923043
0.0491102
0.0814353
0.107767
0.129417
0.147439
0.162652
0.175674
0.186965
0.196874
0.20568
0.213611
0.22081
0.227215
0.232769
0.239341
0.252407
0.261828
-0.441663
-0.348535
-0.233005
-0.137771
-0.0602372
0.00193673
0.0511158
0.0898569
0.120439
0.144755
0.164316
0.18029
0.193543
0.204707
0.214234
0.222453
0.2296
0.23586
0.241357
0.24599
0.249148
0.251047
0.259448
0.292126
-0.434837
-0.328584
-0.198335
-0.0946191
-0.0142447
0.0481975
0.0961932
0.132932
0.161128
0.182966
0.200121
0.213833
0.224988
0.234208
0.241923
0.248438
0.253966
0.258676
0.262633
0.265463
0.266573
0.269154
0.285525
0.30584
-0.421385
-0.296695
-0.153731
-0.0435265
0.0379067
0.0990429
0.144617
0.178434
0.203565
0.22247
0.236917
0.24819
0.25716
0.264421
0.27038
0.275318
0.279442
0.282923
0.285777
0.287529
0.287997
0.2923
0.312572
0.322507
-0.398621
-0.249051
-0.0973285
0.0163225
0.0966128
0.154616
0.196393
0.226327
0.247646
0.263185
0.274656
0.283336
0.290061
0.295379
0.299658
0.30315
0.306047
0.308504
0.31049
0.311477
0.311516
0.316522
0.338135
0.34279
-0.367187
-0.182155
-0.026946
0.0857447
0.162079
0.214834
0.251289
0.276254
0.293235
0.304919
0.313142
0.319102
0.323541
0.326938
0.329604
0.331754
0.333548
0.335111
0.336364
0.336726
0.336345
0.341479
0.363434
0.365333
-0.331342
-0.0895473
0.0609559
0.165684
0.234226
0.279272
0.308843
0.327851
0.339803
0.347279
0.352052
0.355197
0.35733
0.35883
0.359943
0.360828
0.361602
0.362349
0.362938
0.362736
0.361926
0.366888
0.388552
0.388748
-0.277751
0.0451208
0.171162
0.256738
0.312349
0.347091
0.36822
0.380371
0.386773
0.389772
0.390964
0.391249
0.39108
0.390719
0.39033
0.390009
0.389822
0.3898
0.389758
0.389022
0.387796
0.392437
0.413383
0.412479
-0.106647
0.235014
0.303072
0.357013
0.394554
0.416643
0.428165
0.432857
0.433408
0.431805
0.429387
0.426829
0.424399
0.422233
0.420403
0.418937
0.417841
0.417093
0.416456
0.415226
0.413623
0.417855
0.437749
0.436113
)
;

boundaryField
{
    rotor
    {
        type            zeroGradient;
    }
    freestream
    {
        type            freestreamPressure;
        freestreamValue uniform 0;
        supersonic      false;
        value           nonuniform List<scalar> 
96
(
0.357327
0.388102
0.418574
0.448324
0.476922
0.503943
0.528981
0.551654
0.571551
0.5883
0.601988
0.612549
0.619735
0.623376
0.623513
0.620175
0.613411
0.603398
0.590322
0.574401
0.55591
0.535162
0.512438
0.488245
0.462954
0.436823
0.409864
0.382348
0.354854
0.327737
0.301278
0.27572
0.251279
0.228149
0.206525
0.186671
0.169165
0.155736
0.148673
0.121645
0.101418
0.0855411
0.0719104
0.0598877
0.0492493
0.0398743
0.0316778
0.0245926
0.0185543
0.0135143
0.00945268
0.0063498
0.00412889
0.00264966
0.00190432
0.0012379
0.000629386
0.00033928
9.75481e-05
-2.00015e-05
0.000288289
0.000294424
8.74596e-05
-0.000153224
-0.000983642
-0.000976691
-0.00107495
-0.00164354
-0.0022906
-0.00279383
-0.00310226
-0.00318687
-0.00293991
-0.00230283
-0.00119207
0.000490067
0.00288456
0.00614143
0.0104124
0.015857
0.0226511
0.0309948
0.0410879
0.0531339
0.0673667
0.084111
0.103969
0.127563
0.151524
0.168919
0.189259
0.212888
0.239138
0.267147
0.296458
0.32665
)
;
    }
    frontAndBack
    {
        type            empty;
    }
}


// ************************************************************************* //
