/*--------------------------------*- C++ -*----------------------------------*\
  =========                 |
  \\      /  F ield         | OpenFOAM: The Open Source CFD Toolbox
   \\    /   O peration     | Website:  https://openfoam.org
    \\  /    A nd           | Version:  11
     \\/     M anipulation  |
\*---------------------------------------------------------------------------*/
FoamFile
{
    format      ascii;
    class       surfaceScalarField;
    location    "0.84";
    object      phi;
}
// * * * * * * * * * * * * * * * * * * * * * * * * * * * * * * * * * * * * * //

dimensions      [0 3 -1 0 0 0 0];

internalField   nonuniform List<scalar> 
5640
(
-1.72121e-07
1.72121e-07
7.03252e-08
-2.42446e-07
7.27225e-07
-6.569e-07
1.84852e-06
-1.12129e-06
4.81349e-06
-2.96498e-06
-6.23719e-06
1.10507e-05
-5.51356e-08
2.27257e-07
3.22672e-07
-6.20254e-07
1.03692e-06
-1.37115e-06
2.27565e-06
-2.36001e-06
4.23281e-06
-4.92214e-06
-9.39201e-06
7.38764e-06
5.2573e-08
1.74684e-07
4.73963e-07
-1.04164e-06
1.18111e-06
-2.0783e-06
2.30808e-06
-3.48698e-06
3.78126e-06
-6.39532e-06
-1.09845e-05
5.37379e-06
1.40475e-07
3.42085e-08
5.5808e-07
-1.45925e-06
1.20661e-06
-2.72683e-06
2.14577e-06
-4.42614e-06
3.18558e-06
-7.43513e-06
-1.17431e-05
3.94416e-06
2.03129e-07
-1.68921e-07
5.89792e-07
-1.84591e-06
1.14629e-06
-3.28332e-06
1.86604e-06
-5.14589e-06
2.5158e-06
-8.0849e-06
-1.19576e-05
2.73024e-06
2.37457e-07
-4.06377e-07
5.77226e-07
-2.18568e-06
1.02294e-06
-3.72904e-06
1.51754e-06
-5.64049e-06
1.82393e-06
-8.39128e-06
-1.17731e-05
1.63948e-06
2.45075e-07
-6.51453e-07
5.28578e-07
-2.46918e-06
8.55536e-07
-4.05599e-06
1.1345e-06
-5.91946e-06
1.14443e-06
-8.4012e-06
-1.12803e-05
6.51658e-07
2.29909e-07
-8.81361e-07
4.52436e-07
-2.69171e-06
6.60591e-07
-4.26415e-06
7.4221e-07
-6.00108e-06
5.0094e-07
-8.15993e-06
-1.05457e-05
-2.33708e-07
1.97212e-07
-1.07857e-06
3.57298e-07
-2.8518e-06
4.52426e-07
-4.35928e-06
3.5986e-07
-5.90851e-06
-8.99221e-08
-7.71015e-06
-9.62297e-06
-1.01264e-06
1.52484e-07
-1.23106e-06
2.51117e-07
-2.95043e-06
2.43172e-07
-4.35133e-06
1.59182e-09
-5.66693e-06
-6.17568e-07
-7.09099e-06
-8.54952e-06
-1.69102e-06
1.00784e-07
-1.33184e-06
1.40886e-07
-2.99053e-06
4.2767e-08
-4.25321e-06
-3.20065e-07
-5.3041e-06
-1.07366e-06
-6.3374e-06
-7.35817e-06
-2.26501e-06
4.64044e-08
-1.37825e-06
3.23791e-08
-2.97651e-06
-1.41258e-07
-4.07958e-06
-5.98623e-07
-4.84674e-06
-1.45291e-06
-5.48311e-06
-6.07769e-06
-2.73339e-06
-7.20598e-09
-1.37104e-06
-6.99443e-08
-2.91377e-06
-3.03455e-07
-3.84607e-06
-8.28188e-07
-4.322e-06
-1.75162e-06
-4.55968e-06
-4.73439e-06
-3.09492e-06
-5.73763e-08
-1.31366e-06
-1.62914e-07
-2.80823e-06
-4.40532e-07
-3.56845e-06
-1.00578e-06
-3.75675e-06
-1.96755e-06
-3.59791e-06
-3.35396e-06
-3.34798e-06
-1.02057e-07
-1.21161e-06
-2.44502e-07
-2.66579e-06
-5.51156e-07
-3.26179e-06
-1.13063e-06
-3.17728e-06
-2.0998e-06
-2.62874e-06
-1.96358e-06
-3.49018e-06
-1.39563e-07
-1.07204e-06
-3.13661e-07
-2.49169e-06
-6.35778e-07
-2.93968e-06
-1.20405e-06
-2.60901e-06
-2.14899e-06
-1.6838e-06
-5.94178e-07
-3.51839e-06
-1.68344e-07
-9.037e-07
-3.70222e-07
-2.28981e-06
-6.96662e-07
-2.61324e-06
-1.22981e-06
-2.07586e-06
-2.11775e-06
-7.95864e-07
7.16093e-07
-3.42802e-06
-1.86786e-07
-7.16915e-07
-4.1472e-07
-2.06188e-06
-7.37856e-07
-2.2901e-06
-1.21449e-06
-1.59923e-06
-2.01164e-06
1.28377e-09
1.91679e-06
-3.21234e-06
-1.93056e-07
-5.23859e-07
-4.48131e-07
-1.8068e-06
-7.65137e-07
-1.97309e-06
-1.16839e-06
-1.19598e-06
-1.84105e-06
6.73942e-07
2.93689e-06
-2.86114e-06
-1.85076e-07
-3.38783e-07
-4.71478e-07
-1.5204e-06
-7.85787e-07
-1.65879e-06
-1.10662e-06
-8.75141e-07
-1.62602e-06
1.19334e-06
3.66916e-06
-2.3583e-06
-1.60917e-07
-1.77866e-07
-4.85418e-07
-1.1959e-06
-8.08164e-07
-1.33604e-06
-1.04971e-06
-6.3359e-07
-1.39753e-06
1.54115e-06
3.95318e-06
-1.68154e-06
-1.20158e-07
-5.77079e-08
-4.89584e-07
-8.26472e-07
-8.42266e-07
-9.83357e-07
-1.02331e-06
-4.52542e-07
-1.17337e-06
1.69121e-06
3.61831e-06
-8.38494e-07
-6.35295e-08
5.82158e-09
-4.78897e-07
-4.11105e-07
-9.01607e-07
-5.60646e-07
-1.06873e-06
-2.85421e-07
-8.43379e-07
1.46586e-06
2.58245e-06
1.92476e-07
5.82158e-09
-4.05284e-07
-9.6593e-07
-1.25135e-06
2.14508e-07
2.79696e-06
6.28936e-06
-3.07678e-05
3.55291e-05
3.32075e-06
-3.74687e-05
4.04373e-05
8.24368e-07
-4.06379e-05
4.31343e-05
-1.48235e-06
-4.20829e-05
4.43896e-05
-3.69221e-06
-4.27353e-05
4.49451e-05
-5.81864e-06
-4.30814e-05
4.52078e-05
-7.86266e-06
-4.33433e-05
4.53874e-05
-9.82915e-06
-4.36199e-05
4.55864e-05
-1.17274e-05
-4.39424e-05
4.58406e-05
-1.35685e-05
-4.43063e-05
4.61474e-05
-1.53629e-05
-4.46938e-05
4.64882e-05
-1.71185e-05
-4.50862e-05
4.68419e-05
-1.88407e-05
-4.54711e-05
4.71933e-05
-2.05327e-05
-4.58403e-05
4.75323e-05
-2.21964e-05
-4.61878e-05
4.78515e-05
-2.38325e-05
-4.6509e-05
4.8145e-05
-2.54407e-05
-4.67998e-05
4.8408e-05
-2.70199e-05
-4.70569e-05
4.86361e-05
-2.85677e-05
-4.72777e-05
4.88255e-05
-3.00805e-05
-4.7461e-05
4.89737e-05
-3.15529e-05
-4.76064e-05
4.90788e-05
-3.29775e-05
-4.77145e-05
4.91391e-05
-3.43444e-05
-4.77906e-05
4.91574e-05
-4.79621e-05
4.92599e-05
4.84669e-06
-2.82268e-05
2.29573e-06
-3.49177e-05
-2.45423e-07
-3.80967e-05
-2.71717e-06
-3.96111e-05
-5.08932e-06
-4.03631e-05
-7.36163e-06
-4.0809e-05
-9.53946e-06
-4.11655e-05
-1.16331e-05
-4.15263e-05
-1.36557e-05
-4.19197e-05
-1.56204e-05
-4.23417e-05
-1.75381e-05
-4.2776e-05
-1.94168e-05
-4.32076e-05
-2.12612e-05
-4.36267e-05
-2.30741e-05
-4.40273e-05
-2.48571e-05
-4.44048e-05
-2.66104e-05
-4.47557e-05
-2.83337e-05
-4.50766e-05
-3.00255e-05
-4.5365e-05
-3.16835e-05
-4.56197e-05
-3.33037e-05
-4.58407e-05
-3.48811e-05
-4.60291e-05
-3.64089e-05
-4.61867e-05
-3.78784e-05
-4.63211e-05
-4.65569e-05
3.61389e-06
-2.64669e-05
1.15897e-06
-3.24628e-05
-1.43498e-06
-3.55028e-05
-4.0049e-06
-3.70412e-05
-6.48981e-06
-3.78782e-05
-8.87438e-06
-3.84245e-05
-1.11627e-05
-3.88772e-05
-1.33667e-05
-3.93222e-05
-1.5501e-05
-3.97855e-05
-1.75787e-05
-4.0264e-05
-1.96105e-05
-4.07442e-05
-2.16034e-05
-4.12147e-05
-2.35615e-05
-4.16686e-05
-2.54872e-05
-4.21016e-05
-2.73814e-05
-4.25106e-05
-2.92444e-05
-4.28927e-05
-3.10754e-05
-4.32456e-05
-3.28729e-05
-4.35675e-05
-3.46344e-05
-4.38582e-05
-3.63561e-05
-4.4119e-05
-3.80328e-05
-4.43524e-05
-3.96584e-05
-4.45611e-05
-4.12256e-05
-4.47539e-05
-4.50492e-05
2.33412e-06
-2.48569e-05
-5.90954e-08
-3.00696e-05
-2.67661e-06
-3.28853e-05
-5.30807e-06
-3.44098e-05
-7.87117e-06
-3.53151e-05
-1.03418e-05
-3.59538e-05
-1.27214e-05
-3.64976e-05
-1.50213e-05
-3.70224e-05
-1.72553e-05
-3.75514e-05
-1.94358e-05
-3.80835e-05
-2.15722e-05
-3.86079e-05
-2.36702e-05
-3.91167e-05
-2.57333e-05
-3.96055e-05
-2.77631e-05
-4.00718e-05
-2.97604e-05
-4.05133e-05
-3.1725e-05
-4.09281e-05
-3.36561e-05
-4.13145e-05
-3.55521e-05
-4.16715e-05
-3.74102e-05
-4.2e-05
-3.92266e-05
-4.23026e-05
-4.09963e-05
-4.25827e-05
-4.27138e-05
-4.28436e-05
-4.43735e-05
-4.30942e-05
-4.34445e-05
1.0894e-06
-2.3216e-05
-1.28754e-06
-2.76926e-05
-3.91922e-06
-3.02536e-05
-6.59061e-06
-3.17384e-05
-9.2099e-06
-3.26958e-05
-1.17481e-05
-3.34156e-05
-1.4204e-05
-3.40417e-05
-1.65874e-05
-3.4639e-05
-1.89105e-05
-3.52284e-05
-2.11839e-05
-3.58101e-05
-2.34152e-05
-3.63766e-05
-2.56091e-05
-3.69227e-05
-2.77681e-05
-3.74465e-05
-2.98934e-05
-3.79465e-05
-3.19853e-05
-3.84215e-05
-3.40434e-05
-3.887e-05
-3.60667e-05
-3.92911e-05
-3.80535e-05
-3.96848e-05
-4.00007e-05
-4.00527e-05
-4.19046e-05
-4.03988e-05
-4.37605e-05
-4.07268e-05
-4.55637e-05
-4.10403e-05
-4.73104e-05
-4.13476e-05
-4.17484e-05
-7.47121e-08
-2.15018e-05
-2.47549e-06
-2.52918e-05
-5.12393e-06
-2.76052e-05
-7.82406e-06
-2.90382e-05
-1.04858e-05
-3.00341e-05
-1.30786e-05
-3.08228e-05
-1.55994e-05
-3.15208e-05
-1.80559e-05
-3.21825e-05
-2.04582e-05
-3.28261e-05
-2.28148e-05
-3.34535e-05
-2.51316e-05
-3.40597e-05
-2.74122e-05
-3.46422e-05
-2.9658e-05
-3.52006e-05
-3.18698e-05
-3.57346e-05
-3.40477e-05
-3.62436e-05
-3.61909e-05
-3.67268e-05
-3.82983e-05
-3.71838e-05
-4.03678e-05
-3.76153e-05
-4.23963e-05
-3.80242e-05
-4.43801e-05
-3.8415e-05
-4.6315e-05
-3.87919e-05
-4.81977e-05
-3.91577e-05
-5.00254e-05
-3.95199e-05
-3.99671e-05
-1.18036e-06
-1.96698e-05
-3.59765e-06
-2.28746e-05
-6.26317e-06
-2.49396e-05
-8.9866e-06
-2.63148e-05
-1.16824e-05
-2.73383e-05
-1.43208e-05
-2.81844e-05
-1.68975e-05
-2.89441e-05
-1.94181e-05
-2.96619e-05
-2.18903e-05
-3.03539e-05
-2.43209e-05
-3.10229e-05
-2.6714e-05
-3.16666e-05
-2.90718e-05
-3.22844e-05
-3.13953e-05
-3.28771e-05
-3.36847e-05
-3.34452e-05
-3.59397e-05
-3.39886e-05
-3.81594e-05
-3.45071e-05
-4.03424e-05
-3.50008e-05
-4.24863e-05
-3.54714e-05
-4.45879e-05
-3.59225e-05
-4.66438e-05
-3.63591e-05
-4.86506e-05
-3.67851e-05
-5.06059e-05
-3.72025e-05
-5.25084e-05
-3.76173e-05
-3.81072e-05
-2.17246e-06
-1.77311e-05
-4.63089e-06
-2.04161e-05
-7.31777e-06
-2.22528e-05
-1.0062e-05
-2.35706e-05
-1.27867e-05
-2.46137e-05
-1.54642e-05
-2.55069e-05
-1.80894e-05
-2.63189e-05
-2.0666e-05
-2.70854e-05
-2.31996e-05
-2.78202e-05
-2.56951e-05
-2.85275e-05
-2.81551e-05
-2.92066e-05
-3.05809e-05
-2.98586e-05
-3.29728e-05
-3.04852e-05
-3.53307e-05
-3.10873e-05
-3.76539e-05
-3.16655e-05
-3.99413e-05
-3.22197e-05
-4.21911e-05
-3.2751e-05
-4.44008e-05
-3.32617e-05
-4.65673e-05
-3.3756e-05
-4.86874e-05
-3.4239e-05
-5.07587e-05
-3.47138e-05
-5.27795e-05
-3.51816e-05
-5.47497e-05
-3.56472e-05
-3.61752e-05
-3.05872e-06
-1.5685e-05
-5.56325e-06
-1.79116e-05
-8.27436e-06
-1.95417e-05
-1.10386e-05
-2.08063e-05
-1.37889e-05
-2.18634e-05
-1.65004e-05
-2.27953e-05
-1.91676e-05
-2.36517e-05
-2.17926e-05
-2.44604e-05
-2.43792e-05
-2.52336e-05
-2.69307e-05
-2.5976e-05
-2.94484e-05
-2.66888e-05
-3.19329e-05
-2.73742e-05
-3.4384e-05
-2.80342e-05
-3.68011e-05
-2.86702e-05
-3.91833e-05
-2.92832e-05
-4.15292e-05
-2.98738e-05
-4.3837e-05
-3.04433e-05
-4.61038e-05
-3.09948e-05
-4.83269e-05
-3.1533e-05
-5.05036e-05
-3.20623e-05
-5.2632e-05
-3.25854e-05
-5.47109e-05
-3.31027e-05
-5.674e-05
-3.3618e-05
-3.4177e-05
-3.83485e-06
-1.35412e-05
-6.38719e-06
-1.53593e-05
-9.12426e-06
-1.68046e-05
-1.19084e-05
-1.80222e-05
-1.46818e-05
-1.909e-05
-1.7423e-05
-2.00542e-05
-2.01261e-05
-2.09485e-05
-2.27922e-05
-2.17943e-05
-2.54235e-05
-2.26023e-05
-2.80221e-05
-2.33774e-05
-3.05884e-05
-2.41226e-05
-3.31221e-05
-2.48404e-05
-3.56229e-05
-2.55334e-05
-3.80897e-05
-2.62034e-05
-4.05216e-05
-2.68513e-05
-4.29169e-05
-2.74785e-05
-4.52733e-05
-2.80869e-05
-4.75883e-05
-2.86798e-05
-4.98596e-05
-2.92617e-05
-5.20851e-05
-2.98368e-05
-5.42638e-05
-3.04067e-05
-5.63946e-05
-3.09719e-05
-5.84765e-05
-3.15361e-05
-3.21243e-05
-4.49801e-06
-1.13082e-05
-7.09819e-06
-1.27591e-05
-9.86213e-06
-1.40406e-05
-1.26662e-05
-1.52181e-05
-1.54608e-05
-1.62954e-05
-1.82272e-05
-1.72878e-05
-2.09602e-05
-1.82155e-05
-2.366e-05
-1.90945e-05
-2.63278e-05
-1.99345e-05
-2.89645e-05
-2.07407e-05
-3.157e-05
-2.15171e-05
-3.41436e-05
-2.22668e-05
-3.66845e-05
-2.29925e-05
-3.91917e-05
-2.36962e-05
-4.16637e-05
-2.43793e-05
-4.40987e-05
-2.50435e-05
-4.64944e-05
-2.56911e-05
-4.88486e-05
-2.63256e-05
-5.11594e-05
-2.6951e-05
-5.34256e-05
-2.75705e-05
-5.5647e-05
-2.81854e-05
-5.78229e-05
-2.8796e-05
-5.9953e-05
-2.9406e-05
-3.00271e-05
-5.04687e-06
-8.99469e-06
-7.69411e-06
-1.01118e-05
-1.04854e-05
-1.12493e-05
-1.33093e-05
-1.23942e-05
-1.61227e-05
-1.34821e-05
-1.89098e-05
-1.45007e-05
-2.16664e-05
-1.54589e-05
-2.43923e-05
-1.63686e-05
-2.70882e-05
-1.72386e-05
-2.97542e-05
-1.80747e-05
-3.23895e-05
-1.88817e-05
-3.49935e-05
-1.96629e-05
-3.7565e-05
-2.0421e-05
-4.01029e-05
-2.11583e-05
-4.26055e-05
-2.18767e-05
-4.50709e-05
-2.25782e-05
-4.74968e-05
-2.32652e-05
-4.98812e-05
-2.39411e-05
-5.22231e-05
-2.46091e-05
-5.45219e-05
-2.52717e-05
-5.67778e-05
-2.59294e-05
-5.89909e-05
-2.65829e-05
-6.11615e-05
-2.72354e-05
-2.78934e-05
-5.48102e-06
-6.60859e-06
-8.1746e-06
-7.41824e-06
-1.09937e-05
-8.43022e-06
-1.38365e-05
-9.55135e-06
-1.66658e-05
-1.06528e-05
-1.94689e-05
-1.16976e-05
-2.22426e-05
-1.26852e-05
-2.49869e-05
-1.36243e-05
-2.77021e-05
-1.45233e-05
-3.03881e-05
-1.53888e-05
-3.3044e-05
-1.62258e-05
-3.56688e-05
-1.70381e-05
-3.82614e-05
-1.78284e-05
-4.08205e-05
-1.85992e-05
-4.33443e-05
-1.93529e-05
-4.58308e-05
-2.00917e-05
-4.82779e-05
-2.08181e-05
-5.06842e-05
-2.15348e-05
-5.3049e-05
-2.22444e-05
-5.53722e-05
-2.29484e-05
-5.76542e-05
-2.36475e-05
-5.98951e-05
-2.4342e-05
-6.2096e-05
-2.50345e-05
-2.57298e-05
-5.80063e-06
-4.15594e-06
-8.54054e-06
-4.67833e-06
-1.13879e-05
-5.58289e-06
-1.42483e-05
-6.6909e-06
-1.70903e-05
-7.81086e-06
-1.99039e-05
-8.88391e-06
-2.26877e-05
-9.90146e-06
-2.54422e-05
-1.08698e-05
-2.8168e-05
-1.17976e-05
-3.08646e-05
-1.26921e-05
-3.35314e-05
-1.35591e-05
-3.61674e-05
-1.44021e-05
-3.87715e-05
-1.52243e-05
-4.13422e-05
-1.60285e-05
-4.38779e-05
-1.68173e-05
-4.63764e-05
-1.75932e-05
-4.8836e-05
-1.83585e-05
-5.12555e-05
-1.91153e-05
-5.36348e-05
-1.98651e-05
-5.5974e-05
-2.06092e-05
-5.82735e-05
-2.1348e-05
-6.05331e-05
-2.20823e-05
-6.27542e-05
-2.28135e-05
-2.3545e-05
-6.00599e-06
-1.64012e-06
-8.79377e-06
-1.89056e-06
-1.16702e-05
-2.70645e-06
-1.45467e-05
-3.81442e-06
-1.73973e-05
-4.96025e-06
-2.02156e-05
-6.06561e-06
-2.30019e-05
-7.11509e-06
-2.57581e-05
-8.11375e-06
-2.8485e-05
-9.07062e-06
-3.11828e-05
-9.99433e-06
-3.38507e-05
-1.08911e-05
-3.64882e-05
-1.17647e-05
-3.9094e-05
-1.26184e-05
-4.16668e-05
-1.34557e-05
-4.42048e-05
-1.42793e-05
-4.67061e-05
-1.50919e-05
-4.91691e-05
-1.58955e-05
-5.1593e-05
-1.66913e-05
-5.3978e-05
-1.74801e-05
-5.63245e-05
-1.82627e-05
-5.86327e-05
-1.90398e-05
-6.09027e-05
-1.98123e-05
-6.31348e-05
-2.05814e-05
-2.13483e-05
-6.09769e-06
9.39175e-07
-8.93692e-06
9.48677e-07
-1.18443e-05
2.0094e-07
-1.47351e-05
-9.23617e-07
-1.75897e-05
-2.10563e-06
-2.04058e-05
-3.24954e-06
-2.31865e-05
-4.33439e-06
-2.59351e-05
-5.36517e-06
-2.86536e-05
-6.35212e-06
-3.13426e-05
-7.30536e-06
-3.40018e-05
-8.23184e-06
-3.66308e-05
-9.1357e-06
-3.92285e-05
-1.00207e-05
-4.17937e-05
-1.08905e-05
-4.43246e-05
-1.17484e-05
-4.68194e-05
-1.25971e-05
-4.92769e-05
-1.3438e-05
-5.16966e-05
-1.42716e-05
-5.40786e-05
-1.50981e-05
-5.64234e-05
-1.59179e-05
-5.87312e-05
-1.6732e-05
-6.10018e-05
-1.75417e-05
-6.32358e-05
-1.83474e-05
-1.91488e-05
-6.07668e-06
3.58784e-06
-8.97388e-06
3.84588e-06
-1.19155e-05
3.14258e-06
-1.48189e-05
1.9798e-06
-1.7672e-05
7.47395e-07
-2.04779e-05
-4.43611e-07
-2.32437e-05
-1.56855e-06
-2.5975e-05
-2.63395e-06
-2.86749e-05
-3.65221e-06
-3.13448e-05
-4.63537e-06
-3.39852e-05
-5.59149e-06
-3.65956e-05
-6.52527e-06
-3.91754e-05
-7.44096e-06
-4.17231e-05
-8.3427e-06
-4.42374e-05
-9.23415e-06
-4.67165e-05
-1.01179e-05
-4.91595e-05
-1.0995e-05
-5.15659e-05
-1.18652e-05
-5.3936e-05
-1.27281e-05
-5.62701e-05
-1.35838e-05
-5.85683e-05
-1.44338e-05
-6.08306e-05
-1.52794e-05
-6.30573e-05
-1.61207e-05
-1.69554e-05
-5.9445e-06
6.32e-06
-8.91066e-06
6.81204e-06
-1.18912e-05
6.1231e-06
-1.48051e-05
4.89372e-06
-1.76496e-05
3.59194e-06
-2.04361e-05
2.34283e-06
-2.31768e-05
1.17214e-06
-2.588e-05
6.92939e-08
-2.85507e-05
-9.81555e-07
-3.11911e-05
-1.99495e-06
-3.38021e-05
-2.98046e-06
-3.63838e-05
-3.9436e-06
-3.89355e-05
-4.88925e-06
-4.14562e-05
-5.82205e-06
-4.39443e-05
-6.74602e-06
-4.63985e-05
-7.66371e-06
-4.88178e-05
-8.57571e-06
-5.12019e-05
-9.48111e-06
-5.3551e-05
-1.0379e-05
-5.58654e-05
-1.12695e-05
-5.81451e-05
-1.21541e-05
-6.039e-05
-1.30345e-05
-6.26004e-05
-1.39103e-05
-1.47775e-05
-5.704e-06
9.16286e-06
-8.75704e-06
9.86508e-06
-1.17815e-05
9.14753e-06
-1.47022e-05
7.81444e-06
-1.75296e-05
6.41936e-06
-2.02857e-05
5.09886e-06
-2.29896e-05
3.87607e-06
-2.56533e-05
2.73302e-06
-2.82835e-05
1.6486e-06
-3.08834e-05
6.04974e-07
-3.34545e-05
-4.09361e-07
-3.59971e-05
-1.401e-06
-3.85108e-05
-2.37557e-06
-4.09945e-05
-3.33831e-06
-4.3447e-05
-4.29353e-06
-4.5867e-05
-5.24372e-06
-4.82536e-05
-6.18909e-06
-5.06065e-05
-7.12822e-06
-5.29257e-05
-8.05977e-06
-5.52114e-05
-8.98378e-06
-5.74635e-05
-9.90193e-06
-5.96819e-05
-1.08161e-05
-6.18668e-05
-1.17254e-05
-1.26243e-05
-5.36121e-06
1.21658e-05
-8.5282e-06
1.30321e-05
-1.16012e-05
1.22205e-05
-1.45216e-05
1.07349e-05
-1.73199e-05
9.21762e-06
-2.00323e-05
7.81125e-06
-2.26864e-05
6.5302e-06
-2.52982e-05
5.34479e-06
-2.7876e-05
4.22645e-06
-3.04242e-05
3.15315e-06
-3.29446e-05
2.11102e-06
-3.54378e-05
1.09215e-06
-3.79034e-05
9.00173e-08
-4.03405e-05
-9.012e-07
-4.27479e-05
-1.88608e-06
-4.51246e-05
-2.86708e-06
-4.74695e-05
-3.84414e-06
-4.97822e-05
-4.81547e-06
-5.20626e-05
-5.77938e-06
-5.43106e-05
-6.73577e-06
-5.65262e-05
-7.68636e-06
-5.87091e-05
-8.63324e-06
-6.08596e-05
-9.57491e-06
-1.05047e-05
-4.93333e-06
1.54176e-05
-8.24926e-06
1.6348e-05
-1.13715e-05
1.53428e-05
-1.4278e-05
1.36414e-05
-1.70296e-05
1.19692e-05
-1.96817e-05
1.04635e-05
-2.22713e-05
9.11978e-06
-2.48179e-05
7.89134e-06
-2.73312e-05
6.73976e-06
-2.98162e-05
5.63812e-06
-3.2275e-05
4.56985e-06
-3.47083e-05
3.52549e-06
-3.71159e-05
2.49758e-06
-3.94968e-05
1.47973e-06
-4.185e-05
4.6711e-07
-4.41743e-05
-5.42773e-07
-4.64688e-05
-1.54969e-06
-4.87327e-05
-2.5516e-06
-5.09655e-05
-3.54654e-06
-5.31671e-05
-4.5342e-06
-5.53372e-05
-5.51625e-06
-5.74756e-05
-6.49481e-06
-5.95826e-05
-7.46789e-06
-8.42775e-06
-4.46245e-06
1.90415e-05
-7.96357e-06
1.98491e-05
-1.11233e-05
1.85025e-05
-1.39884e-05
1.65065e-05
-1.66676e-05
1.46483e-05
-1.92391e-05
1.3035e-05
-2.17477e-05
1.16283e-05
-2.4215e-05
1.03587e-05
-2.66513e-05
9.17608e-06
-2.90616e-05
8.04843e-06
-3.14482e-05
6.95636e-06
-3.38115e-05
5.88882e-06
-3.61513e-05
4.8374e-06
-3.84667e-05
3.79518e-06
-4.07567e-05
2.75706e-06
-4.30199e-05
1.72049e-06
-4.52554e-05
6.85754e-07
-4.7462e-05
-3.45017e-07
-4.96389e-05
-1.36965e-06
-5.17855e-05
-2.38758e-06
-5.39014e-05
-3.40031e-06
-5.59863e-05
-4.40992e-06
-5.80405e-05
-5.41369e-06
-6.40174e-06
-4.06308e-06
2.32971e-05
-7.76327e-06
2.35493e-05
-1.08977e-05
2.1637e-05
-1.36686e-05
1.92774e-05
-1.62399e-05
1.72196e-05
-1.87073e-05
1.55025e-05
-2.11175e-05
1.40385e-05
-2.34914e-05
1.27325e-05
-2.58383e-05
1.1523e-05
-2.81627e-05
1.03728e-05
-3.04664e-05
9.26009e-06
-3.27499e-05
8.17225e-06
-3.50125e-05
7.10005e-06
-3.72535e-05
6.0361e-06
-3.94715e-05
4.97507e-06
-4.16653e-05
3.9143e-06
-4.38335e-05
2.854e-06
-4.59748e-05
1.79625e-06
-4.80878e-05
7.43348e-07
-5.01715e-05
-3.0389e-07
-5.2225e-05
-1.34678e-06
-5.42475e-05
-2.38745e-06
-5.62379e-05
-3.42321e-06
-4.43355e-06
-4.09205e-06
3.01861e-05
-7.79793e-06
2.72552e-05
-1.07321e-05
2.45711e-05
-1.33248e-05
2.18701e-05
-1.57467e-05
1.96415e-05
-1.80861e-05
1.78418e-05
-2.03809e-05
1.63333e-05
-2.26476e-05
1.49993e-05
-2.48933e-05
1.37688e-05
-2.71211e-05
1.26006e-05
-2.9332e-05
1.1471e-05
-3.15261e-05
1.03663e-05
-3.37026e-05
9.27651e-06
-3.58603e-05
8.19381e-06
-3.79979e-05
7.11271e-06
-4.0114e-05
6.03045e-06
-4.22071e-05
4.94702e-06
-4.42752e-05
3.86437e-06
-4.63166e-05
2.78473e-06
-4.83296e-05
1.70912e-06
-5.03128e-05
6.36401e-07
-5.22644e-05
-4.35822e-07
-5.41819e-05
-1.50572e-06
-2.52876e-06
7.26171e-07
-7.26171e-07
1.42789e-06
-7.01723e-07
2.17238e-06
-7.4449e-07
2.92903e-06
-7.56649e-07
1.2893e-06
1.63974e-06
6.70108e-06
-5.41179e-06
7.60908e-07
-1.48708e-06
1.28614e-06
-1.22696e-06
1.59596e-06
-1.05431e-06
1.30024e-06
-4.60921e-07
-1.33728e-06
4.27725e-06
1.16704e-05
-6.30661e-06
6.60728e-07
-2.14781e-06
9.68357e-07
-1.53458e-06
8.31441e-07
-9.17398e-07
-4.36816e-07
8.07337e-07
-3.24082e-06
7.08126e-06
1.51204e-05
-6.69081e-06
5.53137e-07
-2.70094e-06
6.18811e-07
-1.60026e-06
4.43299e-08
-3.42917e-07
-1.66651e-06
2.51818e-06
-4.3071e-06
9.72185e-06
1.76831e-05
-6.86984e-06
4.07121e-07
-3.10807e-06
2.68169e-07
-1.4613e-06
-5.47574e-07
4.72826e-07
-2.43505e-06
4.40565e-06
-4.77105e-06
1.20579e-05
1.95992e-05
-6.6871e-06
2.16601e-07
-3.32467e-06
-5.18637e-08
-1.19284e-06
-1.02563e-06
1.44659e-06
-2.85836e-06
6.23838e-06
-4.84454e-06
1.4044e-05
2.10199e-05
-6.26523e-06
5.82488e-08
-3.38292e-06
-3.1524e-07
-8.19351e-07
-1.34823e-06
2.47958e-06
-3.01439e-06
7.90454e-06
-4.64407e-06
1.56737e-05
2.20594e-05
-5.68355e-06
-5.99041e-08
-3.32301e-06
-5.05148e-07
-3.74107e-07
-1.52163e-06
3.49606e-06
-2.96601e-06
9.34892e-06
-4.24669e-06
1.69544e-05
2.27962e-05
-4.98356e-06
-1.45445e-07
-3.17757e-06
-6.23946e-07
1.04395e-07
-1.56438e-06
4.43649e-06
-2.76001e-06
1.05446e-05
-3.7069e-06
1.79013e-05
2.32796e-05
-4.19028e-06
-2.03511e-07
-2.97405e-06
-6.77542e-07
5.78425e-07
-1.49857e-06
5.25752e-06
-2.43245e-06
1.14784e-05
-3.06575e-06
1.85346e-05
2.35359e-05
-3.32201e-06
-2.35054e-07
-2.739e-06
-6.73993e-07
1.01736e-06
-1.34575e-06
5.92927e-06
-2.01201e-06
1.21447e-05
-2.35297e-06
1.88756e-05
2.35777e-05
-2.3948e-06
-2.43301e-07
-2.4957e-06
-6.22528e-07
1.39659e-06
-1.12543e-06
6.43218e-06
-1.52595e-06
1.25452e-05
-1.59191e-06
1.89415e-05
2.34089e-05
-1.42311e-06
-2.32663e-07
-2.26304e-06
-5.33159e-07
1.69709e-06
-8.54642e-07
6.75366e-06
-9.92876e-07
1.26834e-05
-7.95189e-07
1.87438e-05
2.30328e-05
-4.19057e-07
-2.085e-07
-2.05454e-06
-4.16668e-07
1.90526e-06
-5.49589e-07
6.88659e-06
-4.32371e-07
1.25662e-05
1.93512e-08
1.82921e-05
2.24434e-05
6.08703e-07
-1.77019e-07
-1.87752e-06
-2.84413e-07
2.01265e-06
-2.26388e-07
6.82856e-06
1.39455e-07
1.22004e-05
8.42116e-07
1.75894e-05
2.16348e-05
1.65077e-06
-1.45236e-07
-1.73228e-06
-1.48339e-07
2.01575e-06
9.8477e-08
6.58174e-06
7.05049e-07
1.15938e-05
1.65742e-06
1.66371e-05
2.05951e-05
2.69711e-06
-1.20729e-07
-1.61155e-06
-2.08613e-08
1.91588e-06
4.06484e-07
6.1544e-06
1.24623e-06
1.07541e-05
2.45107e-06
1.54322e-05
1.93084e-05
3.73777e-06
-1.09687e-07
-1.50187e-06
8.54971e-08
1.7207e-06
6.81075e-07
5.55882e-06
1.7442e-06
9.69093e-06
3.20493e-06
1.39715e-05
1.77548e-05
4.7585e-06
-1.18555e-07
-1.38331e-06
1.59117e-07
1.44303e-06
9.0491e-07
4.81303e-06
2.1787e-06
8.41714e-06
3.8943e-06
1.22559e-05
1.59049e-05
5.74422e-06
-1.51203e-07
-1.23211e-06
1.89699e-07
1.10213e-06
1.06203e-06
3.94069e-06
2.52676e-06
6.95242e-06
4.49285e-06
1.02898e-05
1.37186e-05
6.6791e-06
-2.05915e-07
-1.02619e-06
1.68549e-07
7.27661e-07
1.13584e-06
2.9734e-06
2.76351e-06
5.32475e-06
4.97265e-06
8.08069e-06
1.1148e-05
7.54329e-06
-2.63894e-07
-7.62298e-07
8.65437e-08
3.77224e-07
1.1081e-06
1.95184e-06
2.86304e-06
3.56982e-06
5.29423e-06
5.6495e-06
8.11244e-06
8.32975e-06
-3.45332e-07
-4.16966e-07
-6.75472e-08
9.94387e-08
9.53268e-07
9.31022e-07
2.77964e-06
1.74344e-06
5.44674e-06
2.9824e-06
4.44408e-06
9.1151e-06
-4.16966e-07
-3.17527e-07
6.13495e-07
2.35694e-06
5.33934e-06
9.78342e-06
-5.28531e-06
3.00596e-05
-8.12667e-06
3.00966e-05
-1.06177e-05
2.70621e-05
-1.2945e-05
2.41974e-05
-1.51812e-05
2.18777e-05
-1.73718e-05
2.00324e-05
-1.95362e-05
1.84976e-05
-2.16833e-05
1.71464e-05
-2.38168e-05
1.59023e-05
-2.5938e-05
1.47217e-05
-2.80468e-05
1.35799e-05
-3.01427e-05
1.24622e-05
-3.22244e-05
1.13582e-05
-3.42905e-05
1.02599e-05
-3.63396e-05
9.16179e-06
-3.837e-05
8.06084e-06
-4.03798e-05
6.95685e-06
-4.23669e-05
5.85147e-06
-4.4329e-05
4.74682e-06
-4.62639e-05
3.64402e-06
-4.81697e-05
2.54213e-06
-5.00441e-05
1.4386e-06
-5.18841e-05
3.34306e-07
-6.96163e-07
-6.91621e-06
3.06692e-05
-8.51024e-06
3.16906e-05
-1.04706e-05
2.90225e-05
-1.25013e-05
2.62282e-05
-1.45316e-05
2.3908e-05
-1.65578e-05
2.20586e-05
-1.85794e-05
2.05192e-05
-2.05964e-05
1.91634e-05
-2.26084e-05
1.79143e-05
-2.46143e-05
1.67276e-05
-2.66128e-05
1.55784e-05
-2.86024e-05
1.44518e-05
-3.05815e-05
1.33373e-05
-3.25483e-05
1.22267e-05
-3.4501e-05
1.11146e-05
-3.64379e-05
9.99775e-06
-3.83568e-05
8.87578e-06
-4.02553e-05
7.74997e-06
-4.21308e-05
6.62227e-06
-4.39807e-05
5.4939e-06
-4.58027e-05
4.36417e-06
-4.75949e-05
3.23073e-06
-4.93553e-05
2.09474e-06
1.05387e-06
-7.51763e-06
3.1496e-05
-8.64691e-06
3.28199e-05
-1.02128e-05
3.05884e-05
-1.19601e-05
2.79755e-05
-1.37795e-05
2.57274e-05
-1.56335e-05
2.39126e-05
-1.75046e-05
2.23904e-05
-1.93843e-05
2.10431e-05
-2.12676e-05
1.97976e-05
-2.3151e-05
1.8611e-05
-2.50321e-05
1.74595e-05
-2.69084e-05
1.63281e-05
-2.87778e-05
1.52066e-05
-3.06381e-05
1.40871e-05
-3.24875e-05
1.2964e-05
-3.4324e-05
1.18342e-05
-3.61451e-05
1.06969e-05
-3.79482e-05
9.55309e-06
-3.97305e-05
8.40459e-06
-4.14893e-05
7.25268e-06
-4.32221e-05
6.09704e-06
-4.49273e-05
4.93587e-06
-4.6604e-05
3.77146e-06
2.71027e-06
-7.62584e-06
3.2252e-05
-8.49698e-06
3.3691e-05
-9.78209e-06
3.18735e-05
-1.12852e-05
2.94786e-05
-1.29046e-05
2.73468e-05
-1.45879e-05
2.55958e-05
-1.63063e-05
2.41088e-05
-1.80445e-05
2.27813e-05
-1.97941e-05
2.15471e-05
-2.15496e-05
2.03666e-05
-2.33074e-05
1.92173e-05
-2.50644e-05
1.80851e-05
-2.68179e-05
1.69602e-05
-2.85657e-05
1.58349e-05
-3.03056e-05
1.47039e-05
-3.20354e-05
1.3564e-05
-3.37526e-05
1.24141e-05
-3.54546e-05
1.1255e-05
-3.71381e-05
1.00881e-05
-3.88003e-05
8.91488e-06
-4.04386e-05
7.73527e-06
-4.20508e-05
6.5481e-06
-4.36353e-05
5.35602e-06
4.26668e-06
-7.40487e-06
3.29698e-05
-8.10291e-06
3.43891e-05
-9.16616e-06
3.29367e-05
-1.04614e-05
3.07738e-05
-1.18976e-05
2.8783e-05
-1.3416e-05
2.71142e-05
-1.49822e-05
2.5675e-05
-1.65769e-05
2.4376e-05
-1.81892e-05
2.31595e-05
-1.98125e-05
2.19899e-05
-2.14422e-05
2.0847e-05
-2.30747e-05
1.97176e-05
-2.47072e-05
1.85926e-05
-2.6337e-05
1.74647e-05
-2.79619e-05
1.63288e-05
-2.95797e-05
1.51817e-05
-3.11878e-05
1.40222e-05
-3.27832e-05
1.28504e-05
-3.43627e-05
1.16677e-05
-3.59231e-05
1.04752e-05
-3.7461e-05
9.27322e-06
-3.89738e-05
8.06086e-06
-4.04584e-05
6.84065e-06
5.72029e-06
-6.92729e-06
3.36318e-05
-7.50246e-06
3.49642e-05
-8.38073e-06
3.3815e-05
-9.49419e-06
3.18873e-05
-1.07603e-05
3.00492e-05
-1.21192e-05
2.8473e-05
-1.3534e-05
2.70899e-05
-1.49838e-05
2.58257e-05
-1.64562e-05
2.46318e-05
-1.79437e-05
2.34774e-05
-1.94413e-05
2.23445e-05
-2.09449e-05
2.12213e-05
-2.24516e-05
2.00992e-05
-2.39587e-05
1.89718e-05
-2.54638e-05
1.7834e-05
-2.69647e-05
1.66826e-05
-2.84586e-05
1.55161e-05
-2.99426e-05
1.43344e-05
-3.14132e-05
1.31383e-05
-3.28666e-05
1.19287e-05
-3.42992e-05
1.07058e-05
-3.57074e-05
9.46902e-06
-3.70871e-05
8.22036e-06
7.06628e-06
-6.25219e-06
3.42005e-05
-6.7256e-06
3.54376e-05
-7.44381e-06
3.45332e-05
-8.39347e-06
3.2837e-05
-9.49897e-06
3.11547e-05
-1.07021e-05
2.96762e-05
-1.19663e-05
2.8354e-05
-1.32699e-05
2.71293e-05
-1.45999e-05
2.59619e-05
-1.59484e-05
2.4826e-05
-1.73102e-05
2.37062e-05
-1.86811e-05
2.25922e-05
-2.00579e-05
2.14761e-05
-2.14379e-05
2.03518e-05
-2.28189e-05
1.92149e-05
-2.41983e-05
1.8062e-05
-2.55735e-05
1.68914e-05
-2.69415e-05
1.57024e-05
-2.82986e-05
1.44953e-05
-2.96407e-05
1.32708e-05
-3.09636e-05
1.20288e-05
-3.2263e-05
1.07684e-05
-3.35336e-05
9.491e-06
8.30002e-06
-5.42267e-06
3.46396e-05
-5.80122e-06
3.58162e-05
-6.37742e-06
3.51094e-05
-7.17103e-06
3.36306e-05
-8.12134e-06
3.2105e-05
-9.17123e-06
3.07261e-05
-1.02847e-05
2.94675e-05
-1.14407e-05
2.82853e-05
-1.2626e-05
2.71472e-05
-1.38328e-05
2.60328e-05
-1.50555e-05
2.4929e-05
-1.62901e-05
2.38268e-05
-1.75334e-05
2.27193e-05
-1.87826e-05
2.16011e-05
-2.00353e-05
2.04676e-05
-2.12892e-05
1.93159e-05
-2.25415e-05
1.81437e-05
-2.37893e-05
1.69501e-05
-2.50286e-05
1.57347e-05
-2.62554e-05
1.44975e-05
-2.74648e-05
1.32382e-05
-2.86518e-05
1.19553e-05
-2.98099e-05
1.06491e-05
9.41742e-06
-4.47925e-06
3.49286e-05
-4.75188e-06
3.60888e-05
-5.19224e-06
3.55498e-05
-5.83724e-06
3.42756e-05
-6.63578e-06
3.29035e-05
-7.53344e-06
3.16238e-05
-8.49575e-06
3.04298e-05
-9.50251e-06
2.9292e-05
-1.05411e-05
2.81858e-05
-1.16036e-05
2.70953e-05
-1.26846e-05
2.601e-05
-1.378e-05
2.49221e-05
-1.48864e-05
2.38258e-05
-1.60013e-05
2.27159e-05
-1.71222e-05
2.15885e-05
-1.82467e-05
2.04404e-05
-1.93722e-05
1.92693e-05
-2.04957e-05
1.80736e-05
-2.16135e-05
1.68525e-05
-2.27212e-05
1.56052e-05
-2.38138e-05
1.43308e-05
-2.48854e-05
1.3027e-05
-2.59281e-05
1.16918e-05
1.04149e-05
-3.44686e-06
3.50534e-05
-3.59731e-06
3.62393e-05
-3.90336e-06
3.58558e-05
-4.40308e-06
3.47753e-05
-5.05112e-06
3.35515e-05
-5.79651e-06
3.23692e-05
-6.60694e-06
3.12402e-05
-7.46305e-06
3.01481e-05
-8.35302e-06
2.90758e-05
-9.26911e-06
2.80114e-05
-1.02059e-05
2.69468e-05
-1.11594e-05
2.58756e-05
-1.21263e-05
2.47926e-05
-1.31038e-05
2.36935e-05
-1.40896e-05
2.25743e-05
-1.50812e-05
2.14321e-05
-1.60763e-05
2.02643e-05
-1.70718e-05
1.90691e-05
-1.80642e-05
1.78449e-05
-1.90492e-05
1.65902e-05
-2.00217e-05
1.53033e-05
-2.09754e-05
1.39806e-05
-2.19005e-05
1.26169e-05
1.1289e-05
-2.3421e-06
3.50007e-05
-2.35486e-06
3.6252e-05
-2.52517e-06
3.60262e-05
-2.87953e-06
3.51296e-05
-3.37668e-06
3.40487e-05
-3.96901e-06
3.29615e-05
-4.62638e-06
3.18976e-05
-5.33048e-06
3.08522e-05
-6.07015e-06
2.98154e-05
-6.838e-06
2.87792e-05
-7.62872e-06
2.77375e-05
-8.43823e-06
2.66851e-05
-9.26325e-06
2.56177e-05
-1.0101e-05
2.45312e-05
-1.09489e-05
2.34223e-05
-1.18047e-05
2.22879e-05
-1.26659e-05
2.11255e-05
-1.35297e-05
1.99329e-05
-1.43929e-05
1.87081e-05
-1.52515e-05
1.74488e-05
-1.61007e-05
1.61526e-05
-1.69342e-05
1.4814e-05
-1.77398e-05
1.34226e-05
1.20361e-05
-1.17863e-06
3.47562e-05
-1.03957e-06
3.6113e-05
-1.06946e-06
3.6056e-05
-1.27664e-06
3.53368e-05
-1.62155e-06
3.43936e-05
-2.05961e-06
3.33996e-05
-2.56266e-06
3.24007e-05
-3.11351e-06
3.14031e-05
-3.7016e-06
3.04035e-05
-4.31986e-06
2.93975e-05
-4.96311e-06
2.83807e-05
-5.62728e-06
2.73493e-05
-6.30897e-06
2.62993e-05
-7.00526e-06
2.52275e-05
-7.71354e-06
2.41305e-05
-8.43129e-06
2.30056e-05
-9.15599e-06
2.18502e-05
-9.88494e-06
2.06618e-05
-1.0615e-05
1.94382e-05
-1.13428e-05
1.81766e-05
-1.20648e-05
1.68745e-05
-1.27757e-05
1.5525e-05
-1.34606e-05
1.41076e-05
1.26506e-05
3.21063e-08
3.43051e-05
3.35848e-07
3.58092e-05
4.53597e-07
3.59383e-05
3.96047e-07
3.53944e-05
2.05109e-07
3.45845e-05
-7.74216e-08
3.36821e-05
-4.24983e-07
3.27482e-05
-8.21508e-07
3.17996e-05
-1.25705e-06
3.08391e-05
-1.72486e-06
2.98653e-05
-2.21992e-06
2.88758e-05
-2.73814e-06
2.78675e-05
-3.27607e-06
2.68373e-05
-3.8306e-06
2.5782e-05
-4.39889e-06
2.46988e-05
-4.97814e-06
2.35849e-05
-5.56553e-06
2.24376e-05
-6.15803e-06
2.12543e-05
-6.75227e-06
2.00324e-05
-7.34451e-06
1.87689e-05
-7.93234e-06
1.74623e-05
-8.51757e-06
1.61102e-05
-9.08505e-06
1.4675e-05
1.31215e-05
1.27998e-06
3.36338e-05