/*--------------------------------*- C++ -*----------------------------------*\
  =========                 |
  \\      /  F ield         | OpenFOAM: The Open Source CFD Toolbox
   \\    /   O peration     | Website:  https://openfoam.org
    \\  /    A nd           | Version:  11
     \\/     M anipulation  |
\*---------------------------------------------------------------------------*/
FoamFile
{
    format      ascii;
    class       surfaceVectorField;
    location    "0.84";
    object      Uf;
}
// * * * * * * * * * * * * * * * * * * * * * * * * * * * * * * * * * * * * * //

dimensions      [0 1 -1 0 0 0 0];

internalField   nonuniform List<vector> 
5640
(
(-0.0185957 -0.0551138 8.19759e-20)
(-0.0151961 -0.0574405 -1.29679e-18)
(-0.048537 -0.0200734 -7.72126e-20)
(-0.0356851 -0.0279117 6.29488e-20)
(-0.0962671 0.0419813 -5.2267e-21)
(-0.0732291 0.0249548 -6.06232e-20)
(-0.133399 0.136984 -5.57749e-19)
(-0.132182 0.110512 2.2022e-20)
(-0.20201 0.37099 -4.32703e-19)
(-0.136407 0.214685 -5.91837e-20)
(-0.277742 0.603401 4.02202e-19)
(-0.140784 0.925856 8.64577e-19)
(-0.0269374 -0.035326 -1.39427e-18)
(-0.0219555 -0.0491335 -1.3174e-19)
(-0.0561603 0.0186793 8.35966e-20)
(-0.0421051 0.00332669 -7.97353e-19)
(-0.0952181 0.0864649 -3.73126e-20)
(-0.0731711 0.0628179 -4.77428e-19)
(-0.127106 0.19491 4.90201e-19)
(-0.114524 0.149451 -1.40133e-19)
(-0.124059 0.372206 6.45439e-19)
(-0.108357 0.277359 2.50636e-19)
(-0.103003 0.525203 -1.6918e-19)
(-0.00675021 0.711294 1.43576e-19)
(-0.0336436 -0.0156907 5.02659e-19)
(-0.0305034 -0.0350393 -3.57653e-20)
(-0.0568715 0.0463159 -1.37187e-18)
(-0.0440712 0.0269127 -8.40691e-19)
(-0.0847878 0.117875 -5.8382e-19)
(-0.067472 0.0887601 5.47955e-19)
(-0.0976578 0.228061 -3.89521e-19)
(-0.0925265 0.1739 1.07598e-19)
(-0.0633127 0.386197 -4.78316e-19)
(-0.0732681 0.299493 2.27441e-19)
(-0.01709 0.483792 1.55896e-19)
(0.0685824 0.611841 4.71885e-20)
(-0.0383155 0.0018302 -1.33448e-18)
(-0.0375138 -0.020712 -1.35517e-20)
(-0.0538234 0.0669108 1.02019e-18)
(-0.0436057 0.0447057 6.26865e-19)
(-0.0708231 0.138419 1.25405e-18)
(-0.0591032 0.106498 1.1098e-18)
(-0.0688935 0.241859 7.22029e-19)
(-0.0697646 0.187304 5.55792e-19)
(-0.0182102 0.378507 8.64589e-19)
(-0.0390616 0.301242 5.83889e-19)
(0.0360996 0.444887 -4.47057e-20)
(0.109286 0.541461 1.59876e-19)
(-0.0405937 0.0162846 1.91207e-18)
(-0.0413723 -0.00842451 1.2482e-18)
(-0.0486665 0.0816147 6.96354e-19)
(-0.0413014 0.0574818 6.512e-19)
(-0.0555131 0.150309 4.29666e-19)
(-0.049219 0.117517 5.16614e-20)
(-0.0412803 0.243433 4.15127e-19)
(-0.0476165 0.191721 7.03678e-20)
(0.0184422 0.358146 -3.14459e-19)
(-0.00785872 0.290481 -3.9851e-19)
(0.0743774 0.40298 -5.33175e-19)
(0.137672 0.479664 -5.72017e-19)
(-0.040131 0.0271376 2.26547e-20)
(-0.0416728 0.00115782 1.22627e-18)
(-0.041973 0.0909066 3.16103e-20)
(-0.0372358 0.0658317 3.69743e-20)
(-0.0398867 0.154941 -3.07788e-19)
(-0.0383175 0.122848 -7.92967e-19)
(-0.0158013 0.236056 -7.31806e-19)
(-0.0266281 0.188886 -4.23176e-19)
(0.048948 0.32982 -6.14698e-19)
(0.0199078 0.271469 -3.52516e-19)
(0.104182 0.358381 -7.26276e-21)
(0.159947 0.420722 -5.53324e-20)
(-0.0370272 0.0346051 1.30927e-18)
(-0.038672 0.00808883 -1.2919e-20)
(-0.0339803 0.0955414 -7.52744e-19)
(-0.0315368 0.0704879 6.42595e-19)
(-0.024385 0.153657 -9.18811e-19)
(-0.0267309 0.12349 -4.26312e-19)
(0.00732103 0.222117 -4.61657e-20)
(-0.00702173 0.180371 -4.49066e-20)
(0.0747771 0.29655 2.46992e-19)
(0.0443538 0.24692 -2.87965e-19)
(0.128321 0.312226 5.01632e-19)
(0.178571 0.363498 2.95112e-19)
(-0.0316634 0.039183 -7.18235e-19)
(-0.0330348 0.0127391 -8.71655e-21)
(-0.024923 0.0964187 1.01434e-18)
(-0.0244593 0.0722436 -5.91993e-19)
(-0.00926349 0.14774 4.35697e-19)
(-0.0147714 0.120428 4.47142e-19)
(0.0281419 0.203466 -2.79892e-19)
(0.0110984 0.167577 0)
(0.096875 0.260303 -5.22536e-20)
(0.0657542 0.218722 -4.78117e-21)
(0.148363 0.265494 2.61457e-21)
(0.194542 0.307911 2.89882e-19)
(-0.0246149 0.0414873 1.51242e-19)
(-0.0256208 0.0155615 -1.18414e-18)
(-0.0151128 0.094426 -1.20312e-18)
(-0.0163666 0.071847 -9.42986e-20)
(0.00526465 0.138355 2.65508e-20)
(-0.00276159 0.114587 -3.48186e-19)
(0.0467785 0.181554 2.75357e-19)
(0.0276653 0.151716 0)
(0.115887 0.222437 5.00667e-20)
(0.0844088 0.188249 -2.89696e-20)
(0.165339 0.218952 -4.59095e-19)
(0.208315 0.254103 -2.86788e-19)
(-0.0165256 0.0420746 -1.49266e-18)
(-0.0172709 0.0169394 -1.19109e-18)
(-0.00491779 0.0903637 7.71712e-19)
(-0.00767947 0.0699381 5.31942e-19)
(0.0189915 0.12651 -3.865e-19)
(0.00898137 0.106785 2.18504e-20)
(0.0633795 0.1575 -3.03515e-19)
(0.0426146 0.133787 1.61552e-19)
(0.13233 0.183824 -5.28042e-19)
(0.10057 0.156508 -3.52789e-20)
(0.179809 0.172909 3.09478e-20)
(0.220746 0.201764 -2.486e-19)
(-0.00799479 0.0413799 7.34257e-19)
(-0.00868441 0.0171417 5.95412e-19)
(0.00528878 0.0849023 -1.95991e-19)
(0.00118469 0.0670202 -8.23241e-19)
(0.0317223 0.11306 5.65158e-19)
(0.020181 0.0977132 1.99666e-19)
(0.0778757 0.132252 4.35366e-19)
(0.0559103 0.114668 -1.98578e-20)
(0.146472 0.145063 5.2197e-19)
(0.114419 0.124208 2.94604e-19)
(0.192153 0.127585 2.14341e-19)
(0.231878 0.150859 4.20647e-19)
(0.000487001 0.0397134 -8.80241e-19)
(-0.000378125 0.0163359 -8.98593e-21)
(0.0151737 0.0785737 -4.71112e-19)
(0.00985869 0.0634602 -1.35453e-19)
(0.0433157 0.098703 -3.77941e-19)
(0.0306248 0.0879344 1.03958e-21)
(0.0904659 0.106451 -1.69323e-19)
(0.0675167 0.0950361 -1.81417e-19)
(0.15854 0.106558 -1.1101e-20)
(0.126109 0.0919268 -1.6384e-20)
(0.202588 0.0831061 -2.84339e-20)
(0.241832 0.101226 -3.22096e-19)
(0.0085556 0.0372814 7.43184e-19)
(0.00729967 0.0146228 5.81139e-19)
(0.0244742 0.0717806 3.30871e-19)
(0.0180523 0.059504 4.08681e-19)
(0.0536691 0.0840069 2.03724e-19)
(0.0401775 0.077903 1.97067e-19)
(0.101155 0.0806795 -3.29844e-20)
(0.0774464 0.0754698 0)
(0.168673 0.0686189 -3.36559e-20)
(0.135758 0.0601151 3.56461e-20)
(0.2112 0.0395439 1.3539e-21)
(0.250657 0.0526718 1.56994e-19)
(0.0159646 0.0342217 2.56582e-19)
(0.0141287 0.0120685 2.3033e-21)
(0.0330113 0.0648172 2.83878e-19)
(0.025554 0.0552987 1.34544e-19)
(0.0627532 0.0694392 0)
(0.0487893 0.0679841 -6.24806e-21)
(0.110008 0.0554039 6.76311e-20)
(0.0857593 0.0564764 -1.54891e-20)
(0.176946 0.031482 7.12501e-20)
(0.143474 0.0291762 2.52061e-20)
(0.217957 -0.0030383 -1.55012e-20)
(0.258328 0.00497112 1.66923e-20)
(0.0225529 0.0306205 -1.27366e-19)
(0.0199506 0.00872679 1.15417e-21)
(0.0406851 0.0578917 -1.49593e-19)
(0.0322193 0.0509086 -6.71828e-20)
(0.0706091 0.0554033 -2.14327e-20)
(0.0564937 0.0584712 -7.04962e-21)
(0.117118 0.0310627 -5.90505e-20)
(0.0925576 0.0385277 4.76487e-20)
(0.183393 -0.0046053 -6.04435e-20)
(0.149376 -0.000471514 -6.23056e-20)
(0.222709 -0.0445258 -1.44962e-20)
(0.264727 -0.0421161 -4.96456e-21)
(0.0281948 0.0265242 6.52885e-20)
(0.0245868 0.00464554 -1.03692e-20)
(0.0474659 0.0511424 7.2802e-20)
(0.0379646 0.0463201 3.06466e-21)
(0.0773416 0.0422648 6.0173e-20)
(0.0634087 0.0496 -7.44402e-21)
(0.122597 0.00810855 4.74915e-20)
(0.0979907 0.0220894 2.47764e-20)
(0.188025 -0.0393194 -1.74064e-20)
(0.153629 -0.0283411 6.46489e-20)
(0.22516 -0.0846881 -2.26428e-20)
(0.269658 -0.088823 1.17191e-21)
(0.0327567 0.0219381 -7.32936e-20)
(0.0277731 -0.000147355 6.03984e-19)
(0.0533968 0.0446385 -7.6742e-20)
(0.0427648 0.0414345 -7.68829e-20)
(0.0831368 0.0303637 -4.39611e-20)
(0.0697416 0.0415543 -6.64246e-21)
(0.126609 -0.01297 4.0835e-20)
(0.102273 0.00764148 -2.44148e-19)
(0.190843 -0.0722119 6.18062e-20)
(0.156508 -0.0538098 1.77964e-19)
(0.2248 -0.123079 -2.36478e-20)
(0.27278 -0.135392 -1.72298e-20)
(0.0360655 0.0168054 6.39604e-19)
(0.0291282 -0.00566975 -5.84645e-19)
(0.0585925 0.038373 -9.77234e-21)
(0.0466456 0.0360538 3.04301e-19)
(0.0882734 0.0200277 -1.9884e-19)
(0.0757846 0.0344609 2.94452e-20)
(0.129407 -0.031595 -1.18331e-19)
(0.10571 -0.00431424 -1.37259e-20)
(0.191859 -0.102556 9.7686e-20)
(0.158503 -0.0760339 7.5119e-20)
(0.220777 -0.158889 -1.046e-19)
(0.27354 -0.182036 6.64519e-20)
(0.0378945 0.0109711 -9.71407e-19)
(0.0281882 -0.0120024 -6.02836e-19)
(0.0632327 0.0322414 3.55214e-19)
(0.049666 0.0298582 6.8698e-22)
(0.0931401 0.011565 2.16529e-19)
(0.0819034 0.0283676 4.50455e-20)
(0.131404 -0.0470753 1.77003e-19)
(0.108729 -0.0132705 1.66125e-19)
(0.191143 -0.129141 -1.22801e-19)
(0.160562 -0.0938182 -1.8786e-19)
(0.211673 -0.190719 1.5137e-19)
(0.271025 -0.22888 -8.42654e-20)
(0.0379829 0.00415859 3.34298e-19)
(0.0245807 -0.0192488 6.14209e-19)
(0.067549 0.0260222 -3.11469e-19)
(0.0518905 0.0223795 -3.58175e-19)
(0.0982459 0.0052429 -8.08536e-21)
(0.0885213 0.0231987 5.03129e-20)
(0.133285 -0.0585899 -1.89587e-19)
(0.111906 -0.0187831 -8.04232e-20)
(0.189048 -0.150042 7.67996e-20)
(0.164552 -0.105453 -1.21655e-19)
(0.194608 -0.216277 9.84228e-20)
(0.263692 -0.276017 1.92981e-19)
(0.0361241 -0.00397324 -2.2165e-20)
(0.0184728 -0.0273311 7.74297e-20)
(0.0717967 0.0194105 -1.38323e-20)
(0.0532928 0.0129597 -6.98722e-20)
(0.104202 0.00133046 -1.67386e-20)
(0.0961442 0.0187057 1.10513e-19)
(0.136054 -0.065088 -6.09193e-21)
(0.115988 -0.0205874 3.74223e-19)
(0.18607 -0.162382 -1.02898e-19)
(0.173716 -0.108369 -3.45463e-19)
(0.162916 -0.232839 -1.53625e-19)
(0.249367 -0.323854 -1.79155e-19)
(0.0323193 -0.0134526 3.75694e-20)
(0.0108327 -0.0357211 -1.23906e-18)
(0.0761265 0.0121555 4.66118e-20)
(0.0532379 0.000546936 -2.4903e-20)
(0.111769 0.000266985 4.97671e-19)
(0.105519 0.0144158 -5.97382e-19)
(0.140926 -0.0650596 6.02743e-20)
(0.121944 -0.0186862 4.28295e-19)
(0.180871 -0.163624 -4.00789e-19)
(0.192297 -0.097885 1.53621e-19)
(0.100549 -0.242775 -5.21316e-19)
(0.228362 -0.373535 -2.49794e-19)
(0.0267159 -0.0242117 -1.37224e-18)
(0.00440071 -0.0426097 5.06097e-21)
(0.080171 0.00356906 -6.44536e-19)
(0.0481449 -0.0176058 2.99503e-20)
(0.122539 0.0018286 -6.92193e-19)
(0.115835 0.00829366 6.02131e-20)
(0.150553 -0.0566757 5.28501e-19)
(0.129849 -0.0144942 -5.69264e-19)
(0.161574 -0.156727 1.11603e-19)
(0.224567 -0.060469 4.11606e-19)
(-0.045914 -0.277041 -4.83974e-19)
(0.19948 -0.427977 -3.76002e-19)
(0.0205641 -0.0372115 1.40456e-18)
(0.0799657 -0.0136819 7.3525e-19)
(0.1396 -0.00426216 1.84486e-19)
(0.174998 -0.0457964 -7.36968e-19)
(0.0788296 -0.170572 -8.2986e-20)
(0.0740958 -0.546425 1.75946e-19)
(0.530928 0.860304 2.14912e-19)
(0.306282 0.914699 3.45728e-19)
(0.467308 0.998785 4.56445e-19)
(0.754839 0.744724 -1.32208e-19)
(0.641051 0.761733 -4.23992e-20)
(0.748271 0.791772 5.20766e-20)
(0.875811 0.647695 -1.29351e-19)
(0.796056 0.675227 -2.86299e-19)
(0.877049 0.700763 -1.5198e-20)
(0.945093 0.561855 1.47319e-19)
(0.887911 0.587477 0)
(0.954526 0.609876 7.4705e-20)
(0.987479 0.486763 -1.88998e-21)
(0.944058 0.508294 2.10654e-19)
(1.00085 0.528893 1.28575e-19)
(1.01515 0.422829 -2.54803e-19)
(0.980574 0.440405 -1.07957e-19)
(1.02962 0.459185 -1.55865e-19)
(1.03443 0.369433 -1.94663e-20)
(1.0059 0.383564 -1.59592e-21)
(1.04858 0.400276 -9.81345e-20)
(1.04872 0.325212 8.19346e-20)
(1.02456 0.336578 -1.65501e-20)
(1.06199 0.351192 -7.84112e-20)
(1.05972 0.288466 6.80158e-20)
(1.03897 0.297751 0)
(1.07208 0.310449 7.14555e-20)
(1.06817 0.257497 6.66149e-20)
(1.05025 0.265312 -1.12816e-20)
(1.07979 0.276379 -9.40192e-22)
(1.07438 0.230839 -1.87256e-19)
(1.05893 0.237635 -5.1651e-21)
(1.0855 0.247377 -2.91399e-21)
(1.07847 0.207374 -1.30948e-19)
(1.06525 0.213433 -1.89609e-19)
(1.08929 0.222121 -1.29208e-19)
(1.08059 0.186299 1.09056e-19)
(1.06939 0.19183 -6.47782e-20)
(1.09122 0.199676 3.91726e-21)
(1.08084 0.167038 1.0022e-19)
(1.07152 0.172195 2.20494e-19)
(1.09135 0.179362 -3.76068e-22)
(1.07929 0.149155 -1.40942e-19)
(1.07174 0.154056 -7.18627e-21)
(1.08974 0.160674 -4.5773e-20)
(1.07601 0.132314 -1.48684e-19)
(1.07016 0.137052 -1.39249e-19)
(1.08644 0.143223 -1.0152e-19)
(1.07102 0.116251 4.48244e-20)
(1.06683 0.120898 9.14678e-20)
(1.08146 0.126707 1.30099e-19)
(1.06433 0.100758 -4.32374e-20)
(1.06177 0.105386 0)
(1.07479 0.110897 -8.23637e-20)
(1.05596 0.0856888 -8.56771e-20)
(1.05503 0.0903395 -8.95899e-20)
(1.06643 0.095601 -1.22853e-19)
(1.04592 0.0709474 -8.30133e-20)
(1.04674 0.075501 8.72362e-20)
(1.05645 0.0805253 3.4875e-20)
(1.03421 0.0564845 -4.113e-20)
(1.03712 0.0605724 7.80755e-23)
(1.04503 0.0653161 -4.08775e-20)
(1.02088 0.0423265 0)
(1.02546 0.0465196 0)
(1.03148 0.0509706 0)
(1.00754 0.0296237 7.7042e-20)
(1.00861 0.037953 0)
(1.01265 0.0425761 0)
(0.99055 0.0358904 1.55139e-19)
(0.992189 0.0414621 7.74875e-20)
(0.46059 0.763128 3.63298e-19)
(0.283127 0.769294 3.5868e-19)
(0.677855 0.697082 -2.02207e-19)
(0.57093 0.705361 -9.4048e-20)
(0.80676 0.615007 -1.62272e-19)
(0.728526 0.632908 2.21298e-19)
(0.885571 0.534373 5.98128e-20)
(0.827652 0.552531 -1.60589e-19)
(0.936096 0.462756 1.10201e-19)
(0.891488 0.478703 -6.84917e-21)
(0.970533 0.40192 1.46057e-19)
(0.934825 0.415077 -1.75332e-20)
(0.995434 0.351361 2.46374e-21)
(0.965932 0.361893 1.03518e-19)
(1.01436 0.309635 -9.8682e-20)
(0.989411 0.318036 1.01108e-19)
(1.02918 0.274987 -7.91718e-20)
(1.00779 0.281807 -9.38799e-20)
(1.0408 0.245724 -8.2851e-20)
(1.02235 0.25147 -8.49945e-22)
(1.04967 0.22043 -5.25832e-21)
(1.03378 0.225465 7.53186e-20)
(1.05608 0.198057 -1.24337e-19)
(1.04247 0.202603 6.35567e-20)
(1.06025 0.177869 4.4157e-20)
(1.04871 0.182095 -5.99921e-20)
(1.06238 0.159338 1.15135e-19)
(1.05273 0.16337 1.69249e-19)
(1.06259 0.142062 -4.30706e-21)
(1.05472 0.145999 1.1586e-19)
(1.06098 0.125732 9.9258e-20)
(1.05481 0.129649 7.9836e-23)
(1.05761 0.110101 4.74242e-20)
(1.05309 0.114061 4.70828e-20)
(1.05254 0.094985 -4.56236e-20)
(1.04963 0.0990416 9.81134e-20)
(1.04582 0.0802585 8.2497e-20)
(1.04449 0.0844406 -2.35818e-19)
(1.0375 0.0658528 1.71099e-19)
(1.03788 0.0700391 1.74588e-19)
(1.02763 0.0517438 4.13168e-20)
(1.03002 0.0556 4.10632e-20)
(1.01632 0.0379911 0)
(1.02022 0.0420415 0)
(1.00512 0.0258446 7.70363e-20)
(1.00536 0.0334504 -4.42248e-20)
(0.989621 0.030644 -3.28431e-21)
(0.414932 0.688035 4.23513e-20)
(0.270554 0.669476 -9.37437e-20)
(0.618422 0.641505 3.22884e-19)
(0.519584 0.638679 1.27333e-19)
(0.748236 0.570399 2.31916e-19)
(0.673158 0.579476 2.95489e-19)
(0.832515 0.497506 -2.29822e-19)
(0.775555 0.508657 -8.78038e-20)
(0.889328 0.431771 -1.34622e-19)
(0.844733 0.442175 -2.23883e-19)
(0.929514 0.375736 -6.17576e-20)
(0.893508 0.384445 6.1597e-20)
(0.959347 0.329151 2.03279e-19)
(0.929492 0.336059 -1.09234e-19)
(0.982404 0.290673 1.08754e-19)
(0.957126 0.29609 8.85125e-20)
(1.00065 0.258635 -1.63015e-20)
(0.978978 0.262973 9.79834e-20)
(1.01514 0.231451 1.56823e-19)
(0.996456 0.235107 7.95078e-20)
(1.02645 0.207817 1.44452e-19)
(1.01036 0.211065 -8.04213e-20)
(1.03501 0.186793 1.29405e-19)
(1.02121 0.189797 6.70593e-20)
(1.04112 0.167728 6.33915e-20)
(1.02938 0.170616 -6.61467e-21)
(1.04502 0.150146 1.70538e-19)
(1.03517 0.153017 2.02749e-23)
(1.04691 0.133687 1.21054e-19)
(1.03883 0.13662 1.12359e-19)
(1.04691 0.118068 -5.25661e-20)
(1.04051 0.121123 -3.34844e-19)
(1.04513 0.103065 9.7402e-20)
(1.04035 0.10629 1.0797e-19)
(1.04164 0.088517 -8.94429e-20)
(1.03843 0.0919508 4.53175e-20)
(1.03655 0.074327 -1.46164e-19)
(1.03486 0.0779827 -2.40867e-19)
(1.02992 0.0604552 4.54086e-20)
(1.02986 0.0642127 9.23197e-20)
(1.02184 0.046904 0)
(1.0237 0.0504668 0)
(1.01246 0.0337599 -4.39614e-20)
(1.01569 0.0375962 0)
(1.00324 0.0223269 -1.24598e-19)
(1.00282 0.0291288 1.80262e-19)
(0.989314 0.0257773 -2.06899e-19)
(0.385065 0.610383 3.28065e-20)
(0.265528 0.583946 -4.62255e-19)
(0.572141 0.57789 9.52383e-20)
(0.483042 0.567925 -5.87496e-20)
(0.699657 0.517989 -1.27585e-20)
(0.6292 0.519829 -3.60059e-20)
(0.786837 0.454048 -7.93764e-20)
(0.731985 0.458991 -6.27315e-20)
(0.848113 0.395561 -3.16426e-20)
(0.804443 0.400809 8.17292e-20)
(0.892823 0.345392 1.65765e-20)
(0.85722 0.349855 2.76395e-19)
(0.926727 0.303525 -2.26415e-19)
(0.897057 0.306934 -1.15722e-19)
(0.953278 0.268807 7.79135e-20)
(0.928098 0.271324 -1.1692e-19)
(0.974481 0.23975 1.9429e-19)
(0.952864 0.241659 -5.23678e-21)
(0.991479 0.214932 -1.56257e-19)
(0.972834 0.216528 9.24059e-20)
(1.00498 0.193205 -1.59454e-19)
(0.988896 0.194678 -7.74172e-20)
(1.01548 0.173757 -6.82771e-20)
(1.00167 0.175219 1.52562e-19)
(1.02336 0.156026 -7.01654e-20)
(1.01158 0.157567 -7.13151e-20)
(1.02893 0.139596 -5.9308e-20)
(1.01901 0.14129 6.35402e-20)
(1.0324 0.124148 -3.40041e-19)
(1.02421 0.126053 6.39977e-20)
(1.03393 0.109426 -1.7773e-19)
(1.02738 0.111589 -2.83509e-19)
(1.03366 0.0952344 5.63402e-20)
(1.02868 0.097688 1.0797e-19)
(1.03169 0.0814379 -1.038e-19)
(1.02822 0.0842054 1.08171e-19)
(1.02815 0.0679713 -4.35431e-21)
(1.02615 0.07105 -5.14482e-20)
(1.02316 0.0548266 4.75958e-20)
(1.0227 0.0580998 -4.29249e-21)
(1.0168 0.0420292 0)
(1.01815 0.0452412 -1.46784e-19)
(1.00925 0.0296815 2.23251e-19)
(1.01183 0.0332367 3.85848e-19)
(1.00182 0.0190916 2.17768e-19)
(1.00091 0.0250375 3.91943e-20)
(0.989527 0.021331 -1.2651e-19)
(0.366963 0.535615 -5.37787e-19)
(0.265205 0.505896 -3.64461e-21)
(0.537487 0.511245 -1.8773e-19)
(0.457284 0.496735 -2.32161e-19)
(0.660581 0.461324 -8.06193e-20)
(0.595133 0.457462 5.03475e-20)
(0.748639 0.406497 9.53823e-20)
(0.696537 0.406088 -1.35726e-19)
(0.812772 0.355774 3.86944e-19)
(0.77065 0.356383 2.38066e-19)
(0.860807 0.311971 1.49555e-19)
(0.826147 0.312516 1.55181e-19)
(0.897889 0.275213 -5.97877e-21)
(0.868848 0.275346 -1.30454e-19)
(0.927265 0.244549 -2.01362e-19)
(0.902547 0.244318 1.13987e-19)
(0.950921 0.218705 -1.08292e-19)
(0.92966 0.218291 -1.93595e-19)
(0.970056 0.196459 1.73163e-19)
(0.95169 0.196064 2.81526e-19)
(0.985448 0.176834 2.32491e-19)
(0.969587 0.176576 -6.47388e-21)
(0.997668 0.159153 1.51762e-19)
(0.984021 0.159097 7.54764e-20)
(1.00715 0.14294 6.1425e-20)
(0.995485 0.143145 -1.46995e-19)
(1.01423 0.127842 1.87e-19)
(1.00437 0.128358 2.02007e-19)
(1.01916 0.113578 1.23511e-19)
(1.01097 0.114447 1.23197e-19)
(1.02211 0.0999245 -7.52261e-22)
(1.01551 0.101178 -1.22938e-19)
(1.02326 0.0867129 1.59885e-19)
(1.01816 0.0883699 0)
(1.02273 0.0738405 1.62081e-19)
(1.01907 0.0759074 2.73601e-19)
(1.02066 0.0612766 -5.16143e-20)
(1.01839 0.0637355 -1.07876e-19)
(1.0172 0.0490431 -1.97759e-19)
(1.01639 0.0517838 2.64582e-19)
(1.01246 0.0371809 2.42594e-19)
(1.01333 0.0399898 -3.50067e-19)
(1.0066 0.0257929 2.31223e-19)
(1.00858 0.0290054 5.87275e-19)
(1.00078 0.0161456 -1.8646e-19)
(0.999555 0.0212125 -3.77235e-19)
(0.990156 0.0173318 4.49351e-20)
(0.35561 0.464204 3.0435e-19)
(0.268196 0.433546 2.97224e-19)
(0.511996 0.444201 0)
(0.43945 0.42656 0)
(0.629968 0.402806 0)
(0.569448 0.394421 -1.79042e-19)
(0.717539 0.356708 0)
(0.668495 0.351759 -5.2212e-20)
(0.783237 0.313748 7.49417e-21)
(0.743061 0.310271 -9.46667e-20)
(0.833536 0.276416 -1.20923e-19)
(0.80021 0.273426 -2.26577e-19)
(0.872963 0.244885 -1.30974e-20)
(0.844899 0.242015 -1.30454e-19)
(0.904522 0.218393 1.25848e-19)
(0.880564 0.215611 1.20181e-19)
(0.930137 0.195884 1.91117e-19)
(0.909486 0.193286 3.99413e-21)
(0.951029 0.176342 1.0498e-19)
(0.933159 0.174055 9.02131e-20)
(0.968022 0.158965 -1.64393e-19)
(0.952566 0.157043 2.72157e-21)
(0.981727 0.143201 -2.21273e-19)
(0.968403 0.141675 -7.71873e-20)
(0.992616 0.128662 -9.56163e-21)
(0.981194 0.127562 -2.21144e-19)
(1.00104 0.115048 1.38862e-19)
(0.991352 0.114404 1.37714e-19)
(1.00728 0.102121 -1.21297e-19)
(0.999191 0.10196 -6.74987e-20)
(1.01153 0.0896887 -1.23196e-19)
(1.00495 0.090028 -1.24208e-19)
(1.01398 0.077613 1.11732e-19)
(1.00883 0.0784577 0)
(1.01477 0.0658266 6.74132e-21)
(1.01099 0.0671667 1.12548e-19)
(1.01407 0.0543339 2.05836e-19)
(1.01159 0.0561379 -5.03473e-20)
(1.01203 0.0431807 1.11741e-19)
(1.01091 0.0453479 1.52589e-19)
(1.00877 0.0324113 -4.44882e-21)
(1.0092 0.0347706 -2.55479e-19)
(1.00444 0.0221156 3.59591e-20)
(1.00586 0.0249309 2.01427e-19)
(1.00005 0.0134827 -1.48266e-19)
(0.998655 0.0176762 -1.9184e-19)
(0.991093 0.0137921 -2.86737e-23)
(0.350871 0.394592 0)
(0.27297 0.36527 0)
(0.494088 0.378061 -1.75292e-19)
(0.428148 0.358788 -2.76982e-19)
(0.60671 0.344007 -2.33031e-19)
(0.550849 0.332057 -1.86002e-19)
(0.692941 0.306013 -1.46169e-19)
(0.64704 0.29724 1.6021e-19)
(0.759223 0.270513 -3.26627e-19)
(0.721222 0.263479 8.6375e-20)
(0.810902 0.239499 -2.37405e-19)
(0.779182 0.233366 -3.98213e-19)
(0.851946 0.213129 0)
(0.825119 0.207545 6.94546e-20)
(0.885106 0.190797 0)
(0.862145 0.185679 -1.86895e-19)
(0.91222 0.171659 -9.78061e-20)
(0.89239 0.167036 1.13764e-19)
(0.934506 0.154894 -1.10453e-20)
(0.917317 0.15083 -1.01646e-19)
(0.952806 0.139865 9.07117e-20)
(0.937919 0.136365 3.72398e-22)
(0.967755 0.126135 -7.57244e-20)
(0.954898 0.123201 -8.44131e-20)
(0.979842 0.113392 -7.7104e-20)
(0.968794 0.111032 -1.4451e-22)
(0.989438 0.101391 -6.69358e-20)
(0.980031 0.0996178 0)
(0.996826 0.0899312 -6.98926e-20)
(0.988938 0.088757 -6.92616e-20)
(1.00223 0.0788535 -1.88686e-21)
(0.99577 0.0782838 1.2649e-19)
(1.00584 0.0680546 0)
(1.00073 0.0680797 -6.25606e-20)
(1.00784 0.057503 5.67673e-20)
(1.00399 0.0580974 0)
(1.00838 0.0472342 -1.05297e-19)
(1.00574 0.0483557 5.71645e-20)
(1.00761 0.0373082 -2.16638e-19)
(1.00624 0.0388681 -5.09827e-20)
(1.00568 0.02776 -5.25108e-20)
(1.00571 0.0296283 -1.61716e-19)
(1.00272 0.0186578 0)
(1.00364 0.021029 0)
(0.999559 0.0110874 -4.45042e-20)
(0.998119 0.0144399 -2.03497e-19)
(0.992234 0.010709 1.40629e-19)
(0.34909 0.328481 -2.70342e-19)
(0.279088 0.300717 0)
(0.482165 0.313755 -2.90281e-19)
(0.421762 0.29339 2.13993e-19)
(0.589772 0.285911 2.00671e-19)
(0.538127 0.271097 5.44673e-19)
(0.674184 0.255329 3.93759e-19)
(0.631366 0.24333 2.69406e-19)
(0.740342 0.226826 2.19818e-20)
(0.704627 0.216709 1.32237e-19)
(0.792702 0.201829 -9.78633e-20)
(0.762761 0.19292 1.66613e-19)
(0.83475 0.180434 -1.14356e-19)
(0.809351 0.17242 6.94546e-20)
(0.869003 0.162171 -7.6478e-20)
(0.847223 0.154933 -1.86895e-19)
(0.897202 0.146378 1.12368e-19)
(0.878364 0.139897 1.13764e-19)
(0.920541 0.132418 -9.12967e-20)
(0.904191 0.126703 9.80046e-20)
(0.939866 0.119799 -1.73973e-19)
(0.925691 0.114819 -8.95102e-20)
(0.955818 0.108185 -9.561e-21)
(0.943556 0.10392 8.57746e-20)
(0.968892 0.097334 7.70124e-20)
(0.958332 0.0937725 7.63421e-20)
(0.979468 0.0870482 -1.69485e-21)
(0.97045 0.0841879 -7.36542e-20)
(0.987841 0.0771643 1.25676e-19)
(0.980243 0.0750052 1.38463e-19)
(0.994244 0.0675576 6.74327e-20)
(0.987976 0.0660927 2.62275e-19)
(0.998876 0.0581603 -6.30142e-20)
(0.993863 0.0573661 -1.26169e-19)
(1.00192 0.0489753 0)
(0.998085 0.0488125 0)
(1.00355 0.0400617 1.12e-19)
(1.00083 0.0404804 0)
(1.00391 0.0314815 2.98845e-21)
(1.00234 0.0324073 1.12752e-19)
(1.00314 0.0232526 -1.10204e-19)
(1.00283 0.0245936 -1.09528e-19)
(1.00136 0.0154173 -2.02285e-19)
(1.00184 0.0173101 0)
(0.999244 0.00893845 -7.93676e-20)
(0.997863 0.0115171 -2.03497e-19)
(0.993465 0.0080566 1.85391e-19)
(0.350107 0.265139 4.78543e-19)
(0.286015 0.239191 0)
(0.475072 0.251534 1.0413e-18)
(0.419271 0.230414 6.56858e-20)
(0.578225 0.229076 6.18327e-19)
(0.53033 0.211884 4.2985e-19)
(0.660625 0.205243 1.05316e-20)
(0.62075 0.190492 -2.12617e-19)
(0.72618 0.18322 2.76222e-19)
(0.692785 0.170421 8.34898e-22)
(0.778686 0.163868 3.35156e-19)
(0.750633 0.152515 1.63875e-19)
(0.821242 0.147207 0)
(0.797405 0.137027 0)
(0.856156 0.132871 0)
(0.835699 0.123723 -6.34148e-20)
(0.885072 0.120361 9.95989e-20)
(0.867367 0.112187 2.39886e-21)
(0.909152 0.1092 1.0177e-19)
(0.893773 0.101965 2.05511e-19)
(0.929231 0.0990223 1.68552e-19)
(0.915893 0.0926673 4.73705e-20)
(0.945948 0.0895806 1.71801e-19)
(0.934396 0.0840674 1.28001e-19)
(0.959797 0.0806901 -7.30075e-20)
(0.949831 0.075993 7.97646e-20)
(0.97116 0.0721982 6.47098e-20)
(0.962625 0.0683014 -1.49968e-19)
(0.980338 0.063978 2.74168e-19)
(0.973118 0.0608698 1.40214e-19)
(0.98757 0.0559399 7.17408e-20)
(0.981576 0.053601 6.61009e-20)
(0.993062 0.0480504 -6.41215e-20)
(0.98822 0.046445 6.74503e-20)
(0.997 0.0403417 0)
(0.993236 0.0394191 -9.54728e-20)
(0.999557 0.0328864 0)
(0.996809 0.0325921 0)
(1.00088 0.0257394 0)
(0.999168 0.0260128 -1.47994e-19)
(1.00109 0.0189001 0)
(1.00049 0.0196841 2.23656e-22)
(1.00031 0.0123895 0)
(1.00043 0.0137828 1.10839e-19)
(0.999037 0.00701023 0)
(0.997825 0.00893699 0)
(0.994664 0.00577154 -9.26136e-20)
(0.35327 0.204302 -4.1391e-19)
(0.293458 0.180227 1.63043e-19)
(0.471948 0.191436 -5.51875e-19)
(0.419929 0.169722 -1.37567e-19)
(0.57131 0.173771 -3.88367e-19)
(0.526716 0.154514 -1.81754e-19)
(0.651698 0.156101 -2.25515e-19)
(0.614588 0.138952 -1.01704e-19)
(0.716349 0.140051 -1.13863e-19)
(0.685266 0.124896 1.46815e-19)
(0.768605 0.125965 -1.6887e-19)
(0.742504 0.112451 -2.49343e-19)
(0.811269 0.113777 -6.26002e-20)
(0.789095 0.101668 7.6391e-20)
(0.84648 0.103209 -6.17e-20)
(0.827458 0.0923462 -6.34148e-20)
(0.87579 0.0938987 1.06018e-19)
(0.859332 0.0841915 2.39886e-21)
(0.900325 0.0855068 1.52761e-19)
(0.886034 0.0768805 5.29106e-20)
(0.920904 0.0777786 6.00812e-21)
(0.90851 0.0701561 4.78759e-20)
(0.938154 0.0705394 3.63918e-20)
(0.927416 0.0638677 -8.57555e-20)
(0.952565 0.0636556 4.8812e-21)
(0.943289 0.0578955 2.01492e-19)
(0.964519 0.0570151 -7.69503e-20)
(0.956557 0.0521389 -1.92191e-19)
(0.974316 0.0505272 -6.7299e-20)
(0.967557 0.0465119 7.23206e-20)
(0.982201 0.0441364 6.17643e-20)
(0.976558 0.0409515 -1.03528e-19)
(0.988379 0.0378405 3.73955e-20)
(0.983782 0.0354393 9.74866e-20)
(0.993039 0.0316926 -9.61362e-20)
(0.989414 0.0300166 -2.56257e-19)
(0.996351 0.0257691 -1.47007e-19)
(0.993637 0.0247606 1.25036e-19)
(0.998465 0.0201151 -1.47636e-19)
(0.996663 0.0197206 -1.18133e-19)
(0.999499 0.0147205 1.114e-19)
(0.998653 0.0148971 -1.15885e-19)
(0.999572 0.00960319 1.11499e-19)
(0.999344 0.010398 2.23291e-19)
(0.998981 0.00527463 -9.20811e-20)
(0.997947 0.00662997 0)
(0.995844 0.00388697 -9.26136e-20)
(0.358104 0.145654 4.46406e-19)
(0.301203 0.123306 -1.82614e-19)
(0.47216 0.13335 2.3345e-19)
(0.423208 0.111048 3.5129e-20)
(0.568428 0.120061 1.03571e-19)
(0.526734 0.0989184 -2.17491e-19)
(0.646934 0.108072 2.66545e-19)
(0.612406 0.0887703 8.55876e-20)
(0.710512 0.0975504 1.73546e-20)
(0.681711 0.0802932 9.78026e-20)
(0.762229 0.08838 -8.32583e-21)
(0.73812 0.0729457 -8.27912e-20)
(0.804683 0.0804167 7.73723e-20)
(0.784247 0.0665898 7.6391e-20)
(0.839881 0.0734554 0)
(0.822383 0.0610572 6.42132e-20)
(0.869302 0.0672516 -5.12989e-20)
(0.854186 0.0561619 -5.96221e-20)
(0.89403 0.0615848 -5.19171e-20)
(0.880923 0.0516963 -1.0352e-19)
(0.914865 0.0562954 -4.2579e-20)
(0.903513 0.0475158 1.49666e-21)
(0.932424 0.0512691 7.66792e-20)
(0.922592 0.0435322 6.77438e-22)
(0.947187 0.0464175 8.0015e-21)
(0.938691 0.0396715 8.08045e-20)
(0.959533 0.0416667 -4.5126e-20)
(0.952231 0.0358724 -7.736e-20)
(0.969761 0.0369612 3.75802e-20)
(0.963546 0.0320845 1.82289e-19)
(0.978114 0.0322774 -6.92544e-20)
(0.972904 0.0282781 -7.14777e-20)
(0.984797 0.0276381 -1.93499e-19)
(0.980525 0.0244621 1.6924e-22)
(0.989996 0.0231076 -3.77941e-20)
(0.986591 0.0206918 -3.24312e-19)
(0.99388 0.0187561 1.55542e-19)
(0.991281 0.0170423 1.56673e-19)
(0.996598 0.0146153 -8.53008e-20)
(0.99479 0.0135553 6.03646e-20)
(0.998276 0.0106717 -4.44428e-21)
(0.997268 0.0102256 -2.33419e-19)
(0.999032 0.00695145 1.13122e-19)
(0.998553 0.00711141 2.26021e-19)
(0.999047 0.0037123 0)
(0.998164 0.00447144 1.10032e-19)
(0.997015 0.00240075 -9.8914e-20)
(0.364293 0.0888029 -5.99665e-19)
(0.30911 0.0679103 -1.60081e-19)
(0.475265 0.0770516 -4.1028e-19)
(0.428774 0.0540425 -7.11556e-20)
(0.569148 0.0678794 -2.40915e-19)
(0.530011 0.0449196 -2.53367e-19)
(0.645968 0.0612078 -8.31809e-20)
(0.613871 0.0399078 -1.37931e-19)
(0.708395 0.0558615 4.76964e-22)
(0.681845 0.036695 -9.72129e-20)
(0.759361 0.0513129 0)
(0.737274 0.0341563 0)
(0.801345 0.0473545 6.33884e-20)
(0.782713 0.0319949 0)
(0.836264 0.0438485 5.98589e-21)
(0.820369 0.0300812 9.69597e-20)
(0.86554 0.0406562 -1.11355e-19)
(0.851851 0.0283281 -5.96221e-20)
(0.890218 0.0376622 -5.12677e-20)
(0.878384 0.0266388 -2.54107e-20)
(0.911081 0.0347861 4.47672e-20)
(0.900855 0.0249614 9.97215e-22)
(0.928731 0.0319652 4.06084e-21)
(0.919889 0.0232593 -2.20495e-20)
(0.943642 0.0291521 -3.10124e-21)
(0.936006 0.0215008 -4.0922e-20)
(0.956184 0.0263102 1.47891e-19)
(0.94962 0.0196625 3.85183e-20)
(0.966653 0.0234176 7.54419e-20)
(0.96106 0.017729 7.30592e-20)
(0.975289 0.0204788 -2.52287e-21)
(0.970591 0.0157011 -3.57823e-20)
(0.982294 0.0175337 -1.28259e-19)
(0.978427 0.0136087 -1.71547e-20)
(0.98785 0.014647 -1.3324e-19)
(0.984747 0.0115117 -4.81367e-20)
(0.992124 0.0118762 6.21375e-20)
(0.989724 0.00947419 1.58435e-20)
(0.995266 0.00924003 -8.5869e-20)
(0.993539 0.00752717 7.66528e-20)
(0.997404 0.00672444 -4.796e-21)
(0.996337 0.00566077 -1.1731e-19)
(0.998657 0.00435828 2.23622e-19)
(0.99805 0.00390449 1.13569e-19)
(0.999163 0.0022861 2.07386e-20)
(0.998431 0.00241784 1.10032e-19)
(0.998087 0.00125858 -1.84792e-19)
(0.371657 0.0333076 3.6541e-19)
(0.317091 0.0134989 2.05451e-19)
(0.480993 0.0222349 8.91651e-20)
(0.436455 -0.00170027 1.78843e-19)
(0.573196 0.017081 -1.52532e-19)
(0.536337 -0.00772325 -4.89173e-20)
(0.648547 0.0155021 -1.5259e-19)
(0.618776 -0.00771621 2.71587e-20)
(0.709789 0.0150799 -9.91119e-20)
(0.685476 -0.00585682 -1.22685e-19)
(0.759842 0.014926 0)
(0.739812 -0.00379135 0)
(0.801137 0.0147903 3.23258e-20)
(0.784369 -0.0019389 0)
(0.83554 0.0146046 3.31369e-20)
(0.821322 -0.000376757 3.20092e-20)
(0.864434 0.0143325 2.59413e-20)
(0.852251 0.000906305 -7.49412e-22)
(0.888834 0.0139527 2.65068e-20)
(0.878351 0.00192165 -2.70712e-22)
(0.909505 0.0134507 -6.55852e-20)
(0.900482 0.00269477 -4.80943e-20)
(0.927037 0.0128105 -6.68493e-20)
(0.919259 0.00323555 -2.21407e-20)
(0.941894 0.0120241 0)
(0.935192 0.00355253 0)
(0.954439 0.0110905 -3.65995e-20)
(0.948686 0.00365935 0)
(0.964964 0.0100197 -3.72005e-20)
(0.960063 0.00357458 -1.84053e-20)
(0.973701 0.00883934 -5.05553e-20)
(0.969584 0.00332654 0)
(0.980849 0.00759787 6.32043e-20)
(0.977455 0.00295912 -6.80494e-20)
(0.986586 0.00635236 1.00498e-19)
(0.983853 0.00252812 9.88852e-20)
(0.991078 0.00514531 3.0013e-20)
(0.988944 0.00208272 -6.34352e-20)
(0.994471 0.0039871 4.64539e-20)