/*--------------------------------*- C++ -*----------------------------------*\
  =========                 |
  \\      /  F ield         | OpenFOAM: The Open Source CFD Toolbox
   \\    /   O peration     | Website:  https://openfoam.org
    \\  /    A nd           | Version:  11
     \\/     M anipulation  |
\*---------------------------------------------------------------------------*/
FoamFile
{
    format      ascii;
    class       volScalarField;
    location    "0.98";
    object      epsilon;
}
// * * * * * * * * * * * * * * * * * * * * * * * * * * * * * * * * * * * * * //

dimensions      [0 2 -3 0 0 0 0];

internalField   nonuniform List<scalar> 
2880
(
2.37108
5.42775
7.92717
7.93869
6.78312
5.46452
0.884875
3.7316
4.63363
4.35499
3.44627
2.24707
1.22255
3.12914
3.46131
3.04765
2.32706
1.54971
1.71365
2.83017
2.91739
2.45981
1.8625
1.29558
2.17761
2.64325
2.59871
2.15008
1.64164
1.18581
2.60131
2.51193
2.39234
1.97786
1.53624
1.14317
2.96615
2.41635
2.25585
1.88481
1.49563
1.1402
3.26589
2.35045
2.16758
1.84273
1.49686
1.16474
3.50035
2.30682
2.11502
1.83672
1.52747
1.21521
3.67194
2.28071
2.09025
1.85451
1.58547
1.28968
3.78341
2.26904
2.08861
1.8977
1.66719
1.38902
3.8373
2.27001
2.10308
1.96017
1.77182
1.51534
3.84306
2.28609
2.136
2.03986
1.89924
1.67164
3.8238
2.32028
2.18269
2.13451
2.04934
1.86144
3.77022
2.36576
2.24009
2.24092
2.22113
2.08837
3.67372
2.41373
2.30438
2.35465
2.4129
2.35363
3.52553
2.45272
2.36932
2.46974
2.6218
2.65926
3.31601
2.46813
2.42664
2.58009
2.84035
3.01406
3.03362
2.45116
2.46638
2.68278
3.06097
3.42604
2.66632
2.39183
2.48544
2.78186
3.27798
3.9179
2.2064
2.27054
2.51089
2.89881
3.50167
4.58126
1.65925
2.14256
2.61908
3.11319
3.82323
5.7908
1.17157
2.26138
3.1129
3.7388
4.5414
9.15335
3.26139
4.3477
6.06212
6.75904
7.26942
30.8726
0.943732
0.336434
0.13986
0.0644562
0.0325489
0.0177356
0.010292
0.00624319
0.00390923
0.00252455
0.00168919
0.00117908
0.000865057
0.000670851
0.000551162
0.00047836
0.00043483
0.000409095
0.000393968
0.000385112
0.00037999
0.000377155
0.000375757
0.000375136
0.842655
0.345993
0.148626
0.0691476
0.0349006
0.0189387
0.0109262
0.00658693
0.00409758
0.00262807
0.00174546
0.00120866
0.000879469
0.000677037
0.000553182
0.000478308
0.000433721
0.000407608
0.000392478
0.00038381
0.000378976
0.000376532
0.000375432
0.000375042
0.773629
0.348938
0.1561
0.0738632
0.037472
0.0203236
0.0116896
0.00701505
0.0043409
0.00276769
0.00182603
0.00125528
0.000906332
0.00069224
0.000561392
0.000482367
0.000435473
0.000408141
0.000392439
0.000383551
0.000378715
0.00037634
0.000375326
0.000375014
0.738799
0.351932
0.16352
0.0788673
0.0403437
0.0219269
0.0126022
0.0075401
0.00464735
0.0029489
0.00193445
0.0013208
0.000946182
0.000716475
0.000575981
0.000490971
0.000440411
0.000410894
0.000393932
0.000384338
0.000379106
0.000376523
0.000375409
0.000375044
0.726395
0.358972
0.172053
0.084544
0.0436528
0.0238085
0.0136945
0.00817992
0.00502811
0.00317898
0.00207549
0.00140843
0.00100126
0.000751336
0.000598057
0.00050486
0.000449061
0.000416246
0.00039725
0.000386405
0.000380336
0.00037721
0.000375768
0.000375184
0.730507
0.37226
0.18287
0.0913374
0.0475803
0.0260522
0.0150082
0.00895864
0.00549806
0.00346747
0.00225545
0.00152244
0.00107449
0.00079888
0.00062909
0.000525099
0.000462203
0.000424758
0.000402776
0.000389997
0.000382622
0.000378517
0.000376489
0.000375565
0.749941
0.393677
0.197051
0.0997404
0.0523487
0.0287698
0.0165991
0.00990797
0.00607653
0.00382673
0.0024825
0.00166832
0.00116968
0.000861798
0.000671025
0.000553127
0.00048091
0.000437226
0.000411098
0.000395545
0.000386244
0.000380738
0.000377773
0.000376296
0.785526
0.424324
0.215686
0.110329
0.0582391
0.0321048
0.0185403
0.0110692
0.00678847
0.00427259
0.00276706
0.00185317
0.00129175
0.000943573
0.000726389
0.000590817
0.000506592
0.000454713
0.000423011
0.000403646
0.000391657
0.000384207
0.000379866
0.000377523
0.838833
0.465956
0.240142
0.123837
0.0656212
0.0362343
0.020927
0.0124957
0.00766593
0.00482532
0.00312248
0.00208605
0.00144701
0.0010487
0.000798452
0.000640604
0.0005411
0.000478642
0.000439609
0.000415137
0.000399485
0.000389316
0.000382981
0.000379371
0.91215
0.520941
0.272366
0.141247
0.0749845
0.0413989
0.0238854
0.0142576
0.0087503
0.00551084
0.00356579
0.00237854
0.00164357
0.001183
0.000891492
0.000705706
0.000586906
0.000510936
0.000462381
0.000431134
0.000410504
0.000396559
0.000387475
0.000382064
1.00872
0.592658
0.314837
0.163895
0.0869968
0.0479278
0.0275845
0.0164471
0.0100953
0.00636248
0.00411874
0.00274547
0.00189188
0.00135403
0.00101111
0.000790372
0.000647297
0.000554162
0.000493309
0.000453118
0.00042578
0.000406712
0.000393939
0.000385958
1.13293
0.685743
0.370753
0.193624
0.102588
0.0562783
0.0322547
0.0191871
0.0117714
0.00742325
0.0048092
0.00320578
0.00220531
0.00157153
0.00116457
0.00090012
0.000726541
0.000611658
0.000535011
0.000483119
0.000446854
0.000420887
0.000403072
0.000391407
1.29037
0.806167
0.444484
0.233078
0.123076
0.0670948
0.0382147
0.0226441
0.0138716
0.0087491
0.00567294
0.00378358
0.00260083
0.00184786
0.00136111
0.00104202
0.000830124
0.000687738
0.000590901
0.000523827
0.000475778
0.000440534
0.000415768
0.000398819
1.488
0.961562
0.541965
0.285955
0.150337
0.0812981
0.0459112
0.0270465
0.016521
0.0104134
0.00675604
0.0045096
0.00309997
0.00219868
0.00161248
0.00122507
0.000965072
0.000787968
0.000665427
0.000578779
0.000515281
0.000467598
0.000433237
0.000408725
1.73418
1.16153
0.671126
0.357306
0.187033
0.100208
0.0559783
0.0327119
0.0198891
0.0125133
0.00811834
0.00542308
0.0037299
0.00264368
0.00193345
0.00146065
0.00114034
0.000919492
0.00076434
0.00065259
0.000568966
0.000504706
0.000457141
0.000421828
2.03882
1.41781
0.842091
0.454023
0.236972
0.125696
0.0693248
0.0400887
0.0242096
0.0151796
0.00983836
0.00657451
0.00452509
0.00320761
0.00234252
0.00176306
0.00136723
0.00109141
0.000895023
0.000751238
0.000641563
0.000555368
0.000489746
0.000439069
2.41038
1.74455
1.0672
0.585079
0.305509
0.160455
0.0872655
0.0498167
0.029809
0.0185904
0.0120205
0.0080295
0.00552946
0.00392156
0.0028628
0.00215011
0.0016599
0.00131518
0.00106687
0.000882415
0.000739236
0.000624238
0.000534113
0.00046171
2.85164
2.15898
1.36048
0.761583
0.39982
0.208274
0.111704
0.0628141
0.0371488
0.0229923
0.014806
0.00987459
0.00679972
0.00482498
0.00352317
0.00264393
0.0020359
0.00160512
0.00129173
0.00105594
0.000869971
0.000717446
0.00059434
0.000491415
3.37139
2.6761
1.73596
0.99606
0.528991
0.274418
0.145288
0.0803954
0.0468872
0.0287309
0.0183882
0.0122258
0.00841014
0.00596843
0.00436006
0.00327209
0.00251698
0.00197895
0.00158436
0.00128421
0.00104406
0.000843059
0.000675912
0.000530332
3.99507
3.30657
2.20448
1.30055
0.703426
0.365788
0.191713
0.104439
0.0599665
0.0362961
0.0230369
0.0152415
0.0104599
0.00741808
0.00542017
0.0040693
0.00313018
0.00245855
0.00196304
0.00158278
0.00127465
0.00101171
0.000786232
0.000581192
4.79118
4.05925
2.77072
1.68327
0.933214
0.490533
0.255926
0.137567
0.0777267
0.0463846
0.0291318
0.0191413
0.0130844
0.00926245
0.00676483
0.00508034
0.00390977
0.00307135
0.00245051
0.00197107
0.00157854
0.00123745
0.000935465
0.000647468
5.9507
4.97717
3.43483
2.14513
1.22517
0.656768
0.344014
0.183295
0.102044
0.0599855
0.0372112
0.024234
0.0164715
0.0116229
0.00847702
0.00636498
0.0049009
0.00385291
0.00307595
0.00247382
0.00197736
0.00153913
0.00113806
0.00073375
8.38837
6.12022
4.20226
2.68131
1.58026
0.870617
0.462358
0.246042
0.135462
0.078486
0.0480382
0.0309569
0.0208859
0.0146695
0.0106724
0.00800633
0.00616629
0.00485266
0.00387969
0.00312507
0.00250085
0.00194349
0.00141601
0.000846805
15.4583
8.34221
5.21142
3.30333
1.99672
1.13484
0.616565
0.330781
0.181242
0.10378
0.0626834
0.0399287
0.0267025
0.0186429
0.0135154
0.0101237
0.00779768
0.00614479
0.00492424
0.00397902
0.00319731
0.00249539
0.00181017
0.00100359
2.99664
3.85095
4.47046
3.9785
3.08125
2.71518
1.09555
1.98948
2.32567
2.26602
1.9552
2.2772
1.4873
1.88038
2.06641
2.01318
1.81999
2.08035
1.96796
1.99875
2.06368
1.99754
1.84781
2.0372
2.38903
2.13797
2.13238
2.05786
1.94715
2.07951
2.75186
2.25029
2.21145
2.14754
2.08042
2.18364
3.06149
2.3298
2.28403
2.24941
2.22913
2.32979
3.32264
2.38257
2.34913
2.35366
2.38072
2.50361
3.5393
2.4172
2.40789
2.45428
2.52992
2.68942
3.71569
2.4418
2.46077
2.54925
2.67065
2.87092
3.85742
2.4629
2.50915
2.63454
2.79426
3.03293
3.95748
2.48162
2.55343
2.70731
2.89389
3.16037
3.99012
2.49578
2.59375
2.76649
2.96519
3.24251
3.96343
2.5056
2.63091
2.81257
3.00685
3.26948
3.8657
2.51127
2.6666
2.84772
3.02067
3.25565
3.69749
2.51336
2.70322
2.87652
3.01685
3.19874
3.45865
2.51329
2.74421
2.90584
3.00408
3.11134
3.14987
2.51351
2.79452
2.94473
2.99761
3.01172
2.77425
2.51812
2.85827
3.00644
3.02065
2.9257
2.33967
2.53145
2.94426
3.11539
3.11643
2.88902
1.85747
2.56363
3.07507
3.30721
3.33283
2.98226
1.34156
2.64703
3.30628
3.66074
3.78183
3.40975
0.979333
2.96032
3.87545
4.40878
4.70901
4.61031
2.34025
4.82147
6.27913
6.77897
6.56425
6.19668
12.104
9.20046
6.04475
3.92401
2.44998
1.44402
0.809398
0.44226
0.243234
0.138344
0.0826166
0.052017
0.0344503
0.0238833
0.0172392
0.0128886
0.00993085
0.00784505
0.00631528
0.00513805
0.00417061
0.00330275
0.00243002
0.00132319
8.34986
8.56922
6.69083
4.48857
2.90687
1.78472
1.03912
0.583824
0.325463
0.185213
0.109786
0.0684127
0.0448638
0.0308616
0.0221633
0.0165336
0.0127498
0.0101143
0.00821133
0.00678022
0.00564545
0.00468443
0.00386669
0.00343452
5.48193
7.52751
6.6443
4.84158
3.31002
2.13363
1.29849
0.75633
0.431507
0.247819
0.146652
0.0907022
0.0589378
0.0402094
0.0287018
0.0213424
0.0164612
0.0131196
0.010774
0.00910268
0.00791157
0.00709534
0.00667913
0.00685877
3.82934
6.66423
6.39113
5.12209
3.65499
2.46969
1.57555
0.956954
0.563484
0.329547
0.19611
0.120913
0.0779879
0.0527619
0.0373862
0.0276567
0.0212876
0.0170078
0.0140974
0.0121453
0.0109161
0.0102888
0.0102517
0.0107616
3.18559
5.95092
5.92522
5.16331
3.89911
2.76963
1.85569
1.17949
0.721336
0.433129
0.261252
0.161505
0.103716
0.0696319
0.0489315
0.0359379
0.0275329
0.0219852
0.018322
0.0159896
0.0146641
0.0141575
0.0143567
0.0150691
2.9925
5.33882
5.53688
5.08575
4.05752
3.01747
2.12132
1.4134
0.901703
0.559717
0.344883
0.215231
0.138239
0.0922849
0.0643111
0.0468259
0.0356196
0.0283311
0.0236255
0.0207315
0.0191827
0.0186847
0.019007
0.0198582
2.96249
4.88206
5.27549
4.9452
4.12861
3.20481
2.35811
1.64645
1.09798
0.708013
0.448761
0.284774
0.184004
0.122584
0.0848323
0.0612071
0.0461401
0.0364345
0.0302508
0.0265063
0.0245303
0.0238917
0.0242387
0.025173
3.0264
4.59081
5.13639
4.82751
4.12198
3.3234
2.55187
1.86429
1.30036
0.87373
0.572806
0.372171
0.243543
0.162752
0.112188
0.0802864
0.0599219
0.0468474
0.0385522
0.0335277
0.0308267
0.0298417
0.0301038
0.0310516
3.15153
4.43362
5.09408
4.81576
4.12023
3.3926
2.69789
2.05442
1.49689
1.04923
0.714203
0.477975
0.31896
0.215167
0.148435
0.105641
0.0780975
0.0603495
0.0490465
0.0421246
0.0382715
0.0366486
0.0366808
0.0375425
3.30898
4.37619
5.10707
4.86979
4.16593
3.44304
2.80327
2.2106
1.67693
1.22518
0.867379
0.600495
0.411176
0.281911
0.195818
0.139206
0.102164
0.0780237
0.0624814
0.0527928
0.0471837
0.0445125
0.0440335
0.0447453
3.47307
4.38385
5.14343
5.00675
4.3158
3.52023
2.88805
2.33482
1.83299
1.39171
1.02464
0.735549
0.519245
0.36413
0.256393
0.183143
0.133991
0.10133
0.0799226
0.0662686
0.0580464
0.0537273
0.0523396
0.0527697
3.61236
4.42484
5.18922
5.17091
4.58088
3.67476
2.98804
2.44184
1.96596
1.54248
1.17732
0.876995
0.640179
0.46152
0.331538
0.239549
0.175736
0.132147
0.102851
0.0836368
0.0716072
0.0647789
0.0618914
0.0618038
3.69912
4.45841
5.21022
5.33525
4.91177
3.94625
3.15016
2.56086
2.08697
1.67798
1.32066
1.01737
0.768816
0.571745
0.421265
0.30991
0.229538
0.172681
0.133214
0.106456
0.089006
0.0784574
0.0732335
0.0721112
3.71687
4.44684
5.18651
5.46534
5.19952
4.34689
3.42751
2.73893
2.22413
1.80943
1.45656
1.15358
0.899032
0.690369
0.523584
0.394361
0.296928
0.225136
0.173337
0.136824
0.11193
0.0959808
0.0871508
0.0842372
3.66935
4.3654
5.09712
5.50868
5.40329
4.77737
3.83159
3.02952
2.42551
1.96635
1.59787
1.29004
1.03044
0.813526
0.63512
0.49129
0.378124
0.291086
0.225546
0.177279
0.142745
0.11924
0.104978
0.0990507
3.55087
4.19894
4.91849
5.42658
5.48579
5.11756
4.29387
3.44625
2.7422
2.19882
1.77916
1.44481
1.17101
0.943907
0.755007
0.599133
0.472402
0.371132
0.291652
0.230446
0.184399
0.151035
0.128904
0.118024
3.37105
3.94583
4.63683
5.19953
5.42693
5.26047
4.69513
3.91914
3.17577
2.54867
2.0497
1.65784
1.34705
1.09622
0.890612
0.720842
0.580818
0.466127
0.373164
0.29877
0.24017
0.195115
0.162416
0.143635
3.14705
3.61767
4.25289
4.83823
5.18682
5.20154
4.90247
4.31159
3.63832
2.99286
2.43214
1.9708
1.60043
1.30427
1.06572
0.871662
0.712581
0.58169
0.474026
0.385799
0.313995
0.256191
0.2108
0.180099
2.90344
3.23862
3.79108
4.35901
4.77371
4.9482
4.8486
4.50152
3.98664
3.41889
2.86712
2.37233
1.95047
1.60086
1.31489
1.08178
0.891452
0.735437
0.607048
0.501097
0.413599
0.341421
0.282098
0.234738
2.66945
2.84125
3.28791
3.79867
4.23367
4.49926
4.56201
4.4235
4.10195
3.68145
3.21963
2.76242
2.33913
1.96429
1.64182
1.36941
1.14168
0.952274
0.794976
0.664216
0.555409
0.464463
0.389453
0.32041
2.46014
2.46178
2.78958
3.21538
3.61663
3.91925
4.07712
4.08126
3.94775
3.68552
3.35707
2.99847
2.63618
2.2904
1.9731
1.68991
1.44203
1.22795
1.04469
0.888473
0.755941
0.642596
0.549939
0.456077
2.28666
2.13383
2.33982
2.66762
3.00054
3.28227
3.47185
3.55574
3.53395
3.41887
3.22439
2.98293
2.71791
2.44632
2.1809
1.93048
1.70006
1.49215
1.30711
1.14303
0.99877
0.870755
0.764824
0.653653
2.17596
1.86719
1.97008
2.20545
2.45612
2.67936
2.84892
2.94715
2.97813
2.94312
2.8486
2.70924
2.54179
2.35815
2.16829
1.97973
1.79832
1.62796
1.47166
1.33129
1.20588
1.09284
0.994149
0.892092
2.07866
1.66187
1.69522
1.85824
2.03448
2.18981
2.30793
2.37982
2.41018
2.39871
2.35012
2.2714
2.17195
2.05895
1.93865
1.81617
1.69541
1.57908
1.46891
1.36649
1.27415
1.19334
1.12725
1.07365
1.69095
2.44548
4.9093
6.28416
6.44417
6.2236
0.771031
1.74828
2.86353
3.32015
3.31101
2.78004
0.220389
1.50269
2.09189
2.27934
2.23192
1.91731
0.249114
1.34416
1.70878
1.79412
1.74537
1.57247
0.268807
1.21975
1.47088
1.51728
1.4854
1.40323
1.18792
1.12915
1.30683
1.34105
1.33119
1.31169
1.28993
1.05588
1.1859
1.22056
1.23272
1.25354
1.37856
0.997412
1.09319
1.13223
1.16343
1.2136
1.44559
0.951022
1.01979
1.06321
1.11001
1.18186
1.48967
0.914009
0.960044
1.00643
1.06479
1.15233
1.51093
0.88413
0.910763
0.957571
1.02331
1.12161
1.51026
0.860436
0.869737
0.913928
0.9831
1.0883
1.49096
0.843618
0.835481
0.873802
0.942973
1.05264
1.46037
0.833882
0.806553
0.836474
0.902647
1.01637
1.41643
0.827246
0.781417
0.801791
0.862471
0.982626
1.35711
0.819195
0.758349
0.769541
0.823947
0.956629
1.27424
0.801325
0.735298
0.739522
0.789096
0.943965
1.19217
0.758201
0.710431
0.711874
0.759813
0.951698
0.275307
0.662832
0.684068
0.688287
0.738607
0.988219
0.265388
0.600481
0.665853
0.674263
0.729692
1.0649
0.25026
0.577021
0.669187
0.68082
0.740168
1.17866
0.229476
0.615367
0.717057
0.733061
0.787363
1.30943
0.865269
0.868479
0.922461
0.940411
0.948923
1.52579
2.14967
2.17598
2.09347
2.02758
1.70606
1.71412
1.85597
1.50735
1.51565
1.63787
1.76552
1.86683
1.93038
1.96008
1.96098
1.93505
1.88813
1.82617
1.7547
1.67816
1.60016
1.52365
1.45079
1.38316
1.32175
1.26698
1.21859
1.17628
1.14074
1.11713
1.60838
1.40597
1.42657
1.53657
1.64767
1.72489
1.76189
1.76925
1.74547
1.69816
1.63561
1.56461
1.49048
1.41716
1.34746
1.28338
1.22637
1.17735
1.13673
1.10458
1.08063
1.06386
1.05292
1.0487
1.46281
1.35537
1.39962
1.51448
1.62872
1.70464
1.73786
1.73965
1.70749
1.65172
1.58168
1.50476
1.4265
1.35078
1.28022
1.2164
1.16027
1.11232
1.07255
1.04053
1.01542
0.996128
0.981772
0.972231
1.38089
1.34098
1.41927
1.56104
1.70221
1.80221
1.8496
1.8587
1.82814
1.76932
1.6935
1.60946
1.52351
1.43988
1.36132
1.28946
1.2251
1.16851
1.1196
1.078
1.04321
1.01483
0.992655
0.97616
1.33742
1.35507
1.48137
1.6699
1.86014
2.00798
2.08946
2.11825
2.10126
2.04834
1.97272
1.88539
1.79385
1.70292
1.61558
1.53352
1.45758
1.38808
1.32503
1.26833
1.21804
1.17462
1.13848
1.10904
1.31605
1.39226
1.57411
1.82648
2.08489
2.29289
2.4182
2.47029
2.468
2.42003
2.34148
2.2485
2.1505
2.05292
1.95884
1.86983
1.78649
1.70887
1.63684
1.57027
1.50924
1.45449
1.40626
1.36154
1.30979
1.44172
1.68615
2.01604
2.35419
2.62177
2.77983
2.83936
2.80872
2.71777
2.60313
2.48217
2.36291
2.24949
2.14375
2.04614
1.95629
1.87349
1.79678
1.72533
1.6586
1.59692
1.54158
1.48266
1.30977
1.49492
1.80787
2.22646
2.6454
2.94564
3.08147
3.04939
2.94297
2.81181
2.67058
2.52949
2.39518
2.2707
2.15697
2.05365
1.95963
1.87359
1.79417
1.7199
1.65011
1.58366
1.52587
1.45484
1.30967
1.54572
1.93438
2.454
2.93725
3.20533
3.20504
3.09309
2.91418
2.71066
2.50858
2.32113
2.15339
2.00602
1.87746
1.76474
1.66488
1.57517
1.49329
1.41655
1.34462
1.27143
1.21357
1.12607
1.30547
1.59158
2.0709
2.71381
3.21081
3.3477
3.20941
2.90965
2.57385
2.26098
1.98815
1.75616
1.562
1.40098
1.26637
1.14997
1.04856
0.958513
0.877398
0.802012
0.734092
0.663352
0.612959
0.52879
1.2954
1.63535
2.24016
3.0329
3.48486
3.38926
2.99169
2.45992
1.99889
1.62212
1.32195
1.07872
0.887695
0.738554
0.621481
0.530706
0.458415
0.399344
0.350098
0.308092
0.27246
0.239879
0.215457
0.184107
1.28047
1.68766
2.49167
3.45167
3.68915
3.33801
2.59464
1.96581
1.488
1.12771
0.854679
0.657811
0.514275
0.408376
0.329364
0.269572
0.223604
0.187814
0.159481
0.136696
0.118194
0.102719
0.090758
0.0796942
1.2652
1.77116
2.8974
3.91385
3.79276
3.07168
2.21739
1.6148
1.18389
0.870545
0.640979
0.475306
0.355795
0.269587
0.207641
0.163085
0.130563
0.106251
0.0878301
0.0737331
0.0628881
0.0545369
0.0484497
0.0449867
1.26023
1.93168
3.52481
4.28793
3.83307
2.74249
1.92802
1.36997
0.97454
0.693773
0.497
0.359136
0.26269
0.195025
0.147073
0.112714
0.0878719
0.0697408
0.0564152
0.0466067
0.0395001
0.0346145
0.0317022
0.0311748
1.2806
2.24505
4.3215
4.51833
3.65663
2.45058
1.67462
1.1397
0.77095
0.522079
0.356168
0.247377
0.175996
0.128549
0.0963759
0.0740325
0.0581436
0.0466321
0.0382143
0.0321099
0.0278438
0.025134
0.0240034
0.0245687
1.34828
2.8591
4.99727
4.6295
3.28967
2.15777
1.41171
0.91115
0.587803
0.382243
0.252977
0.171417
0.119281
0.0853731
0.0629153
0.047784
0.0374389
0.0302896
0.0253586
0.0220605
0.0200426
0.0191252
0.0192976
0.0204342
1.49597
3.86572
5.38177
4.59416
2.94641
1.85689
1.14866
0.707287
0.439952
0.279719
0.183409
0.124317
0.0869943
0.0627228
0.046538
0.0355383
0.0279824
0.0227962
0.0193088
0.0171105
0.0159499
0.0157104
0.0161872
0.0175786
1.7622
5.09975
5.54282
4.24065
2.57579
1.5321
0.899717
0.532361
0.322635
0.202641
0.132194
0.0895057
0.0628341
0.0456864
0.0343665
0.0267219
0.0214799
0.0178887
0.0155087
0.0140811
0.0134486
0.0135114
0.0141433
0.0155331
2.23519
6.12675
5.63821
3.76771
2.16955
1.21715
0.682399
0.392493
0.235492
0.1477
0.0966071
0.0657082
0.0463757
0.0339246
0.0257115
0.0201962
0.0164626
0.0139627
0.0123734
0.0115065
0.0112557
0.0114886
0.0122491
0.0135493
3.129
6.69442
5.63364
3.28008
1.76224
0.930682
0.504092
0.28726
0.17274
0.109115
0.0720351
0.0495204
0.0353616
0.0261849
0.020088
0.0159672
0.01317
0.0113079
0.0101524
0.00956957
0.00948311
0.00977439
0.0105272
0.0116657
4.73373
6.97952
5.28065
2.74422
1.3592
0.686568
0.368068
0.210666
0.127833
0.0815767
0.0544358
0.0378446
0.027344
0.0204973
0.0159227
0.0128144
0.0106959
0.00928467
0.00841709
0.00799938
0.00797878
0.00826667
0.00894551
0.00992492
7.28505
7.51267
4.74246
2.16038
1.00101
0.497287
0.268304
0.155583
0.0956845
0.0618406
0.0417687
0.0293803
0.0214698
0.0162694
0.0127686
0.0103739
0.00873166
0.00763175
0.00695285
0.00662736
0.00661834
0.0068683
0.00744443
0.00827539
10.0302
7.99409
3.61206
1.55178
0.709085
0.357596
0.197017
0.11632
0.072616
0.047557
0.0325159
0.0231339
0.0170849
0.0130722
0.0103471
0.00846596
0.00716196
0.00627544
0.0057143
0.00542869
0.00539287
0.00557798
0.0060338
0.00672569
13.4025
7.55659
2.79592
1.10574
0.503902
0.26016
0.14657
0.088095
0.0558242
0.0370413
0.0256228
0.0184203
0.0137298
0.0105893
0.00843724
0.00693641
0.00588146
0.00514781
0.00466278
0.00438734
0.00430325
0.00440376
0.00472751
0.00528622
2.61898
6.5005
9.16473
9.90438
10.317
39.5814
1.00635
3.30491
5.00963
6.43436
7.46374
11.5007
0.280933
2.69069
4.0563
5.3786
6.19421
6.47138
1.41938
2.49466
3.64421
4.73136
4.98995
4.49554
1.72938
2.41212
3.40004
4.19755
4.08031
3.2483
1.95645
2.37601
3.22842
3.75835
3.42375
2.42312
2.11438
2.35834
3.09821
3.42539
2.94206
1.91613
2.21731
2.34349
2.99668
3.18654
2.58419
1.59646
2.27665
2.32182
2.91535
3.02119
2.32818
1.37804
2.29952
2.28806
2.84787
2.90893
2.14689
1.22422
2.29071
2.24032
2.78972
2.83425
2.02425
1.1147
2.25204
2.17939
2.73791
2.78571
1.95254
1.0389
2.18445
2.10303
2.69356
2.76844
1.91967
0.991252
2.08928
2.01068
2.65518
2.77307
1.92366
0.967508
1.96933
1.90234
2.61979
2.80386
1.9661
0.965719
1.82703
1.77796
2.58152
2.85611
2.05024
0.985886
1.66524
1.63711
2.53161
2.92616
2.18173
1.03011
1.47895
1.47861
2.45772
3.00899
2.36864
1.10257
1.26104
1.29909
2.34476
3.09657
2.62178
1.21223
0.278351
1.09269
2.1769
3.17642
2.9545
1.37732
0.261555
0.92562
1.93804
3.21877
3.37555
1.63709
0.238604
0.817148
1.642
3.18803
3.88159
2.07673
0.897343
0.881246
1.42037
2.99419
4.50138
2.88023
2.18234
1.69568
1.97067
3.03057
5.13871
4.86715
16.7264
4.72262
1.64939
0.710036
0.352372
0.190817
0.110419
0.0676058
0.0434785
0.0292102
0.0204206
0.0148131
0.0111247
0.00863271
0.00690945
0.00569483
0.00482772
0.00420807
0.00377552
0.00349619
0.00335395
0.00335355
0.00353105
0.00394992
6.76063
2.58335
1.1054
0.517861
0.2623
0.143981
0.0846652
0.0526491
0.0343155
0.0233123
0.0164477
0.0120206
0.00908088
0.00707743
0.00567979
0.00468427
0.0039624
0.00343205
0.00304086
0.00275618
0.0025587
0.00244618
0.00246251
0.00271229
3.93526
1.73389
0.771408
0.368091
0.192914
0.109298
0.065759
0.0415677
0.0274312
0.0188188
0.0133813
0.00983932
0.00746685
0.00583694
0.00469056
0.00386604
0.00325976
0.00280361
0.00245163
0.00217153
0.00193896
0.00173889
0.00158503
0.00158456
2.60637
1.17997
0.545072
0.272276
0.147223
0.0851335
0.052023
0.0333039
0.0222059
0.015361
0.0109943
0.0081247
0.00618798
0.00484832
0.00389972
0.00321228
0.00270182
0.00231217
0.00200444
0.0017498
0.00152445
0.00130915
0.00109592
0.000804767
1.77679
0.833817
0.401605
0.206759
0.114384
0.0673599
0.0417638
0.0270447
0.0181958
0.0126759
0.00912197
0.00676907
0.00517142
0.00406069
0.00327074
0.00269598
0.00226765
0.00193977
0.00168065
0.00146682
0.00127863
0.00110019
0.000922822
0.000691981
1.30247
0.622813
0.306884
0.161364
0.0908652
0.0542935
0.034062
0.0222655
0.0150908
0.0105727
0.00764171
0.00568986
0.00435858
0.00342998
0.00276801
0.00228569
0.0019261
0.00165116
0.00143457
0.00125666
0.00110045
0.000952687
0.000809491
0.000635017
1.00879
0.484435
0.241834
0.12907
0.0736689
0.0445329
0.0282063
0.018577
0.0126637
0.00891096
0.00646206
0.0048241
0.00370355
0.00292047
0.00236171
0.00195452
0.00165109
0.00141934
0.00123711
0.00108771
0.000956773
0.000833964
0.000718488
0.000586147
0.818162
0.390839
0.196222
0.105734
0.0609298
0.0371591
0.0237095
0.0157043
0.0107504
0.00758773
0.00551487
0.00412441
0.00317161
0.00250535
0.00203005
0.00168398
0.00142644
0.0012301
0.00107609
0.000950263
0.000840512
0.000738919
0.000646202
0.000545153
0.687489
0.325282
0.163535
0.0886135
0.0513767
0.0315317
0.020225
0.0134485
0.00923076
0.00652655
0.00474922
0.00355525
0.00273682
0.00216486
0.00175741
0.00146132
0.00124152
0.00107447
0.000943944
0.000837869
0.000746082
0.000662486
0.000588347
0.000511075
0.595602
0.278616
0.139878
0.0759053
0.0441423
0.0272007
0.0175045
0.0116648
0.00801591
0.00567039
0.00412685
0.00308983
0.00237967
0.00188429
0.00153232
0.00127739
0.00108888
0.000946263
0.000835476
0.00074611
0.00066958
0.000601111
0.000541988
0.000482909
0.530573
0.24546
0.122528
0.066385
0.0386263
0.0238468
0.0153679
0.0102465
0.00703971
0.00497633
0.0036187
0.00270772
0.00208525
0.0016524
0.00134607
0.00112524
0.000962852
0.000840783
0.000746686
0.000671497
0.000607888
0.00055202
0.000504927
0.000459764
0.485643
0.221549
0.109743
0.0592403
0.0344093
0.0212409
0.0136839
0.00911478
0.0062525
0.00441178
0.00320251
0.00239313
0.00184198
0.00146041
0.0011918
0.00099939
0.000858917
0.000754205
0.000674264
0.000611097
0.000558374
0.0005129
0.000475372
0.000440843
0.455154
0.204608
0.100423
0.0539114
0.0311938
0.0192173
0.0123559
0.00821062
0.00561672
0.00395178
0.00286105
0.00213372
0.00164073
0.00130133
0.00106402
0.000895362
0.000773349
0.000683334
0.000615402
0.000562403
0.000518795
0.00048183
0.00045187
0.000425463
0.43636
0.193173
0.0938211
0.0500071
0.0287686
0.0176556
0.0113127
0.00748986
0.0051038
0.00357709
0.00258088
0.00191976
0.00147421
0.00116956
0.000958249
0.000809492
0.000703051
0.000625486
0.000567728
0.000523296
0.000487277
0.000457238
0.000433261
0.000413062
0.427447
0.186297
0.0894348
0.0472557
0.0269849
0.0164686
0.0105013
0.00691928
0.0046919
0.00327281
0.00235145
0.00174352
0.00133658
0.00106051
0.000870817
0.000738741
0.000645433
0.000578401
0.000529236
0.000491992
0.000462266
0.000437852
0.000418618
0.000403169
0.427535
0.18337
0.0869423
0.0454707
0.0257409
0.0155933
0.00988316
0.0064739
0.00436433
0.00302737
0.00216443
0.00159884
0.00122311
0.000970483
0.000798705
0.000680584
0.000598332
0.000540182
0.000498245
0.000467008
0.000442489
0.000422651
0.0004072
0.000395392
0.437025
0.183896
0.0861554
0.0445365
0.0249633
0.0149848
0.00942969
0.00613506
0.00410838
0.00283179
0.00201329
0.00148079
0.00113001
0.000896425
0.000739422
0.000632929
0.000559945
0.000509249
0.000473359
0.000447122
0.000426911
0.000410818
0.000398417
0.000389398
0.456199
0.188484
0.0868088
0.0443882
0.0246014
0.0146123
0.00912055
0.00588896
0.00391444
0.00267917
0.00189292
0.00138548
0.00105418
0.000835856
0.000690911
0.000594037
0.000528775
0.000484297
0.000453432
0.000431334
0.000414686
0.000401692
0.00039179
0.0003849
0.486229
0.196973
0.0893509
0.0449345
0.0246207
0.0144554
0.00894163
0.00572562
0.0037754
0.00256429
0.00179937
0.00130982
0.000993183
0.000786764
0.000651482
0.000562463
0.000503576
0.000464243
0.000437524
0.000418826
0.000405107
0.000394694
0.000386896
0.000381645
0.529419
0.20979
0.0936056
0.0463453
0.0249959
0.0144934
0.00888349
0.00563814
0.00368619
0.00248335
0.00172971
0.00125151
0.000945123
0.00074756
0.000619769
0.000537017
0.000483306
0.000448186
0.000424862
0.000408931
0.000397579
0.000389268
0.000383313
0.000379324
0.589109
0.227571
0.0997277
0.0485522
0.0257983
0.0147182
0.00893081
0.00562197
0.00364334
0.00243374
0.00168188
0.00120887
0.000908623
0.000717068
0.000594745
0.000516783
0.000467149
0.000435411
0.000414844
0.000401174
0.000391745
0.000385103
0.000380592
0.000377626
0.669977
0.250997
0.107839
0.0515631
0.0269798
0.0151762
0.00908631
0.00566653
0.00364438
0.00241391
0.00165457
0.00118083
0.000882774
0.000694504
0.000575716
0.000501141
0.00045455
0.000425423
0.000407036
0.000395189
0.000387325
0.000382021
0.00037859
0.000376472
0.776956
0.280236
0.117846
0.0553382
0.0285209
0.01584
0.00937123
0.00578034
0.00368291
0.00242161
0.00164712
0.0011668
0.000867061
0.000679394
0.000562245
0.000489684
0.000445131
0.000417872
0.00040111
0.000390662
0.000384029
0.000379796
0.000377221
0.000375766
0.885278
0.311816
0.129164
0.0597408
0.0303964
0.016697
0.00977346
0.00597455
0.00376983
0.00245514
0.00165778
0.0011667
0.000861344
0.00067151
0.000554076
0.000482137
0.000438614
0.000412488
0.000396813
0.00038736
0.000381639
0.000378225
0.000376316
0.000375354
)
;

boundaryField
{
    rotor
    {
        type            epsilonWallFunction;
        value           nonuniform List<scalar> 
144
(
2.37108
5.42775
7.92717
7.93869
6.78312
5.46452
2.37108
0.884875
1.22255
1.71365
2.17761
2.60131
2.96615
3.26589
3.50035
3.67194
3.78341
3.8373
3.84306
3.8238
3.77022
3.67372
3.52553
3.31601
3.03362
2.66632
2.2064
1.65925
1.17157
3.26139
3.26139
4.3477
6.06212
6.75904
7.26942
30.8726
2.99664
3.85095
4.47046
3.9785
3.08125
2.71518
2.99664
1.09555
1.4873
1.96796
2.38903
2.75186
3.06149
3.32264
3.5393
3.71569
3.85742
3.95748
3.99012
3.96343
3.8657
3.69749
3.45865
3.14987
2.77425
2.33967
1.85747
1.34156
0.979333
2.34025
2.34025
4.82147
6.27913
6.77897
6.56425
6.19668
1.69095
2.44548
4.9093
6.28416
6.44417
6.2236
1.69095
0.771031
0.220389
0.249114
0.268807
1.18792
1.28993
1.37856
1.44559
1.48967
1.51093
1.51026
1.49096
1.46037
1.41643
1.35711
1.27424
1.19217
0.275307
0.265388
0.25026
0.229476
0.865269
2.14967
2.14967
2.17598
2.09347
2.02758
1.70606
1.71412
2.61898
6.5005
9.16473
9.90438
10.317
39.5814
2.61898
1.00635
0.280933
1.41938
1.72938
1.95645
2.11438
2.21731
2.27665
2.29952
2.29071
2.25204
2.18445
2.08928
1.96933
1.82703
1.66524
1.47895
1.26104
0.278351
0.261555
0.238604
0.897343
2.18234
2.18234
1.69568
1.97067
3.03057
5.13871
4.86715
)
;
    }
    freestream
    {
        type            inletOutlet;
        inletValue      uniform 0.000375;
        value           nonuniform List<scalar> 
96
(
0.000375
0.000375
0.000375
0.000375
0.000375
0.000375
0.000375
0.000375
0.000375
0.000375
0.000375
0.000375
0.000375
0.000375
0.000375
0.000375
0.000375
0.000375
0.000375
0.000375
0.000375
0.000375
0.000375
0.000375
0.000375
0.00343452
0.00685877
0.0107616
0.0150691
0.0198582
0.025173
0.0310516
0.0375425
0.0447453
0.0527697
0.0618038
0.0721112
0.0842372
0.0990507
0.118024
0.143635
0.180099
0.234738
0.32041
0.456077
0.653653
0.892092
1.07365
1.11713
1.0487
0.972231
0.97616
1.10904
1.36154
1.48266
1.45484
1.12607
0.52879
0.184107
0.0796942
0.0449867
0.0311748
0.0245687
0.0204342
0.0175786
0.0155331
0.0135493
0.0116657
0.00992492
0.00827539
0.00672569
0.00528622
0.00394992
0.00271229
0.00158456
0.000375
0.000375
0.000375
0.000375
0.000375
0.000375
0.000375
0.000375
0.000375
0.000375
0.000375
0.000375
0.000375
0.000375
0.000375
0.000375
0.000375
0.000375
0.000375
0.000375
0.000375
)
;
    }
    frontAndBack
    {
        type            empty;
    }
}


// ************************************************************************* //
