/*--------------------------------*- C++ -*----------------------------------*\
  =========                 |
  \\      /  F ield         | OpenFOAM: The Open Source CFD Toolbox
   \\    /   O peration     | Website:  https://openfoam.org
    \\  /    A nd           | Version:  11
     \\/     M anipulation  |
\*---------------------------------------------------------------------------*/
FoamFile
{
    format      ascii;
    class       surfaceScalarField;
    location    "0.98";
    object      meshPhi;
}
// * * * * * * * * * * * * * * * * * * * * * * * * * * * * * * * * * * * * * //

dimensions      [0 3 -1 0 0 0 0];

internalField   nonuniform List<scalar> 
5640
(
1.36907e-16
9.81747e-07
2.42036e-16
1.37445e-06
3.7694e-16
1.76715e-06
-1.33934e-15
2.15984e-06
-3.6818e-15
2.55254e-06
2.94524e-06
5.95123e-15
1.80151e-18
9.81747e-07
-3.88821e-16
1.37445e-06
-2.60422e-15
1.76715e-06
1.94358e-15
2.15984e-06
8.06611e-15
2.55254e-06
2.94524e-06
-9.02986e-15
-1.16482e-16
9.81747e-07
1.86363e-16
1.37445e-06
-1.56239e-15
1.76715e-06
-4.2126e-15
2.15984e-06
-7.4986e-15
2.55254e-06
2.94524e-06
7.72116e-16
8.69252e-17
9.81747e-07
-1.01933e-16
1.37445e-06
2.6932e-15
1.76715e-06
7.44275e-15
2.15984e-06
3.2598e-15
2.55254e-06
2.94524e-06
-2.79829e-15
-4.83988e-17
9.81747e-07
3.94866e-17
1.37445e-06
1.94278e-16
1.76715e-06
-1.8062e-15
2.15984e-06
-4.20847e-15
2.55254e-06
2.94524e-06
5.01331e-15
-1.80134e-16
9.81747e-07
4.28677e-18
1.37445e-06
-1.84775e-15
1.76715e-06
-3.8862e-15
2.15984e-06
3.15703e-15
2.55254e-06
2.94524e-06
4.98104e-16
2.53934e-16
9.81747e-07
2.55397e-16
1.37445e-06
2.06588e-15
1.76715e-06
4.50392e-15
2.15984e-06
-2.31006e-15
2.55254e-06
2.94524e-06
5.40692e-16
2.16296e-17
9.81747e-07
-3.21739e-16
1.37445e-06
-1.14896e-15
1.76715e-06
-5.28573e-15
2.15984e-06
-3.76902e-16
2.55254e-06
2.94524e-06
-5.63996e-15
-1.4342e-16
9.81747e-07
1.66339e-16
1.37445e-06
4.19106e-15
1.76715e-06
6.34934e-15
2.15984e-06
-8.05859e-16
2.55254e-06
2.94524e-06
8.39251e-16
-6.88149e-17
9.81747e-07
-9.20777e-17
1.37445e-06
-2.76949e-15
1.76715e-06
-3.68914e-16
2.15984e-06
-1.45102e-15
2.55254e-06
2.94524e-06
-1.76695e-16
1.6631e-16
9.81747e-07
-8.87078e-17
1.37445e-06
5.69642e-16
1.76715e-06
-2.1036e-15
2.15984e-06
9.65977e-15
2.55254e-06
2.94524e-06
5.29021e-15
-1.7781e-16
9.81747e-07
-2.05478e-17
1.37445e-06
-3.45473e-16
1.76715e-06
-4.17279e-15
2.15984e-06
-2.62247e-15
2.55254e-06
2.94524e-06
5.36928e-15
1.77763e-16
9.81747e-07
2.0457e-17
1.37445e-06
3.45426e-16
1.76715e-06
4.17261e-15
2.15984e-06
2.62232e-15
2.55254e-06
2.94524e-06
-5.36962e-15
-1.66353e-16
9.81747e-07
8.86745e-17
1.37445e-06
-5.69673e-16
1.76715e-06
2.10345e-15
2.15984e-06
-9.66013e-15
2.55254e-06
2.94524e-06
-5.29017e-15
6.87791e-17
9.81747e-07
9.20082e-17
1.37445e-06
2.76932e-15
1.76715e-06
3.68738e-16
2.15984e-06
1.45076e-15
2.55254e-06
2.94524e-06
1.76382e-16
1.43362e-16
9.81747e-07
-1.66433e-16
1.37445e-06
-4.19127e-15
1.76715e-06
-6.34956e-15
2.15984e-06
8.05571e-16
2.55254e-06
2.94524e-06
-8.39433e-16
-2.16902e-17
9.81747e-07
3.21686e-16
1.37445e-06
1.14888e-15
1.76715e-06
5.28547e-15
2.15984e-06
3.76592e-16
2.55254e-06
2.94524e-06
5.63985e-15
-2.53989e-16
9.81747e-07
-2.55438e-16
1.37445e-06
-2.06593e-15
1.76715e-06
-4.50423e-15
2.15984e-06
2.30986e-15
2.55254e-06
2.94524e-06
-5.40887e-16
1.80077e-16
9.81747e-07
-4.34787e-18
1.37445e-06
1.8478e-15
1.76715e-06
3.88605e-15
2.15984e-06
-3.15702e-15
2.55254e-06
2.94524e-06
-4.98358e-16
4.83465e-17
9.81747e-07
-3.95885e-17
1.37445e-06
-1.94409e-16
1.76715e-06
1.80596e-15
2.15984e-06
4.2085e-15
2.55254e-06
2.94524e-06
-5.01362e-15
-8.6964e-17
9.81747e-07
1.01889e-16
1.37445e-06
-2.69318e-15
1.76715e-06
-7.44281e-15
2.15984e-06
-3.25998e-15
2.55254e-06
2.94524e-06
2.79781e-15
1.16463e-16
9.81747e-07
-1.86418e-16
1.37445e-06
1.56227e-15
1.76715e-06
4.21252e-15
2.15984e-06
7.49824e-15
2.55254e-06
2.94524e-06
-7.72513e-16
-1.8492e-18
9.81747e-07
3.8871e-16
1.37445e-06
2.6041e-15
1.76715e-06
-1.94373e-15
2.15984e-06
-8.06619e-15
2.55254e-06
2.94524e-06
9.02955e-15
-1.36993e-16
-2.4214e-16
-3.77032e-16
1.33921e-15
3.68139e-15
-5.95139e-15
-1.13364e-14
4.53785e-06
-4.53785e-06
-4.81423e-16
5.23599e-06
-5.23599e-06
-5.35749e-15
5.93412e-06
-5.93412e-06
-1.13034e-14
6.63225e-06
-6.63225e-06
4.86848e-15
7.33038e-06
-7.33038e-06
-1.10981e-15
8.02851e-06
-8.02851e-06
-8.15856e-15
8.72664e-06
-8.72664e-06
1.30436e-14
9.42478e-06
-9.42478e-06
5.94764e-15
1.01229e-05
-1.01229e-05
-1.99808e-15
1.0821e-05
-1.0821e-05
2.4385e-14
1.15192e-05
-1.15192e-05
1.61881e-14
1.22173e-05
-1.22173e-05
-3.27883e-14
1.29154e-05
-1.29154e-05
-3.05349e-15
1.36136e-05
-1.36136e-05
-1.44458e-14
1.43117e-05
-1.43117e-05
-2.69032e-14
1.50098e-05
-1.50098e-05
7.73474e-15
1.5708e-05
-1.5708e-05
-4.44046e-15
1.64061e-05
-1.64061e-05
-1.79998e-14
1.71042e-05
-1.71042e-05
2.18186e-14
1.78024e-05
-1.78024e-05
8.20929e-15
1.85005e-05
-1.85005e-05
-6.08901e-15
1.91986e-05
-1.91986e-05
3.89151e-14
1.98967e-05
-1.98967e-05
2.05949e-05
-2.05949e-05
9.39904e-15
4.53785e-06
5.20013e-16
5.23599e-06
7.52794e-15
5.93412e-06
-4.41217e-15
6.63225e-06
3.78218e-15
7.33038e-06
1.33845e-14
8.02851e-06
-2.10984e-15
8.72664e-06
8.52798e-15
9.42478e-06
-1.00294e-14
1.01229e-05
1.86484e-15
1.0821e-05
-2.02035e-14
1.15192e-05
-7.01423e-15
1.22173e-05
7.50899e-15
1.29154e-05
2.36052e-14
1.36136e-05
-2.04293e-15
1.43117e-05
1.4827e-14
1.50098e-05
-1.3879e-14
1.5708e-05
2.38954e-15
1.64061e-05
2.04075e-14
1.71042e-05
-7.02368e-15
1.78024e-05
1.20662e-14
1.85005e-05
-2.59457e-14
1.91986e-05
1.84174e-15
1.98967e-05
2.05949e-05
-8.67618e-15
4.53785e-06
1.22926e-14
5.23599e-06
1.88292e-15
5.93412e-06
8.90183e-15
6.63225e-06
-5.10946e-15
7.33038e-06
-2.19915e-14
8.02851e-06
1.22639e-14
8.72664e-06
-5.37433e-15
9.42478e-06
4.45559e-15
1.01229e-05
-1.4306e-14
1.0821e-05
-7.32814e-15
1.15192e-05
7.03894e-15
1.22173e-05
2.39948e-14
1.29154e-05
-7.55702e-15
1.36136e-05
9.79766e-15
1.43117e-05
-1.62421e-14
1.50098e-05
4.02904e-14
1.5708e-05
1.44413e-14
1.64061e-05
-1.37066e-14
1.71042e-05
-7.9001e-15
1.78024e-05
-3.92482e-14
1.85005e-05
4.27461e-14
1.91986e-05
-8.85107e-15
1.98967e-05
2.05949e-05
5.98572e-15
4.53785e-06
2.18792e-16
5.23599e-06
-6.4361e-15
5.93412e-06
6.06351e-15
6.63225e-06
-2.09347e-15
7.33038e-06
1.61751e-14
8.02851e-06
-1.88314e-14
8.72664e-06
-2.35034e-15
9.42478e-06
9.17103e-15
1.01229e-05
-4.7101e-15
1.0821e-05
2.16275e-14
1.15192e-05
-2.96473e-14
1.22173e-05
-9.29099e-15
1.29154e-05
-1.89074e-14
1.36136e-05
4.46631e-15
1.43117e-05
3.01505e-14
1.50098e-05
-2.62209e-14
1.5708e-05
4.30927e-16
1.64061e-05
-2.1172e-14
1.71042e-05
1.87117e-14
1.78024e-05
-3.92173e-15
1.85005e-05
-2.91578e-14
1.91986e-05
1.52268e-14
1.98967e-05
2.05949e-05
6.71479e-15
4.53785e-06
-7.30663e-15
5.23599e-06
1.11006e-14
5.93412e-06
-4.24137e-15
6.63225e-06
1.51019e-14
7.33038e-06
-5.20927e-15
8.02851e-06
1.70126e-14
8.72664e-06
-3.94085e-15
9.42478e-06
-2.94012e-16
1.01229e-05
6.61026e-15
1.0821e-05
1.37048e-14
1.15192e-05
1.01833e-14
1.22173e-05
1.82173e-14
1.29154e-05
1.43695e-14
1.36136e-05
2.33371e-14
1.43117e-05
-2.53437e-14
1.50098e-05
2.90722e-14
1.5708e-05
-7.82925e-15
1.64061e-05
3.54132e-14
1.71042e-05
-4.5163e-15
1.78024e-05
4.23707e-14
1.85005e-05
-5.87695e-16
1.91986e-05
-8.73237e-15
1.98967e-05
2.05949e-05
-4.63057e-15
4.53785e-06
5.7974e-15
5.23599e-06
-1.61505e-14
5.93412e-06
-5.97436e-15
6.63225e-06
-8.55513e-15
7.33038e-06
4.22317e-15
8.02851e-06
-8.18766e-15
8.72664e-06
6.9996e-15
9.42478e-06
-2.42309e-14
1.01229e-05
-7.77024e-15
1.0821e-05
-2.27645e-14
1.15192e-05
8.34944e-15
1.22173e-05
-7.40534e-15
1.29154e-05
2.82647e-14
1.36136e-05
-4.57143e-14
1.43117e-05
-8.22377e-15
1.50098e-05
-2.82259e-14
1.5708e-05
-2.34105e-15
1.64061e-05
-6.94772e-15
1.71042e-05
2.21475e-14
1.78024e-05
-3.41112e-14
1.85005e-05
-3.73983e-15
1.91986e-05
-3.23494e-14
1.98967e-05
2.05949e-05
-8.92494e-15
4.53785e-06
-2.289e-15
5.23599e-06
-2.22422e-15
5.93412e-06
6.61576e-15
6.63225e-06
-3.38867e-15
7.33038e-06
-3.90741e-15
8.02851e-06
-6.41929e-15
8.72664e-06
-7.15856e-15
9.42478e-06
6.80875e-15
1.01229e-05
6.98182e-15
1.0821e-05
-9.0656e-15
1.15192e-05
6.75902e-15
1.22173e-05
-2.88891e-14
1.29154e-05
-1.22364e-14
1.36136e-05
4.80242e-15
1.43117e-05
2.50239e-14
1.50098e-05
3.85951e-15
1.5708e-05
3.60693e-15
1.64061e-05
-2.04842e-14
1.71042e-05
-2.17617e-14
1.78024e-05
3.46185e-15
1.85005e-05
2.90405e-14
1.91986e-05
-1.66579e-15
1.98967e-05
2.05949e-05
6.21583e-15
4.53785e-06
-3.87935e-15
5.23599e-06
1.54216e-14
5.93412e-06
-7.06558e-15
6.63225e-06
-2.21051e-15
7.33038e-06
1.42843e-15
8.02851e-06
-5.49379e-15
8.72664e-06
1.32255e-14
9.42478e-06
6.04405e-15
1.01229e-05
-1.74522e-14
1.0821e-05
2.08865e-14
1.15192e-05
-2.14457e-14
1.22173e-05
1.91329e-14
1.29154e-05
-7.31923e-15
1.36136e-05
3.84837e-14
1.43117e-05
-1.2925e-14
1.50098e-05
-1.88816e-15
1.5708e-05
5.71373e-15
1.64061e-05
-7.58632e-15
1.71042e-05
2.76572e-14
1.78024e-05
1.40961e-14
1.85005e-05
-5.31407e-14
1.91986e-05
3.90841e-14
1.98967e-05
2.05949e-05
-1.49876e-15
4.53785e-06
1.08966e-14
5.23599e-06
-6.59984e-15
5.93412e-06
7.26526e-15
6.63225e-06
6.17438e-15
7.33038e-06
2.48827e-15
8.02851e-06
-9.65687e-16
8.72664e-06
-4.36597e-15
9.42478e-06
-8.90169e-15
1.01229e-05
1.38607e-14
1.0821e-05
1.06884e-14
1.15192e-05
6.24912e-15
1.22173e-05
-1.29946e-16
1.29154e-05
-3.44141e-15
1.36136e-05
-1.10451e-14
1.43117e-05
-1.77677e-14
1.50098e-05
1.76732e-14
1.5708e-05
9.9531e-15
1.64061e-05
3.32647e-15
1.71042e-05
-3.29707e-14
1.78024e-05
-1.04261e-14
1.85005e-05
3.00653e-14
1.91986e-05
-5.99954e-14
1.98967e-05
2.05949e-05
5.16991e-15
4.53785e-06
-7.45587e-15
5.23599e-06
-7.57125e-16
5.93412e-06
6.83957e-15
6.63225e-06
-9.97559e-15
7.33038e-06
-1.6659e-15
8.02851e-06
9.21837e-15
8.72664e-06
-1.34594e-14
9.42478e-06
2.32198e-14
1.01229e-05
1.047e-14
1.0821e-05
-1.72735e-14
1.15192e-05
-3.0285e-15
1.22173e-05
1.13945e-14
1.29154e-05
-1.98183e-14
1.36136e-05
-4.68071e-15
1.43117e-05
5.03058e-14
1.50098e-05
-2.40475e-14
1.5708e-05
-6.66361e-15
1.64061e-05
1.42577e-14
1.71042e-05
1.64586e-15
1.78024e-05
-6.81563e-15
1.85005e-05
1.44392e-14
1.91986e-05
5.07564e-14
1.98967e-05
2.05949e-05
-6.19751e-15
4.53785e-06
2.83143e-17
5.23599e-06
1.15117e-14
5.93412e-06
-2.06263e-14
6.63225e-06
5.36605e-15
7.33038e-06
1.2204e-15
8.02851e-06
-4.75285e-17
8.72664e-06
1.23932e-14
9.42478e-06
-1.32278e-14
1.01229e-05
-1.88963e-14
1.0821e-05
-4.96306e-15
1.15192e-05
-7.15568e-15
1.22173e-05
-1.48878e-14
1.29154e-05
3.53395e-14
1.36136e-05
-4.19385e-18
1.43117e-05
-4.31403e-14
1.50098e-05
1.35617e-14
1.5708e-05
-2.82583e-14
1.64061e-05
2.45092e-15
1.71042e-05
-1.02451e-14
1.78024e-05
2.38e-14
1.85005e-05
1.38715e-14
1.91986e-05
-4.55716e-14
1.98967e-05
2.05949e-05
-1.9069e-15
4.53785e-06
1.13061e-15
5.23599e-06
-2.16621e-14
5.93412e-06
9.62374e-15
6.63225e-06
1.5137e-14
7.33038e-06
-1.40657e-14
8.02851e-06
8.09204e-15
8.72664e-06
-2.69608e-14
9.42478e-06
-1.96648e-15
1.01229e-05
2.97154e-14
1.0821e-05
-1.17462e-14
1.15192e-05
1.98657e-14
1.22173e-05
-2.74464e-14
1.29154e-05
-2.06177e-14
1.36136e-05
1.60382e-14
1.43117e-05
-4.61532e-15
1.50098e-05
4.68839e-15
1.5708e-05
4.79663e-14
1.64061e-05
-1.37417e-14
1.71042e-05
3.23681e-14
1.78024e-05
-3.51856e-14
1.85005e-05
-2.49092e-14
1.91986e-05
7.19098e-14
1.98967e-05
2.05949e-05
1.90634e-15
4.53785e-06
-1.13068e-15
5.23599e-06
2.16618e-14
5.93412e-06
-9.62479e-15
6.63225e-06
-1.51375e-14
7.33038e-06
1.40652e-14
8.02851e-06
-8.0942e-15
8.72664e-06
2.69577e-14
9.42478e-06
1.96341e-15
1.01229e-05
-2.97184e-14
1.0821e-05
1.17443e-14
1.15192e-05
-1.98685e-14
1.22173e-05
2.74443e-14
1.29154e-05
2.06127e-14
1.36136e-05
-1.60436e-14
1.43117e-05
4.6143e-15
1.50098e-05
-4.69643e-15
1.5708e-05
-4.79672e-14
1.64061e-05
1.3738e-14
1.71042e-05
-3.23768e-14
1.78024e-05
3.51827e-14
1.85005e-05
2.49035e-14
1.91986e-05
-7.19267e-14
1.98967e-05
2.05949e-05
6.19712e-15
4.53785e-06
-2.87674e-17
5.23599e-06
-1.15121e-14
5.93412e-06
2.06255e-14
6.63225e-06
-5.36723e-15
7.33038e-06
-1.22252e-15
8.02851e-06
4.64509e-17
8.72664e-06
-1.23948e-14
9.42478e-06
1.32241e-14
1.01229e-05
1.88934e-14
1.0821e-05
4.96217e-15
1.15192e-05
7.15147e-15
1.22173e-05
1.48845e-14
1.29154e-05
-3.53404e-14
1.36136e-05
-1.38793e-18
1.43117e-05
4.31379e-14
1.50098e-05
-1.35654e-14
1.5708e-05
2.82548e-14
1.64061e-05
-2.45601e-15
1.71042e-05
1.02363e-14
1.78024e-05
-2.38067e-14
1.85005e-05
-1.38782e-14
1.91986e-05
4.55589e-14
1.98967e-05
2.05949e-05
-5.17019e-15
4.53785e-06
7.45521e-15
5.23599e-06
7.56469e-16
5.93412e-06
-6.83967e-15
6.63225e-06
9.97377e-15
7.33038e-06
1.66319e-15
8.02851e-06
-9.22024e-15
8.72664e-06
1.34581e-14
9.42478e-06
-2.32229e-14
1.01229e-05
-1.04734e-14
1.0821e-05
1.72715e-14
1.15192e-05
3.02588e-15
1.22173e-05
-1.13996e-14
1.29154e-05
1.98152e-14
1.36136e-05
4.67562e-15
1.43117e-05
-5.03084e-14
1.50098e-05
2.40437e-14
1.5708e-05
6.65278e-15
1.64061e-05
-1.42608e-14
1.71042e-05
-1.65356e-15
1.78024e-05
6.8098e-15
1.85005e-05
-1.44466e-14
1.91986e-05
-5.07609e-14
1.98967e-05
2.05949e-05
1.49859e-15
4.53785e-06
-1.08975e-14
5.23599e-06
6.59897e-15
5.93412e-06
-7.26604e-15
6.63225e-06
-6.17536e-15
7.33038e-06
-2.48917e-15
8.02851e-06
9.6408e-16
8.72664e-06
4.36458e-15
9.42478e-06
8.90098e-15
1.01229e-05
-1.38651e-14
1.0821e-05
-1.0691e-14
1.15192e-05
-6.25316e-15
1.22173e-05
1.25367e-16
1.29154e-05
3.43738e-15
1.36136e-05
1.1044e-14
1.43117e-05
1.77602e-14
1.50098e-05
-1.76827e-14
1.5708e-05
-9.9567e-15
1.64061e-05
-3.33187e-15
1.71042e-05
3.29649e-14
1.78024e-05
1.04201e-14
1.85005e-05
-3.00735e-14
1.91986e-05
5.99886e-14
1.98967e-05
2.05949e-05
-6.21596e-15
4.53785e-06
3.87871e-15
5.23599e-06
-1.54228e-14
5.93412e-06
7.06444e-15
6.63225e-06
2.21039e-15
7.33038e-06
-1.42946e-15
8.02851e-06
5.49223e-15
8.72664e-06
-1.32266e-14
9.42478e-06
-6.04699e-15
1.01229e-05
1.74499e-14
1.0821e-05
-2.08885e-14
1.15192e-05
2.14428e-14
1.22173e-05
-1.9136e-14
1.29154e-05
7.3153e-15
1.36136e-05
-3.8488e-14
1.43117e-05
1.2923e-14
1.50098e-05
1.87729e-15
1.5708e-05
-5.71785e-15
1.64061e-05
7.58474e-15
1.71042e-05
-2.76605e-14
1.78024e-05
-1.41e-14
1.85005e-05
5.31356e-14
1.91986e-05
-3.90889e-14
1.98967e-05
2.05949e-05
8.92479e-15
4.53785e-06
2.28861e-15
5.23599e-06
2.22348e-15
5.93412e-06
-6.61699e-15
6.63225e-06
3.38789e-15
7.33038e-06
3.90638e-15
8.02851e-06
6.41732e-15
8.72664e-06
7.15807e-15
9.42478e-06
-6.81072e-15
1.01229e-05
-6.98444e-15
1.0821e-05
9.06459e-15
1.15192e-05
-6.76063e-15
1.22173e-05
2.88878e-14
1.29154e-05
1.22319e-14
1.36136e-05
-4.80748e-15
1.43117e-05
-2.50264e-14
1.50098e-05
-3.86515e-15
1.5708e-05
-3.60942e-15
1.64061e-05
2.04789e-14
1.71042e-05
2.17548e-14
1.78024e-05
-3.46731e-15
1.85005e-05
-2.9046e-14
1.91986e-05
1.65608e-15
1.98967e-05
2.05949e-05
4.63029e-15
4.53785e-06
-5.7976e-15
5.23599e-06
1.61503e-14
5.93412e-06
5.97416e-15
6.63225e-06
8.55461e-15
7.33038e-06
-4.22464e-15
8.02851e-06
8.18621e-15
8.72664e-06
-6.99994e-15
9.42478e-06
2.42297e-14
1.01229e-05
7.767e-15
1.0821e-05
2.27643e-14
1.15192e-05
-8.3512e-15
1.22173e-05
7.40177e-15
1.29154e-05
-2.82687e-14
1.36136e-05
4.57091e-14
1.43117e-05
8.22093e-15
1.50098e-05
2.82254e-14
1.5708e-05
2.337e-15
1.64061e-05
6.94059e-15
1.71042e-05
-2.21539e-14
1.78024e-05
3.41061e-14
1.85005e-05
3.73617e-15
1.91986e-05
3.23408e-14
1.98967e-05
2.05949e-05
-6.71517e-15
4.53785e-06
7.30642e-15
5.23599e-06
-1.11013e-14
5.93412e-06
4.24089e-15
6.63225e-06
-1.51032e-14
7.33038e-06
5.20881e-15
8.02851e-06
-1.70143e-14
8.72664e-06
3.9399e-15
9.42478e-06
2.93927e-16
1.01229e-05
-6.61146e-15
1.0821e-05
-1.37061e-14
1.15192e-05
-1.01855e-14
1.22173e-05
-1.82185e-14
1.29154e-05
-1.43693e-14
1.36136e-05
-2.33425e-14
1.43117e-05
2.53422e-14
1.50098e-05
-2.9076e-14
1.5708e-05
7.82481e-15
1.64061e-05
-3.54195e-14
1.71042e-05
4.50749e-15
1.78024e-05
-4.23745e-14
1.85005e-05
5.81085e-16
1.91986e-05
8.73081e-15
1.98967e-05
2.05949e-05
-5.98599e-15
4.53785e-06
-2.19199e-16
5.23599e-06
6.43494e-15
5.93412e-06
-6.06452e-15
6.63225e-06
2.09124e-15
7.33038e-06
-1.61777e-14
8.02851e-06
1.88298e-14
8.72664e-06
2.35103e-15
9.42478e-06
-9.17233e-15
1.01229e-05
4.71032e-15
1.0821e-05
-2.16279e-14
1.15192e-05
2.96436e-14
1.22173e-05
9.28815e-15
1.29154e-05
1.89047e-14
1.36136e-05
-4.46896e-15
1.43117e-05
-3.01581e-14
1.50098e-05
2.62124e-14
1.5708e-05
-4.3877e-16
1.64061e-05
2.11624e-14
1.71042e-05
-1.87195e-14
1.78024e-05
3.91632e-15
1.85005e-05
2.91533e-14
1.91986e-05
-1.52337e-14
1.98967e-05
2.05949e-05
8.6758e-15
4.53785e-06
-1.22926e-14
5.23599e-06
-1.88352e-15
5.93412e-06
-8.90298e-15
6.63225e-06
5.10721e-15
7.33038e-06
2.19906e-14
8.02851e-06
-1.22656e-14
8.72664e-06
5.3727e-15
9.42478e-06
-4.4561e-15
1.01229e-05
1.43045e-14
1.0821e-05
7.3258e-15
1.15192e-05
-7.04129e-15
1.22173e-05
-2.39955e-14
1.29154e-05
7.55262e-15
1.36136e-05
-9.8012e-15
1.43117e-05
1.62346e-14
1.50098e-05
-4.02982e-14
1.5708e-05
-1.44499e-14
1.64061e-05
1.36958e-14
1.71042e-05
7.89398e-15
1.78024e-05
3.92454e-14
1.85005e-05
-4.27545e-14
1.91986e-05
8.84725e-15
1.98967e-05
2.05949e-05
-9.39919e-15
4.53785e-06
-5.20346e-16
5.23599e-06
-7.52886e-15
5.93412e-06
4.41134e-15
6.63225e-06
-3.7837e-15
7.33038e-06
-1.33852e-14
8.02851e-06
2.10901e-15
8.72664e-06
-8.5292e-15
9.42478e-06
1.00276e-14
1.01229e-05
-1.86722e-15
1.0821e-05
2.02014e-14
1.15192e-05
7.01071e-15
1.22173e-05
-7.51441e-15
1.29154e-05
-2.36104e-14
1.36136e-05
2.04031e-15
1.43117e-05
-1.48341e-14
1.50098e-05
1.38772e-14
1.5708e-05
-2.39254e-15
1.64061e-05
-2.04167e-14
1.71042e-05
7.01243e-15
1.78024e-05
-1.20735e-14
1.85005e-05
2.59435e-14
1.91986e-05
-1.84683e-15
1.98967e-05
2.05949e-05
1.1336e-14
4.53785e-06
4.80784e-16
5.23599e-06
5.35672e-15
5.93412e-06
1.13028e-14
6.63225e-06
-4.86949e-15
7.33038e-06
1.10938e-15
8.02851e-06
8.15759e-15
8.72664e-06
-1.30454e-14
9.42478e-06
-5.95102e-15
1.01229e-05
1.99541e-15
1.0821e-05
-2.43882e-14
1.15192e-05
-1.61919e-14
1.22173e-05
3.27829e-14
1.29154e-05
3.04982e-15
1.36136e-05
1.44384e-14
1.43117e-05
2.69015e-14
1.50098e-05
-7.73705e-15
1.5708e-05
4.43753e-15
1.64061e-05
1.80001e-14
1.71042e-05
-2.18253e-14
1.78024e-05
-8.21691e-15
1.85005e-05
6.08191e-15
1.91986e-05
-3.89203e-14
1.98967e-05
2.05949e-05
1.36935e-16
9.81747e-07
2.42093e-16
1.37445e-06
3.76893e-16
1.76715e-06
-1.33937e-15
2.15984e-06
-3.6818e-15
2.55254e-06
2.94524e-06
5.95131e-15
1.80151e-18
9.81747e-07
-3.88821e-16
1.37445e-06
-2.60422e-15
1.76715e-06
1.94358e-15
2.15984e-06
8.06611e-15
2.55254e-06
2.94524e-06
-9.02986e-15
-1.16482e-16
9.81747e-07
1.86363e-16
1.37445e-06
-1.56239e-15
1.76715e-06
-4.2126e-15
2.15984e-06
-7.4986e-15
2.55254e-06
2.94524e-06
7.72116e-16
8.69252e-17
9.81747e-07
-1.01933e-16
1.37445e-06
2.6932e-15
1.76715e-06
7.44275e-15
2.15984e-06
3.2598e-15
2.55254e-06
2.94524e-06
-2.79829e-15
-4.83988e-17
9.81747e-07
3.94866e-17
1.37445e-06
1.94278e-16
1.76715e-06
-1.8062e-15
2.15984e-06
-4.20847e-15
2.55254e-06
2.94524e-06
5.01331e-15
-1.80134e-16
9.81747e-07
4.28677e-18
1.37445e-06
-1.84775e-15
1.76715e-06
-3.8862e-15
2.15984e-06
3.15703e-15
2.55254e-06
2.94524e-06
4.98104e-16
2.53934e-16
9.81747e-07
2.55397e-16
1.37445e-06
2.06588e-15
1.76715e-06
4.50392e-15
2.15984e-06
-2.31006e-15
2.55254e-06
2.94524e-06
5.40692e-16
2.16296e-17
9.81747e-07
-3.21739e-16
1.37445e-06
-1.14896e-15
1.76715e-06
-5.28573e-15
2.15984e-06
-3.76902e-16
2.55254e-06
2.94524e-06
-5.63996e-15
-1.4342e-16
9.81747e-07
1.66339e-16
1.37445e-06
4.19106e-15
1.76715e-06
6.34934e-15
2.15984e-06
-8.05859e-16
2.55254e-06
2.94524e-06
8.39251e-16
-6.88149e-17
9.81747e-07
-9.20777e-17
1.37445e-06
-2.76949e-15
1.76715e-06
-3.68914e-16
2.15984e-06
-1.45102e-15
2.55254e-06
2.94524e-06
-1.76695e-16
1.6631e-16
9.81747e-07
-8.87078e-17
1.37445e-06
5.69642e-16
1.76715e-06
-2.1036e-15
2.15984e-06
9.65977e-15
2.55254e-06
2.94524e-06
5.29021e-15
-1.7781e-16
9.81747e-07
-2.05478e-17
1.37445e-06
-3.45473e-16
1.76715e-06
-4.17279e-15
2.15984e-06
-2.62247e-15
2.55254e-06
2.94524e-06
5.36928e-15
1.77763e-16
9.81747e-07
2.0457e-17
1.37445e-06
3.45426e-16
1.76715e-06
4.17261e-15
2.15984e-06
2.62232e-15
2.55254e-06
2.94524e-06
-5.36962e-15
-1.66353e-16
9.81747e-07
8.86745e-17
1.37445e-06
-5.69673e-16
1.76715e-06
2.10345e-15
2.15984e-06
-9.66013e-15
2.55254e-06
2.94524e-06
-5.29017e-15
6.87791e-17
9.81747e-07
9.20082e-17
1.37445e-06
2.76932e-15
1.76715e-06
3.68738e-16
2.15984e-06
1.45076e-15
2.55254e-06
2.94524e-06
1.76382e-16
1.43362e-16
9.81747e-07
-1.66433e-16
1.37445e-06
-4.19127e-15
1.76715e-06
-6.34956e-15
2.15984e-06
8.05571e-16
2.55254e-06
2.94524e-06
-8.39433e-16
-2.16902e-17
9.81747e-07
3.21686e-16
1.37445e-06
1.14888e-15
1.76715e-06
5.28547e-15
2.15984e-06
3.76592e-16
2.55254e-06
2.94524e-06
5.63985e-15
-2.53989e-16
9.81747e-07
-2.55438e-16
1.37445e-06
-2.06593e-15
1.76715e-06
-4.50423e-15
2.15984e-06
2.30986e-15
2.55254e-06
2.94524e-06
-5.40887e-16
1.80077e-16
9.81747e-07
-4.34787e-18
1.37445e-06
1.8478e-15
1.76715e-06
3.88605e-15
2.15984e-06
-3.15702e-15
2.55254e-06
2.94524e-06
-4.98358e-16
4.83465e-17
9.81747e-07
-3.95885e-17
1.37445e-06
-1.94409e-16
1.76715e-06
1.80596e-15
2.15984e-06
4.2085e-15
2.55254e-06
2.94524e-06
-5.01362e-15
-8.6964e-17
9.81747e-07
1.01889e-16
1.37445e-06
-2.69318e-15
1.76715e-06
-7.44281e-15
2.15984e-06
-3.25998e-15
2.55254e-06
2.94524e-06
2.79781e-15
1.16463e-16
9.81747e-07
-1.86418e-16
1.37445e-06
1.56227e-15
1.76715e-06
4.21252e-15
2.15984e-06
7.49824e-15
2.55254e-06
2.94524e-06
-7.72513e-16
-1.8492e-18
9.81747e-07
3.8871e-16
1.37445e-06
2.6041e-15
1.76715e-06
-1.94373e-15
2.15984e-06
-8.06619e-15
2.55254e-06
2.94524e-06
9.02955e-15
-1.36979e-16
-2.42122e-16
-3.77056e-16
1.33921e-15
3.68139e-15
-5.95131e-15
-1.13366e-14
4.53785e-06
-4.8142e-16
5.23599e-06
-5.35748e-15
5.93412e-06
-1.13034e-14
6.63225e-06
4.86876e-15
7.33038e-06
-1.10981e-15
8.02851e-06
-8.1589e-15
8.72664e-06
1.30429e-14
9.42478e-06
5.94802e-15
1.01229e-05
-1.99647e-15
1.0821e-05
2.43845e-14
1.15192e-05
1.61871e-14
1.22173e-05
-3.27902e-14
1.29154e-05
-3.05551e-15
1.36136e-05
-1.44448e-14
1.43117e-05
-2.69043e-14
1.50098e-05
7.73704e-15
1.5708e-05
-4.43924e-15
1.64061e-05
-1.8001e-14
1.71042e-05
2.18212e-14
1.78024e-05
8.20793e-15
1.85005e-05
-6.08618e-15
1.91986e-05
3.89151e-14
1.98967e-05
2.05949e-05
9.39904e-15
4.53785e-06
5.20013e-16
5.23599e-06
7.52794e-15
5.93412e-06
-4.41217e-15
6.63225e-06
3.78218e-15
7.33038e-06
1.33845e-14
8.02851e-06
-2.10984e-15
8.72664e-06
8.52798e-15
9.42478e-06
-1.00294e-14
1.01229e-05
1.86484e-15
1.0821e-05
-2.02035e-14
1.15192e-05
-7.01423e-15
1.22173e-05
7.50899e-15
1.29154e-05
2.36052e-14
1.36136e-05
-2.04293e-15
1.43117e-05
1.4827e-14
1.50098e-05
-1.3879e-14
1.5708e-05
2.38954e-15
1.64061e-05
2.04075e-14
1.71042e-05
-7.02368e-15
1.78024e-05
1.20662e-14
1.85005e-05
-2.59457e-14
1.91986e-05
1.84174e-15
1.98967e-05
2.05949e-05
-8.67618e-15
4.53785e-06
1.22926e-14
5.23599e-06
1.88292e-15
5.93412e-06
8.90183e-15
6.63225e-06
-5.10946e-15
7.33038e-06
-2.19915e-14
8.02851e-06
1.22639e-14
8.72664e-06
-5.37433e-15
9.42478e-06
4.45559e-15
1.01229e-05
-1.4306e-14
1.0821e-05
-7.32814e-15
1.15192e-05
7.03894e-15
1.22173e-05
2.39948e-14
1.29154e-05
-7.55702e-15
1.36136e-05
9.79766e-15
1.43117e-05
-1.62421e-14
1.50098e-05
4.02904e-14
1.5708e-05
1.44413e-14
1.64061e-05
-1.37066e-14
1.71042e-05
-7.9001e-15
1.78024e-05
-3.92482e-14
1.85005e-05
4.27461e-14
1.91986e-05
-8.85107e-15
1.98967e-05
2.05949e-05
5.98572e-15
4.53785e-06
2.18792e-16
5.23599e-06
-6.4361e-15
5.93412e-06
6.06351e-15
6.63225e-06
-2.09347e-15
7.33038e-06
1.61751e-14
8.02851e-06
-1.88314e-14
8.72664e-06
-2.35034e-15
9.42478e-06
9.17103e-15
1.01229e-05
-4.7101e-15
1.0821e-05
2.16275e-14
1.15192e-05
-2.96473e-14
1.22173e-05
-9.29099e-15
1.29154e-05
-1.89074e-14
1.36136e-05
4.46631e-15
1.43117e-05
3.01505e-14
1.50098e-05
-2.62209e-14
1.5708e-05
4.30927e-16
1.64061e-05
-2.1172e-14
1.71042e-05
1.87117e-14
1.78024e-05
-3.92173e-15
1.85005e-05
-2.91578e-14
1.91986e-05
1.52268e-14
1.98967e-05
2.05949e-05
6.71479e-15
4.53785e-06
-7.30663e-15
5.23599e-06
1.11006e-14
5.93412e-06
-4.24137e-15
6.63225e-06
1.51019e-14
7.33038e-06
-5.20927e-15
8.02851e-06
1.70126e-14
8.72664e-06
-3.94085e-15
9.42478e-06
-2.94012e-16
1.01229e-05
6.61026e-15
1.0821e-05
1.37048e-14
1.15192e-05
1.01833e-14
1.22173e-05
1.82173e-14
1.29154e-05
1.43695e-14
1.36136e-05
2.33371e-14
1.43117e-05
-2.53437e-14
1.50098e-05
2.90722e-14
1.5708e-05
-7.82925e-15
1.64061e-05
3.54132e-14
1.71042e-05
-4.5163e-15
1.78024e-05
4.23707e-14
1.85005e-05
-5.87695e-16
1.91986e-05
-8.73237e-15
1.98967e-05
2.05949e-05
-4.63057e-15
4.53785e-06
5.7974e-15
5.23599e-06
-1.61505e-14
5.93412e-06
-5.97436e-15
6.63225e-06
-8.55513e-15
7.33038e-06
4.22317e-15
8.02851e-06
-8.18766e-15
8.72664e-06
6.9996e-15
9.42478e-06
-2.42309e-14
1.01229e-05
-7.77024e-15
1.0821e-05
-2.27645e-14
1.15192e-05
8.34944e-15
1.22173e-05
-7.40534e-15
1.29154e-05
2.82647e-14
1.36136e-05
-4.57143e-14
1.43117e-05
-8.22377e-15
1.50098e-05
-2.82259e-14
1.5708e-05
-2.34105e-15
1.64061e-05
-6.94772e-15
1.71042e-05
2.21475e-14
1.78024e-05
-3.41112e-14
1.85005e-05
-3.73983e-15
1.91986e-05
-3.23494e-14
1.98967e-05
2.05949e-05
-8.92494e-15
4.53785e-06
-2.289e-15
5.23599e-06
-2.22422e-15
5.93412e-06
6.61576e-15
6.63225e-06
-3.38867e-15
7.33038e-06
-3.90741e-15
8.02851e-06
-6.41929e-15
8.72664e-06
-7.15856e-15
9.42478e-06
6.80875e-15
1.01229e-05
6.98182e-15
1.0821e-05
-9.0656e-15
1.15192e-05
6.75902e-15
1.22173e-05
-2.88891e-14
1.29154e-05
-1.22364e-14
1.36136e-05
4.80242e-15
1.43117e-05
2.50239e-14
1.50098e-05
3.85951e-15
1.5708e-05
3.60693e-15
1.64061e-05
-2.04842e-14
1.71042e-05
-2.17617e-14
1.78024e-05
3.46185e-15
1.85005e-05
2.90405e-14
1.91986e-05
-1.66579e-15
1.98967e-05
2.05949e-05
6.21583e-15
4.53785e-06
-3.87935e-15
5.23599e-06
1.54216e-14
5.93412e-06
-7.06558e-15
6.63225e-06
-2.21051e-15
7.33038e-06
1.42843e-15
8.02851e-06
-5.49379e-15
8.72664e-06
1.32255e-14
9.42478e-06
6.04405e-15
1.01229e-05
-1.74522e-14
1.0821e-05
2.08865e-14
1.15192e-05
-2.14457e-14
1.22173e-05
1.91329e-14
1.29154e-05
-7.31923e-15
1.36136e-05
3.84837e-14
1.43117e-05
-1.2925e-14
1.50098e-05
-1.88816e-15
1.5708e-05
5.71373e-15
1.64061e-05
-7.58632e-15
1.71042e-05
2.76572e-14
1.78024e-05
1.40961e-14
1.85005e-05
-5.31407e-14
1.91986e-05
3.90841e-14
1.98967e-05
2.05949e-05
-1.49876e-15
4.53785e-06
1.08966e-14
5.23599e-06
-6.59984e-15
5.93412e-06
7.26526e-15
6.63225e-06
6.17438e-15
7.33038e-06
2.48827e-15
8.02851e-06
-9.65687e-16
8.72664e-06
-4.36597e-15
9.42478e-06
-8.90169e-15
1.01229e-05
1.38607e-14
1.0821e-05
1.06884e-14
1.15192e-05
6.24912e-15
1.22173e-05
-1.29946e-16
1.29154e-05
-3.44141e-15
1.36136e-05
-1.10451e-14
1.43117e-05
-1.77677e-14
1.50098e-05
1.76732e-14
1.5708e-05
9.9531e-15
1.64061e-05
3.32647e-15
1.71042e-05
-3.29707e-14
1.78024e-05
-1.04261e-14
1.85005e-05
3.00653e-14
1.91986e-05
-5.99954e-14
1.98967e-05
2.05949e-05
5.16991e-15
4.53785e-06
-7.45587e-15
5.23599e-06
-7.57125e-16
5.93412e-06
6.83957e-15
6.63225e-06
-9.97559e-15
7.33038e-06
-1.6659e-15
8.02851e-06
9.21837e-15
8.72664e-06
-1.34594e-14
9.42478e-06
2.32198e-14
1.01229e-05
1.047e-14
1.0821e-05
-1.72735e-14
1.15192e-05
-3.0285e-15
1.22173e-05
1.13945e-14
1.29154e-05
-1.98183e-14
1.36136e-05
-4.68071e-15
1.43117e-05
5.03058e-14
1.50098e-05
-2.40475e-14
1.5708e-05
-6.66361e-15
1.64061e-05
1.42577e-14
1.71042e-05
1.64586e-15
1.78024e-05
-6.81563e-15
1.85005e-05
1.44392e-14
1.91986e-05
5.07564e-14
1.98967e-05
2.05949e-05
-6.19751e-15
4.53785e-06
2.83143e-17
5.23599e-06
1.15117e-14
5.93412e-06
-2.06263e-14
6.63225e-06
5.36605e-15
7.33038e-06
1.2204e-15
8.02851e-06
-4.75285e-17
8.72664e-06
1.23932e-14
9.42478e-06
-1.32278e-14
1.01229e-05
-1.88963e-14
1.0821e-05
-4.96306e-15
1.15192e-05
-7.15568e-15
1.22173e-05
-1.48878e-14
1.29154e-05
3.53395e-14
1.36136e-05
-4.19385e-18
1.43117e-05
-4.31403e-14
1.50098e-05
1.35617e-14
1.5708e-05
-2.82583e-14
1.64061e-05
2.45092e-15
1.71042e-05
-1.02451e-14
1.78024e-05
2.38e-14
1.85005e-05
1.38715e-14
1.91986e-05
-4.55716e-14
1.98967e-05
2.05949e-05
-1.9069e-15
4.53785e-06
1.13061e-15
5.23599e-06
-2.16621e-14
5.93412e-06
9.62374e-15
6.63225e-06
1.5137e-14
7.33038e-06
-1.40657e-14
8.02851e-06
8.09204e-15
8.72664e-06
-2.69608e-14
9.42478e-06
-1.96648e-15
1.01229e-05
2.97154e-14
1.0821e-05
-1.17462e-14
1.15192e-05
1.98657e-14
1.22173e-05
-2.74464e-14
1.29154e-05
-2.06177e-14
1.36136e-05
1.60382e-14
1.43117e-05
-4.61532e-15
1.50098e-05
4.68839e-15
1.5708e-05
4.79663e-14
1.64061e-05
-1.37417e-14
1.71042e-05
3.23681e-14
1.78024e-05
-3.51856e-14
1.85005e-05
-2.49092e-14
1.91986e-05
7.19098e-14
1.98967e-05
2.05949e-05
1.90634e-15
4.53785e-06
-1.13068e-15
5.23599e-06
2.16618e-14
5.93412e-06
-9.62479e-15
6.63225e-06
-1.51375e-14
7.33038e-06
1.40652e-14
8.02851e-06
-8.0942e-15
8.72664e-06
2.69577e-14
9.42478e-06
1.96341e-15
1.01229e-05
-2.97184e-14
1.0821e-05
1.17443e-14
1.15192e-05
-1.98685e-14
1.22173e-05
2.74443e-14
1.29154e-05
2.06127e-14
1.36136e-05
-1.60436e-14
1.43117e-05
4.6143e-15
1.50098e-05
-4.69643e-15
1.5708e-05
-4.79672e-14
1.64061e-05
1.3738e-14
1.71042e-05
-3.23768e-14
1.78024e-05
3.51827e-14
1.85005e-05
2.49035e-14
1.91986e-05
-7.19267e-14
1.98967e-05
2.05949e-05
6.19712e-15
4.53785e-06
-2.87674e-17
5.23599e-06
-1.15121e-14
5.93412e-06
2.06255e-14
6.63225e-06
-5.36723e-15
7.33038e-06
-1.22252e-15
8.02851e-06
4.64509e-17
8.72664e-06
-1.23948e-14
9.42478e-06
1.32241e-14
1.01229e-05
1.88934e-14
1.0821e-05
4.96217e-15
1.15192e-05
7.15147e-15
1.22173e-05
1.48845e-14
1.29154e-05
-3.53404e-14
1.36136e-05
-1.38793e-18
1.43117e-05
4.31379e-14
1.50098e-05
-1.35654e-14
1.5708e-05
2.82548e-14
1.64061e-05
-2.45601e-15
1.71042e-05
1.02363e-14
1.78024e-05
-2.38067e-14
1.85005e-05
-1.38782e-14
1.91986e-05
4.55589e-14
1.98967e-05
2.05949e-05
-5.17019e-15
4.53785e-06
7.45521e-15
5.23599e-06
7.56469e-16
5.93412e-06
-6.83967e-15
6.63225e-06
9.97377e-15
7.33038e-06
1.66319e-15
8.02851e-06
-9.22024e-15
8.72664e-06
1.34581e-14
9.42478e-06
-2.32229e-14
1.01229e-05
-1.04734e-14
1.0821e-05
1.72715e-14
1.15192e-05
3.02588e-15
1.22173e-05
-1.13996e-14
1.29154e-05
1.98152e-14
1.36136e-05
4.67562e-15
1.43117e-05
-5.03084e-14
1.50098e-05
2.40437e-14
1.5708e-05
6.65278e-15