/*--------------------------------*- C++ -*----------------------------------*\
  =========                 |
  \\      /  F ield         | OpenFOAM: The Open Source CFD Toolbox
   \\    /   O peration     | Website:  https://openfoam.org
    \\  /    A nd           | Version:  11
     \\/     M anipulation  |
\*---------------------------------------------------------------------------*/
FoamFile
{
    format      ascii;
    class       volScalarField;
    location    "0.98";
    object      p;
}
// * * * * * * * * * * * * * * * * * * * * * * * * * * * * * * * * * * * * * //

dimensions      [0 2 -2 0 0 0 0];

internalField   nonuniform List<scalar> 
2880
(
1.10738
1.08468
1.06261
1.04996
1.09533
1.19774
1.11066
1.08793
1.06511
1.04909
1.07293
1.11033
1.11335
1.09359
1.06984
1.05146
1.06013
1.06075
1.11365
1.09759
1.07314
1.05315
1.05061
1.03547
1.11214
1.09865
1.07396
1.05251
1.04164
1.01959
1.10961
1.09763
1.07292
1.05026
1.03311
1.00711
1.10634
1.09563
1.07079
1.04717
1.02521
0.99651
1.10255
1.09334
1.0681
1.04362
1.0179
0.987178
1.09858
1.09122
1.06523
1.03983
1.01098
0.978485
1.09488
1.0896
1.06251
1.03596
1.00422
0.969895
1.09194
1.0887
1.06016
1.03211
0.997461
0.961005
1.09017
1.08873
1.05835
1.02838
0.990599
0.951472
1.08982
1.08981
1.05719
1.02488
0.983527
0.940975
1.091
1.09192
1.05685
1.02167
0.976151
0.929202
1.09363
1.09517
1.05732
1.0189
0.968398
0.915827
1.09748
1.0994
1.05862
1.01664
0.960224
0.900437
1.10221
1.10426
1.06069
1.01495
0.951661
0.882655
1.10734
1.10932
1.06336
1.01389
0.942771
0.862082
1.11234
1.11409
1.06636
1.01355
0.933674
0.838516
1.11665
1.11808
1.06949
1.01439
0.924811
0.812024
1.1199
1.12123
1.07325
1.01775
0.917563
0.783789
1.12237
1.12453
1.07931
1.02571
0.915001
0.757752
1.12525
1.12903
1.08849
1.03677
0.920055
0.739397
1.12836
1.13233
1.09457
1.03813
0.934802
0.730387
0.926802
0.878473
0.834461
0.797519
0.762214
0.731588
0.705722
0.684106
0.665889
0.65052
0.637681
0.627119
0.618558
0.611663
0.60607
0.601456
0.5976
0.594391
0.591784
0.589754
0.58831
0.587535
0.58742
0.587258
0.953497
0.896626
0.845964
0.806361
0.769509
0.737758
0.711034
0.688756
0.670024
0.654242
0.641065
0.630226
0.621444
0.614385
0.608676
0.603981
0.600066
0.596812
0.594173
0.592131
0.590675
0.589807
0.589478
0.589445
0.957341
0.906085
0.854274
0.813053
0.775096
0.742396
0.714883
0.691959
0.672705
0.656496
0.642963
0.631828
0.622806
0.615561
0.609719
0.604932
0.600952
0.597649
0.594972
0.5929
0.591418
0.590514
0.590192
0.590202
0.95638
0.909212
0.858952
0.817207
0.778658
0.745261
0.717086
0.693576
0.673825
0.6572
0.643314
0.631875
0.622598
0.615151
0.609161
0.604272
0.600222
0.596868
0.594146
0.592024
0.590494
0.589645
0.589558
0.589486
0.953547
0.908839
0.860542
0.818828
0.780061
0.746199
0.717501
0.693487
0.673285
0.656272
0.642047
0.63031
0.620776
0.613118
0.606969
0.60197
0.597846
0.59444
0.591671
0.589484
0.587894
0.587159
0.58753
0.587293
0.949658
0.906257
0.859579
0.818059
0.77928
0.745125
0.716025
0.691589
0.670992
0.653631
0.639096
0.627079
0.617293
0.609422
0.603108
0.597994
0.593795
0.590337
0.58752
0.585258
0.583598
0.583051
0.584099
0.583593
0.94485
0.901908
0.856387
0.815038
0.776326
0.741984
0.712578
0.687795
0.666865
0.649205
0.634397
0.622126
0.612105
0.604028
0.597549
0.592317
0.588042
0.584537
0.581673
0.579331
0.577603
0.57733
0.579281
0.578321
0.939018
0.895952
0.851143
0.80985
0.771204
0.736732
0.70709
0.682026
0.660827
0.642921
0.627888
0.615399
0.60517
0.596902
0.590264
0.584915
0.580564
0.57701
0.574099
0.571667
0.569838
0.569833
0.572913
0.57172
0.932012
0.8884
0.843885
0.802505
0.763879
0.729309
0.699484
0.674204
0.652799
0.634711
0.619505
0.606846
0.596445
0.588012
0.581229
0.575767
0.571338
0.567733
0.564769
0.562222
0.56023
0.560417
0.564779
0.563751
0.923651
0.879119
0.83451
0.79292
0.754263
0.719624
0.68967
0.664237
0.6427
0.624498
0.609186
0.596415
0.585891
0.577328
0.570424
0.564863
0.560362
0.556707
0.553686
0.55101
0.548829
0.549227
0.554958
0.553928
0.913701
0.867845
0.822805
0.780923
0.742207
0.707544
0.677525
0.652021
0.630437
0.612205
0.596865
0.584054
0.573469
0.564828
0.55784
0.552205
0.547649
0.543955
0.540885
0.538083
0.535721
0.536389
0.54359
0.542318
0.901844
0.854193
0.808445
0.766244
0.72749
0.692882
0.662898
0.637428
0.615902
0.597745
0.582474
0.56971
0.559142
0.550489
0.54347
0.537799
0.533217
0.529507
0.526404
0.523491
0.52096
0.521927
0.530669
0.529084
0.887644
0.837651
0.790977
0.748491
0.709801
0.675391
0.645593
0.620304
0.598977
0.581023
0.56594
0.553332
0.542876
0.534292
0.527309
0.521657
0.517088
0.513392
0.510285
0.507283
0.504597
0.505867
0.516179
0.514266
0.870507
0.817549
0.769782
0.727138
0.688732
0.654755
0.625373
0.600469
0.579524
0.561938
0.547191
0.534868
0.52464
0.516225
0.509362
0.503794
0.499292
0.495653
0.492576
0.489521
0.486705
0.488275
0.500144
0.497917
0.84961
0.793034
0.744054
0.701516
0.66377
0.630587
0.601955
0.577717
0.557394
0.540384
0.526154
0.514276
0.504413
0.496286
0.489641
0.48424
0.47987
0.476339
0.473341
0.470278
0.467371
0.469235
0.482611
0.480118
0.823863
0.763019
0.712765
0.670791
0.634282
0.602427
0.575008
0.551817
0.532425
0.516252
0.502762
0.49152
0.482186
0.474486
0.468178
0.463041
0.458879
0.455521
0.452655
0.449644
0.446698
0.448849
0.463645
0.46097
0.791816
0.725993
0.674582
0.633941
0.59951
0.569737
0.544156
0.522514
0.504451
0.489439
0.476958
0.46658
0.457968
0.450859
0.445025
0.440264
0.436402
0.433288
0.430619
0.427728
0.424809
0.427242
0.443327
0.440599
0.751542
0.679821
0.627871
0.58976
0.558593
0.531922
0.508994
0.489548
0.473313
0.459856
0.448706
0.439459
0.431795
0.425465
0.420264
0.416009
0.412553
0.409768
0.407366
0.404668
0.401852
0.404558
0.421757
0.41915
0.700275
0.62154
0.570799
0.536921
0.510619
0.488364
0.469121
0.45267
0.43887
0.427438
0.417995
0.410188
0.403729
0.398397
0.39401
0.390413
0.387484
0.385124
0.383069
0.380645
0.378012
0.380973
0.399058
0.396798
0.634189
0.547432
0.501316
0.474098
0.454683
0.438465
0.424167
0.411662
0.401015
0.392156
0.384851
0.378833
0.373872
0.369782
0.366417
0.36365
0.361392
0.359569
0.357953
0.35589
0.35352
0.356698
0.375377
0.373765
0.548882
0.453009
0.417268
0.399991
0.389979
0.381731
0.373841
0.366377
0.3597
0.354032
0.349343
0.345501
0.342359
0.339786
0.337675
0.335939
0.334517
0.333367
0.332298
0.330694
0.328671
0.331994
0.350895
0.350369
0.437582
0.33338
0.316717
0.313604
0.315953
0.31788
0.31801
0.316791
0.314951
0.313154
0.311594
0.310343
0.309365
0.308605
0.308011
0.307534
0.307145
0.306834
0.306449
0.305426
0.303835
0.307172
0.325806
0.327108
0.279085
0.184073
0.197736
0.214407
0.232491
0.246965
0.256775
0.262995
0.266959
0.269702
0.271783
0.273552
0.275096
0.276463
0.277667
0.278708
0.279591
0.28033
0.280816
0.280547
0.279497
0.282611
0.30024
0.304811
0.022533
0.0115143
0.0634049
0.104228
0.140658
0.169659
0.190605
0.205378
0.215971
0.223906
0.230172
0.235358
0.239771
0.24358
0.24688
0.249728
0.252165
0.254232
0.255871
0.256665
0.256406
0.258901
0.274093
0.284711
-0.625755
-0.616668
-0.629921
-0.657294
-0.692614
-0.758718
-0.629207
-0.623293
-0.640621
-0.670474
-0.698819
-0.751315
-0.632816
-0.630826
-0.651863
-0.6825
-0.703375
-0.732578
-0.63635
-0.637886
-0.661661
-0.69269
-0.710987
-0.729534
-0.640417
-0.644918
-0.670315
-0.701639
-0.721975
-0.739177
-0.645061
-0.652311
-0.678409
-0.709867
-0.733409
-0.751834
-0.649964
-0.6599
-0.686017
-0.717331
-0.74348
-0.763991
-0.654797
-0.667329
-0.692957
-0.723822
-0.75178
-0.774689
-0.659295
-0.674292
-0.699059
-0.729199
-0.758246
-0.783394
-0.663272
-0.680577
-0.704229
-0.733431
-0.762821
-0.789532
-0.666624
-0.686046
-0.708458
-0.736542
-0.765527
-0.792892
-0.66933
-0.690606
-0.711854
-0.738528
-0.766561
-0.793602
-0.671429
-0.694276
-0.714547
-0.739472
-0.766181
-0.791993
-0.673016
-0.697081
-0.716557
-0.739783
-0.764554
-0.788554
-0.674224
-0.699073
-0.717868
-0.739988
-0.761904
-0.783839
-0.675189
-0.700347
-0.718668
-0.740173
-0.758867
-0.778453
-0.676032
-0.701045
-0.719233
-0.740254
-0.756574
-0.772715
-0.67684
-0.701358
-0.719769
-0.740427
-0.755618
-0.767443
-0.677657
-0.701528
-0.720465
-0.741199
-0.756003
-0.76498
-0.678473
-0.70187
-0.721557
-0.743005
-0.758164
-0.767664
-0.679103
-0.702815
-0.723305
-0.746076
-0.762858
-0.776176
-0.680048
-0.704811
-0.725789
-0.750175
-0.770005
-0.788004
-0.681217
-0.707661
-0.728237
-0.753748
-0.779126
-0.806988
-0.682215
-0.709725
-0.728917
-0.754634
-0.790474
-0.921294
-0.355271
-0.186622
-0.0864154
-0.0141371
0.0429497
0.0874209
0.120409
0.144555
0.162458
0.176147
0.18703
0.196003
0.2036
0.21014
0.21582
0.220768
0.225077
0.228826
0.232037
0.234457
0.235657
0.237411
0.248071
0.269422
-0.501496
-0.37444
-0.236791
-0.133616
-0.0567459
0.00240625
0.0475092
0.0813952
0.10703
0.126869
0.142703
0.155743
0.166762
0.17625
0.184524
0.191805
0.198258
0.204022
0.2092
0.213665
0.216999
0.220468
0.231065
0.247621
-0.586766
-0.506547
-0.365183
-0.246634
-0.154898
-0.0829253
-0.026512
0.0169369
0.0504044
0.0765837
0.0975643
0.114836
0.129404
0.141935
0.152871
0.162522
0.171116
0.178821
0.185693
0.191502
0.196122
0.202345
0.216193
0.212987
-0.664577
-0.588944
-0.469303
-0.350202
-0.249362
-0.166795
-0.10038
-0.047885
-0.00672136
0.0258191
0.0520089
0.073562
0.0916935
0.107233
0.12074
0.13259
0.143036
0.152232
0.160167
0.16654
0.171483
0.178694
0.193507
0.182036
-0.724236
-0.648166
-0.556696
-0.444404
-0.338973
-0.248093
-0.172981
-0.112188
-0.0636627
-0.0248867
0.00646525
0.0322633
0.0538979
0.0723513
0.088293
0.102165
0.114245
0.124692
0.133498
0.140418
0.145775
0.153472
0.168248
0.155071
-0.760986
-0.701711
-0.631511
-0.529053
-0.422769
-0.325969
-0.243432
-0.175214
-0.11978
-0.0749945
-0.0386036
-0.00865311
0.0163861
0.0376351
0.0558752
0.0716244
0.0852082
0.096818
0.106502
0.114129
0.120165
0.128326
0.142767
0.130411
-0.784546
-0.750797
-0.694082
-0.603371
-0.499807
-0.399561
-0.310955
-0.236173
-0.174393
-0.123926
-0.0826898
-0.0487205
-0.020395
0.00352706
0.0239393
0.0414493
0.0564516
0.0691977
0.079813
0.0882944
0.0951841
0.103828
0.117888
0.107684
-0.801808
-0.791679
-0.745255
-0.666998
-0.569054
-0.467795
-0.374668
-0.294248
-0.226795
-0.171068
-0.125242
-0.0874224
-0.0559418
-0.0294662
-0.00699463
0.0121809
0.0285421
0.0424191
0.0540238
0.0634662
0.071302
0.0804573
0.094177
0.086908
-0.814174
-0.821819
-0.78637
-0.71979
-0.629394
-0.529447
-0.433527
-0.348559
-0.276191
-0.215727
-0.165655
-0.124199
-0.089711
-0.0608017
-0.0363741
-0.0156166
0.0020507
0.0170474
0.0296734
0.0401326
0.0489588
0.0586481
0.0720754
0.0681483
-0.821957
-0.840864
-0.817673
-0.761618
-0.679554
-0.583122
-0.486263
-0.398044
-0.32165
-0.257119
-0.203264
-0.158444
-0.121128
-0.0899182
-0.0636404
-0.0413842
-0.0224712
-0.0063886
0.00725099
0.0187313
0.0285478
0.0387776
0.0519653
0.0515114
-0.825561
-0.850286
-0.838464
-0.792387
-0.718406
-0.627315
-0.531448
-0.441432
-0.362155
-0.294345
-0.237336
-0.189505
-0.149594
-0.116255
-0.0882519
-0.0645927
-0.04451
-0.0274026
-0.0127988
-0.000344382
0.010424
0.021187
0.034204
0.0371181
-0.825353
-0.851945
-0.848384
-0.811571
-0.745341
-0.660536
-0.567611
-0.477503
-0.396305
-0.32663
-0.266977
-0.216605
-0.174469
-0.139232
-0.109677
-0.0847446
-0.0635971
-0.045558
-0.0300819
-0.0167507
-0.00510122
0.00617528
0.019073
0.025038
-0.821708
-0.847308
-0.848233
-0.818694
-0.760184
-0.681758
-0.593317
-0.504903
-0.423428
-0.352342
-0.291305
-0.239028
-0.195123
-0.158303
-0.127435
-0.101408
-0.0793388
-0.0604929
-0.0442687
-0.0301871
-0.0177751
-0.00603031
0.00676941
0.0152728
-0.81511
-0.837669
-0.839551
-0.814548
-0.762925
-0.69071
-0.607575
-0.522435
-0.442267
-0.371003
-0.309239
-0.255871
-0.210861
-0.173
-0.141133
-0.114244
-0.0914358
-0.0719395
-0.0551147
-0.0404363
-0.0274309
-0.0152898
-0.00260046
0.00777589
-0.806489
-0.824103
-0.824208
-0.80106
-0.75436
-0.687946
-0.610304
-0.529435
-0.451905
-0.381727
-0.320297
-0.267102
-0.221238
-0.182825
-0.150423
-0.122999
-0.0996957
-0.0797458
-0.0624983
-0.0474025
-0.0339773
-0.0215622
-0.00901889
0.0025432
-0.796618
-0.80818
-0.804216
-0.780645
-0.736544
-0.674966
-0.60247
-0.526211
-0.452203
-0.384243
-0.324042
-0.271579
-0.226465
-0.18778
-0.155195
-0.127599
-0.104081
-0.0839105
-0.0664501
-0.0511373
-0.0374825
-0.0249349
-0.0125943
-0.000532848
-0.78646
-0.79118
-0.781729
-0.755799
-0.712309
-0.654035
-0.585895
-0.514099
-0.443926
-0.378912
-0.320751
-0.269764
-0.225643
-0.187715
-0.155476
-0.128058
-0.104647
-0.0845457
-0.0671304
-0.0518434
-0.0381929
-0.0256778
-0.0136628
-0.00173572
-0.776944
-0.774332
-0.758479
-0.728849
-0.684439
-0.62782
-0.563017
-0.495118
-0.428648
-0.366807
-0.311175
-0.262167
-0.219546
-0.182813
-0.151391
-0.124567
-0.101627
-0.0819142
-0.0648343
-0.049851
-0.0364877
-0.024251
-0.0127369
-0.00138894
-0.768433
-0.758685
-0.736005
-0.701832
-0.655405
-0.599016
-0.536417
-0.471626
-0.40845
-0.349641
-0.296634
-0.24984
-0.209059
-0.173833
-0.143601
-0.117729
-0.0955778
-0.0765425
-0.0600726
-0.0456649
-0.0328796
-0.0212195
-0.0104865
6.42408e-06
-0.761433
-0.745045
-0.715604
-0.676526
-0.627254
-0.570143
-0.508566
-0.446003
-0.385532
-0.329416
-0.278899
-0.234312
-0.195467
-0.161916
-0.133104
-0.108434
-0.0873127
-0.0691885
-0.0535604
-0.0399654
-0.0280165
-0.0172153
-0.00760486
0.00180957
-0.756614
-0.734205
-0.698285
-0.654286
-0.601765
-0.543213
-0.481737
-0.420479
-0.362016
-0.30814
-0.259824
-0.21731
-0.180362
-0.148513
-0.121201
-0.0978452
-0.0778847
-0.060812
-0.0461766
-0.0335625
-0.0226415
-0.0129281
-0.00467748
0.0034037
-0.754626
-0.726259
-0.684531
-0.636062
-0.580445
-0.519996
-0.4579
-0.397102
-0.339858
-0.287639
-0.24114
-0.200462
-0.165291
-0.135106
-0.109312
-0.0873124
-0.0685597
-0.0525806
-0.0389854
-0.0274259
-0.0176177
-0.0091204
-0.00218828
0.00425689
-0.757902
-0.719144
-0.673976
-0.622286
-0.564123
-0.501793
-0.438643
-0.377635
-0.320856
-0.269591
-0.224368
-0.185145
-0.151511
-0.122874
-0.0985774
-0.0779886
-0.0605327
-0.0457123
-0.033141
-0.0225525
-0.0137836
-0.00656725
-0.000922962
0.00359099
-0.764941
-0.710647
-0.665948
-0.612919
-0.553063
-0.489149
-0.424832
-0.363196
-0.306287
-0.255329
-0.210754
-0.172447
-0.139928
-0.112536
-0.0895521
-0.0702882
-0.0541506
-0.0406328
-0.0293104
-0.0198633
-0.0121081
-0.00595382
-0.00145681
0.00123835
-0.749206
-0.757084
-0.759031
-0.751925
-0.698458
-0.59211
-0.743778
-0.755314
-0.758143
-0.754817
-0.719281
-0.660903
-0.73329
-0.751827
-0.755226
-0.754564
-0.731159
-0.701904
-0.728201
-0.749493
-0.753725
-0.755313
-0.741301
-0.725855
-0.733971
-0.749641
-0.754589
-0.758584
-0.751777
-0.743665
-0.745411
-0.751778
-0.75742
-0.763575
-0.762518
-0.759731
-0.752842
-0.754579
-0.761336
-0.769429
-0.773206
-0.775124
-0.756196
-0.757418
-0.765744
-0.775652
-0.78364
-0.789949
-0.75901
-0.760029
-0.770294
-0.781918
-0.793631
-0.804092
-0.761905
-0.762272
-0.774679
-0.787947
-0.802931
-0.817259
-0.764624
-0.764031
-0.77863
-0.793462
-0.811255
-0.829002
-0.766731
-0.765187
-0.78198
-0.798236
-0.81832
-0.838802
-0.767912
-0.765696
-0.784634
-0.80212
-0.823869
-0.846165
-0.768039
-0.765527
-0.786606
-0.805049
-0.827726
-0.850719
-0.767144
-0.764605
-0.787893
-0.807086
-0.829847
-0.852278
-0.765359
-0.762908
-0.788556
-0.808353
-0.830351
-0.850852
-0.762884
-0.760508
-0.788808
-0.80908
-0.829512
-0.846754
-0.763691
-0.758264
-0.789007
-0.809654
-0.8279
-0.841068
-0.769643
-0.758002
-0.789443
-0.810451
-0.826488
-0.836016
-0.772954
-0.758631
-0.789704
-0.811506
-0.826725
-0.834376
-0.770814
-0.758362
-0.789151
-0.812784
-0.829657
-0.842237
-0.76397
-0.756149
-0.787216
-0.814016
-0.835222
-0.871082
-0.754233
-0.752495
-0.78461
-0.814775
-0.841696
-0.91417
-0.749531
-0.750139
-0.783966
-0.81657
-0.847542
-0.938658
-0.729051
-0.703297
-0.661082
-0.607947
-0.54701
-0.481724
-0.416173
-0.35364
-0.296221
-0.245031
-0.200536
-0.162594
-0.130672
-0.104065
-0.0820008
-0.0637432
-0.048668
-0.0362679
-0.0261143
-0.0178709
-0.0112926
-0.00628641
-0.00304226
-0.00154731
-0.719992
-0.699161
-0.660525
-0.607754
-0.5458
-0.478903
-0.411683
-0.34774
-0.289283
-0.237402
-0.192521
-0.154427
-0.122579
-0.0962675
-0.0747138
-0.0572123
-0.0431041
-0.0317777
-0.0227043
-0.0154969
-0.00990491
-0.00593706
-0.0039204
-0.00271885
-0.727263
-0.702909
-0.665612
-0.613028
-0.549598
-0.480407
-0.41069
-0.344459
-0.284146
-0.230867
-0.184977
-0.146217
-0.114002
-0.0876248
-0.0663606
-0.0494672
-0.0361823
-0.0258211
-0.0177846
-0.0117068
-0.00726884
-0.00418061
-0.00184442
0.000880523
-0.737362
-0.712873
-0.67685
-0.623986
-0.55852
-0.486114
-0.412836
-0.343256
-0.28011
-0.224635
-0.177105
-0.137163
-0.104119
-0.0771683
-0.0554808
-0.0382369
-0.0247191
-0.0143378
-0.00666349
-0.00119554
0.00247589
0.00498541
0.00758954
0.00881185
-0.749507
-0.727767
-0.69365
-0.640714
-0.572701
-0.495986
-0.417812
-0.343602
-0.276518
-0.217975
-0.168177
-0.126634
-0.0925092
-0.0648876
-0.0428686
-0.0256047
-0.0123566
-0.0024986
0.00449192
0.00907201
0.0116781
0.0130794
0.0143751
0.0127365
-0.763989
-0.746651
-0.71569
-0.663288
-0.59231
-0.510121
-0.425644
-0.345549
-0.273578
-0.211282
-0.158749
-0.115333
-0.0800108
-0.0517093
-0.0294327
-0.0122705
0.000559906
0.00970979
0.0157178
0.0190278
0.0200401
0.0193738
0.0177349
0.013086
-0.780408
-0.76895
-0.742693
-0.691607
-0.617298
-0.528465
-0.436394
-0.349376
-0.271738
-0.205336
-0.150064
-0.104986
-0.0687848
-0.0401565
-0.0179327
-0.00109379
0.0112161
0.0196861
0.024864
0.0271975
0.0270578
0.0250281
0.0214252
0.015301
-0.798157
-0.793914
-0.774043
-0.725137
-0.647065
-0.550115
-0.448731
-0.353364
-0.269655
-0.199315
-0.141846
-0.0957461
-0.0593222
-0.0309989
-0.00937207
0.0067425
0.0183277
0.0261216
0.0306495
0.0323196
0.0314366
0.028917
0.0244044
0.0189835
-0.816449
-0.820484
-0.808672
-0.762739
-0.680372
-0.573483
-0.46123
-0.357258
-0.267671
-0.193984
-0.135042
-0.0886943
-0.0527298
-0.0252406
-0.00462083
0.0104015
0.0211217
0.0283949
0.0326407
0.0340473
0.0323099
0.0290036
0.0231762
0.0197115
-0.834323
-0.847191
-0.844895
-0.802449
-0.715215
-0.597885
-0.475559
-0.364014
-0.269701
-0.193799
-0.134334
-0.0884139
-0.0533424
-0.0268942
-0.00730355
0.00640338
0.0159086
0.0228052
0.0271541
0.0294916
0.0303062
0.0293294
0.0252117
0.0230759
-0.85064
-0.872044
-0.880375
-0.840774
-0.748491
-0.622332
-0.492101
-0.375451
-0.278739
-0.202202
-0.142901
-0.0973818
-0.0628065
-0.0366757
-0.0168642
-0.00167245
0.00916337
0.0163422
0.0210454
0.0235628
0.0240747
0.0232638
0.0217715
0.0251672
-0.864186
-0.892817
-0.912233
-0.872437
-0.775151
-0.64163
-0.506419
-0.387629
-0.29079
-0.215058
-0.156602
-0.111526
-0.0766308
-0.0496246
-0.0289458
-0.0132702
-0.00157195
0.00713796
0.0136702
0.01791
0.0201788
0.0215229
0.0233142
0.0292168
-0.874021
-0.910046
-0.932889
-0.891647
-0.78792
-0.649074
-0.51191
-0.393897
-0.298843
-0.225111
-0.168083
-0.123669
-0.0888561
-0.0614047
-0.0396589
-0.0223315
-0.0088051
0.00132041
0.00908208
0.0149811
0.0198479
0.024199
0.0296653
0.0344072
-0.879094
-0.9196
-0.939983
-0.894163
-0.782281
-0.640659
-0.505204
-0.390369
-0.299005
-0.228112
-0.172941
-0.129364
-0.094682
-0.0669483
-0.0446595
-0.0266516
-0.0119495
-0.000393972
0.0085768
0.0163517
0.0228629
0.0284937
0.0357872
0.039209
-0.878975
-0.921068
-0.930364
-0.877285
-0.757681
-0.616242
-0.48535
-0.376468
-0.291296
-0.223542
-0.17054
-0.128343
-0.0943199
-0.066726
-0.0442286
-0.0257972
-0.0106242
0.0020132
0.0123605
0.0207595
0.0277004
0.0347064
0.0447197
0.0476195
-0.87376
-0.914123
-0.904939
-0.840934
-0.715781
-0.577248
-0.454034
-0.354398
-0.274738
-0.211206
-0.160905
-0.120534
-0.0877013
-0.0607937
-0.0386051
-0.0201934
-0.00483943
0.00801213
0.0187729
0.0277662
0.035475
0.0438473
0.056547
0.0586955
-0.863889
-0.894705
-0.867732
-0.78827
-0.659942
-0.527717
-0.413936
-0.323239
-0.250191
-0.191646
-0.144625
-0.106469
-0.0751632
-0.0492748
-0.0277367
-0.00971382
0.00545188
0.0182751
0.0291596
0.038395
0.0464605
0.0558239
0.0706971
0.0710647
-0.850926
-0.855787
-0.820468
-0.72294
-0.59342
-0.469763
-0.366852
-0.284773
-0.218848
-0.165557
-0.122285
-0.0868341
-0.0574874
-0.0329881
-0.0124073
0.00496895
0.0197036
0.0322509
0.04297
0.0520945
0.0601359
0.0700498
0.0863133
0.0842185
-0.835793
-0.802273
-0.758504
-0.646718
-0.518879
-0.405706
-0.313931
-0.240741
-0.181847
-0.133979
-0.0947492
-0.0623067
-0.035226
-0.0124384
0.00685754
0.0232747
0.0372921
0.0492966
0.0595989
0.0683701
0.076129
0.0862676
0.103509
0.098659
-0.814281
-0.74989
-0.681122
-0.560228
-0.438502
-0.336951
-0.256297
-0.192173
-0.140422
-0.0980934
-0.0631046
-0.0339002
-0.00930414
0.0115654
0.0293707
0.0446172
0.0577016
0.0689515
0.0786256
0.0868337
0.0940974
0.104183
0.122044
0.114381
-0.767116
-0.697661
-0.5912
-0.464537
-0.352899
-0.264264
-0.195058
-0.140095
-0.0955445
-0.05885
-0.0282508
-0.00247045
0.0194411
0.0381953
0.0543258
0.0682353
0.0802385
0.0905981
0.0995072
0.107003
0.113605
0.123413
0.141599
0.131344
-0.693108
-0.617864
-0.483118
-0.359446
-0.262433
-0.188393
-0.131116
-0.085496
-0.048219
-0.017208
0.00892722
0.0311793
0.0502825
0.0667876
0.0811077
0.093553
0.104365
0.113745
0.121811
0.128511
0.13436
0.143745
0.162077
0.149729
-0.609064
-0.481405
-0.349321
-0.245544
-0.16857
-0.110679
-0.0657513
-0.0295358
0.000499797
0.0258591
0.0475286
0.0662152
0.082448
0.0966287
0.109061
0.11997
0.129533
0.137893
0.145092
0.150976
0.156041
0.164896
0.183228
0.169619
-0.477389
-0.295123
-0.195676
-0.126465
-0.0739376
-0.0330885
-0.000458724
0.0265874
0.0496069
0.0694767
0.086773
0.101929
0.115284
0.127106
0.137603
0.14693
0.155208
0.162532
0.168881
0.173998
0.178318
0.186544
0.204683
0.191159
0.978776
1.00137
1.02729
1.0472
1.00385
0.760889
0.980881
0.997865
1.01219
1.0172
0.930479
0.753003
0.98275
0.993018
0.997381
0.991746
0.906631
0.754165
0.981326
0.988279
0.986725
0.974392
0.898226
0.766535
0.979783
0.984752
0.979952
0.964052
0.897211
0.782764
0.979092
0.982339
0.975748
0.958533
0.898651
0.79738
0.978383
0.98061
0.973207
0.955832
0.900552
0.809983
0.977495
0.979255
0.971785
0.954483
0.902568
0.820973
0.976472
0.978087
0.971078
0.953797
0.904772
0.830828
0.975386
0.976985
0.9708
0.953594
0.907383
0.839799
0.974271
0.975874
0.970794
0.953877
0.910613
0.848
0.973148
0.974858
0.970954
0.954539
0.913936
0.856349
0.972067
0.973839
0.971262
0.955741
0.917954
0.86437
0.971092
0.972862
0.971686
0.9575
0.922642
0.872133
0.970297
0.971981
0.972186
0.959768
0.927939
0.879682
0.969767
0.971261
0.972698
0.962456
0.933752
0.887014
0.969564
0.970807
0.973116
0.965442
0.939931
0.894036
0.969588
0.970715
0.973297
0.968515
0.946167
0.900424
0.969076
0.970879
0.97308
0.971284
0.951882
0.90544
0.967335
0.97082
0.972298
0.973051
0.956249
0.90826
0.965702
0.970298
0.970708
0.972788
0.958813
0.909489
0.966833
0.969061
0.968195
0.969611
0.959552
0.909949
0.970276
0.967646
0.964618
0.963315
0.955532
0.886364
0.972206
0.966286
0.960753
0.955511
0.930863
0.744026
-0.0872948
-0.103147
-0.0478091
-0.0111321
0.0174461
0.0420187
0.063194
0.0817367
0.0981968
0.112874
0.125981
0.137711
0.148236
0.157707
0.166248
0.173956
0.180911
0.187174
0.192691
0.197161
0.200903
0.208401
0.225941
0.215011
0.191043
0.0695502
0.0824493
0.0931474
0.102213
0.112847
0.124033
0.135028
0.145543
0.155424
0.164601
0.173069
0.180858
0.188016
0.194591
0.20063
0.206179
0.211285
0.215921
0.219838
0.223138
0.229271
0.244951
0.244657
0.366549
0.222512
0.196912
0.18549
0.17954
0.178958
0.181617
0.185958
0.191139
0.196661
0.202221
0.207645
0.212839
0.217757
0.222373
0.226675
0.230664
0.234363
0.237786
0.240747
0.242773
0.244732
0.254131
0.286821
0.487656
0.344545
0.293597
0.266292
0.249195
0.239717
0.235301
0.233985
0.234546
0.236225
0.238544
0.241201
0.244003
0.246821
0.249559
0.252141
0.254509
0.256642
0.258498
0.259704
0.25958
0.260334
0.273291
0.297368
0.571205
0.438629
0.37461
0.3364
0.31113
0.294913
0.284885
0.278902
0.275547
0.273906
0.273386
0.273594
0.274265
0.275205
0.276263
0.277316
0.27827
0.279074
0.279606
0.279318
0.277795
0.279259
0.29547
0.306166
0.630796
0.51058
0.441532
0.396877
0.365987
0.344776
0.330374
0.320619
0.314015
0.30957
0.306622
0.304721
0.303549
0.302869
0.30249
0.302256
0.302054
0.301818
0.301378
0.300128
0.297936
0.300069
0.31784
0.321664
0.674463
0.566571
0.497032
0.44897
0.414376
0.389583
0.371873
0.359146
0.349912
0.343152
0.338174
0.334499
0.331776
0.329738
0.328166
0.326883
0.325759
0.324718
0.32356
0.321657
0.319043
0.321447
0.339731
0.340015
0.70756
0.610986
0.543256
0.493827
0.456994
0.429736
0.409598
0.394589
0.38327
0.374638
0.368001
0.362865
0.358865
0.355713
0.353174
0.35105
0.349202
0.347545
0.34586
0.343508
0.340621
0.343122
0.361398
0.359712
0.733622
0.64692
0.582043
0.532527
0.494512
0.465665
0.443811
0.427099
0.414166
0.404054
0.396086
0.389774
0.384745
0.3807
0.377389
0.374602
0.372192
0.370064
0.367988
0.365325
0.362275
0.364786
0.382706
0.379907
0.754877
0.676557
0.614848
0.566029
0.527586
0.497809
0.474802
0.456857
0.442709
0.431452
0.422442
0.415202
0.409362
0.404616
0.400703
0.397405
0.394566
0.392086
0.389729
0.386864
0.383743
0.386212
0.4035
0.400115
0.772745
0.701424
0.64286
0.595177
0.556814
0.526591
0.502861
0.484061
0.469022
0.456903
0.447095
0.439142
0.432679
0.427397
0.423028
0.419344
0.416186
0.413451
0.4109
0.407922
0.404807
0.407193
0.423615
0.419999
0.788198
0.722627
0.667007
0.620683
0.582729
0.552398
0.528268
0.508907
0.49324
0.48049
0.470089
0.461602
0.454673
0.448994
0.444288
0.440325
0.436939
0.434027
0.431351
0.428332
0.425285
0.427551
0.442911
0.439309
0.801757
0.740956
0.688012
0.643134
0.605787
0.575579
0.551283
0.531585
0.515496
0.502301
0.491471
0.482597
0.475333
0.46937
0.464428
0.460269
0.456729
0.453701
0.450957
0.447955
0.445023
0.44713
0.46127
0.457847
0.813788
0.756969
0.706424
0.663008
0.626379
0.596441
0.572143
0.552274
0.53592
0.522423
0.511296
0.502151
0.494655
0.488499
0.483398
0.479113
0.475475
0.47238
0.469611
0.466669
0.463887
0.4658
0.478592
0.475457
0.824518
0.771067
0.722669
0.680695
0.644837
0.615255
0.591061
0.571138
0.554633
0.540942
0.529614
0.520288
0.512639
0.50636
0.501162
0.496802
0.49311
0.489984
0.48722
0.48437
0.481759
0.483446
0.494802
0.492017
0.834055
0.78354
0.737087
0.696524
0.661444
0.632259
0.608228
0.588326
0.571747
0.557936
0.546478
0.537033
0.529289
0.522937
0.517687
0.513289
0.509574
0.506442
0.503705
0.50097
0.498541
0.499975
0.509843
0.507435
0.842396
0.79457
0.749961
0.710772
0.676454
0.647664
0.623818
0.603973
0.587364
0.573477
0.561931
0.552409
0.544606
0.538217
0.532943
0.528532
0.524814
0.521692
0.518996
0.516387
0.514145
0.515309
0.523677
0.521646
0.849412
0.80428
0.761524
0.723692
0.69009
0.661662
0.637981
0.618197
0.601572
0.587627
0.576014
0.566434
0.558594
0.552184
0.546903
0.542493
0.538784
0.535679
0.53303
0.530553
0.528498
0.529394
0.536294
0.534607
0.854909
0.812837
0.771996
0.735514
0.702558
0.67442
0.650854
0.631103
0.614448
0.60044
0.588759
0.579124
0.571248
0.564824
0.55954
0.555135
0.551437
0.548352
0.54575
0.543405
0.541547
0.542224
0.547741
0.5462
0.858982
0.820479
0.781648
0.746466
0.714052
0.686098
0.662555
0.642778
0.626053
0.611958
0.600189
0.590485
0.582565
0.576117
0.570825
0.56642
0.562727
0.559652
0.557085
0.554854
0.553187
0.553699
0.557844
0.556013
0.862224
0.82744
0.790788
0.756816
0.724758
0.696833
0.673187
0.653294
0.636438
0.622208
0.610319
0.600519
0.592532
0.586045
0.580731
0.576312
0.572608
0.569525
0.566968
0.564813
0.563255
0.563486
0.566353
0.564694
0.864479
0.834293
0.799934
0.766891
0.734865
0.706734
0.682819
0.662693
0.645631
0.631209
0.619153
0.60922
0.601139
0.594589
0.589234
0.584787
0.581059
0.577955
0.575395
0.573292
0.571781
0.571666
0.573471
0.572359
0.86307
0.843426
0.810074
0.777038
0.744513
0.715861
0.691482
0.670985
0.653625
0.63895
0.62668
0.616575
0.608365
0.601726
0.596312
0.591823
0.588062
0.584929
0.582362
0.5803
0.578825
0.578425
0.579384
0.578689
0.864428
0.859148
0.821972
0.787388
0.753708
0.724195
0.699148
0.678146
0.660396
0.645401
0.63287
0.622555
0.614185
0.60743
0.601936
0.597391
0.593587
0.590419
0.587836
0.585799
0.584348
0.583729
0.584047
0.583664
)
;

boundaryField
{
    rotor
    {
        type            zeroGradient;
    }
    freestream
    {
        type            freestreamPressure;
        freestreamValue uniform 0;
        supersonic      false;
        value           nonuniform List<scalar> 
96
(
0.585991
0.589333
0.58999
0.587912
0.583116
0.575618
0.565422
0.552853
0.537981
0.520474
0.500558
0.478564
0.454721
0.429278
0.402521
0.374757
0.346314
0.317533
0.288768
0.260393
0.232821
0.206539
0.182161
0.160419
0.142664
0.123015
0.0990778
0.078969
0.0624821
0.0486203
0.0370119
0.0274398
0.0196964
0.013582
0.00889876
0.00544001
0.00299741
0.00137378
0.000402951
-7.53703e-05
-0.000217876
-0.000153443
6.17252e-07
0.000148808
0.000234745
0.00024083
0.000163347
4.47673e-05
-4.35567e-05
-5.36788e-05
8.12207e-06
1.29068e-05
1.32548e-05
0.000100029
0.000262491
0.000519413
0.000754625
0.00118259
0.00169248
0.00251063
0.00369553
0.00508505
0.00725881
0.0103349
0.014259
0.0190515
0.0249559
0.0321371
0.0407343
0.0509625
0.0630216
0.0771348
0.0937563
0.11474
0.143995
0.158813
0.174068
0.193946
0.216525
0.240956
0.266655
0.293192
0.320186
0.347288
0.374163
0.400499
0.426001
0.450398
0.473447
0.494931
0.514567
0.531802
0.547102
0.560463
0.571469
0.580011
)
;
    }
    frontAndBack
    {
        type            empty;
    }
}


// ************************************************************************* //
