/*--------------------------------*- C++ -*----------------------------------*\
  =========                 |
  \\      /  F ield         | OpenFOAM: The Open Source CFD Toolbox
   \\    /   O peration     | Website:  https://openfoam.org
    \\  /    A nd           | Version:  11
     \\/     M anipulation  |
\*---------------------------------------------------------------------------*/
FoamFile
{
    format      ascii;
    class       surfaceScalarField;
    location    "0.98";
    object      phi;
}
// * * * * * * * * * * * * * * * * * * * * * * * * * * * * * * * * * * * * * //

dimensions      [0 3 -1 0 0 0 0];

internalField   nonuniform List<scalar> 
5640
(
-5.91874e-07
5.91874e-07
-1.99546e-06
1.40359e-06
-3.64819e-06
1.65273e-06
-5.09809e-06
1.4499e-06
-6.23086e-06
1.13277e-06
-2.90492e-07
-5.94037e-06
-8.94611e-07
1.48648e-06
-2.32115e-06
2.83013e-06
-3.73802e-06
3.0696e-06
-4.96257e-06
2.67445e-06
-5.86599e-06
2.03619e-06
1.17921e-07
-6.27441e-06
-9.97082e-07
2.48357e-06
-2.29173e-06
4.12477e-06
-3.53194e-06
4.30981e-06
-4.64942e-06
3.79193e-06
-5.54337e-06
2.93014e-06
9.92191e-07
-6.41764e-06
-1.02237e-06
3.50594e-06
-2.16823e-06
5.27063e-06
-3.2866e-06
5.42818e-06
-4.33794e-06
4.84327e-06
-5.28599e-06
3.8782e-06
2.10245e-06
-6.39625e-06
-9.9991e-07
4.50585e-06
-2.00625e-06
6.27697e-06
-3.01904e-06
6.44096e-06
-4.026e-06
5.85024e-06
-5.03398e-06
4.88617e-06
3.33643e-06
-6.26796e-06
-9.41319e-07
5.44717e-06
-1.81656e-06
7.15221e-06
-2.73039e-06
7.35479e-06
-3.69858e-06
6.81843e-06
-4.74723e-06
5.93482e-06
4.6346e-06
-6.0454e-06
-8.54037e-07
6.30121e-06
-1.60285e-06
7.90103e-06
-2.41943e-06
8.17137e-06
-3.34326e-06
7.74226e-06
-4.40674e-06
6.99831e-06
5.95614e-06
-5.72829e-06
-7.43474e-07
7.04468e-06
-1.36713e-06
8.52468e-06
-2.08377e-06
8.88801e-06
-2.9514e-06
8.60989e-06
-4.00308e-06
8.04999e-06
7.26894e-06
-5.31588e-06
-6.13685e-07
7.65837e-06
-1.1106e-06
9.02159e-06
-1.72126e-06
9.49867e-06
-2.51702e-06
9.40565e-06
-3.53066e-06
9.06363e-06
8.5466e-06
-4.80832e-06
-4.68148e-07
8.12651e-06
-8.34502e-07
9.38795e-06
-1.33059e-06
9.99476e-06
-2.03636e-06
1.01114e-05
-2.98633e-06
1.00136e-05
9.76611e-06
-4.20585e-06
-3.09787e-07
8.4363e-06
-5.40592e-07
9.61875e-06
-9.11454e-07
1.03656e-05
-1.50758e-06
1.07075e-05
-2.36837e-06
1.08744e-05
1.0906e-05
-3.50825e-06
-1.4113e-07
8.57743e-06
-2.31495e-07
9.70912e-06
-4.64848e-07
1.0599e-05
-9.30361e-07
1.11731e-05
-1.67611e-06
1.16201e-05
1.19449e-05
-2.71503e-06
3.57187e-08
8.54171e-06
8.94885e-08
9.65535e-06
7.26587e-09
1.06812e-05
-3.06059e-07
1.14864e-05
-9.09956e-07
1.2224e-05
1.28605e-05
-1.82555e-06
2.13636e-07
8.32808e-06
4.19543e-07
9.44944e-06
4.99817e-07
1.06009e-05
3.62225e-07
1.1624e-05
-7.15264e-08
1.26578e-05
1.36283e-05
-8.39301e-07
3.92881e-07
7.9352e-06
7.52875e-07
9.08945e-06
1.00833e-06
1.03455e-05
1.06919e-06
1.15631e-05
8.35942e-07
1.2891e-05
1.42208e-05
2.43427e-07
5.67925e-07
7.36727e-06
1.08351e-06
8.57387e-06
1.52426e-06
9.90471e-06
1.80635e-06
1.1281e-05
1.80675e-06
1.28906e-05
1.46045e-05
1.42308e-06
7.33218e-07
6.63405e-06
1.40329e-06
7.9038e-06
2.03671e-06
9.27129e-06
2.56148e-06
1.07563e-05
2.83103e-06
1.26211e-05
1.47406e-05
2.69487e-06
8.81652e-07
5.7524e-06
1.7017e-06
7.08375e-06
2.531e-06
8.44198e-06
3.31711e-06
9.97015e-06
3.89348e-06
1.20447e-05
1.4582e-05
4.05207e-06
1.00343e-06
4.74897e-06
1.96513e-06
6.12205e-06
2.98772e-06
7.41939e-06
4.0496e-06
8.90828e-06
4.97122e-06
1.11231e-05
1.40709e-05
5.48233e-06
1.08486e-06
3.66412e-06
2.17587e-06
5.03104e-06
3.38205e-06
6.2132e-06
4.72717e-06
7.56316e-06
6.02912e-06
9.82115e-06
1.31335e-05
6.96649e-06
1.10819e-06
2.55593e-06
2.31123e-06
3.828e-06
3.68364e-06
4.8408e-06
5.30883e-06
5.93798e-06
7.01799e-06
8.11199e-06
1.16665e-05
8.485e-06
1.05618e-06
1.49974e-06
2.34546e-06
2.53873e-06
3.85797e-06
3.32828e-06
5.74308e-06
4.05287e-06
7.87434e-06
5.98072e-06
9.4849e-06
1.0056e-05
9.14192e-07
5.8555e-07
2.24234e-06
1.21058e-06
3.85839e-06
1.71223e-06
5.93634e-06
1.97492e-06
8.51418e-06
3.40288e-06
6.06694e-06
1.19321e-05
5.8555e-07
1.79613e-06
3.50836e-06
5.48328e-06
8.88616e-06
1.49531e-05
-9.30295e-06
-8.26573e-06
1.16283e-05
-1.19149e-05
-9.55692e-06
1.21688e-05
-1.44647e-05
-9.97014e-06
1.25199e-05
-1.70076e-05
-1.03893e-05
1.29322e-05
-1.95472e-05
-1.08662e-05
1.34058e-05
-2.2086e-05
-1.13849e-05
1.39237e-05
-2.46228e-05
-1.19329e-05
1.44697e-05
-2.71556e-05
-1.25016e-05
1.50344e-05
-2.96816e-05
-1.30864e-05
1.56124e-05
-3.21976e-05
-1.36848e-05
1.62008e-05
-3.47008e-05
-1.42943e-05
1.67974e-05
-3.71883e-05
-1.49127e-05
1.74002e-05
-3.96573e-05
-1.55381e-05
1.80071e-05
-4.21053e-05
-1.61686e-05
1.86166e-05
-4.45297e-05
-1.68029e-05
1.92273e-05
-4.69286e-05
-1.74399e-05
1.98388e-05
-4.93008e-05
-1.80792e-05
2.04514e-05
-5.16457e-05
-1.87208e-05
2.10657e-05
-5.39633e-05
-1.93648e-05
2.16824e-05
-5.62537e-05
-2.00112e-05
2.23017e-05
-5.8517e-05
-2.06597e-05
2.2923e-05
-6.0753e-05
-2.13102e-05
2.35463e-05
-6.29625e-05
-2.19635e-05
2.41729e-05
-2.26211e-05
2.48063e-05
-9.0597e-06
-5.48043e-06
-1.17915e-05
-6.82512e-06
-1.43998e-05
-7.36179e-06
-1.69786e-05
-7.8105e-06
-1.95464e-05
-8.2985e-06
-2.21091e-05
-8.82215e-06
-2.46673e-05
-9.37472e-06
-2.72197e-05
-9.94919e-06
-2.97638e-05
-1.05423e-05
-3.22968e-05
-1.11517e-05
-3.4816e-05
-1.17751e-05
-3.73187e-05
-1.241e-05
-3.98023e-05
-1.30545e-05
-4.22641e-05
-1.37068e-05
-4.47018e-05
-1.43652e-05
-4.71133e-05
-1.50283e-05
-4.94975e-05
-1.5695e-05
-5.18537e-05
-1.63646e-05
-5.4182e-05
-1.70365e-05
-5.64825e-05
-1.77107e-05
-5.87554e-05
-1.83869e-05
-6.10007e-05
-1.9065e-05
-6.3219e-05
-1.97452e-05
-2.04273e-05
-8.96218e-06
-2.93589e-06
-1.16373e-05
-4.15004e-06
-1.42539e-05
-4.74513e-06
-1.68452e-05
-5.21918e-06
-1.94258e-05
-5.718e-06
-2.20004e-05
-6.24748e-06
-2.45696e-05
-6.80558e-06
-2.71319e-05
-7.38685e-06
-2.9685e-05
-7.98918e-06
-3.22262e-05
-8.61058e-06
-3.47527e-05
-9.24854e-06
-3.7262e-05
-9.90067e-06
-3.97517e-05
-1.05649e-05
-4.22191e-05
-1.12394e-05
-4.46619e-05
-1.19224e-05
-4.7078e-05
-1.26122e-05
-4.94661e-05
-1.33069e-05
-5.18256e-05
-1.40051e-05
-5.41563e-05
-1.47058e-05
-5.64587e-05
-1.54084e-05
-5.87327e-05
-1.61129e-05
-6.09783e-05
-1.68193e-05
-6.31964e-05
-1.7527e-05
-1.82341e-05
-8.84178e-06
-4.90364e-07
-1.14353e-05
-1.55649e-06
-1.40266e-05
-2.15386e-06
-1.66093e-05
-2.63644e-06
-1.91873e-05
-3.14002e-06
-2.17615e-05
-3.67326e-06
-2.43309e-05
-4.23624e-06
-2.68933e-05
-4.82444e-06
-2.9446e-05
-5.43648e-06
-3.19861e-05
-6.07042e-06
-3.45111e-05
-6.72358e-06
-3.70184e-05
-7.39338e-06
-3.95056e-05
-8.0777e-06
-4.19702e-05
-8.77474e-06
-4.44099e-05
-9.4827e-06
-4.68226e-05
-1.01995e-05
-4.92066e-05
-1.09229e-05
-5.15612e-05
-1.16505e-05
-5.38863e-05
-1.23807e-05
-5.61819e-05
-1.31127e-05
-5.84484e-05
-1.38464e-05
-6.06858e-05
-1.45819e-05
-6.2895e-05
-1.53178e-05
-1.60505e-05
-8.64479e-06
1.88646e-06
-1.11612e-05
9.5993e-07
-1.3711e-05
3.95925e-07
-1.62695e-05
-7.79703e-08
-1.88314e-05
-5.78074e-07
-2.13933e-05
-1.11133e-06
-2.39522e-05
-1.67735e-06
-2.65048e-05
-2.27191e-06
-2.90476e-05
-2.89367e-06
-3.15776e-05
-3.5404e-06
-3.40921e-05
-4.20908e-06
-3.65886e-05
-4.89687e-06
-3.90648e-05
-5.60155e-06
-4.15182e-05
-6.32129e-06
-4.39466e-05
-7.05434e-06
-4.63476e-05
-7.79846e-06
-4.87196e-05
-8.55089e-06
-5.10615e-05
-9.30868e-06
-5.33728e-05
-1.00695e-05
-5.56536e-05
-1.08319e-05
-5.7904e-05
-1.15959e-05
-6.01244e-05
-1.23616e-05
-6.23156e-05
-1.31266e-05
-1.38857e-05
-8.35455e-06
4.19561e-06
-1.08e-05
3.40538e-06
-1.33001e-05
2.89599e-06
-1.5823e-05
2.44496e-06
-1.83575e-05
1.95642e-06
-2.08963e-05
1.42751e-06
-2.34345e-05
8.60857e-07
-2.59675e-05
2.61021e-07
-2.8491e-05
-3.70084e-07
-3.10019e-05
-1.02957e-06
-3.34971e-05
-1.71388e-06
-3.59741e-05
-2.41983e-06
-3.84307e-05
-3.14497e-06
-4.08645e-05
-3.88746e-06
-4.32733e-05
-4.64556e-06
-4.56547e-05
-5.41702e-06
-4.80068e-05
-6.19882e-06
-5.0328e-05
-6.98745e-06
-5.26177e-05
-7.77981e-06
-5.48756e-05
-8.57403e-06
-5.71017e-05
-9.36975e-06
-5.92963e-05
-1.0167e-05
-6.14603e-05
-1.09626e-05
-1.17485e-05
-7.96614e-06
6.43347e-06
-1.03434e-05
5.78267e-06
-1.27885e-05
5.34106e-06
-1.52673e-05
4.92378e-06
-1.77648e-05
4.45386e-06
-2.02708e-05
3.93352e-06
-2.27787e-05
3.36877e-06
-2.52827e-05
2.76499e-06
-2.77779e-05
2.12517e-06
-3.02607e-05
1.45318e-06
-3.27278e-05
7.53281e-07
-3.51768e-05
2.9156e-08
-3.76053e-05
-7.16453e-07
-4.00112e-05
-1.4816e-06
-4.23922e-05
-2.26459e-06
-4.47459e-05
-3.06327e-06
-4.70702e-05
-3.87452e-06
-4.93632e-05
-4.69448e-06
-5.16236e-05
-5.51941e-06
-5.38508e-05
-6.3468e-06
-5.60446e-05
-7.17595e-06
-5.82047e-05
-8.00695e-06
-6.03309e-05
-8.83649e-06
-9.64656e-06
-7.47739e-06
8.59498e-06
-9.78637e-06
8.09165e-06
-1.21723e-05
7.72702e-06
-1.46003e-05
7.35175e-06
-1.70526e-05
6.90615e-06
-1.95172e-05
6.3981e-06
-2.19859e-05
5.83751e-06
-2.4452e-05
5.23111e-06
-2.69102e-05
4.58332e-06
-2.93562e-05
3.8992e-06
-3.17868e-05
3.18388e-06
-3.41993e-05
2.44164e-06
-3.65913e-05
1.67562e-06
-3.89609e-05
8.87947e-07
-4.13058e-05
8.02975e-08
-4.36237e-05
-7.45319e-07
-4.59123e-05
-1.58592e-06
-4.81693e-05
-2.43752e-06
-5.03928e-05
-3.29592e-06
-5.25816e-05
-4.15797e-06
-5.4735e-05
-5.02253e-06
-5.68522e-05
-5.88977e-06
-5.89317e-05
-6.75696e-06
-7.58631e-06
-6.88695e-06
1.06736e-05
-9.12532e-06
1.033e-05
-1.14487e-05
1.00504e-05
-1.38204e-05
9.72349e-06
-1.62208e-05
9.30649e-06
-1.86363e-05
8.81359e-06
-2.10577e-05
8.25893e-06
-2.34776e-05
7.65104e-06
-2.58903e-05
6.99597e-06
-2.82912e-05
6.30013e-06
-3.06769e-05
5.56958e-06
-3.30446e-05
4.80932e-06
-3.53919e-05
4.02296e-06
-3.77168e-05
3.21288e-06
-4.00173e-05
2.3808e-06
-4.22912e-05
1.52852e-06
-4.45359e-05
6.58778e-07
-4.67488e-05
-2.24595e-07
-4.89275e-05
-1.11717e-06
-5.10703e-05
-2.01522e-06
-5.31758e-05
-2.91706e-06
-5.5243e-05
-3.82258e-06
-5.72716e-05
-4.72831e-06
-5.57775e-06
-6.19334e-06
1.26611e-05
-8.35749e-06
1.24942e-05
-1.06155e-05
1.23084e-05
-1.29268e-05
1.20348e-05
-1.52696e-05
1.16493e-05
-1.76293e-05
1.11733e-05
-1.99961e-05
1.06257e-05
-2.23621e-05
1.0017e-05
-2.47213e-05
9.35518e-06
-2.70691e-05
8.64791e-06
-2.94018e-05
7.9023e-06
-3.17166e-05
7.1241e-06
-3.40111e-05
6.31744e-06
-3.62832e-05
5.48503e-06
-3.85311e-05
4.62866e-06
-4.07525e-05
3.74999e-06
-4.29451e-05
2.85137e-06
-4.5106e-05
1.93631e-06
-4.72324e-05
1.00925e-06
-4.9322e-05
7.43369e-08
-5.1373e-05
-8.66051e-07
-5.33845e-05
-1.81111e-06
-5.53569e-05
-2.75594e-06
-3.63258e-06
-5.39474e-06
1.45476e-05
-7.48038e-06
1.45798e-05
-9.67095e-06
1.44989e-05
-1.19189e-05
1.42828e-05
-1.41999e-05
1.39303e-05
-1.64983e-05
1.34717e-05
-1.88038e-05
1.29312e-05
-2.11087e-05
1.23219e-05
-2.3407e-05
1.16535e-05
-2.5694e-05
1.09349e-05
-2.79659e-05
1.01743e-05
-3.022e-05
9.37815e-06
-3.24537e-05
8.55118e-06
-3.46652e-05
7.69646e-06
-3.68524e-05
6.81592e-06
-3.90135e-05
5.91108e-06
-4.11461e-05
4.98395e-06
-4.32473e-05
4.03757e-06
-4.53142e-05
3.0761e-06
-4.73438e-05
2.10392e-06
-4.93339e-05
1.12403e-06
-5.1283e-05
1.38011e-07
-5.31906e-05
-8.48336e-07
-1.75817e-06
-4.48904e-06
1.63216e-05
-6.49161e-06
1.65824e-05
-8.61344e-06
1.66207e-05
-1.07965e-05
1.64658e-05
-1.30127e-05
1.61465e-05
-1.52454e-05
1.57044e-05
-1.74841e-05
1.517e-05
-1.97216e-05
1.45594e-05
-2.1952e-05
1.38839e-05
-2.41709e-05
1.31538e-05
-2.63747e-05
1.2378e-05
-2.85604e-05
1.15639e-05
-3.07258e-05
1.07166e-05
-3.28689e-05
9.83953e-06
-3.49878e-05
8.93489e-06
-3.70809e-05
8.00414e-06
-3.91458e-05
7.0489e-06
-4.118e-05
6.07171e-06
-4.31801e-05
5.07623e-06
-4.51429e-05
4.06669e-06
-4.70653e-05
3.04643e-06
-4.89449e-05
2.01762e-06
-5.078e-05
9.86774e-07
3.96705e-08
-3.47395e-06
1.797e-05
-5.3887e-06
1.84971e-05
-7.4412e-06
1.86733e-05
-9.55941e-06
1.8584e-05
-1.17097e-05
1.82968e-05
-1.38736e-05
1.78683e-05
-1.60412e-05
1.73375e-05
-1.82055e-05
1.67238e-05
-2.03617e-05
1.60401e-05
-2.25057e-05
1.52977e-05
-2.46341e-05
1.45065e-05
-2.67443e-05
1.36741e-05
-2.88339e-05
1.28063e-05
-3.09013e-05
1.19069e-05
-3.29446e-05
1.09782e-05
-3.49622e-05
1.00217e-05
-3.69521e-05
9.03882e-06
-3.89118e-05
8.03138e-06
-4.0838e-05
7.00242e-06
-4.2727e-05
5.9557e-06
-4.45751e-05
4.8945e-06
-4.63787e-05
3.82129e-06
-4.81351e-05
2.74309e-06
1.75434e-06
-2.34722e-06
1.94779e-05
-4.16911e-06
2.0319e-05
-6.15257e-06
2.06567e-05
-8.20781e-06
2.06393e-05
-1.02927e-05
2.03817e-05
-1.23866e-05
1.99622e-05
-1.44796e-05
1.94305e-05
-1.65662e-05
1.88103e-05
-1.86424e-05
1.81163e-05
-2.07051e-05
1.73604e-05
-2.27514e-05
1.65527e-05
-2.47789e-05
1.57016e-05
-2.67858e-05
1.48131e-05
-2.87702e-05
1.38913e-05
-3.07307e-05
1.29387e-05
-3.26658e-05
1.19568e-05
-3.45735e-05
1.09465e-05
-3.64515e-05
9.90939e-06
-3.82966e-05
8.84758e-06
-4.0105e-05
7.76409e-06
-4.18723e-05
6.66177e-06
-4.3594e-05
5.54299e-06
-4.52657e-05
4.41484e-06
3.37956e-06
-1.10717e-06
2.08285e-05
-2.83074e-06
2.20426e-05
-4.74629e-06
2.25723e-05
-6.7421e-06
2.26351e-05
-8.76412e-06
2.24037e-05
-1.07884e-05
2.19865e-05
-1.2805e-05
2.14471e-05
-1.48101e-05
2.08154e-05
-1.68014e-05
2.01076e-05
-1.87769e-05
1.93359e-05
-2.07346e-05
1.85105e-05
-2.26728e-05
1.76398e-05
-2.45899e-05
1.67302e-05
-2.64845e-05
1.57859e-05
-2.83552e-05
1.48094e-05
-3.02006e-05
1.38022e-05
-3.20192e-05
1.27651e-05
-3.38086e-05
1.16988e-05
-3.55658e-05
1.06048e-05
-3.72868e-05
9.48515e-06
-3.8967e-05
8.34192e-06
-4.06009e-05
7.17691e-06
-4.21827e-05
5.99663e-06
4.90957e-06
2.47147e-07
2.20045e-05
-1.37271e-06
2.36625e-05
-3.22218e-06
2.44217e-05
-5.16341e-06
2.45763e-05
-7.12685e-06
2.43671e-05
-9.08366e-06
2.39433e-05
-1.10235e-05
2.33869e-05
-1.29446e-05
2.27365e-05
-1.48468e-05
2.20098e-05
-1.67298e-05
2.12189e-05
-1.85929e-05
2.03736e-05
-2.04352e-05
1.94821e-05
-2.22558e-05
1.85508e-05
-2.40536e-05
1.75837e-05
-2.58276e-05
1.65834e-05
-2.75767e-05
1.55513e-05
-2.92993e-05
1.44877e-05
-3.09934e-05
1.33929e-05
-3.26561e-05
1.22675e-05
-3.42834e-05
1.11124e-05
-3.58703e-05
9.92883e-06
-3.74108e-05
8.71745e-06
-3.88976e-05
7.48341e-06
6.33906e-06
1.71323e-06
2.29861e-05
2.02625e-07
2.51731e-05
-1.58263e-06
2.6207e-05
-3.4744e-06
2.64681e-05
-5.38487e-06
2.62776e-05
-7.27787e-06
2.58363e-05
-9.14218e-06
2.52512e-05
-1.09779e-05
2.45722e-05
-1.27877e-05
2.38196e-05
-1.45736e-05
2.30047e-05
-1.63365e-05
2.21365e-05
-1.80767e-05
2.12224e-05
-1.97941e-05
2.02682e-05
-2.14884e-05
1.9278e-05
-2.31589e-05
1.8254e-05
-2.48048e-05
1.71972e-05
-2.64248e-05
1.61077e-05
-2.80172e-05
1.49852e-05
-2.9579e-05
1.38293e-05
-3.11064e-05
1.26399e-05
-3.25943e-05
1.14167e-05
-3.40361e-05
1.01592e-05
-3.5423e-05
8.87035e-06
7.6631e-06
3.28729e-06
2.37509e-05
1.88753e-06
2.65728e-05
1.66076e-07
2.79284e-05
-1.68069e-06
2.83148e-05
-3.54384e-06
2.81408e-05
-5.37763e-06
2.76701e-05
-7.16891e-06
2.70425e-05
-8.91924e-06
2.63226e-05
-1.06343e-05
2.55347e-05
-1.2319e-05
2.46894e-05
-1.39766e-05
2.3794e-05
-1.56088e-05
2.28546e-05
-1.72168e-05
2.18761e-05
-1.88008e-05
2.0862e-05
-2.0361e-05
1.98142e-05
-2.1897e-05
1.87332e-05
-2.34078e-05
1.76186e-05
-2.4892e-05
1.64694e-05
-2.63469e-05
1.52842e-05
-2.77686e-05
1.40616e-05
-2.9152e-05
1.28001e-05
-3.04901e-05
1.14973e-05
-3.17726e-05
1.01529e-05
8.87701e-06
4.95579e-06
2.42774e-05
3.66561e-06
2.7863e-05
2.00794e-06
2.95861e-05
2.07465e-07
3.01153e-05
-1.61212e-06
2.99603e-05
-3.39123e-06
2.94492e-05
-5.11259e-06
2.87639e-05
-6.77841e-06
2.79884e-05
-8.39745e-06
2.71537e-05
-9.97793e-06
2.62699e-05
-1.15257e-05
2.53418e-05
-1.30446e-05
2.43735e-05
-1.45369e-05
2.33685e-05
-1.60042e-05
2.23293e-05
-1.74474e-05
2.12573e-05
-1.88667e-05
2.01524e-05
-2.02616e-05
1.90135e-05
-2.16311e-05
1.78389e-05
-2.2973e-05
1.6626e-05
-2.42835e-05
1.53721e-05
-2.55574e-05
1.4074e-05
-2.67871e-05
1.27271e-05
-2.79611e-05
1.13269e-05
9.97621e-06
6.69341e-06
2.45505e-05
5.50797e-06
2.90484e-05
3.92139e-06
3.11727e-05
2.17217e-06
3.18645e-05
3.97555e-07
3.1735e-05
-1.32929e-06
3.11761e-05
-2.98348e-06
3.04181e-05
-4.56629e-06
2.95712e-05
-6.0889e-06
2.86763e-05
-7.56289e-06
2.77439e-05
-8.99717e-06
2.67761e-05
-1.03979e-05
2.57742e-05
-1.17691e-05
2.47397e-05
-1.31136e-05
2.36738e-05
-1.44331e-05
2.25769e-05
-1.57289e-05
2.14482e-05
-1.70011e-05
2.02858e-05
-1.82494e-05
1.90871e-05
-1.94719e-05
1.78486e-05
-2.06655e-05
1.65657e-05
-2.1825e-05
1.52334e-05
-2.29423e-05
1.38444e-05
-2.4004e-05
1.23885e-05
1.09561e-05
8.46104e-06
2.45744e-05
7.36857e-06
3.01409e-05
5.86785e-06
3.26734e-05
4.18584e-06
3.35465e-05
2.46568e-06
3.34551e-05
7.9391e-07
3.28478e-05
-7.93806e-07
3.20058e-05
-2.29483e-06
3.10722e-05
-3.7212e-06
3.01027e-05
-5.08735e-06
2.91101e-05
-6.40539e-06
2.80941e-05
-7.68401e-06
2.70528e-05
-8.92925e-06
2.59849e-05
-1.01453e-05
2.48899e-05
-1.13352e-05
2.37668e-05
-1.25009e-05
2.26138e-05
-1.36436e-05
2.14286e-05
-1.47637e-05
2.02072e-05
-1.58603e-05
1.89451e-05
-1.69309e-05
1.76363e-05
-1.79708e-05
1.62733e-05
-1.89718e-05
1.48454e-05
-1.99182e-05
1.33348e-05
1.1812e-05
1.0198e-05
2.44325e-05
9.18297e-06
3.11559e-05
7.79309e-06
3.40633e-05
6.20603e-06
3.51336e-05
4.56293e-06
3.50982e-05
2.95868e-06
3.44521e-05
1.4415e-06
3.3523e-05
2.2515e-08
3.24912e-05
-1.30761e-06
3.14328e-05
-2.56534e-06
3.03678e-05
-3.76546e-06
2.92942e-05
-4.91925e-06
2.82066e-05
-6.03484e-06
2.71005e-05
-7.118e-06
2.59731e-05
-8.1729e-06
2.48217e-05
-9.2026e-06
2.36435e-05
-1.02093e-05
2.24352e-05
-1.11942e-05
2.11921e-05
-1.21575e-05
1.99085e-05
-1.30981e-05
1.85768e-05
-1.40124e-05
1.71877e-05
-1.48931e-05
1.57262e-05
-1.5722e-05
1.41637e-05
1.25386e-05
1.18129e-05
2.45518e-05
1.08762e-05
3.20925e-05
9.62522e-06
3.53143e-05
8.17528e-06
3.65835e-05
6.64816e-06
3.66253e-05
5.13761e-06
3.59627e-05
3.70384e-06
3.49567e-05
2.37152e-06
3.38235e-05
1.13806e-06
3.26663e-05
-1.12739e-08
3.15171e-05
-1.09293e-06
3.03759e-05
-2.12063e-06
2.92343e-05
-3.10453e-06
2.80844e-05
-4.05199e-06
2.69205e-05
-4.96837e-06
2.5738e-05
-5.85767e-06
2.45329e-05
-6.7229e-06
2.33004e-05
-7.56621e-06
2.20354e-05
-8.38882e-06
2.07311e-05
-9.19088e-06
1.93789e-05
-9.97129e-06
1.79681e-05
-1.07259e-05
1.64808e-05
-1.14366e-05
1.48744e-05
1.31302e-05
1.35589e-05
2.5946e-05
1.2522e-05
3.31294e-05
1.13089e-05
3.65275e-05
1.00313e-05
3.78611e-05
8.6735e-06
3.79831e-05
7.29666e-06
3.73395e-05
5.96989e-06
3.62835e-05
4.73472e-06
3.50587e-05
3.60139e-06
3.37996e-05
2.56068e-06
3.25578e-05
1.59675e-06
3.13398e-05
6.94569e-07
3.01365e-05
-1.57838e-07
2.89368e-05
-9.69386e-07
2.77321e-05
-1.74661e-06
2.65153e-05
-2.49432e-06
2.52806e-05
-3.21607e-06
2.40222e-05
-3.9144e-06
2.27338e-05
-4.59097e-06
2.14077e-05
-5.24643e-06
2.00344e-05
-5.88088e-06
1.86025e-05
-6.4956e-06
1.70955e-05
-7.08417e-06
1.5463e-05
1.35853e-05
4.53925e-07
-4.53925e-07
1.40694e-06
-9.53015e-07
2.64728e-06
-1.24034e-06
4.10284e-06
-1.45556e-06
5.40129e-06
-1.29845e-06
-1.3297e-06
6.73099e-06
6.81065e-07
-1.13499e-06
1.65596e-06
-1.92791e-06
2.83915e-06
-2.42352e-06
4.08443e-06
-2.70084e-06
5.15294e-06
-2.36695e-06
-1.93971e-06
5.76295e-06
7.4606e-07
-1.88105e-06
1.65421e-06
-2.83607e-06
2.72408e-06
-3.4934e-06
3.79219e-06
-3.76896e-06
4.66073e-06
-3.23549e-06
-2.20137e-06
4.92239e-06
7.36664e-07
-2.61771e-06
1.55778e-06
-3.65718e-06
2.50643e-06
-4.44204e-06
3.44894e-06
-4.71147e-06
4.2567e-06
-4.04325e-06
-2.54575e-06
4.60108e-06
6.75555e-07
-3.29327e-06
1.39964e-06
-4.38127e-06
2.22906e-06
-5.27147e-06
3.07063e-06
-5.55304e-06
3.87518e-06
-4.8478e-06
-3.16392e-06
4.49335e-06
5.80815e-07
-3.87408e-06
1.19974e-06
-5.00019e-06
1.91111e-06
-5.98284e-06
2.66403e-06
-6.30596e-06
3.46318e-06
-5.64695e-06
-3.94879e-06
4.24805e-06
4.66107e-07
-4.34019e-06
9.73146e-07
-5.50723e-06
1.56516e-06
-6.57486e-06
2.22922e-06
-6.97002e-06
3.00239e-06
-6.42011e-06
-4.81574e-06
3.86934e-06
3.40483e-07
-4.68067e-06
7.30754e-07
-5.8975e-06
1.20054e-06
-7.04464e-06
1.76842e-06
-7.53791e-06
2.49197e-06
-7.14366e-06
-5.71739e-06
3.39361e-06
2.09999e-07
-4.89067e-06
4.8063e-07
-6.16813e-06
8.24377e-07
-7.38839e-06
1.28557e-06
-7.9991e-06
1.93571e-06
-7.7938e-06
-6.60717e-06
2.8255e-06
7.90481e-08
-4.96972e-06
2.29229e-07
-6.31831e-06
4.43066e-07
-7.60222e-06
7.8555e-07
-8.34158e-06
1.3386e-06
-8.34685e-06
-7.43831e-06
2.16973e-06
-4.84383e-08
-4.92128e-06
-1.78041e-08
-6.34895e-06
6.28145e-08
-7.68284e-06
2.74775e-07
-8.55354e-06
7.08568e-07
-8.78064e-06
-8.16968e-06
1.43994e-06
-1.67671e-07
-4.75361e-06
-2.55229e-07
-6.26139e-06
-3.09641e-07
-7.62843e-06
-2.3856e-07
-8.62463e-06
5.65088e-08
-9.07571e-06
-8.76892e-06
6.55747e-07
-2.76838e-07
-4.47677e-06
-4.77748e-07
-6.06048e-06
-6.67466e-07
-7.43871e-06
-7.44341e-07
-8.54775e-06
-6.04143e-07
-9.21591e-06
-9.2118e-06
-1.61263e-07
-3.72494e-07
-4.10428e-06
-6.79958e-07
-5.75302e-06
-1.00281e-06
-7.11586e-06
-1.23314e-06
-8.31741e-06
-1.25744e-06
-9.19161e-06
-9.48197e-06
-9.87274e-07
-4.5161e-07
-3.65267e-06
-8.56552e-07
-5.34807e-06
-1.30756e-06
-6.66486e-06
-1.69461e-06
-7.93036e-06
-1.88646e-06
-8.99975e-06
-9.56852e-06
-1.79992e-06
-5.11341e-07
-3.14133e-06
-1.00259e-06
-4.85682e-06
-1.57244e-06
-6.09501e-06
-2.1153e-06
-7.38749e-06
-2.47695e-06
-8.6381e-06
-9.46836e-06
-2.57711e-06
-5.4899e-07
-2.59234e-06
-1.11324e-06
-4.29257e-06
-1.78865e-06
-5.41961e-06
-2.48067e-06
-6.69547e-06
-3.01734e-06
-8.10144e-06
-9.18848e-06
-3.29722e-06
-5.62013e-07
-2.03033e-06
-1.18393e-06
-3.67066e-06
-1.94775e-06
-4.65578e-06
-2.77646e-06
-5.86676e-06
-3.49199e-06
-7.38591e-06
-8.73681e-06
-3.94366e-06
-5.48097e-07
-1.48223e-06
-1.21035e-06
-3.0084e-06
-2.0409e-06
-3.82523e-06
-2.98693e-06
-4.92074e-06
-3.87855e-06
-6.49429e-06
-8.10333e-06
-4.51202e-06
-5.05244e-07
-9.76985e-07
-1.18828e-06
-2.32537e-06
-2.0572e-06
-2.9563e-06
-3.09581e-06
-3.88213e-06
-4.1617e-06
-5.4284e-06
-7.26524e-06
-4.99979e-06
-4.32073e-07
-5.44912e-07
-1.11346e-06
-1.64399e-06
-1.98449e-06
-2.08527e-06
-3.07984e-06
-2.78677e-06
-4.314e-06
-4.19424e-06
-6.18591e-06
-5.39334e-06
-3.28974e-07
-2.15938e-07
-9.80706e-07
-9.92253e-07
-1.80631e-06
-1.25967e-06
-2.9002e-06
-1.69289e-06
-4.29871e-06
-2.79573e-06
-4.82183e-06
-5.66278e-06
-1.9441e-07
-2.15281e-08
-7.7601e-07
-4.10653e-07
-1.49197e-06
-5.43702e-07
-2.47551e-06
-7.09351e-07
-4.00488e-06
-1.26637e-06
-3.04336e-06
-5.78335e-06
-2.15281e-08
-4.32181e-07
-9.75884e-07
-1.68523e-06
-2.9516e-06
-5.99496e-06
1.34952e-05
1.91818e-05
1.34792e-05
3.31454e-05
1.26714e-05
3.73353e-05
1.17052e-05
3.88274e-05
1.05924e-05
3.90959e-05
9.40035e-06
3.85315e-05
8.21417e-06
3.74697e-05
7.09409e-06
3.61788e-05
6.06773e-06
3.4826e-05
5.1366e-06
3.3489e-05
4.28894e-06
3.21875e-05
3.50987e-06
3.09155e-05
2.78613e-06
2.96606e-05
2.1073e-06
2.84109e-05
1.46557e-06
2.7157e-05
8.55232e-07
2.58909e-05
2.72261e-07
2.46052e-05
-2.85907e-07
2.32919e-05
-8.20485e-07
2.19422e-05
-1.33092e-06
2.05448e-05
-1.81334e-06
1.9085e-05
-2.25908e-06
1.75412e-05
-2.66931e-06
1.58732e-05
1.397e-05
1.1349e-05
1.35957e-05
1.34849e-05
3.10094e-05
1.36527e-05
3.71675e-05
1.31522e-05
3.93278e-05
1.23642e-05
3.98839e-05
1.14156e-05
3.94801e-05
1.04109e-05
3.84744e-05
9.43053e-06
3.71592e-05
8.52259e-06
3.57339e-05
7.70395e-06
3.43076e-05
6.97092e-06
3.29205e-05
6.31111e-06
3.15753e-05
5.71091e-06
3.02608e-05
5.1584e-06
2.89634e-05
4.64409e-06
2.76713e-05
4.16067e-06
2.63743e-05
3.7029e-06
2.50629e-05
3.26756e-06
2.37273e-05
2.85367e-06
2.23561e-05
2.46329e-06
2.09352e-05
2.10537e-06
1.94429e-05
1.80302e-06
1.78436e-05
1.57722e-06
1.6099e-05
1.42825e-05
9.56438e-06
8.95376e-06
1.31482e-05
2.74256e-05
1.43204e-05
3.59953e-05
1.43823e-05
3.92659e-05
1.39838e-05
4.02824e-05
1.33274e-05
4.01365e-05
1.25414e-05
3.92604e-05
1.17271e-05
3.79734e-05
1.09525e-05
3.65085e-05
1.02518e-05
3.50083e-05
9.63272e-06
3.35396e-05
9.08827e-06
3.21198e-05
8.60586e-06
3.07432e-05
8.17263e-06
2.93966e-05
7.77736e-06
2.80666e-05
7.4109e-06
2.67408e-05
7.06641e-06
2.54074e-05
6.73974e-06
2.4054e-05
6.43036e-06
2.26655e-05
6.14273e-06
2.12228e-05
5.88605e-06
1.96996e-05
5.66753e-06
1.80621e-05
5.48593e-06
1.62806e-05
1.43403e-05
8.2381e-06
5.31674e-06
1.2652e-05
2.30117e-05
1.47342e-05
3.39131e-05
1.54133e-05
3.85868e-05
1.54397e-05
4.02561e-05
1.51132e-05
4.0463e-05
1.4583e-05
3.97906e-05
1.39646e-05
3.85917e-05
1.33428e-05
3.71303e-05
1.27695e-05
3.55817e-05
1.22667e-05
3.40424e-05
1.18356e-05
3.25509e-05
1.14672e-05
3.11116e-05
1.11493e-05
2.97145e-05
1.08701e-05
2.83457e-05
1.06202e-05
2.69907e-05
1.03929e-05
2.56347e-05
1.01852e-05
2.42617e-05
9.99808e-06
2.28526e-05
9.83649e-06
2.13844e-05
9.70765e-06
1.98284e-05
9.61833e-06
1.81514e-05
9.57897e-06
1.632e-05
1.42982e-05
7.23478e-06
2.57531e-06
1.19437e-05
1.83027e-05
1.4873e-05
3.09838e-05
1.62262e-05
3.72336e-05
1.6719e-05
3.97633e-05
1.67564e-05
4.04256e-05
1.65153e-05
4.00317e-05
1.61227e-05
3.89844e-05
1.56769e-05
3.75761e-05
1.52455e-05
3.60131e-05
1.48654e-05
3.44225e-05
1.4549e-05
3.28673e-05
1.42936e-05
3.1367e-05
1.40897e-05
2.99185e-05
1.39267e-05
2.85087e-05
1.3796e-05
2.71214e-05
1.3692e-05
2.57387e-05
1.36126e-05
2.4341e-05
1.35589e-05
2.29063e-05
1.35341e-05
2.14092e-05
1.35416e-05
1.9821e-05
1.35847e-05
1.81083e-05
1.36708e-05
1.62339e-05
1.41514e-05
6.47601e-06
3.47356e-07
1.10364e-05
1.37423e-05
1.47082e-05
2.7312e-05
1.67806e-05
3.51612e-05
1.77936e-05
3.87504e-05
1.82274e-05
3.99917e-05
1.83089e-05
3.99503e-05
1.81748e-05
3.91184e-05
1.79333e-05
3.78176e-05
1.76642e-05
3.62821e-05
1.74191e-05
3.46676e-05
1.72234e-05
3.3063e-05
1.70832e-05
3.15072e-05
1.69943e-05
3.00074e-05
1.69488e-05
2.85542e-05
1.69397e-05
2.71305e-05
1.69623e-05
2.57161e-05
1.70147e-05
2.42886e-05
1.70967e-05
2.28243e-05
1.72083e-05
2.12976e-05
1.73492e-05
1.96801e-05
1.75197e-05
1.79378e-05
1.77244e-05
1.60292e-05
1.38978e-05
5.84232e-06
-1.62562e-06
1.00129e-05
9.57179e-06
1.42292e-05
2.30957e-05
1.70255e-05
3.23649e-05
1.86177e-05
3.71582e-05
1.94892e-05
3.91202e-05
1.9929e-05
3.95105e-05
2.00892e-05
3.89581e-05
2.00845e-05
3.78223e-05
2.00044e-05
3.63622e-05
1.99132e-05
3.47589e-05
1.98496e-05
3.31266e-05
1.9831e-05
3.15258e-05
1.98605e-05
2.99778e-05
1.99347e-05
2.848e-05
2.00487e-05
2.70165e-05
2.01987e-05
2.55661e-05
2.03824e-05
2.41049e-05
2.05975e-05
2.26092e-05
2.0841e-05
2.10541e-05
2.11096e-05
1.94115e-05
2.14013e-05
1.76461e-05
2.1719e-05
1.57114e-05
1.35405e-05
5.2449e-06
-3.47691e-06
8.94171e-06
5.87498e-06
1.34274e-05
1.861e-05
1.69042e-05
2.88882e-05
1.91313e-05
3.49311e-05
2.04955e-05
3.7756e-05
2.13332e-05
3.86728e-05
2.1826e-05
3.84653e-05
2.20953e-05
3.7553e-05
2.22371e-05
3.62205e-05
2.23256e-05
3.46704e-05
2.24123e-05
3.30399e-05
2.25268e-05
3.14113e-05
2.26815e-05
2.98231e-05
2.28788e-05
2.82826e-05
2.31171e-05
2.67783e-05
2.33936e-05
2.52896e-05
2.37054e-05
2.37931e-05
2.40488e-05
2.22658e-05
2.44184e-05
2.06845e-05
2.48084e-05
1.90215e-05
2.52148e-05
1.72397e-05
2.56391e-05
1.52871e-05
1.30854e-05
4.59386e-06
-5.24528e-06
7.83858e-06
2.63026e-06
1.23226e-05
1.4126e-05
1.63707e-05
2.484e-05
1.92644e-05
3.20374e-05
2.11848e-05
3.58356e-05
2.2469e-05
3.73886e-05
2.33364e-05
3.75979e-05
2.39209e-05
3.69685e-05
2.43231e-05
3.58183e-05
2.46246e-05
3.43689e-05
2.48875e-05
3.27769e-05
2.51532e-05
3.11456e-05
2.54445e-05
2.95319e-05
2.57712e-05
2.79559e-05
2.61359e-05
2.64136e-05
2.65377e-05
2.48878e-05
2.69739e-05
2.33569e-05
2.744e-05
2.17997e-05
2.79293e-05
2.01952e-05
2.84341e-05
1.85167e-05
2.89485e-05
1.67254e-05
2.94721e-05
1.47634e-05
1.25405e-05
3.83945e-06
-6.915e-06
6.70355e-06
-2.33834e-07
1.09701e-05
9.85946e-06
1.54017e-05
2.04083e-05
1.89448e-05
2.84944e-05
2.1479e-05
3.33014e-05
2.327e-05
3.55976e-05
2.45628e-05
3.63051e-05
2.55098e-05
3.60214e-05
2.62142e-05
3.51139e-05
2.67674e-05
3.38157e-05
2.724e-05
3.23043e-05
2.76828e-05
3.07028e-05
2.81288e-05
2.90859e-05
2.85962e-05
2.74886e-05
2.90928e-05
2.5917e-05
2.96207e-05
2.43599e-05
3.01786e-05
2.27991e-05
3.07624e-05
2.12159e-05
3.13653e-05
1.95922e-05
3.19784e-05
1.79036e-05
3.25938e-05
1.611e-05
3.3209e-05
1.41482e-05
1.19148e-05
2.9748e-06
-8.44986e-06
5.52206e-06
-2.78109e-06
9.44065e-06
5.94087e-06
1.40045e-05
1.58445e-05
1.81113e-05
2.43877e-05
2.12909e-05
3.01217e-05
2.36526e-05
3.32359e-05
2.54242e-05
3.45335e-05
2.67897e-05
3.4656e-05
2.78645e-05
3.40391e-05
2.87064e-05
3.29738e-05
2.94256e-05
3.15851e-05
3.00781e-05
3.00503e-05
3.07043e-05
2.84597e-05
3.13302e-05
2.68626e-05
3.197e-05
2.52772e-05
3.26296e-05
2.37003e-05
3.33099e-05
2.21188e-05
3.40084e-05
2.05174e-05
3.47201e-05
1.88806e-05
3.54355e-05
1.71881e-05
3.61451e-05
1.54004e-05
3.68437e-05
1.34497e-05
1.12185e-05
2.01479e-06
-9.8089e-06
4.27583e-06
-5.04213e-06
7.79253e-06
2.42417e-06
1.22403e-05
1.13967e-05
1.6735e-05
1.9893e-05
2.05391e-05
2.63177e-05
2.35221e-05
3.0253e-05
2.58385e-05
3.22171e-05
2.76617e-05
3.28327e-05
2.91572e-05
3.25437e-05
3.03949e-05
3.1736e-05
3.13992e-05
3.05808e-05
3.22958e-05
2.91537e-05
3.31325e-05
2.7623e-05
3.39415e-05
2.60536e-05
3.47426e-05
2.44761e-05
3.55458e-05
2.28971e-05
3.6355e-05
2.13096e-05
3.71703e-05
1.97022e-05
3.79885e-05
1.80624e-05
3.88025e-05
1.63741e-05
3.96008e-05
1.46022e-05
4.03751e-05
1.26753e-05
1.04613e-05
9.85473e-07
-1.09556e-05
2.96265e-06
-7.01931e-06
6.06604e-06
-6.79225e-07
1.02195e-05
7.24322e-06
1.48457e-05
1.52668e-05
1.91654e-05
2.19979e-05
2.27851e-05
2.66333e-05
2.57065e-05
2.92956e-05
2.80647e-05
3.04745e-05
3.00003e-05
3.06081e-05
3.16716e-05
3.00647e-05
3.30834e-05
2.9169e-05
3.42719e-05
2.79652e-05
3.53581e-05
2.65368e-05
3.6383e-05
2.50287e-05
3.73721e-05
2.34869e-05
3.834e-05
2.19292e-05
3.92935e-05
2.03561e-05
4.0235e-05
1.87606e-05
4.11642e-05
1.71332e-05
4.20769e-05
1.54614e-05
4.29618e-05
1.37172e-05
4.38069e-05
1.18303e-05
9.65262e-06
-8.39501e-08
-1.1859e-05
1.60257e-06
-8.70583e-06
4.29845e-06
-3.3751e-06
8.05812e-06
3.48355e-06
1.25556e-05
1.07693e-05
1.71722e-05
1.73814e-05
2.13615e-05
2.24441e-05
2.492e-05
2.5737e-05
2.78834e-05
2.75112e-05
3.03545e-05
2.81369e-05
3.24506e-05
2.79686e-05
3.42917e-05
2.73279e-05
3.58926e-05
2.63643e-05
3.72929e-05
2.51366e-05
3.85825e-05
2.37391e-05
3.9799e-05
2.22704e-05
4.0964e-05
2.07642e-05
4.20886e-05
1.92315e-05
4.31777e-05
1.76715e-05
4.4233e-05
1.60779e-05
4.52532e-05
1.44412e-05
4.62299e-05
1.27405e-05
4.7147e-05
1.09132e-05
8.79782e-06
-1.14894e-06
-1.25099e-05
2.32334e-07
-1.00871e-05
2.53134e-06
-5.67411e-06
5.84869e-06
1.66199e-07
1.00293e-05
6.5886e-06