/*--------------------------------*- C++ -*----------------------------------*\
  =========                 |
  \\      /  F ield         | OpenFOAM: The Open Source CFD Toolbox
   \\    /   O peration     | Website:  https://openfoam.org
    \\  /    A nd           | Version:  11
     \\/     M anipulation  |
\*---------------------------------------------------------------------------*/
FoamFile
{
    format      ascii;
    class       volScalarField;
    location    "0.14";
    object      k;
}
// * * * * * * * * * * * * * * * * * * * * * * * * * * * * * * * * * * * * * //

dimensions      [0 2 -2 0 0 0 0];

internalField   nonuniform List<scalar> 
2880
(
0.00804024
0.0115829
0.0132261
0.0160909
0.0272934
0.0993455
0.0235337
0.0306331
0.0317576
0.0375356
0.0632935
0.1444
0.0309727
0.0392995
0.0436173
0.0548941
0.0931271
0.182215
0.0358265
0.0467471
0.0545771
0.0713095
0.118668
0.205389
0.0394036
0.0540452
0.0655631
0.0866151
0.139143
0.21871
0.042252
0.0612315
0.0761001
0.100577
0.154556
0.224699
0.0446396
0.0682678
0.0859648
0.113082
0.165616
0.225764
0.0466712
0.0750308
0.0950684
0.123911
0.173379
0.224484
0.048389
0.0813701
0.103362
0.133088
0.178666
0.221091
0.0498144
0.0871606
0.110815
0.140788
0.182191
0.216977
0.0509643
0.0922887
0.117411
0.147228
0.184494
0.212787
0.0518581
0.0966463
0.123146
0.152629
0.18602
0.208935
0.0525222
0.100109
0.128019
0.157188
0.187156
0.205711
0.0526746
0.102738
0.132033
0.161083
0.188188
0.203332
0.0524091
0.104512
0.135186
0.164459
0.189364
0.202042
0.0515618
0.105375
0.137454
0.167368
0.190931
0.202121
0.0501234
0.105241
0.138771
0.169757
0.19296
0.203168
0.0480124
0.103955
0.138983
0.171391
0.19526
0.205615
0.0451201
0.101259
0.137888
0.171837
0.197313
0.208934
0.0412934
0.0967123
0.135066
0.170409
0.198016
0.211771
0.0363045
0.0895811
0.129852
0.166061
0.19571
0.211863
0.0297873
0.0785177
0.121033
0.157061
0.187032
0.206449
0.0206704
0.0604892
0.106032
0.140275
0.166462
0.18476
0.00793613
0.0369272
0.0831484
0.112773
0.126789
0.118494
0.317252
0.31791
0.225392
0.151747
0.100066
0.0685126
0.0497567
0.0381131
0.0303492
0.0248145
0.0206638
0.0174458
0.014897
0.0128466
0.0111761
0.00979962
0.00865353
0.00768984
0.00687164
0.00616855
0.00555339
0.00500632
0.00451877
0.00408017
0.29085
0.305837
0.222869
0.151829
0.101054
0.0694448
0.050508
0.0387551
0.0309523
0.0254176
0.0212811
0.0180771
0.0155351
0.0134818
0.0117982
0.0103987
0.00922009
0.00821453
0.00734515
0.00658149
0.00589619
0.00526941
0.00469377
0.00415755
0.273057
0.287033
0.218282
0.150503
0.101186
0.0700226
0.0511024
0.0393175
0.031509
0.0259913
0.0218804
0.0186997
0.0161731
0.0141249
0.0124357
0.0110201
0.00981505
0.00877285
0.00785634
0.00703451
0.00627912
0.00556926
0.00489749
0.00424779
0.260665
0.268972
0.211632
0.148248
0.100861
0.070351
0.0515731
0.0398123
0.0320232
0.0265356
0.0224593
0.0193102
0.0168068
0.0147714
0.013084
0.0116594
0.0104344
0.00936147
0.00840275
0.0075263
0.00670225
0.00590733
0.00513211
0.00435212
0.250816
0.252789
0.203133
0.145529
0.10026
0.0705233
0.0519632
0.0402594
0.0325038
0.0270537
0.0230182
0.0199069
0.0174336
0.0154181
0.0137398
0.0123131
0.011075
0.00997749
0.00898209
0.00805544
0.00716533
0.00628473
0.00539957
0.00447166
0.242308
0.23846
0.194546
0.142341
0.0994714
0.0706136
0.0523145
0.0406806
0.0329617
0.027551
0.0235591
0.0204899
0.0180524
0.0160635
0.0144012
0.0129795
0.0117352
0.0106196
0.00959335
0.00862145
0.00766875
0.00670294
0.00570206
0.00460739
0.234543
0.22579
0.186267
0.138858
0.0985671
0.0706748
0.0526598
0.0410954
0.0334078
0.028033
0.0240845
0.0210603
0.0186635
0.0167076
0.0150688
0.0136598
0.0124168
0.0112902
0.0102395
0.00922755
0.00821599
0.00716598
0.00604363
0.00476069
0.22732
0.214618
0.178521
0.13521
0.0976043
0.0707381
0.0530213
0.0415187
0.0338512
0.0285049
0.0245971
0.0216192
0.0192678
0.0173522
0.0157455
0.0143591
0.0131273
0.0119992
0.0109323
0.00988693
0.00882081
0.00768756
0.00643669
0.00493611
0.220532
0.204813
0.171435
0.131701
0.0966574
0.0708285
0.0534136
0.0419615
0.0342992
0.0289704
0.0250982
0.0221669
0.0198658
0.0179988
0.0164358
0.0150856
0.0138806
0.0127673
0.0117004
0.0106361
0.00952673
0.00831631
0.00693039
0.00516367
0.214206
0.196277
0.165075
0.128513
0.0957964
0.0709739
0.0538506
0.0424325
0.0347571
0.029432
0.0255879
0.022702
0.0204556
0.0186467
0.0171417
0.0158469
0.0146928
0.0136241
0.0125924
0.0115507
0.0104467
0.00921552
0.00775498
0.00573659
0.208425
0.188957
0.159482
0.125676
0.0950634
0.0711956
0.0543484
0.0429429
0.0352313
0.0298917
0.026065
0.0232206
0.0210314
0.0192893
0.0178573
0.0166402
0.0155686
0.0145889
0.0136566
0.0127341
0.0117939
0.0108416
0.00998657
0.00951977
0.203358
0.182803
0.154675
0.123224
0.0944973
0.0715195
0.0549248
0.0435059
0.0357302
0.0303535
0.0265286
0.023718
0.0215847
0.0199147
0.0185673
0.0174477
0.0164895
0.0156462
0.0148862
0.0141918
0.0135627
0.0130322
0.0127074
0.012743
0.199189
0.177804
0.15068
0.121205
0.0941377
0.0719748
0.0556024
0.0441399
0.0362675
0.0308253
0.0269817
0.0241921
0.0221093
0.0205118
0.0192559
0.0182471
0.0174233
0.0167459
0.016195
0.0157662
0.015468
0.0153252
0.0153881
0.0156651
0.196115
0.17401
0.147551
0.11964
0.0939982
0.0725902
0.0564099
0.0448712
0.0368644
0.0313221
0.0274336
0.0246473
0.0226048
0.0210763
0.019914
0.0190234
0.0183456
0.0178477
0.0175151
0.0173459
0.017343
0.0175008
0.017834
0.0182728
0.194343
0.171541
0.145375
0.118614
0.0941
0.0733942
0.0573816
0.0457342
0.0375513
0.0318685
0.0279022
0.0250958
0.0230786
0.0216106
0.0205383
0.0197659
0.0192356
0.0189165
0.018795
0.0188611
0.0191066
0.0195199
0.0200633
0.0206332
0.194244
0.170822
0.144446
0.118432
0.094653
0.0744743
0.0585746
0.0467785
0.0383721
0.0325005
0.028416
0.0255594
0.0235462
0.0221239
0.0211313
0.0204684
0.0200766
0.0199246
0.0199894
0.0202605
0.0207345
0.0213626
0.0220928
0.0227917
0.195476
0.171479
0.144681
0.119013
0.0957587
0.0759352
0.0600704
0.0480735
0.0393876
0.0332698
0.0290169
0.026071
0.0240329
0.0226345
0.0217033
0.0211328
0.0208608
0.0208538
0.0210658
0.0215274
0.0221941
0.0230136
0.0239203
0.0247558
0.198826
0.174531
0.146772
0.120787
0.0976426
0.0779384
0.0619903
0.0497188
0.0406834
0.0342488
0.0297641
0.026678
0.0245761
0.0231712
0.0222755
0.0217727
0.0215954
0.021687
0.0220307
0.0226424
0.0234701
0.0244581
0.0255327
0.0265147
0.203891
0.180148
0.151078
0.124196
0.100656
0.0807411
0.0645235
0.0518625
0.0423824
0.0355397
0.0307408
0.0274468
0.025229
0.023777
0.0228826
0.0224151
0.0222992
0.0224512
0.0228869
0.0236064
0.0245582
0.0256858
0.0269141
0.0280499
0.209827
0.187974
0.157832
0.129718
0.105283
0.084741
0.067972
0.0547359
0.0446687
0.0372916
0.0320665
0.0284724
0.0260673
0.0245136
0.0235762
0.0231044
0.0230109
0.0231845
0.0236619
0.0244413
0.0254709
0.0266981
0.028054
0.0293442
0.214938
0.196378
0.1664
0.137449
0.111967
0.0904483
0.0727871
0.0587031
0.047831
0.0397341
0.0339216
0.0298947
0.0272001
0.0254689
0.0244309
0.0239069
0.0237911
0.0239481
0.0244101
0.0251939
0.0262443
0.0275172
0.0289578
0.0303911
0.216371
0.201947
0.174708
0.146463
0.120606
0.0982111
0.0794794
0.0642753
0.0523158
0.0432329
0.0365944
0.0319355
0.0287963
0.0267742
0.0255549
0.0249172
0.0247269
0.0248323
0.0252185
0.025945
0.0269496
0.0281998
0.0296622
0.0312101
0.210984
0.200871
0.179713
0.154706
0.130124
0.107741
0.0882771
0.0719462
0.0586993
0.0483356
0.0405508
0.034963
0.0311363
0.0286413
0.0271118
0.0262713
0.0259383
0.0259618
0.0262209
0.0268171
0.027708
0.0288571
0.0302582
0.0318695
0.191136
0.191782
0.179156
0.160132
0.138995
0.118183
0.0989454
0.0819526
0.067518
0.0557177
0.0464739
0.0395782
0.0346967
0.0314268
0.0293668
0.0281748
0.0276001
0.0274789
0.0276031
0.0279956
0.0287103
0.0296787
0.0309204
0.0325212
0.00434477
0.0125869
0.0250809
0.0382883
0.0509421
0.0723362
0.0174323
0.0325849
0.0483187
0.0616134
0.0735001
0.0888933
0.0215545
0.0427546
0.0605936
0.0748336
0.0872899
0.100966
0.0236047
0.0497939
0.068993
0.0841058
0.0972249
0.110425
0.0250567
0.055439
0.0755065
0.0913433
0.10507
0.118257
0.0267204
0.0601991
0.0808161
0.0972554
0.111518
0.124868
0.0292625
0.0641071
0.0852097
0.102161
0.116889
0.130453
0.0313291
0.0673097
0.0888279
0.10622
0.121353
0.135126
0.0330009
0.0698712
0.0917438
0.109522
0.12501
0.138978
0.0342883
0.0718219
0.0939967
0.11212
0.12793
0.142084
0.0351931
0.0731753
0.0956062
0.114044
0.13016
0.144514
0.0357123
0.0739345
0.0965795
0.115311
0.131737
0.146333
0.0358396
0.074096
0.0969129
0.115925
0.132685
0.1476
0.0355677
0.0736502
0.0965946
0.115877
0.133016
0.148367
0.0348827
0.0725814
0.095601
0.115142
0.132723
0.148678
0.0337746
0.0708673
0.0938964
0.113677
0.131778
0.148563
0.0322346
0.0684755
0.0914292
0.11141
0.130118
0.148038
0.0302675
0.065358
0.0881249
0.108235
0.127634
0.147088
0.0278806
0.0614458
0.083873
0.10399
0.124138
0.145652
0.0250909
0.0566249
0.0784965
0.0984233
0.119318
0.143583
0.0237602
0.0506681
0.0716774
0.0911162
0.112646
0.140567
0.0219726
0.0433426
0.0627299
0.0812681
0.10318
0.135971
0.0179822
0.0328871
0.0496827
0.0669396
0.0890201
0.128416
0.00463824
0.0125718
0.0255477
0.0423501
0.0662622
0.11399
0.152395
0.173317
0.172653
0.162912
0.147043
0.129596
0.111974
0.0951738
0.0798801
0.0665571
0.055489
0.0467676
0.0402828
0.0357466
0.0327676
0.0309491
0.0299591
0.0295603
0.0295528
0.0297368
0.0302117
0.030958
0.0319433
0.0334408
0.13097
0.157126
0.165394
0.163936
0.156482
0.144573
0.130647
0.115774
0.100645
0.085924
0.0724641
0.0608752
0.0514394
0.0442598
0.0391603
0.0357897
0.0337501
0.03269
0.0323253
0.0323474
0.0325586
0.0330625
0.0337732
0.0350712
0.126504
0.150218
0.163636
0.169117
0.168975
0.165389
0.157708
0.147933
0.136214
0.123007
0.108557
0.093461
0.0789743
0.0663422
0.0560819
0.0483856
0.0430755
0.0397107
0.0377824
0.036858
0.03663
0.0367372
0.0371053
0.0380861
0.129747
0.150661
0.1664
0.177394
0.184013
0.186925
0.18649
0.183933
0.178421
0.170527
0.160322
0.147796
0.13315
0.116821
0.100063
0.0843853
0.0711151
0.0608923
0.0536518
0.0489504
0.0461661
0.0447271
0.0442813
0.0444391
0.135224
0.154432
0.171186
0.185026
0.195713
0.203372
0.208249
0.210542
0.210278
0.208191
0.203623
0.196385
0.186723
0.174703
0.160567
0.144807
0.128112
0.111592
0.0966127
0.0841829
0.0747484
0.0681343
0.0638367
0.0613498
0.140893
0.159034
0.17578
0.190526
0.20285
0.212632
0.219918
0.224801
0.227449
0.228008
0.226855
0.223889
0.218752
0.21188
0.20331
0.193033
0.181261
0.168388
0.154957
0.141676
0.129358
0.118612
0.110028
0.103041
0.146064
0.163389
0.179569
0.194063
0.206449
0.216534
0.22431
0.229899
0.233517
0.235385
0.235699
0.234788
0.23255
0.22909
0.224635
0.219236
0.212952
0.205887
0.198212
0.19014
0.181966
0.174105
0.167082
0.16121
0.150525
0.167152
0.182524
0.19623
0.207945
0.217516
0.225
0.230561
0.234425
0.236854
0.238128
0.238444
0.237979
0.236747
0.234866
0.232449
0.229541
0.226192
0.222471
0.218485
0.214413
0.210583
0.207272
0.204574
0.15425
0.170272
0.1848
0.197579
0.208426
0.217298
0.224312
0.229692
0.233697
0.236596
0.238601
0.2399
0.240629
0.240857
0.240667
0.240057
0.239022
0.237588
0.235765
0.233631
0.231333
0.229072
0.227059
0.225235
0.157291
0.172818
0.186592
0.19852
0.208574
0.216841
0.223496
0.228793
0.232991
0.236313
0.238977
0.241122
0.242813
0.244079
0.244917
0.245301
0.245233
0.244696
0.243613
0.242073
0.240211
0.23823
0.236313
0.234489
0.15973
0.174907
0.188096
0.199356
0.208803
0.216631
0.223078
0.228398
0.232833
0.236599
0.23984
0.242627
0.244984
0.246899
0.248331
0.249217
0.249478
0.249174
0.248279
0.24684
0.245031
0.24304
0.241046
0.239184
0.161666
0.176681
0.189509
0.200341
0.209412
0.216994
0.223363
0.228777
0.233448
0.237531
0.24111
0.244214
0.246842
0.248851
0.250249
0.251044
0.251262
0.250953
0.250074
0.248684
0.246946
0.245016
0.243035
0.241246
0.163205
0.178296
0.191028
0.201704
0.210645
0.218171
0.224569
0.230072
0.234846
0.238992
0.242552
0.245512
0.247742
0.249434
0.25051
0.250968
0.250794
0.250087
0.248809
0.247134
0.245202
0.243153
0.241141
0.239555
0.164461
0.179926
0.192874
0.203691
0.212756
0.220404
0.2269
0.232426
0.237091
0.240938
0.243986
0.246119
0.247542
0.248157
0.247957
0.247104
0.245529
0.243358
0.240719
0.23774
0.234584
0.231462
0.228709
0.226903
0.16556
0.181774
0.195301
0.206589
0.216042
0.223975
0.230595
0.236008
0.240242
0.243269
0.245012
0.245668
0.245142
0.243613
0.241032
0.237614
0.233467
0.228724
0.223538
0.218068
0.212501
0.207117
0.202484
0.199506
0.166648
0.184084
0.198606
0.210721
0.220817
0.229151
0.235829
0.240852
0.244152
0.245636
0.245169
0.243187
0.239467
0.234405
0.228183
0.221047
0.213255
0.205059
0.196675
0.188278
0.180024
0.172097
0.165056
0.159996
0.167906
0.187154
0.203135
0.216418
0.227342
0.236051
0.242506
0.246581
0.24811
0.246747
0.24313
0.236981
0.228858
0.219143
0.208306
0.196827
0.185136
0.173591
0.162455
0.151904
0.142032
0.132834
0.124487
0.117467
0.169567
0.191356
0.209261
0.223961
0.235696
0.244443
0.249987
0.252095
0.250216
0.245286
0.236717
0.225356
0.211908
0.197168
0.181921
0.166854
0.152494
0.139199
0.127149
0.116402
0.106938
0.0986705
0.0912219
0.0852772
0.171957
0.197148
0.217342
0.233458
0.245588
0.253507
0.256856
0.25493
0.249228
0.238419
0.22393
0.206889
0.188498
0.169937
0.152203
0.135997
0.121696
0.109403
0.0990086
0.09034
0.0831987
0.0773832
0.0728746
0.0705437
0.175553
0.205048
0.227604
0.244659
0.256142
0.261644
0.260214
0.254191
0.241623
0.224178
0.203797
0.182191
0.16098
0.141461
0.124438
0.110185
0.0985737
0.089253
0.0817879
0.0758185
0.071094
0.0674274
0.0647451
0.0640857
0.18104
0.215516
0.239927
0.256708
0.265711
0.265612
0.259817
0.245953
0.225797
0.202356
0.177941
0.154672
0.134082
0.116916
0.103194
0.092449
0.0840105
0.0772734
0.0718395
0.0674654
0.0640605
0.0616703
0.0605129
0.0608633
0.189362
0.228662
0.25353
0.267923
0.270891
0.265733
0.251348
0.228834
0.202585
0.175673
0.150749
0.129499
0.112456
0.0992432
0.0890337
0.0809448
0.0743361
0.0688574
0.0643606
0.0608581
0.0584693
0.0573414
0.0575216
0.0585954
0.201718
0.243827
0.266734
0.275
0.271605
0.258033
0.233631
0.204799
0.175579
0.149196
0.127393
0.110381
0.0973657
0.0872268
0.0790192
0.0721528
0.0663677
0.0616016
0.0579235
0.0554577
0.0542883
0.0543614
0.0551858
0.0569375
0.219259
0.259227
0.276591
0.27672
0.265482
0.240778
0.209527
0.178027
0.150148
0.127641
0.110347
0.0970919
0.0865894
0.0779162
0.070576
0.0643768
0.0592881
0.0553694
0.0527008
0.051317
0.051146
0.0517522
0.0532345
0.0551347
0.0053334
0.025874
0.067939
0.104845
0.123896
0.118377
0.0171139
0.0481014
0.0906508
0.129389
0.164036
0.202385
0.0249513
0.0651528
0.106077
0.145645
0.185125
0.225765
0.0305182
0.0760177
0.115619
0.155333
0.195558
0.23382
0.0350932
0.0832323
0.121613
0.160818
0.200309
0.236086
0.0387036
0.0879983
0.125175
0.1635
0.20195
0.235933
0.0414504
0.0909761
0.126934
0.164239
0.201881
0.234998
0.0434523
0.0925604
0.127267
0.163576
0.20088
0.234057
0.0448079
0.0929947
0.126429
0.161852
0.199369
0.233432
0.0455895
0.0924738
0.124556
0.159267
0.197574
0.233294
0.0458159
0.091042
0.121763
0.155927
0.195587
0.23378
0.0456305
0.0887926
0.11812
0.151872
0.193399
0.234871
0.0450371
0.08575
0.113676
0.147087
0.190924
0.236465
0.0441878
0.081951
0.108465
0.141521
0.188009
0.238381
0.04306
0.0774786
0.102511
0.135081
0.184422
0.240399
0.0416382
0.0724104
0.095834
0.127641
0.179815
0.242276
0.0399068
0.0668231
0.0884583
0.119055
0.173724
0.243524
0.0378359
0.0607946
0.0804161
0.109189
0.165589
0.243495
0.0353328
0.0543917
0.0717646
0.097976
0.15474
0.241255
0.032084
0.0476567
0.0625999
0.0854861
0.140395
0.235442
0.0271582
0.0406213
0.0530422
0.0718213
0.121905
0.22402
0.0242917
0.0338303
0.0431229
0.0571186
0.098995
0.203063
0.020343
0.0262405
0.0318321
0.0406675
0.0707062
0.162994
0.00635923
0.00957793
0.0131553
0.0184375
0.0343061
0.115346
0.242164
0.272026
0.280108
0.272787
0.250172
0.217139
0.183421
0.153838
0.13027
0.112244
0.0982948
0.0870539
0.0776578
0.0696879
0.0629837
0.0575009
0.0532483
0.050246
0.048491
0.0479321
0.0482592
0.0493476
0.0511193
0.0529786
0.25866
0.278009
0.277924
0.261198
0.227966
0.192217
0.160574
0.135435
0.11616
0.10107
0.0887492
0.0783879
0.06962
0.0622907
0.0563174
0.0516414
0.0482158
0.0459961
0.0449188
0.0448731
0.0454896
0.0468637
0.0486681
0.0504134
0.265304
0.27817
0.2696
0.242047
0.204781
0.170721
0.143422
0.12235
0.105673
0.0919236
0.0803225
0.0705356
0.0624052
0.0558075
0.0506143
0.0467024
0.043969
0.0423278
0.0416901
0.0418713
0.0426853
0.0441139
0.0458384
0.0474321
0.26641
0.272279
0.256208
0.221079
0.184699
0.154665
0.131214
0.112481
0.0969191
0.0837467
0.072652
0.0634791
0.0560716
0.050237
0.045772
0.0424974
0.040276
0.0390047
0.0385924
0.0388582
0.0397092
0.0410519
0.0426288
0.0440565
0.264388
0.263143
0.240202
0.202799
0.169651
0.143239
0.121964
0.104168
0.0890303
0.0762629
0.0657294
0.0572579
0.050603
0.0454827
0.0416326
0.038841
0.0369581
0.0358815
0.0355312
0.0357703
0.0365209
0.0376938
0.0390759
0.040332
0.260621
0.253584
0.224677
0.188867
0.158986
0.134676
0.114202
0.0966513
0.0817651
0.0694622
0.0595859
0.0518542
0.0459123
0.0414068
0.0380387
0.0355857
0.0338985
0.0328825
0.0324731
0.0325894
0.0331384
0.034075
0.035225
0.0363066
0.256452
0.244665
0.21227
0.178939
0.15118
0.127626
0.107205
0.0896867
0.0751038
0.0633735
0.0542097
0.0471937
0.0418797
0.0378728
0.0348638
0.0326323
0.0310344
0.0299833
0.0294282
0.0293308
0.0296102
0.0302439
0.0311234
0.0320233
0.252674
0.237074
0.203307
0.171977
0.145054
0.121385
0.100706
0.0832364
0.0690723
0.0579938
0.0495419
0.043174
0.0383859
0.0347685
0.0320181
0.0299224
0.0283429
0.0271965
0.0264394
0.0260494
0.0260062
0.0262622
0.0268147
0.0275108
0.249733
0.230989
0.197311
0.166946
0.139877
0.115629
0.0946314
0.0773188
0.0636795
0.0532837
0.0454993
0.0396918
0.0353301
0.0320107
0.0294437
0.0274276
0.0258274
0.0245582
0.0235737
0.0228555
0.0224002
0.0222159
0.0223306
0.0227506
0.247923
0.226592
0.193428
0.163135
0.135268
0.11024
0.0889859
0.0719529
0.0589064
0.0491797
0.0419932
0.0366561
0.0326342
0.0295414
0.0271061
0.0251384
0.023506
0.0221183
0.0209168
0.0198687
0.0189594
0.0181985
0.0176715
0.0176021
0.247216
0.223846
0.191039
0.160114
0.131047
0.105189
0.0837898
0.0671389
0.0547106
0.0456085
0.0389414
0.0339924
0.0302404
0.0273222
0.0249862
0.0230548
0.0213998
0.0199249
0.0185555
0.0172297
0.0158872
0.0144655
0.0129448
0.0116516
0.247216
0.222548
0.189824
0.157662
0.127144
0.100488
0.0790569
0.0628564
0.0510359
0.0424969
0.0362722
0.0316413
0.0281055
0.0253265
0.0230723
0.0211788
0.0195241
0.018012
0.0165594
0.0150841
0.01349
0.0116493
0.00938299
0.00621927
0.248183
0.2226
0.189558
0.155657
0.123539
0.0961543
0.074787
0.059069
0.0478209
0.039777
0.0339244
0.0295541
0.0261941
0.023531
0.0213514
0.0195046
0.0178786
0.0163843
0.0149452
0.0134879
0.011933
0.0101914
0.00815184
0.00553956
0.249897
0.223907
0.189987
0.15404
0.120237
0.0921976
0.070965
0.0557307
0.045005
0.0373887
0.0318461
0.027689
0.0244734
0.0219089
0.0197994
0.0180065
0.0164273
0.0149816
0.0136016
0.012224
0.0107815
0.00920206
0.0074139
0.00525672
0.252244
0.226461
0.191353
0.152809
0.117247
0.0886175
0.0675614
0.0527915
0.0425319
0.0352798
0.0299933
0.0260097
0.0229122
0.0204316
0.0183861
0.0166475
0.0151207
0.0137314
0.012418
0.0111243
0.00979209
0.00836562
0.00680551
0.00502296
0.255158
0.230281
0.193349
0.151924
0.114567
0.0853998
0.0645391
0.0502025
0.040352
0.0334065
0.0283295
0.0244858
0.0214844
0.0190742
0.0170857
0.015399
0.0139247
0.0125936
0.011349
0.0101403
0.00891781
0.00763961
0.00628785
0.00481516
0.258603
0.235471
0.196026
0.151384
0.112185
0.0825154
0.0618575
0.047919
0.0384231
0.0317328
0.0268254
0.0230937
0.0201699
0.017819
0.0158814
0.0142437
0.0128214
0.0115492
0.0103745
0.00925183
0.00813886
0.0070042
0.00584268
0.00463121
0.262693
0.242064
0.19936
0.151159
0.110066
0.0799287
0.0594772
0.0459003
0.0367086
0.0302286
0.0254572
0.0218145
0.018954
0.0166539
0.0147629
0.0131726
0.0118025
0.0105904
0.00948719
0.00845162
0.00744708
0.00644949
0.00546011
0.00447025
0.267635
0.250166
0.203299
0.151161
0.108158
0.0775999
0.0573586
0.0441085
0.0351763
0.0288685
0.0242057
0.0206342
0.0178262
0.0155711
0.0137241
0.012181
0.0108639
0.0097134
0.00868296
0.00773464
0.00683604
0.00596769
0.00513311
0.00433146
0.273801
0.259916
0.207593
0.151218
0.106394
0.0754821
0.0554604
0.0425081
0.0337982
0.0276315
0.0230556
0.019542
0.016779
0.0145655
0.0127617
0.0112663
0.0100036
0.0089159
0.00795891
0.00709697
0.00630052
0.00555264
0.00485636
0.00421385
0.281903
0.271454
0.211615
0.151245
0.104694
0.0735205
0.0537403
0.0410659
0.0325492
0.0264997
0.0219948
0.0185295
0.0158071
0.0136337
0.0118733
0.0104268
0.00921969
0.00819583
0.0073122
0.00653473
0.00583562
0.00519884
0.0046251
0.00411581
0.293222
0.284787
0.215128
0.151002
0.102939
0.0716492
0.052155
0.039751
0.031408
0.0254587
0.0210136
0.0175911
0.0149069
0.0127735
0.0110576
0.00966111
0.00851073
0.00755101
0.00673985
0.00604407
0.00543659
0.00490101
0.00443455
0.00403527
0.309626
0.299152
0.217926
0.150149
0.100979
0.0697988
0.0506636
0.0385365
0.0303569
0.0244972
0.0201053
0.0167225
0.0140762
0.0119835
0.0103132
0.00896791
0.00787478
0.00697889
0.00623856
0.00562082
0.00509848
0.00465373
0.00427969
0.00396986
0.332501
0.308805
0.218948
0.148202
0.0986599
0.0679095
0.0492334
0.0374012
0.0293823
0.023607
0.0192652
0.0159214
0.0133136
0.0112628
0.00963905
0.0083455
0.00730951
0.0064764
0.0058045
0.0052604
0.00481594
0.00445123
0.00415536
0.00391718
0.00595886
0.0333154
0.0733078
0.120901
0.152925
0.183724
0.0205314
0.0670885
0.11012
0.157983
0.214001
0.309401
0.0297098
0.0863574
0.132432
0.182851
0.243175
0.323133
0.0370468
0.0994017
0.147693
0.199371
0.25724
0.319371
0.0432895
0.109258
0.158937
0.210528
0.264006
0.311417
0.048534
0.117008
0.167437
0.21804
0.266771
0.30274
0.0528613
0.123139
0.173866
0.223004
0.267178
0.294603
0.0563399
0.127906
0.178636
0.226167
0.266299
0.287482
0.0590254
0.131459
0.182028
0.228056
0.264797
0.281552
0.060964
0.133892
0.184235
0.229003
0.263147
0.276908
0.0621991
0.135266
0.185395
0.22924
0.261654
0.273604
0.0627878
0.135618
0.185596
0.228914
0.260488
0.271676
0.0627408
0.134974
0.184886
0.228101
0.259732
0.271137
0.0620222
0.133348
0.183271
0.226806
0.259376
0.271982
0.0606188
0.130736
0.180715
0.224962
0.259328
0.274226
0.0585057
0.127113
0.177139
0.222431
0.259396
0.277876
0.0556473
0.122438
0.17242
0.218984
0.259281
0.282858
0.0519964
0.116646
0.166386
0.214274
0.258559
0.289022
0.0474966
0.109636
0.158796
0.207817
0.256629
0.295972
0.0420895
0.101234
0.149303
0.198923
0.252342
0.303143
0.0357316
0.0911011
0.137324
0.186581
0.243874
0.309373
0.0284209
0.0784094
0.121714
0.169202
0.228286
0.311078
0.0195366
0.0605543
0.0995167
0.143856
0.200629
0.296036
0.00516811
0.027843
0.0612808
0.104687
0.156488
0.179064
0.361112
0.312446
0.216562
0.144787
0.0958973
0.0659535
0.0478465
0.0363326
0.0284762
0.0227836
0.0184911
0.0151869
0.0126186
0.0106106
0.00903388
0.00779187
0.00681212
0.00603997
0.00543332
0.00495767
0.0045832
0.00428754
0.00405647
0.00387504
0.377293
0.30269
0.210038
0.139969
0.0927464
0.0639494
0.0465038
0.0353269
0.0276355
0.0220255
0.0177828
0.0145193
0.0119914
0.0100265
0.00849631
0.00730472
0.00637938
0.00566552
0.00512015
0.00470705
0.0043942
0.00415682
0.00397836
0.00384153
0.360953
0.28743
0.201119
0.134317
0.0893964
0.0619577
0.0452225
0.034389
0.0268619
0.0213341
0.0171417
0.0139196
0.0114323
0.00950983
0.00802486
0.00688155
0.00600783
0.00534865
0.00485976
0.00450267
0.00424299
0.00405376
0.00391709
0.00381512
0.340863
0.271748
0.19149
0.128471
0.0860774
0.0600546
0.0440277
0.0335283
0.0261599
0.0207124
0.0165701
0.0133892
0.0109418
0.00906018
0.00761792
0.00651974
0.00569389
0.00508488
0.00464681
0.00433872
0.00412393
0.00397383
0.00386953
0.00379479
0.321728
0.256987
0.182149
0.122888
0.0829694
0.0583043
0.042943
0.0327552
0.0255354
0.0201641
0.0160704
0.0129295
0.0105201
0.00867661
0.00727357
0.00621645
0.00543383
0.00486959
0.00447593
0.00420938
0.00403143
0.00391259
0.00383365
0.00377978
0.305033
0.243846
0.173653
0.117844
0.0801874
0.0567508
0.0419869
0.0320793
0.0249937
0.0196927
0.0156448
0.0125415
0.010167
0.00835785
0.00698959
0.00596857
0.0052237
0.00469813
0.00434202
0.00410958
0.00396101
0.00386654
0.00380705
0.00376893
0.290973
0.232587
0.166278
0.113483
0.0777957
0.0554212
0.0411724
0.0315083
0.0245397
0.0193012
0.0152951
0.0122258
0.00988209
0.0081024
0.00676361
0.00577295
0.00505968
0.00456608
0.00424038
0.00403482
0.00390884
0.00383282
0.0037879
0.00376138
0.279486
0.223285
0.160145
0.109873
0.0758253
0.05433
0.0405077
0.0310473
0.0241772
0.0189926
0.015023
0.0119828
0.00966457
0.00790871
0.00659337
0.00562672
0.00493828
0.00446953
0.00416699
0.00398143
0.00387193
0.00380922
0.00377476
0.00375641
0.270454
0.215934
0.155293
0.107036
0.0742867
0.0534837
0.0399977
0.0306996
0.0239093
0.0187691
0.0148295
0.0118125
0.00951372
0.00777539
0.00647694
0.00552742
0.0048566
0.00440529
0.00411869
0.00394656
0.00384792
0.00379397
0.00376662
0.00375342
0.263746
0.21049
0.151721
0.104969
0.0731798
0.0528843
0.039645
0.0304675
0.0237378
0.018632
0.0147152
0.0117147
0.00942879
0.00770124
0.00641273
0.00547314
0.00481242
0.00437097
0.00409317
0.00392817
0.00383502
0.00378604
0.00376243
0.00375211
0.259249
0.206906
0.149411
0.103663
0.0725006
0.0525314
0.0394506
0.0303523
0.0236639
0.0185819
0.0146802
0.0116892
0.00940918
0.00768535
0.00639964
0.00546261
0.0048042
0.00436495
0.00408913
0.00392556
0.00383344
0.00378502
0.00376177
0.00375185
0.256889
0.205145
0.148346
0.103109
0.072245
0.052424
0.0394146
0.0303538
0.023686
0.0186157
0.0147199
0.0117306
0.0094491
0.00772167
0.00643172
0.00549052
0.00482876
0.00438587
0.00410566
0.00393784
0.00384193
0.00378997
0.00376418
0.00375246
0.256636
0.205192
0.148519
0.103298
0.0724063
0.052556
0.0395306
0.0304653
0.0237984
0.0187292
0.0148316
0.0118369
0.00954823
0.00781362
0.00651548
0.00556415
0.00489016
0.00443476
0.00414311
0.00396532
0.00386103
0.00380191
0.0037701
0.00375411
0.258488
0.207063
0.149942
0.10424
0.0729921
0.0529323
0.0398023
0.0306901
0.0240039
0.018925
0.015019
0.0120153
0.00971506
0.00796574
0.00665002
0.00567979
0.00498635
0.00451158
0.00420191
0.00400839
0.00389086
0.00382077
0.00378013
0.00375747
0.26253
0.210802
0.152637
0.105944
0.074002
0.053552
0.0402299
0.0310295
0.0243043
0.0192053
0.015284
0.0122637
0.00994411
0.00817267
0.00683327
0.00583794
0.0051184
0.00461755
0.00428342
0.00406844
0.00393278
0.00384762
0.00379492
0.00376276
0.268848
0.216479
0.15664
0.108425
0.07544
0.0544107
0.040805
0.031474
0.0246912
0.019563
0.0156196
0.0125766
0.0102322
0.00843375
0.00706542
0.00603936
0.00528767
0.00475445
0.00438966
0.00414741
0.00398848
0.00388386
0.00381541
0.00377055
0.277568
0.224181
0.16199
0.111701
0.0773079
0.0555037
0.0415213
0.032017
0.0251574
0.0199909
0.0160201
0.0129506
0.0105777
0.0087483
0.00734662
0.00628494
0.00549578
0.00492447
0.00452308
0.00424774
0.00406009
0.00393119
0.00384285
0.00378153
0.288821
0.233995
0.168715
0.115778
0.0796008
0.056822
0.042369
0.0326495
0.025695
0.0204823
0.0164804
0.013382
0.0109782
0.00911508
0.00767669
0.00657548
0.0057444
0.00513
0.0046865
0.00437226
0.00415017
0.00399166
0.00387871
0.00379649
0.302754
0.245995
0.176806
0.120637
0.0822991
0.0583482
0.0433337
0.0333601
0.0262939
0.0210288
0.016994
0.0138659
0.0114304
0.00953205
0.00805487
0.00691138
0.00603498
0.00537338
0.00488285
0.00452411
0.00426161
0.00406764
0.00392464
0.00381626
0.319511
0.260189
0.186171
0.126207
0.0853557
0.0600518
0.0443947
0.0341338
0.026942
0.0216202
0.0175525
0.0143959
0.0119295
0.00999616
0.00847951
0.0072923
0.00636838
0.00565652
0.00511486
0.00470643
0.00439756
0.00416183
0.00398251
0.00384178
0.338885
0.276362
0.196531
0.132318
0.0886774
0.0618828
0.0455222
0.0349505
0.0276248
0.0222451
0.0181467
0.0149645
0.0124699
0.0105032
0.00894795
0.00771699
0.00674468
0.00598074
0.00538495
0.00492248
0.0045616
0.0042773
0.00405364
0.00387352
0.359004
0.293779
0.207249
0.138627
0.0921
0.0637639
0.0466762
0.035786
0.0283255
0.0228908
0.0187661
0.0155633
0.0130447
0.0110481
0.00945667
0.00818342
0.00716329
0.00634678
0.00569502
0.00517497
0.00475666
0.00441663
0.00414029
0.00391221
0.374281
0.310867
0.217119
0.144544
0.095366
0.065586
0.0478059
0.0366121
0.0290262
0.023544
0.0194002
0.0161833
0.0136466
0.0116252
0.0100015
0.00868895
0.00762296
0.00675471
0.00604634
0.00546615
0.00498558
0.00458272
0.00424489
0.00395878
0.351637
0.322089
0.22404
0.149214
0.0981322
0.0672131
0.0488526
0.0373986
0.0297079
0.0241908
0.0200375
0.016815
0.0142678
0.0122279
0.0105774
0.00922991
0.00812142
0.0072036
0.00643921
0.00579747
0.00525078
0.00477852
0.00437018
0.00401437
)
;

boundaryField
{
    rotor
    {
        type            kqRWallFunction;
        value           nonuniform List<scalar> 
144
(
0.00804024
0.0115829
0.0132261
0.0160909
0.0272934
0.0993455
0.00804024
0.0235337
0.0309727
0.0358265
0.0394036
0.042252
0.0446396
0.0466712
0.048389
0.0498144
0.0509643
0.0518581
0.0525222
0.0526746
0.0524091
0.0515618
0.0501234
0.0480124
0.0451201
0.0412934
0.0363045
0.0297873
0.0206704
0.00793613
0.00793613
0.0369272
0.0831484
0.112773
0.126789
0.118494
0.00434477
0.0125869
0.0250809
0.0382883
0.0509421
0.0723362
0.00434477
0.0174323
0.0215545
0.0236047
0.0250567
0.0267204
0.0292625
0.0313291
0.0330009
0.0342883
0.0351931
0.0357123
0.0358396
0.0355677
0.0348827
0.0337746
0.0322346
0.0302675
0.0278806
0.0250909
0.0237602
0.0219726
0.0179822
0.00463824
0.00463824
0.0125718
0.0255477
0.0423501
0.0662622
0.11399
0.0053334
0.025874
0.067939
0.104845
0.123896
0.118377
0.0053334
0.0171139
0.0249513
0.0305182
0.0350932
0.0387036
0.0414504
0.0434523
0.0448079
0.0455895
0.0458159
0.0456305
0.0450371
0.0441878
0.04306
0.0416382
0.0399068
0.0378359
0.0353328
0.032084
0.0271582
0.0242917
0.020343
0.00635923
0.00635923
0.00957793
0.0131553
0.0184375
0.0343061
0.115346
0.00595886
0.0333154
0.0733078
0.120901
0.152925
0.183724
0.00595886
0.0205314
0.0297098
0.0370468
0.0432895
0.048534
0.0528613
0.0563399
0.0590254
0.060964
0.0621991
0.0627878
0.0627408
0.0620222
0.0606188
0.0585057
0.0556473
0.0519964
0.0474966
0.0420895
0.0357316
0.0284209
0.0195366
0.00516811
0.00516811
0.027843
0.0612808
0.104687
0.156488