/*--------------------------------*- C++ -*----------------------------------*\
  =========                 |
  \\      /  F ield         | OpenFOAM: The Open Source CFD Toolbox
   \\    /   O peration     | Website:  https://openfoam.org
    \\  /    A nd           | Version:  11
     \\/     M anipulation  |
\*---------------------------------------------------------------------------*/
FoamFile
{
    format      ascii;
    class       surfaceVectorField;
    location    "0.14";
    object      Uf;
}
// * * * * * * * * * * * * * * * * * * * * * * * * * * * * * * * * * * * * * //

dimensions      [0 1 -1 0 0 0 0];

internalField   nonuniform List<vector> 
5640
(
(-0.146948 -0.215993 -2.11835e-18)
(-0.135078 -0.166593 -4.97275e-20)
(-0.225826 -0.348412 -6.04921e-19)
(-0.219846 -0.30062 -2.85644e-20)
(-0.226201 -0.380961 -4.55887e-19)
(-0.252835 -0.409873 0)
(-0.211998 -0.408177 -3.1546e-19)
(-0.221859 -0.396826 -5.22505e-19)
(-0.109994 -0.407322 2.87889e-19)
(-0.205442 -0.457442 9.47526e-20)
(0.123494 -0.210009 -7.14819e-21)
(0.406227 -0.490844 -2.46505e-19)
(-0.214907 -0.251491 2.05929e-18)
(-0.202447 -0.178882 7.71205e-19)
(-0.263947 -0.376419 5.81348e-19)
(-0.261989 -0.308629 5.41128e-19)
(-0.247896 -0.417101 -4.89656e-20)
(-0.261313 -0.41079 -5.87956e-20)
(-0.187968 -0.41473 -7.52025e-20)
(-0.209524 -0.399497 -2.34753e-21)
(-0.0236624 -0.37471 -1.38544e-19)
(-0.115398 -0.427219 -4.64127e-20)
(0.239069 -0.232941 1.11109e-20)
(0.503565 -0.443421 2.56324e-19)
(-0.25043 -0.237993 -7.27213e-19)
(-0.248722 -0.162856 -1.39619e-18)
(-0.267923 -0.353634 -7.3487e-20)
(-0.277355 -0.286388 -3.51414e-20)
(-0.226347 -0.395108 -1.8505e-20)
(-0.24711 -0.380543 -4.87313e-19)
(-0.12525 -0.385054 4.96852e-20)
(-0.165748 -0.366984 4.83302e-20)
(0.092078 -0.350594 0)
(-0.0180973 -0.385483 0)
(0.358015 -0.230893 0)
(0.607262 -0.396058 -2.56596e-19)
(-0.277407 -0.212416 -7.82417e-19)
(-0.287709 -0.140366 6.83511e-19)
(-0.26338 -0.319651 -4.34689e-19)
(-0.284181 -0.255277 3.14102e-20)
(-0.193001 -0.358222 -4.42995e-19)
(-0.226639 -0.340781 -1.54091e-20)
(-0.0531454 -0.34394 0)
(-0.114052 -0.324257 3.84263e-19)
(0.206516 -0.316327 0)
(0.077058 -0.335613 3.22685e-19)
(0.467744 -0.212565 0)
(0.70568 -0.348192 -1.27676e-20)
(-0.298635 -0.183723 1.53222e-18)
(-0.322112 -0.117836 7.14851e-19)
(-0.254144 -0.280624 4.54368e-19)
(-0.28717 -0.221142 1.682e-20)
(-0.155202 -0.313339 8.01143e-19)
(-0.203239 -0.294987 6.60271e-19)
(0.0177773 -0.297287 7.08675e-19)
(-0.0624341 -0.277705 9.51424e-21)
(0.310739 -0.272593 3.30421e-19)
(0.165546 -0.280533 7.78722e-21)
(0.565774 -0.186835 -6.40282e-20)
(0.795675 -0.289214 2.29144e-19)
(-0.315724 -0.155933 -7.64075e-19)
(-0.351893 -0.0957556 -6.92784e-19)
(-0.243187 -0.238901 1.96068e-19)
(-0.288336 -0.187742 -4.94952e-20)
(-0.117855 -0.264912 -1.09597e-19)
(-0.18017 -0.246891 4.59118e-20)
(0.083285 -0.247729 -6.94329e-19)
(-0.0144462 -0.229428 -1.89686e-19)
(0.400056 -0.223985 -3.87854e-19)
(0.243359 -0.223985 -3.17744e-19)
(0.645877 -0.153853 -6.40282e-20)
(0.863936 -0.236657 -1.77303e-20)
(-0.330474 -0.128899 -1.53175e-20)
(-0.377177 -0.0751443 5.63502e-21)
(-0.232277 -0.198614 -2.0867e-19)
(-0.288922 -0.156141 -2.7864e-19)
(-0.0838691 -0.215953 -2.6577e-20)
(-0.159165 -0.199221 4.79323e-20)
(0.140823 -0.196942 1.90489e-19)
(0.0280442 -0.180426 1.85549e-19)
(0.473139 -0.173632 0)
(0.308212 -0.168217 -1.37754e-19)
(0.707483 -0.115236 -3.44511e-20)
(0.91472 -0.184452 0)
(-0.342678 -0.104616 -2.41287e-19)
(-0.398535 -0.0588178 5.63502e-21)
(-0.222583 -0.159273 -3.82251e-20)
(-0.288916 -0.12515 -2.32669e-20)
(-0.0544771 -0.167645 2.56543e-19)
(-0.141209 -0.152988 5.66077e-20)
(0.188952 -0.14609 -1.35431e-19)
(0.0637365 -0.131624 -1.90578e-19)
(0.529872 -0.122213 -1.70008e-19)
(0.359618 -0.114051 9.50257e-20)
(0.751144 -0.0727844 -3.44511e-20)
(0.949451 -0.131896 -4.01762e-20)
(-0.352479 -0.0825359 2.25427e-19)
(-0.415358 -0.0460417 0)
(-0.21449 -0.121137 6.72687e-20)
(-0.288766 -0.0947163 2.39228e-19)
(-0.0304665 -0.120596 -3.80428e-19)
(-0.126923 -0.108618 -1.90234e-19)
(0.226732 -0.0960911 3.02071e-20)
(0.0917494 -0.0838175 -1.9077e-19)
(0.570263 -0.0720821 2.38437e-19)
(0.397189 -0.0617586 1.56268e-19)
(0.778463 -0.0283146 0)
(0.969232 -0.0795722 0)
(-0.359794 -0.0622684 0)
(-0.427197 -0.0359464 4.537e-20)
(-0.208398 -0.084417 0)
(-0.288918 -0.0649878 0)
(-0.0123794 -0.0752261 0)
(-0.116711 -0.0663468 0)
(0.253767 -0.0475885 -7.45844e-20)
(0.111615 -0.0375727 -2.21192e-20)
(0.595623 -0.0243147 -7.85754e-20)
(0.420805 -0.0116865 -9.46666e-20)
(0.791204 0.016607 0)
(0.97551 -0.0283964 0)
(-0.364652 -0.0433669 4.79875e-20)
(-0.433772 -0.0276455 -8.32753e-23)
(-0.204645 -0.0492538 0)
(-0.28973 -0.0361241 0)
(-0.000530965 -0.031819 -2.1372e-20)
(-0.110799 -0.0262894 0)
(0.270107 -0.00121323 -4.01619e-20)
(0.123126 0.00671562 7.76112e-20)
(0.607298 0.0229813 -1.83606e-20)
(0.431781 0.0356653 1.39611e-20)
(0.789975 0.0607587 -7.9469e-21)
(0.969585 0.0209337 -1.47718e-20)
(-0.367193 -0.0237871 -4.80923e-20)
(-0.434643 -0.0202139 -4.0391e-19)
(-0.203491 -0.0153556 0)
(-0.291673 -0.00828459 0)
(0.00503168 0.00944578 9.63468e-20)
(-0.10936 0.0115292 0)
(0.276231 0.0434925 1.3357e-19)
(0.126637 0.0487297 1.66908e-20)
(0.605951 0.0682477 2.54711e-20)
(0.430771 0.0800319 1.71312e-19)
(0.775526 0.103053 1.08561e-19)
(0.951965 0.0672967 -5.17966e-20)
(-0.36704 -0.00905137 -3.7912e-19)
(-0.430692 -0.0128473 -4.06598e-23)
(-0.204953 0.0159981 0)
(-0.294257 0.0184892 0)
(0.00446337 0.0482461 -8.01787e-20)
(-0.112201 0.0472234 2.28871e-20)
(0.2727 0.0852135 5.02162e-20)
(0.122339 0.0882545 -1.02922e-19)
(0.592548 0.110825 2.56492e-19)
(0.418801 0.121211 7.02842e-22)
(0.74929 0.142632 -2.65024e-20)
(0.923256 0.111393 2.056e-19)
(-0.364789 0.00706566 3.79022e-19)
(-0.42179 -0.00471877 3.69624e-19)
(-0.208854 0.046223 2.19132e-20)
(-0.297691 0.0442465 -6.42841e-21)
(-0.00204699 0.084824 4.74356e-21)
(-0.119317 0.0809911 4.52161e-20)
(0.260125 0.124057 -1.55174e-19)
(0.110576 0.125148 -5.82501e-20)
(0.568248 0.150207 -2.81062e-19)
(0.396758 0.158931 -9.02496e-20)
(0.7126 0.178943 -1.7103e-19)
(0.884121 0.152567 -1.48641e-19)
(-0.360339 0.0234287 6.98233e-21)
(-0.408227 0.00488929 -6.96902e-19)
(-0.215192 0.0751434 1.46769e-20)
(-0.301886 0.0691914 6.28535e-21)
(-0.0142711 0.119155 -1.37204e-20)
(-0.130595 0.11308 5.21016e-22)
(0.239112 0.159826 7.84048e-21)
(0.0917607 0.159353 -2.78423e-19)
(0.533997 0.185876 2.22667e-20)
(0.365481 0.192935 2.62614e-19)
(0.666092 0.211541 -2.8432e-20)
(0.83535 0.189028 -3.31569e-20)
(-0.353819 0.0404092 -7.39453e-19)
(-0.390382 0.0165771 6.54339e-19)
(-0.22386 0.102991 -7.62521e-21)
(-0.306666 0.0935719 1.27138e-20)
(-0.0319354 0.151364 -2.54637e-19)
(-0.145895 0.143801 -4.31582e-20)
(0.210278 0.192405 -3.92237e-20)
(0.0663083 0.190899 -2.12687e-19)
(0.490682 0.217557 2.1944e-19)
(0.325788 0.223096 1.75614e-19)
(0.610645 0.240092 2.16153e-19)
(0.777611 0.220956 0)
(-0.345333 0.0583885 1.4407e-18)
(-0.368669 0.0307642 1.33858e-18)
(-0.234672 0.130061 -2.04417e-20)
(-0.311746 0.117637 -2.64056e-20)
(-0.0547588 0.181659 4.36897e-21)
(-0.165056 0.173531 -3.56762e-22)
(0.174204 0.221777 -9.27588e-21)
(0.0346108 0.219905 3.13566e-19)
(0.439122 0.245069 1.71542e-19)
(0.27845 0.249373 -2.7311e-19)
(0.547222 0.264169 -1.52826e-19)
(0.711518 0.248113 2.52073e-19)
(-0.334924 0.0776371 -4.95589e-20)
(-0.343504 0.0476698 -3.5443e-20)
(-0.247359 0.156681 -8.56231e-21)
(-0.316683 0.141597 -5.30648e-20)
(-0.0824718 0.210339 2.98237e-19)
(-0.187894 0.202727 -2.91826e-19)
(0.131425 0.247999 6.61878e-20)
(-0.00301178 0.246591 2.86203e-19)
(0.380148 0.268135 -6.00189e-19)
(0.224064 0.271822 -3.97224e-19)
(0.476745 0.283429 -4.05564e-19)
(0.637789 0.269998 -2.65039e-19)
(-0.322449 0.0982865 -3.7993e-20)
(-0.315295 0.0672976 -6.60592e-19)
(-0.261526 0.183217 -3.28355e-19)
(-0.320764 0.165568 -2.66592e-20)
(-0.114811 0.23781 -3.23387e-19)
(-0.214166 0.231912 7.24742e-20)
(0.0823573 0.271322 -1.58047e-19)
(-0.046321 0.271326 2.29696e-19)
(0.31451 0.286766 -2.01967e-19)
(0.162972 0.290714 5.28908e-20)
(0.400035 0.297609 3.27654e-19)
(0.557314 0.286326 -2.06919e-19)
(-0.307429 0.120328 -6.84897e-19)
(-0.28391 0.0886627 -1.30969e-18)
(-0.276648 0.210027 3.68481e-19)
(-0.323105 0.189877 1.36349e-20)
(-0.151477 0.264582 6.19366e-19)
(-0.243452 0.261599 3.84858e-19)
(0.0271222 0.292185 4.45954e-19)
(-0.0951174 0.294654 -7.33809e-20)
(0.242603 0.30096 5.77773e-19)
(0.0951032 0.306507 -2.44235e-21)
(0.317715 0.305848 2.51014e-19)
(0.47116 0.296106 2.59855e-19)
(-0.289146 0.142834 -6.92171e-19)
(-0.247341 0.108404 2.47521e-20)
(-0.292184 0.237719 1.42151e-20)
(-0.323135 0.215968 4.58406e-19)
(-0.192129 0.291128 -2.9292e-19)
(-0.274966 0.292019 -3.10958e-19)
(-0.0346077 0.311049 -5.21369e-19)
(-0.149138 0.317336 -4.01023e-19)
(0.16406 0.310279 -3.40031e-19)
(0.0198419 0.319727 -8.54812e-21)
(0.229777 0.305716 -7.81512e-20)
(0.381191 0.296462 1.59895e-19)
(-0.266539 0.163132 1.15394e-18)
(-0.201884 0.121965 1.35797e-18)
(-0.308116 0.266951 1.65972e-19)
(-0.319633 0.245407 -5.10104e-19)
(-0.236519 0.317674 -4.16344e-19)
(-0.306498 0.32203 7.60365e-20)
(-0.103392 0.328366 1.1366e-19)
(-0.207518 0.33995 -7.05324e-20)
(0.0787657 0.314992 2.60384e-19)
(-0.0632408 0.330289 1.59549e-19)
(0.137681 0.293417 -8.73095e-20)
(0.288069 0.287495 -1.96811e-19)
(-0.236872 0.179621 -1.96379e-19)
(-0.132476 0.11532 -3.38708e-20)
(-0.321706 0.29422 -6.28989e-19)
(-0.294547 0.263069 1.12129e-19)
(-0.285233 0.342885 4.30499e-19)
(-0.33045 0.347813 -4.42748e-20)
(-0.177633 0.344738 -3.39504e-20)
(-0.263673 0.357865 -2.17785e-19)
(-0.0127014 0.313743 -1.80019e-19)
(-0.150057 0.333382 -9.62343e-20)
(0.0411184 0.260542 1.21173e-19)
(0.198885 0.259788 -1.33577e-19)
(-0.161785 0.173469 2.45187e-19)
(-0.2922 0.316797 6.90527e-19)
(-0.304488 0.37926 -6.8295e-19)
(-0.229161 0.371403 -2.93181e-19)
(-0.0903422 0.315346 1.51022e-19)
(0.125005 0.218708 3.06475e-19)
(0.893964 -0.862613 -1.67722e-19)
(0.824263 -0.865674 2.09892e-19)
(0.683469 -1.02854 -6.42197e-19)
(1.05816 -0.727457 -5.35002e-21)
(1.11235 -0.748142 5.84137e-20)
(0.96792 -0.775434 -2.7505e-20)
(1.10867 -0.605151 -4.26839e-20)
(1.14491 -0.653358 -4.83267e-20)
(1.04553 -0.667007 2.08574e-20)
(1.12119 -0.50216 1.93567e-20)
(1.15893 -0.538444 -1.10477e-20)
(1.08313 -0.547153 2.90719e-20)
(1.1206 -0.420282 1.12892e-21)
(1.15275 -0.449855 3.11094e-20)
(1.09314 -0.455417 -5.57493e-21)
(1.11668 -0.357054 -8.42599e-20)
(1.14298 -0.379759 -2.83628e-20)
(1.09493 -0.383876 1.33228e-20)
(1.11324 -0.308657 -1.13531e-21)
(1.13463 -0.326157 -1.21364e-19)
(1.09494 -0.329499 4.12558e-20)
(1.11069 -0.270887 1.50543e-19)
(1.12859 -0.284776 1.16917e-19)
(1.09501 -0.287572 -5.88686e-20)
(1.10848 -0.240382 6.25757e-21)
(1.12401 -0.251875 5.3316e-20)
(1.09505 -0.254191 1.48697e-19)
(1.10604 -0.214806 -1.7549e-19)
(1.11997 -0.224738 -5.21246e-20)
(1.09463 -0.226587 -1.42942e-19)
(1.10305 -0.192635 -4.89671e-20)
(1.11584 -0.201527 -8.45729e-20)
(1.09343 -0.202912 4.08696e-21)
(1.09934 -0.172922 7.33404e-20)
(1.11129 -0.181096 1.7239e-21)
(1.09134 -0.182034 3.28259e-20)
(1.09488 -0.155045 -3.2019e-20)
(1.10616 -0.162728 -2.84947e-20)
(1.08835 -0.163245 -4.30167e-20)
(1.08964 -0.13856 -3.84388e-20)
(1.10038 -0.145916 -6.25515e-21)
(1.08447 -0.146042 6.23259e-21)
(1.08359 -0.123134 -7.52128e-22)
(1.09389 -0.130284 -2.9167e-20)
(1.0797 -0.130047 6.64981e-20)
(1.07671 -0.108513 -3.34255e-20)
(1.08664 -0.115547 5.35996e-20)
(1.07405 -0.114968 6.91619e-20)
(1.06899 -0.0945104 -5.94178e-20)
(1.0786 -0.10149 -2.96827e-20)
(1.06751 -0.100593 -1.33506e-19)
(1.06045 -0.0810058 -1.18155e-19)
(1.06975 -0.0879698 -3.12751e-20)
(1.0601 -0.0867793 4.75196e-21)
(1.05112 -0.0679315 -2.12366e-21)
(1.06011 -0.0748864 -8.40535e-20)
(1.05186 -0.0734371 -5.81956e-20)
(1.04106 -0.0552579 5.70427e-20)
(1.04978 -0.0620888 5.66792e-20)
(1.04294 -0.0604359 8.81317e-20)
(1.03028 -0.0429699 0)
(1.0389 -0.0494074 0)
(1.03348 -0.0476353 0)
(1.01883 -0.0310752 1.07633e-19)
(1.02696 -0.0375289 -1.02598e-19)
(1.02297 -0.0356786 -2.99818e-20)
(1.00751 -0.0201888 1.06536e-19)
(1.01192 -0.0293851 3.08861e-19)
(1.00936 -0.0271649 -7.22463e-21)
(0.996008 -0.0252214 -1.2319e-19)
(0.994966 -0.0222391 6.15971e-21)
(1.05446 -0.753931 2.99769e-19)
(0.959917 -0.713883 -7.78185e-20)
(1.17738 -0.690148 5.66557e-20)
(1.22241 -0.687894 -7.65481e-20)
(1.19491 -0.58446 -1.10754e-20)
(1.235 -0.616202 1.33595e-23)
(1.18814 -0.488963 0)
(1.23016 -0.515527 9.95424e-21)
(1.17395 -0.411046 0)
(1.20969 -0.434316 -9.06288e-21)
(1.1602 -0.350046 -6.41719e-20)
(1.18926 -0.368314 0)
(1.14958 -0.303018 -3.90621e-21)
(1.17303 -0.317198 -3.23219e-21)
(1.14169 -0.266233 2.11415e-20)
(1.16113 -0.277479 4.08711e-20)
(1.1354 -0.236535 -3.79856e-21)
(1.15211 -0.245825 -1.12685e-19)
(1.12972 -0.211674 3.91308e-20)
(1.1446 -0.219711 4.06241e-20)
(1.12406 -0.190159 -3.47017e-20)
(1.13766 -0.197393 -3.29121e-20)
(1.11809 -0.171048 -9.98122e-20)
(1.13075 -0.177761 -4.23599e-21)
(1.11165 -0.153722 -2.90043e-21)
(1.12358 -0.160113 -3.27133e-21)
(1.10464 -0.137745 3.20776e-21)
(1.116 -0.143955 3.47319e-20)
(1.09696 -0.12279 2.45429e-20)
(1.10789 -0.128925 -1.16801e-19)
(1.08857 -0.108608 5.79876e-20)
(1.09914 -0.114746 1.12046e-19)
(1.07941 -0.0950153 -1.52128e-21)
(1.08969 -0.101213 -5.70362e-20)
(1.06949 -0.0818855 3.19275e-21)
(1.07949 -0.0881824 5.52259e-20)
(1.05879 -0.0691419 -2.60304e-20)
(1.06852 -0.075549 -4.36871e-24)
(1.04734 -0.0567448 0)
(1.05685 -0.0631472 0)
(1.03515 -0.0446727 -1.01964e-19)
(1.0446 -0.0507807 0)
(1.02223 -0.032927 7.05958e-20)
(1.03128 -0.0391658 -1.02598e-19)
(1.00941 -0.0220765 2.85729e-19)
(1.0149 -0.0315238 2.94575e-19)
(0.997469 -0.028228 -1.10824e-19)
(1.15058 -0.649366 -4.25363e-19)
(1.06191 -0.590934 -2.83616e-19)
(1.27144 -0.631189 -1.25519e-19)
(1.30576 -0.617417 1.19416e-19)
(1.2709 -0.547634 2.09223e-20)
(1.31106 -0.565186 3.52206e-21)
(1.24981 -0.464571 -6.8594e-21)
(1.29326 -0.481862 3.32486e-20)
(1.22404 -0.393595 -9.20057e-21)
(1.26165 -0.410501 -1.83243e-20)
(1.20148 -0.33681 6.00528e-20)
(1.23221 -0.350464 2.16726e-20)
(1.18424 -0.292483 4.05347e-20)
(1.20903 -0.303186 2.56959e-20)
(1.17137 -0.257584 -9.14702e-20)
(1.19183 -0.266073 -2.0372e-20)
(1.16123 -0.229329 -6.91907e-20)
(1.17873 -0.236333 -7.071e-20)
(1.15251 -0.205657 -3.06518e-20)
(1.16802 -0.211736 6.36069e-20)
(1.14434 -0.185173 -2.63721e-21)
(1.15848 -0.190694 -6.05546e-20)
(1.13625 -0.166975 9.21754e-20)
(1.14939 -0.172175 3.08097e-20)
(1.12796 -0.150471 3.38726e-20)
(1.14035 -0.155513 3.66325e-20)
(1.11928 -0.135242 -8.40133e-20)
(1.13111 -0.140245 -5.29057e-20)
(1.1101 -0.120976 -3.09874e-20)
(1.1215 -0.12603 -3.19619e-20)
(1.1003 -0.107436 -1.47863e-21)
(1.11137 -0.112608 2.53429e-20)
(1.08981 -0.0944463 -1.15641e-21)
(1.10062 -0.099785 -2.722e-20)
(1.07859 -0.0818786 5.22119e-20)
(1.08918 -0.0874234 -1.99624e-20)
(1.06661 -0.0696512 2.5926e-20)
(1.07699 -0.0754169 7.08099e-20)
(1.05387 -0.0577163 0)
(1.06409 -0.0635905 0)
(1.04034 -0.046046 0)
(1.05056 -0.0517254 -4.33215e-20)
(1.026 -0.0346336 9.34325e-20)
(1.03594 -0.0405527 4.23633e-20)
(1.01164 -0.0239655 1.17241e-19)
(1.01832 -0.0335298 9.39922e-20)
(0.99938 -0.0312116 -6.92925e-20)
(1.22424 -0.552535 2.16411e-19)
(1.13818 -0.486665 2.5093e-19)
(1.34287 -0.562772 2.35498e-19)
(1.36727 -0.541459 9.60181e-20)
(1.33439 -0.500794 1.54367e-20)
(1.37247 -0.506761 -5.79762e-20)
(1.30391 -0.431805 1.45774e-20)
(1.34685 -0.440751 1.7202e-20)
(1.26925 -0.369511 1.53593e-20)
(1.30734 -0.380357 -9.26137e-21)
(1.23935 -0.318285 -1.48805e-20)
(1.27081 -0.327435 2.16726e-20)
(1.21638 -0.277659 -3.5657e-20)
(1.24184 -0.284919 -1.13533e-20)
(1.19908 -0.245369 0)
(1.22007 -0.251117 0)
(1.18547 -0.219088 6.07306e-20)
(1.20338 -0.22382 -1.04955e-20)
(1.17398 -0.197011 3.44802e-20)
(1.18981 -0.20114 6.1414e-20)
(1.16354 -0.177879 -2.79138e-20)
(1.17795 -0.181689 -1.65308e-20)
(1.15351 -0.160863 -2.47871e-20)
(1.16691 -0.164541 -1.10886e-20)
(1.14354 -0.145414 -4.9393e-20)
(1.1562 -0.14909 2.40652e-20)
(1.13337 -0.131141 -1.02894e-21)
(1.14548 -0.134911 -3.3229e-20)
(1.12281 -0.117757 2.39291e-20)
(1.13453 -0.121692 -1.11033e-22)
(1.11174 -0.105041 0)
(1.12317 -0.109197 0)
(1.10005 -0.0928272 -4.60786e-20)
(1.11127 -0.0972466 0)
(1.08766 -0.0809915 -2.17324e-21)
(1.09872 -0.085713 -4.2024e-21)
(1.07452 -0.0694501 4.53562e-20)
(1.08544 -0.0744925 -3.71351e-20)
(1.06058 -0.0581497 -4.30437e-20)
(1.07144 -0.0634053 4.01388e-20)
(1.04581 -0.0470564 1.69581e-21)
(1.05674 -0.0522152 -4.33215e-20)
(1.03013 -0.0361545 4.26156e-20)
(1.04091 -0.0416522 2.11533e-21)
(1.01422 -0.0258266 1.97898e-20)
(1.02219 -0.0353488 3.92779e-20)
(1.00176 -0.0341249 -1.30191e-22)
(1.2802 -0.464391 1.51508e-19)
(1.18931 -0.394494 3.17184e-19)
(1.39632 -0.491123 -1.8536e-19)
(1.41098 -0.463295 -4.90836e-20)
(1.38577 -0.448134 -5.73082e-20)
(1.42027 -0.444462 -2.74575e-20)
(1.34963 -0.393165 -5.81811e-21)
(1.39066 -0.394782 8.80788e-21)
(1.30869 -0.340397 0)
(1.34621 -0.345597 0)
(1.27309 -0.295543 2.29717e-20)
(1.30449 -0.300442 0)
(1.24541 -0.259287 2.35952e-20)
(1.27095 -0.263269 2.3296e-20)
(1.22433 -0.230132 -1.03703e-20)
(1.24541 -0.233255 0)
(1.20772 -0.20623 -1.06123e-20)
(1.22569 -0.208777 2.06844e-22)
(1.1938 -0.186062 1.09957e-20)
(1.20967 -0.188311 -1.91449e-20)
(1.18136 -0.168537 2.40924e-22)
(1.1958 -0.170688 3.06387e-20)
(1.16964 -0.152919 3.72998e-20)
(1.18309 -0.15511 -4.07586e-20)
(1.15819 -0.138712 4.0418e-20)
(1.17093 -0.141041 6.88051e-20)
(1.1467 -0.125568 -3.26021e-20)
(1.15894 -0.128104 1.88731e-21)
(1.13495 -0.113225 -2.39324e-20)
(1.14683 -0.116025 -2.37438e-20)
(1.12276 -0.101485 0)
(1.13441 -0.104594 0)
(1.11001 -0.0901956 4.19067e-20)
(1.12151 -0.0936503 0)
(1.09659 -0.0792408 -3.89423e-20)
(1.10801 -0.0830793 3.97192e-21)
(1.08242 -0.0685371 -4.27571e-20)
(1.09379 -0.0727831 -8.257e-20)
(1.06744 -0.0580277 4.03963e-20)
(1.07883 -0.062582 1.13227e-19)
(1.05154 -0.0476734 -3.99994e-20)
(1.0631 -0.0522262 -4.43255e-20)
(1.03462 -0.0374491 -1.44378e-20)
(1.04619 -0.0424271 -4.0248e-20)
(1.01716 -0.0276282 1.96122e-20)
(1.02649 -0.036925 3.92779e-20)
(1.00464 -0.0369217 -2.00066e-20)
(1.31896 -0.381956 1.25373e-19)
(1.22266 -0.31222 4.23721e-20)
(1.43499 -0.41872 1.07741e-19)
(1.4397 -0.385699 -1.78399e-21)
(1.42586 -0.392322 3.67474e-20)
(1.45547 -0.380608 2.24531e-20)
(1.38698 -0.350661 1.47733e-20)
(1.42494 -0.34597 1.45303e-20)
(1.34205 -0.307654 0)
(1.37807 -0.307693 0)
(1.30233 -0.269609 0)
(1.33299 -0.270585 0)
(1.27095 -0.238137 0)
(1.29609 -0.239075 0)
(1.2468 -0.212461 1.04368e-20)
(1.26759 -0.213139 0)
(1.22768 -0.191216 -8.25154e-21)
(1.24542 -0.191723 2.34711e-20)
(1.21173 -0.173182 2.06873e-22)
(1.22739 -0.173668 -2.54673e-20)
(1.19759 -0.157446 -9.80507e-21)
(1.21186 -0.158033 1.98948e-20)
(1.18444 -0.14338 -1.02406e-20)
(1.19775 -0.144156 -2.97423e-20)
(1.17174 -0.130554 3.07553e-20)
(1.18439 -0.131584 1.98603e-20)
(1.15914 -0.118664 1.09058e-20)
(1.17134 -0.119995 1.08156e-20)
(1.14637 -0.107484 0)
(1.15828 -0.109155 -2.62594e-20)
(1.13324 -0.0968386 0)
(1.14498 -0.0988848 8.92664e-21)
(1.11959 -0.0865942 -3.79636e-20)
(1.13125 -0.0890483 8.20296e-21)
(1.1053 -0.076645 -3.90464e-20)
(1.11695 -0.0795454 -3.01098e-20)
(1.09026 -0.0669111 7.23141e-20)
(1.10195 -0.0702883 -3.79309e-22)
(1.07437 -0.0573335 2.75665e-20)
(1.08618 -0.0611027 7.30877e-20)
(1.0575 -0.0478675 -4.45992e-20)
(1.06958 -0.0517288 -6.86786e-20)
(1.03946 -0.0384777 0)
(1.05174 -0.0428358 3.22589e-20)
(1.02049 -0.0293372 0)
(1.0312 -0.0381944 0)
(1.00802 -0.0395547 2.06604e-20)
(1.34237 -0.304916 -8.21516e-20)
(1.24148 -0.237128 0)
(1.46063 -0.347421 -8.5932e-20)
(1.45567 -0.310642 -1.30474e-19)
(1.45524 -0.335265 0)
(1.47905 -0.317008 -1.10219e-20)
(1.41615 -0.305925 0)
(1.45019 -0.295897 9.91609e-21)
(1.36926 -0.272503 0)
(1.40304 -0.267947 -1.50337e-20)
(1.3269 -0.24142 0)
(1.35626 -0.238852 5.51483e-21)
(1.29284 -0.214943 0)
(1.31716 -0.213117 -1.48617e-22)
(1.26631 -0.192946 1.27544e-20)
(1.2865 -0.191399 -2.46891e-22)
(1.24521 -0.174525 6.42391e-21)
(1.26245 -0.173176 1.2581e-20)
(1.2276 -0.158759 -6.05164e-21)
(1.24284 -0.157638 -8.83196e-21)
(1.2121 -0.144924 2.82405e-22)
(1.22601 -0.144076 7.81985e-21)
(1.19779 -0.132504 0)
(1.2108 -0.13197 7.55774e-21)
(1.18408 -0.121142 0)
(1.1965 -0.120951 -7.08247e-21)
(1.17057 -0.110583 -2.60404e-20)
(1.18262 -0.11076 -3.54321e-21)
(1.15697 -0.100641 -1.75856e-20)
(1.1688 -0.101208 -5.68869e-21)
(1.14307 -0.0911695 1.71351e-20)
(1.1548 -0.0921497 2.07808e-21)
(1.1287 -0.0820556 1.63346e-20)
(1.14041 -0.0834764 -3.68377e-21)
(1.1137 -0.073208 8.18761e-21)
(1.12547 -0.0751086 3.63116e-21)
(1.09795 -0.0645541 0)
(1.10984 -0.066974 -3.63391e-21)
(1.08132 -0.0560349 -2.42417e-20)
(1.09342 -0.0589124 -1.87241e-20)
(1.06364 -0.047599 1.07224e-20)
(1.07611 -0.0506604 -2.46355e-20)
(1.04462 -0.0391965 3.2451e-20)
(1.05751 -0.0428117 4.33972e-20)
(1.02421 -0.0309165 2.05416e-20)
(1.0363 -0.0390564 -3.76396e-21)
(1.0119 -0.0419575 -1.27825e-21)
(1.3528 -0.232814 -4.51944e-20)
(1.24757 -0.16755 0)
(1.4746 -0.278721 -5.80652e-20)
(1.46045 -0.239121 1.07614e-20)
(1.47473 -0.278439 -1.74056e-21)
(1.49215 -0.254999 -4.92164e-20)
(1.43751 -0.260263 -4.70036e-21)
(1.46703 -0.245788 9.91609e-21)
(1.39046 -0.236 -1.11989e-20)
(1.42137 -0.227468 -1.98292e-21)
(1.34681 -0.211811 5.44505e-21)
(1.3744 -0.206119 1.91736e-21)
(1.31103 -0.190385 1.16952e-22)
(1.33418 -0.186103 -1.48617e-22)
(1.2828 -0.172148 -4.91805e-22)
(1.30213 -0.168626 -6.17806e-22)
(1.26022 -0.156624 -2.93e-21)
(1.27676 -0.153633 1.33423e-21)
(1.24136 -0.143186 4.96008e-21)
(1.25602 -0.140642 -6.29994e-21)
(1.22482 -0.131295 1.50403e-20)
(1.23822 -0.129172 9.61609e-21)
(1.20962 -0.120554 5.52111e-22)
(1.22222 -0.118843 7.55774e-21)
(1.19514 -0.110681 -1.06567e-20)
(1.20723 -0.109378 -4.92443e-22)
(1.18094 -0.101477 1.67968e-20)
(1.19273 -0.10058 -1.60154e-20)
(1.16671 -0.092796 1.38532e-20)
(1.17836 -0.0923072 2.36816e-20)
(1.15222 -0.0845263 -1.8697e-20)
(1.16384 -0.0844531 -2.51441e-22)
(1.13727 -0.0765809 -1.63798e-20)
(1.14895 -0.0769401 -1.14461e-20)
(1.12171 -0.0688895 -8.108e-21)
(1.13352 -0.0697148 -8.12552e-21)
(1.1054 -0.0613937 -2.22574e-20)
(1.1174 -0.06273 1.39454e-20)
(1.08818 -0.0540422 -1.82395e-20)
(1.10046 -0.0558574 -4.24354e-20)
(1.06986 -0.0467798 1.24247e-20)
(1.08257 -0.0488507 1.32125e-20)
(1.05005 -0.0395316 7.4631e-21)
(1.0634 -0.0421863 1.47469e-20)
(1.02831 -0.0323046 -2.55981e-20)
(1.04172 -0.0392646 3.69871e-23)
(1.01625 -0.0439341 -1.80486e-20)
(1.35199 -0.165502 5.51126e-20)
(1.24197 -0.102712 0)
(1.47824 -0.213411 1.96103e-20)
(1.45515 -0.17164 5.64662e-20)
(1.4852 -0.222928 -3.89048e-20)
(1.4958 -0.195497 -8.48639e-21)
(1.45156 -0.214728 1.27539e-20)
(1.4761 -0.196569 0)
(1.40589 -0.198892 1.00328e-20)
(1.43351 -0.187171 1.29708e-20)
(1.36216 -0.181448 -3.64755e-21)
(1.38754 -0.173114 -3.59747e-21)
(1.32556 -0.165072 -3.96626e-22)
(1.34721 -0.158663 0)
(1.29631 -0.150593 1.15371e-21)
(1.31455 -0.145368 8.36709e-22)
(1.27273 -0.137966 -2.35943e-21)
(1.28841 -0.133564 1.57912e-21)
(1.25302 -0.126847 -1.78486e-21)
(1.26694 -0.123087 -3.85515e-21)
(1.23575 -0.116884 2.15368e-21)
(1.24854 -0.113671 -2.99673e-23)
(1.21994 -0.107796 6.52894e-21)
(1.23202 -0.105073 0)
(1.20493 -0.0993816 -5.76421e-21)
(1.2166 -0.0971088 6.59002e-21)
(1.19026 -0.0914964 -9.45571e-21)
(1.20172 -0.0896432 -9.45529e-21)
(1.17559 -0.0840378 9.7457e-21)
(1.187 -0.0825813 6.15863e-21)
(1.16067 -0.076931 7.07726e-21)
(1.17214 -0.0758558 3.74627e-21)
(1.1453 -0.0701209 -3.21403e-21)
(1.15691 -0.0694209 3.65103e-21)
(1.12931 -0.0635664 1.37694e-20)
(1.14112 -0.0632521 -3.64813e-21)
(1.11255 -0.057236 -5.88062e-21)
(1.12461 -0.0573346 1.75649e-20)
(1.09485 -0.0511062 -9.83991e-21)
(1.10723 -0.0515937 -2.37366e-20)
(1.07602 -0.0451477 1.70644e-20)
(1.08884 -0.0458432 1.34499e-20)
(1.0556 -0.0392692 7.31339e-21)
(1.06917 -0.0404221 3.55343e-21)
(1.03267 -0.0333051 7.50477e-21)
(1.04736 -0.0380678 3.7612e-21)
(1.02096 -0.0446388 7.36565e-21)
(1.34103 -0.102426 0)
(1.22559 -0.0423858 -1.77158e-20)
(1.47257 -0.151333 2.88355e-20)
(1.44069 -0.108542 0)
(1.48729 -0.169448 3e-20)
(1.4906 -0.13909 2.21584e-20)
(1.45875 -0.170438 0)
(1.47772 -0.148899 -1.08539e-22)
(1.41582 -0.162473 0)
(1.43974 -0.147736 -4.05648e-22)
(1.37312 -0.151248 0)
(1.39603 -0.140493 -1.80933e-21)
(1.33657 -0.13962 1.22981e-21)
(1.35653 -0.131369 -9.17217e-23)
(1.30692 -0.128779 1.26067e-21)
(1.32391 -0.122116 7.89837e-22)
(1.28283 -0.118976 0)
(1.29751 -0.113404 2.75192e-22)
(1.26263 -0.110114 -2.127e-21)
(1.27573 -0.105358 0)
(1.24495 -0.102012 -2.17051e-21)
(1.25705 -0.0979145 -1.94565e-21)
(1.22881 -0.0945048 0)
(1.24031 -0.0909625 -4.63393e-22)
(1.21352 -0.0874665 2.99692e-21)
(1.22471 -0.0844045 1.11232e-22)
(1.19859 -0.0808078 6.04947e-21)
(1.20969 -0.0781674 2.3543e-21)
(1.18367 -0.0744674 1.84748e-22)
(1.19483 -0.0722005 3.17082e-21)
(1.1685 -0.0684052 3.27739e-22)
(1.17982 -0.0664707 -3.48446e-21)
(1.15285 -0.0625976 3.27695e-21)
(1.16443 -0.0609603 2.44522e-21)
(1.13656 -0.0570343 0)
(1.14844 -0.0556698 -1.05268e-23)
(1.11944 -0.051717 0)
(1.13167 -0.0506119 1.71911e-22)
(1.10133 -0.046664 0)
(1.11394 -0.045761 -3.63949e-22)
(1.082 -0.0419301 0)
(1.095 -0.0410008 7.20687e-22)
(1.06104 -0.0376147 0)
(1.0745 -0.0366204 -3.57547e-22)
(1.0376 -0.033686 3.60136e-21)
(1.05193 -0.0348148 0)
(1.02648 -0.0413257 3.62218e-21)
(1.32062 -0.0423239 -1.81405e-20)
(1.1997 0.0134556 -6.86244e-20)
(1.45802 -0.0934086 -7.14116e-21)
(1.41684 -0.0500009 5.17094e-20)
(1.48157 -0.11858 -7.53271e-21)
(1.47728 -0.0860375 -7.42875e-21)
(1.45951 -0.127558 -4.84089e-22)
(1.47247 -0.103563 -1.76652e-20)
(1.42065 -0.126801 -2.20877e-21)
(1.44041 -0.109713 1.32971e-20)
(1.37999 -0.121504 -1.91323e-21)
(1.40006 -0.108819 2.78716e-22)
(1.34427 -0.11447 -5.43522e-22)
(1.36228 -0.104701 -9.17217e-23)
(1.3148 -0.107136 -1.90019e-22)
(1.33037 -0.0992969 -4.56486e-22)
(1.29064 -0.100049 2.78255e-22)
(1.30422 -0.093544 1.78246e-21)
(1.27033 -0.0933448 2.01641e-22)
(1.28252 -0.0878192 -6.03338e-23)
(1.25255 -0.0870043 -2.53078e-22)
(1.26388 -0.08224 -6.30214e-22)
(1.23634 -0.0809715 -3.55359e-22)
(1.2472 -0.0768232 2.82745e-22)
(1.22101 -0.0751942 -5.5108e-22)
(1.23168 -0.0715573 1.42766e-21)
(1.20605 -0.0696342 -5.30172e-22)
(1.21675 -0.0664287 -1.50051e-22)
(1.19111 -0.0642675 -4.54584e-22)
(1.20198 -0.0614299 1.44793e-22)
(1.17589 -0.0590823 -1.41193e-21)
(1.18707 -0.056561 7.55705e-26)
(1.16017 -0.0540789 -8.24104e-22)
(1.17173 -0.0518332 -1.7689e-22)
(1.14375 -0.0492691 1.59835e-22)
(1.15576 -0.0472743 -1.05268e-23)
(1.12642 -0.0446774 -1.88464e-22)
(1.13895 -0.0429266 1.71911e-22)
(1.10794 -0.0403459 3.61214e-22)
(1.12106 -0.0387998 -3.63949e-22)
(1.08794 -0.0363574 3.39378e-22)
(1.10178 -0.0348476 -4.58895e-21)
(1.066 -0.0328701 -3.59676e-22)
(1.0806 -0.0315389 1.03155e-20)
(1.04196 -0.0300114 0)
(1.0572 -0.0312183 -5.36092e-21)
(1.03254 -0.0363561 -2.46415e-21)
(1.29101 0.0124045 -1.7581e-21)
(1.16458 0.0647946 3.28044e-20)
(1.43511 -0.0396 5.21855e-20)
(1.3844 0.00379223 -8.41949e-21)
(1.46852 -0.0708617 -1.74548e-20)
(1.45616 -0.0366802 -1.89111e-22)
(1.45414 -0.0868487 -4.37665e-21)
(1.46071 -0.0610767 3.23996e-21)
(1.42059 -0.0926148 1.59519e-20)
(1.43576 -0.0735596 -2.29837e-22)
(1.38295 -0.0927782 2.10125e-21)
(1.39987 -0.0785542 2.0724e-21)
(1.34883 -0.0900594 0)
(1.36467 -0.0790851 0)
(1.32012 -0.0860556 1.48909e-21)
(1.33412 -0.0773031 0)
(1.29634 -0.0815499 1.46417e-21)
(1.30871 -0.0743506 -1.84848e-21)
(1.27626 -0.0768822 -8.43472e-22)
(1.28746 -0.0708138 -2.3081e-22)
(1.25868 -0.0721855 -7.68388e-23)
(1.26918 -0.0669763 -1.49062e-22)
(1.24267 -0.067509 2.05617e-21)
(1.25283 -0.0629757 7.45043e-22)
(1.22755 -0.0628735 1.84245e-21)
(1.23764 -0.0588858 -2.65524e-21)
(1.2128 -0.0582928 5.23352e-22)
(1.22304 -0.0547549 2.99038e-21)
(1.19806 -0.0537823 6.02048e-22)
(1.20859 -0.0506225 0)
(1.18303 -0.0493636 1.24025e-21)
(1.19397 -0.0465285 6.06868e-22)
(1.16745 -0.045069 6.38176e-22)
(1.1789 -0.0425211 6.33582e-22)
(1.15109 -0.0409483 0)
(1.16312 -0.0386669 1.9873e-21)
(1.1337 -0.0370771 0)
(1.14639 -0.0350479 0)
(1.11498 -0.0335654 -5.27558e-21)
(1.12841 -0.0317108 0)
(1.09453 -0.0305449 5.66677e-21)
(1.10881 -0.0286796 -3.15248e-21)
(1.07197 -0.0281061 7.57149e-21)
(1.08718 -0.0266296 1.06731e-20)
(1.04718 -0.0262807 -7.84172e-21)
(1.06343 -0.0281063 1.93333e-21)
(1.0373 -0.0331839 -1.35034e-20)
(1.25258 0.0623082 2.53543e-20)
(1.12023 0.111404 1.01562e-19)
(1.40411 0.00966376 -6.10661e-20)
(1.34361 0.0526882 -7.95752e-20)
(1.44852 -0.0266984 2.02995e-20)
(1.42749 0.00851088 1.75915e-20)
(1.44301 -0.0485652 7.49126e-21)
(1.44279 -0.0215766 -2.06648e-20)
(1.41583 -0.0602985 -1.39782e-20)
(1.42593 -0.0398076 -1.3769e-20)
(1.38222 -0.0654834 0)
(1.39565 -0.0500741 0)
(1.35044 -0.0667785 0)
(1.36388 -0.0548909 0)
(1.32306 -0.0659003 -3.30919e-21)
(1.33535 -0.0564853 -3.6077e-21)
(1.30009 -0.0638204 -3.68829e-21)
(1.31115 -0.0561562 -5.7032e-21)
(1.28058 -0.0610558 4.19831e-22)
(1.29074 -0.0546626 9.84468e-22)
(1.26349 -0.0578791 6.8699e-22)
(1.27312 -0.0524369 6.80312e-22)
(1.24794 -0.0544422 -3.92977e-21)
(1.25736 -0.0497313 -9.41768e-22)
(1.23325 -0.050841 -1.50466e-21)
(1.24272 -0.0467056 -2.05999e-21)
(1.21894 -0.0471467 2.49197e-21)
(1.22865 -0.0434732 2.47136e-21)
(1.2046 -0.0434221 0)
(1.21471 -0.0401264 -2.36386e-21)
(1.18994 -0.0397319 0)
(1.20056 -0.0367509 -3.93103e-21)
(1.17466 -0.0361512 1.97289e-21)
(1.18589 -0.0334383 2.23186e-21)
(1.1585 -0.0327746 2.00111e-21)
(1.17042 -0.0302972 1.03022e-20)
(1.14116 -0.0297228 0)
(1.15387 -0.0274479 7.96551e-21)
(1.1223 -0.0271432 2.14332e-21)
(1.13588 -0.0249699 -1.13404e-20)
(1.1015 -0.0251922 2.17048e-21)
(1.11604 -0.0229313 8.33968e-21)
(1.07837 -0.0240081 7.25081e-21)
(1.09404 -0.0220684 -8.05136e-21)
(1.0526 -0.0237346 1.44781e-20)
(1.06984 -0.0248344 1.83446e-20)
(1.04294 -0.0304433 -1.95035e-20)
(1.20549 0.107299 -9.24239e-22)
(1.06668 0.153011 1.79339e-20)
(1.3653 0.0542281 -1.78767e-21)
(1.29457 0.0964793 -7.23591e-22)
(1.42182 0.0137878 -2.26614e-20)