/*--------------------------------*- C++ -*----------------------------------*  =========                 |
  \      /  F ield         | OpenFOAM: The Open Source CFD Toolbox
   \    /   O peration     | Website:  https://openfoam.org
    \  /    A nd           | Version:  11
     \/     M anipulation  |
\*---------------------------------------------------------------------------*/
FoamFile
{
    format      ascii;
    class       volScalarField;
    object      U;
}
// * * * * * * * * * * * * * * * * * * * * * * * * * * * * * * * * * * * * * //

dimensions      [0 1 -1 0 0 0 0];

internalField   nonuniform List<scalar> 
2880
( 
0.06960445291724733
0.14000346571168013
0.2677750315165804
0.3374218606813413
0.40951661505689296
0.3664042138278332
0.1026596004733894
0.18936716772356949
0.2983768054490251
0.36404096658081747
0.4295281355560111
0.3417316731772921
0.11667564472903912
0.207101623896634
0.31642577741514255
0.372926244445482
0.4001934430154016
0.309390163901262
0.1255570821856018
0.22686445918339015
0.29881784502865194
0.34939309647791333
0.35318985866768016
0.2685771203057472
0.15088604939333827
0.23069270871283665
0.29659233498080906
0.32278414994173854
0.30534073795609706
0.24433806301134933
0.15702387773982793
0.22995884455926008
0.2907256211466413
0.29420281843384205
0.25783320205272403
0.21894567503671802
0.17758416209463063
0.23576014818210522
0.27575062703937064
0.26755380140509766
0.2238829304872826
0.1772257134443046
0.1726142512129362
0.2389924658755545
0.2625490034010705
0.24253436844837484
0.193668229583234
0.1669224493812872
0.18534317551768836
0.23247732536823934
0.2548647707774664
0.22142725154481463
0.1641660466034703
0.13544456653722653
0.19597178271572638
0.23541973943456312
0.24654856602680972
0.20681651555352068
0.15194733439783698
0.13008140559804932
0.19978328307733564
0.23269660982216725
0.24264624199042453
0.19590221859923815
0.12737522159030054
0.10620006042517272
0.19250559856707725
0.23512432203335867
0.23832321259111613
0.1945157811953182
0.14347408070521378
0.1010555807896123
0.20125591211018148
0.23496600660825886
0.24010688277765838
0.20150652530260746
0.15141821628700955
0.11689271260943424
0.19451944349968975
0.2381622103210239
0.24437731313873218
0.2147970314821744
0.1700738231201825
0.1459312416647987
0.19576483109856602
0.23854756398756802
0.24800050464122816
0.22658601995108926
0.20273182102711637
0.17220763216126939
0.17523412835561994
0.2337683176013038
0.2547186321020093
0.24681679460666922
0.23165875371877084
0.20647392636987072
0.17056078528830207
0.2335292292973194
0.25947789519007475
0.2668441992078972
0.2531644474713425
0.23010956639628447
0.15735917209044487
0.22617336118482778
0.2625869328109333
0.27944016423811424
0.27967090025579766
0.2769028728976929
0.13970350666695613
0.21261039300603246
0.2614287886049759
0.2910190406915379
0.2997529692174524
0.30087826205279045
0.12307147992903501
0.20341644085267774
0.2669692716711516
0.300239662513012
0.3197483365062093
0.3383525701743962
0.09985134371917012
0.18651439637396433
0.264032461813865
0.3071569058473146
0.3376612299118179
0.3541368280634488
0.08748680016430727
0.16888060880418523
0.25624583233015175
0.3018330188785225
0.3454073109249908
0.3740859502739571
0.06829792781670063
0.14492769575663259
0.24232684245215683
0.28883023231540195
0.3405588929304576
0.38114684547231253
0.048552694239242036
0.1082960993048511
0.2031539111603306
0.254018998936563
0.30560880982234667
0.37738668441843704
1.0270278552342953
1.2168861087698315
1.2765452213080528
1.3079649510472477
1.3055519591140428
1.2830223310179818
1.2842371731296263
1.2758147081232132
1.2652161776391957
1.2537816112894602
1.2559421319428303
1.2435765247591326
1.240711663805222
1.234497219105117
1.2213319326995755
1.2094531090486977
1.1980546342531295
1.1827235032176129
1.1692160124640196
1.1494084196327168
1.13138007053222
1.1066245544609898
1.0819541510946509
1.0505618272462312
0.7465040262540649
1.1359187686228989
1.2673269893226213
1.3034497825269056
1.339834956969376
1.3171806776887396
1.30658602779737
1.3038125021954288
1.3059278211067253
1.286752504946861
1.2827666033718617
1.27164217279143
1.256408900854112
1.2497643216358274
1.238675313427611
1.2218980730896398
1.2085665032882908
1.1941846863500014
1.1809755549577863
1.1616481294804264
1.1415781149959536
1.1150230668542658
1.0886941668629078
1.0572585507368466
0.5197659146673121
1.015367923159176
1.2091218379817297
1.3074393208177049
1.340657317356602
1.355358906041408
1.3441832361079993
1.3350388803693751
1.3257146384916656
1.3125670429411138
1.2995895827770843
1.2908076969066784
1.2803655173963753
1.265204827793394
1.2543627525185548
1.2415128450243207
1.2247105278597352
1.20630680181978
1.1910416683403922
1.1711243757137952
1.1474782544229194
1.1216107257665442
1.095903148177618
1.061440638057182
0.41609744135604987
0.8480188838154312
1.14423020270555
1.273256285061139
1.3159807430593409
1.363602610723962
1.3394393231606663
1.355000976179776
1.3549344757568884
1.3393539096770253
1.328281581353396
1.3132584182801557
1.2986733988422037
1.2826767350661283
1.265594788921975
1.2459725972645017
1.2337223973035927
1.220859673428019
1.199625679500599
1.1785457996354514
1.1539950632976963
1.128262643663179
1.101843990169288
1.067501669538685
0.35352121654863855
0.7329016841411247
1.0339089236792869
1.2044463199326945
1.3015204903918864
1.3676548332842156
1.3495243712924
1.3752060544681348
1.3698276409385595
1.35559151189323
1.3474327452486097
1.3253812078696352
1.3166576869144495
1.2996019023092964
1.273728947400318
1.2642404998182268
1.2372527208871538
1.224671514054064
1.206994706999135
1.1856812663205551
1.1604441907552814
1.1373170881254238
1.1073612106175261
1.0744292451509354
0.31890675932752915
0.6480247180541469
0.9361601826752171
1.1351715701025111
1.2719859244820615
1.3430614403566112
1.348851942258583
1.3874292125197867
1.3811828091043798
1.3692615950013012
1.3633935215012225
1.3474943201243805
1.3268168486338738
1.3099855779766794
1.2876174961437536
1.2699180062676516
1.2514666800349148
1.2342480879956241
1.2121366474884003
1.1917997076029119
1.1663920434933877
1.1427868717148568
1.1135428708694906
1.079514861898422
0.28177669859368226
0.558218790197567
0.8535510630880896
1.064218915850046
1.1924283713555344
1.295665804238978
1.372364156219383
1.3988895766341876
1.3976158544366517
1.397183483512899
1.3783671416000938
1.3506060620029836
1.324618842366486
1.3226003790208383
1.2974865544723169
1.281963221109912
1.2589414381138644
1.2365952373603095
1.2196385697648024
1.195755734144074
1.178682205839848
1.1466062045903347
1.1215058626547338
1.087268346126644
0.24687152428497805
0.48520028011597616
0.7571153288993118
0.9979286872543323
1.115236206080881
1.2525456858756965
1.3176886515445432
1.3801025497560626
1.379164093215902
1.3972308815896577
1.3846747072250045
1.3748950214780358
1.3363008845880722
1.3278690760889176
1.309702354715751
1.2879333146862428
1.264215245140779
1.2470745276539072
1.2253915673743718
1.201364865046251
1.1817551177710717
1.1552020643280456
1.1265085062429594
1.0947807029592866
0.22425300796909808
0.4038098236743844
0.6364465661861362
0.8696571664891259
1.06088279605587
1.1664362005117488
1.2977517735445177
1.3395187509705269
1.3728647848950928
1.38040118691034
1.3810095687318489
1.3724037460095042
1.3525694072256476
1.3360445947577362
1.3140964422085892
1.2936173675443863
1.2834466646002325
1.2563903896980515
1.232438831264466
1.2159502115292156
1.1849046875120124
1.1599656280302437
1.1369867912729665
1.1020988719893616
0.17757156783219014
0.3329287120099171
0.588245644140035
0.7908365633648006
0.9609183775964525
1.1127855358497183
1.2351240651558228
1.2768714302936965
1.3460776493593374
1.3654632672660656
1.3653340480665088
1.358202344132955
1.3445585477178628
1.3249199683150197
1.3155011185176908
1.2924870440208718
1.2871931378607855
1.2643065107943539
1.2410864975769689
1.2185181032354997
1.197944523372952
1.17191900910474
1.1425526677574172
1.1091837128695539
0.150357172340707
0.3091923538725382
0.4974469154407755
0.7351476823025533
0.8933848559189057
1.060102847105891
1.1663807834581952
1.2458195774825915
1.2804003911394137
1.320554984232165
1.3263137077036746
1.3387403180418176
1.3339383054918277
1.3249293317568236
1.3085715059967622
1.2915763301430605
1.278761244490679
1.2604042851579158
1.2481997768104536
1.2238698815120879
1.1986753769823535
1.1753155144590601
1.1506770489481415
1.122595508419433
0.1305976881459937
0.23415141773289122
0.4404074705491968
0.6456585344462008
0.8099392451464007
0.9567787458078155
1.0844726338003843
1.1753168546752382
1.240094523996267
1.2797915612954687
1.2855160315206686
1.3073870501793907
1.3203233965701129
1.3138615412775887
1.3072613694864876
1.2815621399558472
1.276750707009033
1.2643384665393524
1.2422450367525004
1.229069131231647
1.2066521521599172
1.1806460315425555
1.1624264384931928
1.1325131048436163
0.13630341579431376
0.23059929727345851
0.3784057798271181
0.5600709512182277
0.7311865267681779
0.8708818344836795
0.9882517425596917
1.0999081325207534
1.1548261415164962
1.209298519150373
1.2411172151163479
1.2682668645268038
1.2746378324143004
1.274976254301793
1.2878656123442591
1.282768694214617
1.2654703177517106
1.2525233202504396
1.2459304354395924
1.2236240976507182
1.2074893612705306
1.1948291947295604
1.1737330053300354
1.1429143323497697
0.12379253180765015
0.21906722794376404
0.3152389521191328
0.5071790400285435
0.6666142237751875
0.7768438490873755
0.9152016851302057
1.003566820401779
1.067364247986028
1.1345059312471173
1.1833075697026307
1.2073404612427314
1.2394270928799338
1.235806483012193
1.2457815295605625
1.247471538379021
1.242155907253238
1.2392935402969536
1.2348021584804074
1.221747330591231
1.211597919073682
1.1936374032140096
1.1719971211738414
1.1533091036204703
0.17281607421848438
0.20121083823569624
0.327168342586435
0.45707362904877663
0.581272997017058
0.7118110952076916
0.8213290313698864
0.9052086733255724
0.9832250032851564
1.0597671760012788
1.098616101900267
1.135704660237346
1.1633886597545111
1.182168042063088
1.2052934146555583
1.2059487964058513
1.220344453037848
1.2209668960803703
1.2153262590838174
1.2142789263722886
1.201184326719844
1.1933554895632514
1.1766704005186663
1.1544220837749408
0.19850205561719025
0.23173358775182207
0.31847462745829674
0.43133508393898035
0.5220250691005026
0.6235534192921546
0.7480736421712203
0.8227412464089676
0.8914110068279478
0.9548467622017073
1.0147465686644503
1.0626258187707982
1.08191295647307
1.1223289116353814
1.1475501369486847
1.1639096091456633
1.1691529446283064
1.1824556618901632
1.1848791164193404
1.1912246581999117
1.1822689857398647
1.17983011515328
1.1661021718438034
1.1568172787854174
0.22775401816145435
0.2771237186915174
0.34431375438959233
0.43151127102636344
0.5200360624804717
0.5937248537290174
0.6651213366155437
0.7559545745729934
0.8184150083850821
0.8803232113576678
0.9259265209753816
0.95899711168248
1.008596595535039
1.0429057379909354
1.0731153117935648
1.1091739095560607
1.116346204479388
1.131506216287305
1.1452543331788576
1.1511624281271786
1.1601619737692457
1.1558109142779105
1.1478774835744567
1.1391600660686974
0.2672486999191053
0.31197535332410053
0.36424529547672024
0.4135233145584793
0.4860384029398419
0.535335460113372
0.6216221292878562
0.686005108749682
0.7317618011777023
0.8011873821447637
0.8386187067196689
0.901675562725528
0.9237811452696726
0.9630224461971604
0.9962458601093889
1.038203894698043
1.0551863888758009
1.0817312009012297
1.0919629810245337
1.1047610170330255
1.1182675301563987
1.116050415600293
1.1145254298866483
1.1167587516310042
0.3235256035795761
0.3509946495200057
0.3903220941410862
0.4442400742734654
0.4861317307321736
0.5231934875949635
0.5925897139082533
0.637284255670396
0.6834048558572174
0.7285623340075461
0.7728353107508413
0.8159100781445955
0.8493201388585045
0.8780002042667024
0.909764370855648
0.9578054729616259
0.9753290449633224
0.9952148541921503
1.0254084871114408
1.0483806284577035
1.0563074320024357
1.0695567057725988
1.0752474890056307
1.078038713095465
0.35297184390644926
0.3930544625365072
0.4151800124425886
0.459183709521804
0.47077899450763216
0.512274571982603
0.5638946384684835
0.5955092039059989
0.6309807644991692
0.677994081313323
0.7062644476041204
0.7322418687397512
0.770038878209035
0.8133162287381538
0.8278725127649085
0.8705133465105573
0.8934837265574953
0.9299648739037328
0.962066435332229
0.9751952368851584
0.9941932154037453
1.0118471468459778
1.0211549289179067
1.028186984451299
0.4028574529750371
0.442285704328005
0.434076978016296
0.4665850928570993
0.4808033077529752
0.5046058892456714
0.5347821746276392
0.5829093402178434
0.595437663370279
0.6235520397926135
0.6583245653452492
0.6798810737216217
0.7018251329444978
0.739226394444187
0.7622726290722377
0.7936732469384102
0.819780383674007
0.8524243395018295
0.8822456708022983
0.9021338886229018
0.9333493894192602
0.9409198819249676
0.95717325856086
0.9736483524136317
0.45144576209904097
0.4743107520399665
0.47428749520680635
0.47548964715649406
0.46934710694317106
0.5088274298126425
0.5114833869762936
0.5314020314275728
0.5431396440135775
0.5716688068131888
0.6059886198903908
0.6387291309495451
0.649577021986186
0.6519717047867035
0.7084236644132248
0.7354216400008178
0.7541677959477993
0.7821451279107128
0.8089096080512204
0.8404135114432517
0.8596312038053275
0.8874348983314087
0.8953113442393514
0.9125804197688964
0.48075166291624927
0.529616508683876
0.4999642622663291
0.4807938370970195
0.47090180564140094
0.4647432957353984
0.4823330642497814
0.5106770524660826
0.5083454281963996
0.5196875939088099
0.5439665525499483
0.5550467868789445
0.5911680686288275
0.612250104173474
0.6444501616520872
0.6727150004038176
0.7042233395742454
0.7245574717057817
0.7516716871501733
0.7625464083951738
0.7998826646399633
0.8078826615224806
0.8397245900170724
0.8540160487185849
0.5457241644414907
0.5354029726193084
0.49908597720423686
0.4697937047261876
0.473883947135015
0.47560701645950376
0.4644128109574329
0.4643042980596933
0.45724581921790497
0.5003960690753573
0.5204358318559512
0.5297787799767932
0.5536951918492463
0.5733867743083468
0.5765445015314237
0.620197313403638
0.6468387289213797
0.6769199545143884
0.7049589185106149
0.7157518987183122
0.7371754928515215
0.7529077804059562
0.7657841651940269
0.8051064531570445
0.06761578906522814
0.17052653115101427
0.2835761980606569
0.3401035016738784
0.38430428419493284
0.45031538964098977
0.11610735039740155
0.231374636056592
0.32036102139897127
0.3603443344551315
0.40100356767618484
0.4240223299350411
0.14151223844590802
0.25605785072056514
0.32733366486228377
0.3650583783943602
0.4048210131681681
0.43588842622668456
0.16329996737500135
0.27051601350846555
0.3288723468073816
0.36525417159322704
0.3881498108384574
0.43994659441686457
0.18744649445778128
0.2842435359690545
0.3368855498234059
0.36772612244419334
0.391265628482149
0.4316754304523835
0.21228686903881602
0.29142579510886
0.33582809826029525
0.3641577334002526
0.38994112036969103
0.4262907959117302
0.23200897677403337
0.29771602917912715
0.33846913777377885
0.36183394982746697
0.39700828031672364
0.42355744050529803
0.24681339074290462
0.30751386474287357
0.35244885568715734
0.36356193135203496
0.40220228870117913
0.43500211001231665
0.2567221706937279
0.3089116548184903
0.3464163529494562
0.36154299598305784
0.3907245226267039
0.40978968465222176
0.27711892026577933
0.31130524100682627
0.3500817791511223
0.3605547374484247
0.379555150239829
0.40141188176845183
0.2811413840927352
0.3216634773847881
0.34962245295614314
0.3739002365970414
0.3926840423050658
0.3953735368395705
0.2841061327787515
0.3185906946127884
0.35006192218275567
0.36413327451237676
0.3771048209918315
0.38632390631961744
0.28393457438259473
0.3141275832831416
0.34142998723978984
0.3753733388095496
0.3911263795613658
0.38105528492971713
0.2788210237870953
0.3131710818660036
0.3519632964426261
0.3672211772476105
0.36501400600910944
0.38114836306895833
0.27668517028979117
0.31291676142924374
0.3479646198454851
0.3712248580633248
0.3861006147787248
0.37827288973133844
0.26949978924260404
0.31391647937741224
0.35277818909704634
0.3756651582511877
0.3808340890231995
0.3699407633878363
0.2588099468284347
0.30172223402619597
0.35093722646348063
0.37780582166956955
0.3922078445003419
0.3880669029027505
0.24664035068478224
0.30278189975007275
0.35550450680430934
0.3825127402110774
0.39359276230887597
0.38170113952441376
0.23183657502679922
0.29603307455610056
0.354586948957614
0.38093044945067495
0.39654923600287906
0.387772995269281
0.21299460488258604
0.2842959546472096
0.35255840436847286
0.3853015476135011
0.41382433386582274
0.4120073530625302
0.18575847572939716
0.2633280698770438
0.3465744551180062
0.3913680451992966
0.43304150789030366
0.40822312715246467
0.16221960145160047
0.24203319347584165
0.33243059555971405
0.38836690740791346
0.44599548035202446
0.42000352785416406
0.1329234242221908
0.21653538950477053
0.3168557334599281
0.37368516251523043
0.47217313753567647
0.43414879808085743
0.074279881202763
0.15979929672316442
0.2822118193042621
0.318027762210415
0.47754727776057115
0.39496961473374054
0.5692731745012638
0.5382217861268346
0.5109825808196455
0.49971307012110133
0.4737589492532075
0.4589353542161497
0.4561530440671472
0.4480085270583005
0.44070055786260565
0.45810456825098667
0.4711128079099368
0.502105435634594
0.5179733647604112
0.5449507317174506
0.5646651258059027
0.5921442207086008
0.6100533418843705
0.6584335168595155
0.6547179274224436
0.6829489793527848
0.6982432884589996
0.7110335377052815
0.7320533799437096
0.745455547683341
0.5658188141222373
0.5559819288842381
0.5406892975256876
0.4852035500438924
0.4522732299529094
0.44158346602896736
0.43634814479682693
0.40368299408169783
0.4245149329873076
0.4088917302213074
0.4529256205200186
0.5038777325517736
0.4975712880350277
0.53586490522699
0.5377320613449167
0.5875158067612242
0.580985557858415
0.6321236898100776
0.6298114229846636
0.6508205622680889
0.6695717679967833
0.6875982578414978
0.7028672554572664
0.699695868906183
0.5443167455175192
0.5742599088200873
0.571740202669846
0.5036351762748158
0.47054337808309865
0.42450235911949863
0.40145224383443
0.42367756381806654
0.41163472523959044
0.4607364861884172
0.46673741622678677
0.49133342198741736
0.5208279395300067
0.5506446383008464
0.5730351086450013
0.5750772058319294
0.5903913515178048
0.6230955561052332
0.6260262401886607
0.6164340433606603
0.6614959911815462
0.6785042769212517
0.679460742406335
0.6792493425693509
0.5238102814487129
0.5836557346724349
0.535837751153579
0.5233168593842923
0.4810468352795083
0.427643662136711
0.39991727922977827
0.44104680593812307
0.4478087264403323
0.4906580875409928
0.5147574206246387
0.5328951436816659
0.5627926844653578
0.5651299066706594
0.5689936495982164
0.5937554786677826
0.6071891240340553
0.629241093675873
0.6369844524979327
0.6619791694210122
0.6518088492459232
0.6673482640338562
0.6762131565955385
0.6752307612295477
0.5248095721535442
0.5701095915155647
0.5689393117836665
0.5375197645316793
0.46998055347136825
0.441150216307692
0.44724519794909434
0.48860144418125984
0.520246586400337
0.5519688751106232
0.5855524537075483
0.6120694918766909
0.6185044958999677
0.6318674076645624
0.6381076983530773
0.633119639762205
0.6382890541467867
0.6508054441092235
0.6560378699524906
0.6597934902645222
0.6821830223348698
0.6695789094173421
0.6863308844417744
0.6837499776517126
0.505558662290945
0.5438639511843734
0.534148264556762
0.5113041048943752
0.4872139850660992
0.5148477751632441
0.5027810392654973
0.554312310931588
0.6399411573860141
0.6615196416261109
0.6747853236169428
0.7100355455683025
0.6933412165664126
0.7131248379697371
0.7147802272092687
0.7039682695395146
0.694968658063241
0.7203069721534384
0.7152197324644618
0.7242635007759556
0.7230975180422687
0.7136006731218589
0.718488708308876
0.7209610447480005
0.48302855253291144
0.5139607424221707
0.5456940697096504
0.511297790929942
0.48279067334063464
0.54114696122575
0.6200335909106061
0.686692299399815
0.7196319565363424
0.7933572923051146
0.8010267039740542
0.7986500641099551
0.8022439636011636
0.7852167472169567
0.7988652265360294
0.8098210619761654
0.7556256707234683
0.7711661355554764
0.7813894779218371
0.7840625801321673
0.8082693794283056
0.7690626601935073
0.7792114012973992
0.7765076268139774
0.4762306356435856
0.4772425864110229
0.513783037435526
0.5129412819283665
0.5398206795625049
0.6248413094392318
0.709804952074433
0.8238817278956372
0.8796115144125285
0.9051897120215815
0.9440704440555246
0.9072175076783218
0.9167550838124785
0.8883823071370234
0.8806535021427209
0.9170244941525918
0.888383721829964
0.8924833732360092
0.8585599362240053
0.8558501386579399
0.8609945276928955
0.8433540669669327
0.8620789264730949
0.8625256095963523
0.47832112582444286
0.4766880484519539
0.47486948482102365
0.4986623115565068
0.5782999033733951
0.7273764601682391
0.8594887507334505
0.9339872701328543
1.0302560106490297
1.0588009048657951
1.0779569461295047
1.0598474116067433
1.0569525512473985
1.0405253114257997
1.0022537410937824
0.9993782655631789
1.0090224256215565
0.9974442636506324
0.9902029020602998
0.9810388808677543
0.955343127657226
0.9500822998667642
0.954305808145701
0.9437126582010004
0.4171030459887193
0.4623753153232817
0.4816615425511308
0.5014414698203656
0.6562139710364971
0.8376074745087506
1.0012356210369286
1.0759376002300902
1.130012607301556
1.1305494267799536
1.1686431735594967
1.1711945980327023
1.1553211107248984
1.132520775833768
1.1014584610633622
1.1171586093274817
1.09861070798982
1.120100468870923
1.1129367430706087
1.1013729975615223
1.054048585349397
1.0447533216299911
1.0429837499521766
1.0468141632975034
0.40787142909652846
0.42985413609792156
0.4578949146832193
0.5651533245968952
0.7899936453772296
0.958611713876016
1.103163067973112
1.1714191223099237
1.2311766287090358
1.2800198500777171
1.2179755159834202
1.2279961910649622
1.2466664103640284
1.2529180842044814
1.2057676606611083
1.2170538623857585
1.2437635706880652
1.2052629929335124
1.1831990336701987
1.1854567523377304
1.1819697828297433
1.1588144810773564
1.1525652328921927
1.126892537638597
0.3923804637610532
0.40271916319835116
0.4451211191844748
0.6433038092559442
0.878078852398743
1.107573126465678
1.2085177189811205
1.2585025932327794
1.2850126105931865
1.3109382806892234
1.3134664096613602
1.3537544904602787
1.2770464128144572
1.2961661354427503
1.2848047898065587
1.3134690444542108
1.3137522740909064
1.294180648568068
1.2812194153623104
1.2685520134694706
1.2518267522396345
1.2518449840914907
1.2493481637165529
1.2036233511439083
0.3866408003100047
0.4144646077886991
0.49289999075472857
0.7209893164504961
1.0025142552367179
1.163496783804197
1.2927063547689839
1.3121713914847946
1.3586841135178733
1.362871057092687
1.3482000191784789
1.3616935381096944
1.371265769959801
1.3514541383285397
1.3870508848325787
1.3648784645692813
1.414719266455443
1.3468532816151526
1.3370707512421793
1.323807216784762
1.3411712118898467
1.305407221433344
1.2968241268912455
1.2837031708438245
0.38634792733903156
0.3962371077113206
0.5435626966605875
0.8822077868320191
1.1300880282764447
1.2553632231551244
1.3146831808703898
1.3522854096511157
1.3528702350536272
1.3791119836243833
1.3873464586061341
1.3990651890755101
1.3877702159424001
1.4172137652043066
1.4172170783040738
1.434087587087914
1.4473855264041187
1.4031071350933713
1.3863226084116178
1.3622935698076517
1.3635020276815926
1.3576505349457604
1.3385559765872543
1.3058156866925121
0.35874290083824106
0.412151931632271
0.6669690726557087
1.006381217679798
1.2360551766266692
1.322841584719618
1.3550217234166526
1.3995642591137691
1.4019811990541935
1.4152494801328517
1.4126686618238353
1.4228655260831773
1.4117097235743306
1.4187822310418507
1.4314515365310734
1.4649124032330771
1.4617701904756693
1.4470877481470783
1.4337119991247067
1.410704662810822
1.3788628549618507
1.3583042988989784
1.3177680654189818
1.2986496495475657
0.3633644660911246
0.4361497585967956
0.8183325291825551
1.1447807218513988
1.3317860898898948
1.3973831785953301
1.4149228846619244
1.4089193850602786
1.414921730830529
1.4382030033941444
1.4266844052830725
1.4222637309963062
1.4257089677280435
1.4490290794798901
1.4508259196495863
1.4486216669774374
1.433051423888699
1.4169150575748966
1.4149215930161925
1.3808331074257083
1.3780367824726416
1.3325328581205835
1.3004193356302085
1.27491492828049
0.36298187067921334
0.5313614647271419
0.9376983931381556
1.2606214556850805
1.3818288492472022
1.437586768862488
1.4414992697542157
1.4759121056996536
1.4472123546049895
1.4389550552481694
1.4508508757163763
1.4634314022786623
1.4212790444198893
1.4672832927164914
1.4344274652290565
1.4198944894760093
1.3985867625784776
1.3891332177696918
1.3664992949881265
1.3492122729243803
1.3238494819326492
1.2904295881527126
1.262128351223263
1.2332715777620855
0.3645481052242219
0.6347419031424446
1.108624737599703
1.3490498623314702
1.431465562425828
1.4990520581265416
1.4929952405029527
1.4936344816542804
1.4930362110481905
1.4871316948377205
1.4587057527258647
1.4706206871453988
1.4646397714726462
1.4332743258407412
1.4107627709501942
1.3872348889871295
1.3642758105882713
1.349383400544769
1.3223842560669055
1.291750923312953
1.2769336151863269
1.2472170396755748
1.2019350756027878
1.1751638877898305
0.3779331083522391
0.8013864614722455
1.2392951920419177
1.4339875966541662
1.493853847255124
1.5035059332965344
1.500510728685165
1.503450799934242
1.4751969031627754
1.4699585472431387
1.4872911495874936
1.4551513057539764
1.4505005142685277
1.4196506710280286
1.3924368418743438
1.349447638886355
1.3180035685104132
1.2943425662088361
1.2659767109688564
1.235475726777485
1.2116730444928252
1.1882330675527806
1.1601107024128534
1.124765696274334
0.4043920955188996
1.0071542639467819
1.3320394857181959
1.4939456378428582
1.5065958018644885
1.5207018924644466
1.509332391016915
1.4872540806287489
1.5036983604659142
1.4746138369786759
1.4662356385836506
1.4351956735426672
1.404230950364977
1.3764674115649043
1.3241690167842208
1.3068649675991209
1.2661798524045078
1.2358549413805553
1.2149550979748558
1.1850089529463201
1.1624752764404702
1.1410677143229262
1.1058867598055107
1.0819713092505618
0.4946873956672871
1.1891404762269644
1.4258485852711096
1.4866665447156464
1.5126161000894838
1.5047827038198722
1.4951321984608157
1.5218390686666965
1.4840200750480523
1.4597058862663466
1.4376043825997071
1.3942572405659868
1.3528117762393777
1.305155564437531
1.2697665100923006
1.2407283993055584
1.2045019248340463
1.1837756706046045
1.165905883581191
1.1439619732162076
1.1143422256334505
1.0910785796719589
1.0702559138690784
1.0511234577706554
0.7038509438086782
1.3346240991938176
1.4720798435674158
1.5045724440607717
1.5171300993667771
1.513670522813023
1.4936630018976582
1.4572870635254151
1.4489191677610176
1.4270229019225749
1.377696065769591
1.332002506986999
1.2931876024077942
1.2506951525484875
1.2132628595402908
1.1879620558605073
1.1611485452648895
1.140653756352604
1.1136916498340144
1.0981013049304724
1.099936299166476
1.0655717728653553
1.0482474424720993
1.0229593664471524
0.9666711598366392
1.3952092374627059
1.486359103495007
1.5251552866910632
1.4951736122380999
1.49171595293029
1.4771084130181513
1.4391177019169032
1.3950667625986053
1.3558298974029221
1.3106420450391414
1.271173512438376
1.2395934292638162
1.20154755666688
1.1780395290589631
1.1507947776496232
1.1318276474657114
1.1092235237634935
1.0871973430020492
1.0726471188378937
1.0607809837462825
1.053761653539471
1.0343951264975684
1.016804350861577
1.2341871326847467
1.4223975840389427
1.4897480219212933
1.4916464200375772
1.4685858416562454
1.4660057800407094
1.423234012977947
1.3865526581552152
1.3547935845834398
1.3111857211276225
1.265982659597333
1.2277884191705914
1.1777140216748088
1.156308632348306
1.141544765483736
1.126245324502786
1.0845688209579987
1.0794838510207714
1.0657921440848757
1.0651405327039636
1.0486492104126404
1.035053432666579
1.022684645118673
1.0046567348437707
0.08987158771679873
0.1413695531815317
0.15884661056042731
0.25628386308772616
0.38720592210557775
0.8509586349958973
0.11427850064216104
0.13291634664305446
0.167283376965503
0.2864682120165678
0.46257515617473094
0.7711401931439754
0.12097341722903893
0.12441104128549577
0.1819635619701504
0.30366391599185155
0.5065738597769589
0.7677378144593971
0.12561756455405615
0.12587115149299802
0.19530482574797503
0.3367769070924374
0.5372623709616103
0.7742233414696778
0.13013184068985054
0.12706782042587147
0.21080114066279665
0.35863684543611735
0.5560566942290184
0.7821599630107834
0.1317373249463868
0.12916641308561028
0.22894420563965648
0.37651017530641767
0.5727974954290356
0.7679503460406278
0.1335431240935574
0.13529773630625425
0.23912779242202814
0.39875155934010276
0.5881413970588543
0.7727723498998036
0.1353007523473999
0.13538146696354733
0.2479102583386133
0.4045711523803949
0.5924218359955868
0.7629720463736238
0.13761220962755913
0.13816212605777514
0.25152927257664387
0.4198000156316267
0.5937076280006114
0.7441755382754147
0.13802770555752777
0.1407400457764852
0.2521468806063042
0.4261899843184137
0.5995738138239803
0.7559055807241313
0.1385839347134212
0.13779921410296547
0.2538442394548692
0.4286684698105677
0.5952299587603361
0.7249449756408464
0.1378320997707711
0.13899216299533113
0.2553293138370572
0.42237524860745934
0.5951677856719024
0.7389111913022719
0.13891396239154977
0.14080740895654037
0.24844427458863677
0.41578098937882285
0.5948145234241916
0.7366531335300697
0.136260858445597
0.1370739706942724
0.24231026719589951
0.4110369747085909
0.5944215101745447
0.7213327807649379
0.1370690609752952
0.13299401284720644
0.23085590640872644
0.39683814210590157
0.5849320290785146
0.7106485346810045
0.13923214981426063
0.13154183486055948
0.22140019154125792
0.3839602955149038
0.5699272794100085
0.6950730441437865
0.1351729268311745
0.13105711784636825
0.2114439757289302
0.365609747427232
0.5488845942428062
0.695434272712437
0.13388173040860002