/*--------------------------------*- C++ -*----------------------------------*\
  =========                 |
  \\      /  F ield         | OpenFOAM: The Open Source CFD Toolbox
   \\    /   O peration     | Website:  https://openfoam.org
    \\  /    A nd           | Version:  11
     \\/     M anipulation  |
\*---------------------------------------------------------------------------*/
FoamFile
{
    format      ascii;
    class       volScalarField;
    location    "0.44";
    object      epsilon;
}
// * * * * * * * * * * * * * * * * * * * * * * * * * * * * * * * * * * * * * //

dimensions      [0 2 -3 0 0 0 0];

internalField   nonuniform List<scalar> 
2880
(
1.53238
1.74905
2.24166
2.52101
2.87408
3.78398
0.745613
0.809305
1.01165
1.17992
1.4366
1.96173
0.208217
0.604766
0.761791
0.902916
1.09313
1.40009
0.234352
0.538455
0.674631
0.804209
0.95742
1.15066
0.255458
0.515962
0.639366
0.762698
0.894329
1.02819
0.271032
0.514922
0.627306
0.746892
0.866775
0.971142
0.280215
0.528149
0.627526
0.744989
0.859561
0.952043
1.19155
0.556785
0.634586
0.751915
0.86654
0.958391
1.19803
0.580713
0.645397
0.764867
0.885014
0.985624
1.20938
0.599899
0.657832
0.782048
0.91272
1.03042
1.21926
0.614712
0.670649
0.802132
0.948031
1.09091
1.22316
0.625428
0.682963
0.823961
0.98949
1.1658
1.21852
0.632117
0.69404
0.846356
1.03546
1.25373
1.20474
0.634675
0.703175
0.868007
1.08392
1.3529
1.18995
0.63308
0.709648
0.887452
1.13228
1.4607
1.18578
0.625495
0.71273
0.903171
1.17742
1.57334
1.1884
0.606736
0.71228
0.913881
1.21579
1.68557
0.28096
0.572106
0.709279
0.919119
1.24375
1.79037
0.275403
0.54565
0.706527
0.920073
1.25853
1.87876
0.264098
0.532149
0.709484
0.921756
1.26141
1.94435
0.246907
0.540347
0.728132
0.935629
1.26317
1.98768
0.224057
0.595271
0.791923
0.993839
1.29369
2.02489
0.832391
0.824745
1.01429
1.22188
1.45644
2.13851
1.88956
2.03101
2.30553
2.53564
2.45106
2.60182
2.74222
2.78073
2.99369
3.17593
3.25486
3.2077
3.05412
2.82428
2.55319
2.27859
2.02224
1.78645
1.57479
1.3891
1.22877
1.09207
0.976765
0.880287
0.800263
0.733744
0.679724
0.632336
0.599501
0.55748
1.79222
1.87122
2.07195
2.2888
2.44889
2.51574
2.49874
2.41601
2.28431
2.13043
1.97011
1.8174
1.67909
1.5586
1.45632
1.37237
1.30644
1.25678
1.22158
1.19801
1.18312
1.17317
1.16796
1.16053
1.35763
1.38333
1.51571
1.6885
1.8414
1.94195
1.98725
1.98486
1.94901
1.88781
1.8183
1.75015
1.68964
1.64047
1.60692
1.58814
1.58235
1.58474
1.59376
1.60434
1.61255
1.6153
1.61187
1.60334
1.14408
1.14372
1.22536
1.34053
1.4529
1.54146
1.60031
1.63154
1.64116
1.6381
1.62868
1.6199
1.6161
1.61784
1.6263
1.64037
1.6583
1.67713
1.69404
1.70599
1.71023
1.70606
1.69409
1.67347
1.03979
1.03712
1.0933
1.17136
1.24693
1.30833
1.35377
1.38622
1.40945
1.42744
1.44369
1.46088
1.48016
1.5016
1.52445
1.54696
1.56697
1.58232
1.59138
1.5921
1.58566
1.56985
1.54125
1.5109
0.996891
1.00346
1.05128
1.11247
1.16753
1.2095
1.23935
1.26023
1.27564
1.28876
1.30182
1.31602
1.33152
1.3471
1.3609
1.37121
1.3766
1.3762
1.37051
1.35855
1.34118
1.31898
1.29452
1.27409
0.990317
1.01246
1.06229
1.11745
1.16396
1.19704
1.2181
1.23061
1.23802
1.24301
1.24714
1.25093
1.25401
1.25558
1.25517
1.25246
1.24725
1.23985
1.23102
1.22154
1.21232
1.20419
1.19764
1.19218
1.01478
1.06179
1.12569
1.18725
1.23481
1.26534
1.28147
1.2873
1.28662
1.28237
1.27638
1.26962
1.26244
1.25482
1.24658
1.23763
1.22817
1.21871
1.2099
1.20251
1.19741
1.19572
1.19789
1.20207
1.06698
1.14803
1.23816
1.31847
1.37845
1.41642
1.43611
1.44226
1.43938
1.43088
1.41917
1.40579
1.39171
1.37754
1.36376
1.35071
1.3387
1.32801
1.31904
1.31208
1.3072
1.30526
1.30815
1.31887
1.14539
1.27225
1.40217
1.51377
1.59687
1.65135
1.68222
1.6955
1.69653
1.68997
1.67855
1.6645
1.64934
1.63434
1.62006
1.60656
1.59361
1.58077
1.56967
1.55728
1.54027
1.51725
1.49115
1.46165
1.2503
1.43797
1.6227
1.77726
1.89161
1.96809
2.01406
2.03747
2.04494
2.04257
2.03354
2.01985
2.00417
1.98908
1.97253
1.95348
1.93081
1.90249
1.86088
1.80617
1.73986
1.66204
1.58306
1.509
1.38292
1.65024
1.90494
2.11016
2.25711
2.35306
2.40971
2.4374
2.44551
2.44211
2.42773
2.40394
2.37093
2.32547
2.27125
2.20918
2.13892
2.06004
1.97649
1.88682
1.79078
1.68491
1.58359
1.45363
1.54483
1.91485
2.25194
2.50585
2.67349
2.77221
2.82231
2.83339
2.81004
2.75999
2.69325
2.61715
2.53406
2.44945
2.36091
2.26676
2.16586
2.05748
1.93931
1.81042
1.6739
1.52195
1.38731
1.18906
1.73806
2.2382
2.6614
2.94386
3.10016
3.16357
3.13684
3.06357
2.96323
2.86143
2.75375
2.63979
2.51956
2.39064
2.25359
2.1083
1.95505
1.79361
1.62534
1.4507
1.27553
1.09509
0.944791
0.73875
1.96526
2.62702
3.12112
3.38355
3.46449
3.38121
3.24721
3.10144
2.94358
2.77271
2.59401
2.41045
2.22366
2.03438
1.84296
1.6495
1.45436
1.25977
1.0709
0.888279
0.71918
0.571922
0.450747
0.343749
2.23051
3.08721
3.60216
3.75857
3.62742
3.41615
3.17384
2.91353
2.65123
2.39332
2.14293
1.90165
1.67005
1.44778
1.23372
1.03126
0.838331
0.667045
0.522076
0.409216
0.325116
0.261849
0.214057
0.180847
2.54147
3.61944
4.04869
3.94533
3.62734
3.22472
2.83037
2.46127
2.12197
1.8128
1.53288
1.28051
1.05313
0.848232
0.667147
0.51717
0.405483
0.321281
0.257158
0.208215
0.171118
0.143585
0.123473
0.114195
2.91204
4.20642
4.38501
3.98163
3.36264
2.79365
2.30129
1.88244
1.5277
1.22845
0.977186
0.766774
0.59335
0.456461
0.356539
0.281432
0.224452
0.181196
0.148312
0.123431
0.105109
0.0921597
0.0834461
0.0825346
3.37953
4.77948
4.5486
3.75706
2.9236
2.2668
1.75632
1.35822
1.04665
0.803187
0.613359
0.467782
0.358839
0.279827
0.22099
0.176645
0.143006
0.117398
0.0979187
0.0832611
0.0725619
0.0650969
0.060987
0.0618604
4.02379
5.25679
4.60073
3.36436
2.44445
1.79109
1.32363
0.984116
0.735123
0.551527
0.416672
0.31819
0.246089
0.192022
0.151144
0.120102
0.0964677
0.0784955
0.0649879
0.0551929
0.0485618
0.0446731
0.0437092
0.0455756
4.98532
5.66925
4.47013
2.97699
2.03222
1.42307
1.01581
0.735055
0.537437
0.396621
0.295404
0.221769
0.167559
0.127573
0.0981074
0.0764599
0.0606723
0.0493478
0.0415056
0.0364294
0.0335304
0.0324861
0.0330671
0.0355406
6.41161
6.18796
4.15751
2.56765
1.67396
1.13334
0.786683
0.554972
0.395953
0.284984
0.206629
0.151007
0.111578
0.0837221
0.0641144
0.0503664
0.0407767
0.0341609
0.0297318
0.0269736
0.0255715
0.0253961
0.0262266
0.0286229
8.41882
6.54702
3.65116
2.16232
1.36423
0.89911
0.608287
0.418093
0.290527
0.203853
0.1447
0.104339
0.0767956
0.057934
0.0449206
0.0358546
0.0295019
0.0250891
0.0221513
0.0203991
0.0196579
0.0197891
0.0207209
0.0228481
11.4837
6.58315
3.18295
1.78754
1.10064
0.710265
0.469403
0.314714
0.213546
0.146923
0.102917
0.0737269
0.0542102
0.0410107
0.0319699
0.0257146
0.0213788
0.0184233
0.0165196
0.0154644
0.0151415
0.0154083
0.0163482
0.0181628
2.54126
6.70392
10.5177
11.7341
10.8551
39.1917
0.899612
3.62857
5.61153
7.25668
9.51496
13.0323
1.20014
2.8832
4.44523
6.02257
7.71811
8.3814
1.61253
2.59009
3.96279
5.43881
6.68815
6.65739
1.95636
2.44784
3.71166
5.09631
6.04753
5.75274
2.23462
2.37578
3.56647
4.87817
5.61765
5.13954
2.45111
2.34049
3.47838
4.74543
5.33107
4.6968
2.60953
2.32203
3.42248
4.67138
5.14739
4.36296
2.71338
2.30663
3.38326
4.63534
5.03796
4.10868
2.76575
2.28499
3.34993
4.62277
4.98574
3.92751
2.76927
2.25062
3.31411
4.6293
4.97377
3.81227
2.72701
2.19936
3.26829
4.64949
4.98877
3.76206
2.64525
2.12921
3.2044
4.67503
5.04259
3.7698
2.53615
2.04002
3.11498
4.69945
5.13534
3.83715
2.39896
1.93143
2.99303
4.7143
5.26712
3.97301
2.23424
1.80511
2.83216
4.70633
5.43765
4.1909
2.04316
1.66098
2.63037
4.65432
5.6456
4.50883
1.82541
1.49825
2.38973
4.52572
5.88737
4.95547
1.57272
1.31356
2.11031
4.28201
6.15477
5.57452
1.25113
1.09893
1.80292
3.86931
6.43144
6.43999
0.265709
0.845541
1.50036
3.23544
6.61487
7.69012
0.243032
0.72253
1.24644
2.49947
6.54356
9.69405
0.919306
0.844546
1.17395
1.89324
5.41582
13.844
2.35686
1.8556
2.10719
2.36094
2.93303
27.4792
14.3924
5.05908
2.48372
1.43224
0.88273
0.560537
0.362043
0.237034
0.157559
0.106779
0.0741447
0.0529733
0.0390529
0.0297495
0.023425
0.019065
0.0160443
0.0139839
0.0126609
0.0119461
0.0117697
0.0120368
0.0128505
0.0143092
7.73601
3.65326
2.01157
1.17906
0.714718
0.443
0.279219
0.178931
0.11704
0.0785767
0.0544134
0.0389875
0.0289362
0.0222374
0.0176743
0.0145107
0.0123003
0.0107754
0.00978111
0.00923175
0.00908288
0.00928607
0.00992192
0.0110671
5.73188
3.05625
1.68538
0.968983
0.575445
0.349213
0.215664
0.135924
0.0879718
0.0588211
0.0407874
0.0293694
0.0219472
0.0169912
0.0135983
0.011227
0.00954979
0.00836962
0.00757291
0.00709937
0.00692047
0.00702588
0.00747022
0.00834111
4.69589
2.53597
1.39514
0.795303
0.46491
0.276621
0.16773
0.104346
0.0671056
0.0448452
0.0312052
0.022598
0.0169962
0.0132391
0.0106481
0.00881772
0.00750138
0.00654904
0.00587294
0.00542661
0.00519075
0.00517773
0.00543265
0.00605407
3.92494
2.13256
1.17065
0.658755
0.377749
0.220378
0.131575
0.081124
0.0520345
0.0348436
0.0243581
0.0177381
0.0134126
0.0104931
0.00846256
0.00701125
0.00594872
0.00515654
0.00456265
0.00412662
0.00383083
0.0036861
0.00375958
0.00415146
3.35891
1.82101
0.991256
0.549133
0.308939
0.177091
0.104443
0.0640332
0.0410665
0.0275879
0.0193754
0.0141756
0.0107604
0.00843979
0.00681233
0.00563635
0.00476143
0.00409155
0.00356495
0.00314297
0.00280416
0.00254964
0.00243511
0.00259813
2.94065
1.58116
0.849794
0.462398
0.255143
0.143926
0.084065
0.0513743
0.0329911
0.0222412
0.0156832
0.0115145
0.00876173
0.00687957
0.00555022
0.00458128
0.00385181
0.00328302
0.00282182
0.00243116
0.00208515
0.00177239
0.00150199
0.001251
2.63211
1.39486
0.737514
0.393569
0.213092
0.118515
0.0687076
0.0419213
0.0269712
0.0182402
0.0129009
0.00949271
0.00723154
0.00567801
0.00457536
0.00376744
0.00315562
0.00267529
0.0022824
0.00194514
0.00163859
0.00134543
0.00106473
0.000739601
2.40221
1.2495
0.648589
0.339203
0.180344
0.0990499
0.0570772
0.0347947
0.0224248
0.0152005
0.0107704
0.00793237
0.00604284
0.00474076
0.00381441
0.00313456
0.00261944
0.00221561
0.00188694
0.00160754
0.00135705
0.00112105
0.000895431
0.000642637
2.22729
1.13632
0.578501
0.296438
0.154895
0.0841162
0.0482135
0.0293673
0.0189473
0.0128583
0.00911501
0.00671055
0.00510645
0.00399985
0.00321249
0.00263519
0.00219873
0.00185788
0.00158218
0.00134987
0.00114386
0.000952901
0.000776054
0.000589178
2.0986
1.04981
0.523906
0.263054
0.135197
0.0726497
0.0414154
0.0251933
0.0162556
0.0110299
0.00781158
0.00574126
0.00435943
0.00340682
0.00273029
0.00223572
0.00186333
0.00157409
0.0013418
0.00114786
0.000977948
0.000823345
0.000684407
0.000544777
2.00942
0.985904
0.482319
0.237338
0.120001
0.063817
0.0361708
0.021955
0.0141501
0.00958638
0.0067734
0.00496363
0.00375705
0.0029273
0.00234019
0.00191309
0.00159347
0.00134704
0.00115093
0.000989021
0.000849127
0.000724244
0.000614942
0.000509389
1.95645
0.941985
0.451701
0.217782
0.10832
0.0570009
0.0321117
0.0194247
0.0124887
0.00843578
0.00593847
0.00433391
0.00326706
0.00253643
0.00202229
0.00165077
0.00137493
0.00116423
0.000998355
0.000863134
0.000748039
0.000647264
0.00056118
0.000481023
1.93789
0.915909
0.430519
0.203319
0.0994453
0.0517596
0.0289628
0.0174374
0.0111687
0.00751164
0.00526173
0.00382014
0.00286575
0.00221589
0.00176184
0.00143649
0.00119727
0.00101655
0.00087604
0.000763098
0.000668484
0.000587219
0.000519332
0.000458276
1.95256
0.906415
0.417822
0.193165
0.0928434
0.0477645
0.0265243
0.0158734
0.0101155
0.00676528
0.00470995
0.00339855
0.00253534
0.00195181
0.00154762
0.0012609
0.00105247
0.000897004
0.000777826
0.000683497
0.000605783
0.000540278
0.00048665
0.000440032
2.00479
0.91153
0.412907
0.186775
0.0881184
0.0447707
0.02465
0.0146444
0.00927395
0.00616054
0.00425826
0.0030512
0.00226227
0.00173353
0.00137093
0.00111666
0.000934202
0.000800067
0.000698851
0.000620074
0.00055629
0.000503502
0.000461053
0.00042539
2.09724
0.937437
0.414792
0.183797
0.0849722
0.0425938
0.0232306
0.0136848
0.00860274
0.00567024
0.0038878
0.00276433
0.00203607
0.00155269
0.00122491
0.000997966
0.000837466
0.000721364
0.000635282
0.000569498
0.00051719
0.000474653
0.000440978
0.000413648
2.23601
0.980965
0.424568
0.183944
0.0831677
0.041091
0.022183
0.0129449
0.00807065
0.00527364
0.00358408
0.0025273
0.00184851
0.00140274
0.0011041
0.000900201
0.000758268
0.000657417
0.000584083
0.000529147
0.000486286
0.000452011
0.000425235
0.000404261
2.43231
1.0462
0.442726
0.186237
0.0825139
0.040147
0.021442
0.0123869
0.00765375
0.0049548
0.00333586
0.00233175
0.00169312
0.00127843
0.00100417
0.000819665
0.000693417
0.000605448
0.000542835
0.000496945
0.000461855
0.000434247
0.00041292
0.000396808
2.7025
1.13566
0.468048
0.190741
0.0827812
0.0396688
0.0209545
0.0119809
0.00733346
0.00470134
0.00313439
0.00217113
0.00156476
0.00117559
0.000921618
0.000753391
0.000640356
0.000563236
0.00050961
0.00047124
0.000442542
0.000420338
0.000403347
0.00039096
3.07181
1.25313
0.500518
0.197042
0.0836963
0.0395796
0.020679
0.0117038
0.00709517
0.00450365
0.00297283
0.0020403
0.00145935
0.00109087
0.000853645
0.000698992
0.000597033
0.000529004
0.000482872
0.00045072
0.000427272
0.000409484
0.000395992
0.00038646
3.57587
1.40107
0.534963
0.204389
0.0850998
0.0397547
0.0205762
0.0115385
0.00692747
0.00435432
0.00284594
0.00193524
0.00137368
0.00102162
0.000798002
0.000654543
0.000561791
0.000501329
0.000461396
0.000434341
0.000415175
0.000401013
0.000390419
0.000383092
4.25464
1.56218
0.566878
0.211684
0.0867148
0.0401141
0.0206113
0.0114658
0.00682142
0.00424786
0.00274984
0.00185299
0.00130533
0.00096579
0.000752913
0.000618497
0.000533286
0.000479049
0.000444196
0.000421272
0.000405535
0.000394297
0.000386201
0.000380584
4.83644
1.68422
0.592708
0.217504
0.0882353
0.0405815
0.0207434
0.0114729
0.00677168
0.0041807
0.00268197
0.00179151
0.00125258
0.000921882
0.000717063
0.000589682
0.000510473
0.000461258
0.000430516
0.000410928
0.000397939
0.000389003
0.000382867
0.000378647
3.16702
7.71701
11.4452
11.6851
9.74188
30.3111
1.10603
4.73197
6.37811
6.81307
7.18736
10.1747
1.62732
3.81724
4.79401
5.16823
5.48599
6.06652
2.25099
3.40322
4.06806
4.33999
4.47623
4.45893
2.81915
3.15518
3.64214
3.83126
3.86933
3.65535
3.32121
2.99769
3.36048
3.4997
3.48483
3.20168
3.75185
2.89621
3.16482
3.27771
3.23665
2.93186
4.10869
2.82951
3.0264
3.12847
3.07998
2.77399
4.39057
2.78612
2.9283
3.03139
2.9893
2.69335
4.59671
2.75817
2.86044
2.97406
2.94957
2.67207
4.72622
2.74075
2.81588
2.94848
2.95138
2.6984
4.77936
2.73158
2.78931
2.94891
2.98658
2.77176
4.77418
2.73121
2.77696
2.96769
3.05684
2.88904
4.71847
2.73778
2.77552
3.00345
3.15733
3.05118
4.60433
2.74307
2.77983
3.05179
3.2855
3.26083
4.42355
2.73907
2.7853
3.10832
3.43946
3.52209
4.16885
2.71953
2.78747
3.16975
3.61733
3.84095
3.83424
2.67542
2.7828
3.2348
3.81824
4.23296
3.4157
2.59852
2.7736
3.30717
4.04389
4.72618
2.91265
2.49593
2.77578
3.40102
4.30292
5.38374
2.33264
2.38665
2.8312
3.55376
4.62598
6.38324
1.69716
2.34372
3.05564
3.87586
5.13365
8.33247
1.16458
2.65351
3.84555
4.79282
6.22542
13.6311
3.11033
5.54973
7.93449
8.83566
9.84
45.3528
5.15439
1.74383
0.602709
0.220344
0.0893984
0.0410973
0.0209567
0.011543
0.00677537
0.00415119
0.00264101
0.00174964
0.0012144
0.000888947
0.000689581
0.000567302
0.000492634
0.000447311
0.000419803
0.000402862
0.000392064
0.00038495
0.000380302
0.000377238
4.27095
1.62577
0.585813
0.219363
0.0901138
0.0416395
0.0212452
0.0116751
0.00682414
0.00415824
0.00262675
0.00172699
0.00119029
0.000866465
0.000669946
0.000550853
0.000479289
0.000436768
0.000411658
0.000396723
0.00038762
0.000381933
0.000378429
0.00037629
3.50645
1.45767
0.555897
0.215856
0.0905619
0.0422377
0.0216156
0.0118722
0.00692055
0.004198
0.00263791
0.00172379
0.00118027
0.000854231
0.000657868
0.000540002
0.000470096
0.000429291
0.000405765
0.000392224
0.000384353
0.000379745
0.000377126
0.000375685
2.95642
1.31025
0.526927
0.212246
0.0910939
0.0429654
0.0220887
0.0121405
0.00706759
0.0042729
0.0026731
0.00173814
0.0011839
0.000852278
0.000653257
0.000534553
0.000464825
0.000424646
0.000401905
0.000389173
0.000382096
0.000378237
0.000376268
0.000375316
2.57469
1.19963
0.504631
0.210009
0.0920586
0.043917
0.0226978
0.0125072
0.00728265
0.00439203
0.00273665
0.00177075
0.00119991
0.000859395
0.000655658
0.000534432
0.000463392
0.000422727
0.000399957
0.000387434
0.000380711
0.000377337
0.000375769
0.000375126
2.31717
1.12684
0.491089
0.210083
0.0937692
0.0452248
0.0235298
0.013015
0.00758407
0.00456861
0.00283951
0.00183033
0.00123399
0.000878555
0.000666083
0.00053978
0.000465867
0.000423589
0.000399977
0.000387079
0.000380302
0.000376995
0.000375553
0.000375054
2.1511
1.08715
0.486868
0.212896
0.0965997
0.0470732
0.0246285
0.0136723
0.00797496
0.00480284
0.00298088
0.00191618
0.00128638
0.00091061
0.00068563
0.00055155
0.000472783
0.000427513
0.000402099
0.000388143
0.000380774
0.000377167
0.000375595
0.000375056
2.05572
1.07497
0.492163
0.219379
0.100898
0.0495385
0.0260239
0.0144884
0.00846178
0.00509869
0.00316322
0.00202988
0.00135803
0.000956164
0.000714735
0.000570117
0.000484521
0.000434833
0.0004066
0.000390869
0.000382296
0.000377954
0.000375947
0.000375149
2.01714
1.08802
0.507905
0.229922
0.106814
0.0527198
0.0277738
0.0154966
0.00906338
0.00546746
0.00339368
0.00217614
0.00145212
0.00101741
0.000754954
0.000596602
0.000501896
0.000446136
0.000413886
0.000395506
0.00038516
0.000379512
0.000376698
0.000375392
2.02676
1.12587
0.534816
0.245184
0.114729
0.0567998
0.029963
0.0167378
0.00980208
0.00592245
0.00368072
0.00236061
0.00157256
0.00109714
0.000808291
0.000632477
0.000525999
0.000462228
0.000424535
0.00040246
0.000389556
0.000382077
0.000377983
0.000375919
2.08139
1.18985
0.574652
0.266197
0.125141
0.0620043
0.032696
0.0182621
0.0107049
0.00647962
0.00403451
0.00259014
0.00172415
0.0011988
0.000877291
0.000679648
0.000558274
0.000484204
0.000439372
0.000412336
0.000395925
0.000385927
0.000380089
0.000376826
2.18025
1.28277
0.630136
0.294392
0.138707
0.0686245
0.0361054
0.0201327
0.0118051
0.00715836
0.00446735
0.00287304
0.00191277
0.00132667
0.00096515
0.000740544
0.000600598
0.000513523
0.000459516
0.000425977
0.000404883
0.000391475
0.000383241
0.000378261
2.32556
1.40862
0.705587
0.331755
0.156311
0.0770454
0.0403638
0.0224309
0.0131442
0.00798238
0.00499406
0.00321931
0.00214551
0.00148598
0.0010758
0.000818192
0.000655332
0.000552039
0.000486414
0.000444479
0.000417224
0.000399267
0.000387784
0.000380425
2.52224
1.57384
0.805824
0.38092
0.179149
0.0877809
0.0456984
0.0252633
0.0147751
0.00898079
0.00563256
0.00364088
0.00243082
0.00168296
0.001214
0.000916276
0.000725377
0.000602054
0.00052189
0.000469268
0.00043403
0.000410053
0.000394085
0.000383487
2.77781
1.78718
0.936896
0.445385
0.208832
0.101517
0.0524028
0.028778
0.0167648
0.0101895
0.00640442
0.00415196
0.00277871
0.00192503
0.00138541
0.00103924
0.000814265
0.000666415
0.00056824
0.000502162
0.000456654
0.000424723
0.000402667
0.000387653
3.10289
2.05971
1.1068
0.529789
0.247528
0.119185
0.0608745
0.0331504
0.0191976
0.0116532
0.00733585
0.00476943
0.00320096
0.0022209
0.00159674
0.00119239
0.000926286
0.000748616
0.00062831
0.000545427
0.000486814
0.000444469
0.000414258
0.000393221
3.51209
2.40566
1.32559
0.640151
0.298109
0.142022
0.0716397
0.0386077
0.0221811
0.0134275
0.00845869
0.00551343
0.00371142
0.00258076
0.00185588
0.00138203
0.00106658
0.000852892
0.000705584
0.000601888
0.000526707
0.000470877
0.000429857
0.000400579
4.01966
2.84434
1.60533
0.784016
0.364281
0.171653
0.0853871
0.0454504
0.025854
0.0155822
0.00981198
0.00640802
0.00432634
0.00301643
0.00217195
0.0016155
0.00124119
0.00098428
0.000804263
0.000675005
0.000579096
0.000506003
0.00045079
0.000410225
4.64788
3.40125
1.95948
0.970527
0.450662
0.210154
0.103007
0.0540675
0.0303964
0.0182064
0.0114439
0.00748214
0.00506479
0.0035416
0.00255542
0.00190121
0.00145708
0.00114865
0.000929314
0.000768946
0.000647381
0.00055245
0.000478785
0.000422818
5.44803
4.10254
2.40186
1.20898
0.562605
0.260074
0.125616
0.0649477
0.0360514
0.021414
0.0134146
0.00877089
0.00594936
0.00417207
0.00301821
0.00224864
0.00172214
0.0013527
0.0010865
0.000888646
0.000735685
0.000613457
0.000516055
0.000439211
6.53707
4.97576
2.94404
1.50716
0.705648
0.324346
0.154579
0.0787048
0.0431128
0.0253477
0.015799
0.0103173
0.00700705
0.00492629
0.0035739
0.00266849
0.00204518
0.00160398
0.00128239
0.00103984
0.000848918
0.000692989
0.000565373
0.000460487
8.21226
6.05011
3.59018
1.86851
0.884328
0.405972
0.191454
0.0960849
0.0519244
0.0301831
0.0186904
0.0121746
0.00827068
0.00582614
0.00423819
0.00317279
0.00243599
0.00191082
0.00152432
0.00122906
0.000992822
0.000795826
0.000630169
0.000487992
11.613
7.43914
4.3483
2.29043
1.10067
0.507388
0.237825
0.117925
0.0629038
0.036137
0.0222052
0.0144092
0.00978075
0.00689808
0.0050296
0.00377537
0.00290555
0.00228244
0.00182037
0.00146359
0.00117399
0.000927653
0.000714647
0.000523359
20.684
9.87308
5.28607
2.76976
1.35236
0.629614
0.295023
0.145096
0.0765317
0.043472
0.0264881
0.0171044
0.0115881
0.00817502
0.0059707
0.00449266
0.00346655
0.0027292
0.00217948
0.00175152
0.00139988
0.00109516
0.000823956
0.000568546
5.14434
3.99495
3.08878
2.26468
1.65131
2.10347
1.52383
2.25644
2.07742
1.59339
1.45159
2.3804
2.23704
2.2847
2.02562
1.55685
1.503
2.32945
2.78449
2.51626
2.06753
1.61825
1.5764
2.32136
3.20733
2.63834
2.122
1.69928
1.65399
2.31609
3.55691
2.69556
2.16896
1.78876
1.74028
2.31628
3.86022
2.72218
2.21966
1.89075
1.84523
2.34189
4.12807
2.73938
2.2837
2.01018
1.97494
2.40448
4.36526
2.75944
2.36632
2.15052
2.13309
2.51546
4.57439
2.79358
2.46993
2.31394
2.32374
2.68321
4.75792
2.84949
2.59489
2.50117
2.55211
2.90849
4.91878
2.9335
2.74022
2.71197
2.82198
3.19348
5.04097
3.04435
2.9037
2.94596
3.13268
3.54133
5.07571
3.17047
3.08137
3.1998
3.47865
3.95174
5.04629
3.30754
3.27099
3.46786
3.85011
4.41759
4.91957
3.45317
3.47157
3.74311
4.23265
4.91515
4.69714
3.60759
3.68355
4.01824
4.60812
5.40912
4.37396
3.77575
3.90935
4.28845
4.95861
5.85619
3.94201
3.96751
4.15898
4.55655
5.27515
6.21566
3.40642
4.20296
4.45767
4.84129
5.57332
6.47309
2.7865
4.5115
4.86738
5.19712
5.92211
6.71596
2.06196
5.02718
5.55318
5.7668
6.50076
7.26839
1.32759
6.17759
7.15763
6.99165
7.53416
9.83782
4.52001
9.78969
12.5772
11.0516
8.75551
26.8543
16.8752
11.2262
6.11995
3.25443
1.62585
0.771629
0.363849
0.17842
0.0933388
0.0525028
0.0317187
0.0203654
0.0137574
0.00969888
0.00709011
0.00534517
0.00413443
0.00326336
0.00261192
0.00210192
0.00167892
0.00130618
0.000964437
0.000625901
12.4257
10.8652
6.63595
3.67734
1.90197
0.928493
0.444727
0.218677
0.113908
0.0636029
0.0381193
0.024326
0.0163721
0.0115242
0.00842534
0.00635996
0.00492954
0.00390085
0.00313069
0.00252594
0.00202121
0.00157023
0.00114418
0.000698352
9.50204
9.97309
6.96179
4.02161
2.16531
1.09459
0.53694
0.266746
0.138927
0.0772099
0.0459636
0.0291554
0.0195398
0.0137227
0.0100267
0.00757415
0.00588067
0.00466485
0.00375501
0.00303987
0.00244107
0.00190057
0.00137491
0.000790179
7.49098
8.93354
6.91558
4.25518
2.40083
1.26365
0.639115
0.323079
0.169205
0.0938692
0.0555941
0.0350676
0.0233981
0.0163872
0.0119606
0.00903869
0.00702942
0.00559131
0.00451715
0.00367323
0.00296565
0.00232267
0.00168008
0.000912203
6.15376
8.03373
6.7602
4.39552
2.60305
1.43066
0.749603
0.387933
0.205448
0.114203
0.0674279
0.0423286
0.0281188
0.0196334
0.0143103
0.0108184
0.00843131
0.00673238
0.0054701
0.00448272
0.00365697
0.00290416
0.00213296
0.00114731
5.28312
7.27311
6.49404
4.47911
2.77235
1.59208
0.866683
0.461377
0.248363
0.138897
0.0819574
0.0512608
0.0339086
0.0235966
0.0171683
0.0129813
0.0101422
0.00814172
0.00667566
0.00555151
0.00463774
0.00383967
0.00312114
0.00262715
4.72715
6.635
6.12647
4.47962
2.90386
1.74325
0.98799
0.543091
0.298559
0.168685
0.0997547
0.0622474
0.0410104
0.0284267
0.0206256
0.0155816
0.0121946
0.00984323
0.00816442
0.00694015
0.00603704
0.00538008
0.00496773
0.00489198
4.37458
6.10806
5.76117
4.43562
3.00076
1.8808
1.11108
0.632405
0.356487
0.204325
0.121474
0.0757476
0.0497177
0.0343015
0.024784
0.0186723
0.0146104
0.0118371
0.00991514
0.00858944
0.00771097
0.00719764
0.00701888
0.00713095
4.16797
5.68375
5.4265
4.36692
3.06753
2.00325
1.23329
0.728311
0.42239
0.246561
0.147854
0.0923206
0.0604051
0.041457
0.0297871
0.0223393
0.0174402
0.0141516
0.0119363
0.0104806
0.00959643
0.00916695
0.00911359
0.00930163
4.08397
5.35854
5.14039
4.27773
3.10895
2.11042
1.35177
0.829305
0.496216
0.296075
0.179716
0.11265
0.0735604
0.0502166
0.0358415
0.0267112
0.0207605
0.0168247
0.0142325
0.0125864
0.0116396
0.0112286
0.0112306
0.0114531
4.1109
5.13622
4.91741
4.17099
3.1298
2.20167
1.46471
0.933409
0.577451
0.353366
0.217923
0.137553
0.0898165
0.0610236
0.0432422
0.0319767
0.0246851
0.0199145
0.0168182
0.0148873
0.0138007
0.0133424
0.0133481
0.0135842
4.21367
5.02129
4.76832
4.06638
3.13686
2.27854
1.57074
1.03843
0.665157
0.418681
0.263319
0.167979
0.109978
0.0744781
0.0524055
0.0384112
0.0293858
0.023518
0.0197365
0.0173899
0.0160651
0.0154861
0.0154486
0.0156769
4.41874
5.04218
4.73392
3.99799
3.14207
2.34516
1.66971
1.1429
0.758069
0.491901
0.316627
0.204965
0.135037
0.0913767
0.0639135
0.0464142
0.0351232
0.0277949
0.0230763
0.020136
0.0184448
0.0176542
0.0175156
0.0177171
4.73655
5.16456
4.78554
3.99485
3.16423
2.40974
1.76395
1.24641
0.85481
0.572562
0.378356
0.249571
0.166168
0.112754
0.0785717
0.0565676
0.0422955
0.0330053
0.0269996
0.0232196
0.0209889
0.0198661
0.019549
0.0196959
5.15572
5.45684
4.97053
4.07058
3.22304
2.48406
1.85853
1.3503
0.955198
0.660234
0.448845
0.302828
0.204707
0.139915
0.0974786
0.0697154
0.0515128
0.0395709
0.0317871
0.0268208
0.0238075
0.0221826
0.021575
0.0216248
5.66937
5.93448
5.3446
4.29228
3.35446
2.58844
1.96339
1.45868
1.06049
0.755104
0.52847
0.36573
0.252108
0.174446
0.122095
0.0870656
0.0637049
0.0481718
0.0379174
0.0312655
0.0271155
0.0247404
0.0236765
0.0235476
6.2381
6.53293
5.87046
4.68053
3.60167
2.75504
2.09744
1.58091
1.1747
0.858757
0.618102
0.439389
0.30995
0.218218
0.154306
0.110309
0.0802679
0.0598934
0.0461969
0.0371325
0.0313143
0.027812
0.0260347
0.0255786
6.78525
7.14749
6.46862
5.21076
3.99162
3.0224
2.29057
1.73543
1.3078
0.976148
0.7203
0.525649
0.380183
0.273468
0.196494
0.141749
0.103253
0.0764444
0.0579749
0.0454416
0.0371483
0.0319217
0.0290044
0.0279699
7.202
7.62402
7.0003
5.77803
4.49104
3.40701
2.57414
1.94982
1.47882
1.11889
0.841812
0.628702
0.466012
0.343229
0.251761
0.184492
0.1356
0.100453
0.0754775
0.0579887
0.0460059
0.0380949
0.0333153
0.031236
7.36203
7.80113
7.28818
6.20903
4.98021
3.85989
2.94824
2.24503
1.71166
1.30652
0.996544
0.757984
0.574092
0.432742
0.324769
0.242968
0.181558
0.135895
0.102295
0.0778839
0.0604595
0.0483725
0.0404919
0.0364495
7.20928
7.54828
7.18015
6.31878
5.28238
4.25219
3.34455
2.59985
2.01178
1.55517
1.20221
0.928972
0.716866
0.551944
0.423777
0.324443
0.247797
0.189002
0.144226
0.110438
0.0852478
0.0668179
0.0538485
0.0459733
6.73366
6.79665
6.58943
6.03018
5.24691
4.42072
3.63206
2.92801
2.334
1.84916
1.46065
1.1521
0.907868
0.714684
0.561872
0.44103
0.345579
0.27035
0.211262
0.165064
0.12922
0.101646
0.0809795
0.0656459
6.0081
5.59059
5.54773
5.29663
4.87059
4.29383
3.68372
3.10782
2.58173
2.12179
1.73224
1.40868
1.14301
0.926264
0.750033
0.606992
0.491019
0.397077
0.321099
0.259685
0.210338
0.170451
0.140115
0.11162
4.84946
4.15345
4.245
4.25638
4.1367
3.86891
3.49118
3.0665
2.65897
2.28215
1.9409
1.64149
1.38403
1.16552
0.981607
0.827641
0.699209
0.592287
0.503497
0.429558
0.368861
0.316787
0.278858
0.234556
)
;

boundaryField
{
    rotor
    {
        type            epsilonWallFunction;
        value           nonuniform List<scalar> 
144
(
1.53238
1.74905
2.24166
2.52101
2.87408
3.78398
1.53238
0.745613
0.208217
0.234352
0.255458
0.271032
0.280215
1.19155
1.19803
1.20938
1.21926
1.22316
1.21852
1.20474
1.18995
1.18578
1.1884
0.28096
0.275403
0.264098
0.246907
0.224057
0.832391
1.88956
1.88956
2.03101
2.30553
2.53564
2.45106
2.60182
2.54126
6.70392
10.5177
11.7341
10.8551
39.1917
2.54126
0.899612
1.20014
1.61253
1.95636
2.23462
2.45111
2.60953
2.71338
2.76575
2.76927
2.72701
2.64525
2.53615
2.39896
2.23424
2.04316
1.82541
1.57272
1.25113
0.265709
0.243032
0.919306
2.35686
2.35686
1.8556
2.10719
2.36094
2.93303
27.4792
3.16702
7.71701
11.4452
11.6851
9.74188
30.3111
3.16702
1.10603
1.62732
2.25099
2.81915
3.32121
3.75185
4.10869
4.39057
4.59671
4.72622
4.77936
4.77418
4.71847
4.60433
4.42355
4.16885
3.83424
3.4157
2.91265
2.33264
1.69716
1.16458
3.11033
3.11033
5.54973
7.93449
8.83566
9.84
45.3528
5.14434
3.99495
3.08878
2.26468
1.65131
2.10347
5.14434
1.52383
2.23704
2.78449
3.20733
3.55691
3.86022
4.12807
4.36526
4.57439
4.75792
4.91878
5.04097
5.07571
5.04629
4.91957
4.69714
4.37396
3.94201
3.40642
2.7865
2.06196
1.32759
4.52001
4.52001
9.78969
12.5772
11.0516
8.75551
26.8543
)
;
    }
    freestream
    {
        type            inletOutlet;
        inletValue      uniform 0.000375;
        value           nonuniform List<scalar> 
96
(
0.55748
1.16053
1.60334
1.67347
1.5109
1.27409
1.19218
1.20207
1.31887
1.46165
1.509
1.45363
1.18906
0.73875
0.343749
0.180847
0.114195
0.0825346
0.0618604
0.0455756
0.0355406
0.0286229
0.0228481
0.0181628
0.0143092
0.0110671
0.00834111
0.00605407
0.00415146
0.00259813
0.000375
0.000375
0.000375
0.000375
0.000375
0.000375
0.000375
0.000375
0.000375
0.000375
0.000375
0.000375
0.000375
0.000375
0.000375
0.000375
0.000375
0.000375
0.000375
0.000375
0.000375
0.000375
0.000375
0.000375
0.000375
0.000375
0.000375
0.000375
0.000375
0.000375
0.000375
0.000375
0.000375
0.000375
0.000375
0.000375
0.000375
0.000375
0.000375
0.000375
0.000375
0.000375
0.000375
0.000375
0.000375
0.000375
0.000375
0.00262715
0.00489198
0.00713095
0.00930163
0.0114531
0.0135842
0.0156769
0.0177171
0.0196959
0.0216248
0.0235476
0.0255786
0.0279699
0.031236
0.0364495
0.0459733
0.0656459
0.11162
0.234556
)
;
    }
    frontAndBack
    {
        type            empty;
    }
}


// ************************************************************************* //
