/*--------------------------------*- C++ -*----------------------------------*\
  =========                 |
  \\      /  F ield         | OpenFOAM: The Open Source CFD Toolbox
   \\    /   O peration     | Website:  https://openfoam.org
    \\  /    A nd           | Version:  11
     \\/     M anipulation  |
\*---------------------------------------------------------------------------*/
FoamFile
{
    format      ascii;
    class       surfaceScalarField;
    location    "0.44";
    object      meshPhi;
}
// * * * * * * * * * * * * * * * * * * * * * * * * * * * * * * * * * * * * * //

dimensions      [0 3 -1 0 0 0 0];

internalField   nonuniform List<scalar> 
5640
(
1.36965e-16
9.81747e-07
2.42117e-16
1.37445e-06
3.77091e-16
1.76715e-06
-1.33924e-15
2.15984e-06
-3.68124e-15
2.55254e-06
2.94524e-06
5.95153e-15
1.84857e-18
9.81747e-07
-3.88807e-16
1.37445e-06
-2.60404e-15
1.76715e-06
1.94364e-15
2.15984e-06
8.06646e-15
2.55254e-06
2.94524e-06
-9.02973e-15
-1.16415e-16
9.81747e-07
1.86387e-16
1.37445e-06
-1.56231e-15
1.76715e-06
-4.21249e-15
2.15984e-06
-7.49846e-15
2.55254e-06
2.94524e-06
7.72168e-16
8.69724e-17
9.81747e-07
-1.01907e-16
1.37445e-06
2.69318e-15
1.76715e-06
7.44284e-15
2.15984e-06
3.25976e-15
2.55254e-06
2.94524e-06
-2.79799e-15
-4.83524e-17
9.81747e-07
3.95391e-17
1.37445e-06
1.94335e-16
1.76715e-06
-1.80599e-15
2.15984e-06
-4.20868e-15
2.55254e-06
2.94524e-06
5.01348e-15
-1.80087e-16
9.81747e-07
4.34462e-18
1.37445e-06
-1.84769e-15
1.76715e-06
-3.88601e-15
2.15984e-06
3.1572e-15
2.55254e-06
2.94524e-06
4.98344e-16
2.53999e-16
9.81747e-07
2.55449e-16
1.37445e-06
2.06597e-15
1.76715e-06
4.50423e-15
2.15984e-06
-2.30989e-15
2.55254e-06
2.94524e-06
5.4083e-16
2.16705e-17
9.81747e-07
-3.21667e-16
1.37445e-06
-1.14886e-15
1.76715e-06
-5.28555e-15
2.15984e-06
-3.76788e-16
2.55254e-06
2.94524e-06
-5.63973e-15
-1.43377e-16
9.81747e-07
1.66409e-16
1.37445e-06
4.19112e-15
1.76715e-06
6.34952e-15
2.15984e-06
-8.05537e-16
2.55254e-06
2.94524e-06
8.39516e-16
-6.87922e-17
9.81747e-07
-9.20536e-17
1.37445e-06
-2.76941e-15
1.76715e-06
-3.68688e-16
2.15984e-06
-1.45067e-15
2.55254e-06
2.94524e-06
-1.76445e-16
1.66369e-16
9.81747e-07
-8.86707e-17
1.37445e-06
5.69746e-16
1.76715e-06
-2.10342e-15
2.15984e-06
9.6602e-15
2.55254e-06
2.94524e-06
5.29059e-15
-1.77751e-16
9.81747e-07
-2.04584e-17
1.37445e-06
-3.45472e-16
1.76715e-06
-4.17258e-15
2.15984e-06
-2.62235e-15
2.55254e-06
2.94524e-06
5.36962e-15
1.77816e-16
9.81747e-07
2.05651e-17
1.37445e-06
3.45456e-16
1.76715e-06
4.17267e-15
2.15984e-06
2.62248e-15
2.55254e-06
2.94524e-06
-5.36925e-15
-1.66324e-16
9.81747e-07
8.87127e-17
1.37445e-06
-5.69639e-16
1.76715e-06
2.1035e-15
2.15984e-06
-9.65985e-15
2.55254e-06
2.94524e-06
-5.2901e-15
6.88287e-17
9.81747e-07
9.21094e-17
1.37445e-06
2.76941e-15
1.76715e-06
3.68751e-16
2.15984e-06
1.45103e-15
2.55254e-06
2.94524e-06
1.76815e-16
1.43416e-16
9.81747e-07
-1.66363e-16
1.37445e-06
-4.19105e-15
1.76715e-06
-6.34934e-15
2.15984e-06
8.05816e-16
2.55254e-06
2.94524e-06
-8.39166e-16
-2.16479e-17
9.81747e-07
3.21698e-16
1.37445e-06
1.14897e-15
1.76715e-06
5.28571e-15
2.15984e-06
3.76858e-16
2.55254e-06
2.94524e-06
5.63998e-15
-2.5394e-16
9.81747e-07
-2.55412e-16
1.37445e-06
-2.06597e-15
1.76715e-06
-4.50411e-15
2.15984e-06
2.3101e-15
2.55254e-06
2.94524e-06
-5.40763e-16
1.80118e-16
9.81747e-07
-4.32213e-18
1.37445e-06
1.84776e-15
1.76715e-06
3.88621e-15
2.15984e-06
-3.15684e-15
2.55254e-06
2.94524e-06
-4.98086e-16
4.8382e-17
9.81747e-07
-3.9521e-17
1.37445e-06
-1.94288e-16
1.76715e-06
1.80617e-15
2.15984e-06
4.20862e-15
2.55254e-06
2.94524e-06
-5.01313e-15
-8.69364e-17
9.81747e-07
1.01968e-16
1.37445e-06
-2.69308e-15
1.76715e-06
-7.44283e-15
2.15984e-06
-3.25979e-15
2.55254e-06
2.94524e-06
2.7981e-15
1.16489e-16
9.81747e-07
-1.86349e-16
1.37445e-06
1.56244e-15
1.76715e-06
4.21257e-15
2.15984e-06
7.49857e-15
2.55254e-06
2.94524e-06
-7.72193e-16
-1.81428e-18
9.81747e-07
3.88814e-16
1.37445e-06
2.60422e-15
1.76715e-06
-1.94362e-15
2.15984e-06
-8.06603e-15
2.55254e-06
2.94524e-06
9.02969e-15
-1.36933e-16
-2.42039e-16
-3.76858e-16
1.33935e-15
3.68179e-15
-5.95133e-15
-1.13359e-14
4.53785e-06
-4.53785e-06
-4.80901e-16
5.23599e-06
-5.23599e-06
-5.35714e-15
5.93412e-06
-5.93412e-06
-1.13032e-14
6.63225e-06
-6.63225e-06
4.86962e-15
7.33038e-06
-7.33038e-06
-1.10896e-15
8.02851e-06
-8.02851e-06
-8.15731e-15
8.72664e-06
-8.72664e-06
1.30454e-14
9.42478e-06
-9.42478e-06
5.9513e-15
1.01229e-05
-1.01229e-05
-1.99521e-15
1.0821e-05
-1.0821e-05
2.4389e-14
1.15192e-05
-1.15192e-05
1.61908e-14
1.22173e-05
-1.22173e-05
-3.27862e-14
1.29154e-05
-1.29154e-05
-3.05116e-15
1.36136e-05
-1.36136e-05
-1.44416e-14
1.43117e-05
-1.43117e-05
-2.6897e-14
1.50098e-05
-1.50098e-05
7.73771e-15
1.5708e-05
-1.5708e-05
-4.43585e-15
1.64061e-05
-1.64061e-05
-1.7998e-14
1.71042e-05
-1.71042e-05
2.18228e-14
1.78024e-05
-1.78024e-05
8.21658e-15
1.85005e-05
-1.85005e-05
-6.07656e-15
1.91986e-05
-1.91986e-05
3.89232e-14
1.98967e-05
-1.98967e-05
2.05949e-05
-2.05949e-05
9.39904e-15
4.53785e-06
5.20507e-16
5.23599e-06
7.52884e-15
5.93412e-06
-4.41111e-15
6.63225e-06
3.78387e-15
7.33038e-06
1.33859e-14
8.02851e-06
-2.10911e-15
8.72664e-06
8.52852e-15
9.42478e-06
-1.00252e-14
1.01229e-05
1.86791e-15
1.0821e-05
-2.02009e-14
1.15192e-05
-7.0103e-15
1.22173e-05
7.51267e-15
1.29154e-05
2.36108e-14
1.36136e-05
-2.03959e-15
1.43117e-05
1.48381e-14
1.50098e-05
-1.38781e-14
1.5708e-05
2.39441e-15
1.64061e-05
2.04163e-14
1.71042e-05
-7.01309e-15
1.78024e-05
1.20703e-14
1.85005e-05
-2.59376e-14
1.91986e-05
1.84819e-15
1.98967e-05
2.05949e-05
-8.67593e-15
4.53785e-06
1.22928e-14
5.23599e-06
1.88377e-15
5.93412e-06
8.90257e-15
6.63225e-06
-5.10819e-15
7.33038e-06
-2.19899e-14
8.02851e-06
1.22652e-14
8.72664e-06
-5.37411e-15
9.42478e-06
4.45691e-15
1.01229e-05
-1.43032e-14
1.0821e-05
-7.32576e-15
1.15192e-05
7.04234e-15
1.22173e-05
2.39967e-14
1.29154e-05
-7.55428e-15
1.36136e-05
9.80173e-15
1.43117e-05
-1.62364e-14
1.50098e-05
4.02963e-14
1.5708e-05
1.44466e-14
1.64061e-05
-1.36972e-14
1.71042e-05
-7.89232e-15
1.78024e-05
-3.92475e-14
1.85005e-05
4.27557e-14
1.91986e-05
-8.848e-15
1.98967e-05
2.05949e-05
5.98614e-15
4.53785e-06
2.19403e-16
5.23599e-06
-6.43523e-15
5.93412e-06
6.06429e-15
6.63225e-06
-2.09205e-15
7.33038e-06
1.61773e-14
8.02851e-06
-1.88302e-14
8.72664e-06
-2.35102e-15
9.42478e-06
9.17392e-15
1.01229e-05
-4.70879e-15
1.0821e-05
2.16282e-14
1.15192e-05
-2.96443e-14
1.22173e-05
-9.28616e-15
1.29154e-05
-1.89058e-14
1.36136e-05
4.46544e-15
1.43117e-05
3.0158e-14
1.50098e-05
-2.62123e-14
1.5708e-05
4.35897e-16
1.64061e-05
-2.11644e-14
1.71042e-05
1.87192e-14
1.78024e-05
-3.91661e-15
1.85005e-05
-2.91534e-14
1.91986e-05
1.52351e-14
1.98967e-05
2.05949e-05
6.71513e-15
4.53785e-06
-7.30586e-15
5.23599e-06
1.1101e-14
5.93412e-06
-4.24065e-15
6.63225e-06
1.51023e-14
7.33038e-06
-5.20846e-15
8.02851e-06
1.70143e-14
8.72664e-06
-3.94039e-15
9.42478e-06
-2.94211e-16
1.01229e-05
6.61243e-15
1.0821e-05
1.37073e-14
1.15192e-05
1.01869e-14
1.22173e-05
1.82177e-14
1.29154e-05
1.43709e-14
1.36136e-05
2.33385e-14
1.43117e-05
-2.5343e-14
1.50098e-05
2.90764e-14
1.5708e-05
-7.82836e-15
1.64061e-05
3.54218e-14
1.71042e-05
-4.50577e-15
1.78024e-05
4.23753e-14
1.85005e-05
-5.85625e-16
1.91986e-05
-8.72753e-15
1.98967e-05
2.05949e-05
-4.63054e-15
4.53785e-06
5.79808e-15
5.23599e-06
-1.61503e-14
5.93412e-06
-5.97379e-15
6.63225e-06
-8.55496e-15
7.33038e-06
4.22388e-15
8.02851e-06
-8.18662e-15
8.72664e-06
6.99963e-15
9.42478e-06
-2.42284e-14
1.01229e-05
-7.76701e-15
1.0821e-05
-2.27627e-14
1.15192e-05
8.35208e-15
1.22173e-05
-7.40266e-15
1.29154e-05
2.8267e-14
1.36136e-05
-4.57088e-14
1.43117e-05
-8.22036e-15
1.50098e-05
-2.82231e-14
1.5708e-05
-2.33957e-15
1.64061e-05
-6.94052e-15
1.71042e-05
2.21556e-14
1.78024e-05
-3.4104e-14
1.85005e-05
-3.73658e-15
1.91986e-05
-3.23453e-14
1.98967e-05
2.05949e-05
-8.92487e-15
4.53785e-06
-2.28839e-15
5.23599e-06
-2.22385e-15
5.93412e-06
6.61691e-15
6.63225e-06
-3.3878e-15
7.33038e-06
-3.90643e-15
8.02851e-06
-6.41865e-15
8.72664e-06
-7.15778e-15
9.42478e-06
6.81129e-15
1.01229e-05
6.98448e-15
1.0821e-05
-9.06427e-15
1.15192e-05
6.76087e-15
1.22173e-05
-2.8887e-14
1.29154e-05
-1.22339e-14
1.36136e-05
4.80848e-15
1.43117e-05
2.50283e-14
1.50098e-05
3.86683e-15
1.5708e-05
3.6119e-15
1.64061e-05
-2.04782e-14
1.71042e-05
-2.17544e-14
1.78024e-05
3.47493e-15
1.85005e-05
2.90422e-14
1.91986e-05
-1.6613e-15
1.98967e-05
2.05949e-05
6.21599e-15
4.53785e-06
-3.87884e-15
5.23599e-06
1.54224e-14
5.93412e-06
-7.06459e-15
6.63225e-06
-2.21045e-15
7.33038e-06
1.43032e-15
8.02851e-06
-5.49332e-15
8.72664e-06
1.32265e-14
9.42478e-06
6.04679e-15
1.01229e-05
-1.74504e-14
1.0821e-05
2.08874e-14
1.15192e-05
-2.14439e-14
1.22173e-05
1.91365e-14
1.29154e-05
-7.31197e-15
1.36136e-05
3.84902e-14
1.43117e-05
-1.29226e-14
1.50098e-05
-1.87568e-15
1.5708e-05
5.72126e-15
1.64061e-05
-7.58502e-15
1.71042e-05
2.76605e-14
1.78024e-05
1.41058e-14
1.85005e-05
-5.31402e-14
1.91986e-05
3.90852e-14
1.98967e-05
2.05949e-05
-1.49835e-15
4.53785e-06
1.08971e-14
5.23599e-06
-6.59913e-15
5.93412e-06
7.26631e-15
6.63225e-06
6.17522e-15
7.33038e-06
2.48904e-15
8.02851e-06
-9.63377e-16
8.72664e-06
-4.36436e-15
9.42478e-06
-8.90117e-15
1.01229e-05
1.38648e-14
1.0821e-05
1.06924e-14
1.15192e-05
6.25247e-15
1.22173e-05
-1.25856e-16
1.29154e-05
-3.43551e-15
1.36136e-05
-1.10385e-14
1.43117e-05
-1.77622e-14
1.50098e-05
1.76845e-14
1.5708e-05
9.95616e-15
1.64061e-05
3.32897e-15
1.71042e-05
-3.2965e-14
1.78024e-05
-1.04152e-14
1.85005e-05
3.00689e-14
1.91986e-05
-5.99884e-14
1.98967e-05
2.05949e-05
5.17017e-15
4.53785e-06
-7.45553e-15
5.23599e-06
-7.56211e-16
5.93412e-06
6.84011e-15
6.63225e-06
-9.97327e-15
7.33038e-06
-1.66425e-15
8.02851e-06
9.22072e-15
8.72664e-06
-1.34596e-14
9.42478e-06
2.32222e-14
1.01229e-05
1.04726e-14
1.0821e-05
-1.72705e-14
1.15192e-05
-3.02484e-15
1.22173e-05
1.13983e-14
1.29154e-05
-1.98167e-14
1.36136e-05
-4.6761e-15
1.43117e-05
5.03117e-14
1.50098e-05
-2.40453e-14
1.5708e-05
-6.65699e-15
1.64061e-05
1.42629e-14
1.71042e-05
1.65508e-15
1.78024e-05
-6.80866e-15
1.85005e-05
1.44437e-14
1.91986e-05
5.07616e-14
1.98967e-05
2.05949e-05
-6.1973e-15
4.53785e-06
2.86727e-17
5.23599e-06
1.15122e-14
5.93412e-06
-2.06251e-14
6.63225e-06
5.36744e-15
7.33038e-06
1.22277e-15
8.02851e-06
-4.50494e-17
8.72664e-06
1.23946e-14
9.42478e-06
-1.32258e-14
1.01229e-05
-1.88933e-14
1.0821e-05
-4.96135e-15
1.15192e-05
-7.15134e-15
1.22173e-05
-1.48851e-14
1.29154e-05
3.53422e-14
1.36136e-05
1.16439e-18
1.43117e-05
-4.31337e-14
1.50098e-05
1.35635e-14
1.5708e-05
-2.82528e-14
1.64061e-05
2.45571e-15
1.71042e-05
-1.02356e-14
1.78024e-05
2.38086e-14
1.85005e-05
1.38807e-14
1.91986e-05
-4.55625e-14
1.98967e-05
2.05949e-05
-1.90651e-15
4.53785e-06
1.13109e-15
5.23599e-06
-2.16614e-14
5.93412e-06
9.62419e-15
6.63225e-06
1.5138e-14
7.33038e-06
-1.40645e-14
8.02851e-06
8.09372e-15
8.72664e-06
-2.69588e-14
9.42478e-06
-1.96532e-15
1.01229e-05
2.97192e-14
1.0821e-05
-1.17435e-14
1.15192e-05
1.9869e-14
1.22173e-05
-2.74432e-14
1.29154e-05
-2.06135e-14
1.36136e-05
1.60439e-14
1.43117e-05
-4.61045e-15
1.50098e-05
4.69433e-15
1.5708e-05
4.79694e-14
1.64061e-05
-1.37377e-14
1.71042e-05
3.23749e-14
1.78024e-05
-3.51785e-14
1.85005e-05
-2.49008e-14
1.91986e-05
7.1918e-14
1.98967e-05
2.05949e-05
1.90681e-15
4.53785e-06
-1.13028e-15
5.23599e-06
2.16622e-14
5.93412e-06
-9.62377e-15
6.63225e-06
-1.51372e-14
7.33038e-06
1.4065e-14
8.02851e-06
-8.09246e-15
8.72664e-06
2.69607e-14
9.42478e-06
1.96618e-15
1.01229e-05
-2.97151e-14
1.0821e-05
1.17476e-14
1.15192e-05
-1.98671e-14
1.22173e-05
2.74469e-14
1.29154e-05
2.06172e-14
1.36136e-05
-1.60383e-14
1.43117e-05
4.61347e-15
1.50098e-05
-4.68962e-15
1.5708e-05
-4.79655e-14
1.64061e-05
1.37409e-14
1.71042e-05
-3.23698e-14
1.78024e-05
3.51868e-14
1.85005e-05
2.49095e-14
1.91986e-05
-7.19083e-14
1.98967e-05
2.05949e-05
6.19736e-15
4.53785e-06
-2.84408e-17
5.23599e-06
-1.15115e-14
5.93412e-06
2.06261e-14
6.63225e-06
-5.36584e-15
7.33038e-06
-1.22141e-15
8.02851e-06
4.81081e-17
8.72664e-06
-1.23932e-14
9.42478e-06
1.32274e-14
1.01229e-05
1.88956e-14
1.0821e-05
4.96621e-15
1.15192e-05
7.15389e-15
1.22173e-05
1.48883e-14
1.29154e-05
-3.53372e-14
1.36136e-05
2.44891e-19
1.43117e-05
4.31374e-14
1.50098e-05
-1.3561e-14
1.5708e-05
2.82571e-14
1.64061e-05
-2.45399e-15
1.71042e-05
1.02398e-14
1.78024e-05
-2.38033e-14
1.85005e-05
-1.38721e-14
1.91986e-05
4.55675e-14
1.98967e-05
2.05949e-05
-5.1701e-15
4.53785e-06
7.45553e-15
5.23599e-06
7.56737e-16
5.93412e-06
-6.83896e-15
6.63225e-06
9.97523e-15
7.33038e-06
1.66477e-15
8.02851e-06
-9.21785e-15
8.72664e-06
1.34597e-14
9.42478e-06
-2.32206e-14
1.01229e-05
-1.04718e-14
1.0821e-05
1.72719e-14
1.15192e-05
3.02695e-15
1.22173e-05
-1.13963e-14
1.29154e-05
1.98179e-14
1.36136e-05
4.68041e-15
1.43117e-05
-5.03058e-14
1.50098e-05
2.40489e-14
1.5708e-05
6.65908e-15
1.64061e-05
-1.426e-14
1.71042e-05
-1.65074e-15
1.78024e-05
6.81007e-15
1.85005e-05
-1.44398e-14
1.91986e-05
-5.07554e-14
1.98967e-05
2.05949e-05
1.49882e-15
4.53785e-06
-1.0897e-14
5.23599e-06
6.59944e-15
5.93412e-06
-7.26541e-15
6.63225e-06
-6.17499e-15
7.33038e-06
-2.48813e-15
8.02851e-06
9.64529e-16
8.72664e-06
4.3658e-15
9.42478e-06
8.90114e-15
1.01229e-05
-1.38621e-14
1.0821e-05
-1.06908e-14
1.15192e-05
-6.25096e-15
1.22173e-05
1.29344e-16
1.29154e-05
3.44016e-15
1.36136e-05
1.10464e-14
1.43117e-05
1.77665e-14
1.50098e-05
-1.76782e-14
1.5708e-05
-9.95251e-15
1.64061e-05
-3.32863e-15
1.71042e-05
3.29707e-14
1.78024e-05
1.04223e-14
1.85005e-05
-3.00639e-14
1.91986e-05
5.99984e-14
1.98967e-05
2.05949e-05
-6.21539e-15
4.53785e-06
3.87969e-15
5.23599e-06
-1.54222e-14
5.93412e-06
7.06511e-15
6.63225e-06
2.21085e-15
7.33038e-06
-1.42893e-15
8.02851e-06
5.49334e-15
8.72664e-06
-1.32247e-14
9.42478e-06
-6.04547e-15
1.01229e-05
1.74522e-14
1.0821e-05
-2.08874e-14
1.15192e-05
2.14461e-14
1.22173e-05
-1.91323e-14
1.29154e-05
7.31812e-15
1.36136e-05
-3.8484e-14
1.43117e-05
1.29234e-14
1.50098e-05
1.88321e-15
1.5708e-05
-5.71571e-15
1.64061e-05
7.58538e-15
1.71042e-05
-2.76573e-14
1.78024e-05
-1.40957e-14
1.85005e-05
5.31458e-14
1.91986e-05
-3.90834e-14
1.98967e-05
2.05949e-05
8.92534e-15
4.53785e-06
2.28951e-15
5.23599e-06
2.22436e-15
5.93412e-06
-6.61557e-15
6.63225e-06
3.38856e-15
7.33038e-06
3.90725e-15
8.02851e-06
6.41926e-15
8.72664e-06
7.15828e-15
9.42478e-06
-6.80944e-15
1.01229e-05
-6.98145e-15
1.0821e-05
9.06513e-15
1.15192e-05
-6.75939e-15
1.22173e-05
2.88895e-14
1.29154e-05
1.22347e-14
1.36136e-05
-4.80192e-15
1.43117e-05
-2.50242e-14
1.50098e-05
-3.85847e-15
1.5708e-05
-3.60625e-15
1.64061e-05
2.04852e-14
1.71042e-05
2.17611e-14
1.78024e-05
-3.46632e-15
1.85005e-05
-2.90319e-14
1.91986e-05
1.66351e-15
1.98967e-05
2.05949e-05
4.63062e-15
4.53785e-06
-5.79741e-15
5.23599e-06
1.61508e-14
5.93412e-06
5.97485e-15
6.63225e-06
8.55583e-15
7.33038e-06
-4.22375e-15
8.02851e-06
8.18847e-15
8.72664e-06
-6.99884e-15
9.42478e-06
2.42304e-14
1.01229e-05
7.76951e-15
1.0821e-05
2.27647e-14
1.15192e-05
-8.35004e-15
1.22173e-05
7.40541e-15
1.29154e-05
-2.82656e-14
1.36136e-05
4.57122e-14
1.43117e-05
8.22187e-15
1.50098e-05
2.82301e-14
1.5708e-05
2.34264e-15
1.64061e-05
6.94887e-15
1.71042e-05
-2.21489e-14
1.78024e-05
3.41116e-14
1.85005e-05
3.74398e-15
1.91986e-05
3.23521e-14
1.98967e-05
2.05949e-05
-6.71488e-15
4.53785e-06
7.30675e-15
5.23599e-06
-1.11008e-14
5.93412e-06
4.24094e-15
6.63225e-06
-1.51024e-14
7.33038e-06
5.20948e-15
8.02851e-06
-1.70125e-14
8.72664e-06
3.94216e-15
9.42478e-06
2.94818e-16
1.01229e-05
-6.61096e-15
1.0821e-05
-1.37051e-14
1.15192e-05
-1.01846e-14
1.22173e-05
-1.82175e-14
1.29154e-05
-1.43665e-14
1.36136e-05
-2.33403e-14
1.43117e-05
2.53459e-14
1.50098e-05
-2.90708e-14
1.5708e-05
7.83186e-15
1.64061e-05
-3.54141e-14
1.71042e-05
4.51269e-15
1.78024e-05
-4.23674e-14
1.85005e-05
5.88723e-16
1.91986e-05
8.73724e-15
1.98967e-05
2.05949e-05
-5.98605e-15
4.53785e-06
-2.18973e-16
5.23599e-06
6.43583e-15
5.93412e-06
-6.06347e-15
6.63225e-06
2.09313e-15
7.33038e-06
-1.61772e-14
8.02851e-06
1.88321e-14
8.72664e-06
2.35238e-15
9.42478e-06
-9.17024e-15
1.01229e-05
4.71221e-15
1.0821e-05
-2.16267e-14
1.15192e-05
2.96457e-14
1.22173e-05
9.28879e-15
1.29154e-05
1.89094e-14
1.36136e-05
-4.46515e-15
1.43117e-05
-3.01524e-14
1.50098e-05
2.62214e-14
1.5708e-05
-4.33018e-16
1.64061e-05
2.11735e-14
1.71042e-05
-1.87112e-14
1.78024e-05
3.92438e-15
1.85005e-05
2.91588e-14
1.91986e-05
-1.523e-14
1.98967e-05
2.05949e-05
8.67601e-15
4.53785e-06
-1.22922e-14
5.23599e-06
-1.88336e-15
5.93412e-06
-8.90197e-15
6.63225e-06
5.10927e-15
7.33038e-06
2.19906e-14
8.02851e-06
-1.22631e-14
8.72664e-06
5.37483e-15
9.42478e-06
-4.45586e-15
1.01229e-05
1.4306e-14
1.0821e-05
7.32587e-15
1.15192e-05
-7.04001e-15
1.22173e-05
-2.39931e-14
1.29154e-05
7.55772e-15
1.36136e-05
-9.79903e-15
1.43117e-05
1.62403e-14
1.50098e-05
-4.02917e-14
1.5708e-05
-1.44425e-14
1.64061e-05
1.37061e-14
1.71042e-05
7.89958e-15
1.78024e-05
3.92556e-14
1.85005e-05
-4.275e-14
1.91986e-05
8.85372e-15
1.98967e-05
2.05949e-05
-9.39888e-15
4.53785e-06
-5.20077e-16
5.23599e-06
-7.52842e-15
5.93412e-06
4.41194e-15
6.63225e-06
-3.78229e-15
7.33038e-06
-1.33845e-14
8.02851e-06
2.1109e-15
8.72664e-06
-8.52776e-15
9.42478e-06
1.00279e-14
1.01229e-05
-1.86625e-15
1.0821e-05
2.02027e-14
1.15192e-05
7.0138e-15
1.22173e-05
-7.51008e-15
1.29154e-05
-2.36063e-14
1.36136e-05
2.04221e-15
1.43117e-05
-1.48287e-14
1.50098e-05
1.3883e-14
1.5708e-05
-2.3906e-15
1.64061e-05
-2.04122e-14
1.71042e-05
7.01982e-15
1.78024e-05
-1.20629e-14
1.85005e-05
2.59425e-14
1.91986e-05
-1.84399e-15
1.98967e-05
2.05949e-05
1.13362e-14
4.53785e-06
4.8135e-16
5.23599e-06
5.35733e-15
5.93412e-06
1.13034e-14
6.63225e-06
-4.86835e-15
7.33038e-06
1.11028e-15
8.02851e-06
8.15917e-15
8.72664e-06
-1.30429e-14
9.42478e-06
-5.94714e-15
1.01229e-05
1.99695e-15
1.0821e-05
-2.43851e-14
1.15192e-05
-1.61876e-14
1.22173e-05
3.27865e-14
1.29154e-05
3.0524e-15
1.36136e-05
1.44436e-14
1.43117e-05
2.69032e-14
1.50098e-05
-7.73585e-15
1.5708e-05
4.44112e-15
1.64061e-05
1.80048e-14
1.71042e-05
-2.18215e-14
1.78024e-05
-8.21003e-15
1.85005e-05
6.08682e-15
1.91986e-05
-3.89162e-14
1.98967e-05
2.05949e-05
1.36947e-16
9.81747e-07
2.42122e-16
1.37445e-06
3.77043e-16
1.76715e-06
-1.33927e-15
2.15984e-06
-3.68137e-15
2.55254e-06
2.94524e-06
5.95147e-15
1.84857e-18
9.81747e-07
-3.88807e-16
1.37445e-06
-2.60404e-15
1.76715e-06
1.94364e-15
2.15984e-06
8.06646e-15
2.55254e-06
2.94524e-06
-9.02973e-15
-1.16415e-16
9.81747e-07
1.86387e-16
1.37445e-06
-1.56231e-15
1.76715e-06
-4.21249e-15
2.15984e-06
-7.49846e-15
2.55254e-06
2.94524e-06
7.72168e-16
8.69724e-17
9.81747e-07
-1.01907e-16
1.37445e-06
2.69318e-15
1.76715e-06
7.44284e-15
2.15984e-06
3.25976e-15
2.55254e-06
2.94524e-06
-2.79799e-15
-4.83524e-17
9.81747e-07
3.95391e-17
1.37445e-06
1.94335e-16
1.76715e-06
-1.80599e-15
2.15984e-06
-4.20868e-15
2.55254e-06
2.94524e-06
5.01348e-15
-1.80087e-16
9.81747e-07
4.34462e-18
1.37445e-06
-1.84769e-15
1.76715e-06
-3.88601e-15
2.15984e-06
3.1572e-15
2.55254e-06
2.94524e-06
4.98344e-16
2.53999e-16
9.81747e-07
2.55449e-16
1.37445e-06
2.06597e-15
1.76715e-06
4.50423e-15
2.15984e-06
-2.30989e-15
2.55254e-06
2.94524e-06
5.4083e-16
2.16705e-17
9.81747e-07
-3.21667e-16
1.37445e-06
-1.14886e-15
1.76715e-06
-5.28555e-15
2.15984e-06
-3.76788e-16
2.55254e-06
2.94524e-06
-5.63973e-15
-1.43377e-16
9.81747e-07
1.66409e-16
1.37445e-06
4.19112e-15
1.76715e-06
6.34952e-15
2.15984e-06
-8.05537e-16
2.55254e-06
2.94524e-06
8.39516e-16
-6.87922e-17
9.81747e-07
-9.20536e-17
1.37445e-06
-2.76941e-15
1.76715e-06
-3.68688e-16
2.15984e-06
-1.45067e-15
2.55254e-06
2.94524e-06
-1.76445e-16
1.66369e-16
9.81747e-07
-8.86707e-17
1.37445e-06
5.69746e-16
1.76715e-06
-2.10342e-15
2.15984e-06
9.6602e-15
2.55254e-06
2.94524e-06
5.29059e-15
-1.77751e-16
9.81747e-07
-2.04584e-17
1.37445e-06
-3.45472e-16
1.76715e-06
-4.17258e-15
2.15984e-06
-2.62235e-15
2.55254e-06
2.94524e-06
5.36962e-15
1.77816e-16
9.81747e-07
2.05651e-17
1.37445e-06
3.45456e-16
1.76715e-06
4.17267e-15
2.15984e-06
2.62248e-15
2.55254e-06
2.94524e-06
-5.36925e-15
-1.66324e-16
9.81747e-07
8.87127e-17
1.37445e-06
-5.69639e-16
1.76715e-06
2.1035e-15
2.15984e-06
-9.65985e-15
2.55254e-06
2.94524e-06
-5.2901e-15
6.88287e-17
9.81747e-07
9.21094e-17
1.37445e-06
2.76941e-15
1.76715e-06
3.68751e-16
2.15984e-06
1.45103e-15
2.55254e-06
2.94524e-06
1.76815e-16
1.43416e-16
9.81747e-07
-1.66363e-16
1.37445e-06
-4.19105e-15
1.76715e-06
-6.34934e-15
2.15984e-06
8.05816e-16
2.55254e-06
2.94524e-06
-8.39166e-16
-2.16479e-17
9.81747e-07
3.21698e-16
1.37445e-06
1.14897e-15
1.76715e-06
5.28571e-15
2.15984e-06
3.76858e-16
2.55254e-06
2.94524e-06
5.63998e-15
-2.5394e-16
9.81747e-07
-2.55412e-16
1.37445e-06
-2.06597e-15
1.76715e-06
-4.50411e-15
2.15984e-06
2.3101e-15
2.55254e-06
2.94524e-06
-5.40763e-16
1.80118e-16
9.81747e-07
-4.32213e-18
1.37445e-06
1.84776e-15
1.76715e-06
3.88621e-15
2.15984e-06
-3.15684e-15
2.55254e-06
2.94524e-06
-4.98086e-16
4.8382e-17
9.81747e-07
-3.9521e-17
1.37445e-06
-1.94288e-16
1.76715e-06
1.80617e-15
2.15984e-06
4.20862e-15
2.55254e-06
2.94524e-06
-5.01313e-15
-8.69364e-17
9.81747e-07
1.01968e-16
1.37445e-06
-2.69308e-15
1.76715e-06
-7.44283e-15
2.15984e-06
-3.25979e-15
2.55254e-06
2.94524e-06
2.7981e-15
1.16489e-16
9.81747e-07
-1.86349e-16
1.37445e-06
1.56244e-15
1.76715e-06
4.21257e-15
2.15984e-06
7.49857e-15
2.55254e-06
2.94524e-06
-7.72193e-16
-1.81428e-18
9.81747e-07
3.88814e-16
1.37445e-06
2.60422e-15
1.76715e-06
-1.94362e-15
2.15984e-06
-8.06603e-15
2.55254e-06
2.94524e-06
9.02969e-15
-1.36932e-16
-2.42074e-16
-3.7695e-16
1.33933e-15
3.68178e-15
-5.95132e-15
-1.13359e-14
4.53785e-06
-4.80994e-16
5.23599e-06
-5.3571e-15
5.93412e-06
-1.13032e-14
6.63225e-06
4.86967e-15
7.33038e-06
-1.10899e-15
8.02851e-06
-8.15767e-15
8.72664e-06
1.30447e-14
9.42478e-06
5.95034e-15
1.01229e-05
-1.99482e-15
1.0821e-05
2.43885e-14
1.15192e-05
1.6191e-14
1.22173e-05
-3.27846e-14
1.29154e-05
-3.05124e-15
1.36136e-05
-1.44404e-14
1.43117e-05
-2.68982e-14
1.50098e-05
7.7401e-15
1.5708e-05
-4.43594e-15
1.64061e-05
-1.79971e-14
1.71042e-05
2.18242e-14
1.78024e-05
8.21659e-15
1.85005e-05
-6.07859e-15
1.91986e-05
3.89214e-14
1.98967e-05
2.05949e-05
9.39904e-15
4.53785e-06
5.20507e-16
5.23599e-06
7.52884e-15
5.93412e-06
-4.41111e-15
6.63225e-06
3.78387e-15
7.33038e-06
1.33859e-14
8.02851e-06
-2.10911e-15
8.72664e-06
8.52852e-15
9.42478e-06
-1.00252e-14
1.01229e-05
1.86791e-15
1.0821e-05
-2.02009e-14
1.15192e-05
-7.0103e-15
1.22173e-05
7.51267e-15
1.29154e-05
2.36108e-14
1.36136e-05
-2.03959e-15
1.43117e-05
1.48381e-14
1.50098e-05
-1.38781e-14
1.5708e-05
2.39441e-15
1.64061e-05
2.04163e-14
1.71042e-05
-7.01309e-15
1.78024e-05
1.20703e-14
1.85005e-05
-2.59376e-14
1.91986e-05
1.84819e-15
1.98967e-05
2.05949e-05
-8.67593e-15
4.53785e-06
1.22928e-14
5.23599e-06
1.88377e-15
5.93412e-06
8.90257e-15
6.63225e-06
-5.10819e-15
7.33038e-06
-2.19899e-14
8.02851e-06
1.22652e-14
8.72664e-06
-5.37411e-15
9.42478e-06
4.45691e-15
1.01229e-05
-1.43032e-14
1.0821e-05
-7.32576e-15
1.15192e-05
7.04234e-15
1.22173e-05
2.39967e-14
1.29154e-05
-7.55428e-15
1.36136e-05
9.80173e-15
1.43117e-05
-1.62364e-14
1.50098e-05
4.02963e-14
1.5708e-05
1.44466e-14
1.64061e-05
-1.36972e-14
1.71042e-05
-7.89232e-15
1.78024e-05
-3.92475e-14
1.85005e-05
4.27557e-14
1.91986e-05
-8.848e-15
1.98967e-05
2.05949e-05
5.98614e-15
4.53785e-06
2.19403e-16
5.23599e-06
-6.43523e-15
5.93412e-06
6.06429e-15
6.63225e-06
-2.09205e-15
7.33038e-06
1.61773e-14
8.02851e-06
-1.88302e-14
8.72664e-06
-2.35102e-15
9.42478e-06
9.17392e-15
1.01229e-05
-4.70879e-15
1.0821e-05
2.16282e-14
1.15192e-05
-2.96443e-14
1.22173e-05
-9.28616e-15
1.29154e-05
-1.89058e-14
1.36136e-05
4.46544e-15
1.43117e-05
3.0158e-14
1.50098e-05
-2.62123e-14
1.5708e-05
4.35897e-16
1.64061e-05
-2.11644e-14
1.71042e-05
1.87192e-14
1.78024e-05
-3.91661e-15
1.85005e-05
-2.91534e-14
1.91986e-05
1.52351e-14
1.98967e-05
2.05949e-05
6.71513e-15
4.53785e-06
-7.30586e-15
5.23599e-06
1.1101e-14
5.93412e-06
-4.24065e-15
6.63225e-06
1.51023e-14
7.33038e-06
-5.20846e-15
8.02851e-06
1.70143e-14
8.72664e-06
-3.94039e-15
9.42478e-06
-2.94211e-16
1.01229e-05
6.61243e-15
1.0821e-05
1.37073e-14
1.15192e-05
1.01869e-14
1.22173e-05
1.82177e-14
1.29154e-05
1.43709e-14
1.36136e-05
2.33385e-14
1.43117e-05
-2.5343e-14
1.50098e-05
2.90764e-14
1.5708e-05
-7.82836e-15
1.64061e-05
3.54218e-14
1.71042e-05
-4.50577e-15
1.78024e-05
4.23753e-14
1.85005e-05
-5.85625e-16
1.91986e-05
-8.72753e-15
1.98967e-05
2.05949e-05
-4.63054e-15
4.53785e-06
5.79808e-15
5.23599e-06
-1.61503e-14
5.93412e-06
-5.97379e-15
6.63225e-06
-8.55496e-15
7.33038e-06
4.22388e-15
8.02851e-06
-8.18662e-15
8.72664e-06
6.99963e-15
9.42478e-06
-2.42284e-14
1.01229e-05
-7.76701e-15
1.0821e-05
-2.27627e-14
1.15192e-05
8.35208e-15
1.22173e-05
-7.40266e-15
1.29154e-05
2.8267e-14
1.36136e-05
-4.57088e-14
1.43117e-05
-8.22036e-15
1.50098e-05
-2.82231e-14
1.5708e-05
-2.33957e-15
1.64061e-05
-6.94052e-15
1.71042e-05
2.21556e-14
1.78024e-05
-3.4104e-14
1.85005e-05
-3.73658e-15
1.91986e-05
-3.23453e-14
1.98967e-05
2.05949e-05
-8.92487e-15
4.53785e-06
-2.28839e-15
5.23599e-06
-2.22385e-15
5.93412e-06
6.61691e-15
6.63225e-06
-3.3878e-15
7.33038e-06
-3.90643e-15
8.02851e-06
-6.41865e-15
8.72664e-06
-7.15778e-15
9.42478e-06
6.81129e-15
1.01229e-05
6.98448e-15
1.0821e-05
-9.06427e-15
1.15192e-05
6.76087e-15
1.22173e-05
-2.8887e-14
1.29154e-05
-1.22339e-14
1.36136e-05
4.80848e-15
1.43117e-05
2.50283e-14
1.50098e-05
3.86683e-15
1.5708e-05
3.6119e-15
1.64061e-05
-2.04782e-14
1.71042e-05
-2.17544e-14
1.78024e-05
3.47493e-15
1.85005e-05
2.90422e-14
1.91986e-05
-1.6613e-15
1.98967e-05
2.05949e-05
6.21599e-15
4.53785e-06
-3.87884e-15
5.23599e-06
1.54224e-14
5.93412e-06
-7.06459e-15
6.63225e-06
-2.21045e-15
7.33038e-06
1.43032e-15
8.02851e-06
-5.49332e-15
8.72664e-06
1.32265e-14
9.42478e-06
6.04679e-15
1.01229e-05
-1.74504e-14
1.0821e-05
2.08874e-14
1.15192e-05
-2.14439e-14
1.22173e-05
1.91365e-14
1.29154e-05
-7.31197e-15
1.36136e-05
3.84902e-14
1.43117e-05
-1.29226e-14
1.50098e-05
-1.87568e-15
1.5708e-05
5.72126e-15
1.64061e-05
-7.58502e-15
1.71042e-05
2.76605e-14
1.78024e-05
1.41058e-14
1.85005e-05
-5.31402e-14
1.91986e-05
3.90852e-14
1.98967e-05
2.05949e-05
-1.49835e-15
4.53785e-06
1.08971e-14
5.23599e-06
-6.59913e-15
5.93412e-06
7.26631e-15
6.63225e-06
6.17522e-15
7.33038e-06
2.48904e-15
8.02851e-06
-9.63377e-16
8.72664e-06
-4.36436e-15
9.42478e-06
-8.90117e-15
1.01229e-05
1.38648e-14
1.0821e-05
1.06924e-14
1.15192e-05
6.25247e-15
1.22173e-05
-1.25856e-16
1.29154e-05
-3.43551e-15
1.36136e-05
-1.10385e-14
1.43117e-05
-1.77622e-14
1.50098e-05
1.76845e-14
1.5708e-05
9.95616e-15
1.64061e-05
3.32897e-15
1.71042e-05
-3.2965e-14
1.78024e-05
-1.04152e-14
1.85005e-05
3.00689e-14
1.91986e-05
-5.99884e-14
1.98967e-05
2.05949e-05
5.17017e-15
4.53785e-06
-7.45553e-15
5.23599e-06
-7.56211e-16
5.93412e-06
6.84011e-15
6.63225e-06
-9.97327e-15
7.33038e-06
-1.66425e-15
8.02851e-06
9.22072e-15
8.72664e-06
-1.34596e-14
9.42478e-06
2.32222e-14
1.01229e-05
1.04726e-14
1.0821e-05
-1.72705e-14
1.15192e-05
-3.02484e-15
1.22173e-05
1.13983e-14
1.29154e-05
-1.98167e-14
1.36136e-05
-4.6761e-15
1.43117e-05
5.03117e-14
1.50098e-05
-2.40453e-14
1.5708e-05
-6.65699e-15
1.64061e-05
1.42629e-14
1.71042e-05
1.65508e-15
1.78024e-05
-6.80866e-15
1.85005e-05
1.44437e-14
1.91986e-05
5.07616e-14
1.98967e-05
2.05949e-05
-6.1973e-15
4.53785e-06
2.86727e-17
5.23599e-06
1.15122e-14
5.93412e-06
-2.06251e-14
6.63225e-06
5.36744e-15
7.33038e-06
1.22277e-15
8.02851e-06
-4.50494e-17
8.72664e-06
1.23946e-14
9.42478e-06
-1.32258e-14
1.01229e-05
-1.88933e-14
1.0821e-05
-4.96135e-15
1.15192e-05
-7.15134e-15
1.22173e-05
-1.48851e-14
1.29154e-05
3.53422e-14
1.36136e-05
1.16439e-18
1.43117e-05
-4.31337e-14
1.50098e-05
1.35635e-14
1.5708e-05
-2.82528e-14
1.64061e-05
2.45571e-15
1.71042e-05
-1.02356e-14
1.78024e-05
2.38086e-14
1.85005e-05
1.38807e-14
1.91986e-05
-4.55625e-14
1.98967e-05
2.05949e-05
-1.90651e-15
4.53785e-06
1.13109e-15
5.23599e-06
-2.16614e-14
5.93412e-06
9.62419e-15
6.63225e-06
1.5138e-14
7.33038e-06
-1.40645e-14
8.02851e-06
8.09372e-15
8.72664e-06
-2.69588e-14
9.42478e-06
-1.96532e-15
1.01229e-05
2.97192e-14
1.0821e-05
-1.17435e-14
1.15192e-05
1.9869e-14
1.22173e-05
-2.74432e-14
1.29154e-05
-2.06135e-14
1.36136e-05
1.60439e-14
1.43117e-05
-4.61045e-15
1.50098e-05
4.69433e-15
1.5708e-05
4.79694e-14
1.64061e-05
-1.37377e-14
1.71042e-05
3.23749e-14
1.78024e-05
-3.51785e-14
1.85005e-05
-2.49008e-14
1.91986e-05
7.1918e-14
1.98967e-05
2.05949e-05
1.90681e-15
4.53785e-06
-1.13028e-15
5.23599e-06
2.16622e-14
5.93412e-06
-9.62377e-15
6.63225e-06
-1.51372e-14
7.33038e-06
1.4065e-14
8.02851e-06
-8.09246e-15
8.72664e-06
2.69607e-14
9.42478e-06
1.96618e-15
1.01229e-05
-2.97151e-14
1.0821e-05
1.17476e-14
1.15192e-05
-1.98671e-14
1.22173e-05
2.74469e-14
1.29154e-05
2.06172e-14
1.36136e-05
-1.60383e-14
1.43117e-05
4.61347e-15
1.50098e-05
-4.68962e-15
1.5708e-05
-4.79655e-14
1.64061e-05
1.37409e-14
1.71042e-05
-3.23698e-14
1.78024e-05
3.51868e-14
1.85005e-05
2.49095e-14
1.91986e-05
-7.19083e-14
1.98967e-05
2.05949e-05
6.19736e-15
4.53785e-06
-2.84408e-17
5.23599e-06
-1.15115e-14
5.93412e-06
2.06261e-14
6.63225e-06
-5.36584e-15
7.33038e-06
-1.22141e-15
8.02851e-06
4.81081e-17
8.72664e-06
-1.23932e-14
9.42478e-06
1.32274e-14
1.01229e-05
1.88956e-14
1.0821e-05
4.96621e-15
1.15192e-05
7.15389e-15
1.22173e-05
1.48883e-14
1.29154e-05
-3.53372e-14
1.36136e-05
2.44891e-19
1.43117e-05
4.31374e-14
1.50098e-05
-1.3561e-14
1.5708e-05
2.82571e-14
1.64061e-05
-2.45399e-15
1.71042e-05
1.02398e-14
1.78024e-05
-2.38033e-14
1.85005e-05
-1.38721e-14
1.91986e-05
4.55675e-14
1.98967e-05
2.05949e-05
-5.1701e-15
4.53785e-06
7.45553e-15
5.23599e-06
7.56737e-16
5.93412e-06
-6.83896e-15
6.63225e-06
9.97523e-15
7.33038e-06
1.66477e-15
8.02851e-06
-9.21785e-15
8.72664e-06
1.34597e-14
9.42478e-06
-2.32206e-14
1.01229e-05
-1.04718e-14
1.0821e-05
1.72719e-14
1.15192e-05
3.02695e-15
1.22173e-05
-1.13963e-14
1.29154e-05
1.98179e-14
1.36136e-05
4.68041e-15
1.43117e-05
-5.03058e-14