/*--------------------------------*- C++ -*----------------------------------*\
  =========                 |
  \\      /  F ield         | OpenFOAM: The Open Source CFD Toolbox
   \\    /   O peration     | Website:  https://openfoam.org
    \\  /    A nd           | Version:  11
     \\/     M anipulation  |
\*---------------------------------------------------------------------------*/
FoamFile
{
    format      ascii;
    class       volScalarField;
    location    "0.44";
    object      p;
}
// * * * * * * * * * * * * * * * * * * * * * * * * * * * * * * * * * * * * * //

dimensions      [0 2 -2 0 0 0 0];

internalField   nonuniform List<scalar> 
2880
(
-0.369786
-0.360281
-0.342924
-0.315435
-0.306196
-0.219257
-0.368571
-0.35984
-0.343828
-0.319215
-0.314225
-0.249995
-0.366429
-0.359626
-0.345674
-0.324538
-0.323203
-0.277599
-0.365517
-0.360187
-0.348242
-0.330593
-0.328629
-0.297869
-0.366095
-0.361665
-0.351354
-0.336754
-0.333333
-0.313175
-0.367458
-0.363921
-0.355009
-0.342909
-0.338365
-0.324073
-0.370518
-0.366843
-0.359233
-0.349139
-0.343829
-0.332233
-0.374905
-0.37022
-0.363976
-0.355555
-0.349785
-0.339277
-0.37832
-0.373662
-0.369091
-0.362242
-0.356351
-0.346185
-0.38083
-0.37713
-0.374466
-0.369261
-0.363646
-0.353624
-0.383308
-0.380659
-0.380017
-0.37665
-0.371781
-0.362174
-0.385801
-0.384168
-0.385669
-0.384423
-0.380808
-0.372066
-0.388214
-0.387492
-0.391341
-0.392568
-0.390744
-0.383483
-0.390415
-0.390453
-0.396964
-0.401049
-0.401562
-0.396536
-0.392317
-0.392955
-0.402475
-0.40981
-0.413181
-0.41129
-0.394654
-0.395032
-0.407744
-0.418763
-0.425432
-0.427772
-0.397548
-0.397552
-0.412835
-0.427774
-0.437999
-0.446037
-0.399799
-0.400453
-0.417646
-0.436678
-0.450509
-0.466082
-0.401176
-0.403093
-0.421974
-0.445269
-0.463376
-0.487178
-0.402264
-0.405188
-0.425489
-0.453199
-0.476079
-0.509886
-0.402614
-0.406235
-0.427636
-0.459753
-0.488277
-0.535467
-0.400824
-0.40573
-0.427803
-0.463487
-0.498923
-0.564368
-0.397324
-0.404127
-0.426401
-0.46344
-0.506142
-0.592972
-0.39554
-0.403157
-0.425769
-0.462866
-0.510076
-0.611549
-0.481077
-0.413823
-0.375619
-0.3314
-0.290708
-0.252511
-0.217018
-0.184267
-0.154249
-0.126897
-0.102151
-0.0799653
-0.0602971
-0.0431013
-0.0283355
-0.0159409
-0.00584095
0.00204476
0.00780671
0.0116085
0.0135096
0.0139714
0.0121996
0.00971191
-0.417438
-0.378107
-0.352786
-0.313274
-0.275624
-0.239844
-0.206546
-0.175826
-0.147589
-0.121717
-0.0980959
-0.0766598
-0.0573963
-0.0403264
-0.0254852
-0.012875
-0.00250214
0.00558943
0.0113688
0.0148582
0.0160934
0.015286
0.0123956
0.00743042
-0.390924
-0.357126
-0.335039
-0.299066
-0.263477
-0.229474
-0.1979
-0.168923
-0.14241
-0.118169
-0.0960192
-0.0758331
-0.0575468
-0.0411873
-0.0268286
-0.0145447
-0.00440983
0.00349758
0.00908637
0.0122884
0.0130832
0.0115263
0.00759677
0.00156755
-0.371657
-0.342412
-0.320352
-0.286933
-0.252941
-0.220225
-0.189938
-0.162338
-0.137327
-0.114667
-0.0941156
-0.0754844
-0.0586651
-0.0436175
-0.0303443
-0.0189256
-0.00944993
-0.00196165
0.00346872
0.00674991
0.00778594
0.00632315
0.00180528
-0.00431128
-0.356012
-0.330745
-0.307853
-0.275856
-0.242885
-0.210946
-0.181463
-0.154765
-0.13082
-0.109408
-0.0902707
-0.0731641
-0.0579434
-0.0444855
-0.0326996
-0.022593
-0.0141829
-0.00743821
-0.00239384
0.000884815
0.00226809
0.00125254
-0.00314172
-0.00777952
-0.345578
-0.321896
-0.297383
-0.265577
-0.232748
-0.201031
-0.171783
-0.145486
-0.122193
-0.101738
-0.083898
-0.0684229
-0.0550547
-0.0435872
-0.0339114
-0.0259677
-0.019547
-0.0144588
-0.0106226
-0.00792702
-0.00630299
-0.00579446
-0.00612541
-0.00465244
-0.339816
-0.315687
-0.288995
-0.25631
-0.222752
-0.190505
-0.160908
-0.134545
-0.111534
-0.0916239
-0.0746419
-0.0603133
-0.0483706
-0.0385607
-0.030619
-0.0242209
-0.019156
-0.0152667
-0.0122116
-0.00962869
-0.00712768
-0.00406362
0.000601027
0.00517955
-0.337718
-0.311938
-0.282631
-0.248177
-0.2131
-0.179633
-0.149106
-0.122121
-0.0988824
-0.0788193
-0.0621526
-0.0484847
-0.0375512
-0.0290576
-0.0226904
-0.0181175
-0.0150101
-0.012948
-0.011434
-0.00992602
-0.00779425
-0.00404082
0.00259511
0.00895538
-0.338554
-0.310607
-0.278155
-0.241177
-0.20385
-0.168537
-0.136591
-0.108585
-0.0845302
-0.064759
-0.0486398
-0.0357631
-0.0260499
-0.0191396
-0.0146689
-0.0122423
-0.0114111
-0.0116282
-0.0122504
-0.0125549
-0.0117135
-0.00853588
-0.00176745
0.00632346
-0.341816
-0.311604
-0.275574
-0.23535
-0.19513
-0.157443
-0.123717
-0.0945315
-0.0699748
-0.0499842
-0.0341375
-0.0223043
-0.0138991
-0.00856943
-0.00590051
-0.0054244
-0.0066092
-0.00882189
-0.0113023
-0.0131698
-0.0134638
-0.0109641
-0.00462155
0.00489461
-0.347572
-0.314779
-0.27475
-0.230701
-0.187078
-0.14664
-0.110914
-0.0804442
-0.0552657
-0.0351833
-0.0198393
-0.00883006
-0.00165182
0.00218169
0.00318551
0.00192245
-0.000955994
-0.00468397
-0.00841111
-0.0112008
-0.0120754
-0.00970346
-0.00356661
0.00721357
-0.355844
-0.320098
-0.275556
-0.227155
-0.179723
-0.136348
-0.0985317
-0.066843
-0.0412303
-0.0213519
-0.00668436
0.00335345
0.00935918
0.0119147
0.0116366
0.00920901
0.00540431
0.00104467
-0.00305815
-0.00599159
-0.00702791
-0.0047565
0.000391517
0.011934
-0.366427
-0.327376
-0.277742
-0.224452
-0.172998
-0.126751
-0.0872229
-0.0547543
-0.0290554
-0.00957779
0.00435845
0.0134868
0.018526
0.020181
0.0191976
0.0163078
0.012308
0.00784951
0.00365783
0.000776868
-0.000741014
8.05993e-05
0.00187617
0.0129553
-0.379242
-0.336353
-0.280851
-0.222241
-0.166866
-0.118149
-0.077296
-0.0443792
-0.018892
-2.87496e-05
0.0130769
0.0213417
0.02565
0.0268364
0.0256906
0.022764
0.0192037
0.0151426
0.0107885
0.00795365
0.00812236
0.0116635
0.0141078
0.020127
-0.394157
-0.346568
-0.28422
-0.220142
-0.160982
-0.110065
-0.0684111
-0.0356959
-0.0109589
0.00695036
0.0191866
0.0267909
0.0307819
0.0320487
0.0313497
0.0286144
0.0253763
0.0239614
0.0238251
0.0236067
0.0229199
0.0232461
0.0236518
0.0273927
-0.410879
-0.357118
-0.287194
-0.21739
-0.154703
-0.102417
-0.0608912
-0.0290413
-0.00534928
0.0115694
0.0230393
0.0301551
0.0339398
0.0354058
0.0360226
0.0371962
0.0373072
0.0360029
0.0348227
0.0340817
0.0326108
0.030343
0.0290124
0.0341845
-0.428966
-0.366981
-0.288739
-0.213357
-0.148057
-0.0953882
-0.0547504
-0.0241953
-0.00170723
0.0142805
0.0252277
0.032421
0.037612
0.0417242
0.04403
0.0449197
0.0453872
0.0450925
0.0439296
0.0424456
0.0409823
0.0394314
0.039095
0.0418895
-0.446644
-0.375595
-0.288161
-0.207917
-0.141121
-0.0890276
-0.0497745
-0.0204549
0.00115212
0.0167116
0.0280741
0.0369585
0.0434467
0.0478979
0.0510003
0.0526522
0.0532927
0.0535216
0.0535438
0.0528954
0.0514815
0.0500708
0.0506685
0.04882
-0.461393
-0.382521
-0.285269
-0.201105
-0.133823
-0.0829157
-0.0448639
-0.0163459
0.00499852
0.0211015
0.0333601
0.0428198
0.0501136
0.0552236
0.0584338
0.0607218
0.062498
0.063437
0.0635123
0.0628098
0.0614716
0.0606904
0.0632655
0.0591593
-0.469003
-0.386578
-0.279816
-0.192081
-0.125165
-0.0755806
-0.0384695
-0.0104067
0.011003
0.0276257
0.0406399
0.0505835
0.0578057
0.0629962
0.0671084
0.070264
0.0723837
0.073587
0.07397
0.0736077
0.0727812
0.0733265
0.0790544
0.0739349
-0.464796
-0.382282
-0.268963
-0.178755
-0.113178
-0.0651245
-0.0290278
-0.00150374
0.0195957
0.0362952
0.0493324
0.0591708
0.066857
0.0727922
0.0773772
0.0808241
0.0832947
0.0848868
0.0857
0.0858555
0.0857212
0.0877616
0.0965652
0.0899201
-0.447174
-0.359109
-0.246365
-0.158243
-0.0957141
-0.0499901
-0.0155007
0.0109863
0.0311364
0.0471894
0.060211
0.0701228
0.0779073
0.0840264
0.0888263
0.0925266
0.0952758
0.0971892
0.0983958
0.0989828
0.0993263
0.102412
0.113324
0.104767
-0.414631
-0.30693
-0.206096
-0.128348
-0.0717575
-0.0297079
0.0022248
0.0268666
0.0460471
0.0611968
0.0733583
0.0829607
0.0905936
0.0966845
0.101523
0.105314
0.108203
0.110312
0.111777
0.112655
0.113353
0.117342
0.130049
0.119679
-0.340914
-0.227235
-0.150374
-0.0896467
-0.0418504
-0.00488801
0.0236462
0.0458899
0.063403
0.0773418
0.0885511
0.09756
0.10482
0.110685
0.115413
0.119192
0.122164
0.124452
0.126173
0.127318
0.128273
0.132897
0.146908
0.13488
0.383697
0.394199
0.430379
0.490337
0.524122
0.435351
0.385623
0.393597
0.41984
0.458252
0.452437
0.388289
0.386575
0.392541
0.408886
0.433382
0.416266
0.345971
0.38551
0.390022
0.398881
0.41487
0.393353
0.328393
0.383231
0.386442
0.390885
0.401309
0.381247
0.327577
0.380312
0.382636
0.384458
0.391957
0.375838
0.332592
0.376973
0.378966
0.379386
0.385664
0.373819
0.339006
0.373355
0.375486
0.375392
0.381414
0.373412
0.345537
0.369627
0.372166
0.372175
0.378448
0.373822
0.351839
0.365974
0.368985
0.369541
0.37621
0.374741
0.357935
0.362579
0.365944
0.36722
0.374459
0.376055
0.363914
0.359609
0.363068
0.365066
0.372988
0.377693
0.369648
0.357172
0.360411
0.362984
0.371573
0.379551
0.37494
0.355365
0.358092
0.360904
0.370025
0.381341
0.379969
0.354189
0.356232
0.358786
0.368131
0.38276
0.384817
0.35363
0.35487
0.356633
0.36564
0.383621
0.389325
0.353764
0.354071
0.354433
0.362204
0.383747
0.393094
0.354639
0.353892
0.352189
0.357378
0.382868
0.395237
0.355901
0.354286
0.349825
0.350805
0.380424
0.394165
0.354505
0.35473
0.346929
0.342557
0.375794
0.388189
0.3497
0.354489
0.343241
0.332633
0.369289
0.377221
0.350756
0.354385
0.33905
0.321076
0.363478
0.360381
0.359066
0.35471
0.335165
0.310097
0.359991
0.304181
0.363582
0.354498
0.331602
0.299697
0.345496
0.082105
-0.144353
-0.144571
-0.0914861
-0.0458717
-0.00772621
0.0232855
0.047875
0.0673195
0.0828146
0.0952735
0.105366
0.113578
0.120287
0.12579
0.130309
0.134005
0.136996
0.139387
0.141246
0.142493
0.143519
0.148483
0.163327
0.150095
-0.0114564
-0.0643672
-0.0326666
-0.000389797
0.0286905
0.0535999
0.0740039
0.0904562
0.103746
0.114552
0.123399
0.130683
0.136716
0.141738
0.145933
0.149434
0.152343
0.154744
0.156654
0.157918
0.158924
0.164038
0.179416
0.165668
0.0752632
0.0125799
0.0240288
0.0445087
0.0656729
0.0848847
0.101188
0.114638
0.125675
0.134767
0.142298
0.148576
0.153846
0.158301
0.16209
0.165322
0.16808
0.170427
0.17233
0.17355
0.174456
0.179532
0.195153
0.18184
0.142933
0.0805791
0.0764382
0.0873925
0.101976
0.11619
0.128716
0.139312
0.148164
0.155558
0.161763
0.167001
0.171457
0.175281
0.178588
0.181469
0.183992
0.186202
0.188038
0.189196
0.189979
0.194842
0.210375
0.198925
0.19525
0.135694
0.12338
0.127534
0.136834
0.146844
0.156051
0.164049
0.170859
0.176636
0.181547
0.185743
0.189356
0.192494
0.195249
0.197693
0.199883
0.201863
0.203569
0.204701
0.205468
0.209933
0.224773
0.217828
0.234699
0.180549
0.164771
0.164543
0.169835
0.176438
0.182826
0.188535
0.193497
0.197775
0.201461
0.204643
0.207406
0.209824
0.21196
0.213869
0.215597
0.217185
0.218611
0.219666
0.220346
0.223355
0.235334
0.243107
0.264707
0.218058
0.201242
0.198398
0.200824
0.204758
0.208816
0.212561
0.215895
0.218822
0.221377
0.2236
0.225534
0.227221
0.228696
0.229983
0.2311
0.232064
0.232871
0.233333
0.232786
0.230282
0.227529
0.280951
0.288031
0.249191
0.233393
0.229301
0.229819
0.231736
0.233914
0.236012
0.237943
0.23968
0.241218
0.242561
0.243722
0.244716
0.245551
0.246227
0.246743
0.247112
0.247308
0.246963
0.245442
0.245014
0.256623
0.277526
0.306776
0.275492
0.261917
0.257598
0.256966
0.25741
0.258102
0.258843
0.259587
0.260296
0.26094
0.2615
0.261971
0.262347
0.26262
0.262776
0.262807
0.262722
0.26244
0.261483
0.259596
0.261025
0.276423
0.283722
0.322339
0.298148
0.287513
0.283684
0.282481
0.28189
0.281425
0.281062
0.280814
0.280647
0.280517
0.280395
0.280263
0.280108
0.27991
0.279647
0.279308
0.278898
0.278302
0.277004
0.27499
0.277234
0.293682
0.29523
0.335567
0.318012
0.310821
0.30797
0.306616
0.30533
0.303977
0.302718
0.301643
0.30073
0.299932
0.299218
0.298567
0.297958
0.297368
0.296766
0.296137
0.295478
0.294652
0.293124
0.291001
0.29355
0.310248
0.309145
0.347223
0.335896
0.332343
0.330852
0.329659
0.327927
0.325882
0.323884
0.322111
0.320555
0.319176
0.317944
0.316839
0.315841
0.31492
0.314038
0.313175
0.31232
0.311321
0.309633
0.307437
0.310095
0.326643
0.324188
0.35785
0.352411
0.35267
0.352744
0.351909
0.349891
0.347286
0.344654
0.342268
0.340142
0.33824
0.336543
0.335034
0.333693
0.332484
0.331364
0.330305
0.329288
0.328151
0.326352
0.324121
0.326794
0.342913
0.339788
0.367606
0.36804
0.372269
0.374043
0.373666
0.371442
0.368338
0.365125
0.36217
0.359511
0.357121
0.354989
0.353106
0.35145
0.349983
0.348653
0.347423
0.34627
0.345023
0.343152
0.340928
0.343554
0.359014
0.355618
0.376645
0.383179
0.391576
0.395134
0.395226
0.392796
0.389193
0.385395
0.381872
0.378684
0.375812
0.373253
0.371007
0.369051
0.367341
0.365817
0.364434
0.36316
0.361823
0.359914
0.357732
0.360265
0.374878
0.371464
0.385078
0.398207
0.411035
0.4164
0.416888
0.414168
0.409997
0.405558
0.401424
0.397677
0.394301
0.391304
0.388688
0.386432
0.384483
0.382772
0.381244
0.379861
0.378449
0.376528
0.374417
0.376815
0.390427
0.387161
0.392997
0.413575
0.4311
0.438212
0.438957
0.435772
0.430888
0.425696
0.420865
0.416497
0.412572
0.409103
0.406097
0.403528
0.401335
0.399436
0.397765
0.396276
0.394798
0.392887
0.390868
0.393094
0.40558
0.402568
0.400494
0.429912
0.452263
0.46101
0.461742
0.457813
0.451985
0.445871
0.440217
0.435135
0.430592
0.426602
0.423172
0.420268
0.417817
0.415723
0.413906
0.412312
0.410773
0.408885
0.40697
0.408989
0.420253
0.417556
0.407799
0.448088
0.475139
0.485276
0.485526
0.480478
0.473379
0.466116
0.459475
0.45356
0.448313
0.443741
0.439841
0.436572
0.433844
0.431543
0.429573
0.427869
0.426269
0.424411
0.422605
0.424386
0.43436
0.432008
0.41551
0.46911
0.500435
0.51147
0.510559
0.503892
0.495123
0.486422
0.4786
0.471716
0.465666
0.460439
0.45602
0.45235
0.449322
0.446798
0.444665
0.442842
0.441178
0.439351
0.437654
0.439172
0.447819
0.445815
0.42449
0.494201
0.529041
0.54011
0.537057
0.528089
0.517203
0.506735
0.497511
0.48951
0.482554
0.476598
0.471606
0.4675
0.464145
0.461381
0.45907
0.457119
0.455383
0.453584
0.451993
0.453242
0.460566
0.458878
0.435544
0.526649
0.562532
0.571677
0.565074
0.552972
0.539483
0.526928
0.516079
0.506815
0.498854
0.492098
0.486482
0.481902
0.478196
0.475173
0.47267
0.470579
0.468761
0.466986
0.465509
0.46653
0.472576
0.471003
0.456757
0.575746
0.603045
0.606204
0.594344
0.578247
0.561689
0.546779
0.534119
0.523462
0.514412
0.506796
0.500514
0.495428
0.491346
0.488044
0.485332
0.483082
0.481162
0.479391
0.478025
0.478864
0.483597
0.481698
0.53558
0.6498
0.6505
0.64278
0.624155
0.603382
0.583422
0.565977
0.551389
0.53925
0.52905
0.520534
0.513553
0.507938
0.50346
0.49986
0.496918
0.494486
0.492438
0.490633
0.489303
0.48984
0.493313
0.491521
1.09546
1.08321
1.08682
1.106
1.15624
1.35566
1.09807
1.08615
1.08697
1.09944
1.13578
1.23964
1.10006
1.09091
1.08919
1.09562
1.11253
1.14879
1.10025
1.09375
1.0901
1.09117
1.09335
1.09331
1.09925
1.09405
1.08873
1.08523
1.07791
1.06102
1.09753
1.09278
1.08586
1.07866
1.0652
1.04157
1.09523
1.09081
1.08225
1.07215
1.05447
1.02807
1.0925
1.08865
1.07837
1.06593
1.04516
1.0174
1.08957
1.0866
1.07454
1.06004
1.03686
1.0082
1.08675
1.08489
1.07099
1.0545
1.0292
0.999629
1.08435
1.0837
1.06787
1.04932
1.02189
0.99104
1.0826
1.08316
1.06531
1.04454
1.0147
0.981902
1.08164
1.08338
1.06336
1.04022
1.00741
0.971807
1.08157
1.08432
1.06211
1.03638
0.999857
0.960464
1.08232
1.08598
1.06153
1.03303
0.992031
0.947698
1.08379
1.08818
1.0616
1.03026
0.984095
0.933158
1.08576
1.09066
1.0622
1.02813
0.97589
0.915787
1.08795
1.09307
1.06316
1.02675
0.967741
0.896467
1.09004
1.09503
1.06433
1.0264
0.960113
0.875219
1.09174
1.09635
1.06581
1.02777
0.953804
0.852557
1.09289
1.09738
1.0685
1.03245
0.950342
0.830392
1.0938
1.09939
1.07411
1.04225
0.952762
0.814727
1.09531
1.10315
1.08253
1.05459
0.965102
0.820065
1.09718
1.10608
1.08753
1.05726
0.992035
0.85526
0.738739
0.725332
0.699042
0.679331
0.653369
0.627653
0.604175
0.584142
0.567597
0.553949
0.542572
0.533139
0.525447
0.519289
0.514403
0.510493
0.507309
0.504682
0.502492
0.500631
0.499275
0.499434
0.501811
0.500485
0.831784
0.788987
0.743233
0.713076
0.680572
0.650239
0.623402
0.600873
0.582437
0.567318
0.554783
0.544439
0.536039
0.52934
0.524043
0.519822
0.516393
0.51357
0.511237
0.509312
0.507918
0.50773
0.509193
0.508304
0.883052
0.834479
0.779572
0.742101
0.704573
0.670396
0.640609
0.615818
0.595634
0.579133
0.565491
0.554267
0.545179
0.537949
0.53225
0.527721
0.524051
0.521036
0.518563
0.516571
0.515135
0.514663
0.515385
0.514829
0.913849
0.864689
0.80749
0.765636
0.724693
0.687606
0.655419
0.628686
0.606946
0.58919
0.574525
0.562475
0.552729
0.544987
0.538896
0.534068
0.530167
0.526968
0.52436
0.522295
0.520812
0.520112
0.520271
0.519971
0.93286
0.884273
0.827974
0.783759
0.740729
0.701581
0.667536
0.639202
0.616129
0.597269
0.581691
0.568896
0.558547
0.550326
0.543863
0.538751
0.53463
0.531261
0.528525
0.526383
0.524846
0.523978
0.523764
0.52364
0.944175
0.896687
0.842289
0.796943
0.752733
0.712177
0.676732
0.647117
0.622945
0.603156
0.586802
0.573361
0.562481
0.553831
0.54703
0.541658
0.537339
0.533817
0.530965
0.528744
0.527146
0.526174
0.525784
0.525756
0.950402
0.903971
0.851512
0.805678
0.760839
0.719361
0.682902
0.652307
0.627264
0.60672
0.589728
0.575751
0.564421
0.555399
0.548299
0.542697
0.538204
0.53455
0.531599
0.529298
0.527633
0.526622
0.526264
0.526252
0.952924
0.907234
0.856396
0.810352
0.765232
0.723206
0.686062
0.65475
0.62904
0.607905
0.590406
0.575996
0.564295
0.554957
0.547599
0.541796
0.537155
0.533392
0.530356
0.527976
0.526245
0.525271
0.525146
0.525056
0.952242
0.907035
0.857399
0.811267
0.766103
0.72381
0.686233
0.654419
0.628219
0.606645
0.588768
0.574029
0.562038
0.552446
0.544873
0.538903
0.53414
0.530294
0.52719
0.524735
0.522936
0.522062
0.52237
0.522123
0.948666
0.90362
0.854786
0.808623
0.763561
0.721201
0.683395
0.65126
0.624733
0.602867
0.584739
0.56978
0.557588
0.547811
0.540076
0.533975
0.529122
0.525218
0.522067
0.519542
0.517675
0.516967
0.517897
0.517413
0.942325
0.89703
0.848638
0.802449
0.757585
0.715332
0.677485
0.645205
0.618511
0.596502
0.578257
0.563193
0.550896
0.541011
0.533173
0.526988
0.522079
0.518145
0.514969
0.512384
0.510454
0.509972
0.5117
0.510902
0.933126
0.88711
0.838818
0.792613
0.748048
0.706089
0.668404
0.636167
0.609475
0.58748
0.56926
0.554216
0.541921
0.532017
0.524145
0.517929
0.513004
0.509073
0.505897
0.503265
0.501282
0.501091
0.503784
0.502577
0.920773
0.873511
0.824995
0.778845
0.734729
0.693293
0.65601
0.624038
0.597538
0.575732
0.557693
0.542807
0.530633
0.520809
0.512984
0.506799
0.501907
0.498017
0.49487
0.492212
0.490191
0.490347
0.494161
0.492466
0.90474
0.855652
0.80667
0.760745
0.717312
0.676699
0.640118
0.60868
0.582601
0.561181
0.543503
0.52893
0.51701
0.507379
0.499694
0.493612
0.488807
0.484998
0.481911
0.479243
0.477178
0.477665
0.48273
0.480741
0.884168
0.832684
0.78315
0.737761
0.695382
0.655995
0.620501
0.589932
0.564553
0.543754
0.526642
0.51256
0.501046
0.491734
0.484293
0.478396
0.47374
0.470057
0.467061
0.464401
0.462276
0.463063
0.469449
0.467321
0.857812
0.803466
0.753485
0.709164
0.668409
0.630798
0.596892
0.567616
0.543283
0.523385
0.507078
0.49369
0.482753
0.473903
0.466821
0.461204
0.456768
0.453264
0.450399
0.447771
0.445589
0.44666
0.454403
0.452196
0.824789
0.766509
0.716416
0.674026
0.635751
0.600666
0.568995
0.541547
0.518683
0.500023
0.484798
0.472334
0.462164
0.453935
0.447345
0.442112
0.437978
0.434715
0.432028
0.429471
0.427253
0.428601
0.437696
0.435439
0.782164
0.719615
0.67034
0.631216
0.596663
0.565114
0.536499
0.51154
0.490664
0.473641
0.459815
0.448534
0.439344
0.431912
0.425957
0.421224
0.417485
0.414534
0.412084
0.409648
0.407434
0.409063
0.419458
0.417149
0.727032
0.659812
0.613281
0.579437
0.550347
0.523656
0.499118
0.477438
0.459164
0.444246
0.432179
0.422369
0.414393
0.407948
0.402785
0.398679
0.395435
0.392877
0.390728
0.388473
0.38632
0.388245
0.399852
0.397464
0.655351
0.583439
0.542982
0.51734
0.496032
0.47587
0.456635
0.439155
0.424182
0.411897
0.401985
0.393959
0.387451
0.382198
0.377993
0.374649
0.372009
0.369929
0.368152
0.366149
0.364127
0.366366
0.379063
0.376583
0.562117
0.485873
0.457088
0.443684
0.433094
0.421488
0.408967
0.396715
0.385806
0.376726
0.369394
0.363484
0.358707
0.354861
0.351787
0.349347
0.347423
0.345913
0.344584
0.342906
0.341093
0.343665
0.357301
0.354745
0.437251
0.361319
0.353449
0.357474
0.361185
0.360483
0.356228
0.350295
0.344249
0.338958
0.334644
0.331187
0.328408
0.326184
0.324418
0.323025
0.321934
0.321086
0.320282
0.319006
0.31748
0.320395
0.334795
0.332229
0.246323
0.202161
0.230089
0.25825
0.28042
0.293176
0.298798
0.30027
0.299862
0.29893
0.298058
0.297378
0.296855
0.296461
0.296176
0.295972
0.295833
0.29574
0.295539
0.294741
0.293579
0.296834
0.311798
0.309343
-0.0614607
0.0143235
0.0893513
0.147297
0.191868
0.220443
0.237401
0.247245
0.25316
0.257093
0.260046
0.262433
0.264398
0.266031
0.26739
0.268516
0.269443
0.270202
0.270682
0.270435
0.269705
0.273276
0.288585
0.286432
-0.807473
-0.851899
-0.932118
-0.976938
-0.99814
-1.04281
-0.819217
-0.863956
-0.944641
-0.989082
-1.00019
-1.01815
-0.830024
-0.876582
-0.958638
-1.00465
-1.00806
-1.01175
-0.84145
-0.89007
-0.974136
-1.02301
-1.02458
-1.02364
-0.855087
-0.904942
-0.990272
-1.04241
-1.0484
-1.04758
-0.870086
-0.920477
-1.0061
-1.06119
-1.07505
-1.0777
-0.885077
-0.935552
-1.0207
-1.07812
-1.09992
-1.10785
-0.898605
-0.949499
-1.03325
-1.09218
-1.12059
-1.13284
-0.909814
-0.961655
-1.04299
-1.10255
-1.13563
-1.15033
-0.918304
-0.970954
-1.04959
-1.10871
-1.14423
-1.15944
-0.923594
-0.976941
-1.0529
-1.1104
-1.14608
-1.15976
-0.925408
-0.979537
-1.05294
-1.10767
-1.14127
-1.15134
-0.923731
-0.978976
-1.04976
-1.10084
-1.13036
-1.13483
-0.91884
-0.975571
-1.04373
-1.09048
-1.11432
-1.11151
-0.911326
-0.969691
-1.03527
-1.0774
-1.09445
-1.0831
-0.901973
-0.961838
-1.02491
-1.06257
-1.07234
-1.05174
-0.891674
-0.952648
-1.01331
-1.04711
-1.04974
-1.0195
-0.88135
-0.94285
-1.00116
-1.03219
-1.02849
-0.98978
-0.871854
-0.933235
-0.989138
-1.01862
-1.01046
-0.965229
-0.863862
-0.924757
-0.977874
-1.00611
-0.998176
-0.948822
-0.857945
-0.918761
-0.968229
-0.995119
-0.99263
-0.942289
-0.854967
-0.916409
-0.961018
-0.985896
-0.991911
-0.949805
-0.856151
-0.916261
-0.955373
-0.973947
-0.99255
-0.979054
-0.860507
-0.911338
-0.940241
-0.95734
-0.998884
-1.08821
-0.518091
-0.204154
-0.0670013
0.0288676
0.0982284
0.144011
0.173191
0.192087
0.204837
0.21402
0.221096
0.226784
0.231434
0.235261
0.238416
0.241005
0.243116
0.244824
0.246066
0.246444
0.246205
0.250043
0.265448
0.263885
-0.703048
-0.416251
-0.223347
-0.0887583
0.00386485
0.0662639
0.107839
0.135919
0.155734
0.170379
0.181757
0.190902
0.198379
0.204539
0.209623
0.213802
0.217216
0.21998
0.222075
0.22316
0.223462
0.227477
0.242682
0.242166
-0.799125
-0.577299
-0.35973
-0.198699
-0.0873339
-0.0101997
0.0429273
0.0800344
0.106771
0.126874
0.142597
0.155263
0.165648
0.174238
0.181362
0.187256
0.192101
0.196049
0.19912
0.201022
0.20193
0.205962
0.22054
0.221862
-0.88041
-0.697093
-0.473099
-0.298126
-0.172848
-0.0833454
-0.0199137
0.0254826
0.058834
0.0841948
0.104159
0.120313
0.133617
0.144683
0.15393
0.161654
0.168077
0.173376
0.177611
0.180545
0.182219
0.186016
0.199123
0.203812
-0.95238
-0.789491
-0.568067
-0.386616
-0.251204
-0.151748
-0.0794581
-0.0266809
0.0126956
0.0429585
0.066946
0.0864473
0.102589
0.116109
0.127511
0.137152
0.1453
0.152165
0.157864
0.162274
0.165267
0.168875
0.179177
0.189929
-1.0114
-0.861695
-0.648104
-0.464364
-0.32164
-0.214455
-0.134791
-0.0756315
-0.0309379
0.00373501
0.0313933
0.0539875
0.0727871
0.0886391
0.10213
0.113683
0.12362
0.132199
0.139603
0.145809
0.150647
0.15541
0.164847
0.173342
-1.05768
-0.918033
-0.714655
-0.531267
-0.38372
-0.270904
-0.185258
-0.12074
-0.0714962
-0.0329978
-0.00212203
0.0232079
0.044373
0.0623082
0.0776654
0.0909159
0.102412
0.112416
0.121061
0.128227
0.133914
0.140341
0.151376
0.14559
-1.09281
-0.961089
-0.768315
-0.587052
-0.437296
-0.32051
-0.230289
-0.161474
-0.108509
-0.0668355
-0.0332638
-0.00563474
0.0175131
0.0371775
0.0540491
0.0686137
0.0812141
0.0920787
0.101274
0.108628
0.114311
0.121058
0.132203
0.122059
-1.11717
-0.991667
-0.809265
-0.631731
-0.481993
-0.362509
-0.269543
-0.197409
-0.141583
-0.0974215
-0.0617143
-0.0322632
-0.0075531
0.0134573
0.0314847
0.0470203
0.0603972
0.0718272
0.0813736
0.0889087
0.0947233
0.101616
0.112562
0.102442
-1.13024
-1.00983
-0.837478
-0.665309
-0.516965
-0.396922
-0.302491
-0.228297
-0.170424
-0.124443
-0.0871697
-0.0563839
-0.0305376
-0.00855867
0.0102898
0.026509
0.0404349
0.0522865
0.0621578
0.0699978
0.0761738
0.0833237
0.0940627
0.0852723
-1.13162
-1.01559
-0.852913
-0.687525
-0.542335
-0.423718
-0.328403
-0.254023
-0.194813
-0.14764
-0.109356
-0.0777108
-0.0511389
-0.0285496
-0.00918693
0.00746664
0.0217629
0.0339412
0.0441336
0.0523584
0.0590216
0.066497
0.0770936
0.0702353
-1.12154
-1.00908
-0.855649
-0.698308
-0.55832
-0.442488
-0.347757
-0.274061
-0.21449
-0.166795
-0.128034
-0.0959793
-0.0690672
-0.0461984
-0.0266005
-0.00973433
0.00477545
0.0171937
0.0276864
0.0363247
0.0435127
0.0513368
0.0618752
0.0572525
-1.10087
-0.991028
-0.846036
-0.697884
-0.564687
-0.453268
-0.361456
-0.287708
-0.229284
-0.181786
-0.143033
-0.110976
-0.0840728
-0.0612222
-0.0416398
-0.024765
-0.0101953
0.00236092
0.0130982
0.0221225
0.0298039
0.037962
0.0485152
0.0462307
-1.0708
-0.962889
-0.825174
-0.686927
-0.561823
-0.456079
-0.368607
-0.296237
-0.23912
-0.192492
-0.154242
-0.122555
-0.0959656
-0.0733922
-0.0540478
-0.0373538
-0.0228819
-0.0103142
0.000568992
0.0098968
0.0179939
0.0264388
0.0370463
0.0370535
-1.03295
-0.926248
-0.794958
-0.666528
-0.550463
-0.451376
-0.368834
-0.300109
-0.244221
-0.198962
-0.161654
-0.130653
-0.10463
-0.0825495
-0.0636328
-0.047291
-0.0330752
-0.0206429
-0.00975044
-0.000250308
0.00814379
0.0167899
0.0274374
0.0295702
-0.98923
-0.882755
-0.757618
-0.638465
-0.531786
-0.440108
-0.363045
-0.298548
-0.245062
-0.201421
-0.165346
-0.135287
-0.110034
-0.0886161
-0.0702779
-0.0544328
-0.04062
-0.0284766
-0.0177345
-0.00822403
0.000321157
0.00904547
0.0196415
0.0236127
-0.942121
-0.834159
-0.71523
-0.605009
-0.507504
-0.423518
-0.352238
-0.292094
-0.241762
-0.200113
-0.165494
-0.136564
-0.11223
-0.0915955
-0.0739455
-0.0587084
-0.0454223
-0.0337116
-0.023286
-0.0139489
-0.00545446
0.00315846
0.0135252
0.0189607
-0.894174
-0.782398
-0.669539
-0.568232
-0.479512
-0.403022
-0.33755
-0.281801
-0.234737
-0.195333
-0.162351
-0.134677
-0.111354
-0.0915764
-0.0746817
-0.0601266
-0.0474594
-0.0363023
-0.0263494
-0.0173806
-0.0091664
-0.00089731
0.0089526
0.0153669
-0.84787
-0.729312
-0.622142
-0.529685
-0.449436
-0.380051
-0.320155
-0.268668
-0.224778
-0.187654
-0.156348
-0.129954
-0.107657
-0.0887477
-0.0726254
-0.0587829
-0.0467885
-0.0362706
-0.0269147
-0.0184773
-0.0107356
-0.00305573
0.00589718
0.0126961
-0.805537
-0.676834
-0.574435
-0.490672
-0.418602
-0.355897
-0.301211
-0.25371
-0.212784
-0.17781
-0.148078
-0.122873
-0.101522
-0.0834159
-0.0680206
-0.0548705
-0.0435589
-0.0337263
-0.0250532
-0.0172807
-0.0101825
-0.0032922
0.00436479
0.0108316
-0.768803
-0.626523
-0.527921
-0.452487
-0.388166
-0.331688
-0.281801
-0.237935
-0.199689
-0.166636
-0.138273
-0.114066
-0.0934868
-0.0760326
-0.061243
-0.0487019
-0.0380342
-0.0288987
-0.0209764
-0.0140188
-0.00785737
-0.00199792
0.00409906
0.00964777
-0.73731
-0.578833
-0.48371
-0.416602
-0.359255
-0.308434
-0.262911
-0.222315
-0.18644
-0.155039
-0.127793
-0.104334
-0.084278
-0.0672393
-0.0528463
-0.0407485
-0.0306193
-0.0221546
-0.0150787
-0.009082
-0.00386496
0.000915913
0.00507904
0.00916724
-0.709983
-0.528989
-0.442134
-0.384602
-0.332894
-0.287048
-0.245411
-0.20774
-0.173968
-0.143985
-0.117622
-0.0946599
-0.0748533
-0.0579417
-0.0436585
-0.0317376
-0.0219171
-0.0139369
-0.00755704
-0.00248468
0.00151125
0.0048805
0.00708134
0.00965293
-0.661361
-0.470519
-0.406197
-0.355058
-0.309756
-0.268236
-0.229968
-0.194911
-0.163063
-0.134382
-0.108789
-0.0861777
-0.0664246
-0.0493926
-0.0349306
-0.0228756
-0.0130524
-0.00527259
0.000646828
0.00495644
0.00776236
0.00962121
0.00957659
0.00994635
)
;

boundaryField
{
    rotor
    {
        type            zeroGradient;
    }
    freestream
    {
        type            freestreamPressure;
        freestreamValue uniform 0;
        supersonic      false;
        value           nonuniform List<scalar> 
96
(
0.000364049
0.000218097
3.97798e-05
-9.83109e-05
-0.000143508
-4.50632e-05
9.18658e-06
1.12718e-05
5.75892e-05
9.40152e-05
0.000206688
0.000456953
0.000637573
0.00123495
0.00206184
0.00309751
0.00452169
0.00621411
0.00879074
0.0126887
0.0176246
0.0232417
0.0298412
0.0375405
0.046321
0.0563337
0.0677204
0.0806705
0.0956701
0.115074
0.142615
0.150065
0.163246
0.180002
0.198885
0.219175
0.240485
0.262533
0.285078
0.307892
0.330746
0.353407
0.375641
0.39721
0.417885
0.437343
0.454974
0.47116
0.485792
0.498486
0.50899
0.517131
0.52275
0.525718
0.525943
0.523355
0.517936
0.509699
0.498701
0.485038
0.468864
0.450493
0.430016
0.407614
0.383555
0.358142
0.331719
0.304673
0.277415
0.250365
0.223935
0.198524
0.17451
0.15226
0.13214
0.11457
0.100457
0.086159
0.0678003
0.0530186
0.0413198
0.0317981
0.0241045
0.0179982
0.0132457
0.00962389
0.00692169
0.00494916
0.00353232
0.00252236
0.00181637
0.00133172
0.000999865
0.000778672
0.000647029
0.000503254
)
;
    }
    frontAndBack
    {
        type            empty;
    }
}


// ************************************************************************* //
