/*--------------------------------*- C++ -*----------------------------------*\
  =========                 |
  \\      /  F ield         | OpenFOAM: The Open Source CFD Toolbox
   \\    /   O peration     | Website:  https://openfoam.org
    \\  /    A nd           | Version:  11
     \\/     M anipulation  |
\*---------------------------------------------------------------------------*/
FoamFile
{
    format      ascii;
    class       surfaceScalarField;
    location    "0.44";
    object      phi;
}
// * * * * * * * * * * * * * * * * * * * * * * * * * * * * * * * * * * * * * //

dimensions      [0 3 -1 0 0 0 0];

internalField   nonuniform List<scalar> 
5640
(
-1.87413e-07
1.87413e-07
-4.03349e-07
2.15936e-07
-5.12732e-07
1.09384e-07
-4.62617e-07
-5.01158e-08
2.28435e-07
-6.91051e-07
-1.1637e-06
1.39213e-06
-2.26209e-07
4.13621e-07
-4.29268e-07
4.18995e-07
-5.01471e-07
1.81587e-07
-3.61368e-07
-1.90219e-07
1.34199e-07
-1.18662e-06
-2.10684e-06
1.07735e-06
-2.24628e-07
6.3825e-07
-4.13528e-07
6.07895e-07
-4.81584e-07
2.49644e-07
-3.45741e-07
-3.26062e-07
1.24059e-08
-1.54477e-06
-2.71155e-06
6.17109e-07
-2.21164e-07
8.59414e-07
-3.992e-07
7.85931e-07
-4.78605e-07
3.29049e-07
-3.9337e-07
-4.11296e-07
-2.07075e-07
-1.73106e-06
-3.04537e-06
1.26748e-07
-2.1699e-07
1.0764e-06
-3.8934e-07
9.5828e-07
-4.90884e-07
4.30594e-07
-4.74836e-07
-4.27345e-07
-4.16508e-07
-1.78939e-06
-3.19097e-06
-2.70911e-07
-2.12003e-07
1.28841e-06
-3.82478e-07
1.12875e-06
-5.12541e-07
5.60657e-07
-5.70282e-07
-3.69605e-07
-6.19759e-07
-1.73991e-06
-3.17622e-06
-6.34506e-07
-2.07653e-07
1.49606e-06
-3.76325e-07
1.29743e-06
-5.36686e-07
7.21018e-07
-6.66172e-07
-2.40119e-07
-8.11518e-07
-1.59457e-06
-3.03089e-06
-9.56848e-07
-2.00778e-07
1.69684e-06
-3.68206e-07
1.46485e-06
-5.57073e-07
9.09885e-07
-7.5219e-07
-4.50012e-08
-9.80202e-07
-1.36655e-06
-2.79007e-06
-1.22102e-06
-1.83016e-07
1.87985e-06
-3.53261e-07
1.6351e-06
-5.67704e-07
1.12433e-06
-8.19846e-07
2.0714e-07
-1.11639e-06
-1.07001e-06
-2.48232e-06
-1.42414e-06
-1.58587e-07
2.03844e-06
-3.28483e-07
1.805e-06
-5.63256e-07
1.3591e-06
-8.62091e-07
5.05975e-07
-1.21336e-06
-7.18738e-07
-2.12875e-06
-1.56693e-06
-1.30097e-07
2.16854e-06
-2.9201e-07
1.96691e-06
-5.39186e-07
1.60628e-06
-8.72992e-07
8.39781e-07
-1.26517e-06
-3.2656e-07
-1.74796e-06
-1.64596e-06
-9.64901e-08
2.26503e-06
-2.42169e-07
2.11259e-06
-4.91732e-07
1.85584e-06
-8.4767e-07
1.19572e-06
-1.26769e-06
9.34551e-08
-1.35304e-06
-1.66261e-06
-5.63849e-08
2.32141e-06
-1.77702e-07
2.23391e-06
-4.17949e-07
2.09609e-06
-7.82071e-07
1.55984e-06
-1.21707e-06
5.2845e-07
-9.55797e-07
-1.6143e-06
-7.54649e-09
2.32896e-06
-9.8067e-08
2.32443e-06
-3.15824e-07
2.31384e-06
-6.72861e-07
1.91688e-06
-1.10986e-06
9.65451e-07
-5.65782e-07
-1.49988e-06
4.94904e-08
2.27947e-06
-4.53111e-09
2.37845e-06
-1.84463e-07
2.49377e-06
-5.17449e-07
2.24986e-06
-9.42818e-07
1.39082e-06
-1.90233e-07
-1.31837e-06
1.16257e-07
2.16321e-06
1.03403e-07
2.3913e-06
-2.43768e-08
2.62155e-06
-3.14135e-07
2.53962e-06
-7.12744e-07
1.78943e-06
1.66632e-07
-1.06961e-06
1.79561e-07
1.98365e-06
2.19508e-07
2.35135e-06
1.62442e-07
2.67862e-06
-6.24025e-08
2.76447e-06
-4.16891e-07
2.14392e-06
5.02924e-07
-7.53183e-07
2.27958e-07
1.75569e-06
3.39097e-07
2.24021e-06
3.71834e-07
2.64588e-06
2.36764e-07
2.89954e-06
-6.16668e-08
2.44235e-06
8.12638e-07
-3.71381e-07
2.66168e-07
1.48953e-06
4.57486e-07
2.0489e-06
5.97947e-07
2.50542e-06
5.81445e-07
2.91604e-06
3.78717e-07
2.64508e-06
1.09127e-06
1.00081e-07
2.95978e-07
1.19355e-06
5.69803e-07
1.77507e-06
8.32726e-07
2.2425e-06
9.66589e-07
2.78218e-06
8.97536e-07
2.71413e-06
1.33777e-06
6.51044e-07
3.15851e-07
8.77698e-07
6.70343e-07
1.42058e-06
1.06492e-06
1.84792e-06
1.3855e-06
2.4616e-06
1.50902e-06
2.5906e-06
1.48046e-06
1.36633e-06
3.24202e-07
5.53496e-07
7.52452e-07
9.92329e-07
1.27793e-06
1.32244e-06
1.82527e-06
1.91426e-06
2.23692e-06
2.17895e-06
1.37848e-06
2.3389e-06
3.16588e-07
2.36907e-07
8.05749e-07
5.03168e-07
1.44249e-06
6.85702e-07
2.2548e-06
1.10196e-06
3.08749e-06
1.34625e-06
8.924e-07
3.57357e-06
2.36907e-07
7.40076e-07
1.42578e-06
2.52773e-06
3.87399e-06
4.76639e-06
-9.54529e-07
-1.0959e-05
1.33057e-05
-1.10901e-06
-1.02178e-05
1.03723e-05
-1.19078e-07
-7.91635e-06
6.92642e-06
1.61373e-06
-5.52874e-06
3.79594e-06
3.91671e-06
-3.36898e-06
1.066e-06
6.63446e-06
-1.5562e-06
-1.16155e-06
9.63843e-06
-1.2268e-07
-2.88129e-06
1.28263e-05
9.28851e-07
-4.11672e-06
1.61177e-05
1.61692e-06
-4.90833e-06
1.94513e-05
1.97118e-06
-5.30475e-06
2.27843e-05
2.0263e-06
-5.35931e-06
2.609e-05
1.82061e-06
-5.12629e-06
2.93547e-05
1.39374e-06
-4.65845e-06
3.25754e-05
7.84108e-07
-4.00483e-06
3.57567e-05
2.85386e-08
-3.2098e-06
3.89083e-05
-8.38813e-07
-2.31288e-06
4.20444e-05
-1.78781e-06
-1.34821e-06
4.51798e-05
-2.79006e-06
-3.45358e-07
4.83301e-05
-3.82038e-06
6.70109e-07
5.15094e-05
-4.85527e-06
1.67598e-06
5.4734e-05
-5.87757e-06
2.6529e-06
5.80107e-05
-6.86294e-06
3.58625e-06
6.13551e-05
-7.82208e-06
4.47772e-06
-8.74155e-06
5.27381e-06
-2.28476e-07
-9.65319e-06
-7.36593e-07
-9.70967e-06
-2.04765e-07
-8.44818e-06
1.04592e-06
-6.77942e-06
2.85785e-06
-5.18092e-06
5.09088e-06
-3.78923e-06
7.62605e-06
-2.65785e-06
1.0364e-05
-1.80909e-06
1.3226e-05
-1.24503e-06
1.61503e-05
-9.53159e-07
1.90907e-05
-9.1413e-07
2.20151e-05
-1.10377e-06
2.49041e-05
-1.49524e-06
2.77487e-05
-2.06051e-06
3.05476e-05
-2.77033e-06
3.33067e-05
-3.59794e-06
3.60385e-05
-4.51962e-06
3.87597e-05
-5.51129e-06
4.14907e-05
-6.55132e-06
4.42542e-05
-7.61886e-06
4.70721e-05
-8.69539e-06
4.99662e-05
-9.75709e-06
5.29412e-05
-1.07971e-05
-1.18113e-05
-2.53168e-07
-8.78291e-06
-7.12818e-07
-9.25002e-06
-4.43612e-07
-8.71739e-06
4.32475e-07
-7.65551e-06
1.8078e-06
-6.55624e-06
3.56789e-06
-5.54933e-06
5.61284e-06
-4.7028e-06
7.85369e-06
-4.04994e-06
1.02145e-05
-3.60582e-06
1.26333e-05
-3.37201e-06
1.50619e-05
-3.3427e-06
1.7464e-05
-3.50584e-06
1.98154e-05
-3.84671e-06
2.21034e-05
-4.34843e-06
2.43252e-05
-4.99213e-06
2.64884e-05
-5.76118e-06
2.86084e-05
-6.63964e-06
3.07078e-05
-7.61069e-06
3.28151e-05
-8.65862e-06
3.49625e-05
-9.7662e-06
3.71798e-05
-1.09127e-05
3.94918e-05
-1.20692e-05
4.1896e-05
-1.32012e-05
-1.42631e-05
-5.1908e-07
-8.13708e-06
-8.95778e-07
-8.87332e-06
-7.83204e-07
-8.82996e-06
-1.81583e-07
-8.25713e-06
8.30828e-07
-7.56865e-06
2.17108e-06
-6.88957e-06
3.7575e-06
-6.28922e-06
5.51432e-06
-5.80676e-06
7.37352e-06
-5.46502e-06
9.27776e-06
-5.27625e-06
1.11802e-05
-5.24512e-06
1.30455e-05
-5.37111e-06
1.48497e-05
-5.65099e-06
1.65798e-05
-6.07852e-06
1.82345e-05
-6.64681e-06
1.98231e-05
-7.34978e-06
2.13641e-05
-8.1806e-06
2.28848e-05
-9.13139e-06
2.44194e-05
-1.01932e-05
2.6006e-05
-1.13528e-05
2.76822e-05
-1.25888e-05
2.94779e-05
-1.38649e-05
3.13933e-05
-1.51166e-05
-1.62343e-05
-8.40794e-07
-7.5672e-06
-1.17616e-06
-8.53796e-06
-1.15208e-06
-8.85404e-06
-7.37955e-07
-8.67125e-06
8.90001e-09
-8.31551e-06
1.0231e-06
-7.90377e-06
2.23881e-06
-7.50493e-06
3.59309e-06
-7.16105e-06
5.02924e-06
-6.90117e-06
6.49805e-06
-6.74506e-06
7.95838e-06
-6.70545e-06
9.37818e-06
-6.79091e-06
1.07354e-05
-7.0082e-06
1.20193e-05
-7.36246e-06
1.32299e-05
-7.85735e-06
1.43764e-05
-8.49635e-06
1.54775e-05
-9.28169e-06
1.6561e-05
-1.02149e-05
1.76618e-05
-1.1294e-05
1.88188e-05
-1.25098e-05
2.007e-05
-1.38401e-05
2.14466e-05
-1.52416e-05
2.29589e-05
-1.66289e-05
-1.78297e-05
-1.16167e-06
-7.04004e-06
-1.47478e-06
-8.22484e-06
-1.49365e-06
-8.83517e-06
-1.18944e-06
-8.97546e-06
-6.07737e-07
-8.89721e-06
1.96684e-07
-8.70819e-06
1.16879e-06
-8.47703e-06
2.25581e-06
-8.24807e-06
3.40975e-06
-8.05511e-06
4.59049e-06
-7.92579e-06
5.76673e-06
-7.8817e-06
6.9164e-06
-7.94057e-06
8.02559e-06
-8.11739e-06
9.08857e-06
-8.42544e-06
1.01082e-05
-8.87697e-06
1.10957e-05
-9.48389e-06
1.20691e-05
-1.0255e-05
1.30489e-05
-1.11947e-05
1.40579e-05
-1.23031e-05
1.51207e-05
-1.35726e-05
1.62609e-05
-1.49803e-05
1.74952e-05
-1.64759e-05
1.88163e-05
-1.79499e-05
-1.91792e-05
-1.45349e-06
-6.54339e-06
-1.74253e-06
-7.93581e-06
-1.7644e-06
-8.8133e-06
-1.50033e-06
-9.23953e-06
-9.89973e-07
-9.40757e-06
-2.80618e-07
-9.41755e-06
5.80939e-07
-9.33859e-06
1.55386e-06
-9.22099e-06
2.6018e-06
-9.10305e-06
3.69386e-06
-9.01785e-06
4.80497e-06
-8.9928e-06
5.917e-06
-9.0526e-06
7.01843e-06
-9.21883e-06
8.10363e-06
-9.51063e-06
9.17154e-06
-9.94488e-06
1.02234e-05
-1.05357e-05
1.12645e-05
-1.12962e-05
1.2306e-05
-1.22362e-05
1.33629e-05
-1.33599e-05
1.4453e-05
-1.46627e-05
1.55965e-05
-1.61238e-05
1.68119e-05
-1.76912e-05
1.81085e-05
-1.92465e-05
-2.05604e-05
-1.69732e-06
-6.0671e-06
-1.95018e-06
-7.68294e-06
-1.93535e-06
-8.82814e-06
-1.64647e-06
-9.52842e-06
-1.12091e-06
-9.93313e-06
-4.02352e-07
-1.01361e-05
4.6833e-07
-1.02093e-05
1.45568e-06
-1.02083e-05
2.52981e-06
-1.01772e-05
3.66857e-06
-1.01566e-05
4.85199e-06
-1.01762e-05
6.06577e-06
-1.02664e-05
7.29931e-06
-1.04524e-05
8.5459e-06
-1.07572e-05
9.80271e-06
-1.12017e-05
1.10705e-05
-1.18035e-05
1.23522e-05
-1.25779e-05
1.36533e-05
-1.35373e-05
1.49833e-05
-1.469e-05
1.63576e-05
-1.6037e-05
1.7799e-05
-1.75651e-05
1.93512e-05
-1.92435e-05
2.10299e-05
-2.09252e-05
-2.24082e-05
-1.8784e-06
-5.61284e-06
-2.07562e-06
-7.48572e-06
-1.98465e-06
-8.91911e-06
-1.60949e-06
-9.90358e-06
-9.90203e-07
-1.05524e-05
-1.69067e-07
-1.09572e-05
8.16385e-07
-1.11947e-05
1.93632e-06
-1.13283e-05
3.16848e-06
-1.14093e-05
4.49394e-06
-1.14821e-05
5.90032e-06
-1.15826e-05
7.37936e-06
-1.17454e-05
8.92461e-06
-1.19976e-05
1.05326e-05
-1.23653e-05
1.2202e-05
-1.2871e-05
1.39329e-05
-1.35344e-05
1.57265e-05
-1.43715e-05
1.75848e-05
-1.53956e-05
1.95112e-05
-1.66163e-05
2.1512e-05
-1.80378e-05
2.35968e-05
-1.96499e-05
2.57767e-05
-2.14234e-05
2.81153e-05
-2.32638e-05
-2.49437e-05
-1.99071e-06
-5.18906e-06
-2.10732e-06
-7.36911e-06
-1.89303e-06
-9.1334e-06
-1.36945e-06
-1.04272e-05
-5.82244e-07
-1.13396e-05
4.25232e-07
-1.19647e-05
1.61837e-06
-1.23879e-05
2.97155e-06
-1.26815e-05
4.46745e-06
-1.29053e-05
6.09424e-06
-1.31089e-05
7.84551e-06
-1.33339e-05
9.71683e-06
-1.36167e-05
1.17073e-05
-1.39881e-05
1.38168e-05
-1.44747e-05
1.60451e-05
-1.50993e-05
1.83923e-05
-1.58816e-05
2.0857e-05
-1.68362e-05
2.34353e-05
-1.79739e-05
2.61203e-05
-1.93013e-05
2.89009e-05
-2.08185e-05
3.17661e-05
-2.25152e-05
3.47117e-05
-2.43691e-05
3.77553e-05
-2.63074e-05
-2.81463e-05
-2.02355e-06
-4.81148e-06
-2.02769e-06
-7.36497e-06
-1.63888e-06
-9.52221e-06
-9.02094e-07
-1.11639e-05
1.25766e-07
-1.23675e-05
1.39665e-06
-1.32356e-05
2.87716e-06
-1.38684e-05
4.54499e-06
-1.43493e-05
6.38714e-06
-1.47474e-05
8.39702e-06
-1.51187e-05
1.05728e-05
-1.55097e-05
1.29153e-05
-1.59592e-05
1.54265e-05
-1.64993e-05
1.81079e-05
-1.71561e-05
2.09593e-05
-1.79508e-05
2.39783e-05
-1.89006e-05
2.71592e-05
-2.0017e-05
3.04908e-05
-2.13056e-05
3.39541e-05
-2.27646e-05
3.75217e-05
-2.4386e-05
4.11574e-05
-2.61509e-05
4.48254e-05
-2.80371e-05
4.84904e-05
-2.99724e-05
-3.18944e-05
-1.97619e-06
-4.4979e-06
-1.82244e-06
-7.51871e-06
-1.19838e-06
-1.01463e-05
-1.78644e-07
-1.21837e-05
1.16058e-06
-1.37067e-05
2.76554e-06
-1.48406e-05
4.6009e-06
-1.57037e-05
6.64706e-06
-1.63955e-05
8.895e-06
-1.69953e-05
1.13423e-05
-1.7566e-05
1.399e-05
-1.81574e-05
1.684e-05
-1.88092e-05
1.98937e-05
-1.9553e-05
2.31503e-05
-2.04127e-05
2.66062e-05
-2.14067e-05
3.02524e-05
-2.25467e-05
3.40733e-05
-2.3838e-05
3.80464e-05
-2.52786e-05
4.21401e-05
-2.68583e-05
4.63199e-05
-2.85658e-05
5.05398e-05
-3.03708e-05
5.47433e-05
-3.22406e-05
5.88593e-05
-3.40883e-05
-3.60563e-05
-1.83917e-06
-4.27303e-06
-1.47453e-06
-7.88336e-06
-5.4494e-07
-1.10759e-05
8.30129e-07
-1.35588e-05
2.55138e-06
-1.54279e-05
4.55502e-06
-1.68442e-05
6.80432e-06
-1.7953e-05
9.28013e-06
-1.88713e-05
1.19738e-05
-1.9689e-05
1.48814e-05
-2.04736e-05
1.8001e-05
-2.1277e-05
2.13308e-05
-2.21391e-05
2.48685e-05
-2.30907e-05
2.86093e-05
-2.41536e-05
3.25445e-05
-2.53419e-05
3.66584e-05
-2.66606e-05
4.09324e-05
-2.8112e-05
4.53399e-05
-2.96861e-05
4.98374e-05
-3.13559e-05
5.43932e-05
-3.31215e-05
5.89638e-05
-3.49414e-05
6.34945e-05
-3.67714e-05
6.79002e-05
-3.8494e-05
-4.02658e-05
-1.60514e-06
-4.16777e-06
-9.64415e-07
-8.52408e-06
3.50219e-07
-1.23905e-05
2.1561e-06
-1.53646e-05
4.32672e-06
-1.75986e-05
6.78327e-06
-1.93008e-05
9.4789e-06
-2.06486e-05
1.23885e-05
-2.17809e-05
1.55015e-05
-2.2802e-05
1.88149e-05
-2.3787e-05
2.23272e-05
-2.47892e-05
2.60364e-05
-2.58483e-05
2.99385e-05
-2.69929e-05
3.40239e-05
-2.82389e-05
3.82806e-05
-2.95986e-05
4.26789e-05
-3.10589e-05
4.71972e-05
-3.26303e-05
5.18038e-05
-3.42927e-05
5.64658e-05
-3.60178e-05
6.1071e-05
-3.77268e-05
6.54772e-05
-3.93476e-05
6.95382e-05
-4.08323e-05
7.32431e-05
-4.21989e-05
-4.35858e-05
-1.26613e-06
-4.22001e-06
-2.66663e-07
-9.52355e-06
1.51614e-06
-1.41733e-05
3.82479e-06
-1.76733e-05
6.48238e-06
-2.02561e-05
9.38511e-06
-2.22035e-05
1.24848e-05
-2.37483e-05
1.57664e-05
-2.50626e-05
1.9226e-05
-2.62615e-05
2.2861e-05
-2.7422e-05
2.66669e-05
-2.85951e-05
3.06352e-05
-2.98166e-05
3.4756e-05
-3.11137e-05
3.90074e-05
-3.24903e-05
4.33734e-05
-3.39647e-05
4.78309e-05
-3.55163e-05
5.22893e-05
-3.70887e-05
5.66021e-05
-3.86055e-05
6.0627e-05
-4.00428e-05
6.42756e-05
-4.13754e-05
6.75605e-05
-4.26325e-05
7.05204e-05
-4.37922e-05
7.32559e-05
-4.49344e-05
-4.59763e-05
-8.10489e-07
-4.47913e-06
6.45045e-07
-1.09791e-05
2.98042e-06
-1.65087e-05
5.81501e-06
-2.05079e-05
8.92434e-06
-2.33655e-05
1.22092e-05
-2.54883e-05
1.56385e-05
-2.71776e-05
1.92037e-05
-2.86277e-05
2.29004e-05
-2.99582e-05
2.67194e-05
-3.1241e-05
3.06488e-05
-3.25245e-05
3.46723e-05
-3.38401e-05
3.87798e-05
-3.52212e-05
4.29421e-05
-3.66525e-05
4.70441e-05
-3.80667e-05
5.09348e-05
-3.9407e-05
5.45085e-05
-4.06624e-05
5.77651e-05
-4.18621e-05
6.07358e-05
-4.30135e-05
6.34849e-05
-4.41245e-05
6.60488e-05
-4.51964e-05
6.84654e-05
-4.62088e-05
7.06568e-05
-4.71258e-05
-4.77998e-05
-2.12501e-07
-5.01981e-06
1.80861e-06
-1.30002e-05
4.73395e-06
-1.9434e-05
8.04944e-06
-2.38234e-05
1.1521e-05
-2.68371e-05
1.50717e-05
-2.9039e-05
1.86876e-05
-3.07935e-05
2.23663e-05
-3.23064e-05
2.60989e-05
-3.36908e-05
2.98688e-05
-3.5011e-05
3.36628e-05
-3.63185e-05
3.74687e-05
-3.7646e-05
4.11861e-05
-3.89386e-05
4.46784e-05
-4.01448e-05
4.78752e-05
-4.12635e-05
5.08085e-05
-4.23404e-05
5.35311e-05
-4.3385e-05
5.60874e-05
-4.44184e-05
5.85139e-05
-4.54399e-05
6.08187e-05
-4.64292e-05
6.29729e-05
-4.73506e-05
6.49273e-05
-4.81632e-05
6.65611e-05
-4.87596e-05
-4.91079e-05
5.55873e-07
-5.94706e-06
3.25605e-06
-1.57004e-05
6.73282e-06
-2.29108e-05
1.03969e-05
-2.74874e-05
1.40451e-05
-3.04853e-05
1.76549e-05
-3.26488e-05
2.12367e-05
-3.43753e-05
2.47892e-05
-3.58589e-05
2.82993e-05
-3.72009e-05
3.17537e-05
-3.84654e-05
3.51203e-05
-3.9685e-05
3.82965e-05
-4.08222e-05
4.12112e-05
-4.18533e-05
4.38951e-05
-4.28288e-05
4.64029e-05
-4.37713e-05
4.87772e-05
-4.47146e-05
5.10538e-05
-4.56616e-05
5.32277e-05
-4.65924e-05
5.52602e-05
-4.74724e-05
5.71058e-05
-4.82749e-05
5.87441e-05
-4.8989e-05
6.0176e-05
-4.95951e-05
6.14306e-05
-5.00142e-05
-5.00905e-05
1.55534e-06
-7.40232e-06
4.99021e-06
-1.91352e-05
8.8502e-06
-2.67708e-05
1.25985e-05
-3.12358e-05
1.61644e-05
-3.40512e-05
1.95935e-05
-3.60779e-05
2.2908e-05
-3.76897e-05
2.61059e-05
-3.90569e-05
2.91752e-05
-4.02703e-05
3.20949e-05
-4.13851e-05
3.48087e-05
-4.23988e-05
3.7298e-05
-4.33116e-05
3.96188e-05
-4.4174e-05
4.1812e-05
-4.5022e-05
4.39193e-05
-4.58787e-05
4.59402e-05
-4.67355e-05
4.78375e-05
-4.75589e-05
4.95782e-05
-4.8333e-05
5.11578e-05
-4.90521e-05
5.25881e-05
-4.97051e-05
5.38776e-05
-5.02786e-05
5.50277e-05
-5.07452e-05
5.60402e-05
-5.10266e-05
-5.09038e-05
2.86166e-06
-9.61294e-06
6.91434e-06
-2.31879e-05
1.08293e-05
-3.06857e-05
1.43488e-05
-3.47553e-05
1.76004e-05
-3.73028e-05
2.06616e-05
-3.91391e-05
2.35534e-05
-4.05816e-05
2.62754e-05
-4.17789e-05
2.88216e-05
-4.28165e-05
3.11731e-05
-4.37366e-05
3.33363e-05
-4.4562e-05
3.5362e-05
-4.53373e-05
3.72944e-05
-4.61065e-05
3.9153e-05
-4.68806e-05
4.09115e-05
-4.76371e-05
4.25393e-05
-4.83632e-05
4.40391e-05
-4.90587e-05
4.54243e-05
-4.97183e-05
4.67057e-05
-5.03334e-05
4.789e-05
-5.08894e-05
4.89744e-05
-5.1363e-05
4.99445e-05
-5.17153e-05
5.07816e-05
-5.18637e-05
-5.16184e-05
4.5171e-06
-1.27637e-05
8.79494e-06
-2.74657e-05
1.23854e-05
-3.42762e-05
1.54675e-05
-3.78374e-05
1.82801e-05
-4.01154e-05
2.08911e-05
-4.175e-05
2.33143e-05
-4.30048e-05
2.55548e-05
-4.40194e-05
2.76162e-05
-4.48778e-05
2.95125e-05
-4.56328e-05
3.12919e-05
-4.63414e-05
3.2988e-05
-4.70334e-05
3.45976e-05
-4.7716e-05
3.61017e-05
-4.83848e-05
3.75035e-05
-4.90389e-05
3.88174e-05
-4.96771e-05
4.00537e-05
-5.0295e-05
4.12184e-05
-5.0883e-05
4.23112e-05
-5.14262e-05
4.33266e-05
-5.19048e-05
4.4254e-05
-5.22905e-05
4.50813e-05
-5.25426e-05
4.58035e-05
-5.25859e-05
-5.22731e-05
6.44402e-06
-1.68688e-05
1.03859e-05
-3.14076e-05
1.33946e-05
-3.72849e-05
1.59657e-05
-4.04085e-05
1.83088e-05
-4.24585e-05
2.04632e-05
-4.39044e-05
2.24362e-05
-4.49778e-05
2.42402e-05
-4.58234e-05
2.5903e-05
-4.65407e-05
2.74567e-05
-4.71865e-05
2.89164e-05
-4.78011e-05
3.02904e-05
-4.84074e-05
3.15831e-05
-4.90087e-05
3.28051e-05
-4.96067e-05
3.3966e-05
-5.01998e-05
3.50707e-05
-5.07818e-05
3.61187e-05
-5.13431e-05
3.71067e-05
-5.18709e-05
3.80297e-05
-5.23492e-05
3.88823e-05
-5.27575e-05
3.96599e-05
-5.3068e-05
4.03606e-05
-5.32433e-05
4.09935e-05
-5.32189e-05
-5.28765e-05
8.49238e-06
-2.17876e-05
1.15684e-05
-3.44836e-05
1.3862e-05
-3.95786e-05
1.59279e-05
-4.24743e-05
1.78236e-05
-4.43542e-05
1.95486e-05
-4.56294e-05
2.11129e-05
-4.65422e-05
2.25432e-05
-4.72536e-05
2.38645e-05
-4.7862e-05
2.51014e-05
-4.84234e-05
2.62713e-05
-4.8971e-05
2.73823e-05
-4.95184e-05
2.84426e-05
-5.00691e-05
2.94565e-05
-5.06206e-05
3.04239e-05
-5.11672e-05
3.13428e-05
-5.17007e-05
3.22109e-05
-5.22112e-05
3.30257e-05
-5.26857e-05
3.3785e-05
-5.31085e-05
3.44867e-05
-5.34591e-05
3.51302e-05
-5.37115e-05
3.57185e-05
-5.38316e-05
3.62652e-05
-5.37655e-05
-5.34186e-05
1.04933e-05
-2.75145e-05
1.2213e-05
-3.62034e-05
1.38174e-05
-4.1183e-05
1.54321e-05
-4.4089e-05
1.69237e-05
-4.58457e-05
1.82648e-05
-4.69706e-05
1.94748e-05
-4.77522e-05
2.0582e-05
-4.83608e-05
2.16132e-05
-4.88932e-05
2.25897e-05
-4.93999e-05
2.35229e-05
-4.99042e-05
2.44184e-05
-5.04139e-05
2.52776e-05
-5.09283e-05
2.60995e-05
-5.14425e-05
2.68823e-05
-5.195e-05
2.76241e-05
-5.24425e-05
2.8323e-05
-5.29101e-05
2.89776e-05
-5.33403e-05
2.95867e-05
-5.37176e-05
3.01499e-05
-5.40224e-05
3.06696e-05
-5.42311e-05
3.11517e-05
-5.43138e-05
3.16115e-05
-5.42254e-05
-5.38929e-05
-6.57256e-07
6.57256e-07
-1.24997e-06
5.92716e-07
-1.09688e-06
-1.53091e-07
1.57183e-07
-1.25406e-06
3.48849e-06
-3.3313e-06
-6.13246e-06
9.62094e-06
-7.44356e-07
1.40161e-06
-1.06605e-06
9.14415e-07
-6.21388e-07
-5.97758e-07
8.48317e-07
-2.72377e-06
3.55452e-06
-6.0375e-06
-1.06358e-05
8.05785e-06
-7.05086e-07
2.1067e-06
-8.43842e-07
1.05317e-06
-2.58658e-07
-1.18294e-06
1.24706e-06
-4.22948e-06
3.72515e-06
-8.5156e-06
-1.40572e-05
7.14657e-06
-6.35084e-07
2.74178e-06
-6.5922e-07
1.07731e-06
-1.65282e-08
-1.82563e-06
1.41681e-06
-5.66282e-06
3.6337e-06
-1.07325e-05
-1.67775e-05
6.35398e-06
-5.55742e-07
3.29752e-06
-5.12937e-07
1.0345e-06
1.13647e-07
-2.45222e-06
1.42048e-06
-6.96965e-06
3.34106e-06
-1.26531e-05
-1.89855e-05
5.54911e-06
-4.74792e-07
3.77232e-06
-4.00694e-07
9.60403e-07
1.69823e-07
-3.02273e-06
1.30669e-06
-8.10652e-06
2.93144e-06
-1.42778e-05
-2.07788e-05
4.72468e-06
-3.96404e-07
4.16872e-06
-3.18002e-07
8.82e-07
1.6497e-07
-3.5057e-06
1.10855e-06
-9.0501e-06
2.45117e-06
-1.56204e-05
-2.22169e-05
3.88931e-06
-3.22343e-07
4.49106e-06
-2.59816e-07
8.19474e-07
1.12766e-07
-3.87829e-06
8.49741e-07
-9.78707e-06
1.92127e-06
-1.6692e-05
-2.33403e-05
3.04469e-06
-2.52737e-07
4.7438e-06
-2.20391e-07
7.87128e-07
2.73447e-08
-4.12602e-06
5.48335e-07
-1.03081e-05
1.35575e-06
-1.74994e-05
-2.41766e-05
2.19196e-06
-1.86601e-07
4.9304e-06
-1.93447e-07
7.93975e-07
-8.26835e-08
-4.23679e-06
2.19395e-07
-1.06101e-05
7.66116e-07
-1.80461e-05
-2.47445e-05
1.33404e-06
-1.2225e-07
5.05265e-06
-1.72214e-07
8.43939e-07
-2.01581e-07
-4.20742e-06
-1.23375e-07
-1.06883e-05
1.63637e-07
-1.83331e-05
-2.50611e-05
4.80289e-07
-5.75627e-08
5.11021e-06
-1.49865e-07
9.36241e-07
-3.18667e-07
-4.03862e-06
-4.67576e-07
-1.05394e-05
-4.40125e-07
-1.83606e-05
-2.51372e-05
-3.64091e-07
9.7301e-09
5.10048e-06
-1.19638e-07
1.06561e-06
-4.2231e-07
-3.73594e-06
-7.98943e-07
-1.01628e-05
-1.03252e-06
-1.8127e-05
-2.49832e-05
-1.18653e-06
8.07634e-08
5.01972e-06
-7.50096e-08
1.22138e-06
-5.00334e-07
-3.31062e-06
-1.10309e-06
-9.56005e-06
-1.60232e-06
-1.76278e-05
-2.46017e-05
-1.98378e-06
1.57391e-07
4.86233e-06
-1.06902e-08
1.38946e-06
-5.40267e-07
-2.78104e-06
-1.36351e-06
-8.73681e-06
-2.13666e-06
-1.68546e-05
-2.39952e-05
-2.74313e-06
2.40809e-07
4.62152e-06
8.03226e-08
1.54995e-06
-5.29484e-07
-2.17124e-06
-1.5617e-06
-7.7046e-06
-2.61863e-06
-1.57977e-05
-2.31592e-05
-3.45464e-06
3.31391e-07
4.29013e-06
1.99399e-07
1.68194e-06
-4.56022e-07
-1.51582e-06
-1.67657e-06
-6.48405e-06
-3.02614e-06
-1.44481e-05
-2.20772e-05
-4.10818e-06
4.29194e-07
3.86093e-06
3.48044e-07
1.76309e-06
-3.09757e-07
-8.58016e-07
-1.68386e-06
-5.10995e-06
-3.32996e-06
-1.2802e-05
-2.07138e-05
-4.69328e-06
5.33377e-07
3.32756e-06
5.2335e-07
1.77312e-06
-8.81019e-08
-2.46564e-07
-1.55477e-06
-3.64328e-06
-3.49051e-06
-1.08663e-05
-1.90071e-05
-5.19724e-06
6.40577e-07
2.68698e-06
7.14841e-07
1.69886e-06
2.17324e-07
2.50954e-07
-1.25454e-06
-2.17142e-06
-3.4561e-06
-8.66472e-06
-1.68628e-05
-5.60039e-06
6.96222e-07
1.99076e-06
9.01084e-07
1.49399e-06
5.90034e-07
5.62004e-07
-7.42765e-07
-8.38619e-07
-3.15372e-06
-6.25376e-06
-1.41594e-05
-5.85713e-06
7.26664e-07
1.26409e-06
1.07608e-06
1.14457e-06
9.99621e-07
6.38467e-07
5.65145e-08
1.04488e-07
-2.46954e-06
-3.7277e-06
-1.07376e-05
-5.89131e-06
7.28902e-07
5.35192e-07
1.22369e-06
6.49783e-07
1.39668e-06
4.65484e-07
1.02891e-06
4.72255e-07
-1.23792e-06
-1.46087e-06
-6.16711e-06
-5.80845e-06
5.35192e-07
1.18497e-06
1.65046e-06
2.12271e-06
6.61845e-07
-5.50526e-06
1.04255e-05
-2.83191e-05
1.18942e-05
-3.76721e-05
1.32806e-05
-4.25694e-05
1.45578e-05
-4.53662e-05
1.56995e-05
-4.69874e-05
1.67089e-05
-4.79799e-05
1.7616e-05
-4.86593e-05
1.84524e-05
-4.91972e-05
1.92411e-05
-4.96818e-05
1.99959e-05
-5.01548e-05
2.07235e-05
-5.06318e-05
2.14249e-05
-5.11153e-05
2.20987e-05
-5.1602e-05
2.27423e-05
-5.20862e-05
2.33533e-05
-5.2561e-05
2.39293e-05
-5.30186e-05
2.44687e-05
-5.34495e-05
2.49706e-05
-5.38422e-05
2.54353e-05
-5.41823e-05
2.58648e-05
-5.44518e-05
2.62634e-05
-5.46297e-05
2.66394e-05
-5.46898e-05
2.70096e-05
-5.45955e-05
-5.42923e-05
9.79461e-06
-3.00558e-05
1.12127e-05
-3.90902e-05
1.24122e-05
-4.37689e-05
1.34038e-05
-4.63579e-05
1.42388e-05
-4.78224e-05
1.49621e-05
-4.87032e-05
1.56117e-05
-4.9309e-05
1.62163e-05
-4.98017e-05
1.67933e-05
-5.02589e-05
1.73513e-05
-5.07128e-05
1.78923e-05
-5.11728e-05
1.84149e-05
-5.16379e-05
1.89159e-05
-5.2103e-05
1.93919e-05
-5.25622e-05
1.98399e-05
-5.30089e-05
2.02574e-05
-5.34361e-05
2.06433e-05
-5.38355e-05
2.09978e-05
-5.41968e-05
2.13227e-05
-5.45071e-05
2.16216e-05
-5.47507e-05
2.19007e-05
-5.49089e-05
2.21696e-05
-5.49587e-05
2.24454e-05
-5.48713e-05
-5.46085e-05
9.11122e-06
-3.20205e-05
1.03646e-05
-4.03435e-05
1.13144e-05
-4.47187e-05
1.20347e-05
-4.70782e-05
1.26048e-05
-4.83925e-05
1.30844e-05
-4.91828e-05
1.35127e-05
-4.97373e-05
1.39141e-05
-5.02031e-05
1.43014e-05
-5.06462e-05
1.46791e-05
-5.10905e-05
1.50465e-05
-5.15402e-05
1.54003e-05
-5.19917e-05
1.57368e-05
-5.24395e-05
1.60521e-05
-5.28775e-05
1.63433e-05
-5.33e-05
1.66082e-05
-5.3701e-05
1.68461e-05
-5.40734e-05
1.70578e-05
-5.44085e-05
1.72463e-05
-5.46956e-05
1.74167e-05
-5.49211e-05
1.75762e-05
-5.50683e-05
1.7735e-05
-5.51175e-05
1.79109e-05
-5.50472e-05
-5.48343e-05
8.22206e-06
-3.38885e-05
9.31033e-06
-4.14318e-05
1.00236e-05
-4.5432e-05
1.05083e-05
-4.75629e-05
1.08534e-05
-4.87376e-05
1.1123e-05
-4.94523e-05
1.13561e-05
-4.99704e-05
1.15742e-05
-5.04212e-05
1.17867e-05
-5.08587e-05
1.19951e-05
-5.12989e-05
1.21971e-05
-5.17422e-05
1.2389e-05
-5.21836e-05
1.25668e-05
-5.26173e-05
1.27271e-05
-5.30377e-05
1.28669e-05
-5.34399e-05
1.29845e-05
-5.38186e-05
1.30793e-05
-5.41681e-05
1.31525e-05
-5.44817e-05
1.32076e-05
-5.47507e-05
1.32504e-05
-5.49639e-05
1.32889e-05
-5.51068e-05
1.33337e-05
-5.51623e-05
1.34038e-05
-5.51173e-05
-5.49639e-05
7.20731e-06
-3.55467e-05
8.10881e-06
-4.23333e-05
8.61003e-06
-4.59332e-05
8.88416e-06
-4.7837e-05
9.03042e-06
-4.88839e-05
9.11274e-06
-4.95346e-05
9.16873e-06
-5.00264e-05
9.21709e-06
-5.04696e-05
9.26441e-06
-5.0906e-05
9.31064e-06
-5.13451e-05
9.35287e-06
-5.17844e-05
9.38749e-06
-5.22182e-05
9.41103e-06
-5.26408e-05
9.42053e-06
-5.30472e-05
9.41363e-06
-5.3433e-05
9.38877e-06
-5.37937e-05
9.3455e-06
-5.41249e-05
9.28494e-06
-5.44212e-05
9.21034e-06
-5.46761e-05
9.12739e-06
-5.4881e-05
9.04361e-06
-5.5023e-05
8.96838e-06
-5.50871e-05
8.92266e-06
-5.50716e-05
-5.49952e-05
6.13445e-06
-3.69565e-05
6.82098e-06
-4.30198e-05
7.12098e-06
-4.62332e-05
7.20319e-06
-4.79192e-05
7.16895e-06
-4.88497e-05
7.07988e-06
-4.94456e-05
6.97094e-06
-4.99174e-05
6.85827e-06
-5.03569e-05
6.74665e-06
-5.07944e-05
6.63527e-06
-5.12338e-05
6.52133e-06
-5.16705e-05
6.40181e-06
-5.20987e-05
6.27404e-06
-5.2513e-05
6.13589e-06
-5.29091e-05
5.98576e-06
-5.32828e-05
5.82265e-06
-5.36306e-05
5.64637e-06
-5.39486e-05
5.45785e-06
-5.42327e-05
5.25967e-06
-5.4478e-05
5.0567e-06
-5.4678e-05
4.85541e-06
-5.48217e-05
4.65609e-06
-5.48877e-05
4.44489e-06
-5.48604e-05
-5.49488e-05
5.01701e-06
-3.80842e-05
5.48445e-06
-4.34872e-05
5.59258e-06
-4.63413e-05
5.49686e-06
-4.78235e-05
5.29468e-06
-4.86475e-05
5.04468e-06
-4.91956e-05
4.77872e-06
-4.96515e-05
4.51066e-06
-5.00889e-05
4.2441e-06
-5.05278e-05
3.97808e-06
-5.09677e-05
3.71031e-06
-5.14027e-05
3.43856e-06
-5.18269e-05
3.16111e-06
-5.22356e-05
2.87677e-06
-5.26247e-05
2.58493e-06
-5.2991e-05
2.28552e-06
-5.33312e-05
1.97919e-06
-5.36423e-05
1.66752e-06
-5.3921e-05
1.35321e-06
-5.41636e-05
1.04067e-06
-5.43655e-05
7.40626e-07
-5.45217e-05
4.86905e-07
-5.4634e-05
3.32685e-07
-5.47062e-05
-5.45423e-05
3.87807e-06
-3.89176e-05
4.12812e-06
-4.37373e-05
4.05182e-06
-4.6265e-05
3.78825e-06
-4.75599e-05
3.42709e-06
-4.82863e-05
3.0232e-06
-4.87917e-05
2.6054e-06
-4.92337e-05
2.18564e-06
-4.96691e-05
1.76686e-06
-5.0109e-05
1.34832e-06
-5.05492e-05
9.28341e-07
-5.09828e-05
5.05505e-07
-5.14041e-05
7.88834e-08
-5.1809e-05
-3.51905e-07
-5.21939e-05
-7.86731e-07
-5.25562e-05
-1.22495e-06
-5.2893e-05
-1.66537e-06
-5.32019e-05
-2.10615e-06
-5.34802e-05
-2.54465e-06
-5.37251e-05
-2.97642e-06
-5.39337e-05
-3.39374e-06
-5.41044e-05
-3.79283e-06
-5.42349e-05
-4.20339e-06
-5.42956e-05
-5.42439e-05
2.73436e-06
-3.946e-05
2.77189e-06
-4.37748e-05
2.51958e-06
-4.60127e-05
2.0956e-06
-4.7136e-05
1.58172e-06
-4.77724e-05
1.02874e-06
-4.82387e-05
4.62617e-07
-4.86676e-05
-1.06171e-07
-4.91003e-05
-6.7499e-07
-4.95402e-05
-1.24422e-06
-4.998e-05
-1.81487e-06
-5.04121e-05
-2.3877e-06
-5.08313e-05
-2.96305e-06
-5.12336e-05
-3.54082e-06
-5.16162e-05
-4.12055e-06
-5.19764e-05
-4.70139e-06
-5.23121e-05
-5.28217e-06
-5.26211e-05
-5.86128e-06
-5.29011e-05
-6.43651e-06
-5.31499e-05
-7.0049e-06
-5.33653e-05
-7.56396e-06
-5.35453e-05
-8.11469e-06
-5.36842e-05
-8.64806e-06
-5.37623e-05
-5.38021e-05
1.59914e-06
-3.97251e-05
1.43256e-06
-4.36082e-05
1.01199e-06
-4.55921e-05
4.33513e-07
-4.65575e-05
-2.2855e-07
-4.71104e-05
-9.27254e-07
-4.754e-05
-1.63902e-06
-4.79558e-05
-2.35456e-06
-4.83848e-05
-3.07131e-06
-4.88235e-05
-3.7892e-06
-4.92621e-05
-4.50861e-06
-4.96927e-05
-5.22972e-06
-5.01102e-05
-5.95242e-06
-5.05109e-05
-6.67629e-06
-5.08923e-05
-7.40066e-06
-5.12521e-05
-8.12467e-06
-5.15881e-05
-8.84717e-06
-5.18986e-05
-9.56663e-06
-5.21816e-05
-1.0281e-05
-5.24355e-05
-1.09878e-05
-5.26585e-05
-1.16842e-05
-5.28489e-05
-1.23663e-05
-5.30021e-05
-1.30211e-05
-5.31075e-05
-5.32138e-05
4.84372e-07
-3.97292e-05
1.24673e-07
-4.32486e-05
-4.58045e-07
-4.50094e-05
-1.18644e-06
-4.58291e-05
-1.99302e-06
-4.63038e-05
-2.83453e-06
-4.66985e-05
-3.68954e-06
-4.71008e-05
-4.54958e-06
-4.75247e-05
-5.41196e-06
-4.79611e-05
-6.27609e-06
-4.83979e-05
-7.14177e-06
-4.8827e-05
-8.00867e-06
-4.92433e-05
-8.87625e-06
-4.96433e-05
-9.74382e-06
-5.00247e-05
-1.06105e-05
-5.03854e-05
-1.14754e-05
-5.07233e-05
-1.23371e-05
-5.10368e-05
-1.31942e-05
-5.13246e-05
-1.40443e-05
-5.15854e-05
-1.48847e-05
-5.18181e-05
-1.5712e-05
-5.20217e-05
-1.6521e-05
-5.2193e-05
-1.73015e-05
-5.23271e-05
-5.24884e-05
-6.05198e-07
-3.94881e-05
-1.14433e-06
-4.27094e-05
-1.88073e-06
-4.4273e-05
-2.754e-06
-4.49558e-05
-3.7018e-06
-4.5356e-05
-4.68358e-06
-4.57167e-05
-5.67948e-06
-4.61049e-05
-6.68157e-06
-4.65226e-05
-7.68694e-06
-4.69557e-05
-8.69445e-06
-4.73904e-05
-9.70336e-06
-4.78181e-05
-1.07129e-05
-4.82338e-05
-1.1722e-05
-4.86342e-05
-1.27299e-05
-4.90169e-05
-1.37354e-05
-4.93798e-05
-1.47375e-05
-4.97212e-05
-1.57348e-05
-5.00396e-05
-1.67255e-05
-5.03339e-05
-1.77074e-05
-5.06035e-05
-1.86774e-05
-5.08481e-05
-1.96317e-05
-5.10673e-05
-2.05654e-05
-5.12594e-05
-2.14697e-05
-5.14227e-05
-5.16329e-05
-1.65371e-06
-3.90209e-05
-2.36084e-06
-4.20023e-05
-3.24572e-06
-4.33881e-05
-4.26012e-06
-4.39414e-05
-5.34609e-06
-4.427e-05
-6.46551e-06
-4.45973e-05
-7.59979e-06
-4.49706e-05
-8.74123e-06
-4.53812e-05
-9.88656e-06
-4.58104e-05
-1.10342e-05
-4.62428e-05
-1.21828e-05
-4.66695e-05
-1.33311e-05
-4.70854e-05
-1.4478e-05
-4.74873e-05
-1.56222e-05
-4.78727e-05
-1.67625e-05
-4.82395e-05
-1.78976e-05
-4.85861e-05
-1.90261e-05
-4.89111e-05
-2.01462e-05
-4.92138e-05
-2.12555e-05
-4.94942e-05
-2.23509e-05
-4.97527e-05
-2.34286e-05
-4.99895e-05
-2.44839e-05
-5.02041e-05
-2.55094e-05
-5.03972e-05
-5.06519e-05
-2.65467e-06
-3.835e-05
-3.51745e-06
-4.11395e-05
-4.54502e-06
-4.23605e-05
-5.69659e-06
-4.27899e-05
-6.91772e-06
-4.30489e-05
-8.17206e-06
-4.3343e-05
-9.44194e-06
-4.37007e-05
-1.07196e-05
-4.41035e-05
-1.20015e-05
-4.45285e-05
-1.32855e-05
-4.49588e-05
-1.45699e-05
-4.53852e-05
-1.5853e-05