/*--------------------------------*- C++ -*----------------------------------*\
  =========                 |
  \\      /  F ield         | OpenFOAM: The Open Source CFD Toolbox
   \\    /   O peration     | Website:  https://openfoam.org
    \\  /    A nd           | Version:  11
     \\/     M anipulation  |
\*---------------------------------------------------------------------------*/
FoamFile
{
    format      ascii;
    class       volVectorField;
    location    "0.44";
    object      U;
}
// * * * * * * * * * * * * * * * * * * * * * * * * * * * * * * * * * * * * * //

dimensions      [0 1 -1 0 0 0 0];

internalField   nonuniform List<vector> 
2880
(
(-0.00627042 0.0466327 0)
(-0.0314868 0.0755331 -2.56669e-19)
(-0.0420351 0.093093 0)
(-0.0133051 0.0944673 0)
(-0.0353781 0.100069 0)
(0.156269 0.0312449 -7.6801e-20)
(-0.0160966 0.0595977 -3.12306e-19)
(-0.0402814 0.0825648 -3.01723e-20)
(-0.0472535 0.0930369 3.33291e-20)
(-0.0197941 0.0903863 -1.77728e-20)
(-0.022734 0.0693421 -2.54437e-20)
(0.0923571 0.0228422 9.36055e-20)
(-0.0202986 0.0666652 5.76409e-19)
(-0.0418439 0.0866058 2.39551e-19)
(-0.0494075 0.0917219 -1.07595e-20)
(-0.0275341 0.0832605 -1.46912e-19)
(-0.0231695 0.0522909 1.36176e-20)
(0.0471469 0.00931868 -2.35434e-20)
(-0.0241132 0.0732716 -2.70488e-19)
(-0.0441855 0.0904101 1.29311e-20)
(-0.0524992 0.0908344 -1.00946e-20)
(-0.0371511 0.0774058 1.07467e-19)
(-0.0313703 0.0407968 1.31351e-20)
(0.0112943 -0.000374371 6.52455e-20)
(-0.0281585 0.0806689 2.02925e-21)
(-0.0475034 0.0941121 0)
(-0.0569066 0.0906739 0)
(-0.0477979 0.0732336 0)
(-0.043373 0.03451 -2.57325e-20)
(-0.0192514 -0.00649436 -4.11186e-20)
(-0.032956 0.087621 -1.60707e-20)
(-0.0515958 0.0976422 0)
(-0.0624033 0.0913408 0)
(-0.0589233 0.0709022 7.47283e-21)
(-0.0573341 0.0317048 2.50221e-20)
(-0.0456169 -0.00963466 -5.40464e-21)
(-0.0387647 0.0929068 1.58632e-20)
(-0.0564215 0.100892 -9.47912e-20)
(-0.0685538 0.0928588 0)
(-0.0701296 0.0703567 5.2052e-20)
(-0.0719148 0.0313073 -5.06882e-20)
(-0.0682764 -0.010286 -3.83257e-20)
(-0.0443568 0.0980223 2.46082e-21)
(-0.0617084 0.103845 9.33026e-20)
(-0.074975 0.0951615 0)
(-0.0810425 0.0714706 -5.82877e-20)
(-0.0861324 0.0327641 5.00624e-20)
(-0.0875124 -0.00905736 4.33582e-20)
(-0.0479922 0.104763 1.06435e-20)
(-0.066546 0.106826 -1.75045e-20)
(-0.081234 0.0982477 8.97739e-21)
(-0.0912978 0.0741331 0)
(-0.0993337 0.0357916 0)
(-0.103566 -0.00647604 0)
(-0.0512135 0.109211 -3.45804e-19)
(-0.0705857 0.109985 0)
(-0.0869561 0.102164 0)
(-0.100562 0.0782851 0)
(-0.11107 0.0402648 0)
(-0.11662 -0.00291902 0)
(-0.0547609 0.112424 3.4569e-19)
(-0.0737658 0.113379 0)
(-0.0918269 0.106964 0)
(-0.108542 0.083923 3.03746e-20)
(-0.121002 0.0461932 -2.42742e-19)
(-0.126666 0.00159141 -4.62227e-20)
(-0.0581701 0.11493 0)
(-0.0759537 0.116978 0)
(-0.0955694 0.112693 -2.95878e-19)
(-0.114993 0.0910899 0)
(-0.128901 0.0536871 2.17111e-19)
(-0.133733 0.00718642 1.97758e-19)
(-0.0607091 0.116637 0)
(-0.0770019 0.120764 -3.85333e-19)
(-0.0979485 0.11939 5.98034e-19)
(-0.119714 0.0998649 0)
(-0.134598 0.0629541 0)
(-0.137834 0.0141337 -1.50101e-19)
(-0.0613909 0.117821 1.08368e-20)
(-0.0768394 0.124761 8.02662e-19)
(-0.0987827 0.127067 -3.22179e-19)
(-0.122545 0.110339 -2.67655e-19)
(-0.137967 0.0742781 5.87048e-20)
(-0.139013 0.0228011 -5.34797e-20)
(-0.059689 0.118863 0)
(-0.0755203 0.128989 -3.94216e-19)
(-0.0979554 0.135676 3.54353e-19)
(-0.123367 0.122585 2.71173e-19)
(-0.138903 0.0880041 2.19311e-19)
(-0.137403 0.0336593 -2.28216e-19)
(-0.0546828 0.120068 -1.03556e-20)
(-0.0732683 0.133367 4.29178e-19)
(-0.0954386 0.14508 -3.79669e-19)
(-0.122093 0.136607 3.21555e-19)
(-0.137311 0.104526 -2.53753e-19)
(-0.13327 0.0472617 1.73828e-19)
(-0.0493348 0.118667 1.81639e-20)
(-0.0703514 0.137388 -3.6068e-20)
(-0.0912576 0.15497 6.23806e-20)
(-0.118667 0.152288 -2.99767e-20)
(-0.133106 0.124301 0)
(-0.126999 0.0641938 0)
(-0.0469346 0.113547 3.445e-20)
(-0.0668922 0.140269 -4.1651e-19)
(-0.0853909 0.164827 -6.4629e-20)
(-0.113018 0.169336 -2.65872e-19)
(-0.126308 0.147874 -7.17577e-20)
(-0.119191 0.0848598 6.56933e-20)
(-0.0450697 0.10601 0)
(-0.0626218 0.141338 2.75006e-20)
(-0.0777231 0.174042 -2.16822e-20)
(-0.104961 0.187246 0)
(-0.11678 0.175438 7.585e-20)
(-0.110722 0.109872 2.22036e-19)
(-0.0421402 0.096711 8.83817e-21)
(-0.0572456 0.140191 0)
(-0.0680846 0.181961 4.78273e-20)
(-0.0942423 0.20512 -4.05273e-20)
(-0.103861 0.206984 0)
(-0.102 0.139575 -2.23392e-19)
(-0.0380575 0.0861046 0)
(-0.0506728 0.13662 -4.69997e-19)
(-0.0564171 0.187945 3.39964e-19)
(-0.0805553 0.221641 -2.91788e-21)
(-0.0862769 0.243084 -2.9037e-19)
(-0.0922144 0.17383 -3.33227e-19)
(-0.0348127 0.0755309 0)
(-0.0431984 0.130721 1.00511e-18)
(-0.0431066 0.191479 -6.00032e-22)
(-0.0640878 0.234952 3.73182e-19)
(-0.0620106 0.284264 -6.17443e-21)
(-0.0773445 0.212083 4.19131e-19)
(-0.0317036 0.0635681 0)
(-0.0350055 0.121903 -1.7317e-21)
(-0.0289883 0.191467 -1.06436e-21)
(-0.0466031 0.241606 -4.49138e-19)
(-0.0291107 0.330981 7.75664e-19)
(-0.052707 0.251976 -8.19369e-20)
(-0.027467 0.0400666 2.4536e-20)
(-0.0286002 0.0964525 -1.84516e-20)
(-0.0147805 0.174324 -4.73882e-19)
(-0.0253684 0.220177 5.52511e-20)
(0.0184332 0.373025 -4.47564e-20)
(-0.0291551 0.272844 4.8043e-19)
(-0.0868638 -0.215831 -2.15046e-19)
(-0.138968 -0.118141 6.49445e-20)
(-0.0549027 -0.0331326 1.01412e-19)
(0.0472375 0.0416513 -8.93993e-20)
(0.162072 0.101381 7.18065e-20)
(0.275627 0.147932 2.25035e-20)
(0.38272 0.182574 -4.95473e-20)
(0.480203 0.206779 3.72888e-20)
(0.566865 0.22198 -2.59373e-20)
(0.642432 0.229519 4.59546e-20)
(0.707346 0.230622 1.72635e-20)
(0.762509 0.226428 -3.46414e-20)
(0.809065 0.217999 2.0666e-20)
(0.848257 0.206285 6.47683e-21)
(0.881323 0.192136 -7.82079e-21)
(0.909452 0.176306 -2.79108e-21)
(0.933713 0.159458 2.16274e-21)
(0.955094 0.142177 -2.56027e-21)
(0.974357 0.125015 2.21179e-21)
(0.992446 0.108387 -5.44651e-21)
(1.00922 0.0929089 -1.60782e-21)
(1.02749 0.0782674 8.16022e-21)
(1.04116 0.0663747 3.69012e-22)
(1.07131 0.0504708 -2.51128e-21)
(-0.0155059 -0.180056 -3.73912e-20)
(-0.092876 -0.123095 3.24626e-20)
(-0.0508027 -0.0586449 4.31554e-20)
(0.0167781 0.0068861 3.74966e-20)
(0.103542 0.0624779 0)
(0.194489 0.108426 0)
(0.283784 0.144947 -4.0366e-20)
(0.367575 0.172656 3.7385e-21)
(0.443782 0.192395 2.4831e-20)
(0.511603 0.205032 -2.41031e-20)
(0.570889 0.211459 -1.586e-20)
(0.62199 0.212552 -8.96671e-21)
(0.665582 0.209154 1.9695e-20)
(0.702526 0.202053 5.68786e-21)
(0.733737 0.192021 7.0597e-21)
(0.760185 0.179765 1.74216e-21)
(0.782769 0.165888 9.27538e-22)
(0.802394 0.150953 2.41709e-21)
(0.819879 0.135468 -1.89353e-21)
(0.836068 0.119891 -5.1996e-21)
(0.851408 0.104622 1.29172e-20)
(0.86723 0.0900632 2.06427e-21)
(0.882184 0.0764733 -2.6986e-21)
(0.903637 0.0613147 -4.49072e-21)
(-0.0072963 -0.140328 4.98304e-20)
(-0.073854 -0.114479 8.30637e-20)
(-0.053444 -0.071343 -1.00959e-19)
(-0.00957463 -0.0181568 -8.19325e-20)
(0.0537505 0.0305044 0)
(0.12406 0.0734143 0)
(0.195511 0.109717 4.08007e-20)
(0.264314 0.139354 3.3821e-20)
(0.328062 0.162492 2.56987e-20)
(0.385496 0.179587 -2.07126e-20)
(0.436081 0.191122 -1.3684e-20)
(0.479785 0.197655 1.50586e-21)
(0.516911 0.199772 8.48378e-21)
(0.548007 0.198048 -1.15386e-20)
(0.573797 0.193093 2.0237e-21)
(0.595094 0.185385 -4.84839e-21)
(0.61276 0.175335 -1.25211e-21)
(0.627671 0.163424 -1.5368e-21)
(0.640699 0.150052 1.38871e-21)
(0.652693 0.135626 2.41746e-22)
(0.664394 0.120599 -1.52661e-21)
(0.676545 0.10558 -1.32001e-21)
(0.68933 0.0910802 1.30079e-21)
(0.702013 0.0779661 -1.81578e-21)
(-0.0218803 -0.114391 -1.49579e-20)
(-0.0713515 -0.104891 -1.12753e-19)
(-0.0622777 -0.0775494 -2.21088e-20)
(-0.0332239 -0.0366897 5.74779e-20)
(0.0124821 0.00426808 0)
(0.0655209 0.0428072 4.7383e-20)
(0.120933 0.0775243 -6.20252e-20)
(0.175287 0.107755 1.54691e-20)
(0.22632 0.133247 -3.78142e-20)
(0.272652 0.153954 -1.85976e-20)
(0.313572 0.16998 2.38574e-20)
(0.34883 0.181554 -5.68976e-21)
(0.378542 0.188928 -1.16321e-20)
(0.403069 0.192407 1.80073e-20)
(0.422977 0.19231 -8.0968e-21)
(0.438951 0.18889 2.77377e-21)
(0.451802 0.182389 -8.71957e-22)
(0.462362 0.173048 2.55999e-22)
(0.47148 0.161115 9.57429e-22)
(0.48001 0.146921 -7.13828e-23)
(0.488784 0.130979 -2.48789e-21)
(0.498439 0.114146 1.37814e-21)
(0.508706 0.0978555 2.10046e-22)
(0.516968 0.0846762 3.55436e-22)
(-0.042184 -0.0955376 -3.91252e-20)
(-0.0779743 -0.0976012 6.85048e-21)
(-0.0738148 -0.0816642 1.12788e-20)
(-0.0533133 -0.0515004 -2.7373e-20)
(-0.0194507 -0.0179849 0)
(0.020847 0.0158069 -2.40509e-20)
(0.063568 0.0481463 0)
(0.105866 0.0780283 -1.53419e-20)
(0.14584 0.104813 1.21564e-20)
(0.182271 0.12809 1.40513e-20)
(0.214492 0.147635 0)
(0.242199 0.163337 2.95894e-21)
(0.265359 0.175128 -4.1997e-21)
(0.284269 0.183002 0)
(0.299379 0.186955 0)
(0.311267 0.186973 1.89709e-21)
(0.320614 0.183044 -2.37729e-21)
(0.328173 0.175187 1.22962e-21)
(0.334725 0.163487 -1.76983e-22)
(0.34107 0.148207 0)
(0.347999 0.129912 -5.06486e-23)
(0.356016 0.109718 0)
(0.364412 0.089951 -1.08041e-22)
(0.371404 0.0751871 0)
(-0.0628698 -0.081431 3.10736e-20)
(-0.0880732 -0.0925408 -6.30479e-21)
(-0.084975 -0.0858465 -1.89264e-20)
(-0.0685185 -0.0648547 2.6356e-22)
(-0.0415005 -0.0381028 2.41765e-22)
(-0.00922223 -0.00886851 1.50152e-21)
(0.0250685 0.0208484 0)
(0.0590821 0.0497851 0)
(0.091241 0.0769782 1.25942e-21)
(0.120585 0.101741 -5.64352e-21)
(0.146627 0.123584 0)
(0.169201 0.142108 2.66483e-21)
(0.188445 0.156975 -4.61015e-22)
(0.204608 0.167869 -3.47639e-22)
(0.218099 0.174515 -2.22816e-22)
(0.229402 0.176651 -2.85177e-22)
(0.239164 0.174115 -1.418e-22)
(0.247937 0.16679 1.04235e-22)
(0.256225 0.15466 9.82671e-23)
(0.264533 0.137968 5.66694e-23)
(0.273285 0.117409 2.0038e-22)
(0.282696 0.0944677 -1.44761e-22)
(0.292556 0.0722514 1.06948e-22)
(0.302697 0.0569541 -2.53624e-24)
(-0.0817974 -0.0713013 -3.60626e-21)
(-0.0982886 -0.0898023 1.54507e-20)
(-0.0933499 -0.0910747 -1.06033e-20)
(-0.0773597 -0.0780102 0)
(-0.0530211 -0.0573366 0)
(-0.0245337 -0.0323722 0)
(0.00546794 -0.00530342 0)
(0.0351995 0.022371 -6.11255e-21)
(0.0635766 0.0495481 0)
(0.0899184 0.0752511 -7.06554e-21)
(0.113852 0.0986749 5.86363e-22)
(0.135282 0.119155 0)
(0.1543 0.136133 2.00092e-21)
(0.171129 0.149133 1.9163e-23)
(0.186071 0.157732 -1.11321e-21)
(0.199478 0.161548 -1.32751e-21)
(0.211607 0.160222 1.41118e-21)
(0.222833 0.153566 -1.04149e-22)
(0.233575 0.141575 7.68162e-23)
(0.244193 0.124493 -4.90952e-22)
(0.254971 0.103039 6.97796e-22)
(0.266251 0.0788248 -1.72219e-22)
(0.27894 0.0553512 3.71465e-23)
(0.294411 0.0395239 -1.62177e-22)
(-0.097865 -0.0642699 -5.93352e-20)
(-0.106478 -0.0894079 0)
(-0.0971955 -0.0978 0)
(-0.0785863 -0.0916401 0)
(-0.0533307 -0.0763475 0)
(-0.0249367 -0.055236 0)
(0.004413 -0.0306724 0)
(0.0333246 -0.00441003 -4.40268e-21)
(0.060979 0.0221897 9.81976e-21)
(0.0869695 0.0480389 -2.33386e-21)
(0.111141 0.0721875 8.25126e-21)
(0.133486 0.0938125 0)
(0.154121 0.112194 0)
(0.173233 0.126689 -1.13751e-21)
(0.19107 0.136736 8.55154e-22)
(0.207912 0.141875 0)
(0.224054 0.141725 0)
(0.239777 0.135976 0)
(0.255371 0.124454 0)
(0.271111 0.107246 9.24915e-22)
(0.287249 0.0849214 -8.92067e-22)
(0.304355 0.0590575 -9.84343e-23)
(0.323937 0.0332925 -3.75341e-23)
(0.348341 0.014999 1.64263e-22)
(-0.11056 -0.059416 5.94799e-20)
(-0.110778 -0.0911188 -9.74408e-20)
(-0.0950334 -0.10614 1.84914e-20)
(-0.0709276 -0.106106 -3.12278e-20)
(-0.0415892 -0.0955159 1.32027e-20)
(-0.0101012 -0.077728 3.5624e-20)
(0.0217206 -0.0553204 0)
(0.0528361 -0.0302928 9.13924e-21)
(0.0827457 -0.00421006 5.11618e-21)
(0.111273 0.0216706 0)
(0.138439 0.046264 6.49918e-21)
(0.16441 0.0686667 -4.31514e-21)
(0.189408 0.0880782 0)
(0.213679 0.1038 -4.13242e-21)
(0.237486 0.115208 2.1678e-21)
(0.261086 0.121767 -1.08202e-21)
(0.284724 0.123026 0)
(0.308621 0.118612 -1.15254e-21)
(0.332966 0.108265 0)
(0.357912 0.0919189 -1.34424e-21)
(0.383522 0.0698892 -1.26989e-21)
(0.409976 0.0433555 -9.50544e-22)
(0.438272 0.0155596 4.25305e-22)
(0.471539 -0.00568442 -4.29443e-22)
(-0.119591 -0.056124 0)
(-0.110356 -0.0946302 1.21793e-19)
(-0.0854092 -0.115978 5.75965e-20)
(-0.0528875 -0.121355 0)
(-0.0164984 -0.11473 0)
(0.0209245 -0.0996344 -3.56901e-20)
(0.057903 -0.0789218 0)
(0.0937611 -0.0548479 1.55881e-20)
(0.12832 -0.0291734 -1.76326e-20)
(0.161684 -0.003326 -1.00035e-20)
(0.194097 0.0215422 -6.50007e-21)
(0.225872 0.0444437 4.31576e-21)
(0.257344 0.064524 -3.17724e-21)
(0.288841 0.0810611 6.40341e-21)
(0.320649 0.0934099 -1.85786e-21)
(0.353005 0.101017 2.55778e-21)
(0.386101 0.103428 -1.41361e-21)
(0.420059 0.100258 1.15473e-21)
(0.454911 0.0912227 -1.0714e-21)
(0.490592 0.0762067 1.34806e-21)
(0.526865 0.0553649 -3.6739e-21)
(0.563677 0.0294476 5.73907e-21)
(0.600843 0.000979957 0)
(0.643132 -0.0220633 0)
(-0.124263 -0.0539778 -9.19927e-20)
(-0.103792 -0.0994874 -2.3531e-20)
(-0.0666474 -0.127001 -1.3695e-19)
(-0.0226155 -0.136957 2.7305e-20)
(0.0236972 -0.133358 -2.49788e-20)
(0.0696107 -0.120102 2.74178e-21)
(0.114011 -0.100433 2.62909e-20)
(0.156625 -0.0768747 0)
(0.197651 -0.05138 -8.57205e-21)
(0.237471 -0.0254836 -4.60728e-21)
(0.276573 -0.000430919 4.34634e-21)
(0.315463 0.0227348 1.1645e-21)
(0.354592 0.0431468 -1.4932e-21)
(0.394344 0.0600812 2.10261e-21)
(0.435004 0.0729168 -3.09842e-23)
(0.476772 0.0811187 -1.19362e-21)
(0.519747 0.0842984 -1.16692e-22)
(0.563907 0.0821947 -2.06476e-22)
(0.609064 0.0746747 1.70301e-21)
(0.654879 0.0617412 0)
(0.700688 0.0436279 0)
(0.746366 0.0209687 0)
(0.789848 -0.00476016 8.32113e-22)
(0.841033 -0.0260642 -1.54716e-21)
(-0.124809 -0.0524449 1.55404e-19)
(-0.0898985 -0.10539 -2.72206e-20)
(-0.0368368 -0.138661 7.97254e-20)
(0.0220609 -0.152066 1.18714e-19)
(0.0810722 -0.150193 0)
(0.137699 -0.137597 -3.13013e-20)
(0.191276 -0.118002 2.10806e-20)
(0.242076 -0.0942578 5.47892e-21)
(0.290755 -0.0685424 1.83023e-20)
(0.338057 -0.0425019 -9.92949e-21)
(0.38472 -0.0173877 3.9242e-21)
(0.431366 0.00578261 -9.73736e-22)
(0.478488 0.0261886 5.77661e-21)
(0.526452 0.0431602 -8.5052e-21)
(0.575507 0.0561496 7.04126e-21)
(0.625763 0.0647243 -2.93704e-21)
(0.677145 0.0685658 1.37338e-21)
(0.729429 0.0675272 2.07379e-22)
(0.782142 0.0616315 -6.28752e-22)
(0.834836 0.0510621 -2.19899e-21)
(0.886478 0.0361644 2.65457e-21)
(0.93754 0.017938 -8.66881e-22)
(0.982512 -0.00324725 -1.86922e-21)
(1.04298 -0.0197203 8.49354e-22)
(-0.120534 -0.0511312 2.36658e-19)
(-0.0671588 -0.111929 0)
(0.00626407 -0.150138 -1.63428e-19)
(0.0835512 -0.165325 -1.19744e-19)
(0.157766 -0.163373 4.59356e-20)
(0.226868 -0.149907 -4.50202e-20)
(0.291006 -0.1293 1.77673e-20)
(0.351069 -0.104659 -2.71655e-20)
(0.408118 -0.0782129 7.57347e-21)
(0.463173 -0.0516359 6.85934e-21)
(0.51715 -0.0262279 -2.78234e-21)
(0.570736 -0.00299957 -5.25864e-21)
(0.624485 0.0172504 -3.99576e-21)
(0.678779 0.0339504 9.74931e-21)
(0.733839 0.0466749 -9.13996e-21)
(0.789652 0.0551606 -4.86515e-21)
(0.846057 0.0592375 5.8767e-21)
(0.902811 0.0589434 0)
(0.959133 0.0544618 9.83465e-22)
(1.01486 0.0461125 -1.50333e-21)
(1.06844 0.0340101 0)
(1.12159 0.0199505 1.55323e-21)
(1.16381 0.00223341 5.51358e-21)
(1.23209 -0.00806076 -2.66873e-21)
(-0.110944 -0.04976 -5.59067e-19)
(-0.0337386 -0.118529 0)
(0.06522 -0.160207 1.6525e-19)
(0.164305 -0.174804 5.2237e-20)
(0.255855 -0.170643 -1.30831e-19)
(0.338813 -0.154562 5.51041e-20)
(0.413919 -0.131418 -2.15486e-20)
(0.482689 -0.104756 2.29026e-20)
(0.546839 -0.0770476 -1.94338e-21)
(0.607845 -0.049886 -4.89467e-21)
(0.66693 -0.0243973 -2.38247e-21)
(0.724992 -0.00145104 5.1181e-21)
(0.782727 0.0183316 -7.3541e-21)
(0.840507 0.0344961 -7.21981e-21)
(0.898566 0.0467115 -7.49325e-21)
(0.956674 0.0548341 -5.64723e-21)
(1.01469 0.0587857 6.32762e-21)
(1.07233 0.0585771 6.01593e-21)
(1.12832 0.0542468 -5.78539e-21)
(1.18381 0.0465332 0)
(1.23318 0.0357966 4.07292e-21)
(1.27798 0.0253872 -5.09071e-21)
(1.30415 0.0111214 1.3109e-20)
(1.35286 0.00843166 -1.23698e-20)
(-0.0955018 -0.0480229 2.88915e-19)
(0.0127027 -0.12438 0)
(0.142861 -0.167063 3.78652e-20)
(0.266802 -0.178137 3.25439e-20)
(0.376706 -0.169064 1.25225e-19)
(0.4723 -0.14832 0)
(0.555868 -0.121765 0)
(0.630573 -0.0928455 -2.82958e-20)
(0.699077 -0.0637724 1.70687e-21)
(0.763458 -0.036033 7.2335e-22)
(0.825118 -0.0105882 1.20858e-20)
(0.885032 0.0118126 7.30553e-21)
(0.943942 0.0306404 1.66364e-20)
(1.00199 0.0455458 -9.37952e-21)
(1.05965 0.056405 -1.37185e-21)
(1.11598 0.0628604 8.36235e-21)
(1.17213 0.0651914 0)
(1.22405 0.063624 -6.96545e-21)
(1.2696 0.05893 0)
(1.30413 0.0521886 -6.14698e-21)
(1.3296 0.0438578 1.88336e-20)
(1.34813 0.0361511 -1.80451e-20)
(1.35812 0.0242858 0)
(1.38638 0.0237462 5.57018e-21)
(-0.07349 -0.045692 -2.79031e-19)
(0.0752688 -0.128097 -2.45568e-19)
(0.242341 -0.16821 -1.74958e-19)
(0.392173 -0.1721 -1.19996e-19)
(0.517508 -0.15576 -1.22195e-19)
(0.62157 -0.129465 -1.07719e-20)
(0.709854 -0.0990156 7.14167e-21)
(0.787186 -0.0678754 1.27733e-20)
(0.856938 -0.0379899 3.2011e-21)
(0.92135 -0.0104742 1.04741e-21)
(0.981893 0.0138815 9.90088e-22)
(1.03953 0.034504 -1.8781e-20)
(1.09524 0.0510811 2.98846e-20)
(1.14893 0.0631624 -9.97893e-21)
(1.20113 0.0710296 8.97309e-21)
(1.24751 0.0747323 -8.35562e-21)
(1.28395 0.074846 0)
(1.31126 0.0720928 -9.38794e-21)
(1.33159 0.0671602 2.19236e-20)
(1.34623 0.0603738 -2.8315e-20)
(1.35659 0.0521806 2.67615e-20)
(1.36363 0.0431728 0)
(1.36819 0.0321337 -6.23679e-21)
(1.3827 0.0384562 -5.5108e-21)
(-0.0434517 -0.0428803 3.24827e-19)
(0.15811 -0.127161 3.06256e-19)
(0.365716 -0.160018 8.80402e-20)
(0.537639 -0.153501 -1.53738e-20)
(0.672509 -0.128729 4.91657e-20)
(0.779379 -0.0968853 0)
(0.867178 -0.0637273 -2.3789e-21)
(0.942077 -0.0319378 0)
(1.0079 -0.00294717 -1.31511e-21)
(1.06688 0.0224375 -6.90001e-21)
(1.12074 0.0437357 7.34094e-21)
(1.17058 0.0604718 0)
(1.21772 0.0728817 0)
(1.25789 0.0807158 0)
(1.28733 0.0843207 0)
(1.309 0.0846786 0)
(1.32501 0.0822389 0)
(1.33696 0.0774607 0)
(1.34585 0.0708394 8.65368e-21)
(1.35334 0.0630868 -8.06099e-21)
(1.35813 0.0544383 -9.33623e-21)
(1.35908 0.0461209 0)
(1.35318 0.040481 1.45107e-20)
(1.35493 0.0492699 -8.03844e-21)
(-0.00278935 -0.0392777 0)
(0.266421 -0.117389 0)
(0.512082 -0.138337 -1.79214e-19)
(0.697541 -0.119806 -1.64087e-19)
(0.832394 -0.0878015 4.82333e-20)
(0.933565 -0.0531326 -2.38737e-20)
(1.01377 -0.0200188 -3.23914e-20)
(1.07978 0.00957536 6.78187e-21)
(1.13544 0.0348419 0)
(1.1831 0.0553756 1.45254e-20)
(1.22493 0.0711982 -1.62259e-20)
(1.26116 0.0824575 3.747e-20)
(1.28665 0.0888192 -9.81476e-21)
(1.30461 0.0916909 0)
(1.31717 0.0914523 2.67188e-20)
(1.32643 0.0887031 -1.14861e-20)
(1.33368 0.084019 1.37788e-20)
(1.34012 0.0779476 1.32992e-20)
(1.3445 0.0706806 0)
(1.34512 0.0629041 0)
(1.34138 0.0549174 9.39933e-21)
(1.33312 0.0474191 0)
(1.3204 0.0439952 -8.24869e-21)
(1.31176 0.0564672 8.08737e-21)
(0.0528936 -0.0331438 0)
(0.404873 -0.0931119 0)
(0.676128 -0.0994385 1.81449e-19)
(0.859783 -0.0716825 4.48734e-21)
(0.981656 -0.0370697 4.09247e-21)
(1.06895 -0.00385812 4.03698e-20)
(1.13512 0.0252854 -2.05125e-20)
(1.18678 0.0493704 7.41131e-21)
(1.22762 0.0682035 3.00965e-21)
(1.26025 0.0819765 -6.66754e-21)
(1.28559 0.0911845 -1.25521e-20)
(1.30173 0.0960262 2.80731e-20)
(1.312 0.0976452 -9.86897e-21)
(1.31875 0.0967262 -1.2388e-20)
(1.32362 0.0935431 1.6308e-20)
(1.32823 0.089087 1.64564e-20)
(1.33114 0.0831555 -2.75073e-20)
(1.331 0.0761858 2.31518e-21)
(1.32763 0.0687073 2.78074e-20)
(1.32111 0.0610655 -2.6522e-20)
(1.31145 0.0536112 1.34396e-20)
(1.29869 0.0472197 -4.73517e-20)
(1.28349 0.0459367 5.43829e-22)
(1.26664 0.0610291 3.72681e-20)
(0.131395 -0.0198364 -3.45816e-19)
(0.572342 -0.0495297 -7.71756e-20)
(0.844486 -0.0437501 -3.77652e-20)
(1.00577 -0.0138209 1.4549e-19)
(1.10595 0.0169186 9.25161e-20)
(1.17462 0.0441525 -1.02266e-20)
(1.22362 0.0660836 -1.24336e-20)
(1.25894 0.0826209 2.40026e-21)
(1.28411 0.0940566 -3.00911e-21)
(1.30159 0.101133 0)
(1.31124 0.104123 0)
(1.31621 0.10442 0)
(1.3187 0.102233 -5.29689e-20)
(1.32054 0.0987772 1.67504e-20)
(1.32145 0.0942776 -5.31365e-20)
(1.31998 0.0882207 3.46536e-20)
(1.31615 0.0812968 1.88408e-20)
(1.31026 0.0738594 -6.70406e-20)
(1.30251 0.066289 0)
(1.29279 0.0590273 -7.68651e-20)
(1.28061 0.052377 8.60662e-20)
(1.26541 0.0473931 -6.96565e-20)
(1.24759 0.048676 -1.56637e-20)
(1.2254 0.0643984 -1.43368e-20)
(0.244779 0.0125039 3.8924e-19)
(0.752316 0.0149594 -2.69054e-19)
(0.995314 0.0236977 0)
(1.12233 0.0466708 -5.41218e-20)
(1.19911 0.0689259 1.60297e-20)
(1.24896 0.0872192 0)
(1.28147 0.100537 0)
(1.30191 0.1092 -5.98646e-21)
(1.31372 0.11383 3.34772e-21)
(1.31896 0.11514 0)
(1.31997 0.113535 1.85508e-22)
(1.31911 0.110488 1.66183e-20)
(1.31732 0.106492 5.92683e-20)
(1.31406 0.101018 -3.8748e-20)
(1.30921 0.0944495 0)
(1.30308 0.0872246 0)
(1.29597 0.0796861 0)
(1.28784 0.0721759 1.77486e-20)
(1.27843 0.0650226 0)
(1.26725 0.0585037 3.4709e-20)
(1.2534 0.0527867 1.51957e-20)
(1.2362 0.0490331 1.47216e-20)
(1.21609 0.0521942 9.88613e-20)
(1.19092 0.0679973 -5.01742e-20)
(0.406155 0.0805742 3.08409e-19)
(0.916047 0.0954444 2.70078e-19)
(1.11119 0.0963604 -3.23305e-20)
(1.20656 0.106088 1.24095e-19)
(1.26313 0.116913 -5.35118e-20)
(1.29687 0.125059 2.64203e-20)
(1.3155 0.129688 -7.13296e-21)
(1.32397 0.131057 8.40148e-21)
(1.32568 0.129471 -2.17648e-20)
(1.32367 0.126671 0)
(1.31927 0.121869 -1.79613e-20)
(1.31386 0.116212 0)
(1.30753 0.109595 0)
(1.30055 0.102315 -2.47925e-20)
(1.29316 0.0947091 -2.46806e-20)
(1.28538 0.0870368 4.60728e-20)
(1.27701 0.0794893 1.08498e-21)
(1.26773 0.0722379 -4.2375e-20)
(1.25709 0.0655072 -4.12141e-20)
(1.24448 0.0594711 2.47271e-21)
(1.22899 0.0543074 -1.86483e-20)
(1.21005 0.0513182 -2.48095e-20)
(1.18825 0.0556132 2.03353e-21)
(1.1614 0.0712004 5.52101e-20)
(0.616091 0.192833 -2.70695e-19)
(1.03702 0.185772 -7.96614e-20)
(1.18695 0.167419 4.06416e-20)
(1.26148 0.16156 0)
(1.30297 0.160061 0)
(1.32397 0.158104 -1.86193e-20)
(1.33174 0.154582 3.09959e-21)
(1.33134 0.149305 -2.87354e-21)
(1.32657 0.143094 1.43521e-20)
(1.31935 0.135816 0)
(1.31117 0.128189 0)
(1.30271 0.12021 2.65168e-20)
(1.29424 0.112074 3.15445e-21)
(1.2858 0.103947 -3.61521e-21)
(1.27729 0.0959198 -5.63709e-20)
(1.26846 0.08807 1.01782e-19)
(1.25902 0.0804938 -7.26125e-20)
(1.24861 0.0733295 2.19507e-20)
(1.23678 0.0667936 0)
(1.22294 0.0610291 -2.06858e-20)
(1.20623 0.0561652 -1.97912e-20)
(1.18616 0.0535606 4.17465e-20)
(1.16333 0.0583079 -2.07044e-20)
(1.13553 0.0730898 6.04725e-20)
(0.83128 0.350425 -4.97118e-20)
(1.10578 0.275434 0)
(1.22772 0.230169 -1.88255e-20)
(1.29194 0.20968 7.60862e-21)
(1.32333 0.196905 8.39879e-21)
(1.33487 0.185994 0)
(1.33484 0.175382 0)
(1.32867 0.164784 -1.12452e-20)
(1.31962 0.15421 0)
(1.30955 0.143946 0)
(1.29944 0.134027 -1.56405e-20)
(1.28964 0.124496 1.59719e-20)
(1.28016 0.115335 -2.77872e-20)
(1.27086 0.106521 1.19346e-20)
(1.26151 0.0980462 4.29148e-20)
(1.25186 0.0899323 0)
(1.24161 0.0822372 -8.16463e-20)
(1.23039 0.0750679 6.36912e-20)
(1.21776 0.0685963 5.13815e-20)
(1.2031 0.0629227 -9.81193e-20)
(1.18563 0.058118 3.44776e-20)
(1.16489 0.0555609 -3.43308e-20)
(1.14146 0.0603097 -1.30686e-20)
(1.11332 0.0740688 -9.35301e-21)
(-0.08125 -0.0642195 1.17587e-20)
(-0.130624 -0.159516 2.4115e-19)
(-0.122616 -0.155757 2.80615e-20)
(-0.066243 -0.0407979 -5.59798e-20)
(0.0420684 0.098169 2.41914e-21)
(0.229647 0.533525 2.05169e-19)
(-0.114906 -0.098312 3.41391e-19)
(-0.13541 -0.153067 3.20388e-20)
(-0.0921062 -0.116926 -4.01868e-20)
(-0.00718259 0.00268274 2.20922e-20)
(0.126969 0.152771 3.60276e-20)
(0.365281 0.403532 -1.57471e-19)
(-0.134553 -0.104188 -7.01662e-19)
(-0.127158 -0.136147 -2.52709e-19)
(-0.0545002 -0.0851215 1.15548e-20)
(0.0609271 0.0298727 1.79211e-19)
(0.23331 0.174017 -1.71152e-20)
(0.471412 0.363627 1.6628e-20)
(-0.153073 -0.102418 3.52426e-19)
(-0.116791 -0.119821 -1.3939e-20)
(-0.0194035 -0.0607386 1.07007e-20)
(0.121028 0.0485234 -1.33898e-19)
(0.315726 0.184295 -1.56972e-20)
(0.558158 0.339906 -6.28608e-20)
(-0.16935 -0.0991601 -2.66865e-21)
(-0.106298 -0.105065 0)
(0.0120818 -0.0418089 0)
(0.173388 0.0613401 0)
(0.384744 0.187841 2.89378e-20)
(0.629102 0.321746 4.52088e-20)
(-0.183008 -0.0959223 2.09663e-20)
(-0.0963636 -0.0921498 0)
(0.0392328 -0.0270501 0)
(0.218046 0.0701865 -8.37947e-21)
(0.442139 0.189078 -2.88699e-20)
(0.685882 0.309045 5.80672e-21)
(-0.194429 -0.0934553 -1.95774e-20)
(-0.0877428 -0.0810785 9.46481e-20)
(0.0617727 -0.0156485 0)
(0.255143 0.0763041 -5.7584e-20)
(0.489565 0.189646 5.72574e-20)
(0.731104 0.301709 4.18018e-20)
(-0.203891 -0.0920974 -2.56558e-21)
(-0.0809756 -0.0717947 -9.32246e-20)
(0.079505 -0.00702726 0)
(0.284936 0.0803525 6.6147e-20)
(0.528222 0.190155 -5.77029e-20)
(0.766924 0.298182 -4.79497e-20)
(-0.211501 -0.0918692 -1.01742e-20)
(-0.0763962 -0.0641707 1.71034e-20)
(0.092301 -0.000748603 -9.23862e-21)
(0.307617 0.0826864 0)
(0.5589 0.190679 0)
(0.794589 0.297022 0)
(-0.217313 -0.0925623 3.19554e-19)
(-0.0742107 -0.0580037 0)
(0.100036 0.00354046 0)
(0.323338 0.0834945 0)
(0.582075 0.190991 0)
(0.815018 0.29708 0)
(-0.221379 -0.0938004 -3.19551e-19)
(-0.0745493 -0.0530252 0)
(0.102593 0.00611732 0)
(0.332152 0.0827889 -3.31348e-20)
(0.597989 0.190765 2.68492e-19)
(0.828963 0.297514 5.0015e-20)
(-0.223822 -0.0951177 0)
(-0.0774888 -0.0489367 0)
(0.0998949 0.0072441 2.95013e-19)
(0.333959 0.0804705 0)
(0.606701 0.189629 -2.40613e-19)
(0.837155 0.297672 -2.12214e-19)
(-0.224595 -0.0959311 0)
(-0.083065 -0.0454429 3.61712e-19)
(0.0918328 0.00718465 -5.94955e-19)
(0.328531 0.0764264 0)
(0.608153 0.187145 0)
(0.840045 0.297095 1.60238e-19)
(-0.224029 -0.0957748 -9.37795e-21)
(-0.0912884 -0.0422877 -7.563e-19)
(0.0782751 0.00622367 3.19078e-19)
(0.315528 0.0705729 2.68865e-19)
(0.602242 0.182863 -6.16859e-20)
(0.837622 0.29526 5.45446e-20)
(-0.221987 -0.0940272 0)
(-0.101964 -0.0392053 3.72995e-19)
(0.0591047 0.00467399 -3.39372e-19)
(0.294486 0.062809 -2.73088e-19)
(0.588277 0.176278 -2.19727e-19)
(0.830138 0.291753 2.22594e-19)
(-0.218932 -0.0902003 9.77423e-21)
(-0.114838 -0.0359662 -4.0271e-19)
(0.0342512 0.00286596 3.63424e-19)
(0.264883 0.053028 -3.05272e-19)
(0.565253 0.167029 2.52596e-19)
(0.817482 0.285987 -1.67613e-19)
(-0.215122 -0.0837115 -1.96274e-20)
(-0.129518 -0.0323517 3.69742e-20)
(0.00379635 0.00114793 -5.81909e-20)
(0.226218 0.0411721 3.70172e-20)
(0.531605 0.154838 0)
(0.799214 0.277158 0)
(-0.211378 -0.0742596 -3.94562e-20)
(-0.14547 -0.0282554 3.9982e-19)
(-0.0318878 -0.000172133 5.88477e-20)
(0.178144 0.0273403 2.42675e-19)
(0.485144 0.139618 6.55075e-20)
(0.774497 0.264016 -5.69458e-20)
(-0.209891 -0.0629759 0)
(-0.161941 -0.0238165 -2.55934e-20)
(-0.0718703 -0.000916752 1.99235e-20)
(0.120582 0.0118714 0)
(0.423019 0.121697 -6.61579e-20)
(0.741962 0.244811 -1.7426e-19)
(-0.203983 -0.0387665 -9.29664e-21)
(-0.176778 -0.0194961 0)
(-0.11406 -0.000968688 -3.99884e-20)
(0.0539359 -0.00453182 3.4473e-20)
(0.341473 0.10177 0)
(0.699109 0.216812 1.74757e-19)
(-0.191038 -0.0252176 0)
(-0.186589 -0.0160905 4.32835e-19)
(-0.155171 -9.30313e-05 -2.85089e-19)
(-0.0191847 -0.0201415 1.25951e-21)
(0.234925 0.0812967 2.29928e-19)
(0.640155 0.174509 2.25071e-19)
(-0.176696 -0.0192116 0)
(-0.192976 -0.0116846 -9.075e-19)
(-0.191752 0.00283735 4.01091e-21)
(-0.0915481 -0.0325648 -2.64571e-19)
(0.0915699 0.0622976 -3.40858e-21)
(0.552537 0.10137 -2.87996e-19)
(-0.156017 -0.0108251 0)
(-0.192755 -0.00595637 -7.67499e-23)
(-0.223933 0.00805261 3.91167e-21)
(-0.149292 -0.0404553 3.10098e-19)
(-0.117778 0.0505844 -5.6595e-19)
(0.446688 -0.00608698 5.82833e-20)
(-0.0945949 -0.00677216 -7.46216e-19)
(-0.156331 -0.00623284 -1.44116e-20)
(-0.233345 0.0159504 3.92067e-19)
(-0.176791 -0.0273441 3.6249e-20)
(-0.354768 0.0896451 2.39569e-19)
(0.356367 0.00125288 0)
(0.901057 0.476462 -1.8783e-20)
(1.1301 0.334393 0)
(1.2453 0.275922 2.98163e-20)
(1.30428 0.247249 -1.33636e-20)
(1.32878 0.226597 4.38e-21)
(1.33374 0.208685 7.32582e-21)
(1.32871 0.192449 -7.5537e-21)
(1.31914 0.177561 1.11749e-20)
(1.308 0.163886 1.63168e-20)
(1.29672 0.151319 -3.31333e-20)
(1.28586 0.139756 5.04296e-20)
(1.27552 0.129047 -4.85232e-20)
(1.26559 0.119053 0)
(1.25583 0.10966 1.56184e-20)
(1.24602 0.100795 1.90028e-21)
(1.23588 0.0924274 0)
(1.2251 0.0845733 1.61005e-20)
(1.21331 0.0773083 5.76035e-20)
(1.20009 0.0707635 -5.62202e-20)
(1.18485 0.0650058 -5.45594e-20)
(1.16689 0.0600507 6.447e-20)
(1.14581 0.0572565 -1.35751e-21)
(1.12212 0.0616866 2.73455e-20)
(1.09417 0.0743703 -1.40744e-20)
(0.902027 0.439819 -3.64271e-21)
(1.13748 0.360837 3.1381e-21)
(1.25117 0.308313 -1.50843e-20)
(1.30467 0.27614 -8.42291e-21)
(1.32349 0.249798 0)
(1.32415 0.22663 0)
(1.31638 0.206196 1.74141e-20)
(1.30535 0.188154 4.00287e-21)
(1.29356 0.172167 -1.98357e-20)
(1.28208 0.157932 1.51177e-20)
(1.2712 0.145156 2.0978e-20)
(1.26086 0.133568 1.88701e-20)
(1.25085 0.12294 -3.70555e-20)
(1.24094 0.113094 -1.95556e-20)
(1.23087 0.103904 -3.59011e-20)
(1.2204 0.0952967 -1.82764e-20)
(1.20923 0.0872541 -3.35316e-20)
(1.19704 0.0798226 4.78524e-20)
(1.18342 0.0730958 -3.09134e-20)
(1.16786 0.0671083 -4.43025e-20)
(1.14974 0.0618334 1.15861e-19)
(1.12866 0.0585857 3.20315e-20)
(1.10506 0.0624436 -1.40113e-20)
(1.07769 0.0740888 -6.98879e-20)
(0.906675 0.425368 -1.53254e-20)
(1.14004 0.376546 -1.13387e-20)
(1.24902 0.332078 -1.31515e-21)
(1.29614 0.297395 6.07354e-21)
(1.31065 0.267039 0)
(1.30895 0.240307 0)
(1.30016 0.217014 -2.42089e-20)
(1.28897 0.1968 -1.99376e-20)
(1.27748 0.179214 -2.46634e-20)
(1.26646 0.163805 2.08705e-20)
(1.256 0.150162 2.56883e-20)
(1.24597 0.137927 -8.42969e-22)
(1.23612 0.126812 -2.22576e-20)
(1.22622 0.116596 4.07719e-20)
(1.21605 0.107118 -2.10443e-20)
(1.20539 0.0982747 3.57456e-20)
(1.19398 0.090019 3.66059e-20)
(1.18155 0.0823701 -5.39265e-20)
(1.16774 0.0753882 3.3803e-20)
(1.15209 0.0690697 8.41342e-23)
(1.13406 0.0633594 -1.4967e-20)
(1.11325 0.0595077 -1.4898e-20)
(1.09 0.062591 4.6049e-20)
(1.06354 0.073371 -2.40521e-20)
(0.924153 0.40991 1.18032e-20)
(1.13907 0.383063 1.42312e-20)
(1.23985 0.34695 6.20685e-21)