/*--------------------------------*- C++ -*----------------------------------*\
  =========                 |
  \\      /  F ield         | OpenFOAM: The Open Source CFD Toolbox
   \\    /   O peration     | Website:  https://openfoam.org
    \\  /    A nd           | Version:  11
     \\/     M anipulation  |
\*---------------------------------------------------------------------------*/
FoamFile
{
    format      ascii;
    class       surfaceVectorField;
    location    "0.44";
    object      Uf;
}
// * * * * * * * * * * * * * * * * * * * * * * * * * * * * * * * * * * * * * //

dimensions      [0 1 -1 0 0 0 0];

internalField   nonuniform List<vector> 
5640
(
(-0.0188718 0.0605076 -1.20931e-19)
(-0.011295 0.0527688 -1.56153e-19)
(-0.0355155 0.0835734 -1.33795e-19)
(-0.0360769 0.0784502 -1.42089e-19)
(-0.0324254 0.0952879 0)
(-0.044595 0.093218 1.66645e-20)
(-0.0162249 0.0943902 0)
(-0.0160946 0.0938398 -8.88639e-21)
(0.0465223 0.0706503 -3.74799e-20)
(-0.0282167 0.0873118 -1.27218e-20)
(0.126586 0.0341015 -7.29927e-21)
(0.0835834 -0.0820458 -1.34436e-19)
(-0.0277614 0.070496 -1.79567e-19)
(-0.0184367 0.0621795 1.3413e-19)
(-0.0431973 0.0874573 5.49434e-24)
(-0.0411347 0.0842984 1.05316e-19)
(-0.0372353 0.0926861 5.90842e-21)
(-0.0482995 0.0925027 1.12848e-20)
(-0.0157917 0.0786044 -2.15007e-20)
(-0.0235807 0.0871555 -8.23422e-20)
(0.0261414 0.0487366 4.14183e-20)
(-0.0226486 0.0620232 -5.91304e-21)
(0.0699828 0.0169992 3.5031e-20)
(0.0663905 -0.0671879 3.89917e-20)
(-0.0303559 0.07604 4.17697e-19)
(-0.0222132 0.0699286 1.52875e-19)
(-0.0453694 0.0890343 1.19771e-19)
(-0.043023 0.0884626 1.26241e-19)
(-0.0411457 0.0881336 -7.65356e-20)
(-0.0509474 0.0913106 -1.0427e-20)
(-0.021448 0.0673508 -7.16325e-20)
(-0.0323182 0.0804669 -2.00101e-20)
(0.00804016 0.0319928 -4.51749e-21)
(-0.0273734 0.0459772 1.33764e-20)
(0.0291664 0.00417566 2.0851e-20)
(0.0361962 -0.0556157 -5.10816e-21)
(-0.0334425 0.0813274 -1.36954e-19)
(-0.0261139 0.0771593 -1.3423e-19)
(-0.0481756 0.0906147 1.90298e-21)
(-0.0458404 0.0922955 6.46553e-21)
(-0.046556 0.0845662 4.67004e-20)
(-0.0547049 0.0907367 -5.04728e-21)
(-0.0316939 0.05922 5.98187e-20)
(-0.0424741 0.075323 5.37335e-20)
(-0.0150961 0.0213822 3.85657e-20)
(-0.0374003 0.0374059 -6.29869e-21)
(-0.0039942 -0.00356972 1.19191e-20)
(0.00254009 -0.0486655 3.69983e-20)
(-0.0371731 0.0869945 1.07316e-21)
(-0.0305669 0.0839497 -7.02072e-21)
(-0.0520571 0.0924705 0)
(-0.0495489 0.0958913 0)
(-0.0534123 0.0823233 0)
(-0.0596559 0.0909883 0)
(-0.0440532 0.0542829 -1.25055e-20)
(-0.0533619 0.0720423 3.73641e-21)
(-0.0352714 0.0148027 -3.32412e-20)
(-0.0503554 0.0330708 -3.35812e-22)
(-0.0324422 -0.00822613 -2.32616e-20)
(-0.0244056 -0.0439816 -4.02876e-20)
(-0.0416314 0.0923407 -8.49892e-21)
(-0.0358602 0.090254 -1.02455e-22)
(-0.0568468 0.0946269 0)
(-0.0540091 0.0992919 -4.73956e-20)
(-0.0612821 0.0814763 3.61018e-21)
(-0.0654785 0.092095 0)
(-0.057225 0.0518372 1.60015e-20)
(-0.0645261 0.0706048 2.97592e-20)
(-0.0539304 0.01157 1.01735e-20)
(-0.0646243 0.0314941 -1.2833e-20)
(-0.0569439 -0.0101348 -2.18421e-20)
(-0.0491628 -0.0396293 9.80347e-21)
(-0.0470457 0.0966708 -3.62721e-20)
(-0.0416088 0.0960553 9.16199e-21)
(-0.0622799 0.0970438 -4.94124e-20)
(-0.0590694 0.102423 -8.02653e-22)
(-0.0696616 0.0819711 2.51467e-20)
(-0.0717651 0.0940181 0)
(-0.0704393 0.0514064 2.12218e-21)
(-0.0755845 0.0708948 -3.1378e-21)
(-0.0714782 0.0109443 -4.46552e-20)
(-0.0790222 0.0320182 -2.94349e-22)
(-0.0778862 -0.00977221 2.62303e-21)
(-0.0714709 -0.0356055 -2.38509e-20)
(-0.0526994 0.100747 4.52613e-20)
(-0.0461882 0.101485 6.55216e-21)
(-0.068037 0.0996906 4.86365e-20)
(-0.064127 0.105334 3.78991e-20)
(-0.0781202 0.0836917 -2.81593e-20)
(-0.0781052 0.0967088 4.48869e-21)
(-0.0831586 0.0527008 -5.63157e-21)
(-0.0861679 0.0727869 -2.91439e-20)
(-0.087556 0.0122689 4.67907e-20)
(-0.0927305 0.0342607 2.50312e-20)
(-0.0955293 -0.00783231 2.16791e-20)
(-0.090256 -0.0318961 5.4436e-22)
(-0.0570552 0.105677 -2.72858e-21)
(-0.0494837 0.106433 -1.6758e-19)
(-0.0734878 0.102736 -4.87309e-21)
(-0.0685602 0.10838 -8.75223e-21)
(-0.0862287 0.0865736 4.64034e-21)
(-0.0840947 0.100204 4.48869e-21)
(-0.0949542 0.055545 0)
(-0.0959271 0.0761962 0)
(-0.101812 0.0150896 0)
(-0.105198 0.0380116 0)
(-0.11008 -0.00475838 0)
(-0.105448 -0.0283599 2.47977e-20)
(-0.0606569 0.109497 -1.82877e-19)
(-0.0529088 0.110542 5.49284e-22)
(-0.0782865 0.106275 0)
(-0.0721745 0.111677 0)
(-0.0936085 0.0906082 0)
(-0.0893906 0.104561 0)
(-0.105478 0.0598557 0)
(-0.104549 0.0810931 1.51873e-20)
(-0.113991 0.0191376 0)
(-0.116033 0.0432174 -1.21371e-19)
(-0.121636 -0.000689932 -2.31114e-20)
(-0.117177 -0.0249305 0)
(-0.0639937 0.112784 1.82817e-19)
(-0.0564544 0.113646 1.72845e-19)
(-0.0822413 0.110363 0)
(-0.0748631 0.115188 0)
(-0.0999399 0.0958207 1.46742e-20)
(-0.0936968 0.109825 -1.47939e-19)
(-0.114439 0.0656378 -1.02131e-19)
(-0.111764 0.0874971 1.51873e-20)
(-0.123841 0.0244031 -1.46838e-19)
(-0.124948 0.0499303 -1.27715e-20)
(-0.130191 0.00436566 7.57675e-20)
(-0.1252 -0.0214272 -6.62903e-20)
(-0.066805 0.115794 0)
(-0.0594412 0.115787 0)
(-0.085142 0.115006 -1.41644e-19)
(-0.0764834 0.118884 -1.92666e-19)
(-0.104954 0.102256 -1.52937e-19)
(-0.0967567 0.116036 1.51102e-19)
(-0.121612 0.0729679 1.05512e-19)
(-0.11735 0.0954691 0)
(-0.131227 0.0310067 2.07666e-19)
(-0.131746 0.0583132 1.08556e-19)
(-0.135775 0.0106405 2.37382e-20)
(-0.129647 -0.0175301 1.801e-19)
(-0.0686384 0.118462 -1.81551e-19)
(-0.0610299 0.11719 5.4184e-21)
(-0.086793 0.120218 8.54282e-20)
(-0.0769195 0.12276 2.08675e-19)
(-0.10843 0.109973 3.09119e-19)
(-0.0983622 0.123222 1.37897e-19)
(-0.126821 0.0819865 0)
(-0.121126 0.105095 -1.33828e-19)
(-0.136036 0.0391956 -7.32514e-20)
(-0.13628 0.0686121 2.93524e-20)
(-0.138414 0.0184493 -1.0179e-19)
(-0.130301 -0.0129247 1.18583e-20)
(-0.0688835 0.120972 3.83908e-19)
(-0.0604338 0.118165 5.4184e-21)
(-0.0870647 0.12602 2.64498e-19)
(-0.0761626 0.126846 2.0408e-19)
(-0.110198 0.119021 -2.95838e-19)
(-0.098368 0.131369 1.60875e-20)
(-0.12993 0.0928754 -1.0905e-19)
(-0.122953 0.116457 1.78597e-21)
(-0.138199 0.049311 4.69303e-21)
(-0.138437 0.0811439 1.39008e-19)
(-0.138197 0.0282127 -1.40848e-19)
(-0.127019 -0.00728848 -2.64264e-19)
(-0.0674726 0.123425 -1.85736e-19)
(-0.0569912 0.119184 -5.17779e-21)
(-0.0860286 0.132339 -3.58583e-20)
(-0.0743408 0.1311 1.74807e-20)
(-0.11014 0.12941 3.14345e-19)
(-0.0966844 0.14036 -1.27513e-20)
(-0.130836 0.105832 2.461e-19)
(-0.122729 0.129594 2.96364e-19)
(-0.137699 0.0617868 9.12039e-22)
(-0.138119 0.0962819 -1.71337e-20)
(-0.135319 0.0404348 -2.70617e-20)
(-0.119664 -0.000221258 -1.26191e-20)
(-0.0638597 0.126023 1.96732e-19)
(-0.0519751 0.119325 3.90417e-21)
(-0.0834839 0.139269 4.24642e-20)
(-0.0717669 0.135323 1.96262e-19)
(-0.108195 0.141076 -4.11453e-20)
(-0.0933426 0.150018 -1.58644e-19)
(-0.129466 0.121033 4.19661e-20)
(-0.120381 0.144449 1.45798e-19)
(-0.134583 0.0771399 -4.50876e-20)
(-0.135227 0.114436 -1.26877e-19)
(-0.130115 0.0557031 8.69141e-20)
(-0.108125 0.00867319 -1.55331e-20)
(-0.0597206 0.127078 -7.81512e-21)
(-0.0482914 0.11628 2.6307e-20)
(-0.0799035 0.146192 1.0457e-20)
(-0.0686591 0.13887 -2.26054e-19)
(-0.104314 0.153831 1.8155e-20)
(-0.0883318 0.159907 -1.12419e-21)
(-0.125777 0.138608 -1.54086e-20)
(-0.115849 0.160819 -1.47886e-19)
(-0.128995 0.0959266 0)
(-0.129654 0.136029 -3.58788e-20)
(-0.12314 0.0745767 3.28466e-20)
(-0.0920688 0.0196374 1.35423e-19)
(-0.0568449 0.125647 -1.78973e-19)
(-0.0460494 0.109825 1.7225e-20)
(-0.0752937 0.152464 -2.47418e-19)
(-0.064826 0.14087 -1.94505e-19)
(-0.0984575 0.167276 -1.62482e-19)
(-0.0815867 0.169463 -4.31556e-20)
(-0.119769 0.158624 -1.71536e-19)
(-0.109013 0.178313 -1.32936e-19)
(-0.121727 0.118193 -8.24101e-21)
(-0.121553 0.161665 2.04614e-21)
(-0.114959 0.0973686 1.43865e-19)
(-0.0710757 0.0327057 3.83051e-20)
(-0.0538422 0.122101 1.2957e-20)
(-0.0435995 0.101356 4.41909e-21)
(-0.0694491 0.157437 4.56065e-21)
(-0.0600248 0.140842 1.37503e-20)
(-0.0904965 0.180846 -1.12073e-20)
(-0.0729759 0.178063 1.30726e-20)
(-0.111225 0.180934 3.68617e-20)
(-0.0996847 0.196253 -2.02636e-20)
(-0.111575 0.145918 1.54925e-19)
(-0.110342 0.191229 3.7925e-20)
(-0.106094 0.124497 -2.15982e-21)
(-0.0431767 0.0495112 1.29467e-19)
(-0.0497534 0.116572 4.67403e-21)
(-0.0403559 0.0915987 4.41909e-21)
(-0.0621154 0.160589 2.28961e-20)
(-0.0540722 0.138489 -2.34998e-19)
(-0.0802156 0.193786 6.45832e-21)
(-0.0623601 0.185034 1.93895e-19)
(-0.099711 0.205026 -2.08318e-20)
(-0.0876339 0.213555 -2.17226e-20)
(-0.0991319 0.178895 -1.09019e-19)
(-0.0952078 0.225137 -1.45185e-19)
(-0.0970519 0.156661 -2.7831e-19)
(-0.00754091 0.0695339 -2.83683e-19)
(-0.0445193 0.109157 -2.21441e-19)
(-0.0363763 0.0807798 0)
(-0.0532012 0.16151 -8.22497e-20)
(-0.04682 0.133596 2.68137e-19)
(-0.0674411 0.205143 1.72504e-19)
(-0.0496696 0.189653 1.69217e-19)
(-0.0845369 0.230329 -1.39772e-19)
(-0.0725428 0.228439 1.85132e-19)
(-0.08316 0.217965 -3.11285e-19)
(-0.0744884 0.263897 -1.5001e-19)
(-0.0857356 0.193574 3.81322e-20)
(0.042189 0.0977812 -3.20232e-20)
(-0.0393023 0.100637 4.73559e-19)
(-0.0319696 0.0688323 0)
(-0.0430623 0.159961 5.23651e-19)
(-0.0382934 0.125862 4.97768e-19)
(-0.052495 0.213727 1.79977e-19)
(-0.0351441 0.19097 -5.21089e-21)
(-0.0649187 0.255851 1.88822e-19)
(-0.0542282 0.237657 -4.3393e-20)
(-0.0604471 0.26411 2.01381e-19)
(-0.0454228 0.307546 3.85413e-19)
(-0.0678979 0.233628 1.68597e-19)
(0.113909 0.14006 3.32407e-19)
(-0.0338283 0.089947 -8.15899e-22)
(-0.0294265 0.0517421 1.2268e-20)
(-0.0322086 0.155042 -1.41223e-21)
(-0.0314593 0.109015 -1.17014e-20)
(-0.0367165 0.217209 -2.17532e-19)
(-0.0219122 0.182909 -2.37343e-19)
(-0.0409929 0.279422 1.54613e-19)
(-0.0351688 0.230504 -1.96943e-19)
(-0.0277402 0.317472 3.57143e-19)
(-0.00571671 0.352182 3.67225e-19)
(-0.0446958 0.264194 1.99247e-19)
(0.211238 0.198389 -9.4833e-20)
(-0.0286753 0.0650802 3.14089e-21)
(-0.022307 0.132988 -2.36477e-19)
(-0.0190923 0.198325 -2.18253e-19)
(-0.00844058 0.284422 -8.10472e-21)
(0.0122946 0.363476 2.11542e-19)
(0.310837 0.262058 1.64306e-19)
(-0.125061 -0.163578 -7.84066e-20)
(-0.0476691 -0.187026 -1.26218e-19)
(-0.206117 -0.201294 -9.53133e-20)
(-0.0952791 -0.0774365 9.09708e-20)
(-0.115649 -0.11977 4.87036e-20)
(-0.174582 -0.0966043 3.24722e-20)
(-0.00512222 0.00368593 6.80663e-21)
(-0.052726 -0.0454952 7.35971e-20)
(-0.0561136 -0.00980035 7.87678e-20)
(0.104014 0.0709022 -1.09678e-20)
(0.0320672 0.0244529 -2.59513e-20)
(0.0673773 0.0648394 -7.02031e-20)
(0.217981 0.124305 4.75156e-20)
(0.132852 0.0820701 3.59033e-20)
(0.197252 0.124028 3.59033e-20)
(0.328427 0.165012 -1.3028e-20)
(0.235092 0.128283 1.12517e-20)
(0.321942 0.169059 1.12517e-20)
(0.430834 0.194522 -6.68695e-21)
(0.33328 0.163847 -4.49566e-20)
(0.437019 0.201511 -2.47736e-20)
(0.523026 0.214286 6.05276e-21)
(0.423917 0.189804 2.05137e-20)
(0.540044 0.223109 1.22262e-22)
(0.60424 0.225703 9.56824e-21)
(0.50535 0.207269 -5.53139e-22)
(0.630184 0.235488 -4.04049e-20)
(0.674565 0.230059 3.17587e-20)
(0.577042 0.217351 1.11788e-20)
(0.707565 0.240167 4.88014e-20)
(0.734677 0.228538 -8.43421e-21)
(0.639135 0.221096 7.01788e-22)
(0.773011 0.238541 3.24529e-22)
(0.785599 0.222243 -7.40115e-21)
(0.692256 0.21951 -2.18041e-20)
(0.827764 0.23187 -1.13538e-20)
(0.828522 0.212182 1.36337e-20)
(0.737315 0.213549 2.01805e-20)
(0.873264 0.221286 1.21978e-20)
(0.864693 0.199255 -6.12358e-22)
(0.775364 0.204085 6.08234e-21)
(0.910997 0.207783 1.43116e-21)
(0.895324 0.184267 -5.32591e-21)
(0.807483 0.191932 1.08246e-22)
(0.942391 0.192226 -8.06502e-21)
(0.921543 0.167927 -5.78904e-22)
(0.834748 0.177818 -5.2446e-22)
(0.968765 0.17537 3.21105e-21)
(0.94438 0.150861 -1.81645e-22)
(0.858146 0.162377 2.53372e-21)
(0.991273 0.157859 -1.18806e-21)
(0.964732 0.133629 4.43332e-22)
(0.878626 0.146197 -1.3003e-21)
(1.01093 0.140242 -1.14841e-21)
(0.983376 0.116744 -1.59182e-21)
(0.896981 0.129816 1.59129e-22)
(1.02852 0.123042 1.7358e-21)
(1.00094 0.100639 -2.23395e-21)
(0.914111 0.113686 -5.32305e-21)
(1.04493 0.106613 -4.71063e-21)
(1.01803 0.0857304 1.17811e-21)
(0.930163 0.0983 5.65471e-21)
(1.06008 0.0916199 5.84953e-22)
(1.03489 0.0721407 -1.4551e-22)
(0.947229 0.0837518 3.73246e-21)
(1.07651 0.0775272 7.01126e-21)
(1.0519 0.0599905 2.91302e-20)
(0.961513 0.0709255 4.98636e-22)
(1.08844 0.0665645 -1.71931e-21)
(0.987384 0.0556181 -2.58452e-21)
(1.11739 0.05194 -1.19812e-21)
(-0.058706 -0.1507 6.51239e-21)
(-0.0102602 -0.15565 6.21962e-21)
(-0.0702777 -0.0921182 3.76971e-20)
(-0.0830466 -0.11752 5.77631e-20)
(-0.0183725 -0.0262791 3.83259e-20)
(-0.0520474 -0.0646913 -2.7911e-20)
(0.0596535 0.0341545 1.90618e-20)
(0.00364387 -0.00546763 -2.16687e-20)
(0.148259 0.0851213 0)
(0.0787032 0.0467182 0)
(0.2385 0.126436 -1.9902e-20)
(0.159322 0.0911101 0)
(0.325147 0.158622 -1.86188e-20)
(0.239693 0.127513 2.1733e-22)
(0.405233 0.182405 1.4159e-20)
(0.315992 0.156196 1.8153e-20)
(0.47733 0.198639 6.85121e-22)
(0.385976 0.177659 2.52648e-20)
(0.540947 0.208209 -2.00245e-20)
(0.44861 0.192549 -2.1622e-20)
(0.596199 0.211997 -1.24472e-20)
(0.50355 0.201551 -1.56262e-20)
(0.643598 0.210865 5.1505e-21)
(0.550955 0.205373 -2.84967e-21)
(0.683911 0.20563 1.27529e-20)
(0.591312 0.204721 1.40894e-20)
(0.718033 0.19707 6.36806e-21)
(0.625326 0.200287 -2.15137e-21)
(0.746895 0.185931 4.42205e-21)
(0.65382 0.192768 5.23449e-21)
(0.771431 0.172868 1.33794e-21)
(0.677688 0.182768 -9.20724e-22)
(0.792557 0.158461 1.66691e-21)
(0.697812 0.170799 4.51052e-22)
(0.811137 0.143247 1.89825e-23)
(0.715081 0.157381 4.40147e-22)
(0.827977 0.127715 -3.53554e-21)
(0.730342 0.142972 -2.52409e-22)
(0.843804 0.112273 4.69156e-21)
(0.744443 0.128004 -3.28225e-21)
(0.85925 0.0973935 7.67734e-21)
(0.757974 0.112901 5.69531e-21)
(0.874804 0.0832681 -1.32695e-21)
(0.771968 0.0981396 -6.69502e-22)
(0.890473 0.0696178 1.29569e-20)
(0.785834 0.0840823 -6.98905e-22)
(0.802919 0.0700127 -3.15325e-21)
(-0.0444184 -0.126708 5.78164e-20)
(-0.0144883 -0.126812 1.74363e-20)
(-0.0621073 -0.093743 -7.02091e-21)
(-0.0725088 -0.10917 -1.31834e-20)
(-0.032879 -0.045036 -9.16229e-20)
(-0.0578371 -0.0743162 -6.15341e-20)
(0.0215373 0.00577154 -4.16513e-20)
(-0.021377 -0.0273014 -1.22273e-20)
(0.0882833 0.0516524 0)
(0.033147 0.0175546 0)
(0.159256 0.09132 2.01163e-20)
(0.0948229 0.0582881 2.36915e-20)
(0.229472 0.124345 3.73557e-20)
(0.158256 0.0938094 -1.00033e-20)
(0.295816 0.150783 2.98083e-20)
(0.219838 0.123763 2.46451e-20)
(0.356468 0.170943 2.75126e-21)
(0.277236 0.148114 -5.26813e-21)
(0.410528 0.185294 -1.7235e-20)
(0.329126 0.167058 -1.96551e-20)
(0.457717 0.194357 -6.15868e-21)
(0.374887 0.180885 4.00784e-21)
(0.498168 0.198705 4.96248e-21)
(0.414378 0.189988 -2.09195e-21)
(0.532316 0.198919 -1.43953e-21)
(0.447805 0.194778 -1.91243e-22)
(0.560796 0.195591 -4.81402e-21)
(0.475622 0.195688 1.74919e-21)
(0.584368 0.189268 -1.35136e-21)
(0.498473 0.193174 -3.03655e-21)
(0.603872 0.180395 -3.06388e-21)
(0.517109 0.187608 4.83242e-22)
(0.620176 0.169419 -1.39342e-21)
(0.532365 0.179322 -2.54917e-21)
(0.63416 0.15678 -3.81218e-25)
(0.545096 0.168674 7.74253e-22)
(0.646681 0.142882 8.19053e-22)
(0.556163 0.155985 1.17307e-21)
(0.65855 0.128151 -8.02128e-22)
(0.566416 0.141626 1.22408e-21)
(0.670455 0.113131 -1.42395e-21)
(0.576643 0.126086 -2.96585e-21)
(0.682921 0.0983686 -1.74119e-23)
(0.587539 0.110118 2.90677e-23)
(0.695987 0.0844847 -2.65614e-21)
(0.599075 0.0947779 1.75644e-21)
(0.609572 0.0817683 -2.17378e-21)
(-0.0506231 -0.109069 -6.26834e-20)
(-0.0320352 -0.104991 -2.70415e-20)
(-0.065565 -0.0917068 -6.83802e-20)
(-0.0746587 -0.10121 -5.29514e-20)
(-0.0488844 -0.0573708 1.81217e-20)
(-0.0680433 -0.0795819 -5.41496e-21)
(-0.0108803 -0.0165343 2.92195e-20)
(-0.0432652 -0.0440657 1.50993e-20)
(0.0384751 0.0232633 2.33315e-20)
(-0.00347684 -0.00679356 0)
(0.0927896 0.0599318 -6.66523e-21)
(0.0431945 0.0293983 1.1812e-20)
(0.147747 0.0924473 -2.37758e-20)
(0.0922621 0.0629354 -3.10126e-20)
(0.2005 0.120349 -1.08549e-20)
(0.140589 0.0929979 2.33895e-22)
(0.249226 0.143486 -2.83128e-20)
(0.186092 0.119137 -1.30003e-20)
(0.292892 0.161884 2.41796e-21)
(0.227475 0.141134 -2.45185e-21)
(0.331013 0.175712 9.22882e-21)
(0.264045 0.158926 1.19287e-20)
(0.363525 0.18521 -8.63339e-21)
(0.295528 0.172562 -1.55187e-21)
(0.390671 0.190656 3.12677e-21)
(0.321963 0.182135 -7.74424e-21)
(0.412908 0.192364 4.98629e-21)
(0.34368 0.187794 9.00367e-21)
(0.430873 0.190618 -2.6397e-21)
(0.361185 0.18969 -4.0484e-21)
(0.44531 0.185666 9.26593e-22)
(0.375109 0.187933 2.33543e-21)
(0.457027 0.177755 -3.12068e-22)
(0.386199 0.182642 -1.62462e-21)
(0.466873 0.167125 6.68863e-22)
(0.395249 0.173965 7.42811e-22)
(0.475701 0.154068 5.08137e-22)
(0.403076 0.162076 3.90223e-22)
(0.484329 0.139007 -1.27189e-21)
(0.410507 0.147279 -3.56914e-23)
(0.493492 0.122628 -8.90466e-22)
(0.418355 0.130127 -1.26927e-21)
(0.503772 0.106015 7.97572e-22)
(0.427195 0.11165 6.89071e-22)
(0.515311 0.0909315 -8.17307e-21)
(0.436553 0.0938506 5.10027e-23)
(0.444228 0.0802903 1.77718e-22)
(-0.0632091 -0.0962505 -1.51408e-20)
(-0.0525216 -0.0883782 -4.11014e-21)
(-0.0750592 -0.0898722 9.01829e-21)
(-0.0830226 -0.0950486 2.72847e-22)
(-0.0644075 -0.0668088 -7.24605e-21)
(-0.0793948 -0.0837536 -3.8224e-21)
(-0.0368404 -0.0350084 -1.39154e-20)
(-0.0609176 -0.0582133 -1.35547e-20)
(0.00026185 -0.00133498 -1.18428e-20)
(-0.0304771 -0.0280732 1.20883e-22)
(0.0418445 0.0317569 -1.21929e-20)
(0.00581182 0.00345759 -1.12747e-20)
(0.08442 0.0628975 -7.5724e-21)
(0.0443179 0.0344905 0)
(0.125605 0.0912618 -1.75669e-21)
(0.0824734 0.0638902 -7.67094e-21)
(0.163848 0.116322 1.30933e-20)
(0.118539 0.0908707 6.70792e-21)
(0.19821 0.137761 7.09892e-21)
(0.151427 0.114892 4.18582e-21)
(0.228195 0.15541 1.46495e-21)
(0.180559 0.135602 0)
(0.253654 0.169179 -5.87205e-22)
(0.205701 0.152753 2.78762e-21)
(0.274714 0.179031 -2.11829e-21)
(0.226906 0.16614 -2.33036e-21)
(0.291739 0.184964 0)
(0.244447 0.175596 -1.73819e-22)
(0.305258 0.186966 9.41013e-22)
(0.258751 0.180989 -1.11408e-22)
(0.315899 0.185024 -2.31248e-22)
(0.270353 0.182187 1.10448e-21)
(0.324365 0.179144 -5.85481e-22)
(0.279915 0.179092 -1.25954e-21)
(0.331427 0.169378 5.31207e-22)
(0.288087 0.171625 6.66929e-22)
(0.337871 0.155898 -8.9082e-23)
(0.295511 0.15981 -6.2471e-22)
(0.344455 0.139123 -2.51619e-23)
(0.302842 0.143897 2.83347e-23)
(0.351851 0.119888 -2.54807e-23)
(0.310685 0.124519 -6.07575e-22)
(0.3606 0.0998593 -5.36987e-23)
(0.319399 0.102958 -7.23806e-23)
(0.370992 0.0823549 -5.4331e-23)
(0.328519 0.0818035 -5.58939e-22)
(0.337061 0.0662784 -1.26812e-24)
(-0.0775691 -0.0868119 1.28324e-20)
(-0.072336 -0.0762111 1.37336e-20)
(-0.0860453 -0.0892724 -1.24834e-20)
(-0.0931814 -0.0911406 4.56681e-21)
(-0.077381 -0.0755376 -9.42873e-21)
(-0.0891627 -0.0884431 -1.47614e-20)
(-0.0554174 -0.0516993 2.80456e-22)
(-0.0729388 -0.0714508 1.3178e-22)
(-0.0257358 -0.0237055 8.79899e-22)
(-0.0472603 -0.0477531 1.20883e-22)
(0.00761364 0.00578429 7.61213e-22)
(-0.0168774 -0.020658 7.50762e-22)
(0.0418214 0.0351315 0)
(0.0152689 0.0077291 0)
(0.0749561 0.0632198 6.22203e-22)
(0.0471413 0.036046 -3.05627e-21)
(0.105746 0.0892218 -2.15427e-21)
(0.0774089 0.0632577 6.29712e-22)
(0.133466 0.112549 -2.85119e-21)
(0.105251 0.0885215 -6.35453e-21)
(0.157796 0.132755 1.31934e-21)
(0.130239 0.111184 2.93182e-22)
(0.178725 0.149473 1.11639e-21)
(0.15224 0.130709 1.33241e-21)
(0.19644 0.162374 -4.04825e-22)
(0.171371 0.146651 7.50662e-22)
(0.211275 0.171165 -2.85748e-22)
(0.187867 0.158614 -1.86758e-22)
(0.223691 0.175575 -2.49437e-22)
(0.202083 0.166236 -6.45589e-22)
(0.234237 0.175393 -2.14032e-22)
(0.214439 0.169167 -8.06341e-22)
(0.243503 0.17048 -1.96746e-23)
(0.225386 0.167148 6.3864e-22)
(0.252032 0.160768 1.01272e-22)
(0.235387 0.16006 -2.35002e-23)
(0.260321 0.14637 7.7607e-23)
(0.244903 0.147899 1.30839e-22)
(0.268831 0.127755 1.28064e-22)
(0.254368 0.130905 -2.8186e-22)
(0.277948 0.106009 2.25282e-23)
(0.264135 0.109768 4.49088e-22)
(0.287913 0.0834203 -1.96561e-23)
(0.274484 0.0860044 -1.5849e-22)
(0.298601 0.0646296 5.25206e-23)
(0.285762 0.0629019 7.20472e-23)
(0.298571 0.047165 -2.95595e-22)
(-0.0914075 -0.0804058 6.03272e-21)
(-0.0898405 -0.0676721 -3.14707e-20)
(-0.0955924 -0.0904117 2.8023e-21)
(-0.102385 -0.0895896 7.72536e-21)
(-0.0858771 -0.084682 -5.40022e-21)
(-0.0952749 -0.0944102 -5.30164e-21)
(-0.065574 -0.067855 0)
(-0.0779735 -0.0848189 0)
(-0.039124 -0.0450504 0)
(-0.0531755 -0.0668464 0)
(-0.00981096 -0.0190296 0)
(-0.0247339 -0.0438204 0)
(0.0201061 0.00835424 -3.01701e-21)
(0.00494284 -0.018017 0)
(0.0492077 0.0357969 -3.09272e-21)
(0.0342669 0.00892084 -5.21011e-21)
(0.0765952 0.0622563 -3.49346e-21)
(0.0622865 0.0357629 4.90988e-21)
(0.101755 0.0868406 -3.27538e-21)
(0.0884583 0.0614692 -4.55963e-21)
(0.124456 0.108814 2.96059e-22)
(0.112516 0.085193 4.60861e-21)
(0.144696 0.127565 9.91187e-22)
(0.134408 0.106187 0)
(0.162635 0.142576 1.01502e-21)
(0.154239 0.12381 1.00046e-21)
(0.178537 0.153396 -5.42303e-22)
(0.172215 0.137502 -8.8535e-22)
(0.19272 0.159625 -1.21951e-21)
(0.188608 0.146778 2.34181e-22)
(0.205492 0.16089 3.63024e-23)
(0.203734 0.151237 -6.63753e-22)
(0.217188 0.156918 6.59012e-22)
(0.217868 0.150511 7.05592e-22)
(0.228191 0.147613 -1.42949e-23)
(0.231341 0.144327 -5.20743e-23)
(0.238884 0.133093 -2.05174e-22)
(0.244508 0.132587 3.84081e-23)
(0.249626 0.113839 2.58788e-23)
(0.257685 0.115459 2.16982e-22)
(0.260722 0.091014 3.96703e-22)
(0.271141 0.0935893 -9.71353e-23)
(0.272332 0.067147 -6.81598e-23)
(0.285332 0.0685795 -4.23445e-22)
(0.284309 0.0473705 -6.19421e-23)
(0.301458 0.0440912 1.8355e-22)
(0.321383 0.0271766 -6.65429e-23)
(-0.103118 -0.0766577 -3.03788e-20)
(-0.104224 -0.0617653 -5.22879e-23)
(-0.101792 -0.0934998 0)
(-0.10863 -0.0902457 -4.87204e-20)
(-0.0883823 -0.0948138 0)
(-0.0961166 -0.101955 9.2457e-21)
(-0.06635 -0.0841423 0)
(-0.074758 -0.0988665 -1.56139e-20)
(-0.0394756 -0.0659666 0)
(-0.0474591 -0.0859372 6.60133e-21)
(-0.0105382 -0.0431334 0)
(-0.0175163 -0.0664998 1.7812e-20)
(0.0186495 -0.0177137 -2.17306e-21)
(0.0130719 -0.0430309 0)
(0.0469804 0.00873048 2.63519e-21)
(0.0430874 -0.0173993 2.36828e-21)
(0.0738235 0.0349698 3.81057e-21)
(0.0718659 0.00896628 7.46797e-21)
(0.0989396 0.0599884 2.88781e-21)
(0.0991313 0.0347875 -1.16693e-21)
(0.122218 0.0828954 4.16613e-21)
(0.124801 0.0591542 7.37522e-21)
(0.143727 0.10292 0)
(0.14896 0.0811588 -2.15757e-21)
(0.163618 0.119381 -5.6376e-22)
(0.171776 0.100059 0)
(0.182109 0.131674 -1.49486e-22)
(0.193465 0.115188 -2.63497e-21)
(0.199465 0.13929 4.30973e-22)
(0.21428 0.125954 1.51148e-21)
(0.215977 0.141807 0)
(0.234493 0.13186 -5.41011e-22)
(0.23193 0.138879 0)
(0.254373 0.132483 0)
(0.247606 0.130265 0)
(0.274171 0.127484 -5.7627e-22)
(0.263296 0.11592 4.59373e-22)
(0.294126 0.116645 0)
(0.279308 0.0961761 3.60463e-22)
(0.314455 0.0999681 -2.0966e-22)
(0.295943 0.0720915 -4.97701e-22)
(0.335315 0.0778797 -1.08098e-21)
(0.313622 0.0461985 -6.81655e-23)
(0.35714 0.0513773 -5.24489e-22)
(0.331907 0.0237222 6.27845e-23)
(0.381009 0.0250751 1.93885e-22)
(0.409812 0.0055263 -1.3259e-22)
(-0.111426 -0.0750251 -1.70995e-20)
(-0.115077 -0.0577639 2.974e-20)
(-0.103034 -0.0984654 -4.06886e-20)
(-0.110573 -0.0928443 1.2078e-20)
(-0.0834956 -0.106176 -6.30467e-21)
(-0.0902282 -0.111027 3.80439e-20)
(-0.0566921 -0.100934 -9.15172e-21)
(-0.0619103 -0.113718 -1.56139e-20)
(-0.02621 -0.0867799 2.4243e-20)
(-0.0290426 -0.105128 6.60133e-21)
(0.00552555 -0.0666915 1.806e-20)
(0.00541754 -0.0887085 -1.21835e-22)
(0.0370493 -0.0429726 4.51092e-21)
(0.0398214 -0.0671657 0)
(0.0675969 -0.0174098 7.12401e-21)
(0.0733114 -0.0426301 1.23637e-20)
(0.0968605 0.00858803 2.58656e-21)
(0.105546 -0.0167539 -6.46007e-21)
(0.124729 0.0338416 3.2157e-21)
(0.136494 0.00910121 -5.00173e-21)
(0.151313 0.0573582 1.14509e-21)
(0.166279 0.0338522 -1.65863e-22)
(0.176819 0.0782871 -2.17757e-21)
(0.195154 0.0564964 1.91443e-22)
(0.20147 0.095876 -2.04807e-21)
(0.223385 0.076259 -1.58862e-21)
(0.225525 0.109464 -1.11105e-21)
(0.251266 0.0924034 1.22381e-21)
(0.249245 0.118471 5.55795e-22)
(0.279071 0.104293 1.54971e-22)
(0.272883 0.122404 -5.45113e-22)
(0.307047 0.111383 7.68368e-22)
(0.29667 0.12085 -5.72092e-22)
(0.335413 0.113225 -7.06805e-22)
(0.320807 0.113492 -5.80275e-22)
(0.364337 0.109448 -4.25508e-23)
(0.345468 0.100167 -6.67635e-22)
(0.39393 0.0997832 -5.35698e-22)
(0.370809 0.0810064 -1.3073e-21)
(0.424242 0.0841107 -1.53833e-22)
(0.396905 0.0567475 -1.1112e-21)
(0.455173 0.0627224 -2.78151e-21)
(0.423584 0.0294578 -2.66716e-22)
(0.486798 0.0365317 1.97152e-21)
(0.450928 0.00429494 1.32075e-20)
(0.519504 0.00851994 2.12652e-22)
(0.557251 -0.0134816 -2.14722e-22)
(-0.115635 -0.0750532 5.94367e-20)
(-0.121928 -0.0550455 -4.59963e-20)
(-0.0982198 -0.1051 9.02484e-20)
(-0.107079 -0.0970416 4.9131e-20)
(-0.0697435 -0.11869 2.93338e-20)
(-0.0760377 -0.121456 -3.95684e-20)
(-0.0351987 -0.118148 0)
(-0.0377583 -0.129132 1.36525e-20)
(0.00179819 -0.10733 -1.75739e-20)
(0.00359732 -0.124037 -1.24894e-20)
(0.039086 -0.0894398 -1.80935e-20)
(0.045273 -0.109887 -1.64742e-20)
(0.0755734 -0.0670465 7.69394e-21)
(0.0859683 -0.0897171 1.31454e-20)
(0.110829 -0.0421651 -8.4311e-22)
(0.12521 -0.0659201 7.79406e-21)
(0.144829 -0.0163904 -1.38188e-20)
(0.163008 -0.0403567 -1.31023e-20)
(0.17774 0.00898302 -8.27004e-21)
(0.199606 -0.0145055 -7.30537e-21)
(0.20986 0.0328884 -1.14523e-21)
(0.235368 0.0104392 -1.07686e-21)
(0.241497 0.0543995 6.03984e-22)
(0.270705 0.0334593 2.74013e-21)
(0.272997 0.0727305 1.34727e-21)
(0.306005 0.053707 -2.33522e-21)
(0.304665 0.0871971 2.56917e-21)
(0.341627 0.070452 4.64641e-21)
(0.336762 0.0971991 3.32426e-22)
(0.377854 0.0830659 -9.44421e-22)
(0.369508 0.102234 9.52917e-22)
(0.414909 0.0909966 6.82079e-22)
(0.403057 0.101879 -1.3875e-22)
(0.452934 0.093829 -7.65151e-22)
(0.437485 0.0958017 4.94031e-23)
(0.49198 0.0912384 4.74129e-22)
(0.472776 0.0838005 1.30265e-22)
(0.531973 0.0830015 1.41487e-22)
(0.508795 0.0658984 -1.14681e-21)
(0.572712 0.0690585 6.74032e-22)
(0.545324 0.0425279 -2.31475e-22)
(0.613747 0.0495992 -1.83695e-21)
(0.581991 0.0152591 2.88662e-21)
(0.654996 0.0252971 2.86953e-21)
(0.618051 -0.0114284 0)
(0.695347 -0.00189566 4.16057e-22)
(0.74211 -0.0241602 -7.73578e-22)
(-0.114702 -0.0763248 -5.85825e-20)
(-0.124545 -0.053187 3.16236e-20)
(-0.085793 -0.113015 -7.87595e-20)
(-0.0968579 -0.102404 -2.53758e-20)
(-0.0453545 -0.131987 -5.63497e-20)
(-0.0517599 -0.132781 -2.87805e-20)
(-6.77711e-05 -0.135259 1.03597e-21)
(-0.0002947 -0.144463 7.30097e-20)
(0.0461774 -0.126872 -1.13291e-20)
(0.0523773 -0.141755 -1.24894e-20)
(0.0914334 -0.110427 1.46434e-20)
(0.103658 -0.128859 -1.43114e-20)
(0.135022 -0.0888126 1.33143e-20)
(0.152665 -0.109278 2.36857e-20)
(0.176899 -0.0642776 -4.23492e-21)
(0.19939 -0.0856754 2.73946e-21)
(0.217362 -0.0385686 -6.61173e-21)
(0.244252 -0.0600991 5.33041e-21)
(0.256853 -0.0130765 -2.90212e-22)
(0.287815 -0.0341343 -7.26838e-21)
(0.295873 0.0110529 2.77103e-21)
(0.330693 -0.00903872 4.13527e-21)
(0.334899 0.032863 1.45338e-22)
(0.373454 0.0141495 4.63881e-22)
(0.374355 0.0515592 2.88916e-22)
(0.416572 0.0345789 2.14171e-21)
(0.414575 0.066468 6.86179e-22)
(0.460422 0.0515545 -2.97786e-21)
(0.455808 0.0770128 -1.02583e-21)
(0.50527 0.0644924 3.50514e-21)
(0.4982 0.0827296 -1.13806e-21)
(0.551274 0.0729019 -2.13133e-21)
(0.541786 0.0832926 -1.61258e-22)
(0.59845 0.0764215 6.28343e-22)
(0.586466 0.078505 7.41631e-22)
(0.646678 0.0748335 9.29076e-23)
(0.631967 0.0682985 8.57183e-22)
(0.695631 0.0680744 2.71574e-22)
(0.677842 0.0528086 0)
(0.744908 0.05626 -1.09949e-21)
(0.723482 0.0323989 0)
(0.793658 0.0396845 1.32729e-21)
(0.768092 0.00821737 4.13579e-22)
(0.84207 0.0191266 -4.33441e-22)
(0.810414 -0.0169151 3.39533e-20)
(0.886348 -0.00447472 -2.10716e-21)
(0.942229 -0.0235096 -2.43091e-21)
(-0.108188 -0.0784471 6.55053e-20)
(-0.122675 -0.0517799 1.96031e-19)
(-0.0642279 -0.121797 2.51326e-20)
(-0.0785499 -0.10861 -1.36103e-20)
(-0.00828229 -0.145376 9.88574e-20)
(-0.0153213 -0.144319 -4.18515e-20)
(0.0508454 -0.151235 6.03498e-20)
(0.0527773 -0.158629 -5.5053e-23)
(0.10881 -0.144048 -1.54129e-20)
(0.119409 -0.156759 2.29678e-20)
(0.164046 -0.127963 -5.47497e-21)
(0.182299 -0.143788 -3.81607e-20)
(0.216337 -0.106287 1.3431e-20)
(0.241166 -0.123708 1.90268e-20)
(0.266148 -0.0815447 1.17317e-20)
(0.296596 -0.0995123 -1.08433e-20)
(0.31419 -0.0556486 4.3435e-21)
(0.349457 -0.0734258 1.29379e-20)
(0.361207 -0.0300514 -3.47833e-21)
(0.400634 -0.0471123 -1.2351e-21)
(0.407883 -0.00588921 1.07814e-21)
(0.450953 -0.0218492 5.70932e-22)
(0.454781 0.0159195 2.78878e-21)
(0.501068 0.00135087 -3.11619e-21)
(0.50234 0.0346316 -1.3016e-21)
(0.551502 0.0216841 1.13518e-21)
(0.550867 0.0496373 -3.13792e-22)
(0.602628 0.0385267 4.24026e-22)
(0.600542 0.0604452 2.09174e-21)
(0.654686 0.0513834 -8.49345e-22)
(0.65138 0.066678 3.43227e-22)
(0.707729 0.0598922 -3.9011e-21)
(0.703225 0.0681005 7.94606e-22)
(0.761632 0.0638305 3.13245e-21)
(0.755746 0.0646565 -2.07782e-22)
(0.816156 0.0631519 1.03689e-22)
(0.808438 0.0564315 -1.40863e-21)
(0.870687 0.0579327 1.77357e-22)
(0.860717 0.0437499 -1.59655e-21)
(0.924926 0.0484107 -3.07357e-21)
(0.911796 0.0270855 9.04719e-22)
(0.977507 0.0349821 1.32729e-21)
(0.960502 0.00764896 -5.91045e-21)
(1.02947 0.0191662 3.43172e-22)
(1.0058 -0.0141071 -4.92508e-20)
(1.07279 0.000338947 7.67735e-21)
(1.13727 -0.0132704 3.38285e-21)
(-0.094949 -0.08102 1.21166e-19)
(-0.115747 -0.0504296 -1.61091e-19)
(-0.0316643 -0.130845 -8.00029e-20)
(-0.05049 -0.115149 0)
(0.0437984 -0.157775 -1.41992e-19)
(0.0356816 -0.155054 6.90869e-23)
(0.119756 -0.164499 -3.82896e-20)
(0.123891 -0.169991 -3.37535e-20)
(0.191634 -0.156817 1.91855e-21)
(0.206787 -0.166962 -4.2118e-20)
(0.258438 -0.139772 -1.38291e-20)
(0.282815 -0.152185 4.6866e-21)
(0.320664 -0.117132 -4.4105e-21)
(0.352444 -0.130323 -1.63477e-21)
(0.379298 -0.091572 -1.01765e-20)
(0.416876 -0.104702 -2.17144e-21)
(0.435409 -0.0650394 7.22038e-21)
(0.477489 -0.0776503 2.81504e-21)