/*--------------------------------*- C++ -*----------------------------------*  =========                 |
  \      /  F ield         | OpenFOAM: The Open Source CFD Toolbox
   \    /   O peration     | Website:  https://openfoam.org
    \  /    A nd           | Version:  11
     \/     M anipulation  |
\*---------------------------------------------------------------------------*/
FoamFile
{
    format      ascii;
    class       volScalarField;
    object      U;
}
// * * * * * * * * * * * * * * * * * * * * * * * * * * * * * * * * * * * * * //

dimensions      [0 1 -1 0 0 0 0];

internalField   nonuniform List<scalar> 
2880
( 
0.07159696024743233
0.1403517923242752
0.21966080860048937
0.26842485914604214
0.33860703883160564
0.44947796776749943
0.10002589058922834
0.16990473154817431
0.24245985409157703
0.28701998503451126
0.34945206165669357
0.4198148595833545
0.11338908851641372
0.18049996831849152
0.24646430436254615
0.2897856021725276
0.35316732915566096
0.42642917102285577
0.12539974057099695
0.18825424740896804
0.24749076108911627
0.29013950147510786
0.3555824252071866
0.4336171510012094
0.13808018144766013
0.19472857323963227
0.24773634706697661
0.2900195455853998
0.356235937528115
0.43600318414883665
0.15023929796612776
0.19993002934697218
0.24661157099079978
0.2894781133572024
0.3552147116969979
0.4345226380534233
0.16124105131363334
0.20350391119282427
0.24542006468012925
0.2886452995115
0.35290318552717287
0.4300162293548936
0.1700448643135278
0.20587995117373642
0.24448158855959684
0.2875906522297181
0.3504403625042249
0.4244566484947201
0.17738218280105997
0.20755277009584033
0.24336538006106626
0.28635314946078116
0.34764819678469405
0.41874232227109526
0.1831299006084867
0.20877640592697508
0.24214480203505356
0.2855666198399914
0.3458055495298588
0.41483931291677106
0.18713119906634257
0.20980737820502526
0.24272934022513468
0.28577283694697664
0.3455375747856001
0.4133737676552801
0.18935134135205553
0.21099886679169305
0.24444067943203104
0.2876290917358388
0.34666766377429165
0.41280289820941485
0.1895909571984025
0.21174890752617467
0.2468428259344518
0.29092263525675427
0.34956716955379075
0.4148261928741958
0.18798989807840813
0.21225345261259437
0.24928243074189024
0.295313677487691
0.3548064717706652
0.4202163024563211
0.18416205938438981
0.21215983676203212
0.2515827360708144
0.2998094314760223
0.36057916870657986
0.4264065141727818
0.1786661234283254
0.21149270397129627
0.25380972162046866
0.3037552741698971
0.3661627085190248
0.43297705254281094
0.17171321749411297
0.21025079218789516
0.25596159677775504
0.3064961816858387
0.37109382424464865
0.4395225378656174
0.1626622678022248
0.20789995743570627
0.2569054950931058
0.30867694821506925
0.3749095723773888
0.44519930711414846
0.15167548144249196
0.20364245819340088
0.2573417997567538
0.3094415515336318
0.3769746175733806
0.4496570612870774
0.13857109079820998
0.19684911681784917
0.25651075038266713
0.3081727088019973
0.37743278728837926
0.451738087422738
0.12377406894302032
0.18777603101995308
0.2539729834938125
0.30615112714220927
0.3756211539615831
0.45033292796210983
0.1090475493972623
0.17601268809608417
0.24920504885333325
0.30221963056028434
0.3722139927707288
0.4439612703612059
0.09302014937721301
0.1612220267483857
0.24021948189866013
0.2941352040678194
0.36889203334875775
0.43440407562292654
0.06370705467946337
0.1282869110536075
0.21371017332924389
0.268341647197266
0.36096507043079834
0.4352946865951658
0.822653053620843
0.9053598488359808
0.9471629012029849
0.9718137313362737
0.9880310534780546
0.9994449371781855
1.0110067176462734
1.0255650714947206
1.0417106644488165
1.0580419470824063
1.0729132181004168
1.08628324078884
1.0960139519517025
1.1022373693821539
1.1055569110426802
1.1061329733292677
1.104329325059139
1.1003633338684207
1.0948894002904213
1.0876469074617752
1.078994896242356
1.0674293262535
1.0534634557287013
1.0379870290024407
0.7224664749539752
0.8687711517256407
0.9289505313668592
0.95994063090887
0.9812902506352411
0.9965739699982927
1.010401441531408
1.0288169390788724
1.0491129514777437
1.0672125026431816
1.0820876358840845
1.093965722853988
1.1027582210259688
1.1077435884934923
1.1085495675723007
1.1076488586183422
1.1044876591049189
1.0999013906503399
1.093335247237389
1.0856170526856141
1.0765504039920955
1.0649565065948285
1.0505291025186634
1.0349958972472029
0.6551142534651057
0.8182521775564462
0.8943462492730517
0.9384617661321252
0.9665685771711418
0.9885107471063875
1.0082326322955604
1.0319727224104052
1.0542831748099188
1.0744340552919056
1.0902923950945207
1.1004350353005992
1.106751021120095
1.1091037867693607
1.1094504856597431
1.1072911121822644
1.103200925759867
1.0978912284551712
1.0904565522616896
1.0824732719177514
1.0723675902224377
1.0603954672091356
1.046412915201509
1.0304295124884548
0.6130483399679908
0.7654578595921347
0.8522677852272682
0.9068313874381013
0.9440367528817444
0.9740914529721585
1.0041693432817735
1.0327653089780005
1.0577663023629065
1.078401311629533
1.0939168560326507
1.1029752596118116
1.1072163729325215
1.1083704094540248
1.1072521122290062
1.1044401165045539
1.099002422119375
1.0933534611580078
1.0859502036105169
1.0770497982273917
1.0668827989154435
1.0553030971328536
1.0409351029989895
1.0254889675725625
0.5841803978996297
0.7204091038424821
0.8109497638790265
0.8727689979153264
0.917289572151218
0.956336264562774
0.9948122953245436
1.0293057935455174
1.057490897890493
1.0780246192784348
1.0923096034899933
1.1003903860077782
1.1035665670534032
1.1041092937254324
1.102327658385149
1.098703026465279
1.0936207681504932
1.0877238930998132
1.0801173429202602
1.0713328801176212
1.0615268572580392
1.0503687840842808
1.035979565409552
1.0206470360974205
0.5614413169480931
0.6837704712204248
0.7729816838319509
0.8400338137585441
0.8920168866812048
0.9395715707511042
0.9847396527277368
1.0233287926658687
1.053485015282679
1.074151874780478
1.0865966118566357
1.0933684233289298
1.0965747246784994
1.0961361674757049
1.0946049342315862
1.0908733365272982
1.0865130489542565
1.0802915384633958
1.0729503180969557
1.064428543639596
1.0553094480770833
1.0444429394618482
1.0303089371176588
1.0152203452267856
0.5417087507234812
0.653787390259674
0.7416232649650742
0.8116052809224183
0.8709625979921402
0.927432588988223
0.97676067913406
1.0173964904562682
1.0468780356415248
1.066420223494462
1.0781945829542394
1.0841330367873647
1.087028583016764
1.0872566040167915
1.0859964554188444
1.0827090022682886
1.078338800595742
1.0727608029091584
1.0659208915315423
1.058152306694764
1.0494280066818733
1.038755200125394
1.0252437108559083
1.0117818147050888
0.5253535579503217
0.6292124114792859
0.7159863875332243
0.7894684445830973
0.8553553914996825
0.9179115016076803
0.9706666731261515
1.0117073857705587
1.0400338200443853
1.0571512841559165
1.0685594123974689
1.0741342314136957
1.0772629418489386
1.0775549546153695
1.0767162045067675
1.0738111568680084
1.0698646397022051
1.06528014843262
1.0591283735965737
1.0517820747431803
1.0440926009428266
1.034300112660286
1.0216904972045486
1.008422506412912
0.512106649292438
0.6108580875267247
0.6979076741859982
0.7729541760104683
0.8464791144071301
0.9129290778937632
0.9674416226798316
1.007215453936755
1.0324181485412183
1.048575080205102
1.0584211784362916
1.0639880181354413
1.0671550845656281
1.0679651666082783
1.0670552878282904
1.064857603597145
1.0623316300987342
1.0579265944302412
1.05254141864412
1.0465773529682894
1.039101995687907
1.0306366396139464
1.0190273622510007
1.007854900668984
0.5034277742046825
0.5985668065188511
0.6861237927945852
0.7660611023563995
0.8450617360646994
0.9131304830325632
0.9656320749278953
1.0013161213499557
1.0243306235149419
1.0387202461550094
1.0484851577264418
1.0537030448611633
1.0570922583260467
1.0584994180427414
1.0578842402536281
1.0566676744909738
1.0544993053307348
1.0509104231387059
1.0473564086403024
1.041942248091195
1.0363678725732504
1.0291625031017402
1.0193451656622705
1.0093783792129456
0.49831677527520246
0.5935276811910528
0.6815095105809369
0.7665916508007397
0.8488656537644503
0.9166146456975778
0.9652647965778267
0.9969346823227293
1.017480190634882
1.0308113653158406
1.0394941234169741
1.0452701416220787
1.0485044529908354
1.0499436612347994
1.0502437457818774
1.0494468761967044
1.0478543229824153
1.0454894864195146
1.0425875202430743
1.039495298964863
1.035162887339773
1.0295525194165893
1.0215111610439818
1.0126806412438185
0.4967328702719118
0.5932360989078292
0.6832322142527144
0.7753901133374239
0.8590844365129848
0.9231657469153179
0.965991135334796
0.993643587629171
1.012096063905996
1.0243827939625916
1.032086649605379
1.0378502285123268
1.0413270198028033
1.0434900204774884
1.043907092890667
1.0436245759088623
1.042717469533685
1.0416149280715092
1.0405592394665115
1.0389100397668911
1.036808650869116
1.0326890408018652
1.0256770623071128
1.0176900776695463
0.49908611976222905
0.5966098733653716
0.6934388895826898
0.7910397946892294
0.8732384165309903
0.9310970675021527
0.968361564370218
0.9920875530375435
1.0079609305119293
1.019681877781351
1.027267695259043
1.0328105259058704
1.0366634763136218
1.0383434888703993
1.0388452329275173
1.0397213759161246
1.040741708085496
1.0411597243943707
1.0415516634425246
1.0415909513570916
1.0398902622917434
1.0371466157878715
1.0310179736792557
1.0238253564943847
0.5043973130465267
0.6040909509369122
0.7089207582004773
0.810776159913288
0.8882361857086425
0.938605802505116
0.9710031018308547
0.9914727045773537
1.0060759919822506
1.0171418487040382
1.0238825010558674
1.0285363258712619
1.0323348107676396
1.035742787866332
1.0380291913675932
1.040047899949145
1.0413793842083967
1.0427613161888267
1.0443240344001063
1.0456491117544884
1.0454424784690037
1.0429430860090365
1.037404581533971
1.0297638615344584
0.5131705112375992
0.6171403911859563
0.7312611775314242
0.8334031632191511
0.9031738448122797
0.9466500923714969
0.9737780268333913
0.9928225848767399
1.0061207414758429
1.0151420153286086
1.0224004037292524
1.0276922280983916
1.032008253167462
1.0343275034618085
1.0370828463602486
1.0406554349329622
1.044422415634938
1.0475595904099209
1.049623391455099
1.0509037678986766
1.0503674435419283
1.0482605857273217
1.0427170385891282
1.0350894724053368
0.5243478302978024
0.6378193411892291
0.7595963862429957
0.8559761560786949
0.9169488054154217
0.9539017130697318
0.9779616109336984
0.9940837047535988
1.005997308518881
1.0154131563277264
1.0215311825858913
1.026435365574414
1.030671467691513
1.035553431250748
1.0403789938716586
1.0446938653218163
1.048313472804368
1.0522265444032461
1.0551408448872934
1.057163347121876
1.0568859449053805
1.0543387471565728
1.0479893461619598
1.0397604457134608
0.5368903510262572
0.664632335289304
0.7922137311862395
0.8793926660337963
0.9306664415332461
0.9612488782249208
0.9823248569385282
0.9970051009115422
1.0074017698303175
1.0153039802362522
1.0215918545959424
1.0274345521880472
1.0326098801969006
1.0388023040259662
1.0446214625187265
1.050286385899768
1.0552293950806906
1.0587747402201337
1.0613684610427532
1.0630398121671651
1.0622145938272234
1.0588941774928489
1.052019577720669
1.043077452628782
0.5507406580165561
0.6983374926325334
0.8264615121979111
0.9004243291462002
0.9420533186747078
0.9686553667348199
0.9864847814483737
0.9995749015387404
1.009315268408743
1.0170623713072782
1.0239354459247711
1.0301409048025532
1.0375654109435106
1.0442863032236898
1.0504362512630439
1.0558518838756068
1.0612062604970123
1.0654049640805392
1.068040694777867
1.0679695840898316
1.0667128818742082
1.0623505674937894
1.0540943233450677
1.0438559029107364
0.5688032548285873
0.739742664026928
0.8574512677198904
0.9188978562203006
0.9531933140154002
0.9754453090447757
0.9907328003377625
1.0020850580014131
1.0108135775527138
1.019357832575367
1.0258933976996774
1.0338504433375413
1.0418031686133957
1.0501757870599022
1.0569496181053295
1.0633295313922053
1.0674854604055923
1.0715030425052352
1.073323480130089
1.073234759961994
1.069841282894058
1.0644549217125123
1.0553133174381752
1.0437552147650322
0.5927255555339308
0.7847475249477353
0.8854631506785544
0.9345482361537168
0.9623022457766031
0.9809152964021689
0.993977393072689
1.0044947427733766
1.0128593137977087
1.0209279891264562
1.0302523948817823
1.040427290345267
1.049058771153409
1.057162275925109
1.0639330197244752
1.0698772155670526
1.074520584439978
1.0776364816043162
1.0780245152755186
1.0768867094828554
1.072373835238559
1.0653379656505804
1.055514662289163
1.0431745480234078
0.6272632613189321
0.8284012230839712
0.9094372182516526
0.9484315542088176
0.9703558987693317
0.9857700260362705
0.9971641195185253
1.0067411720865274
1.015976917285006
1.0262992587039506
1.036165462304144
1.0465067002925392
1.0564551972940806
1.0648746508201203
1.0718938651515362
1.0770570374802733
1.0808202950373524
1.0826280031049316
1.0819010019982935
1.0794261575622712
1.0734486594517492
1.065420625642946
1.054574848794085
1.0411520798977951
0.6805639488550368
0.8655565782374188
0.9280727017446093
0.9582859743014852
0.976409774456345
0.9893537373167604
0.9997849018866075
1.0096102322599154
1.0193969470102322
1.0302187206337314
1.042759908805878
1.054804253085295
1.0644199619948396
1.0723589930923219
1.0793320061380567
1.0837338437965056
1.0862529102257898
1.0868955205759465
1.0848511706636441
1.080558309148758
1.0743490988729263
1.0649267702963636
1.053650233973553
1.0397812843753684
0.7525797474157351
0.8939063755173112
0.9406702534055827
0.9651226358789446
0.9804303523593764
0.9925434656494417
1.0020199509922758
1.011977036094441
1.0243852163544935
1.0374502424571186
1.0506105858213564
1.0628754861831249
1.0731780119966803
1.081213928046914
1.0866001526039017
1.089805006883283
1.0915654915192654
1.090015509053892
1.0871610272015442
1.0815036765270722
1.074592304242726
1.0648673749839532
1.052381834919492
1.0375718220173902
0.8328560275825803
0.9104511945591076
0.9460414495662507
0.9683389330283905
0.9826546111282441
0.9942413170011474
1.0038334850954278
1.0159878039390304
1.0302985946174006
1.045076863065761
1.0588890560091526
1.0712538401233929
1.0812930105381064
1.0883942530511732
1.093207298605318
1.0954333251608224
1.0950375985105836
1.0927588134117099
1.0884693072151295
1.0821172419032699
1.0742564235882472
1.0639942166403937
1.0506372232860461
1.0364613157790752
0.07313311191557377
0.14672912157082962
0.2290791795628347
0.2781113010185833
0.3481990781562878
0.45386697878918
0.10460117286079403
0.17870392788624986
0.2528112842273172
0.29619724171361994
0.3576613627598161
0.4261525660587459
0.11924923175570029
0.18962875225047052
0.2566671324358839
0.2987129041943134
0.36224401782524396
0.4353633606964244
0.1319897645331297
0.19757650658118958
0.25711407788008395
0.2990172653661979
0.36463447012157574
0.4440515231355832
0.1453116058582385
0.2039031344035619
0.2563865914427444
0.298729843762362
0.3653574871658653
0.4472752078148746
0.15820452162948906
0.20860180269509626
0.255525250623167
0.29800633733645887
0.36494448959699644
0.4463791096548967
0.17017082173514453
0.21181446759678974
0.2538271540633882
0.2969478118983711
0.3631195663405889
0.4427122759199537
0.17999406900727447
0.21464049563251436
0.25201087276861156
0.2954879971139964
0.36057460641081845
0.43727840205113766
0.18799732024285212
0.21670548098736037
0.2512117566351533
0.29403869110696285
0.35768489214561877
0.4312887049586616
0.1942015486310211
0.21825115967363057
0.25108608130709276
0.2935974467116697
0.3556339378238118
0.4269663893893649
0.1986881957927131
0.21943190163753196
0.25145170613939627
0.29367685323052584
0.3549529968082418
0.42532096998822067
0.20083850628971348
0.22033578897086512
0.2527898498128379
0.29477729152823845
0.3559740266386666
0.4253557701243603
0.2009316691420036
0.22098567381301565
0.2546877537810681
0.2979431800741037
0.35926229569887547
0.42710255960202587
0.1989995768017741
0.2212948767774736
0.25715101804105917
0.3023499455195042
0.36389893795440814
0.431262246793997
0.19480580073509884
0.22121999731845693
0.25961833162745396
0.3068695884174995
0.3691981069463996
0.4368783047744238
0.18885000491404513
0.2204289615050344
0.26171890031735384
0.31092545489897694
0.3743501550995475
0.4428604181297813
0.18132325753829667
0.21894363468781383
0.2631171761386432
0.31405788684839797
0.37870573455984835
0.44842444945510723
0.17169686179017887
0.2161708649512235
0.26461186300817974
0.3159351723949356
0.3822185310652088
0.4533189376142875
0.16003605711535399
0.2119361733640751
0.26490287447416533
0.31603614939798097
0.3840295462404251
0.45702786532845846
0.1462340466584591
0.20549125313959257
0.26428266906080805
0.31545937208684227
0.3839346531985256
0.45796971901832295
0.13007065449225336
0.1960553528838267
0.2619115719244621
0.3129680722297796
0.38176924860719536
0.4557885582711965
0.11428405137886041
0.18393300635092433
0.2569478746245785
0.30896608401767517
0.37805637601742104
0.4488896606949544
0.09704092972983719
0.16871972981390618
0.2479629244000183
0.3008701541316784
0.37423752985278724
0.43900154704422195
0.06460956595780948
0.13378815333465163
0.220159391675189
0.27390820899166757
0.36594828678420727
0.4375311386396088
0.8223314785033371
0.9045583890094576
0.942844943331627
0.9668436238804473
0.9819798623792916
0.9941347876635137
1.0067111492641305
1.0202102998512161
1.0368323434021978
1.0536503491419011
1.0681671850739771
1.08049941645097
1.0892051338195397
1.095652991958515
1.0984267768696723
1.0995367752766319
1.0981675282362748
1.0945061463290824
1.0892435337382806
1.0821373038979085
1.0733302994440583
1.0629750845881953
1.0494201345353695
1.0342205935226014
0.7275353263045582
0.8722263321193391
0.9283724654747261
0.958826832701971
0.9776979055023443
0.9925128810073635
1.0076537059269883
1.0262682328943549
1.0445823309039675
1.0616828182138762
1.0774739209736544
1.0884716522657127
1.0968926041354214
1.101336702641216
1.1030868170799943
1.1023639273085024
1.0998799713790928
1.0948758753817762
1.0887727530795912
1.081467072613011
1.072338452535399
1.0613221202268148
1.047882669041276
1.0326490778510171
0.6648701368435631
0.8264824184924029
0.8998539107568727
0.9411253557893086
0.9672901516880446
0.9866769116394711
1.0081397130164027
1.0305591465503894
1.051390146154154
1.0699758924070144
1.0848161120536857
1.0952485637623393
1.101803540864251
1.1050010728969943
1.1052911632214353
1.1036699459243078
1.0999981969122352
1.0946174220843492
1.0880863263036713
1.0805881001465156
1.0711694343397833
1.0597331335403386
1.046133389204302
1.0305702955209863
0.6254915496902435
0.7796770225549308
0.8637925078789048
0.9152935476870228
0.9497099100923281
0.9786609839476544
1.0054309131360029
1.0322271779613819
1.0560792442699276
1.0758206647332478
1.0899424236105173
1.0990750892697942
1.104490716416532
1.106253868664303
1.1054513054001107
1.1028263911162404
1.098682270264465
1.0932487047706962
1.0863547389663468
1.0779264669072435
1.0681657435624832
1.057403596409147
1.0431712939673006
1.0283887656261068
0.5983610647403436
0.7382316952733111
0.8276626613267546
0.8866185053119267
0.9298967195546838
0.9656582554602824
1.0005342762523923
1.0315301233860292
1.0578555009203452
1.0776269472891047
1.0915709994074594
1.0995987471211015
1.1033851455475305
1.1043553895209366
1.1032252132407852
1.0998456806465298
1.095183854367126
1.0894796880058226
1.0829516201016531
1.0743417606661192
1.0648191681484358
1.053777758130769
1.039922405939272
1.0253151798860882
0.5765744845129668
0.7028622959610259
0.7940614387701396
0.8597312612531934
0.909607684207208
0.9540452883920038
0.9947700137719824
1.0294829023006355
1.0573462717323197
1.076781929095558
1.0894472881325854
1.0962701063976015
1.0990089656141
1.0997130745351016
1.0979960863822928
1.0948290918562091
1.0903671552117482
1.0850433960384054
1.078475975374072
1.0704560030623163
1.0612262206600631
1.0511002383824213
1.036853413401167
1.0229068118465623
0.5579428308013269
0.6745120105281801
0.7652849009630897
0.835895269039666
0.8928117151539178
0.9442832148652175
0.9899403515730114
1.0272672943002723
1.0546792967640233
1.073029183046203
1.0841180921558564
1.090486950958416
1.0931926514434234
1.0932651651789072
1.0915986819867796
1.088728794691111
1.0850616191746905
1.0792025550736322
1.072915575379722
1.0658672729581928
1.0571721604738151
1.0467215368183067
1.0333195494328253
1.019872083739272
0.5419301429412882
0.6513559196614405
0.7420038579349689
0.8165147528378586
0.8799978050955009
0.9386070871220359
0.987356333003615
1.0252967392884418
1.052281347861774
1.0686243405907474
1.077654135676159
1.0834192391002688
1.0859788365679979
1.0860305025506398
1.0846447710256748
1.0819118318144407
1.0783452985778477
1.0736760985148266
1.067735304182694
1.061160408607604
1.053306414936341
1.043824854841398
1.0310577867888977
1.0173438867360416
0.5285829316734243
0.632896022528425
0.7245112194474658
0.8022900502706714
0.8731283280502099
0.9364875267073456
0.9871223858075756
1.0242620922217451
1.0478562149032873
1.0624637092676108
1.0713498760142597
1.0763175836545023
1.0785539999967377
1.0785759596361055
1.0783027159851677
1.0761835506928858
1.0735247685182978
1.0688658246349176
1.0638373131714585
1.0569399772077026
1.0495469091861163
1.040584192655486
1.0288495317841455
1.0161591683494249
0.519464688373477
0.621112530263871
0.7133820308937485
0.7945784138327242
0.8721352848145508
0.9389731021089411
0.9894072259958072
1.023345973946292
1.0441349958514472
1.0572511511106335
1.0654359313403572
1.070508716442131
1.0721503414862137
1.0727070369058866
1.0730071218073622
1.0713029032088808
1.0682940678101738
1.0646737324178253
1.0600449410557737
1.0539981863596781
1.0469031365399315
1.0389397694766445
1.0278167583435294
1.015828687893529
0.5150282622506323
0.6162025576149395
0.708330030279137
0.795315859960152
0.87775015113441
0.9446630998750607
0.9916384680855872
1.021890722978739
1.0408610887901235
1.0527403032815077
1.0602070384790774
1.0647963476194306
1.0675560050669395
1.068399790538367
1.0679054686803346
1.067045036707036
1.06504637753053
1.0615405712055535
1.057691272282103
1.052804773385518
1.0466343679937684
1.0391223554970277
1.0288257517418817
1.0175991912806301
0.513451780021692
0.6152943179529033
0.7106579868989723
0.8047432328383313
0.8884544581999302
0.9520014489332564
0.9941401516102181
1.021190123963696
1.038261387063776
1.049273531786661
1.0565772524828887
1.0613815746363984
1.0638598850618473
1.0651771364488256
1.0657330147092001
1.0644838862314554
1.0626602008649488
1.0601562753199743
1.0567315761886418
1.052754811429782
1.0475049323141084
1.040716328578597
1.0310298240129203
1.0199094273952394
0.5139671982574613
0.6178165326432729
0.7184497669116905
0.8189333614488578
0.9016540531943947
0.9604255083628161
0.9973161139435608
1.0206960130109275
1.036432851936895
1.0476453833276642
1.054347892346419
1.0594179585043881
1.0621539782887222
1.0641143761736362
1.0645023402820393
1.0641669971659407
1.062242713786393
1.0599105155070159
1.057976471340929
1.0548752148441007
1.0504626410913351
1.043963716801316
1.0346460358300813
1.0240882380783778
0.5194156630476469
0.6241219532932957
0.7324040095140465
0.8365801610804874
0.9153613031449545
0.9671704256395018
0.9995020598421362
1.0207553687445934
1.0358288076593212
1.0460110020290394
1.0532741704331088
1.0585003364261556
1.062106637747572
1.0640212792248116
1.0644367865652289
1.0644425934412398
1.063916372970926
1.0631299073452924
1.0614063120116417
1.0584811300984263
1.054406455485605
1.0487264392284132
1.0393590958586063
1.028250357026588
0.5275737073795901
0.6357379411529768
0.7520236789832656
0.8555173551105789
0.92739868479579
0.9722123619120944
1.0014734505206888
1.0207866800018555
1.034999202335042
1.0455394159505158
1.0530966098273848
1.0583780596224666
1.0618264396164476
1.0650223854016017
1.066345971522274
1.0671526271003255
1.0681381321227015
1.0675007834073558
1.0663174797718855
1.0639177962625392
1.0601254026004348
1.0537772471192068
1.0443750412896582
1.0332555846093636
0.5374549300140379
0.6540215935618274
0.7776606042418985
0.8757439365075308
0.9371475073571294
0.9766037504561433
1.001958776780278
1.020481550354827
1.0341389848991487
1.0445997076146178
1.052731073473239
1.0591657219215143
1.0639633282614445
1.0670268275822614
1.0693446758395948
1.071184145692654
1.0726779173079402
1.0733674012568508
1.0721957120174788
1.0697180473380947
1.0651892456964398
1.0589501135376522
1.0495461612913477
1.0378749949628714
0.5483897816711019
0.679098899288343
0.8081091101177507
0.8944471133267011
0.9465576435441522
0.9795063737855099
1.0028921562871898
1.0207029078015584
1.0338979839653093
1.0447806993723547
1.0533007821574158
1.0599151860882317
1.0651504509350667
1.0695639575290339
1.0739957883205264
1.0766856453928841
1.0784193904962838
1.0791037275585402
1.0782061665123317
1.0759272556955826
1.0712560082424076
1.064070638061774
1.0541941435598656
1.0417618486651505
0.5613525741117559
0.7114213056897415
0.8382919682067221
0.9119653508399216
0.9552795208491023
0.9830904110864251
1.0032730442085984
1.0205503636391653
1.0337539608962676
1.0446802892615954
1.0540713570076157
1.0615813268843652
1.0682652798213874
1.0736274803432189
1.078582292175819
1.082264179016427
1.0847637903734841
1.0853133787643738
1.0841996328825585
1.081616268365858
1.0762018612040853
1.0689914761390693
1.0584105690873649
1.0450278552978964
0.5783282811484838
0.7503468485338888
0.866510830605051
0.9277514566050709
0.9627329941612124
0.9872136374719641
1.004952184205016
1.0204178169352423
1.0338755732216627
1.044885604900154
1.0548759948727675
1.0635669097876166
1.0719654580165456
1.078725927995995
1.0835118316416121
1.0868059703994484
1.0901895964528219
1.0906639210209585
1.089441866590982
1.0864195582210667
1.0806442362301982
1.0730217870199605
1.0611247339104148
1.0471424433153216
0.6012204999551222
0.7930882269426736
0.8920026166434986
0.9410519042157133
0.9703109694964265
0.9908614816912462
1.0081521282409271
1.0221789427647592
1.0346133216173092
1.0463050817317059
1.0570438055365508
1.0666567744342936
1.0749276393066702
1.0831385094603083
1.0885112202298242
1.09238951926926
1.0942516559363877
1.095315450427586
1.0934051642142018
1.0903495558935896
1.0838528848698747
1.075194724689714
1.0629887698563132
1.0490956319628082
0.6345793446954059
0.834552834792342
0.9135788486726287
0.9517370370466888
0.977146115063065
0.9954590451446058
1.011291577673164
1.0249765155515032
1.0370931805971062
1.0472997021656345
1.0595151756238481
1.0701976823324015
1.079495066094326
1.0861945214460242
1.0923163195256047
1.0967849319942566
1.0986152064279335
1.098469961886704
1.0964041835914815
1.091779425755579
1.0851460830414434
1.0761637815317806
1.0640479976407564
1.0488573918327855
0.6867018277145798
0.8700018939484794
0.9297948576567192
0.9614883595187075
0.9824365099657142
1.000376912500462
1.0145398067624285
1.0281144623143543
1.040518031254594
1.0525078928951381
1.063497142166167
1.073673051542418
1.0836210152510295
1.091052664569662
1.0961939553469806
1.0996947617836497
1.1011368899671212
1.1003935225524735
1.09761153555161
1.0923981700368217
1.0853254419600866
1.075613053972114
1.0629638236267938
1.0481400326864665
0.7566380577653824
0.8954481268404965
0.9406699725039649
0.9680128405990011
0.9874913590843737
1.0048384397799872
1.0191155167469512
1.031503529990318
1.0440220796093673
1.0569044304324033
1.0688012937095346
1.0786992274695555
1.0873260209227786
1.0946045188931819
1.099632886800952
1.102004128075824
1.1022839688314838
1.1014125662339302
1.0975119909892534
1.091487977745017
1.084253751032884
1.0741581168354686
1.0614991844951291
1.0462503633840963
0.8322114571759608
0.907566215778081
0.9454382720528266
0.9715879663101717
0.9919529382117316
1.007849504249289
1.022873404495413
1.0356206248237345
1.0494600356373291
1.0625230803514258
1.0747358153973212
1.0847863153419375
1.0921811717152257
1.0976896804939233
1.101561026628856
1.1032775069129452
1.1026873888625277
1.1004981120993487
1.0959977370151766
1.089991739303425
1.0818986565914281
1.0718081405707858
1.0585375758733537
1.0427712609369342
0.0750076667556244
0.15189789508843984
0.235855519149639
0.2852713231127515
0.35410303523789255
0.4559054081848475
0.10616448528982757
0.18351825583301837
0.25795502055093045
0.30226701113846727
0.36211196739280216
0.42614784172329584
0.12161953097100349
0.1941651636432715
0.2607105584612499
0.3029632557336283
0.36302807843028523
0.431321199193006
0.13533025117089
0.20162807592288506
0.2607564055530316
0.3011025863214262
0.3633713501329323
0.43721584642722333
0.14909586201925976
0.2079136438233317
0.2595699956257782
0.29943658168632037
0.3621922933158935
0.43864830121821874
0.16233714547025105
0.2126732718752868
0.25736834848558976
0.29739838447508377
0.3597255377420171
0.43628792155732427
0.17400156855551735
0.2158023465124548
0.2553781790122002
0.2950471511107045
0.356147722528791
0.4307698584463535
0.183669214852055
0.21776026464384812
0.2534914059717668
0.2928048274540143
0.35225032670132056
0.4239521082232073
0.1917567687291282
0.21902451052420718
0.25147956500597357
0.2904808284864698
0.3483442000741069
0.41713327784521326
0.19805231469835397
0.22004720976101996
0.24968240031030497
0.2888134511975558
0.34492863876123736
0.41179285367955526
0.20241527954798774
0.22095072412651764
0.24998068546549093
0.2884699311323741
0.3440208132519947
0.4104377070759698
0.20472296508958063
0.22197727601401315
0.25131749407270226
0.2898266671579748
0.3448286792378715
0.41077493037205887
0.20515131436813522
0.22256588270145675
0.2533726239499576
0.29316023430228966
0.3485620389716414
0.41448780861095746
0.20320732471504485
0.22293798317210858
0.2557927920532831
0.29793644045373807
0.35487366651663776
0.4210151885411263
0.19902071695348444
0.22294729849119344
0.25851424198157796
0.30297110508865593
0.3615645869952554
0.4287675097365206
0.19288566563633908
0.2223651685465571
0.2612548468428385
0.3075291477503105
0.368191933432592
0.4369243644666028
0.1850075210109599
0.2212007200741042
0.2637800129156507
0.3113668257913859
0.37428501612538884
0.444498291609148
0.17517873734109268
0.21903930042672384
0.2655283771288223
0.3145067925608197
0.37899988515932675