/*--------------------------------*- C++ -*----------------------------------*\
  =========                 |
  \\      /  F ield         | OpenFOAM: The Open Source CFD Toolbox
   \\    /   O peration     | Website:  https://openfoam.org
    \\  /    A nd           | Version:  11
     \\/     M anipulation  |
\*---------------------------------------------------------------------------*/
FoamFile
{
    format      ascii;
    class       volScalarField;
    location    "1.16";
    object      epsilon;
}
// * * * * * * * * * * * * * * * * * * * * * * * * * * * * * * * * * * * * * //

dimensions      [0 2 -3 0 0 0 0];

internalField   nonuniform List<scalar> 
2880
(
4.83075
3.64083
2.47894
1.81412
1.5349
3.39584
1.45267
1.98559
1.68019
1.35789
1.53711
4.0279
2.08037
2.01944
1.63556
1.44497
1.81402
4.58069
2.56853
2.21514
1.71836
1.61591
2.12449
5.06996
2.93627
2.33194
1.82763
1.78818
2.41488
5.41806
3.23518
2.39853
1.93646
1.95114
2.6792
5.60956
3.49161
2.44265
2.0457
2.11425
2.91644
5.67396
3.71554
2.47847
2.15715
2.28167
3.13165
5.65308
3.91057
2.514
2.27283
2.45385
3.32737
5.58146
4.07855
2.55634
2.39368
2.62963
3.50553
5.48204
4.22103
2.61171
2.52015
2.80702
3.66769
5.36912
4.33995
2.68601
2.65281
2.98314
3.81092
5.25826
4.4382
2.78565
2.79297
3.15472
3.93665
5.16324
4.47941
2.90286
2.94112
3.32114
4.05337
5.0971
4.46242
3.03438
3.09801
3.48729
4.17343
5.08006
4.37112
3.18278
3.26789
3.66072
4.31034
5.12321
4.20249
3.3542
3.45832
3.85127
4.4792
5.23523
3.95088
3.55839
3.6812
4.07152
4.69896
5.44941
3.6079
3.8108
3.95587
4.33844
4.99102
5.78629
3.17679
4.12803
4.31697
4.67896
5.38415
6.25875
2.64265
4.56736
4.83696
5.14655
5.93695
6.91866
1.99005
5.28472
5.70179
5.87689
6.80847
8.00857
1.30813
6.7845
7.64574
7.34085
8.15524
11.2468
4.97858
10.9268
13.7066
12.0558
9.66842
32.3354
18.4281
10.4232
4.75167
2.14219
0.93063
0.402935
0.182288
0.0891019
0.0475189
0.0275136
0.017128
0.0112811
0.00777624
0.00556908
0.00412141
0.00313746
0.00244605
0.00194391
0.00156637
0.00127133
0.00103011
0.000824874
0.000647709
0.000490032
14.6819
10.2209
5.07204
2.36103
1.04645
0.458751
0.208346
0.101602
0.0539375
0.0310926
0.0193111
0.0127226
0.00879144
0.00632102
0.00470025
0.00359605
0.00281682
0.00224732
0.00181542
0.00147392
0.00119036
0.000943982
0.000725192
0.000522192
12.3263
9.75962
5.17146
2.52061
1.15041
0.51445
0.236004
0.115339
0.0611137
0.035126
0.0217711
0.0143425
0.00992967
0.00716353
0.00534977
0.00411255
0.00323689
0.00259392
0.002103
0.00171109
0.00138124
0.00108888
0.000821546
0.00056218
10.7598
9.03096
5.12358
2.62468
1.24078
0.569063
0.265047
0.130348
0.06912
0.0396727
0.0245478
0.0161668
0.0112079
0.00810812
0.00607816
0.00469309
0.00371111
0.0029878
0.0024328
0.00198646
0.00160654
0.00126362
0.000940516
0.000611628
9.66142
8.31755
5.01432
2.68524
1.31925
0.622548
0.295504
0.146747
0.0780668
0.0448111
0.0276927
0.0182289
0.0126485
0.00917045
0.00689697
0.00534666
0.00424684
0.00343519
0.0028103
0.002305
0.00187112
0.00147319
0.00108683
0.000672561
8.84798
7.68575
4.87982
2.71645
1.38738
0.675642
0.327638
0.164736
0.0881074
0.0506433
0.0312718
0.0205714
0.01428
0.010371
0.00782206
0.00608653
0.00485586
0.00394695
0.00324559
0.00267606
0.00218359
0.00172586
0.00126815
0.000748196
8.20914
7.13928
4.71891
2.72316
1.44658
0.728459
0.362016
0.184676
0.0994572
0.0572991
0.0353662
0.0232462
0.0161372
0.0117348
0.00887339
0.00693055
0.00555569
0.00454127
0.00375794
0.0031198
0.0025645
0.00204202
0.0015038
0.000849121
7.68184
6.66793
4.53726
2.71565
1.49863
0.781212
0.398741
0.206927
0.112408
0.0649473
0.0400774
0.0263152
0.0182591
0.0132884
0.0100716
0.00789765
0.00636665
0.00524248
0.00437798
0.00367519
0.00306259
0.00248103
0.00186595
0.00106945
7.23081
6.26218
4.35494
2.70054
1.54546
0.83424
0.438111
0.231797
0.12723
0.0737875
0.0455284
0.0298507
0.0206877
0.0150561
0.0114314
0.00899826
0.0072996
0.00606678
0.00513402
0.00439313
0.00376924
0.00321463
0.00273603
0.00245497
6.83799
5.91627
4.18893
2.68222
1.58885
0.887918
0.480416
0.259652
0.144262
0.0840629
0.0518717
0.0339409
0.02347
0.0170595
0.0129584
0.0102285
0.00834602
0.00700642
0.00602704
0.00529587
0.00474451
0.00434005
0.00410002
0.0040885
6.49567
5.62555
4.04349
2.66458
1.63034
0.942653
0.525974
0.290912
0.163911
0.0960813
0.0593073
0.0387043
0.0266706
0.0193294
0.0146624
0.0115852
0.00949372
0.00804114
0.00702383
0.00632159
0.00586411
0.00561473
0.00556518
0.00568763
6.20312
5.38855
3.92261
2.65121
1.6716
0.998968
0.57508
0.326037
0.186666
0.110238
0.0681069
0.044311
0.0303901
0.0219224
0.0165739
0.013083
0.0107483
0.00916909
0.00811221
0.00743984
0.00706773
0.00694172
0.00701676
0.00722382
5.96484
5.20659
3.83085
2.64476
1.7145
1.0574
0.628074
0.365544
0.213118
0.127046
0.078643
0.051007
0.0347826
0.0249325
0.0187486
0.0147538
0.0121244
0.0103905
0.00927787
0.00862196
0.008317
0.00828745
0.00845244
0.00873131
5.78853
5.08427
3.77444
2.64789
1.76118
1.11916
0.685467
0.410034
0.24398
0.147159
0.0914223
0.0591439
0.0400783
0.0285056
0.0212768
0.0166504
0.0136485
0.0117109
0.0105092
0.00984341
0.00958265
0.00962397
0.00987158
0.0102189
5.68887
5.03968
3.76422
2.67247
1.81598
1.18585
0.748147
0.460272
0.280105
0.171409
0.107126
0.0692185
0.0466151
0.0328628
0.0242996
0.0188595
0.0153693
0.0131518
0.0118081
0.0110933
0.0108478
0.010937
0.0112608
0.0116811
5.69541
5.06716
3.81192
2.72807
1.88491
1.26045
0.817576
0.517295
0.322547
0.20084
0.126657
0.0819249
0.0548848
0.0383363
0.0280346
0.0215205
0.0173728
0.0147626
0.0131987
0.0123788
0.0121088
0.0122219
0.0126086
0.0131079
5.7875
5.20298
3.94024
2.83095
1.97788
1.34816
0.896405
0.582731
0.372692
0.236787
0.151211
0.0982269
0.0656013
0.0454255
0.0328198
0.0248575
0.0198056
0.0166374
0.0147392
0.0137335
0.0133818
0.0134862
0.0139111
0.014493
6.02472
5.48128
4.18325
3.00598
2.11097
1.45809
0.9895
0.659368
0.432552
0.281016
0.18238
0.119461
0.0798005
0.0548853
0.0391836
0.0292326
0.0229137
0.0189432
0.0165432
0.0152331
0.0147141
0.0147623
0.0151809
0.0158422
6.42802
5.91114
4.56379
3.28254
2.30799
1.6057
1.10583
0.752343
0.505422
0.336072
0.22235
0.147495
0.0989912
0.0678634
0.0479607
0.0352369
0.0271114
0.0219708
0.0188169
0.0170254
0.0162106
0.0161212
0.0164697
0.0171903
6.96049
6.46347
5.06775
3.67537
2.59424
1.81321
1.26074
0.871226
0.59729
0.406099
0.27437
0.185037
0.125406
0.0861249
0.0604871
0.04385
0.0331053
0.0262292
0.0219304
0.0193853
0.0180797
0.0176953
0.0179211
0.018619
7.56522
7.02232
5.60329
4.1476
2.97224
2.09933
1.47415
1.03157
0.718969
0.498529
0.343865
0.236345
0.162506
0.112459
0.0789469
0.0567317
0.0421308
0.0326303
0.0265592
0.0228224
0.0207102
0.0197872
0.0197789
0.0203302
8.12448
7.35018
5.9886
4.5832
3.38809
2.45301
1.75625
1.24989
0.886043
0.625824
0.440327
0.308732
0.216085
0.151521
0.107053
0.0767872
0.0564176
0.0428648
0.033983
0.0283139
0.0248713
0.0230263
0.0224509
0.0227764
8.34987
7.15909
5.98856
4.79252
3.71738
2.80701
2.0818
1.52595
1.10981
0.802605
0.577755
0.414246
0.296125
0.211481
0.151433
0.109328
0.0801629
0.0602125
0.0467549
0.0378517
0.0321501
0.0287094
0.0269842
0.0268391
7.4963
6.20759
5.50544
4.65242
3.80783
3.04635
2.37757
1.82268
1.37915
1.03335
0.768344
0.56777
0.417483
0.305926
0.223943
0.164375
0.121641
0.0914119
0.0703466
0.0559268
0.0462889
0.0400342
0.036228
0.0347441
1.70709
1.94213
2.29463
2.34167
2.24777
2.76562
0.805659
0.830355
1.00803
1.09482
1.15661
1.40993
0.218946
0.615289
0.764388
0.844621
0.9168
1.07734
0.242806
0.557741
0.686191
0.762638
0.834178
0.949532
0.261257
0.548244
0.66018
0.733738
0.803107
0.89241
0.27393
0.562356
0.656189
0.727002
0.79417
0.868587
0.280876
0.591939
0.663587
0.731536
0.796815
0.862351
1.19311
0.633062
0.676747
0.742709
0.807274
0.867616
1.20196
0.663847
0.692159
0.758017
0.823647
0.882393
1.24232
0.68682
0.708094
0.776348
0.84544
0.906239
1.28577
0.704297
0.72396
0.797383
0.872968
0.940045
1.3186
0.71688
0.739657
0.821226
0.907004
0.985543
1.33446
0.724961
0.755287
0.848163
0.94855
1.04501
1.33097
0.728892
0.771004
0.878505
0.998666
1.1211
1.30839
0.728595
0.786937
0.912484
1.05835
1.21672
1.26974
0.723706
0.803199
0.950212
1.12843
1.33493
1.22308
0.713554
0.819995
0.991731
1.20959
1.47882
1.19136
0.696829
0.837925
1.03723
1.30251
1.65155
0.278219
0.674329
0.858726
1.08766
1.40856
1.85681
0.267748
0.667113
0.886854
1.14644
1.53168
2.10101
0.250126
0.680057
0.932358
1.22408
1.68329
2.40142
0.226338
0.735297
1.02388
1.35447
1.89754
2.79411
0.837003
0.934029
1.27697
1.67316
2.31057
3.4388
1.81302
2.02707
2.62052
3.17794
3.84588
5.22012
3.97208
4.41148
4.40721
4.13366
3.63013
3.07502
2.55331
2.0724
1.65318
1.30096
1.01262
0.78107
0.597958
0.455058
0.344919
0.260987
0.198213
0.15232
0.11905
0.0951772
0.0782608
0.0664991
0.0586289
0.0536817
2.14543
2.81713
3.20067
3.27948
3.17363
2.90858
2.56212
2.21736
1.88322
1.57602
1.3034
1.06746
0.867032
0.699171
0.560827
0.44987
0.362172
0.293096
0.239507
0.198397
0.167535
0.144376
0.128756
0.114511
1.41905
1.86481
2.25955
2.49807
2.58429
2.55186
2.43184
2.24314
2.039
1.83032
1.62847
1.43982
1.26742
1.11233
0.974576
0.853313
0.748583
0.659864
0.586011
0.5246
0.475182
0.431502
0.401747
0.36186
1.13123
1.39656
1.68526
1.92648
2.09057
2.17816
2.19338
2.16804
2.10376
2.01873
1.92842
1.83802
1.75112
1.66961
1.59407
1.52434
1.46011
1.40111
1.34681
1.2953
1.24611
1.19381
1.14902
1.08215
1.00858
1.17701
1.37752
1.57322
1.74051
1.87043
1.96195
2.02357
2.05958
2.07886
2.08946
2.09721
2.10366
2.10939
2.11423
2.11732
2.11735
2.11313
2.1035
2.08732
2.06046
2.02016
1.97188
1.91777
0.954799
1.07249
1.21588
1.36703
1.51105
1.64058
1.75327
1.85044
1.93404
2.00745
2.07325
2.13218
2.18521
2.23217
2.27219
2.30399
2.32598
2.3365
2.33551
2.32488
2.30086
2.25987
2.2097
2.1604
0.934188
1.02385
1.13033
1.24527
1.36127
1.47263
1.57764
1.67588
1.76747
1.85292
1.9323
2.00508
2.07037
2.1269
2.17324
2.20809
2.2304
2.2397
2.23673
2.22347
2.19696
2.15854
2.11252
2.06964
0.931103
1.006
1.08915
1.1765
1.26502
1.3529
1.43846
1.52082
1.59907
1.67219
1.7392
1.79863
1.84892
1.88868
1.91687
1.93314
1.9377
1.93234
1.91678
1.89234
1.86164
1.8259
1.78596
1.74906
0.942122
1.00768
1.07737
1.14805
1.21635
1.28189
1.34447
1.40382
1.45956
1.51063
1.55511
1.59154
1.61874
1.63606
1.64359
1.64242
1.63411
1.62122
1.60731
1.59486
1.58539
1.5791
1.5745
1.56633
0.967005
1.02975
1.09171
1.1514
1.20778
1.26007
1.30793
1.35088
1.38822
1.41933
1.44405
1.46201
1.47334
1.47877
1.47967
1.47799
1.47578
1.47513
1.47765
1.48355
1.4933
1.50753
1.52516
1.53736
1.00747
1.07458
1.137
1.19398
1.24485
1.28953
1.32825
1.36124
1.38861
1.41041
1.42662
1.4377
1.44456
1.44854
1.45117
1.45424
1.45905
1.4666
1.47745
1.4911
1.50667
1.5246
1.54702
1.57731
1.06674
1.14685
1.21886
1.28246
1.33746
1.38439
1.42396
1.45684
1.48367
1.50513
1.52209
1.5357
1.54731
1.55839
1.57025
1.58382
1.599
1.6147
1.62884
1.63696
1.63604
1.62388
1.59919
1.5934
1.14919
1.25287
1.34481
1.42532
1.49476
1.55434
1.60532
1.64891
1.68624
1.71852
1.74698
1.77289
1.79748
1.82145
1.84502
1.86781
1.8863
1.89965
1.90143
1.88271
1.83267
1.74502
1.64172
1.56944
1.26025
1.40019
1.52338
1.63128
1.72497
1.80654
1.87778
1.94031
1.99547
2.04456
2.08848
2.12808
2.16371
2.19396
2.2193
2.23712
2.23355
2.20335
2.13756
2.03821
1.91886
1.78824
1.6509
1.50612
1.40639
1.5973
1.76272
1.90695
2.03204
2.14105
2.23617
2.31915
2.39094
2.45284
2.50414
2.5464
2.57743
2.58906
2.56776
2.51751
2.43273
2.32545
2.2034
2.06298
1.90604
1.72797
1.54624
1.33243
1.59527
1.85274
2.06838
2.25319
2.41057
2.54466
2.6576
2.7514
2.82577
2.88307
2.91729
2.91113
2.87248
2.79957
2.70292
2.58923
2.45392
2.29546
2.11143
1.9066
1.6884
1.46217
1.25272
1.01585
1.83576
2.17361
2.4397
2.65995
2.83977
2.98451
3.09552
3.17563
3.21581
3.1956
3.14093
3.05289
2.9448
2.812
2.65075
2.4596
2.24326
2.00678
1.75782
1.50511
1.26028
1.03418
0.838219
0.657744
2.13798
2.56279
2.86507
3.10094
3.27832
3.40469
3.46978
3.45287
3.38845
3.28898
3.15923
2.99432
2.79321
2.56224
2.30769
2.03669
1.7577
1.48044
1.21624
0.977049
0.771763
0.603879
0.472466
0.387333
2.51347
3.0146
3.31717
3.53022
3.66306
3.69139
3.63176
3.52643
3.37239
3.16655
2.91911
2.64044
2.34139
2.03222
1.72286
1.42348
1.14586
0.902085
0.697028
0.535706
0.416474
0.334698
0.279019
0.252861
2.97587
3.50849
3.75093
3.88511
3.87721
3.7849
3.62163
3.38462
3.08979
2.75697
2.4048
2.04962
1.70523
1.38236
1.0923
0.845246
0.645456
0.493417
0.384517
0.307817
0.25362
0.217171
0.193234
0.187721
3.54319
4.00331
4.10814
4.06086
3.92719
3.69397
3.36918
2.98418
2.57061
2.15639
1.76354
1.4069
1.09572
0.837897
0.636065
0.485421
0.377787
0.300429
0.245435
0.205723
0.17697
0.156284
0.142702
0.141409
4.25598
4.44275
4.30063
4.09211
3.79046
3.38218
2.91108
2.42386
1.95928
1.54387
1.19054
0.903496
0.68207
0.518752
0.401032
0.31626
0.254033
0.207302
0.171309
0.143494
0.122906
0.108967
0.102088
0.103428
5.17341
4.77341
4.34793
3.96582
3.4794
2.92512
2.36589
1.85359
1.41831
1.06862
0.799957
0.601773
0.458546
0.354425
0.277163
0.218578
0.173487
0.138728
0.112573
0.0941026
0.0822232
0.0757432
0.0743884
0.077201
6.38561
4.92319
4.28707
3.70999
3.06991
2.42871
1.85619
1.38795
1.02742
0.760089
0.56646
0.426264
0.323087
0.246015
0.188149
0.144819
0.112819
0.0898538
0.0741137
0.0640134
0.0581578
0.0557032
0.0562339
0.0594569
2.37536
4.38375
8.02011
9.58133
8.75334
26.5332
0.93594
2.63886
4.32273
5.39194
6.24956
9.20757
0.255523
2.14609
3.31962
4.31815
5.37016
6.634
1.19469
1.93027
2.89217
3.87652
4.95316
5.86462
1.39429
1.80358
2.66601
3.66477
4.77081
5.59114
1.61626
1.72269
2.53362
3.56492
4.71211
5.5109
1.79125
1.6701
2.45038
3.52536
4.72894
5.51656
1.92523
1.63324
2.39343
3.52095
4.80626
5.59104
2.01896
1.60285
2.34901
3.53858
4.9222
5.70168
2.07317
1.57288
2.3077
3.56669
5.06219
5.8352
2.08811
1.53941
2.26238
3.5955
5.21598
5.98651
2.06948
1.50053
2.20738
3.6163
5.37581
6.15407
2.02204
1.4566
2.1379
3.62011
5.53567
6.33657
1.95337
1.4068
2.05084
3.59687
5.68513
6.53955
1.86239
1.3482
1.94479
3.53577
5.81632
6.77911
1.74903
1.27833
1.8187
3.42602
5.91872
7.06548
1.61308
1.19419
1.67218
3.25786
5.97582
7.41034
1.4493
1.09007
1.506
3.02353
5.96296
7.82813
1.22814
0.953042
1.32368
2.71801
5.84697
8.33836
0.270251
0.759236
1.13816
2.35125
5.58176
8.97263
0.253181
0.638223
0.968068
1.9461
5.11043
9.7962
0.231063
0.606022
0.857286
1.56161
4.38133
10.9664
0.86972
0.776884
0.907951
1.32941
3.45115
13.0667
2.16415
1.83063
1.80505
2.02862
2.85943
26.8943
7.57469
4.92665
4.12542
3.38338
2.63715
1.97581
1.44762
1.05223
0.765519
0.559905
0.411516
0.303235
0.224064
0.166525
0.125131
0.0957533
0.0752208
0.0611244
0.0517487
0.0459117
0.042822
0.0420395
0.0430534
0.0462113
6.12735
4.75532
3.90138
3.02333
2.23033
1.60239
1.14111
0.812644
0.580211
0.414916
0.296975
0.213294
0.154462
0.113476
0.0851141
0.0655512
0.0521002
0.0429764
0.0370407
0.033528
0.0319299
0.0319317
0.0331204
0.0359379
5.62113
4.62709
3.62918
2.65831
1.87633
1.30763
0.909679
0.633045
0.440307
0.306212
0.21369
0.150471
0.107617
0.0786726
0.0590985
0.0458182
0.0368203
0.0308203
0.0270095
0.0248644
0.0240559
0.0243012
0.0254975
0.0278648
5.4033
4.46631
3.32028
2.31843
1.58273
1.07521
0.729378
0.493635
0.333501
0.225786
0.154151
0.106938
0.0759284
0.0554974
0.0419261
0.0328274
0.0267028
0.0226311
0.0200564
0.018638
0.0181675
0.01845
0.0194867
0.0213642
5.27949
4.26872
3.0074
2.02107
1.34215
0.888416
0.585761
0.384636
0.252468
0.166834
0.111985
0.0770084
0.0546077
0.04009
0.0305262
0.0241234
0.0197968
0.0168966
0.0150391
0.0139979
0.0136372
0.0138458
0.0146388
0.016084
5.20512
4.03323
2.71293
1.76757
1.14357
0.73603
0.470614
0.299733
0.191579
0.124155
0.0824151
0.0564775
0.0401395
0.0296381
0.0227311
0.0180893
0.0149226
0.0127619
0.0113332
0.0104798
0.0101119
0.010185
0.0107094
0.0117767
5.151
3.7837
2.44973
1.55342
0.97842
0.611042
0.37854
0.234179
0.146312
0.0934631
0.061652
0.0422494
0.0301476
0.0223909
0.0172755
0.0138107
0.0114125
0.00973357
0.00856969
0.00780494
0.00737794
0.00727686
0.00754142
0.00826382
5.10223
3.54026
2.22144
1.37296
0.84058
0.508633
0.305412
0.184022
0.112878
0.0714059
0.0469805
0.0322641
0.0231262
0.017262
0.0133733
0.0107133
0.00884169
0.00749342
0.00650857
0.0057934
0.00529809
0.00501625
0.00501877
0.00541898
5.04937
3.31941
2.02745
1.22096
0.725421
0.425041
0.247742
0.145886
0.0882318
0.0554832
0.0364983
0.0251403
0.0180929
0.0135546
0.0105252
0.00843241
0.00693724
0.00583232
0.00498758
0.00432117
0.0037843
0.00336119
0.00308102
0.00309122
4.99114
3.13249
1.8649
1.09294
0.629354
0.357167
0.202542
0.116986
0.0700211
0.0438892
0.0289031
0.0199676
0.0144152
0.0108241
0.00841176
0.00673134
0.00551697
0.00460381
0.00388506
0.00328812
0.00276194
0.00227591
0.00179649
0.00117356
4.93511
2.98345
1.72998
0.985333
0.549533
0.302378
0.167277
0.0950876
0.0564873
0.0353505
0.0233141
0.0161442
0.0116782
0.00877783
0.00681994
0.00544855
0.00445138
0.00369633
0.00309722
0.00259418
0.00214192
0.00170809
0.00128324
0.000793684
4.90039
2.86427
1.61876
0.895268
0.483566
0.258389
0.139835
0.0784495
0.0463438
0.028979
0.019134
0.0132676
0.00960431
0.00721777
0.00560183
0.004467
0.00364034
0.00301422
0.00251873
0.0021057
0.00173896
0.00139291
0.00105674
0.000689711
4.89949
2.77428
1.52878
0.820531
0.429412
0.223245
0.118506
0.0657487
0.0386642
0.0241583
0.015957
0.0110657
0.00800519
0.00600756
0.00465334
0.00370202
0.00300953
0.00248607
0.00207341
0.00173158
0.001431
0.00115217
0.000890129
0.000621125
4.94553
2.71443
1.45849
0.759311
0.385323
0.195319
0.101916
0.0559954
0.032785
0.0204597
0.0135045
0.00935294
0.00675207
0.00505364
0.00390297
0.00309611
0.00251053
0.0020698
0.00172446
0.00144082
0.00119443
0.000970273
0.000765925
0.000566361
5.03629
2.68431
1.40662
0.71011
0.349908
0.17317
0.0889388
0.0484391
0.0282319
0.0175841
0.0115841
0.00800107
0.00575607
0.00429157
0.00330184
0.00261054
0.0021115
0.0017385
0.00144881
0.00121358
0.00101223
0.000832723
0.000673439
0.000523928
5.18052
2.6855
1.37254
0.672054
0.32164
0.155561
0.0787269
0.0425285
0.024667
0.0153206
0.0100608
0.00692034
0.00495484
0.00367608
0.00281559
0.00221813
0.00179009
0.00147311
0.00122969
0.00103469
0.000870492
0.000727095
0.000603015
0.000490711
5.3872
2.71975
1.35621
0.643603
0.299183
0.141532
0.0706455
0.0378669
0.0218481
0.0135192
0.00883848
0.00604683
0.00430386
0.00317467
0.00241946
0.00189919
0.00153004
0.0012598
0.00105505
0.000893563
0.000759971
0.000645694
0.000549121
0.000464679
5.66977
2.79715
1.35693
0.623062
0.281387
0.130318
0.0642116
0.0341608
0.0195987
0.0120711
0.00784799
0.0053343
0.0037707
0.00276351
0.00209505
0.00163897
0.00131907
0.00108803
0.000915686
0.000782095
0.000673656
0.000582798
0.000507716
0.000444242
6.04399
2.90947
1.3681
0.608805
0.267262
0.121306
0.0590539
0.0311909
0.0177889
0.0108969
0.00703863
0.00474876
0.00333134
0.0024247
0.00182843
0.0014261
0.00114761
0.000949545
0.000804361
0.000693975
0.000606163
0.000534113
0.000475822
0.00042816
6.53285
3.06703
1.39097
0.599494
0.25592
0.113987
0.0548811
0.0287901
0.0163217
0.00993771
0.00637279
0.00426486
0.00296768
0.00214463
0.00160884
0.00125174
0.00100815
0.000837844
0.000715423
0.000624307
0.000553382
0.000496407
0.000451222
0.000415483
7.16759
3.27428
1.42242
0.593129
0.246487
0.107923
0.0514598
0.0268289
0.0151237
0.00914907
0.00582225
0.00386343
0.00266589
0.00191276
0.00142784
0.0011089
0.000894746
0.000747793
0.000644414
0.000569265
0.000512134
0.000467219
0.000432247
0.000405491
7.99924
3.5254
1.45545
0.586946
0.23801
0.102717
0.0485985
0.0252081
0.0141366
0.00849745
0.00536561
0.00352981
0.00241527
0.00172081
0.00127877
0.000992017
0.000802655
0.0006753
0.000587801
0.000525837
0.000479938
0.000444656
0.000417646
0.000397646
9.11364
3.74904
1.47772
0.57732
0.229486
0.0980142
0.0461422
0.02385
0.0133171
0.00795761
0.00498664
0.00325273
0.00220746
0.00156225
0.00115629
0.000896618
0.000728075
0.000617102
0.000542778
0.000491639
0.000454847
0.00042726
0.000406482
0.000391553
10.5326
3.91488
1.47025
0.560027
0.220017
0.0935417
0.0439761
0.0226977
0.012634
0.00751082
0.00467311
0.00302356
0.00203593
0.00143187
0.0010561
0.000819097
0.000667937
0.000570581
0.000507113
0.000464781
0.000435311
0.000413871
0.000398027
0.000386911
3.23111
8.19312
11.2009
12.2707
10.7371
42.8217
1.15377
4.43038
6.09868
7.23423
9.64846
14.9728
1.71146
3.49828
4.62681
5.56267
6.91491
8.78995
2.36615
3.12472
3.97118
4.74356
5.60217
6.35075
2.96747
2.94026
3.6031
4.2538
4.84172
5.13875
3.50081
2.84781
3.37124
3.93073
4.35048
4.43906
3.95863
2.80227
3.21549
3.70328
4.01926
3.99925
4.33703
2.78188
3.10716
3.53959
3.7928
3.71146
4.63401
2.77455
3.03069
3.42304
3.63943
3.52531
4.84867
2.77325
2.97676
3.34309
3.54191
3.41453
4.9814
2.7736
2.93933
3.29273
3.49038
3.36506
5.03617
2.77376
2.91414
3.267
3.47915
3.36945
5.03137
2.77393
2.89789
3.26219
3.50338
3.42354
4.9598
2.77016
2.8878
3.27459
3.56324
3.53083
4.81565
2.75786
2.88161
3.30235
3.65907
3.69359
4.5941
2.73336
2.8775
3.34628
3.78988
3.91956
4.29216
2.69203
2.87493
3.40582
3.95886
4.22141
3.90826
2.63337
2.87644
3.48286
4.17186
4.62074
3.44296
2.56316
2.89047
3.58478
4.43971
5.16123
2.90101
2.49427
2.93878
3.72926
4.78386
5.93618
2.29465
2.45631
3.07235
3.96316
5.25033
7.1785
1.64824
2.53651
3.41422
4.4166
5.9608
9.62201
1.12974
3.07169
4.41272
5.56737
7.30703
16.0503
2.89481
6.63359
9.09882
10.2294
10.8666
51.3103
11.4974
3.83578
1.40133
0.532017
0.209176
0.0891672
0.0420342
0.0217145
0.0120661
0.00714376
0.00441601
0.00283575
0.00189559
0.00132554
0.000974759
0.00075652
0.000619744
0.00053361
0.000479005
0.000443757
0.000420082
0.000403485
0.000391651
0.000383397
7.84331
3.27291
1.27682
0.495916
0.197452
0.084944
0.0403002
0.0208822
0.0116018
0.00684763
0.00420899
0.00268451
0.00178262
0.00124006
0.000909542
0.000706556
0.000581489
0.000504478
0.000457029
0.000427424
0.000408292
0.000395437
0.000386711
0.000380675
6.03501
2.7977
1.15143
0.458984
0.185972
0.0810493
0.0387929
0.020195
0.0112381
0.00661719
0.00404786
0.00256647
0.00169424
0.00117307
0.000858425
0.000667451
0.000551655
0.000481883
0.000440092
0.000414914
0.000399304
0.000389298
0.000382903
0.000378613
4.8937
2.43475
1.04162
0.425356
0.175626
0.0776635
0.0375474
0.0196585
0.0109698
0.00644928
0.00393
0.00247943
0.00162851
0.00112292
0.000819962
0.00063795
0.000529146
0.000464872
0.000427383
0.000405567
0.000392635
0.000384782
0.000380065
0.000377141
4.12686
2.15916
0.951259
0.396964
0.166955
0.0749215
0.0365963
0.0192787
0.0107954
0.00634243
0.003854
0.00242201
0.00158417
0.00108843
0.000793109
0.000617129
0.000513148
0.000452727
0.000418277
0.000398848
0.00038784
0.000381562
0.00037809
0.000376171
3.60419
1.95386
0.880617
0.374547
0.160239
0.072911
0.0359657
0.0190626
0.0107156
0.00629649
0.00381936
0.00239349
0.00156045
0.00106883
0.000777132
0.000604301
0.000503029
0.000444885
0.000412289
0.000394359
0.000384609
0.000379411
0.000376816
0.000375562
3.24579
1.80533
0.828484
0.358233
0.155609
0.0716866
0.0356766
0.0190191
0.0107325
0.00631116
0.00382574
0.00239375
0.00155707
0.00106378
0.000771635
0.000599049
0.000498378
0.000440969
0.00040909
0.000391805
0.000382707
0.000378191
0.000376108
0.00037522
3.00314
1.70337
0.793361
0.347942
0.153126
0.0712905
0.035741
0.0191411
0.0108376
0.00638074
0.0038684
0.00241892
0.00157137
0.00107156
0.000775607
0.000600824
0.000498927
0.000440817
0.00040856
0.00039113
0.000382111
0.000377724
0.0003758
0.000375101
2.84681
1.641
0.774051
0.343594
0.152836
0.0717184
0.0361541
0.0194396
0.0110415
0.00651143
0.00395109
0.00247128
0.00160501
0.00109342
0.00078993
0.000610189
0.000504891
0.000444487
0.000410724
0.000392319
0.00038267
0.00037794
0.000375847
0.000375094
2.7592
1.6139
0.769883
0.3451
0.154708
0.0730205
0.0369649
0.0199414
0.0113649
0.00672016
0.00408743
0.00256141
0.00166497
0.00113343
0.00081655
0.000627878
0.000516624
0.000452205
0.000415726
0.000395491
0.000384506
0.000378908
0.000376274
0.000375191
2.73034
1.61995
0.780869
0.352851
0.159117
0.0753964
0.0382757
0.0207013
0.0118311
0.00701586
0.0042797
0.00268819
0.00174937
0.00119017
0.000855088
0.000654182
0.000534555
0.000464336
0.000423832
0.000400811
0.000387879
0.000380763
0.000377142
0.000375416
2.75458
1.65896
0.808181
0.367599
0.166396
0.0789772
0.0401289
0.0217299
0.0124431
0.00739908
0.0045277
0.00285233
0.0018598
0.00126545
0.000906946
0.000690122
0.000559455
0.000481467
0.000435477
0.000408577
0.000392863
0.000383718
0.000378579
0.000375881
2.8327
1.73228
0.853945
0.390136
0.176841
0.083873
0.0425699
0.0230474
0.0132109
0.00787651
0.004837
0.00305816
0.00199945
0.00136161
0.000973924
0.000737092
0.00059241
0.000504446
0.00045131
0.00041928
0.000399829
0.000387919
0.000380781
0.000376668
2.96703
1.84386
0.920469
0.421759
0.191022
0.0903175
0.045696
0.0246978
0.014156
0.00846001
0.00521496
0.00331077
0.00217204
0.00148152
0.00105826
0.000796859
0.000634829
0.000534396
0.000472219
0.000433599
0.000409282
0.000393734
0.000383939
0.000377886
3.16439
1.9998
1.01125
0.46427
0.209707
0.0986183
0.0496322
0.0267357
0.0153038
0.00916333
0.00567006
0.00361601
0.00238194
0.00162853
0.00116262
0.000871579
0.000688461
0.000572732
0.000499328
0.000452404
0.000421865
0.000401613
0.000388345
0.000379685
3.43606
2.20871
1.13126
0.520085
0.233906
0.109171
0.054536
0.0292277
0.0166846
0.0100024
0.00621194
0.00398045
0.00263404
0.0018065
0.00129013
0.000963812
0.000755415
0.00062119
0.000534044
0.000476801
0.000438405
0.000412135
0.000394366
0.000382245
3.79937
2.48243
1.28703
0.592324
0.264911
0.122477
0.0606025
0.0322548
0.0183344
0.0109954
0.00685137
0.00441135
0.00293374
0.00201972
0.00144431
0.00107649
0.000838155
0.000681831
0.000578073
0.000508159
0.000459947
0.000426038
0.000402465
0.000385785
4.28108
2.83724
1.48681
0.684863
0.304317
0.13915
0.0680689
0.035914
0.0202956
0.0121634
0.00760027
0.00491653
0.0032868
0.00227276
0.00162896
0.00121285
0.000939452
0.000757024
0.000633415
0.000548127
0.000487798
0.000444277
0.000413181
0.000390542
4.92131
3.2958
1.74062
0.802273
0.354012
0.159919
0.0772141
0.0403189
0.0226193
0.0135303
0.00847167
0.00550428
0.00369922
0.00257041
0.00184811
0.00137638
0.00106236
0.000849446
0.000702405
0.000598704
0.000523576
0.000467994
0.000427125
0.000396727
5.78599
3.89265
2.06004
0.949482
0.416049
0.185592
0.0883463
0.0455908
0.0253735
0.015124
0.0094798
0.00618329
0.00417717
0.00291755
0.00210592
0.00157076
0.00121019
0.000962077
0.000787683
0.000662154
0.000569109
0.000498535
0.000445195
0.000404662
7.01239
4.66934
2.45646
1.13089
0.492346
0.216974
0.101791
0.0518657
0.0286175
0.0169733
0.0106398
0.00696267
0.00472698
0.00331915
0.00240664
0.00179983
0.00138646
0.00109815
0.000892185
0.000741064
0.000626571
0.00053759
0.000468531
0.000414773
8.91922
5.6652
2.93695
1.34857
0.584069
0.254689
0.117843
0.0592767
0.0324059
0.0191078
0.0119678
0.00785201
0.00535513
0.00378021
0.00275454
0.00206744
0.00159479
0.00126107
0.00101907
0.000838303
0.000698472
0.000587201
0.000498559
0.000427606
12.538
7.00846
3.50779
1.60017
0.6907
0.298894
0.13668
0.0679296
0.0367933
0.0215579
0.0134809
0.00886157
0.00606846
0.00430585
0.00315386
0.00237742
0.00183875
0.00145426
0.00117163
0.000956984
0.000787644
0.000649766
0.000537014
0.000443843
21.6034
9.1643
4.18103
1.8768
0.808989
0.348924
0.158273
0.0778795
0.0418238
0.0243526
0.0151964
0.0100019
0.00687382
0.00490101
0.00360862
0.00273332
0.00212174
0.00168105
0.00135316
0.00110035
0.000897178
0.00072802
0.000585953
0.000464322
)
;

boundaryField
{
    rotor
    {
        type            epsilonWallFunction;
        value           nonuniform List<scalar> 
144
(
4.83075
3.64083
2.47894
1.81412
1.5349
3.39584
4.83075
1.45267
2.08037
2.56853
2.93627
3.23518
3.49161
3.71554
3.91057
4.07855
4.22103
4.33995
4.4382
4.47941
4.46242
4.37112
4.20249
3.95088
3.6079
3.17679
2.64265
1.99005
1.30813
4.97858
4.97858
10.9268
13.7066
12.0558
9.66842
32.3354
1.70709
1.94213
2.29463
2.34167
2.24777
2.76562
1.70709
0.805659
0.218946
0.242806
0.261257
0.27393
0.280876
1.19311
1.20196
1.24232
1.28577
1.3186
1.33446
1.33097
1.30839
1.26974
1.22308
1.19136
0.278219
0.267748
0.250126
0.226338
0.837003
1.81302
1.81302
2.02707
2.62052
3.17794
3.84588
5.22012
2.37536
4.38375
8.02011
9.58133
8.75334
26.5332
2.37536
0.93594
0.255523
1.19469
1.39429
1.61626
1.79125
1.92523
2.01896
2.07317
2.08811
2.06948
2.02204
1.95337
1.86239
1.74903
1.61308
1.4493
1.22814
0.270251
0.253181
0.231063
0.86972
2.16415
2.16415
1.83063
1.80505
2.02862
2.85943
26.8943
3.23111
8.19312
11.2009
12.2707
10.7371
42.8217
3.23111
1.15377
1.71146
2.36615
2.96747
3.50081
3.95863
4.33703
4.63401
4.84867
4.9814
5.03617
5.03137
4.9598
4.81565
4.5941
4.29216
3.90826
3.44296
2.90101
2.29465
1.64824
1.12974
2.89481
2.89481
6.63359
9.09882
10.2294
10.8666
51.3103
)
;
    }
    freestream
    {
        type            inletOutlet;
        inletValue      uniform 0.000375;
        value           nonuniform List<scalar> 
96
(
0.000375
0.000375
0.000375
0.000375
0.000375
0.000375
0.000375
0.000375
0.00245497
0.0040885
0.00568763
0.00722382
0.00873131
0.0102189
0.0116811
0.0131079
0.014493
0.0158422
0.0171903
0.018619
0.0203302
0.0227764
0.0268391
0.0347441
0.0536817
0.114511
0.36186
1.08215
1.91777
2.1604
2.06964
1.74906
1.56633
1.53736
1.57731
1.5934
1.56944
1.50612
1.33243
1.01585
0.657744
0.387333
0.252861
0.187721
0.141409
0.103428
0.077201
0.0594569
0.0462113
0.0359379
0.0278648
0.0213642
0.016084
0.0117767
0.00826382
0.00541898
0.00309122
0.000375
0.000375
0.000375
0.000375
0.000375
0.000375
0.000375
0.000375
0.000375
0.000375
0.000375
0.000375
0.000375
0.000375
0.000375
0.000375
0.000375
0.000375
0.000375
0.000375
0.000375
0.000375
0.000375
0.000375
0.000375
0.000375
0.000375
0.000375
0.000375
0.000375
0.000375
0.000375
0.000375
0.000375
0.000375
0.000375
0.000375
0.000375
0.000375
)
;
    }
    frontAndBack
    {
        type            empty;
    }
}


// ************************************************************************* //
