/*--------------------------------*- C++ -*----------------------------------*\
  =========                 |
  \\      /  F ield         | OpenFOAM: The Open Source CFD Toolbox
   \\    /   O peration     | Website:  https://openfoam.org
    \\  /    A nd           | Version:  11
     \\/     M anipulation  |
\*---------------------------------------------------------------------------*/
FoamFile
{
    format      ascii;
    class       surfaceScalarField;
    location    "1.16";
    object      meshPhi;
}
// * * * * * * * * * * * * * * * * * * * * * * * * * * * * * * * * * * * * * //

dimensions      [0 3 -1 0 0 0 0];

internalField   nonuniform List<scalar> 
5640
(
1.36985e-16
9.81747e-07
2.42057e-16
1.37445e-06
3.77029e-16
1.76715e-06
-1.33924e-15
2.15984e-06
-3.68151e-15
2.55254e-06
2.94524e-06
5.95152e-15
1.85152e-18
9.81747e-07
-3.88741e-16
1.37445e-06
-2.60405e-15
1.76715e-06
1.94382e-15
2.15984e-06
8.06629e-15
2.55254e-06
2.94524e-06
-9.02972e-15
-1.1644e-16
9.81747e-07
1.86421e-16
1.37445e-06
-1.56233e-15
1.76715e-06
-4.21242e-15
2.15984e-06
-7.49836e-15
2.55254e-06
2.94524e-06
7.72494e-16
8.69708e-17
9.81747e-07
-1.01937e-16
1.37445e-06
2.69323e-15
1.76715e-06
7.44291e-15
2.15984e-06
3.25987e-15
2.55254e-06
2.94524e-06
-2.79767e-15
-4.83527e-17
9.81747e-07
3.95086e-17
1.37445e-06
1.94364e-16
1.76715e-06
-1.80595e-15
2.15984e-06
-4.20842e-15
2.55254e-06
2.94524e-06
5.01347e-15
-1.80093e-16
9.81747e-07
4.31797e-18
1.37445e-06
-1.84768e-15
1.76715e-06
-3.88605e-15
2.15984e-06
3.15703e-15
2.55254e-06
2.94524e-06
4.98204e-16
2.53998e-16
9.81747e-07
2.5545e-16
1.37445e-06
2.06607e-15
1.76715e-06
4.50424e-15
2.15984e-06
-2.30991e-15
2.55254e-06
2.94524e-06
5.40944e-16
2.16723e-17
9.81747e-07
-3.21683e-16
1.37445e-06
-1.14877e-15
1.76715e-06
-5.28547e-15
2.15984e-06
-3.76585e-16
2.55254e-06
2.94524e-06
-5.6399e-15
-1.43382e-16
9.81747e-07
1.66397e-16
1.37445e-06
4.19123e-15
1.76715e-06
6.34951e-15
2.15984e-06
-8.05552e-16
2.55254e-06
2.94524e-06
8.39345e-16
-6.88116e-17
9.81747e-07
-9.20412e-17
1.37445e-06
-2.76927e-15
1.76715e-06
-3.68742e-16
2.15984e-06
-1.45081e-15
2.55254e-06
2.94524e-06
-1.76515e-16
1.66355e-16
9.81747e-07
-8.86528e-17
1.37445e-06
5.69733e-16
1.76715e-06
-2.10349e-15
2.15984e-06
9.65996e-15
2.55254e-06
2.94524e-06
5.29013e-15
-1.7775e-16
9.81747e-07
-2.04613e-17
1.37445e-06
-3.45376e-16
1.76715e-06
-4.17258e-15
2.15984e-06
-2.62221e-15
2.55254e-06
2.94524e-06
5.36936e-15
1.77813e-16
9.81747e-07
2.05734e-17
1.37445e-06
3.45513e-16
1.76715e-06
4.17256e-15
2.15984e-06
2.6225e-15
2.55254e-06
2.94524e-06
-5.36935e-15
-1.6633e-16
9.81747e-07
8.87624e-17
1.37445e-06
-5.69643e-16
1.76715e-06
2.10359e-15
2.15984e-06
-9.65991e-15
2.55254e-06
2.94524e-06
-5.28998e-15
6.88112e-17
9.81747e-07
9.21078e-17
1.37445e-06
2.76939e-15
1.76715e-06
3.68808e-16
2.15984e-06
1.45093e-15
2.55254e-06
2.94524e-06
1.76829e-16
1.43427e-16
9.81747e-07
-1.66337e-16
1.37445e-06
-4.19108e-15
1.76715e-06
-6.34935e-15
2.15984e-06
8.05565e-16
2.55254e-06
2.94524e-06
-8.39134e-16
-2.16394e-17
9.81747e-07
3.21773e-16
1.37445e-06
1.14896e-15
1.76715e-06
5.28569e-15
2.15984e-06
3.76805e-16
2.55254e-06
2.94524e-06
5.64012e-15
-2.53963e-16
9.81747e-07
-2.55383e-16
1.37445e-06
-2.06592e-15
1.76715e-06
-4.50398e-15
2.15984e-06
2.31014e-15
2.55254e-06
2.94524e-06
-5.40714e-16
1.80118e-16
9.81747e-07
-4.27191e-18
1.37445e-06
1.84782e-15
1.76715e-06
3.88622e-15
2.15984e-06
-3.15686e-15
2.55254e-06
2.94524e-06
-4.98039e-16
4.83838e-17
9.81747e-07
-3.94849e-17
1.37445e-06
-1.94277e-16
1.76715e-06
1.80609e-15
2.15984e-06
4.20867e-15
2.55254e-06
2.94524e-06
-5.01321e-15
-8.69614e-17
9.81747e-07
1.01923e-16
1.37445e-06
-2.69314e-15
1.76715e-06
-7.44274e-15
2.15984e-06
-3.25975e-15
2.55254e-06
2.94524e-06
2.79816e-15
1.16476e-16
9.81747e-07
-1.86334e-16
1.37445e-06
1.56238e-15
1.76715e-06
4.21268e-15
2.15984e-06
7.49855e-15
2.55254e-06
2.94524e-06
-7.72017e-16
-1.82282e-18
9.81747e-07
3.88862e-16
1.37445e-06
2.60415e-15
1.76715e-06
-1.94354e-15
2.15984e-06
-8.06613e-15
2.55254e-06
2.94524e-06
9.0301e-15
-1.36925e-16
-2.4204e-16
-3.76902e-16
1.33937e-15
3.68154e-15
-5.95129e-15
-1.13356e-14
4.53785e-06
-4.53785e-06
-4.80727e-16
5.23599e-06
-5.23599e-06
-5.35702e-15
5.93412e-06
-5.93412e-06
-1.13032e-14
6.63225e-06
-6.63225e-06
4.86972e-15
7.33038e-06
-7.33038e-06
-1.10897e-15
8.02851e-06
-8.02851e-06
-8.15823e-15
8.72664e-06
-8.72664e-06
1.30448e-14
9.42478e-06
-9.42478e-06
5.95011e-15
1.01229e-05
-1.01229e-05
-1.99519e-15
1.0821e-05
-1.0821e-05
2.43872e-14
1.15192e-05
-1.15192e-05
1.61901e-14
1.22173e-05
-1.22173e-05
-3.27853e-14
1.29154e-05
-1.29154e-05
-3.0506e-15
1.36136e-05
-1.36136e-05
-1.44399e-14
1.43117e-05
-1.43117e-05
-2.6898e-14
1.50098e-05
-1.50098e-05
7.74208e-15
1.5708e-05
-1.5708e-05
-4.43588e-15
1.64061e-05
-1.64061e-05
-1.79977e-14
1.71042e-05
-1.71042e-05
2.18222e-14
1.78024e-05
-1.78024e-05
8.21666e-15
1.85005e-05
-1.85005e-05
-6.07773e-15
1.91986e-05
-1.91986e-05
3.89191e-14
1.98967e-05
-1.98967e-05
2.05949e-05
-2.05949e-05
9.39897e-15
4.53785e-06
5.20392e-16
5.23599e-06
7.52897e-15
5.93412e-06
-4.41177e-15
6.63225e-06
3.78341e-15
7.33038e-06
1.33855e-14
8.02851e-06
-2.10972e-15
8.72664e-06
8.52956e-15
9.42478e-06
-1.00263e-14
1.01229e-05
1.86496e-15
1.0821e-05
-2.02032e-14
1.15192e-05
-7.01062e-15
1.22173e-05
7.51037e-15
1.29154e-05
2.36116e-14
1.36136e-05
-2.04192e-15
1.43117e-05
1.48351e-14
1.50098e-05
-1.38749e-14
1.5708e-05
2.39425e-15
1.64061e-05
2.04144e-14
1.71042e-05
-7.01638e-15
1.78024e-05
1.20736e-14
1.85005e-05
-2.59395e-14
1.91986e-05
1.84828e-15
1.98967e-05
2.05949e-05
-8.67587e-15
4.53785e-06
1.22926e-14
5.23599e-06
1.88361e-15
5.93412e-06
8.90234e-15
6.63225e-06
-5.10831e-15
7.33038e-06
-2.19901e-14
8.02851e-06
1.22654e-14
8.72664e-06
-5.37404e-15
9.42478e-06
4.45778e-15
1.01229e-05
-1.43046e-14
1.0821e-05
-7.32488e-15
1.15192e-05
7.04162e-15
1.22173e-05
2.39963e-14
1.29154e-05
-7.55387e-15
1.36136e-05
9.80079e-15
1.43117e-05
-1.62333e-14
1.50098e-05
4.02975e-14
1.5708e-05
1.44484e-14
1.64061e-05
-1.37015e-14
1.71042e-05
-7.89302e-15
1.78024e-05
-3.92465e-14
1.85005e-05
4.27566e-14
1.91986e-05
-8.84549e-15
1.98967e-05
2.05949e-05
5.98625e-15
4.53785e-06
2.19254e-16
5.23599e-06
-6.43509e-15
5.93412e-06
6.06462e-15
6.63225e-06
-2.09229e-15
7.33038e-06
1.61769e-14
8.02851e-06
-1.88295e-14
8.72664e-06
-2.34958e-15
9.42478e-06
9.17249e-15
1.01229e-05
-4.71022e-15
1.0821e-05
2.16289e-14
1.15192e-05
-2.96435e-14
1.22173e-05
-9.28769e-15
1.29154e-05
-1.89036e-14
1.36136e-05
4.46641e-15
1.43117e-05
3.01572e-14
1.50098e-05
-2.62135e-14
1.5708e-05
4.35487e-16
1.64061e-05
-2.11664e-14
1.71042e-05
1.87171e-14
1.78024e-05
-3.91691e-15
1.85005e-05
-2.91577e-14
1.91986e-05
1.52376e-14
1.98967e-05
2.05949e-05
6.71514e-15
4.53785e-06
-7.30611e-15
5.23599e-06
1.11014e-14
5.93412e-06
-4.2409e-15
6.63225e-06
1.5103e-14
7.33038e-06
-5.2091e-15
8.02851e-06
1.70141e-14
8.72664e-06
-3.94079e-15
9.42478e-06
-2.92863e-16
1.01229e-05
6.61018e-15
1.0821e-05
1.37069e-14
1.15192e-05
1.01858e-14
1.22173e-05
1.82186e-14
1.29154e-05
1.43704e-14
1.36136e-05
2.33388e-14
1.43117e-05
-2.53405e-14
1.50098e-05
2.90784e-14
1.5708e-05
-7.82507e-15
1.64061e-05
3.54241e-14
1.71042e-05
-4.51024e-15
1.78024e-05
4.23766e-14
1.85005e-05
-5.86164e-16
1.91986e-05
-8.72938e-15
1.98967e-05
2.05949e-05
-4.6303e-15
4.53785e-06
5.79781e-15
5.23599e-06
-1.61502e-14
5.93412e-06
-5.97432e-15
6.63225e-06
-8.55524e-15
7.33038e-06
4.22494e-15
8.02851e-06
-8.1861e-15
8.72664e-06
6.99993e-15
9.42478e-06
-2.42285e-14
1.01229e-05
-7.76903e-15
1.0821e-05
-2.27636e-14
1.15192e-05
8.34983e-15
1.22173e-05
-7.40196e-15
1.29154e-05
2.82653e-14
1.36136e-05
-4.57086e-14
1.43117e-05
-8.22237e-15
1.50098e-05
-2.82256e-14
1.5708e-05
-2.33447e-15
1.64061e-05
-6.93936e-15
1.71042e-05
2.21547e-14
1.78024e-05
-3.41067e-14
1.85005e-05
-3.73881e-15
1.91986e-05
-3.23412e-14
1.98967e-05
2.05949e-05
-8.92492e-15
4.53785e-06
-2.28862e-15
5.23599e-06
-2.22361e-15
5.93412e-06
6.61667e-15
6.63225e-06
-3.38813e-15
7.33038e-06
-3.90643e-15
8.02851e-06
-6.4182e-15
8.72664e-06
-7.15724e-15
9.42478e-06
6.81128e-15
1.01229e-05
6.98325e-15
1.0821e-05
-9.06254e-15
1.15192e-05
6.76013e-15
1.22173e-05
-2.88881e-14
1.29154e-05
-1.22322e-14
1.36136e-05
4.80548e-15
1.43117e-05
2.50264e-14
1.50098e-05
3.86297e-15
1.5708e-05
3.61047e-15
1.64061e-05
-2.0478e-14
1.71042e-05
-2.17526e-14
1.78024e-05
3.46937e-15
1.85005e-05
2.9044e-14
1.91986e-05
-1.65956e-15
1.98967e-05
2.05949e-05
6.21589e-15
4.53785e-06
-3.87867e-15
5.23599e-06
1.54229e-14
5.93412e-06
-7.06445e-15
6.63225e-06
-2.21016e-15
7.33038e-06
1.42997e-15
8.02851e-06
-5.49211e-15
8.72664e-06
1.32271e-14
9.42478e-06
6.04741e-15
1.01229e-05
-1.74496e-14
1.0821e-05
2.08886e-14
1.15192e-05
-2.14446e-14
1.22173e-05
1.91348e-14
1.29154e-05
-7.31523e-15
1.36136e-05
3.8489e-14
1.43117e-05
-1.29202e-14
1.50098e-05
-1.87934e-15
1.5708e-05
5.71987e-15
1.64061e-05
-7.58338e-15
1.71042e-05
2.76636e-14
1.78024e-05
1.40986e-14
1.85005e-05
-5.31317e-14
1.91986e-05
3.90871e-14
1.98967e-05
2.05949e-05
-1.49838e-15
4.53785e-06
1.08972e-14
5.23599e-06
-6.59874e-15
5.93412e-06
7.26624e-15
6.63225e-06
6.17544e-15
7.33038e-06
2.4892e-15
8.02851e-06
-9.64082e-16
8.72664e-06
-4.36317e-15
9.42478e-06
-8.90066e-15
1.01229e-05
1.38648e-14
1.0821e-05
1.06919e-14
1.15192e-05
6.25159e-15
1.22173e-05
-1.26021e-16
1.29154e-05
-3.43706e-15
1.36136e-05
-1.10396e-14
1.43117e-05
-1.77621e-14
1.50098e-05
1.76814e-14
1.5708e-05
9.95682e-15
1.64061e-05
3.33486e-15
1.71042e-05
-3.29683e-14
1.78024e-05
-1.04226e-14
1.85005e-05
3.00738e-14
1.91986e-05
-5.99909e-14
1.98967e-05
2.05949e-05
5.17046e-15
4.53785e-06
-7.45543e-15
5.23599e-06
-7.56388e-16
5.93412e-06
6.84011e-15
6.63225e-06
-9.97354e-15
7.33038e-06
-1.66432e-15
8.02851e-06
9.21898e-15
8.72664e-06
-1.34581e-14
9.42478e-06
2.32211e-14
1.01229e-05
1.04743e-14
1.0821e-05
-1.72722e-14
1.15192e-05
-3.02555e-15
1.22173e-05
1.14001e-14
1.29154e-05
-1.98153e-14
1.36136e-05
-4.67564e-15
1.43117e-05
5.03078e-14
1.50098e-05
-2.40442e-14
1.5708e-05
-6.65727e-15
1.64061e-05
1.42653e-14
1.71042e-05
1.65512e-15
1.78024e-05
-6.8078e-15
1.85005e-05
1.44459e-14
1.91986e-05
5.07651e-14
1.98967e-05
2.05949e-05
-6.19725e-15
4.53785e-06
2.8368e-17
5.23599e-06
1.15122e-14
5.93412e-06
-2.06247e-14
6.63225e-06
5.36685e-15
7.33038e-06
1.22198e-15
8.02851e-06
-4.7391e-17
8.72664e-06
1.23946e-14
9.42478e-06
-1.32255e-14
1.01229e-05
-1.88923e-14
1.0821e-05
-4.96271e-15
1.15192e-05
-7.15231e-15
1.22173e-05
-1.48862e-14
1.29154e-05
3.53395e-14
1.36136e-05
6.38965e-20
1.43117e-05
-4.31372e-14
1.50098e-05
1.35683e-14
1.5708e-05
-2.8254e-14
1.64061e-05
2.45895e-15
1.71042e-05
-1.02364e-14
1.78024e-05
2.38088e-14
1.85005e-05
1.38795e-14
1.91986e-05
-4.55605e-14
1.98967e-05
2.05949e-05
-1.90643e-15
4.53785e-06
1.13057e-15
5.23599e-06
-2.16618e-14
5.93412e-06
9.62457e-15
6.63225e-06
1.51376e-14
7.33038e-06
-1.4066e-14
8.02851e-06
8.09387e-15
8.72664e-06
-2.69582e-14
9.42478e-06
-1.96378e-15
1.01229e-05
2.97183e-14
1.0821e-05
-1.17451e-14
1.15192e-05
1.98683e-14
1.22173e-05
-2.74452e-14
1.29154e-05
-2.06123e-14
1.36136e-05
1.60444e-14
1.43117e-05
-4.61187e-15
1.50098e-05
4.69498e-15
1.5708e-05
4.79687e-14
1.64061e-05
-1.37355e-14
1.71042e-05
3.23755e-14
1.78024e-05
-3.51839e-14
1.85005e-05
-2.48987e-14
1.91986e-05
7.19186e-14
1.98967e-05
2.05949e-05
1.90698e-15
4.53785e-06
-1.13036e-15
5.23599e-06
2.16621e-14
5.93412e-06
-9.62302e-15
6.63225e-06
-1.51367e-14
7.33038e-06
1.40657e-14
8.02851e-06
-8.09177e-15
8.72664e-06
2.69612e-14
9.42478e-06
1.96703e-15
1.01229e-05
-2.97143e-14
1.0821e-05
1.17449e-14
1.15192e-05
-1.98662e-14
1.22173e-05
2.74458e-14
1.29154e-05
2.06138e-14
1.36136e-05
-1.60412e-14
1.43117e-05
4.61533e-15
1.50098e-05
-4.69042e-15
1.5708e-05
-4.79652e-14
1.64061e-05
1.37433e-14
1.71042e-05
-3.23671e-14
1.78024e-05
3.51829e-14
1.85005e-05
2.49103e-14
1.91986e-05
-7.19145e-14
1.98967e-05
2.05949e-05
6.19739e-15
4.53785e-06
-2.83456e-17
5.23599e-06
-1.1511e-14
5.93412e-06
2.06267e-14
6.63225e-06
-5.36637e-15
7.33038e-06
-1.22037e-15
8.02851e-06
4.90052e-17
8.72664e-06
-1.2393e-14
9.42478e-06
1.32274e-14
1.01229e-05
1.88958e-14
1.0821e-05
4.9643e-15
1.15192e-05
7.15564e-15
1.22173e-05
1.48877e-14
1.29154e-05
-3.53375e-14
1.36136e-05
2.44729e-18
1.43117e-05
4.31395e-14
1.50098e-05
-1.35603e-14
1.5708e-05
2.82578e-14
1.64061e-05
-2.45116e-15
1.71042e-05
1.02458e-14
1.78024e-05
-2.37999e-14
1.85005e-05
-1.38716e-14
1.91986e-05
4.55626e-14
1.98967e-05
2.05949e-05
-5.17018e-15
4.53785e-06
7.45578e-15
5.23599e-06
7.57099e-16
5.93412e-06
-6.83937e-15
6.63225e-06
9.97496e-15
7.33038e-06
1.66566e-15
8.02851e-06
-9.21847e-15
8.72664e-06
1.34587e-14
9.42478e-06
-2.32207e-14
1.01229e-05
-1.04708e-14
1.0821e-05
1.7274e-14
1.15192e-05
3.02839e-15
1.22173e-05
-1.13962e-14
1.29154e-05
1.98183e-14
1.36136e-05
4.6794e-15
1.43117e-05
-5.03052e-14
1.50098e-05
2.40475e-14
1.5708e-05
6.66264e-15
1.64061e-05
-1.42616e-14
1.71042e-05
-1.64556e-15
1.78024e-05
6.81237e-15
1.85005e-05
-1.44434e-14
1.91986e-05
-5.07586e-14
1.98967e-05
2.05949e-05
1.4988e-15
4.53785e-06
-1.08968e-14
5.23599e-06
6.6e-15
5.93412e-06
-7.26587e-15
6.63225e-06
-6.17453e-15
7.33038e-06
-2.48797e-15
8.02851e-06
9.64635e-16
8.72664e-06
4.3652e-15
9.42478e-06
8.90182e-15
1.01229e-05
-1.38621e-14
1.0821e-05
-1.06887e-14
1.15192e-05
-6.25023e-15
1.22173e-05
1.27324e-16
1.29154e-05
3.43959e-15
1.36136e-05
1.10437e-14
1.43117e-05
1.77676e-14
1.50098e-05
-1.76794e-14
1.5708e-05
-9.95188e-15
1.64061e-05
-3.32738e-15
1.71042e-05
3.29683e-14
1.78024e-05
1.04226e-14
1.85005e-05
-3.0068e-14
1.91986e-05
5.99997e-14
1.98967e-05
2.05949e-05
-6.21569e-15
4.53785e-06
3.87926e-15
5.23599e-06
-1.54217e-14
5.93412e-06
7.06534e-15
6.63225e-06
2.21036e-15
7.33038e-06
-1.42873e-15
8.02851e-06
5.49377e-15
8.72664e-06
-1.32245e-14
9.42478e-06
-6.04344e-15
1.01229e-05
1.74511e-14
1.0821e-05
-2.08867e-14
1.15192e-05
2.14453e-14
1.22173e-05
-1.91342e-14
1.29154e-05
7.31599e-15
1.36136e-05
-3.84863e-14
1.43117e-05
1.29226e-14
1.50098e-05
1.88482e-15
1.5708e-05
-5.71493e-15
1.64061e-05
7.58895e-15
1.71042e-05
-2.76568e-14
1.78024e-05
-1.40973e-14
1.85005e-05
5.31453e-14
1.91986e-05
-3.90815e-14
1.98967e-05
2.05949e-05
8.92523e-15
4.53785e-06
2.28883e-15
5.23599e-06
2.22427e-15
5.93412e-06
-6.61619e-15
6.63225e-06
3.38801e-15
7.33038e-06
3.90784e-15
8.02851e-06
6.41985e-15
8.72664e-06
7.15935e-15
9.42478e-06
-6.80919e-15
1.01229e-05
-6.98276e-15
1.0821e-05
9.06586e-15
1.15192e-05
-6.75816e-15
1.22173e-05
2.88893e-14
1.29154e-05
1.22357e-14
1.36136e-05
-4.8031e-15
1.43117e-05
-2.50238e-14
1.50098e-05
-3.86023e-15
1.5708e-05
-3.60648e-15
1.64061e-05
2.04861e-14
1.71042e-05
2.17666e-14
1.78024e-05
-3.46556e-15
1.85005e-05
-2.90393e-14
1.91986e-05
1.66433e-15
1.98967e-05
2.05949e-05
4.63064e-15
4.53785e-06
-5.79745e-15
5.23599e-06
1.61506e-14
5.93412e-06
5.97457e-15
6.63225e-06
8.55555e-15
7.33038e-06
-4.22317e-15
8.02851e-06
8.18816e-15
8.72664e-06
-6.99927e-15
9.42478e-06
2.42306e-14
1.01229e-05
7.76975e-15
1.0821e-05
2.27654e-14
1.15192e-05
-8.34903e-15
1.22173e-05
7.40462e-15
1.29154e-05
-2.82662e-14
1.36136e-05
4.57094e-14
1.43117e-05
8.22379e-15
1.50098e-05
2.82265e-14
1.5708e-05
2.34174e-15
1.64061e-05
6.94692e-15
1.71042e-05
-2.21498e-14
1.78024e-05
3.41055e-14
1.85005e-05
3.74011e-15
1.91986e-05
3.23486e-14
1.98967e-05
2.05949e-05
-6.71464e-15
4.53785e-06
7.3066e-15
5.23599e-06
-1.11008e-14
5.93412e-06
4.24137e-15
6.63225e-06
-1.51023e-14
7.33038e-06
5.20955e-15
8.02851e-06
-1.70131e-14
8.72664e-06
3.94088e-15
9.42478e-06
2.94472e-16
1.01229e-05
-6.60941e-15
1.0821e-05
-1.37048e-14
1.15192e-05
-1.01841e-14
1.22173e-05
-1.82162e-14
1.29154e-05
-1.43677e-14
1.36136e-05
-2.33411e-14
1.43117e-05
2.5346e-14
1.50098e-05
-2.90705e-14
1.5708e-05
7.83031e-15
1.64061e-05
-3.54121e-14
1.71042e-05
4.51247e-15
1.78024e-05
-4.23721e-14
1.85005e-05
5.86709e-16
1.91986e-05
8.73308e-15
1.98967e-05
2.05949e-05
-5.98576e-15
4.53785e-06
-2.18921e-16
5.23599e-06
6.43573e-15
5.93412e-06
-6.06374e-15
6.63225e-06
2.09299e-15
7.33038e-06
-1.61761e-14
8.02851e-06
1.88305e-14
8.72664e-06
2.35106e-15
9.42478e-06
-9.17153e-15
1.01229e-05
4.71158e-15
1.0821e-05
-2.16265e-14
1.15192e-05
2.96458e-14
1.22173e-05
9.28999e-15
1.29154e-05
1.89081e-14
1.36136e-05
-4.46465e-15
1.43117e-05
-3.01531e-14
1.50098e-05
2.62189e-14
1.5708e-05
-4.3636e-16
1.64061e-05
2.11735e-14
1.71042e-05
-1.87125e-14
1.78024e-05
3.92362e-15
1.85005e-05
2.91615e-14
1.91986e-05
-1.52314e-14
1.98967e-05
2.05949e-05
8.67631e-15
4.53785e-06
-1.22925e-14
5.23599e-06
-1.88278e-15
5.93412e-06
-8.90214e-15
6.63225e-06
5.10941e-15
7.33038e-06
2.19916e-14
8.02851e-06
-1.22645e-14
8.72664e-06
5.37514e-15
9.42478e-06
-4.4553e-15
1.01229e-05
1.43055e-14
1.0821e-05
7.32657e-15
1.15192e-05
-7.03928e-15
1.22173e-05
-2.39948e-14
1.29154e-05
7.55555e-15
1.36136e-05
-9.79803e-15
1.43117e-05
1.62401e-14
1.50098e-05
-4.02936e-14
1.5708e-05
-1.44453e-14
1.64061e-05
1.37071e-14
1.71042e-05
7.89601e-15
1.78024e-05
3.92546e-14
1.85005e-05
-4.27481e-14
1.91986e-05
8.85137e-15
1.98967e-05
2.05949e-05
-9.39862e-15
4.53785e-06
-5.20075e-16
5.23599e-06
-7.52788e-15
5.93412e-06
4.41201e-15
6.63225e-06
-3.78236e-15
7.33038e-06
-1.33842e-14
8.02851e-06
2.10928e-15
8.72664e-06
-8.5281e-15
9.42478e-06
1.00281e-14
1.01229e-05
-1.86496e-15
1.0821e-05
2.02034e-14
1.15192e-05
7.01423e-15
1.22173e-05
-7.51015e-15
1.29154e-05
-2.36078e-14
1.36136e-05
2.04461e-15
1.43117e-05
-1.48322e-14
1.50098e-05
1.38822e-14
1.5708e-05
-2.38935e-15
1.64061e-05
-2.04083e-14
1.71042e-05
7.01597e-15
1.78024e-05
-1.20661e-14
1.85005e-05
2.59434e-14
1.91986e-05
-1.8447e-15
1.98967e-05
2.05949e-05
1.13363e-14
4.53785e-06
4.81442e-16
5.23599e-06
5.35765e-15
5.93412e-06
1.13041e-14
6.63225e-06
-4.8685e-15
7.33038e-06
1.1093e-15
8.02851e-06
8.15846e-15
8.72664e-06
-1.3044e-14
9.42478e-06
-5.94823e-15
1.01229e-05
1.99618e-15
1.0821e-05
-2.43861e-14
1.15192e-05
-1.61881e-14
1.22173e-05
3.27861e-14
1.29154e-05
3.0533e-15
1.36136e-05
1.44439e-14
1.43117e-05
2.69038e-14
1.50098e-05
-7.73567e-15
1.5708e-05
4.43718e-15
1.64061e-05
1.80047e-14
1.71042e-05
-2.18215e-14
1.78024e-05
-8.20976e-15
1.85005e-05
6.08363e-15
1.91986e-05
-3.89166e-14
1.98967e-05
2.05949e-05
1.36985e-16
9.81747e-07
2.42095e-16
1.37445e-06
3.77055e-16
1.76715e-06
-1.33924e-15
2.15984e-06
-3.68152e-15
2.55254e-06
2.94524e-06
5.95152e-15
1.85152e-18
9.81747e-07
-3.88741e-16
1.37445e-06
-2.60405e-15
1.76715e-06
1.94382e-15
2.15984e-06
8.06629e-15
2.55254e-06
2.94524e-06
-9.02972e-15
-1.1644e-16
9.81747e-07
1.86421e-16
1.37445e-06
-1.56233e-15
1.76715e-06
-4.21242e-15
2.15984e-06
-7.49836e-15
2.55254e-06
2.94524e-06
7.72494e-16
8.69708e-17
9.81747e-07
-1.01937e-16
1.37445e-06
2.69323e-15
1.76715e-06
7.44291e-15
2.15984e-06
3.25987e-15
2.55254e-06
2.94524e-06
-2.79767e-15
-4.83527e-17
9.81747e-07
3.95086e-17
1.37445e-06
1.94364e-16
1.76715e-06
-1.80595e-15
2.15984e-06
-4.20842e-15
2.55254e-06
2.94524e-06
5.01347e-15
-1.80093e-16
9.81747e-07
4.31797e-18
1.37445e-06
-1.84768e-15
1.76715e-06
-3.88605e-15
2.15984e-06
3.15703e-15
2.55254e-06
2.94524e-06
4.98204e-16
2.53998e-16
9.81747e-07
2.5545e-16
1.37445e-06
2.06607e-15
1.76715e-06
4.50424e-15
2.15984e-06
-2.30991e-15
2.55254e-06
2.94524e-06
5.40944e-16
2.16723e-17
9.81747e-07
-3.21683e-16
1.37445e-06
-1.14877e-15
1.76715e-06
-5.28547e-15
2.15984e-06
-3.76585e-16
2.55254e-06
2.94524e-06
-5.6399e-15
-1.43382e-16
9.81747e-07
1.66397e-16
1.37445e-06
4.19123e-15
1.76715e-06
6.34951e-15
2.15984e-06
-8.05552e-16
2.55254e-06
2.94524e-06
8.39345e-16
-6.88116e-17
9.81747e-07
-9.20412e-17
1.37445e-06
-2.76927e-15
1.76715e-06
-3.68742e-16
2.15984e-06
-1.45081e-15
2.55254e-06
2.94524e-06
-1.76515e-16
1.66355e-16
9.81747e-07
-8.86528e-17
1.37445e-06
5.69733e-16
1.76715e-06
-2.10349e-15
2.15984e-06
9.65996e-15
2.55254e-06
2.94524e-06
5.29013e-15
-1.7775e-16
9.81747e-07
-2.04613e-17
1.37445e-06
-3.45376e-16
1.76715e-06
-4.17258e-15
2.15984e-06
-2.62221e-15
2.55254e-06
2.94524e-06
5.36936e-15
1.77813e-16
9.81747e-07
2.05734e-17
1.37445e-06
3.45513e-16
1.76715e-06
4.17256e-15
2.15984e-06
2.6225e-15
2.55254e-06
2.94524e-06
-5.36935e-15
-1.6633e-16
9.81747e-07
8.87624e-17
1.37445e-06
-5.69643e-16
1.76715e-06
2.10359e-15
2.15984e-06
-9.65991e-15
2.55254e-06
2.94524e-06
-5.28998e-15
6.88112e-17
9.81747e-07
9.21078e-17
1.37445e-06
2.76939e-15
1.76715e-06
3.68808e-16
2.15984e-06
1.45093e-15
2.55254e-06
2.94524e-06
1.76829e-16
1.43427e-16
9.81747e-07
-1.66337e-16
1.37445e-06
-4.19108e-15
1.76715e-06
-6.34935e-15
2.15984e-06
8.05565e-16
2.55254e-06
2.94524e-06
-8.39134e-16
-2.16394e-17
9.81747e-07
3.21773e-16
1.37445e-06
1.14896e-15
1.76715e-06
5.28569e-15
2.15984e-06
3.76805e-16
2.55254e-06
2.94524e-06
5.64012e-15
-2.53963e-16
9.81747e-07
-2.55383e-16
1.37445e-06
-2.06592e-15
1.76715e-06
-4.50398e-15
2.15984e-06
2.31014e-15
2.55254e-06
2.94524e-06
-5.40714e-16
1.80118e-16
9.81747e-07
-4.27191e-18
1.37445e-06
1.84782e-15
1.76715e-06
3.88622e-15
2.15984e-06
-3.15686e-15
2.55254e-06
2.94524e-06
-4.98039e-16
4.83838e-17
9.81747e-07
-3.94849e-17
1.37445e-06
-1.94277e-16
1.76715e-06
1.80609e-15
2.15984e-06
4.20867e-15
2.55254e-06
2.94524e-06
-5.01321e-15
-8.69614e-17
9.81747e-07
1.01923e-16
1.37445e-06
-2.69314e-15
1.76715e-06
-7.44274e-15
2.15984e-06
-3.25975e-15
2.55254e-06
2.94524e-06
2.79816e-15
1.16476e-16
9.81747e-07
-1.86334e-16
1.37445e-06
1.56238e-15
1.76715e-06
4.21268e-15
2.15984e-06
7.49855e-15
2.55254e-06
2.94524e-06
-7.72017e-16
-1.82282e-18
9.81747e-07
3.88862e-16
1.37445e-06
2.60415e-15
1.76715e-06
-1.94354e-15
2.15984e-06
-8.06613e-15
2.55254e-06
2.94524e-06
9.0301e-15
-1.36932e-16
-2.42041e-16
-3.76896e-16
1.33941e-15
3.68158e-15
-5.95129e-15
-1.13358e-14
4.53785e-06
-4.80847e-16
5.23599e-06
-5.35695e-15
5.93412e-06
-1.13034e-14
6.63225e-06
4.86963e-15
7.33038e-06
-1.10889e-15
8.02851e-06
-8.15806e-15
8.72664e-06
1.30453e-14
9.42478e-06
5.95077e-15
1.01229e-05
-1.99518e-15
1.0821e-05
2.4388e-14
1.15192e-05
1.61901e-14
1.22173e-05
-3.27853e-14
1.29154e-05
-3.0506e-15
1.36136e-05
-1.44406e-14
1.43117e-05
-2.68989e-14
1.50098e-05
7.74439e-15
1.5708e-05
-4.43555e-15
1.64061e-05
-1.79961e-14
1.71042e-05
2.18233e-14
1.78024e-05
8.21855e-15
1.85005e-05
-6.07842e-15
1.91986e-05
3.89216e-14
1.98967e-05
2.05949e-05
9.39897e-15
4.53785e-06
5.20392e-16
5.23599e-06
7.52897e-15
5.93412e-06
-4.41177e-15
6.63225e-06
3.78341e-15
7.33038e-06
1.33855e-14
8.02851e-06
-2.10972e-15
8.72664e-06
8.52956e-15
9.42478e-06
-1.00263e-14
1.01229e-05
1.86496e-15
1.0821e-05
-2.02032e-14
1.15192e-05
-7.01062e-15
1.22173e-05
7.51037e-15
1.29154e-05
2.36116e-14
1.36136e-05
-2.04192e-15
1.43117e-05
1.48351e-14
1.50098e-05
-1.38749e-14
1.5708e-05
2.39425e-15
1.64061e-05
2.04144e-14
1.71042e-05
-7.01638e-15
1.78024e-05
1.20736e-14
1.85005e-05
-2.59395e-14
1.91986e-05
1.84828e-15
1.98967e-05
2.05949e-05
-8.67587e-15
4.53785e-06
1.22926e-14
5.23599e-06
1.88361e-15
5.93412e-06
8.90234e-15
6.63225e-06
-5.10831e-15
7.33038e-06
-2.19901e-14
8.02851e-06
1.22654e-14
8.72664e-06
-5.37404e-15
9.42478e-06
4.45778e-15
1.01229e-05
-1.43046e-14
1.0821e-05
-7.32488e-15
1.15192e-05
7.04162e-15
1.22173e-05
2.39963e-14
1.29154e-05
-7.55387e-15
1.36136e-05
9.80079e-15
1.43117e-05
-1.62333e-14
1.50098e-05
4.02975e-14
1.5708e-05
1.44484e-14
1.64061e-05
-1.37015e-14
1.71042e-05
-7.89302e-15
1.78024e-05
-3.92465e-14
1.85005e-05
4.27566e-14
1.91986e-05
-8.84549e-15
1.98967e-05
2.05949e-05
5.98625e-15
4.53785e-06
2.19254e-16
5.23599e-06
-6.43509e-15
5.93412e-06
6.06462e-15
6.63225e-06
-2.09229e-15
7.33038e-06
1.61769e-14
8.02851e-06
-1.88295e-14
8.72664e-06
-2.34958e-15
9.42478e-06
9.17249e-15
1.01229e-05
-4.71022e-15
1.0821e-05
2.16289e-14
1.15192e-05
-2.96435e-14
1.22173e-05
-9.28769e-15
1.29154e-05
-1.89036e-14
1.36136e-05
4.46641e-15
1.43117e-05
3.01572e-14
1.50098e-05
-2.62135e-14
1.5708e-05
4.35487e-16
1.64061e-05
-2.11664e-14
1.71042e-05
1.87171e-14
1.78024e-05
-3.91691e-15
1.85005e-05
-2.91577e-14
1.91986e-05
1.52376e-14
1.98967e-05
2.05949e-05
6.71514e-15
4.53785e-06
-7.30611e-15
5.23599e-06
1.11014e-14
5.93412e-06
-4.2409e-15
6.63225e-06
1.5103e-14
7.33038e-06
-5.2091e-15
8.02851e-06
1.70141e-14
8.72664e-06
-3.94079e-15
9.42478e-06
-2.92863e-16
1.01229e-05
6.61018e-15
1.0821e-05
1.37069e-14
1.15192e-05
1.01858e-14
1.22173e-05
1.82186e-14
1.29154e-05
1.43704e-14
1.36136e-05
2.33388e-14
1.43117e-05
-2.53405e-14
1.50098e-05
2.90784e-14
1.5708e-05
-7.82507e-15
1.64061e-05
3.54241e-14
1.71042e-05
-4.51024e-15
1.78024e-05
4.23766e-14
1.85005e-05
-5.86164e-16
1.91986e-05
-8.72938e-15
1.98967e-05
2.05949e-05
-4.6303e-15
4.53785e-06
5.79781e-15
5.23599e-06
-1.61502e-14
5.93412e-06
-5.97432e-15
6.63225e-06
-8.55524e-15
7.33038e-06
4.22494e-15
8.02851e-06
-8.1861e-15
8.72664e-06
6.99993e-15
9.42478e-06
-2.42285e-14
1.01229e-05
-7.76903e-15
1.0821e-05
-2.27636e-14
1.15192e-05
8.34983e-15
1.22173e-05
-7.40196e-15
1.29154e-05
2.82653e-14
1.36136e-05
-4.57086e-14
1.43117e-05
-8.22237e-15
1.50098e-05
-2.82256e-14
1.5708e-05
-2.33447e-15
1.64061e-05
-6.93936e-15
1.71042e-05
2.21547e-14
1.78024e-05
-3.41067e-14
1.85005e-05
-3.73881e-15
1.91986e-05
-3.23412e-14
1.98967e-05
2.05949e-05
-8.92492e-15
4.53785e-06
-2.28862e-15
5.23599e-06
-2.22361e-15
5.93412e-06
6.61667e-15
6.63225e-06
-3.38813e-15
7.33038e-06
-3.90643e-15
8.02851e-06
-6.4182e-15
8.72664e-06
-7.15724e-15
9.42478e-06
6.81128e-15
1.01229e-05
6.98325e-15
1.0821e-05
-9.06254e-15
1.15192e-05
6.76013e-15
1.22173e-05
-2.88881e-14
1.29154e-05
-1.22322e-14
1.36136e-05
4.80548e-15
1.43117e-05
2.50264e-14
1.50098e-05
3.86297e-15
1.5708e-05
3.61047e-15
1.64061e-05
-2.0478e-14
1.71042e-05
-2.17526e-14
1.78024e-05
3.46937e-15
1.85005e-05
2.9044e-14
1.91986e-05
-1.65956e-15
1.98967e-05
2.05949e-05
6.21589e-15
4.53785e-06
-3.87867e-15
5.23599e-06
1.54229e-14
5.93412e-06
-7.06445e-15
6.63225e-06
-2.21016e-15
7.33038e-06
1.42997e-15
8.02851e-06
-5.49211e-15
8.72664e-06
1.32271e-14
9.42478e-06
6.04741e-15
1.01229e-05
-1.74496e-14
1.0821e-05
2.08886e-14
1.15192e-05
-2.14446e-14
1.22173e-05
1.91348e-14
1.29154e-05
-7.31523e-15
1.36136e-05
3.8489e-14
1.43117e-05
-1.29202e-14
1.50098e-05
-1.87934e-15
1.5708e-05
5.71987e-15
1.64061e-05
-7.58338e-15
1.71042e-05
2.76636e-14
1.78024e-05
1.40986e-14
1.85005e-05
-5.31317e-14
1.91986e-05
3.90871e-14
1.98967e-05
2.05949e-05
-1.49838e-15
4.53785e-06
1.08972e-14
5.23599e-06
-6.59874e-15
5.93412e-06
7.26624e-15
6.63225e-06
6.17544e-15
7.33038e-06
2.4892e-15
8.02851e-06
-9.64082e-16
8.72664e-06
-4.36317e-15
9.42478e-06
-8.90066e-15
1.01229e-05
1.38648e-14
1.0821e-05
1.06919e-14
1.15192e-05
6.25159e-15
1.22173e-05
-1.26021e-16
1.29154e-05
-3.43706e-15
1.36136e-05
-1.10396e-14
1.43117e-05
-1.77621e-14
1.50098e-05
1.76814e-14
1.5708e-05
9.95682e-15
1.64061e-05
3.33486e-15
1.71042e-05
-3.29683e-14
1.78024e-05
-1.04226e-14
1.85005e-05
3.00738e-14
1.91986e-05
-5.99909e-14
1.98967e-05
2.05949e-05
5.17046e-15
4.53785e-06
-7.45543e-15
5.23599e-06
-7.56388e-16
5.93412e-06
6.84011e-15
6.63225e-06
-9.97354e-15
7.33038e-06
-1.66432e-15
8.02851e-06
9.21898e-15
8.72664e-06
-1.34581e-14
9.42478e-06
2.32211e-14
1.01229e-05
1.04743e-14
1.0821e-05
-1.72722e-14
1.15192e-05
-3.02555e-15
1.22173e-05
1.14001e-14
1.29154e-05
-1.98153e-14
1.36136e-05
-4.67564e-15
1.43117e-05
5.03078e-14
1.50098e-05
-2.40442e-14
1.5708e-05
-6.65727e-15
1.64061e-05
1.42653e-14
1.71042e-05
1.65512e-15
1.78024e-05
-6.8078e-15
1.85005e-05
1.44459e-14
1.91986e-05
5.07651e-14
1.98967e-05
2.05949e-05
-6.19725e-15
4.53785e-06
2.8368e-17
5.23599e-06
1.15122e-14
5.93412e-06
-2.06247e-14
6.63225e-06
5.36685e-15
7.33038e-06
1.22198e-15
8.02851e-06
-4.7391e-17
8.72664e-06
1.23946e-14
9.42478e-06
-1.32255e-14
1.01229e-05
-1.88923e-14
1.0821e-05
-4.96271e-15
1.15192e-05
-7.15231e-15
1.22173e-05
-1.48862e-14
1.29154e-05
3.53395e-14
1.36136e-05
6.38965e-20
1.43117e-05
-4.31372e-14
1.50098e-05
1.35683e-14
1.5708e-05
-2.8254e-14
1.64061e-05
2.45895e-15
1.71042e-05
-1.02364e-14
1.78024e-05
2.38088e-14
1.85005e-05
1.38795e-14
1.91986e-05
-4.55605e-14
1.98967e-05
2.05949e-05
-1.90643e-15
4.53785e-06
1.13057e-15
5.23599e-06
-2.16618e-14
5.93412e-06
9.62457e-15
6.63225e-06
1.51376e-14
7.33038e-06
-1.4066e-14
8.02851e-06
8.09387e-15
8.72664e-06
-2.69582e-14
9.42478e-06
-1.96378e-15
1.01229e-05
2.97183e-14
1.0821e-05
-1.17451e-14
1.15192e-05
1.98683e-14
1.22173e-05
-2.74452e-14
1.29154e-05
-2.06123e-14
1.36136e-05
1.60444e-14
1.43117e-05
-4.61187e-15
1.50098e-05
4.69498e-15
1.5708e-05
4.79687e-14
1.64061e-05
-1.37355e-14
1.71042e-05
3.23755e-14
1.78024e-05
-3.51839e-14
1.85005e-05
-2.48987e-14
1.91986e-05
7.19186e-14
1.98967e-05
2.05949e-05
1.90698e-15
4.53785e-06
-1.13036e-15
5.23599e-06
2.16621e-14
5.93412e-06
-9.62302e-15
6.63225e-06
-1.51367e-14
7.33038e-06
1.40657e-14
8.02851e-06
-8.09177e-15
8.72664e-06
2.69612e-14
9.42478e-06
1.96703e-15
1.01229e-05
-2.97143e-14
1.0821e-05
1.17449e-14
1.15192e-05
-1.98662e-14
1.22173e-05
2.74458e-14
1.29154e-05
2.06138e-14
1.36136e-05
-1.60412e-14
1.43117e-05
4.61533e-15
1.50098e-05
-4.69042e-15
1.5708e-05
-4.79652e-14
1.64061e-05
1.37433e-14
1.71042e-05
-3.23671e-14
1.78024e-05
3.51829e-14
1.85005e-05
2.49103e-14
1.91986e-05
-7.19145e-14
1.98967e-05
2.05949e-05
6.19739e-15
4.53785e-06
-2.83456e-17
5.23599e-06
-1.1511e-14
5.93412e-06
2.06267e-14
6.63225e-06
-5.36637e-15
7.33038e-06
-1.22037e-15
8.02851e-06
4.90052e-17
8.72664e-06
-1.2393e-14
9.42478e-06
1.32274e-14
1.01229e-05
1.88958e-14
1.0821e-05
4.9643e-15
1.15192e-05
7.15564e-15
1.22173e-05
1.48877e-14
1.29154e-05
-3.53375e-14
1.36136e-05
2.44729e-18
1.43117e-05
4.31395e-14
1.50098e-05
-1.35603e-14
1.5708e-05
2.82578e-14
1.64061e-05
-2.45116e-15
1.71042e-05
1.02458e-14
1.78024e-05
-2.37999e-14
1.85005e-05
-1.38716e-14
1.91986e-05
4.55626e-14
1.98967e-05
2.05949e-05
-5.17018e-15
4.53785e-06
7.45578e-15
5.23599e-06
7.57099e-16
5.93412e-06
-6.83937e-15
6.63225e-06
9.97496e-15
7.33038e-06
1.66566e-15
8.02851e-06
-9.21847e-15
8.72664e-06
1.34587e-14
9.42478e-06
-2.32207e-14
1.01229e-05
-1.04708e-14
1.0821e-05
1.7274e-14
1.15192e-05
3.02839e-15
1.22173e-05
-1.13962e-14
1.29154e-05
1.98183e-14
1.36136e-05
4.6794e-15
1.43117e-05
-5.03052e-14