/*--------------------------------*- C++ -*----------------------------------*\
  =========                 |
  \\      /  F ield         | OpenFOAM: The Open Source CFD Toolbox
   \\    /   O peration     | Website:  https://openfoam.org
    \\  /    A nd           | Version:  11
     \\/     M anipulation  |
\*---------------------------------------------------------------------------*/
FoamFile
{
    format      ascii;
    class       volScalarField;
    location    "1.16";
    object      p;
}
// * * * * * * * * * * * * * * * * * * * * * * * * * * * * * * * * * * * * * //

dimensions      [0 2 -2 0 0 0 0];

internalField   nonuniform List<scalar> 
2880
(
-0.854721
-0.909941
-1.00509
-1.03715
-1.05042
-1.12965
-0.866685
-0.922136
-1.01225
-1.04757
-1.04636
-1.08543
-0.87829
-0.934649
-1.02192
-1.0616
-1.05082
-1.07065
-0.890698
-0.947933
-1.03477
-1.07778
-1.06436
-1.0747
-0.905205
-0.962336
-1.04993
-1.09433
-1.0838
-1.0868
-0.920337
-0.977605
-1.06525
-1.11029
-1.10505
-1.10246
-0.934678
-0.992985
-1.07896
-1.12466
-1.12436
-1.11765
-0.947554
-1.00688
-1.09018
-1.13635
-1.1399
-1.12928
-0.958207
-1.01809
-1.0984
-1.14449
-1.15053
-1.13573
-0.965861
-1.02593
-1.10327
-1.14847
-1.15542
-1.13591
-0.969932
-1.02996
-1.10453
-1.1479
-1.15401
-1.12908
-0.970027
-1.02997
-1.10208
-1.14261
-1.14601
-1.11494
-0.965944
-1.02604
-1.09589
-1.13262
-1.13159
-1.09363
-0.957708
-1.01873
-1.08612
-1.11822
-1.11154
-1.06543
-0.945817
-1.00845
-1.07309
-1.09984
-1.08628
-1.03143
-0.931084
-0.995673
-1.05721
-1.07814
-1.05682
-0.992652
-0.914526
-0.981022
-1.03901
-1.05387
-1.02439
-0.950994
-0.897251
-0.965303
-1.01913
-1.02789
-0.990283
-0.908096
-0.880344
-0.94953
-0.998328
-1.00104
-0.955885
-0.865868
-0.864936
-0.934893
-0.977634
-0.97429
-0.922646
-0.826573
-0.852342
-0.922999
-0.958758
-0.948775
-0.891431
-0.791532
-0.844355
-0.91521
-0.94381
-0.925051
-0.860888
-0.75795
-0.843053
-0.909723
-0.931825
-0.899122
-0.827241
-0.721746
-0.846863
-0.899924
-0.908165
-0.862297
-0.79665
-0.706329
-0.504744
-0.084981
0.0423824
0.137395
0.197161
0.232295
0.252299
0.263736
0.270656
0.275319
0.278816
0.281584
0.2838
0.285597
0.28707
0.288276
0.289256
0.290036
0.290503
0.290241
0.289546
0.292888
0.306622
0.303873
-0.706023
-0.293598
-0.101546
0.0304072
0.111934
0.162137
0.19307
0.212657
0.225774
0.235225
0.242483
0.248246
0.25287
0.256609
0.259644
0.262101
0.264078
0.265649
0.266744
0.266976
0.266647
0.270298
0.284556
0.282032
-0.789688
-0.447578
-0.224151
-0.0679135
0.0301282
0.0937448
0.134817
0.162152
0.181271
0.195424
0.206412
0.215167
0.222214
0.227922
0.232555
0.236302
0.239315
0.241713
0.243469
0.244233
0.244309
0.248237
0.262824
0.260688
-0.852631
-0.558497
-0.324639
-0.154454
-0.0461763
0.0290422
0.0789729
0.113308
0.137994
0.156595
0.171162
0.182823
0.192253
0.19992
0.206161
0.211225
0.215306
0.218565
0.221013
0.222344
0.222855
0.227004
0.241707
0.240207
-0.909072
-0.643077
-0.407655
-0.231945
-0.112811
-0.030392
0.0266335
0.0670248
0.0966756
0.119335
0.137233
0.151645
0.163366
0.172949
0.180793
0.187191
0.192375
0.196534
0.199718
0.201657
0.202625
0.2069
0.221462
0.221002
-0.954508
-0.708718
-0.476007
-0.297832
-0.172794
-0.0840977
-0.0214847
0.0239598
0.0578838
0.0841316
0.105038
0.121985
0.135864
0.147294
0.156719
0.16447
0.170803
0.17593
0.179923
0.182549
0.184012
0.188252
0.202277
0.203585
-0.987888
-0.758482
-0.531083
-0.353006
-0.225169
-0.131916
-0.0648149
-0.0154112
0.0220295
0.0513493
0.07489
0.0941076
0.109969
0.123144
0.134114
0.143236
0.150788
0.15699
0.161942
0.165446
0.167559
0.171509
0.184161
0.188738
-1.01062
-0.79444
-0.574056
-0.398364
-0.269207
-0.173268
-0.103205
-0.0508221
-0.0105563
0.0212653
0.0470042
0.0681794
0.0858013
0.100575
0.113014
0.123506
0.132351
0.139792
0.145977
0.150808
0.154175
0.158026
0.168091
0.17858
-1.02357
-0.818161
-0.605843
-0.434126
-0.304808
-0.208212
-0.136421
-0.0819914
-0.0396861
-0.00596457
0.0215141
0.044285
0.0633829
0.0795391
0.0932936
0.105061
0.115173
0.123907
0.131458
0.137802
0.142891
0.148452
0.158874
0.163581
-1.02696
-0.830591
-0.627032
-0.460441
-0.332403
-0.236857
-0.164325
-0.108766
-0.0652056
-0.0302066
-0.00148891
0.0224637
0.0426876
0.059919
0.0747024
0.0874548
0.0985054
0.10811
0.11639
0.12321
0.128644
0.135215
0.146684
0.139508
-1.02083
-0.832311
-0.638047
-0.477732
-0.352503
-0.259059
-0.186865
-0.131092
-0.0870286
-0.0513745
-0.0219376
0.00275414
0.0237142
0.041661
0.0571198
0.070484
0.0820538
0.0920464
0.100531
0.107342
0.112706
0.119523
0.131015
0.120304
-1.00541
-0.823824
-0.63919
-0.486323
-0.365823
-0.274658
-0.204067
-0.148989
-0.105134
-0.0694219
-0.0397744
-0.014782
0.00652838
0.0248428
0.0406563
0.0543326
0.0661453
0.0762926
0.0848448
0.091683
0.0971512
0.104201
0.115709
0.104855
-0.981042
-0.805765
-0.631
-0.4865
-0.372498
-0.284037
-0.216122
-0.162548
-0.119552
-0.0843369
-0.0549551
-0.030074
-0.00877268
0.00959522
0.0254915
0.0392527
0.0511339
0.0613302
0.0699366
0.0769056
0.0826534
0.0900166
0.101618
0.0916924
-0.948328
-0.778833
-0.61411
-0.478721
-0.372144
-0.288064
-0.223298
-0.171907
-0.130365
-0.0961465
-0.0674599
-0.0430621
-0.0220919
-0.00394639
0.0118036
0.0254711
0.0372979
0.0474809
0.0561446
0.0633146
0.0694215
0.0771222
0.0888897
0.0803824
-0.908305
-0.743812
-0.589268
-0.463699
-0.365025
-0.286991
-0.226005
-0.177312
-0.137716
-0.104927
-0.0773068
-0.0537139
-0.033353
-0.0156659
-0.000254939
0.0131717
0.024844
0.0349597
0.0436705
0.0510524
0.0575201
0.0655614
0.077563
0.0707302
-0.862419
-0.701988
-0.557451
-0.442295
-0.352196
-0.280879
-0.22443
-0.178991
-0.14179
-0.110798
-0.0845559
-0.0620357
-0.0425149
-0.0254828
-0.0105729
0.00248575
0.0139102
0.0238955
0.0326124
0.040161
0.0469405
0.0552923
0.0675588
0.0625362
-0.811989
-0.655153
-0.520183
-0.415664
-0.33461
-0.270367
-0.219001
-0.17728
-0.142839
-0.11394
-0.0893221
-0.0680837
-0.0495836
-0.0333625
-0.0190867
-0.00650731
0.00457749
0.014354
0.0230009
0.0306321
0.0376354
0.0462189
0.0587243
0.05557
-0.758255
-0.604942
-0.479351
-0.385286
-0.313345
-0.25632
-0.210337
-0.172627
-0.141199
-0.114603
-0.0917818
-0.0719716
-0.0546192
-0.0393217
-0.0257816
-0.0137742
-0.00311634
0.00636298
0.0148404
0.0224386
0.0295406
0.0382188
0.0508566
0.0495703
-0.702009
-0.55242
-0.436661
-0.352769
-0.289671
-0.239732
-0.199173
-0.16558
-0.137285
-0.113102
-0.0921731
-0.0738719
-0.0577382
-0.0434303
-0.030691
-0.0193232
-0.00916621
-6.86396e-05
0.00813508
0.0155718
0.0226162
0.031183
0.0437349
0.044254
-0.643835
-0.498075
-0.393351
-0.319596
-0.264929
-0.221701
-0.186353
-0.15678
-0.131588
-0.109819
-0.0907924
-0.0740126
-0.0591115
-0.0458104
-0.0338955
-0.0232016
-0.0135962
-0.0049494
0.00288348
0.0100262
0.016827
0.0250266
0.0371532
0.0393191
-0.58443
-0.442166
-0.350245
-0.286933
-0.24032
-0.203309
-0.172774
-0.146942
-0.124671
-0.105196
-0.0879906
-0.072673
-0.0589595
-0.0466325
-0.0355212
-0.0254951
-0.0164649
-0.00831797
-0.000931536
0.00580562
0.0121906
0.0197313
0.0309082
0.0343987
-0.526209
-0.385539
-0.308348
-0.255834
-0.216884
-0.18555
-0.159317
-0.136809
-0.117141
-0.0997271
-0.0841674
-0.0701775
-0.0575462
-0.0461102
-0.0357321
-0.0263266
-0.017869
-0.010236
-0.00331569
0.0029491
0.00878644
0.0153829
0.0249765
0.0292823
-0.474146
-0.329387
-0.269065
-0.227696
-0.195749
-0.169382
-0.146836
-0.127128
-0.109637
-0.0939446
-0.0797627
-0.0668883
-0.0551736
-0.0445079
-0.0347977
-0.0259842
-0.0180211
-0.010892
-0.00442615
0.00140574
0.00666067
0.0121809
0.0196921
0.0240131
-0.42359
-0.274806
-0.234364
-0.203742
-0.178066
-0.155821
-0.136214
-0.118684
-0.10285
-0.088444
-0.0752775
-0.0632156
-0.0521671
-0.0420713
-0.0328877
-0.02455
-0.0170049
-0.0102603
-0.00435702
0.000870319
0.00560263
0.0101073
0.0153171
0.0193327
-0.168244
-0.158277
-0.152401
-0.145489
-0.144915
-0.139719
-0.168893
-0.15954
-0.155132
-0.149919
-0.151012
-0.148182
-0.170286
-0.161478
-0.158791
-0.155177
-0.158363
-0.158066
-0.171587
-0.163423
-0.162144
-0.159714
-0.163554
-0.164999
-0.172544
-0.165127
-0.164936
-0.163313
-0.166792
-0.168571
-0.173461
-0.166713
-0.167396
-0.16631
-0.168935
-0.1704
-0.174099
-0.168372
-0.169765
-0.169017
-0.170719
-0.171309
-0.174648
-0.170478
-0.172216
-0.171626
-0.172322
-0.171762
-0.175776
-0.173274
-0.174833
-0.174266
-0.173936
-0.172132
-0.177332
-0.176356
-0.17757
-0.177025
-0.17573
-0.172685
-0.178905
-0.179363
-0.180385
-0.179959
-0.177838
-0.173642
-0.180428
-0.182155
-0.183238
-0.183118
-0.180366
-0.175156
-0.181882
-0.184719
-0.186096
-0.18655
-0.183406
-0.177347
-0.183261
-0.187037
-0.188935
-0.1903
-0.187054
-0.180423
-0.184567
-0.189079
-0.191734
-0.19441
-0.191412
-0.184672
-0.185761
-0.190802
-0.194473
-0.198911
-0.196561
-0.190416
-0.186297
-0.192188
-0.197137
-0.203811
-0.20256
-0.19806
-0.186341
-0.193495
-0.199716
-0.209081
-0.209395
-0.208088
-0.186804
-0.194816
-0.202186
-0.214656
-0.216932
-0.221123
-0.187699
-0.196062
-0.204411
-0.220356
-0.224709
-0.238132
-0.188549
-0.197148
-0.206199
-0.225677
-0.231784
-0.260381
-0.18913
-0.19788
-0.2074
-0.229296
-0.237783
-0.287542
-0.189275
-0.198208
-0.207844
-0.23011
-0.244805
-0.312781
-0.189289
-0.198391
-0.20801
-0.229936
-0.249372
-0.334937
-0.236449
-0.22561
-0.207584
-0.185397
-0.16467
-0.145635
-0.128252
-0.11229
-0.0975597
-0.0839513
-0.0713635
-0.0597213
-0.0489831
-0.0391343
-0.0301805
-0.0220798
-0.0148115
-0.00840659
-0.00287809
0.00180696
0.00562793
0.00890386
0.0121514
0.0159604
-0.223974
-0.204925
-0.191485
-0.174067
-0.156327
-0.139475
-0.123565
-0.108646
-0.0945841
-0.0813423
-0.0689048
-0.0572605
-0.0464282
-0.0364427
-0.0273457
-0.0191777
-0.0119666
-0.00570214
-0.000408188
0.00391949
0.00721194
0.00970324
0.0109838
0.0129131
-0.203852
-0.195373
-0.183839
-0.168597
-0.152661
-0.137273
-0.122472
-0.108243
-0.0945638
-0.0814365
-0.0688527
-0.0568587
-0.0455497
-0.0350417
-0.0254587
-0.0169369
-0.00948238
-0.00307878
0.00214616
0.00617465
0.00887869
0.01072
0.0107512
0.0110776
-0.194238
-0.189562
-0.17979
-0.166207
-0.151885
-0.137782
-0.124046
-0.110587
-0.0973876
-0.0844173
-0.0717125
-0.0593591
-0.0475026
-0.0363288
-0.0260342
-0.0167851
-0.00870963
-0.00195648
0.00334157
0.00718471
0.00957778
0.0109104
0.0105624
0.00953719
-0.187402
-0.184224
-0.176041
-0.164169
-0.151431
-0.138735
-0.126185
-0.113769
-0.101423
-0.0890372
-0.0766754
-0.0644594
-0.0525629
-0.0411883
-0.0305463
-0.0208399
-0.0122669
-0.0050282
0.00068964
0.00478124
0.00720941
0.00813997
0.0076166
0.00530558
-0.182003
-0.178827
-0.171419
-0.160853
-0.14941
-0.137928
-0.126557
-0.115292
-0.10401
-0.0926235
-0.0811697
-0.069743
-0.0584813
-0.0475448
-0.0371048
-0.0273462
-0.0184724
-0.0107264
-0.00437181
0.000342204
0.00317401
0.00389195
0.00210493
-0.00140876
-0.177562
-0.173452
-0.165915
-0.155884
-0.145123
-0.134364
-0.123805
-0.113429
-0.103117
-0.0928032
-0.0824956
-0.0722259
-0.0620478
-0.0520502
-0.0423286
-0.032998
-0.0242499
-0.0163651
-0.00964406
-0.00432503
-0.000755726
0.000481847
-0.00158128
-0.00503712
-0.173858
-0.168239
-0.15985
-0.14956
-0.138772
-0.128131
-0.117869
-0.107986
-0.0984194
-0.0891134
-0.0800578
-0.0712372
-0.0626377
-0.0543108
-0.0463052
-0.0388194
-0.0319397
-0.0256368
-0.0200288
-0.0149725
-0.0107262
-0.00746307
-0.00481843
-0.00128172
-0.170757
-0.163294
-0.153501
-0.142318
-0.130944
-0.119962
-0.10963
-0.100033
-0.0911517
-0.0828835
-0.0752925
-0.06832
-0.0619263
-0.0561163
-0.0508112
-0.0459197
-0.0412456
-0.036366
-0.0307358
-0.0246154
-0.017863
-0.00961194
0.00201061
0.0128586
-0.16821
-0.158679
-0.147051
-0.134591
-0.122298
-0.110681
-0.0999664
-0.0902571
-0.0815563
-0.0739677
-0.067433
-0.0619503
-0.0575168
-0.0539653
-0.0510639
-0.0484954
-0.0458582
-0.0426362
-0.0384507
-0.0330789
-0.025815
-0.0159344
-0.00251854
0.00945792
-0.166188
-0.154417
-0.140619
-0.126445
-0.11271
-0.0999262
-0.0883866
-0.0782593
-0.0696778
-0.0627589
-0.057437
-0.0537159
-0.0515037
-0.0505957
-0.0506864
-0.0513602
-0.052106
-0.0523591
-0.0515273
-0.0485666
-0.0427966
-0.0333632
-0.0202505
-0.00523102
-0.164711
-0.15051
-0.134173
-0.117896
-0.102421
-0.0883297
-0.0759776
-0.0655906
-0.0573289
-0.0511952
-0.0472285
-0.0453993
-0.0455765
-0.0475031
-0.0507863
-0.0548729
-0.0590358
-0.0624302
-0.0641077
-0.0628941
-0.0576806
-0.0476997
-0.032758
-0.0123612
-0.163838
-0.146963
-0.127766
-0.109174
-0.0918671
-0.076471
-0.0633444
-0.0527143
-0.0447307
-0.0394428
-0.0368477
-0.0368612
-0.0392814
-0.0437406
-0.0497008
-0.0564633
-0.0631614
-0.0687887
-0.0721447
-0.0718962
-0.0667204
-0.0554357
-0.037547
-0.0117831
-0.163588
-0.143772
-0.121407
-0.100325
-0.0811065
-0.0643972
-0.0505361
-0.0397365
-0.0321079
-0.0276761
-0.0263691
-0.027974
-0.0321838
-0.0385411
-0.0463816
-0.054876
-0.0630016
-0.0695366
-0.0731467
-0.0724767
-0.0664263
-0.0537879
-0.0344833
-0.00614212
-0.163944
-0.140931
-0.115113
-0.091447
-0.0703315
-0.052381
-0.0378817
-0.0269925
-0.0197434
-0.0160626
-0.0158445
-0.0187686
-0.0243461
-0.0319147
-0.04066
-0.04959
-0.0575833
-0.0634834
-0.0661913
-0.0646358
-0.0580773
-0.0449858
-0.0263834
0.000959348
-0.164895
-0.138424
-0.108917
-0.0826993
-0.0598151
-0.0407843
-0.0257841
-0.0148741
-0.0081037
-0.00526359
-0.00599006
-0.00975807
-0.0158849
-0.0236194
-0.0321057
-0.0403598
-0.0473502
-0.052127
-0.0537147
-0.0512283
-0.044751
-0.0327469
-0.016637
0.00663345
-0.166403
-0.136191
-0.102836
-0.0742455
-0.04984
-0.0299659
-0.0147677
-0.00419065
0.00204
0.00432051
0.00323392
-0.00066229
-0.00667582
-0.0139405
-0.021483
-0.0284325
-0.0337063
-0.0369109
-0.0372579
-0.0331228
-0.0236048
-0.0106316
0.00196282
0.0152891
-0.168301
-0.134051
-0.0968834
-0.0662262
-0.0407091
-0.0204875
-0.00537891
0.00491329
0.0108646
0.0129213
0.0117007
0.00800726
0.00269489
-0.00331525
-0.00906504
-0.0142658
-0.0176066
-0.017143
-0.0130631
-0.00728756
-0.00132609
0.00465658
0.0102591
0.021509
-0.170102
-0.131837
-0.0909846
-0.0587428
-0.0327113
-0.0124014
0.0025662
0.0126005
0.0182225
0.020204
0.019341
0.01655
0.0125853
0.00813666
0.00446037
0.00340686
0.00447469
0.00647475
0.00927592
0.0119524
0.0138822
0.0169013
0.021331
0.0289473
-0.17106
-0.129211
-0.0850081
-0.051784
-0.0256369
-0.0055032
0.00908762
0.018796
0.0243751
0.0266902
0.0266205
0.0250953
0.0229546
0.0218151
0.0220477
0.0227767
0.0242033
0.0252367
0.025317
0.0263335
0.0285935
0.0312498
0.0349633
0.0360604
-0.170649
-0.12487
-0.0787285
-0.0451502
-0.0193106
0.000321259
0.0145324
0.0240725
0.0298922
0.0328971
0.0340635
0.0346322
0.0358076
0.0370255
0.0383173
0.0394468
0.039336
0.0396377
0.0408016
0.0420466
0.043076
0.0441576
0.0470282
0.0457616
-0.167552
-0.117308
-0.071643
-0.0385362
-0.0134592
0.00557878
0.0194362
0.0291133
0.0355585
0.0397725
0.0430945
0.0461953
0.04881
0.0510562
0.0520752
0.0526558
0.0536782
0.0549842
0.0561215
0.056629
0.0565052
0.0570617
0.0613425
0.0584968
-0.161003
-0.103255
-0.0625228
-0.0315706
-0.00757343
0.0108563
0.0246415
0.0348105
0.0422685
0.0482252
0.0534197
0.0579876
0.0610642
0.0629718
0.0648836
0.0667856
0.0685279
0.0697581
0.0703435
0.0703026
0.0699487
0.0712214
0.0779681
0.0734049
-0.141172
-0.0814018
-0.0509288
-0.0239234
-0.00113311
0.0168688
0.030901
0.0418272
0.0506781
0.0580723
0.0643655
0.0688064
0.0723726
0.0756969
0.0784312
0.0806907
0.0824249
0.0835775
0.0841389
0.0841717
0.0840272
0.086172
0.0950859
0.0884318
-0.0042349
-0.00741777
0.0127422
0.0601832
0.11234
0.173854
0.000933077
-0.00610806
0.00953223
0.0425622
0.0703549
0.109854
0.00700963
-0.0040115
0.00713736
0.0288551
0.0452875
0.0572451
0.00272165
-0.00385235
0.00334585
0.0173887
0.0277457
0.0276626
-0.00311706
-0.00543099
-0.00149685
0.00777327
0.0153912
0.0135568
-0.0064735
-0.00774843
-0.00649147
0.000117637
0.00691862
0.00683202
-0.00958008
-0.0103575
-0.0110355
-0.00572609
0.0013031
0.0039656
-0.0128312
-0.0130371
-0.0149609
-0.0100889
-0.002187
0.00352532
-0.0163429
-0.0156298
-0.0182671
-0.0133068
-0.00412395
0.00468829
-0.0197509
-0.018015
-0.0210116
-0.0156749
-0.00494016
0.00691734
-0.0227302
-0.0201065
-0.0232791
-0.0173889
-0.00503022
0.00989599
-0.0250785
-0.0218459
-0.0251725
-0.0187669
-0.0045806
0.0134861
-0.0266945
-0.0231933
-0.0267773
-0.0200485
-0.00382913
0.0176046
-0.0275715
-0.0240666
-0.0281934
-0.021466
-0.00301256
0.0219094
-0.027725
-0.024399
-0.0295429
-0.0232491
-0.00239999
0.025757
-0.0271452
-0.024196
-0.0309064
-0.0256446
-0.00226925
0.0285537
-0.0258347
-0.0234513
-0.0323542
-0.0289158
-0.00291357
0.0296321
-0.0241202
-0.0222246
-0.0339929
-0.0333324
-0.0046031
0.0281132
-0.0251844
-0.0212031
-0.0359595
-0.0390126
-0.00764062
0.0225114
-0.030499
-0.0214862
-0.0383799
-0.0450535
-0.0130596
0.00984783
-0.033156
-0.0219585
-0.041218
-0.0521045
-0.0192512
-0.0143931
-0.0279153
-0.021387
-0.0437215
-0.0597354
-0.0257316
-0.0546009
-0.0188856
-0.0200434
-0.0453881
-0.0670772
-0.0377389
-0.123235
-0.0144621
-0.0194149
-0.0471926
-0.0751491
-0.0603988
-0.280607
-0.0873924
-0.0629783
-0.0393158
-0.0154194
0.00625656
0.0241114
0.0385916
0.050448
0.060377
0.0686472
0.074945
0.0800621
0.0846086
0.0884315
0.0915574
0.0940619
0.0959597
0.0972328
0.0979222
0.098103
0.0981907
0.101164
0.111975
0.103307
-0.0632163
-0.0500093
-0.0288869
-0.00616826
0.0148817
0.0328159
0.0477838
0.0603617
0.0708005
0.0793728
0.086383
0.0922173
0.0971365
0.101241
0.104616
0.107322
0.109381
0.110822
0.111735
0.112187
0.112608
0.1164
0.128819
0.118268
-0.049882
-0.0379444
-0.0176995
0.00427587
0.0249843
0.0430671
0.0584341
0.0713663
0.082203
0.0911532
0.0985647
0.104728
0.109888
0.114192
0.117747
0.120629
0.122894
0.1246
0.125833
0.126594
0.127288
0.131679
0.145297
0.133199
-0.0363007
-0.025236
-0.00551048
0.0159504
0.0365363
0.0547964
0.0704328
0.0836208
0.0946283
0.103764
0.111346
0.117656
0.122931
0.127349
0.131042
0.134104
0.136597
0.138583
0.140114
0.141125
0.142008
0.146805
0.161275
0.148169
-0.0230586
-0.0122088
0.0073547
0.0287325
0.0493993
0.0678354
0.0836278
0.096899
0.107944
0.117096
0.124682
0.130996
0.13629
0.140756
0.144538
0.147738
0.150426
0.152666
0.154465
0.155677
0.156682
0.161707
0.176743
0.16338
-0.0110994
0.000632591
0.0206446
0.0424221
0.0633774
0.0819919
0.0978449
0.111079
0.122025
0.131057
0.138527
0.144747
0.149975
0.154417
0.158223
0.161505
0.164339
0.166785
0.16881
0.170179
0.171238
0.176316
0.191635
0.179045
-0.000551136
0.013002
0.0342327
0.0568713
0.0783023
0.0971066
0.112952
0.126053
0.136801
0.145615
0.152877
0.158916
0.164
0.168338
0.172089
0.175368
0.178264
0.180833
0.183022
0.184534
0.185635
0.190585
0.20582
0.195493
0.00876536
0.0249459
0.0481248
0.0719991
0.0940584
0.113073
0.128867
0.141764
0.152237
0.160756
0.167736
0.17352
0.178379
0.182525
0.186119
0.189286
0.192123
0.194697
0.196964
0.19864
0.199894
0.204539
0.218984
0.21362
0.0171423
0.0366651
0.0623873
0.0877863
0.110597
0.129845
0.145555
0.158193
0.168329
0.176492
0.183127
0.188587
0.193145
0.197007
0.200334
0.203251
0.205857
0.208231
0.21038
0.212132
0.213504
0.216756
0.227192
0.237145
0.0249493
0.0483957
0.077111
0.104267
0.12793
0.147431
0.163027
0.175355
0.185099
0.192851
0.199089
0.20417
0.208363
0.211865
0.214828
0.217363
0.219552
0.221457
0.223101
0.224425
0.225333
0.225248
0.218869
0.270245
0.0325555
0.0603337
0.0924023
0.121524
0.146126
0.165887
0.181327
0.193285
0.202578
0.209873
0.21567
0.220333
0.224123
0.227231
0.229796
0.231917
0.233664
0.235106
0.236254
0.236798
0.236173
0.236484
0.247876
0.266655
0.0402453
0.0726125
0.108406
0.139699
0.1653
0.185297
0.20052
0.212032
0.220805
0.227593
0.232914
0.237131
0.240502
0.243213
0.245398
0.24715
0.24854
0.249638
0.250404
0.250393
0.249391
0.251637
0.267401
0.273745
0.0482009
0.0853409
0.125326
0.158995
0.185608
0.205774
0.220678
0.231652
0.239829
0.246048
0.25085
0.254593
0.257533
0.259852
0.261683
0.263116
0.264224
0.265075
0.265594
0.265303
0.264239
0.267336
0.284128
0.285542
0.0565129
0.0987411
0.143467
0.179677
0.20724
0.227447
0.241895
0.252205
0.259687
0.265263
0.269491
0.272722
0.275208
0.277129
0.278615
0.279752
0.280612
0.281251
0.281574
0.281088
0.279938
0.28331
0.300307
0.299496
0.065178
0.113222
0.163257
0.202058
0.230412
0.250464
0.264268
0.273756
0.280414
0.285249
0.288829
0.291493
0.293487
0.294988
0.296122
0.296967
0.297586
0.298026
0.298172
0.297518
0.296269
0.299684
0.316477
0.314515
0.0742431
0.129285
0.185161
0.226457
0.255354
0.274987
0.287902
0.296361
0.302031
0.305999
0.308833
0.310857
0.312306
0.31335
0.314106
0.314644
0.315013
0.315246
0.315212
0.3144
0.313054
0.316399
0.332705
0.330158
0.0839899
0.147695
0.209571
0.253214
0.28232
0.301179
0.312886
0.320058
0.324537
0.327481
0.329452
0.330745
0.331579
0.332116
0.33246
0.332665
0.332765
0.332779
0.332558
0.331598
0.330173
0.333376
0.348966
0.34616
0.0949833
0.169494
0.237008
0.282757
0.31158
0.329192
0.339286
0.344855
0.347902
0.349639
0.350607
0.351062
0.351202
0.351171
0.351058
0.350899
0.350708
0.350485
0.350071
0.348973
0.34749
0.350504
0.365194
0.36234
0.108119
0.19579
0.268299
0.31564
0.343416
0.359149
0.367132
0.370721
0.372058
0.372381
0.372192
0.371692
0.371049
0.370385
0.369768
0.36921
0.368703
0.368227
0.367613
0.36639
0.36487
0.36766
0.381303
0.378541
0.123957
0.227935
0.304424
0.352354
0.378074
0.391121
0.396392
0.397571
0.39689
0.395577
0.394067
0.39249
0.390973
0.38961
0.38844
0.387451
0.386606
0.385863
0.385045
0.383709
0.382173
0.384708
0.397187
0.394612
0.141267
0.267803
0.346476
0.393454
0.415749
0.425091
0.426947
0.42524
0.42222
0.419048
0.416055
0.413284
0.410807
0.408682
0.406917
0.405466
0.404264
0.403243
0.40222
0.400782
0.399247
0.401501
0.412726
0.410397
0.158725
0.320465
0.396577
0.439591
0.456482
0.460875
0.458542
0.453467
0.447801
0.442563
0.437941
0.433869
0.430357
0.427418
0.425022
0.423088
0.421516
0.420209
0.41898
0.417451
0.415929
0.417879
0.427789
0.425736
0.191736
0.398964
0.457867
0.490986
0.499884
0.497994
0.490734
0.481868
0.4733
0.465832
0.459467
0.454015
0.449411
0.44562
0.442569
0.440138
0.438188
0.436593
0.435158
0.433547
0.432047
0.433684
0.442253
0.440469
0.309384
0.513448
0.530629
0.546311
0.544801
0.535569
0.522862
0.509929
0.498307
0.488514
0.480342
0.473464
0.467738
0.463076
0.459361
0.456428
0.454099
0.452215
0.450578
0.448891
0.447429
0.448785
0.456029
0.454356
1.12417
1.12183
1.13861
1.18291
1.19035
1.38937
1.12585
1.12431
1.13779
1.16933
1.16152
1.27789
1.12713
1.12761
1.13729
1.15983
1.1406
1.18919
1.12729
1.12901
1.13538
1.15011
1.12489
1.12924
1.12673
1.12855
1.13205
1.13968
1.11252
1.09533
1.12571
1.12712
1.128
1.12955
1.10214
1.07631
1.1243
1.1253
1.12369
1.12036
1.09329
1.06425
1.12256
1.12336
1.11937
1.11222
1.08553
1.05554
1.12062
1.12144
1.11521
1.10501
1.0785
1.04841
1.11866
1.11967
1.11134
1.09856
1.07188
1.0418
1.11683
1.11817
1.10787
1.09278
1.06546
1.03499
1.11524
1.11706
1.10488
1.0876
1.05906
1.0275
1.114
1.11631
1.10242
1.083
1.05256
1.01901
1.11313
1.11598
1.10052
1.07898
1.04589
1.00926
1.11263
1.11603
1.09916
1.07558
1.03901
0.998082
1.11245
1.11633
1.0983
1.07283
1.03206
0.985474
1.11251
1.11671
1.09786
1.07085
1.02529
0.971542
1.11269
1.11699
1.09777
1.06988
1.01905
0.956325
1.11288
1.11703
1.09805
1.07026
1.01402
0.940366
1.11296
1.11687
1.09899
1.07271
1.01115
0.925032
1.11292
1.11697
1.10135
1.07842
1.01192
0.913012
1.11299
1.11823
1.10607
1.08842
1.01904
0.912396
1.1136
1.12083
1.11242
1.10032
1.03724
0.94113
1.11451
1.12283
1.11585
1.10577
1.07263
1.01171
0.589816
0.628828
0.606092
0.602192
0.589314
0.572363
0.554085
0.537044
0.522359
0.510236
0.500252
0.491944
0.485097
0.479567
0.475192
0.471761
0.469054
0.46688
0.465036
0.463271
0.461861
0.462985
0.468858
0.466889
0.728601
0.719215
0.674729
0.654344
0.631192
0.607046
0.583525
0.56259
0.544981
0.530617
0.518879
0.509184
0.501246
0.494872
0.489854
0.485937
0.482856
0.480389
0.478327
0.476462
0.475058
0.475874
0.4804
0.478392
0.82202
0.788256
0.732125
0.70002
0.668772
0.638544
0.610433
0.586009
0.565738
0.549304
0.535924
0.524923
0.515954
0.508781
0.503153
0.49877
0.495326
0.492567
0.490284
0.488304
0.486849
0.487269
0.490551
0.488832
0.883022
0.837957
0.777888
0.738353
0.701224
0.666189
0.634278
0.606871
0.584272
0.565993
0.551123
0.538927
0.529012
0.521101
0.514906
0.510089
0.506305
0.503269
0.500776
0.498682
0.497149
0.497148
0.499361
0.49816
0.923532
0.873758
0.813543
0.769525
0.728323
0.689659
0.654727
0.62486
0.600297
0.580425
0.564247
0.55099
0.540228
0.531654
0.524948
0.519738
0.515643
0.512356
0.509675
0.507479
0.505881
0.505529
0.506843
0.506021
0.950307
0.899532
0.840695
0.794086
0.75016
0.708848
0.671584
0.639752
0.613581
0.592378
0.575087
0.560923
0.549432
0.540281
0.533128
0.52757
0.523199
0.51969
0.51684
0.514553
0.512895
0.512254
0.512839
0.512326
0.967878
0.917675
0.860667
0.81265
0.766969
0.723777
0.68477
0.651415
0.623969
0.601691
0.58349
0.568575
0.556476
0.546843
0.53931
0.533455
0.528847
0.525147
0.522154
0.519785
0.518072
0.517203
0.517241
0.516964
0.978789
0.929684
0.874485
0.82578
0.779021
0.734559
0.694312
0.659831
0.631419
0.608308
0.589389
0.573875
0.561285
0.551254
0.543403
0.537295
0.532487
0.528628
0.525516
0.523077
0.521314
0.520282
0.51996
0.519841
0.984482
0.936529
0.882915
0.833948
0.786601
0.741364
0.7003
0.665036
0.635928
0.6122
0.592737
0.576761
0.563787
0.553438
0.545328
0.539013
0.53404
0.530052
0.526847
0.524348
0.522537
0.5214
0.520909
0.520908
0.985873
0.938842
0.886503
0.83752
0.789942
0.744309
0.702763
0.666995
0.637417
0.613261
0.59342
0.577123
0.563878
0.5533
0.544995
0.53852
0.533424
0.529344
0.526069
0.52351
0.521649
0.520511
0.520107
0.52009
0.983466
0.93697
0.885563
0.83669
0.789127
0.743386
0.701634
0.665609
0.635772
0.61138
0.591335
0.574866
0.561474
0.550766
0.542346
0.535772
0.5306
0.526468
0.523154
0.520553
0.518654
0.517582
0.517448
0.517345
0.977464
0.931012
0.880163
0.83147
0.784113
0.73853
0.696847
0.660817
0.630943
0.606516
0.586448
0.569964
0.556555
0.545819
0.537361
0.530749
0.525548
0.521403
0.518081
0.515452
0.51352
0.512581
0.512913
0.512654
0.967783
0.920839
0.870173
0.821744
0.774809
0.729678
0.688359
0.652592
0.622911
0.598652
0.578744
0.562401
0.549103
0.538445
0.530033
0.523447
0.51827
0.514154
0.510854
0.508212
0.506255
0.505513
0.506494
0.506005
0.954082
0.906079
0.855298
0.807283
0.761045
0.716704
0.676079
0.640867
0.611627
0.587751
0.568194
0.552158
0.539111
0.528645
0.520372
0.513886
0.50879
0.504748
0.501503
0.498864
0.496892
0.496406
0.498201
0.497414
0.935729
0.886095
0.835031
0.787692
0.742528
0.699394
0.659854
0.625537
0.597021
0.573773
0.55478
0.539231
0.526588
0.51644
0.508408
0.502104
0.497153
0.493234
0.490082
0.487467
0.48549
0.485311
0.488062
0.486919
0.911696
0.859938
0.808604
0.762402
0.718854
0.677465
0.639493
0.606481
0.579027
0.556685
0.538494
0.523633
0.511561
0.501869
0.494192
0.488161
0.483426
0.479686
0.476667
0.474103
0.472138
0.472311
0.476137
0.474592
0.880425
0.826279
0.774966
0.730667
0.689519
0.65058
0.614782
0.583573
0.557583
0.536473
0.519351
0.505399
0.49408
0.484996
0.477797
0.472138
0.467699
0.464198
0.46136
0.458882
0.456953
0.457525
0.462529
0.460497
0.839825
0.783356
0.732763
0.69157
0.653932
0.61837
0.585498
0.556695
0.532648
0.513144
0.497391
0.484591
0.474224
0.46591
0.45932
0.454141
0.450081
0.446885
0.444278
0.441921
0.440045
0.441018
0.447285
0.444854
0.78673
0.728782
0.680291
0.644043
0.611459
0.580466
0.551443
0.525759
0.504213
0.486745
0.47269
0.461306
0.452103
0.44473
0.438889
0.434301
0.430707
0.427882
0.425555
0.423355
0.421537
0.42288
0.430433
0.42777
0.717525
0.658819
0.615462
0.586926
0.561478
0.536556
0.512486
0.490747
0.47233
0.457372
0.445371
0.435683
0.427867
0.421614
0.416666
0.412781
0.409741
0.407354
0.40536
0.403356
0.401612
0.403299
0.41212
0.409327
0.626893
0.569275
0.535957
0.519086
0.503492
0.486465
0.468618
0.451748
0.437138
0.425193
0.415619
0.407918
0.401716
0.396763
0.39285
0.389783
0.387387
0.385506
0.383899
0.382139
0.380503
0.382523
0.392556
0.38969
0.502123
0.454602
0.439387
0.439615
0.437278
0.430258
0.420027
0.408998
0.398898
0.390472
0.3837
0.378269
0.373903
0.370423
0.367683
0.365544
0.363879
0.362573
0.361408
0.359944
0.358462
0.360811
0.371969
0.369065
0.302155
0.306387
0.323692
0.348144
0.363105
0.368378
0.367171
0.362928
0.358006
0.353579
0.349961
0.347062
0.344733
0.342886
0.341448
0.340339
0.339486
0.338819
0.33815
0.337035
0.33576
0.338442
0.350607
0.3477
-0.0186617
0.128117
0.190311
0.24599
0.282188
0.30182
0.310855
0.314202
0.315018
0.314997
0.31483
0.314685
0.314565
0.314487
0.314461
0.314472
0.314504
0.314536
0.314412
0.313699
0.312688
0.315702
0.328733
0.32587
)
;

boundaryField
{
    rotor
    {
        type            zeroGradient;
    }
    freestream
    {
        type            freestreamPressure;
        freestreamValue uniform 0;
        supersonic      false;
        value           nonuniform List<scalar> 
96
(
0.228004
0.203233
0.179818
0.158063
0.138236
0.120601
0.105496
0.0938927
0.0808561
0.0645201
0.051824
0.0418696
0.0337731
0.027171
0.0218221
0.0175082
0.0140291
0.0112071
0.00889136
0.00695918
0.00530832
0.00389037
0.00270216
0.00180325
0.00119809
0.000750853
0.000490705
0.000344224
0.000172315
-4.2027e-05
-0.000124537
-1.6737e-05
1.41022e-05
8.3829e-05
-0.000158231
-0.000584995
-0.000660512
-0.000374113
6.38436e-05
0.000489347
0.00127329
0.00202004
0.00309427
0.00439312
0.00636425
0.00927145
0.013207
0.0179691
0.0235891
0.0301895
0.0378006
0.046488
0.0563541
0.0675178
0.0801632
0.0947664
0.113286
0.138281
0.145418
0.158738
0.175341
0.193934
0.213898
0.234932
0.256809
0.279323
0.302267
0.325415
0.348521
0.371317
0.393526
0.414782
0.434464
0.452707
0.469341
0.48419
0.496786
0.506934
0.514432
0.519118
0.520897
0.519679
0.515431
0.508176
0.497971
0.48493
0.469214
0.451038
0.430632
0.408383
0.38458
0.359498
0.333489
0.306934
0.280235
0.253795
)
;
    }
    frontAndBack
    {
        type            empty;
    }
}


// ************************************************************************* //
