/*--------------------------------*- C++ -*----------------------------------*\
  =========                 |
  \\      /  F ield         | OpenFOAM: The Open Source CFD Toolbox
   \\    /   O peration     | Website:  https://openfoam.org
    \\  /    A nd           | Version:  11
     \\/     M anipulation  |
\*---------------------------------------------------------------------------*/
FoamFile
{
    format      ascii;
    class       volScalarField;
    location    "1.94";
    object      epsilon;
}
// * * * * * * * * * * * * * * * * * * * * * * * * * * * * * * * * * * * * * //

dimensions      [0 2 -3 0 0 0 0];

internalField   nonuniform List<scalar> 
2880
(
3.16336
7.7073
11.4327
11.6935
9.75977
30.3782
1.1055
4.72224
6.36863
6.81428
7.20035
10.227
1.62608
3.80859
4.78726
5.16768
5.49494
6.09413
2.24921
3.39546
4.06198
4.3391
4.48157
4.47484
2.81688
3.14841
3.63668
3.82977
3.87229
3.66504
3.31848
2.99187
3.35562
3.4975
3.4863
3.20777
3.7487
2.89112
3.16029
3.2751
3.23702
2.93572
4.10517
2.82499
3.02207
3.12557
3.07951
2.77636
4.3867
2.78205
2.92409
3.02823
2.98814
2.69464
4.59255
2.7544
2.85631
2.97064
2.94777
2.67248
4.72183
2.73717
2.81178
2.94478
2.94901
2.69807
4.77479
2.72815
2.78518
2.9449
2.98352
2.77057
4.76953
2.72777
2.77275
2.9633
3.05299
2.88684
4.71366
2.73424
2.77117
2.99852
3.15252
3.0477
4.59937
2.73933
2.7753
3.04625
3.27951
3.25566
4.41848
2.73513
2.78052
3.1021
3.432
3.5147
4.16377
2.71537
2.78243
3.16279
3.6081
3.83063
3.82933
2.67106
2.77754
3.22707
3.80696
4.21872
3.41116
2.59407
2.76819
3.29872
4.03032
4.70666
2.90873
2.49161
2.77029
3.39191
4.28693
5.35701
2.32957
2.38266
2.82564
3.54399
4.60768
6.3459
1.69509
2.34009
3.04977
3.86537
5.11303
8.27548
1.16371
2.64978
3.83822
4.7805
6.20283
13.5259
3.10737
5.54175
7.91913
8.81468
9.8182
45.0107
5.19299
1.75689
0.605438
0.220504
0.0891471
0.0408635
0.020793
0.0114349
0.00670411
0.00410679
0.00261293
0.00173232
0.00120399
0.000882937
0.000686375
0.000565874
0.000492306
0.00044762
0.000420427
0.00040358
0.000392733
0.000385475
0.000380627
0.000377348
4.30429
1.63746
0.588621
0.219755
0.0900051
0.0414893
0.0211302
0.0115962
0.00677085
0.00412462
0.00260654
0.00171465
0.00118301
0.000862365
0.000667869
0.000550045
0.000479254
0.000437164
0.00041225
0.000397352
0.000388185
0.000382369
0.000378698
0.000376382
3.53068
1.46692
0.558472
0.216388
0.0905817
0.0421679
0.0215479
0.0118215
0.00688493
0.00417512
0.00262403
0.0017159
0.00117585
0.000851813
0.000656749
0.000539687
0.000470262
0.000429713
0.000406289
0.000392747
0.000384808
0.00038009
0.000377334
0.000375755
2.97315
1.31747
0.529283
0.212902
0.0912365
0.042975
0.0220673
0.0121175
0.00704921
0.00426055
0.00266541
0.00173373
0.00118171
0.000851349
0.000652982
0.00053464
0.000465128
0.000425054
0.000402339
0.00038958
0.000382439
0.000378495
0.000376407
0.000375365
2.58631
1.20542
0.506855
0.210795
0.0923239
0.0440078
0.0227349
0.0125237
0.00728953
0.00439491
0.00273787
0.00177129
0.00120012
0.000859677
0.000656014
0.000534835
0.00046379
0.000423093
0.000400283
0.000387724
0.000380948
0.000377496
0.000375859
0.000375152
2.32542
1.13175
0.493266
0.211009
0.0941696
0.0454206
0.0236309
0.0130704
0.00761471
0.00458577
0.00284928
0.00183602
0.00123739
0.000880653
0.000667393
0.000540597
0.000466368
0.0004239
0.000400179
0.000387211
0.000380393
0.000377056
0.000375588
0.000375064
2.15717
1.09148
0.48908
0.21399
0.0971614
0.0473726
0.024793
0.0137652
0.00802793
0.00483338
0.00299864
0.00192659
0.00129252
0.000914234
0.000687736
0.000552724
0.000473385
0.000427777
0.000402182
0.000388144
0.000380758
0.000377151
0.000375586
0.000375054
2.06036
1.07895
0.494487
0.220682
0.10162
0.0499399
0.0262518
0.0146217
0.00853965
0.00514434
0.00319005
0.00204568
0.00136732
0.000961575
0.000717805
0.000571754
0.000485284
0.000435083
0.000406579
0.000390732
0.000382152
0.000377847
0.000375886
0.000375132
2.02078
1.09181
0.510402
0.231446
0.107705
0.0532343
0.0280732
0.0156756
0.00916954
0.00553045
0.00343105
0.00219827
0.00146516
0.001025
0.000759229
0.000598853
0.000502913
0.000446429
0.000413795
0.000395253
0.000384879
0.000379311
0.000376586
0.000375353
2.02967
1.12957
0.537542
0.246963
0.115814
0.0574432
0.0303442
0.0169692
0.00994103
0.00600578
0.00373061
0.00239038
0.0015902
0.00110744
0.000814124
0.000635567
0.000527411
0.000462651
0.000424427
0.000402121
0.000389173
0.000381757
0.000377809
0.00037586
2.08363
1.19352
0.577663
0.268275
0.126451
0.0627969
0.0331722
0.0185546
0.0108824
0.00658718
0.00409955
0.00262931
0.00174757
0.00121259
0.000885182
0.000683899
0.000560289
0.000484886
0.000439319
0.000411947
0.000395451
0.00038552
0.000379833
0.000376747
2.18179
1.28639
0.633499
0.296823
0.140282
0.0695929
0.0366935
0.0204974
0.0120285
0.00729512
0.00455091
0.00292392
0.00194351
0.00134499
0.000975785
0.000746409
0.000603511
0.00051465
0.000459632
0.000425597
0.000404343
0.000390984
0.000382922
0.000378169
2.32626
1.41204
0.70942
0.334605
0.158202
0.0782239
0.0410854
0.0228813
0.0134228
0.00815458
0.00510044
0.00328482
0.00218559
0.0015102
0.00109011
0.00082629
0.000659551
0.000553877
0.000486862
0.000444204
0.000416669
0.000398718
0.000387402
0.000380319
2.5218
1.57697
0.810078
0.384251
0.181417
0.0892138
0.0465811
0.0258158
0.0151201
0.00919621
0.00576709
0.00372475
0.00248283
0.00171488
0.00123322
0.000927447
0.000731463
0.000604975
0.000522914
0.000469253
0.00043355
0.000409478
0.000393641
0.000383367
2.7758
1.78975
0.941497
0.449258
0.211553
0.103262
0.0534853
0.0294497
0.0171903
0.0104578
0.00657375
0.00425883
0.00284594
0.00196698
0.00141117
0.00105462
0.000823003
0.000670949
0.000570192
0.000502627
0.000456371
0.00042418
0.000402183
0.000387529
3.09862
2.06129
1.11161
0.534257
0.250788
0.121309
0.0621994
0.0339735
0.019722
0.0119863
0.00754814
0.00490508
0.00328755
0.00227586
0.0016312
0.00121351
0.000938758
0.000755514
0.000631697
0.000546703
0.000486927
0.000444062
0.00041378
0.000393114
3.50453
2.40554
1.33033
0.645239
0.302004
0.144609
0.0732636
0.0396189
0.0228269
0.01384
0.00872399
0.00568497
0.00382253
0.00265251
0.00190181
0.00141094
0.00108426
0.000863199
0.000711129
0.000604454
0.000527516
0.000470774
0.000429465
0.000400523
4.00745
2.84147
1.60954
0.78971
0.368916
0.174803
0.0873803
0.0466941
0.026649
0.0160923
0.0101426
0.00662415
0.00446831
0.00310971
0.0022329
0.00165484
0.00126604
0.000999426
0.000812981
0.000679556
0.00058105
0.000506467
0.000450612
0.000410275
4.6292
3.39403
1.96236
0.976789
0.456142
0.213987
0.105456
0.0555989
0.031374
0.0188359
0.0118547
0.00775345
0.00524541
0.00366224
0.00263585
0.00195439
0.00149169
0.00117057
0.000942618
0.000776477
0.000651139
0.000553875
0.000479024
0.000423058
5.42034
4.08878
2.4024
1.21546
0.569
0.264724
0.128631
0.0668392
0.0372464
0.0221892
0.0139238
0.00911022
0.00617805
0.00432722
0.00312363
0.00231997
0.00176985
0.00138397
0.00110633
0.000900559
0.000742204
0.000616437
0.000517023
0.000439762
6.4965
4.9527
2.94082
1.51332
0.712973
0.329957
0.158282
0.0810368
0.0445827
0.0263023
0.0164288
0.0107402
0.00729518
0.00512459
0.00371104
0.00276328
0.00211022
0.00164793
0.00131133
0.00105808
0.000859572
0.0006984
0.000567541
0.000461526
8.15259
6.01462
3.58156
1.87361
0.892522
0.412682
0.195988
0.098959
0.0537364
0.0313593
0.0194682
0.0127
0.00863196
0.00607795
0.00441518
0.00329755
0.00252364
0.00197174
0.00156579
0.00125627
0.00100955
0.000804953
0.000634248
0.000489769
11.5155
7.38824
4.33276
2.29369
1.10957
0.515322
0.243351
0.121464
0.0651393
0.0375864
0.0231648
0.0150601
0.0102318
0.00721592
0.00525622
0.00393798
0.00302228
0.00236567
0.00187876
0.00150331
0.00119949
0.00094236
0.000721706
0.000526234
20.4938
9.79278
5.26097
2.77035
1.36167
0.63889
0.301716
0.149443
0.0792896
0.0452588
0.0276714
0.0179092
0.0121491
0.008574
0.00625875
0.00470264
0.00362022
0.00284133
0.00226033
0.00180833
0.0014378
0.0011181
0.000835597
0.000573031
5.18238
4.03516
3.16191
2.32947
1.69725
2.12037
1.53287
2.28082
2.11263
1.62881
1.47545
2.38107
2.25823
2.30957
2.05864
1.58944
1.52414
2.32664
2.81529
2.54367
2.10218
1.65085
1.59711
2.31406
3.24699
2.67026
2.15864
1.73289
1.67371
2.30547
3.60414
2.73023
2.20735
1.82372
1.76019
2.30443
3.91382
2.75829
2.25949
1.92736
1.86694
2.33085
4.18696
2.77616
2.32475
2.04891
2.00011
2.39651
4.42849
2.79653
2.40847
2.1919
2.16356
2.51368
4.64104
2.83067
2.51304
2.35842
2.36061
2.69089
4.82717
2.88626
2.63874
2.54926
2.596
2.92818
4.98993
2.96958
2.78436
2.76342
2.87342
3.22717
5.11049
3.07836
2.94728
2.99982
3.19092
3.58989
5.14172
3.20136
3.12342
3.25421
3.54114
4.01267
5.10896
3.33415
3.31031
3.52021
3.91243
4.48437
4.97723
3.47414
3.5068
3.79009
4.28863
4.9778
4.74886
3.62202
3.71274
4.05621
4.65059
5.45504
4.41806
3.78255
3.93063
4.31402
4.98061
5.87221
3.97848
3.96574
4.17054
4.56708
5.27127
6.19039
3.43476
4.19315
4.45781
4.83507
5.54124
6.40411
2.80636
4.4911
4.85397
5.17382
5.8618
6.61005
2.07476
4.99279
5.52204
5.72572
6.40649
7.10823
1.33358
6.11819
7.09899
6.93062
7.39047
9.11533
4.50657
9.72231
12.474
10.9521
8.66189
6.23052
16.6965
11.1212
6.08519
3.25198
1.63537
0.782325
0.371907
0.183749
0.0967408
0.0547052
0.0331777
0.0213595
0.0144534
0.0101976
0.00745394
0.00561406
0.00433458
0.00341245
0.00272212
0.00218169
0.00173412
0.00134109
0.000983046
0.00063274
12.2751
10.7585
6.59769
3.67278
1.91182
0.94068
0.454387
0.225195
0.118106
0.066317
0.039919
0.0255539
0.0172346
0.0121458
0.00888274
0.00670194
0.0051879
0.00409683
0.00327878
0.00263607
0.00210002
0.00162223
0.00117327
0.000708633
9.36818
9.868
6.91789
4.01539
2.1756
1.10838
0.548375
0.274689
0.144106
0.0805659
0.0481885
0.0306741
0.0206088
0.0144965
0.0106002
0.0080072
0.00621204
0.00492027
0.00395186
0.00318986
0.0025518
0.0019767
0.00141969
0.000805551
7.36781
8.83634
6.87044
4.24827
2.41185
1.2792
0.652537
0.332681
0.175569
0.0980239
0.0583511
0.0369504
0.0247255
0.0173514
0.0126795
0.00958625
0.00745327
0.00592285
0.00477737
0.00387607
0.00311992
0.0024332
0.00174874
0.000935663
6.03715
7.94386
6.71519
4.38825
2.615
1.44815
0.765233
0.39946
0.213244
0.119344
0.0708514
0.0446699
0.0297717
0.0208377
0.0152131
0.0115116
0.00897401
0.00716325
0.00581482
0.00475821
0.00387373
0.00306745
0.0022429
0.0011933
5.17212
7.18956
6.44658
4.47433
2.7856
1.6116
0.884719
0.475106
0.257868
0.14525
0.0862157
0.0541803
0.0359734
0.0251051
0.0183046
0.0138608
0.0108386
0.00870368
0.00713543
0.00593088
0.00495137
0.00409841
0.00333957
0.00283605
4.62231
6.5575
6.07901
4.47659
2.91845
1.76478
1.00855
0.559282
0.310073
0.176518
0.105054
0.0658957
0.0435961
0.0303202
0.0220576
0.0166974
0.0130877
0.0105754
0.00877812
0.00746562
0.00649714
0.00579445
0.0053596
0.0052937
4.27767
6.03706
5.71545
4.43322
3.01654
1.90424
1.1342
0.651274
0.370314
0.213935
0.128058
0.0803094
0.0529598
0.0366798
0.026587
0.0200836
0.0157489
0.0127829
0.0107242
0.00930375
0.00836389
0.00781802
0.00763541
0.00776996
4.08332
5.62081
5.38453
4.36526
3.08428
2.02853
1.2589
0.750013
0.438821
0.258268
0.156006
0.0980179
0.0644692
0.044442
0.032052
0.0241158
0.0188803
0.0153589
0.0129846
0.0114259
0.010483
0.0100315
0.00998826
0.0102075
4.02015
5.30654
5.10477
4.27702
3.12664
2.13728
1.37971
0.853882
0.515494
0.310207
0.189753
0.119745
0.0786475
0.0539573
0.0386787
0.0289363
0.0225679
0.0183479
0.0155675
0.0138052
0.0127982
0.0123715
0.0123915
0.0126535
4.06631
5.09967
4.89202
4.17197
3.14857
2.22981
1.4949
0.960762
0.599748
0.370232
0.230182
0.146347
0.0961674
0.0657027
0.0467874
0.0347521
0.0269377
0.0218157
0.0184911
0.0164234
0.0152691
0.0147962
0.0148248
0.0151058
4.19292
5.01058
4.75954
4.07174
3.15731
2.30814
1.60302
1.06844
0.690521
0.438533
0.278142
0.178808
0.117877
0.0803181
0.0568266
0.0418623
0.0321782
0.0258701
0.0218048
0.0192896
0.017881
0.0172821
0.0172718
0.0175456
4.43164
5.0517
4.75224
4.0211
3.16799
2.37723
1.70419
1.17547
0.786464
0.514936
0.334337
0.218186
0.14481
0.0986454
0.0694178
0.0506972
0.0385721
0.0306853
0.0256066
0.0224506
0.020649
0.0198266
0.0197133
0.0199611
4.78072
5.21123
4.83069
4.03187
3.19897
2.44609
1.80136
1.28186
0.886224
0.59888
0.399226
0.265539
0.178174
0.121765
0.0854122
0.0618766
0.046546
0.0365414
0.0300709
0.026008
0.0236259
0.0224495
0.0221504
0.0223434
5.22704
5.55252
5.0639
4.13945
3.27479
2.52894
1.90071
1.38925
0.989874
0.68992
0.473072
0.321864
0.219316
0.151023
0.105957
0.0762894
0.0567457
0.0438856
0.0354956
0.0301521
0.0269272
0.0252139
0.0246097
0.0247037
5.757
6.0638
5.49191
4.41251
3.43829
2.6505
2.01459
1.50302
1.09924
0.788492
0.556289
0.388135
0.269688
0.188032
0.132559
0.0951921
0.0701427
0.0534291
0.0423801
0.0352212
0.0307745
0.0282582
0.0271707
0.0270868
6.32376
6.67558
6.06479
4.865
3.73819
2.85007
2.16693
1.63548
1.21988
0.896919
0.650042
0.465546
0.330887
0.234684
0.167138
0.12032
0.0881764
0.0662921
0.0515542
0.0418066
0.0355742
0.0318551
0.0300148
0.0295959
6.84457
7.27022
6.68444
5.45497
4.1965
3.17136
2.39494
1.8107
1.36523
1.02209
0.757854
0.556357
0.405016
0.293271
0.212113
0.154015
0.112934
0.0842117
0.0643833
0.0509327
0.0420625
0.0365163
0.0334802
0.0324717
7.2037
7.69026
7.1978
6.05459
4.75994
3.62488
2.73408
2.06342
1.5606
1.17992
0.889049
0.666138
0.495941
0.367113
0.270701
0.199432
0.147383
0.109827
0.0830882
0.0643711
0.0515888
0.0432163
0.0382412
0.0361773
7.29573
7.78373
7.42641
6.47141
5.28118
4.13917
3.17512
2.41576
1.83579
1.39641
1.06266
0.807758
0.612344
0.462521
0.34807
0.261206
0.195831
0.147107
0.111208
0.0851457
0.0666132
0.053856
0.0456748
0.0416586
7.06191
7.43837
7.23303
6.52062
5.56475
4.55755
3.62514
2.83275
2.19296
1.69081
1.30196
1.00214
0.770894
0.592247
0.454118
0.34742
0.265252
0.202294
0.154402
0.118335
0.0915601
0.0721323
0.0586601
0.0508926
6.52771
6.61127
6.54073
6.14078
5.47411
4.70268
3.92741
3.20202
2.56829
2.03819
1.60705
1.26237
0.989439
0.77434
0.605161
0.472224
0.367864
0.286084
0.222199
0.172549
0.134272
0.105096
0.0833685
0.0683022
5.76271
5.37284
5.41843
5.29781
4.99785
4.51583
3.94692
3.3798
2.83977
2.34952
1.92268
1.56126
1.26097
1.01458
0.814061
0.651732
0.520768
0.415376
0.33077
0.263021
0.209073
0.166188
0.133134
0.104659
4.56004
3.94884
4.08374
4.18205
4.15759
3.98734
3.68304
3.29788
2.89804
2.51219
2.14978
1.82122
1.5315
1.28088
1.06699
0.886206
0.734465
0.607729
0.502365
0.414883
0.342942
0.282655
0.237094
0.18846
1.57241
1.84584
2.42607
2.76852
3.17781
4.06858
0.757112
0.875906
1.11146
1.30135
1.58477
2.09413
0.211602
0.656417
0.832179
0.98683
1.19066
1.4847
0.237973
0.583572
0.731938
0.87086
1.03135
1.21579
0.258741
0.558063
0.689252
0.819525
0.955813
1.08392
0.273006
0.557059
0.672442
0.797515
0.921081
1.02193
1.18647
0.575037
0.669349
0.79145
0.909447
1.00038
1.20261
0.597351
0.673745
0.795205
0.913009
1.00476
1.22846
0.617619
0.682266
0.805429
0.928497
1.03001
1.25518
0.63472
0.69287
0.820091
0.953166
1.07202
1.27456
0.648442
0.704062
0.837568
0.984929
1.12845
1.28296
0.658648
0.714847
0.856539
1.02202
1.19756
1.27793
0.665244
0.724416
0.875732
1.06264
1.27768
1.25928
0.668225
0.732026
0.893822
1.10468
1.36684
1.23258
0.667529
0.736927
0.909405
1.14566
1.4624
1.20234
0.661023
0.738404
0.921096
1.18268
1.56083
1.19078
0.644548
0.736193
0.927826
1.21259
1.65754
1.18585
0.613797
0.731183
0.929386
1.23235
1.74679
0.276389
0.573685
0.726654
0.927453
1.24012
1.82178
0.266085
0.554351
0.728285
0.927438
1.23852
1.87974
0.249506
0.559954
0.746521
0.940977
1.23977
1.92233
0.227023
0.614697
0.811763
1.00073
1.27267
1.96606
0.846401
0.854212
1.04137
1.23462
1.44093
2.08988
1.95436
2.11358
2.37104
2.56849
2.43906
2.55177
2.67771
2.64359
2.85082
3.06853
3.21026
3.22746
3.14608
2.96963
2.73449
2.472
2.20985
1.95839
1.72313
1.50861
1.31659
1.14688
0.998496
0.869747
0.758893
0.663465
0.582901
0.511605
0.458916
0.395281
1.79019
1.80204
1.97505
2.18989
2.37308
2.48051
2.50777
2.47281
2.37909
2.24823
2.0981
1.94142
1.78767
1.6429
1.51032
1.38953
1.28148
1.18662
1.1046
1.0343
0.975114
0.92375
0.884645
0.843234
1.37907
1.35899
1.46305
1.61808
1.76946
1.88353
1.95184
1.9767
1.9666
1.92777
1.86856
1.80037
1.72968
1.66076
1.59811
1.54735
1.50763
1.47786
1.45674
1.44266
1.43319
1.4259
1.41994
1.41689
1.17546
1.14493
1.2054
1.30318
1.40269
1.48672
1.54906
1.58921
1.6104
1.61543
1.61149
1.60134
1.58996
1.58025
1.57396
1.57172
1.5738
1.58157
1.59283
1.60505
1.61496
1.61958
1.61903
1.61761
1.07618
1.05326
1.09427
1.15924
1.22317
1.27522
1.31402
1.34133
1.36068
1.37573
1.389
1.40226
1.41719
1.4346
1.45456
1.47659
1.50017
1.52404
1.54638
1.56502
1.57746
1.58131
1.57761
1.57188
1.03634
1.02793
1.06437
1.11598
1.16332
1.19825
1.22059
1.23414
1.24257
1.24892
1.25546
1.26364
1.27431
1.28765
1.30335
1.32067
1.33803
1.35372
1.36621
1.37405
1.37547
1.37057
1.3576
1.34414
1.03181
1.04464
1.0872
1.1357
1.1755
1.20175
1.21625
1.22239
1.22362
1.22287
1.2222
1.22275
1.22486
1.22828
1.23232
1.23598
1.23833
1.23912
1.2382
1.23537
1.23055
1.22393
1.21599
1.20915
1.05794
1.09981
1.16037
1.2191
1.26383
1.2911
1.30375
1.30592
1.30148
1.29355
1.28432
1.27508
1.26644
1.25852
1.25116
1.24411
1.23707
1.22976
1.22212
1.21443
1.20723
1.20144
1.19813
1.19635
1.11045
1.18996
1.28056
1.36201
1.42307
1.46165
1.48151
1.4876
1.4844
1.47539
1.46302
1.44888
1.43394
1.41866
1.40326
1.38779
1.37225
1.35674
1.34167
1.32758
1.31541
1.30715
1.30558
1.30793
1.18743
1.31563
1.44943
1.56566
1.65307
1.71127
1.74534
1.76141
1.76494
1.7604
1.75027
1.73674
1.72139
1.70481
1.6873
1.66899
1.64978
1.63018
1.6113
1.59145
1.56977
1.54728
1.52819
1.511
1.28863
1.47961
1.67077
1.83207
1.95211
2.03317
2.08306
2.10976
2.12089
2.12062
2.1132
2.10138
2.08743
2.07007
2.04941
2.02533
1.99742
1.96336
1.91923
1.86593
1.80419
1.73495
1.66695
1.59841
1.41458
1.6862
1.94859
2.16022
2.31098
2.40858
2.46624
2.49424
2.50547
2.49965
2.48283
2.45434
2.41367
2.36591
2.31229
2.25275
2.18673
2.11468
2.03861
1.95679
1.86912
1.77393
1.6835
1.57488
1.56642
1.94079
2.2852
2.5419
2.70752
2.80028
2.84355
2.84208
2.80278
2.74477
2.67704
2.60389
2.53054
2.45462
2.37473
2.28991
2.19924
2.10185
1.99599
1.88107
1.75946
1.62421
1.50283
1.32589
1.74587
2.24999
2.67863
2.95666
3.10222
3.14281
3.08833
2.99794
2.90106
2.80099
2.69653
2.58754
2.47236
2.35171
2.22575
2.09421
1.95668
1.81292
1.66313
1.50706
1.34928
1.18199
1.04329
0.839795
1.9555
2.62176
3.11833
3.3658
3.41116
3.29837
3.1527
2.99715
2.82934
2.65504
2.47879
2.30256
2.1273
1.95308
1.77946
1.60567
1.43091
1.25635
1.08574
0.916254
0.756661
0.612012
0.493104
0.374875
2.19969
3.0645
3.57738
3.70537
3.53747
3.29871
3.03053
2.75682
2.49086
2.23731
1.99745
1.77134
1.55839
1.35693
1.16471
0.982204
0.807861
0.651894
0.517567
0.412307
0.331432
0.268805
0.220633
0.183078
2.48685
3.5826
4.00052
3.86527
3.50542
3.06989
2.6594
2.28809
1.95676
1.66234
1.40138
1.17039
0.965494
0.781725
0.620144
0.486921
0.386992
0.310115
0.250379
0.203863
0.167964
0.140619
0.120044
0.108845
2.83527
4.16213
4.32598
3.88996
3.22369
2.63541
2.14242
1.73494
1.39834
1.12011
0.890564
0.700973
0.545774
0.423921
0.333887
0.265425
0.21291
0.172521
0.141421
0.117566
0.0995447
0.0863268
0.0772498
0.0754233
3.28613
4.73655
4.49961
3.66118
2.79993
2.1396
1.6396
1.25896
0.966828
0.741949
0.568555
0.435999
0.336062
0.26294
0.208103
0.166469
0.134654
0.110265
0.0916052
0.0775035
0.0671797
0.0599939
0.0558659
0.0565097
3.92651
5.22751
4.56598
3.29183
2.35651
1.7055
1.24963
0.924637
0.689437
0.51753
0.391458
0.299085
0.231277
0.180332
0.141737
0.112405
0.0900931
0.0731659
0.0604707
0.0512451
0.0449487
0.0411458
0.0400094
0.0416042
4.90531
5.66956
4.47051
2.93459
1.97374
1.36587
0.96702
0.696008
0.507082
0.373098
0.276999
0.20728
0.156123
0.118514
0.0909015
0.0706871
0.0559775
0.0454178
0.038061
0.0332445
0.030441
0.0293603
0.029843
0.0320658
6.38376
6.22751
4.17845
2.53516
1.62793
1.08969
0.750203
0.52599
0.373346
0.267464
0.193158
0.140691
0.103655
0.077573
0.059252
0.0464137
0.0374506
0.0312557
0.0270982
0.0245023
0.0231698
0.0229814
0.0237316
0.0259509
8.46783
6.62482
3.65012
2.12838
1.32446
0.86395
0.580005
0.396181
0.273835
0.191266
0.135228
0.0971629
0.0712834
0.0536165
0.0414561
0.0329984
0.0270775
0.0229634
0.0202166
0.018567
0.0178523
0.0179571
0.018803
0.020778
11.6317
6.66949
3.17709
1.75425
1.0663
0.681764
0.447318
0.298057
0.201149
0.137723
0.0960521
0.0685379
0.0502124
0.0378571
0.0294155
0.0235858
0.0195493
0.0167978
0.0150229
0.0140359
0.0137291
0.0139729
0.0148432
0.0165378
2.55363
6.76242
10.563
11.7773
10.7129
39.6324
0.903289
3.65096
5.63739
7.29838
10.2247
13.1514
1.20768
2.89866
4.46965
6.06461
7.79942
8.43841
1.62336
2.60412
3.98844
5.48173
6.73598
6.68889
1.97023
2.46228
3.73899
5.13851
6.08281
5.76462
2.25104
2.3914
3.59543
4.91856
5.6423
5.1359
2.46948
2.35755
3.50892
4.78361
5.34736
4.6811
2.6293
2.34053
3.45451
4.70751
5.15743
4.33748
2.73408
2.32642
3.41669
4.67004
5.04378
4.07892
2.78702
2.30576
3.38464
4.65589
4.9887
3.89629
2.79081
2.27197
3.34969
4.66069
4.97587
3.78142
2.74845
2.22081
3.30436
4.67962
4.99004
3.73294
2.66582
2.15023
3.24048
4.70471
5.04494
3.74289
2.55579
2.06016
3.15054
4.72955
5.13991
3.8134
2.41756
1.95031
3.02749
4.7456
5.2749
3.95327
2.25163
1.82241
2.86486
4.73942
5.44959
4.17563
2.0591
1.67669
2.66048
4.68939
5.66257
4.49933
1.83965
1.51232
2.41666
4.56233
5.90993
4.95292
1.58489
1.32592
2.13395
4.31856
6.18311
5.5805
1.26036
1.10942
1.82305
3.90349
6.4648
6.45622
0.26701
0.853948
1.51728
3.26392
6.652
7.71666
0.244235
0.729929
1.2611
2.52029
6.58222
9.73337
0.924106
0.853365
1.18919
1.90883
5.4379
13.8949
2.37508
1.87641
2.13593
2.37877
2.94069
27.5491
14.5249
5.08613
2.45604
1.39709
0.852643
0.537214
0.34462
0.224244
0.148235
0.0999685
0.0691149
0.0491881
0.0361334
0.0274345
0.0215353
0.0174762
0.0146683
0.0127549
0.0115268
0.0108637
0.0107008
0.0109508
0.0117113
0.0130754
7.79871
3.64182
1.97884
1.14732
0.689354
0.424072
0.265507
0.169125
0.110036
0.0735254
0.0507018
0.0361914
0.0267696
0.0205093
0.016256
0.013314
0.0112625
0.00984962
0.00893
0.0084237
0.00828984
0.00848319
0.00908092
0.0101516
5.74164
3.02828
1.65063
0.939964
0.553879
0.333838
0.204885
0.128396
0.0826747
0.0550279
0.0380028
0.0272656
0.0203097
0.015679
0.0125176
0.0103139
0.00875936
0.0076686
0.00693489
0.00650171
0.00634258
0.00644713
0.00686787
0.00768227
4.67752
2.49791
1.36108
0.769903
0.447001
0.264263
0.159271
0.0985377
0.0630586
0.0419577
0.0290842
0.0209912
0.0157417
0.0122318
0.00981869
0.00811924
0.00690098
0.00602274
0.00540202
0.00499509
0.00478373
0.00477918
0.00502267
0.00560497
3.89032
2.09262
1.1397
0.636981
0.362926
0.210426
0.124907
0.0766079
0.0489087
0.0326161
0.0227193
0.0164936
0.0124395
0.00971213
0.00782149
0.00647484
0.00549258
0.00476323
0.00421893
0.00382156
0.00355438
0.00342715
0.00350117
0.00386937
3.31696
1.78315
0.963952
0.530659
0.296723
0.16908
0.0991631
0.0604909
0.0386228
0.025846
0.0180916
0.0131996
0.00999751
0.00782916
0.00631392
0.00522317
0.00441494
0.00379873
0.00331636
0.00293136
0.00262343
0.00239332
0.00229202
0.0024473
2.89768
1.54673
0.826093
0.446821
0.245082
0.137452
0.079853
0.0485659
0.0310566
0.0208613
0.0146653
0.0107407
0.0081582
0.0063988
0.00516084
0.00426211
0.0035883
0.00306509
0.00264239
0.00228524
0.0019692
0.00168367
0.0014366
0.00120394
2.59188
1.36416
0.717061
0.380437
0.204782
0.113255
0.0653184
0.0396704
0.0254215
0.0171341
0.012085
0.00887357
0.00675053
0.0052973
0.00426985
0.00352009
0.00295464
0.00251243
0.00215181
0.00184266
0.00156129
0.0012911
0.00103086
0.000724647
2.3644
1.22234
0.630985
0.328123
0.173453
0.0947464
0.0543249
0.0329711
0.0211696
0.0143047
0.0101106
0.00743326
0.00565724
0.00443799
0.00357398
0.00294244
0.00246582
0.00209346
0.00179114
0.00153428
0.00130344
0.00108472
0.000873674
0.000633559
2.19258
1.11247
0.563366
0.287068
0.149152
0.0805703
0.0459578
0.0278747
0.0179203
0.0121262
0.00857729
0.00630586
0.00479605
0.00375845
0.00302308
0.00248601
0.00208146
0.00176648
0.00151213
0.00129768
0.00110681
0.000928593
0.000761791
0.000582941
2.06742
1.029
0.510906
0.255111
0.130386
0.0697057
0.0395503
0.0239601
0.0154079
0.0104271
0.00737075
0.0054117
0.00410891
0.00321419
0.00258119
0.00212017
0.0017742
0.00150615
0.00129106
0.00111121
0.000952858
0.000807547
0.000675422
0.000540667
1.98178
0.967834
0.471184
0.230589
0.115945
0.0613499
0.0346162
0.0209274
0.0134451
0.00908687
0.00641028
0.00469441
0.00355458
0.00277362
0.00222306
0.00182394
0.00152612
0.00129694
0.00111457
0.000963625
0.000832419
0.000714181
0.000609397
0.000506736
1.93227
0.926404
0.442185
0.212033
0.104879
0.054917
0.0308053
0.0185617
0.0118984
0.00801971
0.00563826
0.00411353
0.00310334
0.00241397
0.00193053
0.00158229
0.00132438
0.00112763
0.000972637
0.000845858
0.000737203
0.000641093
0.000557916
0.000479371
1.91717
0.902594
0.422446
0.198427
0.0965116
0.0499878
0.0278558
0.0167079
0.0106718
0.0071636
0.00501282
0.00363948
0.00273338
0.00211847
0.00169019
0.00138417
0.00115962
0.000990108
0.000858139
0.000751627
0.000661719
0.000583662
0.000517564
0.000457303
1.93616
0.895341
0.411064
0.189021
0.0903323
0.0462484
0.0255801
0.0152531
0.00969525
0.00647314
0.00450314
0.00325034
0.00242837
0.00187445
0.00149187
0.00122114
0.00102466
0.000878138
0.000765612
0.00067613
0.000601804
0.000538449
0.000485844
0.000439511
1.99119
0.903017
0.407358
0.183293
0.0859623
0.0434663
0.0238403
0.0141145
0.00891715
0.00591467
0.00408617
0.00292957
0.00217591
0.00167223
0.00132771
0.00108662
0.000913845
0.00078681
0.000690736
0.000615575
0.00055419
0.000502791
0.00046085
0.000425162
2.08708
0.930489
0.409922
0.180889
0.0831175
0.0414672
0.0225332
0.0132305
0.00829893
0.00546289
0.00374445
0.00266451
0.00196641
0.00150423
0.00119153
0.000975416
0.000822724
0.000712226
0.00063009
0.000566974
0.000516331
0.000474645
0.000441137
0.000413605
2.2296
0.976161
0.42101
0.181434
0.081581
0.0401162
0.0215805
0.0125545
0.00781146
0.00509854
0.00346461
0.00244541
0.0017924
0.00136451
0.00107843
0.000883388
0.000747727
0.000651275
0.000580946
0.000527957
0.000486222
0.000452424
0.0004256
0.00040433
2.43001
1.04342
0.43996
0.184153
0.0811788
0.0393052
0.0209207
0.012051
0.00743241
0.00480686
0.0032363
0.00226461
0.00164798
0.00124835
0.000984502
0.000807227
0.000685996
0.000601462
0.000541121
0.000496631
0.00046228
0.000434897
0.000413391
0.000396941
2.70484
1.13517
0.466197
0.189055
0.0816259
0.038949
0.0205049
0.0116927
0.0071445
0.00457641
0.00305148
0.00211616
0.00152851
0.00115199
0.000906621
0.000744271
0.000635234
0.000560782
0.000508859
0.00047148
0.000443246
0.000421106
0.000403866
0.000391129
3.07952
1.25527
0.499888
0.195763
0.082735
0.0389733
0.0202942
0.0114583
0.00693422
0.00439833
0.00290392
0.00199537
0.0014303
0.0010724
0.000842266
0.000692374
0.000593588
0.000527621
0.000482751
0.000451285
0.000428109
0.00041029
0.000396529
0.000386653
3.59007
1.40602
0.535343
0.20349
0.0843134
0.0392372
0.0202533
0.0113309
0.00679094
0.00426593
0.00278891
0.00189866
0.00135049
0.00100723
0.000789415
0.000649795
0.000559552
0.000500673
0.000461664
0.000435068
0.000416037
0.000401788
0.00039095
0.000383292
4.2762
1.57043
0.568119
0.211111
0.0860862
0.039681
0.0203355
0.0112923
0.0067071
0.0041744
0.00270303
0.00182343
0.00128694
0.000954641
0.00074648
0.000615134
0.000531891
0.000478861
0.000444677
0.000422046
0.000406349
0.000394991
0.000386681
0.000380757
4.86591
1.69502
0.594683
0.217294
0.0877836
0.0402414
0.0205202
0.0113303
0.00667979
0.00412142
0.00264453
0.00176817
0.00123831
0.000913431
0.000712353
0.000587373
0.000509678
0.000461365
0.000431099
0.000411691
0.000398685
0.000389604
0.000383261
0.00037878
)
;

boundaryField
{
    rotor
    {
        type            epsilonWallFunction;
        value           nonuniform List<scalar> 
144
(
3.16336
7.7073
11.4327
11.6935
9.75977
30.3782
3.16336
1.1055
1.62608
2.24921
2.81688
3.31848
3.7487
4.10517
4.3867
4.59255
4.72183
4.77479
4.76953
4.71366
4.59937
4.41848
4.16377
3.82933
3.41116
2.90873
2.32957
1.69509
1.16371
3.10737
3.10737
5.54175
7.91913
8.81468
9.8182
45.0107
5.18238
4.03516
3.16191
2.32947
1.69725
2.12037
5.18238
1.53287
2.25823
2.81529
3.24699
3.60414
3.91382
4.18696
4.42849
4.64104
4.82717
4.98993
5.11049
5.14172
5.10896
4.97723
4.74886
4.41806
3.97848
3.43476
2.80636
2.07476
1.33358
4.50657
4.50657
9.72231
12.474
10.9521
8.66189
6.23052
1.57241
1.84584
2.42607
2.76852
3.17781
4.06858
1.57241
0.757112
0.211602
0.237973
0.258741
0.273006
1.18647
1.20261
1.22846
1.25518
1.27456
1.28296
1.27793
1.25928
1.23258
1.20234
1.19078
1.18585
0.276389
0.266085
0.249506
0.227023
0.846401
1.95436
1.95436
2.11358
2.37104
2.56849
2.43906
2.55177
2.55363
6.76242
10.563
11.7773
10.7129
39.6324
2.55363
0.903289
1.20768
1.62336
1.97023
2.25104
2.46948
2.6293
2.73408
2.78702
2.79081
2.74845
2.66582
2.55579
2.41756
2.25163
2.0591
1.83965
1.58489
1.26036
0.26701
0.244235
0.924106
2.37508
2.37508
1.87641
2.13593
2.37877
2.94069
27.5491
)
;
    }
    freestream
    {
        type            inletOutlet;
        inletValue      uniform 0.000375;
        value           nonuniform List<scalar> 
96
(
0.000375
0.000375
0.000375
0.000375
0.000375
0.000375
0.000375
0.000375
0.000375
0.000375
0.000375
0.000375
0.000375
0.000375
0.000375
0.000375
0.000375
0.000375
0.000375
0.000375
0.000375
0.000375
0.000375
0.000375
0.000375
0.000375
0.000375
0.000375
0.000375
0.00283605
0.0052937
0.00776996
0.0102075
0.0126535
0.0151058
0.0175456
0.0199611
0.0223434
0.0247037
0.0270868
0.0295959
0.0324717
0.0361773
0.0416586
0.0508926
0.0683022
0.104659
0.18846
0.395281
0.843234
1.41689
1.61761
1.57188
1.34414
1.20915
1.19635
1.30793
1.511
1.59841
1.57488
1.32589
0.839795
0.374875
0.183078
0.108845
0.0754233
0.0565097
0.0416042
0.0320658
0.0259509
0.020778
0.0165378
0.0130754
0.0101516
0.00768227
0.00560497
0.00386937
0.0024473
0.000375
0.000375
0.000375
0.000375
0.000375
0.000375
0.000375
0.000375
0.000375
0.000375
0.000375
0.000375
0.000375
0.000375
0.000375
0.000375
0.000375
0.000375
)
;
    }
    frontAndBack
    {
        type            empty;
    }
}


// ************************************************************************* //
