/*--------------------------------*- C++ -*----------------------------------*\
  =========                 |
  \\      /  F ield         | OpenFOAM: The Open Source CFD Toolbox
   \\    /   O peration     | Website:  https://openfoam.org
    \\  /    A nd           | Version:  11
     \\/     M anipulation  |
\*---------------------------------------------------------------------------*/
FoamFile
{
    format      ascii;
    class       surfaceScalarField;
    location    "1.94";
    object      meshPhi;
}
// * * * * * * * * * * * * * * * * * * * * * * * * * * * * * * * * * * * * * //

dimensions      [0 3 -1 0 0 0 0];

internalField   nonuniform List<scalar> 
5640
(
1.36931e-16
9.81747e-07
2.42139e-16
1.37445e-06
3.76984e-16
1.76715e-06
-1.33931e-15
2.15984e-06
-3.68151e-15
2.55254e-06
2.94524e-06
5.95132e-15
1.83546e-18
9.81747e-07
-3.88805e-16
1.37445e-06
-2.60406e-15
1.76715e-06
1.94371e-15
2.15984e-06
8.06619e-15
2.55254e-06
2.94524e-06
-9.02978e-15
-1.16467e-16
9.81747e-07
1.86414e-16
1.37445e-06
-1.5623e-15
1.76715e-06
-4.21246e-15
2.15984e-06
-7.49838e-15
2.55254e-06
2.94524e-06
7.72433e-16
8.6971e-17
9.81747e-07
-1.01878e-16
1.37445e-06
2.69312e-15
1.76715e-06
7.4428e-15
2.15984e-06
3.25993e-15
2.55254e-06
2.94524e-06
-2.79772e-15
-4.83584e-17
9.81747e-07
3.95372e-17
1.37445e-06
1.94314e-16
1.76715e-06
-1.80601e-15
2.15984e-06
-4.2085e-15
2.55254e-06
2.94524e-06
5.01355e-15
-1.8008e-16
9.81747e-07
4.35089e-18
1.37445e-06
-1.84777e-15
1.76715e-06
-3.88607e-15
2.15984e-06
3.15708e-15
2.55254e-06
2.94524e-06
4.98144e-16
2.53989e-16
9.81747e-07
2.55484e-16
1.37445e-06
2.06597e-15
1.76715e-06
4.5042e-15
2.15984e-06
-2.30985e-15
2.55254e-06
2.94524e-06
5.40814e-16
2.16535e-17
9.81747e-07
-3.21639e-16
1.37445e-06
-1.1488e-15
1.76715e-06
-5.28556e-15
2.15984e-06
-3.76792e-16
2.55254e-06
2.94524e-06
-5.63977e-15
-1.43411e-16
9.81747e-07
1.66449e-16
1.37445e-06
4.19116e-15
1.76715e-06
6.34946e-15
2.15984e-06
-8.05552e-16
2.55254e-06
2.94524e-06
8.39455e-16
-6.87823e-17
9.81747e-07
-9.20657e-17
1.37445e-06
-2.76936e-15
1.76715e-06
-3.68689e-16
2.15984e-06
-1.45071e-15
2.55254e-06
2.94524e-06
-1.76573e-16
1.66357e-16
9.81747e-07
-8.86938e-17
1.37445e-06
5.69682e-16
1.76715e-06
-2.10357e-15
2.15984e-06
9.65992e-15
2.55254e-06
2.94524e-06
5.29022e-15
-1.77772e-16
9.81747e-07
-2.05094e-17
1.37445e-06
-3.45503e-16
1.76715e-06
-4.17271e-15
2.15984e-06
-2.62249e-15
2.55254e-06
2.94524e-06
5.36953e-15
1.77795e-16
9.81747e-07
2.05039e-17
1.37445e-06
3.45483e-16
1.76715e-06
4.1726e-15
2.15984e-06
2.62247e-15
2.55254e-06
2.94524e-06
-5.36938e-15
-1.66342e-16
9.81747e-07
8.86467e-17
1.37445e-06
-5.69616e-16
1.76715e-06
2.10353e-15
2.15984e-06
-9.65993e-15
2.55254e-06
2.94524e-06
-5.29006e-15
6.88071e-17
9.81747e-07
9.20625e-17
1.37445e-06
2.76948e-15
1.76715e-06
3.68786e-16
2.15984e-06
1.45109e-15
2.55254e-06
2.94524e-06
1.76752e-16
1.43408e-16
9.81747e-07
-1.66359e-16
1.37445e-06
-4.19108e-15
1.76715e-06
-6.34931e-15
2.15984e-06
8.0569e-16
2.55254e-06
2.94524e-06
-8.39293e-16
-2.1664e-17
9.81747e-07
3.21682e-16
1.37445e-06
1.14894e-15
1.76715e-06
5.28562e-15
2.15984e-06
3.76783e-16
2.55254e-06
2.94524e-06
5.6398e-15
-2.53972e-16
9.81747e-07
-2.55441e-16
1.37445e-06
-2.06599e-15
1.76715e-06
-4.50403e-15
2.15984e-06
2.31004e-15
2.55254e-06
2.94524e-06
-5.4085e-16
1.80123e-16
9.81747e-07
-4.30536e-18
1.37445e-06
1.84779e-15
1.76715e-06
3.88622e-15
2.15984e-06
-3.15705e-15
2.55254e-06
2.94524e-06
-4.98129e-16
4.8384e-17
9.81747e-07
-3.94843e-17
1.37445e-06
-1.94296e-16
1.76715e-06
1.80616e-15
2.15984e-06
4.20859e-15
2.55254e-06
2.94524e-06
-5.0133e-15
-8.69325e-17
9.81747e-07
1.01955e-16
1.37445e-06
-2.69312e-15
1.76715e-06
-7.44282e-15
2.15984e-06
-3.2598e-15
2.55254e-06
2.94524e-06
2.79816e-15
1.16472e-16
9.81747e-07
-1.86371e-16
1.37445e-06
1.56238e-15
1.76715e-06
4.21253e-15
2.15984e-06
7.4986e-15
2.55254e-06
2.94524e-06
-7.72124e-16
-1.82088e-18
9.81747e-07
3.88774e-16
1.37445e-06
2.60417e-15
1.76715e-06
-1.94364e-15
2.15984e-06
-8.06613e-15
2.55254e-06
2.94524e-06
9.03009e-15
-1.36942e-16
-2.42093e-16
-3.7697e-16
1.33933e-15
3.68154e-15
-5.95117e-15
-1.13357e-14
4.53785e-06
-4.53785e-06
-4.8134e-16
5.23599e-06
-5.23599e-06
-5.35727e-15
5.93412e-06
-5.93412e-06
-1.13036e-14
6.63225e-06
-6.63225e-06
4.86924e-15
7.33038e-06
-7.33038e-06
-1.10903e-15
8.02851e-06
-8.02851e-06
-8.15738e-15
8.72664e-06
-8.72664e-06
1.30445e-14
9.42478e-06
-9.42478e-06
5.94931e-15
1.01229e-05
-1.01229e-05
-1.99575e-15
1.0821e-05
-1.0821e-05
2.43873e-14
1.15192e-05
-1.15192e-05
1.61897e-14
1.22173e-05
-1.22173e-05
-3.2787e-14
1.29154e-05
-1.29154e-05
-3.05075e-15
1.36136e-05
-1.36136e-05
-1.44401e-14
1.43117e-05
-1.43117e-05
-2.69013e-14
1.50098e-05
-1.50098e-05
7.73925e-15
1.5708e-05
-1.5708e-05
-4.43611e-15
1.64061e-05
-1.64061e-05
-1.79982e-14
1.71042e-05
-1.71042e-05
2.18253e-14
1.78024e-05
-1.78024e-05
8.21274e-15
1.85005e-05
-1.85005e-05
-6.07944e-15
1.91986e-05
-1.91986e-05
3.89209e-14
1.98967e-05
-1.98967e-05
2.05949e-05
-2.05949e-05
9.39879e-15
4.53785e-06
5.19926e-16
5.23599e-06
7.5286e-15
5.93412e-06
-4.41129e-15
6.63225e-06
3.78333e-15
7.33038e-06
1.3386e-14
8.02851e-06
-2.10927e-15
8.72664e-06
8.52759e-15
9.42478e-06
-1.00279e-14
1.01229e-05
1.86525e-15
1.0821e-05
-2.02026e-14
1.15192e-05
-7.01193e-15
1.22173e-05
7.51066e-15
1.29154e-05
2.36108e-14
1.36136e-05
-2.04153e-15
1.43117e-05
1.48337e-14
1.50098e-05
-1.3878e-14
1.5708e-05
2.39208e-15
1.64061e-05
2.04138e-14
1.71042e-05
-7.01509e-15
1.78024e-05
1.20673e-14
1.85005e-05
-2.59436e-14
1.91986e-05
1.84815e-15
1.98967e-05
2.05949e-05
-8.67588e-15
4.53785e-06
1.22922e-14
5.23599e-06
1.88313e-15
5.93412e-06
8.90269e-15
6.63225e-06
-5.10754e-15
7.33038e-06
-2.19907e-14
8.02851e-06
1.22642e-14
8.72664e-06
-5.37478e-15
9.42478e-06
4.45674e-15
1.01229e-05
-1.43054e-14
1.0821e-05
-7.32431e-15
1.15192e-05
7.04114e-15
1.22173e-05
2.39944e-14
1.29154e-05
-7.55201e-15
1.36136e-05
9.80309e-15
1.43117e-05
-1.62339e-14
1.50098e-05
4.02976e-14
1.5708e-05
1.44479e-14
1.64061e-05
-1.36993e-14
1.71042e-05
-7.89468e-15
1.78024e-05
-3.925e-14
1.85005e-05
4.2749e-14
1.91986e-05
-8.84731e-15
1.98967e-05
2.05949e-05
5.98611e-15
4.53785e-06
2.19157e-16
5.23599e-06
-6.43525e-15
5.93412e-06
6.06419e-15
6.63225e-06
-2.09193e-15
7.33038e-06
1.61765e-14
8.02851e-06
-1.88304e-14
8.72664e-06
-2.35016e-15
9.42478e-06
9.17147e-15
1.01229e-05
-4.71012e-15
1.0821e-05
2.16294e-14
1.15192e-05
-2.96452e-14
1.22173e-05
-9.29103e-15
1.29154e-05
-1.89054e-14
1.36136e-05
4.46801e-15
1.43117e-05
3.01586e-14
1.50098e-05
-2.62139e-14
1.5708e-05
4.40093e-16
1.64061e-05
-2.11699e-14
1.71042e-05
1.87148e-14
1.78024e-05
-3.91877e-15
1.85005e-05
-2.91542e-14
1.91986e-05
1.52346e-14
1.98967e-05
2.05949e-05
6.71522e-15
4.53785e-06
-7.30626e-15
5.23599e-06
1.11014e-14
5.93412e-06
-4.24099e-15
6.63225e-06
1.51028e-14
7.33038e-06
-5.20881e-15
8.02851e-06
1.70136e-14
8.72664e-06
-3.94108e-15
9.42478e-06
-2.91946e-16
1.01229e-05
6.6121e-15
1.0821e-05
1.37074e-14
1.15192e-05
1.01847e-14
1.22173e-05
1.82183e-14
1.29154e-05
1.43715e-14
1.36136e-05
2.33403e-14
1.43117e-05
-2.53423e-14
1.50098e-05
2.90716e-14
1.5708e-05
-7.82612e-15
1.64061e-05
3.54192e-14
1.71042e-05
-4.51241e-15
1.78024e-05
4.23726e-14
1.85005e-05
-5.85604e-16
1.91986e-05
-8.73168e-15
1.98967e-05
2.05949e-05
-4.63023e-15
4.53785e-06
5.79775e-15
5.23599e-06
-1.61504e-14
5.93412e-06
-5.97401e-15
6.63225e-06
-8.55408e-15
7.33038e-06
4.22427e-15
8.02851e-06
-8.18714e-15
8.72664e-06
7.00016e-15
9.42478e-06
-2.42282e-14
1.01229e-05
-7.76873e-15
1.0821e-05
-2.27636e-14
1.15192e-05
8.35023e-15
1.22173e-05
-7.4007e-15
1.29154e-05
2.82651e-14
1.36136e-05
-4.57108e-14
1.43117e-05
-8.22016e-15
1.50098e-05
-2.82264e-14
1.5708e-05
-2.33922e-15
1.64061e-05
-6.93881e-15
1.71042e-05
2.21523e-14
1.78024e-05
-3.41101e-14
1.85005e-05
-3.74153e-15
1.91986e-05
-3.2343e-14
1.98967e-05
2.05949e-05
-8.92486e-15
4.53785e-06
-2.28886e-15
5.23599e-06
-2.22376e-15
5.93412e-06
6.61654e-15
6.63225e-06
-3.38735e-15
7.33038e-06
-3.90619e-15
8.02851e-06
-6.41899e-15
8.72664e-06
-7.15738e-15
9.42478e-06
6.81136e-15
1.01229e-05
6.98223e-15
1.0821e-05
-9.06359e-15
1.15192e-05
6.76074e-15
1.22173e-05
-2.88876e-14
1.29154e-05
-1.22334e-14
1.36136e-05
4.80588e-15
1.43117e-05
2.50279e-14
1.50098e-05
3.86192e-15
1.5708e-05
3.60805e-15
1.64061e-05
-2.04809e-14
1.71042e-05
-2.17584e-14
1.78024e-05
3.46955e-15
1.85005e-05
2.9041e-14
1.91986e-05
-1.66397e-15
1.98967e-05
2.05949e-05
6.21562e-15
4.53785e-06
-3.87904e-15
5.23599e-06
1.54224e-14
5.93412e-06
-7.06434e-15
6.63225e-06
-2.20956e-15
7.33038e-06
1.42987e-15
8.02851e-06
-5.49279e-15
8.72664e-06
1.32265e-14
9.42478e-06
6.04821e-15
1.01229e-05
-1.74508e-14
1.0821e-05
2.08876e-14
1.15192e-05
-2.14432e-14
1.22173e-05
1.91354e-14
1.29154e-05
-7.31399e-15
1.36136e-05
3.8486e-14
1.43117e-05
-1.29212e-14
1.50098e-05
-1.87882e-15
1.5708e-05
5.71946e-15
1.64061e-05
-7.58558e-15
1.71042e-05
2.76628e-14
1.78024e-05
1.41027e-14
1.85005e-05
-5.31376e-14
1.91986e-05
3.90879e-14
1.98967e-05
2.05949e-05
-1.49856e-15
4.53785e-06
1.08972e-14
5.23599e-06
-6.59907e-15
5.93412e-06
7.26568e-15
6.63225e-06
6.17522e-15
7.33038e-06
2.48851e-15
8.02851e-06
-9.6458e-16
8.72664e-06
-4.36452e-15
9.42478e-06
-8.89907e-15
1.01229e-05
1.3862e-14
1.0821e-05
1.06916e-14
1.15192e-05
6.25182e-15
1.22173e-05
-1.26831e-16
1.29154e-05
-3.43694e-15
1.36136e-05
-1.10429e-14
1.43117e-05
-1.77645e-14
1.50098e-05
1.76802e-14
1.5708e-05
9.95405e-15
1.64061e-05
3.33283e-15
1.71042e-05
-3.29656e-14
1.78024e-05
-1.04159e-14
1.85005e-05
3.0067e-14
1.91986e-05
-5.99888e-14
1.98967e-05
2.05949e-05
5.17018e-15
4.53785e-06
-7.45511e-15
5.23599e-06
-7.56545e-16
5.93412e-06
6.83913e-15
6.63225e-06
-9.97416e-15
7.33038e-06
-1.6642e-15
8.02851e-06
9.21986e-15
8.72664e-06
-1.34589e-14
9.42478e-06
2.32218e-14
1.01229e-05
1.04718e-14
1.0821e-05
-1.72709e-14
1.15192e-05
-3.02618e-15
1.22173e-05
1.13986e-14
1.29154e-05
-1.98139e-14
1.36136e-05
-4.67658e-15
1.43117e-05
5.03044e-14
1.50098e-05
-2.40453e-14
1.5708e-05
-6.6568e-15
1.64061e-05
1.42636e-14
1.71042e-05
1.65322e-15
1.78024e-05
-6.80949e-15
1.85005e-05
1.44461e-14
1.91986e-05
5.07627e-14
1.98967e-05
2.05949e-05
-6.19733e-15
4.53785e-06
2.86422e-17
5.23599e-06
1.15117e-14
5.93412e-06
-2.06261e-14
6.63225e-06
5.36706e-15
7.33038e-06
1.22217e-15
8.02851e-06
-4.65142e-17
8.72664e-06
1.23942e-14
9.42478e-06
-1.32248e-14
1.01229e-05
-1.88947e-14
1.0821e-05
-4.96433e-15
1.15192e-05
-7.15291e-15
1.22173e-05
-1.48859e-14
1.29154e-05
3.53439e-14
1.36136e-05
1.43899e-18
1.43117e-05
-4.31377e-14
1.50098e-05
1.35653e-14
1.5708e-05
-2.82542e-14
1.64061e-05
2.45318e-15
1.71042e-05
-1.02358e-14
1.78024e-05
2.38052e-14
1.85005e-05
1.38753e-14
1.91986e-05
-4.55611e-14
1.98967e-05
2.05949e-05
-1.90658e-15
4.53785e-06
1.1305e-15
5.23599e-06
-2.16621e-14
5.93412e-06
9.62395e-15
6.63225e-06
1.51376e-14
7.33038e-06
-1.40642e-14
8.02851e-06
8.09359e-15
8.72664e-06
-2.69591e-14
9.42478e-06
-1.9656e-15
1.01229e-05
2.97167e-14
1.0821e-05
-1.17455e-14
1.15192e-05
1.98683e-14
1.22173e-05
-2.74441e-14
1.29154e-05
-2.06134e-14
1.36136e-05
1.60415e-14
1.43117e-05
-4.61265e-15
1.50098e-05
4.69418e-15
1.5708e-05
4.79716e-14
1.64061e-05
-1.3741e-14
1.71042e-05
3.23744e-14
1.78024e-05
-3.51854e-14
1.85005e-05
-2.49021e-14
1.91986e-05
7.19201e-14
1.98967e-05
2.05949e-05
1.90678e-15
4.53785e-06
-1.13037e-15
5.23599e-06
2.16618e-14
5.93412e-06
-9.62358e-15
6.63225e-06
-1.51373e-14
7.33038e-06
1.4066e-14
8.02851e-06
-8.09269e-15
8.72664e-06
2.69603e-14
9.42478e-06
1.96628e-15
1.01229e-05
-2.97163e-14
1.0821e-05
1.17469e-14
1.15192e-05
-1.98662e-14
1.22173e-05
2.74482e-14
1.29154e-05
2.06171e-14
1.36136e-05
-1.60402e-14
1.43117e-05
4.61346e-15
1.50098e-05
-4.69253e-15
1.5708e-05
-4.79649e-14
1.64061e-05
1.37414e-14
1.71042e-05
-3.23708e-14
1.78024e-05
3.51874e-14
1.85005e-05
2.49088e-14
1.91986e-05
-7.19127e-14
1.98967e-05
2.05949e-05
6.19722e-15
4.53785e-06
-2.82487e-17
5.23599e-06
-1.15115e-14
5.93412e-06
2.06262e-14
6.63225e-06
-5.36691e-15
7.33038e-06
-1.22105e-15
8.02851e-06
4.73035e-17
8.72664e-06
-1.23941e-14
9.42478e-06
1.32264e-14
1.01229e-05
1.88945e-14
1.0821e-05
4.96535e-15
1.15192e-05
7.15622e-15
1.22173e-05
1.4889e-14
1.29154e-05
-3.53384e-14
1.36136e-05
2.35086e-18
1.43117e-05
4.31372e-14
1.50098e-05
-1.35602e-14
1.5708e-05
2.82562e-14
1.64061e-05
-2.45463e-15
1.71042e-05
1.02395e-14
1.78024e-05
-2.38018e-14
1.85005e-05
-1.38721e-14
1.91986e-05
4.55632e-14
1.98967e-05
2.05949e-05
-5.17015e-15
4.53785e-06
7.45575e-15
5.23599e-06
7.57076e-16
5.93412e-06
-6.83984e-15
6.63225e-06
9.97453e-15
7.33038e-06
1.6647e-15
8.02851e-06
-9.21799e-15
8.72664e-06
1.34596e-14
9.42478e-06
-2.32208e-14
1.01229e-05
-1.04722e-14
1.0821e-05
1.72723e-14
1.15192e-05
3.0283e-15
1.22173e-05
-1.1396e-14
1.29154e-05
1.98171e-14
1.36136e-05
4.68097e-15
1.43117e-05
-5.03077e-14
1.50098e-05
2.40462e-14
1.5708e-05
6.65879e-15
1.64061e-05
-1.4259e-14
1.71042e-05
-1.64886e-15
1.78024e-05
6.81534e-15
1.85005e-05
-1.44427e-14
1.91986e-05
-5.07561e-14
1.98967e-05
2.05949e-05
1.49863e-15
4.53785e-06
-1.08969e-14
5.23599e-06
6.5994e-15
5.93412e-06
-7.26551e-15
6.63225e-06
-6.17457e-15
7.33038e-06
-2.48869e-15
8.02851e-06
9.6452e-16
8.72664e-06
4.36488e-15
9.42478e-06
8.90159e-15
1.01229e-05
-1.38632e-14
1.0821e-05
-1.06909e-14
1.15192e-05
-6.25039e-15
1.22173e-05
1.27207e-16
1.29154e-05
3.4393e-15
1.36136e-05
1.10454e-14
1.43117e-05
1.7765e-14
1.50098e-05
-1.7678e-14
1.5708e-05
-9.95477e-15
1.64061e-05
-3.32702e-15
1.71042e-05
3.29696e-14
1.78024e-05
1.04253e-14
1.85005e-05
-3.00658e-14
1.91986e-05
5.99958e-14
1.98967e-05
2.05949e-05
-6.21569e-15
4.53785e-06
3.87932e-15
5.23599e-06
-1.54219e-14
5.93412e-06
7.06535e-15
6.63225e-06
2.21087e-15
7.33038e-06
-1.42867e-15
8.02851e-06
5.49296e-15
8.72664e-06
-1.32255e-14
9.42478e-06
-6.04542e-15
1.01229e-05
1.74513e-14
1.0821e-05
-2.08868e-14
1.15192e-05
2.14452e-14
1.22173e-05
-1.91346e-14
1.29154e-05
7.31682e-15
1.36136e-05
-3.84855e-14
1.43117e-05
1.29238e-14
1.50098e-05
1.8862e-15
1.5708e-05
-5.7147e-15
1.64061e-05
7.58548e-15
1.71042e-05
-2.76553e-14
1.78024e-05
-1.40989e-14
1.85005e-05
5.31419e-14
1.91986e-05
-3.90794e-14
1.98967e-05
2.05949e-05
8.92518e-15
4.53785e-06
2.28881e-15
5.23599e-06
2.22443e-15
5.93412e-06
-6.61596e-15
6.63225e-06
3.38846e-15
7.33038e-06
3.90711e-15
8.02851e-06
6.41887e-15
8.72664e-06
7.15867e-15
9.42478e-06
-6.80951e-15
1.01229e-05
-6.9831e-15
1.0821e-05
9.06465e-15
1.15192e-05
-6.75813e-15
1.22173e-05
2.88879e-14
1.29154e-05
1.22349e-14
1.36136e-05
-4.80537e-15
1.43117e-05
-2.5025e-14
1.50098e-05
-3.85993e-15
1.5708e-05
-3.60719e-15
1.64061e-05
2.04845e-14
1.71042e-05
2.17613e-14
1.78024e-05
-3.46625e-15
1.85005e-05
-2.90394e-14
1.91986e-05
1.66678e-15
1.98967e-05
2.05949e-05
4.63048e-15
4.53785e-06
-5.79753e-15
5.23599e-06
1.61505e-14
5.93412e-06
5.97473e-15
6.63225e-06
8.5553e-15
7.33038e-06
-4.22331e-15
8.02851e-06
8.18715e-15
8.72664e-06
-6.99945e-15
9.42478e-06
2.42306e-14
1.01229e-05
7.76866e-15
1.0821e-05
2.27652e-14
1.15192e-05
-8.34917e-15
1.22173e-05
7.40405e-15
1.29154e-05
-2.82664e-14
1.36136e-05
4.571e-14
1.43117e-05
8.22208e-15
1.50098e-05
2.82271e-14
1.5708e-05
2.34101e-15
1.64061e-05
6.94874e-15
1.71042e-05
-2.2148e-14
1.78024e-05
3.41092e-14
1.85005e-05
3.7379e-15
1.91986e-05
3.2349e-14
1.98967e-05
2.05949e-05
-6.71491e-15
4.53785e-06
7.30661e-15
5.23599e-06
-1.11009e-14
5.93412e-06
4.24141e-15
6.63225e-06
-1.5102e-14
7.33038e-06
5.20977e-15
8.02851e-06
-1.70131e-14
8.72664e-06
3.94152e-15
9.42478e-06
2.94263e-16
1.01229e-05
-6.61073e-15
1.0821e-05
-1.37051e-14
1.15192e-05
-1.0184e-14
1.22173e-05
-1.82171e-14
1.29154e-05
-1.43676e-14
1.36136e-05
-2.33411e-14
1.43117e-05
2.5346e-14
1.50098e-05
-2.90742e-14
1.5708e-05
7.82978e-15
1.64061e-05
-3.54142e-14
1.71042e-05
4.51321e-15
1.78024e-05
-4.23695e-14
1.85005e-05
5.86386e-16
1.91986e-05
8.73756e-15
1.98967e-05
2.05949e-05
-5.98578e-15
4.53785e-06
-2.18836e-16
5.23599e-06
6.43556e-15
5.93412e-06
-6.06365e-15
6.63225e-06
2.09294e-15
7.33038e-06
-1.61757e-14
8.02851e-06
1.8832e-14
8.72664e-06
2.35096e-15
9.42478e-06
-9.17166e-15
1.01229e-05
4.71029e-15
1.0821e-05
-2.16278e-14
1.15192e-05
2.96456e-14
1.22173e-05
9.29079e-15
1.29154e-05
1.89077e-14
1.36136e-05
-4.46725e-15
1.43117e-05
-3.01541e-14
1.50098e-05
2.62161e-14
1.5708e-05
-4.3564e-16
1.64061e-05
2.11738e-14
1.71042e-05
-1.87122e-14
1.78024e-05
3.92386e-15
1.85005e-05
2.91594e-14
1.91986e-05
-1.52292e-14
1.98967e-05
2.05949e-05
8.67629e-15
4.53785e-06
-1.22922e-14
5.23599e-06
-1.88341e-15
5.93412e-06
-8.90227e-15
6.63225e-06
5.10916e-15
7.33038e-06
2.19909e-14
8.02851e-06
-1.22645e-14
8.72664e-06
5.3731e-15
9.42478e-06
-4.45587e-15
1.01229e-05
1.43053e-14
1.0821e-05
7.32462e-15
1.15192e-05
-7.04069e-15
1.22173e-05
-2.39946e-14
1.29154e-05
7.55688e-15
1.36136e-05
-9.79799e-15
1.43117e-05
1.62386e-14
1.50098e-05
-4.02939e-14
1.5708e-05
-1.44464e-14
1.64061e-05
1.37069e-14
1.71042e-05
7.89572e-15
1.78024e-05
3.92516e-14
1.85005e-05
-4.27485e-14
1.91986e-05
8.85315e-15
1.98967e-05
2.05949e-05
-9.39886e-15
4.53785e-06
-5.19977e-16
5.23599e-06
-7.52848e-15
5.93412e-06
4.41169e-15
6.63225e-06
-3.78328e-15
7.33038e-06
-1.33841e-14
8.02851e-06
2.10888e-15
8.72664e-06
-8.5288e-15
9.42478e-06
1.00282e-14
1.01229e-05
-1.86565e-15
1.0821e-05
2.02035e-14
1.15192e-05
7.01257e-15
1.22173e-05
-7.51005e-15
1.29154e-05
-2.36067e-14
1.36136e-05
2.04523e-15
1.43117e-05
-1.48326e-14
1.50098e-05
1.3878e-14
1.5708e-05
-2.39415e-15
1.64061e-05
-2.04104e-14
1.71042e-05
7.01463e-15
1.78024e-05
-1.20657e-14
1.85005e-05
2.59408e-14
1.91986e-05
-1.84527e-15
1.98967e-05
2.05949e-05
1.13359e-14
4.53785e-06
4.81191e-16
5.23599e-06
5.35722e-15
5.93412e-06
1.13034e-14
6.63225e-06
-4.86876e-15
7.33038e-06
1.11008e-15
8.02851e-06
8.15772e-15
8.72664e-06
-1.30441e-14
9.42478e-06
-5.94971e-15
1.01229e-05
1.99712e-15
1.0821e-05
-2.43872e-14
1.15192e-05
-1.61893e-14
1.22173e-05
3.27874e-14
1.29154e-05
3.05175e-15
1.36136e-05
1.44434e-14
1.43117e-05
2.6902e-14
1.50098e-05
-7.74206e-15
1.5708e-05
4.44034e-15
1.64061e-05
1.80019e-14
1.71042e-05
-2.18195e-14
1.78024e-05
-8.21484e-15
1.85005e-05
6.08543e-15
1.91986e-05
-3.89148e-14
1.98967e-05
2.05949e-05
1.36944e-16
9.81747e-07
2.42116e-16
1.37445e-06
3.77014e-16
1.76715e-06
-1.33923e-15
2.15984e-06
-3.68157e-15
2.55254e-06
2.94524e-06
5.95119e-15
1.83546e-18
9.81747e-07
-3.88805e-16
1.37445e-06
-2.60406e-15
1.76715e-06
1.94371e-15
2.15984e-06
8.06619e-15
2.55254e-06
2.94524e-06
-9.02978e-15
-1.16467e-16
9.81747e-07
1.86414e-16
1.37445e-06
-1.5623e-15
1.76715e-06
-4.21246e-15
2.15984e-06
-7.49838e-15
2.55254e-06
2.94524e-06
7.72433e-16
8.6971e-17
9.81747e-07
-1.01878e-16
1.37445e-06
2.69312e-15
1.76715e-06
7.4428e-15
2.15984e-06
3.25993e-15
2.55254e-06
2.94524e-06
-2.79772e-15
-4.83584e-17
9.81747e-07
3.95372e-17
1.37445e-06
1.94314e-16
1.76715e-06
-1.80601e-15
2.15984e-06
-4.2085e-15
2.55254e-06
2.94524e-06
5.01355e-15
-1.8008e-16
9.81747e-07
4.35089e-18
1.37445e-06
-1.84777e-15
1.76715e-06
-3.88607e-15
2.15984e-06
3.15708e-15
2.55254e-06
2.94524e-06
4.98144e-16
2.53989e-16
9.81747e-07
2.55484e-16
1.37445e-06
2.06597e-15
1.76715e-06
4.5042e-15
2.15984e-06
-2.30985e-15
2.55254e-06
2.94524e-06
5.40814e-16
2.16535e-17
9.81747e-07
-3.21639e-16
1.37445e-06
-1.1488e-15
1.76715e-06
-5.28556e-15
2.15984e-06
-3.76792e-16
2.55254e-06
2.94524e-06
-5.63977e-15
-1.43411e-16
9.81747e-07
1.66449e-16
1.37445e-06
4.19116e-15
1.76715e-06
6.34946e-15
2.15984e-06
-8.05552e-16
2.55254e-06
2.94524e-06
8.39455e-16
-6.87823e-17
9.81747e-07
-9.20657e-17
1.37445e-06
-2.76936e-15
1.76715e-06
-3.68689e-16
2.15984e-06
-1.45071e-15
2.55254e-06
2.94524e-06
-1.76573e-16
1.66357e-16
9.81747e-07
-8.86938e-17
1.37445e-06
5.69682e-16
1.76715e-06
-2.10357e-15
2.15984e-06
9.65992e-15
2.55254e-06
2.94524e-06
5.29022e-15
-1.77772e-16
9.81747e-07
-2.05094e-17
1.37445e-06
-3.45503e-16
1.76715e-06
-4.17271e-15
2.15984e-06
-2.62249e-15
2.55254e-06
2.94524e-06
5.36953e-15
1.77795e-16
9.81747e-07
2.05039e-17
1.37445e-06
3.45483e-16
1.76715e-06
4.1726e-15
2.15984e-06
2.62247e-15
2.55254e-06
2.94524e-06
-5.36938e-15
-1.66342e-16
9.81747e-07
8.86467e-17
1.37445e-06
-5.69616e-16
1.76715e-06
2.10353e-15
2.15984e-06
-9.65993e-15
2.55254e-06
2.94524e-06
-5.29006e-15
6.88071e-17
9.81747e-07
9.20625e-17
1.37445e-06
2.76948e-15
1.76715e-06
3.68786e-16
2.15984e-06
1.45109e-15
2.55254e-06
2.94524e-06
1.76752e-16
1.43408e-16
9.81747e-07
-1.66359e-16
1.37445e-06
-4.19108e-15
1.76715e-06
-6.34931e-15
2.15984e-06
8.0569e-16
2.55254e-06
2.94524e-06
-8.39293e-16
-2.1664e-17
9.81747e-07
3.21682e-16
1.37445e-06
1.14894e-15
1.76715e-06
5.28562e-15
2.15984e-06
3.76783e-16
2.55254e-06
2.94524e-06
5.6398e-15
-2.53972e-16
9.81747e-07
-2.55441e-16
1.37445e-06
-2.06599e-15
1.76715e-06
-4.50403e-15
2.15984e-06
2.31004e-15
2.55254e-06
2.94524e-06
-5.4085e-16
1.80123e-16
9.81747e-07
-4.30536e-18
1.37445e-06
1.84779e-15
1.76715e-06
3.88622e-15
2.15984e-06
-3.15705e-15
2.55254e-06
2.94524e-06
-4.98129e-16
4.8384e-17
9.81747e-07
-3.94843e-17
1.37445e-06
-1.94296e-16
1.76715e-06
1.80616e-15
2.15984e-06
4.20859e-15
2.55254e-06
2.94524e-06
-5.0133e-15
-8.69325e-17
9.81747e-07
1.01955e-16
1.37445e-06
-2.69312e-15
1.76715e-06
-7.44282e-15
2.15984e-06
-3.2598e-15
2.55254e-06
2.94524e-06
2.79816e-15
1.16472e-16
9.81747e-07
-1.86371e-16
1.37445e-06
1.56238e-15
1.76715e-06
4.21253e-15
2.15984e-06
7.4986e-15
2.55254e-06
2.94524e-06
-7.72124e-16
-1.82088e-18
9.81747e-07
3.88774e-16
1.37445e-06
2.60417e-15
1.76715e-06
-1.94364e-15
2.15984e-06
-8.06613e-15
2.55254e-06
2.94524e-06
9.03009e-15
-1.36935e-16
-2.42111e-16
-3.7697e-16
1.3393e-15
3.68149e-15
-5.95112e-15
-1.1336e-14
4.53785e-06
-4.81114e-16
5.23599e-06
-5.35693e-15
5.93412e-06
-1.13031e-14
6.63225e-06
4.86927e-15
7.33038e-06
-1.10869e-15
8.02851e-06
-8.15773e-15
8.72664e-06
1.30442e-14
9.42478e-06
5.94967e-15
1.01229e-05
-1.99605e-15
1.0821e-05
2.43876e-14
1.15192e-05
1.619e-14
1.22173e-05
-3.27856e-14
1.29154e-05
-3.04876e-15
1.36136e-05
-1.44411e-14
1.43117e-05
-2.69024e-14
1.50098e-05
7.73917e-15
1.5708e-05
-4.43476e-15
1.64061e-05
-1.79994e-14
1.71042e-05
2.18212e-14
1.78024e-05
8.21404e-15
1.85005e-05
-6.07676e-15
1.91986e-05
3.89271e-14
1.98967e-05
2.05949e-05
9.39879e-15
4.53785e-06
5.19926e-16
5.23599e-06
7.5286e-15
5.93412e-06
-4.41129e-15
6.63225e-06
3.78333e-15
7.33038e-06
1.3386e-14
8.02851e-06
-2.10927e-15
8.72664e-06
8.52759e-15
9.42478e-06
-1.00279e-14
1.01229e-05
1.86525e-15
1.0821e-05
-2.02026e-14
1.15192e-05
-7.01193e-15
1.22173e-05
7.51066e-15
1.29154e-05
2.36108e-14
1.36136e-05
-2.04153e-15
1.43117e-05
1.48337e-14
1.50098e-05
-1.3878e-14
1.5708e-05
2.39208e-15
1.64061e-05
2.04138e-14
1.71042e-05
-7.01509e-15
1.78024e-05
1.20673e-14
1.85005e-05
-2.59436e-14
1.91986e-05
1.84815e-15
1.98967e-05
2.05949e-05
-8.67588e-15
4.53785e-06
1.22922e-14
5.23599e-06
1.88313e-15
5.93412e-06
8.90269e-15
6.63225e-06
-5.10754e-15
7.33038e-06
-2.19907e-14
8.02851e-06
1.22642e-14
8.72664e-06
-5.37478e-15
9.42478e-06
4.45674e-15
1.01229e-05
-1.43054e-14
1.0821e-05
-7.32431e-15
1.15192e-05
7.04114e-15
1.22173e-05
2.39944e-14
1.29154e-05
-7.55201e-15
1.36136e-05
9.80309e-15
1.43117e-05
-1.62339e-14
1.50098e-05
4.02976e-14
1.5708e-05
1.44479e-14
1.64061e-05
-1.36993e-14
1.71042e-05
-7.89468e-15
1.78024e-05
-3.925e-14
1.85005e-05
4.2749e-14
1.91986e-05
-8.84731e-15
1.98967e-05
2.05949e-05
5.98611e-15
4.53785e-06
2.19157e-16
5.23599e-06
-6.43525e-15
5.93412e-06
6.06419e-15
6.63225e-06
-2.09193e-15
7.33038e-06
1.61765e-14
8.02851e-06
-1.88304e-14
8.72664e-06
-2.35016e-15
9.42478e-06
9.17147e-15
1.01229e-05
-4.71012e-15
1.0821e-05
2.16294e-14
1.15192e-05
-2.96452e-14
1.22173e-05
-9.29103e-15
1.29154e-05
-1.89054e-14
1.36136e-05
4.46801e-15
1.43117e-05
3.01586e-14
1.50098e-05
-2.62139e-14
1.5708e-05
4.40093e-16
1.64061e-05
-2.11699e-14
1.71042e-05
1.87148e-14
1.78024e-05
-3.91877e-15
1.85005e-05
-2.91542e-14
1.91986e-05
1.52346e-14
1.98967e-05
2.05949e-05
6.71522e-15
4.53785e-06
-7.30626e-15
5.23599e-06
1.11014e-14
5.93412e-06
-4.24099e-15
6.63225e-06
1.51028e-14
7.33038e-06
-5.20881e-15
8.02851e-06
1.70136e-14
8.72664e-06
-3.94108e-15
9.42478e-06
-2.91946e-16
1.01229e-05
6.6121e-15
1.0821e-05
1.37074e-14
1.15192e-05
1.01847e-14
1.22173e-05
1.82183e-14
1.29154e-05
1.43715e-14
1.36136e-05
2.33403e-14
1.43117e-05
-2.53423e-14
1.50098e-05
2.90716e-14
1.5708e-05
-7.82612e-15
1.64061e-05
3.54192e-14
1.71042e-05
-4.51241e-15
1.78024e-05
4.23726e-14
1.85005e-05
-5.85604e-16
1.91986e-05
-8.73168e-15
1.98967e-05
2.05949e-05
-4.63023e-15
4.53785e-06
5.79775e-15
5.23599e-06
-1.61504e-14
5.93412e-06
-5.97401e-15
6.63225e-06
-8.55408e-15
7.33038e-06
4.22427e-15
8.02851e-06
-8.18714e-15
8.72664e-06
7.00016e-15
9.42478e-06
-2.42282e-14
1.01229e-05
-7.76873e-15
1.0821e-05
-2.27636e-14
1.15192e-05
8.35023e-15
1.22173e-05
-7.4007e-15
1.29154e-05
2.82651e-14
1.36136e-05
-4.57108e-14
1.43117e-05
-8.22016e-15
1.50098e-05
-2.82264e-14
1.5708e-05
-2.33922e-15
1.64061e-05
-6.93881e-15
1.71042e-05
2.21523e-14
1.78024e-05
-3.41101e-14
1.85005e-05
-3.74153e-15
1.91986e-05
-3.2343e-14
1.98967e-05
2.05949e-05
-8.92486e-15
4.53785e-06
-2.28886e-15
5.23599e-06
-2.22376e-15
5.93412e-06
6.61654e-15
6.63225e-06
-3.38735e-15
7.33038e-06
-3.90619e-15
8.02851e-06
-6.41899e-15
8.72664e-06
-7.15738e-15
9.42478e-06
6.81136e-15
1.01229e-05
6.98223e-15
1.0821e-05
-9.06359e-15
1.15192e-05
6.76074e-15
1.22173e-05
-2.88876e-14
1.29154e-05
-1.22334e-14
1.36136e-05
4.80588e-15
1.43117e-05
2.50279e-14
1.50098e-05
3.86192e-15
1.5708e-05
3.60805e-15
1.64061e-05
-2.04809e-14
1.71042e-05
-2.17584e-14
1.78024e-05
3.46955e-15
1.85005e-05
2.9041e-14
1.91986e-05
-1.66397e-15
1.98967e-05
2.05949e-05
6.21562e-15
4.53785e-06
-3.87904e-15
5.23599e-06
1.54224e-14
5.93412e-06
-7.06434e-15
6.63225e-06
-2.20956e-15
7.33038e-06
1.42987e-15
8.02851e-06
-5.49279e-15
8.72664e-06
1.32265e-14
9.42478e-06
6.04821e-15
1.01229e-05
-1.74508e-14
1.0821e-05
2.08876e-14
1.15192e-05
-2.14432e-14
1.22173e-05
1.91354e-14
1.29154e-05
-7.31399e-15
1.36136e-05
3.8486e-14
1.43117e-05
-1.29212e-14
1.50098e-05
-1.87882e-15
1.5708e-05
5.71946e-15
1.64061e-05
-7.58558e-15
1.71042e-05
2.76628e-14
1.78024e-05
1.41027e-14
1.85005e-05
-5.31376e-14
1.91986e-05
3.90879e-14
1.98967e-05
2.05949e-05
-1.49856e-15
4.53785e-06
1.08972e-14
5.23599e-06
-6.59907e-15
5.93412e-06
7.26568e-15
6.63225e-06
6.17522e-15
7.33038e-06
2.48851e-15
8.02851e-06
-9.6458e-16
8.72664e-06
-4.36452e-15
9.42478e-06
-8.89907e-15
1.01229e-05
1.3862e-14
1.0821e-05
1.06916e-14
1.15192e-05
6.25182e-15
1.22173e-05
-1.26831e-16
1.29154e-05
-3.43694e-15
1.36136e-05
-1.10429e-14
1.43117e-05
-1.77645e-14
1.50098e-05
1.76802e-14
1.5708e-05
9.95405e-15
1.64061e-05
3.33283e-15
1.71042e-05
-3.29656e-14
1.78024e-05
-1.04159e-14
1.85005e-05
3.0067e-14
1.91986e-05
-5.99888e-14
1.98967e-05
2.05949e-05
5.17018e-15
4.53785e-06
-7.45511e-15
5.23599e-06
-7.56545e-16
5.93412e-06
6.83913e-15
6.63225e-06
-9.97416e-15
7.33038e-06
-1.6642e-15
8.02851e-06
9.21986e-15
8.72664e-06
-1.34589e-14
9.42478e-06
2.32218e-14
1.01229e-05
1.04718e-14
1.0821e-05
-1.72709e-14
1.15192e-05
-3.02618e-15
1.22173e-05
1.13986e-14
1.29154e-05
-1.98139e-14
1.36136e-05
-4.67658e-15
1.43117e-05
5.03044e-14
1.50098e-05
-2.40453e-14
1.5708e-05
-6.6568e-15
1.64061e-05
1.42636e-14
1.71042e-05
1.65322e-15
1.78024e-05
-6.80949e-15
1.85005e-05
1.44461e-14
1.91986e-05
5.07627e-14
1.98967e-05
2.05949e-05
-6.19733e-15
4.53785e-06
2.86422e-17
5.23599e-06
1.15117e-14
5.93412e-06
-2.06261e-14
6.63225e-06
5.36706e-15
7.33038e-06
1.22217e-15
8.02851e-06
-4.65142e-17
8.72664e-06
1.23942e-14
9.42478e-06
-1.32248e-14
1.01229e-05
-1.88947e-14
1.0821e-05
-4.96433e-15
1.15192e-05
-7.15291e-15
1.22173e-05
-1.48859e-14
1.29154e-05
3.53439e-14
1.36136e-05
1.43899e-18
1.43117e-05
-4.31377e-14
1.50098e-05
1.35653e-14
1.5708e-05
-2.82542e-14
1.64061e-05
2.45318e-15
1.71042e-05
-1.02358e-14
1.78024e-05
2.38052e-14
1.85005e-05
1.38753e-14
1.91986e-05
-4.55611e-14
1.98967e-05
2.05949e-05
-1.90658e-15
4.53785e-06
1.1305e-15
5.23599e-06
-2.16621e-14
5.93412e-06
9.62395e-15
6.63225e-06
1.51376e-14
7.33038e-06
-1.40642e-14
8.02851e-06
8.09359e-15
8.72664e-06
-2.69591e-14
9.42478e-06
-1.9656e-15
1.01229e-05
2.97167e-14
1.0821e-05
-1.17455e-14
1.15192e-05
1.98683e-14
1.22173e-05
-2.74441e-14
1.29154e-05
-2.06134e-14
1.36136e-05
1.60415e-14
1.43117e-05
-4.61265e-15
1.50098e-05
4.69418e-15
1.5708e-05
4.79716e-14
1.64061e-05
-1.3741e-14
1.71042e-05
3.23744e-14
1.78024e-05
-3.51854e-14
1.85005e-05
-2.49021e-14
1.91986e-05
7.19201e-14
1.98967e-05
2.05949e-05
1.90678e-15
4.53785e-06
-1.13037e-15
5.23599e-06
2.16618e-14
5.93412e-06
-9.62358e-15
6.63225e-06
-1.51373e-14
7.33038e-06
1.4066e-14
8.02851e-06
-8.09269e-15
8.72664e-06
2.69603e-14
9.42478e-06
1.96628e-15
1.01229e-05
-2.97163e-14
1.0821e-05
1.17469e-14
1.15192e-05
-1.98662e-14
1.22173e-05
2.74482e-14
1.29154e-05
2.06171e-14
1.36136e-05
-1.60402e-14
1.43117e-05
4.61346e-15
1.50098e-05
-4.69253e-15
1.5708e-05
-4.79649e-14
1.64061e-05
1.37414e-14
1.71042e-05
-3.23708e-14
1.78024e-05
3.51874e-14
1.85005e-05
2.49088e-14
1.91986e-05
-7.19127e-14
1.98967e-05
2.05949e-05
6.19722e-15
4.53785e-06
-2.82487e-17
5.23599e-06
-1.15115e-14
5.93412e-06
2.06262e-14
6.63225e-06
-5.36691e-15
7.33038e-06
-1.22105e-15
8.02851e-06
4.73035e-17
8.72664e-06
-1.23941e-14
9.42478e-06
1.32264e-14
1.01229e-05
1.88945e-14
1.0821e-05
4.96535e-15
1.15192e-05
7.15622e-15
1.22173e-05
1.4889e-14
1.29154e-05
-3.53384e-14
1.36136e-05
2.35086e-18
1.43117e-05
4.31372e-14
1.50098e-05
-1.35602e-14
1.5708e-05
2.82562e-14
1.64061e-05
-2.45463e-15
1.71042e-05
1.02395e-14
1.78024e-05
-2.38018e-14
1.85005e-05
-1.38721e-14
1.91986e-05
4.55632e-14
1.98967e-05
2.05949e-05
-5.17015e-15
4.53785e-06
7.45575e-15
5.23599e-06
7.57076e-16
5.93412e-06
-6.83984e-15
6.63225e-06
9.97453e-15
7.33038e-06
1.6647e-15
8.02851e-06
-9.21799e-15
8.72664e-06
1.34596e-14
9.42478e-06
-2.32208e-14
1.01229e-05
-1.04722e-14
1.0821e-05
1.72723e-14
1.15192e-05
3.0283e-15
1.22173e-05
-1.1396e-14
1.29154e-05
1.98171e-14
1.36136e-05
4.68097e-15
1.43117e-05
-5.03077e-14
1.50098e-05
2.40462e-14
1.5708e-05