/*--------------------------------*- C++ -*----------------------------------*\
  =========                 |
  \\      /  F ield         | OpenFOAM: The Open Source CFD Toolbox
   \\    /   O peration     | Website:  https://openfoam.org
    \\  /    A nd           | Version:  11
     \\/     M anipulation  |
\*---------------------------------------------------------------------------*/
FoamFile
{
    format      ascii;
    class       volScalarField;
    location    "1.94";
    object      nut;
}
// * * * * * * * * * * * * * * * * * * * * * * * * * * * * * * * * * * * * * //

dimensions      [0 2 -1 0 0 0 0];

internalField   nonuniform List<scalar> 
2880
(
1.30849e-06
1.19286e-05
4.78562e-05
0.000108409
0.000175792
4.94634e-05
3.68247e-05
7.03479e-05
0.000153806
0.000272105
0.000385598
0.000409
5.24824e-05
0.000157221
0.000286232
0.00045039
0.000617934
0.000746978
5.84763e-05
0.000242071
0.000412566
0.000615166
0.000824676
0.00100527
6.30317e-05
0.000319665
0.000527948
0.000763289
0.000993589
0.00119684
6.65707e-05
0.000386923
0.000631048
0.000892801
0.0011294
0.00133927
6.93321e-05
0.00044271
0.000720822
0.0010023
0.00123914
0.00144707
7.14644e-05
0.000487239
0.000796766
0.00109285
0.0013279
0.00153004
7.30634e-05
0.000520916
0.000858973
0.00116593
0.00139959
0.00159439
7.41905e-05
0.000544383
0.000907598
0.00122297
0.00145717
0.00164522
7.48821e-05
0.000558124
0.000942914
0.00126509
0.0015026
0.00168647
7.51629e-05
0.000562198
0.000965212
0.00129321
0.00153813
0.00171754
7.5136e-05
0.00055603
0.000974475
0.00130926
0.00156094
0.00174042
7.48439e-05
0.000539769
0.000970497
0.00131229
0.00157144
0.00175512
7.4238e-05
0.000515285
0.000953577
0.00130211
0.00156848
0.00176059
7.32572e-05
0.000484114
0.00092363
0.00127743
0.00155105
0.00175404
7.18284e-05
0.000447232
0.000880381
0.00123561
0.00151593
0.00173238
6.98592e-05
0.000405936
0.000823417
0.00117336
0.00145818
0.00168823
6.72263e-05
0.000361295
0.000751135
0.00108591
0.00137177
0.00161143
6.37579e-05
0.000312269
0.000659674
0.00096675
0.00124681
0.00148617
5.92183e-05
0.000256734
0.000542744
0.000807693
0.00106923
0.00128475
5.32713e-05
0.000188284
0.000391782
0.000599317
0.000820705
0.000965985
3.88168e-05
9.72992e-05
0.000206181
0.000338922
0.000496979
0.000509748
1.28769e-06
8.56643e-06
3.31032e-05
8.17743e-05
0.000177105
5.64389e-05
0.000945078
0.00138416
0.0014953
0.00170399
0.00205829
0.00252184
0.00300513
0.00345201
0.00380602
0.00408011
0.00428663
0.00442386
0.00448061
0.00444792
0.00433137
0.00415672
0.00396302
0.00378633
0.00364657
0.0035464
0.0034785
0.00343338
0.00340349
0.00338358
0.00118277
0.00150113
0.0015855
0.00177944
0.00212633
0.00258301
0.00305916
0.00349642
0.00383735
0.00410257
0.00430229
0.00443211
0.00448008
0.00443777
0.00431103
0.00412753
0.00392879
0.00375199
0.00361613
0.0035219
0.00346039
0.00342124
0.00339654
0.00338095
0.00135065
0.00161111
0.00168879
0.00186811
0.00219994
0.0026465
0.00311475
0.0035434
0.00387162
0.00412445
0.00431644
0.00443965
0.00448192
0.00443295
0.00429877
0.00410841
0.0039053
0.00372774
0.00359421
0.00350401
0.00344701
0.00341222
0.00339142
0.00337911
0.00146666
0.00170141
0.00178352
0.00195342
0.00227307
0.00270948
0.00317057
0.00359282
0.0039111
0.00415367
0.00433422
0.00444995
0.004487
0.00443442
0.00429566
0.00410036
0.00389323
0.00371387
0.00358074
0.00349242
0.003438
0.00340596
0.00338783
0.00337788
0.00155468
0.00177372
0.00186339
0.00202819
0.00234123
0.00276883
0.00322173
0.00363416
0.00394255
0.00417957
0.00435653
0.00446853
0.0045015
0.00444386
0.00430204
0.00410358
0.00389307
0.00371066
0.00357584
0.00348716
0.00343334
0.00340205
0.00338553
0.00337711
0.00162611
0.00182828
0.00192725
0.00209269
0.00240115
0.00281746
0.00325899
0.00366017
0.00396177
0.00419521
0.00437031
0.00448185
0.00451607
0.00446104
0.00431999
0.00411984
0.00390537
0.00371832
0.00357944
0.00348805
0.00343216
0.00340085
0.0033847
0.00337682
0.0016858
0.00186793
0.00197712
0.00214718
0.00244676
0.00285021
0.00328247
0.0036749
0.00397327
0.00420527
0.00438019
0.00449328
0.00453124
0.00448159
0.00434548
0.00414732
0.00393055
0.00373794
0.0035927
0.00349594
0.00343617
0.00340254
0.00338523
0.00337688
0.0017355
0.00189789
0.00201711
0.00218575
0.00247588
0.00286929
0.00329513
0.00368209
0.00397968
0.00421248
0.00438936
0.00450615
0.00455018
0.00450863
0.0043805
0.0041869
0.00396889
0.0037699
0.00361605
0.00351128
0.00344597
0.00340754
0.00338737
0.00337738
0.0017764
0.00192024
0.00204517
0.00221142
0.00249272
0.00287661
0.00329695
0.00368106
0.00398032
0.0042162
0.00439714
0.00451967
0.00457196
0.0045411
0.00442401
0.00423789
0.00402044
0.00381492
0.00365066
0.00353528
0.00346138
0.00341647
0.0033914
0.00337847
0.00181056
0.00193661
0.00206408
0.002226
0.00249736
0.00287154
0.00328712
0.00367114
0.00397451
0.00421573
0.00440284
0.00453307
0.00459566
0.00457785
0.00447472
0.0042993
0.00408491
0.00387362
0.00369765
0.00356906
0.00348348
0.00342998
0.00339799
0.00338037
0.00183865
0.00194827
0.00207479
0.00223021
0.00249014
0.00285393
0.00326509
0.00365162
0.00396146
0.0042103
0.00440564
0.00454551
0.00462025
0.00461759
0.00453109
0.00436966
0.00416153
0.00394628
0.00375825
0.0036143
0.00351408
0.00344854
0.0034077
0.00338339
0.00186182
0.00195654
0.00207769
0.00222469
0.00247158
0.00282388
0.00323049
0.00362169
0.00394024
0.00419891
0.00440459
0.00455595
0.00464454
0.00465881
0.00459125
0.00444699
0.0042488
0.00403249
0.00383325
0.00367252
0.00355482
0.00347399
0.00342113
0.00338786
0.00188065
0.00196333
0.00207174
0.00221004
0.00244246
0.0027818
0.00318313
0.00358046
0.00390973
0.0041804
0.00439849
0.00456318
0.00466717
0.00469985
0.0046531
0.00452883
0.00434444
0.00413094
0.00392274
0.00374495
0.00360739
0.00350788
0.0034395
0.00339422
0.00189508
0.00196863
0.00205972
0.00218787
0.00240403
0.00272851
0.00312312
0.00352689
0.00386865
0.00415342
0.00438595
0.00456576
0.00468662
0.00473892
0.00471439
0.00461245
0.00444552
0.0042393
0.00402575
0.00383217
0.00367334
0.00355191
0.00346397
0.00340289
0.0019043
0.00197204
0.0020443
0.00216005
0.0023579
0.00266522
0.00305114
0.00345942
0.00381561
0.00411649
0.00436543
0.0045621
0.00470121
0.00477417
0.00477288
0.00469497
0.00454867
0.00435429
0.00414006
0.00393354
0.00375345
0.00360747
0.00349579
0.00341436
0.0019065
0.00197283
0.002027
0.00212819
0.00230576
0.00259343
0.00296824
0.00337754
0.0037496
0.00406821
0.0043353
0.00455047
0.00470915
0.00480368
0.00482632
0.00477358
0.00465033
0.00447193
0.00426214
0.00404696
0.00384733
0.0036754
0.00353607
0.00342915
0.00189845
0.00196943
0.00200836
0.00209338
0.00224926
0.00251472
0.00287531
0.00328277
0.00367018
0.00400732
0.00429392
0.00452906
0.00470857
0.00482551
0.0048726
0.00484563
0.00474701
0.00458788
0.00438738
0.00416865
0.00395287
0.00375531
0.00358543
0.00344769
0.00187714
0.00195902
0.0019878
0.00205595
0.00218976
0.00243096
0.00277399
0.00317625
0.00357709
0.00393272
0.00423971
0.00449605
0.00469753
0.0048377
0.00490964
0.0049087
0.00483551
0.00469783
0.00451061
0.0042934
0.00406602
0.00384505
0.00364342
0.0034701
0.0018375
0.00193477
0.00196335
0.002015
0.00212822
0.00234406
0.00266633
0.00305951
0.00347038
0.00384352
0.00417123
0.00444965
0.00467411
0.00483828
0.00493541
0.00496055
0.00491298
0.00479789
0.00462665
0.00441523
0.00418106
0.00394042
0.00370795
0.00349582
0.00176811
0.00188863
0.00193099
0.00197069
0.00206544
0.0022559
0.00255476
0.0029348
0.00335012
0.00373911
0.00408726
0.00438824
0.00463645
0.00482529
0.00494794
0.00499912
0.00497702
0.00488481
0.00473098
0.00452826
0.00429142
0.00403536
0.00377485
0.00352317
0.00164648
0.00181193
0.00188673
0.0019222
0.00200168
0.00216805
0.00244179
0.00280502
0.003217
0.0036196
0.00398714
0.00431057
0.00458287
0.00479686
0.00494535
0.00502253
0.00502561
0.00495608
0.00482005
0.00462752
0.00439073
0.00412289
0.003838
0.00354891
0.0014341
0.00169286
0.00182463
0.00186701
0.0019362
0.00208143
0.00232951
0.00267231
0.00307533
0.00348665
0.00387109
0.0042159
0.00451209
0.0047514
0.00492592
0.0050291
0.00505711
0.00500989
0.00489148
0.00470951
0.00447395
0.00419641
0.00389014
0.00356793
0.0010438
0.00150381
0.00173282
0.0017996
0.00186652
0.00199589
0.00221956
0.00253936
0.00292852
0.00334254
0.00374008
0.0041042
0.00442332
0.00468764
0.00488818
0.0050174
0.00507023
0.00504505
0.00494394
0.0047723
0.00453797
0.00425099
0.00392428
0.00357359
0.000473218
0.00113442
0.00157263
0.00170672
0.00178871
0.00191024
0.00211291
0.00240867
0.00277984
0.00319005
0.00359585
0.00397614
0.00431639
0.00460485
0.00483111
0.00498633
0.00506405
0.00506092
0.00497702
0.00481547
0.00458183
0.00428427
0.00393539
0.00355866
2.14311e-06
6.25546e-06
1.33011e-05
2.17728e-05
3.08298e-05
6.76716e-05
5.10796e-05
6.72337e-05
9.58894e-05
0.000121163
0.000131543
0.000159665
5.85805e-05
0.000107647
0.000164813
0.000208819
0.000217592
0.000230508
6.30628e-05
0.000135922
0.000226196
0.000282554
0.00029121
0.000292092
6.61481e-05
0.000168265
0.00028395
0.000348623
0.000357315
0.000347993
6.85004e-05
0.000203561
0.000339916
0.000409433
0.000418268
0.000400795
7.04166e-05
0.000240349
0.000392581
0.000465303
0.000474859
0.000452537
7.20237e-05
0.00027711
0.00044051
0.000516197
0.000527175
0.000503497
7.33867e-05
0.000312573
0.000482766
0.000561608
0.000575961
0.000553273
7.45452e-05
0.000344822
0.000518788
0.000601802
0.000622032
0.000601833
7.55304e-05
0.000371734
0.000548348
0.00063717
0.000665808
0.000650681
7.6371e-05
0.000391191
0.000571398
0.000668012
0.00070689
0.00070143
7.6975e-05
0.000402876
0.00058794
0.000693902
0.000744972
0.00075393
7.71236e-05
0.000408458
0.000597885
0.000714261
0.000779722
0.000807319
7.69531e-05
0.000407903
0.000600387
0.000727948
0.00080959
0.000858997
7.62778e-05
0.000400563
0.000594077
0.000733129
0.000831631
0.000904135
7.50839e-05
0.000385117
0.000577086
0.000727318
0.000841889
0.000937138
7.32859e-05
0.0003607
0.000547836
0.000706271
0.000835303
0.000952221
7.07575e-05
0.000325629
0.000505192
0.00066827
0.000804575
0.000939389
6.7361e-05
0.000278446
0.000446393
0.000608442
0.000745816
0.000894698
6.29561e-05
0.000219127
0.000369343
0.000521848
0.000647346
0.000796447
5.69099e-05
0.000147803
0.000272855
0.000404681
0.000500855
0.000620685
4.44034e-05
7.01754e-05
0.000157207
0.000257085
0.000319686
0.000340715
1.85705e-06
1.49957e-05
5.20582e-05
0.000101474
0.000156278
0.000208038
0.000367598
0.000931838
0.00139758
0.00160046
0.0017064
0.00182375
0.00201009
0.00228226
0.00263231
0.00303228
0.00344072
0.00383311
0.00419186
0.00450295
0.00475425
0.00493537
0.0050382
0.00505751
0.00499119
0.00483993
0.00460662
0.0042968
0.00392167
0.00351677
0.000324532
0.000822162
0.00125205
0.00151184
0.00162813
0.00174183
0.00191118
0.00216132
0.00248828
0.00287233
0.0032775
0.00367716
0.00405099
0.00438261
0.00465793
0.00486477
0.00499315
0.00503576
0.00498809
0.0048481
0.00461552
0.00429213
0.00388543
0.00344419
0.000296629
0.000752778
0.00111688
0.00142319
0.00155312
0.00166543
0.00181912
0.00204565
0.00234885
0.00271282
0.00310909
0.0035108
0.00389572
0.00424528
0.00454337
0.00477586
0.00493072
0.00499833
0.00497153
0.00484514
0.00461512
0.00427808
0.00383428
0.00334143
0.000287787
0.000708341
0.00102282
0.00133307
0.00148066
0.00159438
0.00173473
0.00193791
0.00221484
0.00255582
0.00293817
0.00333669
0.00372834
0.00409294
0.00441253
0.00467108
0.00485444
0.0049506
0.00494947
0.00484231
0.00462038
0.00427314
0.00378827
0.0032184
0.000296812
0.000671948
0.000944256
0.00125739
0.00141713
0.00152923
0.00165795
0.00183895
0.00208854
0.00240363
0.00276738
0.00315744
0.0035512
0.00392766
0.00426756
0.00455335
0.0047692
0.00490107
0.00493638
0.00486306
0.00466766
0.00433225
0.00382939
0.00315456
0.00032365
0.000642676
0.000884965
0.00117725
0.00136062
0.00146983
0.00158823
0.0017488
0.00197112
0.00225815
0.00259907
0.00297543
0.00336629
0.00375089
0.0041096
0.00442431
0.00467872
0.00485859
0.0049515
0.00494647
0.00483531
0.00462392
0.00436888
0.00419903
0.000365926
0.000623152
0.000845274
0.00110093
0.00130024
0.00141321
0.00152429
0.00166686
0.00186296
0.0021207
0.00243519
0.00279268
0.0031751
0.00356314
0.00393801
0.00428246
0.00458167
0.00482402
0.00500153
0.00511001
0.00515014
0.00513288
0.00508906
0.00506302
0.00041146
0.000613178
0.000813944
0.0010329
0.0012432
0.00135899
0.00146498
0.00159223
0.00176392
0.00199212
0.00227737
0.00261108
0.00297903
0.0033646
0.00375112
0.00412348
0.00446936
0.00478002
0.0050501
0.00527642
0.00545669
0.00558996
0.00567963
0.0057319
0.000461816
0.00061303
0.000789326
0.000972797
0.00119242
0.0013077
0.00140944
0.00152392
0.00167348
0.0018728
0.002127
0.00243258
0.00277989
0.0031561
0.00354781
0.00394304
0.00433229
0.00470837
0.00506469
0.00539259
0.00567992
0.00591295
0.0060738
0.0061758
0.000519808
0.000623306
0.000770835
0.00092348
0.00114065
0.00126156
0.00135739
0.00146103
0.00159094
0.00176285
0.00198526
0.00225929
0.00258012
0.00293942
0.00332797
0.00373759
0.00416164
0.00459341
0.00502287
0.00543355
0.00580317
0.0061006
0.00631717
0.00644608
0.000581355
0.00065043
0.000759882
0.000888199
0.00108596
0.00121398
0.00130774
0.00140254
0.00151556
0.00166219
0.00185319
0.00209347
0.00238277
0.0027175
0.00309308
0.00350554
0.00395125
0.00442391
0.00490996
0.00538593
0.00581825
0.00616863
0.00642823
0.00657868
0.00065109
0.000681554
0.000758286
0.000868031
0.0010391
0.00116642
0.00125945
0.00134744
0.00144638
0.00157046
0.00173156
0.00193733
0.00219133
0.00249445
0.00284668
0.00324845
0.00369954
0.00419493
0.00471918
0.00524385
0.00572233
0.00612198
0.00641606
0.00658853
0.000725055
0.000724937
0.000767293
0.00086205
0.00100296
0.00112246
0.0012132
0.0012954
0.00138258
0.00148711
0.00162077
0.00179274
0.0020094
0.00227525
0.00259438
0.00297141
0.00340998
0.00390784
0.00445015
0.00500622
0.00552037
0.00596103
0.00628856
0.00648053
0.00080218
0.000792608
0.000794895
0.00086785
0.000982082
0.00108601
0.00117065
0.0012467
0.00132363
0.00141155
0.00152085
0.00166111
0.00184028
0.00206533
0.00234345
0.00268279
0.00309102
0.00357012
0.00410881
0.00467761
0.00521734
0.0056901
0.0060498
0.00626032
0.000879464
0.000871446
0.000850093
0.000886037
0.000970988
0.00105696
0.00113314
0.00120197
0.00126951
0.00134318
0.00143146
0.00154317
0.0016866
0.0018699
0.00210199
0.00239345
0.00275542
0.00319497
0.00370702
0.00426718
0.00482051
0.00531427
0.00570431
0.00593272
0.000951348
0.000955665
0.000925936
0.000927595
0.00097428
0.00104024
0.00110364
0.00116307
0.00122097
0.00128194
0.00135223
0.00143908
0.00155008
0.00169325
0.0018779
0.00211545
0.00241918
0.00280084
0.003263
0.00378988
0.00434093
0.00484074
0.00525633
0.00550302
0.00101232
0.00103594
0.00101239
0.000995268
0.00100791
0.0010441
0.00108808
0.00113394
0.00118036
0.00122891
0.00128335
0.00134887
0.00143154
0.00153835
0.00167768
0.00186025
0.00209955
0.00241014
0.0028019
0.00327062
0.00378946
0.00428853
0.00471711
0.00498682
0.00105638
0.00110122
0.00109468
0.00107514
0.00106456
0.00107236
0.00109274
0.00112039
0.00115208
0.00118691
0.00122623
0.00127301
0.00133142
0.00140674
0.00150564
0.0016369
0.0018123
0.00204642
0.00235371
0.00274106
0.00319719
0.00368122
0.004102
0.00439344
0.00107623
0.00114341
0.00115912
0.00115033
0.00113085
0.00111948
0.00111839
0.00112625
0.00114063
0.00115985
0.00118361
0.00121304
0.00125043
0.00129917
0.00136387
0.00145083
0.00156887
0.00173001
0.00194892
0.00223925
0.00260572
0.00302655
0.00343858
0.00373167
0.00106962
0.00115805
0.00119698
0.00120418
0.00118907
0.00117116
0.00115685
0.00114859
0.00114648
0.00114973
0.00115778
0.00117074
0.00118953
0.00121593
0.00125267
0.00130368
0.00137462
0.00147367
0.00161221
0.00180416
0.00206211
0.00238763
0.00275094
0.00304311
0.00102764
0.00114456
0.00120245
0.00122662
0.00122521
0.00121151
0.00119436
0.00117777
0.00116398
0.00115392
0.00114785
0.00114591
0.00114845
0.00115624
0.00117063
0.00119372
0.00122864
0.00128006
0.00135491
0.0014629
0.0016153
0.00182716
0.00209521
0.00236739
0.000942451
0.00110414
0.0011767
0.00121462
0.00123108
0.00122957
0.00121813
0.00120181
0.00118374
0.00116596
0.0011498
0.00113607
0.00112533
0.00111809
0.00111501
0.00111708
0.00112579
0.00114341
0.0011734
0.00122089
0.00129261
0.00139747
0.00155037
0.00175968
0.000811048
0.00104154
0.00112897
0.00117833
0.00120829
0.00122216
0.00122149
0.00121182
0.00119652
0.00117788
0.00115774
0.00113746
0.00111803
0.00110015
0.00108441
0.00107139
0.0010618
0.00105664
0.00105736
0.00106614
0.001086
0.00112094
0.00117295
0.00128719
0.00066731
0.000979011
0.00107854
0.00113337
0.00117028
0.00119289
0.00120668
0.00120688
0.00119869
0.00118463
0.00116647
0.0011459
0.00112403
0.00110169
0.00107955
0.00105813
0.0010379
0.00101933
0.00100296
0.000989607
0.000979789
0.00097698
0.000973711
0.00100423
6.507e-07
2.8609e-06
1.01951e-05
2.58951e-05
5.79578e-05
0.000131155
2.52314e-05
5.10062e-05
9.85663e-05
0.00016308
0.000253627
0.000378996
0.000150139
0.000127559
0.000216803
0.000323668
0.000451346
0.000602603
0.000168868
0.000199147
0.000324235
0.000462116
0.000611468
0.000774048
0.000183643
0.000259011
0.000414406
0.000573189
0.000733023
0.000895804
0.000193952
0.0003049
0.000486947
0.00065882
0.000821238
0.000976177
4.70369e-05
0.000335191
0.000543112
0.000722367
0.000882495
0.00102544
4.74694e-05
0.000356808
0.000584881
0.000766966
0.000921594
0.00105152
4.78803e-05
0.000371931
0.000614023
0.000795374
0.000941352
0.0010571
4.82301e-05
0.000381712
0.000632155
0.000809892
0.000945022
0.00104595
4.84736e-05
0.00038659
0.000640779
0.00081263
0.000935398
0.00102091
4.85728e-05
0.00038684
0.000641035
0.000805318
0.000914751
0.000984354
4.85006e-05
0.000382631
0.000633846
0.000789416
0.000884984
0.000938281
4.82565e-05
0.000373882
0.000619942
0.000766131
0.000847749
0.000884388
4.79067e-05
0.00036045
0.000599884
0.000736415
0.000804403
0.000824147
4.7507e-05
0.000343466
0.00057401
0.000700918
0.000756173
0.000758889
4.7175e-05
0.000325073
0.000542218
0.000659846
0.000704009
0.000689954
4.70081e-05
0.000307916
0.000503712
0.000612759
0.000648451
0.000618638
0.000196123
0.00029102
0.000456501
0.000558104
0.000589224
0.000546067
0.000188802
0.000259174
0.000397792
0.000492521
0.000524173
0.000472335
0.000177069
0.000211434
0.000323851
0.000410789
0.000447325
0.000396405
0.000161132
0.000145826
0.000228822
0.00030422
0.000348275
0.000315426
2.82313e-05
6.25905e-05
0.00011097
0.000164013
0.000209605
0.000218375
8.10157e-07
3.27894e-06
9.92685e-06
2.38433e-05
4.3942e-05
8.11042e-05
0.000691098
0.000961599
0.00105197
0.00110348
0.0011412
0.00116896
0.00118367
0.00119502
0.00119498
0.00118872
0.00117734
0.00116185
0.00114392
0.00112419
0.00110336
0.00108214
0.00106087
0.00103982
0.00101908
0.000999113
0.000979143
0.000962161
0.000941773
0.000931082
0.000792195
0.000995314
0.00107214
0.001115
0.00114641
0.00117073
0.00118864
0.00119785
0.00120528
0.00120531
0.00120142
0.00119504
0.00118702
0.00117606
0.00116344
0.00115141
0.00114036
0.00113022
0.00112097
0.00111274
0.00110491
0.00109875
0.00109164
0.00108904
0.000908634
0.00106959
0.00114053
0.00117588
0.00120033
0.00121923
0.00123368
0.00124417
0.00124982
0.00125553
0.00125832
0.00126073
0.00126373
0.00127013
0.00127724
0.00128316
0.00129025
0.00130014
0.00131414
0.00133135
0.00135292
0.00137842
0.00140619
0.00143466
0.00101101
0.00114928
0.00122479
0.00126954
0.00129916
0.00131716
0.0013277
0.00133447
0.00133982
0.00134631
0.00135237
0.00136134
0.0013726
0.00138665
0.00140813
0.00143591
0.00146932
0.00150587
0.00154532
0.00158665
0.00162863
0.00166986
0.00170689
0.00173424
0.00108604
0.00121053
0.00129364
0.0013539
0.00139803
0.00142906
0.00144979
0.00146345
0.0014725
0.00147888
0.00148504
0.00149352
0.00150576
0.00152251
0.00154394
0.00157142
0.00160391
0.00164065
0.00168093
0.00172326
0.00176581
0.00180652
0.00184094
0.00186459
0.00113348
0.00124888
0.00133584
0.00140538
0.00146135
0.00150542
0.00153977
0.00156565
0.00158538
0.00160164
0.00161693
0.00163337
0.00165228
0.00167429
0.00169942
0.00172685
0.00175775
0.00179235
0.00182983
0.00186928
0.00190809
0.00194149
0.00196978
0.00198918
0.00116307
0.00127214
0.00136298
0.00144316
0.00151248
0.00157016
0.00161626
0.00165256
0.00168133
0.00170478
0.0017251
0.00174427
0.00176394
0.00178532
0.00180927
0.00183634
0.00186548
0.00189405
0.00191913
0.00193818
0.00195171
0.00195996
0.00196366
0.00196492
0.00117148
0.00127235
0.00136328
0.00144913
0.00152764
0.00159723
0.00165707
0.00170786
0.00175091
0.00178756
0.00181899
0.00184629
0.00187029
0.00189158
0.00191051
0.00192693
0.00194029
0.00195018
0.00195632
0.00195845
0.00195572
0.00194888
0.00194059
0.00193455
0.00116071
0.00125199
0.00134017
0.00142795
0.0015116
0.00158847
0.00165728
0.00171805
0.00177144
0.00181809
0.00185852
0.00189311
0.00192204
0.00194544
0.00196375
0.00197643
0.00198276
0.00198208
0.00197393
0.00195845
0.00193686
0.00191208
0.00188978
0.00187512
0.00113339
0.00121404
0.00129792
0.00138543
0.00147125
0.00155166
0.00162508
0.00169114
0.00175035
0.00180239
0.00184769
0.00188601
0.001917
0.0019416
0.00195963
0.00197139
0.00197413
0.00196697
0.00194874
0.00192176
0.00188781
0.00184833
0.001808
0.00177947
0.00109204
0.00116145
0.00124054
0.00132679
0.00141298
0.00149445
0.00156897
0.00163622
0.00169698
0.00175021
0.00179538
0.00183214
0.00185921
0.00187657
0.0018853
0.00188582
0.00187608
0.00185856
0.0018372
0.00181099
0.00178088
0.00175245
0.00172827
0.00171955
0.00103888
0.00109673
0.00117104
0.0012556
0.00134083
0.00142152
0.00149355
0.0015563
0.00160377
0.00164345
0.00167562
0.00170259
0.00172714
0.00174956
0.00176608
0.00177587
0.00177956
0.00177606
0.00176321
0.001742
0.00171323
0.00167796
0.00163547
0.00160101
0.000975738
0.00102165
0.00109115
0.00117347
0.00125572
0.00132652
0.00138312
0.0014342
0.00148781
0.00153742
0.00158047
0.00161577
0.00164223
0.00165808
0.00166328
0.0016596
0.00164707
0.00162611
0.00159796
0.00156323
0.00152198
0.00147757
0.00142396
0.00138455
0.00090404
0.000937284
0.00100148
0.00107767
0.0011457
0.00121235
0.00128646
0.00135188
0.00139983
0.00143333
0.0014566
0.00146845
0.00147283
0.00146995
0.00145996
0.00144305
0.00141964
0.00139032
0.00135559
0.00131698
0.00127539
0.00123582
0.001188
0.00117336
0.00082486
0.000844399
0.000899828
0.000966473
0.00104177
0.00112393
0.00118555
0.00122717
0.00125699
0.00127338
0.00128097
0.00128065
0.00127324
0.0012594
0.00124
0.00121574
0.00118854
0.00115991
0.00113075
0.00111075
0.00110052
0.0010955
0.00109844
0.00115825
0.000738688
0.000744759
0.000791043
0.000857857
0.000940334
0.00100441
0.00105654
0.00108791
0.00110594
0.00111349
0.00111266
0.00110524
0.00109264
0.00107653
0.00105962
0.00104521
0.00104283
0.00105003
0.00106522
0.00107924
0.00109878
0.00115091
0.0012429
0.00140274
0.000646822
0.000640852
0.000683798
0.000752015
0.000821357
0.000891768
0.000934494
0.000961599
0.000976536
0.000982692
0.000983199
0.00098093
0.000978325
0.000982319
0.000998731
0.00102426
0.00104307
0.00106602
0.00110978
0.00117862
0.00127754
0.00141654
0.00160843
0.00181013
0.000549919
0.000542514
0.000578648
0.00064194
0.000734502
0.000798315
0.000842199
0.000872144
0.000892536
0.000907902
0.000922547
0.000940512
0.00096672
0.00100079
0.00103361
0.0010755
0.00113183
0.00120715
0.0013066
0.00143623
0.00160491
0.00182299
0.00207261
0.00226934
0.000448804
0.000456369
0.000489661
0.00057979
0.00067731
0.000744487
0.000794337
0.000832069
0.00086329
0.000893146
0.000925939
0.00096492
0.00101307
0.001065
0.00112664
0.00120161
0.00129315
0.00140575
0.0015463
0.00172572
0.00195449
0.00221436
0.00248168
0.00271605
0.000351184
0.000391095
0.000440057
0.0005665
0.000663217
0.000734208
0.00078843
0.000832755
0.000873139
0.000914197
0.000959028
0.00100946
0.00106562
0.00113313
0.0012156
0.00131726
0.00144436
0.00160612
0.00181499
0.00208324
0.00239495
0.00271252
0.00301209
0.00329121
0.000271682
0.000350895
0.00043505
0.000584169
0.000679865
0.000751524
0.000808174
0.000857983
0.000907182
0.000960246
0.00102053
0.00109148
0.00117814
0.00128486
0.0014168
0.00157977
0.00178043
0.00202576
0.00231992
0.0026561
0.00297818
0.00328933
0.0035759
0.00380881
0.000221364
0.000322916
0.000466012
0.000626468
0.000717161
0.00078593
0.000844571
0.000901896
0.000963958
0.00103535
0.00112053
0.00122411
0.00135017
0.0015019
0.00168108
0.00188862
0.00212621
0.00239738
0.0027055
0.00302676
0.00334033
0.00364329
0.00393292
0.00412296
0.000206671
0.00034322
0.000548385
0.000675795
0.000759483
0.000827089
0.000891274
0.00096018
0.00103927
0.00113305
0.00124534
0.00137876
0.00153444
0.00171242
0.00191335
0.0021401
0.00239792
0.00269251
0.00302497
0.00335777
0.00368223
0.00398521
0.00426059
0.00441678
0.000208499
0.000398568
0.000624855
0.000730629
0.000806881
0.000874732
0.000947135
0.00103066
0.0011298
0.00124828
0.00138885
0.00155313
0.00174183
0.00195528
0.00219374
0.00245778
0.00274828
0.00306491
0.00340257
0.00372231
0.00402177
0.00430329
0.00453443
0.00465367
1.05731e-06
1.05253e-05
4.43415e-05
0.000109474
0.000194948
5.43252e-05
3.01409e-05
7.62619e-05
0.000177123
0.000300602
0.000368492
0.000401361
4.76368e-05
0.000162549
0.000306279
0.000459458
0.000575166
0.000656972
5.26e-05
0.000237087
0.000405068
0.00056429
0.000681397
0.000754332
5.61229e-05
0.000295697
0.00047436
0.000623733
0.000724741
0.000761498
5.86765e-05
0.000338586
0.000518941
0.000651531
0.000726802
0.000744563
6.05143e-05
0.00036737
0.000544003
0.000656102
0.000708431
0.000719148
6.17877e-05
0.000384438
0.000554277
0.000646425
0.000682104
0.000695283
6.25923e-05
0.000392227
0.000554138
0.000629261
0.000654383
0.000675401
6.29887e-05
0.000392704
0.000546618
0.000608845
0.000627673
0.000659929
6.30131e-05
0.000387164
0.000533765
0.000586699
0.000602848
0.000647545
6.26895e-05
0.000376581
0.000516876
0.000563446
0.000580228
0.000636323
6.20509e-05
0.000361456
0.000496961
0.000539441
0.000557705
0.000625001
6.11815e-05
0.000341968
0.000474661
0.000514489
0.000534653
0.00061246
6.00549e-05
0.0003188
0.000450377
0.000488101
0.000510209
0.000595838
5.86457e-05
0.000292317
0.000424371
0.000459612
0.000483597
0.000574557
5.69218e-05
0.000263189
0.000396399
0.00042816
0.000453966
0.00054654
5.48206e-05
0.000232317
0.000365875
0.000392628
0.000420547
0.000509998
5.21591e-05
0.0002011
0.000332345
0.000351546
0.000381868
0.000463487
4.83183e-05
0.000172327
0.000294441
0.000307016
0.000332216
0.00040565
0.000189744
0.000153236
0.000248446
0.000262943
0.000270222
0.000339625
0.000173564
0.000117022
0.000189549
0.000209835
0.000191944
0.000253067
3.08598e-05
5.38465e-05
0.000101922
0.000132265
0.000113471
0.000131183
9.85219e-07
2.91152e-06
8.96361e-06
2.21405e-05
5.31287e-05
4.79465e-05
0.000263247
0.000567814
0.000717605
0.000793736
0.000855545
0.000926097
0.00101109
0.00111351
0.00123674
0.00138381
0.00155648
0.0017548
0.00197715
0.00222081
0.00248301
0.00276192
0.00305675
0.00336618
0.00368486
0.0039826
0.00425057
0.0045012
0.00469581
0.00479979
0.000592215
0.000757597
0.000790004
0.000830725
0.000895605
0.000980577
0.00108432
0.00120961
0.00136005
0.00153763
0.00174193
0.0019703
0.00221856
0.00248198
0.00275617
0.0030379
0.00332524
0.00361624
0.00390594
0.00417689
0.0044076
0.00461935
0.00478329
0.00487385
0.000767548
0.000778458
0.000803332
0.000862117
0.000944315
0.00104553
0.00116866
0.00131837
0.00149737
0.00170533
0.00193916
0.00219386
0.00246325
0.00274067
0.00301992
0.00329605
0.00356585
0.00382724
0.00407722
0.00430917
0.00450138
0.00466265
0.00479742
0.00487512
0.000796511
0.000795406
0.000833594
0.000904567
0.000998455
0.00111554
0.00126061
0.00143742
0.0016462
0.00188369
0.00214421
0.00242056
0.00270469
0.00298831
0.00326372
0.00352474
0.00376744
0.00399009
0.00419194
0.00437105
0.00452285
0.00463188
0.00472812
0.00479652
0.000791083
0.000804282
0.000860775
0.000946372
0.00105527
0.00119155
0.00136113
0.00156619
0.001804
0.00206834
0.00235118
0.00264361
0.00293628
0.0032198
0.00348537
0.00372576
0.00393618
0.00411474
0.00426213
0.00438055
0.00447228
0.00453895
0.0045832
0.00463139
0.00077516
0.000817124
0.000893548
0.000992795
0.00111647
0.00127294
0.00146823
0.00170162
0.00196678
0.00225462
0.00255532
0.00285884
0.00315504
0.00343382
0.00368572
0.00390273
0.00407917
0.00421225
0.00430251
0.00435417
0.0043757
0.00437921
0.00437423
0.00437028
0.000766609
0.000836268
0.00092887
0.00104036
0.00117976
0.00135818
0.00158018
0.0018412
0.00213119
0.00243873
0.00275285
0.00306297
0.0033586
0.00362943
0.00386577
0.00405935
0.00420392
0.00429566
0.00433349
0.00431982
0.00426294
0.00417969
0.00406106
0.0037094
0.000766102
0.000860031
0.000965964
0.00108907
0.00124498
0.00144628
0.00169502
0.0019821
0.00229387
0.00261723
0.00294068
0.00325361
0.00354558
0.00380642
0.00402673
0.00419857
0.00431601
0.00437518
0.00437396
0.0043113
0.00418689
0.00400215
0.00375996
0.00342317
0.000773058
0.000886841
0.00100354
0.00113774
0.00131071
0.00153537
0.00181044
0.0021216
0.00245196
0.00278743
0.00311659
0.00342915
0.00371503
0.00396445
0.00416861
0.00432046
0.00441519
0.00445029
0.00442514
0.00434031
0.00419692
0.00399692
0.0037444
0.00344922
0.000785044
0.000915212
0.00104067
0.0011855
0.00137573
0.00162363
0.00192433
0.00225741
0.0026032
0.00294733
0.00327898
0.00358847
0.00386619
0.00410285
0.00429037
0.00442275
0.00449662
0.00451124
0.00446797
0.00436948
0.00421894
0.00402008
0.00377777
0.0034959
0.000799861
0.000943727
0.00107641
0.00123127
0.00143839
0.00170908
0.00203482
0.00238765
0.00274586
0.00309553
0.00342687
0.00373094
0.00399862
0.00422108
0.00439092
0.00450321
0.00455607
0.00455056
0.00449003
0.0043791
0.00422251
0.00402504
0.00379219
0.00352498
0.000815976
0.000971441
0.00110977
0.00127377
0.00149774
0.00179097
0.00214047
0.00251099
0.00287881
0.00323125
0.00355984
0.00385644
0.00411234
0.0043191
0.00446992
0.0045609
0.00459163
0.00456499
0.00448628
0.00436199
0.00419851
0.00400196
0.00377918
0.00353155
0.000831935
0.00099759
0.0011405
0.00131296
0.00155358
0.0018688
0.00224005
0.00262653
0.00300143
0.0033542
0.00367795
0.00396532
0.0042079
0.00439752
0.00452792
0.0045963
0.00460386
0.00455548
0.00445862
0.00432181
0.00415306
0.00395971
0.00374961
0.00352514
0.000846991
0.00102219
0.00116852
0.00134841
0.00160535
0.00194181
0.00233315
0.00273381
0.00311351
0.00346453