/*--------------------------------*- C++ -*----------------------------------*\
  =========                 |
  \\      /  F ield         | OpenFOAM: The Open Source CFD Toolbox
   \\    /   O peration     | Website:  https://openfoam.org
    \\  /    A nd           | Version:  11
     \\/     M anipulation  |
\*---------------------------------------------------------------------------*/
FoamFile
{
    format      ascii;
    class       volScalarField;
    location    "1.94";
    object      p;
}
// * * * * * * * * * * * * * * * * * * * * * * * * * * * * * * * * * * * * * //

dimensions      [0 2 -2 0 0 0 0];

internalField   nonuniform List<scalar> 
2880
(
1.09962
1.08738
1.09109
1.11037
1.15992
1.35987
1.10221
1.09032
1.09122
1.1037
1.13943
1.24418
1.1042
1.09506
1.09342
1.09983
1.11617
1.15248
1.10441
1.0979
1.09431
1.09536
1.09713
1.09773
1.10342
1.09821
1.09294
1.08942
1.08178
1.06508
1.10173
1.09696
1.09009
1.08287
1.06916
1.04552
1.09946
1.09501
1.08651
1.0764
1.05853
1.03202
1.09676
1.09288
1.08267
1.07022
1.04933
1.02146
1.09386
1.09088
1.07889
1.0644
1.04115
1.01242
1.09107
1.0892
1.07539
1.05894
1.03362
1.00403
1.0887
1.08804
1.07233
1.05384
1.02646
0.995634
1.08697
1.08754
1.06982
1.04916
1.01942
0.986709
1.08604
1.08779
1.06794
1.04493
1.01228
0.976845
1.08597
1.08876
1.06674
1.04119
1.00488
0.965752
1.08674
1.09043
1.06621
1.03794
0.997205
0.953261
1.08821
1.09264
1.06633
1.03528
0.989477
0.938932
1.09017
1.09513
1.06697
1.03324
0.981474
0.921889
1.09236
1.09754
1.06796
1.03195
0.973521
0.90291
1.09445
1.09952
1.06916
1.03167
0.966081
0.882027
1.09614
1.10083
1.07065
1.03309
0.959945
0.859764
1.09729
1.10187
1.07334
1.03778
0.956621
0.838035
1.0982
1.10388
1.07892
1.04753
0.959105
0.822798
1.0997
1.10761
1.08727
1.05977
0.971371
0.828268
1.10157
1.11052
1.09222
1.0624
0.998071
0.86298
0.736957
0.724411
0.698332
0.67883
0.652959
0.627308
0.603882
0.583885
0.567359
0.553724
0.542368
0.532962
0.525299
0.519171
0.51431
0.510421
0.50725
0.504631
0.502445
0.500585
0.499228
0.499381
0.501751
0.500443
0.831574
0.789111
0.74332
0.713233
0.680743
0.650423
0.623604
0.601093
0.582664
0.567545
0.555014
0.544682
0.536298
0.529616
0.524336
0.520127
0.516705
0.513886
0.511555
0.509631
0.508236
0.508047
0.50951
0.508624
0.884021
0.835469
0.780377
0.742877
0.705309
0.671106
0.641312
0.61652
0.596328
0.579816
0.566163
0.554934
0.545846
0.538621
0.532927
0.528403
0.524736
0.521722
0.519249
0.517256
0.515819
0.515346
0.51607
0.515514
0.915775
0.866393
0.808931
0.766983
0.725961
0.688822
0.656608
0.629856
0.608094
0.590314
0.575628
0.563561
0.553803
0.546053
0.539957
0.535127
0.531224
0.528023
0.525412
0.523345
0.52186
0.52116
0.52132
0.521019
0.935508
0.886561
0.829968
0.785621
0.742488
0.703264
0.66917
0.640801
0.617695
0.598805
0.5832
0.570382
0.560014
0.551778
0.545303
0.540182
0.536055
0.532681
0.529942
0.527797
0.526257
0.525388
0.525173
0.52505
0.947472
0.899441
0.844761
0.799267
0.754936
0.714284
0.678774
0.649115
0.624906
0.605085
0.588702
0.575235
0.56433
0.555658
0.54884
0.543455
0.539128
0.535599
0.532743
0.530519
0.528918
0.527942
0.52755
0.527525
0.953368
0.907065
0.854405
0.808421
0.763448
0.721867
0.685341
0.654702
0.629621
0.609043
0.592018
0.578009
0.566649
0.557599
0.550475
0.544855
0.540351
0.53669
0.533734
0.531431
0.529763
0.528739
0.528383
0.528383
0.956395
0.910688
0.859677
0.813483
0.768228
0.726103
0.688893
0.657538
0.63179
0.610617
0.593082
0.578636
0.566898
0.557526
0.550137
0.544311
0.539655
0.535884
0.532841
0.530458
0.528723
0.527745
0.527621
0.527533
0.956108
0.910841
0.861053
0.814773
0.76948
0.727089
0.689447
0.65759
0.631353
0.609739
0.591822
0.577043
0.56501
0.555378
0.547768
0.541769
0.536988
0.533131
0.530021
0.527561
0.525758
0.524884
0.525195
0.524947
0.952869
0.907769
0.858806
0.812499
0.76731
0.724853
0.686981
0.654805
0.62824
0.606332
0.588162
0.57316
0.560922
0.551099
0.543321
0.537187
0.532311
0.528394
0.525236
0.522706
0.520836
0.520129
0.521067
0.520581
0.946846
0.901518
0.853021
0.806693
0.761701
0.71935
0.681436
0.649114
0.622382
0.600329
0.58204
0.566929
0.554583
0.544647
0.536761
0.530537
0.525601
0.521652
0.518468
0.515877
0.513945
0.513469
0.515215
0.514409
0.937962
0.891942
0.843567
0.797228
0.752534
0.710472
0.672716
0.640435
0.613703
0.591663
0.573395
0.5583
0.545951
0.535992
0.528067
0.521807
0.516851
0.512902
0.509716
0.50708
0.505098
0.504921
0.507648
0.50641
0.925934
0.878699
0.830118
0.78384
0.739589
0.698045
0.660684
0.628661
0.602117
0.580262
0.562171
0.547229
0.534996
0.525112
0.51723
0.510995
0.506067
0.502155
0.498996
0.496332
0.494309
0.494475
0.498344
0.496667
0.910248
0.861217
0.812186
0.766136
0.722559
0.681828
0.645158
0.613658
0.587528
0.566053
0.548315
0.53368
0.521696
0.511999
0.50425
0.498113
0.493266
0.48943
0.486328
0.48365
0.481574
0.482064
0.487201
0.485279
0.890066
0.838659
0.78909
0.743573
0.701035
0.661513
0.625913
0.595267
0.569826
0.548963
0.531781
0.517628
0.506042
0.496658
0.489147
0.483189
0.478484
0.474768
0.471752
0.469077
0.466934
0.467718
0.474201
0.472173
0.864164
0.809898
0.759887
0.715428
0.674493
0.636722
0.602687
0.573312
0.5489
0.528925
0.512536
0.499066
0.488046
0.479116
0.471958
0.466272
0.461781
0.458237
0.455347
0.4527
0.450493
0.451558
0.459425
0.457351
0.831616
0.773461
0.723332
0.680782
0.642295
0.607017
0.575185
0.547611
0.524646
0.50589
0.490567
0.478007
0.467742
0.459423
0.452747
0.447438
0.443241
0.439933
0.437216
0.434634
0.432384
0.433725
0.442972
0.440874
0.789599
0.727183
0.67784
0.638511
0.603701
0.571916
0.543102
0.517981
0.496974
0.479832
0.465888
0.454493
0.445195
0.437659
0.431608
0.42679
0.42298
0.419976
0.417489
0.415022
0.412771
0.414394
0.424972
0.422836
0.735246
0.668134
0.621459
0.58733
0.557921
0.530936
0.506151
0.484268
0.465826
0.45076
0.438551
0.428605
0.420503
0.41394
0.408667
0.404465
0.401141
0.398521
0.396328
0.394037
0.391841
0.393762
0.405583
0.403375
0.664576
0.592703
0.551963
0.525912
0.504193
0.483661
0.464118
0.446385
0.431201
0.418732
0.40865
0.400464
0.393807
0.388418
0.384089
0.380636
0.377904
0.375753
0.373924
0.371877
0.369806
0.372046
0.384987
0.382683
0.572685
0.496336
0.467033
0.453032
0.441896
0.429823
0.416919
0.404354
0.393186
0.383881
0.376346
0.370248
0.365298
0.361294
0.358079
0.355514
0.353485
0.351892
0.350501
0.348771
0.346904
0.349482
0.363388
0.360999
0.449716
0.373333
0.364551
0.367712
0.370688
0.369392
0.364665
0.35835
0.351988
0.346429
0.341875
0.338198
0.335219
0.332815
0.330887
0.329352
0.328142
0.327197
0.326319
0.324982
0.323395
0.326321
0.341014
0.338598
0.261997
0.216265
0.242596
0.269505
0.290682
0.302691
0.30773
0.308741
0.307958
0.30671
0.305559
0.304624
0.303872
0.303273
0.302805
0.302441
0.302164
0.301961
0.301673
0.300802
0.29957
0.302837
0.318111
0.31579
-0.0404551
0.031055
0.103535
0.15971
0.202952
0.230592
0.246832
0.256128
0.261606
0.265172
0.267804
0.2699
0.271606
0.273007
0.274161
0.275107
0.27588
0.276512
0.27689
0.276557
0.275746
0.279328
0.294953
0.292919
-0.776757
-0.819299
-0.897017
-0.941517
-0.963342
-1.00716
-0.788375
-0.831212
-0.909528
-0.953696
-0.965311
-0.983165
-0.798947
-0.843652
-0.923397
-0.969167
-0.973013
-0.976994
-0.810079
-0.856909
-0.938659
-0.987239
-0.989289
-0.988746
-0.823358
-0.871503
-0.954494
-1.00623
-1.01272
-1.01233
-0.83795
-0.886734
-0.969997
-1.02455
-1.03881
-1.04195
-0.852518
-0.901505
-0.984263
-1.04101
-1.06307
-1.07149
-0.865669
-0.915152
-0.996502
-1.0546
-1.08313
-1.09586
-0.876573
-0.927036
-1.00599
-1.06457
-1.09761
-1.11283
-0.884832
-0.936137
-1.0124
-1.07041
-1.10577
-1.12153
-0.88999
-0.942025
-1.01562
-1.07191
-1.10734
-1.12159
-0.891797
-0.944635
-1.01565
-1.06914
-1.10246
-1.11314
-0.89025
-0.944187
-1.01262
-1.06245
-1.09171
-1.09686
-0.885635
-0.940998
-1.00686
-1.05241
-1.07609
-1.07412
-0.878534
-0.935427
-0.998787
-1.03983
-1.0569
-1.04662
-0.869704
-0.92796
-0.98893
-1.02566
-1.03572
-1.0164
-0.860007
-0.919215
-0.977925
-1.011
-1.01424
-0.985907
-0.850322
-0.909904
-0.96645
-0.996951
-0.994195
-0.957765
-0.841453
-0.90079
-0.955141
-0.984264
-0.977408
-0.934826
-0.834031
-0.892784
-0.944531
-0.972631
-0.966284
-0.919922
-0.82858
-0.887186
-0.93545
-0.962529
-0.961615
-0.914764
-0.825919
-0.885162
-0.928702
-0.954377
-0.96143
-0.923007
-0.82723
-0.885389
-0.923468
-0.943376
-0.962543
-0.951753
-0.831496
-0.880748
-0.909191
-0.927821
-0.96937
-1.0596
-0.489608
-0.184324
-0.050882
0.0425561
0.110198
0.154812
0.183117
0.201364
0.213617
0.222383
0.229093
0.234456
0.238816
0.242386
0.245313
0.247702
0.249639
0.251203
0.252327
0.252605
0.252273
0.256113
0.27183
0.270382
-0.672275
-0.393479
-0.205266
-0.0738029
0.0167101
0.0776908
0.118306
0.145543
0.164823
0.179001
0.189972
0.198759
0.205917
0.211795
0.216629
0.220588
0.223811
0.226413
0.228374
0.229342
0.229539
0.233538
0.249034
0.248657
-0.767459
-0.552307
-0.339942
-0.182582
-0.0736714
0.00181726
0.0538089
0.0900543
0.116153
0.135726
0.151003
0.163279
0.17332
0.181606
0.18846
0.194116
0.198754
0.202524
0.205445
0.207216
0.208002
0.211988
0.226809
0.228357
-0.847884
-0.670416
-0.451917
-0.280981
-0.158446
-0.0707994
-0.00864428
0.0358188
0.0684532
0.0932384
0.112723
0.128456
0.141395
0.152139
0.161101
0.168574
0.174777
0.179886
0.183958
0.18675
0.188289
0.191984
0.205221
0.21035
-0.918973
-0.761433
-0.545736
-0.368595
-0.236157
-0.138741
-0.0678621
-0.0161034
0.0224983
0.0521457
0.0756205
0.0946811
0.11044
0.123625
0.134732
0.144115
0.152036
0.158705
0.164239
0.168511
0.171373
0.174822
0.185048
0.196569
-0.977237
-0.832497
-0.624805
-0.445618
-0.30607
-0.201063
-0.122948
-0.0648938
-0.0210222
0.0130015
0.0401222
0.0622599
0.080666
0.0961754
0.109367
0.12066
0.130371
0.138756
0.145996
0.15206
0.156766
0.161456
0.171016
0.179546
-1.02289
-0.887909
-0.690547
-0.511927
-0.367761
-0.257196
-0.173263
-0.109932
-0.0615526
-0.0237312
0.00658988
0.0314525
0.0522177
0.0698078
0.0848663
0.097858
0.10913
0.118942
0.127419
0.134429
0.139963
0.14633
0.157589
0.151611
-1.0575
-0.930222
-0.743546
-0.56724
-0.421005
-0.30656
-0.218267
-0.150698
-0.0986326
-0.0576593
-0.0246555
0.00249928
0.0252444
0.0445639
0.0611391
0.0754483
0.0878284
0.0985027
0.107531
0.114727
0.120259
0.126976
0.138376
0.127723
-1.08148
-0.960229
-0.783973
-0.611543
-0.465312
-0.348533
-0.25761
-0.186752
-0.131868
-0.0884333
-0.0533079
-0.0243373
-3.18729e-05
0.0206346
0.0383676
0.0536495
0.066806
0.0780427
0.0874152
0.0947829
0.100444
0.107317
0.118511
0.107683
-1.09433
-0.978045
-0.811797
-0.644855
-0.500005
-0.382915
-0.290646
-0.217879
-0.16098
-0.115749
-0.0790743
-0.0487774
-0.0233384
-0.00170317
0.0168524
0.0328185
0.0465218
0.058174
0.0678613
0.0755221
0.0815386
0.0886675
0.0996285
0.0900414
-1.09569
-0.983703
-0.826982
-0.666815
-0.52542
-0.409774
-0.316676
-0.243872
-0.185712
-0.139342
-0.101685
-0.0705447
-0.0443869
-0.0221425
-0.00307152
0.0133301
0.0274027
0.0393768
0.0493769
0.0574148
0.0639148
0.07136
0.0821496
0.0744772
-1.08584
-0.977325
-0.829565
-0.677372
-0.54134
-0.428553
-0.336437
-0.264075
-0.205866
-0.159018
-0.120912
-0.0893856
-0.0629002
-0.0403799
-0.0210719
-0.00445413
0.00983489
0.0220493
0.032348
0.0407985
0.0478235
0.0556098
0.0663106
0.0609079
-1.06565
-0.959738
-0.819908
-0.676766
-0.547603
-0.439335
-0.350378
-0.278166
-0.221177
-0.174583
-0.136571
-0.105092
-0.0786391
-0.0561451
-0.0368512
-0.0202173
-0.00585862
0.00650323
0.0170546
0.0258999
0.0334283
0.0415451
0.052227
0.0492425
-1.03631
-0.932439
-0.799304
-0.665698
-0.544639
-0.442127
-0.357561
-0.287454
-0.231439
-0.185938
-0.148569
-0.117529
-0.091426
-0.0692243
-0.0501675
-0.0337025
-0.0194229
-0.00702748
0.00369238
0.0128647
0.0208309
0.0292389
0.039947
0.0393763
-0.999514
-0.896894
-0.769753
-0.645373
-0.533182
-0.437404
-0.357783
-0.291625
-0.237222
-0.193224
-0.156913
-0.126645
-0.10116
-0.0794753
-0.0608475
-0.0447187
-0.0306661
-0.018369
-0.007598
0.00179182
0.0100932
0.0187218
0.0294588
0.0311727
-0.957221
-0.854733
-0.733362
-0.617636
-0.514443
-0.426073
-0.352013
-0.290189
-0.238727
-0.196573
-0.161651
-0.132449
-0.107815
-0.0868339
-0.0687939
-0.0531446
-0.039457
-0.0273954
-0.0167116
-0.00724651
0.0012634
0.0100117
0.0207157
0.0244709
-0.911961
-0.807704
-0.692083
-0.58473
-0.490219
-0.409403
-0.341231
-0.283954
-0.235955
-0.196129
-0.162918
-0.135032
-0.111443
-0.0913173
-0.0739902
-0.0589349
-0.0457284
-0.0340291
-0.0235739
-0.0141851
-0.00561783
0.00310555
0.01363
0.0190789
-0.866229
-0.757839
-0.647651
-0.548672
-0.46243
-0.38886
-0.32653
-0.273843
-0.229432
-0.192214
-0.160957
-0.134579
-0.112183
-0.0930261
-0.0765041
-0.0621266
-0.0494895
-0.0382571
-0.0281586
-0.0189993
-0.0105615
-0.00204137
0.00808585
0.0147774
-0.822474
-0.707013
-0.601837
-0.511003
-0.432681
-0.365905
-0.309108
-0.260849
-0.21994
-0.185389
-0.156182
-0.131406
-0.110282
-0.0921573
-0.0764936
-0.0628442
-0.0508337
-0.0401421
-0.030501
-0.0217043
-0.0135507
-0.00541269
0.00403024
0.01142
-0.782968
-0.657322
-0.556057
-0.47301
-0.402292
-0.341843
-0.290152
-0.245997
-0.208364
-0.176372
-0.149166
-0.125968
-0.106108
-0.0890158
-0.0742147
-0.0613037
-0.049941
-0.0398293
-0.0307098
-0.0223708
-0.0146181
-0.0069989
0.00147149
0.00893132
-0.749175
-0.610307
-0.511899
-0.436028
-0.372439
-0.317837
-0.270784
-0.230323
-0.195638
-0.165973
-0.1406
-0.118856
-0.100164
-0.0840303
-0.0700356
-0.0578244
-0.0470894
-0.0375583
-0.0289864
-0.0211975
-0.013979
-0.00695524
0.000344847
0.00726328
-0.720658
-0.566282
-0.470656
-0.4015
-0.344314
-0.29499
-0.252075
-0.214864
-0.182744
-0.155094
-0.131303
-0.110804
-0.0931032
-0.0777755
-0.064461
-0.0528524
-0.0426832
-0.0337148
-0.0257176
-0.0184782
-0.0118862
-0.00566462
0.000335723
0.00637283
-0.696229
-0.520614
-0.433246
-0.370485
-0.3191
-0.274335
-0.235014
-0.200612
-0.170685
-0.144727
-0.12223
-0.102714
-0.0857622
-0.0710176
-0.0581802
-0.0469965
-0.037251
-0.0287526
-0.0213396
-0.0147762
-0.00890559
-0.00337899
0.00144063
0.0065425
-0.651278
-0.466759
-0.399078
-0.344343
-0.297906
-0.256811
-0.220432
-0.188402
-0.16035
-0.135832
-0.114398
-0.0956331
-0.079188
-0.0647766
-0.0521603
-0.0411456
-0.0315778
-0.0233174
-0.0162474
-0.0101925
-0.00507213
-0.000443914
0.00291195
0.00689467
-0.389777
-0.380778
-0.361846
-0.331089
-0.316638
-0.228673
-0.38821
-0.380053
-0.362519
-0.335144
-0.32482
-0.262219
-0.385391
-0.379475
-0.364133
-0.340684
-0.334505
-0.291557
-0.384074
-0.379801
-0.366669
-0.347125
-0.342142
-0.313317
-0.384713
-0.381263
-0.369955
-0.353884
-0.348686
-0.329102
-0.386302
-0.383687
-0.37393
-0.360742
-0.355108
-0.340705
-0.389795
-0.386871
-0.378563
-0.36771
-0.361751
-0.349842
-0.394809
-0.390435
-0.383749
-0.374862
-0.368803
-0.358012
-0.398665
-0.393925
-0.389279
-0.382265
-0.376421
-0.366153
-0.40128
-0.397488
-0.395043
-0.389967
-0.384736
-0.374949
-0.40387
-0.401153
-0.400956
-0.397992
-0.393836
-0.384837
-0.406499
-0.404803
-0.406933
-0.406338
-0.403748
-0.395991
-0.409001
-0.408286
-0.412886
-0.414975
-0.41446
-0.408511
-0.411246
-0.411444
-0.418736
-0.423849
-0.425913
-0.422463
-0.41312
-0.414137
-0.424396
-0.432886
-0.437997
-0.437843
-0.4146
-0.416235
-0.429786
-0.441985
-0.450517
-0.454615
-0.417035
-0.418011
-0.434891
-0.451021
-0.463171
-0.472703
-0.420742
-0.420491
-0.439704
-0.45984
-0.475695
-0.491782
-0.423386
-0.42328
-0.444035
-0.468241
-0.488098
-0.511673
-0.424446
-0.425504
-0.447538
-0.475919
-0.500218
-0.532908
-0.424661
-0.426599
-0.449627
-0.482233
-0.511845
-0.556937
-0.422414
-0.426002
-0.449676
-0.485831
-0.522057
-0.584656
-0.418259
-0.424201
-0.448144
-0.485865
-0.529155
-0.612735
-0.416159
-0.423099
-0.447494
-0.485516
-0.533326
-0.631524
-0.481582
-0.414807
-0.371502
-0.323873
-0.281341
-0.243024
-0.208925
-0.17884
-0.152385
-0.129141
-0.108654
-0.0905289
-0.0744629
-0.0602209
-0.0476201
-0.0365296
-0.0268661
-0.0185649
-0.0115814
-0.00580001
-0.00124194
0.00256526
0.00450603
0.00658232
-0.422146
-0.382081
-0.351454
-0.308978
-0.269203
-0.232899
-0.200522
-0.171993
-0.146924
-0.124853
-0.10532
-0.0878902
-0.072244
-0.058184
-0.045596
-0.0343921
-0.0245315
-0.0160296
-0.00893427
-0.00325386
0.000970796
0.00395062
0.00530042
0.00548496
-0.398527
-0.362855
-0.336322
-0.297761
-0.260242
-0.225503
-0.194438
-0.167111
-0.143198
-0.122216
-0.103671
-0.0871046
-0.072144
-0.0585358
-0.0461738
-0.0350526
-0.0252079
-0.016716
-0.00969351
-0.00425992
-0.000513979
0.00155445
0.00191388
0.000474224
-0.380602
-0.349674
-0.324171
-0.288535
-0.252876
-0.21938
-0.189261
-0.162776
-0.139686
-0.119557
-0.101879
-0.0861781
-0.0720806
-0.0593096
-0.0476757
-0.0371408
-0.0277756
-0.0196971
-0.0130581
-0.00802551
-0.00476825
-0.00357236
-0.00500972
-0.00747041
-0.366963
-0.33985
-0.314216
-0.280279
-0.245817
-0.213134
-0.183557
-0.157474
-0.134758
-0.115044
-0.0978805
-0.0828128
-0.0694783
-0.0575903
-0.046926
-0.0373626
-0.0288895
-0.0215979
-0.0156298
-0.0111074
-0.00821565
-0.00756065
-0.0104576
-0.0136769
-0.358767
-0.333082
-0.306404
-0.272858
-0.238657
-0.206111
-0.176522
-0.150389
-0.127677
-0.10812
-0.0913345
-0.0769009
-0.0643968
-0.0535019
-0.0440146
-0.0358012
-0.0288021
-0.0230271
-0.0183876
-0.0147974
-0.0123559
-0.0116376
-0.0135351
-0.0134405
-0.3552
-0.32914
-0.300771
-0.266537
-0.231673
-0.198472
-0.16826
-0.14159
-0.118514
-0.0987589
-0.0819206
-0.0676262
-0.055519
-0.0453136
-0.0367754
-0.0297065
-0.0239168
-0.0191846
-0.0153721
-0.0123645
-0.00992819
-0.00787619
-0.00584214
-0.00245208
-0.355185
-0.327918
-0.297216
-0.261409
-0.225051
-0.190467
-0.158998
-0.13119
-0.107076
-0.0864363
-0.0689943
-0.0544276
-0.0423445
-0.0325226
-0.0246887
-0.0185864
-0.0139567
-0.010512
-0.00793952
-0.00586517
-0.00383491
-0.00102589
0.00381646
0.00794515
-0.357955
-0.329214
-0.295668
-0.257483
-0.218859
-0.182226
-0.148975
-0.119682
-0.0944082
-0.0729652
-0.055065
-0.0403734
-0.0286496
-0.0195444
-0.0127843
-0.00807678
-0.00510338
-0.00349223
-0.00279418
-0.00247356
-0.00189233
8.02551e-05
0.00486086
0.00989752
-0.363186
-0.332757
-0.296027
-0.254761
-0.213212
-0.173972
-0.138536
-0.107503
-0.0809552
-0.0587068
-0.0404586
-0.0258749
-0.0146283
-0.00637839
-0.000796458
0.00246237
0.00377699
0.00359412
0.00248069
0.00111389
0.000312853
0.00120409
0.00502354
0.010034
-0.371014
-0.338483
-0.298113
-0.253156
-0.208138
-0.165869
-0.128015
-0.0951309
-0.0672939
-0.0443216
-0.0258719
-0.0115747
-0.00101996
0.00622243
0.0105582
0.0123877
0.0121753
0.0104973
0.00801704
0.00546368
0.00364493
0.00376663
0.00661855
0.0119523
-0.381242
-0.346244
-0.301693
-0.252443
-0.203462
-0.157976
-0.117637
-0.0831067
-0.0543536
-0.0310451
-0.0127466
0.00101765
0.0107647
0.0169957
0.0201893
0.0208562
0.0195836
0.0170208
0.0138416
0.0108268
0.00865147
0.0084912
0.0101048
0.0161031
-0.393602
-0.35578
-0.306383
-0.252197
-0.198993
-0.150388
-0.107996
-0.0722333
-0.0429316
-0.019641
-0.00179089
0.0112694
0.0201628
0.0254718
0.0277954
0.0277464
0.0259651
0.0230036
0.0194001
0.0162489
0.0139219
0.0131679
0.0116048
0.0171289
-0.408052
-0.366747
-0.311581
-0.251981
-0.19458
-0.143106
-0.0989614
-0.0624134
-0.0330925
-0.0102886
0.00678785
0.0189395
0.0269561
0.0315379
0.033357
0.0329075
0.03113
0.0283335
0.0241382
0.0200008
0.0177654
0.0182999
0.0188458
0.0227538
-0.424397
-0.378569
-0.316542
-0.251223
-0.189637
-0.135578
-0.0904075
-0.0539632
-0.0253466
-0.00348006
0.0126157
0.02386
0.0311821
0.035322
0.0370367
0.0362622
0.0342066
0.0327793
0.0323045
0.0314685
0.029417
0.0275589
0.0257199
0.029425
-0.442378
-0.390018
-0.320628
-0.249145
-0.183676
-0.128027
-0.0828805
-0.0472775
-0.0198037
0.000859636
0.0158578
0.0261533
0.0328333
0.0367019
0.0390889
0.0414063
0.0423537
0.0413944
0.0397539
0.0381935
0.0362385
0.0335614
0.0310717
0.0357175
-0.461559
-0.399932
-0.322714
-0.24533
-0.176936
-0.12076
-0.0765198
-0.0423322
-0.0162378
0.00324217
0.0173821
0.0272484
0.0345564
0.0406267
0.044524
0.0463661
0.0472183
0.0472246
0.0461409
0.0444545
0.042506
0.0405442
0.0401883
0.0432403
-0.478638
-0.409407
-0.322377
-0.239817
-0.169666
-0.114003
-0.0711813
-0.0383677
-0.0133855
0.00536512
0.0194144
0.0305272
0.0388381
0.0447392
0.0491573
0.0518541
0.0530328
0.05341
0.0536588
0.0533014
0.0519391
0.05026
0.0507163
0.0504972
-0.492513
-0.416467
-0.319381
-0.232583
-0.161745
-0.107244
-0.0657195
-0.0339276
-0.00953043
0.00929455
0.0238662
0.0353011
0.0442399
0.050703
0.0550275
0.0579446
0.0603626
0.0618177
0.06228
0.061786
0.0605475
0.0597419
0.0622467
0.0586991
-0.498187
-0.419846
-0.312996
-0.222428
-0.151975
-0.098883
-0.0585187
-0.0275188
-0.00350978
0.015371
0.0303394
0.0421241
0.0509729
0.0573019
0.0622648
0.06615
0.0688284
0.0705273
0.0712959
0.0712417
0.0706483
0.0712771
0.0767783
0.0719762
-0.490828
-0.413808
-0.300053
-0.207049
-0.138214
-0.0869636
-0.0479832
-0.0179823
0.00541346
0.0239082
0.038605
0.0501371
0.0590901
0.0661139
0.0715135
0.0756493
0.0786989
0.0807966
0.0820457
0.0825599
0.0827056
0.0848646
0.0935372
0.0875821
-0.469373
-0.387824
-0.274579
-0.183898
-0.118551
-0.0700893
-0.0332164
-0.00480136
0.0174744
0.0353015
0.0494906
0.0606871
0.0696097
0.0766728
0.0822366
0.0865853
0.0899047
0.0923228
0.093971
0.0949458
0.0956222
0.0988843
0.109729
0.102028
-0.432977
-0.331965
-0.231051
-0.151221
-0.0923292
-0.0480316
-0.0143209
0.0120256
0.0330128
0.0495018
0.0627941
0.073472
0.0820531
0.0889611
0.0944981
0.0988936
0.102318
0.104908
0.1068
0.108053
0.109071
0.113218
0.125843
0.116418
-0.355803
-0.248279
-0.171916
-0.109816
-0.0602923
-0.0216388
0.00841832
0.0320552
0.0509075
0.0660072
0.0782228
0.0881484
0.0962283
0.102817
0.10818
0.112519
0.115988
0.11872
0.120835
0.122331
0.123597
0.128388
0.142344
0.131285
0.378917
0.390362
0.428816
0.490586
0.518144
0.42235
0.380822
0.389625
0.417351
0.455516
0.449313
0.379642
0.381716
0.388355
0.405449
0.429398
0.407043
0.337612
0.380574
0.385595
0.394637
0.41035
0.384685
0.320495
0.378204
0.381786
0.386284
0.396267
0.373815
0.320102
0.375181
0.377763
0.379545
0.386616
0.369029
0.325394
0.371721
0.373887
0.374193
0.380117
0.367315
0.331958
0.367972
0.370203
0.369943
0.375687
0.367012
0.33854
0.364105
0.36668
0.366483
0.372539
0.367396
0.344828
0.360308
0.363296
0.363632
0.370085
0.368208
0.350865
0.356767
0.360053
0.361086
0.368112
0.369367
0.356757
0.353653
0.35698
0.358703
0.366409
0.370825
0.362365
0.351085
0.354132
0.356396
0.364757
0.372478
0.367536
0.349157
0.351629
0.354099
0.362973
0.374045
0.372448
0.347868
0.349601
0.351779
0.360851
0.375237
0.377179
0.347214
0.348094
0.349441
0.358144
0.375868
0.381564
0.347272
0.347171
0.347081
0.354513
0.375771
0.385203
0.34809
0.346896
0.344704
0.349512
0.374684
0.387213
0.349312
0.347223
0.342232
0.342782
0.372052
0.386007
0.347866
0.347624
0.339252
0.334399
0.367251
0.379896
0.342989
0.347345
0.335497
0.32439
0.360585
0.368754
0.34404
0.34723
0.331254
0.312815
0.354633
0.351564
0.352437
0.347568
0.327346
0.301778
0.351175
0.294723
0.357002
0.347363
0.323778
0.291347
0.336496
0.0718813
-0.155398
-0.16206
-0.109974
-0.0636055
-0.0242538
0.00801843
0.033808
0.0543879
0.0709597
0.0843899
0.0953551
0.104362
0.111791
0.117938
0.123031
0.127238
0.130686
0.133486
0.13571
0.137288
0.138607
0.143722
0.158492
0.146185
-0.0214257
-0.0790078
-0.0485478
-0.0160411
0.0138271
0.0396616
0.0610047
0.0783732
0.0925401
0.104166
0.113768
0.121749
0.128418
0.134017
0.13873
0.142696
0.146022
0.148794
0.151035
0.1526
0.153873
0.159119
0.174398
0.161485
0.0659673
0.000363259
0.0101662
0.0305487
0.0522263
0.0721221
0.0891588
0.10335
0.115116
0.124906
0.133095
0.139988
0.145827
0.150802
0.155064
0.158723
0.161864
0.164552
0.166759
0.168256
0.169404
0.174594
0.190094
0.177468
0.134209
0.0694117
0.0640149
0.0748299
0.089741
0.104463
0.117566
0.12877
0.138236
0.146233
0.153016
0.158802
0.163771
0.168069
0.171813
0.175093
0.177976
0.180509
0.182632
0.184047
0.185051
0.190012
0.205399
0.194417
0.186804
0.125176
0.112129
0.116133
0.125633
0.136026
0.145698
0.154204
0.161541
0.167844
0.173268
0.177957
0.182035
0.185611
0.188774
0.191596
0.194137
0.196437
0.198432
0.199824
0.200813
0.205383
0.220055
0.213243
0.22654
0.170982
0.154452
0.154084
0.159517
0.166422
0.173197
0.17934
0.18476
0.189504
0.193649
0.197277
0.200466
0.203289
0.205811
0.208085
0.210162
0.212084
0.213833
0.215203
0.216187
0.219395
0.231166
0.238503
0.256753
0.209083
0.191686
0.188721
0.191266
0.195454
0.199845
0.20397
0.20771
0.211054
0.214022
0.216649
0.218974
0.221036
0.22287
0.224506
0.225963
0.227271
0.228441
0.229326
0.229364
0.227757
0.225175
0.275324
0.28023
0.240631
0.224441
0.220283
0.220921
0.223068
0.225544
0.227984
0.23028
0.232393
0.234305
0.236015
0.237531
0.238866
0.240029
0.24102
0.24184
0.242506
0.242989
0.242927
0.241686
0.241494
0.253022
0.273309
0.299095
0.267275
0.253469
0.249146
0.248651
0.249317
0.250286
0.25134
0.252417
0.253467
0.254451
0.255343
0.256133
0.256815
0.25738
0.257812
0.2581
0.258252
0.258183
0.25741
0.255676
0.257186
0.27243
0.279324
0.31474
0.290208
0.279499
0.27573
0.274689
0.274321
0.274123
0.274052
0.274112
0.274256
0.274434
0.274611
0.274766
0.274882
0.274939
0.274912
0.274786
0.274564
0.274126
0.272957
0.271045
0.273317
0.289584
0.290961
0.328025
0.310293
0.303203
0.300466
0.299302
0.298248
0.297157
0.296175
0.295387
0.29476
0.294242
0.293797
0.2934
0.293031
0.292662
0.292261
0.291808
0.291298
0.290593
0.289163
0.287117
0.289672
0.306187
0.305016
0.339738
0.328407
0.325054
0.323761
0.322791
0.321304
0.319521
0.317789
0.316284
0.314992
0.313867
0.312875
0.311997
0.31121
0.31048
0.30977
0.309053
0.308319
0.307415
0.305806
0.303671
0.306327
0.322703
0.32023
0.350401
0.345132
0.345696
0.346045
0.345468
0.34371
0.341366
0.338993
0.336859
0.334976
0.333305
0.331823
0.330516
0.329359
0.328317
0.327344
0.326407
0.32549
0.324431
0.322695
0.320517
0.323185
0.339148
0.33603
0.360181
0.360957
0.365605
0.367726
0.367639
0.36569
0.362852
0.359888
0.357171
0.354736
0.352555
0.350617
0.348912
0.34742
0.346098
0.344894
0.343768
0.342698
0.341516
0.339699
0.33752
0.340141
0.355467
0.35209
0.369238
0.376287
0.385226
0.389196
0.389613
0.38747
0.384135
0.380579
0.377279
0.374298
0.371614
0.36923
0.367142
0.365331
0.363748
0.362334
0.36104
0.359837
0.358555
0.356692
0.354549
0.357079
0.371579
0.36819
0.377693
0.391517
0.405007
0.410846
0.4117
0.409274
0.405369
0.401164
0.397238
0.393681
0.390475
0.387633
0.385159
0.383031
0.381195
0.379579
0.378129
0.376806
0.375441
0.373561
0.371485
0.373881
0.387402
0.384162
0.385641
0.407114
0.425412
0.433067
0.434213
0.431323
0.426697
0.421728
0.41709
0.412893
0.409121
0.405791
0.402911
0.400456
0.398363
0.396548
0.394946
0.393509
0.392073
0.390197
0.388208
0.390434
0.402849
0.399862
0.393181
0.423723
0.446952
0.456308
0.457458
0.453828
0.448241
0.442336
0.436858
0.431929
0.427523
0.423656
0.420338
0.417535
0.415174
0.413155
0.411398
0.40985
0.408347
0.40649
0.404602
0.406622
0.417832
0.415159
0.400556
0.44223
0.470258
0.48104
0.481721
0.476979
0.470099
0.463022
0.456538
0.45076
0.445632
0.441168
0.437368
0.43419
0.431541
0.429307
0.42739
0.425726
0.424159
0.422328
0.420545
0.422329
0.432265
0.429932
0.408379
0.463664
0.49604
0.507731
0.507263
0.500893
0.492326
0.48378
0.476093
0.469326
0.463381
0.458248
0.453916
0.450327
0.44737
0.444905
0.442818
0.441031
0.439395
0.437592
0.435916
0.43744
0.446063
0.44407
0.417529
0.489256
0.525197
0.536927
0.534296
0.525605
0.514903
0.504559
0.495441
0.487539
0.480672
0.474797
0.469881
0.465845
0.462553
0.45984
0.45757
0.45565
0.453939
0.452162
0.450592
0.45186
0.459174
0.457448
0.428863
0.522343
0.559336
0.569116
0.562877
0.551019
0.537687
0.525231
0.514458
0.50527
0.497381
0.490693
0.485142
0.480623
0.47697
0.473992
0.471524
0.469459
0.467661
0.465905
0.464454
0.465514
0.471536
0.469805
0.450696
0.57235
0.600617
0.604317
0.592739
0.576831
0.560399
0.545568
0.532958
0.522351
0.513356
0.505794
0.499565
0.49453
0.490493
0.487227
0.484542
0.482311
0.480405
0.478646
0.477297
0.478158
0.482867
0.480871
0.531083
0.647649
0.648931
0.64159
0.623151
0.602503
0.582634
0.565247
0.55069
0.538579
0.528416
0.519941
0.513002
0.507427
0.502984
0.499412
0.49649
0.494071
0.49203
0.49023
0.488905
0.489446
0.492901
0.491079
)
;

boundaryField
{
    rotor
    {
        type            zeroGradient;
    }
    freestream
    {
        type            freestreamPressure;
        freestreamValue uniform 0;
        supersonic      false;
        value           nonuniform List<scalar> 
96
(
0.485752
0.498799
0.509668
0.518174
0.524158
0.527487
0.528074
0.525824
0.520737
0.51282
0.502125
0.488737
0.472864
0.454746
0.434482
0.41226
0.38834
0.363023
0.336647
0.3096
0.282294
0.255147
0.228577
0.202987
0.178764
0.156288
0.135944
0.118171
0.103887
0.0891605
0.0705311
0.0554192
0.0433859
0.0335393
0.0255332
0.0191294
0.0140991
0.010225
0.00730087
0.00513819
0.00356764
0.0024422
0.00165294
0.00111942
0.000776679
0.000569603
0.000474937
0.00039272
0.000287304
0.000189942
1.45155e-05
-0.000220084
-0.000371188
-0.00025501
-2.0008e-05
2.60515e-06
2.51963e-05
0.0001088
0.000250375
0.000508584
0.000741587
0.00128048
0.00207614
0.00310916
0.00453904
0.00631824
0.00862866
0.0122787
0.0171207
0.022611
0.0290269
0.0365633
0.0451581
0.0549721
0.0661672
0.0789289
0.0937514
0.112999
0.139865
0.147862
0.160777
0.177446
0.196264
0.216524
0.237843
0.259939
0.282571
0.30551
0.328524
0.351378
0.373834
0.395654
0.416582
0.436229
0.454194
0.470736
)
;
    }
    frontAndBack
    {
        type            empty;
    }
}


// ************************************************************************* //
