/*--------------------------------*- C++ -*----------------------------------*\
  =========                 |
  \\      /  F ield         | OpenFOAM: The Open Source CFD Toolbox
   \\    /   O peration     | Website:  https://openfoam.org
    \\  /    A nd           | Version:  11
     \\/     M anipulation  |
\*---------------------------------------------------------------------------*/
FoamFile
{
    format      ascii;
    class       volVectorField;
    location    "1.94";
    object      U;
}
// * * * * * * * * * * * * * * * * * * * * * * * * * * * * * * * * * * * * * //

dimensions      [0 1 -1 0 0 0 0];

internalField   nonuniform List<vector> 
2880
(
(0.0237255 -0.0626072 0)
(0.142977 -0.132447 -9.64692e-20)
(0.250712 -0.185901 -7.69625e-22)
(0.294867 -0.199708 1.65931e-18)
(0.295149 -0.191624 -1.05222e-19)
(0.00754157 -0.060719 7.04408e-19)
(0.055954 -0.0938387 -1.03774e-18)
(0.173413 -0.175359 4.52058e-20)
(0.24923 -0.210094 -3.41296e-20)
(0.282353 -0.208503 -4.45738e-19)
(0.286422 -0.170603 0)
(0.154448 -0.0598116 0)
(0.0748638 -0.11979 2.00852e-18)
(0.177188 -0.196823 0)
(0.23603 -0.219782 -5.71506e-19)
(0.266033 -0.206166 4.63347e-19)
(0.271529 -0.155929 -3.50194e-19)
(0.21814 -0.0441338 -3.10644e-19)
(0.0884007 -0.145966 -9.6333e-19)
(0.175523 -0.214052 -3.64187e-19)
(0.224109 -0.228572 4.99566e-19)
(0.251936 -0.206584 -5.74869e-19)
(0.263125 -0.149317 3.27912e-19)
(0.254222 -0.045024 8.53584e-20)
(0.0981223 -0.170255 0)
(0.172357 -0.228607 1.43063e-19)
(0.213977 -0.237594 0)
(0.241387 -0.210935 1.5765e-19)
(0.25996 -0.152067 1.90947e-20)
(0.277254 -0.0591761 2.00012e-19)
(0.105011 -0.191819 0)
(0.168766 -0.240846 1.68624e-19)
(0.205201 -0.246811 3.23331e-21)
(0.233609 -0.218796 -2.66388e-21)
(0.259808 -0.16239 0)
(0.293498 -0.0816695 -6.35501e-20)
(0.109904 -0.210804 0)
(0.164813 -0.251297 -2.41653e-20)
(0.197321 -0.256408 -6.1984e-21)
(0.227543 -0.229793 0)
(0.260791 -0.178618 1.38184e-19)
(0.305462 -0.109892 0)
(0.113435 -0.227231 -7.37249e-21)
(0.160294 -0.260433 0)
(0.189897 -0.266553 0)
(0.222295 -0.243552 0)
(0.261723 -0.199384 -1.34866e-19)
(0.314183 -0.142065 0)
(0.115993 -0.240951 2.92842e-20)
(0.154998 -0.26858 -1.50849e-20)
(0.182488 -0.277299 -2.2773e-20)
(0.217159 -0.259662 -3.20878e-19)
(0.261909 -0.22367 -2.27407e-19)
(0.320265 -0.17705 0)
(0.117705 -0.251802 -9.32419e-19)
(0.148751 -0.275933 -4.43105e-19)
(0.174703 -0.288615 -6.68247e-20)
(0.211571 -0.27771 5.92726e-19)
(0.26092 -0.250732 2.8891e-19)
(0.324103 -0.214263 0)
(0.118293 -0.259598 9.59936e-19)
(0.141463 -0.282611 4.38361e-19)
(0.166213 -0.300403 0)
(0.205075 -0.297305 -2.9118e-19)
(0.258448 -0.280028 6.18004e-20)
(0.325934 -0.253414 -5.64352e-20)
(0.117417 -0.264302 0)
(0.133075 -0.288653 9.31424e-19)
(0.156764 -0.312506 -4.28859e-20)
(0.197292 -0.318078 3.61769e-20)
(0.254233 -0.311121 4.92202e-19)
(0.325882 -0.294392 4.353e-19)
(0.114722 -0.265952 5.79814e-20)
(0.123559 -0.294042 -9.06667e-19)
(0.146173 -0.324707 -7.31631e-19)
(0.187905 -0.339643 0)
(0.248047 -0.343652 -4.89365e-19)
(0.323989 -0.337178 -4.33148e-19)
(0.109922 -0.264649 0)
(0.112917 -0.298691 -9.47894e-19)
(0.134332 -0.336724 7.74497e-19)
(0.176675 -0.361575 -1.40983e-19)
(0.23966 -0.377273 6.14736e-20)
(0.320183 -0.381771 -4.2196e-19)
(0.102845 -0.260521 0)
(0.101225 -0.302428 1.93178e-18)
(0.121216 -0.348187 6.93915e-19)
(0.163426 -0.383351 -5.64508e-19)
(0.228814 -0.411562 4.77621e-19)
(0.31431 -0.428183 3.19648e-19)
(0.0934758 -0.253678 -2.91635e-20)
(0.0886757 -0.304978 -1.92055e-18)
(0.106914 -0.358592 -6.61229e-19)
(0.148058 -0.404304 5.66466e-19)
(0.215241 -0.44599 -5.40918e-19)
(0.306136 -0.476388 -9.97918e-20)
(0.0820312 -0.244146 2.94409e-20)
(0.0755737 -0.305898 9.88978e-19)
(0.0916212 -0.36727 -7.18364e-19)
(0.130516 -0.423583 0)
(0.198617 -0.479772 -4.76403e-19)
(0.295215 -0.526023 0)
(0.0690754 -0.231744 -1.86083e-18)
(0.0623267 -0.304515 0)
(0.0756471 -0.373322 9.00399e-20)
(0.110789 -0.440078 -2.1725e-19)
(0.178597 -0.511719 1.17846e-20)
(0.280881 -0.57649 1.04648e-19)
(0.055602 -0.215892 1.90172e-18)
(0.0494296 -0.299827 6.79611e-20)
(0.059374 -0.375574 -4.95504e-20)
(0.0888629 -0.452414 -6.04778e-19)
(0.154798 -0.540203 4.90997e-19)
(0.262235 -0.626909 0)
(0.0429675 -0.195453 0)
(0.0373547 -0.290432 0)
(0.043184 -0.37258 7.04885e-19)
(0.0646823 -0.459022 7.1153e-19)
(0.126814 -0.562928 5.02154e-19)
(0.237694 -0.675796 0)
(0.032485 -0.168961 0)
(0.0265252 -0.274621 0)
(0.0275008 -0.362782 8.61819e-19)
(0.0383093 -0.45841 6.7669e-19)
(0.0943493 -0.57663 -1.05677e-18)
(0.204142 -0.721311 -4.93264e-19)
(0.0254091 -0.13622 -1.97964e-18)
(0.0177056 -0.250786 -1.3102e-18)
(0.0131763 -0.344749 -8.24604e-19)
(0.0105266 -0.449586 -9.18069e-19)
(0.0579552 -0.576302 6.44181e-19)
(0.154347 -0.76359 4.35899e-19)
(0.0236036 -0.0993557 1.99529e-18)
(0.012672 -0.216266 4.04652e-20)
(0.00232615 -0.316004 0)
(-0.0167086 -0.431016 0)
(0.0194781 -0.551046 0)
(0.0718338 -0.817236 8.60559e-20)
(0.0295876 -0.0512717 -3.38928e-20)
(0.0140315 -0.15114 1.60845e-18)
(-0.00658209 -0.256395 0)
(-0.0540125 -0.386528 9.37869e-19)
(0.00757138 -0.482669 -1.71609e-19)
(-0.0835057 -0.95238 2.24084e-19)
(0.418918 0.426316 -1.92621e-19)
(0.646573 0.344223 5.63088e-20)
(0.72874 0.281982 -2.00759e-19)
(0.788329 0.227676 -9.10655e-20)
(0.828705 0.189548 -7.4972e-20)
(0.860854 0.16186 1.24631e-19)
(0.887055 0.141048 -2.21908e-19)
(0.908841 0.124564 1.94159e-22)
(0.927044 0.110899 -1.77171e-19)
(0.942314 0.099141 2.10902e-21)
(0.955119 0.0888112 0)
(0.96584 0.0795785 0)
(0.974763 0.0711766 6.51085e-20)
(0.982107 0.0633849 -6.22728e-20)
(0.988045 0.0560287 -1.17016e-19)
(0.99272 0.0489892 5.6986e-20)
(0.996266 0.0422138 1.08271e-21)
(0.998809 0.0357071 1.57227e-19)
(1.00048 0.0294938 -2.02488e-19)
(1.00145 0.0235707 0)
(1.0018 0.0179068 1.88121e-19)
(1.00132 0.0125738 4.57739e-22)
(0.99942 0.00788293 4.48293e-20)
(0.996963 0.00379487 -4.88703e-21)
(0.367376 0.317754 -7.1022e-20)
(0.594079 0.286568 3.08171e-19)
(0.689498 0.240874 5.08985e-19)
(0.758324 0.196131 8.25769e-20)
(0.805004 0.163481 2.29531e-19)
(0.841333 0.1393 -1.31232e-19)
(0.870528 0.121005 -5.37386e-20)
(0.8946 0.106528 6.18463e-22)
(0.914656 0.0945709 0)
(0.931476 0.0843214 0)
(0.945596 0.0753583 -7.54265e-20)
(0.95746 0.067392 2.12017e-19)
(0.9674 0.0601841 -1.33978e-19)
(0.975667 0.0535348 6.34691e-20)
(0.982456 0.0472837 6.01361e-20)
(0.987928 0.0413198 -1.15959e-19)
(0.992225 0.0355914 -5.55917e-20)
(0.995478 0.0300973 -1.60948e-19)
(0.997824 0.0248546 0)
(0.999412 0.0198588 5.00211e-20)
(1.00035 0.0150796 0)
(1.00049 0.0105437 -1.85636e-19)
(0.999481 0.00643844 -4.47553e-20)
(0.997947 0.00279252 2.02456e-19)
(0.366286 0.227889 3.05683e-19)
(0.562434 0.224575 1.15614e-20)
(0.660174 0.194842 -4.23822e-19)
(0.7334 0.160578 0)
(0.784526 0.134198 5.02521e-21)
(0.824192 0.11415 6.57814e-20)
(0.855924 0.0988246 -5.97805e-20)
(0.881988 0.0866831 2.06047e-19)
(0.903684 0.0766866 0)
(0.921902 0.0681573 0)
(0.937226 0.0607461 -7.68358e-20)
(0.950135 0.0542046 2.17044e-19)
(0.960998 0.0483295 -7.528e-23)
(0.970096 0.0429479 -1.27945e-19)
(0.977647 0.0379183 0)
(0.983828 0.0331398 5.81033e-20)
(0.988787 0.0285602 0)
(0.992661 0.0241703 -5.44378e-20)
(0.995587 0.0199777 4.50415e-22)
(0.997708 0.0159768 5.09978e-20)
(0.999129 0.0121408 4.8935e-20)
(0.9998 0.0084702 -4.72916e-20)
(0.999531 0.005069 4.58145e-20)
(0.998765 0.00200056 -2.0234e-19)
(0.375285 0.15359 -4.10854e-19)
(0.543156 0.164653 -2.51428e-19)
(0.639298 0.147351 2.67049e-19)
(0.713858 0.122661 -4.82006e-20)
(0.767742 0.102547 -7.69615e-20)
(0.809833 0.0868965 2.30393e-21)
(0.843577 0.0748191 9.11745e-22)
(0.871292 0.0652524 -5.09436e-20)
(0.894378 0.0574103 4.7487e-20)
(0.913797 0.0507671 0)
(0.930166 0.0450568 3.96695e-20)
(0.943992 0.0400787 -3.68848e-20)
(0.955665 0.0356639 -3.47056e-20)
(0.965486 0.0316661 3.17132e-20)
(0.973694 0.0279644 6.15986e-20)
(0.980478 0.0244705 -5.95986e-20)
(0.985995 0.0211321 2.86667e-20)
(0.990387 0.0179301 1.09678e-19)
(0.993791 0.0148616 -1.06201e-19)
(0.996345 0.0119192 0)
(0.998159 0.0090819 4.94577e-20)
(0.999248 0.00634032 -4.78989e-20)
(0.99956 0.00374809 -1.37902e-19)
(0.999388 0.00137251 1.64709e-19)
(0.385629 0.0898286 1.70373e-19)
(0.531352 0.108276 -1.66626e-20)
(0.624889 0.100054 0)
(0.699239 0.0835276 0)
(0.754684 0.0693081 -3.94955e-20)
(0.798414 0.0580597 -6.9093e-20)
(0.833672 0.0493504 5.99278e-20)
(0.862703 0.0424959 -7.89998e-20)
(0.886938 0.0369374 4.6216e-22)
(0.907357 0.0323064 -6.49061e-20)
(0.924591 0.0284165 7.98122e-22)
(0.939173 0.0251146 3.67861e-20)
(0.951511 0.0222634 -5.18762e-20)
(0.961926 0.0197453 -3.26051e-20)
(0.970668 0.017463 0)
(0.977937 0.0153411 0)
(0.983896 0.0133262 2.87467e-20)
(0.988692 0.0113878 -4.17388e-20)
(0.992462 0.00951169 -1.33942e-20)
(0.995343 0.00768777 5.14201e-20)
(0.997448 0.00590231 -6.21834e-20)
(0.998841 0.00414735 4.79529e-20)
(0.99956 0.00244967 -1.497e-23)
(0.999792 0.000856403 -3.11604e-20)
(0.394394 0.0324165 -1.92348e-20)
(0.524461 0.0550989 3.95658e-21)
(0.615387 0.0535376 -3.61007e-21)
(0.688896 0.0438687 -5.8582e-21)
(0.745132 0.0350804 -4.59291e-20)
(0.789925 0.0280833 -8.87668e-21)
(0.826292 0.0227305 -7.68741e-21)
(0.856347 0.0186404 0)
(0.881497 0.0154513 0)
(0.902712 0.012936 0)
(0.920633 0.0109674 -5.04299e-21)
(0.935805 0.00943145 9.23646e-21)
(0.948655 0.00822536 8.57565e-21)
(0.959516 0.00726312 0)
(0.96865 0.00647302 3.93239e-21)
(0.976267 0.00579263 0)
(0.982539 0.00516835 -3.62245e-21)
(0.987613 0.0045581 -2.08506e-20)
(0.991629 0.00393466 2.01239e-20)
(0.994723 0.00328391 0)
(0.997014 0.00259943 -1.99469e-23)
(0.998591 0.00188155 2.41058e-20)
(0.999526 0.00114383 -1.16568e-20)
(0.999961 0.00039795 -1.04145e-20)
(0.401426 -0.0207963 2.83551e-20)
(0.520875 0.0042576 -2.42807e-20)
(0.609668 0.00784148 1.44969e-20)
(0.682213 0.00406476 -4.86242e-20)
(0.738823 0.000237369 -3.13217e-20)
(0.784324 -0.00273055 4.45586e-20)
(0.821492 -0.00479287 7.67444e-21)
(0.852309 -0.0061014 2.72047e-20)
(0.878146 -0.00685888 2.43411e-20)
(0.899954 -0.00718402 2.17395e-20)
(0.918377 -0.00715578 -1.5726e-20)
(0.933973 -0.00685258 -1.89558e-20)
(0.947176 -0.00634522 1.75174e-20)
(0.95833 -0.00569036 0)
(0.967708 -0.00493449 -3.92794e-21)
(0.975531 -0.00412307 0)
(0.981975 -0.00330697 3.61859e-21)
(0.987192 -0.00253884 -2.78332e-20)
(0.991325 -0.00186015 2.69644e-20)
(0.994512 -0.00129046 0)
(0.996877 -0.000827847 -2.49694e-20)
(0.998517 -0.000460471 1.20736e-20)
(0.999457 -0.000199835 0)
(0.999888 -6.09229e-05 1.04486e-20)
(0.407226 -0.0712891 -1.14807e-19)
(0.519635 -0.0450639 -3.35363e-20)
(0.606953 -0.0372086 0)
(0.678717 -0.0357894 4.84345e-20)
(0.735568 -0.0350516 4.1532e-20)
(0.781564 -0.0341693 -7.05007e-20)
(0.819292 -0.0329897 3.18256e-20)
(0.850642 -0.0315098 -8.06366e-20)
(0.876953 -0.0297945 -2.25185e-20)
(0.899155 -0.0278785 4.4959e-20)
(0.917897 -0.0258002 6.0225e-20)
(0.933743 -0.0236058 -8.48833e-22)
(0.947136 -0.021337 -5.28777e-20)
(0.958427 -0.0190223 0)
(0.967899 -0.0166831 0)
(0.975777 -0.0143463 0)
(0.982246 -0.0120569 0)
(0.987464 -0.00987509 -5.55031e-20)
(0.991577 -0.00785614 2.73359e-22)
(0.994729 -0.00602688 5.18176e-20)
(0.997046 -0.00438006 0)
(0.998597 -0.00289832 1.08373e-19)
(0.999376 -0.00161069 -9.32316e-20)
(0.999577 -0.000577312 -1.04539e-20)
(0.412111 -0.120377 1.14006e-19)
(0.52023 -0.093564 -3.00207e-20)
(0.606801 -0.081915 1.12603e-19)
(0.678133 -0.0757698 -4.9941e-20)
(0.735225 -0.0707019 0)
(0.781583 -0.0660633 -1.42903e-19)
(0.819691 -0.061665 0)
(0.85138 -0.0573878 0)
(0.877969 -0.0531711 4.78852e-20)
(0.900376 -0.0489784 -1.32877e-19)
(0.919257 -0.0448133 0)
(0.93518 -0.0406925 7.44293e-20)
(0.948597 -0.0366309 -1.38587e-19)
(0.959866 -0.0326309 6.62588e-20)
(0.969275 -0.0286889 8.56788e-23)
(0.977057 -0.0248119 6.00448e-20)
(0.983404 -0.0210343 -5.71334e-20)
(0.988477 -0.0174195 5.50234e-20)
(0.992429 -0.0140345 5.30334e-20)
(0.995412 -0.0109156 -5.1428e-20)
(0.997557 -0.00805442 9.92838e-20)
(0.998888 -0.0054376 -4.81318e-20)
(0.999282 -0.00312989 9.27476e-20)
(0.999041 -0.0012086 0)
(0.416291 -0.168946 0)
(0.522378 -0.141865 6.31001e-20)
(0.608975 -0.126645 -2.80592e-19)
(0.680292 -0.115992 9.86136e-20)
(0.737699 -0.106677 8.55494e-20)
(0.784349 -0.0982963 1.42951e-19)
(0.822697 -0.0906633 0)
(0.854556 -0.0835641 2.14574e-19)
(0.881242 -0.0768177 -1.94342e-19)
(0.903671 -0.0703213 9.08793e-20)
(0.922512 -0.0640448 8.14963e-20)
(0.93834 -0.0579766 -7.43779e-20)
(0.951615 -0.0521058 6.93819e-20)
(0.962701 -0.0464104 0)
(0.971891 -0.0408625 -1.23416e-19)
(0.979423 -0.0354477 0)
(0.985494 -0.0301855 5.69778e-20)
(0.990273 -0.0251361 -1.09182e-19)
(0.993918 -0.0203751 5.21967e-20)
(0.996591 -0.0159477 -9.96209e-22)
(0.998432 -0.011848 -9.82702e-20)
(0.999398 -0.00808102 9.51093e-20)
(0.999204 -0.00477893 -1.83873e-19)
(0.998303 -0.00201001 0)
(0.419925 -0.217759 -3.6634e-19)
(0.525957 -0.190544 6.5906e-20)
(0.613386 -0.171759 1.98297e-21)
(0.685138 -0.156616 -1.92549e-19)
(0.742974 -0.142996 0)
(0.789875 -0.130791 2.79099e-19)
(0.828343 -0.119851 -6.33887e-21)
(0.860216 -0.109876 -2.20253e-19)
(0.886822 -0.100565 -1.92677e-19)
(0.909095 -0.0917417 1.74074e-19)
(0.927717 -0.0833387 -8.06555e-20)
(0.943276 -0.0753145 7.22505e-20)
(0.95624 -0.0676324 -2.05803e-19)
(0.96698 -0.0602462 -6.36773e-20)
(0.975794 -0.0531048 2.42656e-19)
(0.982922 -0.046171 -5.93086e-20)
(0.988566 -0.0394456 -5.53679e-20)
(0.992899 -0.0329789 5.41297e-20)
(0.996086 -0.0268487 0)
(0.998304 -0.0211074 1.49483e-19)
(0.999699 -0.0157545 -3.39042e-19)
(1.00015 -0.0108327 2.34302e-19)
(0.99917 -0.00658266 -4.51406e-20)
(0.997397 -0.00303352 -4.05817e-20)
(0.423176 -0.267494 -2.86516e-19)
(0.530965 -0.240164 0)
(0.62007 -0.217634 2.20687e-19)
(0.692732 -0.197824 0)
(0.751117 -0.179696 -1.58784e-19)
(0.798228 -0.163484 -2.74991e-19)
(0.836694 -0.149099 -1.18635e-19)
(0.868418 -0.136162 2.16542e-19)
(0.894765 -0.12424 1.88029e-19)
(0.916699 -0.113067 0)
(0.934921 -0.10253 0)
(0.950034 -0.0925538 7.26764e-20)
(0.962518 -0.083072 -6.52474e-20)
(0.972749 -0.0740145 6.35556e-20)
(0.981028 -0.0653069 -6.02148e-20)
(0.987598 -0.0568889 -1.70283e-19)
(0.992663 -0.0487391 5.51646e-20)
(0.9964 -0.0408913 0)
(0.998978 -0.0334179 2.02856e-19)
(1.00059 -0.0263729 -3.92852e-19)
(1.00139 -0.019764 2.38056e-19)
(1.00117 -0.0136941 4.61086e-22)
(0.99921 -0.00856128 -1.33526e-19)
(0.996365 -0.00432436 4.06629e-20)
(0.426194 -0.318758 6.47633e-19)
(0.537517 -0.291257 -6.42056e-20)
(0.629192 -0.264665 0)
(0.703247 -0.239805 4.6017e-19)
(0.762273 -0.216815 -8.28816e-20)
(0.809527 -0.196309 -1.29047e-19)
(0.847843 -0.178275 1.23152e-19)
(0.879237 -0.162251 1.02672e-19)
(0.905133 -0.147657 -2.83722e-19)
(0.926536 -0.134113 1.66169e-19)
(0.94417 -0.121443 -3.02927e-19)
(0.958657 -0.109529 1.43271e-19)
(0.970486 -0.0982743 2.54873e-21)
(0.980043 -0.0875803 1.24469e-19)
(0.987629 -0.0773496 0)
(0.99349 -0.067498 2.22247e-19)
(0.997827 -0.05798 -1.05341e-19)
(1.00082 -0.0488074 2.04864e-19)
(1.00264 -0.0400383 -1.99e-19)
(1.00349 -0.0317204 0)
(1.00355 -0.0238669 -9.16399e-20)
(1.0025 -0.0166572 3.60196e-19)
(0.999346 -0.010689 -4.3793e-19)
(0.995299 -0.00594773 3.17127e-19)
(0.429147 -0.372125 0)
(0.545881 -0.344313 -1.18988e-19)
(0.641068 -0.313239 -3.08229e-19)
(0.716961 -0.282735 -9.61675e-21)
(0.77667 -0.254376 -1.53311e-19)
(0.823945 -0.229185 5.46588e-19)
(0.861915 -0.207233 -2.35319e-19)
(0.892763 -0.187955 3.07689e-19)
(0.917993 -0.170614 0)
(0.938658 -0.154676 -1.6641e-19)
(0.955506 -0.139882 1.51622e-19)
(0.969176 -0.12606 -1.3573e-19)
(0.980173 -0.113074 0)
(0.988887 -0.100796 0)
(0.995622 -0.0891017 0)
(1.00062 -0.0778839 -3.01561e-21)
(1.00408 -0.0670713 1.04894e-19)
(1.00618 -0.0566496 9.82083e-20)
(1.00709 -0.0466543 -9.48168e-20)
(1.00703 -0.0371146 0)
(1.00617 -0.0280381 0)
(1.00413 -0.0196863 -2.65559e-19)
(0.999617 -0.0129211 2.52765e-19)
(0.994339 -0.0079634 -2.89314e-19)
(0.43224 -0.428129 7.15267e-20)
(0.556483 -0.399769 0)
(0.65617 -0.363659 4.18023e-19)
(0.734268 -0.326748 -5.37908e-19)
(0.794619 -0.292366 -3.10397e-19)
(0.841708 -0.261998 -2.65116e-19)
(0.879065 -0.235796 -1.06896e-19)
(0.909097 -0.213062 -2.02638e-19)
(0.933417 -0.192882 3.558e-19)
(0.95311 -0.174529 4.41479e-22)
(0.968956 -0.15763 -1.47738e-19)
(0.981612 -0.141946 1.3575e-19)
(0.991592 -0.12729 -1.21883e-19)
(0.999292 -0.113498 -3.44847e-19)
(1.00502 -0.100418 3.29019e-19)
(1.009 -0.0879187 -1.06044e-19)
(1.01145 -0.075902 9.82672e-20)
(1.01251 -0.0643259 -2.89652e-19)
(1.01236 -0.0531974 1.89532e-19)
(1.01122 -0.0425169 0)
(1.0093 -0.0322748 8.54423e-20)
(1.00613 -0.0228214 -5.10216e-19)
(1.00012 -0.0153545 6.56693e-19)
(0.993518 -0.010331 4.92391e-20)
(0.435732 -0.487217 -5.82412e-19)
(0.569918 -0.457975 1.19004e-19)
(0.675139 -0.416123 -3.87949e-19)
(0.755702 -0.37189 3.50535e-19)
(0.816531 -0.330705 4.47144e-19)
(0.863105 -0.294579 1.18226e-19)
(0.89948 -0.263745 -2.06996e-19)
(0.928359 -0.237327 1.0501e-21)
(0.95147 -0.214203 1.68463e-19)
(0.969924 -0.193417 1.57202e-19)
(0.984533 -0.174448 0)
(0.995964 -0.156965 -1.26232e-19)
(1.00474 -0.14072 1.21832e-19)
(1.01125 -0.125506 1.14004e-19)
(1.01581 -0.111139 1.02454e-19)
(1.01863 -0.0974609 -3.00507e-19)
(1.01991 -0.0843481 -3.66752e-21)
(1.01981 -0.0717302 -9.06111e-20)
(1.01847 -0.059583 1.78363e-19)
(1.01612 -0.0478701 0)
(1.01297 -0.0365522 -3.20563e-21)
(1.00853 -0.0260686 1.62903e-19)
(1.00092 -0.018013 0)
(0.992889 -0.0130395 -7.38511e-20)
(0.440062 -0.54987 3.99773e-19)
(0.586988 -0.51917 5.40812e-19)
(0.698805 -0.470655 3.88779e-19)
(0.781942 -0.418055 3.18085e-19)
(0.842912 -0.369197 -1.38242e-19)
(0.888476 -0.326676 1.13341e-19)
(0.923375 -0.290791 1.01281e-20)
(0.950667 -0.260454 3.63699e-19)
(0.972202 -0.234279 -1.75218e-19)
(0.989112 -0.211057 -6.58797e-21)
(1.00223 -0.190069 -1.32883e-19)
(1.01221 -0.170873 2.51638e-19)
(1.01958 -0.153144 0)
(1.02474 -0.136623 0)
(1.02797 -0.12109 0)
(1.02949 -0.106356 2.89359e-19)
(1.02948 -0.092274 -5.51284e-19)
(1.02808 -0.078745 2.67536e-19)
(1.02543 -0.0657138 -8.70473e-20)
(1.02174 -0.0531028 -4.097e-19)
(1.01723 -0.0408321 5.5896e-19)
(1.0114 -0.0294239 -7.06966e-19)
(1.00209 -0.0209072 3.77097e-19)
(0.992511 -0.0160776 0)
(0.445787 -0.616534 0)
(0.60879 -0.583308 -1.30096e-19)
(0.728216 -0.526986 4.33762e-19)
(0.813807 -0.464899 -2.26174e-20)
(0.87435 -0.407467 1.30776e-19)
(0.918203 -0.357912 -3.59912e-19)
(0.950972 -0.316565 -1.95582e-19)
(0.976128 -0.282083 -1.0836e-20)
(0.995643 -0.25277 1.52084e-19)
(1.01066 -0.227129 -1.44828e-19)
(1.022 -0.204202 0)
(1.0303 -0.183406 0)
(1.03607 -0.164325 0)
(1.0397 -0.146638 9.93342e-20)
(1.04145 -0.130082 9.36896e-20)
(1.04154 -0.11444 -1.81978e-19)
(1.04012 -0.0995342 2.64943e-19)
(1.03732 -0.0852431 0)
(1.03325 -0.0714811 1.61581e-19)
(1.02811 -0.058128 -7.69876e-20)
(1.02214 -0.0450569 0)
(1.01478 -0.0328625 0)
(1.00372 -0.0240236 -7.46107e-20)
(0.992449 -0.0194207 -2.31691e-19)
(0.453647 -0.687342 -1.09616e-19)
(0.636685 -0.649937 -2.98378e-19)
(0.764637 -0.584371 -6.51678e-19)
(0.852234 -0.511724 -2.97918e-19)
(0.911484 -0.444884 1.21793e-19)
(0.952675 -0.387744 -1.11702e-19)
(0.982475 -0.340592 1.97077e-19)
(1.00482 -0.30179 -4.96914e-19)
(1.02178 -0.269293 -1.98466e-21)
(1.03451 -0.241286 0)
(1.04376 -0.216531 -1.1972e-19)
(1.05014 -0.19428 3.33079e-19)
(1.05412 -0.174008 -1.03557e-19)
(1.05605 -0.155323 -3.87578e-19)
(1.05619 -0.137917 -7.46137e-22)
(1.05473 -0.121535 -2.57616e-19)
(1.05179 -0.105975 -1.64612e-19)
(1.04749 -0.0910896 1.59207e-19)
(1.04192 -0.0767668 -7.43988e-20)
(1.03526 -0.062846 -2.95376e-19)
(1.02771 -0.0491512 3.57601e-19)
(1.01874 -0.0363384 0)
(1.0059 -0.027326 0)
(0.99277 -0.023037 0)
(0.464851 -0.762157 -9.94343e-20)
(0.67242 -0.718028 -2.22725e-19)
(0.809496 -0.641403 3.10491e-19)
(0.8982 -0.557337 0)
(0.954919 -0.480492 2.12777e-19)
(0.992231 -0.415419 0)
(1.01804 -0.362269 -1.66806e-19)
(1.03675 -0.319078 3.0949e-19)
(1.05056 -0.283422 -2.68072e-19)
(1.06055 -0.253151 2.45424e-19)
(1.0674 -0.226725 1.08837e-19)
(1.0716 -0.2032 -1.03433e-19)
(1.07359 -0.18193 1.97796e-19)
(1.07367 -0.162447 6.14371e-21)
(1.07207 -0.144387 1.70841e-19)
(1.06895 -0.127459 8.37325e-20)
(1.06442 -0.111435 0)
(1.05856 -0.0961426 7.21753e-20)
(1.05142 -0.0814458 7.40876e-20)
(1.04317 -0.0671473 0)
(1.03399 -0.0530239 -6.94439e-20)
(1.02332 -0.0397829 -2.69513e-19)
(1.00868 -0.0307514 5.86901e-19)
(0.993545 -0.0268782 -2.47113e-19)
(0.481647 -0.840925 5.87184e-20)
(0.718244 -0.785633 2.46611e-19)
(0.86425 -0.695741 2.85383e-19)
(0.95257 -0.599893 3.1122e-19)
(1.00512 -0.512925 -3.15273e-19)
(1.03709 -0.439935 0)
(1.0577 -0.380852 8.97747e-20)
(1.07187 -0.333378 5.65375e-20)
(1.08185 -0.2947 2.5327e-19)
(1.08863 -0.262334 -1.08085e-20)
(1.09271 -0.234444 -1.09404e-19)
(1.09449 -0.209868 -3.54825e-21)
(1.0943 -0.187829 9.06724e-20)
(1.09239 -0.167774 1.68705e-19)
(1.08895 -0.149282 -2.41477e-19)
(1.0841 -0.132026 1.52059e-19)
(1.07791 -0.115749 0)
(1.07044 -0.100255 6.6972e-20)
(1.0617 -0.0853871 -1.34641e-19)
(1.05183 -0.070915 6.27782e-20)
(1.04097 -0.0565726 0)
(1.02856 -0.0431085 5.9952e-20)
(1.01214 -0.0342139 1.84175e-19)
(0.994844 -0.0308796 -2.34475e-19)
(0.508865 -0.924908 -6.93005e-20)
(0.77706 -0.849038 1.80914e-19)
(0.93021 -0.743723 -1.73533e-19)
(1.01587 -0.636724 -2.93713e-19)
(1.06226 -0.540321 -6.65043e-20)
(1.08724 -0.460016 0)
(1.10135 -0.395452 0)
(1.10999 -0.344045 -1.34808e-19)
(1.11542 -0.302638 -2.28668e-19)
(1.11849 -0.268444 -1.1622e-20)
(1.11946 -0.239358 9.53623e-20)
(1.11857 -0.213997 -1.82346e-19)
(1.11603 -0.191451 0)
(1.11202 -0.171077 -8.12679e-20)
(1.10665 -0.152399 0)
(1.10001 -0.135052 -1.40059e-19)
(1.09213 -0.11875 1.99007e-19)
(1.08303 -0.103278 0)
(1.0727 -0.0884555 1.2449e-19)
(1.0612 -0.0740266 -6.31185e-20)
(1.04865 -0.0596868 -1.17397e-19)
(1.03448 -0.0462143 1.76321e-19)
(1.0163 -0.0376104 4.24495e-21)
(0.996733 -0.0349597 -1.68044e-19)
(0.546185 -1.01877 -1.32825e-19)
(0.849283 -0.899835 -1.3944e-19)
(1.00729 -0.779407 6.58341e-20)
(1.08775 -0.66401 -3.18052e-20)
(1.12591 -0.560239 1.5152e-19)
(1.14228 -0.474095 1.76917e-19)
(1.14861 -0.40505 -5.92114e-20)
(1.15075 -0.350387 0)
(1.15094 -0.306743 2.01876e-19)
(1.14979 -0.271107 -9.91618e-20)
(1.14732 -0.241163 0)
(1.14354 -0.215327 0)
(1.13851 -0.192564 0)
(1.13229 -0.172147 0)
(1.12494 -0.153547 0)
(1.11649 -0.13636 -6.15422e-20)
(1.10692 -0.120276 -6.44441e-20)
(1.0962 -0.10506 0)
(1.0843 -0.090513 5.51769e-20)
(1.07121 -0.0763556 -5.34906e-20)
(1.05699 -0.0622504 5.19541e-20)
(1.04109 -0.0489903 1.09615e-19)
(1.02119 -0.0408255 -1.59179e-19)
(0.999264 -0.0390219 -2.03458e-19)
(0.595588 -1.17249 1.3273e-19)
(0.943563 -0.937672 -7.84635e-20)
(1.09647 -0.797737 0)
(1.167 -0.677476 2.27239e-20)
(1.19486 -0.569877 -2.0882e-20)
(1.20121 -0.480422 -1.13338e-19)
(1.19875 -0.408556 -4.91731e-20)
(1.19359 -0.351712 4.07916e-21)
(1.18792 -0.306549 -9.4374e-20)
(1.18212 -0.269991 4.42836e-20)
(1.17591 -0.239596 -7.58199e-20)
(1.16905 -0.21364 0)
(1.1614 -0.190975 -3.18549e-20)
(1.15292 -0.170806 -3.0371e-20)
(1.14357 -0.152555 -2.90531e-20)
(1.13331 -0.135788 6.16213e-20)
(1.12207 -0.120172 -2.68714e-20)
(1.10979 -0.105454 -2.59837e-20)
(1.09637 -0.0914196 5.03201e-20)
(1.08176 -0.0777712 -4.89775e-20)
(1.06594 -0.0641422 -1.51946e-19)
(1.04835 -0.0513203 9.78735e-20)
(1.02681 -0.0437343 5.27069e-20)
(1.00247 -0.0429568 1.33968e-19)
(-0.0537534 -0.178173 2.35341e-20)
(-0.100472 -0.327224 0)
(-0.142804 -0.502235 6.3418e-20)
(-0.135891 -0.5461 -1.34274e-18)
(-0.101933 -0.577874 9.3877e-20)
(0.0335497 -0.31457 -7.34775e-19)
(-0.112938 -0.235096 7.31632e-19)
(-0.157997 -0.390009 -3.65964e-20)
(-0.174894 -0.544832 2.86267e-20)
(-0.14173 -0.580017 4.14186e-19)
(-0.0769877 -0.60006 0)
(0.0381616 -0.396148 0)
(-0.163424 -0.239912 -1.43201e-18)
(-0.195423 -0.391295 0)
(-0.191355 -0.525851 5.29893e-19)
(-0.134542 -0.551087 -4.60635e-19)
(-0.0423007 -0.572921 3.53353e-19)
(0.0847511 -0.409833 3.08e-19)
(-0.214374 -0.230015 6.96164e-19)
(-0.225949 -0.374006 3.19864e-19)
(-0.200909 -0.488498 -4.77797e-19)
(-0.125837 -0.507466 5.98209e-19)
(-0.0100508 -0.531923 -3.45992e-19)
(0.138329 -0.403383 -7.77979e-20)
(-0.259256 -0.215994 0)
(-0.251679 -0.347621 -1.27723e-19)
(-0.209468 -0.443345 0)
(-0.120477 -0.45889 -1.70933e-19)
(0.0151371 -0.479958 -2.17977e-20)
(0.183429 -0.385803 -2.33172e-19)
(-0.299526 -0.202267 0)
(-0.274381 -0.317101 -1.60062e-19)
(-0.219081 -0.395058 -3.50244e-21)
(-0.119647 -0.407561 2.97322e-21)
(0.031532 -0.421638 0)
(0.21405 -0.357133 7.80617e-20)
(-0.334751 -0.190491 0)
(-0.295289 -0.284832 2.30755e-20)
(-0.230583 -0.345879 6.40873e-21)
(-0.12385 -0.354125 0)
(0.0363915 -0.361396 -1.77882e-19)
(0.231921 -0.316212 0)
(-0.363768 -0.180713 5.79252e-21)
(-0.315056 -0.25201 0)
(-0.244165 -0.296834 0)
(-0.13331 -0.299266 0)
(0.0308213 -0.299913 1.74721e-19)
(0.235493 -0.26533 0)
(-0.388002 -0.169452 -2.40661e-20)
(-0.33299 -0.22085 1.47166e-20)
(-0.259597 -0.248497 2.67292e-20)
(-0.147848 -0.24364 4.06856e-19)
(0.0158821 -0.237483 3.09632e-19)
(0.224557 -0.207674 0)
(-0.405572 -0.160076 7.584e-19)
(-0.349655 -0.190161 4.47263e-19)
(-0.27651 -0.201161 7.73231e-20)
(-0.167017 -0.187836 -7.49844e-19)
(-0.00748415 -0.174642 -3.9046e-19)
(0.200114 -0.146072 0)
(-0.416605 -0.151438 -7.8315e-19)
(-0.364921 -0.159849 -4.3955e-19)
(-0.294516 -0.155052 0)
(-0.190182 -0.132443 3.71162e-19)
(-0.0383345 -0.112145 -8.66492e-20)
(0.163225 -0.0829559 7.9187e-20)
(-0.421047 -0.142556 0)
(-0.378607 -0.130081 -9.26796e-19)
(-0.313171 -0.110392 5.12376e-20)
(-0.216549 -0.0780794 -4.45522e-20)
(-0.0755823 -0.0509131 -6.73569e-19)
(0.115352 -0.020449 -6.20056e-19)
(-0.419243 -0.132507 -4.87997e-20)
(-0.39043 -0.101105 8.86048e-19)
(-0.33193 -0.0674033 8.3537e-19)
(-0.245183 -0.0254031 0)
(-0.117935 0.00805259 6.65488e-19)
(0.0583141 0.0396443 6.1189e-19)
(-0.411711 -0.120669 0)
(-0.400019 -0.0730898 9.0742e-19)
(-0.350186 -0.0263354 -8.83425e-19)
(-0.275019 0.0249215 1.75801e-19)
(-0.163863 0.0637415 -7.98017e-20)
(-0.00575294 0.0957225 5.79485e-19)
(-0.39885 -0.106617 0)
(-0.407071 -0.0461383 -1.80974e-18)
(-0.36733 0.0125354 -7.70382e-19)
(-0.304879 0.0722417 6.90396e-19)
(-0.211615 0.11522 -6.22129e-19)
(-0.0744625 0.146357 -4.33736e-19)
(-0.381204 -0.0901231 2.32147e-20)
(-0.411284 -0.0202857 1.7489e-18)
(-0.382728 0.0489481 7.21799e-19)
(-0.333495 0.115939 -6.9112e-19)
(-0.259249 0.161658 6.94117e-19)
(-0.145195 0.190341 1.32396e-19)
(-0.359348 -0.0711467 -2.45112e-20)
(-0.412354 0.00447184 -8.84213e-19)
(-0.395772 0.0826577 7.63391e-19)
(-0.359552 0.155415 0)
(-0.304627 0.202321 5.91447e-19)
(-0.215069 0.226731 0)
(-0.333818 -0.0498946 1.43142e-18)
(-0.409937 0.0281488 0)
(-0.405888 0.113428 -1.06965e-19)
(-0.381727 0.190059 2.50697e-19)
(-0.345367 0.236532 -1.37059e-20)
(-0.281011 0.254852 -1.28992e-19)
(-0.30483 -0.0270101 -1.46121e-18)
(-0.403679 0.050879 -6.01999e-20)
(-0.412558 0.141022 3.83972e-20)
(-0.398649 0.219205 6.70639e-19)
(-0.378839 0.263597 -5.87145e-19)
(-0.339756 0.27427 0)
(-0.271938 -0.00348287 0)
(-0.393215 0.0729406 0)
(-0.41524 0.165252 -7.01964e-19)
(-0.40851 0.242668 -7.59129e-19)
(-0.402169 0.281811 -5.74273e-19)
(-0.387428 0.284704 0)
(-0.23454 0.0197404 0)
(-0.37801 0.0942344 0)
(-0.413255 0.185379 -8.24918e-19)
(-0.409931 0.256892 -6.83822e-19)
(-0.411432 0.291534 1.18087e-18)
(-0.417502 0.286195 6.15562e-19)
(-0.192109 0.0407779 1.47445e-18)
(-0.357194 0.113722 1.09043e-18)
(-0.405416 0.199526 7.6643e-19)
(-0.400813 0.261289 9.01825e-19)
(-0.404464 0.291972 -7.01483e-19)
(-0.425048 0.277264 -5.20959e-19)
(-0.144076 0.0545605 -1.48557e-18)
(-0.326808 0.129342 -3.82375e-20)
(-0.387905 0.203663 0)
(-0.375263 0.253962 0)
(-0.370864 0.280049 0)
(-0.403522 0.273205 -1.28662e-19)
(-0.0681255 0.0563258 0)
(-0.244054 0.140964 -2.49795e-18)
(-0.338426 0.216458 0)
(-0.316597 0.235646 -8.01564e-19)
(-0.298636 0.229214 0)
(-0.387755 0.203529 0)
(0.740065 -1.02859 -6.86999e-20)
(1.06557 -0.909455 -2.80726e-20)
(1.19492 -0.788577 3.61712e-20)
(1.2506 -0.672303 -5.65758e-21)
(1.26664 -0.566672 8.81589e-21)
(1.26236 -0.477479 -3.61283e-20)
(1.2506 -0.405042 -4.60378e-21)
(1.23768 -0.34743 1.1401e-19)
(1.22574 -0.301675 -7.11298e-20)
(1.21495 -0.264836 7.13492e-20)
(1.20478 -0.234465 0)
(1.1947 -0.208771 6.33417e-20)
(1.18437 -0.186536 -2.73741e-20)
(1.1736 -0.166909 3.05113e-20)
(1.16225 -0.149279 -2.56726e-22)
(1.15021 -0.133188 2.45723e-20)
(1.13736 -0.118288 1.02046e-19)
(1.12358 -0.104311 -7.31956e-20)
(1.10874 -0.0910305 1.91988e-19)
(1.09272 -0.0781355 -9.33148e-20)
(1.07541 -0.0652344 0)
(1.05624 -0.0530819 0)
(1.03314 -0.0462009 2.24439e-20)
(1.00638 -0.046643 5.94079e-20)
(0.769741 -0.802097 5.49291e-20)
(1.1647 -0.842652 -2.03912e-19)
(1.28781 -0.751286 -1.35474e-19)
(1.33173 -0.647493 1.40443e-20)
(1.33741 -0.549937 -1.19785e-21)
(1.32344 -0.46464 -1.55698e-20)
(1.30268 -0.393998 -1.64624e-20)
(1.28196 -0.33719 2.55286e-21)
(1.26364 -0.291894 0)
(1.24771 -0.255493 0)
(1.23345 -0.225663 -2.81203e-20)
(1.22008 -0.20063 8.08001e-20)
(1.20704 -0.179152 -5.11448e-20)
(1.19398 -0.160353 2.34173e-20)
(1.18067 -0.143602 2.32409e-20)
(1.16691 -0.12843 -4.65754e-20)
(1.15253 -0.114479 -2.36808e-20)
(1.13735 -0.101475 -6.55194e-20)
(1.12121 -0.0891858 0)
(1.1039 -0.0772926 2.01637e-20)
(1.08526 -0.0653828 0)
(1.06466 -0.0541398 -8.50626e-20)
(1.04014 -0.0480661 -2.51391e-20)
(1.01099 -0.049944 1.03258e-19)
(0.744623 -0.631348 -3.3345e-19)
(1.22185 -0.75693 -4.7079e-20)
(1.36274 -0.693865 1.95327e-19)
(1.40387 -0.606473 0)
(1.40343 -0.520626 -2.06697e-20)
(1.38198 -0.442132 2.97834e-21)
(1.35339 -0.375418 -2.74532e-21)
(1.32538 -0.320939 3.33393e-20)
(1.30082 -0.277175 0)
(1.2798 -0.241947 0)
(1.26144 -0.213183 -2.29398e-20)
(1.24478 -0.189204 6.41091e-20)
(1.22905 -0.168794 -1.3876e-21)
(1.21376 -0.151081 -4.35565e-20)
(1.19855 -0.135434 0)
(1.18314 -0.121387 2.23203e-20)
(1.16732 -0.108586 0)
(1.15085 -0.0967588 -1.91006e-20)
(1.13352 -0.0856769 -4.47765e-22)
(1.11509 -0.0750299 1.79575e-20)
(1.09529 -0.0643923 1.78428e-20)
(1.07349 -0.0543193 -1.78171e-20)
(1.04777 -0.0491069 1.87286e-20)
(1.01626 -0.0526842 -6.59418e-20)