/*--------------------------------*- C++ -*----------------------------------*\
  =========                 |
  \\      /  F ield         | OpenFOAM: The Open Source CFD Toolbox
   \\    /   O peration     | Website:  https://openfoam.org
    \\  /    A nd           | Version:  11
     \\/     M anipulation  |
\*---------------------------------------------------------------------------*/
FoamFile
{
    format      ascii;
    class       surfaceVectorField;
    location    "1.94";
    object      Uf;
}
// * * * * * * * * * * * * * * * * * * * * * * * * * * * * * * * * * * * * * //

dimensions      [0 1 -1 0 0 0 0];

internalField   nonuniform List<vector> 
5640
(
(0.0749521 -0.0937345 -4.54518e-20)
(0.040733 -0.075449 -5.18868e-19)
(0.194519 -0.158025 -5.06197e-20)
(0.158563 -0.152762 -2.56317e-20)
(0.269501 -0.19166 8.03416e-19)
(0.249627 -0.199066 -1.74496e-20)
(0.276507 -0.189147 7.75288e-19)
(0.287485 -0.207599 5.99016e-19)
(0.209307 -0.147286 2.89888e-19)
(0.289375 -0.185494 -5.26109e-20)
(0.0766161 -0.0738629 3.52204e-19)
(0.141197 0.155902 4.11755e-19)
(0.107806 -0.131248 -5.27503e-19)
(0.0656263 -0.105949 4.83505e-19)
(0.209935 -0.192052 7.34508e-21)
(0.175726 -0.184396 2.26029e-20)
(0.264054 -0.208988 -2.32981e-19)
(0.242916 -0.2138 -3.02818e-19)
(0.278986 -0.188554 -2.29117e-19)
(0.274437 -0.206362 8.80458e-21)
(0.257429 -0.126673 0)
(0.2787 -0.164364 -1.75097e-19)
(0.185996 -0.0531596 -1.55322e-19)
(0.207247 0.107897 -2.96098e-20)
(0.121338 -0.155708 1.0622e-18)
(0.0815474 -0.133343 5.21597e-19)
(0.205256 -0.207792 -2.73593e-19)
(0.176375 -0.205332 -1.82094e-19)
(0.250401 -0.213177 -7.1458e-20)
(0.230105 -0.223982 -3.63907e-20)
(0.267739 -0.181542 6.7981e-20)
(0.259022 -0.20617 -5.53205e-20)
(0.26347 -0.10527 -3.30893e-19)
(0.267375 -0.152361 -1.17041e-20)
(0.23628 -0.0440373 -1.13809e-19)
(0.256112 0.0744301 -5.36912e-20)
(0.128637 -0.177924 -6.81318e-19)
(0.0932265 -0.158413 -4.81665e-19)
(0.198637 -0.220981 4.93857e-20)
(0.17391 -0.221586 -1.10288e-19)
(0.237775 -0.217983 -1.95025e-20)
(0.219027 -0.233225 2.49783e-19)
(0.257413 -0.178759 -1.36134e-19)
(0.246649 -0.208861 -2.08501e-19)
(0.267455 -0.0997133 2.09543e-19)
(0.261564 -0.150504 1.73504e-19)
(0.265842 -0.051201 1.41727e-19)
(0.290505 0.0398943 -1.0701e-19)
(0.1327 -0.197715 6.74048e-20)
(0.101564 -0.181081 0)
(0.19218 -0.232901 7.45755e-20)
(0.170553 -0.234894 1.55933e-19)
(0.227494 -0.224737 7.61621e-20)
(0.209584 -0.242309 1.61666e-21)
(0.25063 -0.182344 9.02413e-20)
(0.237494 -0.214932 7.74932e-20)
(0.272691 -0.10709 1.07385e-19)
(0.259889 -0.157119 9.54737e-21)
(0.285409 -0.0697629 6.85807e-20)
(0.314078 0.00363619 1.87655e-19)
(0.13484 -0.214915 7.9448e-20)
(0.107458 -0.201329 0)
(0.186136 -0.2437 8.94478e-20)
(0.166791 -0.246149 7.22193e-20)
(0.219177 -0.233281 3.97043e-22)
(0.201262 -0.25166 -1.48255e-21)
(0.246489 -0.191387 -1.36928e-21)
(0.230576 -0.224306 -1.33194e-21)
(0.278572 -0.123037 -3.10133e-20)
(0.260298 -0.170437 6.90921e-20)
(0.299475 -0.0955066 -3.1775e-20)
(0.330427 -0.0340186 -4.50746e-20)
(0.135698 -0.229886 -1.13856e-20)
(0.111675 -0.219083 -3.68624e-21)
(0.180296 -0.253748 -1.55742e-20)
(0.162557 -0.255901 -1.20827e-20)
(0.212146 -0.243539 -3.2039e-21)
(0.193611 -0.261506 -3.0992e-21)
(0.243747 -0.20492 6.71549e-20)
(0.224919 -0.236667 0)
(0.283957 -0.145012 7.07484e-20)
(0.261253 -0.188955 1.70755e-21)
(0.309814 -0.125873 0)
(0.342187 -0.0729063 1.18215e-20)
(0.135577 -0.242867 -3.89891e-21)
(0.114729 -0.234193 1.09559e-20)
(0.174347 -0.263376 0)
(0.157649 -0.264526 -7.54244e-21)
(0.205756 -0.255417 0)
(0.186195 -0.271941 -1.13865e-20)
(0.241422 -0.222091 -6.55426e-20)
(0.219726 -0.2516 -1.60439e-19)
(0.288158 -0.171317 -6.90498e-20)
(0.261811 -0.211492 -1.81137e-19)
(0.317215 -0.159497 0)
(0.350855 -0.1128 -4.78642e-20)
(0.134594 -0.253928 8.45615e-21)
(0.11687 -0.246471 -4.51567e-19)
(0.167984 -0.272786 -1.87654e-20)
(0.151878 -0.272272 -2.29095e-19)
(0.199432 -0.268744 -1.6687e-19)
(0.178597 -0.282965 -4.47988e-20)
(0.238818 -0.242187 -2.75392e-19)
(0.214364 -0.268681 1.35911e-19)
(0.290916 -0.200823 -1.16429e-19)
(0.261409 -0.237174 3.06929e-20)
(0.322174 -0.195611 0)
(0.357158 -0.153676 4.75301e-20)
(0.132721 -0.263074 -7.01877e-19)
(0.118018 -0.255764 1.38994e-20)
(0.160939 -0.282063 -2.63094e-19)
(0.145111 -0.279286 -2.34271e-21)
(0.192695 -0.283302 2.51659e-19)
(0.170459 -0.294512 -3.34123e-20)
(0.235431 -0.26463 4.45162e-19)
(0.208322 -0.287504 1.50781e-19)
(0.292107 -0.232847 1.47918e-19)
(0.259678 -0.265358 1.75355e-19)
(0.325008 -0.233801 -2.82176e-20)
(0.36157 -0.195611 0)
(0.129755 -0.270266 7.1458e-19)
(0.11787 -0.261991 4.79968e-19)
(0.153014 -0.291224 2.28507e-19)
(0.137271 -0.285638 6.84893e-19)
(0.185156 -0.298853 -1.40671e-19)
(0.161489 -0.306455 -2.1443e-20)
(0.230871 -0.288955 -1.19638e-19)
(0.201182 -0.307689 -1.27501e-19)
(0.291632 -0.26696 4.40377e-21)
(0.256334 -0.295555 2.77001e-19)
(0.325897 -0.273873 1.89433e-19)
(0.3644 -0.23878 -1.85638e-19)
(0.125453 -0.275515 4.38844e-19)
(0.116076 -0.265143 2.89907e-20)
(0.14406 -0.300212 4.64999e-19)
(0.128316 -0.291346 1.23841e-20)
(0.176504 -0.315135 -4.82962e-21)
(0.151468 -0.318606 -3.87259e-19)
(0.22481 -0.314758 2.57796e-19)
(0.192597 -0.328857 1.80884e-20)
(0.289388 -0.302883 4.64433e-19)
(0.251133 -0.32737 1.4931e-21)
(0.324925 -0.31576 1.19169e-21)
(0.365847 -0.283413 1.34368e-19)
(0.119648 -0.278827 -3.95948e-19)
(0.112313 -0.265284 2.89907e-20)
(0.13398 -0.308913 -8.23326e-19)
(0.118237 -0.296365 -9.2728e-19)
(0.166493 -0.331848 -3.78174e-19)
(0.14025 -0.330711 2.14086e-20)
(0.216967 -0.34167 -2.37822e-19)
(0.182287 -0.350603 -7.04913e-20)
(0.285263 -0.340419 -4.6193e-19)
(0.243849 -0.360453 -2.13946e-19)
(0.322075 -0.359453 -4.27554e-19)
(0.366029 -0.329768 1.744e-20)
(0.112318 -0.280142 -4.46604e-19)
(0.10636 -0.262546 0)
(0.122689 -0.317165 -1.23346e-19)
(0.107062 -0.300546 4.91873e-19)
(0.154961 -0.348634 3.32542e-19)
(0.12777 -0.342449 7.34206e-19)
(0.207123 -0.369293 -4.2344e-20)
(0.170049 -0.372461 -3.52745e-19)
(0.279104 -0.379386 -1.74448e-19)
(0.234236 -0.394416 2.69547e-19)
(0.317228 -0.404945 -5.13118e-20)
(0.364981 -0.378099 -2.46041e-19)
(0.103228 -0.279527 9.10165e-19)
(0.0981173 -0.257036 -1.45818e-20)
(0.110254 -0.324682 1.33918e-18)
(0.0949333 -0.303679 5.74184e-21)
(0.141804 -0.365049 8.59605e-20)
(0.114057 -0.353378 1.64003e-20)
(0.195 -0.397192 -5.80527e-20)
(0.15574 -0.393824 9.60361e-22)
(0.270618 -0.419622 4.00528e-19)
(0.222016 -0.428759 -3.15599e-20)
(0.310176 -0.452218 1.09928e-19)
(0.362689 -0.428667 2.18096e-19)
(0.0925015 -0.276895 -9.20296e-19)
(0.0876889 -0.24883 1.38707e-22)
(0.0968105 -0.331086 -1.31843e-18)
(0.0820977 -0.305404 -4.65968e-19)
(0.127019 -0.380507 -6.76593e-20)
(0.0992554 -0.362916 -6.89797e-19)
(0.180492 -0.424723 2.79354e-20)
(0.139287 -0.413943 2.83233e-19)
(0.259814 -0.460665 -3.25643e-19)
(0.206931 -0.462884 -5.08661e-19)
(0.300686 -0.501218 -4.98959e-20)
(0.35951 -0.481388 -2.9935e-19)
(0.0803938 -0.27205 4.82772e-19)
(0.0754715 -0.237855 -9.15696e-19)
(0.0826128 -0.335823 1.71633e-19)
(0.0689148 -0.305168 4.94489e-19)
(0.110692 -0.394237 -3.71317e-19)
(0.0836212 -0.370281 -3.14244e-19)
(0.163398 -0.451071 -2.31523e-19)
(0.120661 -0.431839 -1.08625e-19)
(0.24601 -0.502129 -2.43912e-19)
(0.188615 -0.495755 -2.32259e-19)
(0.288023 -0.551229 5.23239e-20)
(0.354185 -0.537166 1.66669e-19)
(0.0673876 -0.264588 -9.84094e-19)
(0.0622517 -0.223734 1.99312e-20)
(0.0680244 -0.338111 4.31042e-20)
(0.0558539 -0.302147 3.39806e-20)
(0.0929818 -0.405227 -5.76099e-20)
(0.0675174 -0.374454 2.02848e-20)
(0.143537 -0.475093 -1.05172e-19)
(0.0998635 -0.446282 -4.11014e-19)
(0.228878 -0.542976 5.59309e-20)
(0.166723 -0.525986 2.51541e-19)
(0.271544 -0.601686 5.23239e-20)
(0.347572 -0.595176 6.10191e-20)
(0.0542333 -0.253742 1.03774e-18)
(0.0492447 -0.205639 9.50861e-19)
(0.0534872 -0.336863 1.06477e-20)
(0.0434476 -0.295176 3.39806e-20)
(0.0740966 -0.412171 -3.17785e-19)
(0.0513628 -0.374148 3.28133e-19)
(0.120722 -0.49528 -7.22518e-20)
(0.076885 -0.455813 5.40006e-20)
(0.207821 -0.581864 2.51384e-19)
(0.14088 -0.551629 4.96575e-19)
(0.250015 -0.651395 0)
(0.338992 -0.655458 -4.57e-20)
(0.041875 -0.23825 0)
(0.0379236 -0.182354 0)
(0.039428 -0.33066 3.37445e-19)
(0.0321791 -0.282704 0)
(0.0542422 -0.413495 7.06348e-19)
(0.0355485 -0.367834 7.83352e-19)
(0.0947249 -0.50971 6.09777e-19)
(0.0516667 -0.458843 6.9411e-19)
(0.181958 -0.616708 2.57096e-19)
(0.110792 -0.569935 -2.78417e-19)
(0.22125 -0.6988 -2.46632e-19)
(0.327808 -0.717576 -4.14551e-20)
(0.0312469 -0.216478 0)
(0.0294893 -0.15294 -9.8982e-19)
(0.0262559 -0.317888 4.12573e-19)
(0.022342 -0.26285 -6.55099e-19)
(0.0337355 -0.407519 7.72382e-19)
(0.0203718 -0.353787 1.84396e-20)
(0.0654045 -0.516064 -1.65739e-19)
(0.0241383 -0.453818 -1.19279e-19)
(0.14988 -0.644423 -7.81772e-19)
(0.076556 -0.576727 -2.0426e-19)
(0.180454 -0.743232 -2.25824e-20)
(0.312678 -0.781508 -2.37723e-19)
(0.0234767 -0.187371 -1.66423e-18)
(0.0243943 -0.117725 7.27942e-21)
(0.0147172 -0.297134 -1.07773e-18)
(0.0142895 -0.233025 -6.39225e-19)
(0.0134904 -0.392741 -8.64746e-19)
(0.00633037 -0.329586 -4.12302e-19)
(0.0333845 -0.511487 -1.58343e-19)
(-0.00529311 -0.439075 -4.59034e-19)
(0.109265 -0.660588 5.42537e-19)
(0.0395449 -0.564135 3.22091e-19)
(0.114151 -0.791003 2.60977e-19)
(0.289871 -0.851299 2.25276e-19)
(0.0205275 -0.150406 1.07121e-18)
(0.0246769 -0.0744047 9.80696e-19)
(0.00660898 -0.266171 2.10935e-20)
(0.0118583 -0.182995 8.17459e-19)
(-0.00446751 -0.366898 0)
(-0.00307337 -0.285752 0)
(0.000675199 -0.489741 0)
(-0.0331858 -0.409802 4.68934e-19)
(0.0563075 -0.659027 4.19965e-20)
(0.00414998 -0.512416 -8.58047e-20)
(-0.0201416 -0.87803 1.5507e-19)
(0.244803 -0.949446 -1.14803e-19)
(0.0244446 -0.0932908 7.36204e-19)
(0.00260511 -0.205116 8.38448e-19)
(-0.0272999 -0.314207 4.53092e-19)
(-0.0211738 -0.42655 3.98683e-19)
(-0.0126385 -0.656086 -1.19141e-19)
(0.155383 -1.146 -3.8579e-20)
(0.558587 0.37601 -1.23756e-19)
(0.390396 0.363494 -1.31822e-19)
(0.521707 0.456894 2.77913e-19)
(0.685546 0.314203 -6.95333e-20)
(0.620557 0.316113 1.8224e-19)
(0.686685 0.363437 -1.11704e-19)
(0.75876 0.255054 -1.46932e-19)
(0.709258 0.261859 1.52673e-19)
(0.75264 0.298169 -1.4584e-19)
(0.807756 0.209083 -8.42452e-20)
(0.773401 0.212135 -5.01509e-21)
(0.805227 0.240924 -4.55328e-20)
(0.8444 0.175963 2.33133e-20)
(0.816896 0.176645 7.72797e-20)
(0.841761 0.200783 -3.7486e-20)
(0.873693 0.151627 -4.65675e-20)
(0.851117 0.150653 -3.30051e-21)
(0.871524 0.171753 -5.7575e-20)
(0.897794 0.132916 -1.12283e-19)
(0.878806 0.131071 -1.37823e-19)
(0.896075 0.149942 -3.27262e-21)
(0.917853 0.117806 -8.73623e-20)
(0.90173 0.115575 4.06311e-22)
(0.916617 0.132638 2.50282e-22)
(0.934616 0.105077 -8.86033e-20)
(0.920857 0.102757 -8.85854e-20)
(0.933825 0.11826 -1.73231e-19)
(0.948659 0.0940267 1.06551e-21)
(0.9369 0.0917485 1.05451e-21)
(0.948274 0.105863 4.09866e-20)
(0.96043 0.0842388 0)
(0.950362 0.0820988 -3.77132e-20)
(0.960382 0.0949454 0)
(0.970265 0.0754149 3.22525e-20)
(0.961654 0.0734971 1.06008e-19)
(0.970494 0.0851612 0)
(0.978411 0.0673121 2.02091e-21)
(0.971085 0.0656909 -3.44347e-20)
(0.978872 0.0762341 6.47563e-20)
(0.985062 0.0597336 -8.936e-20)
(0.97889 0.0584695 5.98175e-22)
(0.985719 0.0679371 -6.40346e-22)
(0.990374 0.0525334 -3.0706e-20)
(0.985253 0.0516652 -2.84099e-20)
(0.991194 0.0600905 8.51251e-20)
(0.994486 0.0456251 2.92463e-20)
(0.990327 0.0451632 -2.94576e-20)
(0.995435 0.0525721 -2.77184e-20)
(0.997532 0.0389828 7.85889e-20)
(0.994248 0.038911 -2.72264e-20)
(0.998567 0.0453278 2.73982e-20)
(0.999644 0.0326208 -2.13513e-20)
(0.997146 0.0329104 -1.86027e-21)
(1.00072 0.0383633 1.04506e-19)
(1.00094 0.0265589 -1.0192e-19)
(0.999156 0.0271821 -1.01244e-19)
(1.00201 0.0317056 -1.50044e-19)
(1.00153 0.0207899 9.34572e-20)
(1.00043 0.0217223 2.50105e-20)
(1.00263 0.0253516 -4.80823e-20)
(1.00149 0.0152819 9.43322e-20)
(1.00108 0.0165012 9.40605e-20)
(1.00265 0.0192705 1.40738e-19)
(1.00091 0.01005 2.64629e-20)
(1.00091 0.0115681 -9.25893e-20)
(1.00181 0.0135651 2.28869e-22)
(0.999919 0.00523375 3.23517e-20)
(0.999453 0.00716784 6.09008e-23)
(0.999383 0.00863128 -2.12966e-20)
(0.99745 0.00327822 9.87847e-20)
(0.996415 0.00441825 7.59415e-20)
(0.496328 0.297291 8.09975e-20)
(0.366142 0.270079 1.17331e-19)
(0.639578 0.264546 4.06475e-19)
(0.57818 0.255266 1.58867e-19)
(0.724298 0.218625 3.02626e-19)
(0.674856 0.217937 4.28409e-20)
(0.780965 0.180168 1.54825e-19)
(0.745887 0.178453 4.12884e-20)
(0.822791 0.151604 5.16557e-20)
(0.794785 0.148918 1.17534e-19)
(0.855666 0.130298 -9.28944e-20)
(0.832776 0.126778 -3.27254e-20)
(0.882407 0.11386 -2.68984e-20)
(0.863235 0.109951 -5.67595e-20)
(0.904535 0.100613 3.12919e-22)
(0.888301 0.0966313 1.03248e-19)
(0.922999 0.0894957 0)
(0.909175 0.0856489 0)
(0.938473 0.0798834 -3.73199e-20)
(0.926693 0.0762558 0)
(0.951475 0.0714128 6.68696e-20)
(0.941414 0.0680657 -7.61311e-20)
(0.96239 0.0638199 4.06544e-20)
(0.9538 0.0608096 2.1453e-19)
(0.971506 0.056886 -3.61212e-20)
(0.964202 0.0542667 -6.70266e-20)
(0.979045 0.0504318 6.18165e-20)
(0.972884 0.0482505 -3.22081e-20)
(0.985182 0.0443221 -2.7157e-20)
(0.980054 0.0426097 3.00681e-20)
(0.990067 0.0384754 -8.59736e-20)
(0.98588 0.0372382 -2.89555e-20)
(0.993843 0.0328635 -1.07875e-19)
(0.990508 0.0320841 -2.77958e-20)
(0.996644 0.0274939 -8.10331e-20)
(0.994071 0.0271419 -1.07719e-19)
(0.998597 0.0223779 2.48437e-20)
(0.996708 0.022424 2.25207e-22)
(0.999809 0.0175035 2.5171e-20)
(0.998562 0.0179255 5.05347e-20)
(1.00037 0.0128395 -9.22449e-20)
(0.999739 0.0136187 2.44675e-20)
(1.00036 0.00839603 -1.18318e-19)
(1.00015 0.00951774 -1.16464e-19)
(0.999908 0.00428547 6.98568e-20)
(0.999508 0.00576203 5.29617e-22)
(0.998353 0.00238347 1.53044e-23)
(0.473058 0.223878 1.62148e-19)
(0.37059 0.18967 -5.60374e-20)
(0.608881 0.210323 -2.01571e-19)
(0.552709 0.194141 -1.2146e-19)
(0.697057 0.177822 -2.15851e-19)
(0.649718 0.170998 -7.80675e-20)
(0.758294 0.147661 2.47059e-21)
(0.72363 0.141623 -2.41003e-20)
(0.803969 0.124346 3.49418e-20)
(0.776139 0.118402 -3.58744e-20)
(0.839784 0.106605 3.76355e-21)
(0.817018 0.100555 3.40427e-20)
(0.868793 0.092831 7.14259e-20)
(0.849756 0.0868506 -2.94344e-20)
(0.892739 0.0817374 1.04252e-19)
(0.876644 0.0759917 7.7629e-20)
(0.912722 0.072463 0)
(0.899035 0.0670682 2.37435e-20)
(0.929497 0.0644876 -3.80172e-20)
(0.917853 0.0594787 0)
(0.943623 0.0575062 6.86444e-20)
(0.933698 0.0529156 -1.85831e-20)
(0.955523 0.0512929 1.09509e-19)
(0.947066 0.0471536 9.01182e-20)
(0.965518 0.04566 -6.34487e-20)
(0.958334 0.0420069 -1.73576e-20)
(0.973854 0.0404511 -6.4506e-20)
(0.967793 0.0373159 -4.81445e-20)
(0.980726 0.0355452 2.88209e-20)
(0.975672 0.0329496 3.07993e-20)
(0.986296 0.0308657 2.92719e-20)
(0.982154 0.028813 -7.47646e-22)
(0.990712 0.0263807 -2.70215e-20)
(0.987393 0.0248539 1.43333e-20)
(0.994113 0.0220888 -2.718e-20)
(0.991525 0.0210577 2.762e-20)
(0.996627 0.0179934 2.56062e-20)
(0.99469 0.0174269 -5.28751e-20)
(0.998369 0.0140806 4.9973e-20)
(0.997028 0.0139549 2.54989e-20)
(0.999433 0.0103232 1.11883e-21)
(0.998645 0.0106188 4.92204e-20)
(0.999904 0.00672824 -1.01575e-21)
(0.999525 0.0074141 -4.76238e-20)
(0.999883 0.0033847 -7.75494e-20)
(0.999546 0.00441509 -4.60224e-20)
(0.999075 0.0016772 -1.88156e-20)
(0.464011 0.157975 -3.33052e-19)
(0.380397 0.12119 -1.1941e-19)
(0.588937 0.156375 2.38122e-21)
(0.537215 0.136121 -1.34045e-19)
(0.676634 0.135124 1.13376e-19)
(0.632079 0.123574 1.33524e-19)
(0.740139 0.112804 -6.23406e-20)
(0.706544 0.103055 -2.41003e-20)
(0.788378 0.0948539 -3.7931e-20)
(0.761213 0.0859298 -5.82248e-20)
(0.826418 0.0809497 1.72467e-21)
(0.804125 0.072496 -3.33659e-20)
(0.857262 0.0700963 -2.46829e-20)
(0.838627 0.0621059 3.03859e-20)
(0.882733 0.0613728 -2.31519e-21)
(0.867 0.0538939 -6.49401e-20)
(0.904012 0.0541208 2.40077e-20)
(0.89066 0.0471912 2.40024e-20)
(0.92191 0.0479397 1.96279e-20)
(0.910579 0.0415516 -3.2453e-20)
(0.937018 0.0425912 1.76806e-21)
(0.92738 0.0367493 2.0254e-20)
(0.949782 0.0378907 -3.57859e-20)
(0.941584 0.0326076 -6.68346e-23)
(0.960544 0.0336809 -1.75847e-21)
(0.953589 0.0289734 -4.32753e-20)
(0.969571 0.0298284 4.65313e-20)
(0.963707 0.0257145 -4.3187e-22)
(0.977073 0.0262292 1.51483e-21)
(0.972182 0.0227217 3.07993e-20)
(0.983224 0.0228127 -1.58005e-20)
(0.979208 0.0199132 -2.97993e-20)
(0.988177 0.0195424 6.88785e-20)
(0.984947 0.0172362 2.87179e-20)
(0.992074 0.0164069 2.47751e-21)
(0.98954 0.0146657 3.39694e-20)
(0.995049 0.0134018 -5.34545e-20)
(0.993127 0.0121932 -5.97974e-20)
(0.99722 0.0105136 2.45703e-20)
(0.995845 0.00980973 2.57101e-20)
(0.998685 0.00772181 1.02546e-21)
(0.997804 0.00749859 -6.36285e-21)
(0.999532 0.00503271 -9.26323e-20)
(0.999046 0.00525118 2.70117e-23)
(0.999853 0.00251079 1.1254e-20)
(0.99956 0.00310447 -6.89583e-20)
(0.999589 0.00110894 6.67743e-20)
(0.461002 0.0984795 8.09488e-20)
(0.389997 0.0608362 7.55693e-20)
(0.576102 0.104337 -8.50578e-21)
(0.527897 0.0814862 -6.35301e-21)
(0.661913 0.0919001 0)
(0.620132 0.0766879 -1.80504e-21)
(0.726308 0.0765524 -1.94175e-20)
(0.694065 0.0636539 -2.9291e-21)
(0.776118 0.0637775 -5.40694e-20)
(0.749908 0.0521862 -4.27187e-20)
(0.815741 0.0537703 -5.48066e-21)
(0.79417 0.043078 -3.89849e-20)
(0.848005 0.0459669 -8.64369e-21)
(0.829983 0.0360512 2.61202e-20)
(0.874712 0.0397468 -3.97739e-20)
(0.859526 0.030579 -3.94999e-20)
(0.897067 0.0346449 -3.18314e-20)
(0.884218 0.0262045 2.3108e-22)
(0.915898 0.0303806 -3.24179e-20)
(0.905035 0.0226307 -3.2453e-20)
(0.931817 0.0267812 1.86155e-20)
(0.922612 0.0197008 -2.12244e-21)
(0.945292 0.0237016 -7.13416e-21)
(0.937489 0.017281 2.30113e-20)
(0.956685 0.0210144 -4.23253e-20)
(0.950084 0.0152515 -2.16559e-20)
(0.966277 0.0186124 -1.64385e-20)
(0.960721 0.0135107 -1.63026e-20)
(0.974289 0.0164092 0)
(0.969659 0.0119742 1.96619e-21)
(0.980903 0.0143405 1.42644e-20)
(0.977102 0.0105729 0)
(0.986278 0.0123639 -6.23688e-21)
(0.983218 0.00925319 1.25621e-20)
(0.99056 0.0104566 -2.7665e-20)
(0.988153 0.00797865 -3.12902e-20)
(0.993884 0.00860649 1.87968e-20)
(0.992046 0.00672858 3.36054e-21)
(0.996374 0.00680192 -5.04358e-21)
(0.995033 0.005491 2.57101e-20)
(0.998134 0.00503075 -7.45535e-21)
(0.997231 0.00425608 -3.11058e-20)
(0.999252 0.00329911 2.42055e-20)
(0.998716 0.00302023 3.60294e-20)
(0.999815 0.00164601 -1.52623e-20)
(0.999543 0.00180119 -5.83588e-21)
(0.999876 0.000625433 -2.07889e-20)
(0.460624 0.0434389 -7.91709e-21)
(0.397912 0.00571892 4.57826e-21)
(0.568163 0.0543484 1.758e-22)
(0.52267 0.0295653 -1.01621e-20)
(0.651831 0.0487867 -4.71324e-21)
(0.612528 0.0306141 5.4434e-21)
(0.716371 0.039551 -2.55323e-20)
(0.685555 0.0239315 -2.72412e-20)
(0.767079 0.0316369 -2.76844e-20)
(0.741978 0.0176451 -3.86227e-20)
(0.807793 0.0254452 -8.29032e-21)
(0.787125 0.0126739 1.78415e-20)
(0.841126 0.0207117 -3.89308e-21)
(0.823892 0.00897143 -7.00373e-24)
(0.868808 0.0170642 0)
(0.854328 0.00627427 1.36024e-20)
(0.89202 0.014207 0)
(0.879821 0.00430188 1.21705e-20)
(0.911594 0.0119617 -2.4952e-21)
(0.901333 0.00288165 1.08697e-20)
(0.928152 0.0102068 2.02665e-21)
(0.919505 0.00191131 -1.03856e-20)
(0.942178 0.00883386 8.91166e-21)
(0.934889 0.00129473 -4.85969e-21)
(0.954049 0.00774826 4.32547e-21)
(0.947915 0.000945157 1.30465e-20)
(0.964061 0.00687109 1.9498e-21)
(0.958923 0.000791232 0)
(0.972444 0.00613526 1.98181e-21)
(0.968179 0.000773851 3.13449e-24)
(0.97939 0.00548269 -1.7975e-21)
(0.975899 0.000839198 0)
(0.98506 0.00486541 -1.21741e-20)
(0.982257 0.000935065 -2.79983e-24)
(0.989603 0.00424862 -5.04689e-22)
(0.987402 0.00101405 -2.43419e-20)
(0.993159 0.00361157 1.0129e-20)
(0.991477 0.0010418 2.35441e-20)
(0.995853 0.002944 -9.90947e-24)
(0.994617 0.0010015 0)
(0.997794 0.00224277 1.197e-20)
(0.996945 0.00089051 -1.24947e-20)
(0.999072 0.00151461 6.33804e-21)
(0.998554 0.000712649 1.80897e-20)
(0.999775 0.000772487 -1.10392e-20)
(0.999492 0.000473589 -5.8284e-21)
(0.999924 0.000172111 1.7036e-23)
(0.461564 -0.00848026 3.06831e-21)
(0.40433 -0.0460872 -4.3226e-20)
(0.56371 0.00598141 -5.05827e-21)
(0.52026 -0.0204584 -2.89085e-20)
(0.645515 0.00600031 -1.64768e-20)
(0.608314 -0.0147303 7.24844e-21)
(0.709885 0.00217532 -4.01176e-20)
(0.680467 -0.01589 -7.27721e-23)
(0.76111 -0.00122977 6.042e-21)
(0.737197 -0.0174219 5.11696e-21)
(0.802581 -0.00375065 2.63733e-20)
(0.782944 -0.0184548 -1.29749e-20)
(0.836698 -0.00543895 1.73142e-20)
(0.820392 -0.0188902 1.975e-20)
(0.865108 -0.00647393 2.579e-20)
(0.851475 -0.0188015 -2.67127e-20)
(0.888962 -0.00701804 2.30547e-20)
(0.877549 -0.0183214 9.15445e-22)
(0.909084 -0.00716933 3.21328e-21)
(0.899554 -0.0175259 3.33492e-20)
(0.926106 -0.00700529 -1.73195e-20)
(0.918137 -0.0164729 2.22455e-20)
(0.940521 -0.00660088 -8.88231e-22)
(0.933858 -0.0152246 -9.90233e-21)
(0.952715 -0.0060201 8.83562e-21)
(0.947156 -0.0138369 -1.76768e-20)
(0.962996 -0.00531481 -1.94759e-21)
(0.958378 -0.0123526 0)
(0.971605 -0.00453123 -1.97957e-21)
(0.967803 -0.0108054 -1.96397e-21)
(0.978739 -0.0037176 1.79558e-21)
(0.975654 -0.00923157 0)
(0.984567 -0.00292557 -1.19933e-20)
(0.98211 -0.00767899 1.80929e-21)
(0.98924 -0.00220203 -6.21067e-22)
(0.987328 -0.00620419 -4.16681e-20)
(0.992902 -0.00157751 1.35721e-20)
(0.991451 -0.0048556 1.36189e-20)
(0.99568 -0.001061 -1.24046e-20)
(0.99462 -0.00365662 2.59088e-20)
(0.997683 -0.000645715 -6.55447e-21)
(0.996961 -0.00260235 -1.24847e-20)
(0.999003 -0.000330035 6.07274e-21)
(0.998557 -0.00167623 6.02209e-20)
(0.999731 -0.000127893 5.19427e-21)
(0.999416 -0.000901171 -4.66158e-20)
(0.999732 -0.000312836 2.36146e-24)
(0.463301 -0.0583515 -7.40829e-20)
(0.409675 -0.0958763 -3.31147e-22)
(0.561893 -0.0412742 -1.71193e-20)
(0.519936 -0.06934 -3.17785e-20)
(0.642326 -0.0364942 2.37669e-20)
(0.606881 -0.0595889 5.63014e-20)
(0.706522 -0.0354433 4.5041e-20)
(0.678428 -0.055798 -7.53212e-22)
(0.758094 -0.0346311 -1.36333e-20)
(0.735398 -0.0528855 2.0766e-20)
(0.800093 -0.033596 -1.9976e-20)
(0.781574 -0.0501174 -1.06702e-19)
(0.834757 -0.0322603 -2.36832e-20)
(0.819491 -0.0473246 1.59128e-20)
(0.863674 -0.0306586 -5.19819e-20)
(0.851011 -0.0444442 -4.03183e-20)
(0.887962 -0.0288435 1.07928e-20)
(0.87746 -0.0414778 1.26833e-20)
(0.908443 -0.0268485 5.25124e-20)
(0.899765 -0.0384236 -4.39591e-20)
(0.925751 -0.0247129 2.99993e-20)
(0.918576 -0.0353023 3.01125e-20)
(0.940385 -0.022481 -2.66118e-20)
(0.934461 -0.0321453 3.67902e-20)
(0.952743 -0.0201885 -2.6671e-20)
(0.947866 -0.0289805 -9.57322e-20)
(0.963139 -0.0178607 0)
(0.959147 -0.0258238 3.31294e-20)
(0.971823 -0.0155221 0)
(0.968587 -0.0226836 4.28394e-23)
(0.978998 -0.013209 0)
(0.976417 -0.0195771 3.00224e-20)
(0.98484 -0.0109735 -2.75503e-20)
(0.982825 -0.0165439 -2.85667e-20)
(0.989504 -0.0088729 -2.78038e-20)
(0.987971 -0.0136457 -2.39814e-22)
(0.993136 -0.0069484 2.58872e-20)
(0.992003 -0.0109437 2.66534e-20)
(0.995864 -0.00521057 2.6075e-20)
(0.99507 -0.00846959 1.94811e-22)
(0.997802 -0.00364551 5.3852e-20)
(0.997302 -0.00621617 4.96419e-20)
(0.999047 -0.00225122 8.38832e-21)
(0.998743 -0.00416868 3.01208e-20)
(0.999694 -0.00107211 -5.20807e-20)
(0.999329 -0.00236981 -2.42e-22)
(0.999308 -0.000881805 -5.22695e-21)
(0.465693 -0.107143 4.29975e-20)
(0.414205 -0.144681 5.70028e-20)
(0.562226 -0.0879308 4.03878e-20)
(0.521305 -0.117721 1.65397e-20)
(0.641894 -0.0788832 3.29655e-20)
(0.60789 -0.10429 -8.39945e-20)
(0.706073 -0.0733014 -2.5388e-20)
(0.679214 -0.0958848 2.43363e-20)
(0.757928 -0.0684402 -7.03661e-20)
(0.736462 -0.0886889 4.27747e-20)
(0.800295 -0.0639086 -7.24463e-20)
(0.782965 -0.0821765 1.31369e-23)
(0.835319 -0.0595562 0)
(0.821193 -0.0761599 0)
(0.864547 -0.055299 2.36571e-20)
(0.852967 -0.0704715 1.07287e-19)
(0.889079 -0.0510925 -4.14397e-20)
(0.879605 -0.0649902 -7.32283e-20)
(0.909733 -0.0469149 -6.71316e-20)
(0.902023 -0.0596462 -2.1011e-20)
(0.927148 -0.0427716 3.68494e-20)
(0.920884 -0.0544258 4.07481e-20)
(0.941834 -0.0386792 -3.10916e-20)
(0.93676 -0.0493319 3.4389e-23)
(0.954193 -0.0346466 -3.70904e-20)
(0.950106 -0.0443662 -3.46095e-20)
(0.964546 -0.0306738 3.34482e-20)
(0.961283 -0.039519 3.31294e-20)
(0.973151 -0.026763 2.97911e-20)
(0.970583 -0.0347746 -6.16612e-20)
(0.980218 -0.0229354 1.89989e-21)
(0.97824 -0.0301291 3.00224e-20)
(0.985927 -0.0192392 -1.4616e-21)
(0.984449 -0.0256096 -7.8929e-23)
(0.990439 -0.0157388 5.40353e-20)
(0.989375 -0.0212776 -2.70789e-20)
(0.993902 -0.0124869 1.15109e-21)
(0.993173 -0.0172046 5.26156e-20)
(0.996448 -0.00949951 2.35566e-20)
(0.996001 -0.0134315 -2.62116e-20)
(0.99819 -0.00675938 2.60312e-20)
(0.997995 -0.00995185 5.06812e-22)
(0.999227 -0.00426476 2.13857e-20)
(0.999144 -0.00676186 2.34805e-20)
(0.999667 -0.00208329 4.66404e-20)
(0.999243 -0.00395505 -4.55627e-20)
(0.998669 -0.0015947 0)
(0.468636 -0.155587 3.07937e-20)
(0.418107 -0.193349 -1.8317e-19)
(0.564461 -0.134491 -1.05629e-19)
(0.524164 -0.166193 6.45031e-20)
(0.644012 -0.121407 -9.45148e-20)
(0.611178 -0.149193 -1.39335e-19)
(0.708405 -0.11144 9.24681e-20)
(0.682713 -0.136294 -4.69378e-20)
(0.760547 -0.102581 1.13814e-19)
(0.740334 -0.124829 4.27747e-20)
(0.803176 -0.0945528 7.24704e-20)
(0.78711 -0.114537 2.11025e-19)
(0.838405 -0.0871636 1.05909e-19)
(0.825518 -0.105251 -3.16943e-21)
(0.867768 -0.0802241 1.26552e-20)
(0.857385 -0.0967157 -2.82477e-21)
(0.892362 -0.0735983 -5.34172e-20)
(0.884031 -0.0886878 -1.93509e-19)
(0.913008 -0.067212 8.61898e-20)
(0.906382 -0.0810287 1.32477e-19)
(0.930357 -0.0610383 4.32414e-21)
(0.925114 -0.0736895 4.20398e-22)
(0.944923 -0.0550666 -3.16425e-21)
(0.940808 -0.066644 -1.06371e-21)
(0.957119 -0.0492807 3.49955e-20)
(0.953927 -0.059868 -6.82108e-20)
(0.967271 -0.0436563 -6.11931e-20)
(0.96484 -0.0533277 -3.18387e-20)
(0.975641 -0.038173 -6.21979e-20)
(0.973842 -0.0469836 5.96201e-20)
(0.982447 -0.0328337 2.82729e-20)
(0.981172 -0.0408098 -2.96543e-20)
(0.987872 -0.0276776 -2.54999e-20)
(0.98703 -0.0348164 8.04967e-22)
(0.992085 -0.0227717 -2.90535e-20)
(0.991587 -0.0290587 -2.75225e-20)
(0.995236 -0.0181787 2.57377e-20)
(0.995002 -0.0236131 2.60984e-20)
(0.997458 -0.013923 -4.95065e-20)
(0.997448 -0.0185288 7.42393e-20)
(0.998864 -0.00998828 -2.17757e-21)
(0.999066 -0.0138036 -2.18656e-19)
(0.999558 -0.00637577 -4.17188e-20)
(0.999776 -0.00946178 1.64722e-19)
(0.999664 -0.00317581 -9.24651e-20)
(0.999188 -0.00568354 -1.14507e-19)
(0.997845 -0.00250372 -2.02909e-20)
(0.472101 -0.20434 -1.56183e-19)
(0.421542 -0.242603 -3.26506e-19)
(0.568504 -0.181429 3.46139e-20)
(0.528451 -0.215326 3.2953e-20)
(0.648602 -0.164326 -9.34743e-20)
(0.616719 -0.194671 1.11249e-19)
(0.713478 -0.14995 -9.78844e-20)
(0.688928 -0.1772 -9.62745e-20)
(0.76595 -0.137024 1.37429e-19)
(0.74704 -0.161332 -7.93922e-20)
(0.808761 -0.125423 1.38023e-19)
(0.794048 -0.147127 2.08931e-21)
(0.844054 -0.114934 -1.12004e-19)
(0.832516 -0.134467 -6.24868e-20)
(0.873386 -0.105268 -2.06537e-19)
(0.864316 -0.123014 -1.87254e-21)
(0.897863 -0.0961932 -1.14404e-20)
(0.890792 -0.112399 -2.32394e-21)
(0.918324 -0.0875791 4.80861e-20)
(0.912896 -0.102402 8.70369e-20)
(0.935429 -0.0793631 -4.95289e-21)
(0.931318 -0.0929333 -4.03277e-20)
(0.949705 -0.0715067 -6.54465e-20)
(0.946655 -0.0839336 7.24615e-20)
(0.961572 -0.0639688 -1.35364e-19)
(0.959379 -0.0753522 -1.35525e-19)
(0.971362 -0.0567014 8.82119e-20)
(0.969865 -0.0671308 -5.91838e-23)
(0.979343 -0.0496612 9.29372e-20)
(0.978411 -0.0592069 9.12172e-20)
(0.985733 -0.0428303 -5.73531e-20)
(0.98526 -0.0515315 -1.14801e-19)
(0.990724 -0.0362334 -1.01605e-21)
(0.990615 -0.0440943 -9.48643e-23)
(0.994486 -0.0299336 2.72529e-20)
(0.99465 -0.0369374 2.70649e-20)
(0.997175 -0.0240011 7.42431e-20)
(0.997533 -0.0301358 1.01428e-19)
(0.998926 -0.0184708 -9.37675e-20)
(0.999448 -0.0237427 -1.21685e-19)
(0.999852 -0.0133318 -5.35989e-20)
(1.00055 -0.0177628 -5.05053e-20)
(1.00006 -0.00859292 9.54127e-20)
(1.00066 -0.0122691 1.17382e-19)
(0.999694 -0.00436765 -4.28743e-20)
(0.999191 -0.00757498 -8.93232e-20)
(0.996874 -0.00365978 -2.40457e-23)
(0.47614 -0.254014 -1.46692e-19)
(0.424667 -0.293083 1.80263e-19)
(0.574375 -0.229218 1.08033e-19)
(0.534221 -0.265664 -3.21028e-20)
(0.65571 -0.207919 1.12395e-19)
(0.624614 -0.241111 1.10344e-19)
(0.721357 -0.188943 -7.80646e-20)
(0.697977 -0.218786 2.30085e-19)
(0.774204 -0.171757 -2.15479e-19)
(0.756686 -0.198235 -1.20833e-19)
(0.817112 -0.156424 -1.97901e-19)
(0.803872 -0.179883 -2.02115e-19)
(0.852328 -0.142723 4.68981e-20)
(0.842265 -0.163678 2.25879e-21)
(0.881457 -0.130263 2.02455e-19)
(0.873826 -0.149201 1.59607e-19)
(0.905638 -0.118704 9.50607e-20)
(0.899947 -0.135946 -4.78256e-20)
(0.92573 -0.107848 0)
(0.921617 -0.123588 8.30844e-20)
(0.942412 -0.0975875 3.59815e-20)
(0.939545 -0.111986 -1.51464e-19)
(0.956225 -0.087854 4.35372e-21)
(0.954346 -0.101042 1.07974e-19)
(0.967597 -0.0785797 -1.4113e-21)
(0.966502 -0.0906742 -3.13421e-20)
(0.976865 -0.0696927 2.18655e-21)
(0.976396 -0.0807989 9.40123e-20)
(0.984299 -0.0611266 -1.14812e-19)
(0.984329 -0.0713302 -3.01074e-20)
(0.990122 -0.0528409 -5.84136e-20)
(0.990545 -0.0621959 2.59991e-20)
(0.994527 -0.0448404 2.77823e-20)
(0.995247 -0.0533624 -2.50881e-20)
(0.997688 -0.0371776 1.00723e-19)
(0.998611 -0.0448525 1.02432e-19)
(0.999764 -0.0299246 -9.31329e-20)
(1.00081 -0.0367312 1.92757e-21)
(1.00089 -0.0231275 -7.86514e-20)
(1.00204 -0.0290495 -1.96426e-19)
(1.00119 -0.0167861 1.1924e-19)
(1.00247 -0.0218182 7.32268e-20)
(1.00076 -0.0109217 -6.19522e-20)
(1.00184 -0.0151784 1.80328e-19)
(0.999767 -0.00567749 -4.69324e-20)
(0.999278 -0.00962427 -2.85728e-19)
(0.995824 -0.00511705 1.78895e-19)
(0.48087 -0.305173 3.00915e-19)
(0.427636 -0.345374 3.23817e-19)
(0.582216 -0.278324 -3.27751e-20)
(0.541666 -0.317719 -9.1597e-20)
(0.665507 -0.252478 2.25807e-19)
(0.635103 -0.288899 -1.54115e-19)
(0.732202 -0.228533 1.93011e-19)
(0.710084 -0.261231 2.25558e-19)
(0.78544 -0.206766 -1.05614e-19)
(0.769458 -0.235569 -1.18096e-19)
(0.828339 -0.187455 -4.34563e-21)
(0.816727 -0.21273 2.08649e-19)
(0.863311 -0.170379 1.13044e-19)
(0.854874 -0.192744 -5.60833e-20)
(0.89205 -0.155032 -8.81489e-20)
(0.885997 -0.175097 2.0518e-19)