/*--------------------------------*- C++ -*----------------------------------*  =========                 |
  \      /  F ield         | OpenFOAM: The Open Source CFD Toolbox
   \    /   O peration     | Website:  https://openfoam.org
    \  /    A nd           | Version:  11
     \/     M anipulation  |
\*---------------------------------------------------------------------------*/
FoamFile
{
    format      ascii;
    class       volScalarField;
    object      U;
}
// * * * * * * * * * * * * * * * * * * * * * * * * * * * * * * * * * * * * * //

dimensions      [0 1 -1 0 0 0 0];

internalField   nonuniform List<scalar> 
2880
( 
0.0715421011362482
0.14022037333265133
0.21951146392331772
0.2683508144285482
0.33852418483934865
0.44957410707595113
0.09992816916896316
0.1697451892172057
0.24230570708237342
0.28692933778638874
0.3493619738849507
0.4197555796504649
0.11327675392461214
0.18034848093494218
0.24632535718210627
0.28969572399599436
0.3530611870674041
0.42626545845024827
0.12527683161800085
0.1881143708092275
0.24736623482187822
0.29004792415315495
0.3554335968326489
0.4333716833089873
0.1379460926214017
0.1945992198034666
0.24763058810640523
0.28991638010938303
0.35605035015079645
0.4356771426208229
0.15009508931165347
0.19981392114132163
0.24651750795789923
0.28936473168619625
0.354994341438007
0.4341482821181918
0.16108345215504585
0.20339122247450878
0.24533209441302914
0.28852794273732707
0.3526540827341619
0.42959922066023837
0.16987236837741823
0.20576596949910833
0.24439971824390547
0.2874675304356682
0.35017605738181073
0.42401119264817155
0.17719998819726568
0.20744322071274898
0.24329159111203197
0.2862264475493432
0.3473718658025465
0.41827987024926366
0.1829403836281564
0.20866837949893105
0.24207153021797068
0.2854444203610605
0.3455259289440899
0.4143749127885259
0.18693244093297984
0.20969677052298563
0.2426598181080273
0.28564869889248184
0.34527294040507905
0.41293614504429466
0.1891569328250395
0.21089092089437778
0.24436999071992335
0.2875203963928923
0.34642510796438375
0.41238814586835937
0.18939198210791056
0.21163684856188478
0.24677760697423237
0.2908216965651373
0.34934319075274245
0.4144410396247924
0.18779918616848476
0.21214472275238552
0.2492193650628949
0.29521497765183013
0.354599910879153
0.4198651068159639
0.18397441891427327
0.2120463115933426
0.25151927525553636
0.2997165828157064
0.3603865530204344
0.4260776421970205
0.1784855100739425
0.21138089312609107
0.2537413087434622
0.3036716932165674
0.36599688475960535
0.4326774693244258
0.17154589218821076
0.21013047639944415
0.25589227648939955
0.3064122749506499
0.3709493155426025
0.43926118879266
0.16249924896715298
0.20777107654684174
0.2568261943199584
0.30860817996087586
0.3747917377040225
0.44497634576498407
0.1515274162323582
0.2035115963791429
0.2572500391095212
0.30937846216561243
0.3768801267296456
0.4494787024353868
0.13843729563050589
0.1967065439596786
0.2564093832293977
0.30811763996448305
0.37737060277087087
0.451612845581777
0.12365344416607676
0.1876315779033342
0.2538559772901206
0.3060855958964485
0.37558380259203056
0.45026357188052935
0.10894157990757562
0.17585983099982466
0.24906849453316982
0.30214799967161265
0.37218998337095976
0.4439476313648397
0.09293249167261816
0.16106948047376207
0.24007448114249608
0.2940465478830903
0.3688527417784339
0.43445892136732733
0.06366946294941317
0.128157586609251
0.21354920309716854
0.2682604001000658
0.3608734396643326
0.43546543843107555
0.8225741393219232
0.9053348362842373
0.9472222528820212
0.9719300110202981
0.9881663215579783
0.9995965480309409
1.0112077476261248
1.0257499909645418
1.0418724345058836
1.0581954985259807
1.0730264936698544
1.0863795265918446
1.0960917432228587
1.1023215024843775
1.1056593592852262
1.1062338044348181
1.1044375785072982
1.1004838726011024
1.0950247699930042
1.0877983420483788
1.0791835168963542
1.0676076410564095
1.0536493710355184
1.0382044433415845
0.7221856601681883
0.8685574906571215
0.9288614420853714
0.9599054705929957
0.9813191106714207
0.9966335882285547
1.0104547580331504
1.028886186422109
1.0491709515016425
1.0672516541531376
1.082091323323147
1.0939639655625732
1.102770994216412
1.1077661004221293
1.1085662927493516
1.1076962818134715
1.1045355105307022
1.0999685692700638
1.0934244954283465
1.0857265223240153
1.0767048989337171
1.0651218376748148
1.0507046930810549
1.035202980770201
0.6547330929925093
0.8178789715548495
0.8940860020539213
0.9382701730589789
0.9664402461423228
0.9884280667198466
1.0081495865903667
1.0318994226347848
1.0541773403518733
1.0743386686146765
1.090201401849491
1.1003373738502948
1.106671778684041
1.1090384538256062
1.109411610948265
1.1072777523873927
1.103205392443483
1.0979381593142143
1.0905021897933558
1.0825692564799352
1.0724598962013263
1.0605021432462343
1.046552921787325
1.0305931986234473
0.6125725154007017
0.7649345854296207
0.8518199908700725
0.9064745778816082
0.9437489878612042
0.9738523128660472
1.003925126313252
1.032536800003864
1.0575499421002816
1.0781751926977265
1.0937215574475343
1.1027935964812898
1.107052696603578
1.1082304405515087
1.1071450793768645
1.1043830950491496
1.0989418644101676
1.0933419438204608
1.0859662376167307
1.0770660141249284
1.066934373268915
1.0553654581938734
1.0410372190144943
1.0256187542854978
0.5836469728441166
0.7197828494436606
0.8103695923355559
0.8722602180480403
0.9168141815877718
0.9559098246469084
0.9944221392537751
1.0289356723421317
1.0571191691317658
1.0776611287773616
1.091998868684118
1.100106694369147
1.103311702954649
1.1038943750242955
1.1021498652914345
1.0985560236820164
1.0934984918688448
1.0876527009063361
1.0800664138496578
1.0713004766132652
1.061516567449844
1.0503953354309792
1.0360417364960417
1.0207452420319774
0.560866405531915
0.6830702342103462
0.7722730131923008
0.8393629983920861
0.8913879512991529
0.9389787143361706
0.984178941288311
1.022783888996727
1.0529885607539116
1.073680992768803
1.086174520807034
1.0929955782535439
1.0962542696594657
1.0958286570414126
1.0943624662851068
1.0906563054576353
1.0863643212534362
1.0801385688552205
1.0728351245017096
1.0643403760943395
1.0552701570752887
1.0444504082888364
1.0303385231830386
1.0152695746722697
0.5410770951503453
0.6530344710120751
0.7408319175233968
0.8108158766075082
0.870184792850365
0.9267118335650999
0.9760640909998024
1.0167444705667499
1.04622748404998
1.0658402036974275
1.0776718708440738
1.083652350380146
1.0866021767854142
1.086882774795362
1.0856854598927248
1.082444230100309
1.07810445612622
1.072562140287976
1.0657567068056815
1.0580213824549671
1.0493327338802445
1.0386975072421443
1.0252269889241301
1.0117981741734128
0.5247085909683927
0.6284158914744344
0.7151123356571518
0.7885844857007153
0.8544675758162944
0.9170571629024923
0.9698314616196613
1.0109166967062435
1.0393057907083985
1.0564599477663899
1.0679460845937012
1.0735759477191407
1.0767750252243118
1.0771106203171303
1.0763365569423353
1.0734744756303516
1.0695420905805029
1.0650113618669963
1.058896118871347
1.0515948304025577
1.0439639594196448
1.034215762716569
1.021630967614907
1.0083898884658993
0.511444877653767
0.6100205909726159
0.6969807324490059
0.7719698371278041
0.8455082131301359
0.911955340602236
0.9665204852794504
1.0063904286359062
1.031634714776255
1.0478413079663822
1.0577558856731744
1.063389154486157
1.066617329752454
1.0674843054223389
1.0666060284126724
1.0644500966728354
1.0619951826004372
1.057648145264551
1.0522816483845887
1.0463686672233234
1.038916366887537
1.0305009284333888
1.0189389460255218
1.0078374751371242
0.5027608965351209
0.5977074356239662
0.6851606514155436
0.7650339587507768
0.8440389564449375
0.9121218035770655
0.9646610541884937
1.0004122226135779
1.0234912960695712
1.0379314159473956
1.0477786571731
1.0530498114136237
1.0565042339297432
1.057965923143332
1.0573990661906272
1.0562439017049055
1.0541227527985684
1.0505544786066439
1.047079955705683
1.0416897578186872
1.0361722420876611
1.0290223839505328
1.0192537807480448
1.009358211657241
0.4976730358292042
0.5926865616466166
0.6805308101240473
0.7655241117290889
0.8477999123382912
0.9155701501870231
0.9642863299466922
0.9960224128709463
1.0166247563361726
1.030013012704904
1.038761653401694
1.04460828680691
1.0478966327840984
1.0493778029227068
1.0497395930627063
1.04897943424086
1.0474406604305873
1.0451105723483574
1.0422725489444467
1.0392394853796385
1.0349564445829091
1.0294026317416518
1.0214222253860243
1.0126611318158638
0.496117451132369
0.5924079559513895
0.6822517155344293
0.7743383884018734
0.8580308972427788
0.9221479991204794
0.9650060262677128
0.9927133446625569
1.0112460698905177
1.0236054683810842
1.0313578730835744
1.0371858526942777
1.0407102497637524
1.042937502170257
1.043385343438888
1.04316451307277
1.0422987319494192
1.0412371911235663
1.0402366100878258
1.0386434779541092
1.0366338676786502
1.0325625555068398
1.0256111206599825
1.0176963896680473
0.49850018261043316
0.5957928987606937
0.692494085151176
0.7900248749527423
0.8722228825450347
0.9301262730415117
0.9674158373465908
0.9912039705085128
1.0071268776496014
1.0189362362471435
1.0265601779375104
1.032170840339223
1.0360685220512993
1.0377960548737672
1.038329361582011
1.039265110370245
1.0403415133366285
1.040803791082578
1.0412497975385606
1.0413612126932112
1.0397133922187298
1.0370535801091192
1.0309862529579914
1.0238734518769756
0.5038298909057213
0.6032974311031273
0.7079915897392087
0.8098106813705102
0.8872865118097729
0.9376644531120956
0.9701378548203371
0.9906301032139466
1.0052981740178353
1.016433435773695
1.023201705230568
1.0279173592273823
1.031759976432746
1.0352309502140358
1.0375569172052397
1.039619571445811
1.0410153163522367
1.042456679170648
1.0440608397276416
1.0454702778662393
1.0453338162131713
1.0428930578724114
1.0374332273741178
1.0298327147954698
0.512637633846844
0.6163957414278932
0.7304017734494072
0.8325223543992895
0.9023171035562716
0.9458235085267046
0.9729796364691725
0.9920618508190685
1.0054251076016352
1.0145057099285888
1.0218035176028981
1.027131993221715
1.0314934960004867
1.0338315307720365
1.0366477560664074
1.0402629465211457
1.0441136598412297
1.0472974079179334
1.049415284502415
1.0507596568159001
1.0502756111028333
1.048242114323401
1.0427553605277957
1.0351848721986083
0.5238553057357456
0.6371194038271639
0.7587919297573922
0.855179128913973
0.9161607936942228
0.953143000667549
0.9772400672872298
0.9934155334168763
1.0053479118227102
1.0148243447831513
1.0209772141986784
1.0259237094262421
1.0301926313945327
1.0351431422743531
1.040005777791745
1.0443685395306166
1.0480480708011775
1.0520347601473448
1.0549879308504717
1.0570931736124345
1.0568678418140305
1.0543769937471832
1.0480907978793048
1.0398997534561432
0.5364278915534338
0.6639718048925202
0.7915049394727147
0.8786952958886367
0.9299955411631581
0.9606004874154432
0.9817013257598962
0.9964010265228412
1.0068349743698712
1.0147890652851412
1.0211108002649942
1.0269905341664993
1.0321900560383201
1.0384569431412511
1.0443362298194674
1.050042555391633
1.0550406426499364
1.0586464226453063
1.0612942079054182
1.0630233167109457
1.0622577780320965
1.0589832692344392
1.052156377424931
1.0432665731105268
0.5503052499518386
0.6977487923294514
0.8258614177342809
0.8998195099044235
0.9414653111291135
0.9680818014307553
0.9859438142471149
0.9990837736087106
1.0088455215487149
1.0166309575489023
1.0235435937074242
1.0297585404024292
1.037253620636501
1.0440320848858484
1.0502271208767953
1.0556781345027602
1.0610998025508682
1.065354929809455
1.068047101610754
1.0679895516983662
1.0667828978245688
1.0624747995529982
1.0542557502263257
1.0440432225358327
0.5684152637152092
0.7392455466823845
0.8569510168669264
0.918424501511664
0.952728773289347
0.9750155770260506
0.9903167082330129
1.0016769825157243
1.0104142163691858
1.0190223394314681
1.0255717810344065
1.0335677898698283
1.0415799712762004
1.0500087483473919
1.0568031760176069
1.0632468475390933
1.0674520024640932
1.0715122386826184
1.0733642292215164
1.0733158638581735
1.069941984304484
1.0645968448578305
1.0554988282663793
1.043971219543668
0.5923985793762166
0.7843597612261148
0.8850992236495139
0.9341828595486082
0.9619344106154907
0.9805807370224713
0.9936580430302245
1.0041936609108852
1.012575997672604
1.0206771774550634
1.0300245914558228
1.0402774682005687
1.048929037550343
1.0570739674009944
1.0638874776329612
1.0698526804174942
1.0745629597450246
1.0777301308116194
1.0781203891987052
1.0770351886158902
1.0725251065749377
1.065504172248404
1.055707545429337
1.0433994699060032
0.6270016045811668
0.8281279064396253
0.9092100731059829
0.9482329485005445
0.9701326871578377
0.9855444522931207
0.9969430660083534
1.0065495201445058
1.0157949627688012
1.0261551653609766
1.0360432893976368
1.0464315049900246
1.0564302667394525
1.0648827580900861
1.071947510356917
1.0771590799825448
1.0809387030156894
1.0827706239392505
1.0820418977361632
1.079617359399559
1.0736210110810471
1.0656122799554515
1.054782462575748
1.041376130365407
0.6804163350174895
0.8654281835092589
0.92797441147412
0.9581904762360766
0.9762997672884653
0.9892447731465107
0.999676547611872
1.0095210608697802
1.0193237535384556
1.0301734921992811
1.0427457612140418
1.054852417775533
1.064504478665006
1.0724617639509826
1.0794819825375768
1.0839040306731962
1.0864172156376504
1.0870926175815627
1.0850430336403334
1.0807618521850084
1.0745604950699863
1.0651359049749867
1.0538628231326732
1.040002000834864
0.7525646829822842
0.8939355299783528
0.9407188542996663
0.9651583663727576
0.98043382419814
0.9925691780866754
1.0020170060359066
1.0119949950472993
1.0244499200541015
1.0375285176351625
1.050729306914395
1.063025466115236
1.0733405823989441
1.0814222745889446
1.0868463664319519
1.090037213487389
1.0918285123898883
1.0902634126194177
1.0874116611825326
1.0817452891014239
1.0748454450370355
1.0651178142037174
1.0526257306266416
1.0377884623339255
0.8330528649556511
0.9106504547040127
0.9462422603335082
0.96850484514852
0.9827860918023921
0.9943680170044304
1.00395950736205
1.016107393994935
1.030457245434639
1.0452668040305413
1.0591048520457749
1.0715165143584549
1.0815626514492205
1.0886762513674175
1.0935222225245749
1.0957374630935675
1.0953290200455987
1.0930594362885866
1.0887574970235807
1.0823983939368458
1.0745247929372337
1.064250539063325
1.0508695316275491
1.0366983582047318
0.07321618903479196
0.14691367337328234
0.22932081034380336
0.2783005801861502
0.3484340675366731
0.4539687206908197
0.10473760374157733
0.17892927262661246
0.25306927189066486
0.2964066564499908
0.3578978638221785
0.4263931168660391
0.1194054415602614
0.18985014402235106
0.25691328951363807
0.2989269631678104
0.36251232203311357
0.4357125166544411
0.13215917455002751
0.19779007915261076
0.2573407488184163
0.2992379803728652
0.3649459738135262
0.444476584714914
0.14549658710064545
0.2041100431082617
0.25660303737433404
0.29896181038779895
0.3657004125497122
0.4477765296591951
0.15840634089234126
0.20880216098405352
0.25572992987268567
0.29824165140700687
0.3653169723133415
0.44693333256453743
0.17038982279599516
0.21200824186632966
0.25401553253434284
0.2971903956085551
0.36351238147231935
0.4433085302632995
0.18022772542703994
0.2148346783984574
0.25219491464687194
0.2957378577905714
0.36098751040699384
0.4379004555903949
0.18824638568530566
0.2169000452594569
0.2513909641855382
0.29428267890156284
0.35810057174125637
0.4319142085554225
0.19445824672926448
0.21844859070622924
0.2512624957059076
0.29384260597375056
0.35604856108637045
0.4275863181860174
0.19895605064157815
0.2196289326695993
0.25161988578913747
0.2939139126445212
0.35535729023675755
0.4259328214015018
0.2011067725916943
0.2205317412446019
0.25296111140892097
0.29500102016495916
0.356356644806081
0.42594782957121796
0.20119830211547277
0.22118103012362217
0.25485571052342043
0.2981574144090792
0.3596359124194669
0.42766636093726385
0.19926536269357656
0.22148903372429915
0.2573228555642678
0.3025668145139661
0.3642568614685051
0.4317947914438769
0.1950595255580475
0.221421828667047
0.2597930098861841
0.3070892031104456
0.36953966114051623
0.437391565705447
0.18909505731219192
0.22063306945657907
0.26189842120238765
0.31113893506282353
0.37467498859209164
0.4433480799301295
0.1815582475280109
0.2191540053200887
0.2633008270520017
0.31426347457296855
0.3790057443655186
0.4488735213063424
0.17191682065509237
0.216381619288225
0.26480079708898036
0.31613899886713515
0.38250089350697075
0.4537315962212673
0.16024311851895506
0.21214878372159623
0.2650996162942407
0.3162265770681866
0.3842841002384174
0.45740863413113303
0.14642381170646362
0.20570833015101284
0.26449691860652075
0.3156555873979466
0.3841714374305152
0.45829792157358634
0.13023875319031383
0.19627902300640548
0.2621346309672644
0.31316426778333745
0.3819762125509336
0.45606285738544106
0.11443317657754859
0.18415470983563706
0.2571885152985413
0.3091708932790783
0.3782476721661031
0.4490940700980222
0.0971659875639066
0.16893921956382887
0.24821423956484456
0.30108296932315876
0.3744338546794381
0.43913225926162675
0.06467390728640238
0.13396678189630212
0.2204033883975759
0.2741075066303383
0.3661920320640768
0.4375488928318167
0.8227630120620967
0.9049433320819924
0.9431783664835747
0.9671364960099162
0.9822527223500371
0.9943708184292078
1.0069616804949402
1.0204686415910604
1.0371168133848379
1.0539606900657834
1.068487349889872
1.080862933263915
1.0895865140912513
1.0960443183977977
1.098769709862911
1.099894116757384
1.0985249363292995
1.09485755150216
1.0895665230750655
1.0824478465589285
1.0736115685245238
1.0632515026639677
1.0496690433798122
1.0344336109618995
0.7281276726753155
0.8727970832318027
0.9288601010145497
0.9592549757530232
0.9780889513376265
0.9928874204779264
1.008027437711421
1.0266599830316465
1.0449889533978864
1.0620997614100536
1.077922990962498
1.0889348768779958
1.0973650226277611
1.1017871880515009
1.1035300424340566
1.1027794996639249
1.100289170824852
1.0952476449074409
1.0891318517372077
1.081804177976031
1.0726586194276513
1.0616274289698933
1.0481568135144035
1.0328910730530183
0.6655402868282212
0.8272114844966765
0.9004950585287274
0.9417075597937911
0.9678176422667376
0.9871807611955599
1.0086437756425186
1.0310832067573705
1.0519160761347248
1.0705269953409615
1.0853813220910968
1.0958128285729674
1.102348741961299
1.1055264964136742
1.1057839697600012
1.1041459129782363
1.1004552531474654
1.0950408942513579
1.0884923102855781
1.080972902381954
1.0715298051073356
1.0600636363758438
1.046436356809361
1.030801430852498
0.6262111653033126
0.7805191154493882
0.8645946774315999
0.9160335992814512
0.9503948994836542
0.9793404024597453
1.0060904451399684
1.0328946825635923
1.0567416206303393
1.076490297153178
1.0906069234418108
1.0997072148212346
1.1051136012241678
1.1068462557967793
1.1059988726980732
1.1033593892893399
1.099193973371112
1.0937315420531668
1.0867986830064182
1.0783279599124305
1.0685524558615773
1.0577671122018089
1.043485887074662
1.0286798497518046
0.5991368046826422
0.7391466546006628
0.8285954979120017
0.8874983517464687
0.9307608428720252
0.9664833228299263
1.0013403443520394
1.032330055976811
1.0586717021391574
1.0784185685476833
1.0923468835318075
1.100342417630466
1.1040879635510081
1.1050285336700272
1.1038800715670862
1.1004509327231031
1.0957523490983612
1.0900122941134989
1.0834669912021322
1.0747995991427368
1.0652330619213983
1.0541605418345354
1.0402766514212638
1.0256168571212412
0.5773958055536341
0.7038472126055384
0.795076079902851
0.8607426212533588
0.9106126674184433
0.9550303466374528
0.9957575829217666
1.030444227409458
1.0583091561233355
1.077686975886753
1.09032883297321
1.0971021017851872
1.099783876616088
1.1004596977717722
1.0987003080137738
1.0954908465634285
1.0909824023004333
1.0856222560290796
1.0790308901060572
1.0709728319358602
1.0616959994520307
1.0515483936519026
1.037235596907522
1.0232555869091504
0.5587860714254134
0.6755436742218461
0.7663915720072714
0.8370251615205102
0.8939411141817744
0.9454114651919873
0.9910600622190492
1.0283598827796099
1.0557227201783788
1.074035541017901
1.085072128609796
1.0914018349999242
1.0940533978221214
1.0940817818742417
1.0923580995098852
1.0894365891207674
1.0857553996734748
1.0798281893123325
1.0735062290541864
1.0664305050241045
1.0576887379617033
1.0471996609592011
1.0337351138649133
1.0202396500850242
0.5427959457377293
0.6524177420292114
0.7431763649413613
0.8177477630061555
0.8812439879293978
0.9398571391066304
0.9885877340458931
1.0264788749562035
1.0534504275204546
1.0697349272745218
1.0786777740194746
1.0843953455978563
1.0869244339896338
1.0868994846502278
1.0854655674885283
1.0826709955845184
1.0790717195780204
1.074346696600862
1.0683565080550277
1.0617507235713244
1.053871139212992
1.0443388666696396
1.0315255542277229
1.0177283363928045
0.5294699988781112
0.6339906889417032
0.7257358852249428
0.8036040535511251
0.8744702287768328
0.9378195940766424
0.9884300106484796
1.0255356757483072
1.049068320825139
1.0636100082248565
1.0724460231429425
1.0773519321028815
1.0795380715167184
1.0794771625970083
1.0791752846309568
1.07699930927295
1.0743056287939925
1.0695787881377112
1.0645168812840056
1.0575529697196513
1.050104506025282
1.0411150205712902
1.029338881714841
1.0165786458395147
0.52033890357575
0.62222131813723
0.7146622698360559
0.7959568537761865
0.8735338954809816
0.9403697140760545
0.9907803255888605
1.0246697207115532
1.0453865161552651
1.0584359501256828
1.0665567386706079
1.071593732053728
1.0731317277390227
1.0736341171303643
1.0739149363957665
1.0721596860070044
1.069092879914828
1.0654343009963285
1.0607474723496144
1.054632789438597
1.0474851415309534
1.0394756715877551
1.0283081775901386
1.0162485338249716
0.5158850089972161
0.6173228497795155
0.7096176289946825
0.7967007935305982
0.8791942926426708
0.9460956319532481
0.9930329832851608
1.0232178880438112
1.0421348127419745
1.05394148251445
1.0613494223660211
1.0658758826328891
1.0685754579948976
1.0693531873801319
1.0688111953221977
1.0679004183046696
1.0658664619175664
1.0622876503147591
1.0583924639506326
1.053469386706761
1.0472390557323024
1.0396575736085893
1.0293065630219196
1.0180243520080436
0.5142873264607838
0.6163926634044694
0.7119509508964033
0.8061388042950385
0.8898788811112828
0.953416794723815
0.9955029515264829
1.022519094745569
1.0395247390089333
1.0504696348032192
1.0577178859772303
1.062469627374893
1.0648688666967134
1.0661322172230765
1.066634414965084
1.0653303200152828
1.0634642769588356
1.0609128034619935
1.0574315030458896
1.0533993531369188
1.04809496813687
1.041234298466763
1.0314895865350597
1.020295240086764
0.5147755555977452
0.6188985547291634
0.7197229770088812
0.8202921016269049
0.9030509536209584
0.961815728698433
0.9986494773728523
1.021981665663025
1.0376650657153714
1.048819984137238
1.0554489686364152
1.0604818516783425
1.0631516716342584
1.0650717273176167
1.0653900734502235
1.065007409487703
1.0630271468794026
1.0606456217294264
1.0586784113216634
1.0555000297280288
1.051041029624512
1.0444548848318953
1.0350783348537074
1.0244528285919774
0.5202018896692874
0.6251846280965071
0.7336420773227355
0.837903768027632
0.9166971702230178
0.9684996113307082
1.0007782935333835
1.0219611909706203
1.0370043146195553
1.0471433136287314
1.0543503533734437
1.0595283932848392
1.063071603351088
1.0649322716991863
1.0652946414679771
1.0652705815043098
1.06468140085862
1.0638214609174241
1.0620541950701763
1.0590532654390934
1.0549212763108462
1.0491993794045442
1.0397778508854845
1.028590959439645
0.5283344324649751
0.6367631360783396
0.7532174963157356
0.8567684874154631
0.9286550455367748
0.9734546446066037
1.0026897480093373
1.0219483817822947
1.0361267689579452
1.0466154492128537
1.0541001200246949
1.0593440005348551
1.0627308716906783
1.0659073303622124
1.0671637332580293
1.0678987323822209
1.0688628122392259
1.068163567644818
1.0669226229303508
1.0644590620642247
1.0606178292392927
1.0541994827514296
1.0447468922256866
1.0335717005083687
0.5381987099660092
0.6550151001429148
0.7787950250938571
0.87691527822079
0.9383206861714745
0.9777648276191283
1.0030815962740423
1.021562412246072
1.0351680647182817
1.0455913511623163
1.0536973398705443
1.060069286972411
1.064824269313281
1.0678437047637441
1.0701055551692302
1.0719007377759056
1.0733308826679688
1.073974040535875
1.0727485919804716
1.0702084995896368
1.0656121373985623
1.0593217082622066
1.0498877476783428
1.0381637888614308
0.5491049882191311
0.6800407726356328
0.809170844197417
0.8955311639114022
0.9476446014435755
0.9805760457357697
1.00393559320166
1.0217279188988027
1.0348727339214316
1.0456944145741731
1.054170778922977
1.060755882639761
1.0659415091134568
1.0703008626732746
1.0746865168724642
1.0773397645180078
1.0790298371084275
1.0796620611628927
1.0786989939269065
1.0763900599271037
1.0716465528535448
1.0644082783629507
1.0545148710828132
1.0420065491238073
0.5620284424208238
0.7123149534082809
0.8392535966638267
0.9129429771054016
0.9562532720888105
0.9840528898246886
1.004210612382885
1.0214654590793726
1.0346295429933183
1.0455316365427525
1.0548780571409626
1.062356004946525
1.0689983364803857
1.074297234856819
1.0792122660106758
1.0828489205829601
1.0852970573155407
1.085808247457525
1.084649130078699
1.0820138519149773
1.0765589807201887
1.0693099437029776
1.0587118340352875
1.0452489211131892
0.5789636778336263
0.751171714844162
0.867370651254468
0.9286125722616883
0.9635932713557148
0.9880771045131943
1.0057891228785953
1.0212351090455933
1.0346670949671855
1.045623297937583
1.0555919958793507
1.0642454749129422
1.0726112092861586
1.0793270323371824
1.0840636066320657
1.0873154011840864
1.0906618464521605
1.091097392259453
1.0898303947122452
1.0867818282352208
1.0809607450416991
1.0733315032127264
1.0613878897308655
1.0473535556258717
0.6018142335453116
0.7938211460512432
0.8927485029602676
0.9418100566280716
0.9710656281408514
0.9915940572552394
1.0088944499641723
1.022881929327302
1.0353011114113029
1.0469557766835567
1.0576796342931414
1.0672389108922742
1.0754722576784472
1.0836633505237085
1.088989942785906
1.0928234898899223
1.0946438213047316
1.0956977941578605
1.0937483381970414
1.0906916483357336
1.0841546042091184
1.0754779247629973
1.0632355540385512
1.049321971869591
0.6350992504583661
0.8351655156615131
0.9142057090349746
0.9523619431114201
0.9777893084463762
0.9960809374092434
1.0119135735314024
1.0255777932024628
1.037677969232413
1.047853449997467
1.0600373614097678
1.0706815385386204
1.0799515613625135
1.0866043395864846
1.0927169321952217
1.097165174662721
1.0989625994635197
1.098795820845287
1.096708465804832
1.0920596203098427
1.0854124841201482
1.0764286659303468
1.0643055266577364
1.0490730510976094
0.687158676227331
0.870498290564047
0.930275148027502
0.9619989326524616
0.9829218768101433
1.0009000275933133
1.0150264472546944
1.0286025117870805
1.040981735719505
1.052961586866755
1.063929822781287
1.074061677998885
1.0839888804169517
1.091392490391164
1.0965089239001362
1.0999799545133355
1.1014251774747488
1.1006671229383929
1.097886743427365
1.0926473640909138
1.085574024576969
1.0758459258748694
1.0632113178631157
1.0483651932500286
0.7569662503500001
0.8958029321685421
0.9410251741680126
0.9683856755374813
0.9878621794141762
1.0052435030813467
1.019491442382629
1.0318560053677093
1.0443754608178157
1.0572359669375144
1.069103375889116
1.0789891813951193
1.087609723873023
1.0948650230241896
1.0998801442402386
1.1022370147777478
1.1024983015740701
1.1016548671264883
1.0977440656171902
1.0916927504656615
1.0844881086833003
1.0743855878569357
1.0617440883543803
1.0464824983228278
0.8323588827185052
0.907743541130813
0.9456529366819887
0.9718258303312859
0.9922047685583394
1.0081037520803213
1.0231348424206717
1.0358737111131977
1.0497236804017132
1.0627621210650497
1.0749549565160215
1.0849815839911514
1.0923764658852313
1.0978744295470937
1.1017423127953996
1.1034587450629418
1.102854958240111
1.100694077023942
1.0961816735345296
1.090199524013692
1.0821097970187776
1.072035746227852
1.058766134205907
1.0430035583504147
0.07494081884156989
0.15173566138895792
0.235665975887523
0.2851554038776215
0.35398403149467994
0.455989011694972
0.1060509760952514
0.1833292141412432
0.25776578162690217
0.30214534703910023
0.3619919355040834
0.426068336632717
0.12148518757708318
0.19398027357131056
0.26053677106684
0.302839241589749
0.3628915971219063
0.4311441373108223
0.13518428099727234
0.20145581767672344
0.2606078848550954
0.30097488402652783
0.3632029719442113
0.4369548885658786
0.14893223170542044
0.20775985061686975
0.2594363830980279
0.299306234579706
0.3619853484940843
0.4383069436729557
0.1621669975335491
0.21252563095862623
0.25725047599579515
0.29727019041749136
0.35949193880531033
0.43590940797806116
0.17381545578949928
0.21566258546290246
0.25527350418830186
0.2949124162206544
0.3558912994572449
0.43034583816775696
0.18346877180212004
0.21762349713546075
0.25339243420191393
0.29266327891221855
0.35198281383608504
0.4234913055345517
0.1915498080232639
0.21888926384546448
0.25138451859482364
0.29033439245481063
0.3480645371685489
0.4166745186962463
0.19783556097996774
0.21990989179692663
0.24958882899850787
0.28867527171784085
0.3446420496577753
0.4113224403965659
0.2021873255143343
0.22081459507374973
0.2498904630230977
0.28834209418643353
0.3437559615273059
0.40999029437387
0.20449162468036308
0.2218467131356981
0.25123159260381145
0.2897057646458046
0.34457971753540007
0.4103496615493576
0.2049255358258497
0.22242692605715933
0.25328605494782525
0.29304395568222036
0.34832933675753974
0.41408740813541667
0.20298433105743752
0.22280063257993313
0.2557076359693035
0.297830851146442
0.35465247189783844
0.42063983448523223
0.19880496842225914
0.22281671359543886
0.2584329237483257
0.3028735297352247
0.36136393049376775
0.42841799937157815
0.19267817084230485
0.22222823941422484
0.2611662066667738
0.30743170870237113
0.36800792408021543
0.4366110959655454
0.18481069463300426
0.22105729635340624
0.26368185384129295
0.3112747698952663
0.37413244578260124
0.44421045801034914
0.17499210699415385
0.2188901857246075
0.2654270247453276
0.3144166340344844