/*--------------------------------*- C++ -*----------------------------------*\
  =========                 |
  \\      /  F ield         | OpenFOAM: The Open Source CFD Toolbox
   \\    /   O peration     | Website:  https://openfoam.org
    \\  /    A nd           | Version:  11
     \\/     M anipulation  |
\*---------------------------------------------------------------------------*/
FoamFile
{
    format      ascii;
    class       volScalarField;
    location    "0.58";
    object      epsilon;
}
// * * * * * * * * * * * * * * * * * * * * * * * * * * * * * * * * * * * * * //

dimensions      [0 2 -3 0 0 0 0];

internalField   nonuniform List<scalar> 
2880
(
1.7755
1.86465
2.7274
3.74811
4.94683
6.18587
0.835995
1.02818
1.59837
2.29968
3.25559
3.8458
0.227393
0.916167
1.42107
1.98835
2.65256
3.00695
0.252028
0.910002
1.37224
1.85484
2.36436
2.69691
0.269597
0.927108
1.34976
1.77559
2.21404
2.60177
0.279894
0.954195
1.3317
1.72049
2.13975
2.60652
1.23742
0.976765
1.31221
1.67758
2.10463
2.6588
1.31795
0.990364
1.28973
1.64033
2.08889
2.73723
1.38563
0.996364
1.26392
1.60429
2.08036
2.82699
1.43324
0.995643
1.23461
1.56608
2.07095
2.91906
1.45737
0.989489
1.20163
1.52324
2.05527
3.00959
1.45684
0.977122
1.16479
1.47409
2.0297
3.09777
1.4311
0.95885
1.124
1.41767
1.99174
3.18434
1.38239
0.935043
1.07924
1.35371
1.9397
3.26948
1.31888
0.905484
1.03041
1.2827
1.87261
3.34961
1.2491
0.866638
0.977683
1.20601
1.79023
3.41584
1.18822
0.810915
0.921691
1.12537
1.69295
3.46125
0.280607
0.722677
0.864855
1.04326
1.58207
3.47915
0.274178
0.654284
0.811217
0.963595
1.46051
3.46778
0.261923
0.606524
0.768074
0.892959
1.33378
3.42612
0.244188
0.587682
0.747232
0.84421
1.21352
3.35717
0.221176
0.620951
0.77214
0.847711
1.12661
3.29917
0.819647
0.831171
0.941301
0.987958
1.14887
3.3181
1.84053
2.00275
2.07515
1.97678
1.77319
3.2008
2.60206
2.08981
2.08681
2.30741
2.69741
3.19694
3.71292
4.11113
4.26697
4.11256
3.68172
3.05497
2.41505
1.8743
1.46727
1.17355
0.958072
0.795314
0.668725
0.566822
0.484712
0.420961
0.377138
0.357091
2.63841
2.37492
2.51722
2.89555
3.44444
4.05235
4.5639
4.81074
4.6733
4.22116
3.48749
2.71347
2.05521
1.56614
1.22337
0.980249
0.800654
0.663264
0.554337
0.467397
0.39948
0.34976
0.318538
0.306136
2.71214
2.75836
3.11088
3.69202
4.38959
5.02406
5.37667
5.26504
4.79916
3.95282
3.03497
2.25094
1.67659
1.28332
1.01115
0.813384
0.662787
0.544755
0.451998
0.380299
0.327112
0.290688
0.269937
0.263156
2.84579
3.23059
3.85376
4.65303
5.43566
5.93856
5.87499
5.40599
4.46151
3.38591
2.46669
1.80304
1.3573
1.05346
0.834326
0.668123
0.538792
0.438177
0.361207
0.304243
0.264312
0.238909
0.226093
0.223178
3.04538
3.77602
4.70609
5.69073
6.41401
6.48725
6.03592
5.02638
3.78088
2.71526
1.95502
1.45145
1.11117
0.866783
0.682237
0.539769
0.43001
0.346787
0.285365
0.241902
0.21298
0.195892
0.188437
0.18779
3.29174
4.37685
5.61474
6.67521
7.03505
6.66794
5.67024
4.25099
3.02111
2.14891
1.57606
1.19078
0.915027
0.708048
0.549691
0.428801
0.337862
0.27107
0.223657
0.191559
0.171318
0.160341
0.15653
0.157137
3.56951
5.017
6.51171
7.41281
7.24302
6.4007
4.83138
3.41517
2.40567
1.74472
1.30127
0.984979
0.749235
0.570659
0.435798
0.335326
0.262007
0.209961
0.174388
0.151293
0.137543
0.130853
0.129402
0.130666
3.86944
5.68235
7.31214
7.70298
7.12081
5.5906
3.9397
2.75184
1.97498
1.45467
1.08485
0.811219
0.606164
0.453232
0.340656
0.259222
0.201591
0.161952
0.135758
0.119413
0.110273
0.106434
0.106382
0.107994
4.18728
6.35552
7.86949
7.71297
6.52307
4.64336
3.22973
2.29526
1.66941
1.22673
0.90192
0.661234
0.484068
0.355433
0.263501
0.198914
0.154464
0.124714
0.105621
0.0941563
0.0881901
0.0861953
0.0868278
0.0886945
4.52401
7.01193
8.05686
7.41787
5.61256
3.89889
2.74301
1.97063
1.4281
1.03326
0.743548
0.53289
0.382122
0.275974
0.202335
0.151972
0.118123
0.0959636
0.0820829
0.0740486
0.0701964
0.0693304
0.0703175
0.0722381
4.88535
7.60602
8.02851
6.85303
4.82162
3.37003
2.39571
1.71506
1.22291
0.864675
0.606943
0.424965
0.298862
0.212799
0.154717
0.115895
0.0902835
0.0737836
0.0636347
0.0579481
0.0554531
0.0552303
0.0563697
0.0581846
5.28326
8.04942
7.81493
6.13412
4.27235
3.00526
2.12741
1.49755
1.04225
0.717447
0.490731
0.335944
0.232148
0.16336
0.118053
0.0883277
0.0689733
0.0566214
0.0491
0.0449789
0.0433068
0.043383
0.0445285
0.0461856
5.73541
8.26807
7.54798
5.53353
3.87324
2.72126
1.89748
1.30368
0.882113
0.590298
0.393554
0.263809
0.179512
0.125115
0.0900169
0.0673116
0.0526407
0.0432976
0.0376022
0.0344894
0.0332612
0.0334021
0.0344418
0.0359142
6.25496
8.32911
7.22477
5.12954
3.59054
2.48709
1.6922
1.12897
0.741066
0.481999
0.313583
0.206221
0.138473
0.095758
0.0686529
0.0512906
0.0401007
0.032935
0.0285013
0.0260112
0.0249609
0.025005
0.0258198
0.0270812
6.82389
8.33087
6.93455
4.87469
3.36381
2.27526
1.50278
0.971272
0.618176
0.391096
0.248716
0.160807
0.106762
0.0733439
0.0524082
0.0390787
0.0304727
0.0248929
0.0213394
0.0192189
0.0181692
0.0179655
0.0184422
0.0194295
7.3862
8.33574
6.75897
4.67951
3.15983
2.07576
1.3271
0.830079
0.512437
0.315808
0.19674
0.125346
0.0824307
0.0563051
0.0400871
0.0297899
0.0231088
0.018703
0.0157866
0.013895
0.0127474
0.0121766
0.0121322
0.0126641
7.9053
8.41051
6.67556
4.52005
2.96608
1.88512
1.16472
0.704959
0.422574
0.254195
0.155516
0.0978716
0.0638663
0.0434086
0.0307824
0.022767
0.0175314
0.0140159
0.0115939
0.00988308
0.00863496
0.00766719
0.00684926
0.0063973
8.42638
8.62169
6.65475
4.37018
2.77287
1.70122
1.01536
0.595134
0.347003
0.204258
0.123071
0.0767036
0.0497601
0.0336882
0.0238002
0.0175139
0.0133801
0.0105631
0.00856293
0.0070644
0.00585133
0.00475781
0.00363152
0.00195577
9.07413
9.01748
6.65086
4.21006
2.57474
1.52385
0.879077
0.499694
0.284051
0.164092
0.0976654
0.0604385
0.0390563
0.0263757
0.0185868
0.0136277
0.0103534
0.00810718
0.00649708
0.00527594
0.00427519
0.00337154
0.00246126
0.00128092
9.98348
9.59708
6.62339
4.02575
2.37034
1.354
0.755814
0.417458
0.231993
0.131945
0.0778112
0.0479283
0.0309078
0.0208506
0.0146774
0.0107434
0.00814216
0.00635564
0.00507555
0.00410751
0.0033173
0.00260582
0.00190144
0.00106238
11.2959
10.303
6.53385
3.80809
2.15946
1.19196
0.645001
0.347072
0.189179
0.106286
0.0622823
0.0382636
0.0246564
0.0166297
0.0117019
0.00855883
0.0064787
0.00504939
0.00402532
0.00325104
0.00261864
0.00205107
0.00150286
0.000897026
13.1894
10.9712
6.34066
3.54768
1.94161
1.03807
0.546034
0.287229
0.154132
0.0858273
0.0501014
0.0307481
0.0198128
0.0133622
0.00939817
0.00686703
0.00519058
0.00403828
0.00321275
0.00258886
0.00208013
0.0016281
0.00120563
0.000770253
15.959
11.351
6.04813
3.23804
1.71778
0.893118
0.458398
0.236728
0.125566
0.0695107
0.0405071
0.0248606
0.0160223
0.0108022
0.00758963
0.00553636
0.00417613
0.00324179
0.00257362
0.00207044
0.00166311
0.0013072
0.000985745
0.000672935
20.2988
11.4241
5.53205
2.87586
1.4926
0.758571
0.381731
0.194432
0.10235
0.0564842
0.0329162
0.0202153
0.0130296
0.00877678
0.00615569
0.00447985
0.00337067
0.00261061
0.00206944
0.00166479
0.00134101
0.00106381
0.000821913
0.000598326
2.5383
8.64635
11.3622
12.252
10.9799
58.203
1.0017
3.92052
5.3946
6.53476
8.9717
17.6255
1.43105
2.96014
3.91327
4.8673
6.54937
9.85157
2.02419
2.62927
3.28747
4.09046
5.28804
6.90502
2.5865
2.49826
2.94894
3.62072
4.51272
5.42824
3.08751
2.44003
2.7415
3.2933
3.96828
4.51985
3.50873
2.41124
2.59936
3.04612
3.559
3.89365
3.84164
2.3891
2.49173
2.8509
3.24005
3.43361
4.0846
2.36205
2.40318
2.69317
2.9872
3.08362
4.24037
2.32569
2.32686
2.56487
2.78626
2.81399
4.31462
2.2802
2.26058
2.46173
2.62836
2.60763
4.31519
2.22837
2.2047
2.38137
2.50849
2.45376
4.25241
2.17448
2.16034
2.32317
2.42383
2.34599
4.13089
2.12177
2.12927
2.28939
2.37471
2.28192
3.94194
2.07051
2.11389
2.27944
2.35986
2.26145
3.68502
2.02203
2.1144
2.29605
2.38126
2.28578
3.36318
1.97875
2.13531
2.34452
2.44591
2.3651
2.98188
1.94433
2.18156
2.43202
2.56474
2.51671
2.54971
1.92583
2.26167
2.57029
2.75821
2.77519
2.08184
1.93007
2.39132
2.77998
3.06574
3.21405
1.60709
1.97876
2.60391
3.11265
3.55357
4.01099
1.188
2.12182
2.98706
3.68941
4.36144
5.66585
0.944866
2.56794
3.86544
4.91708
5.78507
10.0026
2.26263
4.75738
7.03056
8.90965
8.51165
29.3838
24.0419
9.65907
4.74507
2.47991
1.27323
0.636293
0.315578
0.159272
0.0835217
0.0460732
0.0268853
0.0165274
0.0106498
0.00716297
0.00501176
0.00363718
0.00272957
0.0021104
0.00167263
0.00134874
0.00109351
0.000880012
0.00070002
0.000541387
13.0024
7.10053
3.91343
2.09564
1.06999
0.528252
0.259459
0.130329
0.0683106
0.03775
0.0220773
0.0135845
0.00874733
0.00587128
0.00409646
0.00296448
0.00222008
0.00171557
0.00136231
0.00110447
0.000904985
0.000742263
0.000609763
0.000498193
8.70061
5.58442
3.24776
1.75691
0.890322
0.435527
0.212729
0.106752
0.0560744
0.0310942
0.0182326
0.0112267
0.00722074
0.00483487
0.00336361
0.00242822
0.00181661
0.00140566
0.00112139
0.000917259
0.000762603
0.00063981
0.000543287
0.000465567
6.54068
4.53759
2.70327
1.46437
0.736097
0.357864
0.174454
0.087721
0.0462641
0.025768
0.0151498
0.00933181
0.00599297
0.00400257
0.0027774
0.00200195
0.00149862
0.00116396
0.000935767
0.000774987
0.000656
0.000564205
0.000494584
0.000440974
5.21717
3.73457
2.25348
1.21709
0.607185
0.294148
0.143514
0.0724598
0.0384133
0.0215002
0.0126718
0.00780554
0.00500435
0.00333441
0.00230943
0.00166436
0.00124929
0.00097668
0.000793856
0.000667779
0.000576869
0.000508836
0.00045907
0.000422452
4.31484
3.11441
1.88599
1.01221
0.50175
0.242668
0.118728
0.060269
0.0321327
0.0180739
0.0106752
0.00657415
0.00420802
0.00279863
0.00193682
0.00139808
0.00105485
0.000832532
0.000686195
0.000587671
0.000518621
0.000468574
0.000433282
0.000408531
3.65742
2.63311
1.5885
0.845086
0.416658
0.201479
0.0989734
0.0505448
0.0271037
0.0153172
0.00906321
0.00557959
0.00356671
0.00236968
0.00164104
0.00118894
0.000904056
0.000722333
0.000605163
0.000528323
0.000476101
0.0004395
0.000414652
0.000398127
3.16108
2.25692
1.34911
0.710225
0.348598
0.168709
0.0832638
0.0427847
0.0230696
0.0130939
0.00775941
0.00477578
0.00305057
0.00202693
0.00140697
0.0010254
0.000787783
0.000638703
0.000544697
0.000484754
0.00044533
0.000418673
0.000401309
0.000390451
2.78114
1.96074
1.15726
0.602213
0.294464
0.142705
0.0707683
0.0365803
0.0198266
0.0112964
0.00670325
0.00412596
0.0026356
0.00175366
0.00122237
0.000898139
0.000698722
0.000575778
0.000500031
0.000453107
0.00042329
0.000403919
0.000391899
0.000384913
2.48885
1.7274
1.00414
0.516165
0.251536
0.122076
0.0608103
0.0316033
0.0172153
0.00984
0.00584672
0.00360072
0.00230242
0.00153635
0.00107737
0.000799671
0.000631047
0.000528929
0.000467453
0.000430429
0.000407718
0.000393633
0.000385425
0.000381055
2.26518
1.54441
0.882498
0.447912
0.217542
0.105692
0.052853
0.0275976
0.0151031
0.00865706
0.00515164
0.00317653
0.00203551
0.00136414
0.000964046
0.000724032
0.000580139
0.000494515
0.000444079
0.000414479
0.000396932
0.00038661
0.000381133
0.00037846
2.09753
1.40254
0.786414
0.394058
0.190641
0.0926488
0.0464719
0.0243626
0.0133874
0.00769456
0.00458765
0.00283459
0.00182244
0.00122842
0.00087616
0.000666546
0.000542399
0.000469715
0.000427711
0.000403593
0.000389728
0.000382084
0.000378403
0.000376761
1.97778
1.29497
0.711057
0.351991
0.169368
0.0822362
0.0413339
0.0217398
0.0119897
0.00691068
0.00413056
0.00255989
0.00165335
0.0011224
0.000808871
0.000623641
0.000515108
0.00045243
0.000416741
0.000396581
0.000385275
0.000379436
0.000376793
0.000375746
1.90121
1.21691
0.652982
0.319256
0.152539
0.0738944
0.0371781
0.0196049
0.0108482
0.00627214
0.00376102
0.00234043
0.00152041
0.00104076
0.000758422
0.000592575
0.000496215
0.000441102
0.000409992
0.000392555
0.000382926
0.00037813
0.00037604
0.000375259
1.86721
1.16521
0.609529
0.293968
0.139221
0.0671845
0.0337999
0.0178597
0.00991384
0.00575224
0.00346344
0.00216654
0.00141735
0.000979246
0.000721825
0.000571178
0.0004841
0.000434522
0.000406576
0.0003909
0.000382245
0.00037788
0.000375907
0.000375146
1.87514
1.13808
0.578737
0.274748
0.128686
0.0617595
0.0310367
0.0164259
0.00914711
0.00532939
0.00322517
0.00203042
0.0013391
0.000934454
0.000696709
0.000557737
0.000477503
0.000431764
0.000405812
0.000391075
0.000382764
0.000378335
0.000376178
0.000375209
1.93154
1.13508
0.559443
0.260549
0.120354
0.057339
0.0287569
0.0152399
0.00851583
0.00498594
0.0030359
0.00192574
0.00128164
0.000903726
0.00068126
0.000550985
0.000475545
0.000432151
0.000407242
0.000392784
0.000384359
0.000379526
0.000376853
0.000375411
2.04692
1.15661
0.551587
0.250526
0.113731
0.0536883
0.0268512
0.014249
0.00799339
0.00470732
0.0028872
0.00184737
0.00124175
0.000884991
0.000674097
0.000549981
0.000477372
0.00043529
0.00041059
0.000395835
0.000386853
0.000381318
0.000377899
0.000375761
2.2396
1.20626
0.553678
0.243864
0.108365
0.0506005
0.0252258
0.0134086
0.00755736
0.00448135
0.00277206
0.00179119
0.00121691
0.000876665
0.000674205
0.000553818
0.000482923
0.000440952
0.000415741
0.000400183
0.000390254
0.000383701
0.000379282
0.000376255
2.53922
1.28859
0.564776
0.239771
0.103866
0.0478967
0.0237989
0.0126796
0.00718833
0.00429759
0.00268467
0.00175382
0.00120513
0.000877541
0.000680671
0.000562641
0.000491836
0.000449065
0.000422687
0.00040585
0.000394604
0.000386727
0.000381067
0.000376951
2.99068
1.40889
0.583366
0.23705
0.0998145
0.045419
0.0225044
0.0120313
0.00687057
0.0041472
0.00262012
0.00173256
0.00120487
0.000886702
0.000693549
0.000575984
0.000504125
0.000459695
0.000431527
0.000412945
0.000400013
0.000390511
0.00038337
0.000377947
3.64908
1.57137
0.60575
0.234096
0.0957165
0.0430101
0.0212831
0.0114382
0.00659274
0.00402512
0.00257552
0.00172553
0.00121513
0.000903939
0.000712477
0.000593915
0.000519933
0.000473042
0.000442473
0.000421671
0.000406666
0.000395224
0.000386346
0.000379368
4.56802
1.74894
0.621831
0.228603
0.0910539
0.0405232
0.0200847
0.0108796
0.00634521
0.00392627
0.00254784
0.00173107
0.00123511
0.00092878
0.000737344
0.000616579
0.00053952
0.000489414
0.00045584
0.000432321
0.000414827
0.000401097
0.000390191
0.000381373
5.73812
1.84564
0.614024
0.21801
0.0853341
0.0378424
0.0188738
0.0103414
0.00612109
0.00384622
0.00253482
0.00174817
0.0012643
0.000961042
0.000768285
0.00064424
0.000563228
0.000509183
0.000471996
0.000445249
0.000424831
0.000408442
0.000395129
0.000384156
2.58904
2.52226
2.6869
2.91859
4.48816
34.8447
0.985208
1.33905
2.03784
3.2615
7.75537
15.1614
0.258539
1.27955
2.32531
4.08073
7.37268
8.66868
0.280047
1.4266
2.62366
4.38572
6.09581
5.79535
1.31019
1.6299
2.82361
4.25928
4.99993
4.10116
1.61678
1.78663
2.92784
3.92266
4.16897
3.03382
1.89474
1.9047
2.92991
3.58312
3.51955
2.33195
2.14022
1.99785
2.8705
3.29468
3.00263
1.85828
2.34569
2.07202
2.78364
3.05006
2.60209
1.53508
2.50094
2.12966
2.69955
2.8489
2.30054
1.31659
2.59846
2.17307
2.63081
2.69049
2.08218
1.17326
2.63386
2.20279
2.58394
2.57344
1.93554
1.08824
2.61057
2.22016
2.55732
2.49735
1.85278
1.05531
2.53458
2.22454
2.54583
2.46196
1.83436
1.06062
2.41854
2.21589
2.54367
2.46106
1.86044
1.11322
2.27793
2.19185
2.54448
2.48696
1.95208
1.21864
2.1189
2.14903
2.54777
2.54356
2.09917
1.38508
1.92717
2.088
2.55539
2.62965
2.29897
1.62444
1.69666
2.018
2.57301
2.75175
2.54181
1.9579
1.42125
1.95661
2.61451
2.91673
2.83474
2.4045
1.19733
1.93162
2.71347
3.14081
3.20445
2.97056
0.257761
2.00547
2.95969
3.4905
3.72512
3.78745
0.964376
2.46629
3.69691
4.28144
4.62277
5.57578
2.33379
5.26917
7.34053
7.46415
7.24528
6.17697
5.15671
1.7067
0.57226
0.20136
0.0782837
0.0349146
0.0176375
0.00981906
0.00591771
0.00378348
0.00253532
0.00177651
0.00130275
0.00100099
0.000805676
0.000677344
0.000591543
0.00053285
0.000491446
0.000460948
0.000437129
0.000417566
0.000401166
0.000387763
4.12771
1.43793
0.501712
0.177965
0.0699585
0.0317689
0.0163892
0.00931987
0.00573735
0.00373923
0.00255062
0.00181682
0.00135117
0.0010494
0.000850319
0.000716708
0.00062527
0.000561178
0.000514868
0.000479973
0.000452103
0.000428676
0.000408509
0.000392229
3.01399
1.12492
0.409935
0.150408
0.0611545
0.0286423
0.015188
0.00886631
0.00558739
0.00371649
0.00258275
0.00187082
0.0014111
0.00110769
0.000903576
0.00076364
0.000665649
0.000595302
0.000543251
0.000503118
0.000470342
0.000442239
0.000417789
0.000397898
2.23054
0.870276
0.328049
0.125185
0.0530295
0.0257643
0.0140999
0.00847824
0.00547701
0.00371931
0.00263516
0.00194133
0.00148493
0.00117798
0.000967369
0.000819904
0.000714297
0.000636687
0.000577892
0.000531519
0.000492854
0.000459208
0.000429854
0.000405286
1.68474
0.675186
0.261557
0.103913
0.0460068
0.0232594
0.0131698
0.00816856
0.005413
0.00375589
0.00271297
0.00203232
0.00157596
0.0012631
0.00104419
0.00088773
0.000773224
0.000687156
0.000620453
0.000566687
0.000520992
0.000480694
0.000445368
0.000414757
1.3022
0.529896
0.210113
0.0868466
0.0402221
0.0211885
0.0124312
0.00795374
0.00540329
0.00383351
0.00282259
0.00214908
0.00168859
0.00136681
0.00113728
0.000969959
0.000844973
0.000749016
0.000673037
0.000610509
0.000556366
0.000507927
0.000465134
0.000426695
1.03141
0.423324
0.171372
0.0736146
0.0356476
0.0195645
0.0119154
0.00786106
0.00546823
0.00396352
0.00297261
0.00229858
0.00182863
0.00149401
0.00125087
0.0010703
0.000932853
0.000825262
0.000738366
0.000665428
0.00060107
0.000542538
0.000490274
0.000441657
0.838491
0.345951
0.142779
0.0636697
0.032202
0.0183994
0.0116195
0.00788696
0.0056214
0.00415916
0.00317412
0.00249005
0.0020038
0.00165122
0.00139053
0.00119362
0.00104117
0.000919768
0.000819952
0.000734602
0.000657855
0.00058675
0.00052237
0.000460425
0.701234
0.29049
0.122185
0.0564993
0.0297968
0.0177024
0.0115722
0.00806874
0.00588385
0.00443796
0.00344178
0.0027357
0.00222434
0.00184712
0.00156369
0.00134634
0.00117557
0.00103756
0.000922322
0.000822113
0.000730321
0.000643546
0.000563603
0.000484069
0.605112
0.251725
0.107963
0.0517
0.0283623
0.0174939
0.0117961
0.00843636
0.00628325
0.00482335
0.00379523
0.00305197
0.00250405
0.00209334
0.00178026
0.00153699
0.0013435
0.00118523
0.00105137
0.000933263
0.000823187
0.000716917
0.000616951
0.00051402
0.540672
0.226138
0.0990029
0.0490204
0.0278941
0.017804
0.0123447
0.00903392
0.0068575
0.00534724
0.00426118
0.00346124
0.00286171
0.00240574
0.00205373
0.00177716
0.00155501
0.0013716
0.00121493
0.00107506
0.000942709
0.000812239
0.000686509
0.000552151
0.502276
0.211664
0.0947541
0.0483661
0.0284264
0.0187029
0.0132905
0.00992443
0.00765958
0.00605388
0.00487658
0.00399442
0.00332332
0.00280633
0.00240288
0.00208301
0.00182414
0.00160895
0.00142384
0.00125715
0.00109749
0.000937022
0.000778103
0.000600845
0.489361
0.207792
0.0947608
0.0497844
0.0301237
0.0203249
0.0147444
0.0111991
0.00876473
0.00700564
0.00569336
0.00469499
0.00392552
0.00332629
0.00285451
0.00247785
0.00217136
0.00191543
0.00169427
0.00149393
0.00130041
0.00110271
0.000900953
0.000663321
0.495413
0.213984
0.099928
0.053753
0.0332654
0.0228848
0.0168737
0.0129915
0.0102815
0.00829183
0.0067857
0.00562506
0.00472089
0.00401068
0.00344786
0.00299648
0.00262811
0.0023199
0.00205293
0.00181013
0.00157416
0.00133022
0.0010733
0.000746113
0.531643
0.233951
0.11142
0.0609912
0.038328
0.0267211
0.0199316
0.0154994
0.0123689
0.0100425
0.00826123
0.00687475
0.00578583
0.00492542
0.00424116
0.00369182
0.00324417
0.0028709
0.00254878
0.00225633
0.00197145
0.00167336
0.00134574
0.000879966
0.602088
0.271223
0.131442
0.0727648
0.0460992
0.0323678
0.0243072
0.0190215
0.0152641
0.0124503
0.0102786
0.00857641
0.00723233
0.0061671
0.00532005
0.00464283
0.0040962
0.00364782
0.00327039
0.00293943
0.00263032
0.00231377
0.00193531
0.00143834
0.717696
0.332953
0.163935
0.0912549
0.0578819
0.0406789
0.0306073
0.0240159
0.0193273
0.0158053
0.0130755
0.0109268
0.00922531
0.00787607
0.00680665
0.00595939
0.00528818
0.0047568
0.00433861
0.00401643
0.00378122
0.00363337
0.00361224
0.00392994
0.894483
0.430506
0.215478
0.12013
0.0758329
0.0530363
0.0397946
0.0311983
0.0251148
0.0205525
0.0170137
0.0142233
0.0120108
0.0102574
0.00887361
0.00778894
0.0069487
0.00631296
0.00585717
0.00557208
0.00546113
0.00554378
0.00590329
0.00667655
1.15417
0.580515
0.296469
0.165413
0.103511
0.0716948
0.0534155
0.041703
0.0335002
0.0273862
0.0226549
0.0189247
0.0159654
0.0136213
0.0117771
0.0103446
0.00925725
0.00846998
0.00795932
0.007721
0.0077603
0.00808255
0.00880504
0.00995789
1.52286
0.804661
0.422034
0.236553
0.146682
0.100323
0.0739672
0.0573451
0.0458714
0.0374043
0.0308855
0.0257536
0.0216805
0.0184517
0.0159133
0.0139503
0.0124791
0.0114452
0.0108226
0.0106066
0.0107796
0.0113543
0.0124475
0.0140026
2.0481
1.13071
0.612296
0.347331
0.214289
0.144765
0.105451
0.0810256
0.0644404
0.0523557
0.0431192
0.0358656
0.0301037
0.0255249
0.0219156
0.0191209
0.0170303
0.0155733
0.0147139
0.0144404
0.0147017
0.0155068
0.0169807
0.0189978
2.80036
1.58922
0.891097
0.516422
0.319483
0.213977
0.154107
0.1173
0.0926936
0.07501
0.0616095
0.0511166
0.0427688
0.0361054
0.0308209
0.0266999
0.0235917
0.0213989
0.0200668
0.0195677
0.0198231
0.0207821
0.0226394
0.0251972
3.90368
2.18124
1.25522
0.75082
0.473562
0.318532
0.228429
0.17279
0.13587
0.109616
0.0898728
0.0744495
0.0621453
0.0522581
0.0443417
0.0380931
0.033303
0.0298349
0.0276067
0.0265601
0.0266348
0.0275899
0.0297566
0.0329507
6.0227
3.53845
1.89622
1.11654
0.704784
0.474961
0.340285
0.256692
0.201387
0.162338
0.133141
0.110357
0.0920987
0.0772918
0.065282
0.0556443
0.0480929
0.0424415
0.0385785
0.0364068
0.0358522
0.0366093
0.0388908
0.0427959
1.94615
2.50251
3.05601
3.18069
2.92338
2.8516
0.867093
1.06275
1.34183
1.49077
1.54257
1.77771
0.233099
0.804894
1.03857
1.16173
1.2557
1.48865
0.255772
0.762344
0.957031
1.06977
1.17472
1.37698
0.270952
0.789957
0.942893
1.0515
1.16187
1.34015
0.280989
0.860243
0.958417
1.06556
1.18092
1.34304
1.32332
0.926687
0.988167
1.09645
1.21701
1.37075
1.46567
0.97586
1.02336
1.13552
1.26181
1.4112
1.59148
1.0139
1.05961
1.17837
1.31062
1.45787
1.69468
1.04297
1.09526
1.22263
1.36066
1.50655
1.77337
1.0653
1.13002
1.26705
1.41031
1.55448
1.82771
1.08313
1.16403
1.31125
1.45878
1.59999
1.85853
1.0984
1.1977
1.35545
1.50604
1.64245
1.85709
1.11015
1.23175
1.40043
1.55278
1.68223
1.82059
1.11844
1.2672
1.44757
1.60061
1.72079
1.74858
1.12385
1.30554
1.49909
1.65232
1.76092
1.64217
1.12737
1.349
1.5585
1.71249
1.8073
1.50365
1.13024
1.40097
1.63136
1.78773
1.86607
1.33338
1.1347
1.4671
1.72671
1.88865
1.95396
1.19491
1.14495
1.55751
1.86028
2.03793
2.09675
0.265265
1.17024
1.69333
2.06414
2.27897
2.34954
0.241459
1.24912
1.9294
2.41696
2.70946
2.84149
0.890398
1.49313
2.47285
3.18958
3.60847
3.894
1.97465
2.64769
4.51308
5.94209
6.35001
6.21222
5.6107
4.43824
2.6049
1.58925
1.02442
0.698469
0.502721
0.379941
0.298535
0.241214
0.198505
0.165168
0.138291
0.116238
0.0980557
0.0831604
0.0711797
0.0618797
0.055129
0.0508148
0.048803
0.0489678
0.050971
0.055507
4.50822
4.64852
3.67492
2.30269
1.48342
1.01259
0.731627
0.554707
0.437256
0.355019
0.294055
0.246502
0.207949
0.17591
0.148987
0.126386
0.107651
0.09253
0.0809099
0.0727425
0.0678747
0.0662647
0.0676441
0.0724103
2.97316
4.53826
4.33034
3.43697
2.31639
1.55838
1.09493
0.814026
0.6357
0.514953
0.427938
0.361549
0.308171
0.263564
0.225455
0.192645
0.16454
0.140898
0.121698
0.107067
0.0970306
0.0915417
0.0913779
0.0955967
2.18322
3.82478
4.40722
4.19308
3.50127
2.57881
1.83969
1.32365
0.988693
0.771282
0.626461
0.524159
0.447007
0.385324
0.333486
0.288528
0.249067
0.214587
0.185085
0.160889
0.142469
0.130129
0.125238
0.12847
1.85323
3.02523
4.02546
4.33888
4.18971
3.71739
2.99869
2.31212
1.74254
1.31611
1.0153
0.809192
0.665539
0.562185
0.483453
0.420003
0.366221
0.319168
0.2777
0.241749
0.211872
0.188982
0.174923
0.17546
1.71693
2.5293
3.43324
4.08605
4.32475
4.25473
3.97018
3.45235
2.87447
2.31269
1.81861
1.41759
1.11382
0.892471
0.733735
0.618222
0.5309
0.46159
0.403813
0.354081
0.311119
0.275087
0.247703
0.241318
1.66895
2.26069
2.98892
3.6575
4.12951
4.34577
4.33808
4.18382
3.84777
3.3993
2.90532
2.4096
1.95103
1.55622
1.23809
0.994893
0.814896
0.682599
0.583497
0.506565
0.444342
0.392496
0.348551
0.330161
1.66369
2.12311
2.70313
3.29527
3.80228
4.16794
4.36692
4.40777
4.32918
4.12565
3.79939
3.40056
2.95823
2.50409
2.06891
1.67885
1.35097
1.09069
0.89261
0.745147
0.635168
0.551957
0.483146
0.445079
1.68175
2.0561
2.52515
3.0267
3.49585
3.88718
4.17559
4.35189
4.41769
4.38492
4.26573
4.03725
3.73048
3.36461
2.95923
2.53803
2.1269
1.74962
1.4241
1.15879
0.952228
0.797686
0.677805
0.59908
1.7104
2.02459
2.40926
2.82693
3.23364
3.59625
3.89454
4.11815
4.26353
4.33078
4.32137
4.249
4.09543
3.86974
3.58278
3.24479
2.87122
2.48336
2.10305
1.7503
1.44185
1.18723
0.984313
0.830343
1.74173
2.00809
2.32439
2.66666
3.00435
3.31384
3.58053
3.79666
3.95898
4.06677
4.1202
4.11935
4.07181
3.96261
3.79553
3.58008
3.32125
3.02086
2.68902
2.34153
2.00016
1.68302
1.40779
1.17337
1.77102
1.99487
2.25149
2.5246
2.79275
3.03931
3.25444
3.4334
3.57475
3.67895
3.74717
3.78026
3.77845
3.74419
3.66894
3.5508
3.39088
3.19326
2.96295
2.70639
2.42709
2.13312
1.84761
1.59577
1.79584
1.97899
2.17997
2.38869
2.58965
2.77174
2.92893
3.05913
3.16258
3.24093
3.29635
3.33045
3.34449
3.33892
3.31283
3.26183
3.18408
3.07715
2.93891
2.76966
2.57673
2.37067
2.16733
1.99633
1.81542
1.95744
2.10526
2.25409
2.39293
2.51513
2.61793
2.70139
2.76702
2.81688
2.85291
2.87667
2.88891
2.89151
2.88367
2.86457
2.83215
2.78376
2.71625
2.62846
2.52151
2.4009
2.28514
2.19356
1.83035
1.92967
2.02663
2.12097
2.20559
2.27741
2.33644
2.38449
2.42391
2.45654
2.48218
2.50165
2.51531
2.52297
2.52446
2.5176
2.50082
2.47423
2.43803
2.39164
2.33631
2.27712
2.22185
2.15342
1.84233
1.89674
1.94558
1.99249
2.03324
2.06745
2.09775
2.12743
2.15867
2.19338
2.23422
2.27742
2.31672
2.34558
2.36135
2.36514
2.35509
2.33087
2.29414
2.24633
2.1894
2.12663
2.05993
1.97389
1.85409
1.86074
1.86488
1.87289
1.88197
1.89328
1.91189
1.94171
1.98729
2.05082
2.12381
2.19625
2.25662
2.30244
2.33011
2.34153
2.337
2.3142
2.27742
2.22883
2.17026
2.10253
2.02258
1.93226
1.87122
1.82443
1.78784
1.76652
1.75742
1.76039
1.78365
1.83364
1.91096
2.00434
2.10442
2.2004
2.28337
2.34514
2.38155
2.38739
2.36971
2.33932
2.29638
2.24324
2.18204
2.11233
2.03035
1.95212
1.89818
1.79105
1.71858
1.67886
1.66416
1.67408
1.71868
1.79976
1.91326
2.04918
2.18832
2.30884
2.39483
2.43635
2.42511
2.40132
2.35653
2.29276
2.21739
2.13536
2.05
1.9627
1.8754
1.80965
1.94257
1.76467
1.66275
1.61697
1.60953
1.64361
1.72543
1.85677
2.02744
2.21278
2.37813
2.48899
2.52782
2.48559
2.40644
2.29157
2.15983
2.02392
1.89003
1.7605
1.63565
1.51665
1.4077
1.32273
2.01477
1.75162
1.62908
1.59002
1.60789
1.68482
1.82695
2.0287
2.26485
2.48931
2.64981
2.71191
2.667
2.49915
2.27528
2.04082
1.81691
1.61418
1.43425
1.27372
1.12725
0.994817
0.875311
0.788106
2.1286
1.76001
1.63023
1.61175
1.67502
1.82177
2.04949
2.33548
2.63064
2.86492
2.9764
2.9524
2.74772
2.43704
2.10364
1.79189
1.5223
1.29814
1.1129
0.958634
0.831862
0.723156
0.629824
0.567247
2.29634
1.80225
1.67954
1.70705
1.84789
2.09377
2.42448
2.79224
3.11596
3.30846
3.31862
3.13685
2.76368
2.33382
1.92868
1.58943
1.3205
1.11123
0.946544
0.812796
0.700171
0.604141
0.524339
0.474512
2.49967
1.90352
1.81605
1.92319
2.17371
2.54155
2.97896
3.39871
3.68878
3.76439
3.59599
3.18925
2.66283
2.1466
1.71547
1.38489
1.1371
0.950033
0.805256
0.688736
0.592323
0.512864
0.451713
0.418003
)
;

boundaryField
{
    rotor
    {
        type            epsilonWallFunction;
        value           nonuniform List<scalar> 
144
(
1.7755
1.86465
2.7274
3.74811
4.94683
6.18587
1.7755
0.835995
0.227393
0.252028
0.269597
0.279894
1.23742
1.31795
1.38563
1.43324
1.45737
1.45684
1.4311
1.38239
1.31888
1.2491
1.18822
0.280607
0.274178
0.261923
0.244188
0.221176
0.819647
1.84053
1.84053
2.00275
2.07515
1.97678
1.77319
3.2008
2.5383
8.64635
11.3622
12.252
10.9799
58.203
2.5383
1.0017
1.43105
2.02419
2.5865
3.08751
3.50873
3.84164
4.0846
4.24037
4.31462
4.31519
4.25241
4.13089
3.94194
3.68502
3.36318
2.98188
2.54971
2.08184
1.60709
1.188
0.944866
2.26263
2.26263
4.75738
7.03056
8.90965
8.51165
29.3838
2.58904
2.52226
2.6869
2.91859
4.48816
34.8447
2.58904
0.985208
0.258539
0.280047
1.31019
1.61678
1.89474
2.14022
2.34569
2.50094
2.59846
2.63386
2.61057
2.53458
2.41854
2.27793
2.1189
1.92717
1.69666
1.42125
1.19733
0.257761
0.964376
2.33379
2.33379
5.26917
7.34053
7.46415
7.24528
6.17697
1.94615
2.50251
3.05601
3.18069
2.92338
2.8516
1.94615
0.867093
0.233099
0.255772
0.270952
0.280989
1.32332
1.46567
1.59148
1.69468
1.77337
1.82771
1.85853
1.85709
1.82059
1.74858
1.64217
1.50365
1.33338
1.19491
0.265265
0.241459
0.890398
1.97465
1.97465
2.64769
4.51308
5.94209
6.35001
6.21222
)
;
    }
    freestream
    {
        type            inletOutlet;
        inletValue      uniform 0.000375;
        value           nonuniform List<scalar> 
96
(
0.357091
0.306136
0.263156
0.223178
0.18779
0.157137
0.130666
0.107994
0.0886945
0.0722381
0.0581846
0.0461856
0.0359142
0.0270812
0.0194295
0.0126641
0.0063973
0.000375
0.000375
0.000375
0.000375
0.000375
0.000375
0.000375
0.000375
0.000375
0.000375
0.000375
0.000375
0.000375
0.000375
0.000375
0.000375
0.000375
0.000375
0.000375
0.000375
0.000375
0.000375
0.000375
0.000375
0.000375
0.000375
0.000375
0.000375
0.000375
0.000375
0.000375
0.000375
0.000375
0.000375
0.000375
0.000375
0.000375
0.000375
0.000375
0.000375
0.000375
0.000375
0.000375
0.000375
0.000375
0.000375
0.00143834
0.00392994
0.00667655
0.00995789
0.0140026
0.0189978
0.0251972
0.0329507
0.0427959
0.055507
0.0724103
0.0955967
0.12847
0.17546
0.241318
0.330161
0.445079
0.59908
0.830343
1.17337
1.59577
1.99633
2.19356
2.15342
1.97389
1.93226
1.95212
1.80965
1.32273
0.788106
0.567247
0.474512
0.418003
)
;
    }
    frontAndBack
    {
        type            empty;
    }
}


// ************************************************************************* //
