/*--------------------------------*- C++ -*----------------------------------*\
  =========                 |
  \\      /  F ield         | OpenFOAM: The Open Source CFD Toolbox
   \\    /   O peration     | Website:  https://openfoam.org
    \\  /    A nd           | Version:  11
     \\/     M anipulation  |
\*---------------------------------------------------------------------------*/
FoamFile
{
    format      ascii;
    class       volScalarField;
    location    "0.58";
    object      k;
}
// * * * * * * * * * * * * * * * * * * * * * * * * * * * * * * * * * * * * * //

dimensions      [0 2 -2 0 0 0 0];

internalField   nonuniform List<scalar> 
2880
(
0.00380802
0.00774546
0.0186255
0.038126
0.0701627
0.116767
0.0160907
0.0239999
0.0404201
0.0621341
0.0912564
0.128026
0.0201912
0.0336823
0.0533196
0.0767973
0.10543
0.138254
0.0223689
0.0405962
0.0622921
0.0868757
0.115284
0.146694
0.0239016
0.046041
0.0689711
0.0941437
0.122492
0.153785
0.0249013
0.0504899
0.0739517
0.099353
0.127753
0.159605
0.0257067
0.0539707
0.0775496
0.10291
0.131392
0.164093
0.0267859
0.0565297
0.0799727
0.105062
0.133563
0.167185
0.0276927
0.0582659
0.0813734
0.105973
0.13436
0.168873
0.0283232
0.0592615
0.0818682
0.105782
0.133878
0.1692
0.0286402
0.0595811
0.0815816
0.104547
0.132153
0.168247
0.0286332
0.0592899
0.0805292
0.102375
0.12928
0.166126
0.0282948
0.0583891
0.0788087
0.0993557
0.125341
0.162949
0.0276492
0.0569097
0.0764823
0.0955839
0.120431
0.158826
0.026796
0.0548404
0.0736059
0.0911588
0.114666
0.153909
0.0258424
0.0521857
0.0702297
0.0861841
0.108179
0.14845
0.0249918
0.0490125
0.0664072
0.0807642
0.101125
0.142783
0.0249164
0.0455219
0.0622076
0.0749971
0.0936529
0.136887
0.024347
0.0420476
0.0577091
0.0689571
0.0858174
0.13053
0.0232602
0.0385008
0.0529069
0.0626651
0.077564
0.123234
0.021686
0.0346646
0.0476179
0.0560352
0.0687422
0.114467
0.0196426
0.0300736
0.0413056
0.0486566
0.0589055
0.104258
0.015779
0.0233036
0.0323769
0.0391344
0.0463969
0.0906015
0.00394832
0.00831674
0.0141733
0.0201136
0.0251718
0.0605048
0.158537
0.171189
0.180368
0.190925
0.203834
0.218087
0.231095
0.239422
0.240002
0.230668
0.212614
0.19022
0.167502
0.148511
0.134695
0.12519
0.118436
0.113413
0.109566
0.106541
0.104432
0.103573
0.104154
0.105994
0.164105
0.181978
0.196288
0.2119
0.228918
0.244925
0.256202
0.258671
0.249795
0.231449
0.206048
0.179358
0.156631
0.139982
0.12863
0.12067
0.114702
0.110103
0.106554
0.104125
0.103041
0.103354
0.104768
0.10726
0.172668
0.196382
0.216435
0.23688
0.256336
0.270901
0.275651
0.267936
0.249867
0.221662
0.191297
0.165087
0.145809
0.13263
0.123355
0.116294
0.110646
0.106194
0.103054
0.101399
0.101323
0.102322
0.104678
0.107382
0.181993
0.212353
0.238554
0.26284
0.281982
0.290048
0.284168
0.267414
0.236948
0.203258
0.17384
0.152107
0.13716
0.126493
0.118175
0.111309
0.105703
0.101518
0.0989612
0.0981499
0.0986989
0.100504
0.103414
0.10622
0.191268
0.228311
0.260257
0.286303
0.300566
0.297745
0.283188
0.252329
0.215625
0.183195
0.159115
0.142405
0.130269
0.120587
0.112379
0.105446
0.0999695
0.0961991
0.0942787
0.0941641
0.0952043
0.0976023
0.100721
0.103488
0.1998
0.243071
0.279414
0.303904
0.307673
0.296834
0.267699
0.228573
0.193445
0.16714
0.148653
0.134956
0.123793
0.114141
0.105782
0.0988749
0.0936922
0.0904374
0.0891421
0.0894692
0.0909993
0.0937126
0.09688
0.0995489
0.207114
0.255837
0.294309
0.311341
0.306577
0.282982
0.242778
0.205231
0.176659
0.156275
0.140873
0.128086
0.116868
0.106983
0.0985637
0.0918625
0.0871072
0.0843912
0.08362
0.0842635
0.0861473
0.0889613
0.0920807
0.0946231
0.212987
0.266165
0.303334
0.310935
0.295457
0.258763
0.219113
0.18814
0.165688
0.148416
0.133834
0.120879
0.109332
0.0993142
0.0910377
0.084704
0.0804325
0.0781964
0.0778044
0.0786618
0.0807179
0.0835105
0.086508
0.0889049
0.217403
0.273912
0.305552
0.301947
0.275632
0.235106
0.201859
0.177268
0.158013
0.141467
0.126566
0.11315
0.101376
0.0914394
0.083491
0.0776149
0.0738083
0.071947
0.0717849
0.072746
0.0748204
0.0774993
0.0803245
0.0825658
0.220501
0.279132
0.301558
0.28824
0.253132
0.218057
0.191348
0.17007
0.151436
0.134375
0.118828
0.105051
0.0932804
0.0836363
0.0761376
0.070736
0.0673218
0.0657082
0.0656333
0.0665888
0.0685527
0.0710442
0.0736615
0.075745
0.222457
0.281455
0.291829
0.271437
0.236366
0.207972
0.184885
0.164196
0.144818
0.126852
0.110742
0.0968435
0.0853082
0.0761076
0.0691109
0.0641474
0.0610271
0.0595327
0.0594148
0.0602588
0.062002
0.0642426
0.0666227
0.0685506
0.223451
0.281037
0.280122
0.256005
0.226868
0.202549
0.180128
0.15843
0.137791
0.118962
0.102532
0.0887692
0.0776523
0.0689815
0.0624857
0.0578949
0.0549657
0.0534729
0.0531965
0.0538264
0.0552499
0.0571762
0.0592877
0.0610607
0.22348
0.277808
0.270281
0.246379
0.222455
0.199295
0.175674
0.152272
0.130344
0.110892
0.0944268
0.0810178
0.0704407
0.0623303
0.0562999
0.0520081
0.0491785
0.0475901
0.0470565
0.0473712
0.0483794
0.0499164
0.0517141
0.0533255
0.22228
0.273121
0.262795
0.24304
0.221168
0.196776
0.170922
0.145637
0.122624
0.102853
0.086612
0.0737204
0.063748
0.0561895
0.050574
0.046514
0.0437149
0.041961
0.0410946
0.0409898
0.0414917
0.0425331
0.0439351
0.045356
0.219461
0.269217
0.259773
0.24302
0.221192
0.194146
0.165643
0.138596
0.114809
0.0950248
0.0792239
0.0669584
0.057613
0.0505758
0.0453229
0.0414437
0.0386348
0.0366826
0.0354428
0.0348176
0.0347315
0.0351079
0.0359429
0.0370751
0.215308
0.26725
0.259614
0.246176
0.221594
0.191035
0.159809
0.131281
0.107069
0.087548
0.0723522
0.0607762
0.0520525
0.0454977
0.0405633
0.0368341
0.034006
0.0318627
0.0302553
0.029083
0.0282731
0.0277841
0.0276788
0.0281792
0.211944
0.26709
0.26374
0.251028
0.22195
0.187252
0.153471
0.123835
0.0995415
0.0805196
0.0660463
0.0551891
0.0470672
0.0409586
0.0363129
0.0327245
0.0298967
0.0276106
0.0257011
0.0240345
0.0224824
0.0209049
0.0192071
0.0178669
0.210055
0.271301
0.271521
0.256568
0.221506
0.182659
0.146718
0.116391
0.0923338
0.0739971
0.060321
0.0501875
0.0426422
0.0369523
0.0325826
0.0291476
0.0263659
0.0240242
0.0219495
0.0199822
0.0179469
0.0156179
0.0126574
0.00795824
0.2117
0.280019
0.282072
0.261016
0.219625
0.177265
0.139667
0.109061
0.0855135
0.0679999
0.05516
0.045737
0.0387405
0.0334497
0.0293566
0.0261035
0.0234325
0.0211499
0.0191
0.017144
0.0151403
0.0129326
0.0103208
0.00664847
0.219395
0.2934
0.294086
0.263908
0.216869
0.171251
0.132434
0.10192
0.0791121
0.0625163
0.0505216
0.0417808
0.0353
0.030387
0.0265685
0.0235175
0.0210017
0.0188493
0.0169252
0.0151111
0.0132859
0.011319
0.00907544
0.00617023
0.232825
0.311019
0.306898
0.265703
0.212961
0.164584
0.125064
0.0950094
0.0731321
0.0575132
0.0463497
0.0382508
0.0322454
0.0276814
0.0241225
0.0212713
0.0189183
0.0169097
0.0151254
0.0134602
0.0118063
0.0100549
0.00812323
0.00579242
0.253029
0.332563
0.318608
0.265788
0.207682
0.157249
0.117596
0.0883519
0.0675614
0.0529482
0.0425849
0.0350806
0.029507
0.0252585
0.0219361
0.0192697
0.0170698
0.0151975
0.013545
0.0120183
0.010523
0.00897299
0.00732667
0.00546149
0.2826
0.35707
0.325458
0.262628
0.200787
0.149249
0.110073
0.0819651
0.0623799
0.0487772
0.0391732
0.0322142
0.0270299
0.0230645
0.019955
0.0174566
0.0153976
0.0136522
0.0121236
0.0107284
0.00938559
0.00802886
0.0066425
0.00515804
0.327534
0.379854
0.328278
0.256962
0.19234
0.140648
0.10255
0.0758655
0.057569
0.0449616
0.0360699
0.0296081
0.0247744
0.0210635
0.0181469
0.0158028
0.0138753
0.0122506
0.0108417
0.00957479
0.00838052
0.0072079
0.00605606
0.00488689
0.0054527
0.0358984
0.0775584
0.124609
0.15727
0.199677
0.0193042
0.0714081
0.118741
0.167368
0.223742
0.333657
0.0283211
0.0890359
0.140316
0.19301
0.257027
0.34881
0.0356858
0.100457
0.153921
0.208307
0.271119
0.3441
0.0420209
0.108907
0.163185
0.217279
0.27573
0.333596
0.0472859
0.115486
0.169591
0.22209
0.27532
0.321296
0.0514952
0.120632
0.173875
0.224032
0.271858
0.308539
0.0547044
0.124522
0.176444
0.223941
0.266689
0.296021
0.0569892
0.127226
0.177565
0.222389
0.260649
0.284164
0.0584313
0.128787
0.17744
0.21979
0.254287
0.273211
0.0591141
0.129247
0.176243
0.216453
0.247917
0.26335
0.059122
0.128656
0.174124
0.212603
0.241741
0.254689
0.0585497
0.127061
0.171199
0.208387
0.235906
0.247273
0.0574314
0.124508
0.167546
0.203879
0.230495
0.241108
0.0556695
0.12105
0.163193
0.199086
0.225523
0.236186
0.0532271
0.116709
0.158119
0.193946
0.220942
0.232491
0.0500856
0.11147
0.152241
0.188321
0.216614
0.230004
0.0462303
0.105272
0.145404
0.181993
0.212286
0.228715
0.0416561
0.0979892
0.137365
0.174653
0.207517
0.228598
0.0364051
0.0893919
0.127737
0.165774
0.201626
0.229713
0.030663
0.0790471
0.115883
0.154594
0.193535
0.231572
0.024987
0.0660335
0.10062
0.139886
0.181197
0.232032
0.0180845
0.0478433
0.0791894
0.119357
0.160044
0.221648
0.00482248
0.0198131
0.0481091
0.0907827
0.120998
0.126944
0.389273
0.390067
0.32382
0.247665
0.182238
0.131532
0.095106
0.0700808
0.0531179
0.0414721
0.033241
0.0272309
0.0227136
0.0192334
0.0164938
0.0142937
0.0124915
0.0109836
0.00969172
0.00855048
0.00750001
0.00650041
0.00555777
0.00464998
0.421792
0.385938
0.310646
0.234956
0.170801
0.12214
0.087868
0.0646545
0.0490226
0.0382859
0.0306606
0.0250599
0.0208296
0.0175608
0.0149861
0.0129228
0.0112415
0.00984806
0.00867119
0.0076525
0.00673962
0.00590008
0.00514143
0.0044487
0.406209
0.367665
0.293811
0.220251
0.15869
0.112811
0.0809858
0.0596301
0.0452795
0.0353842
0.028309
0.0230788
0.0191104
0.0160375
0.0136182
0.0116861
0.0101227
0.00884144
0.00777718
0.00687694
0.00609398
0.00540017
0.00480074
0.0042823
0.383885
0.345664
0.274999
0.204668
0.146545
0.103857
0.0745811
0.0550354
0.0418798
0.0327497
0.0261705
0.0212759
0.0175477
0.0146575
0.012386
0.0105805
0.00913195
0.00796029
0.00700538
0.00621837
0.00555632
0.00499282
0.00452829
0.00414801
0.361032
0.322683
0.255658
0.189154
0.134874
0.0955072
0.0687271
0.0508769
0.0388092
0.0303659
0.0242317
0.0196415
0.0161349
0.0134161
0.0112853
0.00960192
0.00826475
0.00719938
0.00634961
0.00566943
0.00511797
0.00466848
0.00431536
0.00404178
0.339302
0.300422
0.236882
0.174374
0.124015
0.0878889
0.0634499
0.0471432
0.0360486
0.0282165
0.022481
0.0181675
0.0148657
0.012308
0.0103112
0.00874498
0.00751508
0.00655177
0.00580185
0.00522086
0.00476846
0.00441614
0.00415246
0.00395918
0.319132
0.279746
0.219327
0.160719
0.114143
0.0810502
0.0587415
0.0438116
0.0335768
0.0262857
0.0209073
0.0168458
0.0137337
0.0113274
0.00945749
0.00800297
0.00687541
0.00600901
0.00535255
0.00486187
0.00449598
0.00422411
0.00403027
0.00389602
0.300732
0.261047
0.203336
0.148383
0.105324
0.0749845
0.0545721
0.0408528
0.0313719
0.0245584
0.0195002
0.0156686
0.0127321
0.0104673
0.00871704
0.00736806
0.00633713
0.00556155
0.00499105
0.00458066
0.00428816
0.00408098
0.00394036
0.00384868
0.284294
0.244382
0.189044
0.137426
0.0975436
0.0696505
0.0508997
0.0382351
0.029412
0.02302
0.0182492
0.0146274
0.0118531
0.00972012
0.00808174
0.00683157
0.00589089
0.00519921
0.00470613
0.00436519
0.00413304
0.0039765
0.00387566
0.00381411
0.269864
0.229752
0.176466
0.127819
0.0907438
0.0649872
0.0476771
0.0359263
0.027676
0.0216563
0.0171441
0.0137136
0.0110887
0.00907762
0.00754298
0.00638442
0.00552698
0.0049115
0.00448655
0.00420389
0.00401984
0.00390191
0.00383033
0.00378979
0.257426
0.217105
0.165543
0.11948
0.084839
0.0609254
0.0448557
0.0338946
0.0261439
0.0204544
0.016175
0.0129187
0.0104305
0.00853139
0.00709199
0.00601738
0.00523563
0.00468799
0.00432146
0.00408627
0.00393936
0.00384998
0.00379959
0.00377327
0.246944
0.206356
0.156175
0.1123
0.0797321
0.0573937
0.0423887
0.0321103
0.0247973
0.0194016
0.0153322
0.0122341
0.00987051
0.00807332
0.00672045
0.00572171
0.00500751
0.00451887
0.00420102
0.00400342
0.0038844
0.00381541
0.00377964
0.00376241
0.238375
0.197406
0.148246
0.106159
0.0753234
0.0543232
0.0402322
0.0305464
0.0236187
0.0184858
0.014606
0.0116516
0.00940098
0.00769591
0.00642078
0.00548956
0.00483435
0.00439554
0.00411693
0.00394801
0.00384913
0.00379449
0.00376787
0.00375594
0.23169
0.190162
0.141625
0.100931
0.0715185
0.0516506
0.0383461
0.0291776
0.0225919
0.0176952
0.0139873
0.0111632
0.0090147
0.00739226
0.00618613
0.0053139
0.00470887
0.00431073
0.00406244
0.00391439
0.00382925
0.00378365
0.00376202
0.00375274
0.226889
0.184545
0.136184
0.0964964
0.0682289
0.0493172
0.0366937
0.0279807
0.021701
0.0170185
0.013467
0.0107611
0.00870462
0.0071557
0.00600996
0.00518812
0.00462445
0.00425812
0.00403208
0.00389817
0.00382152
0.00378045
0.00376064
0.00375192
0.224021
0.180498
0.1318
0.0927383
0.0653691
0.0472681
0.0352403
0.0269337
0.0209312
0.0164444
0.0130361
0.0104378
0.00846394
0.0069799
0.00588614
0.00510617
0.00457519
0.00423239
0.00402142
0.00389599
0.00382345
0.00378307
0.00376238
0.00375237
0.223198
0.17799
0.128348
0.0895373
0.0628546
0.04545
0.033953
0.0260151
0.0202675
0.0159618
0.0126858
0.0101859
0.00828627
0.00685906
0.00580924
0.00506295
0.00455647
0.00422942
0.00402713
0.00390531
0.00383305
0.00379094
0.0037671
0.00375383
0.224548
0.177013
0.125694
0.0867677
0.0606012
0.0438113
0.0327998
0.0252042
0.0196954
0.0155599
0.0124075
0.0099983
0.00816563
0.00678796
0.00577461
0.00505429
0.00456395
0.00424623
0.00404725
0.00392477
0.00384952
0.00380308
0.0037743
0.00375624
0.228316
0.17755
0.123671
0.0842995
0.058525
0.0423017
0.0317498
0.0244809
0.0192007
0.0152281
0.012193
0.00986848
0.0080966
0.00676209
0.00577818
0.00507556
0.00459596
0.00428128
0.00408065
0.00395378
0.00387262
0.00381947
0.0037839
0.00375962
0.234689
0.179536
0.122109
0.0819823
0.0565388
0.0408711
0.0307725
0.0238253
0.0187693
0.0149558
0.0120344
0.00979024
0.00807423
0.00677697
0.00581587
0.00512684
0.00465085
0.00433368
0.00412695
0.00399226
0.0039025
0.00384043
0.00379628
0.0037643
0.243783
0.182703
0.120719
0.079654
0.0545543
0.039471
0.0298392
0.0232186
0.018388
0.0147329
0.0119241
0.00975798
0.00809402
0.00682974
0.00588796
0.00520577
0.00472792
0.00440334
0.00418648
0.00404074
0.00393974
0.00386659
0.00381212
0.00377087
0.254665
0.18621
0.118986
0.0770998
0.0524801
0.0380569
0.0289245
0.0226449
0.0180466
0.0145534
0.011857
0.00976712
0.00815319
0.00691905
0.00599159
0.00531155
0.00482723
0.00449096
0.00426022
0.00410028
0.0039854
0.00389896
0.00383233
0.00378006
0.262737
0.187882
0.116255
0.0740714
0.0502299
0.0365927
0.0280093
0.0220926
0.0177367
0.01441
0.0118272
0.00981328
0.00824805
0.00704159
0.00612532
0.00544396
0.00494941
0.00459777
0.00434973
0.0041725
0.004041
0.00393889
0.00385808
0.00379279
0.256491
0.184215
0.111584
0.0702931
0.0477376
0.035059
0.0270847
0.0215551
0.0174527
0.0142973
0.0118298
0.0098931
0.00837602
0.00719568
0.00628847
0.00560312
0.00509539
0.00472525
0.00445677
0.00425928
0.00410841
0.00398819
0.00389064
0.00381014
0.0055639
0.0104672
0.0183024
0.0295048
0.0633083
0.141988
0.018979
0.0303126
0.0445367
0.0592879
0.0916761
0.151283
0.0229718
0.0418973
0.060681
0.0799904
0.115263
0.154218
0.0248809
0.0511382
0.0728274
0.0942494
0.12622
0.148423
0.0266896
0.0594816
0.0821785
0.103293
0.126547
0.137507
0.030699
0.0666376
0.0893319
0.108897
0.123811
0.127534
0.034118
0.0726943
0.0948669
0.111169
0.119125
0.118491
0.0369983
0.0779011
0.0992424
0.111422
0.115003
0.110297
0.0393276
0.0824477
0.102618
0.111328
0.111493
0.103297
0.0410451
0.0863392
0.105417
0.111606
0.108651
0.0977153
0.0421075
0.0895891
0.108117
0.112504
0.10683
0.0936467
0.0424909
0.0921769
0.110926
0.114337
0.106473
0.0912516
0.0422423
0.0940373
0.113837
0.117008
0.10725
0.0908109
0.0414198
0.0950717
0.116703
0.120519
0.109924
0.0919037
0.0401444
0.0951758
0.119263
0.124641
0.114578
0.0955514
0.0385657
0.0942684
0.121193
0.129143
0.120775
0.101768
0.0367459
0.0922352
0.122205
0.133679
0.128005
0.110605
0.0344925
0.0890814
0.122061
0.137763
0.135756
0.12173
0.031684
0.0848239
0.120496
0.140652
0.143599
0.134102
0.0282233
0.0793908
0.117043
0.141324
0.150647
0.146105
0.0250341
0.0724288
0.111133
0.139031
0.154601
0.156499
0.0228437
0.0631453
0.101493
0.13125
0.152361
0.16325
0.0185737
0.0495447
0.085071
0.114024
0.139477
0.158046
0.00501079
0.0218991
0.050136
0.0759501
0.102837
0.117091
0.231275
0.171408
0.104036
0.0655712
0.0449948
0.0334653
0.0261566
0.0210336
0.017194
0.0142142
0.0118644
0.0100054
0.00853608
0.00738083
0.00648113
0.00578985
0.00526665
0.00487544
0.00458378
0.0043632
0.00419014
0.00404863
0.00393014
0.00383229
0.199769
0.15001
0.0938449
0.0602119
0.0421294
0.0318643
0.0252484
0.0205402
0.016966
0.0141633
0.011932
0.0101508
0.00872899
0.00759809
0.00670488
0.00600633
0.00546597
0.00505152
0.00473396
0.00448715
0.0042883
0.00412142
0.00397775
0.00385942
0.173215
0.129298
0.0832288
0.0548394
0.0393336
0.0303236
0.0243904
0.0200905
0.016778
0.0141497
0.0120366
0.0103326
0.00895752
0.00785035
0.00696299
0.00625639
0.00569764
0.00525803
0.00491177
0.00463502
0.00440595
0.00420906
0.0040369
0.0038934
0.151306
0.111419
0.0734002
0.0498514
0.0367369
0.0288999
0.0236128
0.0197033
0.0166453
0.0141833
0.012185
0.0105558
0.00922619
0.00814195
0.00725993
0.00654476
0.00596674
0.00550025
0.00512247
0.0048119
0.00454795
0.00431636
0.00411196
0.00393687
0.132756
0.0964898
0.0648829
0.0454568
0.0344257
0.0276387
0.0229428
0.019396
0.0165767
0.0142745
0.0123851
0.0108273
0.0095408
0.00847821
0.00760085
0.00687665
0.00627865
0.00578384
0.00537202
0.00502389
0.00472033
0.00444862
0.00420608
0.00399143
0.11711
0.0842689
0.0577834
0.0417243
0.0324455
0.0265728
0.022404
0.0191856
0.0165835
0.014434
0.0126465
0.0111548
0.00990823
0.00886531
0.00799152
0.0072577
0.00663912
0.00611489
0.00566685
0.00527765
0.00492939
0.00461099
0.00432266
0.00405855
0.104135
0.0744295
0.0520194
0.0386528
0.0308177
0.0257263
0.0220187
0.0190942
0.0166885
0.0146755
0.0129798
0.0115476
0.0103364
0.00931031
0.00843845
0.00769414
0.00705445
0.00649995
0.00601397
0.0055804
0.00518217
0.00480946
0.00446598
0.00414018
0.0935657
0.0666454
0.0474586
0.0362171
0.0295526
0.0251169
0.0218051
0.0191373
0.0169063
0.0150128
0.0133971
0.012016
0.0108344
0.00982128
0.00894898
0.0081929
0.0075314
0.00694597
0.00642062
0.00593977
0.00548627
0.00505092
0.00464124
0.00423876
0.0851526
0.0606326
0.0439781
0.0343906
0.0286583
0.0247614
0.0217821
0.0193341
0.0172529
0.0154607
0.0139115
0.0125718
0.0114126
0.0104074
0.00953143
0.00876161
0.00807723
0.00746008
0.00689415
0.00636342
0.0058496
0.00534289
0.00485447
0.00435708
0.0786811
0.0561661
0.041477
0.0331513
0.0281444
0.0246793
0.0219703
0.0197043
0.0177461
0.0160353
0.0145379
0.0132281
0.0120829
0.0110794
0.0101953
0.00940891
0.00869989
0.00804985
0.00744204
0.00685904
0.00628019
0.00569334
0.00511223
0.00449798
0.0740029
0.0530856
0.0398842
0.0324872
0.0280269
0.0248772
0.0223891
0.0202677
0.018405
0.0167548
0.0152927
0.0140002
0.012859
0.0118498
0.0109521
0.0101452
0.00940884
0.00872401
0.00807254
0.0074348
0.00678643
0.00611075
0.00542169
0.00466387
0.0710548
0.0513023
0.0391694
0.0323953
0.028276
0.0253907
0.0230627
0.021047
0.0192511
0.0176392
0.0161949
0.0149057
0.0137576
0.012734
0.0118162
0.0109839
0.0102167
0.0094943
0.00879667
0.00810118
0.00737869
0.00660554
0.00579157
0.0048562
0.0699564
0.0508371
0.0392277
0.0328182
0.0289731
0.0262408
0.0240166
0.0220674
0.0203086
0.0187119
0.0172668
0.0159659
0.014799
0.0137519
0.0128071
0.0119444
0.0111426
0.0103797
0.00963304
0.0088762
0.00807448
0.0071951
0.00623682
0.00507601
0.0703357
0.0513718
0.0401115
0.0338819
0.0301246
0.0274585
0.0252814
0.0233583
0.0216062
0.0200003
0.0185348
0.0172067
0.0160089
0.0149295
0.0139518
0.0130555
0.012218
0.0114147
0.0106191
0.00979963
0.00891471
0.00792095
0.00679617
0.00533254
0.0726888
0.0534345
0.041966
0.0356001
0.031776
0.0290843
0.0268946
0.0249556
0.023178
0.0215375
0.0200312
0.0186596
0.0174193
0.0163003
0.0152872
0.0143595
0.0134933
0.0126615
0.0118329
0.0109688
0.0100171
0.00891589
0.00759908
0.00570843
0.0775106
0.0570803
0.0448725
0.038059
0.0339924
0.0311722
0.0289045
0.0269038
0.0250665
0.023364
0.0217948
0.0203629
0.0190683
0.0179043
0.0168576
0.0159093
0.0150366
0.0142132
0.0134087
0.012585
0.0116872
0.0106245
0.00921896
0.00739013
0.0849495
0.0626024
0.049033
0.0413931
0.0368695
0.0337969
0.0313746
0.0292607
0.0273252
0.0255303
0.0238736
0.0223618
0.0209993
0.0197838
0.0187063
0.0177523
0.0169049
0.0161473
0.0154666
0.0148574
0.0143207
0.0138688
0.0135995
0.0139935
0.0952449
0.0703502
0.0547284
0.0457968
0.0405431
0.037061
0.0343898
0.0321009
0.0300228
0.0281001
0.0263262
0.0247098
0.0232601
0.0219804
0.0208679
0.0199151
0.0191139
0.0184602
0.0179594
0.0176302
0.0175015
0.0176256
0.0181561
0.0193217
0.108416
0.0806198
0.0622824
0.0515227
0.0451954
0.0411012
0.0380609
0.0355211
0.0332469
0.0311545
0.0292272
0.0274738
0.0259083
0.0245409
0.023377
0.0224185
0.0216682
0.0211352
0.020839
0.0208084
0.0210594
0.0216565
0.0227134
0.024257
0.123954
0.0934034
0.0719408
0.0588406
0.0510455
0.0460877
0.0425267
0.0396421
0.0371082
0.0347964
0.0326719
0.0307401
0.0290187
0.0275263
0.026278
0.0252874
0.0245705
0.0241491
0.0240529
0.024287
0.0248962
0.0259016
0.0273578
0.0291956
0.139901
0.107954
0.0836149
0.0679159
0.0582991
0.0522037
0.0479446
0.0446048
0.0417381
0.0391516
0.0367806
0.0346208
0.0326923
0.0310219
0.0296368
0.0285647
0.0278367
0.0274886
0.0275491
0.0280026
0.0289291
0.0302807
0.0320811
0.0341956
0.152071
0.122627
0.0965587
0.0785853
0.0670249
0.0595804
0.054454
0.0505472
0.0472753
0.044361
0.0416953
0.0392562
0.0370621
0.0351479
0.0335544
0.0323264
0.0315135
0.0311685
0.0313091
0.031925
0.0331016
0.0347467
0.0368573
0.039251
0.152484
0.132891
0.108564
0.0898008
0.0768286
0.0681173
0.0620729
0.0575398
0.053821
0.0505493
0.0475598
0.0448031
0.0422904
0.0400629
0.0381761
0.0366947
0.0356915
0.0352424
0.0353753
0.0360488
0.0373897
0.0392674
0.0416554
0.0443354
0.138116
0.132207
0.116615
0.0997735
0.0866685
0.0772579
0.0705302
0.0654634
0.0613476
0.0577546
0.0544646
0.0513943
0.0485417
0.0459503
0.0436896
0.0418464
0.0405215
0.0398209
0.0398356
0.0404287
0.0417967
0.0438253
0.0464447
0.0494148
0.00417512
0.0103864
0.020856
0.0323367
0.041458
0.0537641
0.0166913
0.0280249
0.0431043
0.0557756
0.0659202
0.0778572
0.020698
0.0365109
0.0543415
0.0682427
0.0797856
0.0913548
0.0227066
0.0424628
0.0622568
0.0772979
0.089873
0.101757
0.024063
0.0475178
0.0687662
0.0848611
0.0983806
0.110833
0.0250675
0.0522842
0.0744798
0.0915549
0.106
0.119095
0.0268797
0.0566909
0.0795927
0.0976028
0.112973
0.126761
0.0287622
0.0606554
0.0841495
0.103073
0.119367
0.13387
0.0303835
0.0640912
0.0881411
0.107973
0.125172
0.140373
0.0316829
0.0669496
0.0915501
0.112282
0.130353
0.146194
0.0326557
0.0692013
0.0943584
0.115974
0.134868
0.151261
0.0333189
0.0708196
0.0965449
0.119019
0.138676
0.155515
0.0336915
0.071774
0.0980823
0.121384
0.141742
0.158924
0.0336732
0.0720493
0.0989351
0.12303
0.144038
0.161476
0.0332298
0.0716402
0.0990488
0.123909
0.145536
0.163187
0.0323469
0.0704943
0.0983742
0.123957
0.146206
0.164088
0.0310195
0.0685522
0.0968185
0.123093
0.146004
0.164231
0.0292488
0.0657292
0.0942654
0.121195
0.144848
0.163646
0.0270401
0.061898
0.0905486
0.118082
0.142587
0.162255
0.0250169
0.0568488
0.0854139
0.113472
0.138957
0.159927
0.0235182
0.0503225
0.0784283
0.106892
0.133471
0.156335
0.0214458
0.041902
0.068727
0.0974575
0.125113
0.150528
0.0171413
0.0297869
0.0541155
0.0832014
0.111767
0.139412
0.0042362
0.0109983
0.0307904
0.0603582
0.0899685
0.117503
0.128462
0.130032
0.121699
0.107579
0.0956032
0.0862817
0.0792713
0.0739266
0.0695941
0.0658213
0.0623475
0.0590522
0.0559117
0.0529652
0.0502918
0.0479993
0.0462195
0.0451003
0.044787
0.0451905
0.0463951
0.0484431
0.0512132
0.0544652
0.129382
0.139161
0.132226
0.117407
0.104448
0.0949386
0.0878636
0.0824319
0.0780617
0.0743191
0.0708751
0.0675533
0.0642936
0.0611143
0.0580904
0.0553409
0.0530233
0.0513276
0.0504566
0.0505282
0.0513422
0.0531797
0.0559695
0.0594758
0.12596
0.156012
0.154147
0.140591
0.121924
0.108146
0.0983138
0.0916345
0.0867985
0.0829333
0.0795585
0.0763925
0.0732551
0.0700874
0.0669234
0.0638624
0.0610628
0.058739
0.0571512
0.056567
0.0569153
0.0582064
0.0607927
0.0644716
0.12686
0.160824
0.174979
0.170957
0.156922
0.137154
0.120376
0.108217
0.0996824
0.0935691
0.0891564
0.0855903
0.0824016
0.0793415
0.076268
0.0731646
0.0701229
0.0673234
0.0650326
0.0635806
0.063284
0.0639017
0.0657961
0.0694826
0.131344
0.162288
0.186078
0.195359
0.192025
0.180517
0.162606
0.144038
0.127788
0.115037
0.105696
0.098755
0.0936009
0.0895293
0.0860167
0.0827763
0.0796519
0.0766367
0.0738821
0.071676
0.0703983
0.0704113
0.0714442
0.0745638
0.137508
0.164973
0.191609
0.210264
0.218473
0.21695
0.209206
0.194325
0.176686
0.158445
0.141242
0.126656
0.11502
0.106126
0.0994283
0.0942549
0.0900463
0.0864404
0.0832472
0.0804772
0.0783566
0.077358
0.0777097
0.0799741
0.14434
0.169255
0.195646
0.218536
0.234618
0.242901
0.243316
0.238546
0.227656
0.212174
0.194144
0.175111
0.156581
0.139819
0.125687
0.114437
0.105799
0.0992287
0.0941502
0.0901483
0.0870171
0.0848166
0.0842702
0.0856315
0.151229
0.174353
0.199499
0.223441
0.243368
0.257697
0.265863
0.267977
0.265155
0.257404
0.244558
0.228295
0.209622
0.18974
0.169945
0.151486
0.135358
0.122101
0.111723
0.103861
0.0980202
0.0937811
0.0912318
0.0916396
0.157764
0.179531
0.203085
0.226411
0.247368
0.26449
0.277025
0.28467
0.287478
0.285911
0.280313
0.269864
0.255798
0.238786
0.219599
0.199222
0.178794
0.159463
0.142245
0.127796
0.116332
0.107692
0.101271
0.099204
0.163664
0.184228
0.205984
0.227743
0.247984
0.265511
0.279592
0.289873
0.296275
0.298907
0.298014
0.293855
0.285608
0.273847
0.259001
0.241616
0.222384
0.202151
0.1819
0.162663
0.145425
0.130854
0.11897
0.111904
0.168734
0.188059
0.207804
0.227396
0.24583
0.262214
0.27598
0.286832
0.294655
0.299423
0.30116
0.300124
0.296336
0.289468
0.280078
0.268092
0.253586
0.236755
0.218239
0.198861
0.179636
0.161444
0.145151
0.133041
0.172849
0.190778
0.208253
0.22525
0.241142
0.255346
0.267482
0.277362
0.284931
0.290211
0.293268
0.294162
0.292992
0.289606
0.283834
0.275996
0.266222
0.254713
0.241298
0.225948
0.209028
0.191357
0.174465
0.161299
0.17595
0.192276
0.207264
0.221326
0.234201
0.245596
0.255321
0.263317
0.269609
0.274276
0.27742
0.27908
0.27934
0.278176
0.275505
0.271271
0.265411
0.257832
0.248719
0.238363
0.226787
0.213993
0.201154
0.191627
0.178032
0.192532
0.204844
0.215772
0.225395
0.233694
0.240676
0.246419
0.25104
0.254662
0.257388
0.259292
0.260333
0.260571
0.259908
0.258276
0.25557
0.251689
0.246552
0.240136
0.232841
0.225519
0.219015
0.214249
0.179136
0.191633
0.201143
0.208875
0.215227
0.220437
0.2247
0.228229
0.231242
0.233904
0.236299
0.238447
0.240277
0.241696
0.242538
0.242789
0.242297
0.240966
0.238723
0.235567
0.231647
0.22735
0.223468
0.219528
0.179335
0.189693
0.196391
0.201027
0.204289
0.206654
0.208486
0.210135
0.211888
0.213922
0.216316
0.218968
0.221689
0.224272
0.226522
0.228277
0.229374
0.229759
0.229313
0.227991
0.225838
0.223053
0.219794
0.215183
0.178722
0.186874
0.190879
0.192683
0.193219
0.193192
0.193087
0.19332
0.194214
0.195981
0.19864
0.202004
0.205731
0.209419
0.212825
0.215746
0.218037
0.219591
0.220339
0.220225
0.21924
0.217269
0.214103
0.209803
0.177389
0.183341
0.184904
0.184363
0.182747
0.180901
0.179442
0.178819
0.179225
0.181003
0.184015
0.187961
0.192426
0.196527
0.200151
0.20326
0.205786
0.20766
0.208857
0.209374
0.209207
0.208224
0.206026
0.203546
0.175394
0.179335
0.178965
0.176631
0.173596
0.17076
0.168835
0.168244
0.16939
0.172095
0.175472
0.178627
0.181384
0.184287
0.186167
0.18739
0.188136
0.188455
0.188306
0.187745
0.186703
0.185013
0.182771
0.181413
0.172825
0.175178
0.173423
0.170153
0.166709
0.164061
0.163022
0.163837
0.166544
0.170276
0.173812
0.175917
0.175757
0.17389
0.171343
0.168475
0.165596
0.162799
0.159961
0.156887
0.153302
0.148923
0.144071
0.140946
0.169746
0.171092
0.168849
0.165773
0.163212
0.16217
0.16307
0.166222
0.170912
0.175573
0.178477
0.178422
0.175148
0.16782
0.160056
0.152682
0.146163
0.14054
0.135515
0.130674
0.125709
0.1205
0.115338
0.112694
0.166056
0.167487
0.166044
0.164567
0.164315
0.166064
0.170338
0.176593
0.183276
0.188135
0.189305
0.186385
0.176968
0.165101
0.1533
0.142931
0.134486
0.127801
0.122371
0.117643
0.113192
0.108771
0.105024
0.103928
0.161586
0.165216
0.166199
0.167482
0.170805
0.1768
0.185034
0.19406
0.201439
0.204559
0.202704
0.192584
0.17766
0.161844
0.14748
0.135972
0.127319
0.120904
0.115895
0.11158
0.107754
0.104504
0.102442
0.102405
0.157395
0.165906
0.17037
0.175918
0.184021
0.19453
0.206107
0.216225
0.221793
0.221004
0.211238
0.194133
0.174841
0.156259
0.141168
0.130139
0.122301
0.116614
0.11225
0.108648
0.105605
0.103538
0.102659
0.103455
)
;

boundaryField
{
    rotor
    {
        type            kqRWallFunction;
        value           nonuniform List<scalar> 
144
(
0.00380802
0.00774546
0.0186255
0.038126
0.0701627
0.116767
0.00380802
0.0160907
0.0201912
0.0223689
0.0239016
0.0249013
0.0257067
0.0267859
0.0276927
0.0283232
0.0286402
0.0286332
0.0282948
0.0276492
0.026796
0.0258424
0.0249918
0.0249164
0.024347
0.0232602
0.021686
0.0196426
0.015779
0.00394832
0.00394832
0.00831674
0.0141733
0.0201136
0.0251718
0.0605048
0.0054527
0.0358984
0.0775584
0.124609
0.15727
0.199677
0.0054527
0.0193042
0.0283211
0.0356858
0.0420209
0.0472859
0.0514952
0.0547044
0.0569892
0.0584313
0.0591141
0.059122
0.0585497
0.0574314
0.0556695
0.0532271
0.0500856
0.0462303
0.0416561
0.0364051
0.030663
0.024987
0.0180845
0.00482248
0.00482248
0.0198131
0.0481091
0.0907827
0.120998
0.126944
0.0055639
0.0104672
0.0183024
0.0295048
0.0633083
0.141988
0.0055639
0.018979
0.0229718
0.0248809
0.0266896
0.030699
0.034118
0.0369983
0.0393276
0.0410451
0.0421075
0.0424909
0.0422423
0.0414198
0.0401444
0.0385657
0.0367459
0.0344925
0.031684
0.0282233
0.0250341
0.0228437
0.0185737
0.00501079
0.00501079
0.0218991
0.050136
0.0759501
0.102837
0.117091
0.00417512
0.0103864
0.020856
0.0323367
0.041458
0.0537641
0.00417512
0.0166913
0.020698
0.0227066
0.024063
0.0250675
0.0268797
0.0287622
0.0303835
0.0316829
0.0326557
0.0333189
0.0336915
0.0336732
0.0332298
0.0323469
0.0310195
0.0292488
0.0270401
0.0250169
0.0235182
0.0214458
0.0171413
0.0042362
0.0042362
0.0109983
0.0307904
0.0603582
0.0899685
0.117503
)
;
    }