/*--------------------------------*- C++ -*----------------------------------*\
  =========                 |
  \\      /  F ield         | OpenFOAM: The Open Source CFD Toolbox
   \\    /   O peration     | Website:  https://openfoam.org
    \\  /    A nd           | Version:  11
     \\/     M anipulation  |
\*---------------------------------------------------------------------------*/
FoamFile
{
    format      ascii;
    class       volScalarField;
    location    "0.58";
    object      nut;
}
// * * * * * * * * * * * * * * * * * * * * * * * * * * * * * * * * * * * * * //

dimensions      [0 2 -1 0 0 0 0];

internalField   nonuniform List<scalar> 
2880
(
7.35053e-07
2.8956e-06
1.14475e-05
3.49038e-05
8.95629e-05
0.000198371
2.78732e-05
5.04187e-05
9.1994e-05
0.00015109
0.000230218
0.000383574
0.000161358
0.000111448
0.000180053
0.000266957
0.000377146
0.000572099
0.000178683
0.000162993
0.000254495
0.000366212
0.0005059
0.000718128
0.000190714
0.00020578
0.000317191
0.000449243
0.000609918
0.000818096
0.000199385
0.000240444
0.000369599
0.00051636
0.000686475
0.000879581
4.80639e-05
0.000268392
0.000412477
0.000568161
0.000738252
0.000911454
4.89956e-05
0.000290403
0.000446299
0.000605617
0.000768597
0.000919027
4.9811e-05
0.000306657
0.000471506
0.00063001
0.000780984
0.000907905
5.03744e-05
0.000317457
0.000488587
0.000643055
0.00077892
0.000882675
5.06552e-05
0.000322886
0.000498489
0.000645797
0.000764762
0.000846508
5.06489e-05
0.000323784
0.000501076
0.000639887
0.000741089
0.000801803
5.03486e-05
0.000320004
0.000497308
0.000626689
0.000709895
0.000750458
4.97708e-05
0.000311733
0.000487806
0.000607416
0.000672959
0.000694399
4.89978e-05
0.000298926
0.000473216
0.000583061
0.000631928
0.000636468
4.81182e-05
0.000282818
0.000454032
0.0005543
0.000588332
0.000580635
4.73084e-05
0.000266612
0.000430613
0.000521659
0.000543643
0.000530104
0.000199121
0.000258071
0.000402704
0.000485221
0.000498953
0.000484722
0.000194582
0.000243197
0.000369483
0.000444126
0.000453826
0.000442192
0.000185906
0.000219955
0.000327992
0.000395787
0.000405955
0.000398937
0.000173331
0.000184023
0.000273103
0.000334745
0.000350463
0.000351263
0.000157
0.000131086
0.000198868
0.000251349
0.000277192
0.00029652
2.73384e-05
5.88026e-05
0.000100227
0.000139515
0.000168636
0.000222651
7.62299e-07
3.10829e-06
8.71237e-06
1.8419e-05
3.21598e-05
0.000102935
0.000869336
0.00126209
0.00140307
0.00142182
0.00138627
0.00133896
0.00129452
0.0012549
0.00121494
0.00116441
0.00110504
0.00106598
0.00104557
0.00105906
0.00111285
0.00120194
0.00131769
0.00145557
0.00161566
0.00180232
0.00202499
0.00229347
0.00258879
0.00283153
0.00091864
0.00125497
0.00137755
0.00139564
0.00136925
0.0013323
0.00129441
0.00125178
0.00120167
0.00114214
0.00109563
0.00106699
0.00107433
0.00112604
0.00121722
0.00133693
0.0014789
0.00164495
0.00184334
0.0020877
0.00239205
0.00274871
0.00310125
0.00338222
0.000989365
0.00125834
0.00135524
0.00136784
0.00134722
0.00131465
0.00127189
0.00122716
0.00117083
0.00111871
0.00108519
0.00108969
0.00114127
0.00123365
0.00135437
0.00149646
0.0016624
0.00186312
0.00211466
0.00243322
0.00282465
0.00324158
0.00365334
0.00394359
0.00104749
0.00125626
0.00132901
0.00133625
0.00131654
0.00127498
0.00123705
0.00119051
0.00113258
0.00109815
0.00110262
0.00115488
0.00124745
0.00136697
0.00150647
0.00166895
0.00186635
0.00211682
0.00244015
0.00284972
0.00331704
0.00380517
0.00425711
0.0045499
0.00108115
0.00124241
0.00129535
0.00129637
0.00126763
0.0012299
0.00119577
0.00114004
0.00110674
0.0011124
0.00116551
0.00125745
0.00137451
0.00150985
0.00166601
0.00185395
0.0020917
0.00240172
0.0028033
0.00329893
0.00383017
0.00437669
0.00484528
0.00513278
0.00109146
0.00121492
0.00125144
0.00124524
0.00121102
0.00118926
0.00113746
0.00110612
0.00111478
0.00116999
0.00126188
0.00137656
0.00150729
0.00165602
0.00183208
0.00205191
0.00233835
0.00271555
0.00319761
0.00376086
0.00435027
0.00492939
0.0053965
0.00567593
0.00108156
0.00117415
0.00119717
0.00117688
0.00116789
0.00112598
0.00109797
0.00110998
0.00116755
0.00125978
0.00137256
0.00149907
0.00164064
0.00180507
0.00200628
0.00226491
0.00260639
0.0030528
0.00360865
0.00422379
0.00485608
0.00544329
0.00589708
0.006167
0.00105512
0.00112206
0.00113251
0.0011296
0.00110332
0.00107792
0.00109677
0.00115766
0.00125101
0.00136282
0.00148594
0.00162109
0.0017748
0.0019586
0.00218962
0.00249103
0.00288825
0.00339804
0.00401315
0.00466358
0.00531754
0.00589718
0.00633121
0.00658708
0.00101588
0.00106246
0.00106774
0.00106385
0.00104821
0.00107136
0.00113546
0.00123216
0.00134605
0.00146826
0.00159849
0.0017426
0.00191074
0.00211714
0.00238089
0.00272563
0.00317413
0.00373553
0.00439096
0.00505838
0.00571299
0.00627125
0.00668775
0.00691745
0.000967254
0.00100005
0.00101583
0.00100803
0.00102749
0.00109759
0.00120133
0.00132097
0.00144525
0.0015728
0.00170912
0.00186383
0.00204938
0.00228121
0.00257851
0.0029632
0.00345317
0.00404925
0.00472323
0.00538925
0.00602527
0.00655204
0.0069448
0.007148
0.000911675
0.000937353
0.000954694
0.000967604
0.00104284
0.0011551
0.00128413
0.00141478
0.00154345
0.00167489
0.00181852
0.00198624
0.00219156
0.00244979
0.00277842
0.00319549
0.00371262
0.00432308
0.00499272
0.00563954
0.00623919
0.00672531
0.00708666
0.00726871
0.000850562
0.000883087
0.000903675
0.000961581
0.00108424
0.00122862
0.00137264
0.00150846
0.00163951
0.00177529
0.00192806
0.00211106
0.00233769
0.00262158
0.00297664
0.00341529
0.00394226
0.00454496
0.00518714
0.00579729
0.00634381
0.00678193
0.00710451
0.0072654
0.000783708
0.000840094
0.000871052
0.000987293
0.00114988
0.0013136
0.00146379
0.0016007
0.00173342
0.00187488
0.00203905
0.00223931
0.00248769
0.00279467
0.00316909
0.00361656
0.00413497
0.00470772
0.00529992
0.00585579
0.00633322
0.0067136
0.00698834
0.00712601
0.000710915
0.000806038
0.000860303
0.00103638
0.00122611
0.00140118
0.00155377
0.00169085
0.00182616
0.00197529
0.00215301
0.00237184
0.00264125
0.00296741
0.00335303
0.00379641
0.00428893
0.00481147
0.00533271
0.00581344
0.00620733
0.00651134
0.00672844
0.00683665
0.000635222
0.000782994
0.000875817
0.00109038
0.00130903
0.00149098
0.0016432
0.00177992
0.00191905
0.00207794
0.00227118
0.00250927
0.00279812
0.00313881
0.0035276
0.00395567
0.00440849
0.00486506
0.00529805
0.00567692
0.00597521
0.00617463
0.00630457
0.00636718
0.000564862
0.000771141
0.000897467
0.00116556
0.00139861
0.0015823
0.00173197
0.00186865
0.00201338
0.0021843
0.00239471
0.00265217
0.00295826
0.00330882
0.00369407
0.00409896
0.00450377
0.00488537
0.00521866
0.00547853
0.00564375
0.0057057
0.00568328
0.00564322
0.000511408
0.000763368
0.000937795
0.00125471
0.00149475
0.00167401
0.00182002
0.0019578
0.00211032
0.0022955
0.00252443
0.00280087
0.00312183
0.00347822
0.00385533
0.00423334
0.00458852
0.00489522
0.00512765
0.00526043
0.00526824
0.00512982
0.00484754
0.004491
0.000471266
0.00076834
0.000997055
0.00135566
0.00159252
0.00176508
0.00190804
0.00204865
0.00221122
0.00241264
0.00266087
0.00295541
0.00328883
0.00364794
0.00401451
0.00436582
0.00467591
0.00491755
0.0050637
0.00508692
0.0049541
0.00461404
0.00397047
0.00291445
0.000444507
0.000782587
0.00107668
0.00145642
0.00168606
0.00185586
0.00199711
0.00214226
0.00231695
0.00253614
0.00280382
0.00311504
0.00345845
0.00381787
0.004173
0.00450007
0.00477309
0.00496579
0.00505348
0.00501381
0.00482565
0.00446466
0.00389503
0.00310573
0.000433923
0.00080728
0.0011752
0.00155704
0.00178577
0.00194935
0.00208847
0.0022395
0.00242803
0.00266585
0.00295226
0.00327796
0.00362847
0.00398566
0.00432843
0.00463322
0.00487541
0.0050312
0.00507956
0.0050033
0.00478895
0.00442501
0.00389848
0.00322527
0.000431896
0.000844987
0.00129736
0.0016685
0.00189016
0.00204531
0.00218248
0.00234076
0.00254441
0.00280093
0.00310435
0.00344141
0.00379531
0.004147
0.0044754
0.00475792
0.00497187
0.00509655
0.00511511
0.0050156
0.00479066
0.00443627
0.00395168
0.00336633
0.000436876
0.000907272
0.00144086
0.00179213
0.0019993
0.00214385
0.00227934
0.00244594
0.00266531
0.00293982
0.00325765
0.00360211
0.00395501
0.00429714
0.00460807
0.00486657
0.00505221
0.00514742
0.00513949
0.00502133
0.00479102
0.00445077
0.00400722
0.00348523
0.000450382
0.00101092
0.0015762
0.00191709
0.00211224
0.0022447
0.00237883
0.00255418
0.00278908
0.00308052
0.00340949
0.00375686
0.00410399
0.00443218
0.004722
0.00495381
0.00510945
0.00517446
0.00513996
0.00500325
0.004767
0.00443822
0.00402847
0.00355827
0.000475646
0.00113672
0.00175324
0.0020664
0.00223068
0.00234699
0.00247948
0.00266418
0.00291427
0.00322106
0.00355732
0.00390287
0.00423953
0.00454955
0.00481472
0.00501703
0.00514056
0.00517389
0.00511189
0.00495612
0.00471361
0.00439536
0.00401603
0.00359228
1.0542e-06
1.34141e-05
4.76472e-05
0.00011406
0.000202737
6.16528e-05
3.34817e-05
0.000117056
0.000235225
0.000385794
0.000502184
0.000568462
5.04437e-05
0.000241024
0.000452812
0.000688837
0.000907822
0.00111151
5.66216e-05
0.000345436
0.000648603
0.000954727
0.00125103
0.00154328
6.14415e-05
0.000427286
0.000812713
0.0011735
0.00151626
0.00184512
6.51775e-05
0.000491935
0.000944196
0.00134794
0.00171916
0.00205556
6.80183e-05
0.000543158
0.00104677
0.00148292
0.00186895
0.00220041
7.01085e-05
0.000584117
0.00112449
0.00158317
0.00197561
0.00229687
7.15612e-05
0.000616748
0.00118078
0.00165275
0.00204687
0.00235678
7.24653e-05
0.000641852
0.00121779
0.0016951
0.00208867
0.00238736
7.28925e-05
0.000659344
0.00123665
0.00171288
0.00210461
0.00239366
7.29022e-05
0.000668524
0.00123768
0.00170826
0.00209668
0.00237921
7.25532e-05
0.000668212
0.00122102
0.0016823
0.00206642
0.00234568
7.18618e-05
0.000657565
0.00118653
0.00163406
0.00201351
0.0022928
7.07566e-05
0.000636934
0.00113387
0.00156494
0.00193972
0.00222007
6.91942e-05
0.000606268
0.0010642
0.00147443
0.00184498
0.00212824
6.71302e-05
0.000565156
0.000976885
0.0013614
0.00172654
0.00201309
6.45068e-05
0.000512979
0.000872227
0.00122571
0.0015814
0.00187067
6.12505e-05
0.000448726
0.000750874
0.0010681
0.00140515
0.00169471
5.72954e-05
0.000372619
0.000614097
0.000889681
0.00119344
0.00147762
5.26541e-05
0.000284199
0.000464144
0.000691034
0.000948633
0.00120327
4.72991e-05
0.000184954
0.000305048
0.000477346
0.000677508
0.000855211
3.1152e-05
8.02232e-05
0.000146008
0.000260754
0.000398486
0.000442032
9.25061e-07
7.42644e-06
2.96283e-05
8.32508e-05
0.000154805
4.93584e-05
0.00056726
0.00141771
0.00198888
0.00222605
0.00234755
0.00244709
0.00257959
0.00277524
0.00304036
0.00335974
0.00369892
0.00403797
0.00435984
0.00464796
0.00488535
0.00505556
0.00514486
0.00514482
0.00505411
0.00487862
0.0046296
0.00432151
0.00397131
0.00359449
0.00123144
0.00188793
0.00221929
0.00237081
0.00245383
0.00254167
0.00267815
0.00288668
0.00316627
0.00349465
0.00383229
0.00416061
0.00446403
0.00472716
0.00493416
0.00506998
0.005123
0.00508787
0.00496734
0.00477193
0.00451723
0.00422085
0.00390166
0.0035753
0.00170683
0.00217856
0.00239218
0.00248501
0.00254564
0.00262983
0.00277481
0.00299776
0.00329064
0.00362394
0.00395589
0.00426992
0.00455198
0.00478773
0.00496223
0.00506169
0.00507661
0.00500504
0.00485435
0.00464024
0.00438275
0.0041021
0.00381794
0.00354499
0.00202779
0.00236988
0.00251777
0.0025745
0.00262571
0.00271266
0.00286958
0.00310759
0.00341199
0.00374608
0.00406873
0.00436568
0.00462425
0.00483088
0.00497125
0.00503272
0.00500816
0.00489962
0.00471996
0.00449057
0.00423558
0.00397646
0.00373139
0.00351163
0.00224853
0.00250931
0.00261042
0.00264577
0.00269638
0.00279094
0.00296213
0.00321504
0.00352882
0.00385987
0.00417038
0.00444826
0.00468193
0.00485822
0.00496323
0.00498552
0.00492083
0.00477618
0.00457083
0.004332
0.00408658
0.00385492
0.00365088
0.00348024
0.00240133
0.00260813
0.00267774
0.00270354
0.00275869
0.00286483
0.00305178
0.00331885
0.00363975
0.00396456
0.00426087
0.00451849
0.00472644
0.00487164
0.00494046
0.00492296
0.00481856
0.00464044
0.00441497
0.00417439
0.00394592
0.00374584
0.00358165
0.00345325
0.00250616
0.00267487
0.00272547
0.00275089
0.00281426
0.00293441
0.00313772
0.00341778
0.00374364
0.00405977
0.00434067
0.00457747
0.00475941
0.00487316
0.00490542
0.00484825
0.00470592
0.00449895
0.0042608
0.00402671
0.00382113
0.00365387
0.00352554
0.00343134
0.00257494
0.00271746
0.0027582
0.00279007
0.00286398
0.00299949
0.00321904
0.00351074
0.00383958
0.00414548
0.00441053
0.00462655
0.00478256
0.00486488
0.00486068
0.00476492
0.00458798
0.00435849
0.00411596
0.00389563
0.00371622
0.00358011
0.00348205
0.00341427
0.00261551
0.00274133
0.00277932
0.00282247
0.00290809
0.00305951
0.00329484
0.00359684
0.00392685
0.00422193
0.00447139
0.00466712
0.00479765
0.00484887
0.00480894
0.00467671
0.00446992
0.00422534
0.00398633
0.00378484
0.00363199
0.00352331
0.00344952
0.00340147
0.00263349
0.00275024
0.00279105
0.00284867
0.00294629
0.00311364
0.00336423
0.00367566
0.00400437
0.00428961
0.00452438
0.00470064
0.00480637
0.00482723
0.00475295
0.00458747
0.00435669
0.00410462
0.00387551
0.00369524
0.00356697
0.00348101
0.0034259
0.00339222
0.00263297
0.00274675
0.00279478
0.00286839
0.00297776
0.00316082
0.00342617
0.00374654
0.00407303
0.00434957
0.00457074
0.00472854
0.0048104
0.00480201
0.0046955
0.00450091
0.00425254
0.00399979
0.0037848
0.00362573
0.00351866
0.00345053
0.00340909
0.00338579
0.00261656
0.0027325
0.00279136
0.00288035
0.00300118
0.00319986
0.00347978
0.00380897
0.00413386
0.00440286
0.00461168
0.00475222
0.00481138
0.00477529
0.00463933
0.00442043
0.00416071
0.00391261
0.00371366
0.00357405
0.00348441
0.00342899
0.00339773
0.0033815
0.00258575
0.00270834
0.00278165
0.00288152
0.00301489
0.00322961
0.00352439
0.00386283
0.00418745
0.00445039
0.00464833
0.00477298
0.00481088
0.00474912
0.00458711
0.00434893
0.00408338
0.00384339
0.00366036
0.00353727
0.00346097
0.00341515
0.00339103
0.00337897
0.00254113
0.00267444
0.00276452
0.00287178
0.00301787
0.00324924
0.00355957
0.00390821
0.00423437
0.00449302
0.00468173
0.00479205
0.00481042
0.00472546
0.00454119
0.0042887
0.00402167
0.00379144
0.00362278
0.00351293
0.00344631
0.00340741
0.00338728
0.00337759
0.00248129
0.00263051
0.00273842
0.00285079
0.00300938
0.00325815
0.00358517
0.00394537
0.00427525
0.00453155
0.00471278
0.00481048
0.00481133
0.00470603
0.00450355
0.00424123
0.00397582
0.0037555
0.00359881
0.00349864
0.00343853
0.00340389
0.00338598
0.00337713
0.00240872
0.00257641
0.0027014
0.00281726
0.00298851
0.00325593
0.00360119
0.00397471
0.00431067
0.00456666
0.00474226
0.00482919
0.00481477
0.00469227
0.0044756
0.0042073
0.00394533
0.00373393
0.00358655
0.00349316
0.00343733
0.00340451
0.00338669
0.00337738
0.00232124
0.00251194
0.00265013
0.00276924
0.00295431
0.00324236
0.00360792
0.0039968
0.00434124
0.00459896
0.00477079
0.00484888
0.00482165
0.00468527
0.00445829
0.00418707
0.00392923
0.00372536
0.00358411
0.00349461
0.00344027
0.00340797
0.0033891
0.0033782
0.00221697
0.00243817
0.00257783
0.00270462
0.0029062
0.00321763
0.00360597
0.00401241
0.00436758
0.00462897
0.00479885
0.00487012
0.00483267
0.00468578
0.00445211
0.00418037
0.00392705
0.00372796
0.0035905
0.00350233
0.00344755
0.0034137
0.00339265
0.00337939
0.00209481
0.00235204
0.00248612
0.00262268
0.00284469
0.00318275
0.00359648
0.00402267
0.00439043
0.0046572
0.00482685
0.0048933
0.00484829
0.0046943
0.0044569
0.00418642
0.00393657
0.00374109
0.00360477
0.00351567
0.00345864
0.00342182
0.0033975
0.00338102
0.00195222
0.00225129
0.00237607
0.00252282
0.00276988
0.00313884
0.00358107
0.00402914
0.00441073
0.00468419
0.00485512
0.00491864
0.00486865
0.00471027
0.00447234
0.00420446
0.0039581
0.00376397
0.00362646
0.00353439
0.0034735
0.00343239
0.00340375
0.00338319
0.00178846
0.00213234
0.00224831
0.00240889
0.00268354
0.00308717
0.00356082
0.00403274
0.00442912
0.0047105
0.004884
0.00494623
0.00489363
0.0047345
0.00449879
0.0042345
0.00399066
0.0037961
0.00365538
0.00355854
0.00349224
0.0034456
0.00341159
0.00338607
0.00159955
0.00198597
0.00210351
0.00228536
0.00258967
0.00303067
0.00353784
0.00403483
0.00444599
0.0047358
0.0049128
0.0049757
0.00492353
0.00476647
0.00453478
0.00427525
0.00403359
0.00383726
0.00369165
0.00358837
0.00351519
0.00346175
0.00342131
0.00338985
0.00136005
0.00181651
0.0019561
0.00216004
0.00249384
0.00297391
0.00351546
0.00403761
0.00446214
0.00475982
0.00494119
0.00500674
0.00495723
0.00480475
0.00457963
0.00432596
0.00408641
0.00388741
0.00373555
0.00362434
0.00354285
0.0034813
0.00343327
0.00339477
0.00103185
0.0016548
0.00182498
0.00203981
0.00240348
0.00292323
0.00349809
0.00404356
0.00447855
0.00478314
0.00496881
0.00503874
0.00499421
0.00484891
0.00463245
0.00438586
0.00414871
0.00394655
0.00378744
0.003667
0.00357581
0.0035048
0.00344783
0.00340108
1.07612e-06
3.90941e-06
1.12203e-05
2.68446e-05
8.03703e-05
5.20723e-05
3.2905e-05
6.17579e-05
8.76007e-05
9.69969e-05
9.75331e-05
0.000135857
0.000183699
0.000123469
0.000142517
0.000141117
0.000162179
0.000246922
0.00019895
0.00016498
0.000181938
0.000182289
0.000235217
0.00034211
4.89321e-05
0.000195365
0.000215256
0.000225451
0.000288259
0.000414938
5.24616e-05
0.00022369
0.000245307
0.00027208
0.000330926
0.000482509
5.52916e-05
0.000249698
0.000276451
0.000310421
0.000362878
0.000541868
5.75636e-05
0.00027338
0.000308802
0.000339133
0.00039642
0.000589198
5.93427e-05
0.000295261
0.000340467
0.000365717
0.000429944
0.000625584
6.06263e-05
0.000315028
0.000370486
0.000393493
0.000461826
0.000652704
6.1411e-05
0.000332413
0.000399892
0.000423398
0.000493295
0.00067272
6.16938e-05
0.000347147
0.000428571
0.000457194
0.000527133
0.00068865
6.1518e-05
0.000358474
0.000456066
0.000493398
0.000558744
0.000703293
6.09189e-05
0.000365683
0.000481479
0.000530977
0.00059285
0.000716717
5.99708e-05
0.000367916
0.000503265
0.000568118
0.000635079
0.000738137
5.87632e-05
0.000364891
0.000519518
0.000603554
0.000672508
0.000764881
5.7352e-05
0.000356282
0.000527547
0.000632304
0.000702509
0.000794907
5.55612e-05
0.000342048
0.000524733
0.000649542
0.000721482
0.000820989
5.32511e-05
0.00032089
0.000507859
0.000647033
0.000730137
0.000826656
5.04411e-05
0.00028992
0.000471565
0.00061628
0.000720525
0.000799006
4.71079e-05
0.000244423
0.000409639
0.000553893
0.000671294
0.000742042
0.000182204
0.00017894
0.000313235
0.000444174
0.000560857
0.000633289
3.21954e-05
8.95762e-05
0.000176184
0.000273306
0.000378746
0.000403182
9.68261e-07
8.1913e-06
3.08187e-05
6.95534e-05
0.000131366
0.000199761
0.000933531
0.00154934
0.00170221
0.00192175
0.00232753
0.00288686
0.00349113
0.0040551
0.0044962
0.00480611
0.00499689
0.00507153
0.00503384
0.00489805
0.00469228
0.00445418
0.00422012
0.00401482
0.00384782
0.00371707
0.00361485
0.00353292
0.00346525
0.00340873
0.000870141
0.00140845
0.00157983
0.00183346
0.00228335
0.0028764
0.00350068
0.00407419
0.00451534
0.00482825
0.00502369
0.00510426
0.00507528
0.00495122
0.0047582
0.00453022
0.0043004
0.00409247
0.00391739
0.00377544
0.0036608
0.00356621
0.00348592
0.0034178
0.000895926
0.00133753
0.00152081
0.00179952
0.00227688
0.00288933
0.00352516
0.00409713
0.00453436
0.00484843
0.00504856
0.00513602
0.00511752
0.0050073
0.00482913
0.00461319
0.00438922
0.00417975
0.00399685
0.00384305
0.00371457
0.00360541
0.00351061
0.00342869
0.000923725
0.00128382
0.00147808
0.00178667
0.0022905
0.00291754
0.00355896
0.00412111
0.00455282
0.00486784
0.00507088
0.00516569
0.00515919
0.00506481
0.0049036
0.00470183
0.00448578
0.00427643
0.00408653
0.00392064
0.00377708
0.00365147
0.00354013
0.00344177
0.000941499
0.00124103
0.00144856
0.00178967
0.00231838
0.00295582
0.00359713
0.00414496
0.00456878
0.00488262
0.00508859
0.00519144
0.00519838
0.00512167
0.0049795
0.0047942
0.00458849
0.00438148
0.00418609
0.00400849
0.00384907
0.0037053
0.00357501
0.00345706
0.000947877
0.00120611
0.0014302
0.00180413
0.00235552
0.00299927
0.00363397
0.00416506
0.00458077
0.00489128
0.00509956
0.00521093
0.00523252
0.00517514
0.00505398
0.0048875
0.00469484
0.00449291
0.00429425
0.00410611
0.00393068
0.0037673
0.0036155
0.0034743
0.00094624
0.00117777
0.00142113
0.00182659
0.00239779
0.00304457
0.00366198
0.0041741
0.00458386
0.00489044
0.00510081
0.00522116
0.00525842
0.00522176
0.00512339
0.00497802
0.00480126
0.00460756
0.00440852
0.00421185
0.00402106
0.00383712
0.00366131
0.00349298
0.000939674
0.0011555
0.00141974
0.00185412
0.0024409
0.00308581
0.00368275
0.0041792
0.00457611
0.00487707
0.00508906
0.00521865
0.00527229
0.00525742
0.00518332
0.00506117
0.0049031
0.00472095
0.0045249
0.00432244
0.00411781
0.00391318
0.00371135
0.00351205
0.000930626
0.001139
0.00142461
0.00188399
0.0024807
0.00311717
0.00368999
0.00416953
0.0045531
0.00484747
0.00506066
0.00519959
0.00527001
0.0052776
0.00522886
0.00513164
0.0049948
0.00482742
0.00463791
0.00443294
0.00421679
0.00399223
0.00376316
0.00352961
0.000920764
0.00112788
0.00143411
0.00191317
0.00251353
0.00313344
0.00368276
0.00414197
0.00451089
0.00479788
0.00501193
0.00516009
0.00524735
0.00527762
0.00525486
0.00518384
0.00507029
0.00492058
0.00474101
0.00453696
0.00431211
0.00406919
0.00381253
0.00354239
0.000911604
0.00112156
0.00144609
0.00193771
0.00253443
0.00312845
0.00365458
0.00409239
0.00444577
0.00472487
0.00493945
0.00509656
0.00520035
0.00525311
0.00525645
0.00521236
0.00512367
0.004994
0.00482739
0.00462752
0.00439692
0.00413759
0.0038536
0.0035455
0.000904662
0.0011191
0.00145727
0.00195284
0.00253137
0.0031023
0.00360181
0.00401716
0.00435458
0.00462557
0.00484042
0.00500602
0.00512573
0.00520039
0.00522956
0.00521272
0.00514997
0.00504227
0.00489121
0.00469842
0.00446477
0.00419092
0.0038797
0.00353243
0.000900053
0.00111937
0.0014615
0.00194706
0.00250797
0.00304907
0.00352078
0.00391347
0.00423512
0.0044981
0.00471299
0.00488647
0.00502124
0.00511694
0.00517143
0.00518197
0.00514615
0.00506227
0.0049293
0.0047464
0.00451225
0.00422526
0.00388567
0.00349594
0.000898725
0.00110997
0.00144908
0.00192209
0.00245524
0.00296517
0.00340907
0.0037798
0.00408643
0.00434175
0.00455644
0.00473706
0.00488588
0.00500171
0.00508107
0.00511942
0.00511208
0.00505477
0.00494361
0.00477477
0.00454369
0.00424496
0.00387303
0.00343009
0.000894454
0.0010984
0.00142257
0.00187016
0.00237096
0.00284908
0.00326611
0.00361628
0.00390899
0.00415709
0.0043713
0.00455818
0.00471994
0.00485502
0.0049592
0.00502666
0.00505097
0.00502566
0.00494414
0.00479905
0.00458077
0.00427544
0.00386193
0.00333281
0.00089806
0.00108116
0.0013787
0.00179158
0.00225586
0.00270186
0.00309341
0.00342472
0.00370475
0.00394601
0.00415924
0.00435128
0.00452469
0.00467818
0.00480747
0.00490637
0.00496774
0.00498414
0.00494782
0.00484935
0.00467365
0.00439078
0.00395236
0.0034173
0.000904947
0.00105935
0.00131993
0.00168983
0.00211366
0.00252712
0.0028945
0.00320857
0.00347696
0.00371153
0.00392299
0.0041187
0.004302
0.00447253
0.00462684
0.00475939
0.00486366
0.00493317
0.00496229
0.0049464
0.00488135
0.00476444
0.00460796
0.00448447
0.000912755
0.00103465
0.00125102
0.00157131
0.00195083
0.00233079
0.00267471
0.00297267
0.00323009
0.00345775
0.00366622
0.00386349
0.00405409
0.00423911
0.00441671
0.00458279
0.00473194
0.00485827
0.00495609
0.0050204
0.00504788
0.00504341
0.00502567
0.00503249
0.000916562
0.00100766
0.00117759
0.00144434
0.00177601
0.00212062
0.0024408
0.002723
0.0029696
0.00318972
0.00339355
0.00358965
0.0037839
0.00397931
0.0041762
0.00437262
0.00456465
0.0047465
0.00491042
0.00504714
0.00514347
0.00522238
0.00527322
0.00531802
0.000908037
0.000975787
0.00110369
0.00131725
0.00159875
0.00190551
0.00220052
0.00246638
0.00270171
0.00291333
0.00311055
0.00330228
0.00349567
0.00369574
0.0039054
0.0041254
0.00435399
0.00458584
0.0048111
0.00500513
0.00517497
0.00531783
0.00541155
0.0054786
0.000860064
0.00092762
0.00102766
0.0011952
0.00142746
0.00169426
0.00196187
0.00220995
0.00243304
0.00263498
0.00282363
0.00300773
0.00319531
0.00339324
0.00360703
0.00384055
0.004095
0.00436684
0.00464227
0.00488718
0.00512323
0.00532171
0.00545487
0.00553962
0.000743225
0.000851593
0.000941673
0.00107627
0.00126551
0.00149308
0.00173173
0.00196038
0.00217001
0.00236116
0.00253962
0.0027133
0.00289052
0.00307942
0.00328772
0.00352247
0.00378858
0.00408585
0.00439649
0.00468773
0.00497473
0.00522854
0.00540039
0.00550291
0.000536063
0.000728668
0.00084507
0.000966645
0.00112179
0.00131101
0.00151809
0.00172449
0.00191877
0.00209796
0.00226514
0.00242659
0.00259011
0.00276423
0.00295809
0.00318129
0.00344263
0.00374669
0.00407969
0.00440348
0.00472386
0.00502986
0.00524808
0.00536882
0.000285061
0.000444566
0.000645448
0.000802414
0.0009592
0.00113102
0.00131568
0.00150254
0.00168192
0.00184925
0.00200521
0.00215414
0.0023026
0.00245859
0.00263151
0.0028323
0.00307279
0.0033626
0.00370202
0.00404053
0.00438542
0.00472173
0.00499193
0.00513517
8.06127e-07
3.87966e-06
1.281e-05
2.95879e-05
5.29143e-05
9.12303e-05
2.89174e-05
6.65123e-05
0.000124619
0.000187811
0.000253532
0.000306888
0.000165409
0.000149056
0.000255899
0.000360785
0.000456253
0.000504562
0.000181424
0.000212867
0.000364494
0.000502675
0.000618823
0.00067677
0.00019233
0.000257248
0.000451367
0.000616381
0.000749731
0.000824946
0.000201268
0.000285998
0.000520912
0.000707992
0.000856316
0.00095048
4.91391e-05
0.00031213
0.000576977
0.00078195
0.000943837
0.00105501
5.07981e-05
0.000339307
0.000622752
0.000842056
0.00101628
0.00114294
5.22059e-05
0.000364625
0.00065986
0.000890409
0.00107591
0.00121645
5.33093e-05
0.000386783
0.000688718
0.000928043
0.00112391
0.00127679
5.41205e-05
0.000404577
0.00070912
0.000955366
0.00116076
0.00132468
5.46659e-05
0.000416745
0.000720668
0.00097228
0.00118646
0.00136042
5.49686e-05
0.0004221
0.000722893
0.000978322
0.00120062
0.00138398
5.49515e-05
0.000420845
0.000715189
0.000972755
0.0012025
0.001395
5.45865e-05
0.000412992
0.000696781
0.000954572
0.00119096
0.00139279
5.38545e-05
0.000397962
0.000667134
0.000922472
0.00116434
0.00137612
5.27344e-05
0.000375162
0.000625387
0.00087499
0.00112033
0.00134315
5.12049e-05
0.000344024
0.000570844
0.000810329
0.00105626
0.00129159
4.93523e-05
0.000303889
0.000502975
0.000726759
0.000968837
0.00121261
4.71386e-05
0.000254038
0.000421567
0.000622929
0.000852729
0.00109784
0.00018766
0.000194756
0.000326924
0.000498189
0.000703526
0.000936214
0.000171429
0.000126505
0.000220331
0.000353674
0.00051995
0.000717681
2.96993e-05
5.34803e-05
0.000106583
0.000195331
0.000311564
0.000449209
8.17906e-07
4.11172e-06
1.89061e-05
5.51793e-05
0.000114723
0.000200031
0.000264712
0.00034287
0.000511712
0.000655402
0.000802989
0.000959251
0.00112499
0.00129458
0.00146013
0.00161649
0.00176242
0.00190015
0.00203448
0.00217208
0.00232148
0.00249342
0.00270108
0.00295838
0.00327467
0.00361699
0.00396953
0.00431316
0.00463109
0.00480987
0.000334184
0.000374941
0.000428183
0.000538757
0.000661873
0.000801111
0.000949666
0.00110248
0.00125425
0.00140021
0.00153745
0.00166615
0.00178904
0.0019109
0.00203847
0.0021809
0.00235048
0.00256249
0.00283189
0.0031588
0.00349529
0.00384107
0.00416788
0.00439667
0.000480276
0.000482688
0.000493847
0.000517589
0.000577577
0.000675448
0.00079448
0.000928372
0.00106663
0.00120208
0.00133117
0.0014527
0.00156721
0.0016774
0.00178788
0.00190535
0.0020395
0.0022039
0.00241551
0.00268977
0.00300464
0.00333093
0.00364003
0.00391324
0.000663426
0.000608611
0.000625247
0.000627308
0.00063297
0.000656509
0.000708893
0.000796272
0.00090452
0.00102163
0.00114197
0.00125785
0.0013671
0.00147034
0.00156982
0.00166977
0.00177683
0.00190095
0.00205653
0.00226134
0.00252993
0.00282419
0.00311105
0.00338215
0.000837793
0.000783535
0.000774133
0.000791643
0.000792094
0.000788938
0.000793572
0.000807577
0.000843409
0.000904962
0.000990293
0.0010847
0.00118476
0.0012832
0.00137738
0.00146826
0.00155916
0.00165614
0.00176907
0.0019126
0.0021052
0.00236106
0.0026262
0.00285181
0.000991166
0.000968429
0.000962432
0.000973797
0.000993288
0.000995613
0.000992157
0.000984426
0.000977437
0.000976974
0.000987257
0.00101846
0.00106899
0.00113578
0.00121262
0.00129332
0.00137455
0.00145686
0.00154455
0.00164622
0.0017761
0.00195786
0.00219413
0.00238535
0.00112351
0.00114047
0.00115257
0.00117517
0.00119969
0.0012219
0.00122825
0.00122409
0.00121225
0.00119189
0.0011676
0.00114531
0.00113098
0.00113058
0.00114834
0.00118468
0.00123625
0.00129823
0.00136724
0.00144385
0.00153368
0.00164956
0.00183368
0.00199887
0.00123721
0.00128864
0.00132512
0.00136357
0.00140192
0.00143397
0.00145674
0.00146629
0.00146163
0.00144537
0.00141675
0.00137938
0.00133685
0.00129393
0.00125636
0.00123019
0.00122058
0.00123022
0.00125853
0.00130287
0.0013614
0.00143406
0.00155044
0.00169813
0.00133198
0.00141083
0.00146998
0.00152429
0.00157535
0.00161967
0.00165411
0.00167591
0.00168367
0.00167781
0.00165781
0.00162348
0.0015786
0.00152519
0.00146664
0.0014074
0.0013527
0.00130804
0.00127873
0.00126845
0.00127908
0.00130852
0.00136178
0.00147848
0.00140945
0.00150876
0.001585
0.00165128
0.00171158
0.00176425
0.00180649
0.00183635
0.00185295
0.00185672
0.00184967
0.00182904
0.0017926
0.00174413
0.00168509
0.00161922
0.00155018
0.001481
0.00141598
0.00136053
0.00132008
0.00129802
0.00129415
0.00135731
0.00147118
0.00158507
0.00167202
0.00174518
0.00181034
0.00186734
0.00191448
0.00195028
0.00197373
0.0019841
0.00198116
0.00196796
0.00194099
0.0019031
0.00186006
0.00180683
0.00174257
0.00166997
0.00159409
0.00151999
0.001452
0.00139379
0.00134694
0.00135761
0.00151828
0.00164204
0.00173363
0.00180876
0.00187394
0.00193075
0.00197859
0.00201657
0.00204397
0.00206037
0.00206571
0.00206013
0.00204476
0.00201605
0.0019762
0.00193073
0.00188113
0.00182856
0.00176858
0.00169773
0.00162018
0.00154496
0.00148268
0.00146735
0.0015515
0.0016813
0.00177354
0.00184564
0.00190625
0.00195854
0.00200311
0.00203986
0.00206856
0.00208906
0.00210128
0.00210473
0.0020998
0.00208582
0.00206206
0.00203042
0.00199111
0.00194432
0.0018944
0.00184626
0.00179643
0.00173849
0.00168025
0.00165548
0.0015713
0.00170436
0.00179383
0.00185893
0.00191073
0.00195423
0.00199136
0.00202304
0.00204982
0.00207206
0.00208994
0.00210344
0.00211138
0.00211334
0.00210832
0.00209581
0.00207562
0.00204804
0.00201415
0.00197449