/*--------------------------------*- C++ -*----------------------------------*\
  =========                 |
  \\      /  F ield         | OpenFOAM: The Open Source CFD Toolbox
   \\    /   O peration     | Website:  https://openfoam.org
    \\  /    A nd           | Version:  11
     \\/     M anipulation  |
\*---------------------------------------------------------------------------*/
FoamFile
{
    format      ascii;
    class       volScalarField;
    location    "0.58";
    object      p;
}
// * * * * * * * * * * * * * * * * * * * * * * * * * * * * * * * * * * * * * //

dimensions      [0 2 -2 0 0 0 0];

internalField   nonuniform List<scalar> 
2880
(
-0.586029
-0.593416
-0.592405
-0.597599
-0.601968
-0.655286
-0.584921
-0.592457
-0.591296
-0.596341
-0.597823
-0.607717
-0.582354
-0.590898
-0.589352
-0.593557
-0.590635
-0.583053
-0.580187
-0.58937
-0.587355
-0.589963
-0.583325
-0.568632
-0.58101
-0.588376
-0.585839
-0.586536
-0.577031
-0.558472
-0.58418
-0.587994
-0.584947
-0.583687
-0.572225
-0.551087
-0.585956
-0.587987
-0.584548
-0.581558
-0.569088
-0.546373
-0.586261
-0.588018
-0.584514
-0.580389
-0.567541
-0.54432
-0.586459
-0.58796
-0.58476
-0.580258
-0.567474
-0.544751
-0.586616
-0.587772
-0.585267
-0.581017
-0.568876
-0.547391
-0.586831
-0.587431
-0.586033
-0.582503
-0.571624
-0.551972
-0.58701
-0.586919
-0.587003
-0.584599
-0.575425
-0.558154
-0.587053
-0.586234
-0.588103
-0.587185
-0.579913
-0.565538
-0.586882
-0.585358
-0.589256
-0.590123
-0.584692
-0.573793
-0.586415
-0.58419
-0.590408
-0.593334
-0.589494
-0.58269
-0.585805
-0.582572
-0.591557
-0.596855
-0.594456
-0.59227
-0.586507
-0.580931
-0.592773
-0.60072
-0.599395
-0.60338
-0.589182
-0.580894
-0.594156
-0.604875
-0.604452
-0.616506
-0.591013
-0.58179
-0.595528
-0.609197
-0.609891
-0.631579
-0.590912
-0.582443
-0.596515
-0.613442
-0.616148
-0.648383
-0.589941
-0.582184
-0.596531
-0.616898
-0.623624
-0.667034
-0.586878
-0.580391
-0.594983
-0.618408
-0.631377
-0.689035
-0.582347
-0.577444
-0.592291
-0.617119
-0.638222
-0.718089
-0.580143
-0.5754
-0.590906
-0.615537
-0.645216
-0.760864
-0.506109
-0.4681
-0.470729
-0.486454
-0.513359
-0.546793
-0.581051
-0.609741
-0.626532
-0.626437
-0.607038
-0.569126
-0.516443
-0.45486
-0.390418
-0.328624
-0.272441
-0.222003
-0.178049
-0.140119
-0.107367
-0.0787614
-0.0533736
-0.026201
-0.513579
-0.470687
-0.46409
-0.475173
-0.49921
-0.529991
-0.560842
-0.585097
-0.596605
-0.591073
-0.567283
-0.527131
-0.475112
-0.416924
-0.357814
-0.301948
-0.251356
-0.2067
-0.167374
-0.132886
-0.102706
-0.0761893
-0.0522895
-0.0255784
-0.509896
-0.46884
-0.454943
-0.461608
-0.481983
-0.508841
-0.534945
-0.553356
-0.558248
-0.546585
-0.518445
-0.476835
-0.426609
-0.372912
-0.31995
-0.270437
-0.225857
-0.186296
-0.151451
-0.120768
-0.0936616
-0.06961
-0.0474038
-0.022203
-0.506089
-0.464428
-0.44525
-0.447277
-0.463152
-0.485022
-0.505247
-0.516492
-0.51405
-0.496269
-0.464541
-0.422653
-0.375263
-0.32658
-0.279643
-0.236265
-0.197209
-0.162589
-0.132088
-0.105142
-0.0812084
-0.0596521
-0.0390627
-0.0162459
-0.503048
-0.459693
-0.436084
-0.433255
-0.443873
-0.460018
-0.473027
-0.476237
-0.466399
-0.443206
-0.409124
-0.368095
-0.324128
-0.28039
-0.238958
-0.200968
-0.166905
-0.136776
-0.110241
-0.0867703
-0.0657997
-0.0464996
-0.0273228
-0.00774373
-0.500929
-0.45578
-0.428117
-0.420082
-0.425147
-0.434427
-0.439133
-0.434199
-0.417519
-0.390021
-0.354725
-0.315266
-0.274796
-0.235551
-0.198903
-0.165586
-0.135873
-0.109689
-0.0866563
-0.0662745
-0.0479573
-0.0306365
-0.0126016
0.00309759
-0.500349
-0.453236
-0.421576
-0.408278
-0.407092
-0.408205
-0.4045
-0.391769
-0.369107
-0.338385
-0.302719
-0.265121
-0.227882
-0.192513
-0.159907
-0.130525
-0.104502
-0.0816913
-0.0616755
-0.0439588
-0.0279586
-0.0123159
0.004902
0.0162276
-0.501732
-0.452253
-0.416472
-0.397744
-0.389015
-0.381809
-0.369826
-0.349766
-0.322046
-0.28906
-0.253571
-0.217838
-0.183427
-0.15132
-0.122076
-0.0959621
-0.073006
-0.0530048
-0.0355145
-0.0200531
-0.00605768
0.00819307
0.0248984
0.0315132
-0.505182
-0.452661
-0.412754
-0.387616
-0.37093
-0.355455
-0.335169
-0.308437
-0.276653
-0.242191
-0.207186
-0.17319
-0.141205
-0.111822
-0.0853543
-0.061922
-0.0414714
-0.0237582
-0.00833338
0.00524671
0.017531
0.0306468
0.0470588
0.048785
-0.510307
-0.454233
-0.409587
-0.377265
-0.352832
-0.328576
-0.300226
-0.267752
-0.232895
-0.197556
-0.1632
-0.130791
-0.100893
-0.0737946
-0.0496163
-0.0283641
-0.00992531
0.00596636
0.0197363
0.0317653
0.0425975
0.0547991
0.0710811
0.0679273
-0.516777
-0.455957
-0.405816
-0.366535
-0.333603
-0.300278
-0.264663
-0.227557
-0.190481
-0.154725
-0.121146
-0.0902206
-0.0621591
-0.0370084
-0.014734
0.00474712
0.0215884
0.0360584
0.0485307
0.0593001
0.0689094
0.0803815
0.0966996
0.0889215
-0.523868
-0.457091
-0.400953
-0.354551
-0.312043
-0.270002
-0.2282
-0.187529
-0.148976
-0.11321
-0.0805536
-0.0510779
-0.0246997
-0.00126703
0.0193818
0.0374021
0.0529752
0.0663553
0.0778396
0.087615
0.096217
0.107118
0.123634
0.111772
-0.530226
-0.457126
-0.394407
-0.339646
-0.287132
-0.237278
-0.190506
-0.147264
-0.107909
-0.0725302
-0.0409886
-0.0130067
0.011744
0.0335804
0.0527706
0.069532
0.084069
0.0966138
0.107374
0.116407
0.124223
0.134696
0.151552
0.136494
-0.53444
-0.455825
-0.384639
-0.320066
-0.258141
-0.201732
-0.151193
-0.106316
-0.0668112
-0.0322413
-0.0020596
0.0243067
0.0473899
0.0676429
0.0854238
0.101007
0.114624
0.12649
0.136731
0.145256
0.152535
0.162737
0.180061
0.163187
-0.53568
-0.453197
-0.369974
-0.294745
-0.224635
-0.163032
-0.109877
-0.0642578
-0.0252537
0.00805901
0.0365839
0.061142
0.0824308
0.101011
0.117315
0.131671
0.144342
0.15555
0.165378
0.17363
0.180687
0.190808
0.208656
0.192227
-0.53419
-0.44846
-0.349399
-0.263161
-0.186217
-0.1208
-0.0661605
-0.020689
0.017149
0.0487276
0.075258
0.0977616
0.11706
0.133791
0.14844
0.16138
0.17291
0.183278
0.192593
0.200695
0.207848
0.217793
0.235544
0.224772
-0.53046
-0.439402
-0.322196
-0.224777
-0.14238
-0.0746057
-0.0196711
0.0247355
0.0607246
0.0900741
0.114251
0.134427
0.151504
0.16616
0.1789
0.190107
0.200087
0.209093
0.217297
0.224654
0.231091
0.238505
0.252335
0.261611
-0.523736
-0.422486
-0.286838
-0.178775
-0.0925947
-0.0240546
0.0299038
0.0722885
0.105728
0.132347
0.153813
0.171401
0.186048
0.198433
0.209042
0.218224
0.226233
0.233263
0.239446
0.244655
0.248227
0.250741
0.260747
0.292024
-0.511525
-0.392837
-0.241019
-0.124276
-0.0363429
0.0311978
0.0827945
0.122144
0.152311
0.175699
0.194121
0.208902
0.220981
0.231016
0.239456
0.246618
0.252721
0.257937
0.262322
0.265484
0.266862
0.269905
0.287052
0.306925
-0.490366
-0.345339
-0.182239
-0.0603869
0.0268619
0.0913781
0.139088
0.174324
0.200478
0.220147
0.235219
0.247023
0.256465
0.264155
0.270508
0.275807
0.28026
0.284033
0.287139
0.289089
0.289717
0.29428
0.31506
0.325191
-0.45971
-0.275717
-0.107699
0.0138553
0.0973101
0.156471
0.198637
0.228638
0.250041
0.265532
0.276994
0.285697
0.292472
0.297865
0.30224
0.305842
0.308855
0.311426
0.313517
0.314582
0.314674
0.319827
0.341943
0.347027
-0.423319
-0.177468
-0.0134732
0.0994559
0.174911
0.22609
0.260982
0.284628
0.300622
0.311536
0.319175
0.324692
0.328804
0.331966
0.334473
0.336521
0.338256
0.339791
0.341035
0.341388
0.340991
0.346223
0.368663
0.370915
-0.368609
-0.034273
0.10527
0.197115
0.259003
0.299311
0.325259
0.341606
0.35162
0.357663
0.361351
0.363657
0.365142
0.366148
0.36689
0.367501
0.368077
0.368683
0.369172
0.368886
0.368001
0.373019
0.395128
0.3956
-0.192282
0.167471
0.247293
0.304946
0.347617
0.374468
0.390189
0.398554
0.402263
0.403305
0.403022
0.402157
0.40109
0.400035
0.399113
0.398388
0.397896
0.397647
0.397435
0.396558
0.39521
0.399867
0.421211
0.420499
1.44798
1.4803
1.5095
1.54249
1.5362
1.48208
1.44799
1.47514
1.49698
1.51607
1.46764
1.35952
1.44798
1.46852
1.47995
1.48625
1.42406
1.29468
1.44773
1.46328
1.4657
1.45953
1.39168
1.26784
1.44709
1.45954
1.4543
1.43814
1.36965
1.25811
1.4459
1.45609
1.44474
1.42125
1.3545
1.25548
1.44407
1.45202
1.43618
1.40761
1.34368
1.25602
1.44162
1.447
1.42814
1.39632
1.33569
1.25781
1.43868
1.4411
1.42049
1.3868
1.32951
1.25942
1.43544
1.43467
1.41335
1.37873
1.32449
1.26053
1.43205
1.42811
1.40691
1.37192
1.32023
1.26088
1.42868
1.42182
1.40134
1.36629
1.31649
1.26033
1.42546
1.41611
1.39676
1.36179
1.31312
1.2589
1.42246
1.41123
1.39324
1.35838
1.31011
1.25672
1.41973
1.40729
1.39078
1.35607
1.30756
1.2541
1.41728
1.40437
1.38931
1.35486
1.30564
1.25156
1.41511
1.40243
1.38871
1.35476
1.30452
1.2498
1.41322
1.40131
1.38876
1.35578
1.30441
1.24981
1.41167
1.40076
1.38918
1.35788
1.30557
1.25319
1.41052
1.40028
1.38954
1.36078
1.30842
1.26356
1.40973
1.39909
1.38918
1.36369
1.31353
1.28955
1.4091
1.39638
1.38739
1.36611
1.32133
1.3444
1.40849
1.39235
1.38471
1.37054
1.33179
1.42906
1.408
1.38959
1.38422
1.38086
1.34302
1.50043
0.312575
0.377293
0.392973
0.416071
0.436973
0.449093
0.454078
0.454288
0.451678
0.447788
0.443639
0.439723
0.436224
0.433224
0.43075
0.42879
0.427317
0.426281
0.425422
0.424008
0.422249
0.426469
0.446711
0.44519
0.626973
0.54952
0.524531
0.521651
0.522507
0.520539
0.515231
0.507635
0.499003
0.490443
0.482657
0.475884
0.47012
0.46532
0.461419
0.458332
0.455966
0.454212
0.452762
0.450872
0.448768
0.452518
0.471404
0.469356
0.809496
0.694069
0.640269
0.616847
0.601058
0.586795
0.572279
0.557603
0.543484
0.530671
0.519577
0.510204
0.502382
0.495952
0.490766
0.486669
0.483504
0.481107
0.479127
0.47683
0.474459
0.477734
0.495077
0.492731
0.91861
0.804711
0.737412
0.699094
0.670873
0.646615
0.624276
0.603456
0.584531
0.567984
0.553977
0.542305
0.532662
0.524793
0.518477
0.513495
0.509632
0.506672
0.504232
0.501603
0.499046
0.501852
0.517518
0.515065
0.997256
0.890111
0.816881
0.768895
0.731486
0.699394
0.670669
0.644715
0.621729
0.602013
0.585521
0.571876
0.560666
0.551563
0.544282
0.538549
0.534095
0.530654
0.527825
0.524941
0.522274
0.524623
0.538522
0.536111
1.056
0.956118
0.88096
0.826987
0.783005
0.744983
0.711221
0.68112
0.65482
0.632506
0.613962
0.598676
0.586161
0.576033
0.567958
0.561611
0.556673
0.552837
0.549693
0.546626
0.543914
0.545811
0.557894
0.555635
1.09924
1.00653
0.931861
0.874384
0.825891
0.783535
0.745927
0.712589
0.683681
0.659312
0.639133
0.62253
0.608968
0.598024
0.589325
0.582501
0.577185
0.573036
0.569644
0.566459
0.563751
0.565202
0.575458
0.573421
1.1305
1.04448
0.971546
0.91223
0.860794
0.815389
0.774941
0.739167
0.708288
0.682361
0.660934
0.64332
0.628959
0.617403
0.608244
0.601072
0.595479
0.591092
0.587512
0.584262
0.581595
0.582608
0.591067
0.589287
1.15275
1.07256
1.00172
0.941643
0.888416
0.840966
0.798505
0.76098
0.728687
0.701643
0.679317
0.660976
0.64605
0.634072
0.624609
0.617209
0.611427
0.606868
0.603153
0.59988
0.59728
0.59788
0.604617
0.603078
1.16784
1.09258
1.02379
0.963626
0.909437
0.860706
0.816901
0.778196
0.744966
0.717192
0.694277
0.675468
0.660192
0.64797
0.638341
0.630821
0.624927
0.620251
0.616443
0.613181
0.610676
0.610921
0.616054
0.614618
1.17718
1.10588
1.03885
0.979023
0.924461
0.875027
0.830409
0.791001
0.757238
0.729068
0.70584
0.686797
0.671365
0.659058
0.649389
0.641838
0.635894
0.631145
0.627277
0.624041
0.62164
0.621589
0.625233
0.623687
1.18175
1.11343
1.04777
0.988504
0.933993
0.88429
0.839291
0.799575
0.765626
0.737349
0.714054
0.694986
0.679575
0.667325
0.657723
0.650215
0.644272
0.639486
0.635581
0.632378
0.630048
0.629671
0.632
0.630616
1.18213
1.11591
1.05117
0.992577
0.938427
0.888792
0.843768
0.804084
0.770247
0.74212
0.71898
0.700079
0.684848
0.672781
0.663339
0.655941
0.650045
0.645259
0.641351
0.638194
0.635912
0.635198
0.636455
0.635493
1.17857
1.11369
1.04946
0.991617
0.938056
0.888767
0.844025
0.80467
0.771213
0.743469
0.720691
0.702132
0.687227
0.675457
0.666259
0.65903
0.653228
0.648487
0.644616
0.641533
0.639305
0.638309
0.638747
0.638199
1.17111
1.10695
1.04282
0.985855
0.933073
0.884381
0.840204
0.801454
0.768628
0.74149
0.719268
0.701218
0.686773
0.675401
0.666521
0.659515
0.653855
0.649202
0.645407
0.642416
0.640258
0.639089
0.638958
0.638693
1.15955
1.09563
1.03126
0.975355
0.923557
0.875727
0.832403
0.794538
0.762592
0.736278
0.714802
0.697419
0.683558
0.672679
0.664182
0.657451
0.651977
0.647457
0.643769
0.640886
0.638811
0.637576
0.637134
0.63703
1.14335
1.07946
1.01451
0.960007
0.909473
0.862832
0.820684
0.784003
0.7532
0.727936
0.707396
0.690833
0.677676
0.667375
0.659324
0.652918
0.647678
0.643333
0.639788
0.637024
0.635034
0.633816
0.633318
0.633297
1.12161
1.05788
0.992094
0.939546
0.890701
0.845676
0.805093
0.769935
0.74056
0.716582
0.69717
0.681579
0.669238
0.659596
0.652051
0.646019
0.641058
0.636932
0.63356
0.630924
0.62902
0.627901
0.627595
0.627546
1.09291
1.02997
0.963362
0.913577
0.86707
0.824227
0.785679
0.752432
0.724798
0.702355
0.684266
0.669794
0.658379
0.649472
0.64249
0.636881
0.632243
0.628374
0.625204
0.622703
0.620887
0.619951
0.620081
0.619914
1.05481
0.994209
0.927437
0.88162
0.838383
0.798464
0.762525
0.73163
0.706078
0.68543
0.668858
0.655647
0.645258
0.637159
0.630793
0.625652
0.621379
0.617803
0.614859
0.6125
0.61077
0.610095
0.610886
0.610513
1.00373
0.947943
0.883099
0.843153
0.804496
0.768437
0.735775
0.707724
0.684613
0.666022
0.651153
0.639336
0.630063
0.622834
0.617134
0.612502
0.608632
0.605379
0.602682
0.600468
0.598824
0.598479
0.600136
0.59947
0.934786
0.886779
0.828903
0.797754
0.765444
0.73435
0.705698
0.680996
0.660682
0.644394
0.631398
0.621088
0.613007
0.606701
0.601707
0.59762
0.594181
0.591277
0.588844
0.586778
0.58522
0.585267
0.587976
0.586939
0.834272
0.804485
0.763458
0.745454
0.721655
0.69667
0.672738
0.651856
0.634653
0.620874
0.60988
0.601161
0.594325
0.58898
0.584721
0.581205
0.57822
0.575683
0.573524
0.571612
0.570148
0.570657
0.574596
0.57307
0.6561
0.693548
0.687191
0.687412
0.674145
0.656197
0.637556
0.620857
0.60699
0.595851
0.586932
0.579843
0.574278
0.56991
0.5664
0.563468
0.560948
0.558785
0.556909
0.555154
0.553786
0.554806
0.560143
0.558055
0.153383
0.105154
0.0641039
-0.0112072
-0.0369813
-0.438773
0.149998
0.105021
0.0667018
-0.00393955
-0.014497
-0.128455
0.145147
0.106486
0.0731092
0.012781
0.00131327
-0.0188305
0.146518
0.110157
0.0826574
0.0355408
0.02718
0.0302916
0.150567
0.115481
0.0943032
0.0610827
0.0593231
0.0740587
0.153985
0.1214
0.107761
0.0872543
0.091135
0.111926
0.157469
0.128904
0.122621
0.112329
0.120029
0.142126
0.16215
0.13787
0.138241
0.135516
0.145963
0.166161
0.167872
0.147977
0.153856
0.156908
0.169227
0.185775
0.174286
0.158875
0.168895
0.176535
0.189548
0.201882
0.181094
0.170222
0.183034
0.194231
0.206943
0.214965
0.188058
0.181716
0.196101
0.209845
0.221515
0.225052
0.194979
0.193085
0.207993
0.223256
0.233318
0.232313
0.201683
0.204092
0.218668
0.234419
0.242299
0.236932
0.208011
0.214532
0.228173
0.243567
0.248463
0.238839
0.213826
0.224211
0.236654
0.250969
0.252177
0.237874
0.219063
0.232839
0.244297
0.256942
0.253984
0.234171
0.223644
0.240247
0.251313
0.261983
0.254494
0.228113
0.227435
0.246419
0.257988
0.266955
0.254276
0.22042
0.230371
0.251727
0.26488
0.273057
0.25428
0.212091
0.232138
0.257198
0.273275
0.282074
0.256939
0.204929
0.23322
0.264039
0.285138
0.296876
0.266732
0.202738
0.234554
0.271398
0.30071
0.31824
0.287087
0.20157
0.235372
0.277137
0.313968
0.335851
0.311437
0.199808
0.281757
0.561092
0.605695
0.626531
0.62459
0.614114
0.601047
0.58869
0.578237
0.56976
0.562914
0.557445
0.553139
0.549738
0.546971
0.544617
0.542556
0.54076
0.539157
0.53754
0.53621
0.537648
0.544539
0.542317
0.171619
0.443908
0.529855
0.567496
0.575417
0.57198
0.564288
0.556131
0.548974
0.543051
0.538192
0.53428
0.531183
0.528713
0.526664
0.524867
0.523243
0.521789
0.520432
0.518914
0.517531
0.519237
0.527733
0.525923
0.166573
0.375015
0.468298
0.514016
0.528971
0.531312
0.528295
0.523898
0.519731
0.516137
0.513108
0.510642
0.508674
0.50708
0.505708
0.504438
0.503226
0.50209
0.500954
0.499509
0.498049
0.500006
0.51006
0.508545
0.171558
0.335192
0.420735
0.467662
0.486581
0.493059
0.493766
0.492524
0.490924
0.489363
0.487962
0.486797
0.485856
0.485065
0.484321
0.483545
0.482721
0.481885
0.480957
0.479582
0.478073
0.480351
0.491925
0.49029
0.178907
0.308886
0.383295
0.427907
0.448458
0.457584
0.46107
0.462345
0.462846
0.462994
0.462994
0.462967
0.462936
0.462865
0.462694
0.462376
0.461916
0.461364
0.460636
0.459337
0.4578
0.460419
0.473483
0.471617
0.189007
0.290255
0.353179
0.39372
0.41434
0.424922
0.430341
0.433525
0.435675
0.43721
0.438381
0.439321
0.440078
0.440645
0.44099
0.441092
0.440972
0.44069
0.440158
0.438942
0.43739
0.440329
0.454815
0.452752
0.19957
0.276547
0.328726
0.364117
0.383786
0.394928
0.401566
0.406097
0.40948
0.41211
0.414234
0.415981
0.41741
0.418532
0.419339
0.419825
0.420025
0.420003
0.419667
0.41855
0.416999
0.42023
0.436042
0.433865
0.208893
0.26587
0.308484
0.338276
0.356299
0.367336
0.374615
0.380012
0.384269
0.387735
0.390613
0.393021
0.395015
0.39662
0.397839
0.398681
0.399186
0.399419
0.399286
0.398289
0.396766
0.400257
0.417277
0.415125
0.21611
0.257121
0.290986
0.315457
0.33135
0.341792
0.349259
0.355143
0.359987
0.364065
0.36753
0.370473
0.372944
0.374971
0.376565
0.377741
0.378541
0.379032
0.379116
0.378271
0.376813
0.380531
0.398611
0.396696
0.221584
0.249609
0.275248
0.294855
0.308383
0.317898
0.325217
0.331299
0.336511
0.341029
0.344949
0.348331
0.351214
0.35362
0.355565
0.357065
0.358161
0.35892
0.359241
0.358589
0.357241
0.361146
0.380106
0.378749
0.225326
0.242607
0.260602
0.275766
0.286843
0.295232
0.302173
0.308255
0.313677
0.318512
0.322797
0.326557
0.329812
0.33258
0.33487
0.336698
0.338105
0.339151
0.33974
0.339328
0.338143
0.342175
0.36178
0.361475
0.227116
0.235373
0.246697
0.257569
0.266187
0.273356
0.279784
0.285751
0.291288
0.29637
0.300973
0.305085
0.308706
0.311841
0.314495
0.316679
0.318427
0.319796
0.320694
0.320581
0.319609
0.323662
0.343581
0.345146
0.22683
0.227244
0.232682
0.239504
0.245852
0.251819
0.257698
0.263507
0.269127
0.274436
0.279353
0.283828
0.287839
0.291379
0.294444
0.297038
0.299186
0.300938
0.302208
0.302473
0.301765
0.305623
0.325317
0.330256
0.224383
0.217611
0.217677
0.221049
0.225323
0.230179
0.235555
0.241234
0.246961
0.252526
0.257792
0.262677
0.267135
0.271147
0.274701
0.277795
0.28044
0.282674
0.284431
0.285229
0.284872
0.288021
0.30634
0.317975
0.219357
0.205906
0.201318
0.201612
0.204081
0.20801
0.213007
0.21865
0.224559
0.23045
0.236135
0.241503
0.246489
0.251065
0.255214
0.258931
0.262216
0.26509
0.267526
0.269182
0.269502
0.270838
0.28444
0.310879
0.211077
0.191423
0.182821
0.180576
0.181644
0.184925
0.189741
0.195496
0.201705
0.20802
0.214216
0.220155
0.225761
0.230997
0.235853
0.240329
0.244432
0.248179
0.25159
0.254584
0.256627
0.25725
0.261692
0.305964
0.198743
0.173275
0.161445
0.157388
0.157586
0.16059
0.165487
0.171545
0.178201
0.185061
0.191866
0.198463
0.204766
0.210737
0.216371
0.221682
0.226711
0.231515
0.23611
0.240292
0.243976
0.250011
0.266033
0.274252
0.181419
0.150456
0.136463
0.131538
0.131538
0.134728
0.140028
0.146618
0.153887
0.161415
0.168927
0.176253
0.183298
0.190015
0.19639
0.202427
0.208156
0.213617
0.21875
0.2232
0.227149
0.235267
0.255104
0.247408
0.158084
0.121826
0.107135
0.102548
0.103183
0.107125
0.113209
0.120585
0.128644
0.136966
0.145271
0.153385
0.161203
0.168665
0.175741
0.182417
0.188702
0.19462
0.200092
0.204756
0.20891
0.217743
0.238493
0.225376
0.127747
0.0861401
0.0727636
0.0700075
0.0722642
0.0776277
0.0849305
0.093371
0.1024
0.111635
0.120815
0.129768
0.138386
0.146598
0.154356
0.16163
0.168412
0.17472
0.180509
0.185468
0.189952
0.199244
0.220238
0.205129
0.0893692
0.042308
0.0328967
0.0336337
0.0385991
0.0461445
0.0551535
0.064952
0.0751283
0.0853872
0.0955119
0.10535
0.114795
0.123769
0.132214
0.14008
0.147344
0.154027
0.160136
0.165422
0.170287
0.179908
0.200841
0.185625
0.0417131
-0.0100092
-0.0123472
-0.00656928
0.00217978
0.0127003
0.0239175
0.0353618
0.0468481
0.0582245
0.06935
0.0801085
0.0904076
0.10017
0.109327
0.117814
0.12559
0.132677
0.139122
0.144759
0.150025
0.159849
0.180477
0.166492
-0.0199376
-0.0703759
-0.0620937
-0.0502085
-0.0368437
-0.0226386
-0.00872245
0.00465239
0.0175989
0.0301674
0.0423321
0.0540373
0.0652173
0.0758026
0.0857189
0.0948896
0.103253
0.110815
0.117643
0.123667
0.129341
0.13922
0.159286
0.147548
-0.108513
-0.136749
-0.114891
-0.0954907
-0.0769708
-0.059303
-0.0425715
-0.027098
-0.0125777
0.00123345
0.0144555
0.0271197
0.0392026
0.0506523
0.0613952
0.0713443
0.0804165
0.0885747
0.0958853
0.102355
0.108444
0.118241
0.137464
0.12872
-0.34317
-0.334444
-0.339143
-0.35035
-0.370106
-0.412406
-0.345268
-0.337315
-0.34465
-0.358636
-0.379836
-0.424314
-0.349704
-0.341317
-0.351308
-0.366867
-0.38625
-0.415828
-0.352728
-0.3445
-0.356468
-0.37228
-0.389624
-0.410505
-0.351492
-0.34639
-0.359925
-0.375605
-0.391481
-0.407949
-0.348287
-0.347856
-0.362385
-0.377884
-0.392835
-0.406678
-0.347617
-0.349963
-0.364507
-0.379631
-0.393985
-0.405931
-0.348909
-0.352534
-0.366469
-0.381096
-0.394831
-0.405423
-0.35023
-0.35511
-0.368194
-0.382348
-0.395346
-0.405041
-0.351344
-0.357446
-0.369607
-0.383314
-0.395633
-0.404755
-0.352222
-0.359433
-0.370665
-0.383938
-0.395747
-0.404549
-0.352852
-0.361006
-0.371326
-0.384211
-0.395695
-0.404418
-0.353241
-0.362084
-0.371542
-0.384142
-0.395477
-0.404356
-0.3534
-0.362677
-0.371298
-0.383718
-0.395074
-0.404334
-0.353368
-0.362792
-0.370601
-0.38292
-0.394446
-0.404279
-0.353226
-0.36246
-0.369477
-0.381725
-0.393517
-0.404048
-0.353091
-0.361752
-0.367977
-0.380101
-0.392167
-0.4034
-0.352973
-0.360762
-0.366179
-0.378006
-0.390214
-0.401987
-0.35275
-0.359607
-0.36419
-0.375397
-0.387427
-0.399285
-0.350895
-0.358545
-0.362219
-0.372295
-0.383539
-0.394241
-0.347344
-0.358178
-0.360672
-0.368897
-0.37822
-0.384723
-0.347829
-0.358981
-0.360061
-0.365456
-0.370841
-0.367264
-0.351605
-0.360356
-0.360011
-0.361463
-0.359971
-0.338263
-0.353428
-0.360877
-0.358494
-0.355145
-0.344678
-0.298253
-0.251584
-0.205575
-0.170049
-0.141384
-0.116805
-0.095636
-0.0769096
-0.0596524
-0.0436213
-0.0285786
-0.0143053
-0.000687603
0.0123071
0.0246628
0.0363116
0.0471592
0.0571004
0.0660507
0.0740243
0.0810613
0.0876307
0.0972566
0.115318
0.110032
-0.319679
-0.2682
-0.223133
-0.186624
-0.15708
-0.131628
-0.110356
-0.0919682
-0.0752
-0.0592819
-0.0440556
-0.0295005
-0.0155895
-0.00228515
0.0103503
0.0222323
0.0332403
0.0432436
0.0521593
0.0600071
0.0672137
0.0766742
0.0932876
0.0916043
-0.358935
-0.312096
-0.267909
-0.229959
-0.196669
-0.168446
-0.144467
-0.123754
-0.105928
-0.0899417
-0.0746399
-0.0595221
-0.044782
-0.0304421
-0.0167184
-0.00364484
0.00864838
0.0200003
0.0302515
0.0393155
0.0474845
0.0569984
0.0720319
0.0737805
-0.383315
-0.344189
-0.304026
-0.266567
-0.234045
-0.205487
-0.179857
-0.157748
-0.138184
-0.120384
-0.10452
-0.0898043
-0.0751157
-0.0601607
-0.0454102
-0.0309148
-0.0170427
-0.00400093
0.00803358
0.018859
0.0285454
0.0386133
0.0522918
0.0572082
-0.396211
-0.367672
-0.333075
-0.298032
-0.265994
-0.238254
-0.214507
-0.193073
-0.172796
-0.154236
-0.137092
-0.12052
-0.104931
-0.0901888
-0.0753231
-0.0599879
-0.0445082
-0.0293963
-0.0150512
-0.00181627
0.0101654
0.0216645
0.0348255
0.0427466
-0.402608
-0.383752
-0.35569
-0.324589
-0.294196
-0.26709
-0.243692
-0.223424
-0.2058
-0.189458
-0.172577
-0.155439
-0.138723
-0.122039
-0.105214
-0.0890636
-0.0731179
-0.0565949
-0.03978
-0.023599
-0.00842345
0.00580988
0.0199213
0.0308932
-0.405931
-0.393865
-0.372193
-0.345687
-0.318088
-0.292193
-0.269209
-0.249431
-0.232408
-0.217152
-0.203172
-0.189594
-0.174723
-0.157857
-0.139787
-0.121284
-0.102353
-0.0836209
-0.0652651
-0.0467426
-0.0281759
-0.0100727
0.00679246
0.0214918
-0.407788
-0.399987
-0.383446
-0.361365
-0.336927
-0.312808
-0.290569
-0.270985
-0.254018
-0.239254
-0.226252
-0.213932
-0.201288
-0.188028
-0.173281
-0.155884
-0.135863
-0.11423
-0.0920743
-0.0698252
-0.0480136
-0.0263114
-0.00564729
0.014635
-0.408899
-0.403783
-0.390983
-0.372573
-0.351099
-0.328844
-0.307472
-0.287943
-0.270645
-0.255537
-0.242335
-0.230428
-0.219064
-0.207445
-0.194524
-0.179642
-0.1627
-0.143241
-0.120823
-0.0959654
-0.0697459
-0.0430239
-0.0166373
0.0118294
-0.409639
-0.406362
-0.396306
-0.380781
-0.361851
-0.341316
-0.320696
-0.301057
-0.283052
-0.266926
-0.252615
-0.239842
-0.228111
-0.216697
-0.204794
-0.191687
-0.176677
-0.159033
-0.1384
-0.114784
-0.0884102
-0.0589624
-0.0284652
0.00362598
-0.410275
-0.408424
-0.400579
-0.387431
-0.370761
-0.351842
-0.33195
-0.31212
-0.293104
-0.275371
-0.259104
-0.244268
-0.230698
-0.217963
-0.205371
-0.192232
-0.177887
-0.161664
-0.142962
-0.121251
-0.096211
-0.0673407
-0.0359385
-0.000566237
-0.411018
-0.410386
-0.404618
-0.393787
-0.379288
-0.362109
-0.3432
-0.323386
-0.303384
-0.283765
-0.264936
-0.247107
-0.230388
-0.214695
-0.199672
-0.184784
-0.169449
-0.153048
-0.135001
-0.114813
-0.092023
-0.0659432
-0.0365781
-0.00364608
-0.412068
-0.412646
-0.408994
-0.400709
-0.388586
-0.373583
-0.356219
-0.336997
-0.316487
-0.295251
-0.273812
-0.252575
-0.231893
-0.211874
-0.192672
-0.174181
-0.15608
-0.137931
-0.119206
-0.0994074
-0.0781963
-0.0553101
-0.0306553
-0.00518359
-0.413558
-0.415582
-0.414163
-0.408612
-0.399516
-0.387426
-0.372454
-0.35477
-0.334668
-0.312593
-0.289062
-0.264435
-0.239343
-0.21443
-0.190024
-0.166452
-0.143823
-0.122085
-0.101059
-0.0804456
-0.0599209
-0.0391383
-0.0180289
0.00119067
-0.415571
-0.419248
-0.420412
-0.417978
-0.412599
-0.404305
-0.392873
-0.378101
-0.359935
-0.338504
-0.313963
-0.286364
-0.256653
-0.225901
-0.195304
-0.165639
-0.137349
-0.110725
-0.0858997
-0.0628919
-0.041542
-0.0210829
0.000782922
0.0199564
-0.41816
-0.423673
-0.427789
-0.428954
-0.427984
-0.42455
-0.418119
-0.407987
-0.393265
-0.373172
-0.347053
-0.316285
-0.282109
-0.245943
-0.209159
-0.172923
-0.138346
-0.106232
-0.0771211
-0.0513755
-0.0290001
-0.00824047
0.015112
0.034062
-0.421353
-0.4288
-0.43615
-0.441305
-0.445411
-0.447836
-0.447393
-0.442644
-0.431959
-0.413979
-0.388454
-0.356349
-0.318468
-0.276585
-0.232735
-0.189076
-0.147425
-0.109191
-0.0754307
-0.0468928
-0.0239294
-0.00609734
0.00697126
0.0100541
-0.425152
-0.434449
-0.445124
-0.454428
-0.463907
-0.472715
-0.479259
-0.481312
-0.47652
-0.462921
-0.43972
-0.406594
-0.364792
-0.316633
-0.26504
-0.213189
-0.163774
-0.118946
-0.0801619
-0.048401
-0.02433
-0.00873716
-0.00304028
-0.00556814
-0.429518
-0.440303
-0.45414
-0.467515
-0.482441
-0.49798
-0.51223
-0.522342
-0.525013
-0.51711
-0.496707
-0.463092
-0.417561
-0.363046
-0.303371
-0.243336
-0.186348
-0.134982
-0.0909508
-0.0552577
-0.0284662
-0.011142
-0.00377007
-0.00367214
-0.434348
-0.445913
-0.462508
-0.479514
-0.499607
-0.521747
-0.543729
-0.562038
-0.572382
-0.570593
-0.553562
-0.520135
-0.471523
-0.411698
-0.345695
-0.278893
-0.215687
-0.159114
-0.110906
-0.0718141
-0.0419606
-0.0210635
-0.00828541
-0.0013062
-0.439141
-0.450676
-0.469538
-0.489224
-0.513651
-0.541525
-0.570234
-0.595559
-0.612299
-0.61608
-0.601659
-0.568718
-0.518621
-0.455538
-0.385383
-0.314439
-0.247766
-0.188474
-0.138044
-0.096823
-0.0643353
-0.0395213
-0.0206643
-0.00607626
-0.442813
-0.454161
-0.474227
-0.495466
-0.5229
-0.55497
-0.588487
-0.618586
-0.639444
-0.645533
-0.632691
-0.599886
-0.548934
-0.484327
-0.412534
-0.340363
-0.272964
-0.213182
-0.162083
-0.11984
-0.0855067
-0.0576278
-0.0344601
-0.0140227
-0.445976
-0.457001
-0.475915
-0.497201
-0.526088
-0.560459
-0.59639
-0.628424
-0.650353
-0.656472
-0.643111
-0.609431
-0.557663
-0.49282
-0.421681
-0.350901
-0.285241
-0.226912
-0.17651
-0.134487
-0.0993827
-0.0697265
-0.0441935
-0.0200988
-0.461241
-0.461864
-0.474716
-0.494078
-0.522748
-0.557478
-0.593549
-0.624948
-0.645345
-0.64929
-0.6336
-0.598075
-0.545604
-0.481811
-0.413336
-0.346303
-0.28464
-0.229247
-0.181496
-0.140994
-0.106356
-0.0764216
-0.0502006
-0.0239494
)
;

boundaryField
{
    rotor
    {
        type            zeroGradient;
    }
    freestream
    {
        type            freestreamPressure;
        freestreamValue uniform 0;
        supersonic      false;
        value           nonuniform List<scalar> 
96
(
-0.00337703
-0.00357597
-0.00337367
-0.00268866
-0.00140038
0.000613293
0.00352104
0.0074945
0.0127072
0.0193489
0.0276385
0.0378049
0.0500799
0.0647229
0.0821069
0.102977
0.127978
0.151873
0.16992
0.191234
0.215927
0.243214
0.272295
0.302679
0.333924
0.36561
0.397328
0.428658
0.459161
0.488398
0.515938
0.541378
0.564347
0.584462
0.601316
0.615049
0.625611
0.632779
0.63643
0.636571
0.633275
0.62661
0.616764
0.603923
0.588317
0.570219
0.549918
0.527751
0.504272
0.479696
0.453889
0.427126
0.39998
0.372789
0.345829
0.31935
0.29358
0.268722
0.244972
0.222545
0.201753
0.183241
0.168304
0.155143
0.130047
0.109009
0.0917926
0.0768466
0.0636444
0.0519867
0.0417569
0.0328686
0.0252488
0.0188246
0.0135421
0.00936254
0.0062358
0.00402395
0.00251073
0.00154571
0.00114665
0.000328133
-4.84934e-05
-0.000293186
-0.000368149
6.20997e-05
0.000439783
3.44493e-07
0.000218644
-0.000278725
-0.000252392
-0.000105169
-0.000543458
-0.00139115
-0.00220357
-0.00285644
)
;
    }
    frontAndBack
    {
        type            empty;
    }
}


// ************************************************************************* //
