/*--------------------------------*- C++ -*----------------------------------*\
  =========                 |
  \\      /  F ield         | OpenFOAM: The Open Source CFD Toolbox
   \\    /   O peration     | Website:  https://openfoam.org
    \\  /    A nd           | Version:  11
     \\/     M anipulation  |
\*---------------------------------------------------------------------------*/
FoamFile
{
    format      ascii;
    class       surfaceScalarField;
    location    "0.58";
    object      phi;
}
// * * * * * * * * * * * * * * * * * * * * * * * * * * * * * * * * * * * * * //

dimensions      [0 3 -1 0 0 0 0];

internalField   nonuniform List<scalar> 
5640
(
-2.24363e-08
2.24363e-08
-1.88641e-07
1.66204e-07
-3.78401e-07
1.8976e-07
-5.25607e-07
1.47206e-07
-9.13969e-07
3.88362e-07
1.09423e-06
-2.0082e-06
-1.28732e-07
1.51168e-07
-4.04447e-07
4.41919e-07
-7.2187e-07
5.07183e-07
-1.05464e-06
4.79972e-07
-1.49569e-06
8.29419e-07
1.72479e-06
-2.12625e-06
-1.91223e-07
3.42391e-07
-5.27688e-07
7.78385e-07
-9.34543e-07
9.14038e-07
-1.37117e-06
9.16599e-07
-1.81634e-06
1.27459e-06
2.04515e-06
-2.13671e-06
-2.37462e-07
5.79853e-07
-6.13626e-07
1.15455e-06
-1.07128e-06
1.37169e-06
-1.54899e-06
1.39431e-06
-1.94922e-06
1.67482e-06
2.18041e-06
-2.08448e-06
-2.7662e-07
8.56473e-07
-6.72172e-07
1.5501e-06
-1.14908e-06
1.8486e-06
-1.62702e-06
1.87224e-06
-1.96899e-06
2.0168e-06
2.19226e-06
-1.98084e-06
-3.09006e-07
1.16548e-06
-7.05738e-07
1.94683e-06
-1.17669e-06
2.31955e-06
-1.63048e-06
2.32604e-06
-1.91323e-06
2.29954e-06
2.11512e-06
-1.83609e-06
-3.29607e-07
1.49509e-06
-7.12059e-07
2.32929e-06
-1.15942e-06
2.76691e-06
-1.5749e-06
2.74152e-06
-1.80352e-06
2.52816e-06
1.96986e-06
-1.65827e-06
-3.3117e-07
1.82626e-06
-6.89585e-07
2.6877e-06
-1.10084e-06
3.17817e-06
-1.47176e-06
3.11243e-06
-1.65175e-06
2.70815e-06
1.76933e-06
-1.45121e-06
-3.15321e-07
2.14158e-06
-6.39185e-07
3.01156e-06
-1.00538e-06
3.54437e-06
-1.33011e-06
3.43716e-06
-1.46465e-06
2.84269e-06
1.52175e-06
-1.21707e-06
-2.83948e-07
2.42552e-06
-5.62932e-07
3.29055e-06
-8.78028e-07
3.85946e-06
-1.15536e-06
3.71449e-06
-1.24687e-06
2.9342e-06
1.2338e-06
-9.58919e-07
-2.38671e-07
2.6642e-06
-4.63643e-07
3.51552e-06
-7.22952e-07
4.11877e-06
-9.51529e-07
3.94307e-06
-1.00383e-06
2.9865e-06
9.11445e-07
-6.81478e-07
-1.81066e-07
2.84526e-06
-3.4429e-07
3.67874e-06
-5.43608e-07
4.31809e-06
-7.22742e-07
4.1222e-06
-7.41106e-07
3.00486e-06
5.63195e-07
-3.92856e-07
-1.12716e-07
2.95798e-06
-2.07974e-07
3.774e-06
-3.43153e-07
4.45327e-06
-4.73021e-07
4.25207e-06
-4.65275e-07
2.99711e-06
2.04741e-07
-1.06821e-07
-3.45367e-08
2.99251e-06
-5.80551e-08
3.79752e-06
-1.24598e-07
4.51981e-06
-2.05916e-07
4.33339e-06
-1.84616e-07
2.97581e-06
-1.41072e-07
1.61197e-07
5.31264e-08
2.93939e-06
1.0256e-07
3.74809e-06
1.0923e-07
4.51314e-06
7.65479e-08
4.36607e-06
9.36952e-08
2.95867e-06
-4.39875e-07
3.92498e-07
1.53297e-07
2.78609e-06
2.70264e-07
3.63112e-06
3.55296e-07
4.42811e-06
3.74263e-07
4.3471e-06
3.85289e-07
2.94764e-06
-6.48293e-07
5.93707e-07
2.75935e-07
2.51016e-06
4.38295e-07
3.46876e-06
6.09741e-07
4.25666e-06
6.88237e-07
4.26861e-06
6.92528e-07
2.94335e-06
-7.49581e-07
7.93815e-07
3.43768e-07
2.16639e-06
5.94121e-07
3.21841e-06
8.67393e-07
3.98339e-06
1.02024e-06
4.11576e-06
1.03353e-06
2.93007e-06
-7.48159e-07
1.0321e-06
3.82406e-07
1.78398e-06
7.33156e-07
2.86766e-06
1.12207e-06
3.59448e-06
1.37049e-06
3.86734e-06
1.42032e-06
2.88024e-06
-6.6186e-07
1.33402e-06
4.06928e-07
1.37705e-06
8.50969e-07
2.42362e-06
1.36521e-06
3.08023e-06
1.73646e-06
3.49609e-06
1.86073e-06
2.75597e-06
-5.20613e-07
1.71948e-06
4.13938e-07
9.63116e-07
9.41693e-07
1.89586e-06
1.58239e-06
2.43954e-06
2.11232e-06
2.96616e-06
2.37092e-06
2.49737e-06
-3.60196e-07
2.2105e-06
4.00914e-07
5.62201e-07
9.98694e-07
1.29808e-06
1.75864e-06
1.67959e-06
2.49003e-06
2.23478e-06
2.9655e-06
2.0219e-06
-2.272e-07
2.8325e-06
3.56863e-07
2.05338e-07
1.00908e-06
6.45866e-07
1.85823e-06
8.30437e-07
2.83089e-06
1.26212e-06
3.63428e-06
1.21851e-06
-1.38589e-07
3.54566e-06
2.05338e-07
8.51204e-07
1.68164e-06
2.94376e-06
4.16227e-06
4.02368e-06
-1.06019e-06
7.05105e-06
-7.99905e-06
-3.77511e-07
6.70263e-06
-7.38531e-06
7.91296e-07
4.58805e-06
-5.75685e-06
2.55999e-06
1.61867e-06
-3.38736e-06
4.99904e-06
-2.16238e-06
-2.76666e-07
8.12865e-06
-6.74439e-06
3.61478e-06
1.19042e-05
-1.20681e-05
8.29259e-06
1.62099e-05
-1.79735e-05
1.36677e-05
2.08776e-05
-2.41984e-05
1.95308e-05
2.57129e-05
-3.0431e-05
2.55956e-05
3.04765e-05
-3.63068e-05
3.15432e-05
3.489e-05
-4.14273e-05
3.70139e-05
3.87447e-05
-4.54943e-05
4.16395e-05
4.1961e-05
-4.84182e-05
4.5202e-05
4.45964e-05
-5.03193e-05
4.76839e-05
4.67873e-05
-5.13842e-05
4.91934e-05
4.87056e-05
-5.19396e-05
5.00213e-05
5.04044e-05
-5.21603e-05
5.04615e-05
5.19122e-05
-5.20573e-05
5.05495e-05
5.32879e-05
-5.17531e-05
5.03773e-05
5.45438e-05
-5.13124e-05
5.00565e-05
5.56776e-05
-5.07537e-05
4.962e-05
5.6665e-05
-5.00315e-05
4.9044e-05
-4.89273e-05
4.81143e-05
-1.20633e-06
6.13113e-06
-1.96183e-08
5.51591e-06
1.629e-06
2.93943e-06
3.90617e-06
-6.58512e-07
6.88748e-06
-5.14368e-06
1.05655e-05
-1.04224e-05
1.48561e-05
-1.63586e-05
1.95956e-05
-2.2713e-05
2.45664e-05
-2.91692e-05
2.94985e-05
-3.53631e-05
3.40728e-05
-4.08811e-05
3.80197e-05
-4.53742e-05
4.12188e-05
-4.86934e-05
4.3722e-05
-5.09214e-05
4.56864e-05
-5.22837e-05
4.73327e-05
-5.30306e-05
4.877e-05
-5.33769e-05
4.99982e-05
-5.33885e-05
5.11098e-05
-5.31689e-05
5.21374e-05
-5.27807e-05
5.30917e-05
-5.22667e-05
5.39728e-05
-5.16348e-05
5.47647e-05
-5.08234e-05
-4.96268e-05
-1.1863e-06
5.18072e-06
3.14523e-07
4.01509e-06
2.36026e-06
8.93693e-07
5.09683e-06
-3.39508e-06
8.57029e-06
-8.61714e-06
1.27379e-05
-1.45901e-05
1.74591e-05
-2.10798e-05
2.24992e-05
-2.77532e-05
2.75623e-05
-3.42323e-05
3.22933e-05
-4.00942e-05
3.63677e-05
-4.49554e-05
3.96184e-05
-4.8625e-05
4.20866e-05
-5.11616e-05
4.39537e-05
-5.27885e-05
4.54243e-05
-5.37544e-05
4.66505e-05
-5.42567e-05
4.76924e-05
-5.44187e-05
4.86282e-05
-5.43243e-05
4.94913e-05
-5.4032e-05
5.03034e-05
-5.35928e-05
5.10786e-05
-5.30418e-05
5.18157e-05
-5.2372e-05
5.25068e-05
-5.15145e-05
-5.02813e-05
-1.08555e-06
4.18178e-06
6.29812e-07
2.29974e-06
3.01967e-06
-1.49617e-06
6.1786e-06
-6.554e-06
1.01128e-05
-1.25514e-05
1.47197e-05
-1.9197e-05
1.97578e-05
-2.61179e-05
2.49015e-05
-3.28969e-05
2.97666e-05
-3.90973e-05
3.39761e-05
-4.43037e-05
3.73159e-05
-4.82953e-05
3.98084e-05
-5.11174e-05
4.16388e-05
-5.29921e-05
4.30226e-05
-5.41723e-05
4.41263e-05
-5.4858e-05
4.50516e-05
-5.5182e-05
4.58643e-05
-5.52315e-05
4.6605e-05
-5.5065e-05
4.73043e-05
-5.47312e-05
4.7986e-05
-5.42746e-05
4.86599e-05
-5.37156e-05
4.93226e-05
-5.30347e-05
4.99687e-05
-5.21607e-05
-5.0923e-05
-9.35872e-07
3.13682e-06
9.52168e-07
4.11696e-07
3.65614e-06
-4.20013e-06
7.22308e-06
-1.01209e-05
1.15949e-05
-1.69232e-05
1.65464e-05
-2.41485e-05
2.17188e-05
-3.12903e-05
2.66893e-05
-3.78674e-05
3.10303e-05
-4.34382e-05
3.44811e-05
-4.77544e-05
3.70413e-05
-5.08555e-05
3.88919e-05
-5.29681e-05
4.02523e-05
-5.43525e-05
4.12968e-05
-5.52167e-05
4.21419e-05
-5.57031e-05
4.28633e-05
-5.59034e-05
4.35084e-05
-5.58766e-05
4.41124e-05
-5.56689e-05
4.47047e-05
-5.53236e-05
4.53052e-05
-5.4875e-05
4.59174e-05
-5.43279e-05
4.65378e-05
-5.36551e-05
4.71614e-05
-5.27843e-05
-5.15636e-05
-7.46988e-07
2.04772e-06
1.30516e-06
-1.64045e-06
4.32428e-06
-7.21925e-06
8.30124e-06
-1.40979e-05
1.30471e-05
-2.1669e-05
1.81763e-05
-2.92777e-05
2.32194e-05
-3.63334e-05
2.76892e-05
-4.23372e-05
3.12673e-05
-4.70163e-05
3.3925e-05
-5.04122e-05
3.58345e-05
-5.2765e-05
3.72147e-05
-5.43482e-05
3.82438e-05
-5.53816e-05
3.9046e-05
-5.6019e-05
3.97044e-05
-5.63615e-05
4.0275e-05
-5.6474e-05
4.07991e-05
-5.64007e-05
4.13097e-05
-5.61796e-05
4.18322e-05
-5.58461e-05
4.23784e-05
-5.54213e-05
4.29481e-05
-5.48976e-05
4.35366e-05
-5.42436e-05
4.41401e-05
-5.33878e-05
-5.21976e-05
-5.19051e-07
9.08504e-07
1.71356e-06
-3.87306e-06
5.07125e-06
-1.05769e-05
9.43708e-06
-1.84637e-05
1.44217e-05
-2.66536e-05
1.94894e-05
-3.43455e-05
2.40786e-05
-4.09226e-05
2.77984e-05
-4.6057e-05
3.05782e-05
-4.97962e-05
3.2575e-05
-5.2409e-05
3.40043e-05
-5.41943e-05
3.50466e-05
-5.53905e-05
3.58311e-05
-5.61661e-05
3.64478e-05
-5.66357e-05
3.69601e-05
-5.68739e-05
3.74151e-05
-5.69289e-05
3.78496e-05
-5.68351e-05
3.82923e-05
-5.66223e-05
3.8762e-05
-5.63158e-05
3.92639e-05
-5.59231e-05
3.97951e-05
-5.54288e-05
4.03505e-05
-5.4799e-05
4.09283e-05
-5.39656e-05
-5.28145e-05
-2.48484e-07
-2.94221e-07
2.20089e-06
-6.32243e-06
5.91772e-06
-1.42938e-05
1.05855e-05
-2.31315e-05
1.56048e-05
-3.16729e-05
2.03017e-05
-3.90424e-05
2.41771e-05
-4.4798e-05
2.71e-05
-4.89799e-05
2.9206e-05
-5.19021e-05
3.07061e-05
-5.3909e-05
3.17823e-05
-5.52706e-05
3.25684e-05
-5.61766e-05
3.31599e-05
-5.67576e-05
3.3626e-05
-5.71018e-05
3.40188e-05
-5.72667e-05
3.43792e-05
-5.72892e-05
3.47394e-05
-5.71953e-05
3.51227e-05
-5.70057e-05
3.55415e-05
-5.67345e-05
3.59965e-05
-5.63782e-05
3.64838e-05
-5.59161e-05
3.69983e-05
-5.53134e-05
3.75406e-05
-5.45079e-05
-5.34021e-05
7.13605e-08
-1.58265e-06
2.77468e-06
-9.02576e-06
6.8347e-06
-1.83538e-05
1.16554e-05
-2.79523e-05
1.64247e-05
-3.64422e-05
2.04753e-05
-4.3093e-05
2.35684e-05
-4.78911e-05
2.58046e-05
-5.12162e-05
2.73918e-05
-5.34893e-05
2.85168e-05
-5.5034e-05
2.93186e-05
-5.60723e-05
2.98975e-05
-5.67556e-05
3.03277e-05
-5.71877e-05
3.06652e-05
-5.74393e-05
3.09542e-05
-5.75557e-05
3.12303e-05
-5.75653e-05
3.15205e-05
-5.74856e-05
3.18427e-05
-5.7328e-05
3.22042e-05
-5.70961e-05
3.26039e-05
-5.67778e-05
3.30372e-05
-5.63495e-05
3.35002e-05
-5.57764e-05
3.39956e-05
-5.50033e-05
-5.3947e-05
4.30011e-07
-2.97158e-06
3.4327e-06
-1.20285e-05
7.75704e-06
-2.26781e-05
1.24976e-05
-3.26928e-05
1.67353e-05
-4.06799e-05
2.0034e-05
-4.63917e-05
2.24274e-05
-5.02845e-05
2.41191e-05
-5.29078e-05
2.53051e-05
-5.46753e-05
2.61327e-05
-5.58616e-05
2.67083e-05
-5.6648e-05
2.71107e-05
-5.7158e-05
2.73998e-05
-5.74768e-05
2.76223e-05
-5.76618e-05
2.78158e-05
-5.77492e-05
2.801e-05
-5.77595e-05
2.82271e-05
-5.77027e-05
2.84806e-05
-5.75814e-05
2.87745e-05
-5.739e-05
2.91073e-05
-5.71106e-05
2.94753e-05
-5.67174e-05
2.98755e-05
-5.61766e-05
3.03118e-05
-5.54395e-05
-5.44355e-05
8.33635e-07
-4.48669e-06
4.14004e-06
-1.53349e-05
8.58716e-06
-2.71252e-05
1.29789e-05
-3.70845e-05
1.65244e-05
-4.42253e-05
1.91126e-05
-4.898e-05
2.09318e-05
-5.21036e-05
2.21919e-05
-5.41679e-05
2.30536e-05
-5.55371e-05
2.36325e-05
-5.64405e-05
2.40132e-05
-5.70286e-05
2.42596e-05
-5.74044e-05
2.44211e-05
-5.76384e-05
2.45368e-05
-5.77775e-05
2.46374e-05
-5.78498e-05
2.47474e-05
-5.78694e-05
2.48843e-05
-5.78396e-05
2.50583e-05
-5.77554e-05
2.52726e-05
-5.76043e-05
2.55263e-05
-5.73644e-05
2.5817e-05
-5.70081e-05
2.61429e-05
-5.65025e-05
2.65082e-05
-5.58049e-05
-5.48556e-05
1.27391e-06
-6.15345e-06
4.84382e-06
-1.89048e-05
9.20449e-06
-3.14859e-05
1.30356e-05
-4.09156e-05
1.58783e-05
-4.70681e-05
1.78609e-05
-5.09626e-05
1.92132e-05
-5.34559e-05
2.01181e-05
-5.50728e-05
2.07051e-05
-5.6124e-05
2.10671e-05
-5.68025e-05
2.12739e-05
-5.72354e-05
2.13784e-05
-5.7509e-05
2.14216e-05
-5.76816e-05
2.14349e-05
-5.77907e-05
2.14427e-05
-5.78575e-05
2.14637e-05
-5.78904e-05
2.15117e-05
-5.78876e-05
2.15952e-05
-5.78389e-05
2.17176e-05
-5.77268e-05
2.18799e-05
-5.75267e-05
2.20815e-05
-5.72097e-05
2.23219e-05
-5.67429e-05
2.26056e-05
-5.60886e-05
-5.51963e-05
1.73875e-06
-7.99902e-06
5.48294e-06
-2.2649e-05
9.53099e-06
-3.5534e-05
1.27104e-05
-4.4095e-05
1.49183e-05
-4.92759e-05
1.63943e-05
-5.24387e-05
1.73567e-05
-5.44182e-05
1.79574e-05
-5.56736e-05
1.83026e-05
-5.64692e-05
1.84696e-05
-5.69696e-05
1.85172e-05
-5.7283e-05
1.84898e-05
-5.74816e-05
1.84206e-05
-5.76124e-05
1.83338e-05
-5.7704e-05
1.82474e-05
-5.77711e-05
1.81749e-05
-5.78179e-05
1.81264e-05
-5.78392e-05
1.81094e-05
-5.78219e-05
1.81287e-05
-5.77461e-05
1.81879e-05
-5.75858e-05
1.82888e-05
-5.73106e-05
1.8433e-05
-5.68871e-05
1.8625e-05
-5.62806e-05
-5.54488e-05
2.19973e-06
-1.00376e-05
5.99166e-06
-2.64409e-05
9.55415e-06
-3.90965e-05
1.20919e-05
-4.66328e-05
1.3749e-05
-5.09331e-05
1.4794e-05
-5.34837e-05
1.54184e-05
-5.50426e-05
1.5749e-05
-5.60041e-05
1.58746e-05
-5.65948e-05
1.58616e-05
-5.69566e-05
1.57602e-05
-5.71815e-05
1.56073e-05
-5.73288e-05
1.54291e-05
-5.74342e-05
1.52433e-05
-5.75182e-05
1.50617e-05
-5.75895e-05
1.48926e-05
-5.76488e-05
1.47428e-05
-5.76894e-05
1.46185e-05
-5.76976e-05
1.45258e-05
-5.76534e-05
1.4471e-05
-5.7531e-05
1.44599e-05
-5.72995e-05
1.44971e-05
-5.69242e-05
1.45881e-05
-5.63717e-05
-5.56065e-05
2.62148e-06
-1.22665e-05
6.31936e-06
-3.01388e-05
9.31705e-06
-4.20941e-05
1.12639e-05
-4.85796e-05
1.24428e-05
-5.2112e-05
1.31117e-05
-5.41526e-05
1.34346e-05
-5.53655e-05
1.35184e-05
-5.6088e-05
1.34399e-05
-5.65163e-05
1.32569e-05
-5.67736e-05
1.30127e-05
-5.69373e-05
1.27377e-05
-5.70537e-05
1.24518e-05
-5.71483e-05
1.21668e-05
-5.72332e-05
1.18895e-05
-5.73121e-05
1.16234e-05
-5.73827e-05
1.13715e-05
-5.74375e-05
1.1138e-05
-5.7464e-05
1.09288e-05
-5.74442e-05
1.07526e-05
-5.73548e-05
1.06192e-05
-5.71662e-05
1.05383e-05
-5.68433e-05
1.05197e-05
-5.63531e-05
-5.56667e-05
2.98494e-06
-1.46578e-05
6.45551e-06
-3.36093e-05
8.88243e-06
-4.45211e-05
1.02958e-05
-4.9993e-05
1.10527e-05
-5.28688e-05
1.13846e-05
-5.44845e-05
1.14306e-05
-5.54115e-05
1.12834e-05
-5.59408e-05
1.1011e-05
-5.62439e-05
1.06642e-05
-5.64268e-05
1.02799e-05
-5.65531e-05
9.88287e-06
-5.66566e-05
9.48768e-06
-5.67531e-05
9.10179e-06
-5.68473e-05
8.72785e-06
-5.69382e-05
8.36596e-06
-5.70208e-05
8.01575e-06
-5.70873e-05
7.67817e-06
-5.71264e-05
7.35733e-06
-5.71234e-05
7.06169e-06
-5.70591e-05
6.80382e-06
-5.69083e-05
6.59696e-06
-5.66364e-05
6.45388e-06
-5.621e-05
-5.5633e-05
3.30751e-06
-1.71715e-05
6.43371e-06
-3.67355e-05
8.30832e-06
-4.63957e-05
9.2425e-06
-5.09272e-05
9.61816e-06
-5.32445e-05
9.63854e-06
-5.45049e-05
9.42394e-06
-5.51969e-05
9.05644e-06
-5.55733e-05
8.59651e-06
-5.5784e-05
8.08873e-06
-5.59191e-05
7.56405e-06
-5.60284e-05
7.04183e-06
-5.61344e-05
6.5326e-06
-5.62439e-05
6.04076e-06
-5.63555e-05
5.56686e-06
-5.64643e-05
5.10937e-06
-5.65633e-05
4.66631e-06
-5.66443e-05
4.23671e-06
-5.66968e-05
3.82228e-06
-5.67089e-05
3.42924e-06
-5.66661e-05
3.0703e-06
-5.65493e-05
2.76221e-06
-5.63283e-05
2.50593e-06
-5.59537e-05
-5.5453e-05
3.61889e-06
-1.97583e-05
6.30941e-06
-3.94261e-05
7.65114e-06
-4.77374e-05
8.1453e-06
-5.14213e-05
8.16568e-06
-5.32649e-05
7.89098e-06
-5.42302e-05
7.42692e-06
-5.47328e-05
6.84642e-06
-5.49928e-05
6.20296e-06
-5.51405e-05
5.5347e-06
-5.52508e-05
4.86666e-06
-5.53603e-05
4.21329e-06
-5.54811e-05
3.58167e-06
-5.56123e-05
2.97421e-06
-5.5748e-05
2.3907e-06
-5.58808e-05
1.82981e-06
-5.60025e-05
1.29019e-06
-5.61046e-05
7.71534e-07
-5.61782e-05
2.7527e-07
-5.62127e-05
-1.94949e-07
-5.61959e-05
-6.29642e-07
-5.61146e-05
-1.00168e-06
-5.59563e-05
-1.2709e-06
-5.56845e-05
-5.50038e-05
3.95365e-06
-2.23779e-05
6.134e-06
-4.16064e-05
6.95446e-06
-4.85579e-05
7.03182e-06
-5.14987e-05
6.7124e-06
-5.29454e-05
6.15376e-06
-5.36715e-05
5.44842e-06
-5.40275e-05
4.66041e-06
-5.42048e-05
3.83598e-06
-5.43161e-05
3.00653e-06
-5.44213e-05
2.191e-06
-5.45448e-05
1.39906e-06
-5.46891e-05
6.34535e-07
-5.48478e-05
-1.02076e-07
-5.50114e-05
-8.11844e-07
-5.5171e-05
-1.4965e-06
-5.53178e-05
-2.15778e-06
-5.54434e-05
-2.79704e-06
-5.55389e-05
-3.41515e-06
-5.55946e-05
-4.01198e-06
-5.55991e-05
-4.58699e-06
-5.55396e-05
-5.14832e-06
-5.5395e-05
-5.73471e-06
-5.50981e-05
-5.4567e-05
4.34949e-06
-2.50079e-05
5.94316e-06
-4.32001e-05
6.24531e-06
-4.886e-05
5.91796e-06
-5.11713e-05
5.26906e-06
-5.22965e-05
4.43484e-06
-5.28373e-05
3.49476e-06
-5.30874e-05
2.50402e-06
-5.32141e-05
1.50101e-06
-5.3313e-05
5.09788e-07
-5.34301e-05
-4.56739e-07
-5.35783e-05
-1.39343e-06
-5.37524e-05
-2.29965e-06
-5.39415e-05
-3.17676e-06
-5.41343e-05
-4.02704e-06
-5.43207e-05
-4.85305e-06
-5.44918e-05
-5.65744e-06
-5.4639e-05
-6.44278e-06
-5.47536e-05
-7.21143e-06
-5.48259e-05
-7.96549e-06
-5.4845e-05
-8.7078e-06
-5.47973e-05
-9.44181e-06
-5.4661e-05
-1.01488e-05
-5.43911e-05
-5.40014e-05
4.83256e-06
-2.76299e-05
5.76167e-06
-4.41292e-05
5.53885e-06
-4.86372e-05
4.81175e-06
-5.04442e-05
3.84016e-06
-5.1325e-05
2.73739e-06
-5.17345e-05
1.56946e-06
-5.19194e-05
3.81297e-07
-5.20259e-05
-7.96901e-07
-5.21349e-05
-1.94874e-06
-5.22783e-05
-3.06762e-06
-5.24594e-05
-4.15256e-06
-5.26675e-05
-5.20532e-06
-5.28888e-05
-6.22879e-06
-5.31109e-05
-7.22608e-06
-5.33234e-05
-8.20023e-06
-5.35176e-05
-9.15407e-06
-5.36851e-05
-1.009e-05
-5.38176e-05
-1.10099e-05
-5.3906e-05
-1.19144e-05
-5.39405e-05
-1.28025e-05
-5.39092e-05
-1.36684e-05
-5.37951e-05
-1.44895e-05
-5.357e-05
-5.32977e-05
5.39778e-06
-3.01952e-05
5.61734e-06
-4.43488e-05
4.83984e-06
-4.78597e-05
3.71108e-06
-4.93155e-05
2.42352e-06
-5.00374e-05
1.06077e-06
-5.03718e-05
-3.26917e-07
-5.05318e-05
-1.70409e-06
-5.06487e-05
-3.05206e-06
-5.07869e-05
-4.362e-06
-5.09683e-05
-5.63236e-06
-5.1189e-05
-6.86568e-06
-5.14342e-05
-8.06576e-06
-5.16887e-05
-9.23644e-06
-5.19402e-05
-1.03812e-05
-5.21787e-05
-1.15029e-05
-5.23959e-05
-1.2604e-05
-5.2584e-05
-1.36862e-05
-5.27354e-05
-1.47499e-05
-5.28423e-05
-1.57941e-05
-5.28963e-05
-1.6815e-05
-5.28883e-05
-1.7804e-05
-5.28062e-05
-1.87405e-05
-5.26335e-05
-5.24633e-05
6.15556e-06
-3.28051e-05
5.52425e-06
-4.37174e-05
4.13282e-06
-4.64682e-05
2.60123e-06
-4.77839e-05
1.01003e-06
-4.84462e-05
-5.98975e-07
-4.87628e-05
-2.19229e-06
-4.89384e-05
-3.74958e-06
-4.90915e-05
-5.26027e-06
-4.92762e-05
-6.72303e-06
-4.95056e-05
-8.14134e-06
-4.97707e-05
-9.52046e-06
-5.00551e-05
-1.08655e-05
-5.03436e-05
-1.21809e-05
-5.06249e-05
-1.34698e-05
-5.08897e-05
-1.4735e-05
-5.11307e-05
-1.59782e-05
-5.13408e-05
-1.72002e-05
-5.15135e-05
-1.84002e-05
-5.16422e-05
-1.95759e-05
-5.17206e-05
-2.07222e-05
-5.1742e-05
-2.18298e-05
-5.16986e-05
-2.28811e-05
-5.15821e-05
-5.15044e-05
7.56976e-06
-3.63512e-05
5.38937e-06
-4.15371e-05
3.3553e-06
-4.44342e-05
1.453e-06
-4.58816e-05
-4.15152e-07
-4.65781e-05
-2.24773e-06
-4.69302e-05
-4.03006e-06
-4.71561e-05
-5.75319e-06
-4.73683e-05
-7.41647e-06
-4.76129e-05
-9.02476e-06
-4.78973e-05
-1.05854e-05
-4.82101e-05
-1.21055e-05
-4.8535e-05
-1.35909e-05
-4.88582e-05
-1.50459e-05
-4.91698e-05
-1.64738e-05
-4.94619e-05
-1.78765e-05
-4.9728e-05
-1.92551e-05
-4.99622e-05
-2.06097e-05
-5.01589e-05
-2.19387e-05
-5.03132e-05
-2.32389e-05
-5.04204e-05
-2.45047e-05
-5.04762e-05
-2.57272e-05
-5.04762e-05
-2.68912e-05
-5.04181e-05
-5.0425e-05
-1.83559e-07
1.83559e-07
1.47621e-07
-3.3118e-07
9.8099e-07
-8.3337e-07
2.31521e-06
-1.33422e-06
5.569e-06
-3.25379e-06
-6.69302e-06
1.2262e-05
-4.04729e-08
2.24032e-07
4.48391e-07
-8.20044e-07
1.33699e-06
-1.72197e-06
2.78872e-06
-2.78595e-06
4.99124e-06
-5.45631e-06
-1.00977e-05
8.39587e-06
8.61842e-08
1.37848e-07
6.26625e-07
-1.36048e-06
1.49509e-06
-2.59043e-06
2.82001e-06
-4.11087e-06
4.50329e-06
-7.13959e-06
-1.18722e-05
6.27784e-06
1.89925e-07
-5.20773e-08
7.22335e-07
-1.89289e-06
1.51997e-06
-3.38806e-06
2.63586e-06
-5.22677e-06
3.85611e-06
-8.35984e-06
-1.27901e-05
4.77401e-06
2.62106e-07
-3.14183e-07
7.55604e-07
-2.38639e-06
1.44686e-06
-4.07932e-06
2.32181e-06
-6.10171e-06
3.12886e-06
-9.16688e-06
-1.31463e-05
3.48509e-06
3.00008e-07
-6.14192e-07
7.36077e-07
-2.82246e-06
1.30127e-06
-4.64452e-06
1.93066e-06
-6.7311e-06
2.37382e-06
-9.61005e-06
-1.30877e-05
2.31516e-06
3.05474e-07
-9.19665e-07
6.73368e-07
-3.19036e-06
1.10414e-06
-5.07529e-06
1.49865e-06
-7.1256e-06
1.62664e-06
-9.73804e-06
-1.27075e-05
1.24644e-06
2.83385e-07
-1.20305e-06
5.7745e-07
-3.48442e-06
8.73511e-07
-5.37135e-06
1.05225e-06
-7.30435e-06
9.11525e-07
-9.59731e-06
-1.20712e-05
2.75207e-07
2.40197e-07
-1.44325e-06
4.58195e-07
-3.70242e-06
6.25037e-07
-5.53819e-06
6.11654e-07
-7.29096e-06
2.45648e-07
-9.23131e-06
-1.12324e-05
-5.93094e-07
1.82607e-07
-1.62586e-06
3.24822e-07
-3.84463e-06
3.72028e-07
-5.5854e-06
1.92341e-07
-7.11128e-06
-3.59547e-07
-8.67942e-06
-1.02298e-05
-1.36214e-06
1.1673e-07
-1.74259e-06
1.85435e-07
-3.91334e-06
1.2537e-07
-5.52533e-06
-1.93982e-07
-6.79192e-06
-8.95839e-07
-7.97756e-06
-9.0961e-06
-2.02956e-06
4.77383e-08
-1.79032e-06
4.67635e-08
-3.91236e-06
-1.06472e-07
-5.37209e-06
-5.38802e-07
-6.35959e-06
-1.35755e-06
-7.15882e-06
-7.85977e-06
-2.59388e-06
-2.01845e-08
-1.77014e-06
-8.58954e-08
-3.84665e-06
-3.17316e-07
-5.14067e-06
-8.36309e-07
-5.8406e-06
-1.74086e-06
-6.25427e-06
-6.54672e-06
-3.05391e-06
-8.37008e-08
-1.68644e-06
-2.08602e-07
-3.72175e-06
-5.03136e-07
-4.84614e-06
-1.0831e-06
-5.26064e-06
-2.04342e-06
-5.29395e-06
-5.18191e-06
-3.40823e-06
-1.40144e-07
-1.54629e-06
-3.18531e-07
-3.54337e-06
-6.61863e-07
-4.50281e-06
-1.27795e-06
-4.64455e-06
-2.26411e-06
-4.30779e-06
-3.79124e-06
-3.65478e-06
-1.87181e-07
-1.35911e-06
-4.13783e-07
-3.31676e-06
-7.93144e-07
-4.12345e-06
-1.42178e-06
-4.01591e-06
-2.40329e-06
-3.32628e-06
-2.40384e-06
-3.79068e-06
-2.22562e-07
-1.13655e-06
-4.93255e-07
-3.04607e-06
-8.9829e-07
-3.71841e-06
-1.51773e-06
-3.39647e-06
-2.46306e-06
-2.38095e-06
-1.05516e-06
-3.81175e-06
-2.4396e-07
-8.92592e-07
-5.56493e-07
-2.73354e-06
-9.80257e-07
-3.29465e-06
-1.57165e-06
-2.80508e-06
-2.4482e-06
-1.5044e-06
2.08416e-07
-3.71178e-06
-2.48894e-07
-6.43698e-07
-6.03408e-07
-2.37902e-06
-1.04353e-06
-2.85453e-06
-1.59279e-06
-2.25582e-06
-2.36794e-06
-7.29242e-07
1.32173e-06
-3.48125e-06
-2.3487e-07
-4.08828e-07
-6.33834e-07
-1.98006e-06
-1.09381e-06
-2.39455e-06
-1.59498e-06
-1.75465e-06
-2.24073e-06
-8.3494e-08
2.18547e-06
-3.10447e-06
-2.00563e-07
-2.08264e-07
-6.47028e-07
-1.53359e-06
-1.1373e-06
-1.90428e-06
-1.59646e-06
-1.29549e-06
-2.09799e-06
4.1803e-07
2.64163e-06
-2.55415e-06
-1.48068e-07
-6.01967e-08
-6.41208e-07
-1.04045e-06
-1.18029e-06
-1.36519e-06
-1.61365e-06
-8.6214e-07
-1.96978e-06
7.74167e-07
2.47575e-06
-1.8039e-06
-7.67865e-08
1.65898e-08
-6.08617e-07
-5.08624e-07
-1.22861e-06
-7.45199e-07
-1.64774e-06
-4.43018e-07
-1.76678e-06
8.93211e-07
1.57572e-06
-8.66753e-07
1.65898e-08
-4.92034e-07
-1.23723e-06
-1.68025e-06
-7.8704e-07
7.8868e-07
7.61532e-06
-3.17045e-05
4.77862e-06
-3.87004e-05
2.41095e-06
-4.20665e-05
2.28359e-07
-4.3699e-05
-1.86893e-06
-4.44808e-05
-3.89248e-06
-4.49066e-05
-5.83942e-06
-4.52092e-05
-7.71137e-06
-4.54964e-05
-9.51505e-06
-4.58092e-05
-1.12598e-05
-4.61525e-05
-1.29555e-05
-4.65145e-05
-1.46101e-05
-4.68804e-05
-1.62296e-05
-4.72387e-05
-1.7818e-05
-4.75813e-05
-1.93782e-05
-4.79017e-05
-2.09116e-05
-4.81946e-05
-2.24186e-05
-4.84551e-05
-2.38988e-05
-4.86788e-05
-2.535e-05
-4.8862e-05
-2.67686e-05
-4.90018e-05
-2.81488e-05
-4.9096e-05
-2.94822e-05
-4.91429e-05
-3.07558e-05
-4.91444e-05
-4.92297e-05
6.03724e-06
-2.93459e-05
3.65285e-06
-3.6316e-05
1.25357e-06
-3.96672e-05
-1.09185e-06
-4.13536e-05
-3.35605e-06
-4.22166e-05
-5.53054e-06
-4.27322e-05
-7.6155e-06
-4.31242e-05
-9.61801e-06
-4.34939e-05
-1.1549e-05
-4.38782e-05
-1.34204e-05
-4.42812e-05
-1.52427e-05
-4.46921e-05
-1.70242e-05
-4.50988e-05
-1.87705e-05
-4.54925e-05
-2.04851e-05
-4.58667e-05
-2.21702e-05
-4.62166e-05
-2.38268e-05
-4.6538e-05
-2.5455e-05
-4.68269e-05
-2.70537e-05
-4.70801e-05
-2.86206e-05
-4.72951e-05
-3.01517e-05
-4.74707e-05
-3.16411e-05
-4.76066e-05
-3.3081e-05
-4.77029e-05
-3.44603e-05
-4.77651e-05
-4.79232e-05
4.72588e-06
-2.77939e-05
2.42991e-06
-3.402e-05
-1.78173e-08
-3.72195e-05
-2.47554e-06
-3.88958e-05
-4.85845e-06
-3.98337e-05
-7.14931e-06
-4.04413e-05
-9.3483e-06
-4.09252e-05
-1.14644e-05
-4.13777e-05
-1.35102e-05
-4.18325e-05
-1.54979e-05
-4.22935e-05
-1.74381e-05
-4.27519e-05
-1.93383e-05
-4.31987e-05
-2.12032e-05
-4.36275e-05
-2.3036e-05
-4.40339e-05
-2.48382e-05
-4.44144e-05
-2.66104e-05
-4.47658e-05
-2.83522e-05
-4.5085e-05
-3.00624e-05
-4.53699e-05
-3.17383e-05
-4.56192e-05
-3.33757e-05
-4.58333e-05
-3.49688e-05
-4.60134e-05
-3.65104e-05
-4.61614e-05
-3.79908e-05
-4.62847e-05
-4.65102e-05
3.35899e-06
-2.63789e-05
1.11621e-06
-3.17772e-05
-1.36989e-06
-3.47334e-05
-3.88679e-06
-3.63789e-05
-6.35125e-06
-3.73692e-05
-8.73173e-06
-3.80608e-05
-1.10253e-05
-3.86317e-05
-1.32405e-05
-3.91625e-05
-1.53894e-05
-3.96836e-05
-1.74836e-05
-4.01992e-05
-1.95326e-05
-4.0703e-05
-2.15427e-05
-4.11886e-05
-2.35179e-05
-4.16523e-05
-2.54604e-05
-4.20914e-05
-2.73715e-05
-4.25034e-05
-2.92514e-05
-4.2886e-05
-3.10992e-05
-4.32371e-05
-3.29136e-05
-4.35555e-05
-3.46915e-05
-4.38413e-05
-3.64287e-05
-4.40961e-05
-3.81196e-05
-4.43226e-05
-3.97573e-05
-4.45237e-05
-4.1334e-05
-4.47079e-05
-4.49957e-05
2.02205e-06
-2.49158e-05
-2.12894e-07
-2.95423e-05
-2.72011e-06
-3.22262e-05
-5.28379e-06
-3.38153e-05
-7.80856e-06
-3.48444e-05
-1.02601e-05
-3.56093e-05
-1.26335e-05
-3.62583e-05
-1.49357e-05
-3.68604e-05
-1.71773e-05
-3.74419e-05
-1.93686e-05
-3.8008e-05
-2.15172e-05
-3.85543e-05
-2.36283e-05
-3.90775e-05
-2.5705e-05
-3.95757e-05
-2.77488e-05
-4.00476e-05
-2.97604e-05
-4.04917e-05
-3.17397e-05
-4.09067e-05
-3.36857e-05
-4.12911e-05
-3.55966e-05
-4.16446e-05
-3.74693e-05
-4.19686e-05
-3.92994e-05
-4.2266e-05
-4.10814e-05
-4.25406e-05
-4.28094e-05
-4.27957e-05
-4.44773e-05
-4.304e-05
-4.3385e-05
7.50253e-07
-2.33509e-05
-1.50731e-06
-2.72847e-05
-4.03742e-06
-2.96961e-05
-6.63647e-06
-3.12162e-05
-9.20844e-06
-3.22725e-05
-1.17186e-05
-3.30991e-05
-1.41606e-05
-3.38163e-05
-1.65397e-05
-3.44812e-05
-1.88647e-05
-3.51169e-05
-2.11437e-05
-3.57289e-05
-2.3383e-05
-3.63151e-05
-2.55862e-05
-3.68743e-05
-2.77554e-05
-3.74064e-05
-2.98917e-05
-3.79113e-05
-3.19953e-05
-3.83882e-05
-3.40657e-05
-3.88363e-05
-3.61018e-05
-3.9255e-05
-3.81014e-05
-3.9645e-05
-4.00612e-05
-4.00088e-05
-4.19767e-05
-4.03505e-05
-4.3843e-05
-4.06743e-05
-4.56552e-05
-4.09836e-05
-4.74088e-05
-4.12863e-05
-4.16836e-05
-4.39614e-07
-2.16649e-05
-2.73661e-06
-2.49877e-05
-5.29304e-06
-2.71396e-05
-7.92202e-06
-2.85872e-05
-1.05332e-05
-2.96612e-05
-1.30933e-05
-3.0539e-05
-1.55954e-05
-3.13142e-05
-1.80429e-05
-3.20337e-05
-2.04425e-05
-3.27173e-05
-2.28006e-05
-3.33708e-05
-2.51215e-05
-3.39942e-05
-2.74077e-05
-3.45881e-05
-2.96606e-05
-3.51536e-05
-3.18806e-05
-3.56913e-05
-3.40675e-05
-3.62013e-05
-3.62206e-05
-3.66832e-05
-3.83383e-05
-3.71372e-05
-4.04184e-05
-3.7565e-05
-4.24572e-05
-3.797e-05
-4.44506e-05
-3.83572e-05
-4.63941e-05
-3.87308e-05
-4.8284e-05
-3.90937e-05
-5.01176e-05
-3.94527e-05
-3.98977e-05
-1.53502e-06
-1.98547e-05
-3.88093e-06
-2.26418e-05
-6.46683e-06
-2.45537e-05
-9.12341e-06
-2.59306e-05
-1.1769e-05
-2.70156e-05
-1.4373e-05
-2.79351e-05
-1.69282e-05
-2.87591e-05
-1.94365e-05
-2.95254e-05
-2.19026e-05
-3.02512e-05
-2.4331e-05
-3.09423e-05
-2.67247e-05
-3.16005e-05
-2.9085e-05
-3.22278e-05
-3.14125e-05
-3.28261e-05
-3.37072e-05
-3.33966e-05
-3.59686e-05
-3.39399e-05
-3.81956e-05
-3.44562e-05
-4.03865e-05
-3.49464e-05
-4.25386e-05
-3.54129e-05
-4.46482e-05
-3.58603e-05
-4.67115e-05
-3.62938e-05
-4.87251e-05
-3.67173e-05
-5.06863e-05
-3.71324e-05
-5.25938e-05
-3.75453e-05
-3.80338e-05
-2.52507e-06
-1.79227e-05
-4.92689e-06
-2.024e-05
-7.54501e-06
-2.19356e-05
-1.02283e-05
-2.32473e-05
-1.29052e-05
-2.43388e-05
-1.55483e-05
-2.52919e-05
-1.81506e-05
-2.61568e-05
-2.07126e-05
-2.69634e-05
-2.32373e-05
-2.77265e-05
-2.57277e-05
-2.84519e-05
-2.81852e-05
-2.9143e-05
-3.06105e-05
-2.98025e-05
-3.30035e-05
-3.0433e-05
-3.5364e-05
-3.10362e-05
-3.76909e-05
-3.16129e-05
-3.9983e-05
-3.2164e-05
-4.22382e-05
-3.26911e-05
-4.44537e-05
-3.31975e-05
-4.66258e-05
-3.36881e-05
-4.87514e-05
-3.41683e-05
-5.08277e-05
-3.46409e-05
-5.28533e-05
-3.51069e-05
-5.48276e-05
-3.55709e-05
-3.60985e-05
-3.40668e-06
-1.58781e-05
-5.86637e-06
-1.77803e-05
-8.51849e-06
-1.92835e-05
-1.12281e-05
-2.05377e-05
-1.39339e-05
-2.1633e-05
-1.66121e-05
-2.26137e-05
-1.92558e-05
-2.35131e-05
-2.18646e-05
-2.43546e-05
-2.44402e-05
-2.5151e-05
-2.6984e-05
-2.59082e-05
-2.94965e-05
-2.66305e-05
-3.19776e-05
-2.73214e-05
-3.4427e-05
-2.79836e-05
-3.68439e-05
-2.86192e-05
-3.92273e-05
-2.92296e-05
-4.15754e-05
-2.98159e-05
-4.3886e-05
-3.03805e-05
-4.61561e-05
-3.09274e-05
-4.83827e-05
-3.14616e-05
-5.05629e-05
-3.19881e-05
-5.26948e-05
-3.2509e-05
-5.47771e-05
-3.30246e-05
-5.68096e-05
-3.35385e-05
-3.40975e-05
-4.17723e-06
-1.37305e-05
-6.69464e-06
-1.52629e-05
-9.38163e-06
-1.65965e-05
-1.21171e-05
-1.78022e-05
-1.48497e-05
-1.89004e-05
-1.75591e-05
-1.99044e-05
-2.02386e-05
-2.08337e-05
-2.28872e-05
-2.17059e-05
-2.55057e-05
-2.25325e-05
-2.80942e-05
-2.33196e-05
-3.06526e-05
-2.4072e-05
-3.31804e-05
-2.47936e-05
-3.56769e-05
-2.54872e-05
-3.8141e-05
-2.61551e-05
-4.05714e-05
-2.67992e-05
-4.29663e-05
-2.74211e-05
-4.53231e-05
-2.80237e-05
-4.76391e-05
-2.86113e-05
-4.99117e-05
-2.9189e-05
-5.2139e-05
-2.97608e-05
-5.43197e-05
-3.03282e-05
-5.64528e-05
-3.08915e-05
-5.85371e-05
-3.14543e-05
-3.20423e-05
-4.83543e-06
-1.14889e-05
-7.40936e-06
-1.2689e-05
-1.01313e-05
-1.38746e-05
-1.28921e-05
-1.50414e-05
-1.56491e-05
-1.61434e-05
-1.83854e-05
-1.71681e-05
-2.10948e-05
-1.81242e-05
-2.37761e-05
-1.90246e-05
-2.64292e-05
-1.98794e-05
-2.90537e-05
-2.06951e-05
-3.1649e-05
-2.14768e-05
-3.42141e-05
-2.22284e-05
-3.67483e-05
-2.2953e-05
-3.92501e-05
-2.36533e-05
-4.17181e-05
-2.43311e-05
-4.41502e-05
-2.4989e-05
-4.65439e-05
-2.563e-05
-4.88968e-05
-2.62584e-05
-5.1207e-05
-2.68788e-05
-5.34734e-05
-2.74944e-05
-5.56954e-05
-2.81062e-05
-5.78726e-05
-2.87143e-05
-6.00041e-05
-2.93227e-05
-2.99433e-05
-5.381e-06
-9.16183e-06
-8.01e-06
-1.006e-05
-1.07664e-05
-1.11182e-05
-1.35516e-05
-1.22562e-05
-1.63303e-05
-1.33646e-05
-1.90887e-05
-1.44098e-05
-2.18217e-05
-1.53912e-05
-2.45281e-05
-1.63182e-05
-2.72074e-05
-1.72001e-05
-2.9859e-05
-1.80436e-05
-3.24818e-05
-1.8854e-05
-3.50749e-05
-1.96353e-05
-3.76372e-05
-2.03907e-05
-4.01673e-05
-2.11231e-05
-4.26635e-05
-2.1835e-05
-4.51235e-05
-2.2529e-05
-4.7545e-05
-2.32085e-05
-4.99261e-05
-2.38774e-05
-5.22655e-05
-2.45394e-05
-5.45629e-05
-2.5197e-05
-5.68183e-05
-2.58508e-05
-5.90315e-05
-2.65011e-05
-6.12029e-05
-2.71514e-05
-2.78082e-05
-5.81431e-06
-6.75575e-06
-8.49741e-06
-7.37686e-06
-1.12876e-05
-8.32809e-06
-1.40957e-05