/*--------------------------------*- C++ -*----------------------------------*\
  =========                 |
  \\      /  F ield         | OpenFOAM: The Open Source CFD Toolbox
   \\    /   O peration     | Website:  https://openfoam.org
    \\  /    A nd           | Version:  11
     \\/     M anipulation  |
\*---------------------------------------------------------------------------*/
FoamFile
{
    format      ascii;
    class       volScalarField;
    location    "1.02";
    object      p;
}
// * * * * * * * * * * * * * * * * * * * * * * * * * * * * * * * * * * * * * //

dimensions      [0 2 -2 0 0 0 0];

internalField   nonuniform List<scalar> 
2880
(
0.957834
0.927855
0.89695
0.849272
0.783574
0.69518
0.964006
0.93135
0.902937
0.857864
0.806717
0.769496
0.976487
0.937706
0.911145
0.868079
0.827321
0.802966
0.979551
0.943984
0.918908
0.878281
0.844199
0.821083
0.971401
0.948256
0.924805
0.887097
0.856762
0.832742
0.966782
0.951074
0.929122
0.894088
0.865033
0.839111
0.967013
0.953405
0.932382
0.899303
0.869978
0.841777
0.967777
0.95563
0.934906
0.90304
0.872453
0.841756
0.967964
0.957898
0.936934
0.905607
0.87298
0.839647
0.968038
0.960448
0.938698
0.907215
0.872009
0.835894
0.968607
0.963544
0.940393
0.908104
0.869925
0.830731
0.970038
0.967379
0.942207
0.908524
0.866951
0.824256
0.972517
0.972066
0.944319
0.908677
0.863216
0.81648
0.976121
0.977476
0.94701
0.908729
0.85881
0.807342
0.980753
0.983736
0.950264
0.908836
0.85378
0.796673
0.986195
0.990688
0.954139
0.909142
0.848166
0.78436
0.992109
0.997997
0.958609
0.909778
0.842034
0.770133
0.998059
1.00523
0.963507
0.910849
0.835516
0.753659
1.00355
1.01188
0.96857
0.912373
0.82883
0.73477
1.0081
1.01753
0.973707
0.914541
0.822315
0.713838
1.01144
1.0222
0.979486
0.918639
0.817599
0.691875
1.01399
1.02689
0.987592
0.927293
0.819319
0.670062
1.01674
1.03256
0.99895
0.940608
0.830433
0.649094
1.01938
1.03687
1.0068
0.948688
0.830415
0.635142
0.877422
0.89142
0.860138
0.830085
0.803122
0.779351
0.758211
0.739562
0.72333
0.709418
0.697691
0.687961
0.679969
0.673396
0.667924
0.663303
0.659389
0.656122
0.65347
0.651388
0.649881
0.649198
0.64958
0.649363
0.84212
0.852905
0.83527
0.811482
0.788101
0.766497
0.746851
0.729314
0.713928
0.700661
0.689422
0.680058
0.672343
0.665988
0.660697
0.656231
0.65245
0.649291
0.646711
0.644644
0.643131
0.642682
0.643788
0.643305
0.836706
0.832437
0.816423
0.79517
0.773746
0.753512
0.73493
0.71824
0.703526
0.690781
0.679939
0.670871
0.663376
0.657195
0.652051
0.647715
0.644045
0.640979
0.638457
0.636384
0.634853
0.634724
0.636792
0.635882
0.831954
0.819492
0.801523
0.780585
0.759919
0.740417
0.722514
0.706418
0.692198
0.679849
0.66931
0.660465
0.653134
0.647081
0.642047
0.63781
0.634229
0.631237
0.628759
0.626659
0.625089
0.625322
0.62859
0.627214
0.827195
0.808968
0.788561
0.767004
0.746367
0.727133
0.709592
0.693864
0.679978
0.667906
0.65758
0.648889
0.641667
0.635695
0.630732
0.626561
0.62304
0.620095
0.617633
0.615469
0.613772
0.614257
0.618932
0.617662
0.823234
0.799462
0.776469
0.753856
0.73282
0.713527
0.696098
0.680553
0.666862
0.654963
0.644772
0.636174
0.629011
0.623079
0.61815
0.614013
0.610521
0.607595
0.605119
0.602845
0.600954
0.601646
0.607818
0.606764
0.818605
0.790158
0.764604
0.740705
0.71901
0.699431
0.681928
0.666421
0.652813
0.641004
0.630886
0.622333
0.615191
0.609266
0.604343
0.600214
0.596731
0.593806
0.591297
0.588897
0.586809
0.587779
0.595537
0.594313
0.812731
0.780458
0.752478
0.727182
0.70467
0.684653
0.666947
0.651373
0.63777
0.625991
0.615901
0.607361
0.600214
0.594277
0.589341
0.585204
0.581717
0.578783
0.576236
0.573702
0.57142
0.572708
0.582141
0.580604
0.805616
0.769989
0.739686
0.712945
0.689529
0.668984
0.650994
0.63529
0.621643
0.609862
0.599778
0.591237
0.584078
0.578119
0.573163
0.569013
0.565516
0.562571
0.559983
0.557316
0.554836
0.556442
0.567589
0.565712
0.797247
0.758444
0.725858
0.697655
0.673302
0.652191
0.633886
0.618029
0.604326
0.592537
0.582463
0.573928
0.566763
0.560791
0.55582
0.55166
0.548159
0.545208
0.542589
0.539798
0.537124
0.539032
0.551896
0.549685
0.787504
0.745494
0.710618
0.680958
0.655681
0.634019
0.615416
0.599426
0.585691
0.573922
0.563886
0.555385
0.548243
0.542282
0.537316
0.533163
0.529671
0.52673
0.524096
0.521205
0.518351
0.520541
0.535083
0.53258
0.776164
0.730753
0.69355
0.662468
0.63633
0.614187
0.595353
0.579297
0.565593
0.553906
0.543966
0.535555
0.528484
0.522577
0.517652
0.513534
0.510078
0.50717
0.50455
0.501593
0.498587
0.501036
0.517182
0.514475
0.762902
0.713755
0.674171
0.641739
0.614866
0.592375
0.57344
0.557435
0.543872
0.532365
0.522613
0.514375
0.50745
0.501659
0.496829
0.492792
0.489408
0.486567
0.483996
0.481021
0.477908
0.48059
0.498226
0.49546
0.747283
0.693924
0.651907
0.618253
0.590848
0.568225
0.549388
0.533614
0.52035
0.509167
0.499731
0.49178
0.485103
0.479518
0.474857
0.470961
0.4677
0.464969
0.462492
0.459556
0.456395
0.459285
0.478249
0.475639
0.728759
0.67055
0.626059
0.591397
0.563765
0.541324
0.522872
0.50758
0.494835
0.484169
0.47522
0.467708
0.461412
0.456149
0.451756
0.448084
0.445013
0.442449
0.440119
0.437287
0.434148
0.437212
0.457286
0.455133
0.706467
0.642752
0.595753
0.56043
0.53302
0.511203
0.49353
0.479058
0.467121
0.45722
0.448976
0.442095
0.43635
0.431558
0.427563
0.424224
0.421433
0.419108
0.416991
0.414339
0.411298
0.414484
0.435372
0.434101
0.679287
0.609393
0.559889
0.524462
0.49792
0.477332
0.460961
0.447749
0.436987
0.428164
0.420894
0.414882
0.409899
0.405766
0.402332
0.399469
0.397079
0.395092
0.393271
0.390888
0.388027
0.391244
0.412542
0.412787
0.645665
0.568858
0.517102
0.482453
0.457684
0.439121
0.42473
0.413336
0.404206
0.396842
0.390873
0.386015
0.382048
0.378802
0.376136
0.373932
0.372103
0.370591
0.369184
0.367188
0.364597
0.367682
0.388816
0.391643
0.603366
0.518786
0.465836
0.43326
0.411468
0.395954
0.384384
0.375489
0.368545
0.363094
0.358809
0.355438
0.352787
0.350701
0.349055
0.347742
0.346687
0.345841
0.345026
0.343597
0.341402
0.344049
0.364105
0.371558
0.549313
0.455918
0.404385
0.375698
0.35842
0.347215
0.339478
0.333889
0.329776
0.326762
0.324599
0.323094
0.322097
0.321484
0.321153
0.32102
0.321017
0.321107
0.32116
0.320627
0.319089
0.320697
0.337819
0.354285
0.479475
0.376106
0.330836
0.30863
0.297763
0.292357
0.289614
0.288245
0.28769
0.287699
0.288138
0.28891
0.289931
0.291128
0.29244
0.293812
0.2952
0.296587
0.297941
0.298885
0.298709
0.298904
0.310253
0.343102
0.38772
0.274779
0.243124
0.231176
0.22896
0.231004
0.234507
0.238333
0.242112
0.245769
0.249319
0.252791
0.256196
0.259534
0.2628
0.265988
0.269104
0.272181
0.27525
0.278105
0.28015
0.282768
0.295194
0.320645
0.258349
0.148925
0.139904
0.143083
0.151917
0.16308
0.174058
0.18404
0.192931
0.200866
0.20804
0.214624
0.220749
0.226502
0.231942
0.237113
0.242058
0.246823
0.251381
0.255402
0.258698
0.264758
0.281815
0.282129
0.0574804
0.00361202
0.0232598
0.0453167
0.0674272
0.0890051
0.108448
0.125409
0.140118
0.152931
0.164217
0.174302
0.183439
0.19181
0.199535
0.206692
0.213328
0.219465
0.225002
0.229531
0.233201
0.240774
0.259694
0.247806
-0.474042
-0.460586
-0.463023
-0.478282
-0.50703
-0.567944
-0.476363
-0.464315
-0.470271
-0.489201
-0.518577
-0.581263
-0.481258
-0.469258
-0.479296
-0.498966
-0.524115
-0.559783
-0.482697
-0.472948
-0.485465
-0.505306
-0.526791
-0.548635
-0.478782
-0.475444
-0.489797
-0.509568
-0.529062
-0.545529
-0.478176
-0.477979
-0.493304
-0.51303
-0.531977
-0.54677
-0.479697
-0.480875
-0.496444
-0.516148
-0.53529
-0.550218
-0.481334
-0.483946
-0.499307
-0.518992
-0.538623
-0.554712
-0.482889
-0.487013
-0.50186
-0.521527
-0.541752
-0.559356
-0.484367
-0.489936
-0.504028
-0.523687
-0.544527
-0.563735
-0.485733
-0.492592
-0.505738
-0.525399
-0.546833
-0.56761
-0.486945
-0.494887
-0.506944
-0.526606
-0.548588
-0.5708
-0.487982
-0.496753
-0.50767
-0.527251
-0.549722
-0.573187
-0.488843
-0.498176
-0.507938
-0.527293
-0.550161
-0.574773
-0.489544
-0.499139
-0.507746
-0.52672
-0.549892
-0.575603
-0.490112
-0.499644
-0.507085
-0.52563
-0.548969
-0.575727
-0.490613
-0.499732
-0.506028
-0.524166
-0.547445
-0.575411
-0.491138
-0.499511
-0.50476
-0.522422
-0.545314
-0.574853
-0.491559
-0.499151
-0.503509
-0.520531
-0.542602
-0.574076
-0.490191
-0.498951
-0.502531
-0.518753
-0.539444
-0.573173
-0.487465
-0.499462
-0.502197
-0.517507
-0.536132
-0.571883
-0.488214
-0.501097
-0.503092
-0.517252
-0.532778
-0.56801
-0.49137
-0.503456
-0.505984
-0.517831
-0.527874
-0.552783
-0.49285
-0.504879
-0.50584
-0.514354
-0.518468
-0.523867
-0.273369
-0.157765
-0.0991304
-0.0587705
-0.0224551
0.00991276
0.0382419
0.0626975
0.0837661
0.101972
0.117822
0.131772
0.144195
0.155371
0.165487
0.174654
0.18293
0.190329
0.19675
0.201839
0.206005
0.214377
0.233712
0.217854
-0.396832
-0.29794
-0.21851
-0.161859
-0.114274
-0.072372
-0.0356069
-0.00360924
0.0241015
0.0480798
0.0688848
0.0870482
0.103037
0.117221
0.129866
0.141132
0.151103
0.159815
0.167215
0.173086
0.178013
0.187007
0.206209
0.189932
-0.454946
-0.386476
-0.316539
-0.257873
-0.20459
-0.155868
-0.111961
-0.0729059
-0.0385674
-0.00859383
0.0174869
0.0401976
0.0600485
0.0774833
0.0928432
0.106356
0.118153
0.128315
0.136863
0.143733
0.149613
0.159181
0.178038
0.163326
-0.497149
-0.442673
-0.390898
-0.341601
-0.290135
-0.23854
-0.189525
-0.144421
-0.103814
-0.0678175
-0.036231
-0.0086615
0.0153711
0.0363437
0.0546634
0.070632
0.0844501
0.0962607
0.106167
0.114248
0.121239
0.131382
0.14982
0.137987
-0.52498
-0.484134
-0.448802
-0.411609
-0.367811
-0.318178
-0.266895
-0.217242
-0.171062
-0.129235
-0.0920348
-0.0593407
-0.0307993
-0.00595989
0.0156224
0.034319
0.0504096
0.0641125
0.0756152
0.0851172
0.093366
0.104123
0.122126
0.114032
-0.542202
-0.517706
-0.49505
-0.469924
-0.436152
-0.392623
-0.342437
-0.290274
-0.239571
-0.192338
-0.149561
-0.111552
-0.0781935
-0.0491372
-0.0239456
-0.00219679
0.0164657
0.0323413
0.0457011
0.0568417
0.0664951
0.0779379
0.0955081
0.0916308
-0.553693
-0.544754
-0.532829
-0.518579
-0.495241
-0.459983
-0.414221
-0.362085
-0.308333
-0.256388
-0.208247
-0.164842
-0.126419
-0.0928139
-0.0636545
-0.0385019
-0.0169369
0.00141825
0.0169148
0.0299252
0.0411526
0.0533873
0.0705396
0.071008
-0.564496
-0.566227
-0.564177
-0.558861
-0.545376
-0.519132
-0.480046
-0.430715
-0.375869
-0.320285
-0.267236
-0.218518
-0.174892
-0.136477
-0.103029
-0.0741362
-0.0493383
-0.0281901
-0.0102674
0.00485072
0.0178572
0.0310275
0.04783
0.0525084
-0.57404
-0.583411
-0.58967
-0.591948
-0.586622
-0.569335
-0.537867
-0.493581
-0.439992
-0.382342
-0.325218
-0.271526
-0.222742
-0.179391
-0.141438
-0.108545
-0.0802403
-0.0560222
-0.0354116
-0.0179406
-0.00293502
0.0113794
0.0280296
0.036525
-0.582367
-0.597256
-0.609649
-0.618085
-0.619266
-0.609491
-0.585628
-0.54749
-0.497548
-0.440001
-0.380198
-0.322276
-0.26867
-0.220484
-0.178005
-0.141018
-0.10906
-0.0815874
-0.0580983
-0.038071
-0.0208813
-0.00514703
0.0116329
0.023303
-0.589447
-0.608244
-0.624663
-0.637255
-0.643236
-0.638953
-0.621532
-0.589633
-0.544651
-0.489538
-0.429138
-0.368386
-0.310776
-0.25822
-0.211484
-0.170535
-0.135059
-0.104333
-0.077923
-0.0552517
-0.0357548
-0.0183531
-0.00112443
0.0130192
-0.595233
-0.616634
-0.635318
-0.650052
-0.658664
-0.657852
-0.644773
-0.61811
-0.578019
-0.526733
-0.467923
-0.406421
-0.346357
-0.2903
-0.240326
-0.196316
-0.15695
-0.123266
-0.0943309
-0.0691732
-0.0474206
-0.0282411
-0.0102242
0.00578745
-0.599788
-0.622687
-0.642221
-0.657274
-0.666355
-0.666755
-0.655802
-0.632201
-0.595889
-0.54845
-0.492642
-0.432464
-0.372104
-0.314601
-0.26205
-0.215151
-0.174212
-0.138193
-0.106361
-0.0792352
-0.0556707
-0.034862
-0.0158964
0.0014054
-0.603322
-0.626839
-0.646083
-0.659997
-0.66762
-0.66696
-0.655846
-0.632971
-0.598586
-0.553905
-0.501172
-0.443501
-0.384647
-0.32763
-0.27455
-0.226684
-0.184354
-0.146446
-0.113605
-0.0853474
-0.0604011
-0.0383914
-0.0186763
-0.00062716
-0.606243
-0.62973
-0.647835
-0.659469
-0.664172
-0.660578
-0.647134
-0.622899
-0.588332
-0.544775
-0.494169
-0.439108
-0.382627
-0.327511
-0.275696
-0.228415
-0.186101
-0.148653
-0.11569
-0.0866838
-0.0614422
-0.0390673
-0.0191346
-0.000830039
-0.608942
-0.632286
-0.648651
-0.657261
-0.658012
-0.650093
-0.632743
-0.605319
-0.568795
-0.524663
-0.474877
-0.421732
-0.36763
-0.314947
-0.265425
-0.220115
-0.179438
-0.143346
-0.111476
-0.0834617
-0.058905
-0.0370448
-0.0177023
0.000248012
-0.611946
-0.635324
-0.649957
-0.655152
-0.651349
-0.638312
-0.615596
-0.584029
-0.544275
-0.498233
-0.447976
-0.395696
-0.343438
-0.293089
-0.246107
-0.20335
-0.165122
-0.131325
-0.101629
-0.0756162
-0.0528369
-0.0325889
-0.0148177
0.00191343
-0.616211
-0.639827
-0.653107
-0.654919
-0.646441
-0.62814
-0.599954
-0.563054
-0.519131
-0.470201
-0.418266
-0.365898
-0.31467
-0.266134
-0.221433
-0.181214
-0.14564
-0.114534
-0.0875258
-0.0641585
-0.0439645
-0.0262756
-0.0109431
0.00337507
-0.622688
-0.646997
-0.659781
-0.658065
-0.645437
-0.622152
-0.588487
-0.546129
-0.497328
-0.44466
-0.390396
-0.336831
-0.285679
-0.238222
-0.195274
-0.157226
-0.124081
-0.0955707
-0.0712779
-0.0507147
-0.0333991
-0.0187626
-0.00648476
0.00414705
-0.632255
-0.658069
-0.670917
-0.666319
-0.6504
-0.622569
-0.583748
-0.536042
-0.482218
-0.425267
-0.367913
-0.312336
-0.260285
-0.212935
-0.170911
-0.134389
-0.103202
-0.0769495
-0.0551214
-0.0371833
-0.0226256
-0.0109207
-0.00164936
0.00507884
-0.645747
-0.673962
-0.687384
-0.68124
-0.662569
-0.630878
-0.587306
-0.53433
-0.475281
-0.413673
-0.352563
-0.294299
-0.240611
-0.192585
-0.150681
-0.114922
-0.0850011
-0.0604058
-0.040514
-0.0246773
-0.0122954
-0.00274108
0.00456596
0.00867792
-0.663268
-0.696052
-0.710349
-0.703166
-0.682666
-0.647967
-0.599958
-0.541618
-0.476829
-0.409772
-0.344067
-0.282296
-0.226229
-0.176884
-0.134553
-0.0990708
-0.0699549
-0.046562
-0.0281564
-0.0140091
-0.00342622
0.0044876
0.0112606
0.015027
-0.68769
-0.727094
-0.740384
-0.732347
-0.710869
-0.673918
-0.622339
-0.558639
-0.487347
-0.413676
-0.342082
-0.275602
-0.216135
-0.164637
-0.12121
-0.085525
-0.0568369
-0.0344034
-0.0174184
-0.00514831
0.00319027
0.00921822
0.015817
0.0197464
-0.745077
-0.770857
-0.776471
-0.767793
-0.74689
-0.70961
-0.655268
-0.585969
-0.507202
-0.425556
-0.346597
-0.274057
-0.210024
-0.155387
-0.110061
-0.0734288
-0.0445803
-0.0225428
-0.0063717
0.0048066
0.0118885
0.0162399
0.0194781
0.0175634
-0.86172
-0.881702
-0.904121
-0.935375
-0.981689
-1.05231
-0.856105
-0.879418
-0.900644
-0.930197
-0.956748
-0.973087
-0.844658
-0.87476
-0.8944
-0.921937
-0.940821
-0.940864
-0.837664
-0.870247
-0.888466
-0.913397
-0.928193
-0.925374
-0.841494
-0.867322
-0.884117
-0.906098
-0.91786
-0.916244
-0.851469
-0.865681
-0.881204
-0.900148
-0.910039
-0.911503
-0.857157
-0.864278
-0.878934
-0.895168
-0.904394
-0.908877
-0.857613
-0.862861
-0.876876
-0.890976
-0.900036
-0.906566
-0.857732
-0.861287
-0.874857
-0.887364
-0.896222
-0.903791
-0.858075
-0.859429
-0.872861
-0.883919
-0.892492
-0.900187
-0.858198
-0.857219
-0.87072
-0.880448
-0.888562
-0.89556
-0.857745
-0.854607
-0.868295
-0.876898
-0.884276
-0.889947
-0.856523
-0.851575
-0.865566
-0.873288
-0.879675
-0.883446
-0.854422
-0.848166
-0.862676
-0.869656
-0.874856
-0.876284
-0.85149
-0.844329
-0.859721
-0.866107
-0.869998
-0.868726
-0.847848
-0.840146
-0.856801
-0.862787
-0.865342
-0.861169
-0.843911
-0.835707
-0.854068
-0.85992
-0.861168
-0.854525
-0.839409
-0.831529
-0.85179
-0.857867
-0.857756
-0.84999
-0.839402
-0.828519
-0.850263
-0.857076
-0.85582
-0.848734
-0.845726
-0.827307
-0.849469
-0.857798
-0.856691
-0.854471
-0.847391
-0.826368
-0.848645
-0.859615
-0.861383
-0.877486
-0.839884
-0.824048
-0.847144
-0.861981
-0.8687
-0.918706
-0.829421
-0.820537
-0.8454
-0.863967
-0.876273
-0.960944
-0.824485
-0.818152
-0.84528
-0.866302
-0.883355
-0.988945
-0.864285
-0.820617
-0.815147
-0.80802
-0.790094
-0.754693
-0.698686
-0.623757
-0.536468
-0.445282
-0.357285
-0.277134
-0.207405
-0.148893
-0.101192
-0.0633345
-0.0341291
-0.0123769
0.00300657
0.012941
0.0181805
0.0194938
0.0173816
0.0102304
-0.891779
-0.85971
-0.852817
-0.850572
-0.838782
-0.807827
-0.751963
-0.671709
-0.574587
-0.471689
-0.372501
-0.2832
-0.206821
-0.143966
-0.0938167
-0.0549041
-0.0255937
-0.00434574
0.0101666
0.0190092
0.0229068
0.0224511
0.0176972
0.00897243
-0.896384
-0.885817
-0.887068
-0.893221
-0.89055
-0.866766
-0.813282
-0.728627
-0.620797
-0.504914
-0.393389
-0.294148
-0.210405
-0.14269
-0.0897754
-0.049596
-0.0200198
0.000857345
0.0146187
0.0226395
0.0258127
0.0251021
0.0201491
0.0126535
-0.901678
-0.905219
-0.916942
-0.933582
-0.942021
-0.927528
-0.878953
-0.792078
-0.674374
-0.547265
-0.425496
-0.317818
-0.227903
-0.156003
-0.100355
-0.058402
-0.0276193
-0.00592302
0.00818373
0.016393
0.02002
0.0205075
0.0164851
0.0127564
-0.90787
-0.920863
-0.94204
-0.968759
-0.988227
-0.984328
-0.940257
-0.851834
-0.728153
-0.592533
-0.463673
-0.351177
-0.258663
-0.185537
-0.12908
-0.0860751
-0.0536103
-0.0294216
-0.0117852
0.000379105
0.00772291
0.0114009
0.0117162
0.0123493
-0.912829
-0.932661
-0.96111
-0.995435
-1.02303
-1.02565
-0.98407
-0.893808
-0.765885
-0.625902
-0.494681
-0.381561
-0.290051
-0.218266
-0.162437
-0.119093
-0.0854296
-0.0591848
-0.0386082
-0.0226175
-0.0105789
-0.00172867
0.00442816
0.0109097
-0.91595
-0.940193
-0.972934
-1.01141
-1.04274
-1.04588
-1.00257
-0.908541
-0.778689
-0.639427
-0.510931
-0.400789
-0.312519
-0.242996
-0.187929
-0.144242
-0.109534
-0.0818381
-0.0595151
-0.0412737
-0.0261354
-0.0133139
-0.0024364
0.00865444
-0.917065
-0.943108
-0.97715
-1.01591
-1.0453
-1.04381
-0.994795
-0.896227
-0.766949
-0.632842
-0.510515
-0.407722
-0.325053
-0.258334
-0.204646
-0.161221
-0.125893
-0.0969727
-0.0730808
-0.053066
-0.0359357
-0.0205137
-0.0056366
0.00749507
-0.915811
-0.941336
-0.973881
-1.00931
-1.03149
-1.02155
-0.96349
-0.861228
-0.735108
-0.608779
-0.496649
-0.40375
-0.326481
-0.263416
-0.212168
-0.170087
-0.135233
-0.106109
-0.0814644
-0.0602659
-0.0416176
-0.0244568
-0.0071666
0.00783189
-0.912052
-0.935082
-0.963911
-0.992228
-1.00361
-0.981752
-0.913899
-0.809684
-0.689312
-0.573381
-0.472914
-0.388253
-0.317416
-0.25871
-0.210192
-0.169824
-0.135962
-0.107298
-0.0827075
-0.0612508
-0.0421134
-0.0240985
-0.00516451
0.0106567
-0.905858
-0.924882
-0.948229
-0.965252
-0.964379
-0.92799
-0.851795
-0.747562
-0.635378
-0.530842
-0.440692
-0.364167
-0.299717
-0.2456
-0.200154
-0.161789
-0.129156
-0.101144
-0.0768246
-0.0554597
-0.0363954
-0.0181986
0.0015658
0.0163535
-0.897447
-0.911525
-0.927191
-0.930528
-0.915462
-0.865
-0.781787
-0.679786
-0.576856
-0.483325
-0.402377
-0.333462
-0.274916
-0.225213
-0.182979
-0.146927
-0.115922
-0.0890029
-0.06539
-0.0445142
-0.0258188
-0.0076818
0.0125609
0.0249836
-0.887229
-0.89611
-0.900332
-0.890475
-0.85916
-0.796031
-0.707515
-0.609802
-0.516085
-0.432315
-0.35979
-0.297605
-0.244355
-0.198725
-0.159564
-0.12584
-0.0966381
-0.071166
-0.0487734
-0.0289866
-0.0112454
0.00647035
0.0270116
0.0362007
-0.875954
-0.879523
-0.86778
-0.845597
-0.797785
-0.7226
-0.631581
-0.539395
-0.454239
-0.379057
-0.313864
-0.257645
-0.209174
-0.167325
-0.131125
-0.0997298
-0.0724095
-0.048534
-0.0275887
-0.00918781
0.00726454
0.0242451
0.0448164
0.0499972
-0.864433
-0.861385
-0.832095
-0.795167
-0.730986
-0.646127
-0.555411
-0.469207
-0.391842
-0.32409
-0.265296
-0.214383
-0.170257
-0.131944
-0.0986166
-0.069577
-0.0442344
-0.0220791
-0.00269652
0.0142216
0.0293285
0.0455088
0.0659087
0.0663982
-0.853007
-0.836781
-0.795847
-0.738558
-0.658269
-0.56756
-0.479324
-0.399292
-0.328926
-0.267735
-0.214664
-0.168591
-0.128501
-0.0935336
-0.0629853
-0.0362859
-0.0129605
0.00740787
0.0251582
0.0405247
0.054212
0.0695604
0.0898011
0.0853635
-0.843132
-0.800726
-0.754247
-0.67477
-0.580495
-0.487479
-0.403226
-0.329402
-0.265506
-0.210309
-0.162507
-0.120951
-0.084685
-0.0529398
-0.0251122
-0.000732467
0.0205824
0.0391741
0.0553121
0.0691442
0.0813956
0.0958863
0.116038
0.106817
-0.834599
-0.757673
-0.69889
-0.60145
-0.498176
-0.405918
-0.326773
-0.259235
-0.201554
-0.152043
-0.109255
-0.0720364
-0.0394824
-0.0108988
0.0142389
0.0363223
0.0556642
0.0725429
0.0871549
0.0995431
0.11043
0.124079
0.144203
0.13066
-0.819221
-0.71939
-0.629621
-0.517465
-0.411383
-0.322767
-0.249615
-0.188581
-0.137099
-0.0931863
-0.0553269
-0.0223858
0.00648425
0.0319128
0.0543606
0.0741625
0.091579
0.106835
0.120049
0.131139
0.14079
0.153658
0.17384
0.156831
-0.782568
-0.685455
-0.550611
-0.423907
-0.319921
-0.23755
-0.171364
-0.117267
-0.0721936
-0.0339787
-0.0011011
0.0275209
0.0526644
0.0748936
0.0946148
0.112122
0.127638
0.141347
0.153299
0.163284
0.171891
0.18406
0.204378
0.185357
-0.718365
-0.629771
-0.457474
-0.321068
-0.22328
-0.149592
-0.0917982
-0.0453673
-0.00708042
0.0252312
0.0530067
0.0772227
0.098562
0.117514
0.134434
0.149583
0.163164
0.175338
0.186116
0.19521
0.203074
0.214651
0.235081
0.216711
-0.645726
-0.517799
-0.338548
-0.207775
-0.121385
-0.0589197
-0.0111266
0.0268002
0.0578843
0.0840735
0.106616
0.126329
0.143773
0.159348
0.173348
0.186
0.197491
0.207981
0.21751
0.225839
0.233229
0.243907
0.263798
0.253733
-0.576913
-0.343932
-0.185688
-0.0829544
-0.0148555
0.033626
0.0699972
0.0986745
0.122203
0.142112
0.159346
0.174509
0.188003
0.200115
0.211057
0.220993
0.230062
0.238404
0.246117
0.253068
0.259024
0.265985
0.281299
0.301891
-0.418457
-0.115112
-0.00739236
0.050775
0.0943278
0.126282
0.150273
0.169339
0.185212
0.198858
0.210844
0.22152
0.231112
0.239776
0.247616
0.254697
0.261063
0.266758
0.271801
0.275871
0.278176
0.280427
0.294388
0.326544
1.44796
1.47577
1.49436
1.50369
1.45294
1.23989
1.44741
1.47156
1.47924
1.47807
1.39183
1.20267
1.44554
1.46555
1.46357
1.45197
1.35962
1.18268
1.4431
1.46026
1.4517
1.4318
1.34064
1.18308
1.44283
1.45656
1.44353
1.41718
1.329
1.18982
1.44468
1.45371
1.43752
1.40619
1.32153
1.19664
1.44516
1.45074
1.43247
1.39758
1.31639
1.20267
1.44389
1.4474
1.42798
1.39056
1.31271
1.20839
1.44234
1.4438
1.42399
1.38482
1.31027
1.21403
1.44066
1.44009
1.42049
1.38037
1.30905
1.21964
1.43885
1.43644
1.41752
1.37722
1.309
1.22479
1.43696
1.43294
1.41514
1.37531
1.3101
1.23001
1.43508
1.42968
1.4134
1.3746
1.31225
1.2353
1.43324
1.42677
1.41231
1.37499
1.31539
1.24069
1.43143
1.42423
1.41185
1.37638
1.31946
1.24621
1.42976
1.42205
1.41194
1.37863
1.32446
1.25194
1.42981
1.42027
1.41246
1.38155
1.3304
1.25801
1.43098
1.41935
1.41322
1.3849
1.33718
1.26457
1.43053
1.41875
1.4138
1.38836
1.3446
1.27171
1.42858
1.41778
1.4138
1.39152
1.35226
1.27918
1.42649
1.41629
1.4129
1.39366
1.35924
1.28625
1.42454
1.41413
1.41089
1.39406
1.36465
1.29314
1.42345
1.41173
1.40801
1.39321
1.36945
1.30449
1.42318
1.40988
1.40683
1.39436
1.37666
1.32382
0.113508
0.127731
0.167605
0.184726
0.202087
0.216581
0.228097
0.237736
0.246197
0.253821
0.260783
0.267182
0.273071
0.278479
0.283411
0.287852
0.291776
0.295175
0.297949
0.299521
0.299283
0.301504
0.319961
0.338103
0.477473
0.337616
0.320229
0.308038
0.302998
0.301678
0.301823
0.302837
0.304472
0.306529
0.308848
0.311306
0.313806
0.316268
0.318615
0.32077
0.322668
0.324276
0.325434
0.325478
0.324167
0.327287
0.348265
0.357153
0.690084
0.513492
0.452743
0.416628
0.394212
0.379977
0.370438
0.363921
0.359505
0.356584
0.354739
0.353672
0.353163
0.353041
0.353161
0.353391
0.35363
0.353813
0.353736
0.35269
0.350647
0.354072
0.375883
0.379744
0.822303
0.646038
0.562352
0.510107
0.475106
0.450851
0.433393
0.420522
0.410904
0.40366
0.398184
0.394047
0.390933
0.388599
0.386839
0.385475
0.38437
0.383429
0.382407
0.380563
0.377984
0.38142
0.403268
0.404152
0.912739
0.746549
0.652311
0.589849
0.545954
0.514159
0.490434
0.47237
0.458414
0.447519
0.438958
0.432212
0.426895
0.422703
0.419383
0.416712
0.414516
0.41267
0.410894
0.408428
0.40543
0.408732
0.430124
0.429122
0.976118
0.822922
0.725357
0.657111
0.607305
0.570047
0.541549
0.519378
0.501907
0.488011
0.476897
0.467989
0.46085
0.455133
0.450539
0.446807
0.443731
0.441158
0.43878
0.435834
0.432537
0.435645
0.45623
0.454035
1.02131
0.881395
0.784407
0.713423
0.659952
0.618929
0.586919
0.561601
0.541364
0.525071
0.511902
0.501249
0.492643
0.485703
0.480093
0.475518
0.471742
0.46859
0.465738
0.462437
0.458956
0.461843
0.481345
0.478442
1.05454
0.926593
0.832103
0.760322
0.704819
0.661336
0.626842
0.599193
0.576851
0.558703
0.54393
0.531912
0.522163
0.514271
0.507872
0.502643
0.498323
0.494721
0.491509
0.487967
0.484404
0.487051
0.505249
0.501999
1.07968
0.961934
0.870648
0.799242
0.742815
0.697841
0.661678
0.632376
0.608494
0.588965
0.572988
0.559945
0.549337
0.540734
0.533748
0.528029
0.5233
0.51936
0.515886
0.512202
0.508647
0.511036
0.527753
0.52442
1.09907
0.989792
0.901817
0.8314
0.774766
0.729002
0.691803
0.6614
0.636454
0.61595
0.599116
0.585343
0.574128
0.565025
0.557624
0.551556
0.546534
0.542353
0.538702
0.534961
0.531484
0.533596
0.548695
0.545471
1.11467
1.01187
0.926953
0.857787
0.801391
0.755337
0.717586
0.686526
0.660908
0.639773
0.62238
0.608132
0.596525
0.587101
0.579432
0.573136
0.567919
0.563578
0.559822
0.556094
0.552748
0.55456
0.567945
0.56496
1.12711
1.02935
0.947061
0.879189
0.823291
0.777297
0.739365
0.708003
0.682037
0.660559
0.642856
0.628349
0.616533
0.60694
0.599128
0.592704
0.587372
0.582939
0.579138
0.575477
0.572298
0.573792
0.585409
0.582742
1.13708
1.04305
0.962881
0.896218
0.840955
0.795269
0.757443
0.726063
0.700016
0.678434
0.660633
0.646048
0.634175
0.624538
0.616684
0.610212
0.604834
0.600363
0.596564
0.593013
0.590023
0.591186
0.601024
0.598713
1.145
1.05356
0.974935
0.909329
0.854765
0.809571
0.772077
0.740916
0.715009
0.693522
0.675798
0.661284
0.64948
0.639902
0.632086
0.625633
0.620261
0.615798
0.612038
0.608626
0.605839
0.606667
0.614758
0.612811
1.15109
1.06119
0.983559
0.91884
0.865008
0.820454
0.783488
0.752744
0.727165
0.705942
0.68844
0.674121
0.662486
0.653047
0.645334
0.638951
0.633628
0.629209
0.625518
0.622264
0.619686
0.620191
0.626612
0.62501
1.15538
1.0661
0.988929
0.924951
0.871885
0.828114
0.791857
0.76171
0.736623
0.715807
0.698648
0.684623
0.673238
0.664001
0.656441
0.650168
0.644928
0.640581
0.63698
0.633897
0.631533
0.631756
0.636638
0.63528
1.15776
1.06824
0.991057
0.927741
0.875519
0.832701
0.797339
0.767961
0.743513
0.723227
0.706512
0.692861
0.681788
0.6728
0.665428
0.659297
0.654166
0.649911
0.646413
0.643503
0.641355
0.641363
0.644835
0.64344
1.15795
1.06738
0.989782
0.92718
0.875975
0.834331
0.800072
0.771635
0.747962
0.728313
0.712125
0.698911
0.688195
0.67949
0.672333
0.666364
0.661358
0.657206
0.653811
0.651053
0.649077
0.648856
0.651064
0.649709
1.15542
1.06303
0.984797
0.923138
0.873278
0.83311
0.800194
0.772872
0.750102
0.731182
0.715587
0.702857
0.69253
0.68413
0.677208
0.671417
0.66655
0.662509
0.659219
0.656597
0.654733
0.654225
0.65541
0.654509
1.14927
1.05445
0.975707
0.915476
0.867478
0.829175
0.797866
0.771828
0.750072
0.731957
0.717004
0.70479
0.694873
0.686794
0.68012
0.674521
0.669807
0.665889
0.662713
0.660222
0.658455
0.657717
0.658139
0.657641
1.13863
1.04089
0.962067
0.904131
0.858711
0.822733
0.793288
0.768683
0.748029
0.730772
0.716493
0.70481
0.695313
0.687561
0.681142
0.675745
0.671192
0.667406
0.664347
0.661977
0.660298
0.659416
0.659329
0.659104
1.1231
1.02119
0.943336
0.889159
0.847257
0.814081
0.786715
0.763645
0.744147
0.727773
0.714179
0.703026
0.693942
0.686514
0.680351
0.675159
0.670773
0.667122
0.664177
0.661911
0.660304
0.659359
0.659016
0.658954
1.09741
0.9917
0.918963
0.870932
0.833614
0.803625
0.778451
0.756949
0.73861
0.723112
0.710185
0.699549
0.690862
0.683744
0.677829
0.672839
0.668618
0.665102
0.662265
0.660083
0.658531
0.657599
0.657249
0.657243
1.02995
0.945875
0.889716
0.85057
0.818572
0.79187
0.768837
0.748842
0.731611
0.716946
0.70465
0.694492
0.686172
0.679343
0.67366
0.668862
0.664801
0.661414
0.658675
0.656554
0.655036
0.654191
0.654086
0.654028
)
;

boundaryField
{
    rotor
    {
        type            zeroGradient;
    }
    freestream
    {
        type            freestreamPressure;
        freestreamValue uniform 0;
        supersonic      false;
        value           nonuniform List<scalar> 
96
(
0.645299
0.635279
0.622664
0.607673
0.590763
0.571617
0.550196
0.52694
0.502094
0.475881
0.448538
0.420322
0.391502
0.362356
0.333167
0.304238
0.27592
0.248665
0.223139
0.200391
0.182124
0.159471
0.131135
0.107196
0.087335
0.070291
0.0556049
0.0430798
0.0325572
0.0238713
0.0168514
0.0113401
0.00717643
0.00416696
0.0021206
0.000859539
0.000190407
-7.74597e-05
-9.31988e-05
2.51676e-05
0.000173626
0.000268515
0.000278082
0.000264954
0.000297705
0.000218622
2.44436e-05
6.74471e-05
0.000181453
0.000272642
0.000501327
0.000612862
0.000742893
0.000839018
0.000829043
0.000863632
0.00104859
0.00162808
0.00281989
0.00482056
0.00776983
0.0118828
0.0174023
0.0245728
0.0336405
0.0448475
0.0584422
0.0746949
0.0940524
0.118081
0.149911
0.172098
0.189666
0.212692
0.239124
0.268014
0.298514
0.330069
0.362179
0.394372
0.426194
0.457211
0.487012
0.515226
0.54152
0.56561
0.587256
0.606237
0.622205
0.635217
0.645565
0.652964
0.657343
0.658717
0.657118
0.652616
)
;
    }
    frontAndBack
    {
        type            empty;
    }
}


// ************************************************************************* //
