/*--------------------------------*- C++ -*----------------------------------*\
  =========                 |
  \\      /  F ield         | OpenFOAM: The Open Source CFD Toolbox
   \\    /   O peration     | Website:  https://openfoam.org
    \\  /    A nd           | Version:  11
     \\/     M anipulation  |
\*---------------------------------------------------------------------------*/
FoamFile
{
    format      ascii;
    class       surfaceScalarField;
    location    "1.02";
    object      phi;
}
// * * * * * * * * * * * * * * * * * * * * * * * * * * * * * * * * * * * * * //

dimensions      [0 3 -1 0 0 0 0];

internalField   nonuniform List<scalar> 
5640
(
-2.7887e-07
2.7887e-07
-1.35219e-06
1.07332e-06
-2.9406e-06
1.58841e-06
-4.80628e-06
1.86569e-06
-6.80298e-06
1.9967e-06
2.85492e-06
-9.6579e-06
-6.36858e-07
9.15729e-07
-1.95193e-06
2.38839e-06
-3.56713e-06
3.20362e-06
-5.36422e-06
3.66277e-06
-7.33032e-06
3.96279e-06
4.72067e-06
-9.19608e-06
-7.66952e-07
1.68268e-06
-2.11467e-06
3.7361e-06
-3.70146e-06
4.79041e-06
-5.39686e-06
5.35817e-06
-7.19406e-06
5.76e-06
6.3196e-06
-8.79299e-06
-8.4243e-07
2.52511e-06
-2.13357e-06
5.02724e-06
-3.63623e-06
6.29308e-06
-5.20694e-06
6.92887e-06
-6.83323e-06
7.3863e-06
7.80252e-06
-8.31615e-06
-8.95593e-07
3.4207e-06
-2.08465e-06
6.2163e-06
-3.45776e-06
7.66618e-06
-4.89576e-06
8.36688e-06
-6.37271e-06
8.86325e-06
9.19592e-06
-7.76611e-06
-8.96858e-07
4.31756e-06
-1.96912e-06
7.28856e-06
-3.19858e-06
8.89565e-06
-4.50223e-06
9.67052e-06
-5.84571e-06
1.02067e-05
1.05062e-05
-7.15595e-06
-8.52087e-07
5.16965e-06
-1.79609e-06
8.23256e-06
-2.87511e-06
9.97467e-06
-4.0418e-06
1.08372e-05
-5.25937e-06
1.14243e-05
1.17313e-05
-6.48454e-06
-7.72447e-07
5.94209e-06
-1.57548e-06
9.03559e-06
-2.49808e-06
1.08973e-05
-3.52304e-06
1.18622e-05
-4.61514e-06
1.25164e-05
1.28655e-05
-5.74931e-06
-6.64908e-07
6.607e-06
-1.31556e-06
9.68625e-06
-2.07529e-06
1.1657e-05
-2.95148e-06
1.27384e-05
-3.91408e-06
1.3479e-05
1.39003e-05
-4.94893e-06
-5.33849e-07
7.14085e-06
-1.02315e-06
1.01755e-05
-1.61305e-06
1.22469e-05
-2.33132e-06
1.34566e-05
-3.15675e-06
1.43045e-05
1.48259e-05
-4.08231e-06
-3.83355e-07
7.52421e-06
-7.04316e-07
1.04965e-05
-1.11697e-06
1.26596e-05
-1.66631e-06
1.4006e-05
-2.34375e-06
1.49819e-05
1.56304e-05
-3.14825e-06
-2.17625e-07
7.74183e-06
-3.64827e-07
1.06437e-05
-5.92369e-07
1.28871e-05
-9.60225e-07
1.43738e-05
-1.47592e-06
1.54976e-05
1.62999e-05
-2.14545e-06
-3.95669e-08
7.7814e-06
-1.24501e-08
1.06166e-05
-4.4798e-08
1.29195e-05
-2.17203e-07
1.45462e-05
-5.54437e-07
1.58348e-05
1.68181e-05
-1.07257e-06
1.41856e-07
7.63954e-06
3.52028e-07
1.04064e-05
5.19766e-07
1.27517e-05
5.58081e-07
1.45079e-05
4.18865e-07
1.5974e-05
1.71659e-05
7.10201e-08
3.25385e-07
7.31416e-06
7.17169e-07
1.00146e-05
1.0941e-06
1.23748e-05
1.35951e-06
1.42425e-05
1.44129e-06
1.58923e-05
1.73192e-05
1.28798e-06
5.05205e-07
6.80895e-06
1.07721e-06
9.44263e-06
1.66941e-06
1.17826e-05
2.17892e-06
1.3733e-05
2.50819e-06
1.5563e-05
1.72501e-05
2.57734e-06
6.74719e-07
6.13423e-06
1.42306e-06
8.69429e-06
2.23443e-06
1.09712e-05
3.00487e-06
1.29625e-05
3.612e-06
1.49559e-05
1.69229e-05
3.93916e-06
8.26047e-07
5.30819e-06
1.74351e-06
7.77682e-06
2.77445e-06
9.94027e-06
3.82111e-06
1.19159e-05
4.74003e-06
1.40369e-05
1.62923e-05
5.37062e-06
9.48538e-07
4.35965e-06
2.02385e-06
6.70151e-06
3.26991e-06
8.69421e-06
4.60469e-06
1.05811e-05
5.87136e-06
1.27703e-05
1.52992e-05
6.86447e-06
1.02716e-06
3.33249e-06
2.2447e-06
5.48398e-06
3.69471e-06
7.2442e-06
5.32338e-06
8.95243e-06
6.975e-06
1.11187e-05
1.3865e-05
8.40915e-06
1.04308e-06
2.28941e-06
2.38126e-06
4.14579e-06
4.01536e-06
5.6101e-06
5.93321e-06
7.03458e-06
8.00782e-06
9.04405e-06
1.18811e-05
9.99172e-06
9.79688e-07
1.30972e-06
2.40401e-06
2.72147e-06
4.19195e-06
3.82215e-06
6.37508e-06
4.85146e-06
8.91817e-06
6.50096e-06
9.18584e-06
1.16135e-05
8.22978e-07
4.86741e-07
2.27104e-06
1.27341e-06
4.17019e-06
1.923e-06
6.55143e-06
2.47022e-06
9.60941e-06
3.44297e-06
5.46945e-06
1.33258e-05
4.86741e-07
1.76015e-06
3.68315e-06
6.15337e-06
9.59634e-06
1.50658e-05
-1.05001e-05
6.00774e-06
-5.16551e-06
-1.26246e-05
4.2098e-06
-2.08528e-06
-1.48977e-05
2.7599e-06
-4.86826e-07
-1.72413e-05
1.62655e-06
7.17032e-07
-1.96378e-05
6.63394e-07
1.73315e-06
-2.20716e-05
-1.98421e-07
2.63215e-06
-2.4529e-05
-1.00457e-06
3.46202e-06
-2.69995e-05
-1.78054e-06
4.25108e-06
-2.9475e-05
-2.54095e-06
5.01636e-06
-3.19488e-05
-3.29463e-06
5.76848e-06
-3.44159e-05
-4.04722e-06
6.51432e-06
-3.68719e-05
-4.80253e-06
7.25853e-06
-3.9313e-05
-5.56309e-06
8.0042e-06
-4.17358e-05
-6.33027e-06
8.7531e-06
-4.41374e-05
-7.10417e-06
9.50577e-06
-4.65155e-05
-7.88372e-06
1.02617e-05
-4.88683e-05
-8.66725e-06
1.102e-05
-5.11949e-05
-9.45327e-06
1.17799e-05
-5.34949e-05
-1.02411e-05
1.25411e-05
-5.57681e-05
-1.10307e-05
1.33039e-05
-5.80142e-05
-1.1823e-05
1.40692e-05
-6.0233e-05
-1.26188e-05
1.48376e-05
-6.24251e-05
-1.3416e-05
1.56081e-05
-1.42096e-05
1.63773e-05
-1.06351e-05
7.44681e-06
-1.25727e-05
6.1473e-06
-1.47381e-05
4.92539e-06
-1.70136e-05
3.90205e-06
-1.93596e-05
3.00936e-06
-2.1751e-05
2.19295e-06
-2.41705e-05
1.41494e-06
-2.66058e-05
6.54752e-07
-2.90478e-05
-9.89581e-08
-3.14896e-05
-8.52799e-07
-3.39259e-05
-1.61095e-06
-3.63521e-05
-2.37626e-06
-3.87646e-05
-3.15066e-06
-4.11597e-05
-3.9351e-06
-4.35346e-05
-4.72932e-06
-4.58865e-05
-5.53176e-06
-4.82136e-05
-6.34015e-06
-5.05146e-05
-7.15231e-06
-5.27888e-05
-7.96691e-06
-5.50357e-05
-8.78373e-06
-5.72553e-05
-9.60352e-06
-5.94471e-05
-1.0427e-05
-6.16119e-05
-1.12512e-05
-1.20686e-05
-1.04053e-05
9.05916e-06
-1.23177e-05
8.05962e-06
-1.44208e-05
7.02847e-06
-1.66407e-05
6.12202e-06
-1.89372e-05
5.30583e-06
-2.12826e-05
4.53835e-06
-2.36585e-05
3.79082e-06
-2.60519e-05
3.04814e-06
-2.84533e-05
2.3025e-06
-3.08558e-05
1.54966e-06
-3.32538e-05
7.87019e-07
-3.56428e-05
1.27624e-08
-3.80191e-05
-7.74393e-07
-4.03792e-05
-1.575e-06
-4.272e-05
-2.38852e-06
-4.50387e-05
-3.21307e-06
-4.73329e-05
-4.04588e-06
-4.96011e-05
-4.88416e-06
-5.1842e-05
-5.72595e-06
-5.40552e-05
-6.57054e-06
-5.62401e-05
-7.41858e-06
-5.83963e-05
-8.27085e-06
-6.05238e-05
-9.12372e-06
-9.96234e-06
-1.00042e-05
1.07472e-05
-1.18992e-05
9.95461e-06
-1.39573e-05
9.08656e-06
-1.61272e-05
8.29193e-06
-1.83728e-05
7.55144e-06
-2.06679e-05
6.83339e-06
-2.29942e-05
6.11722e-06
-2.53391e-05
5.39302e-06
-2.7693e-05
4.65643e-06
-3.00489e-05
3.90555e-06
-3.24013e-05
3.13938e-06
-3.47457e-05
2.35717e-06
-3.70784e-05
1.55831e-06
-3.9396e-05
7.42637e-07
-4.16955e-05
-8.90872e-08
-4.39737e-05
-9.34835e-07
-4.62281e-05
-1.79153e-06
-4.84564e-05
-2.65586e-06
-5.06571e-05
-3.52524e-06
-5.28291e-05
-4.39846e-06
-5.49718e-05
-5.27592e-06
-5.7084e-05
-6.15864e-06
-5.91638e-05
-7.0439e-06
-7.89753e-06
-9.48044e-06
1.24615e-05
-1.13482e-05
1.18224e-05
-1.33614e-05
1.10998e-05
-1.54795e-05
1.04101e-05
-1.76702e-05
9.74212e-06
-1.99094e-05
9.07258e-06
-2.218e-05
8.38786e-06
-2.44697e-05
7.68268e-06
-2.67692e-05
6.95588e-06
-2.90714e-05
6.20777e-06
-3.13709e-05
5.43892e-06
-3.36634e-05
4.64965e-06
-3.59452e-05
3.84006e-06
-3.82129e-05
3.01038e-06
-4.04635e-05
2.1615e-06
-4.26938e-05
1.2955e-06
-4.49009e-05
4.15535e-07
-4.7082e-05
-4.74721e-07
-4.92351e-05
-1.37212e-06
-5.13587e-05
-2.27488e-06
-5.34515e-05
-3.1831e-06
-5.55122e-05
-4.09794e-06
-5.75395e-05
-5.01667e-06
-5.88156e-06
-8.85085e-06
1.41564e-05
-1.06809e-05
1.36524e-05
-1.26432e-05
1.30621e-05
-1.47038e-05
1.24706e-05
-1.68336e-05
1.18719e-05
-1.90106e-05
1.12496e-05
-2.12189e-05
1.05962e-05
-2.34466e-05
9.91038e-06
-2.56847e-05
9.19397e-06
-2.79262e-05
8.44933e-06
-3.01659e-05
7.67855e-06
-3.23992e-05
6.88302e-06
-3.46227e-05
6.06357e-06
-3.68332e-05
5.22081e-06
-3.90274e-05
4.35578e-06
-4.12024e-05
3.47043e-06
-4.33547e-05
2.56788e-06
-4.54814e-05
1.65196e-06
-4.75798e-05
7.26328e-07
-4.96482e-05
-2.06572e-07
-5.16849e-05
-1.14636e-06
-5.3689e-05
-2.09382e-06
-5.56609e-05
-3.04475e-06
-3.92811e-06
-8.12906e-06
1.5801e-05
-9.90752e-06
1.54309e-05
-1.18099e-05
1.49644e-05
-1.38053e-05
1.44661e-05
-1.58671e-05
1.39337e-05
-1.79752e-05
1.33576e-05
-2.01144e-05
1.27354e-05
-2.22733e-05
1.20693e-05
-2.44432e-05
1.13639e-05
-2.66173e-05
1.06234e-05
-2.87901e-05
9.85134e-06
-3.09573e-05
9.05028e-06
-3.31155e-05
8.22174e-06
-3.52615e-05
7.36677e-06
-3.73922e-05
6.4865e-06
-3.95046e-05
5.58279e-06
-4.15952e-05
4.65851e-06
-4.36607e-05
3.71749e-06
-4.56981e-05
2.76372e-06
-4.7705e-05
1.80031e-06
-4.96797e-05
8.28357e-07
-5.16212e-05
-1.52294e-07
-5.35295e-05
-1.13654e-06
-2.04623e-06
-7.32212e-06
1.73738e-05
-9.03421e-06
1.7143e-05
-1.08665e-05
1.67967e-05
-1.27885e-05
1.63881e-05
-1.47751e-05
1.59203e-05
-1.68073e-05
1.53898e-05
-1.88706e-05
1.47987e-05
-2.09541e-05
1.41528e-05
-2.30492e-05
1.34589e-05
-2.5149e-05
1.27232e-05
-2.72483e-05
1.19506e-05
-2.93427e-05
1.11447e-05
-3.14287e-05
1.03078e-05
-3.35033e-05
9.44136e-06
-3.55635e-05
8.54676e-06
-3.76064e-05
7.62568e-06
-3.96286e-05
6.68071e-06
-4.16265e-05
5.71541e-06
-4.35967e-05
4.73387e-06
-4.5536e-05
3.73968e-06
-4.74423e-05
2.73464e-06
-4.93138e-05
1.7192e-06
-5.11494e-05
6.99072e-07
-2.40596e-07
-6.43238e-06
1.88572e-05
-8.06448e-06
1.87751e-05
-9.81662e-06
1.85488e-05
-1.16572e-05
1.82287e-05
-1.35614e-05
1.78246e-05
-1.5511e-05
1.73394e-05
-1.7492e-05
1.67797e-05
-1.94936e-05
1.61544e-05
-2.15073e-05
1.54727e-05
-2.35265e-05
1.47423e-05
-2.55457e-05
1.39698e-05
-2.75608e-05
1.31597e-05
-2.95681e-05
1.23151e-05
-3.15647e-05
1.1438e-05
-3.35478e-05
1.05299e-05
-3.55146e-05
9.59241e-06
-3.74617e-05
8.6278e-06
-3.93854e-05
7.63919e-06
-4.12821e-05
6.63048e-06
-4.31478e-05
5.60545e-06
-4.49796e-05
4.56642e-06
-4.67748e-05
3.51441e-06
-4.85314e-05
2.45567e-06
1.48228e-06
-5.4602e-06
2.02351e-05
-7.00003e-06
2.03149e-05
-8.66296e-06
2.02117e-05
-1.04147e-05
1.99804e-05
-1.22301e-05
1.96399e-05
-1.40908e-05
1.92002e-05
-1.59833e-05
1.86722e-05
-1.78968e-05
1.8068e-05
-1.98231e-05
1.73989e-05
-2.17554e-05
1.66746e-05
-2.36884e-05
1.59028e-05
-2.56178e-05
1.50891e-05
-2.75401e-05
1.42374e-05
-2.94525e-05
1.33503e-05
-3.1352e-05
1.24295e-05
-3.32361e-05
1.14765e-05
-3.51016e-05
1.04933e-05
-3.69448e-05
9.4824e-06
-3.87616e-05
8.44731e-06
-4.05478e-05
7.39165e-06
-4.22994e-05
6.31797e-06
-4.40127e-05
5.22773e-06
-4.56846e-05
4.12757e-06
3.11607e-06
-4.40496e-06
2.14918e-05
-5.84138e-06
2.17513e-05
-7.40719e-06
2.17776e-05
-9.06385e-06
2.16371e-05
-1.07847e-05
2.13608e-05
-1.25511e-05
2.09666e-05
-1.43494e-05
2.04705e-05
-1.61693e-05
1.98878e-05
-1.80023e-05
1.92319e-05
-1.98418e-05
1.85142e-05
-2.16827e-05
1.77437e-05
-2.35205e-05
1.6927e-05
-2.53519e-05
1.60688e-05
-2.71738e-05
1.51722e-05
-2.89837e-05
1.42394e-05
-3.07789e-05
1.32717e-05
-3.25564e-05
1.22708e-05
-3.43127e-05
1.12387e-05
-3.60436e-05
1.01782e-05
-3.77444e-05
9.09241e-06
-3.94103e-05
7.98384e-06
-4.10365e-05
6.85403e-06
-4.26186e-05
5.70966e-06
4.65497e-06
-3.26528e-06
2.26117e-05
-4.58814e-06
2.30742e-05
-6.05028e-06
2.32397e-05
-7.60692e-06
2.31937e-05
-9.22875e-06
2.29826e-05
-1.08963e-05
2.26341e-05
-1.25958e-05
2.217e-05
-1.43168e-05
2.16088e-05
-1.60512e-05
2.09663e-05
-1.77926e-05
2.02556e-05
-1.95357e-05
1.94867e-05
-2.12762e-05
1.86675e-05
-2.30108e-05
1.78034e-05
-2.47366e-05
1.6898e-05
-2.64509e-05
1.59537e-05
-2.81513e-05
1.49721e-05
-2.98349e-05
1.39543e-05
-3.14982e-05
1.2902e-05
-3.31372e-05
1.18171e-05
-3.47468e-05
1.0702e-05
-3.63217e-05
9.55874e-06
-3.78562e-05
8.38849e-06
-3.93439e-05
7.19741e-06
6.09378e-06
-2.03925e-06
2.35783e-05
-3.23915e-06
2.42741e-05
-4.59241e-06
2.4593e-05
-6.04565e-06
2.46469e-05
-7.56547e-06
2.45024e-05
-9.13085e-06
2.41995e-05
-1.07276e-05
2.37668e-05
-1.23456e-05
2.32268e-05
-1.39768e-05
2.25975e-05
-1.5615e-05
2.18938e-05
-1.72551e-05
2.11268e-05
-1.8893e-05
2.03054e-05
-2.05254e-05
1.94358e-05
-2.21494e-05
1.8522e-05
-2.37625e-05
1.75669e-05
-2.53624e-05
1.65719e-05
-2.69462e-05
1.55382e-05
-2.85108e-05
1.44667e-05
-3.00521e-05
1.33584e-05
-3.15651e-05
1.2215e-05
-3.3044e-05
1.10376e-05
-3.44821e-05
9.82658e-06
-3.58714e-05
8.58672e-06
7.42786e-06
-7.24584e-07
2.43739e-05
-1.79257e-06
2.53421e-05
-3.03305e-06
2.58334e-05
-4.38117e-06
2.59951e-05
-5.79767e-06
2.59189e-05
-7.2591e-06
2.56609e-05
-8.75068e-06
2.52584e-05
-1.02623e-05
2.47384e-05
-1.17864e-05
2.41216e-05
-1.3317e-05
2.34244e-05
-1.48494e-05
2.26592e-05
-1.63796e-05
2.18357e-05
-1.79045e-05
2.09607e-05
-1.94215e-05
2.00389e-05
-2.0928e-05
1.90734e-05
-2.24218e-05
1.80658e-05
-2.39005e-05
1.70168e-05
-2.53609e-05
1.59271e-05
-2.67991e-05
1.47967e-05
-2.82103e-05
1.36262e-05
-2.95883e-05
1.24156e-05
-3.09257e-05
1.1164e-05
-3.22128e-05
9.87383e-06
8.65298e-06
6.81026e-07
2.49809e-05
-2.46163e-07
2.62693e-05
-1.37114e-06
2.69584e-05
-2.61409e-06
2.7238e-05
-3.92777e-06
2.72326e-05
-5.28517e-06
2.70183e-05
-6.6705e-06
2.66437e-05
-8.07374e-06
2.61416e-05
-9.48782e-06
2.55357e-05
-1.09073e-05
2.48439e-05
-1.23278e-05
2.40798e-05
-1.37459e-05
2.32537e-05
-1.51585e-05
2.23733e-05
-1.65632e-05
2.14437e-05
-1.79579e-05
2.04681e-05
-1.93404e-05
1.94483e-05
-2.07086e-05
1.8385e-05
-2.20595e-05
1.7278e-05
-2.33895e-05
1.61267e-05
-2.46939e-05
1.49306e-05
-2.59664e-05
1.36881e-05
-2.71992e-05
1.23968e-05
-2.83807e-05
1.10553e-05
9.76516e-06
2.1791e-06
2.53791e-05
1.40183e-06
2.70465e-05
3.94322e-07
2.79659e-05
-7.44813e-07
2.83771e-05
-1.9579e-06
2.84457e-05
-3.21299e-06
2.82734e-05
-4.49272e-06
2.79235e-05
-5.78702e-06
2.74359e-05
-7.08941e-06
2.68381e-05
-8.39517e-06
2.61496e-05
-9.70056e-06
2.53851e-05
-1.10025e-05
2.45557e-05
-1.22984e-05
2.36692e-05
-1.35863e-05
2.27315e-05
-1.48641e-05
2.17459e-05
-1.61302e-05
2.07144e-05
-1.73825e-05
1.96373e-05
-1.86187e-05
1.85142e-05
-1.98355e-05
1.73435e-05
-2.10283e-05
1.61234e-05
-2.21911e-05
1.48509e-05
-2.33156e-05
1.35213e-05
-2.43882e-05
1.21279e-05
1.07603e-05
3.77051e-06
2.55478e-05
3.15149e-06
2.76656e-05
2.26273e-06
2.88547e-05
1.22558e-06
2.94143e-05
1.09888e-07
2.95614e-05
-1.04634e-06
2.94296e-05
-2.22286e-06
2.91e-05
-3.40929e-06
2.86223e-05
-4.5998e-06
2.80286e-05
-5.79054e-06
2.73404e-05
-6.97855e-06
2.65732e-05
-8.16141e-06
2.57385e-05
-9.33709e-06
2.48449e-05
-1.05039e-05
2.38983e-05
-1.16603e-05
2.29023e-05
-1.28049e-05
2.1859e-05
-1.39363e-05
2.07687e-05
-1.50525e-05
1.96303e-05
-1.61507e-05
1.84418e-05
-1.72271e-05
1.71997e-05
-1.82759e-05
1.58997e-05
-1.92887e-05
1.45341e-05
-2.02497e-05
1.30889e-05
1.16338e-05
5.45465e-06
2.54638e-05
4.999e-06
2.81212e-05
4.23031e-06
2.96234e-05
3.29393e-06
3.03507e-05
2.27212e-06
3.05832e-05
1.21077e-06
3.0491e-05
1.33665e-07
3.01771e-05
-9.47701e-07
2.97037e-05
-2.02783e-06
2.91087e-05
-3.1038e-06
2.84163e-05
-4.17364e-06
2.7643e-05
-5.23573e-06
2.68006e-05
-6.28867e-06
2.58979e-05
-7.33125e-06
2.49409e-05
-8.36244e-06
2.39335e-05
-9.38128e-06
2.28778e-05
-1.03868e-05
2.17741e-05
-1.13775e-05
2.06211e-05
-1.23517e-05
1.94159e-05
-1.3306e-05
1.81541e-05
-1.4236e-05
1.68298e-05
-1.51339e-05
1.5432e-05
-1.59812e-05
1.39362e-05
1.23801e-05
7.22719e-06
2.5101e-05
6.93466e-06
2.84137e-05
6.2876e-06
3.02704e-05
5.45309e-06
3.11852e-05
4.52377e-06
3.15125e-05
3.55352e-06
3.14612e-05
2.57124e-06
3.11593e-05
1.59074e-06
3.06842e-05
6.17753e-07
3.00817e-05
-3.45557e-07
2.93796e-05
-1.29823e-06
2.85957e-05
-2.23961e-06
2.7742e-05
-3.16905e-06
2.68273e-05
-4.08592e-06
2.58577e-05
-4.98963e-06
2.48372e-05
-5.87965e-06
2.37679e-05
-6.75535e-06
2.26499e-05
-7.61596e-06
2.14817e-05
-8.46015e-06
2.02601e-05
-9.28587e-06
1.89798e-05
-1.00904e-05
1.76343e-05
-1.08688e-05
1.62104e-05
-1.16018e-05
1.46692e-05
1.29924e-05
9.07431e-06
2.44359e-05
8.93925e-06
2.85488e-05
8.41671e-06
3.0793e-05
7.68898e-06
3.19129e-05
6.85478e-06
3.23467e-05
5.97476e-06
3.23412e-05
5.08369e-06
3.20504e-05
4.19918e-06
3.15687e-05
3.32851e-06
3.09524e-05
2.47379e-06
3.02344e-05
1.63509e-06
2.94344e-05
8.12083e-07
2.8565e-05
4.49233e-09
2.76349e-05
-7.87742e-07
2.665e-05
-1.56454e-06
2.5614e-05
-2.32566e-06
2.4529e-05
-3.07074e-06
2.33949e-05
-3.79912e-06
2.22101e-05
-4.50962e-06
2.09706e-05
-5.20018e-06
1.96704e-05
-5.86838e-06
1.83025e-05
-6.51488e-06
1.68569e-05
-7.13445e-06
1.52887e-05
1.34678e-05
1.09676e-05
2.346e-05
1.09774e-05
2.8539e-05
1.0586e-05
3.11844e-05
9.97633e-06
3.25226e-05
9.24726e-06
3.30758e-05
8.46265e-06
3.31259e-05
7.66269e-06
3.28504e-05
6.87038e-06
3.2361e-05
6.09653e-06
3.17263e-05
5.34455e-06
3.09863e-05
4.61435e-06
3.01646e-05
3.90466e-06
2.92747e-05
3.21419e-06
2.83254e-05
2.54192e-06
2.73222e-05
1.88715e-06
2.62688e-05
1.24959e-06
2.51665e-05
6.29384e-07
2.40151e-05
2.73146e-08
2.28122e-05
-5.55023e-07
2.15529e-05
-1.11424e-06
2.02296e-05
-1.64255e-06
1.88308e-05
-2.12401e-06
1.73384e-05
-2.55763e-06
1.57223e-05
1.38975e-05
1.28575e-05
2.22161e-05
1.2991e-05
2.84054e-05
1.27425e-05
3.14329e-05
1.2274e-05
3.29911e-05
1.16715e-05
3.36783e-05
1.09974e-05
3.37999e-05
1.02957e-05
3.35521e-05
9.59566e-06
3.3061e-05
8.9142e-06
3.24077e-05
8.25832e-06
3.16422e-05
7.62917e-06
3.07937e-05
7.02517e-06
2.98787e-05
6.44393e-06
2.89066e-05
5.88306e-06
2.78831e-05
5.34044e-06
2.68114e-05
4.81432e-06
2.56927e-05
4.30363e-06
2.45258e-05
3.80831e-06
2.33075e-05
3.32988e-06
2.20314e-05
2.87246e-06
2.0687e-05
2.44738e-06
1.92559e-05
2.08096e-06
1.77048e-05
1.79896e-06
1.60043e-05
1.42641e-05
1.46039e-05
2.09379e-05
1.48808e-05
2.81286e-05
1.48025e-05
3.15111e-05
1.45173e-05
3.32764e-05
1.40814e-05
3.41141e-05
1.35478e-05
3.43335e-05
1.29626e-05
3.41373e-05
1.23627e-05
3.3661e-05
1.17732e-05
3.29972e-05
1.1208e-05
3.22075e-05
1.06718e-05
3.13299e-05
1.01644e-05
3.03862e-05
9.68263e-06
2.93883e-05
9.22282e-06
2.83429e-05
8.78093e-06
2.72533e-05
8.35324e-06
2.61204e-05
7.93675e-06
2.49423e-05
7.53008e-06
2.37142e-05
7.13487e-06
2.24266e-05
6.75756e-06
2.10643e-05
6.40973e-06
1.96037e-05
6.10161e-06
1.80129e-05
5.83688e-06
1.62691e-05
1.43755e-05
1.55001e-05
2.05036e-05
1.63028e-05
2.73259e-05
1.66126e-05
3.12014e-05
1.66094e-05
3.32796e-05
1.64108e-05
3.43127e-05
1.60676e-05
3.46767e-05
1.56326e-05
3.45722e-05
1.51522e-05
3.41414e-05
1.46623e-05
3.34871e-05
1.41866e-05
3.26832e-05
1.37372e-05
3.17792e-05
1.33177e-05
3.08057e-05
1.29263e-05
2.97797e-05
1.25589e-05
2.87103e-05
1.22105e-05
2.76016e-05
1.18768e-05
2.64541e-05
1.15544e-05
2.52648e-05
1.12424e-05
2.40261e-05
1.0944e-05
2.2725e-05
1.06663e-05
2.1342e-05
1.04201e-05
1.98499e-05
1.02174e-05
1.82157e-05
1.00775e-05
1.64089e-05
1.44006e-05
1.0361e-07
-1.0361e-07
6.27173e-07
-5.23563e-07
1.4925e-06
-8.65329e-07
2.80948e-06
-1.31698e-06
4.52144e-06
-1.71196e-06
-2.19073e-06
6.71218e-06
2.45848e-07
-3.49457e-07
8.39756e-07
-1.11747e-06
1.74416e-06
-1.76974e-06
2.88313e-06
-2.45595e-06
4.18787e-06
-3.0167e-06
-3.26286e-06
5.26e-06
3.11843e-07
-6.613e-07
9.09805e-07
-1.71543e-06
1.76051e-06
-2.62044e-06
2.72471e-06
-3.42014e-06
3.6328e-06
-3.9248e-06
-3.82849e-06
4.19844e-06
3.51326e-07
-1.01263e-06
9.24957e-07
-2.28907e-06
1.69724e-06
-3.39273e-06
2.51778e-06
-4.24067e-06
3.23927e-06
-4.6463e-06
-4.3139e-06
3.72468e-06
3.71966e-07
-1.38459e-06
9.00238e-07
-2.81734e-06
1.58484e-06
-4.07733e-06
2.29588e-06
-4.95172e-06
2.93487e-06
-5.28529e-06
-4.8485e-06
3.46948e-06
3.54538e-07
-1.73913e-06
8.34619e-07
-3.29742e-06
1.43557e-06
-4.67828e-06
2.05907e-06
-5.57522e-06
2.65061e-06
-5.87684e-06
-5.43242e-06
3.23454e-06
3.14343e-07
-2.05347e-06
7.36618e-07
-3.71969e-06
1.25679e-06
-5.19846e-06
1.80316e-06
-6.12158e-06
2.35306e-06
-6.42674e-06
-6.03554e-06
2.95618e-06
2.5851e-07
-2.31198e-06
6.14974e-07
-4.07616e-06
1.05392e-06
-5.63741e-06
1.52449e-06
-6.59215e-06
2.02478e-06
-6.92702e-06
-6.62616e-06
2.6154e-06
1.92082e-07
-2.50406e-06
4.76385e-07
-4.36046e-06
8.31495e-07
-5.99252e-06
1.22153e-06
-6.98218e-06
1.65643e-06
-7.36192e-06
-7.16836e-06
2.19863e-06
1.19095e-07
-2.62316e-06
3.26414e-07
-4.56778e-06
5.93662e-07
-6.25977e-06
8.9498e-07
-7.2835e-06
1.24546e-06
-7.7124e-06
-7.62673e-06
1.70383e-06
4.30937e-08
-2.66625e-06
1.69766e-07
-4.69445e-06
3.44526e-07
-6.43453e-06
5.47621e-07
-7.48659e-06
7.94628e-07
-7.95941e-06
-7.96889e-06
1.13679e-06
-3.29403e-08
-2.63331e-06
1.08086e-08
-4.7382e-06
8.83045e-08
-6.51202e-06
1.8413e-07
-7.58242e-06
3.10797e-07
-8.08608e-06
-8.16753e-06
5.09437e-07
-1.05814e-07
-2.5275e-06
-1.47156e-07
-4.69686e-06
-1.7034e-07
-6.48884e-06
-1.8901e-07
-7.56375e-06
-1.9584e-07
-8.07925e-06
-8.20171e-06
-1.61661e-07
-1.72923e-07
-2.35458e-06
-2.9958e-07
-4.5702e-06
-4.26511e-07
-6.36191e-06
-5.64036e-07
-7.42622e-06
-7.12426e-07
-7.93086e-06
-8.05811e-06
-8.56032e-07
-2.31414e-07
-2.12316e-06
-4.42372e-07
-4.35924e-06
-6.74439e-07
-6.12984e-06
-9.32591e-07
-7.16807e-06
-1.22525e-06
-7.6382e-06
-7.73167e-06
-1.55169e-06
-2.78466e-07
-1.8447e-06
-5.71132e-07
-4.06658e-06
-9.08384e-07
-5.79259e-06
-1.28605e-06
-6.7904e-06
-1.71925e-06
-7.205e-06
-7.22507e-06
-2.22584e-06
-3.11304e-07
-1.53339e-06
-6.81455e-07
-3.69643e-06
-1.12229e-06
-5.35176e-06
-1.61568e-06
-6.29701e-06
-2.17859e-06
-6.64209e-06
-6.55048e-06
-2.85318e-06
-3.27259e-07
-1.20613e-06
-7.68994e-07
-3.25469e-06
-1.31029e-06
-4.81047e-06
-1.91303e-06
-5.69427e-06
-2.59088e-06
-5.96425e-06
-5.729e-06
-3.41236e-06
-3.23483e-07
-8.8265e-07
-8.28773e-07
-2.7494e-06
-1.46633e-06
-4.17291e-06
-2.17112e-06
-4.98948e-06
-2.94622e-06
-5.18915e-06
-4.78818e-06
-3.88704e-06
-2.96432e-07
-5.86219e-07
-8.55491e-07
-2.19034e-06
-1.58357e-06
-3.44482e-06
-2.38406e-06
-4.18899e-06
-3.23909e-06
-4.33412e-06
-3.75933e-06
-4.26794e-06
-2.528e-07
-3.33419e-07
-8.44277e-07
-1.59886e-06
-1.65347e-06
-2.63563e-06
-2.54674e-06
-3.29572e-06
-3.47053e-06
-3.41033e-06
-2.68184e-06
-4.54802e-06
-1.98713e-07
-1.34706e-07
-7.95019e-07
-1.00256e-06
-1.66332e-06
-1.76733e-06
-2.65357e-06
-2.30546e-06
-3.64645e-06
-2.41745e-06
-1.61177e-06
-4.71652e-06
-1.24702e-07
-1.00043e-08
-6.88211e-07
-4.39049e-07
-1.58721e-06
-8.68332e-07
-2.68529e-06
-1.20739e-06
-3.78704e-06
-1.31569e-06
-6.74801e-07
-4.72401e-06
-1.00043e-08
-4.49053e-07
-1.31739e-06
-2.52477e-06
-3.84046e-06
-4.51527e-06
1.43265e-05
1.28893e-05
1.68238e-05
2.48285e-05
1.79074e-05
3.01178e-05
1.8416e-05
3.2771e-05
1.8574e-05
3.41547e-05
1.84969e-05
3.47539e-05
1.82633e-05
3.48058e-05
1.79359e-05
3.44688e-05
1.75643e-05
3.38587e-05
1.71849e-05
3.30625e-05
1.68209e-05
3.21433e-05
1.64831e-05
3.11434e-05
1.61743e-05
3.00885e-05
1.58921e-05
2.89926e-05
1.56322e-05
2.78615e-05
1.53903e-05
2.66959e-05
1.51641e-05
2.54911e-05
1.49534e-05
2.42368e-05
1.47614e-05
2.29169e-05
1.45944e-05
2.15091e-05
1.44602e-05
1.99841e-05
1.4369e-05
1.83069e-05
1.43376e-05
1.64402e-05
1.43381e-05
1.12722e-05
6.87705e-06
1.60195e-05
2.00813e-05
1.85356e-05
2.76017e-05
1.98223e-05
3.14843e-05
2.04827e-05
3.34943e-05
2.07668e-05
3.44699e-05
2.08016e-05
3.4771e-05
2.06747e-05
3.45957e-05
2.04528e-05
3.40806e-05
2.01875e-05
3.33279e-05
1.99151e-05
3.24156e-05
1.96582e-05
3.14004e-05
1.9427e-05
3.03197e-05
1.92241e-05
2.91955e-05
1.90475e-05
2.80381e-05
1.88946e-05
2.68488e-05
1.87637e-05
2.5622e-05
1.86551e-05
2.43454e-05
1.8571e-05
2.30011e-05
1.85145e-05
2.15655e-05
1.84905e-05
2.00081e-05
1.85058e-05
1.82915e-05
1.85744e-05
1.63716e-05
1.41863e-05
8.67102e-06
2.40447e-06
1.43288e-05
1.44235e-05
1.83279e-05
2.36026e-05
2.0687e-05
2.91252e-05
2.20381e-05
3.21432e-05
2.27985e-05
3.37094e-05
2.31826e-05
3.43869e-05
2.33164e-05
3.44619e-05
2.32888e-05
3.41082e-05
2.31677e-05
3.3449e-05
2.30046e-05
3.25788e-05
2.28354e-05
3.15695e-05
2.2682e-05
3.04731e-05
2.25547e-05
2.93228e-05
2.24568e-05
2.8136e-05
2.23884e-05
2.69173e-05
2.23489e-05
2.56614e-05
2.23388e-05
2.43555e-05
2.23583e-05
2.29815e-05
2.24076e-05
2.15162e-05
2.24877e-05
1.99281e-05
2.26026e-05
1.81766e-05
2.2764e-05
1.62102e-05
1.39499e-05
6.82477e-06
-6.95628e-07
1.22263e-05
9.02199e-06
1.72887e-05
1.85402e-05
2.08676e-05
2.55462e-05
2.31203e-05
2.98905e-05
2.45014e-05
3.23283e-05
2.533e-05
3.35582e-05
2.57954e-05
3.39966e-05
2.60178e-05
3.38858e-05
2.60839e-05
3.33829e-05
2.60603e-05
3.26024e-05
2.59972e-05
3.16326e-05
2.59298e-05
3.05405e-05
2.58795e-05
2.93731e-05
2.58575e-05
2.8158e-05
2.58684e-05
2.69064e-05
2.59142e-05
2.56156e-05
2.59955e-05
2.42743e-05
2.61114e-05
2.28657e-05
2.6259e-05
2.13686e-05
2.64357e-05
1.97514e-05
2.66423e-05
1.797e-05
2.68884e-05
1.59642e-05
1.36368e-05
5.63632e-06
-2.86247e-06
1.01635e-05
4.49483e-06
1.55656e-05
1.31381e-05
2.0237e-05
2.08748e-05
2.35633e-05
2.65643e-05
2.57446e-05
3.01471e-05
2.71453e-05
3.21575e-05
2.80305e-05
3.31114e-05
2.857e-05
3.33463e-05
2.88773e-05
3.30756e-05
2.90359e-05
3.24438e-05
2.91099e-05
3.15585e-05
2.91482e-05
3.05023e-05
2.91846e-05
2.93366e-05
2.92406e-05
2.81021e-05
2.93279e-05
2.6819e-05
2.94525e-05
2.5491e-05
2.96167e-05
2.41102e-05
2.98194e-05
2.26629e-05
3.00561e-05
2.11318e-05
3.03207e-05
1.94868e-05
3.06101e-05
1.76807e-05
3.09314e-05
1.56429e-05
1.3257e-05
4.9082e-06
-4.53614e-06
8.46576e-06
9.3727e-07
1.35019e-05
8.10192e-06
1.87681e-05
1.56085e-05
2.31686e-05
2.21638e-05
2.63371e-05
2.69785e-05
2.84812e-05
3.00134e-05
2.99079e-05
3.16847e-05
3.08508e-05
3.24034e-05
3.14664e-05
3.246e-05
3.18622e-05
3.2048e-05
3.2118e-05
3.13027e-05
3.22952e-05
3.03251e-05
3.24404e-05
2.91915e-05
3.25861e-05
2.79563e-05
3.27531e-05
2.6652e-05
3.29535e-05
2.52906e-05
3.3193e-05
2.38706e-05
3.34728e-05
2.23832e-05
3.37886e-05
2.0816e-05
3.41314e-05
1.9144e-05
3.44939e-05
1.73181e-05
3.48796e-05
1.52572e-05
1.28232e-05
4.39032e-06
-5.97028e-06
7.18035e-06
-1.85276e-06
1.14907e-05
3.79158e-06
1.6701e-05
1.03983e-05
2.18194e-05
1.70454e-05
2.60365e-05
2.27614e-05
2.91163e-05
2.69336e-05
3.12547e-05
2.95463e-05
3.27243e-05
3.09338e-05
3.37379e-05
3.14464e-05
3.44417e-05
3.13442e-05
3.49379e-05
3.08065e-05
3.53024e-05
2.99605e-05
3.55935e-05
2.89004e-05
3.58547e-05
2.76951e-05
3.61165e-05
2.63902e-05
3.63983e-05
2.50089e-05
3.67115e-05
2.35574e-05
3.70614e-05
2.20333e-05
3.74468e-05
2.04305e-05
3.78583e-05
1.87325e-05
3.82845e-05
1.6892e-05
3.87231e-05
1.48186e-05
1.23495e-05
3.89372e-06
-7.2486e-06
6.1672e-06
-4.12624e-06
9.72446e-06
2.34321e-07
1.44274e-05
5.69536e-06
1.9675e-05
1.17978e-05
2.46709e-05
1.77655e-05
2.87699e-05
2.28345e-05
3.18129e-05
2.65033e-05
3.39833e-05
2.87635e-05
3.55253e-05
2.99044e-05
3.66348e-05
3.02347e-05
3.74495e-05
2.99918e-05
3.80668e-05
2.93433e-05
3.85583e-05
2.84089e-05
3.89784e-05
2.72751e-05
3.93666e-05
2.60019e-05
3.97505e-05
2.4625e-05
4.01476e-05
2.31603e-05
4.05689e-05
2.1612e-05
4.10191e-05
1.99804e-05
4.14924e-05
1.82592e-05
4.19741e-05
1.64102e-05
4.24557e-05
1.43371e-05
1.18501e-05
3.33122e-06
-8.3812e-06
5.24168e-06
-6.03669e-06
8.17562e-06
-2.69962e-06
1.22121e-05
1.65891e-06
1.71126e-05
6.89729e-06
2.23389e-05
1.25392e-05
2.72297e-05
1.79437e-05
3.12653e-05
2.24677e-05
3.43298e-05
2.5699e-05
3.65812e-05
2.76529e-05
3.82381e-05
2.85779e-05
3.94811e-05
2.87487e-05
4.04402e-05
2.83842e-05
4.12075e-05
2.76416e-05
4.18502e-05
2.66324e-05
4.24173e-05
2.54348e-05
4.29439e-05
2.40984e-05
4.3454e-05
2.26502e-05
4.39641e-05
2.11019e-05
4.44852e-05
1.94593e-05
4.50195e-05
1.77249e-05
4.55537e-05
1.58761e-05
4.60713e-05
1.38194e-05
1.1337e-05
2.66565e-06
-9.34302e-06
4.27072e-06
-7.64175e-06
6.7065e-06
-5.13541e-06
1.00997e-05
-1.73425e-06
1.44264e-05
2.57053e-06
1.94056e-05
7.55995e-06
2.45837e-05
1.27656e-05
2.94e-05
1.76514e-05
3.34264e-05
2.16726e-05
3.65703e-05
2.45091e-05
3.89611e-05
2.6187e-05
4.07878e-05
2.69221e-05
4.22138e-05
2.69582e-05
4.33609e-05
2.64946e-05
4.43145e-05
2.56787e-05
4.51355e-05
2.46137e-05
4.58692e-05
2.33648e-05
4.65458e-05
2.19736e-05
4.71857e-05
2.0462e-05
4.78049e-05
1.88401e-05
4.84141e-05
1.71157e-05
4.90075e-05
1.52826e-05
4.95632e-05
1.32638e-05
1.08171e-05
1.88913e-06
-1.00954e-05
3.19083e-06
-8.94345e-06
5.19274e-06
-7.13731e-06
8.01274e-06
-4.55426e-06
1.17074e-05
-1.12412e-06
1.61871e-05
3.08025e-06
2.11853e-05
7.76747e-06
2.63124e-05
1.25243e-05
3.10816e-05
1.69034e-05
3.51527e-05
2.0438e-05
3.84412e-05
2.28985e-05
4.10391e-05
2.43242e-05
4.31006e-05
2.48967e-05
4.47705e-05
2.48247e-05
4.61582e-05
2.4291e-05
4.73354e-05
2.34365e-05
4.83642e-05
2.23359e-05
4.92849e-05
2.10529e-05
5.01239e-05
1.9623e-05
5.08986e-05
1.80653e-05
5.16234e-05
1.63909e-05
5.23036e-05
1.46024e-05
5.29172e-05
1.26502e-05
1.02836e-05
1.01237e-06
-1.05983e-05
1.98853e-06
-9.91961e-06
3.57123e-06
-8.72002e-06
5.86473e-06
-6.84776e-06
8.94375e-06
-4.20314e-06
1.28167e-05
-7.92697e-07
1.73603e-05
3.22386e-06
2.23405e-05
7.54405e-06
2.74181e-05
1.18258e-05
3.21856e-05
1.56705e-05
3.63634e-05
1.87208e-05
3.98615e-05
2.08261e-05
4.27317e-05
2.20264e-05
4.50856e-05
2.24708e-05
4.70612e-05
2.23155e-05
4.87675e-05
2.17302e-05
5.02317e-05
2.08717e-05
5.1489e-05
1.97955e-05
5.26169e-05
1.84951e-05
5.36319e-05
1.70504e-05
5.45467e-05
1.54762e-05
5.53718e-05
1.37773e-05
5.60913e-05
1.19306e-05
9.70354e-06
5.84593e-08
-1.08184e-05
6.81921e-07
-1.05431e-05
1.83566e-06
-9.87376e-06
3.61762e-06
-8.62972e-06
6.10275e-06
-6.68827e-06
9.33663e-06
-4.02658e-06
1.32926e-05
-7.32147e-07
1.78434e-05
2.99329e-06
2.27946e-05
6.87458e-06
2.78402e-05
1.06249e-05
3.26495e-05
1.39114e-05
3.69891e-05
1.64866e-05
4.07579e-05
1.82576e-05
4.39673e-05
1.92614e-05
4.66817e-05
1.96011e-05
4.90168e-05
1.93951e-05
5.10695e-05
1.8819e-05
5.28756e-05
1.79895e-05
5.44357e-05
1.6935e-05
5.58017e-05
1.56843e-05
5.7014e-05
1.42638e-05
5.80803e-05
1.2711e-05
5.89906e-05
1.10203e-05
9.00568e-06
-9.42771e-07
-1.07317e-05
-6.92083e-07
-1.07938e-05
1.96768e-08
-1.05855e-05
1.28936e-06
-9.8994e-06
3.1929e-06
-8.59182e-06
5.78718e-06
-6.62085e-06
9.09528e-06
-4.04025e-06
1.30719e-05
-9.8335e-07
1.76048e-05
2.34173e-06
2.25194e-05
5.71031e-06
2.75534e-05
8.87742e-06
3.24415e-05
1.15984e-05
3.69816e-05
1.37175e-05
4.10646e-05
1.51784e-05
4.46647e-05
1.6001e-05
4.7802e-05
1.62578e-05
5.05505e-05
1.60706e-05
5.29973e-05
1.55427e-05
5.51536e-05
1.47787e-05
5.70518e-05
1.37861e-05
5.87183e-05
1.25973e-05
6.01715e-05
1.12579e-05
6.14102e-05
9.78168e-06
8.06232e-06
-1.95639e-06
-1.0327e-05
-2.08647e-06
-1.06637e-05
-1.82071e-06
-1.08513e-05
-1.06076e-06
-1.06594e-05
2.72342e-07
-9.92492e-06
2.24046e-06
-8.58897e-06
4.88906e-06
-6.68884e-06
8.22214e-06
-4.31643e-06
1.21862e-05
-1.62236e-06
1.66852e-05