/*--------------------------------*- C++ -*----------------------------------*\
  =========                 |
  \\      /  F ield         | OpenFOAM: The Open Source CFD Toolbox
   \\    /   O peration     | Website:  https://openfoam.org
    \\  /    A nd           | Version:  11
     \\/     M anipulation  |
\*---------------------------------------------------------------------------*/
FoamFile
{
    format      ascii;
    class       volVectorField;
    location    "1.02";
    object      U;
}
// * * * * * * * * * * * * * * * * * * * * * * * * * * * * * * * * * * * * * //

dimensions      [0 1 -1 0 0 0 0];

internalField   nonuniform List<vector> 
2880
(
(0.0248798 -0.0315056 -4.70582e-19)
(0.118223 -0.0562531 -3.34136e-19)
(0.316391 -0.0600563 3.06836e-20)
(0.440067 -0.0663216 -2.50899e-20)
(0.576785 -0.0720722 3.58721e-20)
(0.741162 -0.123402 -2.94457e-20)
(0.0853937 -0.0505288 0)
(0.227195 -0.0787182 6.56454e-19)
(0.417999 -0.0789586 -4.93766e-19)
(0.524273 -0.0851331 3.81356e-19)
(0.647129 -0.0820073 0)
(0.732034 -0.106618 -2.30579e-19)
(0.117236 -0.0646556 0)
(0.275987 -0.10581 -1.24955e-18)
(0.460168 -0.105551 -4.13828e-21)
(0.559001 -0.113945 4.26712e-21)
(0.66286 -0.113858 2.87073e-19)
(0.730108 -0.134649 2.16052e-19)
(0.144308 -0.0737482 -4.46947e-20)
(0.312551 -0.130877 5.57037e-19)
(0.482553 -0.134102 1.41166e-18)
(0.575915 -0.142198 -3.42521e-19)
(0.664946 -0.144251 -7.44787e-19)
(0.724374 -0.158936 -5.42644e-20)
(0.173527 -0.0887969 0)
(0.34616 -0.152636 -1.1385e-18)
(0.496346 -0.162473 -8.58619e-19)
(0.584544 -0.1696 -5.76114e-19)
(0.662958 -0.172422 4.44629e-19)
(0.716908 -0.181225 -1.03486e-19)
(0.204574 -0.116907 1.73796e-18)
(0.371167 -0.172781 2.17822e-18)
(0.504781 -0.189208 0)
(0.588246 -0.196108 1.3231e-18)
(0.659453 -0.199347 -6.25754e-20)
(0.710145 -0.204149 0)
(0.226543 -0.132434 -1.67296e-18)
(0.388519 -0.191457 -1.07998e-18)
(0.509162 -0.214264 7.90233e-19)
(0.588572 -0.222056 -6.70874e-19)
(0.654923 -0.225819 5.36741e-19)
(0.704019 -0.227899 2.95565e-19)
(0.245375 -0.147493 -1.71942e-18)
(0.39999 -0.208635 0)
(0.510242 -0.237963 -7.59028e-19)
(0.586355 -0.2478 0)
(0.649555 -0.252386 -4.62577e-19)
(0.698209 -0.252848 -3.85894e-19)
(0.261749 -0.162076 1.71267e-18)
(0.406578 -0.224523 0)
(0.508465 -0.260644 0)
(0.582012 -0.273595 0)
(0.643451 -0.279531 -4.54145e-19)
(0.692601 -0.27936 0)
(0.274913 -0.174872 -1.7352e-18)
(0.408818 -0.239302 -9.09491e-19)
(0.504059 -0.282544 -4.53443e-20)
(0.575794 -0.299669 0)
(0.636604 -0.307694 3.38656e-19)
(0.68709 -0.307675 5.6534e-19)
(0.28418 -0.185266 3.41203e-18)
(0.407057 -0.253131 -3.43369e-21)
(0.497152 -0.303875 0)
(0.567785 -0.326222 -1.33977e-19)
(0.628943 -0.337153 -2.2109e-19)
(0.681565 -0.338064 -4.71605e-19)
(0.289159 -0.19322 -1.65171e-18)
(0.401605 -0.266149 9.17071e-19)
(0.487767 -0.32483 0)
(0.557961 -0.353364 -6.62979e-20)
(0.620347 -0.368153 3.90526e-19)
(0.675898 -0.370809 9.54582e-20)
(0.289536 -0.198915 1.71301e-18)
(0.392781 -0.278436 5.85623e-20)
(0.475858 -0.345516 -4.37892e-20)
(0.546221 -0.381165 0)
(0.610631 -0.400892 4.37933e-19)
(0.669928 -0.406203 0)
(0.285066 -0.202668 -1.71314e-18)
(0.380759 -0.290001 0)
(0.46139 -0.365991 -6.07515e-19)
(0.532382 -0.40966 -6.90609e-20)
(0.599542 -0.435517 -4.39358e-19)
(0.663455 -0.444547 8.89369e-20)
(0.275693 -0.204708 1.73011e-18)
(0.365589 -0.30082 9.8043e-19)
(0.444321 -0.386222 1.39389e-18)
(0.516202 -0.438796 0)
(0.58674 -0.472103 4.36944e-19)
(0.656193 -0.486161 0)
(0.261501 -0.2052 -1.7047e-18)
(0.347437 -0.310757 -9.3705e-19)
(0.424571 -0.405989 -7.5131e-19)
(0.497387 -0.468371 6.64309e-20)
(0.571799 -0.510597 -4.98015e-19)
(0.647754 -0.531359 3.58629e-19)
(0.242727 -0.204156 -1.78268e-18)
(0.326494 -0.319431 -1.00557e-18)
(0.402082 -0.424849 0)
(0.475603 -0.497961 0)
(0.554165 -0.550733 0)
(0.637617 -0.580355 -2.7692e-19)
(0.219847 -0.201266 8.74715e-19)
(0.302921 -0.32614 5.30343e-19)
(0.376778 -0.442013 3.73469e-19)
(0.450457 -0.526804 -2.85547e-19)
(0.533127 -0.591893 0)
(0.625023 -0.63313 -8.36102e-20)
(0.193615 -0.195481 1.78048e-18)
(0.276826 -0.329672 1.14859e-18)
(0.34856 -0.456125 -4.09648e-19)
(0.421385 -0.553678 3.28559e-19)
(0.507744 -0.632886 -8.32573e-20)
(0.608809 -0.68929 4.69715e-20)
(0.164958 -0.184544 -1.38962e-18)
(0.248138 -0.328037 -5.61429e-19)
(0.317188 -0.465141 0)
(0.387667 -0.576649 -1.52826e-19)
(0.476542 -0.6717 -1.15542e-19)
(0.587091 -0.748313 4.6731e-20)
(0.134589 -0.165277 2.40413e-19)
(0.216416 -0.31837 -9.44921e-21)
(0.282205 -0.466161 0)
(0.348611 -0.593193 1.60173e-19)
(0.43771 -0.705151 1.20532e-19)
(0.556837 -0.809884 -1.3276e-19)
(0.1046 -0.135978 2.30984e-19)
(0.181803 -0.297209 0)
(0.243646 -0.455252 6.94428e-21)
(0.304181 -0.60054 5.30176e-21)
(0.389995 -0.728607 -8.05363e-21)
(0.513206 -0.874983 4.0048e-20)
(0.0778079 -0.0968259 0)
(0.145455 -0.259325 0)
(0.203408 -0.425172 7.6612e-21)
(0.255634 -0.595284 -1.80796e-20)
(0.335125 -0.732377 1.664e-20)
(0.446428 -0.946989 -7.40637e-22)
(0.0531302 -0.0378878 5.31369e-19)
(0.0979999 -0.173673 -2.27559e-20)
(0.144111 -0.339718 0)
(0.188208 -0.559782 -1.87265e-19)
(0.223282 -0.676435 -2.09158e-20)
(0.345095 -1.03668 -1.00179e-19)
(0.721072 -0.200421 3.92382e-20)
(0.739372 -0.138049 -1.61316e-19)
(0.769183 -0.107597 -2.0358e-19)
(0.799779 -0.0880736 1.74831e-19)
(0.827602 -0.0745944 3.73632e-20)
(0.852712 -0.0649554 -3.35558e-20)
(0.875033 -0.0576997 4.53446e-22)
(0.89473 -0.0519611 5.70791e-20)
(0.912018 -0.0472143 5.27449e-20)
(0.927126 -0.0431232 -4.95736e-20)
(0.940272 -0.0394605 1.64144e-22)
(0.951651 -0.0360644 1.0099e-24)
(0.961442 -0.0328211 9.02119e-22)
(0.969797 -0.0296582 8.08504e-20)
(0.976851 -0.0265447 0)
(0.982729 -0.0234851 -1.47849e-19)
(0.987545 -0.0205015 -7.08355e-20)
(0.991412 -0.0176099 1.3772e-19)
(0.994438 -0.0148074 6.57596e-20)
(0.996728 -0.0120696 -9.52846e-20)
(0.998367 -0.00935742 -3.08096e-20)
(0.999338 -0.00664962 0)
(0.999498 -0.00401469 0)
(0.999119 -0.00155467 0)
(0.748869 -0.180207 0)
(0.758832 -0.149048 -5.90342e-20)
(0.783107 -0.12319 3.02255e-19)
(0.809765 -0.105171 -3.04134e-19)
(0.835606 -0.092099 -1.3424e-21)
(0.8595 -0.082262 -1.38501e-19)
(0.880994 -0.0744454 1.56797e-21)
(0.900072 -0.0679294 -1.72136e-19)
(0.916861 -0.06228 -1.07087e-19)
(0.931541 -0.0572156 0)
(0.944303 -0.0525395 -1.41945e-23)
(0.95533 -0.0481073 8.69876e-20)
(0.964784 -0.0438126 -8.27595e-20)
(0.972812 -0.0395864 1.58822e-19)
(0.979546 -0.035402 7.57694e-20)
(0.985106 -0.0312732 7.37252e-20)
(0.989607 -0.0272359 7.01004e-20)
(0.993157 -0.0233214 2.02997e-19)
(0.995863 -0.0195363 -1.31751e-19)
(0.99784 -0.0158558 1.25852e-19)
(0.999175 -0.0122338 1.21386e-19)
(0.999778 -0.00866684 -1.75693e-19)
(0.999324 -0.00530362 0)
(0.998263 -0.002255 0)
(0.754859 -0.175186 2.73639e-19)
(0.769161 -0.157889 0)
(0.792674 -0.137286 9.65632e-20)
(0.818016 -0.121287 8.60825e-20)
(0.843003 -0.108909 -1.50129e-19)
(0.866255 -0.0990259 1.35476e-19)
(0.887245 -0.090739 -1.22929e-19)
(0.905892 -0.0835086 2.3006e-19)
(0.92229 -0.0770048 0)
(0.936604 -0.0710081 9.6953e-20)
(0.949014 -0.065358 -2.75242e-19)
(0.959692 -0.0599293 -8.60157e-20)
(0.968798 -0.0546243 1.64871e-19)
(0.976473 -0.0493769 -3.12543e-19)
(0.982848 -0.0441621 1.50417e-19)
(0.988043 -0.0389988 -1.44942e-19)
(0.99217 -0.0339337 -1.38954e-19)
(0.995338 -0.0290131 -1.33782e-19)
(0.997653 -0.0242561 1.92536e-19)
(0.999242 -0.0196394 -6.32117e-20)
(1.0002 -0.015113 -4.79452e-19)
(1.00033 -0.010711 2.90005e-19)
(0.999072 -0.00670545 2.24813e-19)
(0.997147 -0.00318578 -2.52477e-19)
(0.754606 -0.181478 -2.65075e-19)
(0.774579 -0.168831 0)
(0.799306 -0.151744 -1.92037e-19)
(0.82493 -0.137386 -2.49193e-19)
(0.849907 -0.12557 7.50946e-20)
(0.873003 -0.115585 -1.36163e-19)
(0.893777 -0.106806 0)
(0.912171 -0.0988584 -2.22938e-19)
(0.92829 -0.0915076 0)
(0.942302 -0.084593 -1.91019e-19)
(0.954391 -0.0779893 -4.00207e-22)
(0.964732 -0.0715905 -8.29824e-20)
(0.973481 -0.0653077 -1.59804e-19)
(0.980781 -0.0590767 3.83388e-19)
(0.986761 -0.0528713 -2.2086e-19)
(0.991543 -0.04671 1.72597e-21)
(0.995242 -0.0406458 2.04189e-19)
(0.997962 -0.0347384 6.62848e-20)
(0.999814 -0.0290204 0)
(1.00094 -0.0234712 0)
(1.00143 -0.0180375 0)
(1.00099 -0.0128024 1.15674e-19)
(0.998746 -0.00819584 -5.51023e-19)
(0.995869 -0.00444191 2.49334e-19)
(0.75242 -0.193983 6.55132e-20)
(0.77737 -0.182469 0)
(0.804267 -0.167392 -3.71948e-19)
(0.831029 -0.154043 3.33442e-19)
(0.856547 -0.142468 0)
(0.879852 -0.132209 0)
(0.900649 -0.122844 0)
(0.918944 -0.114126 2.23834e-19)
(0.93488 -0.105901 0)
(0.94865 -0.0980582 1.91422e-19)
(0.960449 -0.0905029 -3.54478e-19)
(0.970461 -0.083147 3.33648e-19)
(0.978845 -0.0759094 1.59593e-19)
(0.985747 -0.0687269 -1.52187e-19)
(0.991298 -0.0615689 1.45018e-19)
(0.995619 -0.0544485 -1.38603e-19)
(0.998827 -0.0474187 -4.01855e-19)
(1.00103 -0.0405479 1.12473e-21)
(1.00233 -0.033881 2.49015e-19)
(1.0029 -0.0273973 1.18578e-19)
(1.00283 -0.0210311 0)
(1.00175 -0.0149139 1.12983e-19)
(0.998375 -0.00969895 4.29141e-19)
(0.994658 -0.00616135 -1.94306e-19)
(0.74913 -0.209912 0)
(0.778787 -0.198633 3.1984e-19)
(0.808397 -0.184528 4.67325e-19)
(0.836768 -0.171571 -1.61177e-19)
(0.863181 -0.159863 1.48101e-19)
(0.886958 -0.149103 2.6052e-19)
(0.907959 -0.139012 0)
(0.926279 -0.129437 0)
(0.942114 -0.120283 3.44185e-22)
(0.955691 -0.11148 -1.88741e-19)
(0.967226 -0.102959 6.96332e-19)
(0.976913 -0.094646 -3.29979e-19)
(0.984923 -0.0864667 0)
(0.991403 -0.0783574 0)
(0.996486 -0.0702807 1.42611e-19)
(1.0003 -0.06224 -1.3411e-19)
(1.00295 -0.0542818 -2.60577e-19)
(1.00456 -0.0464781 2.52405e-19)
(1.00523 -0.0388844 0)
(1.00515 -0.0314803 -1.18345e-19)
(1.00445 -0.0241885 -2.26186e-19)
(1.00266 -0.0172205 2.19018e-19)
(0.998122 -0.0115704 -5.24542e-19)
(0.993375 -0.00822645 2.86584e-19)
(0.745653 -0.228895 -5.94911e-20)
(0.779758 -0.217201 -3.17725e-19)
(0.812288 -0.203274 -4.54161e-19)
(0.842523 -0.190149 -3.97605e-19)
(0.870059 -0.17793 2.88699e-19)
(0.894492 -0.166419 -3.93781e-19)
(0.915834 -0.155435 2.3278e-19)
(0.934275 -0.144889 -4.25305e-19)
(0.950073 -0.134732 3.99506e-19)
(0.963493 -0.124921 -1.84964e-19)
(0.974778 -0.115405 -3.41831e-19)
(0.984141 -0.106123 1.61184e-19)
(0.991763 -0.0970049 0)
(0.997796 -0.0879854 0)
(1.00238 -0.0790188 4.09979e-19)
(1.00563 -0.0700953 -1.31444e-19)
(1.00768 -0.0612491 0)
(1.00863 -0.0525499 0)
(1.0086 -0.0440602 0)
(1.00779 -0.0357595 2.27843e-19)
(1.00637 -0.0275642 -2.20726e-19)
(1.00378 -0.0198005 0)
(0.997994 -0.0138829 0)
(0.991943 -0.0106689 9.44563e-20)
(0.742485 -0.250602 0)
(0.780834 -0.238075 -4.16295e-19)
(0.816361 -0.223693 9.53713e-20)
(0.848605 -0.209891 8.39648e-20)
(0.87742 -0.196789 4.30382e-21)
(0.902638 -0.184265 1.29782e-19)
(0.924421 -0.172204 -5.36973e-21)
(0.943053 -0.160558 6.31067e-19)
(0.958857 -0.149306 -1.96635e-19)
(0.972143 -0.138424 1.80913e-19)
(0.983184 -0.127873 0)
(0.992215 -0.1176 1.54216e-19)
(0.99943 -0.107537 1.45461e-19)
(1.00499 -0.0976172 2.78818e-19)
(1.00904 -0.0877849 -2.71978e-19)
(1.0117 -0.0780152 -2.55627e-19)
(1.01309 -0.0683258 2.47452e-19)
(1.01332 -0.0587767 1.1728e-19)
(1.01252 -0.0494306 0)
(1.0109 -0.0402619 0)
(1.00866 -0.0311802 0)
(1.00516 -0.0226447 -4.1943e-19)
(0.998001 -0.0165529 7.99228e-19)
(0.99053 -0.0135783 -1.24888e-19)
(0.739783 -0.274859 0)
(0.782342 -0.261218 8.31059e-19)
(0.820928 -0.245847 2.74694e-19)
(0.855289 -0.230891 8.05604e-20)
(0.885492 -0.216534 2.77526e-19)
(0.911589 -0.202722 0)
(0.933881 -0.189382 -2.30219e-19)
(0.952749 -0.17649 -5.43328e-21)
(0.968584 -0.164038 -1.92255e-19)
(0.981743 -0.152011 -1.72688e-19)
(0.992535 -0.140376 0)
(1.00122 -0.129083 -4.55757e-19)
(1.008 -0.118063 -1.42369e-19)
(1.01306 -0.107247 0)
(1.01653 -0.0965688 -5.1717e-19)
(1.01856 -0.0859886 1.26913e-19)
(1.01924 -0.0755046 0)
(1.0187 -0.0651606 -2.29981e-19)
(1.01706 -0.055011 -3.30989e-19)
(1.01455 -0.0450177 1.09466e-19)
(1.01138 -0.0350778 -4.15074e-19)
(1.00686 -0.0257932 -1.0387e-19)
(0.998253 -0.0196083 4.84045e-19)
(0.98925 -0.017005 9.08859e-20)
(0.737614 -0.301694 -6.24597e-20)
(0.7845 -0.286683 -8.23887e-19)
(0.82625 -0.269824 0)
(0.862826 -0.253239 -3.08382e-19)
(0.894503 -0.237243 -2.79846e-19)
(0.921544 -0.221848 1.21922e-19)
(0.944387 -0.207009 1.07096e-19)
(0.963513 -0.192708 -4.09818e-19)
(0.979384 -0.178939 -3.70091e-19)
(0.992408 -0.165684 1.73354e-19)
(1.00293 -0.152909 0)
(1.01124 -0.140559 1.50257e-19)
(1.01756 -0.128567 1.41275e-19)
(1.02208 -0.116853 1.29467e-19)
(1.02495 -0.105346 3.76841e-19)
(1.02629 -0.0939893 -1.18856e-19)
(1.02623 -0.0827599 1.13165e-19)
(1.02486 -0.0716818 3.33998e-19)
(1.02231 -0.060793 -1.05898e-19)
(1.01882 -0.0500335 4.16197e-19)
(1.01462 -0.0392786 -4.99058e-19)
(1.00896 -0.0292734 3.24491e-21)
(0.998848 -0.0230656 -1.90123e-19)
(0.988202 -0.020977 -3.03184e-19)
(0.736019 -0.331244 0)
(0.787492 -0.314609 4.1163e-19)
(0.832573 -0.295757 -1.72299e-19)
(0.871471 -0.277042 1.65075e-19)
(0.904692 -0.258989 0)
(0.932715 -0.241686 1.19422e-19)
(0.956125 -0.225102 -1.09944e-19)
(0.975507 -0.209213 1.94841e-19)
(0.991398 -0.193996 4.66944e-21)
(1.00426 -0.179421 3.32733e-19)
(1.01448 -0.165442 -3.06578e-19)
(1.02238 -0.151998 1.40973e-19)
(1.0282 -0.139013 -1.32264e-19)
(1.03213 -0.126401 -2.54239e-19)
(1.03435 -0.114079 3.59328e-19)
(1.03497 -0.101977 -3.48447e-19)
(1.03411 -0.0900506 1.09508e-19)
(1.03187 -0.0783026 -1.0805e-19)
(1.02835 -0.0667483 1.05338e-19)
(1.02379 -0.0552971 4.97648e-19)
(1.01845 -0.0437912 -6.7266e-19)
(1.01155 -0.0331084 3.77882e-19)
(0.999892 -0.0269358 9.35996e-20)
(0.987497 -0.0255084 2.03317e-19)
(0.73503 -0.363733 -5.89219e-19)
(0.79151 -0.34521 1.03995e-19)
(0.840156 -0.323825 8.4719e-20)
(0.881497 -0.302428 2.28877e-19)
(0.916314 -0.281849 1.30779e-19)
(0.945331 -0.262268 -4.58206e-21)
(0.969295 -0.243662 5.34062e-19)
(0.988905 -0.225981 -5.81239e-19)
(1.00478 -0.20917 3.94565e-21)
(1.01743 -0.193173 3.21078e-19)
(1.02731 -0.177924 3.8717e-21)
(1.03474 -0.163344 -2.75406e-19)
(1.04 -0.149346 2.6335e-19)
(1.0433 -0.135834 1.00322e-21)
(1.04482 -0.122712 4.60537e-19)
(1.04467 -0.109895 -3.35449e-19)
(1.04297 -0.0973209 0)
(1.0398 -0.0849688 -1.04101e-19)
(1.03526 -0.0728291 1.00445e-19)
(1.02957 -0.060775 3.79516e-19)
(1.02298 -0.0486046 -7.38006e-19)
(1.01474 -0.0373077 7.28336e-19)
(1.0015 -0.0312181 -3.50367e-19)
(0.987251 -0.0306004 1.65363e-19)
(0.734687 -0.399462 4.76059e-19)
(0.796775 -0.378767 0)
(0.849301 -0.354251 0)
(0.893215 -0.329548 0)
(0.92966 -0.305902 1.27497e-19)
(0.959647 -0.283618 -3.52317e-19)
(0.984115 -0.262671 -2.0226e-19)
(1.00389 -0.242965 1.74459e-21)
(1.01968 -0.224396 -3.40302e-19)
(1.03206 -0.206866 1.5302e-19)
(1.04151 -0.190274 -1.45297e-19)
(1.04841 -0.174518 1.36536e-19)
(1.05306 -0.159489 -2.48843e-19)
(1.05567 -0.145077 1.51483e-21)
(1.05643 -0.131172 -1.13813e-19)
(1.05546 -0.117673 -1.03765e-19)
(1.05286 -0.104501 0)
(1.04872 -0.0916114 -2.89984e-19)
(1.04311 -0.0789707 3.7614e-19)
(1.03623 -0.0664131 -2.70936e-19)
(1.02832 -0.0536848 -3.52081e-19)
(1.01863 -0.0418601 5.14889e-19)
(1.0038 -0.0358958 0)
(0.987592 -0.0362396 -8.15913e-20)
(0.735051 -0.438782 -6.08825e-20)
(0.803562 -0.415611 9.4371e-20)
(0.860369 -0.387296 -1.66508e-19)
(0.906994 -0.358573 -6.67322e-20)
(0.945062 -0.331237 5.34809e-21)
(0.97595 -0.305752 2.23798e-19)
(1.00083 -0.282093 1.02527e-19)
(1.02067 -0.260096 1.84241e-19)
(1.03627 -0.239584 -1.62121e-19)
(1.04828 -0.220397 1.5175e-19)
(1.05722 -0.202385 0)
(1.06351 -0.185409 2.5294e-19)
(1.06746 -0.169334 -1.20835e-19)
(1.06931 -0.154027 3.39821e-19)
(1.06925 -0.139362 -3.18236e-19)
(1.0674 -0.12522 -9.82669e-20)
(1.06386 -0.111503 9.98158e-20)
(1.0587 -0.0981471 9.50555e-20)
(1.05198 -0.0850935 0)
(1.04386 -0.0721394 4.10866e-21)
(1.03455 -0.0589753 4.16289e-19)
(1.02335 -0.0467306 -7.60133e-20)
(1.00691 -0.0409321 -3.21941e-19)
(0.988647 -0.0423949 0)
(0.736228 -0.482081 0)
(0.812219 -0.456094 9.16405e-20)
(0.873805 -0.423231 -8.32874e-20)
(0.923277 -0.389679 -1.35649e-19)
(0.96292 -0.357934 5.40939e-21)
(0.994575 -0.328676 4.06895e-21)
(1.0197 -0.301875 2.84392e-19)
(1.03945 -0.277281 0)
(1.05472 -0.254616 1.52749e-19)
(1.06623 -0.233634 0)
(1.07455 -0.214118 0)
(1.08012 -0.195879 -1.26005e-19)
(1.08329 -0.178744 0)
(1.0843 -0.162554 -2.14138e-19)
(1.08334 -0.147159 3.08275e-19)
(1.08055 -0.13242 9.38363e-20)
(1.07603 -0.11822 1.83874e-19)
(1.06981 -0.104474 -1.75916e-19)
(1.06193 -0.0911015 1.70218e-19)
(1.05253 -0.0778649 8.39388e-20)
(1.04178 -0.0643994 -8.11118e-20)
(1.029 -0.0518591 7.5662e-20)
(1.01096 -0.0462652 0)
(0.990541 -0.0490141 0)
(0.738361 -0.529795 0)
(0.8232 -0.500518 0)
(0.890159 -0.462288 0)
(0.942604 -0.423005 0)
(0.983702 -0.386052 -3.38277e-19)
(1.01591 -0.352374 3.03261e-19)
(1.04105 -0.321943 -1.88627e-19)
(1.06048 -0.294401 0)
(1.07523 -0.269345 -6.01104e-21)
(1.08607 -0.246413 -1.38434e-19)
(1.09362 -0.225301 0)
(1.09834 -0.205753 1.13262e-19)
(1.10061 -0.187549 0)
(1.10068 -0.170492 2.58459e-21)
(1.09875 -0.154405 -9.68342e-20)
(1.09496 -0.139125 -9.39637e-20)
(1.08939 -0.124513 8.42003e-20)
(1.08207 -0.110465 -2.48408e-19)
(1.07302 -0.0968769 -7.79753e-20)
(1.06232 -0.0834813 0)
(1.0501 -0.0698606 0)
(1.0357 -0.0571613 3.72552e-21)
(1.01607 -0.0518012 -1.4584e-19)
(0.993387 -0.0560176 -1.99898e-19)
(0.741636 -0.582443 -1.09813e-19)
(0.837076 -0.549049 -3.76573e-20)
(0.910095 -0.504557 -6.42179e-20)
(0.965611 -0.458581 -6.11792e-20)
(1.00796 -0.415577 1.75769e-19)
(1.0404 -0.376785 -1.01604e-19)
(1.06522 -0.342189 0)
(1.08403 -0.311312 0)
(1.09798 -0.283597 0)
(1.10793 -0.258542 -1.28347e-19)
(1.11452 -0.235731 1.20246e-19)
(1.11824 -0.214824 -6.07847e-20)
(1.11948 -0.19554 -4.97509e-20)
(1.1185 -0.177636 1.4913e-19)
(1.11552 -0.1609 -9.14361e-20)
(1.11065 -0.145144 -2.13819e-19)
(1.10398 -0.130205 1.64882e-19)
(1.09553 -0.115954 8.10712e-20)
(1.08529 -0.102267 2.28742e-19)
(1.07328 -0.0888514 -2.9143e-19)
(1.05957 -0.0752389 1.41274e-19)
(1.04355 -0.0625262 1.79983e-19)
(1.02235 -0.0573991 3.72367e-21)
(0.997268 -0.0632885 -1.6971e-19)
(0.746298 -0.6406 5.70949e-20)
(0.854552 -0.601638 1.57317e-19)
(0.934394 -0.549838 7.59397e-20)
(0.993008 -0.496213 -5.01598e-20)
(1.03631 -0.446353 0)
(1.06855 -0.401766 -1.7422e-19)
(1.09261 -0.362455 8.19614e-20)
(1.11039 -0.327831 -6.93979e-20)
(1.12321 -0.297167 0)
(1.13198 -0.269798 0)
(1.13738 -0.245173 0)
(1.13991 -0.222849 -5.37696e-20)
(1.13996 -0.202469 5.01197e-20)
(1.13781 -0.183736 4.69755e-20)
(1.13365 -0.166398 8.52988e-20)
(1.12763 -0.150235 -3.93956e-20)
(1.1198 -0.135058 7.70682e-20)
(1.11018 -0.120716 -1.09787e-19)
(1.09873 -0.107063 -3.4362e-20)
(1.08542 -0.0937877 1.36436e-19)
(1.07025 -0.080375 -2.97474e-19)
(1.05265 -0.0678064 2.65607e-19)
(1.02992 -0.0628371 -2.64813e-19)
(1.00223 -0.0706503 1.63488e-19)
(0.752665 -0.704634 0)
(0.876509 -0.657997 -1.9502e-19)
(0.96392 -0.597474 3.27138e-20)
(1.02551 -0.535356 1.29936e-20)
(1.06936 -0.47798 0)
(1.10089 -0.427025 1.63487e-19)
(1.12363 -0.382502 -3.64431e-20)
(1.13989 -0.34373 1.04003e-19)
(1.15114 -0.30982 5.77933e-20)
(1.15838 -0.279933 1.08975e-19)
(1.1623 -0.253365 4.87963e-20)
(1.16341 -0.229554 -4.84097e-20)
(1.16209 -0.208053 0)
(1.15861 -0.188499 -8.44166e-20)
(1.15316 -0.170595 8.00719e-20)
(1.14588 -0.154087 -7.56624e-20)
(1.13683 -0.138757 7.23335e-20)
(1.12599 -0.124434 3.58182e-20)
(1.11331 -0.110954 3.44223e-20)
(1.09872 -0.0980046 0)
(1.08214 -0.0850317 3.20327e-20)
(1.06305 -0.0727909 3.15381e-20)
(1.03894 -0.0677329 0)
(1.00826 -0.0778111 0)
(0.761207 -0.774228 4.7528e-20)
(0.904026 -0.717376 -1.12229e-19)
(0.99948 -0.646146 2.88535e-20)
(1.06372 -0.574951 9.92887e-20)
(1.10765 -0.509692 3.99155e-20)
(1.13788 -0.452037 -4.52739e-20)
(1.1587 -0.401959 -3.32833e-20)
(1.17285 -0.358712 -5.78571e-20)
(1.18202 -0.321284 -3.06822e-20)
(1.1873 -0.288674 -5.3865e-20)
(1.18941 -0.260025 -1.19562e-19)
(1.18882 -0.234641 4.4356e-20)
(1.18591 -0.211973 0)
(1.18092 -0.191586 0)
(1.17406 -0.173126 0)
(1.16541 -0.156302 -7.0377e-20)
(1.15504 -0.140871 -9.01702e-24)
(1.14292 -0.126641 -1.4363e-23)
(1.12898 -0.113446 4.597e-23)
(1.11309 -0.101005 5.99999e-20)
(1.09514 -0.0887768 -5.81401e-20)
(1.07469 -0.0771115 -1.65481e-21)
(1.04944 -0.071332 5.72538e-20)
(1.01527 -0.0841476 1.91839e-20)
(0.772793 -0.848338 0)
(0.938204 -0.778019 7.60994e-20)
(1.0416 -0.693609 7.45163e-21)
(1.10796 -0.613213 0)
(1.15144 -0.540203 -1.50187e-20)
(1.17982 -0.47593 -1.99378e-20)
(1.19814 -0.420249 -1.2826e-20)
(1.20957 -0.372373 5.44958e-20)
(1.21611 -0.331234 -3.56076e-20)
(1.21895 -0.295726 2.27474e-20)
(1.21883 -0.264856 3.2602e-20)
(1.21623 -0.237799 6.20076e-23)
(1.21148 -0.213897 -1.88431e-20)
(1.2048 -0.192627 0)
(1.19635 -0.173575 0)
(1.18623 -0.156404 0)
(1.17444 -0.14084 -3.11391e-20)
(1.16097 -0.126671 2.98128e-20)
(1.1457 -0.113737 0)
(1.12847 -0.101845 0)
(1.10906 -0.0905735 2.71664e-20)
(1.08705 -0.0797186 -2.00772e-20)
(1.06076 -0.0720624 0)
(1.02509 -0.0880153 4.5916e-20)
(0.789916 -0.925486 0)
(0.979867 -0.836684 0)
(1.09008 -0.736325 -1.97226e-20)
(1.15794 -0.647411 0)
(1.2005 -0.56758 1.84511e-20)
(1.22664 -0.497386 -1.76353e-20)
(1.24201 -0.436508 1.87803e-20)
(1.25024 -0.384147 -5.43103e-21)
(1.25361 -0.33927 1.13429e-20)
(1.2535 -0.300764 0)
(1.25073 -0.26756 -9.51047e-21)
(1.24576 -0.238727 -5.1173e-22)
(1.23889 -0.213502 0)
(1.23031 -0.191267 -8.10095e-21)
(1.22014 -0.171532 8.11042e-21)
(1.20843 -0.153901 7.43934e-21)
(1.19519 -0.138054 7.66771e-21)
(1.18034 -0.123747 -2.71232e-20)
(1.16373 -0.110812 1.36834e-20)
(1.14511 -0.0990973 1.30561e-20)
(1.12406 -0.0882626 -1.26408e-20)
(1.09984 -0.078131 -6.77914e-21)
(1.07147 -0.0712571 3.86727e-22)
(1.03861 -0.0861315 0)
(0.815731 -1.00133 -1.44148e-20)
(1.02841 -0.885854 -6.05392e-21)
(1.14351 -0.769193 0)
(1.21225 -0.673556 8.29221e-21)
(1.25371 -0.589168 -2.13837e-21)
(1.2776 -0.514587 6.60432e-22)
(1.28998 -0.449522 7.03417e-21)
(1.29478 -0.393245 1.1544e-20)
(1.29461 -0.344875 -1.55384e-20)
(1.29111 -0.303418 3.9785e-21)
(1.28524 -0.267836 -5.40597e-22)
(1.27752 -0.237154 7.41298e-21)
(1.26823 -0.210523 0)
(1.25754 -0.187238 0)
(1.24552 -0.166725 -4.57834e-22)
(1.23219 -0.14852 6.22253e-21)
(1.21751 -0.132251 1.21508e-20)
(1.20133 -0.117642 -6.61764e-21)
(1.18344 -0.104508 -6.55284e-21)
(1.16342 -0.0926682 1.1559e-20)
(1.14063 -0.0818531 5.52371e-21)
(1.11415 -0.0727291 3.714e-22)
(1.08357 -0.0699108 -3.7903e-22)
(1.05008 -0.0811932 0)
(0.856413 -1.02638 1.45541e-20)
(1.08294 -0.889027 5.99183e-21)
(1.19872 -0.782056 0)
(1.26767 -0.686439 -6.05157e-21)
(1.30865 -0.601584 -2.63559e-21)
(1.33104 -0.525294 0)
(1.34098 -0.457747 -1.445e-20)
(1.34264 -0.398625 -1.60296e-20)
(1.33891 -0.347364 7.2714e-21)
(1.33178 -0.303238 1.29489e-20)
(1.32246 -0.265372 -9.97148e-21)
(1.31162 -0.232842 -1.91211e-20)
(1.2996 -0.204776 2.36921e-20)
(1.28656 -0.18041 5.11043e-22)
(1.27253 -0.159105 1.26034e-20)
(1.2575 -0.140344 -4.22528e-20)
(1.24135 -0.12373 -6.79526e-21)
(1.22388 -0.108989 2.20746e-20)
(1.20473 -0.0959565 0)
(1.18336 -0.0844571 -5.6352e-21)
(1.15897 -0.0743028 -1.52709e-20)
(1.13067 -0.0666467 -2.14583e-20)
(1.09816 -0.0666187 4.16954e-20)
(1.06136 -0.0762582 -3.18438e-21)
(0.0416374 -8.05928e-05 0)
(0.0491922 -0.036393 1.63437e-19)
(0.0725462 -0.140498 0)
(0.0850128 -0.205355 -2.78921e-20)
(0.114142 -0.358579 -2.10423e-21)
(0.0911916 -0.323812 2.14996e-20)
(0.034526 -0.0224488 0)
(0.0377023 -0.0729695 -3.12349e-19)
(0.0560223 -0.171743 2.45943e-19)
(0.0623268 -0.240261 -2.09704e-19)
(0.0813664 -0.340373 0)
(0.0822154 -0.318527 1.74352e-19)
(0.028202 -0.0333345 0)
(0.0249047 -0.0914854 5.81758e-19)
(0.036032 -0.182301 3.65322e-21)
(0.0394525 -0.245799 -3.19988e-21)
(0.0522372 -0.309374 -1.77466e-19)
(0.0600996 -0.292062 -1.68056e-19)
(0.0229309 -0.0420517 2.2228e-20)
(0.0121515 -0.105177 -2.58985e-19)
(0.0160207 -0.187287 -6.89192e-19)
(0.0183072 -0.243604 1.89753e-19)
(0.0317303 -0.286077 4.68778e-19)
(0.0530784 -0.273454 3.84539e-20)
(0.0143957 -0.0507722 0)
(-0.000270791 -0.115436 5.40861e-19)
(-0.00251079 -0.188646 4.25077e-19)
(-0.000901 -0.238208 3.2527e-19)
(0.0141747 -0.26882 -2.92032e-19)
(0.0452595 -0.260635 7.52603e-20)
(0.000439124 -0.0557939 -8.63341e-19)
(-0.013182 -0.120224 -1.05544e-18)
(-0.019967 -0.187049 0)
(-0.0188757 -0.231183 -7.73525e-19)
(-0.0025608 -0.254898 4.0251e-20)
(0.0332597 -0.25016 0)
(-0.0090431 -0.0563862 8.32192e-19)
(-0.0263759 -0.121037 5.32994e-19)
(-0.0368622 -0.183276 -4.11467e-19)
(-0.0364425 -0.223245 4.02806e-19)
(-0.0198169 -0.242865 -3.64559e-19)
(0.0170709 -0.240361 -2.24188e-19)
(-0.0196024 -0.0561158 8.6157e-19)
(-0.0396631 -0.119463 0)
(-0.0534472 -0.17803 4.0429e-19)
(-0.0540866 -0.214717 0)
(-0.0382066 -0.231689 3.19791e-19)
(-0.00257708 -0.230494 2.94313e-19)
(-0.0296109 -0.0548376 -8.5916e-19)
(-0.0527438 -0.11633 0)
(-0.0697445 -0.171806 0)
(-0.0719649 -0.205716 0)
(-0.0578816 -0.220595 3.19376e-19)
(-0.0253932 -0.21985 0)
(-0.0384041 -0.052487 8.76123e-19)
(-0.0652911 -0.112159 4.71049e-19)
(-0.0856525 -0.164901 2.46471e-20)
(-0.0900389 -0.19624 0)
(-0.0787273 -0.209053 -2.35507e-19)
(-0.0508132 -0.207875 -4.40834e-19)
(-0.0457229 -0.0491139 -1.72534e-18)
(-0.0770061 -0.107253 2.50893e-21)
(-0.101007 -0.157452 0)
(-0.10816 -0.186224 8.89788e-20)
(-0.100492 -0.196709 1.58471e-19)
(-0.0782078 -0.194228 3.63582e-19)
(-0.0514283 -0.0447614 8.35994e-19)
(-0.0876305 -0.101744 -4.8238e-19)
(-0.115618 -0.149477 0)
(-0.126123 -0.175568 4.44714e-20)
(-0.12284 -0.18335 -2.72661e-19)
(-0.10692 -0.178731 -7.16109e-20)
(-0.0554329 -0.039458 -8.66849e-19)
(-0.0969195 -0.0956583 -3.1624e-20)
(-0.129306 -0.140934 2.48007e-20)
(-0.143687 -0.164169 0)
(-0.145352 -0.168881 -3.14594e-19)
(-0.136288 -0.161336 0)
(-0.0576772 -0.0332447 8.67417e-19)
(-0.104602 -0.0889461 0)
(-0.141866 -0.131717 3.52573e-19)
(-0.160615 -0.151964 4.28412e-20)
(-0.167562 -0.153282 3.13924e-19)
(-0.165656 -0.142124 -7.43741e-20)
(-0.0581118 -0.0261855 -8.71182e-19)
(-0.110393 -0.0815255 -5.10297e-19)
(-0.153045 -0.121699 -8.16989e-19)
(-0.176615 -0.138917 0)
(-0.189136 -0.1366 -3.1468e-19)
(-0.194325 -0.12124 0)
(-0.0566725 -0.0183877 8.59516e-19)
(-0.113998 -0.0732663 4.85074e-19)
(-0.162575 -0.11074 4.41062e-19)
(-0.19153 -0.12498 -4.53956e-20)
(-0.209622 -0.118947 3.54984e-19)
(-0.221626 -0.0989 -2.90818e-19)
(-0.0533001 -0.010085 8.91765e-19)
(-0.115127 -0.0640017 5.11883e-19)
(-0.170212 -0.0986424 0)
(-0.205116 -0.1101 0)
(-0.228666 -0.100554 0)
(-0.246846 -0.0755086 2.17046e-19)
(-0.0479709 -0.00179331 -4.40304e-19)
(-0.113465 -0.0535149 -2.7106e-19)
(-0.17581 -0.0851762 -2.16814e-19)
(-0.217081 -0.0942235 1.83362e-19)
(-0.245983 -0.0816559 0)
(-0.269606 -0.0512543 7.56156e-20)
(-0.0405831 0.00570115 -8.86442e-19)
(-0.108611 -0.0415299 -5.76328e-19)
(-0.179075 -0.0700421 2.37944e-19)
(-0.227237 -0.0772788 -2.12708e-19)
(-0.261377 -0.0624676 6.21192e-20)
(-0.289694 -0.0265654 -3.60984e-20)
(-0.0300989 0.0173332 6.40406e-19)
(-0.0999131 -0.0277849 2.81456e-19)
(-0.179638 -0.0528956 0)
(-0.235332 -0.0590696 9.71644e-20)
(-0.274728 -0.0431587 8.36636e-20)
(-0.307278 -0.0019224 -3.6195e-20)
(-0.02152 0.0245588 -9.723e-20)
(-0.0870275 -0.0121468 4.69359e-21)
(-0.17696 -0.0333477 0)
(-0.24099 -0.0393025 -1.01487e-19)
(-0.285987 -0.0238434 -8.71672e-20)
(-0.322963 0.022079 1.17247e-19)
(-0.0141925 0.0293451 -9.24345e-20)
(-0.0721121 0.00513685 0)
(-0.169975 -0.0111636 -4.04811e-21)
(-0.243519 -0.0176138 -3.37957e-21)
(-0.295072 -0.00448141 5.65659e-21)
(-0.336575 0.0439022 -3.58894e-20)
(-0.00589539 0.0354433 0)
(-0.0534307 0.0236042 0)
(-0.155372 0.0122326 -4.28758e-21)
(-0.24073 0.00655229 1.04876e-20)
(-0.301429 0.0177965 -1.20744e-20)
(-0.344572 0.0655066 -1.93243e-22)
(0.00666632 0.0427718 2.49597e-19)
(-0.0223772 0.0453855 -5.57206e-21)
(-0.12017 0.0468643 0)
(-0.222368 0.047582 -1.17061e-19)
(-0.29887 0.0515279 0)
(-0.337147 0.0922245 0)
(0.787985 -0.763405 1.02975e-20)
(1.09109 -0.818536 -8.69339e-21)
(1.23855 -0.755998 4.04569e-20)
(1.3166 -0.679884 -2.63457e-20)
(1.36074 -0.601218 -1.11229e-20)
(1.38401 -0.527163 -2.60464e-21)
(1.39311 -0.459509 9.8317e-21)
(1.39264 -0.39907 1.44282e-20)
(1.3859 -0.345888 1.32956e-21)
(1.37527 -0.299655 1.67041e-20)
(1.36235 -0.259794 2.41281e-21)
(1.34812 -0.225547 -4.13999e-21)
(1.33305 -0.196102 7.64456e-21)
(1.31736 -0.17069 0)
(1.30109 -0.148641 0)
(1.28415 -0.129412 -2.8967e-20)
(1.26636 -0.112598 0)
(1.24742 -0.0979423 -3.97196e-20)
(1.22685 -0.0853046 5.54819e-20)
(1.20397 -0.0745259 -1.741e-20)
(1.17791 -0.0654726 9.74386e-21)
(1.14782 -0.0594017 0)
(1.11346 -0.0612971 0)
(1.07375 -0.0710729 0)
(0.564951 -0.465928 0)
(1.02406 -0.676627 2.20387e-20)
(1.23905 -0.694878 -8.04733e-20)
(1.3467 -0.65051 6.04863e-20)
(1.40315 -0.586115 -1.14656e-20)
(1.43217 -0.518418 1.62851e-20)
(1.44346 -0.453353 -3.50862e-21)
(1.44284 -0.393373 -2.26457e-22)
(1.43434 -0.339496 -9.56768e-21)
(1.42089 -0.291977 0)
(1.40462 -0.250628 -5.41543e-21)
(1.38691 -0.21496 4.70848e-21)
(1.36855 -0.18431 -1.51947e-20)
(1.34993 -0.157971 2.69674e-20)
(1.3311 -0.135289 1.36496e-20)
(1.31197 -0.115718 1.82678e-20)
(1.29227 -0.0988619 1.47184e-20)
(1.27161 -0.0844801 4.87196e-20)
(1.24941 -0.0724451 -3.49755e-20)
(1.22494 -0.0626077 3.21818e-20)
(1.19722 -0.0548554 3.2353e-20)
(1.16545 -0.0504125 -4.56171e-20)
(1.12943 -0.0539999 0)
(1.08735 -0.0648746 0)
(0.367973 -0.301538 -1.88843e-19)
(0.867779 -0.513275 0)
(1.17952 -0.598923 -6.38466e-20)
(1.34341 -0.598516 -3.89566e-20)
(1.42755 -0.555552 6.0365e-20)
(1.46999 -0.498146 -4.39163e-20)
(1.48812 -0.438208 1.90492e-20)
(1.49044 -0.380477 -2.5024e-20)
(1.48228 -0.327223 0)
(1.46739 -0.279399 7.21912e-22)
(1.44853 -0.237267 -1.19976e-20)
(1.42763 -0.200657 -1.76544e-20)
(1.40595 -0.169122 1.39623e-20)
(1.38416 -0.142084 -4.26806e-20)
(1.36249 -0.11895 2.28543e-20)
(1.34084 -0.0992078 -2.33167e-20)
(1.31894 -0.08248 -2.60901e-20)
(1.29629 -0.0685407 -2.67788e-20)
(1.27229 -0.0572627 4.03953e-20)
(1.24616 -0.0484998 -1.24289e-20)
(1.21688 -0.0421416 -1.07022e-19)
(1.18359 -0.039359 6.70446e-20)
(1.14612 -0.0445958 5.54971e-20)
(1.10203 -0.0571338 -6.6918e-20)
(0.254029 -0.242313 1.85828e-19)
(0.680502 -0.372342 0)
(1.05388 -0.485039 1.08614e-19)