/*--------------------------------*- C++ -*----------------------------------*\
  =========                 |
  \\      /  F ield         | OpenFOAM: The Open Source CFD Toolbox
   \\    /   O peration     | Website:  https://openfoam.org
    \\  /    A nd           | Version:  11
     \\/     M anipulation  |
\*---------------------------------------------------------------------------*/
FoamFile
{
    format      ascii;
    class       surfaceVectorField;
    location    "1.02";
    object      Uf;
}
// * * * * * * * * * * * * * * * * * * * * * * * * * * * * * * * * * * * * * //

dimensions      [0 1 -1 0 0 0 0];

internalField   nonuniform List<vector> 
5640
(
(0.0645461 -0.0438544 -4.06295e-19)
(0.0550761 -0.040704 -2.35291e-19)
(0.218396 -0.0572264 -1.59489e-19)
(0.17249 -0.0663538 1.61159e-19)
(0.374179 -0.0633962 2.93588e-21)
(0.366479 -0.0658068 -2.31541e-19)
(0.506888 -0.0690558 4.5365e-21)
(0.481236 -0.0709001 1.78133e-19)
(0.618096 -0.103336 -1.87719e-20)
(0.610075 -0.0673101 1.79361e-20)
(0.732642 -0.094561 -1.30012e-19)
(0.771155 -0.149384 -8.10737e-22)
(0.147836 -0.0648047 3.09291e-19)
(0.0999147 -0.0522553 0)
(0.323602 -0.0776803 1.05817e-19)
(0.250938 -0.0897744 -2.91098e-19)
(0.466074 -0.0826854 -7.09871e-20)
(0.43862 -0.090489 -2.52818e-19)
(0.57973 -0.0845813 1.96024e-19)
(0.541429 -0.0987449 1.94551e-19)
(0.678416 -0.0963279 -1.12526e-19)
(0.654912 -0.0976196 1.43537e-19)
(0.732197 -0.124925 2.13165e-21)
(0.751256 -0.13452 -1.34448e-19)
(0.188384 -0.0851316 -5.88731e-19)
(0.130628 -0.0687712 -2.23473e-20)
(0.368258 -0.104466 -6.53343e-19)
(0.293962 -0.117425 -3.48307e-19)
(0.505012 -0.11047 -7.75622e-23)
(0.47119 -0.119314 7.02617e-19)
(0.607712 -0.114427 1.41706e-19)
(0.567345 -0.127734 -1.68374e-19)
(0.692625 -0.124913 2.52414e-19)
(0.663894 -0.129027 -2.28794e-19)
(0.727618 -0.147922 8.08937e-20)
(0.745629 -0.150001 2.4006e-19)
(0.220724 -0.101721 2.40864e-19)
(0.1608 -0.0858842 -2.23473e-20)
(0.396402 -0.131507 9.63503e-19)
(0.329497 -0.142104 -2.90729e-19)
(0.525476 -0.138821 5.642e-19)
(0.489518 -0.148454 2.75756e-19)
(0.618785 -0.143343 -5.38015e-19)
(0.580219 -0.155873 -4.59318e-19)
(0.692593 -0.15192 -4.09473e-19)
(0.663985 -0.158417 -1.49713e-19)
(0.720698 -0.17022 -7.88753e-20)
(0.739603 -0.167362 -1.42153e-19)
(0.253294 -0.119577 -5.36407e-19)
(0.18944 -0.103652 8.68978e-19)
(0.419028 -0.156912 -1.00451e-18)
(0.35883 -0.16305 5.21472e-19)
(0.537431 -0.166597 -7.22139e-19)
(0.500643 -0.176004 -4.2931e-19)
(0.622673 -0.170962 -8.00205e-20)
(0.586418 -0.182901 3.73713e-19)
(0.688601 -0.177024 1.77141e-19)
(0.661273 -0.186023 1.91027e-19)
(0.713595 -0.192828 -5.17432e-20)
(0.733017 -0.185962 -3.59154e-20)
(0.28241 -0.143578 1.94539e-18)
(0.214012 -0.12196 4.57156e-20)
(0.435496 -0.180452 1.13546e-18)
(0.379907 -0.182231 5.48574e-19)
(0.54407 -0.193087 6.39198e-19)
(0.507018 -0.201818 3.95117e-19)
(0.62295 -0.19763 6.49836e-19)
(0.588442 -0.20914 3.25826e-19)
(0.683774 -0.201911 -3.20378e-20)
(0.65724 -0.212674 2.37083e-19)
(0.707122 -0.216094 1.47783e-19)
(0.727083 -0.20619 0)
(0.302433 -0.160505 -1.39391e-18)
(0.235525 -0.139306 -1.69619e-18)
(0.446471 -0.202254 -1.84666e-19)
(0.394283 -0.200089 -5.39991e-19)
(0.546832 -0.218455 8.43605e-20)
(0.509735 -0.226162 1.53552e-20)
(0.620892 -0.223839 -8.41144e-20)
(0.587491 -0.23497 -3.35437e-19)
(0.678595 -0.227011 4.19044e-19)
(0.652269 -0.239148 3.68501e-20)
(0.701137 -0.240409 -4.53433e-20)
(0.72175 -0.228085 1.46651e-19)
(0.317974 -0.176476 -9.09311e-19)
(0.25378 -0.155071 -1.85268e-21)
(0.452855 -0.222615 -3.63365e-19)
(0.403323 -0.216631 0)
(0.546556 -0.24304 -3.92336e-19)
(0.509381 -0.249339 -3.79514e-19)
(0.617094 -0.250011 -2.24804e-19)
(0.584201 -0.260722 0)
(0.673086 -0.252762 -4.25155e-19)
(0.646527 -0.26599 -4.58361e-19)
(0.695422 -0.266126 -1.92947e-19)
(0.716859 -0.251777 -2.25011e-19)
(0.329995 -0.191491 9.0574e-19)
(0.26862 -0.168806 -1.12628e-20)
(0.455325 -0.241838 0)
(0.407739 -0.23196 -4.54746e-19)
(0.54371 -0.267133 0)
(0.506283 -0.271618 -2.26721e-20)
(0.611836 -0.276507 -2.20706e-19)
(0.578921 -0.286652 0)
(0.667275 -0.279579 -2.32516e-19)
(0.640046 -0.293634 -5.76233e-20)
(0.689852 -0.293525 2.8267e-19)
(0.712345 -0.277424 0)
(0.33828 -0.204971 -1.34616e-18)
(0.279743 -0.180267 8.396e-19)
(0.454274 -0.260131 -4.95993e-19)
(0.407971 -0.246251 -4.56258e-19)
(0.53855 -0.29097 -2.34381e-20)
(0.500623 -0.293228 -2.26721e-20)
(0.60526 -0.30365 1.64581e-19)
(0.571806 -0.312962 -6.69885e-20)
(0.661119 -0.307798 4.49667e-19)
(0.632782 -0.322432 5.8783e-20)
(0.684326 -0.322868 4.68755e-20)
(0.708145 -0.30519 3.0358e-19)
(0.342585 -0.216701 1.80282e-18)
(0.286805 -0.189363 8.79393e-19)
(0.449951 -0.277674 -1.7899e-21)
(0.404356 -0.259662 4.56962e-19)
(0.531199 -0.314752 -6.47254e-20)
(0.492475 -0.314366 0)
(0.59738 -0.331668 -1.75815e-19)
(0.562884 -0.339803 -1.00137e-19)
(0.654528 -0.337697 -3.43664e-19)
(0.624647 -0.352654 8.47269e-20)
(0.678724 -0.35443 -1.88074e-19)
(0.704196 -0.335295 -2.74989e-19)
(0.342824 -0.226754 -4.40694e-19)
(0.28946 -0.196155 3.06496e-20)
(0.442528 -0.294633 4.78048e-19)
(0.397187 -0.272288 4.87817e-19)
(0.52167 -0.338625 -3.20291e-20)
(0.481839 -0.335194 -2.18946e-20)
(0.588124 -0.360738 1.56038e-19)
(0.552099 -0.36727 -3.3149e-20)
(0.647382 -0.36954 2.46801e-19)
(0.615487 -0.384521 4.14229e-19)
(0.6729 -0.388496 4.77291e-20)
(0.700428 -0.368006 -1.8999e-19)
(0.338803 -0.235522 9.33509e-19)
(0.287348 -0.200823 -3.04934e-22)
(0.432312 -0.31088 9.15104e-21)
(0.386807 -0.284244 2.92811e-20)
(0.509895 -0.362678 -2.26343e-20)
(0.468619 -0.35575 -3.25652e-19)
(0.57735 -0.39099 2.12827e-19)
(0.539307 -0.395416 -3.45304e-20)
(0.63951 -0.403565 2.24216e-19)
(0.605079 -0.4182 -6.75529e-22)
(0.666667 -0.425359 4.44684e-20)
(0.696756 -0.403628 1.98474e-19)
(0.331036 -0.242411 -9.05987e-19)
(0.280386 -0.203691 8.48337e-21)
(0.418905 -0.3271 -2.90832e-19)
(0.37317 -0.295408 4.90215e-19)
(0.495762 -0.386968 -3.47155e-19)
(0.45286 -0.376109 3.93209e-19)
(0.564834 -0.422523 -2.49018e-19)
(0.524295 -0.42423 -3.45304e-20)
(0.630688 -0.439994 -1.81543e-19)
(0.593131 -0.453804 -1.20732e-21)
(0.6598 -0.465341 4.44684e-20)
(0.693105 -0.44246 2.57193e-20)
(0.319077 -0.248091 1.37689e-18)
(0.268556 -0.204934 1.28947e-20)
(0.40278 -0.342628 1.17836e-18)
(0.356482 -0.305773 2.18363e-20)
(0.479147 -0.411437 7.20493e-19)
(0.434442 -0.396103 3.21315e-19)
(0.550288 -0.455341 2.12346e-19)
(0.506795 -0.453584 3.32155e-20)
(0.620604 -0.479021 2.23709e-19)
(0.579258 -0.491344 -3.048e-20)
(0.651932 -0.508739 1.79314e-19)
(0.689277 -0.484983 0)
(0.303094 -0.252529 -1.34302e-18)
(0.252019 -0.204638 -1.74369e-18)
(0.383834 -0.357497 -8.49413e-19)
(0.336913 -0.315072 -9.71312e-19)
(0.459867 -0.43587 -3.56253e-19)
(0.413305 -0.41541 -3.75655e-19)
(0.533353 -0.489322 -2.08516e-19)
(0.486492 -0.483165 3.32155e-20)
(0.608855 -0.520753 -7.99608e-20)
(0.562971 -0.53066 -2.49007e-19)
(0.642631 -0.555834 4.11059e-20)
(0.685166 -0.531497 2.09113e-19)
(0.283323 -0.255516 -1.41867e-18)
(0.23115 -0.202664 -4.54593e-19)
(0.362146 -0.371293 -5.24182e-19)
(0.314634 -0.32276 -2.37945e-19)
(0.437732 -0.459826 0)
(0.389395 -0.433419 1.86735e-19)
(0.513586 -0.52412 0)
(0.463016 -0.512378 -1.42774e-19)
(0.594904 -0.565152 -1.35141e-19)
(0.543637 -0.57131 0)
(0.631267 -0.606724 -1.80265e-19)
(0.680519 -0.58244 -2.09882e-19)
(0.260085 -0.256552 7.12463e-19)
(0.206584 -0.198333 1.32728e-18)
(0.337767 -0.383266 4.55244e-19)
(0.289802 -0.327886 8.39307e-19)
(0.412516 -0.482513 5.5093e-20)
(0.362654 -0.449065 -1.8056e-20)
(0.490447 -0.559038 -1.46777e-19)
(0.435924 -0.540242 2.15127e-20)
(0.578015 -0.611884 -4.08029e-20)
(0.520432 -0.612389 -4.16286e-20)
(0.616892 -0.661204 -1.83194e-20)
(0.674999 -0.638136 -2.09457e-20)
(0.233822 -0.254511 1.48276e-18)
(0.179242 -0.190003 1.95526e-19)
(0.310708 -0.39213 4.01624e-19)
(0.262509 -0.32886 2.93521e-19)
(0.383894 -0.502619 -5.30143e-20)
(0.332964 -0.460651 -2.04824e-19)
(0.463191 -0.592853 1.27952e-19)
(0.404668 -0.565193 8.78662e-20)
(0.55714 -0.660097 -2.00777e-20)
(0.492271 -0.65232 -9.93995e-20)
(0.597965 -0.718804 4.68513e-20)
(0.668065 -0.698699 2.73886e-20)
(0.204983 -0.247255 -1.00109e-18)
(0.150213 -0.17497 -5.74133e-19)
(0.280822 -0.395851 -2.9266e-19)
(0.232619 -0.32325 -2.85439e-19)
(0.35139 -0.518112 -7.38317e-20)
(0.300027 -0.465696 0)
(0.430731 -0.62359 -1.34707e-19)
(0.368511 -0.584972 4.07027e-21)
(0.530621 -0.708331 -3.63504e-20)
(0.457642 -0.688496 3.04687e-21)
(0.571967 -0.779099 -4.30177e-20)
(0.658829 -0.764117 5.21924e-20)
(0.173734 -0.231705 1.23656e-19)
(0.120504 -0.150692 2.36181e-19)
(0.247659 -0.391552 -4.92565e-21)
(0.199567 -0.307821 -4.7246e-21)
(0.314429 -0.526158 7.73808e-20)
(0.263207 -0.460727 3.47214e-21)
(0.391832 -0.648371 1.40908e-19)
(0.326437 -0.59687 8.27373e-20)
(0.496028 -0.754504 -3.07776e-21)
(0.414265 -0.716908 5.62392e-20)
(0.534893 -0.842424 -4.64239e-20)
(0.645972 -0.834587 -7.74109e-20)
(0.141233 -0.205124 1.22155e-19)
(0.0910504 -0.116401 1.15492e-19)
(0.211302 -0.375661 3.32439e-21)
(0.162382 -0.27826 0)
(0.272975 -0.523215 6.37613e-21)
(0.22127 -0.4402 7.30274e-21)
(0.345873 -0.66308 -1.18871e-21)
(0.277325 -0.597899 -6.21804e-21)
(0.450261 -0.796427 1.54206e-20)
(0.35832 -0.73047 4.0126e-21)
(0.48048 -0.910989 1.96976e-20)
(0.627969 -0.911852 2.33516e-20)
(0.109442 -0.16474 0)
(0.0629162 -0.0675107 2.65685e-19)
(0.1733 -0.342417 3.6676e-21)
(0.119168 -0.216654 -1.1378e-20)
(0.228539 -0.503727 -4.40738e-21)
(0.17094 -0.382615 3.8306e-21)
(0.294202 -0.659605 -1.20653e-21)
(0.220362 -0.577627 -1.02672e-19)
(0.389212 -0.828742 9.36734e-21)
(0.28271 -0.704194 -2.13791e-21)
(0.396989 -0.991763 -5.04596e-20)
(0.601285 -1.00205 -6.44153e-21)
(0.0734224 -0.0927621 2.73372e-19)
(0.12061 -0.258903 -1.18621e-20)
(0.164562 -0.436889 -9.04692e-20)
(0.204699 -0.610527 -1.04409e-19)
(0.279312 -0.815584 -5.95971e-20)
(0.564895 -1.10348 -5.23454e-20)
(0.723708 -0.170988 -6.41595e-20)
(0.733053 -0.180407 1.96191e-20)
(0.670439 -0.208718 6.65917e-20)
(0.752349 -0.1234 -1.82005e-19)
(0.749129 -0.143691 -1.10175e-19)
(0.722903 -0.13006 1.50465e-20)
(0.784146 -0.0980249 -1.78926e-20)
(0.776164 -0.115489 4.96463e-20)
(0.760226 -0.0981205 -8.87149e-20)
(0.813452 -0.0814476 1.07247e-19)
(0.804778 -0.0966542 -6.47546e-20)
(0.794059 -0.078554 6.40434e-20)
(0.839979 -0.0698461 2.42809e-21)
(0.831607 -0.0833653 1.795e-20)
(0.82339 -0.0652331 4.77578e-20)
(0.863714 -0.0613785 -1.67828e-20)
(0.856108 -0.0736234 -8.60286e-20)
(0.849365 -0.0558779 -1.67779e-20)
(0.88475 -0.054868 2.84026e-20)
(0.878016 -0.0660844 1.01071e-21)
(0.872246 -0.0490039 1.59493e-20)
(0.903267 -0.0496166 5.49378e-20)
(0.897403 -0.0599549 -5.75597e-20)
(0.892335 -0.0437164 4.29582e-20)
(0.919486 -0.0451918 2.15492e-21)
(0.914441 -0.0547553 -2.71974e-20)
(0.909922 -0.0394642 6.69393e-20)
(0.933631 -0.0413108 -2.49657e-20)
(0.929335 -0.0501764 -2.47868e-20)
(0.925268 -0.035893 -2.47868e-20)
(0.945911 -0.0377783 8.33776e-23)
(0.942289 -0.0460063 7.49748e-23)
(0.938614 -0.0327644 4.70323e-20)
(0.95651 -0.0344563 4.22219e-22)
(0.953492 -0.0420916 4.34755e-20)
(0.950169 -0.0299111 -1.14942e-20)
(0.965593 -0.0312518 4.04969e-20)
(0.963114 -0.0383223 -4.09287e-20)
(0.960119 -0.0272167 -4.20253e-20)
(0.973303 -0.0281131 4.07624e-20)
(0.971305 -0.0346276 1.19836e-19)
(0.96862 -0.0246077 8.10477e-20)
(0.97977 -0.0250266 -7.33374e-20)
(0.9782 -0.0309786 3.78847e-20)
(0.975813 -0.0220499 1.92647e-20)
(0.985116 -0.0220049 -1.09629e-19)
(0.983918 -0.0273843 -3.70454e-20)
(0.981822 -0.019542 -1.5826e-19)
(0.98946 -0.0190668 3.27034e-20)
(0.988577 -0.0238736 -3.67571e-22)
(0.986765 -0.0170979 -8.31596e-21)
(0.992911 -0.0162189 1.0199e-19)
(0.992285 -0.0204704 1.70358e-19)
(0.990756 -0.0147271 6.88599e-20)
(0.995568 -0.0134487 -1.42254e-20)
(0.995151 -0.0171763 -3.30104e-20)
(0.993904 -0.0124229 3.28798e-20)
(0.997516 -0.0107264 -6.32538e-20)
(0.997285 -0.013967 1.52979e-20)
(0.996313 -0.0101623 -3.97105e-20)
(0.998823 -0.00801612 -1.54999e-20)
(0.998772 -0.0108009 4.52883e-20)
(0.998065 -0.00791119 -7.75895e-21)
(0.999554 -0.00531815 0)
(0.999559 -0.00766608 -8.78463e-20)
(0.999169 -0.00564697 0)
(0.999793 -0.00271462 0)
(0.999412 -0.00466534 0)
(0.999543 -0.0034107 2.88972e-20)
(0.998688 -0.00189057 0)
(0.999402 -0.00127793 2.57832e-20)
(0.751997 -0.165396 -2.88095e-20)
(0.751069 -0.174667 1.36819e-19)
(0.770009 -0.136551 1.18926e-19)
(0.763789 -0.152678 -2.95171e-20)
(0.795992 -0.114393 4.42689e-21)
(0.787859 -0.130119 1.99409e-19)
(0.822426 -0.0987543 -1.55161e-19)
(0.813884 -0.113205 -1.09026e-19)
(0.847361 -0.0872576 -6.89037e-20)
(0.839304 -0.100502 -7.57357e-20)
(0.870086 -0.0784107 -6.94182e-20)
(0.862879 -0.0906486 -1.51272e-21)
(0.890403 -0.0712311 -8.41528e-20)
(0.884121 -0.0825985 -6.06805e-20)
(0.908361 -0.0651396 -1.39999e-19)
(0.902984 -0.0757252 2.89825e-20)
(0.924116 -0.0597767 -5.41394e-20)
(0.919577 -0.0696482 -5.35436e-20)
(0.937856 -0.0549019 -7.02324e-24)
(0.934074 -0.0641172 4.84765e-20)
(0.949766 -0.0503442 4.3048e-20)
(0.94666 -0.0589537 -1.37645e-19)
(0.960021 -0.045978 2.9007e-21)
(0.957512 -0.0540231 4.70108e-22)
(0.968772 -0.0417158 3.69446e-20)
(0.966792 -0.0492232 4.10559e-20)
(0.976159 -0.0375098 1.17642e-19)
(0.974644 -0.0444864 -7.68759e-20)
(0.982307 -0.0333533 7.47554e-20)
(0.981198 -0.0397869 1.13078e-19)
(0.987338 -0.0292703 7.19265e-20)
(0.986576 -0.0351408 -3.56086e-20)
(0.991366 -0.0252936 1.36067e-19)
(0.99089 -0.0305895 -3.44424e-20)
(0.9945 -0.0214422 3.67824e-20)
(0.994249 -0.0261718 3.45927e-20)
(0.996836 -0.0177104 -3.80878e-21)
(0.996759 -0.0219005 3.03782e-20)
(0.998455 -0.0140673 1.23633e-19)
(0.998542 -0.0177518 3.13064e-20)
(0.999427 -0.0104723 -2.64131e-20)
(0.999687 -0.0136782 -1.79033e-19)
(0.999818 -0.00693479 -8.83695e-20)
(1.00005 -0.00969507 5.71761e-20)
(0.999729 -0.00357566 0)
(0.999199 -0.00600837 1.12407e-19)
(0.997701 -0.00270314 -1.26238e-19)
(0.760744 -0.167071 1.40099e-19)
(0.754698 -0.178227 4.63316e-21)
(0.780487 -0.147858 4.72705e-20)
(0.771752 -0.163005 0)
(0.804959 -0.12948 9.1843e-20)
(0.795951 -0.1444 -4.73503e-20)
(0.830258 -0.115215 -3.00482e-20)
(0.821461 -0.129301 -8.15553e-20)
(0.854433 -0.104048 -9.49616e-21)
(0.846452 -0.117229 -3.75509e-20)
(0.87659 -0.0949443 8.07209e-21)
(0.869629 -0.107304 -3.39305e-22)
(0.896439 -0.0871729 5.13333e-20)
(0.890512 -0.0987746 -6.14645e-20)
(0.913987 -0.0802972 1.16402e-19)
(0.909032 -0.0911866 3.56095e-21)
(0.929364 -0.0740408 4.7937e-20)
(0.925291 -0.0842598 0)
(0.942744 -0.0682127 -8.72055e-20)
(0.939454 -0.0778044 -4.70331e-20)
(0.954304 -0.0626694 -1.81567e-19)
(0.951704 -0.0716776 -1.37821e-19)
(0.96421 -0.0572993 3.82263e-20)
(0.962213 -0.0657639 -8.45123e-20)
(0.972611 -0.0520209 -7.17397e-20)
(0.971141 -0.05997 2.53386e-21)
(0.979642 -0.046789 -8.3032e-20)
(0.978628 -0.0542309 3.5437e-20)
(0.985428 -0.0416 3.92623e-21)
(0.984806 -0.048521 -3.52072e-20)
(0.990089 -0.0364858 -1.41971e-19)
(0.989794 -0.0428586 -7.16082e-20)
(0.993741 -0.0314917 -1.36387e-19)
(0.993707 -0.0372937 3.26306e-20)
(0.996489 -0.0266506 2.82434e-20)
(0.996651 -0.0318793 -3.37367e-20)
(0.998429 -0.021967 6.54091e-20)
(0.998734 -0.026641 9.6268e-20)
(0.99964 -0.0174133 -2.70588e-19)
(1.00009 -0.0215569 -3.16058e-20)
(1.00019 -0.0129476 -9.65448e-20)
(1.00081 -0.0165747 -2.39726e-19)
(1.00014 -0.00859008 2.57603e-19)
(1.00066 -0.0117521 2.02839e-19)
(0.999616 -0.0045089 -1.97261e-21)
(0.998906 -0.00744267 -1.63105e-19)
(0.996504 -0.00380113 -1.61413e-21)
(0.763725 -0.175539 -1.35715e-19)
(0.753524 -0.187758 -9.9781e-20)
(0.786618 -0.160491 -9.40077e-20)
(0.775935 -0.175552 0)
(0.811782 -0.144735 -2.20084e-19)
(0.801762 -0.159506 -2.81993e-19)
(0.83718 -0.131588 -8.98382e-20)
(0.827968 -0.145685 4.1923e-20)
(0.86126 -0.12066 -2.89294e-20)
(0.853222 -0.134007 3.75473e-20)
(0.883233 -0.111261 -6.90294e-20)
(0.876426 -0.123892 -6.80816e-20)
(0.902848 -0.102886 -1.10037e-19)
(0.897213 -0.114824 0)
(0.920129 -0.0952288 -1.12798e-19)
(0.915558 -0.106493 4.52825e-22)
(0.935215 -0.08809 -9.44468e-20)
(0.931585 -0.0987061 0)
(0.948283 -0.0813259 -9.67038e-20)
(0.945477 -0.091328 2.17434e-22)
(0.959513 -0.0748204 -4.13008e-20)
(0.957421 -0.0842489 -1.77458e-19)
(0.969071 -0.068476 -1.21037e-19)
(0.967597 -0.0773718 1.25354e-19)
(0.977107 -0.0622166 1.09408e-19)
(0.976164 -0.0706119 -8.18709e-23)
(0.983753 -0.0559972 8.38211e-20)
(0.983266 -0.0639055 1.15575e-19)
(0.989137 -0.0498138 -1.10468e-19)
(0.989031 -0.057224 -3.79211e-20)
(0.993378 -0.0437012 1.0219e-19)
(0.993583 -0.0505833 -6.84104e-20)
(0.996592 -0.0377136 1.35737e-19)
(0.997036 -0.0440364 -9.88614e-20)
(0.998886 -0.0318976 3.33727e-20)
(0.999497 -0.0376471 3.37048e-20)
(1.00035 -0.0262706 0)
(1.00107 -0.0314541 1.24508e-19)
(1.00107 -0.0208118 0)
(1.00192 -0.025437 5.92892e-20)
(1.0011 -0.0154763 5.74797e-20)
(1.00213 -0.0195383 0)
(1.00051 -0.0102779 -2.10998e-19)
(1.00137 -0.013868 1.14396e-19)
(0.999447 -0.00554005 -1.68365e-19)
(0.998562 -0.00895159 -6.0912e-20)
(0.995249 -0.00526536 2.75141e-20)
(0.764279 -0.188506 3.35418e-20)
(0.750717 -0.201827 3.27566e-20)
(0.790514 -0.175099 -1.82079e-19)
(0.77805 -0.190493 1.5992e-19)
(0.817335 -0.160871 -2.58112e-20)
(0.806314 -0.175922 4.74154e-20)
(0.843556 -0.148361 1.69509e-19)
(0.833887 -0.162783 8.61329e-20)
(0.868008 -0.137423 0)
(0.859857 -0.151153 7.40504e-20)
(0.890096 -0.127596 0)
(0.883402 -0.140649 1.3026e-19)
(0.909672 -0.118544 1.10479e-19)
(0.904302 -0.130925 0)
(0.926812 -0.110065 1.13252e-19)
(0.92261 -0.12178 1.11917e-19)
(0.941685 -0.102024 9.46457e-20)
(0.938497 -0.113092 1.72092e-22)
(0.954487 -0.0943203 -7.86814e-20)
(0.952171 -0.10477 1.34024e-21)
(0.965408 -0.0868602 -1.37922e-20)
(0.963838 -0.0967328 1.7094e-19)
(0.974619 -0.0795595 2.47427e-19)
(0.973688 -0.0888988 1.81845e-21)
(0.982273 -0.0723465 5.07167e-21)
(0.981885 -0.0811908 7.97967e-20)
(0.988506 -0.0651747 -4.82408e-21)
(0.988577 -0.0735454 -7.60937e-20)
(0.993445 -0.0580354 4.3691e-21)
(0.993894 -0.0659286 1.43841e-19)
(0.997211 -0.0509604 -2.69231e-19)
(0.99796 -0.0583485 -1.36356e-19)
(0.999921 -0.0440076 -2.01838e-19)
(1.00089 -0.050855 -3.31216e-19)
(1.00168 -0.037234 1.24137e-19)
(1.0028 -0.0435183 1.26765e-19)
(1.00259 -0.0306688 1.84232e-19)
(1.00379 -0.0363883 1.24508e-19)
(1.00273 -0.024297 5.96694e-20)
(1.00403 -0.0294451 7.21662e-23)
(1.00213 -0.0180662 5.61427e-20)
(1.00365 -0.0226201 -1.13093e-19)
(1.00086 -0.0119713 2.70121e-19)
(1.00221 -0.0160881 1.66001e-19)
(0.999279 -0.00671105 1.39386e-19)
(0.998257 -0.0106524 -4.78255e-20)
(0.994 -0.00716027 4.61392e-20)
(0.763394 -0.204518 1.56086e-19)
(0.747365 -0.219357 -2.97456e-20)
(0.793294 -0.191722 3.91997e-19)
(0.779249 -0.207876 1.36054e-21)
(0.822278 -0.178192 1.58918e-19)
(0.810326 -0.193871 6.58241e-21)
(0.849743 -0.165821 -9.0664e-21)
(0.839634 -0.180839 -2.79391e-19)
(0.874879 -0.15457 2.03457e-19)
(0.866612 -0.168883 2.184e-19)
(0.897306 -0.144131 1.32074e-19)
(0.89072 -0.157752 -6.65676e-20)
(0.916997 -0.134288 0)
(0.911893 -0.147219 1.1639e-19)
(0.934099 -0.124916 1.7004e-22)
(0.930275 -0.13716 -2.12652e-19)
(0.948825 -0.115932 -9.31611e-20)
(0.946093 -0.127507 1.99917e-19)
(0.961398 -0.107264 2.49183e-19)
(0.959592 -0.118201 -1.86853e-19)
(0.972023 -0.0988425 1.88225e-19)
(0.971002 -0.109183 1.77244e-19)
(0.980885 -0.090592 -1.66519e-19)
(0.980528 -0.100386 -8.43975e-20)
(0.988141 -0.0824443 0)
(0.988344 -0.091738 0)
(0.99393 -0.0743494 7.07106e-20)
(0.994601 -0.0831741 0)
(0.99838 -0.0662904 5.34946e-21)
(0.999434 -0.0746531 2.76295e-19)
(1.00162 -0.0582909 -1.96864e-19)
(1.00297 -0.0661714 -1.32749e-19)
(1.00375 -0.0504067 -5.97351e-21)
(1.00532 -0.0577698 -1.30289e-19)
(1.00491 -0.0427012 1.2708e-19)
(1.0066 -0.0495187 1.26203e-19)
(1.00517 -0.0352162 -5.87777e-20)
(1.00692 -0.0414773 0)
(1.00463 -0.0279477 -1.7192e-19)
(1.00647 -0.0336251 5.47489e-20)
(1.00333 -0.0208487 -3.06941e-21)
(1.00541 -0.025883 -2.23456e-19)
(1.00133 -0.0139213 -1.50548e-19)
(1.00322 -0.0185205 1.09509e-19)
(0.999224 -0.00808106 -1.73722e-19)
(0.998063 -0.0127342 -2.62271e-19)
(0.992647 -0.00942606 1.90362e-19)
(0.762139 -0.223285 -1.84871e-19)
(0.744063 -0.239739 -2.97456e-20)
(0.795711 -0.210365 -3.84514e-19)
(0.780278 -0.22761 -3.6701e-19)
(0.8271 -0.196849 -4.26331e-19)
(0.814308 -0.213458 -1.79589e-19)
(0.856056 -0.184144 -6.0167e-20)
(0.845551 -0.200001 -1.56968e-19)
(0.882085 -0.172265 -4.73841e-20)
(0.87373 -0.187345 1.46501e-19)
(0.905011 -0.161005 -8.48619e-20)
(0.898559 -0.175332 -1.31999e-19)
(0.924934 -0.150231 -9.20358e-20)
(0.920123 -0.163813 1.13754e-19)
(0.942078 -0.139873 -1.78029e-20)
(0.938661 -0.15272 1.02851e-19)
(0.956707 -0.129882 1.10523e-19)
(0.954464 -0.142017 1.01436e-19)
(0.969077 -0.120213 -2.6258e-19)
(0.967817 -0.131672 -2.02545e-21)
(0.979416 -0.110809 -9.28033e-20)
(0.978981 -0.121639 -1.70916e-19)
(0.98792 -0.101604 8.13388e-20)
(0.988179 -0.111862 1.577e-19)
(0.994758 -0.0925313 0)
(0.995597 -0.102273 7.27303e-20)
(1.00007 -0.0835359 2.0328e-19)
(1.00139 -0.0928035 1.39409e-19)
(1.004 -0.0745902 1.41458e-19)
(1.00571 -0.0834046 6.89797e-20)
(1.00665 -0.0657052 -6.62204e-20)
(1.00867 -0.0740585 -1.93536e-19)
(1.00816 -0.0569283 0)
(1.01039 -0.0647912 1.23726e-19)
(1.00863 -0.0483248 0)
(1.01098 -0.0556673 5.86399e-20)
(1.00818 -0.0399485 1.13161e-19)
(1.01056 -0.0467495 0)
(1.00688 -0.0318118 3.23286e-21)
(1.00935 -0.0380147 1.13921e-19)
(1.0048 -0.0238818 -1.11045e-19)
(1.00752 -0.0293769 -1.10363e-19)
(1.00202 -0.0161771 0)
(1.00448 -0.0212301 -2.09715e-19)
(0.999222 -0.0096817 4.69566e-20)
(0.998 -0.015221 3.99614e-19)
(0.991218 -0.0120945 -1.52158e-20)
(0.761085 -0.24457 -2.03158e-19)
(0.741126 -0.262721 0)
(0.798259 -0.231011 -1.6582e-19)
(0.78157 -0.249623 2.07197e-19)
(0.832169 -0.21693 8.97289e-20)
(0.818627 -0.234747 1.84846e-19)
(0.862772 -0.20345 4.47994e-20)
(0.851932 -0.220372 8.22626e-20)
(0.889836 -0.190623 6.60993e-20)
(0.881445 -0.206647 1.40915e-19)
(0.913377 -0.178319 6.31471e-20)
(0.907106 -0.193483 6.48912e-20)
(0.933617 -0.166456 3.08761e-19)
(0.929145 -0.180785 -1.17735e-19)
(0.95086 -0.154999 2.22149e-19)
(0.947897 -0.168519 3.12856e-19)
(0.965426 -0.143925 -9.96022e-21)
(0.963718 -0.156669 -1.94421e-19)
(0.977606 -0.133203 9.14002e-20)
(0.976942 -0.145216 4.11275e-21)
(0.987657 -0.122786 7.63512e-20)
(0.987859 -0.134124 0)
(0.995793 -0.112613 1.49879e-19)
(0.996717 -0.123342 -1.50774e-19)
(1.00219 -0.102617 2.11554e-19)
(1.00372 -0.112801 1.53624e-21)
(1.007 -0.0927382 5.78115e-21)
(1.00903 -0.102434 1.39409e-19)
(1.01036 -0.0829362 -2.63867e-19)
(1.01279 -0.0921793 -3.94593e-19)
(1.01239 -0.0732063 -6.00772e-21)
(1.01513 -0.0820048 -6.43569e-20)
(1.01321 -0.0635818 1.82838e-19)
(1.01617 -0.0719186 1.23726e-19)
(1.01294 -0.0541227 5.90473e-20)
(1.01602 -0.0619724 -5.6381e-20)
(1.0117 -0.0448901 0)
(1.01479 -0.0522248 -1.65495e-19)
(1.00956 -0.0359122 0)
(1.01273 -0.042644 5.47329e-20)
(1.00659 -0.0271736 -2.0842e-19)
(1.01003 -0.0331344 -2.07537e-19)
(1.00288 -0.0187071 1.64448e-19)
(1.00602 -0.0242281 -2.6165e-19)
(0.999256 -0.0115525 4.21381e-19)
(0.99813 -0.0180857 6.41637e-19)
(0.989867 -0.0152611 -1.72448e-20)
(0.760473 -0.268267 4.05568e-19)
(0.738685 -0.288261 -3.12299e-20)
(0.801264 -0.253667 5.58702e-19)
(0.7834 -0.273927 3.78762e-21)
(0.837783 -0.238513 1.79454e-19)
(0.823569 -0.257812 1.37347e-19)
(0.870141 -0.22383 1.77396e-19)
(0.85904 -0.242045 -1.13911e-19)
(0.898343 -0.209732 1.40871e-19)
(0.889984 -0.226873 -1.02929e-21)
(0.922581 -0.196143 -1.13507e-19)
(0.916556 -0.212273 6.09609e-20)
(0.943195 -0.183018 -1.1927e-19)
(0.939127 -0.198187 -6.15612e-20)
(0.960573 -0.170337 -9.773e-20)
(0.958126 -0.184594 -2.07579e-19)
(0.975091 -0.158091 -1.8258e-19)
(0.973981 -0.171485 -2.81173e-19)
(0.987084 -0.146254 -8.72446e-20)
(0.987074 -0.158846 3.16625e-22)
(0.996835 -0.134784 -2.25642e-19)
(0.997732 -0.146642 0)
(1.00458 -0.123622 -3.00536e-19)
(1.00623 -0.134821 -1.52748e-19)
(1.01051 -0.112699 -7.18094e-20)
(1.01278 -0.123316 -5.39188e-22)
(1.01479 -0.101948 -2.56428e-19)
(1.01757 -0.112052 6.47336e-20)
(1.01754 -0.0913179 -1.97728e-19)
(1.02074 -0.10096 -7.01458e-20)
(1.0189 -0.080785 6.39375e-20)
(1.02243 -0.0899916 4.05122e-21)
(1.01898 -0.0703645 -1.14157e-19)
(1.02274 -0.0791354 5.65826e-20)
(1.01791 -0.0601036 -2.80134e-19)
(1.02179 -0.0684247 5.2038e-20)
(1.0158 -0.050063 -1.12042e-19)
(1.01969 -0.0579058 -2.18412e-19)
(1.01273 -0.0402828 -1.51122e-19)
(1.01669 -0.0475295 2.62864e-19)
(1.00876 -0.0307647 -2.53576e-19)
(1.013 -0.0371834 -4.57066e-19)
(1.00401 -0.0215555 1.62734e-19)
(1.00792 -0.0275424 -5.02359e-20)
(0.999417 -0.0137348 2.88596e-19)
(0.998555 -0.0213424 1.46916e-19)
(0.9887 -0.0189608 -1.06149e-19)
(0.760444 -0.294416 -4.34047e-19)
(0.736796 -0.316448 -3.12299e-20)
(0.804968 -0.278402 -4.20571e-19)
(0.78597 -0.300619 -2.06364e-19)
(0.844198 -0.261685 -1.51324e-19)
(0.829387 -0.282765 -8.61497e-20)
(0.878406 -0.245369 -2.94353e-19)
(0.867128 -0.265119 -7.18429e-20)
(0.907822 -0.229659 -8.20141e-20)
(0.899581 -0.2481 -1.39923e-19)
(0.93281 -0.214528 1.14631e-19)
(0.927117 -0.231754 1.20672e-19)
(0.95383 -0.199948 -1.48011e-19)
(0.950247 -0.216047 -1.42396e-21)
(0.971356 -0.185904 -3.9017e-19)
(0.969504 -0.200955 -1.07543e-19)
(0.985825 -0.172384 -1.01392e-19)
(0.985387 -0.186464 -1.82745e-19)
(0.997616 -0.159362 8.75811e-20)
(0.998332 -0.17255 2.53044e-19)
(1.00705 -0.146793 7.43912e-20)
(1.00871 -0.159175 -1.53289e-19)
(1.01437 -0.134616 1.45808e-19)
(1.01681 -0.146279 1.45615e-19)
(1.0198 -0.122758 1.35423e-19)
(1.02288 -0.13379 4.50555e-21)
(1.0235 -0.111144 2.52123e-19)
(1.02711 -0.121629 -6.2399e-20)
(1.02562 -0.0997099 1.31003e-19)
(1.02965 -0.109715 3.68085e-19)
(1.02626 -0.0884155 -3.72471e-21)
(1.03063 -0.0979855 -2.33651e-19)
(1.02556 -0.0772539 2.22781e-19)
(1.03017 -0.0864083 1.1131e-19)
(1.02362 -0.0662537 1.15834e-19)
(1.02837 -0.0749956 1.12974e-19)
(1.02056 -0.0554661 1.53408e-19)
(1.02534 -0.0637742 -2.80329e-22)
(1.01647 -0.0449354 -4.38767e-20)
(1.02131 -0.052669 4.56956e-19)
(1.0114 -0.0346781 -2.49457e-19)
(1.01654 -0.0415399 -5.85814e-19)
(1.00548 -0.0247539 -9.28632e-20)
(1.01026 -0.0311996 1.90641e-19)
(0.999771 -0.0162671 -2.46329e-19)
(0.999375 -0.0250061 -4.82134e-20)
(0.987821 -0.0232138 -4.99334e-20)
(0.761111 -0.323155 2.00881e-19)
(0.735495 -0.347463 -2.94609e-19)
(0.809588 -0.305351 1.2578e-19)
(0.789468 -0.329879 2.57813e-19)
(0.851666 -0.286567 -6.79585e-21)
(0.836333 -0.309763 -4.37902e-20)
(0.887813 -0.268157 8.39175e-20)
(0.876458 -0.289712 1.96755e-19)
(0.918497 -0.250463 5.88036e-20)
(0.910483 -0.270401 6.53896e-20)
(0.944262 -0.233504 6.36594e-21)
(0.939008 -0.251963 5.74197e-20)
(0.965696 -0.217255 4.05375e-20)
(0.962699 -0.234373 2.11968e-19)
(0.983361 -0.201692 1.00889e-19)
(0.982199 -0.217591 -1.93137e-19)
(0.997761 -0.186787 1.66852e-19)
(0.998083 -0.201579 4.30755e-21)
(1.00932 -0.172502 1.64297e-20)
(1.01084 -0.186295 3.26905e-19)
(1.01839 -0.158784 -8.49987e-20)
(1.02089 -0.171682 -1.51362e-19)
(1.02526 -0.145563 5.62125e-21)
(1.02856 -0.157671 -6.72168e-20)
(1.03015 -0.132759 -1.92716e-19)
(1.0341 -0.14418 6.55517e-20)
(1.03324 -0.120287 4.99862e-20)
(1.03772 -0.131119 -1.26603e-19)
(1.03466 -0.108073 8.29156e-21)
(1.03959 -0.118398 4.09913e-19)
(1.03455 -0.0960568 -1.21229e-19)
(1.03982 -0.105938 -3.41973e-19)
(1.033 -0.0842107 1.51769e-21)
(1.03854 -0.0936887 5.47541e-20)
(1.03014 -0.07254 -2.38326e-21)
(1.03583 -0.081639 -1.06108e-19)
(1.02607 -0.0610786 3.00184e-19)
(1.03181 -0.0697922 1.02925e-19)
(1.02087 -0.0498665 -8.96242e-20)
(1.02668 -0.0580397 4.38582e-19)
(1.0146 -0.0389276 -1.41824e-19)
(1.02072 -0.0462027 -7.05333e-19)
(1.00737 -0.028331 2.36587e-19)
(1.01315 -0.0352161 5.53186e-19)
(1.00039 -0.019187 1.48143e-19)
(1.0007 -0.0290822 -1.28384e-19)
(0.987344 -0.0280274 1.84082e-19)
(0.762585 -0.354703 -2.50879e-19)
(0.734819 -0.381567 -5.68992e-20)
(0.815351 -0.334709 9.45587e-20)
(0.794099 -0.361954 5.19974e-20)
(0.860454 -0.31331 1.55509e-19)
(0.844689 -0.339007 4.23595e-20)
(0.898626 -0.292296 1.80648e-19)
(0.887323 -0.315962 1.14439e-19)
(0.930611 -0.272197 6.41839e-20)
(0.922962 -0.293856 1.29138e-19)
(0.957153 -0.253086 2.60948e-19)
(0.95247 -0.272928 -1.78301e-19)
(0.978979 -0.234929 -1.63602e-20)
(0.976692 -0.253157 1.65901e-19)
(0.99675 -0.21767 -2.92183e-19)
(0.996389 -0.234466 -2.89747e-19)
(1.01104 -0.201256 1.60714e-19)
(1.01222 -0.216779 -1.68178e-19)
(1.02232 -0.185625 1.64129e-19)
(1.02474 -0.200017 2.37072e-19)
(1.03099 -0.170703 -1.34416e-19)
(1.03441 -0.184098 -7.07127e-20)
(1.03735 -0.156407 -8.54482e-21)
(1.04158 -0.168931 -6.94324e-20)
(1.04164 -0.142646 1.33328e-19)
(1.04653 -0.154419 7.25342e-21)
(1.04406 -0.129324 2.28804e-19)
(1.04949 -0.140457 1.24106e-21)
(1.04475 -0.116351 6.57435e-20)
(1.05063 -0.126944 1.73338e-19)
(1.04383 -0.103653 -1.68996e-19)
(1.05007 -0.113787 -2.19607e-19)
(1.0414 -0.0911798 -5.16732e-20)
(1.04792 -0.100914 0)
(1.03757 -0.0789115 -2.539e-21)
(1.04426 -0.0882935 -1.97043e-19)
(1.03242 -0.06686 2.3905e-19)
(1.03919 -0.0759035 2.38292e-19)
(1.02603 -0.0550518 -1.8193e-19)
(1.0329 -0.0635978 5.42902e-20)
(1.01846 -0.0435098 3.31279e-22)
(1.02566 -0.0511494 -5.45044e-19)
(1.0098 -0.0323042 2.27816e-19)
(1.0167 -0.0395912 6.21688e-19)
(1.00137 -0.0225262 -9.39849e-20)
(1.00266 -0.033562 -1.75184e-19)
(0.98739 -0.0333956 4.21382e-20)
(0.764998 -0.389348 2.43736e-19)
(0.734817 -0.419087 2.07588e-19)
(0.822517 -0.366725 0)
(0.800112 -0.39715 4.71855e-20)
(0.870869 -0.342102 0)
(0.854783 -0.370738 -8.32542e-20)
(0.911148 -0.317902 6.26823e-20)
(0.900063 -0.344032 -3.33661e-20)
(0.944436 -0.294915 -1.08686e-19)
(0.93733 -0.318548 6.64223e-20)
(0.971719 -0.273279 -2.78333e-19)
(0.967776 -0.29467 -6.42591e-20)
(0.993882 -0.252935 -1.01568e-19)
(0.992456 -0.272371 -4.9985e-20)
(1.0117 -0.233784 -1.67179e-19)
(1.01227 -0.251523 9.29161e-20)
(1.0258 -0.215723 -9.64285e-20)
(1.02797 -0.231986 -2.51211e-19)
(1.03674 -0.198653 5.44682e-21)
(1.04017 -0.213629 1.52385e-19)
(1.04493 -0.18247 -5.76369e-21)
(1.04937 -0.196329 -7.26486e-20)
(1.05072 -0.16707 -5.43676e-20)
(1.05596 -0.179964 1.94738e-19)