/*--------------------------------*- C++ -*----------------------------------*\
  =========                 |
  \\      /  F ield         | OpenFOAM: The Open Source CFD Toolbox
   \\    /   O peration     | Website:  https://openfoam.org
    \\  /    A nd           | Version:  11
     \\/     M anipulation  |
\*---------------------------------------------------------------------------*/
FoamFile
{
    format      ascii;
    class       surfaceScalarField;
    location    "1.84";
    object      meshPhi;
}
// * * * * * * * * * * * * * * * * * * * * * * * * * * * * * * * * * * * * * //

dimensions      [0 3 -1 0 0 0 0];

internalField   nonuniform List<scalar> 
5640
(
1.36938e-16
9.81747e-07
2.42055e-16
1.37445e-06
3.76957e-16
1.76715e-06
-1.33935e-15
2.15984e-06
-3.68168e-15
2.55254e-06
2.94524e-06
5.95111e-15
1.80685e-18
9.81747e-07
-3.88789e-16
1.37445e-06
-2.60422e-15
1.76715e-06
1.9435e-15
2.15984e-06
8.06612e-15
2.55254e-06
2.94524e-06
-9.02993e-15
-1.16484e-16
9.81747e-07
1.86331e-16
1.37445e-06
-1.56242e-15
1.76715e-06
-4.21257e-15
2.15984e-06
-7.49848e-15
2.55254e-06
2.94524e-06
7.72157e-16
8.69195e-17
9.81747e-07
-1.01933e-16
1.37445e-06
2.69322e-15
1.76715e-06
7.44272e-15
2.15984e-06
3.25975e-15
2.55254e-06
2.94524e-06
-2.79805e-15
-4.83889e-17
9.81747e-07
3.94779e-17
1.37445e-06
1.94282e-16
1.76715e-06
-1.80621e-15
2.15984e-06
-4.20868e-15
2.55254e-06
2.94524e-06
5.01323e-15
-1.80122e-16
9.81747e-07
4.28238e-18
1.37445e-06
-1.84782e-15
1.76715e-06
-3.88621e-15
2.15984e-06
3.15701e-15
2.55254e-06
2.94524e-06
4.98101e-16
2.53946e-16
9.81747e-07
2.55382e-16
1.37445e-06
2.06591e-15
1.76715e-06
4.504e-15
2.15984e-06
-2.31019e-15
2.55254e-06
2.94524e-06
5.40689e-16
2.1625e-17
9.81747e-07
-3.21735e-16
1.37445e-06
-1.14891e-15
1.76715e-06
-5.2857e-15
2.15984e-06
-3.76854e-16
2.55254e-06
2.94524e-06
-5.6401e-15
-1.43408e-16
9.81747e-07
1.6638e-16
1.37445e-06
4.19113e-15
1.76715e-06
6.34931e-15
2.15984e-06
-8.05787e-16
2.55254e-06
2.94524e-06
8.39035e-16
-6.88226e-17
9.81747e-07
-9.20871e-17
1.37445e-06
-2.76939e-15
1.76715e-06
-3.68847e-16
2.15984e-06
-1.45097e-15
2.55254e-06
2.94524e-06
-1.76851e-16
1.66305e-16
9.81747e-07
-8.87697e-17
1.37445e-06
5.69587e-16
1.76715e-06
-2.10358e-15
2.15984e-06
9.6598e-15
2.55254e-06
2.94524e-06
5.28992e-15
-1.77829e-16
9.81747e-07
-2.05598e-17
1.37445e-06
-3.45494e-16
1.76715e-06
-4.17279e-15
2.15984e-06
-2.62237e-15
2.55254e-06
2.94524e-06
5.36909e-15
1.77765e-16
9.81747e-07
2.04774e-17
1.37445e-06
3.45382e-16
1.76715e-06
4.17256e-15
2.15984e-06
2.62223e-15
2.55254e-06
2.94524e-06
-5.36956e-15
-1.66377e-16
9.81747e-07
8.86704e-17
1.37445e-06
-5.69781e-16
1.76715e-06
2.1034e-15
2.15984e-06
-9.65998e-15
2.55254e-06
2.94524e-06
-5.29032e-15
6.87872e-17
9.81747e-07
9.19934e-17
1.37445e-06
2.76925e-15
1.76715e-06
3.68692e-16
2.15984e-06
1.45077e-15
2.55254e-06
2.94524e-06
1.76433e-16
1.43374e-16
9.81747e-07
-1.66468e-16
1.37445e-06
-4.19126e-15
1.76715e-06
-6.34958e-15
2.15984e-06
8.0556e-16
2.55254e-06
2.94524e-06
-8.39449e-16
-2.16812e-17
9.81747e-07
3.21663e-16
1.37445e-06
1.14881e-15
1.76715e-06
5.28559e-15
2.15984e-06
3.76602e-16
2.55254e-06
2.94524e-06
5.63964e-15
-2.54024e-16
9.81747e-07
-2.55498e-16
1.37445e-06
-2.06599e-15
1.76715e-06
-4.50418e-15
2.15984e-06
2.3098e-15
2.55254e-06
2.94524e-06
-5.40957e-16
1.80085e-16
9.81747e-07
-4.33149e-18
1.37445e-06
1.84778e-15
1.76715e-06
3.88614e-15
2.15984e-06
-3.15724e-15
2.55254e-06
2.94524e-06
-4.98223e-16
4.83463e-17
9.81747e-07
-3.9524e-17
1.37445e-06
-1.94338e-16
1.76715e-06
1.80606e-15
2.15984e-06
4.20841e-15
2.55254e-06
2.94524e-06
-5.0135e-15
-8.69871e-17
9.81747e-07
1.01931e-16
1.37445e-06
-2.69325e-15
1.76715e-06
-7.44287e-15
2.15984e-06
-3.25991e-15
2.55254e-06
2.94524e-06
2.79811e-15
1.16423e-16
9.81747e-07
-1.86389e-16
1.37445e-06
1.56229e-15
1.76715e-06
4.21241e-15
2.15984e-06
7.49815e-15
2.55254e-06
2.94524e-06
-7.72276e-16
-1.85298e-18
9.81747e-07
3.88782e-16
1.37445e-06
2.6042e-15
1.76715e-06
-1.94365e-15
2.15984e-06
-8.06628e-15
2.55254e-06
2.94524e-06
9.02982e-15
-1.36973e-16
-2.42107e-16
-3.76974e-16
1.33929e-15
3.68151e-15
-5.95141e-15
-1.13365e-14
4.53785e-06
-4.53785e-06
-4.81211e-16
5.23599e-06
-5.23599e-06
-5.35753e-15
5.93412e-06
-5.93412e-06
-1.1304e-14
6.63225e-06
-6.63225e-06
4.86867e-15
7.33038e-06
-7.33038e-06
-1.1106e-15
8.02851e-06
-8.02851e-06
-8.15854e-15
8.72664e-06
-8.72664e-06
1.30436e-14
9.42478e-06
-9.42478e-06
5.94897e-15
1.01229e-05
-1.01229e-05
-1.99721e-15
1.0821e-05
-1.0821e-05
2.43859e-14
1.15192e-05
-1.15192e-05
1.61884e-14
1.22173e-05
-1.22173e-05
-3.27877e-14
1.29154e-05
-1.29154e-05
-3.05267e-15
1.36136e-05
-1.36136e-05
-1.4442e-14
1.43117e-05
-1.43117e-05
-2.69035e-14
1.50098e-05
-1.50098e-05
7.73724e-15
1.5708e-05
-1.5708e-05
-4.44178e-15
1.64061e-05
-1.64061e-05
-1.80005e-14
1.71042e-05
-1.71042e-05
2.18196e-14
1.78024e-05
-1.78024e-05
8.20957e-15
1.85005e-05
-1.85005e-05
-6.08495e-15
1.91986e-05
-1.91986e-05
3.89166e-14
1.98967e-05
-1.98967e-05
2.05949e-05
-2.05949e-05
9.39869e-15
4.53785e-06
5.20189e-16
5.23599e-06
7.52802e-15
5.93412e-06
-4.41215e-15
6.63225e-06
3.78326e-15
7.33038e-06
1.33839e-14
8.02851e-06
-2.1104e-15
8.72664e-06
8.52803e-15
9.42478e-06
-1.00275e-14
1.01229e-05
1.86543e-15
1.0821e-05
-2.02048e-14
1.15192e-05
-7.0142e-15
1.22173e-05
7.50872e-15
1.29154e-05
2.36083e-14
1.36136e-05
-2.04209e-15
1.43117e-05
1.48325e-14
1.50098e-05
-1.3882e-14
1.5708e-05
2.38805e-15
1.64061e-05
2.04094e-14
1.71042e-05
-7.01942e-15
1.78024e-05
1.20662e-14
1.85005e-05
-2.59449e-14
1.91986e-05
1.84131e-15
1.98967e-05
2.05949e-05
-8.6761e-15
4.53785e-06
1.22922e-14
5.23599e-06
1.88278e-15
5.93412e-06
8.9019e-15
6.63225e-06
-5.10869e-15
7.33038e-06
-2.19909e-14
8.02851e-06
1.2264e-14
8.72664e-06
-5.37522e-15
9.42478e-06
4.45503e-15
1.01229e-05
-1.43074e-14
1.0821e-05
-7.32743e-15
1.15192e-05
7.04035e-15
1.22173e-05
2.3994e-14
1.29154e-05
-7.55548e-15
1.36136e-05
9.79968e-15
1.43117e-05
-1.62366e-14
1.50098e-05
4.0293e-14
1.5708e-05
1.4445e-14
1.64061e-05
-1.37057e-14
1.71042e-05
-7.89785e-15
1.78024e-05
-3.9255e-14
1.85005e-05
4.27468e-14
1.91986e-05
-8.85752e-15
1.98967e-05
2.05949e-05
5.98574e-15
4.53785e-06
2.18773e-16
5.23599e-06
-6.43594e-15
5.93412e-06
6.06375e-15
6.63225e-06
-2.09314e-15
7.33038e-06
1.61758e-14
8.02851e-06
-1.88313e-14
8.72664e-06
-2.35158e-15
9.42478e-06
9.16988e-15
1.01229e-05
-4.71286e-15
1.0821e-05
2.16261e-14
1.15192e-05
-2.96462e-14
1.22173e-05
-9.29191e-15
1.29154e-05
-1.89061e-14
1.36136e-05
4.46661e-15
1.43117e-05
3.0156e-14
1.50098e-05
-2.62157e-14
1.5708e-05
4.32502e-16
1.64061e-05
-2.11728e-14
1.71042e-05
1.87142e-14
1.78024e-05
-3.92829e-15
1.85005e-05
-2.91619e-14
1.91986e-05
1.5225e-14
1.98967e-05
2.05949e-05
6.71495e-15
4.53785e-06
-7.30689e-15
5.23599e-06
1.11007e-14
5.93412e-06
-4.2415e-15
6.63225e-06
1.51018e-14
7.33038e-06
-5.21018e-15
8.02851e-06
1.70128e-14
8.72664e-06
-3.94141e-15
9.42478e-06
-2.955e-16
1.01229e-05
6.609e-15
1.0821e-05
1.37051e-14
1.15192e-05
1.01842e-14
1.22173e-05
1.82162e-14
1.29154e-05
1.43678e-14
1.36136e-05
2.33405e-14
1.43117e-05
-2.53412e-14
1.50098e-05
2.90723e-14
1.5708e-05
-7.83193e-15
1.64061e-05
3.54172e-14
1.71042e-05
-4.516e-15
1.78024e-05
4.23658e-14
1.85005e-05
-5.8723e-16
1.91986e-05
-8.73632e-15
1.98967e-05
2.05949e-05
-4.63078e-15
4.53785e-06
5.79723e-15
5.23599e-06
-1.61507e-14
5.93412e-06
-5.97498e-15
6.63225e-06
-8.55534e-15
7.33038e-06
4.22337e-15
8.02851e-06
-8.18741e-15
8.72664e-06
6.99909e-15
9.42478e-06
-2.42304e-14
1.01229e-05
-7.77057e-15
1.0821e-05
-2.27653e-14
1.15192e-05
8.34883e-15
1.22173e-05
-7.4053e-15
1.29154e-05
2.82656e-14
1.36136e-05
-4.57115e-14
1.43117e-05
-8.22439e-15
1.50098e-05
-2.82283e-14
1.5708e-05
-2.34228e-15
1.64061e-05
-6.9478e-15
1.71042e-05
2.21463e-14
1.78024e-05
-3.41123e-14
1.85005e-05
-3.73922e-15
1.91986e-05
-3.23472e-14
1.98967e-05
2.05949e-05
-8.92538e-15
4.53785e-06
-2.28907e-15
5.23599e-06
-2.22399e-15
5.93412e-06
6.61612e-15
6.63225e-06
-3.38881e-15
7.33038e-06
-3.90693e-15
8.02851e-06
-6.41924e-15
8.72664e-06
-7.1596e-15
9.42478e-06
6.80982e-15
1.01229e-05
6.98076e-15
1.0821e-05
-9.06501e-15
1.15192e-05
6.75793e-15
1.22173e-05
-2.88894e-14
1.29154e-05
-1.22348e-14
1.36136e-05
4.80316e-15
1.43117e-05
2.50244e-14
1.50098e-05
3.8609e-15
1.5708e-05
3.60662e-15
1.64061e-05
-2.04889e-14
1.71042e-05
-2.17629e-14
1.78024e-05
3.46543e-15
1.85005e-05
2.90361e-14
1.91986e-05
-1.6627e-15
1.98967e-05
2.05949e-05
6.21551e-15
4.53785e-06
-3.87949e-15
5.23599e-06
1.54214e-14
5.93412e-06
-7.06527e-15
6.63225e-06
-2.21059e-15
7.33038e-06
1.42869e-15
8.02851e-06
-5.49294e-15
8.72664e-06
1.32252e-14
9.42478e-06
6.04532e-15
1.01229e-05
-1.74525e-14
1.0821e-05
2.08868e-14
1.15192e-05
-2.1447e-14
1.22173e-05
1.91324e-14
1.29154e-05
-7.31709e-15
1.36136e-05
3.8485e-14
1.43117e-05
-1.2922e-14
1.50098e-05
-1.88637e-15
1.5708e-05
5.71475e-15
1.64061e-05
-7.58981e-15
1.71042e-05
2.76577e-14
1.78024e-05
1.4093e-14
1.85005e-05
-5.31424e-14
1.91986e-05
3.90841e-14
1.98967e-05
2.05949e-05
-1.49901e-15
4.53785e-06
1.08968e-14
5.23599e-06
-6.59971e-15
5.93412e-06
7.26498e-15
6.63225e-06
6.1749e-15
7.33038e-06
2.4878e-15
8.02851e-06
-9.64623e-16
8.72664e-06
-4.36604e-15
9.42478e-06
-8.90203e-15
1.01229e-05
1.38621e-14
1.0821e-05
1.06898e-14
1.15192e-05
6.24987e-15
1.22173e-05
-1.29791e-16
1.29154e-05
-3.43852e-15
1.36136e-05
-1.10444e-14
1.43117e-05
-1.7765e-14
1.50098e-05
1.76794e-14
1.5708e-05
9.95119e-15
1.64061e-05
3.32619e-15
1.71042e-05
-3.29676e-14
1.78024e-05
-1.04301e-14
1.85005e-05
3.00656e-14
1.91986e-05
-5.99964e-14
1.98967e-05
2.05949e-05
5.16988e-15
4.53785e-06
-7.4559e-15
5.23599e-06
-7.5706e-16
5.93412e-06
6.83889e-15
6.63225e-06
-9.97457e-15
7.33038e-06
-1.66459e-15
8.02851e-06
9.21843e-15
8.72664e-06
-1.34604e-14
9.42478e-06
2.3219e-14
1.01229e-05
1.04722e-14
1.0821e-05
-1.72739e-14
1.15192e-05
-3.02824e-15
1.22173e-05
1.13975e-14
1.29154e-05
-1.98194e-14
1.36136e-05
-4.67799e-15
1.43117e-05
5.03066e-14
1.50098e-05
-2.40451e-14
1.5708e-05
-6.65837e-15
1.64061e-05
1.42548e-14
1.71042e-05
1.64802e-15
1.78024e-05
-6.81262e-15
1.85005e-05
1.44416e-14
1.91986e-05
5.07536e-14
1.98967e-05
2.05949e-05
-6.19758e-15
4.53785e-06
2.81032e-17
5.23599e-06
1.15114e-14
5.93412e-06
-2.06269e-14
6.63225e-06
5.36618e-15
7.33038e-06
1.22093e-15
8.02851e-06
-4.79342e-17
8.72664e-06
1.23924e-14
9.42478e-06
-1.32273e-14
1.01229e-05
-1.88954e-14
1.0821e-05
-4.96401e-15
1.15192e-05
-7.15524e-15
1.22173e-05
-1.48886e-14
1.29154e-05
3.53371e-14
1.36136e-05
-1.74858e-18
1.43117e-05
-4.31398e-14
1.50098e-05
1.35608e-14
1.5708e-05
-2.82582e-14
1.64061e-05
2.45083e-15
1.71042e-05
-1.02433e-14
1.78024e-05
2.38032e-14
1.85005e-05
1.38724e-14
1.91986e-05
-4.55654e-14
1.98967e-05
2.05949e-05
-1.90668e-15
4.53785e-06
1.1304e-15
5.23599e-06
-2.16624e-14
5.93412e-06
9.62333e-15
6.63225e-06
1.51368e-14
7.33038e-06
-1.40657e-14
8.02851e-06
8.09179e-15
8.72664e-06
-2.69604e-14
9.42478e-06
-1.96635e-15
1.01229e-05
2.97167e-14
1.0821e-05
-1.17456e-14
1.15192e-05
1.98665e-14
1.22173e-05
-2.74463e-14
1.29154e-05
-2.06164e-14
1.36136e-05
1.60413e-14
1.43117e-05
-4.61522e-15
1.50098e-05
4.69257e-15
1.5708e-05
4.796e-14
1.64061e-05
-1.37424e-14
1.71042e-05
3.23671e-14
1.78024e-05
-3.51906e-14
1.85005e-05
-2.49076e-14
1.91986e-05
7.19113e-14
1.98967e-05
2.05949e-05
1.9067e-15
4.53785e-06
-1.13085e-15
5.23599e-06
2.16617e-14
5.93412e-06
-9.62457e-15
6.63225e-06
-1.51373e-14
7.33038e-06
1.40647e-14
8.02851e-06
-8.09262e-15
8.72664e-06
2.6959e-14
9.42478e-06
1.96471e-15
1.01229e-05
-2.97178e-14
1.0821e-05
1.1743e-14
1.15192e-05
-1.9866e-14
1.22173e-05
2.7444e-14
1.29154e-05
2.06156e-14
1.36136e-05
-1.6042e-14
1.43117e-05
4.61155e-15
1.50098e-05
-4.69334e-15
1.5708e-05
-4.79678e-14
1.64061e-05
1.37393e-14
1.71042e-05
-3.23705e-14
1.78024e-05
3.51811e-14
1.85005e-05
2.49024e-14
1.91986e-05
-7.1916e-14
1.98967e-05
2.05949e-05
6.19704e-15
4.53785e-06
-2.88318e-17
5.23599e-06
-1.15117e-14
5.93412e-06
2.06252e-14
6.63225e-06
-5.36715e-15
7.33038e-06
-1.2225e-15
8.02851e-06
4.67254e-17
8.72664e-06
-1.2394e-14
9.42478e-06
1.32262e-14
1.01229e-05
1.88941e-14
1.0821e-05
4.96223e-15
1.15192e-05
7.1539e-15
1.22173e-05
1.48848e-14
1.29154e-05
-3.53401e-14
1.36136e-05
-1.55009e-18
1.43117e-05
4.31342e-14
1.50098e-05
-1.35636e-14
1.5708e-05
2.82507e-14
1.64061e-05
-2.45391e-15
1.71042e-05
1.02435e-14
1.78024e-05
-2.38044e-14
1.85005e-05
-1.38815e-14
1.91986e-05
4.55581e-14
1.98967e-05
2.05949e-05
-5.17016e-15
4.53785e-06
7.455e-15
5.23599e-06
7.56466e-16
5.93412e-06
-6.84011e-15
6.63225e-06
9.97338e-15
7.33038e-06
1.66451e-15
8.02851e-06
-9.2206e-15
8.72664e-06
1.34583e-14
9.42478e-06
-2.32212e-14
1.01229e-05
-1.04743e-14
1.0821e-05
1.7271e-14
1.15192e-05
3.02586e-15
1.22173e-05
-1.13992e-14
1.29154e-05
1.98114e-14
1.36136e-05
4.67811e-15
1.43117e-05
-5.03079e-14
1.50098e-05
2.40462e-14
1.5708e-05
6.65804e-15
1.64061e-05
-1.42655e-14
1.71042e-05
-1.65109e-15
1.78024e-05
6.80541e-15
1.85005e-05
-1.44468e-14
1.91986e-05
-5.07664e-14
1.98967e-05
2.05949e-05
1.49864e-15
4.53785e-06
-1.08974e-14
5.23599e-06
6.59925e-15
5.93412e-06
-7.26598e-15
6.63225e-06
-6.1751e-15
7.33038e-06
-2.4894e-15
8.02851e-06
9.64052e-16
8.72664e-06
4.36447e-15
9.42478e-06
8.89995e-15
1.01229e-05
-1.38651e-14
1.0821e-05
-1.06913e-14
1.15192e-05
-6.25175e-15
1.22173e-05
1.25893e-16
1.29154e-05
3.43653e-15
1.36136e-05
1.10418e-14
1.43117e-05
1.77618e-14
1.50098e-05
-1.76806e-14
1.5708e-05
-9.9576e-15
1.64061e-05
-3.33094e-15
1.71042e-05
3.29665e-14
1.78024e-05
1.04147e-14
1.85005e-05
-3.00689e-14
1.91986e-05
5.999e-14
1.98967e-05
2.05949e-05
-6.21608e-15
4.53785e-06
3.87868e-15
5.23599e-06
-1.54225e-14
5.93412e-06
7.06511e-15
6.63225e-06
2.21092e-15
7.33038e-06
-1.4305e-15
8.02851e-06
5.49322e-15
8.72664e-06
-1.32273e-14
9.42478e-06
-6.04671e-15
1.01229e-05
1.7449e-14
1.0821e-05
-2.08902e-14
1.15192e-05
2.14431e-14
1.22173e-05
-1.91338e-14
1.29154e-05
7.31578e-15
1.36136e-05
-3.84886e-14
1.43117e-05
1.29201e-14
1.50098e-05
1.8792e-15
1.5708e-05
-5.722e-15
1.64061e-05
7.58616e-15
1.71042e-05
-2.76631e-14
1.78024e-05
-1.41021e-14
1.85005e-05
5.31374e-14
1.91986e-05
-3.90875e-14
1.98967e-05
2.05949e-05
8.92483e-15
4.53785e-06
2.2886e-15
5.23599e-06
2.22413e-15
5.93412e-06
-6.61673e-15
6.63225e-06
3.3877e-15
7.33038e-06
3.90649e-15
8.02851e-06
6.41753e-15
8.72664e-06
7.15776e-15
9.42478e-06
-6.81075e-15
1.01229e-05
-6.9836e-15
1.0821e-05
9.0637e-15
1.15192e-05
-6.76054e-15
1.22173e-05
2.8888e-14
1.29154e-05
1.22315e-14
1.36136e-05
-4.80668e-15
1.43117e-05
-2.50251e-14
1.50098e-05
-3.86425e-15
1.5708e-05
-3.61145e-15
1.64061e-05
2.04819e-14
1.71042e-05
2.17533e-14
1.78024e-05
-3.4697e-15
1.85005e-05
-2.90397e-14
1.91986e-05
1.66105e-15
1.98967e-05
2.05949e-05
4.63033e-15
4.53785e-06
-5.79762e-15
5.23599e-06
1.615e-14
5.93412e-06
5.97425e-15
6.63225e-06
8.55445e-15
7.33038e-06
-4.22407e-15
8.02851e-06
8.18635e-15
8.72664e-06
-6.99916e-15
9.42478e-06
2.42281e-14
1.01229e-05
7.76954e-15
1.0821e-05
2.27635e-14
1.15192e-05
-8.35048e-15
1.22173e-05
7.40104e-15
1.29154e-05
-2.8269e-14
1.36136e-05
4.57098e-14
1.43117e-05
8.22123e-15
1.50098e-05
2.82246e-14
1.5708e-05
2.33906e-15
1.64061e-05
6.94106e-15
1.71042e-05
-2.21546e-14
1.78024e-05
3.4105e-14
1.85005e-05
3.74137e-15
1.91986e-05
3.23428e-14
1.98967e-05
2.05949e-05
-6.71514e-15
4.53785e-06
7.30656e-15
5.23599e-06
-1.11017e-14
5.93412e-06
4.24086e-15
6.63225e-06
-1.51028e-14
7.33038e-06
5.20816e-15
8.02851e-06
-1.70137e-14
8.72664e-06
3.94045e-15
9.42478e-06
2.93304e-16
1.01229e-05
-6.6118e-15
1.0821e-05
-1.37066e-14
1.15192e-05
-1.0187e-14
1.22173e-05
-1.822e-14
1.29154e-05
-1.43704e-14
1.36136e-05
-2.33413e-14
1.43117e-05
2.53414e-14
1.50098e-05
-2.90716e-14
1.5708e-05
7.82363e-15
1.64061e-05
-3.54201e-14
1.71042e-05
4.50752e-15
1.78024e-05
-4.23749e-14
1.85005e-05
5.82222e-16
1.91986e-05
8.72476e-15
1.98967e-05
2.05949e-05
-5.98604e-15
4.53785e-06
-2.19122e-16
5.23599e-06
6.4351e-15
5.93412e-06
-6.06445e-15
6.63225e-06
2.09209e-15
7.33038e-06
-1.61776e-14
8.02851e-06
1.88297e-14
8.72664e-06
2.35011e-15
9.42478e-06
-9.17352e-15
1.01229e-05
4.70945e-15
1.0821e-05
-2.16289e-14
1.15192e-05
2.96431e-14
1.22173e-05
9.2884e-15
1.29154e-05
1.89046e-14
1.36136e-05
-4.46618e-15
1.43117e-05
-3.0159e-14
1.50098e-05
2.62166e-14
1.5708e-05
-4.37283e-16
1.64061e-05
2.11719e-14
1.71042e-05
-1.87167e-14
1.78024e-05
3.91424e-15
1.85005e-05
2.91593e-14
1.91986e-05
-1.52384e-14
1.98967e-05
2.05949e-05
8.67589e-15
4.53785e-06
-1.22927e-14
5.23599e-06
-1.88385e-15
5.93412e-06
-8.90251e-15
6.63225e-06
5.10806e-15
7.33038e-06
2.19901e-14
8.02851e-06
-1.22648e-14
8.72664e-06
5.37334e-15
9.42478e-06
-4.45782e-15
1.01229e-05
1.43028e-14
1.0821e-05
7.32411e-15
1.15192e-05
-7.04222e-15
1.22173e-05
-2.39971e-14
1.29154e-05
7.55391e-15
1.36136e-05
-9.8009e-15
1.43117e-05
1.62345e-14
1.50098e-05
-4.02967e-14
1.5708e-05
-1.44477e-14
1.64061e-05
1.37052e-14
1.71042e-05
7.89381e-15
1.78024e-05
3.92452e-14
1.85005e-05
-4.27559e-14
1.91986e-05
8.847e-15
1.98967e-05
2.05949e-05
-9.39916e-15
4.53785e-06
-5.20517e-16
5.23599e-06
-7.52852e-15
5.93412e-06
4.41146e-15
6.63225e-06
-3.78334e-15
7.33038e-06
-1.33862e-14
8.02851e-06
2.10896e-15
8.72664e-06
-8.5299e-15
9.42478e-06
1.00257e-14
1.01229e-05
-1.86794e-15
1.0821e-05
2.02006e-14
1.15192e-05
7.01112e-15
1.22173e-05
-7.5135e-15
1.29154e-05
-2.36107e-14
1.36136e-05
2.03973e-15
1.43117e-05
-1.48347e-14
1.50098e-05
1.38751e-14
1.5708e-05
-2.39545e-15
1.64061e-05
-2.04091e-14
1.71042e-05
7.01506e-15
1.78024e-05
-1.20724e-14
1.85005e-05
2.59375e-14
1.91986e-05
-1.85025e-15
1.98967e-05
2.05949e-05
1.13361e-14
4.53785e-06
4.80763e-16
5.23599e-06
5.35696e-15
5.93412e-06
1.13031e-14
6.63225e-06
-4.86928e-15
7.33038e-06
1.10807e-15
8.02851e-06
8.15803e-15
8.72664e-06
-1.30454e-14
9.42478e-06
-5.94997e-15
1.01229e-05
1.9948e-15
1.0821e-05
-2.43879e-14
1.15192e-05
-1.61911e-14
1.22173e-05
3.27853e-14
1.29154e-05
3.04983e-15
1.36136e-05
1.44403e-14
1.43117e-05
2.68997e-14
1.50098e-05
-7.74189e-15
1.5708e-05
4.43227e-15
1.64061e-05
1.80012e-14
1.71042e-05
-2.18245e-14
1.78024e-05
-8.21899e-15
1.85005e-05
6.08051e-15
1.91986e-05
-3.89228e-14
1.98967e-05
2.05949e-05
1.36938e-16
9.81747e-07
2.42045e-16
1.37445e-06
3.76949e-16
1.76715e-06
-1.33935e-15
2.15984e-06
-3.68171e-15
2.55254e-06
2.94524e-06
5.95107e-15
1.80685e-18
9.81747e-07
-3.88789e-16
1.37445e-06
-2.60422e-15
1.76715e-06
1.9435e-15
2.15984e-06
8.06612e-15
2.55254e-06
2.94524e-06
-9.02993e-15
-1.16484e-16
9.81747e-07
1.86331e-16
1.37445e-06
-1.56242e-15
1.76715e-06
-4.21257e-15
2.15984e-06
-7.49848e-15
2.55254e-06
2.94524e-06
7.72157e-16
8.69195e-17
9.81747e-07
-1.01933e-16
1.37445e-06
2.69322e-15
1.76715e-06
7.44272e-15
2.15984e-06
3.25975e-15
2.55254e-06
2.94524e-06
-2.79805e-15
-4.83889e-17
9.81747e-07
3.94779e-17
1.37445e-06
1.94282e-16
1.76715e-06
-1.80621e-15
2.15984e-06
-4.20868e-15
2.55254e-06
2.94524e-06
5.01323e-15
-1.80122e-16
9.81747e-07
4.28238e-18
1.37445e-06
-1.84782e-15
1.76715e-06
-3.88621e-15
2.15984e-06
3.15701e-15
2.55254e-06
2.94524e-06
4.98101e-16
2.53946e-16
9.81747e-07
2.55382e-16
1.37445e-06
2.06591e-15
1.76715e-06
4.504e-15
2.15984e-06
-2.31019e-15
2.55254e-06
2.94524e-06
5.40689e-16
2.1625e-17
9.81747e-07
-3.21735e-16
1.37445e-06
-1.14891e-15
1.76715e-06
-5.2857e-15
2.15984e-06
-3.76854e-16
2.55254e-06
2.94524e-06
-5.6401e-15
-1.43408e-16
9.81747e-07
1.6638e-16
1.37445e-06
4.19113e-15
1.76715e-06
6.34931e-15
2.15984e-06
-8.05787e-16
2.55254e-06
2.94524e-06
8.39035e-16
-6.88226e-17
9.81747e-07
-9.20871e-17
1.37445e-06
-2.76939e-15
1.76715e-06
-3.68847e-16
2.15984e-06
-1.45097e-15
2.55254e-06
2.94524e-06
-1.76851e-16
1.66305e-16
9.81747e-07
-8.87697e-17
1.37445e-06
5.69587e-16
1.76715e-06
-2.10358e-15
2.15984e-06
9.6598e-15
2.55254e-06
2.94524e-06
5.28992e-15
-1.77829e-16
9.81747e-07
-2.05598e-17
1.37445e-06
-3.45494e-16
1.76715e-06
-4.17279e-15
2.15984e-06
-2.62237e-15
2.55254e-06
2.94524e-06
5.36909e-15
1.77765e-16
9.81747e-07
2.04774e-17
1.37445e-06
3.45382e-16
1.76715e-06
4.17256e-15
2.15984e-06
2.62223e-15
2.55254e-06
2.94524e-06
-5.36956e-15
-1.66377e-16
9.81747e-07
8.86704e-17
1.37445e-06
-5.69781e-16
1.76715e-06
2.1034e-15
2.15984e-06
-9.65998e-15
2.55254e-06
2.94524e-06
-5.29032e-15
6.87872e-17
9.81747e-07
9.19934e-17
1.37445e-06
2.76925e-15
1.76715e-06
3.68692e-16
2.15984e-06
1.45077e-15
2.55254e-06
2.94524e-06
1.76433e-16
1.43374e-16
9.81747e-07
-1.66468e-16
1.37445e-06
-4.19126e-15
1.76715e-06
-6.34958e-15
2.15984e-06
8.0556e-16
2.55254e-06
2.94524e-06
-8.39449e-16
-2.16812e-17
9.81747e-07
3.21663e-16
1.37445e-06
1.14881e-15
1.76715e-06
5.28559e-15
2.15984e-06
3.76602e-16
2.55254e-06
2.94524e-06
5.63964e-15
-2.54024e-16
9.81747e-07
-2.55498e-16
1.37445e-06
-2.06599e-15
1.76715e-06
-4.50418e-15
2.15984e-06
2.3098e-15
2.55254e-06
2.94524e-06
-5.40957e-16
1.80085e-16
9.81747e-07
-4.33149e-18
1.37445e-06
1.84778e-15
1.76715e-06
3.88614e-15
2.15984e-06
-3.15724e-15
2.55254e-06
2.94524e-06
-4.98223e-16
4.83463e-17
9.81747e-07
-3.9524e-17
1.37445e-06
-1.94338e-16
1.76715e-06
1.80606e-15
2.15984e-06
4.20841e-15
2.55254e-06
2.94524e-06
-5.0135e-15
-8.69871e-17
9.81747e-07
1.01931e-16
1.37445e-06
-2.69325e-15
1.76715e-06
-7.44287e-15
2.15984e-06
-3.25991e-15
2.55254e-06
2.94524e-06
2.79811e-15
1.16423e-16
9.81747e-07
-1.86389e-16
1.37445e-06
1.56229e-15
1.76715e-06
4.21241e-15
2.15984e-06
7.49815e-15
2.55254e-06
2.94524e-06
-7.72276e-16
-1.85298e-18
9.81747e-07
3.88782e-16
1.37445e-06
2.6042e-15
1.76715e-06
-1.94365e-15
2.15984e-06
-8.06628e-15
2.55254e-06
2.94524e-06
9.02982e-15
-1.36981e-16
-2.42106e-16
-3.77006e-16
1.33923e-15
3.68149e-15
-5.95141e-15
-1.13363e-14
4.53785e-06
-4.81216e-16
5.23599e-06
-5.35738e-15
5.93412e-06
-1.1304e-14
6.63225e-06
4.86882e-15
7.33038e-06
-1.11061e-15
8.02851e-06
-8.15882e-15
8.72664e-06
1.30432e-14
9.42478e-06
5.94844e-15
1.01229e-05
-1.99722e-15
1.0821e-05
2.43867e-14
1.15192e-05
1.61884e-14
1.22173e-05
-3.27877e-14
1.29154e-05
-3.05267e-15
1.36136e-05
-1.44422e-14
1.43117e-05
-2.69031e-14
1.50098e-05
7.73624e-15
1.5708e-05
-4.44246e-15
1.64061e-05
-1.79995e-14
1.71042e-05
2.18203e-14
1.78024e-05
8.2088e-15
1.85005e-05
-6.08537e-15
1.91986e-05
3.89154e-14
1.98967e-05
2.05949e-05
9.39869e-15
4.53785e-06
5.20189e-16
5.23599e-06
7.52802e-15
5.93412e-06
-4.41215e-15
6.63225e-06
3.78326e-15
7.33038e-06
1.33839e-14
8.02851e-06
-2.1104e-15
8.72664e-06
8.52803e-15
9.42478e-06
-1.00275e-14
1.01229e-05
1.86543e-15
1.0821e-05
-2.02048e-14
1.15192e-05
-7.0142e-15
1.22173e-05
7.50872e-15
1.29154e-05
2.36083e-14
1.36136e-05
-2.04209e-15
1.43117e-05
1.48325e-14
1.50098e-05
-1.3882e-14
1.5708e-05
2.38805e-15
1.64061e-05
2.04094e-14
1.71042e-05
-7.01942e-15
1.78024e-05
1.20662e-14
1.85005e-05
-2.59449e-14
1.91986e-05
1.84131e-15
1.98967e-05
2.05949e-05
-8.6761e-15
4.53785e-06
1.22922e-14
5.23599e-06
1.88278e-15
5.93412e-06
8.9019e-15
6.63225e-06
-5.10869e-15
7.33038e-06
-2.19909e-14
8.02851e-06
1.2264e-14
8.72664e-06
-5.37522e-15
9.42478e-06
4.45503e-15
1.01229e-05
-1.43074e-14
1.0821e-05
-7.32743e-15
1.15192e-05
7.04035e-15
1.22173e-05
2.3994e-14
1.29154e-05
-7.55548e-15
1.36136e-05
9.79968e-15
1.43117e-05
-1.62366e-14
1.50098e-05
4.0293e-14
1.5708e-05
1.4445e-14
1.64061e-05
-1.37057e-14
1.71042e-05
-7.89785e-15
1.78024e-05
-3.9255e-14
1.85005e-05
4.27468e-14
1.91986e-05
-8.85752e-15
1.98967e-05
2.05949e-05
5.98574e-15
4.53785e-06
2.18773e-16
5.23599e-06
-6.43594e-15
5.93412e-06
6.06375e-15
6.63225e-06
-2.09314e-15
7.33038e-06
1.61758e-14
8.02851e-06
-1.88313e-14
8.72664e-06
-2.35158e-15
9.42478e-06
9.16988e-15
1.01229e-05
-4.71286e-15
1.0821e-05
2.16261e-14
1.15192e-05
-2.96462e-14
1.22173e-05
-9.29191e-15
1.29154e-05
-1.89061e-14
1.36136e-05
4.46661e-15
1.43117e-05
3.0156e-14
1.50098e-05
-2.62157e-14
1.5708e-05
4.32502e-16
1.64061e-05
-2.11728e-14
1.71042e-05
1.87142e-14
1.78024e-05
-3.92829e-15
1.85005e-05
-2.91619e-14
1.91986e-05
1.5225e-14
1.98967e-05
2.05949e-05
6.71495e-15
4.53785e-06
-7.30689e-15
5.23599e-06
1.11007e-14
5.93412e-06
-4.2415e-15
6.63225e-06
1.51018e-14
7.33038e-06
-5.21018e-15
8.02851e-06
1.70128e-14
8.72664e-06
-3.94141e-15
9.42478e-06
-2.955e-16
1.01229e-05
6.609e-15
1.0821e-05
1.37051e-14
1.15192e-05
1.01842e-14
1.22173e-05
1.82162e-14
1.29154e-05
1.43678e-14
1.36136e-05
2.33405e-14
1.43117e-05
-2.53412e-14
1.50098e-05
2.90723e-14
1.5708e-05
-7.83193e-15
1.64061e-05
3.54172e-14
1.71042e-05
-4.516e-15
1.78024e-05
4.23658e-14
1.85005e-05
-5.8723e-16
1.91986e-05
-8.73632e-15
1.98967e-05
2.05949e-05
-4.63078e-15
4.53785e-06
5.79723e-15
5.23599e-06
-1.61507e-14
5.93412e-06
-5.97498e-15
6.63225e-06
-8.55534e-15
7.33038e-06
4.22337e-15
8.02851e-06
-8.18741e-15
8.72664e-06
6.99909e-15
9.42478e-06
-2.42304e-14
1.01229e-05
-7.77057e-15
1.0821e-05
-2.27653e-14
1.15192e-05
8.34883e-15
1.22173e-05
-7.4053e-15
1.29154e-05
2.82656e-14
1.36136e-05
-4.57115e-14
1.43117e-05
-8.22439e-15
1.50098e-05
-2.82283e-14
1.5708e-05
-2.34228e-15
1.64061e-05
-6.9478e-15
1.71042e-05
2.21463e-14
1.78024e-05
-3.41123e-14
1.85005e-05
-3.73922e-15
1.91986e-05
-3.23472e-14
1.98967e-05
2.05949e-05
-8.92538e-15
4.53785e-06
-2.28907e-15
5.23599e-06
-2.22399e-15
5.93412e-06
6.61612e-15
6.63225e-06
-3.38881e-15
7.33038e-06
-3.90693e-15
8.02851e-06
-6.41924e-15
8.72664e-06
-7.1596e-15
9.42478e-06
6.80982e-15
1.01229e-05
6.98076e-15
1.0821e-05
-9.06501e-15
1.15192e-05
6.75793e-15
1.22173e-05
-2.88894e-14
1.29154e-05
-1.22348e-14
1.36136e-05
4.80316e-15
1.43117e-05
2.50244e-14
1.50098e-05
3.8609e-15
1.5708e-05
3.60662e-15
1.64061e-05
-2.04889e-14
1.71042e-05
-2.17629e-14
1.78024e-05
3.46543e-15
1.85005e-05
2.90361e-14
1.91986e-05
-1.6627e-15
1.98967e-05
2.05949e-05
6.21551e-15
4.53785e-06
-3.87949e-15
5.23599e-06
1.54214e-14
5.93412e-06
-7.06527e-15
6.63225e-06
-2.21059e-15
7.33038e-06
1.42869e-15
8.02851e-06
-5.49294e-15
8.72664e-06
1.32252e-14
9.42478e-06
6.04532e-15
1.01229e-05
-1.74525e-14
1.0821e-05
2.08868e-14
1.15192e-05
-2.1447e-14
1.22173e-05
1.91324e-14
1.29154e-05
-7.31709e-15
1.36136e-05
3.8485e-14
1.43117e-05
-1.2922e-14
1.50098e-05
-1.88637e-15
1.5708e-05
5.71475e-15
1.64061e-05
-7.58981e-15
1.71042e-05
2.76577e-14
1.78024e-05
1.4093e-14
1.85005e-05
-5.31424e-14
1.91986e-05
3.90841e-14
1.98967e-05
2.05949e-05
-1.49901e-15
4.53785e-06
1.08968e-14
5.23599e-06
-6.59971e-15
5.93412e-06
7.26498e-15
6.63225e-06
6.1749e-15
7.33038e-06
2.4878e-15
8.02851e-06
-9.64623e-16
8.72664e-06
-4.36604e-15
9.42478e-06
-8.90203e-15
1.01229e-05
1.38621e-14
1.0821e-05
1.06898e-14
1.15192e-05
6.24987e-15
1.22173e-05
-1.29791e-16
1.29154e-05
-3.43852e-15
1.36136e-05
-1.10444e-14
1.43117e-05
-1.7765e-14
1.50098e-05
1.76794e-14
1.5708e-05
9.95119e-15
1.64061e-05
3.32619e-15
1.71042e-05
-3.29676e-14
1.78024e-05
-1.04301e-14
1.85005e-05
3.00656e-14
1.91986e-05
-5.99964e-14
1.98967e-05
2.05949e-05
5.16988e-15
4.53785e-06
-7.4559e-15
5.23599e-06
-7.5706e-16
5.93412e-06
6.83889e-15
6.63225e-06
-9.97457e-15
7.33038e-06
-1.66459e-15
8.02851e-06
9.21843e-15
8.72664e-06
-1.34604e-14
9.42478e-06
2.3219e-14
1.01229e-05
1.04722e-14
1.0821e-05
-1.72739e-14
1.15192e-05
-3.02824e-15
1.22173e-05
1.13975e-14
1.29154e-05
-1.98194e-14
1.36136e-05
-4.67799e-15
1.43117e-05
5.03066e-14
1.50098e-05
-2.40451e-14
1.5708e-05
-6.65837e-15
1.64061e-05
1.42548e-14
1.71042e-05
1.64802e-15
1.78024e-05
-6.81262e-15
1.85005e-05
1.44416e-14
1.91986e-05
5.07536e-14
1.98967e-05
2.05949e-05
-6.19758e-15
4.53785e-06
2.81032e-17
5.23599e-06
1.15114e-14
5.93412e-06
-2.06269e-14
6.63225e-06
5.36618e-15
7.33038e-06
1.22093e-15
8.02851e-06
-4.79342e-17
8.72664e-06
1.23924e-14
9.42478e-06
-1.32273e-14
1.01229e-05
-1.88954e-14
1.0821e-05
-4.96401e-15
1.15192e-05
-7.15524e-15
1.22173e-05
-1.48886e-14
1.29154e-05
3.53371e-14
1.36136e-05
-1.74858e-18
1.43117e-05
-4.31398e-14
1.50098e-05
1.35608e-14
1.5708e-05
-2.82582e-14
1.64061e-05
2.45083e-15
1.71042e-05
-1.02433e-14
1.78024e-05
2.38032e-14
1.85005e-05
1.38724e-14
1.91986e-05
-4.55654e-14
1.98967e-05
2.05949e-05
-1.90668e-15
4.53785e-06
1.1304e-15
5.23599e-06
-2.16624e-14
5.93412e-06
9.62333e-15
6.63225e-06
1.51368e-14
7.33038e-06
-1.40657e-14
8.02851e-06
8.09179e-15
8.72664e-06
-2.69604e-14
9.42478e-06
-1.96635e-15
1.01229e-05
2.97167e-14
1.0821e-05
-1.17456e-14
1.15192e-05
1.98665e-14
1.22173e-05
-2.74463e-14
1.29154e-05
-2.06164e-14
1.36136e-05
1.60413e-14
1.43117e-05
-4.61522e-15
1.50098e-05
4.69257e-15
1.5708e-05
4.796e-14
1.64061e-05
-1.37424e-14
1.71042e-05
3.23671e-14
1.78024e-05
-3.51906e-14
1.85005e-05
-2.49076e-14
1.91986e-05
7.19113e-14
1.98967e-05
2.05949e-05
1.9067e-15
4.53785e-06
-1.13085e-15
5.23599e-06
2.16617e-14
5.93412e-06
-9.62457e-15
6.63225e-06
-1.51373e-14
7.33038e-06
1.40647e-14
8.02851e-06
-8.09262e-15
8.72664e-06
2.6959e-14
9.42478e-06
1.96471e-15
1.01229e-05
-2.97178e-14
1.0821e-05
1.1743e-14
1.15192e-05
-1.9866e-14
1.22173e-05
2.7444e-14
1.29154e-05
2.06156e-14
1.36136e-05
-1.6042e-14
1.43117e-05
4.61155e-15
1.50098e-05
-4.69334e-15
1.5708e-05
-4.79678e-14
1.64061e-05
1.37393e-14
1.71042e-05
-3.23705e-14
1.78024e-05
3.51811e-14
1.85005e-05
2.49024e-14
1.91986e-05
-7.1916e-14
1.98967e-05
2.05949e-05
6.19704e-15
4.53785e-06
-2.88318e-17
5.23599e-06
-1.15117e-14
5.93412e-06
2.06252e-14
6.63225e-06
-5.36715e-15
7.33038e-06
-1.2225e-15
8.02851e-06
4.67254e-17
8.72664e-06
-1.2394e-14
9.42478e-06
1.32262e-14
1.01229e-05
1.88941e-14
1.0821e-05
4.96223e-15
1.15192e-05
7.1539e-15
1.22173e-05
1.48848e-14
1.29154e-05
-3.53401e-14
1.36136e-05
-1.55009e-18
1.43117e-05
4.31342e-14
1.50098e-05
-1.35636e-14
1.5708e-05
2.82507e-14
1.64061e-05
-2.45391e-15
1.71042e-05
1.02435e-14
1.78024e-05
-2.38044e-14
1.85005e-05
-1.38815e-14
1.91986e-05
4.55581e-14
1.98967e-05
2.05949e-05
-5.17016e-15
4.53785e-06
7.455e-15
5.23599e-06
7.56466e-16
5.93412e-06
-6.84011e-15
6.63225e-06
9.97338e-15
7.33038e-06
1.66451e-15
8.02851e-06
-9.2206e-15
8.72664e-06
1.34583e-14
9.42478e-06
-2.32212e-14
1.01229e-05
-1.04743e-14
1.0821e-05
1.7271e-14
1.15192e-05
3.02586e-15
1.22173e-05
-1.13992e-14
1.29154e-05
1.98114e-14
1.36136e-05
4.67811e-15
1.43117e-05
-5.03079e-14
1.50098e-05
2.40462e-14
1.5708e-05
6.65804e-15
1.64061e-05
-1.42655e-14
1.71042e-05