/*--------------------------------*- C++ -*----------------------------------*\
  =========                 |
  \\      /  F ield         | OpenFOAM: The Open Source CFD Toolbox
   \\    /   O peration     | Website:  https://openfoam.org
    \\  /    A nd           | Version:  11
     \\/     M anipulation  |
\*---------------------------------------------------------------------------*/
FoamFile
{
    format      ascii;
    class       volScalarField;
    location    "1.84";
    object      p;
}
// * * * * * * * * * * * * * * * * * * * * * * * * * * * * * * * * * * * * * //

dimensions      [0 2 -2 0 0 0 0];

internalField   nonuniform List<scalar> 
2880
(
1.40225
1.4298
1.4566
1.49127
1.49677
1.47909
1.40233
1.42572
1.44637
1.46822
1.43169
1.35294
1.40234
1.42042
1.4326
1.44204
1.39155
1.28557
1.4021
1.41607
1.42021
1.41833
1.36139
1.25597
1.40147
1.41289
1.41007
1.39891
1.3404
1.24396
1.40034
1.40987
1.40147
1.38331
1.32569
1.23935
1.39866
1.40627
1.39368
1.37054
1.31498
1.2382
1.39646
1.40184
1.38631
1.35986
1.30686
1.23837
1.39386
1.39666
1.37927
1.35079
1.30038
1.23853
1.39099
1.39101
1.37266
1.34305
1.29492
1.2384
1.38802
1.38525
1.36662
1.33633
1.29025
1.23758
1.38508
1.37973
1.36134
1.33073
1.28594
1.23589
1.38227
1.37471
1.35692
1.32619
1.28188
1.23326
1.37966
1.3704
1.35343
1.32272
1.2781
1.22985
1.37729
1.36693
1.35089
1.32037
1.2747
1.22596
1.37516
1.36433
1.34926
1.31918
1.27179
1.22205
1.37328
1.36259
1.34844
1.31926
1.26953
1.2188
1.37165
1.3616
1.34828
1.32072
1.26813
1.21729
1.3703
1.36114
1.34859
1.32364
1.2679
1.21924
1.36927
1.36083
1.34908
1.3279
1.26919
1.22866
1.36855
1.36003
1.34924
1.33291
1.27209
1.25448
1.36802
1.35797
1.34849
1.33801
1.27662
1.30903
1.36753
1.3547
1.34709
1.34483
1.28546
1.38992
1.36715
1.35231
1.3468
1.35728
1.30438
1.46045
0.365829
0.431535
0.439732
0.460828
0.477797
0.486036
0.487491
0.484554
0.479225
0.473071
0.467128
0.461817
0.457212
0.453321
0.450127
0.447585
0.44564
0.444213
0.443019
0.441341
0.439414
0.443201
0.4618
0.4597
0.65599
0.59073
0.562633
0.558687
0.556885
0.551971
0.543829
0.533618
0.522699
0.512245
0.502983
0.495085
0.488441
0.482938
0.478475
0.474937
0.472207
0.470152
0.468444
0.466374
0.464189
0.467513
0.484612
0.482257
0.826151
0.723651
0.670471
0.646541
0.629349
0.613019
0.596288
0.579475
0.563462
0.54909
0.536804
0.526543
0.518034
0.511062
0.505445
0.501007
0.497571
0.49495
0.492784
0.490385
0.488013
0.490876
0.506339
0.503903
0.927524
0.825254
0.760281
0.722556
0.693624
0.667999
0.643971
0.621427
0.600952
0.58314
0.568187
0.55583
0.545663
0.537385
0.530749
0.525519
0.521464
0.518346
0.515782
0.513121
0.510632
0.513038
0.526773
0.524395
0.999826
0.903548
0.833471
0.786777
0.749235
0.716338
0.686349
0.659012
0.634768
0.614037
0.596809
0.582645
0.571045
0.561641
0.554132
0.548229
0.543649
0.540109
0.537212
0.534354
0.531806
0.53376
0.545714
0.543494
1.05332
0.963965
0.892231
0.839921
0.796282
0.757887
0.72319
0.691978
0.664657
0.641535
0.622426
0.606755
0.593957
0.583615
0.575384
0.568931
0.563923
0.560036
0.556868
0.553872
0.551312
0.552817
0.562976
0.560978
1.09307
1.00923
0.938536
0.882992
0.835194
0.792777
0.754475
0.720235
0.69049
0.665478
0.644869
0.627986
0.614222
0.603131
0.594334
0.587453
0.582112
0.577949
0.574566
0.571483
0.568943
0.570006
0.578397
0.57665
1.12133
1.0432
0.974286
0.917056
0.866558
0.821302
0.78033
0.743806
0.712228
0.685785
0.664032
0.646216
0.631713
0.620058
0.610843
0.603652
0.598064
0.59369
0.590142
0.58701
0.584517
0.585162
0.591857
0.590338
1.141
1.068
1.00105
0.943136
0.891008
0.84383
0.800958
0.76279
0.729898
0.702433
0.679858
0.661369
0.646341
0.634297
0.624805
0.61741
0.611654
0.607123
0.603452
0.600303
0.597882
0.598168
0.603274
0.601832
1.15383
1.08518
1.0201
0.962129
0.909142
0.860743
0.816595
0.777321
0.743564
0.715436
0.692328
0.673405
0.658051
0.64578
0.636137
0.628633
0.622772
0.61813
0.614365
0.611214
0.608872
0.608849
0.612481
0.610939
1.16118
1.09595
1.03245
0.974784
0.921488
0.872398
0.827479
0.787551
0.753312
0.724836
0.701452
0.682314
0.666815
0.654465
0.644785
0.637252
0.631341
0.626622
0.622789
0.619641
0.617346
0.616985
0.619312
0.617936
1.16388
1.10117
1.03887
0.981708
0.928483
0.879112
0.833833
0.79363
0.75924
0.730691
0.707262
0.688109
0.672632
0.660337
0.650721
0.643229
0.637318
0.632563
0.628693
0.625563
0.623291
0.622581
0.623847
0.622893
1.16242
1.10141
1.03988
0.983356
0.930472
0.881143
0.835846
0.795697
0.761445
0.733069
0.709807
0.690823
0.675523
0.663404
0.653942
0.646558
0.640698
0.635951
0.632088
0.629006
0.626759
0.62575
0.626209
0.625672
1.15696
1.09695
1.03578
0.980015
0.92769
0.878679
0.833667
0.793867
0.760018
0.732042
0.709148
0.690504
0.675522
0.663691
0.654465
0.647249
0.641488
0.636795
0.632974
0.629956
0.62777
0.626587
0.626455
0.626178
1.14746
1.08788
1.02667
0.971805
0.920253
0.871833
0.827398
0.788229
0.755036
0.727682
0.70535
0.687213
0.672682
0.661241
0.652327
0.645335
0.639722
0.635127
0.631385
0.628449
0.62633
0.625068
0.624616
0.624505
1.13354
1.07402
1.01242
0.958687
0.908166
0.860641
0.817094
0.77885
0.746573
0.720067
0.698491
0.681022
0.667073
0.656118
0.647587
0.640876
0.635461
0.63101
0.627383
0.624546
0.622498
0.621238
0.62072
0.620698
1.11448
1.05496
0.992659
0.940442
0.891324
0.845077
0.80278
0.765787
0.734705
0.709282
0.688662
0.672022
0.65878
0.648406
0.640328
0.633953
0.628786
0.624525
0.621048
0.618322
0.616347
0.615176
0.614833
0.614785
1.08914
1.02998
0.966807
0.916711
0.869518
0.825063
0.784461
0.749096
0.719517
0.695431
0.675971
0.660324
0.647914
0.638214
0.630657
0.624674
0.619805
0.615778
0.612484
0.60988
0.607983
0.606984
0.607057
0.606897
1.05571
0.997995
0.934094
0.88704
0.842501
0.800496
0.762137
0.728844
0.701119
0.678642
0.660556
0.646066
0.63461
0.625673
0.618705
0.613171
0.608649
0.6049
0.601818
0.599348
0.597533
0.596784
0.597495
0.597138
1.01104
0.957261
0.89344
0.850867
0.810028
0.771312
0.735853
0.705139
0.679653
0.659075
0.642582
0.629412
0.619029
0.610941
0.604631
0.599601
0.595474
0.59204
0.5892
0.586872
0.585142
0.584712
0.58626
0.585624
0.950257
0.904956
0.843392
0.807538
0.771905
0.737551
0.705759
0.678174
0.655326
0.636941
0.622253
0.610556
0.601359
0.594204
0.588614
0.58414
0.580451
0.577369
0.574795
0.572621
0.570978
0.570926
0.57349
0.572503
0.866245
0.836584
0.782256
0.756513
0.728109
0.699433
0.672158
0.648262
0.628437
0.612516
0.599822
0.589735
0.58182
0.575671
0.570858
0.566986
0.563773
0.561073
0.558788
0.556777
0.55523
0.555614
0.559351
0.557948
0.74374
0.745922
0.708543
0.69775
0.67907
0.657478
0.635546
0.615844
0.599373
0.586139
0.575591
0.56722
0.560664
0.555575
0.551583
0.54835
0.545643
0.543351
0.541373
0.53954
0.538105
0.538993
0.544049
0.54208
0.546323
0.626758
0.622752
0.632453
0.625967
0.612587
0.59662
0.581484
0.568601
0.558206
0.549904
0.543314
0.538164
0.53417
0.531026
0.528454
0.526271
0.524398
0.522737
0.521084
0.519747
0.521123
0.527643
0.525261
-0.0509228
-0.105564
-0.160241
-0.244167
-0.258516
-0.605041
-0.0571589
-0.107934
-0.160248
-0.239846
-0.250203
-0.340997
-0.0663922
-0.109672
-0.15646
-0.227993
-0.237639
-0.2338
-0.0668556
-0.108183
-0.148868
-0.209137
-0.211351
-0.181735
-0.0612903
-0.104819
-0.138921
-0.184944
-0.177955
-0.139077
-0.0573573
-0.100581
-0.126636
-0.157843
-0.143788
-0.100534
-0.0547403
-0.0938684
-0.111973
-0.129976
-0.111504
-0.067442
-0.0507376
-0.0847066
-0.0952227
-0.102522
-0.081315
-0.0393549
-0.0453136
-0.0736357
-0.0771085
-0.0761266
-0.0530604
-0.0149506
-0.0386946
-0.0612944
-0.0584962
-0.0510106
-0.0268087
0.00660515
-0.0312103
-0.0481255
-0.0401246
-0.027305
-0.0028314
0.0256947
-0.0231891
-0.0345521
-0.0224998
-0.0051538
0.0189385
0.0423695
-0.0149373
-0.0209974
-0.00595057
0.0151677
0.0385521
0.056664
-0.00672987
-0.00784552
0.00929854
0.0334395
0.055811
0.0685918
0.00119619
0.00458001
0.0231432
0.0494602
0.07056
0.0783673
0.00863856
0.0160201
0.035587
0.063184
0.0826661
0.0857682
0.0154198
0.0263008
0.0467761
0.0747557
0.0921833
0.0903676
0.0213859
0.0353687
0.0569042
0.0846821
0.0994075
0.0921132
0.0264146
0.0433013
0.06632
0.0938441
0.104855
0.0914248
0.0305994
0.0504387
0.0755881
0.10338
0.109715
0.089289
0.0347781
0.057465
0.0858006
0.114935
0.116522
0.0879505
0.0383468
0.0648906
0.0985349
0.131243
0.129443
0.0920067
0.0380119
0.0720412
0.113981
0.15347
0.152317
0.0984448
0.037741
0.0774256
0.127653
0.173227
0.181804
0.107509
0.147649
0.478233
0.530548
0.564044
0.570814
0.566008
0.556239
0.545834
0.536648
0.529154
0.523132
0.518343
0.514609
0.511719
0.50943
0.507525
0.505868
0.504411
0.503061
0.501571
0.500273
0.502035
0.510107
0.507711
0.00973954
0.340455
0.443744
0.497593
0.516021
0.519159
0.515381
0.509632
0.504094
0.499453
0.495666
0.492644
0.4903
0.488494
0.487048
0.4858
0.484658
0.483603
0.482546
0.481194
0.479871
0.481899
0.491533
0.48953
-0.00723839
0.256052
0.372936
0.437115
0.463832
0.473563
0.475135
0.473673
0.471542
0.469576
0.467897
0.46655
0.465532
0.464767
0.464136
0.463525
0.462882
0.462214
0.461434
0.460206
0.458848
0.461124
0.472239
0.470546
-0.00587029
0.206534
0.318299
0.384608
0.416033
0.430593
0.436494
0.438683
0.439538
0.439956
0.440184
0.440374
0.440586
0.440797
0.440938
0.440938
0.440778
0.440487
0.43998
0.438885
0.43753
0.440117
0.452629
0.450856
-0.00101493
0.173765
0.275358
0.339708
0.373206
0.390923
0.40005
0.405151
0.408486
0.410931
0.412824
0.414381
0.415705
0.416814
0.417676
0.418255
0.41856
0.418637
0.418404
0.417458
0.416138
0.419052
0.432897
0.430951
0.00824251
0.150893
0.240905
0.301211
0.335023
0.354577
0.36598
0.373309
0.378621
0.382729
0.386036
0.388782
0.391094
0.393013
0.394539
0.395663
0.396413
0.39685
0.396893
0.396112
0.394851
0.398073
0.413154
0.411095
0.0200661
0.134959
0.213141
0.268115
0.301028
0.321379
0.334264
0.343215
0.350044
0.355489
0.359972
0.363736
0.366911
0.369556
0.371689
0.373323
0.374499
0.375289
0.375614
0.37502
0.373845
0.37735
0.393547
0.391493
0.0320125
0.123676
0.190736
0.239511
0.270734
0.29109
0.304806
0.314852
0.322785
0.329282
0.33473
0.339353
0.343277
0.346567
0.349255
0.351366
0.352953
0.354094
0.35471
0.354331
0.353279
0.357038
0.374212
0.372344
0.0429538
0.115379
0.172252
0.214694
0.243635
0.263387
0.27741
0.288135
0.296839
0.304138
0.310361
0.315702
0.320273
0.324139
0.327337
0.329901
0.331889
0.333382
0.334305
0.334176
0.333288
0.337269
0.355257
0.353846
0.0525952
0.109115
0.156391
0.192895
0.21918
0.237907
0.251828
0.262897
0.272122
0.28002
0.286864
0.292807
0.297944
0.302333
0.30601
0.309013
0.3114
0.313254
0.314505
0.314667
0.313992
0.318149
0.336751
0.336214
0.0608912
0.104021
0.142327
0.173357
0.196816
0.214267
0.227799
0.238949
0.248501
0.256848
0.264195
0.270657
0.276303
0.28118
0.285323
0.288766
0.291565
0.293801
0.295411
0.295914
0.295499
0.299751
0.3187
0.31972
0.0677243
0.0993634
0.12945
0.155418
0.176014
0.19206
0.205032
0.216091
0.225824
0.234509
0.242276
0.249199
0.255323
0.26068
0.265298
0.269206
0.272452
0.275111
0.277128
0.278036
0.277926
0.28211
0.301
0.304818
0.0729463
0.09452
0.117215
0.13846
0.156274
0.170886
0.1832
0.194071
0.203899
0.212851
0.220991
0.228349
0.234945
0.240799
0.245929
0.250355
0.254115
0.257269
0.259778
0.261212
0.261471
0.26518
0.283193
0.292612
0.0764281
0.0888808
0.10487
0.121873
0.1371
0.150324
0.16197
0.172618
0.182505
0.191694
0.200187
0.207978
0.215066
0.221456
0.22716
0.232192
0.236574
0.240345
0.243491
0.245707
0.246623
0.24884
0.262811
0.286513
0.0779077
0.0818719
0.0918504
0.10505
0.117994
0.129946
0.140995
0.151449
0.161402
0.170831
0.179685
0.187924
0.195531
0.202504
0.208853
0.214596
0.219755
0.224351
0.228371
0.231753
0.234305
0.235206
0.235456
0.291634
0.0768485
0.0729173
0.0776799
0.0874234
0.0984884
0.109389
0.119955
0.130285
0.140347
0.150045
0.15928
0.167989
0.176137
0.183719
0.190749
0.19726
0.203305
0.208956
0.214244
0.219001
0.223239
0.229717
0.245344
0.255058
0.0723957
0.0611486
0.0615561
0.0686377
0.0781827
0.0882872
0.0985435
0.108863
0.119109
0.129122
0.13877
0.147962
0.156648
0.16481
0.172453
0.1796
0.186294
0.19259
0.198448
0.20354
0.208052
0.216434
0.23568
0.228691
0.063489
0.0456709
0.042779
0.0480884
0.0566297
0.0662947
0.0764809
0.0869477
0.0974795
0.107874
0.117972
0.127663
0.136879
0.145587
0.153773
0.161443
0.16862
0.175341
0.181538
0.186854
0.191571
0.200603
0.220598
0.208494
0.0490229
0.0254157
0.0206593
0.0252195
0.0334289
0.0431154
0.0535398
0.064354
0.0752994
0.0861558
0.0967503
0.10696
0.116705
0.125934
0.134618
0.142744
0.15032
0.157378
0.163879
0.169483
0.174516
0.184012
0.204306
0.190398
0.0280319
-0.000822491
-0.00551953
-0.000414958
0.00826537
0.0185269
0.0295606
0.0409583
0.0524635
0.0638711
0.0750145
0.0857698
0.0960496
0.105793
0.114954
0.123504
0.131436
0.138799
0.145592
0.151496
0.156891
0.166754
0.187123
0.173131
-2.21893e-05
-0.0339654
-0.0362116
-0.0291066
-0.0191028
-0.00763141
0.00444771
0.0166991
0.0289253
0.0409791
0.0527264
0.0640572
0.0748873
0.0851503
0.0947912
0.103765
0.112053
0.11972
0.126795
0.133011
0.138785
0.148891
0.169127
0.156256
-0.034905
-0.0739712
-0.0713935
-0.0608625
-0.0487272
-0.0353784
-0.0217931
-0.00840569
0.00470319
0.0174939
0.0298953
0.04183
0.0532291
0.0640294
0.074171
0.083597
0.0922747
0.100267
0.107632
0.114171
0.120317
0.130527
0.150394
0.139553
-0.0788476
-0.118678
-0.109872
-0.0956989
-0.0804371
-0.064712
-0.0491707
-0.0343307
-0.0201575
-0.00653652
0.00656327
0.0191243
0.0311101
0.0424708
0.0531484
0.0630786
0.0722094
0.0805814
0.0882637
0.0951471
0.101648
0.111807
0.131023
0.122902
-0.140835
-0.167062
-0.150779
-0.132498
-0.113385
-0.0948316
-0.0775089
-0.0610587
-0.0456482
-0.031084
-0.0172347
-0.00402665
0.00856222
0.0205083
0.0317664
0.0422717
0.0519533
0.0608038
0.0688829
0.0761563
0.0830089
0.0929645
0.111202
0.106271
-0.312806
-0.305276
-0.311049
-0.322147
-0.340253
-0.374268
-0.31521
-0.308158
-0.316375
-0.329833
-0.348886
-0.38509
-0.320241
-0.312158
-0.322783
-0.337634
-0.35525
-0.381073
-0.323604
-0.315342
-0.327787
-0.342983
-0.359126
-0.37851
-0.322349
-0.317298
-0.331188
-0.346422
-0.361695
-0.377728
-0.319117
-0.318975
-0.33368
-0.348865
-0.36359
-0.377497
-0.318581
-0.32143
-0.335893
-0.350768
-0.365001
-0.377325
-0.320069
-0.324229
-0.33793
-0.352338
-0.365922
-0.377016
-0.321529
-0.326901
-0.339692
-0.353614
-0.366386
-0.376536
-0.322705
-0.329262
-0.341133
-0.354508
-0.366493
-0.37589
-0.3236
-0.331226
-0.342207
-0.354992
-0.366294
-0.375093
-0.32421
-0.332736
-0.34285
-0.35508
-0.365812
-0.374164
-0.324539
-0.333719
-0.343027
-0.354792
-0.365065
-0.373117
-0.324603
-0.334189
-0.342735
-0.354134
-0.364062
-0.371955
-0.324445
-0.334171
-0.341989
-0.35311
-0.362794
-0.370649
-0.324148
-0.33372
-0.340818
-0.351722
-0.361226
-0.369127
-0.323845
-0.332917
-0.339278
-0.349966
-0.359292
-0.367249
-0.32363
-0.331851
-0.337452
-0.347826
-0.356879
-0.364794
-0.323348
-0.330631
-0.335451
-0.345285
-0.353843
-0.361433
-0.321341
-0.329494
-0.333467
-0.342372
-0.350012
-0.356616
-0.317116
-0.329013
-0.331896
-0.339248
-0.345138
-0.349134
-0.317518
-0.329717
-0.331199
-0.336071
-0.338615
-0.336644
-0.32156
-0.330966
-0.330984
-0.332268
-0.328922
-0.315459
-0.323528
-0.331368
-0.329299
-0.326191
-0.315031
-0.284778
-0.244588
-0.218218
-0.193546
-0.169931
-0.147097
-0.125191
-0.105819
-0.0882333
-0.0717183
-0.0561584
-0.0415074
-0.0276242
-0.0144135
-0.00186146
0.0100246
0.0211893
0.031549
0.0410366
0.0496655
0.0574439
0.0647194
0.0743901
0.0912722
0.089694
-0.301401
-0.268021
-0.236374
-0.20703
-0.180686
-0.156288
-0.134253
-0.114865
-0.0976243
-0.0815953
-0.0663297
-0.0517688
-0.0378883
-0.0247114
-0.0121433
-0.000232361
0.0109353
0.0212718
0.0307056
0.0392166
0.04708
0.0565268
0.0717535
0.0733743
-0.337394
-0.305498
-0.27365
-0.243391
-0.214259
-0.187613
-0.163887
-0.142327
-0.123227
-0.106313
-0.0910406
-0.0764431
-0.0620926
-0.0483736
-0.0349969
-0.0221869
-0.0100603
0.00135068
0.0119118
0.0215152
0.0303048
0.039843
0.0533924
0.0578239
-0.35968
-0.333857
-0.304899
-0.274815
-0.246128
-0.219922
-0.1946
-0.171466
-0.151148
-0.132561
-0.115563
-0.100278
-0.0861187
-0.0724259
-0.0587875
-0.0451785
-0.0319805
-0.0191654
-0.00707048
0.00410683
0.0143655
0.0245936
0.0369402
0.0438537
-0.371527
-0.354534
-0.330237
-0.302357
-0.274253
-0.247693
-0.223591
-0.201999
-0.181185
-0.161504
-0.143634
-0.127094
-0.111277
-0.0960352
-0.0818802
-0.0682986
-0.0546635
-0.0408075
-0.0270209
-0.0137981
-0.00129232
0.0106544
0.0229296
0.0322016
-0.377467
-0.367955
-0.349237
-0.325094
-0.29879
-0.272795
-0.248865
-0.227084
-0.207544
-0.190215
-0.173755
-0.157079
-0.140398
-0.124273
-0.108477
-0.0926306
-0.076907
-0.0619231
-0.0472812
-0.0325
-0.0176354
-0.00289737
0.0111678
0.0232149
-0.380457
-0.375741
-0.362112
-0.342213
-0.318868
-0.294539
-0.271129
-0.249471
-0.230066
-0.212586
-0.196512
-0.181838
-0.168008
-0.153711
-0.138217
-0.121473
-0.104093
-0.0864734
-0.0686044
-0.0507879
-0.0336449
-0.0167613
-0.000664049
0.0187198
-0.381862
-0.379866
-0.370035
-0.353991
-0.333856
-0.311795
-0.289553
-0.268326
-0.24877
-0.230942
-0.21478
-0.200173
-0.186483
-0.172974
-0.159339
-0.145296
-0.130023
-0.112826
-0.0937553
-0.0732066
-0.0519612
-0.0301815
-0.00891339
0.0143673
-0.382288
-0.381803
-0.374559
-0.361557
-0.344315
-0.324534
-0.303739
-0.283112
-0.263409
-0.24504
-0.228132
-0.212616
-0.198246
-0.184671
-0.171465
-0.158002
-0.143591
-0.127799
-0.110409
-0.091075
-0.069471
-0.0451018
-0.0199206
0.00735957
-0.382081
-0.382464
-0.377001
-0.366333
-0.351528
-0.333856
-0.314507
-0.294524
-0.274691
-0.255554
-0.237443
-0.220491
-0.204643
-0.18974
-0.17548
-0.161412
-0.147047
-0.131902
-0.115452
-0.0970723
-0.0762795
-0.0523602
-0.0261843
0.00385578
-0.381494
-0.382419
-0.3783
-0.369539
-0.356904
-0.341248
-0.323437
-0.304297
-0.284504
-0.264619
-0.245081
-0.226195
-0.208115
-0.190884
-0.174448
-0.158588
-0.142931
-0.127032
-0.110415
-0.0925887
-0.0730855
-0.0511851
-0.0265621
0.000647104
-0.38072
-0.38205
-0.379096
-0.372078
-0.361624
-0.348119
-0.332177
-0.314377
-0.295146
-0.274942
-0.254197
-0.233309
-0.212605
-0.192351
-0.172769
-0.153906
-0.135639
-0.117739
-0.0998913
-0.0817207
-0.0628776
-0.043039
-0.0220834
-0.00156284
-0.379902
-0.38162
-0.379822
-0.374571
-0.366501
-0.355555
-0.342048
-0.32636
-0.308571
-0.288938
-0.267807
-0.245589
-0.222637
-0.199309
-0.176065
-0.153238
-0.13103
-0.109608
-0.0890252
-0.0691962
-0.0499519
-0.0309104
-0.011552
0.00519721
-0.379146
-0.381297
-0.380767
-0.377464
-0.371972
-0.364167
-0.353984
-0.341445
-0.32641
-0.308854
-0.288914
-0.266761
-0.242416
-0.216232
-0.188945
-0.161271
-0.134028
-0.107881
-0.0831642
-0.0600639
-0.0386053
-0.0177347
0.00509115
0.0245208
-0.378512
-0.38115
-0.382021
-0.38088
-0.378362
-0.374281
-0.368437
-0.360511
-0.349918
-0.336102
-0.318512
-0.296439
-0.270251
-0.240905
-0.209579
-0.177349
-0.145298
-0.114298
-0.0851313
-0.0585327
-0.0348503
-0.0128717
0.0108416
0.0291079
-0.378016
-0.381159
-0.383537
-0.38473
-0.3856
-0.385926
-0.3852
-0.382618
-0.377106
-0.367478
-0.352601
-0.331988
-0.305984
-0.275398
-0.240927
-0.204088
-0.16652
-0.129862
-0.0956311
-0.0652554
-0.0397284
-0.0197222
-0.00640557
-0.00228833
-0.377627
-0.38121
-0.385129
-0.388673
-0.393037
-0.397998
-0.402889
-0.406489
-0.407254
-0.403485
-0.393581
-0.37659
-0.352182
-0.320396
-0.282464
-0.240361
-0.196453
-0.153223
-0.113022
-0.0776711
-0.0486848
-0.0278003
-0.017255
-0.0143289
-0.377267
-0.381103
-0.386468
-0.392232
-0.400077
-0.40981
-0.420644
-0.43111
-0.439266
-0.442725
-0.439078
-0.426474
-0.403911
-0.371345
-0.33015
-0.282811
-0.232611
-0.182898
-0.136514
-0.0955916
-0.0617657
-0.0364296
-0.0203703
-0.0109843
-0.376794
-0.380517
-0.387001
-0.394888
-0.406016
-0.420287
-0.436909
-0.454167
-0.469618
-0.480214
-0.482759
-0.474871
-0.454504
-0.421769
-0.378229
-0.326953
-0.271905
-0.217132
-0.165971
-0.120708
-0.0827396
-0.0525436
-0.0291843
-0.0106647
-0.375947
-0.379048
-0.386289
-0.395957
-0.409841
-0.428022
-0.449644
-0.472657
-0.494126
-0.510505
-0.518009
-0.513301
-0.494728
-0.462188
-0.41741
-0.363813
-0.305884
-0.248156
-0.194278
-0.146351
-0.105187
-0.0705774
-0.0412314
-0.0156944
-0.374214
-0.376435
-0.384083
-0.394697
-0.4105
-0.431633
-0.456892
-0.483859
-0.50915
-0.528729
-0.538481
-0.535104
-0.516909
-0.483987
-0.438336
-0.383674
-0.324707
-0.266095
-0.211434
-0.162227
-0.118878
-0.0818226
-0.0497589
-0.0207426
-0.370667
-0.372687
-0.379903
-0.390471
-0.407285
-0.430096
-0.457299
-0.486087
-0.51268
-0.532754
-0.54217
-0.537891
-0.518459
-0.484298
-0.437875
-0.383281
-0.325146
-0.267941
-0.214904
-0.16624
-0.123266
-0.0863505
-0.0541356
-0.0238091
-0.366024
-0.368274
-0.373652
-0.383146
-0.39985
-0.422994
-0.450515
-0.479158
-0.504807
-0.523064
-0.530025
-0.522983
-0.500996
-0.46516
-0.418462
-0.365108
-0.309469
-0.255649
-0.206121
-0.161269
-0.12109
-0.085767
-0.0551224
-0.0249003
-0.370303
-0.365322
-0.365897
-0.373032
-0.388478
-0.410765
-0.437211
-0.464062
-0.486984
-0.501667
-0.504499
-0.493408
-0.46829
-0.430939
-0.384748
-0.333865
-0.282177
-0.233468
-0.188794
-0.148474
-0.112691
-0.0811103
-0.0530389
-0.0239745
-0.486437
-0.491187
-0.485516
-0.481341
-0.477895
-0.494882
-0.484911
-0.490003
-0.484286
-0.481066
-0.476246
-0.470933
-0.481656
-0.488222
-0.482437
-0.479608
-0.472353
-0.45872
-0.479276
-0.486808
-0.481084
-0.478057
-0.468873
-0.452022
-0.48065
-0.486319
-0.480685
-0.477153
-0.466564
-0.447502
-0.484736
-0.486687
-0.481217
-0.47714
-0.46549
-0.444922
-0.487212
-0.487504
-0.482412
-0.477953
-0.465792
-0.444588
-0.488062
-0.488382
-0.484058
-0.479498
-0.467567
-0.446494
-0.488823
-0.489206
-0.486017
-0.481744
-0.470647
-0.45042
-0.489578
-0.489934
-0.488193
-0.484632
-0.474841
-0.45606
-0.4904
-0.490511
-0.490497
-0.488063
-0.479903
-0.463076
-0.491157
-0.490897
-0.492839
-0.491889
-0.485509
-0.471104
-0.491726
-0.491085
-0.495128
-0.495938
-0.491314
-0.479859
-0.492018
-0.491044
-0.497292
-0.500061
-0.496989
-0.488799
-0.491943
-0.490727
-0.499256
-0.504201
-0.502518
-0.498222
-0.491644
-0.489855
-0.501089
-0.508436
-0.50803
-0.508146
-0.491146
-0.488852
-0.502851
-0.512828
-0.513214
-0.519046
-0.492684
-0.488704
-0.504642
-0.517345
-0.518115
-0.531072
-0.496929
-0.489745
-0.506407
-0.521874
-0.523015
-0.544364
-0.499152
-0.490869
-0.507735
-0.526224
-0.528422
-0.559212
-0.498344
-0.490902
-0.507986
-0.529848
-0.534995
-0.57597
-0.49511
-0.489181
-0.506461
-0.531452
-0.542752
-0.595772
-0.490304
-0.486169
-0.5037
-0.530262
-0.550589
-0.623948
-0.48796
-0.484084
-0.502301
-0.529024
-0.559495
-0.672794
-0.397757
-0.364769
-0.357491
-0.360931
-0.374135
-0.394586
-0.418773
-0.442504
-0.461313
-0.471003
-0.468592
-0.452906
-0.424729
-0.386608
-0.342172
-0.295227
-0.248912
-0.205462
-0.166355
-0.131396
-0.100168
-0.0725125
-0.0473229
-0.0204977
-0.402156
-0.363936
-0.348625
-0.347854
-0.35819
-0.375946
-0.396863
-0.416387
-0.429865
-0.433563
-0.425411
-0.40526
-0.374856
-0.337202
-0.295746
-0.253596
-0.21305
-0.175588
-0.141859
-0.111797
-0.0850829
-0.061173
-0.0386355
-0.014699
-0.400801
-0.36118
-0.339946
-0.334985
-0.341946
-0.356219
-0.373051
-0.387266
-0.394407
-0.391637
-0.377944
-0.35425
-0.322915
-0.286943
-0.249217
-0.212033
-0.176979
-0.144956
-0.116304
-0.0908821
-0.0682534
-0.0475912
-0.0272122
-0.00667473
-0.399711
-0.358004
-0.332267
-0.323241
-0.326346
-0.336577
-0.348306
-0.356141
-0.356458
-0.347412
-0.329063
-0.303093
-0.272024
-0.238459
-0.204601
-0.172071
-0.141917
-0.114709
-0.0905297
-0.0691162
-0.0499698
-0.0320122
-0.0133081
0.00338624
-0.399572
-0.35569
-0.326187
-0.313064
-0.312069
-0.317453
-0.322915
-0.323847
-0.317446
-0.302857
-0.281002
-0.25389
-0.223829
-0.192883
-0.16264
-0.134201
-0.10826
-0.0851381
-0.0647369
-0.0466869
-0.0304359
-0.0146228
0.0029292
0.0154373
-0.400624
-0.354804
-0.3219
-0.304714
-0.299097
-0.298464
-0.297144
-0.291175
-0.278551
-0.259353
-0.235034
-0.207579
-0.17888
-0.150448
-0.123372
-0.098392
-0.07595
-0.0561867
-0.0388636
-0.0235487
-0.00967385
0.00446655
0.0213116
0.0293767
-0.403286
-0.355514
-0.31931
-0.297881
-0.286623
-0.279487
-0.271297
-0.258601
-0.24042
-0.217559
-0.191642
-0.164358
-0.137105
-0.110916
-0.0865147
-0.0643849
-0.0447834
-0.0277075
-0.0128283
0.000302672
0.012257
0.0251155
0.0415794
0.0450447
-0.407752
-0.357588
-0.318147
-0.291639
-0.274244
-0.260468
-0.245252
-0.226191
-0.203269
-0.177667
-0.150824
-0.123993
-0.0981185
-0.0738645
-0.0516826
-0.0318592
-0.0145105
0.000470942
0.0134584
0.0248718
0.0352763
0.0471554
0.0634558
0.062299
-0.413531
-0.360812
-0.317448
-0.285274
-0.261732
-0.24086
-0.218613
-0.193841
-0.16712
-0.139577
-0.112279
-0.0860462
-0.0614462
-0.0388488
-0.0184896
-0.000502886
0.0150994
0.0284885
0.0400434
0.0501172
0.0592634
0.0703921
0.0866884
0.0810633
-0.420325
-0.364201
-0.316153
-0.278484
-0.248171
-0.219852
-0.191025
-0.16144
-0.131812
-0.102972
-0.0755711
-0.0500396
-0.0266265
-0.00546043
0.0133966
0.0299296
0.044201
0.0564097
0.0668995
0.0759336
0.0840565
0.094612
0.111059
0.101346
-0.427426
-0.367149
-0.313886
-0.270501
-0.232576
-0.196872
-0.162227
-0.128778
-0.0970412
-0.0674484
-0.0402459
-0.0155192
0.00675363
0.0266441
0.0442324
0.0595977
0.0728552
0.0842078
0.0939273
0.102173
0.109478
0.119584
0.136306
0.12315
-0.433896
-0.369073
-0.310159
-0.260092
-0.21407
-0.171481
-0.131967
-0.0955747
-0.0624434
-0.0325854
-0.00586992
0.0179228
0.0390451
0.057736
0.0741927
0.0885723
0.101029
0.111756
0.12094
0.128616
0.135291
0.145047
0.162135
0.146502
-0.438712
-0.369505
-0.303857
-0.24595
-0.191994
-0.143366
-0.0999695
-0.0614991
-0.0276373
0.00202218
0.0279545
0.0506463
0.070544
0.0880251
0.103384
0.116845
0.128597
0.138827
0.147639
0.154928
0.161162
0.170676
0.188204
0.171517
-0.441744
-0.36843
-0.293817
-0.22714
-0.165891
-0.112238
-0.065941
-0.0262138
0.00774759
0.0367527
0.0615895
0.0829728
0.101509
0.117686
0.131878
0.144367
0.155381
0.165111
0.173623
0.180701
0.186733
0.196116
0.214042
0.198526
-0.442968
-0.365381
-0.279037
-0.203061
-0.135409
-0.0778043
-0.0295729
0.0106143
0.0440579
0.071953
0.0953656
0.1152
0.132186
0.146893
0.159754
0.171098
0.181192
0.190252
0.198363
0.205339
0.21145
0.220548
0.238067
0.228454
-0.44247
-0.358913
-0.258746
-0.173244
-0.100175
-0.0397399
0.00944391
0.0492944
0.0816057
0.107934
0.129585
0.147613
0.162835
0.175866
0.187166
0.197085
0.205902
0.213846
0.221059
0.227479
0.233051
0.239671
0.252824
0.262183
-0.439531
-0.347025
-0.231988
-0.137084
-0.0597536
0.00229531
0.0513981
0.0900944
0.120652
0.144956
0.164514
0.18049
0.193749
0.204921
0.214459
0.22269
0.229853
0.236134
0.241656
0.246315
0.249491
0.251393
0.259781
0.292481
-0.432606
-0.326949
-0.197204
-0.0938308
-0.0136776
0.0486229
0.0965293
0.133213
0.161377
0.183199
0.200347
0.21406
0.225218
0.234444
0.242169
0.248695
0.254237
0.258964
0.26294
0.265789
0.266908
0.26948
0.285843
0.306184
-0.419122
-0.294985
-0.152538
-0.0426794
0.0385261
0.0995132
0.144992
0.178751
0.203845
0.222731
0.237169
0.24844
0.257412
0.264679
0.270645
0.275592
0.279726
0.283218
0.286084
0.287846
0.288318
0.292623
0.312912
0.322892
-0.396384
-0.247316
-0.0961196
0.0171906
0.0972563
0.155111
0.196794
0.226671
0.247947
0.26347
0.274931
0.283608
0.290334
0.295655
0.299939
0.303439
0.306344
0.30881
0.310806
0.3118
0.311844
0.316856
0.33849
0.343173
-0.365038
-0.180462
-0.0257668
0.0866002
0.162721
0.215336
0.251701
0.276611
0.293556
0.305222
0.313436
0.319392
0.323831
0.32723
0.3299
0.332055
0.333856
0.335425
0.336684
0.337052
0.336673
0.341812
0.363788
0.365706
-0.329352
-0.0879675
0.0620587
0.166498
0.234848
0.279766
0.309257
0.328215
0.340137
0.347597
0.352362
0.355503
0.357635
0.359136
0.360251
0.36114
0.361919
0.362671
0.363265
0.363066
0.362258
0.367225
0.388908
0.389115
-0.276029
0.046502
0.172141
0.257485
0.312932
0.347566
0.368627
0.380737
0.387115
0.3901
0.391286
0.391567
0.391397
0.391037
0.390649
0.390331
0.390146
0.390128
0.39009
0.389357
0.388132
0.392776
0.413739
0.412842
-0.105354
0.236116
0.303901
0.357678
0.395091
0.417094
0.428562
0.433222
0.433754
0.432142
0.429719
0.427158
0.424727
0.42256
0.420731
0.419267
0.418174
0.417428
0.416793
0.415565
0.413962
0.418198
0.438107
0.436475
)
;

boundaryField
{
    rotor
    {
        type            zeroGradient;
    }
    freestream
    {
        type            freestreamPressure;
        freestreamValue uniform 0;
        supersonic      false;
        value           nonuniform List<scalar> 
96
(
0.35761
0.388398
0.418885
0.44865
0.477264
0.504301
0.529356
0.552045
0.571962
0.588725
0.602429
0.613005
0.620207
0.623861
0.624011
0.620685
0.61393
0.603925
0.590853
0.574935
0.556444
0.535694
0.512964
0.488765
0.463464
0.43732
0.410348
0.382813
0.355299
0.32816
0.301677
0.276094
0.251626
0.228469
0.206817
0.186936
0.169405
0.155954
0.148851
0.121812
0.101549
0.0856398
0.0719804
0.0599321
0.0492718
0.0398791
0.0316697
0.0245762
0.0185338
0.0134929
0.0094298
0.00632381
0.00409893
0.00260943
0.00186968
0.00129007
0.000606049
0.000296759
4.62345e-05
-9.68216e-05
0.000223936
0.000333274
5.77965e-05
-7.75761e-05
-0.000897456
-0.000895544
-0.000988411
-0.00156026
-0.00221833
-0.00272641
-0.00302635
-0.00310526
-0.00285188
-0.00220741
-0.0010881
0.000602137
0.00300387
0.00626736
0.0105441
0.0159935
0.0227918
0.0311387
0.0412337
0.0532799
0.0675104
0.0842482
0.104107
0.127743
0.151707
0.169103
0.189479
0.213121
0.23938
0.267397
0.296717
0.32692
)
;
    }
    frontAndBack
    {
        type            empty;
    }
}


// ************************************************************************* //
