/*--------------------------------*- C++ -*----------------------------------*\
  =========                 |
  \\      /  F ield         | OpenFOAM: The Open Source CFD Toolbox
   \\    /   O peration     | Website:  https://openfoam.org
    \\  /    A nd           | Version:  11
     \\/     M anipulation  |
\*---------------------------------------------------------------------------*/
FoamFile
{
    format      ascii;
    class       surfaceVectorField;
    location    "1.84";
    object      Uf;
}
// * * * * * * * * * * * * * * * * * * * * * * * * * * * * * * * * * * * * * //

dimensions      [0 1 -1 0 0 0 0];

internalField   nonuniform List<vector> 
5640
(
(-0.0186492 -0.0550412 1.87999e-18)
(-0.015249 -0.0573382 0)
(-0.0485365 -0.0201461 2.83206e-18)
(-0.0357104 -0.0279338 1.0276e-18)
(-0.0960143 0.0417216 8.1203e-19)
(-0.0732142 0.0247632 8.28512e-19)
(-0.133327 0.136426 -5.22849e-19)
(-0.131965 0.11008 0)
(-0.202093 0.370184 -1.16905e-19)
(-0.136157 0.214195 -6.03764e-19)
(-0.277586 0.60304 4.15951e-19)
(-0.140702 0.925053 5.2753e-19)
(-0.0269776 -0.0352962 -9.04741e-19)
(-0.0219927 -0.0490467 1.28687e-18)
(-0.0561619 0.0185278 -9.59465e-19)
(-0.042125 0.00323521 -9.60133e-19)
(-0.0951743 0.0861394 4.44718e-20)
(-0.0731728 0.0625663 -5.59433e-19)
(-0.126778 0.194556 -9.4207e-20)
(-0.114404 0.149033 6.09983e-19)
(-0.123725 0.371956 -1.04616e-19)
(-0.108127 0.276954 6.03885e-19)
(-0.102861 0.524654 -3.20944e-19)
(-0.00655568 0.710623 2.98616e-19)
(-0.0336676 -0.0157075 1.36111e-18)
(-0.0305175 -0.0349842 1.28706e-18)
(-0.0568771 0.0461131 -5.76815e-19)
(-0.0440902 0.0267685 7.66107e-19)
(-0.0847643 0.11754 -3.34292e-20)
(-0.0674792 0.088462 -9.42846e-20)
(-0.0975081 0.227645 1.31682e-18)
(-0.0924912 0.173501 1.66733e-19)
(-0.0630968 0.385661 3.31048e-19)
(-0.073056 0.299023 7.90976e-19)
(-0.0169428 0.483164 -1.9112e-19)
(0.0687135 0.611105 -8.67775e-19)
(-0.0383266 0.00177318 7.21499e-19)
(-0.037506 -0.0206899 -1.19073e-18)
(-0.0538336 0.0666683 1.28495e-18)
(-0.0436255 0.0445208 3.32571e-20)
(-0.0708162 0.138057 9.74622e-20)
(-0.059116 0.106166 5.38823e-19)
(-0.0688428 0.241428 -3.77398e-19)
(-0.0697567 0.186891 -8.41721e-19)
(-0.0180679 0.377927 3.03072e-19)
(-0.0389367 0.300758 -2.52038e-19)
(0.0362096 0.444262 -2.64776e-19)
(0.10938 0.54076 4.73909e-19)
(-0.0405954 0.0161941 -1.94989e-18)
(-0.0413498 -0.00842952 -1.15259e-18)
(-0.0486819 0.0813414 -7.3518e-19)
(-0.0413233 0.057266 -7.53414e-19)
(-0.0555186 0.149924 -3.53721e-19)
(-0.0492393 0.117161 8.80601e-20)
(-0.041252 0.242986 -7.34137e-19)
(-0.0476213 0.191288 -6.96706e-20)
(0.0185339 0.357586 -8.11808e-19)
(-0.00779459 0.289982 -9.86976e-20)
(0.0744402 0.402371 1.04933e-19)
(0.137727 0.479002 -8.67872e-19)
(-0.0401286 0.0270222 2.26551e-20)
(-0.0416437 0.00113273 1.24533e-18)
(-0.041995 0.0906103 3.41929e-20)
(-0.037262 0.0655936 -6.26083e-19)
(-0.0399045 0.154537 3.79218e-19)
(-0.0383475 0.122475 1.11426e-19)
(-0.0157948 0.23559 5.67038e-19)
(-0.0266473 0.188438 2.84956e-19)
(0.0489916 0.329268 8.10754e-19)
(0.019929 0.270961 -6.41365e-20)
(0.104201 0.357789 3.95365e-19)
(0.159965 0.420089 8.72619e-19)
(-0.037026 0.0344719 7.05436e-19)
(-0.0386437 0.00805013 -1.19299e-18)
(-0.0340109 0.0952293 -5.80233e-19)
(-0.0315698 0.0702347 5.67476e-19)
(-0.0244167 0.153241 1.35603e-20)
(-0.0267727 0.123105 5.42171e-20)
(0.00730349 0.221639 -3.36777e-19)
(-0.00705795 0.179914 -4.49139e-20)
(0.0747802 0.296002 -4.9447e-19)
(0.0443397 0.246407 -5.87001e-19)
(0.128304 0.31165 5.56935e-20)
(0.178553 0.362889 -2.03657e-19)
(-0.0316684 0.0390384 -1.43251e-18)
(-0.0330136 0.0126926 -1.2999e-20)
(-0.0249643 0.0960963 1.22378e-18)
(-0.0245015 0.0719808 6.01464e-19)
(-0.00931045 0.147317 0)
(-0.0148264 0.120035 4.07326e-19)
(0.028101 0.202981 -2.79939e-19)
(0.0110437 0.167116 -3.32635e-19)
(0.0968445 0.259761 -5.22449e-20)
(0.0657098 0.218208 -4.77928e-21)
(0.148316 0.264933 2.61395e-21)
(0.194493 0.307326 6.20481e-19)
(-0.0246297 0.0413363 1.98558e-18)
(-0.0256112 0.0155117 2.38466e-18)
(-0.0151665 0.0940975 -2.06659e-19)
(-0.0164196 0.0715787 -1.09553e-18)
(0.00520169 0.137927 9.96895e-20)
(-0.00283079 0.11419 3.80292e-19)
(0.0467145 0.181068 -6.65543e-20)
(0.0275916 0.151254 -3.3095e-19)
(0.115829 0.221902 5.0058e-20)
(0.0843371 0.187737 5.61598e-19)
(0.165265 0.218402 -2.45983e-19)
(0.208244 0.253533 -5.52109e-19)
(-0.0165525 0.0419209 -4.95685e-19)
(-0.0172754 0.0168899 -1.18796e-18)
(-0.00498483 0.090032 -5.71527e-19)
(-0.00774392 0.0696671 2.82769e-20)
(0.0189121 0.126079 -2.62265e-20)
(0.00889724 0.106386 -4.22803e-19)
(0.0633096 0.157009 2.72257e-19)
(0.04252 0.133321 2.86644e-19)
(0.132247 0.183297 2.84917e-19)
(0.100477 0.156003 7.02924e-20)
(0.179712 0.172367 -3.11813e-20)
(0.220653 0.201206 -1.35399e-19)
(-0.00803456 0.0412263 -7.3431e-19)
(-0.0087035 0.0170951 -5.95451e-19)
(0.00520826 0.0845697 1.95973e-19)
(0.00110894 0.0667487 2.79547e-19)
(0.0316253 0.112629 -1.33879e-19)
(0.0200821 0.097315 -5.91831e-19)
(0.0777696 0.131769 9.09232e-20)
(0.0557982 0.114205 1.23859e-19)
(0.146366 0.144542 -2.43259e-19)
(0.114303 0.123705 -7.02497e-20)
(0.192034 0.127049 -3.11813e-20)
(0.231765 0.15031 1.3209e-19)
(0.000434913 0.039562 3.67925e-19)
(-0.000410871 0.0162944 8.98781e-21)
(0.0150803 0.078242 -4.71177e-19)
(0.00977272 0.06319 1.35488e-19)
(0.0432027 0.0982743 -3.58271e-19)
(0.0305122 0.0875382 2.53684e-20)
(0.0903413 0.10597 -3.16255e-20)
(0.0673874 0.0945768 -1.00226e-19)
(0.158413 0.106041 1.41074e-19)
(0.125972 0.0914265 -6.9881e-20)
(0.202448 0.0825749 6.12095e-20)
(0.241699 0.100682 1.03171e-19)
(0.0084927 0.0371344 -2.30863e-19)
(0.00725518 0.0145884 -5.94974e-19)
(0.0243694 0.0714515 6.36701e-19)
(0.0179579 0.0592371 2.75269e-19)
(0.0535413 0.0835819 2.87683e-19)
(0.0400529 0.0775106 3.32964e-19)
(0.101012 0.0802022 -1.39327e-19)
(0.0773008 0.0750154 2.13811e-19)
(0.168525 0.068105 -1.52886e-19)
(0.135601 0.0596178 -1.37841e-19)
(0.21104 0.0390153 1.44739e-20)
(0.250506 0.0521313 -1.398e-20)
(0.0158931 0.0340809 -1.39015e-19)
(0.0140751 0.0120429 -2.06807e-20)
(0.0328971 0.0644925 -3.09201e-20)
(0.0254538 0.0550371 -1.29926e-19)
(0.0626122 0.0690193 2.63153e-19)
(0.0486548 0.0675974 1.03457e-20)
(0.109848 0.0549309 2.25151e-19)
(0.0855982 0.0560284 6.48206e-20)
(0.176778 0.0309706 2.58779e-20)
(0.143297 0.0286823 7.42965e-20)
(0.217777 -0.00356565 -4.67199e-20)
(0.258159 0.00443134 -2.00804e-19)
(0.0224756 0.0304878 -5.2316e-21)
(0.0198911 0.00871161 -7.47099e-21)
(0.0405641 0.0575735 -9.46327e-20)
(0.0321165 0.0506548 2.15845e-21)
(0.0704564 0.0549904 -1.89819e-19)
(0.0563515 0.0580926 -1.00387e-19)
(0.11694 0.0305952 -8.62516e-20)
(0.0923816 0.0380882 -8.88629e-20)
(0.183205 -0.00511444 4.59969e-21)
(0.14918 -0.000961263 -3.02994e-20)
(0.222508 -0.0450528 -1.00535e-21)
(0.264539 -0.0426569 6.8812e-20)
(0.0281153 0.0264018 -6.1004e-22)
(0.0245257 0.00464222 -2.96563e-19)
(0.0473409 0.0508335 7.67608e-22)
(0.037863 0.0460771 0)
(0.077179 0.0418616 1.81379e-22)
(0.0632616 0.0492327 -1.06615e-19)
(0.122402 0.00764826 -3.4507e-20)
(0.0978004 0.0216612 9.79986e-20)
(0.187818 -0.0398261 -3.65824e-20)
(0.153414 -0.0288256 -7.32751e-21)
(0.224938 -0.0852151 6.31171e-20)
(0.26945 -0.089366 -1.17242e-21)
(0.0326792 0.0218283 -3.13062e-19)
(0.0277155 -0.000137451 2.0208e-20)
(0.0532716 0.0443423 -1.02846e-19)
(0.042669 0.041206 -9.37415e-21)
(0.0829662 0.0299736 -1.57082e-20)
(0.0695928 0.0412022 2.29693e-19)
(0.126397 -0.0134209 1.27958e-19)
(0.102069 0.00722806 1.90513e-19)
(0.190615 -0.0727155 9.07025e-20)
(0.156274 -0.0542874 2.7459e-20)
(0.224555 -0.123605 1.29871e-19)
(0.27255 -0.135938 7.47784e-20)
(0.0359953 0.0167109 3.2549e-19)
(0.0290807 -0.0056453 -2.82518e-19)
(0.0584711 0.0380937 3.13006e-19)
(0.0465607 0.0358446 -9.37415e-21)
(0.088097 0.019655 4.37261e-19)
(0.0756377 0.0341291 9.94836e-20)
(0.129179 -0.0320334 9.44247e-20)
(0.105493 -0.00470824 -7.73555e-20)
(0.191611 -0.103055 6.42677e-20)
(0.158251 -0.0765019 1.38557e-19)
(0.220509 -0.159415 -2.39853e-19)
(0.273288 -0.182586 1.43283e-19)
(0.0378381 0.0108952 -6.33285e-19)
(0.0281589 -0.011962 6.19472e-19)
(0.0631198 0.0319843 -2.27582e-19)
(0.0495977 0.0296743 2.0787e-20)
(0.0929602 0.0112152 -4.09232e-19)
(0.0817623 0.0280623 -2.53686e-19)
(0.13116 -0.0474972 -4.01049e-20)
(0.108499 -0.0136394 3.71836e-20)
(0.190873 -0.129633 -1.55963e-19)
(0.160292 -0.0942728 -2.91331e-20)
(0.211379 -0.191241 -1.94026e-19)
(0.270748 -0.229435 -2.6805e-19)
(0.0379475 0.00410506 1.30815e-18)
(0.0245784 -0.0191912 6.25966e-19)
(0.0674497 0.0257939 6.48981e-21)
(0.0518454 0.022228 -2.41854e-20)
(0.0980651 0.00492246 1.82904e-19)
(0.0883907 0.0229279 1.87265e-20)
(0.133026 -0.0589902 4.92402e-20)
(0.111663 -0.0191205 -1.58649e-20)
(0.188755 -0.150524 -6.46234e-20)
(0.164268 -0.105888 -1.67653e-19)
(0.194287 -0.216793 4.27002e-19)
(0.263391 -0.276574 -1.02563e-19)
(0.0361183 -0.00399968 -6.69124e-19)
(0.0185047 -0.0272561 -5.73207e-19)
(0.0717162 0.0192188 -1.38278e-20)
(0.05328 0.0128502 -1.19325e-19)
(0.104024 0.00104736 -1.79028e-19)
(0.0960291 0.0184786 7.29025e-20)
(0.135782 -0.0654592 -2.28667e-19)
(0.115731 -0.0208859 -2.22431e-19)
(0.185754 -0.162851 3.09717e-19)
(0.173425 -0.108773 4.40864e-19)
(0.162572 -0.233347 -1.4461e-19)
(0.249047 -0.32441 3.79652e-19)
(0.032351 -0.0134478 -5.02432e-20)
(0.0109007 -0.0356318 -1.27818e-18)
(0.0760722 0.0120101 -4.11072e-20)
(0.0532708 0.000492339 -7.43527e-20)
(0.111597 3.02742e-05 3.94771e-20)
(0.105426 0.0142447 3.8187e-20)
(0.140648 -0.0653873 4.28504e-19)
(0.121678 -0.018939 5.41881e-19)
(0.180519 -0.164074 2.37021e-20)
(0.192019 -0.0982271 7.31091e-21)
(0.100195 -0.243291 -8.85242e-19)
(0.228054 -0.374071 -3.59423e-19)
(0.0267885 -0.0241727 -1.37239e-18)
(0.00448734 -0.0425212 4.68301e-20)
(0.0801526 0.00348198 0)
(0.0482419 -0.0175899 0)
(0.122377 0.00165108 5.23574e-19)
(0.11578 0.0081979 7.35354e-19)
(0.150291 -0.056926 1.4094e-19)
(0.129599 -0.014693 5.67299e-19)
(0.161177 -0.15716 -8.50725e-19)
(0.224301 -0.0607034 -5.56233e-19)
(-0.0462524 -0.277506 8.83277e-20)
(0.199064 -0.428533 -4.92655e-19)
(0.0207226 -0.0371174 1.42018e-18)
(0.07999 -0.0136965 7.04062e-19)
(0.139472 -0.00436939 7.62852e-19)
(0.174793 -0.0459918 -1.21679e-19)
(0.0785737 -0.170938 3.792e-19)
(0.0735263 -0.547084 7.12475e-19)
(0.530823 0.859389 -3.20854e-19)
(0.306349 0.913762 2.68404e-19)
(0.467363 0.997843 -4.1152e-19)
(0.754543 0.743864 -9.41531e-20)
(0.640851 0.760831 -4.65083e-21)
(0.748013 0.790819 -1.63932e-19)
(0.875426 0.646931 -8.48947e-20)
(0.795727 0.674435 -1.3711e-19)
(0.876645 0.699954 -5.86029e-21)
(0.944674 0.561182 -2.04401e-19)
(0.887527 0.586765 1.64079e-21)
(0.954076 0.60916 -7.45566e-20)
(0.987059 0.48617 -4.95994e-21)
(0.943659 0.507665 7.53018e-21)
(1.0004 0.528267 -1.32468e-19)
(1.01475 0.422304 -3.58779e-20)
(0.980183 0.439848 -7.06564e-21)
(1.02918 0.458635 4.94632e-20)
(1.03405 0.368965 -7.96128e-20)
(1.00552 0.383067 1.46977e-20)
(1.04816 0.39979 1.74759e-21)
(1.04837 0.324793 -6.48989e-20)
(1.02421 0.336131 -8.15934e-20)
(1.06161 0.350759 1.41862e-20)
(1.0594 0.288086 -7.55941e-20)
(1.03864 0.297347 -7.65006e-20)
(1.07172 0.310059 7.2664e-20)
(1.06787 0.257152 5.14122e-21)
(1.04995 0.264945 -7.81534e-20)
(1.07947 0.276025 0)
(1.0741 0.230527 1.286e-19)
(1.05865 0.237302 -6.28647e-20)
(1.0852 0.247056 1.0927e-20)
(1.07822 0.207093 -4.38892e-20)
(1.065 0.213133 1.94022e-19)
(1.08902 0.22183 6.98645e-20)
(1.08036 0.186049 -6.60756e-20)
(1.06917 0.191562 -2.32347e-19)
(1.09097 0.199415 -1.71175e-19)
(1.08063 0.166818 8.60227e-21)
(1.07131 0.171959 1.6601e-19)
(1.09112 0.17913 1.0751e-19)
(1.07911 0.148966 -6.17455e-21)
(1.07156 0.153852 -1.00644e-19)
(1.08954 0.160472 -1.9506e-19)
(1.07585 0.132155 2.31297e-19)
(1.07 0.136878 4.38427e-20)
(1.08626 0.14305 2.75674e-19)
(1.07088 0.116121 4.9372e-20)
(1.06669 0.120756 1.35568e-19)
(1.08131 0.126563 9.09632e-20)
(1.06422 0.100656 -2.15804e-19)
(1.06166 0.105272 -4.01253e-20)
(1.07466 0.110781 -1.70378e-19)
(1.05587 0.0856129 -7.86748e-21)
(1.05494 0.0902529 -1.30646e-19)
(1.06631 0.0955116 -8.96704e-20)
(1.04584 0.0708951 3.80405e-20)
(1.04667 0.075439 -9.60007e-21)
(1.05636 0.0804606 1.59095e-19)
(1.03415 0.0564531 -8.25412e-20)
(1.03706 0.0605315 -4.12431e-20)
(1.04496 0.0652733 -1.2065e-19)
(1.02084 0.042313 -7.83903e-20)
(1.02542 0.0464979 1.65559e-19)
(1.03142 0.0509478 0)
(1.00752 0.0296243 -1.17162e-19)
(1.00858 0.0379533 -3.84864e-20)
(1.01261 0.0425773 -4.03422e-20)
(0.990524 0.0359088 -1.60184e-23)
(0.992159 0.0414848 -3.56002e-21)
(0.460502 0.76228 4.08681e-19)
(0.283155 0.768442 -3.22661e-19)
(0.67761 0.696262 -3.99729e-20)
(0.570763 0.704515 2.51644e-19)
(0.806438 0.61426 -5.01043e-20)
(0.72825 0.632141 -8.51743e-20)
(0.885209 0.533705 2.1658e-19)
(0.827324 0.551836 1.54137e-19)
(0.935726 0.462161 6.0842e-21)
(0.89114 0.478078 -8.33381e-20)
(0.970173 0.401389 4.3207e-20)
(0.934477 0.414516 -1.25033e-19)
(0.995093 0.350883 1.25169e-20)
(0.965598 0.361388 -7.14566e-20)
(1.01404 0.309203 -9.45553e-20)
(0.989096 0.317579 1.34295e-20)
(1.02888 0.274595 -7.94138e-20)
(1.00749 0.281392 9.22219e-20)
(1.04052 0.245369 -1.46593e-19)
(1.02208 0.251092 -1.59586e-19)
(1.04942 0.220109 -4.64974e-22)
(1.03353 0.225123 7.69824e-21)
(1.05585 0.197769 9.25672e-21)
(1.04225 0.202296 7.3406e-20)
(1.06005 0.177615 -3.72264e-21)
(1.0485 0.181823 4.73605e-21)
(1.0622 0.159116 5.8987e-20)
(1.05255 0.163131 -6.12811e-20)
(1.06243 0.141873 -5.17718e-20)
(1.05456 0.145794 1.12548e-19)
(1.06084 0.125574 -5.25819e-20)
(1.05467 0.129478 -1.07788e-19)
(1.05749 0.109974 4.74601e-20)
(1.05297 0.113921 1.54579e-19)
(1.05244 0.0948863 4.57672e-20)
(1.04953 0.0989312 -9.8745e-20)
(1.04574 0.0801857 -1.32851e-19)
(1.04441 0.0843576 -2.32257e-21)
(1.03744 0.0658031 -8.55866e-20)
(1.03781 0.0699802 -3.9098e-20)
(1.02759 0.051714 2.14924e-19)
(1.02997 0.0555617 8.65575e-20)
(1.01628 0.0379781 2.06782e-19)
(1.02018 0.0420214 1.65559e-19)
(1.0051 0.0258443 7.83753e-20)
(1.00533 0.0334502 -3.78164e-21)
(0.9896 0.0306589 3.78824e-20)
(0.414861 0.687223 -4.92947e-19)
(0.270575 0.668685 -2.4787e-19)
(0.618217 0.640721 2.1697e-19)
(0.519443 0.637884 2.85055e-19)
(0.747959 0.569678 1.14435e-19)
(0.672923 0.578739 1.62112e-19)
(0.832201 0.496852 -1.4181e-19)
(0.775272 0.50798 1.75769e-19)
(0.889002 0.43118 -2.13877e-19)
(0.844427 0.441559 -1.38672e-21)
(0.929192 0.375202 -2.40635e-19)
(0.893199 0.383885 -6.09823e-21)
(0.959039 0.328666 -7.24082e-20)
(0.929191 0.33555 1.27452e-19)
(0.982115 0.290232 1.98648e-19)
(0.956842 0.295626 1.11802e-19)
(1.00038 0.258234 1.44794e-20)
(0.978712 0.26255 -9.80644e-20)
(1.01489 0.231087 -6.9834e-21)
(0.996209 0.234722 7.75048e-21)
(1.02622 0.207489 8.07342e-20)
(1.01013 0.210717 7.60359e-20)
(1.0348 0.186502 6.93244e-20)
(1.021 0.189486 -1.363e-19)
(1.04093 0.167471 -5.23819e-20)
(1.02919 0.170341 1.36431e-19)
(1.04486 0.149924 -9.31194e-21)
(1.03501 0.152779 -1.83813e-19)
(1.04677 0.1335 5.84323e-20)
(1.03869 0.136417 3.50071e-19)
(1.04679 0.117913 9.74992e-20)
(1.04039 0.120954 -2.23349e-19)
(1.04503 0.102941 1.02495e-20)
(1.04024 0.106153 2.10152e-19)
(1.04156 0.088422 -1.47509e-19)
(1.03834 0.0918443 -2.49911e-19)
(1.03648 0.0742577 9.19349e-20)
(1.03479 0.0779035 1.51357e-19)
(1.02987 0.0604085 1.38181e-19)
(1.02981 0.0641573 -4.84007e-21)
(1.02181 0.0468764 4.59402e-20)
(1.02367 0.0504314 -1.46341e-22)
(1.01244 0.033748 -4.3996e-20)
(1.01567 0.0375782 0)
(1.00323 0.0223264 -4.4514e-20)
(1.0028 0.0291285 -2.90876e-23)
(0.989296 0.0257893 0)
(0.385003 0.609622 4.5251e-19)
(0.265534 0.583213 -7.78201e-20)
(0.571967 0.577145 2.3405e-19)
(0.482915 0.56718 1.97914e-19)
(0.699417 0.517295 2.23192e-19)
(0.628998 0.519125 2.6428e-19)
(0.786562 0.453409 3.1963e-19)
(0.731736 0.458335 2.78073e-19)
(0.847824 0.394975 2.07459e-19)
(0.804173 0.400203 6.05444e-20)
(0.892536 0.344856 3.61012e-19)
(0.856945 0.349298 1.40277e-19)
(0.92645 0.303035 3.11957e-19)
(0.896788 0.306423 2.43219e-19)
(0.953016 0.26836 -1.8306e-19)
(0.927841 0.270855 -1.02851e-19)
(0.974237 0.239343 -1.06262e-19)
(0.952624 0.24123 9.24796e-21)
(0.991254 0.214563 9.01132e-20)
(0.972611 0.216138 7.10574e-22)
(1.00477 0.192874 -1.39073e-19)
(0.988692 0.194327 -8.4463e-20)
(1.01529 0.173464 -7.20933e-20)
(1.00148 0.174906 -2.14512e-19)
(1.0232 0.155769 7.79309e-21)
(1.01142 0.157292 7.03853e-20)
(1.02879 0.139376 1.71187e-19)
(1.01886 0.141052 -2.61498e-19)
(1.03227 0.123963 7.29389e-20)
(1.02408 0.125852 2.99161e-19)
(1.03383 0.109275 -1.14143e-19)
(1.02727 0.111424 -1.08174e-19)
(1.03357 0.0951147 -4.66294e-20)
(1.02859 0.0975555 -1.14985e-19)
(1.03162 0.0813469 4.5773e-20)
(1.02815 0.0841032 -1.03257e-19)
(1.0281 0.0679058 5.55135e-20)
(1.02609 0.0709749 1.51099e-19)
(1.02312 0.0547832 -1.43298e-19)
(1.02266 0.0580481 -2.99392e-19)
(1.01677 0.0420043 -4.61889e-20)
(1.01812 0.0452091 2.01214e-19)
(1.00923 0.0296712 4.40682e-20)
(1.01181 0.0332211 4.89032e-20)
(1.00181 0.0190911 4.4587e-20)
(1.0009 0.0250373 -1.90531e-19)
(0.989513 0.0213406 1.29083e-19)
(0.366897 0.534905 -3.36413e-19)
(0.265192 0.505214 -1.19078e-19)
(0.537331 0.510539 2.2905e-19)
(0.457163 0.496031 -1.63542e-19)
(0.66037 0.460657 3.19089e-19)
(0.594953 0.456787 -5.29607e-20)
(0.748395 0.405873 2.35216e-20)
(0.696316 0.40545 -3.52769e-20)
(0.812515 0.355196 -7.84915e-21)
(0.770409 0.355787 -1.66114e-19)
(0.86055 0.311437 2.09985e-20)
(0.825901 0.311963 8.03873e-21)
(0.89764 0.274721 -1.67643e-19)
(0.868607 0.274833 7.22035e-20)
(0.92703 0.244098 8.80806e-20)
(0.902316 0.243846 -2.3074e-19)
(0.950701 0.218294 1.1635e-19)
(0.929444 0.217859 9.91362e-20)
(0.969853 0.196087 -1.7315e-19)
(0.951489 0.195672 7.59264e-21)
(0.985264 0.176501 -1.58754e-19)
(0.969404 0.176223 8.69067e-20)
(0.997503 0.158858 -7.4878e-20)
(0.983856 0.158783 -7.41903e-20)
(1.00701 0.142684 -1.95991e-19)
(0.995338 0.142871 0)
(1.01411 0.127624 -1.38323e-19)
(1.00424 0.128123 -2.00241e-19)
(1.01905 0.113396 1.21253e-19)
(1.01086 0.114249 -3.33264e-21)
(1.02202 0.0997773 -1.09037e-19)
(1.01541 0.101016 1.82787e-19)
(1.02318 0.0865976 -1.71698e-19)
(1.01808 0.0882416 -1.12947e-19)
(1.02267 0.0737539 0)
(1.01901 0.0758096 0)
(1.02062 0.0612152 -2.00978e-19)
(1.01834 0.0636647 0)
(1.01717 0.0490033 4.68666e-20)
(1.01635 0.0517361 8.57546e-21)
(1.01244 0.0371588 2.97246e-19)
(1.01331 0.0399612 1.44708e-19)
(1.00658 0.0257842 -1.8427e-19)
(1.00856 0.0289922 -1.99532e-19)
(1.00077 0.0161454 -2.10744e-19)
(0.999543 0.0212125 -1.38161e-19)
(0.990144 0.0173395 1.72944e-19)
(0.355568 0.46351 4.72617e-20)
(0.268153 0.432892 2.57285e-19)
(0.511857 0.443529 -4.45886e-19)
(0.439339 0.425903 2.0234e-20)
(0.629779 0.402162 -4.07366e-19)
(0.569285 0.393774 -2.66626e-19)
(0.717321 0.356098 -2.21643e-19)
(0.668296 0.351139 -1.374e-19)
(0.783007 0.313176 -1.53069e-19)
(0.742845 0.309684 -1.70253e-19)
(0.833305 0.275883 5.83723e-20)
(0.799989 0.272876 1.71182e-19)
(0.87274 0.244392 1.26026e-20)
(0.844682 0.241503 6.29237e-20)
(0.904311 0.21794 -2.23747e-19)
(0.880357 0.215137 -3.02019e-19)
(0.92994 0.195471 -8.73422e-21)
(0.909292 0.192852 -1.02099e-19)
(0.950848 0.175969 2.66932e-19)
(0.93298 0.173661 9.65753e-20)
(0.967858 0.158632 1.73164e-19)
(0.952403 0.15669 8.19346e-20)
(0.981581 0.142908 0)
(0.968257 0.141362 -8.45144e-20)
(0.992487 0.128408 -2.40662e-21)
(0.981065 0.12729 -1.52772e-19)
(1.00093 0.114833 -6.67977e-20)
(0.991239 0.114172 -7.31944e-20)
(1.00718 0.101944 5.67097e-20)
(0.999095 0.101766 6.93612e-20)
(1.01145 0.0895457 1.81277e-19)
(1.00487 0.0898704 5.88933e-20)
(1.01391 0.0775021 5.80091e-20)
(1.00877 0.0783337 5.75915e-20)
(1.01472 0.0657444 0)
(1.01094 0.0670733 0)
(1.01404 0.0542766 2.09496e-19)
(1.01155 0.0560714 0)
(1.01201 0.0431446 1.05938e-19)
(1.01088 0.0453042 1.55355e-19)
(1.00875 0.0323921 -3.56064e-19)
(1.00918 0.0347453 1.62038e-19)
(1.00443 0.0221086 -1.53826e-19)
(1.00585 0.0249198 -4.0261e-19)
(1.00004 0.0134828 1.40753e-19)
(0.998646 0.0176763 4.77331e-20)
(0.991083 0.0137981 2.10402e-19)
(0.350788 0.393954 2.36097e-19)
(0.272909 0.364648 4.29461e-19)
(0.493954 0.377421 2.05501e-19)
(0.428035 0.358157 1.36965e-19)
(0.606536 0.343383 0)
(0.550694 0.331432 0)
(0.692743 0.305416 -8.54598e-20)
(0.646858 0.296634 -1.01941e-19)
(0.759016 0.269947 1.48617e-19)
(0.721027 0.262899 -8.91524e-20)
(0.810695 0.238968 1.77241e-19)
(0.778983 0.232818 7.70808e-20)
(0.851745 0.212635 -2.47204e-19)
(0.824925 0.207032 -2.1533e-19)
(0.884916 0.190343 -1.82496e-19)
(0.861959 0.185204 -1.22105e-19)
(0.912044 0.171244 9.2167e-22)
(0.892216 0.166601 2.19578e-19)
(0.934345 0.15452 -8.83147e-20)
(0.917157 0.150436 -1.01697e-19)
(0.95266 0.139532 -1.74091e-19)
(0.937774 0.136013 -8.96249e-20)
(0.967626 0.125843 -2.36594e-19)
(0.954768 0.12289 -2.24351e-21)
(0.979729 0.113141 -2.24191e-19)
(0.96868 0.110762 -1.5319e-19)
(0.989341 0.101179 6.17422e-20)
(0.979933 0.0993884 1.46627e-19)
(0.996745 0.0897572 7.15336e-20)
(0.988855 0.0885665 6.54012e-20)
(1.00217 0.0787147 -6.47828e-20)
(0.995702 0.0781301 1.30286e-19)
(1.00579 0.067948 0)
(1.00068 0.06796 -1.26054e-19)
(1.0078 0.057425 0)
(1.00395 0.0580083 1.20616e-19)
(1.00835 0.0471812 -5.51775e-20)
(1.00571 0.0482934 -1.17287e-19)
(1.00759 0.0372756 2.07027e-19)
(1.00622 0.0388282 -5.70029e-20)
(1.00567 0.0277433 1.08212e-19)
(1.0057 0.029606 2.64628e-19)
(1.00271 0.0186521 -2.03807e-19)
(1.00363 0.0210196 -2.06404e-19)
(0.999555 0.0110877 1.16371e-19)
(0.998113 0.0144399 1.5451e-19)
(0.992226 0.0107138 -1.4527e-19)
(0.348996 0.327867 3.47903e-19)
(0.279009 0.300117 7.74306e-20)
(0.482033 0.313137 -6.47017e-20)
(0.421644 0.29278 -2.72683e-19)
(0.589609 0.285303 -1.00045e-19)
(0.537979 0.270488 -3.82743e-21)
(0.674003 0.254741 -1.05895e-19)
(0.631197 0.242734 5.97223e-20)
(0.740154 0.226264 -1.63176e-19)
(0.704448 0.216134 3.74888e-19)
(0.792515 0.201299 -3.11498e-19)
(0.762581 0.192375 -8.26385e-20)
(0.83457 0.17994 -9.14213e-20)
(0.809175 0.171908 -7.88449e-20)
(0.868833 0.161715 2.76205e-19)
(0.847057 0.154457 1.21744e-19)
(0.897045 0.145962 1.20587e-19)
(0.878209 0.139461 1.60895e-19)
(0.920398 0.132044 -1.03021e-19)
(0.904048 0.126309 -1.01957e-19)
(0.939737 0.119467 8.1517e-20)
(0.925563 0.114467 0)
(0.955704 0.107895 8.27272e-20)
(0.943442 0.10361 -3.73067e-21)
(0.968793 0.0970855 2.14997e-19)
(0.958232 0.0935048 1.58014e-19)
(0.979384 0.0868397 1.50978e-19)
(0.970364 0.0839612 1.4235e-19)
(0.987771 0.0769938 1.23694e-19)
(0.980172 0.0748179 -2.07131e-19)
(0.994188 0.0674227 7.11422e-20)
(0.987918 0.0659425 2.61911e-19)
(0.998832 0.0580578 -7.22714e-21)
(0.993817 0.0572503 -1.8942e-19)
(1.00189 0.0489015 5.15728e-21)
(0.998051 0.0487275 4.31974e-19)
(1.00352 0.0400125 -1.19448e-19)
(1.0008 0.040422 -1.17966e-19)
(1.0039 0.0314521 -1.39684e-21)
(1.00232 0.0323707 -6.04264e-20)
(1.00313 0.023238 -5.21273e-20)
(1.00282 0.0245737 -1.12201e-19)
(1.00135 0.0154125 1.49667e-19)
(1.00184 0.0173016 5.63546e-20)
(0.999241 0.00893872 -4.63306e-20)
(0.997858 0.0115161 2.56083e-19)
(0.99346 0.00806108 -3.58848e-19)
(0.350003 0.264544 -5.29367e-19)
(0.285918 0.238609 -4.80497e-19)
(0.474939 0.250932 -2.17267e-19)
(0.419148 0.229819 -1.39743e-19)
(0.578071 0.228479 1.54936e-19)
(0.530186 0.211286 -7.5938e-21)
(0.660458 0.204661 5.34957e-19)
(0.620592 0.189903 5.16793e-20)
(0.726009 0.182661 4.62144e-19)
(0.692621 0.16985 2.33787e-19)
(0.778517 0.163339 1.49504e-19)
(0.750469 0.15197 8.07522e-20)
(0.82108 0.146712 1.31478e-19)
(0.797247 0.136514 1.40779e-19)
(0.856004 0.132414 5.85823e-21)
(0.83555 0.123247 5.95401e-20)
(0.884932 0.119945 -5.87075e-20)
(0.867228 0.111751 -6.04604e-20)
(0.909024 0.108826 0)
(0.893647 0.10157 1.01159e-19)
(0.929117 0.0986915 -8.5211e-20)
(0.915779 0.0923154 -1.41295e-19)
(0.945848 0.0892924 7.0057e-20)
(0.934296 0.0837586 1.73412e-19)
(0.95971 0.0804438 8.55081e-20)
(0.949744 0.0757269 -2.97304e-21)
(0.971087 0.0719923 -2.12769e-19)
(0.962551 0.0680768 -1.13053e-19)
(0.980278 0.0638106 -7.28329e-20)
(0.973056 0.060685 -2.80619e-19)
(0.987523 0.0558085 4.89732e-21)
(0.981527 0.0534539 2.04039e-19)
(0.993026 0.0479517 2.45145e-19)
(0.988182 0.0463325 -1.28586e-19)
(0.996973 0.0402718 3.1298e-19)
(0.993208 0.0393376 2.16468e-19)
(0.999538 0.0328406 -5.94633e-20)
(0.996788 0.032537 -3.15653e-20)
(1.00087 0.0257126 -1.70836e-19)
(0.999154 0.025979 -2.9147e-20)
(1.00108 0.0188869 -3.23784e-21)
(1.00049 0.019666 -1.12201e-19)
(1.00031 0.0123845 1.61582e-19)
(1.00043 0.0137751 1.08806e-19)
(0.999035 0.00701064 6.33156e-21)
(0.997821 0.0089352 -3.74484e-22)
(0.994662 0.00577516 -4.66787e-20)
(0.353155 0.20372 -9.90421e-20)
(0.293346 0.179657 3.98391e-20)
(0.471814 0.190845 6.6106e-20)
(0.419799 0.169138 1.75693e-19)
(0.571162 0.173181 -1.11379e-19)
(0.526574 0.153923 5.7533e-20)
(0.651542 0.155523 -2.5207e-19)
(0.614438 0.138367 -2.76732e-19)
(0.716192 0.139494 -1.45062e-19)
(0.685114 0.124327 -1.41964e-19)
(0.768452 0.125436 7.09692e-20)
(0.742355 0.111906 0)
(0.811124 0.113282 6.96588e-20)
(0.788953 0.101154 -7.53275e-20)
(0.846344 0.102751 -5.55826e-21)
(0.827324 0.0918683 6.57016e-20)
(0.875666 0.0934823 9.76401e-20)
(0.859209 0.0837535 5.70176e-20)
(0.900213 0.0851332 -3.74614e-20)
(0.885922 0.076485 4.92399e-20)
(0.920804 0.0774483 1.14168e-19)
(0.908411 0.0698041 -1.8858e-19)
(0.938066 0.0702523 1.02074e-19)
(0.927328 0.0635593 2.16824e-19)
(0.95249 0.0634108 -2.00535e-19)
(0.943214 0.0576302 -7.8823e-20)
(0.964456 0.0568112 -1.79535e-19)
(0.956494 0.0519156 -3.85116e-20)
(0.974265 0.0503623 -7.82575e-21)
(0.967505 0.0463288 -1.78893e-19)
(0.98216 0.0440079 7.30725e-20)
(0.976517 0.0408065 1.36802e-19)
(0.988349 0.0377449 -1.59981e-19)
(0.98375 0.0353294 1.47214e-21)
(0.993017 0.0316257 -1.26267e-19)
(0.989391 0.0299378 -1.60178e-19)
(0.996336 0.0257258 -1.46175e-21)
(0.993621 0.024708 7.62177e-23)
(0.998455 0.0200899 3.00208e-20)
(0.996653 0.0196887 -1.20225e-19)
(0.999494 0.014708 0)
(0.998647 0.0148803 2.51161e-22)
(0.999569 0.00959841 -5.25923e-20)
(0.999341 0.010391 8.42821e-20)
(0.99898 0.00527491 -5.32116e-20)
(0.997945 0.00662855 -8.02341e-20)
(0.995841 0.00388981 0)
(0.357977 0.145081 3.11937e-19)
(0.301075 0.122744 3.25758e-19)
(0.472022 0.132766 1.69059e-19)
(0.423071 0.110469 3.49141e-20)
(0.568283 0.119476 -1.01373e-19)
(0.526591 0.0983312 2.86116e-20)
(0.646787 0.107496 -1.68729e-19)
(0.612263 0.0881862 -2.78409e-19)
(0.710368 0.0969927 1.03443e-21)
(0.68157 0.079723 -9.63597e-20)
(0.76209 0.0878494 -1.45248e-19)
(0.737984 0.0723987 0)
(0.804552 0.0799196 -8.10917e-20)
(0.784119 0.0660735 1.93075e-21)
(0.839761 0.0729964 1.28372e-19)
(0.822264 0.0605772 3.31529e-21)
(0.869191 0.0668341 8.74095e-21)
(0.854077 0.0557222 5.94166e-20)
(0.893931 0.0612104 -9.92483e-20)
(0.880825 0.0512994 -5.19145e-20)
(0.914778 0.0559649 -8.99939e-20)
(0.903426 0.0471628 -5.02468e-23)
(0.932348 0.0509822 3.86678e-20)
(0.922515 0.0432233 -1.31382e-19)
(0.947122 0.0461733 8.28536e-20)
(0.938626 0.0394061 8.25516e-20)
(0.959479 0.0414639 -3.66912e-20)
(0.952176 0.0356493 -3.87597e-20)
(0.969718 0.0367978 -3.68565e-20)
(0.963501 0.0319022 7.41897e-20)
(0.97808 0.0321508 6.62275e-20)
(0.972869 0.0281344 0)
(0.984772 0.0275448 2.51e-21)
(0.980498 0.0243539 6.67334e-20)
(0.989978 0.0230429 -3.49226e-20)
(0.986572 0.0206149 -6.54756e-20)
(0.993868 0.0187148 -1.17882e-19)
(0.991268 0.0169915 -3.1968e-20)
(0.996591 0.0145917 -1.49963e-19)
(0.994782 0.0135247 -8.90462e-20)
(0.998272 0.0106603 8.46389e-20)
(0.997263 0.0102098 2.9699e-20)
(0.99903 0.00694753 5.762e-20)
(0.998551 0.00710536 -1.15299e-21)
(0.999046 0.00371267 -2.74838e-20)
(0.998163 0.00447083 8.26141e-20)
(0.997014 0.00240271 0)
(0.364154 0.0882353 5.58644e-20)
(0.308966 0.0673531 2.13218e-20)
(0.475123 0.0764698 -1.0558e-19)
(0.428629 0.0534653 -5.31613e-20)
(0.569006 0.0672939 -1.42693e-19)
(0.529868 0.0443318 6.16763e-20)
(0.64583 0.0606299 -2.0901e-19)
(0.613733 0.0393216 -2.86249e-20)
(0.708262 0.0553016 -9.8782e-20)
(0.681713 0.0361218 -9.85069e-20)
(0.759235 0.0507797 1.47116e-19)
(0.73715 0.033606 -4.49543e-20)
(0.801228 0.0468547 8.65371e-20)
(0.782597 0.0314752 3.62498e-20)
(0.836157 0.0433872 -6.61928e-20)
(0.820263 0.0295981 -9.75224e-20)
(0.865442 0.0402367 0)
(0.851755 0.0278857 6.90906e-22)
(0.890131 0.0372863 4.67426e-20)
(0.878298 0.0262395 0)
(0.911005 0.0344543 -4.01049e-20)
(0.900779 0.0246063 -2.40375e-20)
(0.928666 0.0316774 -8.95384e-20)
(0.919823 0.0229487 -4.38508e-20)
(0.943586 0.0289075 -3.79952e-20)
(0.93595 0.0212341 2.06418e-20)
(0.956138 0.0261074 7.10922e-20)
(0.949573 0.0194386 -3.83318e-20)
(0.966617 0.0232546 1.11639e-19)
(0.961022 0.0175464 9.22394e-20)
(0.975261 0.0203531 0)
(0.970561 0.0155576 0)
(0.982273 0.0174416 -2.39376e-22)
(0.978404 0.0135011 -5.09783e-20)
(0.987836 0.0145837 -6.27482e-20)
(0.984732 0.0114356 9.87393e-20)
(0.992115 0.0118361 -2.6718e-21)
(0.989713 0.00942425 -4.70478e-20)
(0.995261 0.00921737 9.06686e-20)
(0.993532 0.00749744 6.10183e-20)
(0.997401 0.00671395 -5.52767e-20)
(0.996334 0.00564547 1.47825e-20)
(0.998656 0.0043553 2.04908e-20)
(0.998048 0.00389891 -7.11991e-20)
(0.999162 0.00228662 1.10565e-19)
(0.99843 0.00241771 1.37478e-19)
(0.998085 0.00126014 0)
(0.371506 0.0327412 -8.7097e-20)
(0.316931 0.0129427 -2.77272e-19)
(0.480847 0.0216519 1.11385e-19)
(0.4363 -0.0022794 1.86077e-20)
(0.573056 0.0164924 1.77371e-19)
(0.536192 -0.00831532 3.0803e-20)
(0.648416 0.0149204 8.29789e-20)
(0.618642 -0.00830756 8.27778e-20)
(0.709666 0.0145159 -4.56157e-20)
(0.685353 -0.00643511 9.61817e-20)
(0.759728 0.0143888 -1.57087e-19)
(0.739699 -0.00434661 -2.33992e-21)
(0.801032 0.0142867 -1.46059e-19)
(0.784265 -0.00246325 -1.86178e-19)
(0.835445 0.0141398 -3.1774e-20)
(0.821228 -0.000864265 1.35868e-21)
(0.864349 0.0139098 6.98594e-22)
(0.852167 0.000459876 5.86732e-20)
(0.888759 0.0135739 -7.05294e-20)
(0.878276 0.00151867 0)
(0.909439 0.0131165 -2.75878e-20)
(0.900417 0.00233642 -7.11903e-20)
(0.926981 0.0125207 6.57316e-20)
(0.919203 0.00292203 2.28335e-20)
(0.941846 0.0117778 2.0823e-20)
(0.935144 0.00328332 7.82231e-24)
(0.954401 0.0108865 -1.83653e-20)
(0.948646 0.00343341 0)
(0.964933 0.00985613 -1.86669e-20)
(0.960031 0.00339043 2.18076e-23)