/*--------------------------------*- C++ -*----------------------------------*  =========                 |
  \      /  F ield         | OpenFOAM: The Open Source CFD Toolbox
   \    /   O peration     | Website:  https://openfoam.org
    \  /    A nd           | Version:  11
     \/     M anipulation  |
\*---------------------------------------------------------------------------*/
FoamFile
{
    format      ascii;
    class       volScalarField;
    object      U;
}
// * * * * * * * * * * * * * * * * * * * * * * * * * * * * * * * * * * * * * //

dimensions      [0 1 -1 0 0 0 0];

internalField   nonuniform List<scalar> 
2880
( 
0.07920056656263194
0.1633065754765856
0.17915796318619756
0.1702726748962225
0.18411846370266918
0.4566364413234541
0.12268196539284294
0.17218686983959672
0.15919654839442232
0.1617158767916158
0.22428386488940708
0.4173745039363617
0.1391432920129962
0.16249324774097765
0.1471949855252115
0.1650824770720224
0.2626589651825467
0.4489928656174597
0.15231824340547034
0.15589743599502334
0.1428637818768398
0.18369093648969617
0.30366881537973284
0.4864358665173902
0.16623455559547073
0.15256584476690996
0.14560586088859384
0.20495723204019306
0.338119101183675
0.5202204752775365
0.17796303061182517
0.14956934598193256
0.1504391188270727
0.22342415655361134
0.368207939346996
0.5496684628489898
0.1869547303886666
0.14655081233440723
0.1561369879839659
0.2415052258446745
0.3926870950937459
0.5771444879136964
0.19515079890619993
0.14567823559513943
0.1608008308178611
0.25634429047172813
0.41473609800696454
0.598993040575752
0.201668500697644
0.14528975147676637
0.16394981780158355
0.26695994633922654
0.429771640234608
0.6177611238440901
0.20744854064733415
0.1448256786788592
0.16577237256291222
0.2723061362928738
0.44397288231807674
0.634041519031149
0.21187371584719022
0.14434658991256086
0.16583740306964972
0.2742824048778966
0.4492059925870709
0.6441267888001108
0.21470521697451067
0.1438116882563591
0.16400324952264353
0.2712186259648062
0.4475619145676617
0.6510457310540859
0.21656115046307928
0.14362598106006083
0.15869955299440563
0.2663037748357779
0.44433892740706415
0.6534211625072792
0.21621645488236405
0.1437192084626315
0.1532760661828415
0.2576738579697562
0.4345408813773532
0.6529168143104369
0.21437823739862394
0.14383764184884762
0.14556645149966985
0.24295380028752495
0.4229321720449254
0.6444428282609951
0.2111855584838469
0.1468129474294577
0.14225930240736598
0.22562777635566367
0.400104938876785
0.6287333435419156
0.20704450563736537
0.15205679555695756
0.14087401935341304
0.2044435304526944
0.3773278544888586
0.610754665061725
0.2025068781552336
0.15857336327903893
0.13884967051774316
0.18591286738514734
0.34496327719344777
0.5824132644473174
0.19522093741077018
0.16462802418918132
0.14587981314470627
0.1679422433193928
0.3067883381772428
0.5457687055729061
0.18387081563764412
0.16937174172530017
0.15643328968234227
0.14907366131703192
0.26581554295257487
0.4965846275927957
0.1688618318156757
0.17222373777507857
0.17193069698213842
0.1486840320249817
0.2246963818555117
0.43993491121315464
0.15303459162732483
0.17361602611139884
0.1915776303388192
0.16206893137640443
0.19392556795212676
0.3606688362280609
0.13294648870108355
0.16950285732909476
0.2088692695489575
0.18169426839002972
0.21449757926784693
0.27672913121270326
0.07812501529753012
0.13340221178814773
0.20808883840676387
0.17980917095634197
0.327663805368754
0.22353991293233172
0.7142213695313022
0.8006153490326187
0.8908113386549368
0.9750234403746119
1.0349538299321264
1.1005948831465215
1.152719475523537
1.2075421013476175
1.2535174872493315
1.295139565775114
1.3327159610535741
1.3566882070850972
1.3765998476510015
1.3840059388589576
1.3865981714635536
1.3763815842416045
1.3640060900717503
1.346704605477853
1.324803010648234
1.3035084817932803
1.2758612940916898
1.2454009468447207
1.2132713775798147
1.1728327382927841
0.711537563952629
0.8277612113625138
0.9194094126128542
1.0028048673209564
1.0769099790298804
1.144733329437942
1.1989185884991385
1.2502336721502216
1.2934907021944455
1.3295523890101693
1.3550432925244533
1.3715996838286746
1.378925900710322
1.3800047523159635
1.3741160553219136
1.3609105313990384
1.3440270969628478
1.324206709016695
1.3074794009496773
1.281852505121707
1.2524106152676184
1.223756718137058
1.1864517311364406
1.1492839675980067
0.7141681174937129
0.8461005111944567
0.9516718493755995
1.0399142287274086
1.1217238415490958
1.187190041195971
1.2437498638601139
1.2871440523612305
1.3231123385869947
1.3485849207356826
1.3665949644561337
1.3747260489973956
1.37467626346781
1.369093354668407
1.3592306147783682
1.342119288115502
1.3231805113564183
1.3032454265547893
1.2809429137026058
1.261337428009748
1.2325218420945248
1.2016140654366663
1.167727445847403
1.132833865956535
0.7239484138668992
0.8700689244598427
0.983401115931929
1.080143221286794
1.155039040995002
1.2218959803860066
1.276486291668854
1.317016053538027
1.3413646000317498
1.3613089028023493
1.3684773394545158
1.3676380314187915
1.3634662732412508
1.3492038951497252
1.3363379774852358
1.322685713077272
1.3027276643275634
1.2848060424964285
1.260559848640507
1.2380097461777928
1.2125061949215374
1.180759365898998
1.15057301833128
1.1108776039887778
0.7450636921207056
0.8949040292878245
1.0115662852933793
1.116156859025259
1.1963027200212648
1.2578303061219605
1.3027594036797068
1.3348727213201923
1.3536707045570722
1.3565675746551475
1.359038803997331
1.3540959771899297
1.3486421093944048
1.3362066107104646
1.3209428712212332
1.3043866083590818
1.286467454599136
1.2635423381101905
1.2428783860613712
1.2208368525674462
1.1930481643733486
1.1643068307420052
1.1317130764363736
1.0969773286019093
0.760882982455142
0.9238175974880474
1.053619316900625
1.1576295034819086
1.2316005384553583
1.2860721948682774
1.3222164766286522
1.3409754169788808
1.3509406346240551
1.3537177309286021
1.347494381510593
1.3403902556535507
1.3311513024102677
1.3107577564846473
1.2980671635023924
1.281474792713264
1.2647086401005776
1.2468205640122678
1.2254032794081153
1.2009890279622972
1.1751615451134076
1.1470803642350098
1.115865834581584
1.0820158279622856
0.7789363446464714
0.9508031996656798
1.0892346388794356
1.1907069483789452
1.2610142817161236
1.3061022508069973
1.331284562846913
1.3426381594416523
1.3498946419980313
1.3453555805086235
1.330803136046362
1.3250713497959223
1.3097497466389791
1.2970685755384137
1.282056530915021
1.2623424461120392
1.2437724061372177
1.2252177570820677
1.20547887404262
1.182174535657514
1.1608005774645584
1.1315907178247107
1.1024068916606589
1.0686135882105872
0.8058699501664482
0.9866107656673815
1.12434752385757
1.2210510285612215
1.2806632461805565
1.316872175322063
1.3327924841775338
1.3374123729299277
1.331878780242458
1.326423229653439
1.3146100561051615
1.307280290185044
1.2929308949850566
1.2766405531195182
1.2595238296328828
1.2442428638818956
1.2266462416152761
1.2103535005974186
1.1896964756608692
1.1678691456415926
1.1444492677431897
1.1188058740945077
1.0906030604518147
1.0581964563690278
0.8291876367096637
1.016002371048848
1.1563316951414304
1.2435524630016261
1.295789879753677
1.3197842970255989
1.329716763481832
1.3255884831833171
1.3201825765156348
1.3109205366625654
1.2996842377686488
1.2834877072934447
1.2705160224480216
1.2598001402236407
1.2435895788251687
1.2290021545240613
1.2100242082332557
1.1936233053737701
1.1753053259287127
1.1540866024698602
1.1326998196823763
1.1053026577663236
1.0788154846634543
1.0467062662503768
0.8530591543231364
1.043497968611934
1.1774936477568256
1.260472013345057
1.2991641998803218
1.316547749156237
1.3142035534872343
1.3096982440881515
1.3038383430054221
1.2929996799871764
1.2800471479868722
1.2687854331204753
1.2552976910306335
1.240203050666399
1.2266884549124843
1.2113998020330563
1.1951390076797699
1.1787928069395333
1.1590626991037827
1.1404911404541476
1.1169625794038265
1.095392341730504
1.0670852700510534
1.0364763641340229
0.8713006674420674
1.0689861633417412
1.199925027238376
1.2708822256920405
1.3011529204261445
1.307498062315492
1.3035940576460407
1.2914483090620594
1.2884288242286703
1.2751563740757674
1.2613604271110934
1.2495723700345345
1.2354525854767036
1.2207269109788406
1.210064872862213
1.1949963325583235
1.1810306070930237
1.1635685723873057
1.1459797079085978
1.1275341152532123
1.1071670221916896
1.0827908950130674
1.057232052260923
1.027290731894663
0.8847621600764206
1.092419915868378
1.2114037469976768
1.2709930757858086
1.2937678358604539
1.2923767860348685
1.2868180461739605
1.2792492353134552
1.2660328669609715
1.253947374657643
1.2446307469303577
1.2281289241220932
1.2175548585827156
1.2061089049751423
1.1931738147007462
1.1791645275081177
1.1654106811509122
1.149234285555985
1.1323072149509206
1.1141033451588434
1.0934762379759344
1.0722901734133026
1.0477091768520002
1.018812302432258
0.901659496495976
1.1124214386490396
1.2209901396503775
1.2713537213163417
1.2768191003588432
1.2723787204424966
1.2651212782283507
1.251209988390623
1.2409950446382096
1.2312712513751147
1.225320328189342
1.2116193373877788
1.1988309454405957
1.1873801522218446
1.1753512276696305
1.1630114745786782
1.1498455700050032
1.1343318615673983
1.1181747294202913
1.1016341176714384
1.082326259669037
1.0629156325935356
1.0385509880440973
1.0106047205338813
0.9152769698755865
1.1231710788732792
1.223155743068891
1.2528932385326959
1.2571614149172459
1.2527696062873108
1.2466461797445032
1.2316202129332825
1.2257579575797646
1.2155474090593896
1.1998685731651544
1.1934870705811496
1.1805255329915836
1.1738689873725932
1.1604351313640069
1.1472024857813057
1.1342025174183603
1.120809209493687
1.10686861420562
1.0899149300366782
1.072007938215831
1.0519919047621282
1.0295016248087672
1.0038116791033886
0.922816474371331
1.13450192959951
1.2206609192393805
1.2387808832085145
1.2369502070675797
1.2331648291656028
1.221527477565604
1.21094440302905
1.2018115218180419
1.1942329881492586
1.1860900964568435
1.1729856464170147
1.1630048281769652
1.156404347491901
1.1435221991498816
1.1320144541478108
1.1197931074055227
1.1083005084931439
1.0926713871217006
1.0772008768046522
1.060597075489461
1.0435259457745316
1.02164720874441
0.9985431408624728
0.9287893323312966
1.135133787609862
1.2013184709211868
1.2179766675767971
1.214177079521129
1.206342750699009
1.196008364702285
1.1818993789731702
1.1760225716971355
1.1701169996539453
1.1650932049617844
1.1560768862543322
1.1479086759822972
1.13748415915446
1.1273090888653177
1.116405821129726
1.1046836423020414
1.0930442060664227
1.0810559696531763
1.0656801313011852
1.0501711322003637
1.0351051597356744
1.0146677230077696
0.9933490104527348
0.9335595819017988
1.1322368241074956
1.187908899204244
1.1952668692431108
1.1912684143620145
1.175230302405989
1.1701660065359774
1.16242086142117
1.1534116897537476
1.1453629788125839
1.141514716033638
1.1352230052221326
1.1291343565647505
1.1190921037709602
1.1110113697624615
1.1016234658421653
1.0908926617421046
1.0794678786376828
1.067322268212122
1.0553202820502263
1.0416007777282346
1.0268175988299573
1.0090054642737398
0.9894429936126645
0.9311022764480414
1.119728387771299
1.1648541988234582
1.167074450896443
1.1595176649241403
1.149784320100332
1.1424844676855428
1.1343751020655266
1.1288167376463902
1.1236148659033862
1.1194429439369453
1.1151197922749618
1.110116521392811
1.1037843522439172
1.094921655391397
1.0865834044026497
1.077012968980066
1.0679367978374958
1.057330916280647
1.0455171423448302
1.0334129875769698
1.0201235503741892
1.004126887405531
0.9871913577345293
0.9229864187549073
1.10110784156849
1.1385241849198333
1.130720145121694
1.1253376955294623
1.1214916104495876
1.1115785821883555
1.1095694206681943
1.105228956621468
1.1029282883493832
1.0995521969550444
1.094627022811716
1.0917407528752334
1.086385810981974
1.0776538551648605
1.070962257990319
1.0630013980659048
1.055071913430546
1.045317261331346
1.0356783504834834
1.0260426138501035
1.0143373311232209
1.0006220700695176
0.9853805860774026
0.9113361444626576
1.0735257738608517
1.1012734748989488
1.09908082777977
1.0925473762212987
1.088764192358598
1.082959860123964
1.0813140073254015
1.077680945301487
1.0799165507502448
1.076956160317415
1.075137287386098
1.0711307482203944
1.0672460800593657
1.0628723933125097
1.05845204073219
1.0505549468368298
1.0435124569233083
1.035356809861871
1.0267401192699646
1.0191579138799758
1.0094575862253556
0.9975614898101755
0.9845705231600256
0.8929890522857001
1.0460401618398563
1.0615446813759297
1.0619009796316912
1.0574481460977458
1.052519768799475
1.053215071207438
1.0553906345097492
1.0555196573691132
1.0570840455117898
1.0560322210907571
1.054646998095755
1.0534981150369591
1.0501061472627033
1.0471400219241793
1.043325046803551
1.038116737474917
1.0321694997125668
1.0260069817395157
1.019772785859035
1.0131040735437389
1.0050458741825128
0.9944569820066166
0.9839844549749842
0.8684409901485306
1.0046257522272806
1.0141135255337295
1.0192300230781628
1.0163555978091796
1.0180926815800493
1.0215331814602515
1.0249361438224593
1.029333371122386
1.0312169507091913
1.0340686604714673
1.0347281770528203
1.0345698039363338
1.0333009585781414
1.0310947277806
1.0287122719212913
1.0254311670983671
1.021835189271707
1.017638751085575
1.0124266530002493
1.0072689420462888
1.0013501773667983
0.9927984907710196
0.9840367006156298
0.840254065391157
0.9510855661193798
0.9617992438956041
0.9682733040227872
0.9757951443108623
0.9826513825918733
0.9885008059475241
0.996970141954452
1.0014863839242658
1.0082070279350244
1.0114803964819858
1.0144934137566284
1.016293861737466
1.017004901260469
1.017514321322268
1.0162020151328504
1.0147181194506383
1.012171398370949
1.0094335789570992
1.006588148943424
1.0027262822818752
0.9980617562986923
0.991434208104424
0.9845236822879857
0.7878253801613448
0.8740014727955528
0.8973948561489603
0.9160766860519426
0.9311726717885309
0.9440302791268244
0.9567375588395478
0.9684699869979869
0.9767104526978013
0.9840163402108804
0.9901124368245934
0.9952481009197311
0.9987311389101483
1.0005064720163532
1.0032427686951126
1.003976405486473
1.0040882184510584
1.0036830902880167
1.0021795362774744
1.0005352553236218
0.9986806175343803
0.995440918681815
0.9903318495612553
0.9845444854336689
0.05912845419525498
0.15237042996657252
0.24697849595796026
0.2873836652939128
0.2922745964855
0.3620555890823352
0.09211100123220081
0.1910115449202989
0.2579396051935614
0.2811273634203726
0.27466593575583487
0.2702863693130737
0.11433851484231694
0.20632955380956472
0.25679292825283984
0.26648461325416706
0.2617138292338998
0.2748495456282321
0.13393785342779563
0.2177015898464406
0.2541247519315241
0.2598667696419815
0.25763299325971667
0.2837140302567432
0.15526537540432023
0.2274104309728272
0.25447177152261646
0.25775800847601255
0.2559790641335893
0.2902580687809204
0.1710563469821848
0.23454491625045884
0.2576749547152296
0.2559814603511709
0.2589634534531219
0.2919843529983959
0.18396368334249444
0.23934798075274324
0.2589097430155533
0.25699519516555364
0.2629485024331925
0.29875003524162036
0.19584289829873797
0.2427960775041629
0.2618745925373817
0.262466861876556
0.27305630263816805
0.3047726951978009
0.20589478174346143
0.24772931117857733
0.26726418776465577
0.27034218201301996
0.2818295586630787
0.31640148856559874
0.21208805791906077
0.2503551850590783
0.27300139479938457
0.28032664294004944
0.2961107760505728
0.33337986402984454
0.21668481317113528
0.2528610104743062
0.2773026292097895
0.2949766156242158
0.31335004573029585
0.35493103727268394
0.2194294186119542
0.2547177847753636
0.28263845615155375
0.30536230138075715
0.3342396910128895
0.37781071936587124
0.2195837374921331
0.2562178417089678
0.2904838634876796
0.31931857282271403
0.35576411545051284
0.40467204515914246
0.21727218309845364
0.2546853344945632
0.2963083602965517
0.3341871610977391
0.38010339118145814
0.4371315361901928
0.21190330447761394
0.253383094178523
0.30086340906630016
0.34909815627504237
0.40245243794178354
0.46896847367586364
0.20469891778053106
0.2532527283478908
0.3047873416211257
0.3616768320940828
0.43012888613559014
0.5082646992346963
0.19589459297570144
0.2507513978610469
0.30930927200149855
0.37405501336034863
0.4541014357061035
0.5461499476774694
0.18511395357438126
0.24699342391589169
0.3136142521667151
0.3845840286889911
0.4779244749608168
0.5856362656402814
0.17105206416018323
0.2398397204424985
0.3113836475304777
0.39078559391428025
0.4991470573087468
0.6255829602522243
0.1542137681603697
0.23178047906946853
0.30587942813423524
0.39319157111871433
0.5139398633205621
0.6656657968576656
0.13372752462186588
0.21584087925358875
0.29725551898337166
0.39203655485117933
0.52159238837716
0.6991180413900169
0.10920197075794111
0.19794140618592576
0.2798588441548888
0.3789077360313623
0.5161215530035703
0.7293442759825165
0.08283597350679464
0.17019950563286035
0.2547469300333945
0.36101320089694167
0.4872396882509717
0.7659396731521271
0.054251252988631316
0.12229053309192917
0.20691793544454176
0.3273677357597208
0.41904100702084124
0.9205583791838304
0.6897622206450611
0.7790742528786708
0.8262120872682219
0.8620137367343358
0.8870681711750024
0.9058354289852226
0.924720410643523
0.9389454531995843
0.9512659531486392
0.9608152084564323
0.9690272378673065
0.9764571528161695
0.9809766438858865
0.9862310512393935
0.9899255835482306
0.9925759057487133
0.994618636908377
0.9956017026838022
0.995947959865354
0.9958806964871789
0.9949865697574436
0.9925513229368335
0.9895312257767503
0.9851779235349211
0.5716027373722782
0.6961791011677649
0.7639404121190543
0.810366669278465
0.844283861651193
0.8709021355534251
0.8934374700608069
0.911106971657488
0.9260445044264688
0.9397176226561322
0.9487105785469665
0.9585467314720217
0.9660279471513711
0.972389734819301
0.9780080774338622
0.9826206464760057
0.9860000398312627
0.988117848408015
0.9907378073365576
0.9913031549765778
0.9918736363140537
0.9913722813634358
0.9888510363536079
0.9864415405170431
0.5086428452349
0.6332870208530919
0.7093492804947159
0.7657038006086835
0.8064369920882781
0.8395833211185564
0.8656346699056527
0.8864853350510296
0.9045651019188776
0.9183514427268255
0.9307821973115769
0.9426413797274662
0.9523652211213692
0.9606879452026565
0.9682397953425067
0.9734131734035888
0.978571914469207
0.982549460132699
0.9857046345002582
0.9877217368875384
0.988653431552965
0.9899114002020375
0.9887184919390958
0.9873008589126495
0.4623197299797571
0.5866113713561831
0.6674347436035846
0.7285205459269536
0.7754629366017463
0.8119206369085094
0.8406770754093899
0.8639856169372129
0.8851643690193166
0.9016153401919939
0.9170246081119615
0.9296223513655646
0.9406295192402019
0.9514672256363126
0.9592794418972723
0.9678095833302671
0.9740523765966475
0.9782228974481683
0.9820571194809449
0.9847737185615519
0.9876069175522126
0.9884231806680834
0.9892111237490603
0.9888919296753418
0.430037495129194
0.5513792707332767
0.6329787012731062
0.7000890988632844
0.7493716331527738
0.7883096662941832
0.8213216515971189
0.8478257193576295
0.8689597436042615
0.888194422946626
0.9048631463012545
0.9192509032229431
0.9328906037871365
0.9444200206432749
0.9518842647487931
0.9606224561717728
0.9685795484599111
0.9741823495478112
0.9788318191980787
0.9828212093952708
0.9860286489121162
0.9888303149214416
0.9893644675271903
0.9898339921610365
0.4071147419936707
0.5256777404101396
0.6087171872943782
0.6774633458157262
0.7321519170358554
0.772630207811225
0.8053336275539109
0.8335371085411695
0.8564654658202977
0.8778214388069681
0.8951294454298925
0.9111201039824646
0.926816101233922
0.937800782719138
0.9482881101939515
0.9590817989060858
0.9664474890206705
0.9724274310054194
0.9775071558252434
0.9819240859667137
0.9852625005364687
0.9882634788528473
0.9901065735855216
0.9910191003889876
0.3953834009137329
0.5063781573498205
0.5929820055294459
0.6632865081348802
0.7168513781164184
0.7600234039102469
0.794481836365811
0.8235231037116545
0.8476388350238659
0.8700728800995357
0.8888664144723786
0.9067971281993848
0.9228055070862909
0.9361429945228696
0.9460719416680359
0.9561361142969488
0.9649258083928779
0.9713278020175774
0.9766986021317378
0.9814607761457527
0.9854365071154426
0.9885560483272272
0.9898932086734767
0.9919755781365477
0.39058177291222707
0.4983463724462429
0.5838189315345181
0.6549796623267122
0.7082725932952458
0.7503900697327159
0.7869992274899432
0.8172790707070048
0.8429946380780282
0.8652991964268769
0.8854802483294678
0.9049716405952857
0.9209400171469637
0.9342251091853625
0.9457296549192811
0.9564191032315901
0.9647214048157656
0.971590090778524
0.9769827361811503
0.9823225005027376
0.9856582724656503
0.9890608909393385
0.9914446081349669
0.9927197770433208
0.3950982648682394
0.4963710978392786
0.5803594265642007
0.6509136947483429
0.7053551897321662
0.7481071746923982
0.7811809596516945
0.8131764585308799
0.8410383621909233
0.8661130583858417
0.8864912820747896
0.9050037542350992
0.92212420086408
0.9356419551072733
0.9473015926533875
0.9571273656512792
0.9652794704308999
0.9724511532310547
0.978248513376978
0.9830936339287405
0.9869762140352973
0.9891315353468008
0.9913121121670183
0.9930146427772591
0.4079183400189559
0.5028010587138654
0.5863452795011854
0.6549996088477299
0.7074111154522698
0.7485711858740474
0.7859131282879194
0.815462008791564
0.8441588898831398
0.8673516225704457
0.8910607262432791
0.9085176038252445
0.9252916288642054
0.9388991985443607
0.9494814320794572
0.9603306304997244
0.9680961869055772
0.9738508576738482
0.9795937096887781
0.9844034999311992
0.987831118378187
0.9901283403654416
0.9917482392022181
0.9927763871502964
0.4231981767215751
0.5172168544557368
0.5979387846163382
0.6627203976160472
0.7134807816563347
0.7526602605277043
0.7892395706527169
0.8215673048939228
0.8510308777145944
0.873537679421021
0.8968782295274313
0.9142364020788423
0.9299167675024415
0.9434595209445424
0.9546588588869193
0.9639369079936791
0.9704021894814655
0.9767242763735884
0.9816606219792504
0.9860261259927054
0.9891958538145696
0.9909543158108305
0.9919459089496603
0.9918526398894706
0.4475700687605702
0.5383759063962787
0.6153027108581913
0.675460460766675
0.7251358466525993
0.7646539485520611
0.7997680813145809
0.8327081901197091
0.8605935908586053
0.8855376193654426
0.9037382096169644
0.922124051547729
0.9366594691493838
0.9499657393627856
0.9596311173264009
0.9689200634777821
0.9748947445626132
0.980539496016742
0.9847749836088524
0.9876954146816561
0.9902909108069838
0.9912487862918743
0.9913358826191152
0.9910580726385785
0.48029878279443217
0.5657223210356072
0.6381065520174177
0.6936712837280159
0.7388535267511765
0.7805756372537573
0.8152130947834063
0.8456635102189773
0.8731861917090689
0.8957717163080849
0.916287440178721
0.9329487957027518
0.945783544424881
0.9585050193523215
0.9671582576611664
0.9742028187408157
0.9806086776904391
0.9857167264640667
0.9880740536270421
0.9904583096010922
0.9917933491893318
0.9917951186824491
0.9908140105295445
0.9892449466314032
0.5143920038894348
0.6000920232322294
0.666758968005587
0.7194361881009136
0.7636013860407358
0.8025528056838661
0.8361281520075099
0.865596839202137
0.8898004465106686
0.9122716623645539
0.9304909664866595
0.9450480111370276
0.9576852295786357
0.9686670161116857
0.9763724599048108
0.9836507140871011
0.9875382372659177
0.9898948449557005
0.9920520337349459
0.9933962825647518
0.9932943452258741
0.9930406465845504
0.9904672356957801
0.9874620891772807
0.5578439678969171
0.6407484295976849
0.7033288473296462
0.7509894337860066
0.7935277186042556
0.8289043438470391
0.8594974485002
0.8887057601633467
0.9110572043426437
0.930537031937949
0.9456644503872282
0.9609155140044735
0.9719065114056714
0.9793039070987596
0.9864899366842907
0.99144362622402
0.995330760870892
0.9964271771012823
0.9966195410670172
0.9963434473905624
0.9954164836327131
0.9934932420860771
0.9900244331849648
0.9857201284870254
0.6054021127568777
0.6889082459724724
0.743364250067622
0.7880014751069473
0.8276676377289867
0.8600896919211987
0.8892116376361043
0.9139017996808302
0.9361939127790794
0.9514940405006075
0.9655384791893669
0.97756157085066
0.9867789834203546
0.9936922663231341
0.9986336479001422
1.0014648501051362
1.0014740572366647
1.002832753536198
1.0019022783123155
1.0002429557508306
0.9976968437364708
0.9945596810884905
0.9899025884497757
0.9842397500113598
0.6606998892478152
0.7430129621825482
0.7902761366247141
0.8344130285164527
0.8671310646315531
0.8991871955614293
0.9219703591749808
0.9454731230469733
0.9635705007100474
0.9761584085361118
0.9878150832601995
0.9971406028552815
1.0043388725826599
1.00847700053479
1.0101277224265826
1.0123717139609827
1.0125423629612935
1.0104191012142794
1.0082653391905527
1.0058864569406145
1.0016832782107328
0.9977569892811147
0.9902147184318909
0.983237078167369
0.7241206446734196
0.8017953968089464
0.8481507460303078
0.8862495881270603
0.9165214647460076
0.9405102899296219
0.9630636812186921
0.9794551665651476
0.9939905273594799
1.0053363112070313
1.01210697194638
1.0200703152360557
1.0231592250452508
1.0252163837921264
1.0262209536752214
1.0244539645856658
1.022507316746617
1.0193596444098243
1.0160308856050535
1.0106005687937478
1.006264626405898
1.0000898539794563
0.9914320495331271
0.9824692044165079
0.791709672910473
0.8687927194867019
0.9153106380635821
0.9476814984838192
0.9719549096497918
0.98988690439844
1.0043635895157224
1.0167136862108785
1.027871459209777
1.0342956407887127
1.0402050500941642
1.0432193043056626
1.0431865213080829
1.0430070144380932
1.0412614362324837
1.0391752282943865
1.0348337105786911
1.0300600116047347
1.0241477139651025
1.0184632422232294
1.012537224273727
1.0036085573424733
0.993267883478907
0.9825675030392561
0.8680424354655882
0.9442660136248954
0.9890860202478711
1.0170715226424045
1.031425264221891
1.0431117963119887
1.0497984364856285
1.0574697701065519
1.0618187063448659
1.0660381036447035
1.0672340674935012
1.0677378111932059
1.066434759954312
1.0633566514932056
1.0588505027978492
1.054736985434135
1.0489631197960658
1.0416841151099698
1.0346548492859602
1.0271304697712431
1.01769552057086
1.0080479339639847
0.9958609036783344
0.9829301090621904
0.9535756997979108
1.0318015196871733
1.0752475622259166
1.094198278862438
1.0992592538755535
1.0997818571191602
1.0990014690302612
1.0996930904815072
1.1004460919682533
1.099454476334496
1.0965814066298085
1.094540419314669
1.0895238025944394
1.0848941382376016
1.078313541566888
1.0698924697071035
1.063206309727194
1.0546811433273466
1.0450474594859935
1.0359453902068434
1.0252259879709418
1.014546038043756
1.0008913159350223
0.9849055636813597
1.0488500663912785
1.1288256765548808
1.166793656900139
1.1764083674868113
1.169811632585652
1.1615891238664795
1.151393835047245
1.1447502230457947
1.1387647592978634
1.1335011621748097
1.1284533704714255
1.1207040787182563
1.1132111086089738
1.1059794477852627
1.097911423774165
1.0882951919170234
1.0791759644645291
1.0685964904784955
1.0583175570143022
1.0460388983771782
1.0348577724778991
1.0207978549337517
1.0051570465504034
0.9870978419098129
1.159089119743756
1.2327803797775905
1.2634390788860312
1.2594574013613722
1.243981671247779
1.2234256108024093
1.205446478169978
1.1919262416275347
1.1796201061810347
1.1679830113220286
1.1588198196837434
1.1490984826974693
1.1387605018808322
1.1289065855005
1.1176041408975863
1.106471465317774
1.095124332226372
1.0832513860501616
1.0708525940134117
1.0580147006815588
1.0435468589812087
1.0294786641992753
1.010526588689706
0.9905078627892046
1.334507492004878
1.3529698762687665
1.3656743135851763
1.3476697191283202
1.31840287924613
1.2883188086558395
1.2604785622379397
1.238166013022171
1.219130184983011
1.2036989869682568
1.1901138493229384
1.1768599431461104
1.1637092694440976
1.1508605861589165
1.1389183726959795
1.1259633135428344
1.1119361138170685
1.0981629459841302
1.0842796555386083
1.0701435744952188
1.0547347780117784
1.0376193921902006
1.0175299271539129
0.9952425913101519
0.1633548118394006
0.31357283842804984
0.4658809790056039
0.4737489245051854
0.5786953735299187
0.29286103738501246
0.23025148413684474
0.3750063923645671
0.4956703799412763
0.49459797728952076
0.5312772521495677
0.3790480552480416
0.255576420050813
0.3770430121668229
0.4708314547178836
0.4608659944312785
0.4827591548108723
0.4453842681051374
0.2751983312650207
0.3669555717394424
0.4336832436659741
0.41525436157363194
0.45608643167233776
0.5056908920076821
0.2918644527966131
0.35170420990583706
0.3923895961842067
0.3758534416319336
0.4355559877382881
0.5494771327284527
0.309769842925969
0.3358059086159485
0.3491426490681293
0.3400836009730888
0.42151431970556863
0.5747199339486411
0.3260415528316133
0.3228400556204734
0.3142071928056481
0.31037639198327477
0.40537157601085705
0.5912574859527949
0.3425668747287626
0.312356104081372
0.2858247965264218
0.28359232698296166
0.3924895244657407
0.5914649036550198
0.3561403258703929
0.3055203710892983
0.2623379788662155
0.26283414373042224
0.37857848683900563
0.5765927601973828
0.36734734898948307
0.30169932110562536
0.24414955138331135
0.2466372278428503
0.3618030029642376
0.5599344306006155
0.3718647883675378
0.30084842737857803
0.2395766778236185
0.23672404560821395
0.3470718038869912
0.5412637292608253
0.37268959414440794
0.302794523544195
0.24253096153759324
0.23622243590039962
0.3347731245390715
0.5121033631872128
0.36985236233544516
0.30625629362155515
0.2517652330696048
0.246337668282026
0.33989011565198624
0.5024011450195607
0.3599146554552784
0.3101968057747774
0.26488059303160816
0.2696806492925301
0.3609591631825659
0.497230380912691
0.34724072514637483
0.3149237784089576
0.28040321350096
0.29431092463288244
0.3813961286495899
0.5035482983303536
0.330021108131456
0.31938062001765233
0.2973452538335278
0.3215334236930022
0.40208234870647364
0.5153684267259859
0.30828863364233383
0.323045106979473
0.3147075670290882
0.3452138810746315
0.4209687888473749
0.5189806386670233
0.28705718159225174
0.3266164312314798
0.33176644991968074
0.36474283995620266
0.4359267329288863
0.5233152176901601
0.2621159111984468