/*--------------------------------*- C++ -*----------------------------------*\
  =========                 |
  \\      /  F ield         | OpenFOAM: The Open Source CFD Toolbox
   \\    /   O peration     | Website:  https://openfoam.org
    \\  /    A nd           | Version:  11
     \\/     M anipulation  |
\*---------------------------------------------------------------------------*/
FoamFile
{
    format      ascii;
    class       volScalarField;
    location    "1.56";
    object      nut;
}
// * * * * * * * * * * * * * * * * * * * * * * * * * * * * * * * * * * * * * //

dimensions      [0 2 -1 0 0 0 0];

internalField   nonuniform List<scalar> 
2880
(
7.40813e-07
2.71329e-06
1.22524e-05
3.87557e-05
9.51546e-05
0.000199085
2.79583e-05
4.33536e-05
7.91838e-05
0.000129187
0.000186655
0.000271195
0.000161678
9.41127e-05
0.000151141
0.000219872
0.00030195
0.000447588
0.000179113
0.000137954
0.000213139
0.000300721
0.00041566
0.000600642
0.000191992
0.000175849
0.000267337
0.000374254
0.00051457
0.00071634
4.72065e-05
0.000208246
0.000314677
0.000439022
0.000595181
0.00079616
4.79846e-05
0.000236163
0.000355225
0.000492576
0.000657239
0.000848202
4.92544e-05
0.000258245
0.00038887
0.00053475
0.000701147
0.000877018
5.01276e-05
0.000274986
0.000415518
0.000566018
0.000728442
0.000885673
5.0703e-05
0.000286607
0.000435122
0.000586504
0.000740889
0.000877113
5.0979e-05
0.000293236
0.000447747
0.000597106
0.000740282
0.000853831
5.09659e-05
0.00029505
0.000453568
0.000598631
0.000728285
0.000818144
5.06603e-05
0.000292155
0.00045284
0.000591883
0.000706375
0.000772079
5.00856e-05
0.000284535
0.000445894
0.000577599
0.000675728
0.000717415
4.93376e-05
0.00027198
0.000433156
0.000556415
0.000637577
0.00065546
4.84196e-05
0.000255969
0.000415146
0.00052908
0.000593361
0.000587869
4.74163e-05
0.000239594
0.000392661
0.00049647
0.000545028
0.000518768
0.000199061
0.000230984
0.000366238
0.000459293
0.000495196
0.000454335
0.000194016
0.000217592
0.000335312
0.000417422
0.000444887
0.000398166
0.000185234
0.000197973
0.00029765
0.000369119
0.000393094
0.000349718
0.000172786
0.000167804
0.000248773
0.000309935
0.000335401
0.000305923
0.000156719
0.000121577
0.000182544
0.000232265
0.0002615
0.000258081
2.73614e-05
5.58964e-05
9.36536e-05
0.000129706
0.000156098
0.000193416
7.72635e-07
3.00747e-06
8.12128e-06
1.68078e-05
2.83683e-05
7.97368e-05
0.000811257
0.00125124
0.00134746
0.00131108
0.00122001
0.00112584
0.00104859
0.000991577
0.000949933
0.000920724
0.000868965
0.000831769
0.0008219
0.000842811
0.000894208
0.000968742
0.00105567
0.00114435
0.00123141
0.00131668
0.00140379
0.00149724
0.00161508
0.00176466
0.000852593
0.00122441
0.00131511
0.00128235
0.00120433
0.00112587
0.0010615
0.00101116
0.000972829
0.000924485
0.000865128
0.000837614
0.000841257
0.000884441
0.000960546
0.00105755
0.00116234
0.00126828
0.00137423
0.00148218
0.00159761
0.00173908
0.00191567
0.00211415
0.000919898
0.00121203
0.00129452
0.00126586
0.00119951
0.00113228
0.00107404
0.00102387
0.000978728
0.000914415
0.000872384
0.000860871
0.000897153
0.000978593
0.00108951
0.00121587
0.00134966
0.0014873
0.00163106
0.00178742
0.00196601
0.00217911
0.00242718
0.00266031
0.000979059
0.00121529
0.00127804
0.0012501
0.00119046
0.00112857
0.00106921
0.00101896
0.000967252
0.000904528
0.000881749
0.000911141
0.000994528
0.00111416
0.00125129
0.00139767
0.00155206
0.00171996
0.00191187
0.002141
0.00242098
0.0027581
0.00311651
0.00338093
0.00102379
0.0012143
0.00125721
0.00122506
0.00116718
0.0011073
0.00104267
0.00100401
0.00093633
0.000906061
0.000929904
0.00101211
0.00113447
0.00127644
0.00142823
0.00158992
0.00176805
0.00197434
0.00222437
0.00253462
0.0029144
0.00334847
0.00376215
0.00406666
0.00105259
0.00120137
0.0012247
0.00118536
0.00112649
0.00105907
0.00102592
0.000957108
0.000924804
0.000945367
0.00102549
0.00114777
0.00129149
0.00144663
0.00161361
0.00179999
0.00201819
0.0022845
0.00261633
0.00302495
0.00350331
0.00399266
0.00443284
0.0047259
0.00106142
0.0011737
0.00117682
0.00112987
0.00106405
0.0010278
0.000977789
0.000931856
0.000953029
0.00103239
0.00115513
0.00130031
0.00145724
0.00162583
0.00181303
0.00203128
0.00229835
0.00263495
0.00305776
0.00356821
0.00412796
0.00467221
0.00514392
0.00543065
0.00105201
0.00112995
0.00111377
0.0010643
0.00101174
0.000983441
0.000940357
0.000956267
0.00103158
0.00115269
0.00129747
0.00145412
0.00162176
0.0018064
0.00201935
0.0022774
0.00260198
0.00301451
0.00352579
0.00412264
0.00473386
0.00532283
0.00579912
0.00607792
0.00102554
0.00107091
0.00104012
0.000986882
0.000973535
0.000935115
0.00094701
0.00102034
0.00114194
0.00128776
0.0014445
0.00161044
0.0017908
0.00199559
0.00223967
0.00254328
0.00292976
0.00341773
0.004008
0.00466426
0.00531356
0.00591629
0.00637914
0.00664912
0.00098376
0.00099999
0.000965707
0.000941653
0.000920681
0.0009215
0.000997214
0.00112114
0.0012692
0.00142657
0.00159046
0.00176558
0.00196107
0.0021898
0.00246909
0.00282093
0.00326806
0.00382342
0.00447618
0.00516706
0.00583935
0.00643413
0.00687643
0.00713289
0.000929669
0.000922477
0.000891482
0.000889686
0.000887292
0.000960892
0.00108554
0.00123754
0.00139844
0.00156272
0.00173402
0.00192096
0.00213507
0.00239081
0.00270665
0.00310461
0.00360461
0.00421218
0.00490548
0.00561149
0.00628444
0.00685763
0.00728015
0.00751293
0.000867112
0.000846329
0.000846693
0.00084627
0.000898965
0.00102955
0.00119116
0.0013606
0.00152861
0.00169778
0.00187687
0.0020773
0.00231193
0.00259569
0.0029466
0.00338467
0.00392512
0.00456578
0.00527619
0.00597829
0.00663205
0.00717327
0.00757227
0.00777877
0.000800047
0.000778743
0.000803106
0.000823889
0.000957472
0.00112832
0.00130929
0.00148534
0.00165635
0.00183051
0.00201934
0.00223543
0.00249179
0.00280255
0.00318377
0.00365178
0.00421613
0.00486795
0.00557161
0.00625164
0.00686836
0.00736842
0.00773642
0.00792197
0.000729618
0.00072724
0.000761449
0.000843478
0.00103402
0.0012339
0.00142732
0.00160779
0.00178215
0.00196261
0.00216271
0.00239548
0.00267314
0.0030078
0.00341201
0.003897
0.00446632
0.00510618
0.00577945
0.00641967
0.00698279
0.00743325
0.00776362
0.00792814
0.000651766
0.000692474
0.000736628
0.00090397
0.00112996
0.00134996
0.00154846
0.00172993
0.00190709
0.00209483
0.00230739
0.00255714
0.00285443
0.00320819
0.00362627
0.00411385
0.00466863
0.00527362
0.0058933
0.00647498
0.00696798
0.0073596
0.00764191
0.00778328
0.000561702
0.000668759
0.000743727
0.000969488
0.0012393
0.00146817
0.00166814
0.00185059
0.00203184
0.00222831
0.00245412
0.00272018
0.00303418
0.00340105
0.00382316
0.00429924
0.00482132
0.0053705
0.00591492
0.00641431
0.00682366
0.00713525
0.00735772
0.00746907
0.00046311
0.000652764
0.000768109
0.00105502
0.00135395
0.00158832
0.00178844
0.00197185
0.00215794
0.00236397
0.00260317
0.00288417
0.00321128
0.00358495
0.00400185
0.00445435
0.00492913
0.00540562
0.00585564
0.00624688
0.00655175
0.00675369
0.00688379
0.00694741
0.000381514
0.000643621
0.000819172
0.00116301
0.00147576
0.00171162
0.00191021
0.00209455
0.00228624
0.00250255
0.00275495
0.00304912
0.00338554
0.00376013
0.0041643
0.00458467
0.00500301
0.0053964
0.00573821
0.00600046
0.00616009
0.00621078
0.00617886
0.00613624
0.000326654
0.000651296
0.000892344
0.00129155
0.00160679
0.00183796
0.00203368
0.0022192
0.00241732
0.0026445
0.00290975
0.00321523
0.00355752
0.00392837
0.00431478
0.0046989
0.00505842
0.00536759
0.0055985
0.00572197
0.00570984
0.00554328
0.00523461
0.00486741
0.000307505
0.000675894
0.000986248
0.00143102
0.00173831
0.00196647
0.00215946
0.00234658
0.00255189
0.00279038
0.0030679
0.0033829
0.00372823
0.00409221
0.00445865
0.00480684
0.00511216
0.00534732
0.00548363
0.0054905
0.00533167
0.00495502
0.00426487
0.00312887
0.000316804
0.000714075
0.00111156
0.00157522
0.00187521
0.00209938
0.00228824
0.00247698
0.00269011
0.00294011
0.00322911
0.00355185
0.00389801
0.00425334
0.00459977
0.00491549
0.0051758
0.00535473
0.00542693
0.00536861
0.00515648
0.00476318
0.00414783
0.00326128
0.000338604
0.000772175
0.00128443
0.00174201
0.00202662
0.00223769
0.00241985
0.00261026
0.00283179
0.00309316
0.00339238
0.00372075
0.00406546
0.00441062
0.00473728
0.00502368
0.00524627
0.00538162
0.00540836
0.00530861
0.00506788
0.00467271
0.0041045
0.00334543
0.000365955
0.000876871
0.00147498
0.00191139
0.00218277
0.00237829
0.00255306
0.00274584
0.00297625
0.00324829
0.00355575
0.00388696
0.00422734
0.00456004
0.0048659
0.00512379
0.00531196
0.00541004
0.00540119
0.00527337
0.00501907
0.00463336
0.00411122
0.00345484
0.000402505
0.00101488
0.00169265
0.00210046
0.0023458
0.00251972
0.00268651
0.00288267
0.00312222
0.00340357
0.00371654
0.00404712
0.00437954
0.00469651
0.00497908
0.00520713
0.00536098
0.0054236
0.00538273
0.00523189
0.00496976
0.0045982
0.00412073
0.00354386
1.05733e-06
1.13376e-05
4.26639e-05
0.000102552
0.000194155
6.07219e-05
3.199e-05
0.000111818
0.000229557
0.000382374
0.000483029
0.000567008
4.7239e-05
0.00023279
0.000443489
0.000687579
0.000925196
0.00112793
5.18484e-05
0.000332845
0.000632913
0.000950051
0.00127106
0.00157289
5.5763e-05
0.000409585
0.000789447
0.00116425
0.00153557
0.00188666
5.90321e-05
0.000468368
0.000914295
0.00133372
0.00173829
0.00210824
6.15709e-05
0.000514841
0.0010102
0.00146499
0.00188938
0.00226372
6.34306e-05
0.000551939
0.00108139
0.00156215
0.00199796
0.00236984
6.46919e-05
0.000581321
0.00113144
0.00162897
0.0020709
0.00243766
6.54311e-05
0.000603492
0.00116262
0.00166841
0.00211342
0.00247507
6.57164e-05
0.000618091
0.00117581
0.00168287
0.00212933
0.00248597
6.56129e-05
0.000624131
0.00117098
0.0016742
0.00212007
0.0024737
6.51921e-05
0.000620194
0.00114801
0.00164338
0.00208655
0.00244
6.44522e-05
0.000605622
0.00110666
0.00158935
0.00202947
0.00238535
6.33129e-05
0.000580898
0.00104679
0.00151193
0.00194642
0.002308
6.17359e-05
0.000546252
0.000970604
0.00141364
0.00184134
0.00220683
5.96882e-05
0.000501668
0.000877708
0.00129253
0.00171071
0.00208096
5.71323e-05
0.000447436
0.000769299
0.00114894
0.00155177
0.00192376
5.40029e-05
0.000384072
0.000647429
0.000984182
0.00136148
0.00172822
4.9908e-05
0.00031211
0.000515227
0.000800938
0.00113719
0.0014852
4.75151e-05
0.000233075
0.000377107
0.000603194
0.000879959
0.00118319
0.000183333
0.000149076
0.00023859
0.000400402
0.00059929
0.000814275
3.20176e-05
6.17e-05
0.000107536
0.000207074
0.000326005
0.00040701
9.04533e-07
4.46726e-06
2.03938e-05
6.42595e-05
0.000127971
0.000203543
0.000504657
0.00133674
0.00199811
0.00231834
0.00250971
0.00265755
0.00281802
0.00301935
0.00326798
0.00355665
0.00387181
0.00419781
0.00451823
0.00481568
0.00507166
0.00526728
0.0053851
0.00541155
0.0053389
0.00516589
0.00489657
0.0045383
0.00410083
0.00359352
0.00119906
0.00189625
0.002294
0.00251635
0.00265767
0.00278629
0.00294553
0.00315426
0.00341149
0.00370497
0.0040187
0.00433611
0.00464052
0.00491469
0.00514072
0.00530107
0.00538072
0.00536965
0.00526475
0.00506995
0.00479445
0.00445025
0.00405149
0.00360907
0.0017145
0.00223629
0.00251386
0.0026734
0.00278433
0.00290496
0.00306821
0.00328578
0.00355064
0.00384606
0.00415478
0.00445985
0.00474464
0.00499218
0.00518526
0.00530779
0.0053473
0.00529756
0.00516029
0.00494475
0.00466502
0.00433688
0.00397739
0.0035986
0.00207064
0.00246494
0.00267906
0.00279971
0.00289442
0.00301534
0.00318594
0.00341299
0.00368356
0.00397793
0.0042783
0.00456779
0.00482994
0.00504808
0.00520573
0.00528833
0.00528616
0.00519711
0.00502815
0.00479412
0.00451364
0.00420532
0.00388748
0.00357203
0.00231855
0.00263812
0.00280703
0.0029032
0.00299154
0.00311845
0.00329848
0.00353479
0.00380867
0.00409911
0.00438828
0.00465955
0.00489666
0.00508325
0.00520352
0.00524459
0.00519981
0.00507179
0.00487334
0.00462499
0.00434931
0.00406611
0.00379271
0.00353853
0.0024939
0.00276759
0.00290576
0.00298848
0.00307801
0.00321456
0.00340524
0.00364994
0.00392467
0.00420869
0.00448439
0.00473544
0.00494577
0.0050992
0.00518068
0.0051792
0.00509178
0.00492655
0.00470284
0.00444664
0.00418294
0.00393043
0.00370272
0.00350465
0.00261901
0.00286121
0.00298088
0.0030589
0.00315541
0.00330347
0.00350545
0.00375719
0.00403067
0.00430633
0.00456691
0.00479636
0.00497869
0.00509786
0.00513962
0.00509528
0.00496639
0.00476761
0.00452511
0.0042693
0.00402514
0.0038074
0.00362382
0.00347405
0.00270684
0.00292627
0.00303688
0.00311692
0.00322453
0.00338512
0.00359848
0.00385538
0.00412622
0.00439218
0.00463657
0.00484358
0.00499718
0.00508141
0.00508305
0.00499643
0.00482874
0.00460211
0.00434919
0.00410261
0.0038842
0.0037025
0.00355873
0.00344826
0.00276416
0.0029696
0.00307727
0.00316427
0.00328574
0.00345914
0.00368343
0.00394423
0.00421136
0.00446678
0.00469442
0.00487862
0.00500315
0.00505216
0.00501387
0.00488664
0.00468451
0.00443755
0.00418346
0.00395395
0.00376481
0.00361742
0.00350741
0.0034275
0.00279572
0.00299455
0.0031044
0.00320204
0.003339
0.00352495
0.00375959
0.00402353
0.00428636
0.00453095
0.00474176
0.00490313
0.00499856
0.00501248
0.0049352
0.00477026
0.00453966
0.00428102
0.00403452
0.00382754
0.00366813
0.00355112
0.00346831
0.00341137
0.00280549
0.00300357
0.00311977
0.00323082
0.00338384
0.00358183
0.00382632
0.00409325
0.00435177
0.00458568
0.00477993
0.00491877
0.00498539
0.00496481
0.0048503
0.00465183
0.00439995
0.00413836
0.00390643
0.0037245
0.00359272
0.00350105
0.00343935
0.00339927
0.00279625
0.00299831
0.00312431
0.00325101
0.00341891
0.00362877
0.00388305
0.00415352
0.00440826
0.00463206
0.00481036
0.00492719
0.00496559
0.00491162
0.00476256
0.00453586
0.00427043
0.00401362
0.00380069
0.00364359
0.00353576
0.0034643
0.00341844
0.00339053
0.00276965
0.00297985
0.00311851
0.00326265
0.0034424
0.00366475
0.00392936
0.00420466
0.00445664
0.00467126
0.00483442
0.00493001
0.00494107
0.00485541
0.00467533
0.00442647
0.00415494
0.00390879
0.00371666
0.00358225
0.00349413
0.00343822
0.00340349
0.0033845
0.00272651
0.00294876
0.00310243
0.0032643
0.00345429
0.00368937
0.00396522
0.00424719
0.00449782
0.00470444
0.00485347
0.00492875
0.00491373
0.00479867
0.00459187
0.00432713
0.00405592
0.00382403
0.0036523
0.00353732
0.00346475
0.00341953
0.00339391
0.00338065
0.00266699
0.00290528
0.00307606
0.00325385
0.00345358
0.00370228
0.00399083
0.0042818
0.00453277
0.00473273
0.00486877
0.0049249
0.00488541
0.00474385
0.0045151
0.00424047
0.0039744
0.00375821
0.00360489
0.00350567
0.00344475
0.00340775
0.00338818
0.00337839
0.00259015
0.00284938
0.00303971
0.00322703
0.00343883
0.00370329
0.00400672
0.00430937
0.00456251
0.00475723
0.00488152
0.00491984
0.00485791
0.00469326
0.00444752
0.00416822
0.00391037
0.00370952
0.00357176
0.00348473
0.00343232
0.00340114
0.00338492
0.00337713
0.00249634
0.00278088
0.00299058
0.00318401
0.00340975
0.00369276
0.00401383
0.0043309
0.00458805
0.00477893
0.00489276
0.00491483
0.00483287
0.00464894
0.00439105
0.00411125
0.00386308
0.003676
0.00355063
0.00347247
0.00342559
0.00339815
0.00338387
0.00337674
0.00238375
0.00269971
0.0029242
0.00312395
0.00336644
0.00367163
0.00401352
0.00434758
0.00461038
0.00479873
0.00490339
0.00491096
0.00481175
0.00461256
0.004347
0.00406969
0.00383132
0.00365572
0.00353954
0.00346742
0.00342427
0.00339858
0.00338443
0.00337695
0.00225067
0.00260589
0.00283387
0.00304543
0.00330949
0.00364151
0.0040078
0.00436058
0.00463046
0.00481737
0.00491413
0.00490915
0.00479576
0.00458541
0.00431609
0.00404319
0.00381367
0.003647
0.00353701
0.00346831
0.00342645
0.00340128
0.00338639
0.00337764
0.0020934
0.00249362
0.00272186
0.00294941
0.00324081
0.00360497
0.00399919
0.00437142
0.00464922
0.00483546
0.00492554
0.00491011
0.00478584
0.00456838
0.00429867
0.00403143
0.00380954
0.00364858
0.00354196
0.00347442
0.00343226
0.00340589
0.00338927
0.00337862
0.00190947
0.00235442
0.00258645
0.00283773
0.00316379
0.00356575
0.0039907
0.00438258
0.00466763
0.00485347
0.00493799
0.00491437
0.00478266
0.00456198
0.00429458
0.00403287
0.00381688
0.00365953
0.00355379
0.00348537
0.00344133
0.00341253
0.00339323
0.00337998
0.00169089
0.00218124
0.00242969
0.00271387
0.00308398
0.00352917
0.00398639
0.00439586
0.00468647
0.00487171
0.00495169
0.00492225
0.00478663
0.00456617
0.00430339
0.00404786
0.00383587
0.00367951
0.00357232
0.00350113
0.00345372
0.00342132
0.00339843
0.00338184
0.00140464
0.0019819
0.00225878
0.00258638
0.00301046
0.00350235
0.00399116
0.00441219
0.00470623
0.00489029
0.00496672
0.00493384
0.00479776
0.00458142
0.00432516
0.00407552
0.00386606
0.00370851
0.00359776
0.00352199
0.00346976
0.00343255
0.00340512
0.00338438
0.00107699
0.00178009
0.00208569
0.00247213
0.00295633
0.00349326
0.00400883
0.00443321
0.00472706
0.00490885
0.00498239
0.00494887
0.0048161
0.00460677
0.00435907
0.00411552
0.00390739
0.00374684
0.0036306
0.00354852
0.00348995
0.00344669
0.00341365
0.00338785
8.90116e-07
2.9521e-06
1.11029e-05
4.24373e-05
0.000105695
4.69496e-05
3.01769e-05
5.10428e-05
7.85229e-05
0.000129561
0.000166682
0.000156935
0.000171236
0.000103451
0.00014531
0.000214897
0.000254985
0.000295611
0.00018687
0.000146699
0.000204802
0.000288972
0.000346297
0.000464211
4.73143e-05
0.000184656
0.000262132
0.000345044
0.000435756
0.000622762
5.04213e-05
0.000220452
0.000314329
0.000394607
0.000522133
0.000757331
5.31653e-05
0.000254692
0.000356457
0.000444826
0.000602746
0.000863193
5.55112e-05
0.000284858
0.00039357
0.000496982
0.000677096
0.000943989
5.73253e-05
0.000310876
0.000428323
0.000548747
0.000744423
0.00100944
5.86129e-05
0.000332798
0.000462053
0.00059907
0.000805598
0.00106541
5.94038e-05
0.000350497
0.000495067
0.000647731
0.000854099
0.00110147
5.9729e-05
0.000363801
0.000526172
0.000691771
0.000898853
0.00114043
5.96583e-05
0.000372286
0.000555101
0.000732941
0.000939954
0.00116469
5.92416e-05
0.000375132
0.000578117
0.000764595
0.000970433
0.00118064
5.87393e-05
0.000371192
0.000593002
0.000784739
0.000990297
0.00118797
5.80825e-05
0.000361162
0.000598691
0.000793647
0.000995931
0.00118609
5.71323e-05
0.000344946
0.000593695
0.000790846
0.000985111
0.00117256
5.57428e-05
0.00032359
0.00057553
0.000776125
0.000957639
0.00114122
5.37393e-05
0.000297299
0.000543175
0.000744361
0.000914832
0.00108234
5.09592e-05
0.000265749
0.000493675
0.000685475
0.000851859
0.00100119
4.71778e-05
0.000224912
0.000421666
0.000595148
0.000754878
0.000900635
0.000180932
0.000168801
0.000318121
0.000463909
0.000605042
0.000739205
3.22251e-05
8.67192e-05
0.000176588
0.000275368
0.00038603
0.000428183
9.27599e-07
7.18608e-06
2.80208e-05
6.38126e-05
0.000118196
4.63152e-05
0.000894874
0.00159113
0.00194996
0.0023992
0.00293561
0.0035081
0.00404098
0.0044589
0.00474832
0.00492633
0.00499795
0.00496677
0.00484078
0.00464178
0.00440453
0.0041675
0.00395999
0.00379503
0.0036716
0.00358148
0.00351501
0.00346433
0.00342451
0.00339257
0.00087424
0.0014917
0.00189545
0.00237894
0.00295293
0.00354742
0.00408441
0.00448704
0.00476826
0.00494087
0.00501301
0.0049868
0.00487105
0.00468548
0.00446074
0.00423113
0.00402411
0.0038538
0.00372173
0.00362193
0.00354594
0.00348629
0.003438
0.00339864
0.000948979
0.00146424
0.00188604
0.00240229
0.00300343
0.00360768
0.00412781
0.00451314
0.0047835
0.00495241
0.00502592
0.00500767
0.00490558
0.00473654
0.00452666
0.00430597
0.00410004
0.00392407
0.00378227
0.00367119
0.00358386
0.00351332
0.00345463
0.00340611
0.00102084
0.00146951
0.00190929
0.00245793
0.00307698
0.00367784
0.00416799
0.00453395
0.00479239
0.00495768
0.00503481
0.0050276
0.00494252
0.00479312
0.0046008
0.00439123
0.00418788
0.00400675
0.00385462
0.00373079
0.00363008
0.00354641
0.00347533
0.00341553
0.00108746
0.00149504
0.0019578
0.00253589
0.00316335
0.00374207
0.00419991
0.00454415
0.00479186
0.00495431
0.00503742
0.00504425
0.00497935
0.00485268
0.00468093
0.00448535
0.00428702
0.00410219
0.0039399
0.00380221
0.00368613
0.00358691
0.00350109
0.00342738
0.00114809
0.00153605
0.00202544
0.00262583
0.00324972
0.00379192
0.00421829
0.00454147
0.00477813
0.00493952
0.00503105
0.00505471
0.00501284
0.00491182
0.00476379
0.00458564
0.00439566
0.00420968
0.0040384
0.0038865
0.00375341
0.0036362
0.00353277
0.0034418
0.00120468
0.00159042
0.00210532
0.00271695
0.00332006
0.00382231
0.00421791
0.00452081
0.004748
0.00491041
0.00501271
0.00505555
0.00503908
0.00496631
0.00484512
0.00468815
0.00451057
0.00432709
0.00414926
0.00398389
0.00383286
0.00369535
0.00357103
0.00345876
0.00126041
0.00165457
0.00218806
0.00279703
0.00336291
0.00382915
0.0041945
0.00447881
0.00469864
0.00486424
0.00497929
0.00504309
0.00505376
0.00501128
0.00491972
0.00478767
0.00462699
0.00445055
0.00426986
0.00409312
0.0039243
0.00376473
0.0036162
0.00347798
0.00131664
0.0017215
0.00226244
0.00284759
0.00337981
0.00380654
0.0041446
0.00441303
0.00462793
0.00479863
0.00492783
0.00501364
0.00505239
0.00504154
0.00498179
0.00487802
0.00473869
0.00457433
0.00439549
0.00421084
0.00402576
0.00384343
0.00366778
0.00349875
0.0013723
0.0017752
0.00230494
0.00287349
0.00335962
0.0037523
0.00406665
0.00432229
0.00453454
0.00471177
0.00485581
0.00496381
0.00503074
0.00505197
0.00502537
0.00495249
0.00483848
0.00469113
0.00451933
0.00433127
0.00413289
0.00392852
0.00372385
0.00351948
0.00140857
0.001824
0.00233345
0.00285721
0.00330381
0.00366628
0.00396086
0.00420669
0.00441808
0.00460256
0.00476131
0.00489085
0.00498515
0.00503798
0.0050449
0.00500451
0.00491883
0.00479279
0.00463307
0.00444657
0.00423885
0.0040146
0.00378042
0.00353722
0.00144649
0.00184546
0.00232448
0.00280382
0.00321413
0.00355065
0.0038291
0.00406747
0.00427905
0.0044707
0.00464323
0.00479283
0.00491286
0.00499593
0.00503571
0.00502829
0.00497282
0.00487132
0.00472795
0.0045477
0.00433498
0.00409394
0.0038311
0.00354718
0.00146421
0.00184137
0.00228206
0.00271761
0.00309505
0.00340933
0.00367444
0.00390682
0.00411877
0.00431671
0.00450135
0.00466883
0.00481224
0.00492339
0.00499449
0.00501951
0.00499496
0.00492003
0.00479617
0.00462603
0.00441226
0.00415765
0.00386764
0.00354246
0.00146386
0.00181146
0.00221043
0.00260483
0.00295252
0.0032473
0.00350076
0.00372761
0.00393927
0.00414189
0.00433634
0.00451897
0.00468286
0.00481938
0.00491963
0.00497578
0.00498195
0.00493462
0.00483239
0.00467525
0.00446351
0.00419789
0.00388159
0.00351468
0.00144817
0.00176044
0.00211661
0.00247272
0.00279303
0.00306993
0.00331234
0.00353321
0.00374317
0.0039483
0.00414979
0.00434443
0.00452559
0.00468447
0.0048114
0.00489706
0.00493345
0.00491436
0.00483545
0.00469369
0.00448642
0.00421123
0.00386743
0.00345551
0.00142051
0.00169514
0.00200886
0.00232862
0.00262297
0.00288257
0.00311365
0.00332736
0.00353364
0.00373864
0.00394407
0.00414736
0.00434244
0.00452067
0.00467197
0.0047859
0.00485259
0.00486331
0.00481062
0.00468793
0.00448859
0.00420505
0.00382898
0.00336025
0.001383
0.00162101
0.00189403
0.00217905
0.00244818
0.00269037
0.0029092
0.00311409
0.00331434
0.00351628
0.00372229
0.00393072
0.00413635
0.00433112
0.00450504
0.00464709
0.0047461
0.00479129
0.00477232
0.00467864
0.00449795
0.00421397
0.00380357
0.00324741
0.00133577
0.00154119
0.00177682
0.00202908
0.00227359
0.00249802
0.00270348
0.0028977
0.00308938
0.00328513
0.00348818
0.00369805
0.00391075
0.00411933
0.00431459
0.00448587
0.00462187
0.00471119
0.00474232
0.00470257
0.00457667
0.00435209
0.00405335
0.00385233
0.0012781
0.00145598
0.00165936
0.00188188
0.00210293
0.00230954
0.0025007
0.00268255
0.00286321
0.00304962
0.003246
0.00345327
0.00366909
0.00388821
0.00410303
0.0043044
0.00448251
0.00462766
0.00473069
0.0047827
0.00477531
0.00470768
0.00461278
0.00456617
0.0011963
0.00136091
0.00154042
0.00173817
0.00193821
0.00212786
0.00230452
0.00247288
0.00264049
0.00281461
0.00300053
0.00320076
0.00341491
0.00363991
0.0038705
0.0040999
0.00432051
0.00452437
0.00470296
0.00484678
0.00494625
0.00499683
0.00502647
0.00506195
0.00106434
0.00124955
0.00141529
0.0015957
0.00177914
0.00195424
0.00211747
0.00227231
0.0024257
0.00258519
0.00275711
0.00294562
0.00315245
0.00337705
0.00361705
0.00386872
0.00412721
0.00438591
0.00463497
0.00486039
0.0050386
0.00517949
0.00528653
0.00535665
0.000880244
0.00110705
0.00127488
0.00144897
0.00162283
0.00178778
0.00194037
0.00208318
0.00222258
0.00236627
0.00252145
0.00269385
0.00288732
0.00310395
0.00334453
0.00360892
0.00389565
0.0042
0.00451084
0.00480545
0.00504739
0.00526764
0.00542449
0.00551789
0.000625167
0.000903803
0.00110746
0.00129106
0.00146452
0.00162551
0.00177194
0.00190598
0.00203341
0.00216182
0.00229904
0.00245208
0.00262669
0.00282744
0.00305821
0.00332265
0.00362339
0.0039589
0.00431846
0.00466644
0.00497195
0.00525409
0.0054577
0.00557135
0.000294382
0.000569747
0.000864129
0.00109111
0.00128718
0.00145782
0.00160674
0.00173807
0.0018579
0.00197385
0.00209412
0.00222664
0.00237865
0.00255673
0.00276744
0.00301792
0.00331526
0.00366265
0.00405245
0.00444256
0.0048011
0.00513336
0.0053864
0.00552072
8.05612e-07
3.87647e-06
1.26694e-05
2.91362e-05
5.03615e-05
8.89961e-05
2.88714e-05
6.4777e-05
0.000120235
0.000180088
0.000239153
0.000299056
0.000165144
0.00014125
0.00023993
0.000337357
0.000425319
0.000482363
0.000181326
0.000198292
0.000335724
0.000463715
0.000573823
0.000640327
0.000192201
0.000237058
0.000411524
0.000564718
0.000694437
0.000777339
4.70271e-05
0.000260348
0.000472282
0.00064669
0.000793033
0.000895104
4.85667e-05
0.000283588
0.000521622
0.000713726
0.000874504
0.000993626
5.00951e-05
0.000308111
0.000562764
0.000769274
0.000942951
0.00107653
5.1424e-05
0.000331798
0.000596826
0.00081512
0.00100066
0.0011471
5.24542e-05
0.000352927
0.000623783
0.000851973
0.00104874
0.001207
5.32074e-05
0.000370083
0.000643164
0.000879885
0.0010875
0.001257
5.3713e-05
0.000381913
0.000654381
0.000898501
0.00111675
0.00129726
5.40101e-05
0.000387016
0.000656879
0.000907174
0.00113586
0.00132746
5.40066e-05
0.000385368
0.000650012
0.000904999
0.00114383
0.00134689
5.36678e-05
0.000377239
0.000632922
0.000890821
0.00113919
0.0013544
5.29758e-05
0.000362137
0.000605333
0.000863233
0.00111998
0.00134832
5.1916e-05
0.000339663
0.00056642
0.000820603
0.00108351
0.00132627
5.0486e-05
0.000309401
0.00051573
0.000761105
0.0010262
0.00128564
4.88644e-05
0.000270994
0.000453051
0.000682953
0.000944722
0.0012171
0.000199791
0.000224207
0.000378551
0.000585296
0.000833061
0.00110838
0.000186321
0.000170287
0.000292923
0.000468055
0.000686175
0.000944022
0.000169706
0.000109991
0.000197426
0.000333088
0.000503595
0.000705305
2.92969e-05
4.60466e-05
9.58761e-05
0.000185841
0.000299981
0.000385626
7.98782e-07
3.65876e-06
1.89006e-05
5.80243e-05
0.000119767
0.000199079
0.000305428
0.000432732
0.000673428
0.000904151
0.00110726
0.00128711
0.00144269
0.00157662
0.00169411
0.00180219
0.00190885
0.00202235
0.00215079
0.0023021
0.00248471
0.00270842
0.00298435
0.00332147
0.00371835
0.00413711
0.00453393
0.0049034
0.00520962
0.0053671
0.000354067
0.000441471
0.000544898
0.000739158
0.000932196
0.00111557
0.00127832
0.00141851
0.00153867
0.00164433
0.00174254
0.00184115
0.00194836
0.00207261
0.00222316
0.00241118
0.0026505
0.00295539
0.00333265
0.00376211
0.00417722
0.00457339
0.00492221
0.00511612
0.000480188
0.000539952
0.000563299
0.000647297
0.000795929
0.000957294
0.00111738
0.0012621
0.00138765
0.00149583
0.00159155
0.00168134
0.00177265
0.00187356
0.00199317
0.0021426
0.00233635
0.00259205
0.00292475
0.00333432
0.00375418
0.00416385
0.00453013
0.00477076
0.000652263
0.000631528
0.000674633
0.000694626
0.000754575
0.000854538
0.000979988
0.00111362
0.00123987
0.00135195
0.00144994
0.00153738
0.00161994
0.00170448
0.00179902
0.00191347
0.0020611
0.00225977
0.00252974
0.00288399
0.00329227
0.00369464
0.00405922
0.00434575
0.000813708
0.000781468
0.000793114
0.000820778
0.000830311
0.000864087
0.000923354
0.0010081
0.00110988
0.00121486
0.00131321
0.00140181
0.00148216
0.00155849
0.00163685
0.00172515
0.00183409
0.00197892
0.00218009
0.00245838
0.0028212
0.00320171
0.00355748
0.00385382
0.000955238
0.00094275
0.000940746
0.000960676
0.000969217
0.000969622
0.000979551
0.00100328
0.00104779
0.00111344
0.00119234
0.0012742
0.00135253
0.00142593
0.0014966
0.00156942
0.00165185
0.00175507
0.00189574
0.00209581
0.00237578
0.00272296
0.00305564
0.00333789
0.00107583
0.00109726
0.00110121
0.00111146
0.00112324
0.00112209
0.00111199
0.00109802
0.00109244
0.00110152
0.00113055
0.00117859
0.001239
0.00130404
0.00136918
0.00143403
0.00150164
0.00157857
0.0016759
0.00181078
0.00200584
0.00228321
0.00259196
0.00283773
0.00118065
0.00123278
0.00125469
0.00126979
0.00127824
0.00128119
0.00127266
0.0012503
0.00121633
0.0011884
0.00116857
0.00116423
0.00117963
0.00121354
0.00126038
0.00131411
0.00137156
0.00143347
0.00150481
0.00159578
0.00172329
0.00191313
0.00217991
0.00239204
0.0012698
0.00134586
0.00138924
0.00141559
0.00143105
0.00143502
0.00142799
0.00141274
0.00138019
0.00133175
0.00128707
0.00124504
0.00121338
0.00119874
0.00120415
0.00122797
0.00126548
0.00131213
0.00136634
0.00143097
0.00151445
0.00163388
0.00183262
0.00201806
0.00134494
0.00143991
0.00150033
0.00153946
0.001564
0.00157529
0.00157391
0.00155898
0.00153763
0.00149766
0.00143971
0.00138328
0.00132594
0.00127453
0.0012358
0.00121492
0.00121373
0.00123051
0.00126166
0.00130453
0.00135994
0.00143312
0.00156149
0.00171947
0.00140803
0.001518
0.00158956
0.00163861
0.00167135
0.00169039
0.00169592
0.00168866
0.00166989
0.00164466
0.00159985
0.00153678
0.0014739
0.00140817
0.00134486
0.0012897
0.00124809
0.00122386
0.00121827
0.00123008
0.0012577
0.00129847
0.00136672
0.00149634
0.00145994
0.00158044
0.00165955
0.00171411
0.00175273
0.00177814
0.00179121
0.00179223
0.00178097
0.00175865
0.00173114
0.00168643
0.00162458
0.00156041
0.00149296
0.00142527
0.0013618
0.00130726
0.00126583
0.00124036
0.00123231
0.00124007
0.00126401
0.00135193
0.00150107
0.00162911
0.00171216
0.0017691
0.00181053
0.00184026
0.00185951
0.00186849
0.00186708
0.0018553
0.00183275
0.00180306
0.00176017
0.00170822
0.00165105
0.0015869
0.00152101
0.00145732
0.00139828
0.00134724
0.00130783
0.0012817
0.0012681
0.00131135
0.00153138
0.00166499
0.00174862
0.00180541
0.00184712
0.00187917
0.00190326
0.00191959
0.00192784
0.0019276
0.00191823
0.0018996
0.00187244
0.0018346
0.0017928
0.00175071
0.00170082
0.00164206
0.0015809