/*--------------------------------*- C++ -*----------------------------------*\
  =========                 |
  \\      /  F ield         | OpenFOAM: The Open Source CFD Toolbox
   \\    /   O peration     | Website:  https://openfoam.org
    \\  /    A nd           | Version:  11
     \\/     M anipulation  |
\*---------------------------------------------------------------------------*/
FoamFile
{
    format      ascii;
    class       volScalarField;
    location    "1.56";
    object      p;
}
// * * * * * * * * * * * * * * * * * * * * * * * * * * * * * * * * * * * * * //

dimensions      [0 2 -2 0 0 0 0];

internalField   nonuniform List<scalar> 
2880
(
-0.718462
-0.732452
-0.739848
-0.757995
-0.779808
-0.890683
-0.716919
-0.730919
-0.737742
-0.754602
-0.767701
-0.794278
-0.713355
-0.728321
-0.733933
-0.74836
-0.754528
-0.753254
-0.710105
-0.725516
-0.729624
-0.740803
-0.741408
-0.73033
-0.70833
-0.723097
-0.725556
-0.73321
-0.729196
-0.713573
-0.709358
-0.721128
-0.721956
-0.726227
-0.718834
-0.700945
-0.712742
-0.719419
-0.718859
-0.72008
-0.71045
-0.691658
-0.7142
-0.717616
-0.716107
-0.714838
-0.703931
-0.684855
-0.713294
-0.715657
-0.713621
-0.710493
-0.699203
-0.680169
-0.712309
-0.713553
-0.71135
-0.707221
-0.695974
-0.6773
-0.711427
-0.7113
-0.709351
-0.704955
-0.694015
-0.676013
-0.710509
-0.708922
-0.707692
-0.703424
-0.693217
-0.676119
-0.709458
-0.706454
-0.706352
-0.702506
-0.693404
-0.677694
-0.708207
-0.703904
-0.705263
-0.702161
-0.694358
-0.680464
-0.706675
-0.701238
-0.704339
-0.702403
-0.695836
-0.684191
-0.705057
-0.69821
-0.703614
-0.703253
-0.69756
-0.688556
-0.704968
-0.695252
-0.70316
-0.704712
-0.699427
-0.693716
-0.707143
-0.694017
-0.703102
-0.706788
-0.701799
-0.701557
-0.708429
-0.69391
-0.703292
-0.70944
-0.705456
-0.714699
-0.707632
-0.693793
-0.703416
-0.712465
-0.711105
-0.733528
-0.706019
-0.693047
-0.703
-0.715461
-0.71834
-0.757231
-0.702266
-0.69104
-0.701485
-0.717345
-0.725867
-0.785525
-0.697042
-0.688038
-0.699188
-0.716941
-0.732237
-0.818308
-0.694528
-0.685951
-0.698152
-0.716134
-0.737707
-0.853221
-0.674676
-0.634322
-0.643617
-0.668318
-0.701781
-0.738217
-0.770754
-0.790946
-0.790496
-0.76421
-0.711104
-0.635589
-0.546312
-0.454339
-0.368403
-0.292458
-0.22836
-0.175968
-0.133685
-0.0996524
-0.0720774
-0.0492505
-0.0296158
-0.011587
-0.687391
-0.648179
-0.649336
-0.672626
-0.70655
-0.743713
-0.776298
-0.795354
-0.792976
-0.764363
-0.709461
-0.633606
-0.546175
-0.457847
-0.376214
-0.303884
-0.242553
-0.192052
-0.150429
-0.115874
-0.0868058
-0.0618288
-0.0397378
-0.0178828
-0.679606
-0.649405
-0.648836
-0.670628
-0.703236
-0.738721
-0.768488
-0.783603
-0.77669
-0.743831
-0.68659
-0.611408
-0.527805
-0.445528
-0.369976
-0.303462
-0.246829
-0.199236
-0.159359
-0.125506
-0.0962408
-0.0704702
-0.0471677
-0.0223509
-0.671706
-0.645814
-0.644166
-0.663464
-0.693103
-0.724715
-0.749313
-0.758332
-0.744768
-0.706757
-0.64744
-0.574122
-0.4957
-0.420655
-0.352766
-0.29293
-0.241407
-0.197417
-0.15994
-0.127608
-0.0992073
-0.0739097
-0.0507002
-0.0244856
-0.665363
-0.640695
-0.636946
-0.65244
-0.677527
-0.70336
-0.721129
-0.722081
-0.700833
-0.657778
-0.597454
-0.527562
-0.455911
-0.388042
-0.327458
-0.274526
-0.228081
-0.1879
-0.153139
-0.122695
-0.0956182
-0.071325
-0.0488156
-0.0230657
-0.659648
-0.634944
-0.628092
-0.638598
-0.65767
-0.676499
-0.685894
-0.677447
-0.64865
-0.601441
-0.541586
-0.476276
-0.41163
-0.351515
-0.297568
-0.250094
-0.208565
-0.172335
-0.14062
-0.11255
-0.0873966
-0.0646198
-0.0429931
-0.0187072
-0.65496
-0.62908
-0.618205
-0.622771
-0.634804
-0.645735
-0.645122
-0.627343
-0.59179
-0.541872
-0.483756
-0.423503
-0.365456
-0.311991
-0.264047
-0.221703
-0.184552
-0.151991
-0.123327
-0.0978406
-0.0749534
-0.0539571
-0.0333359
-0.0115615
-0.651556
-0.623454
-0.607739
-0.605492
-0.610236
-0.611629
-0.60063
-0.574242
-0.533125
-0.481936
-0.426391
-0.371071
-0.318815
-0.271043
-0.228256
-0.190414
-0.157157
-0.127951
-0.102178
-0.0792349
-0.0585824
-0.0392597
-0.0195939
-0.00146604
-0.649481
-0.618266
-0.596905
-0.587645
-0.584051
-0.574781
-0.55406
-0.519788
-0.474515
-0.423239
-0.370589
-0.31971
-0.272373
-0.22939
-0.190985
-0.157041
-0.127223
-0.101052
-0.0779672
-0.0574526
-0.0389433
-0.0211631
-0.00229935
0.0113798
-0.648741
-0.613584
-0.585784
-0.569382
-0.555835
-0.536329
-0.506135
-0.465091
-0.417065
-0.366484
-0.316672
-0.269646
-0.22644
-0.187467
-0.152768
-0.12217
-0.0953565
-0.0718888
-0.0512438
-0.0329616
-0.0164648
-8.88238e-05
0.0182039
0.0268822
-0.649365
-0.609087
-0.574647
-0.549943
-0.526067
-0.496353
-0.457206
-0.41083
-0.361219
-0.31174
-0.264558
-0.220851
-0.181141
-0.145552
-0.113994
-0.0862558
-0.0620337
-0.040923
-0.0224356
-0.00615252
0.00850667
0.0236508
0.0415699
0.0448889
-0.651397
-0.604355
-0.563251
-0.528838
-0.494737
-0.454419
-0.407468
-0.357205
-0.306894
-0.25874
-0.213979
-0.173177
-0.136475
-0.103785
-0.0749132
-0.0496224
-0.0276193
-0.00852762
0.00809804
0.0226203
0.0356297
0.0497242
0.0674279
0.0652557
-0.654553
-0.598531
-0.550451
-0.505948
-0.46049
-0.41005
-0.356937
-0.304112
-0.253757
-0.207088
-0.164625
-0.126453
-0.0924206
-0.0622716
-0.0357347
-0.0125489
0.00756752
0.0249603
0.040016
0.0530192
0.064575
0.0777944
0.0954522
0.0879355
-0.658435
-0.590595
-0.535006
-0.480019
-0.422305
-0.363126
-0.305469
-0.251193
-0.201365
-0.156383
-0.116195
-0.0805121
-0.0489459
-0.0211071
0.00334219
0.0246851
0.0431938
0.059179
0.0729492
0.0846844
0.094995
0.107506
0.125298
0.112911
-0.661425
-0.580238
-0.515464
-0.448856
-0.379585
-0.313501
-0.252805
-0.198039
-0.14928
-0.106249
-0.0684272
-0.0352177
-0.00604233
0.0195981
0.0421002
0.0617715
0.0788809
0.0937038
0.10646
0.117193
0.126499
0.138466
0.156564
0.140176
-0.660134
-0.56866
-0.4896
-0.41066
-0.332008
-0.260928
-0.198543
-0.144196
-0.0970891
-0.0563567
-0.0210957
0.00954164
0.0362851
0.0597229
0.0803041
0.0983662
0.114185
0.128011
0.139983
0.149995
0.158589
0.1702
0.188775
0.169816
-0.651634
-0.557647
-0.456661
-0.364848
-0.279274
-0.205088
-0.142288
-0.0892605
-0.0444335
-0.00642555
0.0259902
0.0538595
0.078028
0.099151
0.117722
0.134111
0.148615
0.161482
0.172809
0.182388
0.190654
0.202152
0.221349
0.202291
-0.636472
-0.544922
-0.416674
-0.311229
-0.220857
-0.145475
-0.0836103
-0.0328712
0.00898109
0.043773
0.0729923
0.0978291
0.119204
0.13781
0.154169
0.168676
0.181656
0.19338
0.203979
0.213288
0.22161
0.232962
0.252364
0.239463
-0.615968
-0.522476
-0.367592
-0.249118
-0.156116
-0.0815806
-0.0221613
0.0252284
0.0633592
0.0944082
0.120052
0.141565
0.159895
0.175735
0.189596
0.201867
0.212861
0.222852
0.232036
0.240384
0.247818
0.256406
0.272112
0.283707
-0.589256
-0.479379
-0.305418
-0.177544
-0.0845355
-0.013036
0.0422726
0.0851659
0.118796
0.145574
0.16728
0.185209
0.200284
0.213158
0.224288
0.233999
0.242527
0.25006
0.256725
0.262369
0.266233
0.269159
0.281027
0.315659
-0.555307
-0.407053
-0.225365
-0.0952531
-0.00567483
0.0603218
0.109705
0.146886
0.175234
0.197247
0.214711
0.228876
0.240599
0.250464
0.258863
0.266064
0.27225
0.277565
0.282035
0.285203
0.286438
0.289538
0.308141
0.330049
-0.516311
-0.299246
-0.122011
-0.000822514
0.0805845
0.13823
0.179798
0.210064
0.232404
0.249236
0.26224
0.272553
0.28093
0.287866
0.293685
0.298605
0.302781
0.306344
0.309266
0.310983
0.311274
0.315785
0.337966
0.349563
-0.461805
-0.143367
0.00962303
0.106613
0.173616
0.219781
0.251748
0.274048
0.289799
0.301157
0.309592
0.316058
0.321171
0.325321
0.328758
0.331643
0.334095
0.336215
0.337917
0.338581
0.338211
0.343253
0.366673
0.372709
-0.287965
0.0736595
0.166285
0.225104
0.271503
0.303314
0.324264
0.337859
0.346695
0.352469
0.356344
0.359054
0.361044
0.362589
0.363851
0.36493
0.365896
0.366806
0.367518
0.367351
0.366407
0.37148
0.39512
0.397991
1.5245
1.56499
1.59992
1.63362
1.59929
1.46773
1.52446
1.55869
1.58183
1.59658
1.52733
1.36684
1.52438
1.55017
1.56011
1.55956
1.47241
1.30922
1.52402
1.54312
1.5419
1.5276
1.43831
1.28783
1.5233
1.5382
1.52812
1.50318
1.41684
1.28226
1.52211
1.53403
1.51728
1.48472
1.40207
1.28304
1.52025
1.52936
1.50797
1.47032
1.3918
1.28645
1.51768
1.52374
1.49947
1.45874
1.3846
1.29075
1.51451
1.51722
1.49154
1.44928
1.37946
1.29499
1.51089
1.51012
1.48429
1.44151
1.37565
1.29831
1.50704
1.50288
1.47789
1.43522
1.3728
1.30088
1.50313
1.49592
1.47254
1.43025
1.37068
1.30263
1.49932
1.4896
1.46832
1.42653
1.36913
1.3036
1.49572
1.48416
1.46524
1.42394
1.36811
1.3039
1.49243
1.47973
1.46328
1.4224
1.36766
1.30377
1.48947
1.47633
1.46235
1.42183
1.36796
1.30361
1.48685
1.47389
1.46221
1.42211
1.36921
1.30401
1.48456
1.47227
1.46254
1.42304
1.37159
1.30568
1.48276
1.47117
1.46291
1.42442
1.37533
1.30954
1.48308
1.4701
1.46276
1.42583
1.38066
1.31728
1.4848
1.4681
1.46129
1.42656
1.38798
1.33412
1.48364
1.4645
1.45767
1.42587
1.39764
1.37027
1.48069
1.45967
1.45254
1.42493
1.40959
1.43636
1.4794
1.45684
1.45172
1.43018
1.42215
1.53107
0.250312
0.301524
0.325066
0.347226
0.370341
0.386264
0.395573
0.400322
0.402226
0.402511
0.401977
0.401106
0.400166
0.399306
0.398599
0.398073
0.397742
0.39761
0.397472
0.39659
0.39511
0.399938
0.423133
0.42393
0.592782
0.490714
0.467884
0.463108
0.465011
0.465729
0.463892
0.460172
0.455498
0.450606
0.445945
0.441748
0.438114
0.435068
0.432594
0.430646
0.429176
0.428128
0.427237
0.425724
0.423764
0.428219
0.450524
0.449909
0.789812
0.650945
0.594434
0.567531
0.551986
0.539537
0.527759
0.516384
0.50574
0.496144
0.487738
0.480535
0.474478
0.469484
0.465448
0.462254
0.459789
0.457939
0.456384
0.454325
0.451964
0.455986
0.47707
0.475492
0.909241
0.773908
0.700708
0.658388
0.629541
0.6064
0.586201
0.568212
0.552354
0.538628
0.526925
0.517076
0.508893
0.502198
0.496807
0.492539
0.489217
0.486672
0.484542
0.482024
0.479353
0.482923
0.502539
0.500344
0.99627
0.869329
0.78834
0.735929
0.697282
0.665746
0.63868
0.615181
0.594925
0.577687
0.563166
0.55105
0.541051
0.532908
0.526371
0.521197
0.517153
0.514019
0.511399
0.508514
0.505628
0.508749
0.526717
0.524185
1.06167
0.943481
0.859712
0.801003
0.755376
0.717459
0.684984
0.657048
0.633201
0.61307
0.596212
0.582214
0.570707
0.561368
0.553892
0.547977
0.543341
0.539719
0.536697
0.533536
0.530526
0.533207
0.5494
0.546755
1.11021
1.00067
0.917094
0.854759
0.804334
0.761731
0.72514
0.693748
0.66707
0.644634
0.625903
0.610392
0.597679
0.587389
0.579171
0.572676
0.567574
0.563562
0.56022
0.556869
0.553815
0.556062
0.570395
0.567808
1.14591
1.0444
0.962593
0.898428
0.844861
0.798948
0.759339
0.725354
0.696526
0.672322
0.652149
0.635474
0.621838
0.610831
0.602061
0.595136
0.589683
0.585372
0.581789
0.578324
0.575289
0.577103
0.589533
0.587123
1.17192
1.07746
0.998066
0.93322
0.877725
0.829592
0.787868
0.752023
0.721638
0.696146
0.67492
0.657401
0.643106
0.631598
0.622451
0.615233
0.609536
0.605006
0.601249
0.597734
0.594765
0.596148
0.606671
0.604513
1.19069
1.10202
1.02506
0.960225
0.903682
0.854167
0.811055
0.773959
0.742521
0.716159
0.694227
0.676153
0.661439
0.649628
0.640264
0.632876
0.627026
0.622347
0.618475
0.614961
0.612088
0.613045
0.6217
0.61983
1.20354
1.11957
1.04481
0.980381
0.923412
0.873159
0.829231
0.791384
0.759318
0.732447
0.710115
0.691743
0.676827
0.664891
0.65545
0.647998
0.642071
0.637303
0.633364
0.629889
0.627134
0.62768
0.634548
0.632975
1.21158
1.13124
1.05828
0.994467
0.937503
0.886999
0.842706
0.804512
0.772177
0.745111
0.722648
0.704209
0.689282
0.677378
0.66798
0.660553
0.654613
0.649803
0.645838
0.642434
0.639809
0.639977
0.645184
0.643889
1.21554
1.13783
1.06617
1.0031
0.94644
0.896053
0.851751
0.813547
0.781248
0.75426
0.731905
0.713603
0.698837
0.6871
0.677847
0.670515
0.664614
0.659804
0.655849
0.652539
0.65006
0.64991
0.65363
0.652512
1.21585
1.13985
1.069
1.00674
0.950613
0.900618
0.856598
0.81867
0.786674
0.760008
0.737976
0.719993
0.705539
0.694085
0.685061
0.677881
0.672061
0.667287
0.66337
0.660164
0.657832
0.657437
0.659835
0.658642
1.21267
1.1376
1.06708
1.00568
0.95029
0.900915
0.857432
0.820038
0.788593
0.762473
0.74096
0.723462
0.70945
0.698379
0.68965
0.68267
0.676968
0.672261
0.668404
0.665303
0.663076
0.662414
0.663715
0.662709
1.20596
1.13116
1.06057
1.00008
0.945627
0.897089
0.854395
0.817789
0.787132
0.761775
0.740965
0.724103
0.710652
0.700046
0.691672
0.684934
0.679387
0.674786
0.671026
0.668048
0.665895
0.664944
0.665428
0.66491
1.19543
1.12041
1.04941
0.990009
0.936686
0.889231
0.847597
0.812047
0.782423
0.758039
0.738109
0.722023
0.709237
0.69917
0.6912
0.684745
0.679393
0.674936
0.6713
0.668453
0.666414
0.665329
0.665211
0.664945
1.18056
1.10502
1.03333
0.975359
0.923448
0.877388
0.837129
0.802931
0.7746
0.751405
0.732525
0.717346
0.705317
0.695852
0.68833
0.682196
0.677077
0.672801
0.669318
0.666612
0.664681
0.66354
0.663129
0.663038
1.16047
1.08439
1.01186
0.955899
0.905826
0.86158
0.823082
0.790576
0.763819
0.742031
0.724367
0.710213
0.699022
0.69021
0.683176
0.677398
0.672549
0.668487
0.665181
0.66262
0.660788
0.659676
0.659233
0.659221
1.13402
1.05745
0.984392
0.931296
0.883716
0.841845
0.805576
0.775149
0.750265
0.730103
0.713809
0.700787
0.690501
0.682388
0.675873
0.670484
0.665936
0.662119
0.659007
0.656587
0.654849
0.65385
0.653628
0.653577
1.09935
1.02235
0.950034
0.901155
0.857044
0.818278
0.7848
0.756879
0.734177
0.715846
0.70106
0.689256
0.679928
0.672543
0.666575
0.661601
0.657381
0.65383
0.650926
0.648643
0.646991
0.646186
0.646436
0.646256
1.05368
0.975535
0.907539
0.865112
0.825864
0.791112
0.761056
0.736084
0.715853
0.69953
0.686359
0.675833
0.667494
0.660858
0.655452
0.650911
0.647038
0.643768
0.64108
0.638925
0.637348
0.636811
0.637765
0.637358
0.983092
0.910377
0.855548
0.823155
0.790536
0.760814
0.734821
0.713193
0.695663
0.681469
0.669973
0.660753
0.653412
0.647526
0.642687
0.638587
0.635069
0.632088
0.629617
0.627581
0.626069
0.625868
0.62774
0.627015
0.836937
0.818647
0.794491
0.776227
0.751989
0.728211
0.706784
0.688761
0.674044
0.662014
0.652195
0.644264
0.6379
0.632748
0.628467
0.624806
0.621642
0.618949
0.61669
0.614761
0.613308
0.613515
0.616509
0.615362
0.490486
0.449898
0.418472
0.368331
0.277311
-0.0801623
0.490761
0.452253
0.423603
0.380437
0.325893
0.204804
0.492989
0.456965
0.432571
0.396216
0.358029
0.31264
0.495399
0.463078
0.443808
0.413757
0.385185
0.366107
0.495755
0.469348
0.455707
0.431081
0.411664
0.40606
0.497564
0.47558
0.467371
0.447304
0.435155
0.434788
0.501414
0.482319
0.478303
0.46239
0.4545
0.454371
0.505995
0.489625
0.488539
0.476309
0.470075
0.46765
0.510914
0.497352
0.498287
0.488927
0.482552
0.476406
0.515989
0.505388
0.50761
0.500172
0.492425
0.48191
0.521161
0.513673
0.516472
0.509996
0.499983
0.48494
0.526396
0.522159
0.524807
0.518405
0.505519
0.486011
0.531656
0.530797
0.532587
0.525521
0.509237
0.485275
0.536886
0.539507
0.539818
0.531485
0.511207
0.482621
0.541996
0.54814
0.546511
0.53649
0.511652
0.477949
0.546854
0.55649
0.552713
0.540736
0.510867
0.471227
0.551301
0.564294
0.558501
0.544353
0.50915
0.462535
0.555194
0.57123
0.563984
0.547514
0.506713
0.452112
0.558381
0.577005
0.5693
0.550718
0.503698
0.440297
0.560517
0.58164
0.574807
0.554981
0.500814
0.427448
0.55996
0.586008
0.581762
0.562196
0.500523
0.414608
0.558688
0.592032
0.59262
0.575504
0.507638
0.404121
0.562038
0.59969
0.608051
0.595437
0.52562
0.392653
0.564648
0.605554
0.620608
0.610367
0.541648
0.380829
0.53468
0.713035
0.729739
0.726948
0.711995
0.694524
0.677816
0.663419
0.651464
0.641529
0.633319
0.626617
0.621181
0.616727
0.61298
0.60974
0.606919
0.604506
0.602454
0.600625
0.599236
0.599939
0.604262
0.602457
0.459631
0.6243
0.670027
0.679921
0.672948
0.661141
0.648808
0.637787
0.628372
0.620361
0.613627
0.608051
0.603466
0.599655
0.596403
0.593555
0.59105
0.588892
0.587026
0.585268
0.583878
0.584991
0.590859
0.588845
0.458812
0.57453
0.622321
0.638117
0.636524
0.629157
0.620488
0.612361
0.605131
0.598798
0.593361
0.588781
0.58495
0.581712
0.578902
0.576403
0.574175
0.572233
0.570512
0.56877
0.567265
0.568615
0.576111
0.574582
0.463155
0.545902
0.585807
0.602145
0.603406
0.599155
0.593303
0.587462
0.582003
0.577062
0.572717
0.568983
0.565799
0.563056
0.560633
0.558439
0.55645
0.554689
0.553078
0.551317
0.549669
0.551269
0.560371
0.559039
0.466482
0.525507
0.556855
0.57123
0.573578
0.571277
0.567413
0.563242
0.559138
0.555296
0.551834
0.548792
0.546147
0.543825
0.541733
0.539804
0.538024
0.536419
0.534899
0.533109
0.531335
0.533257
0.543995
0.542467
0.469618
0.50937
0.532999
0.544355
0.546672
0.545382
0.542762
0.539714
0.536584
0.533569
0.53079
0.528299
0.526093
0.52412
0.522313
0.520614
0.519018
0.517551
0.516109
0.514286
0.512395
0.514654
0.527035
0.525224
0.472086
0.496125
0.51282
0.520639
0.522164
0.521155
0.519159
0.516787
0.514307
0.511882
0.509614
0.507551
0.505697
0.504017
0.502453
0.500958
0.499528
0.498188
0.49682
0.494967
0.492962
0.495538
0.509528
0.507451
0.47333
0.485153
0.495221
0.499262
0.499463
0.498179
0.496336
0.494293
0.492209
0.490185
0.488291
0.486559
0.484992
0.483559
0.482211
0.480903
0.47963
0.478415
0.477125
0.475257
0.473149
0.476014
0.491544
0.489262
0.473119
0.475446
0.478989
0.479388
0.477945
0.475995
0.473982
0.472019
0.470146
0.46839
0.466773
0.465307
0.463983
0.462771
0.461623
0.460497
0.459383
0.458301
0.457104
0.455245
0.453058
0.456179
0.473149
0.470772
0.471193
0.465621
0.463411
0.460286
0.456996
0.454148
0.45176
0.449726
0.447953
0.446384
0.444992
0.443758
0.442659
0.441659
0.440713
0.439775
0.438833
0.4379
0.436821
0.435009
0.432781
0.436125
0.454402
0.452106
0.46778
0.455544
0.447868
0.44127
0.436049
0.432192
0.42934
0.427169
0.425451
0.424044
0.422865
0.421863
0.420996
0.420224
0.419495
0.418766
0.418019
0.417264
0.416336
0.414622
0.412402
0.415932
0.435345
0.43339
0.462832
0.444437
0.431557
0.421669
0.414577
0.40972
0.406409
0.404109
0.402463
0.40124
0.400303
0.399566
0.398969
0.398459
0.397987
0.397503
0.396987
0.396446
0.395714
0.394156
0.392006
0.395675
0.415995
0.414771
0.455922
0.431442
0.413792
0.400918
0.392116
0.386364
0.382674
0.380321
0.378815
0.377844
0.377216
0.37681
0.376547
0.376364
0.376207
0.376025
0.375795
0.37552
0.375037
0.373705
0.371694
0.375425
0.39634
0.396441
0.446627
0.41605
0.394031
0.378517
0.368248
0.361782
0.357865
0.355586
0.354337
0.353727
0.35351
0.353534
0.3537
0.353936
0.354181
0.354384
0.354518
0.354582
0.354422
0.353404
0.351604
0.355261
0.37632
0.378721
0.43447
0.397742
0.371754
0.353996
0.342577
0.335653
0.331718
0.329695
0.328862
0.328757
0.329088
0.329672
0.330393
0.331169
0.331937
0.332642
0.333253
0.333764
0.334037
0.333463
0.331969
0.335289
0.355746
0.362262
0.418832
0.375845
0.346373
0.326868
0.314708
0.307656
0.303974
0.302434
0.302217
0.302798
0.303842
0.305145
0.306574
0.308043
0.309487
0.31085
0.312098
0.31322
0.314109
0.314224
0.313228
0.315668
0.334
0.348515
0.398924
0.349488
0.317188
0.296593
0.284221
0.277463
0.274371
0.273591
0.274226
0.2757
0.277649
0.279849
0.282162
0.284497
0.286795
0.289006
0.291098
0.293059
0.294849
0.296098
0.296126
0.297026
0.310426
0.340604
0.37375
0.317537
0.283367
0.262571
0.250674
0.244734
0.242641
0.242947
0.244703
0.247302
0.250363
0.253651
0.257025
0.260401
0.263729
0.266979
0.270135
0.273209
0.27623
0.279037
0.280981
0.282771
0.29335
0.328679
0.342059
0.278518
0.243944
0.224155
0.213605
0.20913
0.208519
0.210283
0.21346
0.217432
0.221816
0.226376
0.230974
0.235534
0.240015
0.244403
0.248708
0.252964
0.257154
0.261003
0.264336
0.2704
0.287653
0.29275
0.302044
0.230663
0.197898
0.180701
0.172569
0.170328
0.171755
0.175391
0.180307
0.18591
0.191827
0.197831
0.203784
0.209612
0.215269
0.220732
0.225997
0.231072
0.235861
0.239968
0.243557
0.251482
0.271658
0.262014
0.251137
0.172221
0.144292
0.131648
0.127191
0.128059
0.132137
0.138085
0.145072
0.152567
0.160227
0.167837
0.17527
0.182445
0.189308
0.195819
0.201954
0.2077
0.21295
0.217335
0.22121
0.229934
0.250994
0.236184
0.18591
0.101663
0.0825005
0.0766442
0.0772582
0.0821718
0.0895252
0.0982197
0.107606
0.117251
0.12686
0.136247
0.14529
0.15391
0.162047
0.169646
0.176665
0.183088
0.188842
0.193664
0.198012
0.207267
0.22848
0.212108
0.0972655
0.018123
0.0127183
0.0156567
0.022756
0.0326578
0.0438752
0.0557111
0.0677926
0.0798277
0.0915916
0.102928
0.11373
0.123923
0.133442
0.142221
0.150209
0.157388
0.16374
0.169118
0.174041
0.183705
0.204734
0.18882
-0.0332078
-0.0759924
-0.0613965
-0.0495417
-0.0354085
-0.0200771
-0.00465607
0.0105811
0.0255724
0.0401924
0.0542959
0.0677601
0.0804916
0.0924175
0.103471
0.113582
0.122688
0.130771
0.137858
0.143903
0.149485
0.159474
0.180094
0.166079
-0.378407
-0.36761
-0.372263
-0.38451
-0.406751
-0.455014
-0.380656
-0.370945
-0.3786
-0.393866
-0.417705
-0.467684
-0.385485
-0.375577
-0.3864
-0.403685
-0.424715
-0.454151
-0.389068
-0.379239
-0.392427
-0.409958
-0.429201
-0.450205
-0.388091
-0.381504
-0.396691
-0.414331
-0.432545
-0.450041
-0.38445
-0.383243
-0.399918
-0.417863
-0.43559
-0.451459
-0.383571
-0.38559
-0.402787
-0.42093
-0.438448
-0.453524
-0.38505
-0.388639
-0.405507
-0.423615
-0.441122
-0.45575
-0.386605
-0.391822
-0.408021
-0.425955
-0.443502
-0.457807
-0.388058
-0.394753
-0.410194
-0.427995
-0.44545
-0.459629
-0.389267
-0.397326
-0.411921
-0.42969
-0.446969
-0.461213
-0.390219
-0.399483
-0.413152
-0.430941
-0.448116
-0.462568
-0.390931
-0.401113
-0.413851
-0.431702
-0.448907
-0.463727
-0.391416
-0.402193
-0.413987
-0.431975
-0.449341
-0.464757
-0.391713
-0.402708
-0.413572
-0.431748
-0.449389
-0.465646
-0.391919
-0.402699
-0.412632
-0.431005
-0.448986
-0.466299
-0.392144
-0.402251
-0.41124
-0.429732
-0.448017
-0.466517
-0.392265
-0.40148
-0.409503
-0.427914
-0.446294
-0.465975
-0.392138
-0.40053
-0.407581
-0.425546
-0.443549
-0.464173
-0.38999
-0.399727
-0.405772
-0.422711
-0.439464
-0.459992
-0.386043
-0.399682
-0.404582
-0.41975
-0.433697
-0.450733
-0.38677
-0.400833
-0.404603
-0.417085
-0.4257
-0.43117
-0.391191
-0.402758
-0.405415
-0.413906
-0.414383
-0.39514
-0.393309
-0.403385
-0.403668
-0.407167
-0.399241
-0.344994
-0.241458
-0.177314
-0.139005
-0.115127
-0.094529
-0.0748919
-0.0556094
-0.0370001
-0.0190312
-0.00171949
0.0148636
0.0306241
0.0454714
0.0593271
0.0721188
0.083771
0.0942136
0.103418
0.111429
0.118284
0.124617
0.134869
0.154894
0.143846
-0.331655
-0.26835
-0.217344
-0.180803
-0.152756
-0.129535
-0.107995
-0.0867061
-0.0659583
-0.0459561
-0.0268114
-0.00861254
0.00854348
0.0245588
0.039343
0.0528088
0.0648746
0.0754935
0.0846917
0.0925688
0.0997805
0.110259
0.129514
0.122173
-0.383085
-0.33012
-0.282572
-0.24407
-0.211818
-0.184106
-0.159901
-0.13724
-0.114871
-0.0925281
-0.0708428
-0.0501013
-0.0304514
-0.0120268
0.00504787
0.0206594
0.0347058
0.0471127
0.0578637
0.0670701
0.0753529
0.086098
0.10444
0.101199
-0.41776
-0.373897
-0.333511
-0.299233
-0.269224
-0.240055
-0.212809
-0.187722
-0.16426
-0.140922
-0.117251
-0.0940268
-0.0717165
-0.0506215
-0.0309308
-0.0127947
0.00365256
0.0183008
0.0310847
0.0420561
0.0517437
0.0629527
0.0802965
0.0811947
-0.438176
-0.406936
-0.374661
-0.34534
-0.318459
-0.292824
-0.266716
-0.240323
-0.21442
-0.189406
-0.164931
-0.140194
-0.115408
-0.0914443
-0.0687997
-0.0477378
-0.0284333
-0.0110329
0.00434679
0.0176572
0.0292668
0.0413305
0.0577958
0.0626748
-0.450098
-0.431412
-0.407044
-0.382824
-0.359459
-0.337149
-0.314915
-0.291852
-0.266468
-0.239731
-0.213051
-0.186718
-0.160616
-0.134417
-0.10871
-0.0843518
-0.0617374
-0.0410723
-0.0225144
-0.00618364
0.00805704
0.0216667
0.0377861
0.0463269
-0.457355
-0.448307
-0.431452
-0.412151
-0.392556
-0.37343
-0.354574
-0.334897
-0.313584
-0.28993
-0.263164
-0.234621
-0.206028
-0.177896
-0.150048
-0.122587
-0.0963618
-0.0719749
-0.0497114
-0.0297324
-0.0120904
0.00400898
0.0207366
0.0326761
-0.463037
-0.459783
-0.448968
-0.434218
-0.418119
-0.401878
-0.385675
-0.369026
-0.351256
-0.331139
-0.308125
-0.28203
-0.252802
-0.221843
-0.191044
-0.161092
-0.131795
-0.103606
-0.0773131
-0.0532333
-0.031543
-0.0119597
0.00661351
0.0219069
-0.467331
-0.467695
-0.461177
-0.450125
-0.436904
-0.422962
-0.408802
-0.394273
-0.378981
-0.362065
-0.342595
-0.319721
-0.293377
-0.263962
-0.232067
-0.198856
-0.166107
-0.134775
-0.104777
-0.0765036
-0.050482
-0.0267478
-0.00520092
0.0136987
-0.470677
-0.473348
-0.469663
-0.461237
-0.450109
-0.437697
-0.424779
-0.411446
-0.397435
-0.382304
-0.365319
-0.34547
-0.322188
-0.295315
-0.265132
-0.232576
-0.198581
-0.164133
-0.130524
-0.0985784
-0.0685507
-0.0404467
-0.0151836
0.00765629
-0.473432
-0.477624
-0.475758
-0.469034
-0.459201
-0.447561
-0.434964
-0.421779
-0.407905
-0.393003
-0.376738
-0.358473
-0.337368
-0.31295
-0.28525
-0.254614
-0.221597
-0.187078
-0.152119
-0.11764
-0.0841758
-0.0538921
-0.0257941
0.00513969
-0.475873
-0.481177
-0.480551
-0.474934
-0.465801
-0.454299
-0.44125
-0.427168
-0.4122
-0.396188
-0.378912
-0.360153
-0.339441
-0.316202
-0.290208
-0.261572
-0.230613
-0.197847
-0.163941
-0.12958
-0.095514
-0.0622878
-0.0307196
0.0010463
-0.478233
-0.484503
-0.485124
-0.480228
-0.471501
-0.459831
-0.445865
-0.430153
-0.413014
-0.394576
-0.374851
-0.353829
-0.331449
-0.307447
-0.281577
-0.253895
-0.224601
-0.193932
-0.162247
-0.129926
-0.0974048
-0.0647511
-0.0330875
-0.000692281
-0.480879
-0.48807
-0.490192
-0.48609
-0.477823
-0.466055
-0.451137
-0.433549
-0.413678
-0.391851
-0.368429
-0.343734
-0.318045
-0.291485
-0.264029
-0.235709
-0.206758
-0.177455
-0.147991
-0.118502
-0.089135
-0.0597622
-0.0307963
-0.0012737
-0.484215
-0.49255
-0.496207
-0.493467
-0.486232
-0.474764
-0.459243
-0.439969
-0.417339
-0.391897
-0.364168
-0.334827
-0.304557
-0.273901
-0.243301
-0.21299
-0.183166
-0.154059
-0.125882
-0.098785
-0.0728655
-0.0480198
-0.0241916
-0.00170988
-0.488429
-0.498328
-0.504012
-0.503247
-0.497741
-0.487397
-0.472125
-0.451972
-0.427226
-0.398434
-0.366242
-0.331716
-0.296061
-0.260322
-0.225254
-0.191482
-0.159478
-0.129553
-0.101859
-0.0764404
-0.0532938
-0.0323358
-0.0135419
0.00180311
-0.493779
-0.505733
-0.514139
-0.516017
-0.513125
-0.504985
-0.491184
-0.471469
-0.445784
-0.414122
-0.377335
-0.337319
-0.295795
-0.254244
-0.2139
-0.175716
-0.140418
-0.108456
-0.0800435
-0.0552154
-0.033801
-0.0151785
0.00199989
0.0151422
-0.50055
-0.515007
-0.526822
-0.532074
-0.532812
-0.528231
-0.517513
-0.499624
-0.473799
-0.438801
-0.397747
-0.352333
-0.304468
-0.256409
-0.21004
-0.16674
-0.127486
-0.0928579
-0.0630707
-0.0381134
-0.0176987
-0.000120898
0.0186622
0.0327729
-0.509045
-0.526252
-0.541998
-0.551304
-0.556753
-0.557061
-0.550438
-0.534904
-0.508871
-0.473419
-0.429119
-0.377934
-0.322941
-0.267361
-0.213897
-0.164496
-0.120459
-0.0825329
-0.0509978
-0.0258408
-0.00668529
0.00802388
0.0208574
0.0255128
-0.519628
-0.539425
-0.559287
-0.573003
-0.583747
-0.589965
-0.589074
-0.57815
-0.555066
-0.519537
-0.471843
-0.414594
-0.351715
-0.287587
-0.225902
-0.169409
-0.119827
-0.0780661
-0.0443994
-0.0187703
-0.000902515
0.00971533
0.013275
0.00810347
-0.532385
-0.554408
-0.578026
-0.596145
-0.612631
-0.6257
-0.632159
-0.627954
-0.609451
-0.574987
-0.524507
-0.461087
-0.389564
-0.315933
-0.245227
-0.181118
-0.125609
-0.0796209
-0.0432846
-0.0163172
0.00169537
0.0111047
0.0119097
0.00554187
-0.546406
-0.571117
-0.597234
-0.619209
-0.641469
-0.661988
-0.676802
-0.680593
-0.668042
-0.63625
-0.584042
-0.51523
-0.435229
-0.352717
-0.273724
-0.202492
-0.141398
-0.0913005
-0.0520382
-0.0229524
-0.00327191
0.00786568
0.0110684
0.00868041
-0.562727
-0.589833
-0.615675
-0.640254
-0.667683
-0.695304
-0.718249
-0.730091
-0.724378
-0.695975
-0.642466
-0.57024
-0.484822
-0.395694
-0.310769
-0.234897
-0.170353
-0.117623
-0.076167
-0.0449567
-0.0228138
-0.00854431
-0.000688027
0.00408891
-0.595696
-0.611754
-0.631823
-0.657202
-0.688517
-0.721711
-0.750915
-0.768654
-0.767224
-0.740875
-0.688425
-0.614047
-0.525418
-0.433079
-0.34588
-0.268567
-0.203204
-0.149927
-0.107652
-0.0747295
-0.0493111
-0.0294741
-0.0138787
-0.00261466
)
;

boundaryField
{
    rotor
    {
        type            zeroGradient;
    }
    freestream
    {
        type            freestreamPressure;
        freestreamValue uniform 0;
        supersonic      false;
        value           nonuniform List<scalar> 
96
(
-0.00115124
-0.0020104
-0.00278052
-0.00335318
-0.00347603
-0.00309607
-0.00210091
-0.000292633
0.00249419
0.00646326
0.0118218
0.0187871
0.0276082
0.038548
0.0518733
0.0678808
0.0870177
0.11039
0.139484
0.164693
0.18328
0.206187
0.232606
0.261751
0.292659
0.324785
0.357644
0.390779
0.423742
0.456082
0.487342
0.517076
0.544863
0.570325
0.593136
0.613024
0.629738
0.642914
0.65283
0.659578
0.662792
0.662649
0.659173
0.652466
0.642727
0.63013
0.614902
0.597293
0.577493
0.556164
0.533496
0.50906
0.483266
0.456606
0.429364
0.401792
0.374134
0.346628
0.319502
0.292979
0.267297
0.242753
0.219802
0.199287
0.182812
0.165175
0.137471
0.114344
0.0953092
0.0787851
0.064274
0.0515949
0.0406319
0.0312774
0.0234232
0.0169643
0.0118151
0.00788686
0.00503577
0.00306853
0.00175374
0.000901887
0.000562184
0.000106945
-6.64814e-05
-0.000113445
-0.000133787
0.000107837
0.000487899
0.000138035
0.000167278
0.000257396
0.000284039
0.00054994
0.000301089
-0.000224262
)
;
    }
    frontAndBack
    {
        type            empty;
    }
}


// ************************************************************************* //
