/*--------------------------------*- C++ -*----------------------------------*\
  =========                 |
  \\      /  F ield         | OpenFOAM: The Open Source CFD Toolbox
   \\    /   O peration     | Website:  https://openfoam.org
    \\  /    A nd           | Version:  11
     \\/     M anipulation  |
\*---------------------------------------------------------------------------*/
FoamFile
{
    format      ascii;
    class       volVectorField;
    location    "1.56";
    object      U;
}
// * * * * * * * * * * * * * * * * * * * * * * * * * * * * * * * * * * * * * //

dimensions      [0 1 -1 0 0 0 0];

internalField   nonuniform List<vector> 
2880
(
(-0.0147692 0.0330598 -4.45673e-20)
(-0.0338279 0.0496748 1.08065e-18)
(-0.0875346 0.0450293 8.26075e-19)
(-0.107877 0.0532081 0)
(-0.126988 0.0868237 -4.64212e-21)
(-0.355998 0.109229 5.45538e-19)
(-0.040599 0.0284821 0)
(-0.0773431 0.0415588 6.0539e-20)
(-0.141717 0.0308706 -9.42524e-19)
(-0.175647 0.0354332 -4.92277e-19)
(-0.229739 0.0549298 -2.2252e-19)
(-0.362946 0.067468 -5.12439e-19)
(-0.0555032 0.0273493 3.47433e-20)
(-0.10648 0.0395401 -3.29564e-20)
(-0.17639 0.0256722 0)
(-0.221635 0.0280734 5.76768e-21)
(-0.288488 0.0482442 -5.36481e-19)
(-0.376323 0.0896027 4.38512e-19)
(-0.0694142 0.0275284 -3.20273e-20)
(-0.131182 0.0393896 -9.33944e-19)
(-0.202821 0.0253093 -4.53981e-20)
(-0.252528 0.0267176 1.33865e-18)
(-0.315951 0.0484178 4.35113e-19)
(-0.37571 0.0980773 -4.23029e-19)
(-0.0848625 0.0280346 0)
(-0.15347 0.0397806 5.41612e-20)
(-0.22357 0.0275425 -4.26987e-20)
(-0.272683 0.0287394 -1.13871e-18)
(-0.326641 0.0505157 -3.63084e-19)
(-0.365596 0.0976641 3.88981e-19)
(-0.100352 0.0274142 1.04508e-18)
(-0.173219 0.0397415 7.81482e-19)
(-0.239392 0.0311237 -4.15389e-20)
(-0.284814 0.0325569 6.18531e-19)
(-0.327477 0.0532592 -1.12204e-19)
(-0.348819 0.0947416 -2.90781e-19)
(-0.117045 0.0289493 2.27686e-20)
(-0.189425 0.0398485 -1.62373e-18)
(-0.250824 0.03548 0)
(-0.291014 0.0373716 1.31727e-19)
(-0.322552 0.0559305 3.27261e-19)
(-0.328428 0.0909426 0)
(-0.131889 0.0327098 -1.33011e-18)
(-0.201453 0.0410633 8.18527e-19)
(-0.258465 0.0404623 7.81311e-20)
(-0.292867 0.042933 -6.4618e-20)
(-0.313548 0.0588258 -4.34715e-19)
(-0.306054 0.0869753 0)
(-0.142643 0.0349307 2.01685e-20)
(-0.209943 0.0433722 -2.42763e-20)
(-0.263002 0.0460988 0)
(-0.291521 0.0491176 0)
(-0.302453 0.0620008 -4.24458e-19)
(-0.282989 0.0835136 0)
(-0.152048 0.0378692 4.01328e-20)
(-0.215555 0.046655 -2.39513e-20)
(-0.264942 0.0524936 0)
(-0.287982 0.0557948 4.9848e-19)
(-0.290448 0.0658281 8.45916e-19)
(-0.26011 0.0811022 0)
(-0.159772 0.0410222 2.00108e-20)
(-0.218597 0.0508863 4.74247e-20)
(-0.264757 0.0597333 -1.11658e-19)
(-0.283303 0.0632237 -9.29084e-19)
(-0.278255 0.0704236 -5.26321e-19)
(-0.238051 0.0801875 5.47567e-19)
(-0.165352 0.0440646 1.99843e-20)
(-0.219383 0.0560403 0)
(-0.263015 0.0678556 0)
(-0.277992 0.0714816 4.94992e-19)
(-0.266546 0.0761216 0)
(-0.217319 0.0811338 -2.77734e-19)
(-0.168519 0.0469761 -1.27678e-18)
(-0.218211 0.0620421 0)
(-0.260154 0.0768928 0)
(-0.272507 0.0806975 0)
(-0.255805 0.0831596 0)
(-0.198298 0.0841132 9.20739e-20)
(-0.169114 0.0500416 1.27835e-18)
(-0.215367 0.0687899 3.78416e-19)
(-0.256471 0.086881 0)
(-0.26725 0.0909489 3.11282e-19)
(-0.246453 0.091637 1.61353e-19)
(-0.181385 0.0889566 0)
(-0.167224 0.0543312 1.98751e-20)
(-0.211146 0.0762021 -7.75819e-19)
(-0.252191 0.0978338 0)
(-0.262548 0.102217 -5.34073e-19)
(-0.23899 0.101529 8.20025e-20)
(-0.167123 0.0948293 -4.89794e-20)
(-0.163375 0.0630605 9.93378e-21)
(-0.20601 0.0841528 3.86627e-19)
(-0.247536 0.109702 0)
(-0.258759 0.114414 2.5419e-19)
(-0.233967 0.112788 -2.21394e-19)
(-0.156693 0.100045 0)
(-0.150185 0.0823933 0)
(-0.20061 0.0917538 -1.22374e-20)
(-0.242596 0.122161 -1.4367e-19)
(-0.256084 0.127441 -1.29299e-19)
(-0.232112 0.125621 0)
(-0.152073 0.102862 2.4846e-20)
(-0.140211 0.0841111 2.02861e-21)
(-0.194686 0.0967787 0)
(-0.237112 0.134504 1.65428e-19)
(-0.254467 0.141249 1.23088e-19)
(-0.234044 0.140849 1.436e-20)
(-0.154815 0.103422 -1.31052e-20)
(-0.130573 0.0776718 0)
(-0.187174 0.0993336 0)
(-0.230437 0.146251 2.49115e-21)
(-0.253419 0.155815 -6.93904e-20)
(-0.239749 0.159833 0)
(-0.164365 0.10454 0)
(-0.116815 0.0706922 -2.49495e-19)
(-0.176566 0.0994386 0)
(-0.221771 0.157061 0)
(-0.251968 0.170665 -6.96821e-20)
(-0.248152 0.184252 0)
(-0.177443 0.110124 0)
(-0.101479 0.0631662 -2.528e-19)
(-0.162686 0.0968539 0)
(-0.210467 0.166575 -3.35697e-19)
(-0.247973 0.184814 1.78845e-19)
(-0.258454 0.216456 8.84813e-22)
(-0.190032 0.122841 -8.04171e-20)
(-0.0878327 0.0545644 2.04095e-20)
(-0.145941 0.091194 1.38084e-20)
(-0.196402 0.174149 3.29619e-19)
(-0.239425 0.196182 -3.75121e-20)
(-0.268079 0.257761 3.20208e-20)
(-0.200523 0.145428 0)
(-0.0732976 0.0432464 1.2652e-18)
(-0.125492 0.0805553 -2.94526e-20)
(-0.179014 0.177361 -2.39407e-20)
(-0.224409 0.199748 -1.94453e-19)
(-0.274265 0.30812 -4.0761e-19)
(-0.20508 0.16999 -2.02938e-19)
(-0.0464034 0.0141233 -6.84524e-19)
(-0.0905834 0.046172 -9.78629e-19)
(-0.146353 0.157936 4.92562e-20)
(-0.183507 0.171721 3.6883e-19)
(-0.261013 0.358591 2.1118e-19)
(-0.172305 0.143857 2.71633e-19)
(-0.395758 0.332965 -6.03622e-20)
(-0.372719 0.337967 -4.77562e-20)
(-0.33218 0.318601 -1.83591e-19)
(-0.275038 0.287254 -4.37469e-19)
(-0.197756 0.2444 -1.69488e-19)
(-0.0971798 0.186455 0)
(0.0281691 0.109666 0)
(0.176362 0.0137069 1.55484e-19)
(0.341012 -0.0966904 1.45846e-19)
(0.510929 -0.212121 -2.69619e-19)
(0.675498 -0.321825 4.61588e-19)
(0.82286 -0.414181 -1.14173e-19)
(0.940719 -0.47937 3.94132e-19)
(1.02509 -0.513649 -2.59658e-19)
(1.08055 -0.522118 1.59623e-19)
(1.11551 -0.513649 3.60828e-20)
(1.1364 -0.493343 2.6449e-20)
(1.14786 -0.466247 4.3066e-20)
(1.15333 -0.436229 -1.82957e-20)
(1.15507 -0.40567 0)
(1.1543 -0.376018 0)
(1.15147 -0.347981 0)
(1.14636 -0.321778 6.59208e-21)
(1.13725 -0.29525 0)
(-0.418961 0.28189 5.76283e-19)
(-0.366403 0.320105 -3.03454e-19)
(-0.296234 0.30644 3.70808e-19)
(-0.207999 0.277864 -8.74761e-20)
(-0.097999 0.23501 0)
(0.0369064 0.175547 5.10368e-19)
(0.196511 0.09678 -1.61556e-19)
(0.376043 0.000200469 -1.58146e-19)
(0.565359 -0.10842 4.39838e-19)
(0.751532 -0.219431 -5.12767e-21)
(0.92202 -0.322271 -2.36863e-19)
(1.06085 -0.404782 -3.83018e-19)
(1.15847 -0.459607 1.31853e-20)
(1.21613 -0.485136 -1.28208e-19)
(1.24478 -0.487782 -1.83379e-19)
(1.25638 -0.478485 1.74296e-19)
(1.25702 -0.459393 -1.65715e-19)
(1.25076 -0.434707 1.28678e-20)
(1.24064 -0.407888 -2.85418e-21)
(1.22838 -0.380669 -4.31822e-20)
(1.21468 -0.353858 2.27156e-20)
(1.19951 -0.327722 0)
(1.18193 -0.302011 -6.50569e-21)
(1.15824 -0.273058 0)
(-0.413029 0.241286 1.16169e-19)
(-0.342739 0.292056 3.05675e-19)
(-0.24881 0.286301 -2.75705e-19)
(-0.131972 0.260743 -2.65355e-19)
(0.00910094 0.218301 1.67806e-19)
(0.175936 0.158214 1.67096e-19)
(0.366112 0.0796878 -1.60058e-19)
(0.571922 -0.0144293 3.06771e-19)
(0.779611 -0.117251 -2.84414e-19)
(0.974432 -0.219365 2.52337e-19)
(1.13872 -0.309851 -4.60823e-19)
(1.2567 -0.378478 2.03446e-19)
(1.32595 -0.42107 1.70037e-19)
(1.35498 -0.438991 3.58022e-19)
(1.36039 -0.437157 -3.88312e-19)
(1.35531 -0.430209 2.39334e-19)
(1.34125 -0.414163 1.65992e-19)
(1.32202 -0.392581 2.48919e-20)
(1.30117 -0.369328 -1.07477e-19)
(1.27929 -0.345337 5.98651e-20)
(1.25645 -0.321067 8.5385e-20)
(1.23215 -0.29656 -9.54515e-20)
(1.20475 -0.271058 5.2267e-20)
(1.17031 -0.240117 0)
(-0.392149 0.211562 -6.10426e-19)
(-0.307517 0.261729 1.04485e-19)
(-0.192591 0.261089 3.70868e-19)
(-0.0493378 0.237895 5.31045e-19)
(0.121002 0.196305 -1.6586e-19)
(0.317951 0.137123 -3.33099e-19)
(0.536409 0.061534 0)
(0.7641 -0.0268452 -3.06841e-19)
(0.982844 -0.119786 2.84602e-19)
(1.17401 -0.208938 -4.79676e-19)
(1.31671 -0.283757 2.40383e-19)
(1.40246 -0.337403 -1.86279e-19)
(1.43988 -0.369359 -1.41155e-19)
(1.44353 -0.382711 0)
(1.43534 -0.383586 -8.72711e-20)
(1.41702 -0.377015 -7.44908e-20)
(1.39136 -0.363812 0)
(1.3642 -0.347096 3.75591e-20)
(1.33627 -0.327982 -1.39975e-19)
(1.30765 -0.307278 3.3604e-20)
(1.27817 -0.285369 -1.91749e-20)
(1.24721 -0.262222 -1.35324e-20)
(1.21303 -0.236884 -8.74894e-21)
(1.17211 -0.204716 0)
(-0.362531 0.187374 -6.25535e-20)
(-0.264833 0.231503 -1.01297e-19)
(-0.129945 0.232917 9.18645e-20)
(0.038752 0.211437 0)
(0.238136 0.171624 -3.27353e-19)
(0.465147 0.115797 -1.62414e-19)
(0.710103 0.0459606 -1.55608e-19)
(0.952435 -0.0321596 8.70325e-21)
(1.17035 -0.112374 0)
(1.34036 -0.185871 2.40574e-19)
(1.4473 -0.245127 3.95601e-19)
(1.49744 -0.286708 -1.56811e-19)
(1.50873 -0.311857 2.67775e-19)
(1.49905 -0.324127 1.02769e-19)
(1.47814 -0.326728 -6.89709e-20)
(1.45043 -0.322489 2.10173e-19)
(1.41989 -0.31349 -1.19053e-19)
(1.38804 -0.300803 4.33359e-20)
(1.35536 -0.285386 5.90093e-20)
(1.32198 -0.267877 -5.45216e-20)
(1.28785 -0.248578 8.31829e-20)
(1.25245 -0.227359 -4.8713e-20)
(1.21397 -0.202958 0)
(1.16918 -0.170986 3.59221e-21)
(-0.327977 0.165579 4.72005e-19)
(-0.21703 0.20212 4.01582e-19)
(-0.0619061 0.203509 3.59892e-19)
(0.133245 0.183717 -3.35273e-19)
(0.363635 0.14765 8.11053e-19)
(0.621846 0.0981437 -1.52612e-19)
(0.886956 0.0383126 0)
(1.13189 -0.0269989 2.83908e-19)
(1.33056 -0.092666 -2.48564e-19)
(1.46211 -0.151573 0)
(1.52946 -0.198667 -1.9887e-20)
(1.55115 -0.23257 2.73162e-19)
(1.54613 -0.254378 -1.63018e-19)
(1.52639 -0.266417 -2.20778e-19)
(1.49885 -0.271099 7.31312e-20)
(1.46749 -0.270108 1.77927e-19)
(1.43393 -0.264487 2.777e-20)
(1.39907 -0.255162 -4.85555e-20)
(1.36337 -0.242885 0)
(1.32715 -0.228225 2.33885e-20)
(1.29043 -0.211456 0)
(1.25249 -0.192283 2.63098e-20)
(1.21151 -0.169264 -1.55839e-20)
(1.16443 -0.138555 -2.43736e-20)
(-0.291223 0.145806 -3.55972e-19)
(-0.16554 0.174177 -2.05605e-19)
(0.01198 0.174611 -2.71456e-19)
(0.237226 0.157671 3.37305e-19)
(0.502392 0.128597 -6.28002e-19)
(0.788228 0.0892519 1.48219e-19)
(1.06113 0.0426598 -1.38115e-19)
(1.2902 -0.00978898 5.01352e-19)
(1.44958 -0.0625316 -2.12079e-19)
(1.53779 -0.110468 1.98309e-19)
(1.57331 -0.149748 0)
(1.57649 -0.179249 -1.22078e-19)
(1.56128 -0.199725 0)
(1.53606 -0.2126 6.67409e-20)
(1.50552 -0.219312 -1.57525e-19)
(1.47198 -0.220947 -5.02515e-20)
(1.4366 -0.218307 -5.93115e-21)
(1.4001 -0.212031 -4.84183e-21)
(1.36297 -0.202689 0)
(1.32557 -0.190742 0)
(1.28771 -0.176386 0)
(1.24844 -0.159168 -2.22753e-20)
(1.20608 -0.137665 4.81597e-20)
(1.15767 -0.108665 -1.59381e-20)
(-0.253641 0.128142 1.14447e-19)
(-0.11074 0.148314 -5.04561e-19)
(0.0937766 0.148266 0)
(0.355173 0.137507 1.63725e-19)
(0.656186 0.119006 -2.9056e-19)
(0.958143 0.0938961 4.14315e-19)
(1.22047 0.0594489 -2.52029e-19)
(1.41168 0.0177421 -2.23733e-19)
(1.52461 -0.0264075 0)
(1.57724 -0.0674022 3.14773e-19)
(1.59154 -0.101855 -1.47514e-19)
(1.58332 -0.12884 2.26108e-19)
(1.56229 -0.148825 -9.88989e-20)
(1.53411 -0.162707 0)
(1.50191 -0.171332 -9.3177e-21)
(1.46737 -0.17539 -3.41563e-20)
(1.43138 -0.175417 -5.69921e-20)
(1.39453 -0.171893 5.57354e-20)
(1.35725 -0.165278 1.81902e-20)
(1.31977 -0.155938 -5.24372e-20)
(1.28159 -0.143944 4.94321e-20)
(1.24171 -0.128787 -1.30215e-20)
(1.19862 -0.109017 -2.5038e-21)
(1.14944 -0.0820985 8.64225e-22)
(-0.215943 0.112717 -1.14343e-19)
(-0.0519121 0.125325 -1.97857e-19)
(0.186924 0.127139 -8.98144e-20)
(0.490705 0.12716 0)
(0.82002 0.124239 4.43323e-19)
(1.11978 0.112044 -6.65343e-19)
(1.34856 0.0864796 0)
(1.49124 0.0507667 2.17431e-19)
(1.56452 0.0117043 -1.64606e-19)
(1.59252 -0.0249586 -1.55714e-19)
(1.59326 -0.0564586 0)
(1.57801 -0.082103 8.8932e-20)
(1.55354 -0.102126 0)
(1.52384 -0.117051 0)
(1.49114 -0.127394 -9.62304e-20)
(1.45666 -0.133568 6.76695e-20)
(1.42105 -0.135931 -5.68201e-20)
(1.38478 -0.134851 -2.41286e-20)
(1.34821 -0.130702 -3.06161e-20)
(1.31127 -0.123771 -8.40804e-21)
(1.2733 -0.114043 -2.11029e-20)
(1.23329 -0.101013 2.49802e-20)
(1.18992 -0.0831329 1.11485e-21)
(1.14035 -0.058599 -4.31102e-21)
(-0.178371 0.0997318 0)
(0.0127311 0.106295 5.01499e-19)
(0.295461 0.115288 -3.31769e-21)
(0.641906 0.131384 -2.30894e-19)
(0.983016 0.144716 -1.41254e-19)
(1.25743 0.140778 2.57148e-19)
(1.43718 0.118807 1.03722e-19)
(1.53592 0.0856273 -2.68707e-19)
(1.58061 0.0496023 1.63196e-19)
(1.59229 0.0156695 0)
(1.58425 -0.0140917 0)
(1.56459 -0.0391098 -1.3889e-20)
(1.53821 -0.0594597 -6.98095e-20)
(1.50802 -0.0754257 -4.4085e-20)
(1.47564 -0.0873036 4.28612e-20)
(1.44194 -0.0953458 5.11101e-20)
(1.40741 -0.0997934 -4.08515e-20)
(1.37237 -0.100924 0)
(1.33699 -0.099024 -3.82985e-21)
(1.30096 -0.0943153 2.36205e-20)
(1.26352 -0.0867676 -6.83636e-22)
(1.22369 -0.0758597 -5.86e-21)
(1.18034 -0.0599491 5.58886e-21)
(1.13071 -0.0379842 2.98596e-21)
(-0.140821 0.0893859 -6.10075e-20)
(0.0858037 0.0927586 0)
(0.421488 0.116247 0)
(0.801003 0.153366 1.11348e-20)
(1.13095 0.177012 -2.56874e-19)
(1.35913 0.175145 0)
(1.49071 0.152702 2.75416e-19)
(1.55622 0.120548 8.64005e-20)
(1.58119 0.0863621 1.21216e-19)
(1.58186 0.0540345 -9.64216e-20)
(1.56804 0.0251865 0)
(1.54569 0.000337542 5.84075e-20)
(1.51845 -0.0204865 0)
(1.4885 -0.0374391 -2.44473e-20)
(1.45703 -0.0506963 6.40374e-20)
(1.42464 -0.0604112 0)
(1.39165 -0.0667434 3.9521e-20)
(1.35822 -0.0698946 -3.39376e-20)
(1.3243 -0.0700777 1.21184e-20)
(1.2894 -0.0674656 1.07081e-21)
(1.25269 -0.0620496 1.05447e-21)
(1.21326 -0.0532703 0)
(1.17019 -0.0393867 2.64532e-20)
(1.12079 -0.0200828 -3.50608e-20)
(-0.102779 0.0818881 -6.18169e-20)
(0.170604 0.0872945 -4.03061e-19)
(0.563096 0.13457 0)
(0.955577 0.189876 -5.84845e-20)
(1.24926 0.216162 8.08289e-20)
(1.42583 0.211068 0)
(1.51856 0.186782 -3.42522e-19)
(1.56013 0.154822 0)
(1.57137 0.121552 -1.20149e-19)
(1.56452 0.0900079 9.55966e-20)
(1.54692 0.0615102 5.9331e-20)
(1.52307 0.036533 -5.78926e-20)
(1.49573 0.0151465 -1.60751e-21)
(1.46655 -0.0027369 9.65799e-21)
(1.43638 -0.017234 1.34786e-20)
(1.40565 -0.028449 2.48106e-20)
(1.37449 -0.0364919 -1.87425e-20)
(1.34287 -0.0415042 0)
(1.31055 -0.0436391 1.23481e-21)
(1.27692 -0.0430384 -6.86868e-21)
(1.24111 -0.0397204 0)
(1.20228 -0.0330832 -1.01029e-20)
(1.15969 -0.0212602 -4.02001e-20)
(1.11077 -0.00463237 4.8701e-20)
(-0.0632949 0.0774879 -6.2825e-20)
(0.269489 0.093296 5.04577e-19)
(0.712104 0.172004 -2.53142e-19)
(1.0913 0.236018 4.22074e-19)
(1.33357 0.257784 3.49209e-19)
(1.46467 0.24704 0)
(1.52825 0.220503 2.28161e-19)
(1.55274 0.188115 -9.92037e-21)
(1.55435 0.154997 -9.21252e-21)
(1.54237 0.123614 0)
(1.5224 0.095068 -1.35423e-20)
(1.49791 0.0697698 -4.24437e-20)
(1.47103 0.0477861 -3.12812e-20)
(1.44299 0.0290427 3.39109e-20)
(1.41441 0.0134351 -2.32073e-20)
(1.38552 0.000871497 -8.18321e-21)
(1.35632 -0.00873346 1.27551e-20)
(1.3266 -0.015477 -1.05956e-20)
(1.29596 -0.0194656 2.17569e-20)
(1.26371 -0.0208198 -3.08031e-20)
(1.22897 -0.0195832 1.94431e-20)
(1.19094 -0.0151014 1.00325e-20)
(1.14902 -0.00534163 -1.9314e-20)
(1.10081 0.00866439 2.76273e-20)
(-0.0210634 0.0765599 0)
(0.382982 0.116156 -1.5176e-19)
(0.857328 0.223742 4.53043e-20)
(1.19818 0.286552 -1.93898e-19)
(1.38797 0.299293 -1.0954e-19)
(1.48294 0.28277 0)
(1.52504 0.253618 5.75103e-20)
(1.53727 0.220164 -5.30723e-20)
(1.53212 0.186583 -4.02279e-20)
(1.51674 0.154897 2.24944e-20)
(1.49547 0.126018 -2.10318e-20)
(1.47102 0.100274 8.35226e-21)
(1.44501 0.077695 -9.51608e-21)
(1.41837 0.0581799 8.92868e-21)
(1.39152 0.0415991 1.38958e-21)
(1.36456 0.0278406 -3.11279e-21)
(1.33734 0.016818 3.73444e-21)
(1.30954 0.00846019 -2.17985e-20)
(1.28064 0.00269631 1.60806e-20)
(1.24988 -0.000574703 -5.98626e-21)
(1.21638 -0.00141359 -9.12281e-21)
(1.17935 0.000900407 -9.65264e-21)
(1.13831 0.00861873 -4.4149e-20)
(1.09106 0.0201332 2.62181e-20)
(0.0256552 0.0791422 0)
(0.507652 0.161317 2.48128e-19)
(0.985832 0.283849 -7.91778e-20)
(1.27412 0.338113 1.60352e-19)
(1.41849 0.340065 4.26615e-20)
(1.48582 0.317796 -1.0278e-19)
(1.51222 0.285715 4.6132e-20)
(1.51571 0.250695 -3.28371e-20)
(1.50593 0.216182 3.0495e-20)
(1.48848 0.183855 0)
(1.46677 0.154448 0)
(1.4429 0.128192 -9.41258e-21)
(1.41811 0.105051 2.7847e-21)
(1.39305 0.0848699 0)
(1.368 0.0674666 0)
(1.34294 0.0526814 1.55529e-20)
(1.31766 0.0404006 -1.09073e-20)
(1.29174 0.0305554 0)
(1.2646 0.0230967 8.23656e-21)
(1.23546 0.0179416 -9.54779e-21)
(1.2034 0.0150298 7.28614e-20)
(1.16762 0.0151602 -3.20061e-20)
(1.12767 0.0208762 0)
(1.08163 0.030127 2.10666e-20)
(0.0787706 0.0845599 -1.29209e-19)
(0.636689 0.227958 0)
(1.08799 0.348105 0)
(1.32264 0.388761 0)
(1.43029 0.380157 0)
(1.47692 0.351958 8.88298e-20)
(1.49195 0.316503 -6.90064e-20)
(1.48934 0.279454 0)
(1.47661 0.243642 6.68936e-21)
(1.45819 0.210426 -6.23685e-21)
(1.43676 0.180364 0)
(1.41395 0.153571 1.41116e-21)
(1.39063 0.129926 -3.02818e-21)
(1.36728 0.1092 -8.71343e-21)
(1.34402 0.091141 8.17632e-21)
(1.32079 0.0755223 0)
(1.29734 0.062177 -9.96228e-21)
(1.27322 0.0510096 -2.60327e-20)
(1.24784 0.0419708 2.45784e-20)
(1.22041 0.0349844 -1.16172e-20)
(1.18999 0.0300085 0)
(1.15573 0.0279329 0)
(1.11713 0.0316792 -2.73472e-20)
(1.0726 0.0390361 1.53065e-20)
(0.140535 0.0932293 1.45069e-19)
(0.76206 0.308935 -2.61965e-20)
(1.16285 0.413109 1.57283e-20)
(1.34807 0.437605 -3.66205e-20)
(1.42715 0.41895 0)
(1.4586 0.384735 9.57633e-21)
(1.4656 0.34555 5.6651e-21)
(1.45899 0.306125 0)
(1.4447 0.268746 0)
(1.42625 0.234476 -7.72725e-22)
(1.40575 0.203686 -2.26626e-21)
(1.3844 0.176362 1.31137e-22)
(1.36281 0.152283 0)
(1.34126 0.131139 -3.65858e-21)
(1.31979 0.112599 0)
(1.29829 0.0963643 4.12802e-21)
(1.2765 0.0821961 0)
(1.25403 0.0699419 4.30456e-21)
(1.23032 0.0595186 1.63278e-20)
(1.20462 0.0508336 -1.55359e-20)
(1.17604 0.0438509 0)
(1.1436 0.0395521 4.3702e-21)
(1.10666 0.0412885 -4.58808e-21)
(1.0641 0.0473952 -1.32243e-20)
(0.215404 0.113953 0)
(0.873597 0.396682 0)
(1.21208 0.477372 0)
(1.35407 0.484587 1.78344e-20)
(1.41173 0.456105 -2.80175e-21)
(1.43242 0.415659 -6.36843e-21)
(1.4341 0.372417 -8.46864e-21)
(1.42525 0.330344 2.80382e-22)
(1.4106 0.291219 8.58643e-22)
(1.39297 0.255799 1.27721e-21)
(1.37397 0.224255 1.00741e-21)
(1.35446 0.196426 -3.28989e-22)
(1.33483 0.171984 -4.19141e-21)
(1.31519 0.150534 1.89233e-21)
(1.29552 0.131679 2.96358e-21)
(1.27567 0.115052 -5.36133e-21)
(1.2554 0.100346 -1.26309e-21)
(1.23439 0.087335 -5.56954e-21)
(1.21215 0.0758707 0)
(1.18807 0.0658193 8.3481e-21)
(1.16133 0.0570985 -9.22415e-21)
(1.13087 0.0506187 -4.45634e-21)
(1.0959 0.0499685 4.70238e-21)
(1.05618 0.0561267 -8.57243e-21)
(0.303223 0.165595 0)
(0.961943 0.487667 -4.33241e-20)
(1.23736 0.541307 -2.52958e-20)
(1.34368 0.529684 -9.40563e-21)
(1.38584 0.491066 -4.29928e-21)
(1.39941 0.444091 0)
(1.39807 0.39655 0)
(1.38853 0.351667 -2.51617e-21)
(1.37461 0.310719 0)
(1.35856 0.274134 0)
(1.34159 0.241858 0)
(1.32428 0.213565 3.04093e-21)
(1.30683 0.188814 2.43744e-21)
(1.28926 0.167135 -1.58334e-21)
(1.27147 0.148081 3.83958e-21)
(1.25329 0.131247 -4.63143e-21)
(1.23451 0.116284 1.26038e-21)
(1.21485 0.102914 1.26451e-21)
(1.19394 0.0909359 -5.67532e-21)
(1.17132 0.0801855 1.2654e-21)
(1.14633 0.0704863 0)
(1.11805 0.0621935 0)
(1.0855 0.0578819 0)
(1.04819 0.0670038 0)
(0.392137 0.261628 -1.38456e-20)
(1.02157 0.580605 5.46754e-20)
(1.23988 0.604281 -1.44219e-20)
(1.31884 0.572263 1.37979e-20)
(1.35064 0.522897 6.97874e-21)
(1.36026 0.469164 0)
(1.35799 0.417278 0)
(1.34919 0.369593 2.49404e-21)
(1.33701 0.326876 -1.23563e-20)
(1.32323 0.289204 -1.34301e-20)
(1.30876 0.256266 1.39759e-20)
(1.29397 0.227561 -5.59286e-21)
(1.27894 0.20253 0)
(1.2636 0.180638 0)
(1.24784 0.161402 0)
(1.23149 0.144403 -6.94562e-21)
(1.21436 0.12929 3.72761e-20)
(1.19623 0.115783 -2.39644e-20)
(1.17681 0.103681 5.70186e-21)
(1.1558 0.0928191 1.23302e-20)
(1.13285 0.0828835 -2.34429e-20)
(1.10748 0.0735655 3.50121e-20)
(1.07823 0.0662738 0)
(1.03852 0.0813633 0)
(0.473033 0.399906 2.55775e-19)
(1.05033 0.672159 0)
(1.2201 0.663643 3.8765e-20)
(1.28066 0.610873 -3.26064e-21)
(1.30694 0.550324 1.30456e-20)
(1.31564 0.489912 -1.02667e-20)
(1.31439 0.433877 -1.97812e-20)
(1.30765 0.383597 -3.19691e-20)
(1.29811 0.33932 6.17166e-20)
(1.28721 0.300743 -1.14225e-21)
(1.27564 0.26728 -1.38527e-20)
(1.26363 0.238241 -3.18551e-20)
(1.25118 0.212951 2.98766e-20)
(1.23821 0.190806 0)
(1.22461 0.171288 2.9644e-20)
(1.21023 0.153957 -5.82789e-20)
(1.19491 0.138445 0)
(1.17847 0.124454 2.6038e-20)
(1.16066 0.111743 7.15475e-22)
(1.1412 0.0999961 -3.67502e-20)
(1.11981 0.0886117 -2.63546e-20)
(1.09586 0.0774853 -3.83073e-20)
(1.06672 0.0707662 -5.46754e-20)
(1.02596 0.0823818 5.39602e-20)
(0.550064 0.576534 -2.19765e-19)
(1.04724 0.758047 7.48802e-20)
(1.17854 0.715417 2.05562e-20)
(1.2302 0.643338 -1.7154e-20)
(1.2558 0.571832 -3.71699e-20)
(1.26635 0.50525 0)
(1.26789 0.445564 9.06263e-21)
(1.26441 0.393151 -3.32489e-20)
(1.2583 0.347711 4.59756e-20)
(1.25079 0.308541 0)
(1.24242 0.274774 0)
(1.23336 0.24554 0)
(1.22359 0.220056 3.59109e-20)
(1.21305 0.197658 -3.38019e-20)
(1.20165 0.177793 0)
(1.18927 0.159994 -3.39753e-20)
(1.17578 0.143874 6.10271e-20)
(1.161 0.129108 2.83791e-20)
(1.14473 0.115408 -5.80735e-20)
(1.1267 0.102358 8.56889e-20)
(1.10665 0.0892773 -8.41022e-20)
(1.08378 0.0765163 1.09415e-19)
(1.0552 0.0697494 3.01635e-20)
(1.01793 0.0782804 0)
(0.621412 0.795598 1.21366e-19)
(1.0057 0.832844 -4.81606e-20)
(1.11522 0.755076 -2.37065e-20)
(1.16866 0.666636 -2.07366e-20)
(1.19851 0.58557 6.44195e-21)
(1.21344 0.513976 4.95149e-20)
(1.21934 0.451575 2.70875e-20)
(1.22013 0.397794 1.42603e-19)
(1.21807 0.351786 9.35334e-21)
(1.21431 0.312465 0)
(1.20935 0.278706 4.74543e-20)
(1.20332 0.24949 -3.99839e-20)
(1.19627 0.223954 1.2259e-19)
(1.18816 0.201393 1.17828e-19)
(1.17894 0.18123 -3.4363e-20)
(1.16853 0.162989 0)
(1.15682 0.146271 3.5426e-20)
(1.14367 0.130748 -6.54577e-20)
(1.12888 0.116122 6.31402e-20)
(1.11225 0.101961 1.55059e-19)
(1.09355 0.0876219 -2.09593e-19)
(1.07196 0.0737792 2.13443e-19)
(1.04455 0.0666865 7.49108e-21)
(1.01057 0.0727592 -1.23191e-19)
(0.615026 1.04949 -1.47962e-19)
(0.914381 0.886489 0)
(1.03254 0.776327 -2.65405e-20)
(1.09875 0.676994 9.33856e-20)
(1.13706 0.58973 4.32319e-20)
(1.1584 0.515076 -5.29216e-20)
(1.16985 0.451341 1.34877e-20)
(1.17562 0.39723 -1.77297e-19)
(1.17803 0.351415 -5.68534e-20)
(1.17823 0.312484 -1.07191e-19)
(1.17672 0.279117 1.54187e-19)
(1.17374 0.250196 -9.43769e-20)
(1.16938 0.224816 -1.79373e-19)
(1.16366 0.202259 -4.03595e-20)
(1.15658 0.181946 -1.61819e-19)
(1.14811 0.163402 1.13946e-19)
(1.13817 0.146238 -1.47757e-19)
(1.12663 0.130135 0)
(1.11335 0.114808 -3.5852e-20)
(1.09818 0.09984 -3.21218e-20)
(1.08099 0.0846437 -3.12914e-20)
(1.061 0.0700745 -1.33552e-19)
(1.03519 0.0625091 -3.70012e-20)
(1.00432 0.0665657 1.31148e-19)
(-0.0205666 -0.0679768 0)
(-0.031444 -0.0441533 -2.04678e-18)
(-0.070961 0.0550754 -1.82504e-18)
(-0.145556 0.213868 -1.77392e-19)
(-0.12669 0.343502 4.65869e-19)
(-0.277863 0.943399 -1.12893e-18)
(-0.0254146 -0.0610825 0)
(-0.0366793 0.0141381 -1.15457e-19)
(-0.0659602 0.127854 1.8141e-18)
(-0.116533 0.272868 9.1293e-19)
(-0.105274 0.433823 4.11922e-19)
(-0.0816454 0.761523 7.49977e-19)
(-0.0314882 -0.0447949 -8.75914e-20)
(-0.0348385 0.0571741 6.32719e-20)
(-0.0526551 0.173967 0)
(-0.0800221 0.310084 -2.34594e-20)
(-0.051007 0.471864 8.65488e-19)
(0.0285559 0.694513 -6.54361e-19)
(-0.0366696 -0.0253084 8.5911e-20)
(-0.0294435 0.0906499 1.64719e-18)
(-0.0359703 0.206489 7.28062e-20)
(-0.0445377 0.332235 -2.11495e-18)
(-0.00325028 0.479255 -6.47293e-19)
(0.0949543 0.646788 5.93857e-19)
(-0.0400783 -0.00412587 0)
(-0.0220983 0.116541 -9.25453e-20)
(-0.0184751 0.228698 6.74955e-20)
(-0.0117083 0.342968 1.71787e-18)
(0.0386112 0.470212 5.29314e-19)
(0.139963 0.59893 -5.29328e-19)
(-0.0406041 0.0131767 -2.68649e-18)
(-0.0134238 0.13511 -1.32128e-18)
(-0.001053 0.242145 6.12702e-20)
(0.0178148 0.344279 -9.07718e-19)
(0.0741951 0.450956 1.55153e-19)
(0.173318 0.549216 3.88196e-19)
(-0.0373093 0.0261282 -3.78185e-20)
(-0.00356083 0.147029 2.71162e-18)
(0.0161144 0.2483 0)
(0.0441833 0.338081 -1.85472e-19)
(0.10433 0.425203 -4.58822e-19)
(0.19924 0.498732 0)
(-0.0306158 0.0346631 2.73824e-18)
(0.00738944 0.153543 -1.35678e-18)
(0.0329636 0.248632 -1.13926e-19)
(0.067726 0.326189 9.30441e-20)
(0.129871 0.395324 6.02932e-19)
(0.219987 0.44845 0)
(-0.0214208 0.039431 -4.1311e-20)
(0.0191332 0.155893 3.9957e-20)
(0.0493465 0.244513 0)
(0.0887418 0.310174 0)
(0.15156 0.362964 5.88493e-19)
(0.236929 0.398972 0)
(-0.0108117 0.0412233 -8.21162e-20)
(0.031238 0.155169 3.9195e-20)
(0.0650377 0.237139 0)
(0.107452 0.29133 -7.01275e-19)
(0.170007 0.329301 -1.16443e-18)
(0.250994 0.350681 0)
(0.000174277 0.0407114 -4.0931e-20)
(0.0432156 0.152236 -7.66e-20)
(0.0797922 0.227484 1.62988e-19)
(0.124026 0.270677 1.30547e-18)
(0.185711 0.295159 7.20509e-19)
(0.262808 0.303773 -7.46136e-19)
(0.0106813 0.0383799 -4.08297e-20)
(0.0545972 0.147709 0)
(0.0934018 0.216288 0)
(0.138608 0.249 -6.97296e-19)
(0.199066 0.261113 0)
(0.272787 0.25827 3.77751e-19)
(0.0200562 0.0345461 2.60581e-18)
(0.0649843 0.141978 0)
(0.105723 0.204081 0)
(0.151349 0.226891 0)
(0.210399 0.227567 0)
(0.281228 0.214156 -1.22148e-19)
(0.0278231 0.0294208 -2.61047e-18)
(0.0740535 0.135236 -6.15142e-19)
(0.116683 0.191221 0)
(0.162433 0.204781 -4.42121e-19)
(0.22 0.194843 -2.19646e-19)
(0.288335 0.171401 0)
(0.0336327 0.0231489 -4.05973e-20)
(0.0815236 0.127541 1.27052e-18)
(0.126275 0.177913 0)
(0.172086 0.182985 7.70728e-19)
(0.228125 0.163201 -1.11711e-19)
(0.294226 0.129989 6.60253e-20)
(0.0371928 0.0158705 -2.04154e-20)
(0.0871152 0.118814 -6.40801e-19)
(0.13456 0.164256 0)
(0.180585 0.161765 -3.74084e-19)
(0.235026 0.13293 3.07959e-19)
(0.298925 0.0899478 0)
(0.0381715 0.00775893 0)
(0.0905528 0.108851 2.05785e-20)
(0.14165 0.150235 2.30944e-19)
(0.188259 0.141344 1.94402e-19)
(0.24099 0.104388 0)
(0.302396 0.0514248 -3.24658e-20)
(0.0361544 -0.000886043 -5.14317e-21)
(0.0915586 0.097308 0)
(0.147732 0.1357 -2.75488e-19)
(0.195527 0.121894 -1.90894e-19)
(0.246347 0.0780111 -2.02309e-20)
(0.304501 0.0147472 1.78168e-20)
(0.0306467 -0.00952111 0)
(0.0898124 0.0836548 0)
(0.153047 0.120363 -4.25841e-21)
(0.202923 0.103556 1.11521e-19)
(0.251542 0.0543956 0)
(0.30493 -0.0194128 0)
(0.0213601 -0.0214823 6.19276e-19)
(0.0848237 0.0671802 0)
(0.157857 0.103766 0)
(0.211173 0.0864216 1.1584e-19)
(0.25728 0.0343506 0)
(0.303053 -0.0496726 0)
(0.0117283 -0.030936 5.45754e-19)
(0.076066 0.0472455 0)
(0.162361 0.0853516 6.41051e-19)
(0.221273 0.0705745 -3.12116e-19)
(0.264869 0.018848 1.67696e-21)
(0.297665 -0.0742979 1.19224e-19)
(0.0033981 -0.0371137 -3.60103e-20)
(0.0642662 0.0239443 -2.78211e-20)
(0.166261 0.0646846 -6.55901e-19)
(0.234371 0.0562394 6.75882e-20)
(0.276382 0.00897909 -5.60526e-20)
(0.283182 -0.0902697 0)
(-0.00563645 -0.0439374 -2.63826e-18)
(0.0485502 -0.00293598 6.12005e-20)
(0.166964 0.0410099 4.63785e-20)
(0.25085 0.0428388 3.7154e-19)
(0.293418 0.00534754 7.38443e-19)
(0.242585 -0.0964552 3.38042e-19)
(-0.0141359 -0.0511672 1.49668e-18)
(0.0225357 -0.038334 -1.29398e-19)
(0.15257 -0.00304373 9.07698e-22)
(0.267435 0.0140657 -7.11937e-19)
(0.303926 -0.00617133 -3.93234e-19)
(0.153286 -0.131755 -1.47418e-18)
(0.46096 1.18365 6.7115e-21)
(0.797382 0.900733 4.83317e-20)
(0.944866 0.773181 1.23211e-19)
(1.02662 0.671431 2.30882e-19)
(1.07454 0.582931 -6.94336e-20)
(1.10317 0.507902 0)
(1.12076 0.444607 -1.40792e-19)
(1.13185 0.391401 1.32478e-19)
(1.13885 0.346635 6.02069e-20)
(1.143 0.308682 7.29017e-21)
(1.14492 0.276123 -6.08657e-21)
(1.1449 0.247809 -5.53423e-20)
(1.14314 0.222837 4.24697e-20)
(1.13975 0.200499 0)
(1.13476 0.180235 2.18539e-19)
(1.12818 0.161587 -1.27767e-19)
(1.11998 0.144182 3.85351e-20)
(1.11008 0.127723 -8.01789e-20)
(1.09837 0.111946 1.13346e-19)
(1.08477 0.0964601 1.44462e-19)
(1.06926 0.0807361 -1.4102e-19)
(1.05108 0.065731 0)
(1.02708 0.0577124 6.98435e-20)
(0.99913 0.0600508 5.31431e-20)
(0.421835 0.979072 -5.72864e-19)
(0.712691 0.850647 2.60793e-19)
(0.867227 0.746041 -1.99887e-19)
(0.958417 0.65016 1.04871e-19)
(1.01428 0.565138 0)
(1.04984 0.492603 -2.91235e-19)
(1.07347 0.431624 8.55708e-20)
(1.08975 0.380567 7.83885e-20)
(1.10119 0.337671 -2.17426e-19)
(1.10913 0.301259 7.88714e-21)
(1.11429 0.269916 1.17927e-19)
(1.11709 0.242525 2.35182e-19)
(1.11782 0.218224 -5.11439e-21)
(1.11664 0.196343 1.05109e-19)
(1.11366 0.176352 1.90522e-19)
(1.10893 0.157821 -1.81778e-19)
(1.10246 0.140402 2.62821e-19)
(1.09421 0.123822 -2.74136e-22)
(1.08411 0.107843 5.54738e-21)
(1.07216 0.092109 1.55576e-19)
(1.05844 0.0761481 -7.36036e-20)
(1.04219 0.060975 0)
(1.02013 0.0526014 7.43779e-20)
(0.995007 0.0534752 0)
(0.391478 0.868705 -2.16551e-19)
(0.650651 0.793753 -2.14942e-19)
(0.801456 0.704787 2.49089e-19)
(0.896769 0.617125 2.38325e-19)
(0.958557 0.538172 -1.18254e-19)
(1.00006 0.470304 -1.32368e-19)
(1.02911 0.413151 9.7406e-20)
(1.05012 0.365252 -1.84116e-19)
(1.06562 0.324908 1.6727e-19)
(1.07703 0.290516 -1.45174e-19)
(1.08518 0.26075 2.76009e-19)
(1.0906 0.234577 -1.25148e-19)
(1.09365 0.211204 -1.16808e-19)
(1.09456 0.190014 -3.21293e-19)
(1.0935 0.170521 4.10328e-19)
(1.09056 0.152329 -2.95808e-19)
(1.08579 0.13512 -2.75402e-19)
(1.07917 0.118648 -8.57648e-20)
(1.07071 0.102705 2.61567e-19)
(1.06047 0.0869734 -1.67594e-19)
(1.04859 0.0710454 -4.04969e-19)
(1.03433 0.0559611 5.65149e-19)
(1.0143 0.0473633 -4.01535e-19)
(0.991912 0.0470028 0)
(0.371753 0.775687 6.3862e-19)
(0.601175 0.727089 -1.12502e-19)
(0.746065 0.653106 -3.15261e-19)
(0.842814 0.575515 -4.20971e-19)
(0.908667 0.504277 1.34774e-19)
(0.954881 0.442475 2.23008e-19)
(0.98845 0.390163 0)
(1.01353 0.346118 1.82624e-19)
(1.03258 0.30882 -1.65964e-19)
(1.04706 0.276817 3.19606e-19)
(1.0579 0.248926 -1.35885e-19)
(1.06569 0.224227 1.28723e-19)
(1.07087 0.202015 1.27907e-19)
(1.07373 0.181737 0)
(1.07448 0.162957 1.12603e-19)
(1.07324 0.145317 1.00588e-19)
(1.07011 0.128531 0)
(1.06511 0.112384 -9.22328e-20)
(1.05828 0.0967002 3.68339e-19)
(1.04976 0.0812066 -8.72398e-20)
(1.03974 0.0655657 8.90102e-20)
(1.02747 0.0508154 8.30067e-20)
(1.00951 0.042136 8.36399e-20)
(0.989774 0.0407592 0)
(0.362617 0.692981 8.41648e-20)