/*--------------------------------*- C++ -*----------------------------------*\
  =========                 |
  \\      /  F ield         | OpenFOAM: The Open Source CFD Toolbox
   \\    /   O peration     | Website:  https://openfoam.org
    \\  /    A nd           | Version:  11
     \\/     M anipulation  |
\*---------------------------------------------------------------------------*/
FoamFile
{
    format      ascii;
    class       volScalarField;
    location    "0.02";
    object      k;
}
// * * * * * * * * * * * * * * * * * * * * * * * * * * * * * * * * * * * * * //

dimensions      [0 2 -2 0 0 0 0];

internalField   nonuniform List<scalar> 
2880
(
0.0112667
0.0370554
0.0615476
0.0765437
0.085212
0.0909282
0.0325921
0.0753407
0.0946871
0.10337
0.105091
0.0996111
0.0455484
0.101524
0.120146
0.125208
0.12175
0.110057
0.0572935
0.118968
0.137459
0.14065
0.133944
0.119409
0.0672101
0.131843
0.150335
0.152481
0.144038
0.128449
0.0753302
0.142014
0.160594
0.162237
0.153138
0.137506
0.0818513
0.150491
0.169298
0.170834
0.161787
0.146668
0.0869779
0.157823
0.177082
0.178828
0.170285
0.155977
0.0908659
0.164287
0.184307
0.186555
0.178817
0.165478
0.093616
0.16999
0.191154
0.194211
0.187504
0.175231
0.0952907
0.174927
0.197675
0.20189
0.196426
0.185305
0.0959552
0.179012
0.203831
0.209614
0.205634
0.195774
0.0958508
0.1821
0.20952
0.21734
0.215146
0.206715
0.0953773
0.183983
0.214596
0.224968
0.224941
0.218203
0.0942717
0.18455
0.218879
0.232355
0.23498
0.230279
0.0922907
0.183701
0.222158
0.239302
0.245165
0.242964
0.0891977
0.181302
0.224201
0.24553
0.255295
0.256304
0.0847501
0.177321
0.224747
0.250652
0.264988
0.270366
0.0786931
0.171725
0.223555
0.254079
0.273591
0.285
0.0707828
0.164339
0.219889
0.254825
0.279844
0.299769
0.0608414
0.154543
0.212742
0.251619
0.281226
0.313448
0.0488325
0.140605
0.199856
0.241137
0.27375
0.322413
0.0353898
0.117782
0.176123
0.217353
0.244
0.31208
0.0131036
0.0694339
0.12575
0.172685
0.159889
0.190879
0.0953796
0.0726135
0.0528309
0.0372882
0.0258795
0.0181811
0.0133681
0.0104597
0.00864749
0.00742918
0.00654628
0.00588056
0.00537341
0.00498498
0.00468329
0.00444477
0.00425437
0.00410327
0.00398606
0.00389849
0.00383622
0.00379463
0.00376904
0.00375465
0.0913061
0.0718311
0.0539872
0.0392618
0.0278996
0.0197809
0.0144141
0.0110596
0.00897503
0.00761506
0.00666353
0.00596364
0.00543821
0.00504047
0.00473545
0.00449695
0.00430718
0.00415495
0.00403333
0.00393786
0.0038653
0.00381303
0.00377849
0.00375784
0.0938508
0.0747986
0.0576156
0.0428929
0.0310455
0.0221515
0.0159752
0.0119817
0.00949537
0.00791804
0.0068561
0.00609831
0.00554032
0.00512463
0.0048115
0.00457083
0.00438083
0.00422672
0.00409923
0.00399321
0.00390665
0.00383964
0.00379264
0.00376315
0.100269
0.080638
0.0631667
0.0479294
0.0352439
0.0253029
0.0180921
0.0132665
0.0102327
0.00834832
0.00712696
0.00628504
0.00567969
0.00523735
0.00491137
0.00466654
0.0044759
0.00431991
0.00418585
0.00406722
0.00396311
0.00387697
0.00381324
0.00377167
0.108449
0.0882014
0.0701418
0.054125
0.040398
0.0292284
0.0207943
0.0149522
0.0112133
0.00891741
0.00747884
0.00652335
0.00585531
0.00537771
0.00503422
0.00478348
0.00459236
0.00443543
0.00429525
0.00416297
0.00403823
0.0039281
0.00384188
0.00378425
0.117539
0.0968738
0.0781626
0.0612544
0.0463863
0.0338905
0.0240941
0.0170687
0.0124636
0.00963779
0.00791462
0.00681201
0.00606501
0.00554369
0.00517836
0.0049203
0.00472954
0.00457363
0.00442911
0.00428327
0.00413529
0.00399587
0.00388078
0.00380186
0.127158
0.106281
0.0869518
0.0691289
0.0530884
0.0392263
0.0279844
0.0196375
0.0140099
0.0105238
0.00843774
0.00714915
0.00630544
0.00573215
0.00534106
0.00507477
0.00488588
0.00473404
0.00458828
0.00443031
0.00425731
0.00408371
0.00393404
0.00382699
0.137136
0.116207
0.0963197
0.0776013
0.060397
0.0451668
0.032442
0.022669
0.015875
0.0115916
0.00905241
0.00753281
0.00657252
0.00593875
0.00551831
0.00524322
0.00505823
0.00491441
0.00477211
0.00460549
0.00440776
0.0041963
0.00400548
0.00386211
0.147416
0.126535
0.106146
0.086565
0.068224
0.0516461
0.0374342
0.0261657
0.0180787
0.0128594
0.0097651
0.00796146
0.00686163
0.00615802
0.00570453
0.00542019
0.00524133
0.00511017
0.00497761
0.00480836
0.00458887
0.00433749
0.00409885
0.00390945
0.157999
0.137217
0.116362
0.0959486
0.0765019
0.058607
0.042923
0.0301225
0.0206397
0.0143495
0.0105863
0.00843516
0.00716825
0.00638368
0.00589272
0.0055986
0.00542792
0.00531419
0.00519899
0.00503581
0.00480085
0.00451
0.00421769
0.00397146
0.16893
0.148256
0.126944
0.105711
0.0851829
0.0660025
0.048872
0.0345286
0.0235727
0.0160862
0.0115315
0.00895725
0.00748905
0.00660958
0.00607493
0.00577006
0.0056091
0.00551681
0.00542727
0.00528132
0.00504097
0.00471483
0.00436497
0.00405065
0.180283
0.159693
0.137898
0.115836
0.0942363
0.073796
0.0552481
0.0393719
0.02689
0.0180951
0.0126216
0.00953563
0.00782353
0.00683137
0.00624387
0.00592529
0.00577493
0.00570623
0.00565031
0.00553452
0.00530276
0.0049503
0.00454249
0.00414924
0.192156
0.171595
0.149256
0.126327
0.103646
0.0819603
0.0620233
0.0446367
0.0306019
0.0204047
0.0138844
0.0101846
0.00817538
0.00704774
0.00639708
0.00605662
0.00591278
0.00587019
0.00585364
0.00578134
0.0055755
0.00521128
0.00475015
0.00426872
0.204666
0.184058
0.161071
0.137203
0.113407
0.0904765
0.069174
0.0503064
0.0347152
0.0230455
0.0153558
0.010927
0.0085545
0.00726144
0.00653381
0.00616094
0.00601621
0.00599485
0.00602287
0.00600498
0.00584433
0.00548848
0.00498526
0.00440941
0.217948
0.197193
0.173411
0.148493
0.123523
0.0993308
0.0766798
0.0563644
0.0392334
0.0260474
0.0170782
0.0117959
0.00897899
0.0074814
0.00665771
0.00623845
0.00608036
0.00607211
0.00614794
0.00618753
0.00609136
0.00576837
0.00524182
0.00456991
0.232152
0.211135
0.186353
0.160234
0.134
0.108512
0.0845206
0.0627926
0.0441565
0.0294377
0.0190989
0.0128347
0.0094766
0.00772418
0.00677945
0.00629635
0.00610977
0.0061027
0.00621472
0.00631774
0.00629776
0.00603373
0.00551013
0.00474657
0.247398
0.226036
0.199981
0.172459
0.144842
0.118005
0.0926741
0.0695694
0.0494783
0.0332395
0.0214671
0.0140968
0.0100859
0.00801511
0.00691798
0.00635053
0.00611794
0.00609631
0.0062235
0.00638977
0.00644606
0.00626613
0.00577729
0.00493314
0.263723
0.242089
0.214368
0.185191
0.156043
0.12779
0.101111
0.0766676
0.055183
0.0374666
0.0242299
0.0156429
0.0108566
0.00838937
0.00709998
0.00642425
0.00612336
0.00606758
0.00619064
0.00639772
0.00653036
0.0064504
0.00602895
0.00512051
0.281236
0.259434
0.229556
0.198428
0.16758
0.137831
0.109793
0.08405
0.0612442
0.0421194
0.0274252
0.0175352
0.0118463
0.00888962
0.00735781
0.00654681
0.00615686
0.00604714
0.00613999
0.00635806
0.00655894
0.00657979
0.00625467
0.00529821
0.300009
0.278119
0.245507
0.212116
0.179397
0.148071
0.118663
0.0916657
0.0676214
0.0471817
0.0310751
0.0198287
0.0131145
0.00956219
0.00772685
0.00675135
0.00625376
0.00607029
0.00611381
0.00631385
0.00655832
0.00667184
0.00646364
0.00547064
0.320155
0.297783
0.262025
0.226123
0.191393
0.158424
0.127647
0.0994489
0.0742596
0.0526171
0.0351813
0.0225638
0.0147145
0.0104503
0.00823888
0.00706396
0.00644201
0.00616922
0.00615686
0.00633403
0.00660437
0.00681402
0.00674129
0.00580537
0.34044
0.317507
0.278671
0.240201
0.203408
0.168773
0.13665
0.10732
0.0810908
0.0583717
0.0397194
0.025762
0.0166897
0.0115875
0.00891339
0.00749501
0.00673193
0.00636619
0.0062912
0.00645624
0.00680132
0.00724698
0.00777517
0.00858875
0.354373
0.334831
0.294728
0.253985
0.215226
0.178973
0.145562
0.115191
0.0880411
0.0643819
0.0446431
0.0294132
0.0190649
0.0129998
0.00975957
0.00803797
0.00710373
0.00663376
0.00650672
0.00667994
0.00714655
0.00788294
0.00888798
0.0102297
0.318138
0.337089
0.308833
0.266986
0.226601
0.188872
0.154282
0.122984
0.0950419
0.0705826
0.0498936
0.0334838
0.0218452
0.014706
0.0107858
0.00868694
0.00753705
0.00692983
0.00671387
0.00684905
0.00734456
0.00822118
0.00945671
0.0109232
0.0137274
0.040059
0.0820167
0.121538
0.154787
0.11756
0.0362947
0.0819123
0.128395
0.16555
0.19811
0.200259
0.0490504
0.104326
0.154332
0.193645
0.228727
0.238086
0.0598211
0.120502
0.172028
0.213141
0.250014
0.265477
0.0682809
0.133303
0.185197
0.22735
0.265351
0.287223
0.0748197
0.143611
0.195199
0.237697
0.276228
0.303409
0.0797939
0.15185
0.20268
0.244936
0.283399
0.314028
0.0834816
0.158291
0.208047
0.249585
0.287442
0.319595
0.0860864
0.163127
0.211605
0.252044
0.288803
0.320898
0.0877598
0.166505
0.213596
0.252652
0.287925
0.318928
0.0886243
0.168531
0.214209
0.251733
0.285232
0.314446
0.0887586
0.169274
0.213617
0.249546
0.281158
0.308351
0.0881416
0.168838
0.211941
0.246315
0.276081
0.301307
0.0866982
0.167294
0.209285
0.242219
0.2703
0.293806
0.08443
0.1647
0.205724
0.237384
0.264023
0.286169
0.0813182
0.161095
0.201301
0.231876
0.257354
0.278561
0.0773233
0.156489
0.196016
0.225689
0.250287
0.271004
0.0723821
0.150844
0.189802
0.218725
0.242685
0.263374
0.0664031
0.144032
0.182489
0.210767
0.234247
0.255386
0.0592577
0.135765
0.17373
0.201403
0.224419
0.246496
0.0507705
0.125415
0.16284
0.189894
0.212214
0.235632
0.0407045
0.111534
0.14837
0.174821
0.195809
0.220307
0.0286712
0.0901101
0.126765
0.153115
0.171698
0.192722
0.0103866
0.0514511
0.0892673
0.1184
0.134754
0.118084
0.241643
0.325291
0.314658
0.278569
0.237277
0.198344
0.162736
0.130646
0.102043
0.0769171
0.0554087
0.0379238
0.0250163
0.0167199
0.0120092
0.00945634
0.00804576
0.00726857
0.00692401
0.00696133
0.00737215
0.00821519
0.009444
0.0108411
0.225099
0.304141
0.313353
0.287809
0.24695
0.207287
0.170892
0.138162
0.109022
0.0833415
0.0611254
0.0426678
0.0285401
0.0190373
0.0134398
0.0103587
0.00864578
0.00767251
0.00717009
0.00705829
0.00731607
0.00799172
0.00906521
0.0102942
0.234778
0.293029
0.312389
0.294369
0.255462
0.215658
0.178761
0.14555
0.115974
0.0898208
0.0669772
0.0476328
0.0323479
0.0216233
0.015063
0.011385
0.00933163
0.00814296
0.00746703
0.00717892
0.00725447
0.0076951
0.00853045
0.00951801
0.258875
0.298298
0.314764
0.300215
0.263287
0.223573
0.186406
0.152849
0.122903
0.0963157
0.0728864
0.0527154
0.036339
0.0244067
0.0168335
0.0125001
0.0100723
0.00865542
0.00780359
0.00733773
0.00721604
0.00742596
0.00798286
0.0087082
0.290447
0.315122
0.322793
0.307152
0.270632
0.231176
0.193902
0.16009
0.129795
0.102763
0.0787485
0.057785
0.04038
0.027281
0.0186768
0.0136472
0.0108187
0.00916689
0.00814551
0.00751611
0.00720373
0.00721028
0.00749258
0.00796117
0.318083
0.337078
0.335198
0.314527
0.277743
0.238531
0.201254
0.167238
0.136592
0.109075
0.084435
0.06269
0.044315
0.0301135
0.0204979
0.0147577
0.0115162
0.00963021
0.00845225
0.0076824
0.00720996
0.00702042
0.00709536
0.00732401
0.336859
0.35319
0.346224
0.321245
0.284336
0.245472
0.208332
0.174169
0.143157
0.115105
0.0897997
0.0672717
0.047981
0.0327612
0.0221928
0.0157622
0.0121148
0.0100054
0.00868876
0.00780513
0.00720809
0.00686249
0.00676048
0.00680925
0.346599
0.361724
0.352855
0.326235
0.28988
0.251659
0.21485
0.180642
0.14928
0.120668
0.09467
0.0713656
0.0512213
0.035088
0.0236634
0.0166
0.0125775
0.0102665
0.00883321
0.00786263
0.00717703
0.00671881
0.00647656
0.00639841
0.349098
0.363409
0.354491
0.328569
0.293767
0.25668
0.220441
0.186328
0.154687
0.125537
0.0988612
0.074816
0.0539001
0.0369806
0.0248308
0.0172271
0.0128836
0.0104042
0.00887988
0.00784962
0.00710623
0.00657138
0.00623164
0.00606632
0.34676
0.360545
0.352468
0.328185
0.295527
0.260092
0.22474
0.19089
0.15908
0.129476
0.102191
0.0774846
0.0559106
0.038358
0.025643
0.0176207
0.0130296
0.0104252
0.00884003
0.0077723
0.00699351
0.00641026
0.00600822
0.00579172
0.340753
0.353732
0.347153
0.325548
0.295141
0.261587
0.227417
0.194039
0.162205
0.132269
0.104495
0.0792557
0.0571761
0.0391717
0.0260757
0.0177775
0.0130282
0.0103473
0.00872488
0.00763697
0.0068391
0.00623187
0.00579625
0.00555541
0.332776
0.344902
0.339547
0.320598
0.292923
0.261201
0.22828
0.195566
0.163881
0.133767
0.105658
0.0800518
0.0576553
0.0394099
0.0261377
0.0177196
0.0128986
0.0101818
0.00854505
0.00745063
0.00665066
0.00603954
0.00559247
0.00534497
0.323901
0.335258
0.330927
0.314132
0.288955
0.259187
0.227477
0.195447
0.164035
0.133912
0.105661
0.0799006
0.0574048
0.0391307
0.0258695
0.0174651
0.0126526
0.00994316
0.00831305
0.00722898
0.00644197
0.00584169
0.00539861
0.00515444
0.314863
0.325599
0.322038
0.306935
0.283615
0.255637
0.225147
0.193809
0.162754
0.132765
0.104539
0.0788036
0.0564042
0.0383097
0.0252562
0.0170156
0.0123017
0.0096445
0.00804709
0.00698947
0.00622633
0.00564667
0.00521804
0.00498215
0.306129
0.316439
0.313398
0.299492
0.277524
0.250755
0.221312
0.190676
0.160009
0.130244
0.102193
0.0766754
0.0545966
0.0369189
0.0242898
0.0163732
0.0118517
0.00929796
0.00776049
0.00674318
0.00601209
0.00546057
0.00505398
0.00482874
0.297953
0.308057
0.305317
0.292139
0.271017
0.245012
0.216184
0.186046
0.155742
0.126262
0.098515
0.0734067
0.0518906
0.034897
0.0229376
0.0155232
0.0113022
0.00890922
0.00745898
0.00649541
0.00580452
0.00528754
0.00490877
0.0046955
0.290423
0.300567
0.297943
0.285081
0.264345
0.238715
0.210193
0.180297
0.150235
0.121041
0.0936884
0.069149
0.0484059
0.032331
0.0212557
0.0144998
0.0106718
0.00848657
0.0071472
0.00625046
0.00560756
0.00513037
0.0047835
0.00458311
0.283506
0.293972
0.291306
0.278417
0.257689
0.232113
0.203667
0.173876
0.143981
0.11507
0.0881747
0.0643151
0.0444866
0.0294779
0.019408
0.0133888
0.00999792
0.00804681
0.00683456
0.00601448
0.00542533
0.00499115
0.0046782
0.00449131
0.277099
0.288226
0.285398
0.272222
0.251227
0.225481
0.196958
0.167193
0.137449
0.108852
0.0824711
0.0593605
0.0405135
0.0266207
0.0175756
0.0122919
0.00933555
0.00761997
0.00653809
0.00579748
0.0052635
0.00487231
0.00459267
0.00441917
0.271082
0.283333
0.28028
0.266661
0.245248
0.219229
0.190581
0.160843
0.131291
0.103065
0.0772529
0.0549193
0.0370314
0.0241706
0.0160264
0.0113644
0.00876997
0.00725286
0.00628416
0.00561447
0.00513022
0.00477739
0.00452715
0.00436573
0.265445
0.279511
0.276264
0.262161
0.240307
0.214028
0.185305
0.155678
0.126415
0.0986524
0.073462
0.0518852
0.0348041
0.0226858
0.0151058
0.0107993
0.00840559
0.0070027
0.00610535
0.00548434
0.00503585
0.00471123
0.00448278
0.00433048
0.26069
0.277511
0.274177
0.259621
0.237361
0.21088
0.182171
0.152768
0.123929
0.0967615
0.0722532
0.0512877
0.034644
0.0227228
0.0151531
0.0107937
0.00835952
0.00694014
0.00604118
0.00542793
0.00499164
0.00467948
0.00446163
0.00431392
0.25883
0.278824
0.275292
0.260158
0.237502
0.210859
0.182202
0.153051
0.124636
0.0979919
0.074001
0.0534082
0.0368074
0.0245212
0.0163541
0.0114592
0.00868565
0.00709052
0.0061101
0.00546034
0.00500734
0.00468746
0.00446612
0.00431671
0.264882
0.285612
0.28102
0.264769
0.241498
0.214545
0.185843
0.15686
0.128759
0.102475
0.0787561
0.0581866
0.0412011
0.0280721
0.018801
0.0129103
0.00946888
0.00750436
0.00633637
0.00559143
0.00508722
0.00473726
0.00449733
0.00433966
0.0333601
0.113785
0.170049
0.190881
0.154783
0.161398
0.0602847
0.157806
0.214555
0.245706
0.26066
0.285504
0.0768374
0.187946
0.244021
0.280044
0.306225
0.326878
0.0918938
0.207858
0.264135
0.302478
0.330625
0.348006
0.103938
0.222359
0.278938
0.318309
0.346463
0.362127
0.113625
0.233471
0.290334
0.330223
0.35816
0.373151
0.121385
0.242161
0.299315
0.339617
0.367609
0.38264
0.127498
0.248903
0.306418
0.347237
0.375675
0.391265
0.132143
0.253917
0.311923
0.353458
0.382728
0.399283
0.135435
0.257274
0.315953
0.358432
0.388868
0.406694
0.137442
0.258961
0.318528
0.362162
0.394011
0.413292
0.138157
0.258918
0.3196
0.36455
0.397942
0.418694
0.13787
0.257044
0.319086
0.365427
0.400346
0.422333
0.136754
0.253195
0.316841
0.364578
0.400827
0.42349
0.13478
0.247353
0.312724
0.361751
0.399061
0.421725
0.131823
0.239476
0.306553
0.356672
0.394646
0.416272
0.127759
0.229485
0.298105
0.349034
0.387231
0.406706
0.122423
0.217262
0.287101
0.338498
0.376541
0.392723
0.115557
0.20263
0.273189
0.324648
0.362217
0.374261
0.106718
0.185316
0.255912
0.30693
0.343611
0.351358
0.0951399
0.164909
0.234577
0.284545
0.319551
0.323621
0.0795895
0.140585
0.20777
0.256165
0.28748
0.288412
0.0626413
0.109915
0.171402
0.219268
0.23947
0.23638
0.0316037
0.0577839
0.111462
0.171228
0.154585
0.127276
0.286438
0.29874
0.291396
0.27329
0.249088
0.221601
0.192668
0.163669
0.135664
0.109469
0.0856996
0.0648068
0.0471207
0.032891
0.0222618
0.0150799
0.010698
0.0081777
0.00671597
0.00581809
0.00522954
0.00482843
0.00455574
0.00438382
0.315346
0.31573
0.304516
0.284347
0.25903
0.230868
0.201558
0.172363
0.144229
0.117852
0.0937389
0.0722526
0.0536726
0.0382585
0.0262441
0.0177014
0.0122506
0.00904925
0.00721387
0.0061197
0.00542284
0.0049554
0.00463952
0.00444935
0.337283
0.332183
0.317932
0.29617
0.269836
0.24101
0.211266
0.181759
0.153326
0.126566
0.101905
0.0796596
0.0601048
0.0435407
0.0302413
0.0204119
0.0139
0.0100017
0.00776743
0.00646035
0.00564807
0.0051091
0.00474553
0.00453599
0.353677
0.346443
0.330441
0.30757
0.28043
0.251018
0.220831
0.19094
0.162097
0.13482
0.109499
0.0864252
0.0658351
0.0480056
0.0333929
0.0224184
0.0151068
0.0107406
0.00824908
0.00679164
0.00588383
0.00528012
0.00487086
0.00464352
0.366622
0.358674
0.34173
0.318073
0.290265
0.260303
0.229647
0.199303
0.169971
0.142086
0.115932
0.0917919
0.06999
0.0509734
0.0353436
0.0236397
0.0158601
0.0112361
0.00862144
0.00708502
0.00611642
0.00546263
0.00501429
0.00477211
0.377609
0.369486
0.351948
0.327609
0.29913
0.268561
0.237356
0.206456
0.176393
0.147629
0.120476
0.0952897
0.0725153
0.0527076
0.0364696
0.0243339
0.016308
0.0115687
0.00890389
0.00734247
0.00634249
0.00565412
0.00517554
0.00492173
0.387527
0.379419
0.361345
0.336234
0.306937
0.275601
0.243568
0.211747
0.180776
0.151115
0.123164
0.0972529
0.0738328
0.0534826
0.0368631
0.0245321
0.0164645
0.0117528
0.00911646
0.00756987
0.00656229
0.005853
0.00535383
0.00509131
0.396851
0.38881
0.370084
0.343965
0.313579
0.281024
0.247779
0.214967
0.183238
0.15291
0.124336
0.0978894
0.0740238
0.0533302
0.0365272
0.0242385
0.0163543
0.0118058
0.00926578
0.00776554
0.00677241
0.0060557
0.00554669
0.00527872
0.405759
0.397766
0.378158
0.350683
0.318644
0.284443
0.250069
0.216405
0.183955
0.153042
0.123972
0.0970961
0.0729012
0.0520457
0.0353407
0.0234058
0.0159567
0.0117315
0.00935234
0.00792121
0.00696092
0.00625402
0.0057494
0.00548162
0.414179
0.406151
0.385348
0.355958
0.321713
0.286031
0.250493
0.215871
0.18265
0.151189
0.121754
0.0946707
0.0704271
0.0497408
0.0334905
0.0222184
0.0153879
0.0115634
0.00938382
0.00803727
0.00711926
0.00643891
0.0059567
0.00569942
0.421793
0.41356
0.391125
0.359098
0.322918
0.285579
0.248584
0.212934
0.179109
0.147333
0.117795
0.0907929
0.0668332
0.0466792
0.0312245
0.0208515
0.0147382
0.0113374
0.00936752
0.00811199
0.00724178
0.00660551
0.00616713
0.00593684
0.428004
0.419126
0.394414
0.360207
0.321877
0.282534
0.244169
0.207724
0.173525
0.141687
0.112342
0.0857557
0.0624249
0.0431361
0.0287524
0.0194231
0.0140532
0.0110645
0.00929838
0.00814199
0.00732993
0.0067552
0.00638597
0.00620671
0.431658
0.42165
0.395283
0.358822
0.318085
0.276959
0.23751
0.200526
0.166211
0.13461
0.105778
0.0799164
0.0575061
0.0393477
0.0262228
0.0179946
0.0133445
0.0107402
0.00916877
0.00812282
0.00738578
0.00689474
0.00662516
0.00652951
0.432105
0.421033
0.393036
0.354418
0.311734
0.26927
0.229063
0.19181
0.157668
0.126591
0.0985292
0.0736213
0.0523386
0.035492
0.0237264
0.0165892
0.0126079
0.0103549
0.00897005
0.00804305
0.00740855
0.00703267
0.00690172
0.00692896
0.428068
0.415579
0.386924
0.347297
0.30349
0.260162
0.219485
0.182232
0.148501
0.118135
0.090992
0.0671594
0.0471229
0.0316946
0.0213178
0.0152167
0.0118403
0.00990586
0.0087021
0.00790774
0.0074065
0.00718486
0.00723426
0.00742651
0.417958
0.404437
0.377308
0.338547
0.294397
0.250505
0.209575
0.172494
0.139275
0.109672
0.0834706
0.0607398
0.0420042
0.028048
0.0190376
0.0138898
0.0110502
0.00940383
0.00837853
0.00773275
0.00739391
0.00736815
0.00762142
0.00805164
0.400518
0.387876
0.365817
0.329846
0.285618
0.241204
0.200064
0.163152
0.130396
0.101482
0.0761546
0.0544974
0.0370903
0.0246287
0.0169243
0.0126308
0.0102601
0.00887378
0.00802571
0.0075444
0.0073961
0.0075789
0.00810078
0.0087865
0.375579
0.368479
0.355321
0.323062
0.278132
0.2329
0.191391
0.1545
0.12206
0.0936902
0.0691307
0.0485149
0.032469
0.0215025
0.0150139
0.011468
0.0095018
0.00835007
0.00767686
0.0073707
0.00742291
0.00783371
0.00864427
0.00959963
0.345735
0.353938
0.350318
0.319475
0.272305
0.225748
0.18362
0.146561
0.114263
0.0862953
0.0624166
0.0428498
0.0282154
0.0187207
0.0133341
0.0104288
0.00880834
0.00786744
0.00736267
0.00723114
0.00746709
0.00812271
0.00918839
0.0104062
0.317828
0.348929
0.35009
0.31807
0.267641
0.219416
0.176514
0.139161
0.106883
0.0792242
0.0560127
0.0375556
0.0243926
0.0163137
0.0118976
0.00953103
0.00820386
0.00744973
0.00709793
0.00711857
0.00751326
0.00835698
0.00960133
0.0109997
0.303891
0.35205
0.355766
0.317571
0.26326
0.213357
0.169702
0.132035
0.0997496
0.0724033
0.0499235
0.0326857
0.0210437
0.014286
0.0106991
0.00877677
0.00769538
0.00710183
0.00687749
0.00700297
0.00749596
0.00838524
0.0096421
0.0111097
0.299978
0.370812
0.366028
0.316045
0.258267
0.207047
0.162828
0.124941
0.0927148
0.0657751
0.0441657
0.0282904
0.0181873
0.0126179
0.00971677
0.00815253
0.00727256
0.00681109
0.00668093
0.00686378
0.00736572
0.00816399
0.00923182
0.0105935
0.310676
0.397848
0.372529
0.311666
0.252029
0.200107
0.155622
0.117695
0.0856811
0.0593223
0.0387831
0.024418
0.0158184
0.0112749
0.00892226
0.00763853
0.00691767
0.00655777
0.00648396
0.00666584
0.00706089
0.00756885
0.00808903
0.00877085
0.358363
0.423282
0.374601
0.305187
0.244372
0.192322
0.147914
0.110191
0.0786148
0.0530764
0.0338421
0.0211036
0.013911
0.0102193
0.00829417
0.00722615
0.00662938
0.00635016
0.00633202
0.0065198
0.00680828
0.0070373
0.00694061
0.00589771
0.021188
0.0996901
0.171273
0.208788
0.189106
0.249376
0.045969
0.15317
0.223687
0.273807
0.318016
0.422075
0.060107
0.180312
0.25148
0.30577
0.355834
0.431029
0.073027
0.19661
0.266753
0.319025
0.364328
0.413715
0.0840924
0.20749
0.275023
0.322746
0.360902
0.391951
0.0932485
0.215224
0.278944
0.321208
0.351429
0.370195
0.100534
0.220789
0.279863
0.316304
0.339313
0.349627
0.106054
0.22457
0.278712
0.309384
0.326183
0.330512
0.109964
0.226682
0.275872
0.301222
0.312826
0.312814
0.112451
0.227127
0.271638
0.292281
0.299616
0.296382
0.113728
0.226002
0.26624
0.282858
0.286741
0.28102
0.114028
0.223347
0.259873
0.27315
0.274265
0.266603
0.113635
0.219247
0.252713
0.26329
0.262202
0.253005
0.11244
0.213842
0.244899
0.253378
0.250527
0.240092
0.110198
0.207279
0.236536
0.243449
0.239181
0.227736
0.106769
0.199661
0.227677
0.233471
0.228068
0.215807
0.102044
0.191028
0.218288
0.223336
0.217052
0.204173
0.0959056
0.181319
0.208209
0.212826
0.205945
0.192698
0.0882135
0.17032
0.197091
0.201574
0.194486
0.181233
0.0788136
0.157563
0.184311
0.188981
0.182284
0.169588
0.0676086
0.142136
0.168789
0.174071
0.168701
0.157473
0.0547019
0.122185
0.148624
0.1552
0.152558
0.144303
0.0409277
0.0935051
0.119894
0.129328
0.131181
0.128249
0.0164738
0.0479571
0.081112
0.0974301
0.104174
0.106878
0.44053
0.43452
0.366512
0.295329
0.235034
0.183567
0.139631
0.102408
0.0715468
0.0471108
0.0294168
0.018357
0.0124218
0.00941648
0.00782261
0.00692369
0.00643234
0.00623518
0.00627113
0.00646617
0.00671982
0.00685398
0.00667673
0.00562237
0.477261
0.425637
0.35006
0.282541
0.224181
0.173903
0.130818
0.0944067
0.0645643
0.0415253
0.025567
0.0161508
0.0112922
0.00883066
0.00749429
0.00673082
0.00633162
0.00620307
0.00627138
0.00648091
0.00670048
0.00675243
0.00645876
0.00544762
0.450189
0.400936
0.331454
0.268137
0.212244
0.16353
0.121607
0.0863074
0.0577911
0.0364171
0.0223063
0.0144296
0.0104625
0.00842187
0.00728182
0.00662546
0.00630172
0.00621915
0.00632185
0.0065284
0.00668089
0.00663308
0.00623492
0.00527374
0.419201
0.374518
0.311912
0.252868
0.199627
0.152692
0.112173
0.0782584
0.0513525
0.0318549
0.0196256
0.0131166
0.00986223
0.00814044
0.00714741
0.00657438
0.00630709
0.00625649
0.00636347
0.00653095
0.00660585
0.00645249
0.0059761
0.00508141
0.390149
0.348764
0.292347
0.237295
0.186672
0.141618
0.10269
0.0704055
0.0453545
0.027874
0.0174728
0.0121218
0.00942305
0.00794036
0.00705643
0.00654476
0.00631359
0.00627269
0.00636408
0.00647087
0.00646377
0.00621632
0.005695
0.00488483
0.363811
0.324816
0.273365
0.2218
0.173641
0.130501
0.0933133
0.0628777
0.0398731
0.0244726
0.0157645
0.0113613
0.00908797
0.00778356
0.00698022
0.00651199
0.00630092
0.00625565
0.00630919
0.00634659
0.00625745
0.0059402
0.005407
0.00469359
0.339946
0.302849
0.255219
0.206605
0.160712
0.119492
0.0841761
0.0557764
0.0349529
0.0216227
0.0144029
0.0107636
0.0088124
0.00764067
0.00689671
0.00645637
0.00624955
0.00618769
0.00619156
0.00616456
0.00600266
0.00564273
0.00512665
0.00451551
0.318281
0.282699
0.237971
0.191824
0.148009
0.10871
0.0753889
0.0491791
0.0306081
0.019263
0.0133062
0.010269
0.0085628
0.00749122
0.00679176
0.00636754
0.00615453
0.00606622
0.00602158
0.00593447
0.00571926
0.00534306
0.00486574
0.00435588
0.298534
0.264132
0.221592
0.177508
0.135613
0.0982476
0.0670441
0.0431359
0.0268249
0.017311
0.0124067
0.00983675
0.00831783
0.00732355
0.00665859
0.0062438
0.00601753
0.0058987
0.00581053
0.00567453
0.00542673
0.00505702
0.00463234
0.00421771
0.280455
0.246907
0.206011
0.163671
0.123581
0.0881845
0.0592108
0.0376739
0.0235751
0.015691
0.011646
0.00943864
0.00806532
0.00713292
0.00649576
0.00608703
0.00584599
0.00569935
0.00557389
0.00540321
0.00514213
0.00479611
0.00443083
0.00410194
0.263817
0.230803
0.191144
0.150311
0.111958
0.0785888
0.0519426
0.0328021
0.0208132
0.0143361
0.0109795
0.00905635
0.0078
0.00692009
0.00630769
0.00590448
0.00565167
0.00548137
0.00532766
0.00513662
0.00487834
0.00456735
0.00426248
0.00400786
0.248377
0.215635
0.176911
0.137419
0.100782
0.0695237
0.0452782
0.0285107
0.0184782
0.0131896
0.0103787
0.0086811
0.00752228
0.0066901
0.0061024
0.00570663
0.00544589
0.00525792
0.00508578
0.0048872
0.00464376
0.00437373
0.00412613
0.00393361
0.233923
0.201247
0.163237
0.124992
0.0900972
0.0610454
0.0392405
0.0247797
0.0165117
0.0122042
0.00982508
0.00831018
0.00723634
0.00645065
0.00588948
0.00550392
0.00523953
0.00504047
0.0048591
0.00466331
0.00444259
0.00421504
0.00401894
0.0038767
0.220279
0.18751
0.150068
0.113037
0.0799542
0.053202
0.0338437
0.0215837
0.0148598
0.0113447
0.00930839
0.00794504
0.00694876
0.00621027
0.00567811
0.00530564
0.00504181
0.00483784
0.004655
0.00446947
0.00427559
0.00408884
0.00393714
0.00383436
0.207298
0.174321
0.137366
0.101578
0.0704164
0.0460365
0.0290924
0.0188848
0.0134723
0.0105871
0.00882475
0.00759023
0.00666713
0.00597721
0.00547621
0.0051193
0.00485971
0.00465603
0.00447762
0.004307
0.00414103
0.0039913
0.00387652
0.00380389
0.194864
0.161604
0.125119
0.0906625
0.0615537
0.0395856
0.0249866
0.016639
0.0123065
0.00991575
0.00837419
0.00725216
0.00639949
0.0057589
0.00529016
0.00495041
0.00469791
0.00449848
0.00432841
0.00417487
0.00403562
0.003918
0.00383298
0.00378277
0.182887
0.14931
0.113345
0.0803661
0.053439
0.033886
0.0215235
0.0148006
0.0113284
0.00932202
0.00795987
0.00693786
0.00615307
0.00556134
0.00512461
0.00480259
0.00455905
0.00436651
0.0042069
0.00407065
0.00395539
0.00386449
0.00380277
0.0037688
0.171304
0.13742
0.102096
0.0707946
0.0461466
0.0289733
0.0186897
0.0133225
0.0105125
0.00880219
0.00758674
0.00665425
0.00593388
0.00538887
0.00498254
0.00467784
0.00444415
0.00425986
0.00411137
0.00399118
0.00389628
0.00382668
0.00378262
0.00376009
0.16008
0.125945
0.0914687
0.0620667
0.0397612
0.0248888
0.0164596
0.0121615
0.00984227
0.00835618
0.00726068
0.00640767
0.00574657
0.00524433
0.00486557
0.00457692
0.00435305
0.00417728
0.00403937
0.00393309
0.00385451
0.00380098
0.00376996
0.00375504
0.149211
0.114928
0.0816004
0.0543153
0.0343863
0.0216746
0.0147846
0.0112785
0.00930721
0.00798644
0.00698733
0.00620297
0.00559407
0.00512914
0.00477425
0.00449979
0.00428498
0.00411707
0.00398831
0.00389321
0.00382695
0.00378484
0.00376259
0.00375243
0.138706
0.104441
0.0726507
0.0477097
0.0301439
0.0193479
0.0136143
0.0106457
0.00890305
0.00769681
0.00677153
0.00604338
0.00547779
0.00504355
0.00470834
0.00444584
0.00423888
0.00407756
0.00395587
0.00386876
0.00381074
0.00377602
0.00375891
0.0037515
0.128495
0.0945713
0.064861
0.0424823
0.0271441
0.0178785
0.0129119
0.0102483
0.00863028
0.00749193
0.00661727
0.00593085
0.00539801
0.00498707
0.00466705
0.00441411
0.00421353
0.00405717
0.00394025
0.00385791
0.00380448
0.00377347
0.00375817
0.00375139
0.11813
0.0854969
0.0586092
0.0388837
0.0254465
0.0172379
0.0126554
0.010086
0.00849339
0.00737666
0.00652763
0.00586644
0.00535453
0.00495898
0.00464953
0.00440373
0.00420807
0.00405528
0.00394058
0.00385963
0.00380686
0.00377564
0.0037595
0.0037518
0.107057
0.0777296
0.0544163
0.0371362
0.0250476
0.0173393
0.0127983
0.0101498
0.00849666
0.00735584
0.0065044
0.00585013
0.00534671
0.00495853
0.00465506
0.00441397
0.00422157
0.00407033
0.00395553
0.00387287
0.00381721
0.0037826
0.00376297
0.00375278
)
;

boundaryField
{
    rotor
    {
        type            kqRWallFunction;
        value           nonuniform List<scalar> 
144
(
0.0112667
0.0370554
0.0615476
0.0765437
0.085212
0.0909282
0.0112667
0.0325921
0.0455484
0.0572935
0.0672101
0.0753302
0.0818513
0.0869779
0.0908659
0.093616
0.0952907
0.0959552
0.0958508
0.0953773
0.0942717
0.0922907
0.0891977
0.0847501
0.0786931
0.0707828
0.0608414
0.0488325
0.0353898
0.0131036
0.0131036
0.0694339
0.12575
0.172685
0.159889
0.190879
0.0137274
0.040059
0.0820167
0.121538
0.154787
0.11756
0.0137274
0.0362947
0.0490504
0.0598211
0.0682809
0.0748197
0.0797939
0.0834816
0.0860864
0.0877598
0.0886243
0.0887586
0.0881416
0.0866982
0.08443
0.0813182
0.0773233
0.0723821
0.0664031
0.0592577
0.0507705
0.0407045
0.0286712
0.0103866
0.0103866
0.0514511
0.0892673
0.1184
0.134754
0.118084
0.0333601
0.113785
0.170049
0.190881
0.154783
0.161398
0.0333601
0.0602847
0.0768374
0.0918938
0.103938
0.113625
0.121385
0.127498
0.132143
0.135435
0.137442
0.138157
0.13787
0.136754
0.13478
0.131823
0.127759
0.122423